FOO
141312
    1MOL0     O    1  10.935   9.710   5.051 -0.5795  0.7463  0.6967
    1MOL0     C    2  10.887   9.610   5.110  0.8425  0.8796 -0.5782
    1MOL0     O    3  10.946   9.486   5.123 -0.0265  0.8950  0.7825
    1MOL0     C    4  11.037   9.454   5.030  0.5760  0.1918  0.5807
    1MOL0     C    5  10.994   9.448   4.893  0.4300  0.6687  0.1777
    1MOL0     C    6  11.096   9.427   4.794  0.3767 -0.9573  0.2632
    1MOL0     C    7  11.223   9.383   4.826 -0.1628 -0.2748  0.3416
    1MOL0     O    8  11.319   9.365   4.727  0.2669 -0.5403 -0.0672
    1MOL0     C    9  11.282   9.392   4.589 -0.7119  0.4131 -0.2525
    1MOL0     C   10  11.414   9.377   4.500  0.3824  0.2153  0.4373
    1MOL0     C   11  11.547   9.413   4.568  0.4496 -0.4313  0.4894
    1MOL0     C   12  11.556   9.558   4.602  0.3613  0.5577 -0.6383
    1MOL0     C   13  11.666   9.593   4.701  0.7531 -0.3317 -0.2001
    1MOL0     C   14  11.712   9.745   4.708 -0.2347 -0.4397 -0.2619
    1MOL0     C   15  11.865   9.751   4.732 -0.5023 -0.5377 -0.0231
    1MOL0     C   16  11.911   9.898   4.736  0.8237 -0.4040  0.5492
    1MOL0     N   17  11.927   9.958   4.602 -0.3456  0.1671  0.1180
    1MOL0     C   18  11.934  10.094   4.574 -1.1208 -0.1854  0.4795
    1MOL0     C   19  11.962  10.105   4.443 -0.5545  0.4491 -0.9741
    1MOL0     C   20  12.001  10.230   4.368  0.5448 -0.3472 -1.0269
    1MOL0     C   21  11.897  10.346   4.368  0.5315 -0.0106 -1.1165
    1MOL0     C   22  11.773  10.311   4.280 -0.4911  0.2166 -0.1250
    1MOL0     C   23  11.660  10.419   4.298 -0.1984  1.2001  0.5438
    1MOL0     O   24  11.568  10.403   4.192 -0.3106  0.7704 -0.8013
    1MOL0     C   25  11.505  10.509   4.142  0.3099 -0.7147  0.5742
    1MOL0     C   26  11.525  10.648   4.176 -0.2034 -0.0158 -0.0496
    1MOL0     C   27  11.447  10.757   4.125  0.4611  0.2886  0.2842
    1MOL0     C   28  11.488  10.898   4.172  0.0176 -0.6589  0.2667
    1MOL0     C   29  11.330  10.728   4.052 -0.1579 -0.3530 -0.1000
    1MOL0     C   30  11.219  10.822   4.029  0.0295  0.3149  0.1161
    1MOL0     O   31  11.099  10.773   4.071  0.2261 -0.0496  0.0583
    1MOL0     C   32  10.982  10.838   4.060 -0.5384 -0.2576  0.9963
    1MOL0     C   33  10.944  10.924   3.955  0.4040  0.9942  0.1876
    1MOL0     C   34  10.810  10.962   3.947 -0.6479 -0.9686  0.2970
    1MOL0     C   35  10.722  10.918   4.033 -0.0580  0.4117  0.0821
    1MOL0     O   36  10.591  10.946   4.023 -0.4298 -0.0188  0.0677
    1MOL0     C   37  10.514  10.845   3.946  0.7410 -0.4197 -0.1645
    1MOL0     C   38  10.387  10.911   3.868 -0.6495  0.1496 -0.0046
    1MOL0     C   39  10.420  11.005   3.752 -0.7795 -0.5524  0.0810
    1MOL0     C   40  10.300  11.053   3.670 -0.4451  0.6761  0.1051
    1MOL0     C   41  10.344  11.168   3.575 -0.2936 -0.4558 -0.0131
    1MOL0     C   42  10.206  11.222   3.527 -0.5608 -1.2029 -0.3412
    1MOL0     C   43  10.225  11.330   3.415  0.1421 -0.4129 -0.4686
    1MOL0     C   44  10.272  11.267   3.277 -0.4396 -1.1927  0.4565
    1MOL0    Cl   45  10.203  11.107   3.226  0.1194 -0.2429  0.1012
    1MOL0     C   46  10.767  10.840   4.145 -0.8980  0.0617  0.6940
    1MOL0     C   47  10.890  10.786   4.148 -0.4355 -0.6103  0.3373
    1MOL0     O   48  11.242  10.931   3.988  0.3887 -0.1102 -0.0005
    1MOL0     C   49  11.315  10.597   4.008  0.4384 -0.1604  0.4437
    1MOL0     C   50  11.402  10.493   4.051  0.4695 -1.1857  0.2429
    1MOL0     N   51  11.963   9.971   4.393  0.0592  0.0380 -0.0090
    1MOL0     N   52  11.932   9.887   4.488  0.3259  0.6987  0.5213
    1MOL0     C   53  11.257   9.356   4.959  0.4511 -1.0863  1.8168
    1MOL0     C   54  11.162   9.406   5.057 -0.1964 -0.3059 -0.1186
    1MOL0     C   55  10.743   9.636   5.160  0.1879  0.5327  1.1878
    1MOL0     C   56  10.666   9.752   5.106  0.3204 -0.6835  0.6903
    1MOL0     C   57  10.532   9.764   5.150  0.2883 -0.1111  0.0491
    1MOL0     C   58  10.456   9.656   5.213  0.4300 -0.3748 -0.0012
    1MOL0     O   59  10.321   9.660   5.250 -0.0833  0.6746  0.0740
    1MOL0     C   60  10.241   9.744   5.168  0.3492  0.2274 -0.2374
    1MOL0     C   61  10.094   9.699   5.171  0.3327  0.8134  0.3151
    1MOL0     C   62  10.007   9.794   5.076  0.1214 -0.1227 -0.3328
    1MOL0     C   63   9.859   9.771   5.096 -0.5440 -0.5548 -0.0240
    1MOL0     C   64   9.796   9.823   5.216  0.2355  0.2552 -0.7283
    1MOL0     C   65   9.731   9.855   5.316  0.4900 -0.1665  0.1663
    1MOL0     C   66  10.529   9.540   5.246  0.2350 -0.5943 -0.5304
    1MOL0     C   67  10.671   9.530   5.226  0.7889 -0.3634  0.0394
    1MOL0     C   68  10.733   9.405   5.286 -0.1692 -0.0333 -0.3590
    1MOL0     H   69  10.891   9.473   4.872 -0.5149  0.1332  3.5046
    1MOL0     H   70  11.059   9.456   4.697  0.0267  3.1389  1.4229
    1MOL0     H   71  11.242   9.491   4.570  0.1903  0.4840 -1.9854
    1MOL0     H   72  11.200   9.330   4.553 -0.7932  1.8642 -2.7979
    1MOL0     H   73  11.416   9.271   4.472  0.9773 -0.4736  2.8788
    1MOL0     H   74  11.400   9.430   4.405 -0.8506 -2.3871 -0.9287
    1MOL0     H   75  11.539   9.344   4.653  0.9761  0.3256  1.1631
    1MOL0     H   76  11.633   9.382   4.508 -0.9143 -0.5419 -1.5104
    1MOL0     H   77  11.575   9.621   4.514 -1.9783 -0.6793 -2.1081
    1MOL0     H   78  11.462   9.596   4.643 -0.3299  1.2222 -2.7039
    1MOL0     H   79  11.750   9.531   4.670 -0.1429 -1.2880 -0.8125
    1MOL0     H   80  11.624   9.559   4.796 -1.1665  2.8240  0.2471
    1MOL0     H   81  11.686   9.786   4.610  0.5599 -0.9516 -0.6966
    1MOL0     H   82  11.657   9.783   4.795  1.1641 -1.4065  1.0925
    1MOL0     H   83  11.926   9.699   4.658 -1.7874 -2.0293 -0.0880
    1MOL0     H   84  11.890   9.691   4.820  2.0830 -1.1111 -1.0658
    1MOL0     H   85  11.829   9.953   4.784  1.4883  1.3574 -0.2317
    1MOL0     H   86  12.006   9.908   4.787  1.2109  1.9355 -0.4582
    1MOL0     H   87  11.915  10.171   4.649 -0.3801  1.3464 -0.8624
    1MOL0     H   88  12.036  10.215   4.265 -1.5752 -0.4551 -1.7886
    1MOL0     H   89  12.088  10.272   4.420 -0.7846 -0.9338  1.8459
    1MOL0     H   90  11.866  10.386   4.465  1.5755  4.2486 -2.3533
    1MOL0     H   91  11.953  10.426   4.318  0.4937  2.5384  2.5415
    1MOL0     H   92  11.796  10.304   4.174 -0.6137 -2.2246 -0.0627
    1MOL0     H   93  11.750  10.214   4.325 -1.0748  0.3124 -0.2129
    1MOL0     H   94  11.613  10.394   4.394 -0.1878  1.8020  0.7079
    1MOL0     H   95  11.711  10.515   4.301  1.5191  0.3186  0.7353
    1MOL0     H   96  11.610  10.678   4.237 -2.6213  5.6227  1.2120
    1MOL0     H   97  11.395  10.954   4.176  1.4141  1.7135  1.9888
    1MOL0     H   98  11.552  10.949   4.100 -1.7649  1.4665  0.1150
    1MOL0     H   99  11.530  10.901   4.273 -2.1369 -3.4483  1.3770
    1MOL0     H  100  11.015  10.965   3.884  0.5600 -0.6619 -0.6470
    1MOL0     H  101  10.791  11.033   3.867  0.9170  2.3596  2.6658
    1MOL0     H  102  10.585  10.797   3.878  3.1638  0.6050  1.4881
    1MOL0     H  103  10.471  10.770   4.013  0.2423 -1.0281 -1.1304
    1MOL0     H  104  10.339  10.827   3.817 -1.5788  3.1783 -4.6939
    1MOL0     H  105  10.320  10.970   3.930 -1.8437  0.6483 -1.6989
    1MOL0     H  106  10.493  10.971   3.678 -2.4560  1.7910 -2.8902
    1MOL0     H  107  10.457  11.094   3.803 -1.8988  0.0646 -0.1440
    1MOL0     H  108  10.217  11.086   3.732 -0.4754 -2.9780  2.2894
    1MOL0     H  109  10.257  10.973   3.609 -0.7498  0.8026  0.1525
    1MOL0     H  110  10.395  11.254   3.620 -1.7354  0.0143  0.8025
    1MOL0     H  111  10.410  11.127   3.498  2.3176 -0.3899  2.0437
    1MOL0     H  112  10.150  11.266   3.610  0.8439 -0.5605  0.3131
    1MOL0     H  113  10.152  11.141   3.477  1.3296 -0.2387 -4.2979
    1MOL0     H  114  10.303  11.399   3.448 -1.9366  2.3444 -0.9521
    1MOL0     H  115  10.130  11.384   3.408 -0.6613 -1.1570  2.7435
    1MOL0     H  116  10.379  11.247   3.291 -0.1206 -2.6653 -3.1096
    1MOL0     H  117  10.255  11.340   3.197 -1.1500 -0.8947  0.8647
    1MOL0     H  118  10.691  10.787   4.202 -1.3668  0.1344  0.1482
    1MOL0     H  119  10.910  10.713   4.227  1.0388 -0.5101  0.0759
    1MOL0     H  120  11.217  10.566   3.971  0.6293 -1.1709  0.7704
    1MOL0     H  121  11.365  10.394   4.028 -0.6644 -0.6112 -0.5175
    1MOL0     H  122  11.361   9.338   4.983  1.4547  2.1566  0.3733
    1MOL0     H  123  11.185   9.418   5.163 -0.8422  1.5952 -0.1596
    1MOL0     H  124  10.717   9.835   5.059  0.6627 -1.7905 -0.9867
    1MOL0     H  125  10.490   9.860   5.123 -1.8571 -1.2907 -1.0067
    1MOL0     H  126  10.252   9.848   5.202 -1.8731  1.5050 -2.9695
    1MOL0     H  127  10.276   9.745   5.064  1.1461 -0.4783  0.0144
    1MOL0     H  128  10.053   9.718   5.270 -0.8812  1.2822 -0.2570
    1MOL0     H  129  10.087   9.592   5.147  1.7852  0.3758  1.6769
    1MOL0     H  130  10.018   9.902   5.083 -1.3304 -0.0202  0.7100
    1MOL0     H  131  10.022   9.756   4.974  1.3674 -3.1136  0.8284
    1MOL0     H  132   9.822   9.669   5.081 -2.2663  0.0292  0.0062
    1MOL0     H  133   9.816   9.835   5.020  3.4995  3.0328  0.3486
    1MOL0     H  134   9.681   9.889   5.405 -1.0319 -0.3212 -0.6074
    1MOL0     H  135  10.467   9.465   5.292 -0.7319  2.2504  3.3216
    1MOL0     H  136  10.826   9.437   5.335  1.1728 -1.2111 -2.0372
    1MOL0     H  137  10.665   9.361   5.360  0.5973 -1.8301 -0.6869
    1MOL0     H  138  10.766   9.344   5.202 -2.5996  0.4981 -1.8110
    2MOL0     O  139   2.390   3.462   3.041 -0.2629 -0.7049 -0.5769
    2MOL0     C  140   2.316   3.539   3.097  0.7638  0.3642  0.1475
    2MOL0     O  141   2.188   3.507   3.136  0.6916 -0.4285 -0.1124
    2MOL0     C  142   2.154   3.377   3.158  1.1731 -0.6062  0.2932
    2MOL0     C  143   2.244   3.283   3.213  0.0867 -0.3315 -0.4906
    2MOL0     C  144   2.205   3.153   3.234 -0.0326 -0.6561  0.2340
    2MOL0     C  145   2.069   3.114   3.220 -0.1470 -0.4361  1.4822
    2MOL0     O  146   2.027   2.995   3.255  0.1324 -0.7035  0.4631
    2MOL0     C  147   2.117   2.893   3.304 -0.2550  0.3043 -0.4724
    2MOL0     C  148   2.037   2.800   3.392 -0.1532  0.2580 -0.3807
    2MOL0     C  149   2.021   2.870   3.530 -0.1039 -0.1171  0.2974
    2MOL0     C  150   1.923   2.785   3.618 -0.1120 -0.2166 -0.1630
    2MOL0     C  151   1.914   2.824   3.773  0.8626  0.3869  0.1325
    2MOL0     C  152   1.832   2.711   3.852 -0.5856  0.5420 -0.1482
    2MOL0     C  153   1.907   2.574   3.866  0.0621  0.3910  0.4175
    2MOL0     C  154   2.035   2.564   3.948  0.0067 -0.0426 -0.1027
    2MOL0     N  155   2.087   2.425   3.961 -0.0561 -0.6116  0.2221
    2MOL0     C  156   2.027   2.319   4.030  0.0213 -0.0835 -0.8407
    2MOL0     C  157   2.120   2.219   4.031 -0.1990 -0.3502  1.0049
    2MOL0     C  158   2.105   2.062   4.067  0.0778  0.0249 -0.3754
    2MOL0     C  159   2.069   2.034   4.213 -0.3110  0.0581  0.1444
    2MOL0     C  160   2.121   1.895   4.258 -0.1083 -0.2064  0.1323
    2MOL0     C  161   2.148   1.885   4.407  0.4450 -0.2741  0.9486
    2MOL0     O  162   2.208   1.758   4.428  0.3317  0.0574  0.0204
    2MOL0     C  163   2.135   1.647   4.431 -0.8275  0.1654 -0.6651
    2MOL0     C  164   2.168   1.542   4.348  0.0165 -0.5720  0.3204
    2MOL0     C  165   2.104   1.418   4.349 -0.8533  0.5030  0.2448
    2MOL0     C  166   2.168   1.309   4.264  0.5952  0.0071 -0.4216
    2MOL0     C  167   2.000   1.400   4.451 -0.5947 -0.2181  0.1250
    2MOL0     C  168   1.943   1.265   4.485  0.0846  0.0895 -0.1604
    2MOL0     O  169   1.943   1.163   4.389  1.1173 -0.5242  0.6537
    2MOL0     C  170   1.873   1.044   4.410  0.5487  0.0460 -0.5162
    2MOL0     C  171   1.879   0.970   4.533 -0.0587  0.3541  0.4723
    2MOL0     C  172   1.819   0.845   4.545 -0.2091  0.2487 -0.3322
    2MOL0     C  173   1.736   0.799   4.435 -0.4198  0.3194 -0.0577
    2MOL0     O  174   1.677   0.678   4.447 -0.4045  0.6298 -0.6096
    2MOL0     C  175   1.539   0.682   4.414  0.1074  0.4381  0.5294
    2MOL0     C  176   1.460   0.583   4.480  0.3443  0.4078  0.4106
    2MOL0     C  177   1.316   0.573   4.424 -0.9169 -0.0356 -0.6446
    2MOL0     C  178   1.259   0.441   4.454  0.7021 -0.1489 -0.9138
    2MOL0     C  179   1.098   0.456   4.460 -0.0812  0.3095  0.3911
    2MOL0     C  180   1.030   0.333   4.523 -0.8968  0.1693  0.1722
    2MOL0     C  181   0.884   0.328   4.544  0.1855 -0.4228  0.3232
    2MOL0     C  182   0.839   0.405   4.667 -0.1488  0.1621 -0.8480
    2MOL0    Cl  183   0.893   0.320   4.825 -0.3281  0.3280 -0.5839
    2MOL0     C  184   1.723   0.868   4.315 -0.2102 -0.5741  0.0595
    2MOL0     C  185   1.789   0.990   4.304  0.5562  0.0306 -0.8735
    2MOL0     O  186   1.884   1.249   4.597  0.3018  0.2495 -0.4009
    2MOL0     C  187   1.964   1.505   4.535  0.5597 -0.0941 -0.7003
    2MOL0     C  188   2.041   1.625   4.529  0.8115  0.4950 -1.1369
    2MOL0     N  189   2.235   2.277   3.973  1.2001 -0.0861  0.6048
    2MOL0     N  190   2.218   2.394   3.924  0.1921  0.4334  0.1363
    2MOL0     C  191   1.976   3.200   3.159 -0.8942 -0.3236 -0.5523
    2MOL0     C  192   2.018   3.338   3.138  0.2097 -0.0867 -0.3139
    2MOL0     C  193   2.347   3.678   3.097 -0.3772  0.6564  0.9609
    2MOL0     C  194   2.245   3.765   3.138  0.7800  0.6738 -0.8208
    2MOL0     C  195   2.262   3.898   3.153  0.5274  0.5878 -0.5135
    2MOL0     C  196   2.395   3.945   3.127  0.0256 -0.2009 -0.8307
    2MOL0     O  197   2.402   4.079   3.161 -0.7163 -0.0895 -0.5279
    2MOL0     C  198   2.504   4.162   3.105  0.7331  0.1967  0.4463
    2MOL0     C  199   2.486   4.299   3.160  0.6724 -0.0049 -0.5507
    2MOL0     C  200   2.607   4.400   3.124  0.3090  0.2658  0.9072
    2MOL0     C  201   2.623   4.426   2.969 -0.5274  0.3024 -0.3547
    2MOL0     C  202   2.507   4.420   2.890 -0.2825  1.3045  0.1412
    2MOL0     C  203   2.401   4.421   2.833  0.8261  0.4636  0.0238
    2MOL0     C  204   2.501   3.868   3.085  0.9478  0.8850 -0.2030
    2MOL0     C  205   2.475   3.730   3.080  0.5259  0.0707  0.2029
    2MOL0     C  206   2.602   3.667   3.057 -1.2825  0.0524  0.2876
    2MOL0     H  207   2.345   3.308   3.244 -0.0214  2.1408 -1.8913
    2MOL0     H  208   2.274   3.082   3.276  0.9474  0.5510  0.7306
    2MOL0     H  209   2.195   2.935   3.368  0.4073 -0.8368 -0.5158
    2MOL0     H  210   2.164   2.836   3.223  0.5659 -1.2409  1.0487
    2MOL0     H  211   1.940   2.777   3.347 -0.3222  0.1864  0.0130
    2MOL0     H  212   2.095   2.709   3.406 -0.6065  0.2286  1.7138
    2MOL0     H  213   2.122   2.887   3.568 -1.3603 -0.0558  4.0011
    2MOL0     H  214   1.986   2.972   3.514  1.8914  0.5837  0.0940
    2MOL0     H  215   1.827   2.784   3.564  0.6177 -0.0333 -1.5167
    2MOL0     H  216   1.965   2.684   3.618 -1.1512 -0.7359  2.8133
    2MOL0     H  217   1.864   2.920   3.790  1.6177  0.4269  2.5319
    2MOL0     H  218   2.005   2.845   3.830  0.5069 -2.8172  2.1063
    2MOL0     H  219   1.796   2.741   3.951 -2.2895 -0.9567 -0.2691
    2MOL0     H  220   1.741   2.681   3.799 -0.9875  1.8567 -0.2614
    2MOL0     H  221   1.925   2.543   3.763 -0.8047  2.3209 -0.3548
    2MOL0     H  222   1.838   2.509   3.921 -1.8434  3.4772  1.9514
    2MOL0     H  223   2.105   2.636   3.905 -0.3667 -0.0452 -0.7214
    2MOL0     H  224   1.996   2.607   4.041  0.0599  0.9963 -0.5476
    2MOL0     H  225   1.928   2.310   4.074  0.3768  1.2644  0.3157
    2MOL0     H  226   2.197   2.006   4.047  0.0804 -0.8403  1.7528
    2MOL0     H  227   2.017   2.022   4.016 -0.5514  1.3039 -0.3356
    2MOL0     H  228   2.117   2.112   4.273  1.8918 -0.8909 -0.2725
    2MOL0     H  229   1.960   2.030   4.218 -0.2627  0.1393  2.1327
    2MOL0     H  230   2.046   1.822   4.226  0.4258  0.5378 -3.2149
    2MOL0     H  231   2.209   1.879   4.195 -0.3308  4.0201 -1.5520
    2MOL0     H  232   2.213   1.965   4.445 -0.5116  0.1477  1.7583
    2MOL0     H  233   2.062   1.898   4.474 -0.3642  0.2455 -0.1537
    2MOL0     H  234   2.251   1.572   4.284  0.8239 -1.9636  0.6486
    2MOL0     H  235   2.235   1.242   4.319  1.4689  1.2324  0.0411
    2MOL0     H  236   2.238   1.364   4.201 -3.2645  3.0246 -2.5900
    2MOL0     H  237   2.092   1.260   4.201 -1.0108  0.9441  0.7065
    2MOL0     H  238   1.933   0.998   4.622  2.1586 -3.4723  0.5267
    2MOL0     H  239   1.837   0.779   4.629  1.7028  2.5410  1.2167
    2MOL0     H  240   1.496   0.777   4.446  0.4419 -0.0449  2.5819
    2MOL0     H  241   1.529   0.682   4.305  2.1505  2.6417  0.2519
    2MOL0     H  242   1.500   0.485   4.453 -1.2654  0.1159 -1.1324
    2MOL0     H  243   1.470   0.592   4.588  1.8869 -1.8217  0.5094
    2MOL0     H  244   1.325   0.590   4.316  2.8830  0.1411 -0.4192
    2MOL0     H  245   1.243   0.644   4.464  0.4666  0.1768  1.6173
    2MOL0     H  246   1.304   0.407   4.547  0.3405  1.7428  0.0045
    2MOL0     H  247   1.281   0.365   4.378 -1.6852  1.0241 -2.9363
    2MOL0     H  248   1.073   0.547   4.516  0.6245  1.9048 -1.7374
    2MOL0     H  249   1.056   0.469   4.359  1.7615 -1.4248 -0.6730
    2MOL0     H  250   1.087   0.315   4.614  0.0505  0.3981 -0.3639
    2MOL0     H  251   1.059   0.250   4.457  1.1993 -0.0231  1.2506
    2MOL0     H  252   0.845   0.227   4.557  0.1092 -0.4623 -0.2193
    2MOL0     H  253   0.827   0.367   4.460 -0.2864  0.7757  1.1759
    2MOL0     H  254   0.730   0.416   4.668 -0.2719 -0.7999  0.8937
    2MOL0     H  255   0.886   0.503   4.658  2.1577 -1.0931 -4.4963
    2MOL0     H  256   1.677   0.829   4.225  5.6089  0.7536 -4.1036
    2MOL0     H  257   1.779   1.039   4.208  0.1689 -0.9994 -1.3765
    2MOL0     H  258   1.875   1.502   4.597  0.9062 -0.9458 -0.2272
    2MOL0     H  259   2.027   1.709   4.597 -1.4557  0.8127 -1.8908
    2MOL0     H  260   1.873   3.166   3.157 -1.3416  0.9690 -0.7344
    2MOL0     H  261   1.942   3.407   3.104  0.5223  1.1896  1.4709
    2MOL0     H  262   2.147   3.736   3.175 -0.6346  4.0022 -1.5931
    2MOL0     H  263   2.181   3.964   3.184 -0.6146 -0.9296 -0.1006
    2MOL0     H  264   2.600   4.125   3.142  0.5187 -0.7143  0.1376
    2MOL0     H  265   2.501   4.152   2.996 -3.9286  3.9076 -0.0845
    2MOL0     H  266   2.481   4.287   3.269 -1.0840  2.9884 -0.1921
    2MOL0     H  267   2.390   4.346   3.141  0.6436  0.1866  0.0380
    2MOL0     H  268   2.593   4.498   3.169  2.1303  0.3679  1.3069
    2MOL0     H  269   2.703   4.360   3.157  0.6215 -0.3052 -0.5750
    2MOL0     H  270   2.696   4.355   2.930 -1.2473  0.5441 -2.3027
    2MOL0     H  271   2.656   4.530   2.969 -0.9049  0.4642  1.9405
    2MOL0     H  272   2.310   4.421   2.775 -1.2588  2.3458  3.0261
    2MOL0     H  273   2.598   3.911   3.061  0.0340  2.8706 -0.5469
    2MOL0     H  274   2.617   3.584   3.127 -1.9051  1.7184  2.5035
    2MOL0     H  275   2.600   3.627   2.955  0.6012  1.3602 -0.3306
    2MOL0     H  276   2.692   3.729   3.066 -0.9265 -0.4242  0.0941
    3MOL0     O  277   9.148  10.691   7.512  0.4602 -0.1369 -0.2818
    3MOL0     C  278   9.041  10.710   7.564 -0.5277 -0.7665 -0.2463
    3MOL0     O  279   9.020  10.730   7.698 -0.7281  0.7725 -0.7794
    3MOL0     C  280   9.110  10.701   7.796  0.4964  0.3666  0.4141
    3MOL0     C  281   9.103  10.783   7.913 -0.4204 -0.4624  0.9692
    3MOL0     C  282   9.199  10.771   8.012  0.0373 -0.9046  0.5135
    3MOL0     C  283   9.298  10.672   8.009 -0.3665  0.3520  0.1940
    3MOL0     O  284   9.394  10.671   8.110  0.2897  0.1380 -0.4526
    3MOL0     C  285   9.427  10.553   8.183  0.6211 -0.2163  0.0811
    3MOL0     C  286   9.473  10.573   8.324  0.0313  0.4616  0.0364
    3MOL0     C  287   9.506  10.432   8.389 -0.5627 -0.2747  0.4376
    3MOL0     C  288   9.397  10.319   8.398  0.9250  0.0135 -0.1755
    3MOL0     C  289   9.428  10.207   8.488  0.7675  1.1319 -0.8215
    3MOL0     C  290   9.309  10.114   8.510  0.9945 -1.0080  0.2438
    3MOL0     C  291   9.338   9.989   8.591 -0.1871 -1.1776  0.2233
    3MOL0     C  292   9.218   9.884   8.601 -0.2816  0.0718 -0.4969
    3MOL0     N  293   9.200   9.787   8.486  0.6572  0.4304 -0.7765
    3MOL0     C  294   9.285   9.686   8.458 -0.4282  0.4613 -1.1993
    3MOL0     C  295   9.245   9.614   8.361 -0.3141  1.0230 -0.1880
    3MOL0     C  296   9.323   9.497   8.297  0.3642  0.1566 -0.6517
    3MOL0     C  297   9.446   9.555   8.221  0.3112  0.0445  0.5444
    3MOL0     C  298   9.476   9.476   8.094 -0.4452 -0.8135  0.5021
    3MOL0     C  299   9.374   9.486   7.989  0.3587  0.9917  0.2381
    3MOL0     O  300   9.422   9.458   7.847 -1.0404  0.0409 -0.0897
    3MOL0     C  301   9.341   9.410   7.755  0.8532 -0.4004 -1.0918
    3MOL0     C  302   9.368   9.466   7.628 -0.1143  0.2557  0.2219
    3MOL0     C  303   9.281   9.440   7.522  0.1381  0.0370 -0.7330
    3MOL0     C  304   9.295   9.507   7.386  0.0868 -0.3024 -1.0526
    3MOL0     C  305   9.188   9.333   7.529 -0.3123 -0.0518 -0.2944
    3MOL0     C  306   9.118   9.280   7.409  1.7914 -1.3437 -0.4500
    3MOL0     O  307   9.200   9.253   7.303  0.2085 -0.0661  0.1109
    3MOL0     C  308   9.139   9.221   7.188  0.4319 -0.7660  1.1582
    3MOL0     C  309   9.086   9.094   7.163  0.3992  0.5967 -0.3875
    3MOL0     C  310   9.036   9.062   7.035  0.2182 -0.4086 -1.1690
    3MOL0     C  311   9.027   9.158   6.941  0.2196 -0.4523 -0.2360
    3MOL0     O  312   8.975   9.143   6.814  0.5246  0.3879  0.3449
    3MOL0     C  313   8.978   9.020   6.735 -0.3573  0.2776 -0.2359
    3MOL0     C  314   9.047   9.044   6.604 -0.6694  0.4840  0.8329
    3MOL0     C  315   9.197   9.082   6.624 -0.1164 -0.8467  0.0590
    3MOL0     C  316   9.286   8.950   6.657 -0.2327 -0.0004 -0.6164
    3MOL0     C  317   9.358   8.963   6.796  0.5770  0.1321 -0.2843
    3MOL0     C  318   9.458   9.071   6.804  0.8716 -0.7655  0.6060
    3MOL0     C  319   9.508   9.099   6.944 -0.1631 -0.2747 -0.4792
    3MOL0     C  320   9.406   9.164   7.026  0.2450 -0.4580  0.7082
    3MOL0    Cl  321   9.460   9.215   7.187  0.0120 -0.1019  0.5460
    3MOL0     C  322   9.075   9.289   6.964 -0.0837  0.5035 -0.3032
    3MOL0     C  323   9.130   9.318   7.086  0.4477  0.0224  0.7902
    3MOL0     O  324   9.013   9.227   7.443 -0.3406  0.1129 -0.0346
    3MOL0     C  325   9.162   9.275   7.658  0.4253  0.1832  0.3863
    3MOL0     C  326   9.232   9.315   7.772 -0.7800 -0.4889 -0.1249
    3MOL0     N  327   9.128   9.675   8.308 -0.4169 -0.8126  0.2191
    3MOL0     N  328   9.106   9.785   8.383  0.7337 -0.7511  0.2590
    3MOL0     C  329   9.302  10.582   7.906  0.0810 -0.0727 -0.0190
    3MOL0     C  330   9.205  10.590   7.794 -0.0088  0.0093 -0.1475
    3MOL0     C  331   8.930  10.741   7.464  0.0890 -0.3465 -0.0590
    3MOL0     C  332   8.974  10.758   7.331 -0.1914 -0.2660  0.2219
    3MOL0     C  333   8.877  10.787   7.232 -0.5661 -0.1723  0.8380
    3MOL0     C  334   8.736  10.799   7.255  0.1656  0.4421 -0.1691
    3MOL0     O  335   8.664  10.817   7.137 -0.4959 -0.2000 -0.5831
    3MOL0     C  336   8.524  10.826   7.139  0.1825  0.1463 -0.8600
    3MOL0     C  337   8.474  10.750   7.020 -0.0471 -0.5597  0.2163
    3MOL0     C  338   8.508  10.597   7.017  0.1371 -0.1809  0.0926
    3MOL0     C  339   8.445  10.522   6.906 -0.8091 -0.5709  0.1674
    3MOL0     C  340   8.524  10.549   6.788  0.7729 -0.5238  0.1182
    3MOL0     C  341   8.587  10.588   6.694 -1.4984  0.2007  0.1387
    3MOL0     C  342   8.697  10.784   7.386 -0.1419 -1.3976  0.3388
    3MOL0     C  343   8.791  10.754   7.491  0.6948  0.8845  0.3853
    3MOL0     C  344   8.727  10.710   7.622 -0.2635  0.5378 -0.1420
    3MOL0     H  345   9.037  10.868   7.928  0.0511 -0.1186  1.1349
    3MOL0     H  346   9.200  10.841   8.094 -1.2807  0.5306 -0.6427
    3MOL0     H  347   9.496  10.493   8.123  0.1573 -1.1321  0.4289
    3MOL0     H  348   9.331  10.501   8.179  0.6270 -0.1502 -1.3390
    3MOL0     H  349   9.565  10.631   8.326  2.0307 -2.3601 -1.8641
    3MOL0     H  350   9.399  10.614   8.393  1.9453 -1.2056  3.3055
    3MOL0     H  351   9.604  10.392   8.360  0.1259 -0.7584  3.1838
    3MOL0     H  352   9.530  10.464   8.491  4.4430 -2.0984  0.1008
    3MOL0     H  353   9.311  10.367   8.445  1.2782  0.3156  0.1686
    3MOL0     H  354   9.378  10.285   8.296 -1.0871 -0.0376  0.1710
    3MOL0     H  355   9.464  10.254   8.580  1.2801 -0.0847 -0.3732
    3MOL0     H  356   9.505  10.141   8.448 -2.2328 -3.2902 -0.0515
    3MOL0     H  357   9.230  10.179   8.548  1.1232 -0.7217  0.0307
    3MOL0     H  358   9.267  10.099   8.410 -0.1712 -0.6446  0.6663
    3MOL0     H  359   9.356  10.018   8.695 -1.1415 -0.2160  0.1392
    3MOL0     H  360   9.431   9.949   8.549 -0.3257 -1.0463 -0.2150
    3MOL0     H  361   9.236   9.820   8.687 -0.4723 -0.1834 -0.6447
    3MOL0     H  362   9.121   9.934   8.613  0.2381  0.8275  0.6218
    3MOL0     H  363   9.377   9.673   8.514 -0.1835  2.7309 -0.9867
    3MOL0     H  364   9.250   9.439   8.240 -0.0018  0.2981 -0.3378
    3MOL0     H  365   9.363   9.434   8.377  1.2310  3.8424  2.1117
    3MOL0     H  366   9.433   9.660   8.193 -1.7853 -0.4307 -0.4158
    3MOL0     H  367   9.528   9.549   8.293  1.1248 -0.4213 -0.3992
    3MOL0     H  368   9.570   9.518   8.056 -1.0010  0.1452  0.1575
    3MOL0     H  369   9.496   9.373   8.126  0.7242 -1.6106 -2.4878
    3MOL0     H  370   9.292   9.420   8.019  0.6218  1.0251  1.0513
    3MOL0     H  371   9.327   9.585   7.994  0.4006  0.9504  1.9641
    3MOL0     H  372   9.447   9.540   7.621 -0.9581  1.3706  1.7481
    3MOL0     H  373   9.378   9.447   7.348  0.3053 -0.5351 -0.2426
    3MOL0     H  374   9.324   9.612   7.393 -3.4303  0.8965 -2.0909
    3MOL0     H  375   9.204   9.507   7.325 -0.7945  2.4556  0.1015
    3MOL0     H  376   9.079   9.017   7.239  0.4193 -3.3402 -3.9891
    3MOL0     H  377   8.998   8.962   7.016 -0.2916 -0.3806 -0.3896
    3MOL0     H  378   9.041   8.951   6.792  0.8121  1.3452 -0.1851
    3MOL0     H  379   8.875   8.986   6.741  0.4177 -2.1207  3.8549
    3MOL0     H  380   9.030   8.958   6.539 -1.0349  0.7910  0.5217
    3MOL0     H  381   8.999   9.128   6.553 -2.3371 -0.5334  0.6620
    3MOL0     H  382   9.218   9.159   6.699 -1.1722  0.2701 -0.7553
    3MOL0     H  383   9.227   9.114   6.524 -0.6709 -1.1992 -0.2252
    3MOL0     H  384   9.362   8.952   6.579 -0.3958 -1.2983 -0.8292
    3MOL0     H  385   9.227   8.858   6.651 -1.9761  0.9626  0.6414
    3MOL0     H  386   9.282   8.976   6.874  0.6372  2.8174 -0.5833
    3MOL0     H  387   9.414   8.872   6.818 -0.3458 -0.0058  1.7333
    3MOL0     H  388   9.420   9.165   6.763 -0.7670 -1.3664  0.6786
    3MOL0     H  389   9.544   9.040   6.743  0.4630  0.8989 -0.9175
    3MOL0     H  390   9.588   9.174   6.942 -2.6831  3.0166  3.3895
    3MOL0     H  391   9.554   9.011   6.990  0.0224  0.5966  1.0853
    3MOL0     H  392   9.312   9.109   7.030 -0.0364 -0.2730 -1.7768
    3MOL0     H  393   9.368   9.244   6.961 -1.8947 -0.1687  2.2305
    3MOL0     H  394   9.076   9.364   6.885 -1.8451 -0.5032 -1.3368
    3MOL0     H  395   9.165   9.419   7.108 -0.4460  0.7960 -1.0734
    3MOL0     H  396   9.091   9.197   7.683 -0.0745  1.1142  2.0723
    3MOL0     H  397   9.199   9.274   7.867 -2.7159 -2.6102 -1.6167
    3MOL0     H  398   9.384  10.512   7.893 -0.1420 -0.4950  0.7682
    3MOL0     H  399   9.219  10.530   7.705  3.4639 -0.0956  0.3466
    3MOL0     H  400   9.075  10.743   7.293 -0.6890 -3.0934 -0.1574
    3MOL0     H  401   8.916  10.814   7.134 -0.1482  0.5496  1.1930
    3MOL0     H  402   8.477  10.788   7.230  0.1499  2.2268  0.0570
    3MOL0     H  403   8.506  10.934   7.138 -0.2019  0.1089  0.3897
    3MOL0     H  404   8.507  10.802   6.929 -0.3124 -1.4904 -0.4235
    3MOL0     H  405   8.365  10.753   7.021 -0.3317 -0.9594 -5.0013
    3MOL0     H  406   8.617  10.594   7.007  0.3670  2.2347  1.0526
    3MOL0     H  407   8.478  10.548   7.110  0.2524 -0.0947  0.1757
    3MOL0     H  408   8.345  10.554   6.876 -0.8843 -2.0630 -1.2816
    3MOL0     H  409   8.453  10.416   6.929  1.8617  0.1080  3.0339
    3MOL0     H  410   8.661  10.622   6.625 -1.7126  1.1795  0.3704
    3MOL0     H  411   8.592  10.782   7.415 -0.6247 -0.9174 -1.3080
    3MOL0     H  412   8.623  10.744   7.628  0.8628  4.2352  0.5825
    3MOL0     H  413   8.734  10.601   7.618 -2.1074  0.4108 -2.1301
    3MOL0     H  414   8.781  10.746   7.710 -1.2716 -1.0577  1.2078
    4MOL0     O  415   1.465   6.068   5.443  0.2787 -0.4726 -0.0540
    4MOL0     C  416   1.531   6.101   5.544 -0.1305 -0.2051 -0.2786
    4MOL0     O  417   1.527   6.042   5.664 -0.9436  0.2755 -0.2296
    4MOL0     C  418   1.435   5.942   5.696 -0.8159 -0.0401  0.1526
    4MOL0     C  419   1.309   5.935   5.635  1.1067  0.7004  0.7690
    4MOL0     C  420   1.226   5.820   5.650  0.4586 -0.1793  0.3346
    4MOL0     C  421   1.260   5.717   5.731  0.1493  0.5287 -0.8502
    4MOL0     O  422   1.197   5.592   5.726 -0.0923 -0.7952 -0.3106
    4MOL0     C  423   1.252   5.482   5.651  0.4865  0.1178  0.0900
    4MOL0     C  424   1.330   5.388   5.748  1.3058  0.5649 -0.6775
    4MOL0     C  425   1.248   5.302   5.842  0.3496  1.4719  0.6546
    4MOL0     C  426   1.317   5.170   5.870 -0.4282 -0.9724 -0.4408
    4MOL0     C  427   1.421   5.176   5.980 -0.3090 -0.0715 -0.1175
    4MOL0     C  428   1.514   5.059   6.004  0.2625 -1.1434  0.1771
    4MOL0     C  429   1.632   5.085   6.106 -0.1424  0.4977 -0.7210
    4MOL0     C  430   1.759   5.001   6.066  0.6677 -0.6470 -0.0935
    4MOL0     N  431   1.854   5.021   6.183 -0.6619 -1.4773  0.5138
    4MOL0     C  432   1.833   4.990   6.306  0.2961  0.0206 -0.1175
    4MOL0     C  433   1.935   5.039   6.373  1.0168 -0.0933 -0.8626
    4MOL0     C  434   1.979   4.987   6.511 -0.3850 -0.0699  0.4743
    4MOL0     C  435   1.882   5.032   6.616  0.5921  0.3335  0.1023
    4MOL0     C  436   1.946   5.148   6.697 -1.0371  0.4236 -0.1303
    4MOL0     C  437   1.944   5.280   6.627  0.2683  0.6113 -0.2216
    4MOL0     O  438   2.018   5.374   6.705  0.6574  0.0365 -0.7037
    4MOL0     C  439   2.084   5.481   6.634  0.3724  0.6734 -0.8556
    4MOL0     C  440   2.050   5.530   6.509 -0.7376  0.2076  1.0344
    4MOL0     C  441   2.116   5.638   6.446  0.5001 -0.3333  0.4460
    4MOL0     C  442   2.090   5.648   6.298 -1.0610  0.7378  1.3631
    4MOL0     C  443   2.221   5.703   6.512 -0.3469 -0.4102 -0.4274
    4MOL0     C  444   2.299   5.810   6.450 -0.1261  0.0510 -0.1261
    4MOL0     O  445   2.242   5.887   6.359  0.2136 -0.1495  0.3751
    4MOL0     C  446   2.321   5.985   6.305 -0.5524  1.0950 -0.1124
    4MOL0     C  447   2.317   6.115   6.354 -0.3310  0.4541  0.4834
    4MOL0     C  448   2.375   6.227   6.288 -0.9387 -0.3672  0.0350
    4MOL0     C  449   2.442   6.212   6.168 -0.9746  0.4576  0.6912
    4MOL0     O  450   2.496   6.314   6.092 -0.0313 -0.6467 -0.6511
    4MOL0     C  451   2.408   6.429   6.079 -0.3082 -0.2222 -1.0091
    4MOL0     C  452   2.463   6.503   5.960  0.4670 -0.0908  1.1084
    4MOL0     C  453   2.597   6.581   5.961  0.4167 -0.1763  0.4624
    4MOL0     C  454   2.624   6.678   5.830 -0.2327 -0.1899 -0.5899
    4MOL0     C  455   2.766   6.710   5.811 -0.7462  0.3923 -0.3683
    4MOL0     C  456   2.804   6.802   5.689 -0.2060  0.1607  0.4707
    4MOL0     C  457   2.944   6.862   5.715  0.4999  1.1589  0.3906
    4MOL0     C  458   2.973   6.968   5.612 -0.7468  0.3434 -0.6723
    4MOL0    Cl  459   3.133   7.024   5.661  0.5147 -0.7173 -0.1796
    4MOL0     C  460   2.456   6.079   6.124 -1.3769  0.9975 -0.4205
    4MOL0     C  461   2.398   5.971   6.190  0.2735  0.9273 -0.0570
    4MOL0     O  462   2.423   5.812   6.475  1.0533 -0.6518  0.6556
    4MOL0     C  463   2.247   5.658   6.649 -0.4698 -0.1864 -0.4265
    4MOL0     C  464   2.184   5.544   6.711 -0.1290  0.0849  0.2230
    4MOL0     N  465   2.010   5.114   6.285 -0.8056 -0.6103 -0.5394
    4MOL0     N  466   1.958   5.110   6.169 -0.6418 -0.1031 -0.4575
    4MOL0     C  467   1.385   5.730   5.797  0.7383  0.3133  0.7751
    4MOL0     C  468   1.476   5.836   5.769 -0.2461 -0.1178  0.5018
    4MOL0     C  469   1.635   6.209   5.529  0.4035 -0.1792 -0.9479
    4MOL0     C  470   1.621   6.297   5.420  0.4978 -0.2976  0.5319
    4MOL0     C  471   1.711   6.396   5.391  0.4171  0.5421  0.7055
    4MOL0     C  472   1.819   6.410   5.470  0.4009 -0.3937  0.6045
    4MOL0     O  473   1.924   6.491   5.447  0.2858  0.7222  0.3450
    4MOL0     C  474   1.895   6.625   5.425 -0.2610  0.1755  0.0821
    4MOL0     C  475   2.025   6.706   5.402  0.3424 -0.3551 -0.3387
    4MOL0     C  476   1.987   6.826   5.318  0.0035  0.0371  0.0674
    4MOL0     C  477   2.095   6.927   5.330 -0.6972 -0.6521  0.6875
    4MOL0     C  478   2.042   7.054   5.296 -0.4443 -0.2241  0.4548
    4MOL0     C  479   1.978   7.153   5.260  0.0457 -0.5523  0.1104
    4MOL0     C  480   1.840   6.326   5.570  0.2818 -0.1297 -0.3472
    4MOL0     C  481   1.756   6.221   5.599 -0.3678 -0.3877  0.0394
    4MOL0     C  482   1.803   6.156   5.729  0.0622  0.0252  0.1047
    4MOL0     H  483   1.264   6.009   5.569  3.1032 -0.3607 -2.0015
    4MOL0     H  484   1.131   5.808   5.598  0.8150 -1.6279 -0.0106
    4MOL0     H  485   1.303   5.519   5.561  2.5518 -0.9603  0.7533
    4MOL0     H  486   1.171   5.419   5.612 -0.7687 -0.0935  2.8459
    4MOL0     H  487   1.393   5.325   5.685 -1.4979 -2.0588 -1.0937
    4MOL0     H  488   1.402   5.442   5.810 -0.0969  0.6007  1.0029
    4MOL0     H  489   1.223   5.356   5.933 -0.8394  1.9787  0.0648
    4MOL0     H  490   1.148   5.284   5.801 -0.3267  0.0237  2.7496
    4MOL0     H  491   1.252   5.086   5.897  0.1426 -0.7549  1.8255
    4MOL0     H  492   1.373   5.139   5.781 -0.5674 -2.1162 -0.1486
    4MOL0     H  493   1.360   5.181   6.070 -3.5181  3.7123 -2.1734
    4MOL0     H  494   1.471   5.273   5.983 -0.1259 -0.0196 -2.5901
    4MOL0     H  495   1.451   4.973   6.031  0.5976 -1.7907 -1.0039
    4MOL0     H  496   1.540   5.027   5.903  1.3355 -2.4881  0.8347
    4MOL0     H  497   1.599   5.027   6.192 -0.0095 -0.1539 -1.1055
    4MOL0     H  498   1.650   5.190   6.134  4.4305 -0.1608 -0.3776
    4MOL0     H  499   1.742   4.894   6.054  2.2175 -1.0692  1.1953
    4MOL0     H  500   1.809   5.037   5.975  0.5065 -0.9165 -0.2897
    4MOL0     H  501   1.761   4.916   6.339 -1.5254  1.3400 -0.9697
    4MOL0     H  502   2.077   5.029   6.535 -0.1644  0.6795 -1.5273
    4MOL0     H  503   1.996   4.879   6.517  3.4047  0.4486  1.0323
    4MOL0     H  504   1.784   5.053   6.574  0.8281  1.3353  0.0338
    4MOL0     H  505   1.867   4.962   6.699 -1.1767 -0.2925 -0.7030
    4MOL0     H  506   1.891   5.162   6.790  1.9818  0.2519  1.7788
    4MOL0     H  507   2.049   5.127   6.725 -2.1236 -1.4571  2.8635
    4MOL0     H  508   1.993   5.272   6.530  2.2455 -0.7623  0.8129
    4MOL0     H  509   1.840   5.311   6.628  0.7357  2.5068  2.8932
    4MOL0     H  510   1.967   5.490   6.450  1.4535 -0.2260 -1.9713
    4MOL0     H  511   2.030   5.738   6.282 -0.8145  1.0342  2.0489
    4MOL0     H  512   2.038   5.557   6.266 -0.0970  1.3264 -2.2625
    4MOL0     H  513   2.183   5.666   6.244 -0.2085  0.4801  2.7037
    4MOL0     H  514   2.267   6.134   6.448 -0.1415 -2.6387  1.3231
    4MOL0     H  515   2.352   6.326   6.327  0.5609  1.1966 -2.7411
    4MOL0     H  516   2.304   6.401   6.059 -2.1824  4.5573  0.6792
    4MOL0     H  517   2.412   6.494   6.167  0.8755 -0.0814 -1.1555
    4MOL0     H  518   2.465   6.434   5.876 -0.8179  2.4098 -1.1596
    4MOL0     H  519   2.390   6.581   5.935  1.1486 -0.1321 -1.2616
    4MOL0     H  520   2.663   6.494   5.972 -1.0667 -1.2598  1.3106
    4MOL0     H  521   2.595   6.648   6.047  0.0470  0.8755 -0.3525
    4MOL0     H  522   2.579   6.777   5.846  0.2970  0.0103 -0.3070
    4MOL0     H  523   2.583   6.632   5.740 -1.2402 -1.1456  0.3352
    4MOL0     H  524   2.797   6.756   5.905  2.2146  0.0488 -1.0736
    4MOL0     H  525   2.826   6.620   5.801 -0.1748  0.6213  0.9027
    4MOL0     H  526   2.726   6.879   5.684 -4.4025 -3.6332  0.9070
    4MOL0     H  527   2.804   6.759   5.588 -2.1557 -1.7449  1.1995
    4MOL0     H  528   3.021   6.784   5.710  1.8990  2.5474 -3.1932
    4MOL0     H  529   2.938   6.918   5.808 -1.0947  1.3921  0.1703
    4MOL0     H  530   2.900   7.048   5.626 -1.4060 -0.5113  1.0582
    4MOL0     H  531   2.972   6.927   5.510 -0.8626 -0.0747 -0.5054
    4MOL0     H  532   2.512   6.066   6.032  1.0672 -0.4816  1.1558
    4MOL0     H  533   2.389   5.870   6.152 -1.1105  1.0738 -0.1575
    4MOL0     H  534   2.323   5.721   6.693  3.7310 -1.9421 -4.3956
    4MOL0     H  535   2.219   5.524   6.812  1.4709 -0.1809 -0.3688
    4MOL0     H  536   1.419   5.647   5.859 -2.3061  0.2030  2.4875
    4MOL0     H  537   1.583   5.833   5.791  0.2394 -1.5294 -1.6715
    4MOL0     H  538   1.533   6.297   5.355 -1.6623 -0.3979  3.2725
    4MOL0     H  539   1.707   6.453   5.298 -1.0136 -0.3259  0.1951
    4MOL0     H  540   1.830   6.629   5.337  1.6938  0.4586 -1.3859
    4MOL0     H  541   1.838   6.667   5.509  1.5096 -1.6122  2.3098
    4MOL0     H  542   2.098   6.635   5.362 -0.0023  0.1791 -2.0180
    4MOL0     H  543   2.059   6.731   5.502 -2.5005 -0.6632  0.7962
    4MOL0     H  544   1.973   6.790   5.216  2.0827 -0.0746 -0.2316
    4MOL0     H  545   1.892   6.866   5.354  0.7152  3.2722 -1.3424
    4MOL0     H  546   2.188   6.902   5.277 -0.6368 -0.0528  0.5059
    4MOL0     H  547   2.126   6.943   5.434 -1.2800  3.2925  0.3906
    4MOL0     H  548   1.899   7.220   5.235  2.7988  1.8919 -3.0399
    4MOL0     H  549   1.933   6.338   5.625 -0.1600  1.0498  0.1975
    4MOL0     H  550   1.822   6.052   5.702  0.3200  0.3899 -1.1858
    4MOL0     H  551   1.896   6.200   5.767  2.5778 -0.5676 -4.5367
    4MOL0     H  552   1.712   6.160   5.788 -1.0184 -1.9721 -1.3005
    5MOL0     O  553   9.600   4.202   2.341  0.1725  0.8777  0.1419
    5MOL0     C  554   9.695   4.257   2.293 -0.1018 -0.5516 -0.7052
    5MOL0     O  555   9.772   4.357   2.354 -0.4001 -0.5492  0.1448
    5MOL0     C  556   9.727   4.408   2.478 -0.5859  0.3309  0.1184
    5MOL0     C  557   9.591   4.447   2.496  0.1558 -0.0875 -0.8246
    5MOL0     C  558   9.555   4.500   2.621  0.9114 -0.2515 -0.4164
    5MOL0     C  559   9.649   4.502   2.726 -0.7046 -0.5789  0.4567
    5MOL0     O  560   9.609   4.556   2.846  0.6382  0.0267 -0.8024
    5MOL0     C  561   9.530   4.676   2.844  0.6793  0.4138 -0.6071
    5MOL0     C  562   9.609   4.794   2.799  0.4867 -0.6843  0.2610
    5MOL0     C  563   9.670   4.859   2.925 -0.2115  0.2272 -0.9349
    5MOL0     C  564   9.592   4.970   2.982  0.7511 -0.2302 -0.1522
    5MOL0     C  565   9.667   5.029   3.100  0.0195 -0.7048 -0.4134
    5MOL0     C  566   9.581   5.149   3.144 -0.2118 -0.2027  0.3994
    5MOL0     C  567   9.659   5.252   3.215  0.1527 -0.1670  0.4412
    5MOL0     C  568   9.753   5.194   3.331  1.2930  0.1894 -0.5680
    5MOL0     N  569   9.894   5.227   3.306  0.4388 -0.4522 -0.8320
    5MOL0     C  570   9.953   5.349   3.320 -0.3916  0.6728 -0.1350
    5MOL0     C  571  10.085   5.341   3.279  0.9555  0.9108  0.0656
    5MOL0     C  572  10.184   5.459   3.272 -0.3567 -0.2707 -1.7622
    5MOL0     C  573  10.216   5.510   3.129  0.4224  0.0267 -0.6153
    5MOL0     C  574  10.099   5.555   3.053  0.0234 -0.4402  0.1266
    5MOL0     C  575  10.032   5.672   3.114 -0.5406  0.6628  0.1591
    5MOL0     O  576   9.907   5.691   3.058  0.4501  0.7490 -0.6815
    5MOL0     C  577   9.824   5.798   3.092  0.3986  0.2373  0.3152
    5MOL0     C  578   9.690   5.801   3.036 -0.3794 -0.5609 -0.7097
    5MOL0     C  579   9.601   5.907   3.060 -0.1722 -0.7212 -0.0648
    5MOL0     C  580   9.472   5.897   2.983 -0.5619 -0.2030  0.5801
    5MOL0     C  581   9.633   6.012   3.145 -0.7725 -0.4524 -0.2001
    5MOL0     C  582   9.556   6.135   3.154 -0.1290 -0.0224 -0.1894
    5MOL0     O  583   9.445   6.146   3.089  0.7153 -0.0992  0.3798
    5MOL0     C  584   9.357   6.247   3.115 -0.3043  0.1195  0.6580
    5MOL0     C  585   9.378   6.370   3.058  0.7423  0.6720  0.2058
    5MOL0     C  586   9.281   6.473   3.056 -0.2260 -0.3537  0.3164
    5MOL0     C  587   9.162   6.448   3.124  0.2451  0.2965  0.4363
    5MOL0     O  588   9.071   6.550   3.110  0.1789  0.2095  0.3395
    5MOL0     C  589   8.943   6.549   3.178  0.5604  0.6958 -0.6460
    5MOL0     C  590   8.844   6.448   3.114  0.0923  0.6057  0.3691
    5MOL0     C  591   8.701   6.457   3.162 -0.4507  0.7709 -0.8007
    5MOL0     C  592   8.627   6.339   3.103 -0.2258  0.1985  0.4328
    5MOL0     C  593   8.475   6.362   3.123 -0.3147  0.0312 -0.0905
    5MOL0     C  594   8.441   6.394   3.280  0.4369  0.6443  0.0634
    5MOL0     C  595   8.299   6.357   3.335  0.7149 -0.2856  0.3758
    5MOL0     C  596   8.186   6.411   3.232 -0.5092  0.1934  0.1924
    5MOL0    Cl  597   8.189   6.588   3.197 -0.1076 -0.0730  0.1700
    5MOL0     C  598   9.143   6.330   3.195 -0.4745  0.2972  0.2441
    5MOL0     C  599   9.238   6.219   3.188  0.4067 -0.2639 -0.5701
    5MOL0     O  600   9.607   6.225   3.222  0.0524  0.9057  0.0607
    5MOL0     C  601   9.755   5.995   3.226 -0.3482 -0.5518 -0.7980
    5MOL0     C  602   9.847   5.885   3.190  0.1903  0.2845 -0.0224
    5MOL0     N  603  10.093   5.207   3.235 -0.1933  0.1254 -0.3450
    5MOL0     N  604   9.987   5.140   3.261 -0.0483  0.7033  0.0929
    5MOL0     C  605   9.779   4.449   2.707 -0.2897 -0.8769 -0.2626
    5MOL0     C  606   9.815   4.416   2.578 -1.1484  0.1819 -0.7543
    5MOL0     C  607   9.732   4.221   2.157 -0.4755  0.1308  0.9248
    5MOL0     C  608   9.867   4.207   2.121  0.1289  0.3564 -0.1469
    5MOL0     C  609   9.909   4.147   2.003 -0.2809  0.4085  0.2308
    5MOL0     C  610   9.822   4.100   1.912 -0.2769  0.7024 -0.3334
    5MOL0     O  611   9.857   4.019   1.806 -0.0688  0.1408  0.2395
    5MOL0     C  612   9.975   4.041   1.732  0.3082  0.4140 -1.7644
    5MOL0     C  613   9.959   3.977   1.600 -1.6946 -0.2016  0.0388
    5MOL0     C  614   9.852   4.052   1.524  0.8323  0.3274  0.8077
    5MOL0     C  615   9.868   4.031   1.365  0.3382  0.1631  0.0238
    5MOL0     C  616   9.753   4.107   1.303 -0.1128  0.4928 -0.5534
    5MOL0     C  617   9.654   4.171   1.270  0.0895 -0.1669 -0.0244
    5MOL0     C  618   9.685   4.123   1.937  0.4094 -1.1460  1.3592
    5MOL0     C  619   9.634   4.191   2.059  0.4765 -0.0150 -0.5201
    5MOL0     C  620   9.491   4.204   2.076  0.0311 -0.2995  0.1481
    5MOL0     H  621   9.526   4.442   2.410  0.7886 -1.4164 -1.2486
    5MOL0     H  622   9.452   4.531   2.635  1.8930  2.0821  3.0141
    5MOL0     H  623   9.483   4.689   2.942  0.1224 -4.3547 -0.0010
    5MOL0     H  624   9.444   4.659   2.778  1.9080 -2.5003 -1.6411
    5MOL0     H  625   9.688   4.776   2.725  0.0648 -0.7656 -0.1773
    5MOL0     H  626   9.544   4.860   2.742 -0.8137 -1.0529  1.2802
    5MOL0     H  627   9.685   4.781   2.999 -3.6091 -0.0283 -0.3276
    5MOL0     H  628   9.765   4.906   2.898 -1.6316  3.6146 -0.6054
    5MOL0     H  629   9.583   5.054   2.912  0.4128  1.6763  2.0628
    5MOL0     H  630   9.487   4.955   3.009  0.4597 -0.6353 -1.4269
    5MOL0     H  631   9.762   5.065   3.060  2.4147 -3.8103  1.9081
    5MOL0     H  632   9.687   4.964   3.186  1.5653  0.7719  0.4138
    5MOL0     H  633   9.538   5.200   3.057  1.4292  1.0173  0.2432
    5MOL0     H  634   9.501   5.117   3.211  1.2747 -2.3200  1.2373
    5MOL0     H  635   9.581   5.326   3.235 -1.4075 -1.6185 -0.0396
    5MOL0     H  636   9.722   5.300   3.140  0.4500  0.5467  1.1269
    5MOL0     H  637   9.720   5.224   3.431  2.2786 -1.1974  0.2084
    5MOL0     H  638   9.745   5.085   3.328  0.5939  0.2015  0.4535
    5MOL0     H  639   9.911   5.441   3.357 -3.2266  0.1578 -1.8297
    5MOL0     H  640  10.280   5.427   3.315  0.8482 -0.6546 -4.5351
    5MOL0     H  641  10.147   5.540   3.336 -1.8225 -0.0730 -2.8151
    5MOL0     H  642  10.290   5.590   3.134  1.6205 -0.4971 -5.3375
    5MOL0     H  643  10.254   5.417   3.084 -0.4715 -0.5000 -0.3181
    5MOL0     H  644  10.127   5.585   2.952 -0.8741  1.3217  0.3523
    5MOL0     H  645  10.030   5.470   3.048  0.5955 -0.9488  0.6830
    5MOL0     H  646  10.025   5.644   3.219  1.0019 -1.8951 -0.3195
    5MOL0     H  647  10.093   5.762   3.101 -0.3697  0.8230  1.8618
    5MOL0     H  648   9.661   5.722   2.967 -1.9295  0.1344 -0.9055
    5MOL0     H  649   9.455   5.797   2.942 -2.2268  0.6313 -0.9265
    5MOL0     H  650   9.458   5.965   2.898  1.0648 -0.4306  0.0999
    5MOL0     H  651   9.384   5.916   3.044 -2.1243 -1.8349 -1.0273
    5MOL0     H  652   9.462   6.385   2.992 -0.6664  3.8922 -1.0632
    5MOL0     H  653   9.303   6.564   3.001 -0.9912  1.0104  2.1509
    5MOL0     H  654   8.953   6.529   3.286 -2.0818  0.4872 -0.3846
    5MOL0     H  655   8.896   6.647   3.168  0.3123  0.6046 -0.3827
    5MOL0     H  656   8.851   6.462   3.006 -3.2593  0.6531  0.0759
    5MOL0     H  657   8.881   6.346   3.125 -0.2223  0.5498  1.0138
    5MOL0     H  658   8.662   6.557   3.140 -3.0622  0.5109  2.0367
    5MOL0     H  659   8.709   6.457   3.271  5.1592  2.2382 -0.9039
    5MOL0     H  660   8.664   6.243   3.141  1.3225  0.6872  0.2041
    5MOL0     H  661   8.640   6.336   2.994  2.4514  2.3382  0.6091
    5MOL0     H  662   8.450   6.448   3.060  1.2191  0.3624 -0.2802
    5MOL0     H  663   8.423   6.271   3.094  1.7333 -2.7131  3.8289
    5MOL0     H  664   8.446   6.503   3.282 -2.1104  0.8638 -1.5005
    5MOL0     H  665   8.514   6.346   3.346  3.6022  0.3813 -3.2975
    5MOL0     H  666   8.278   6.409   3.429  0.4959  1.2243 -0.4766
    5MOL0     H  667   8.299   6.249   3.354  3.7578 -0.1369  1.8287
    5MOL0     H  668   8.094   6.378   3.281  0.5795 -3.1784  0.2422
    5MOL0     H  669   8.201   6.353   3.140  1.6432  0.3493  0.3823
    5MOL0     H  670   9.047   6.316   3.244 -1.0944  3.5219  0.1995
    5MOL0     H  671   9.209   6.131   3.244  0.2195  0.7644  1.0158
    5MOL0     H  672   9.789   6.058   3.308 -1.2490 -1.2002  0.1096
    5MOL0     H  673   9.937   5.867   3.248 -2.9047 -2.4801  4.5209
    5MOL0     H  674   9.848   4.449   2.791 -1.3294  1.1415  0.6499
    5MOL0     H  675   9.920   4.387   2.580 -1.1805 -0.0447  1.9836
    5MOL0     H  676   9.948   4.230   2.190 -0.4019  0.3684  0.4874
    5MOL0     H  677  10.011   4.119   1.979 -0.3747  0.7117 -0.5417
    5MOL0     H  678   9.988   4.150   1.727 -0.7679  0.5660 -1.5463
    5MOL0     H  679  10.063   4.009   1.789 -0.0520  1.5535 -0.5086
    5MOL0     H  680   9.930   3.872   1.612 -0.3162 -0.5981  0.1667
    5MOL0     H  681  10.055   3.982   1.547 -0.4350  1.9951  2.3126
    5MOL0     H  682   9.759   4.010   1.562  0.8415 -0.4741 -0.0182
    5MOL0     H  683   9.853   4.159   1.547 -0.1671  0.3786  0.6410
    5MOL0     H  684   9.853   3.925   1.344  2.1836 -0.6346  2.2701
    5MOL0     H  685   9.964   4.067   1.325  1.2514 -0.6039  1.4247
    5MOL0     H  686   9.566   4.221   1.237  0.8334  1.0733 -0.2015
    5MOL0     H  687   9.609   4.087   1.869  1.6501 -0.3147 -0.5452
    5MOL0     H  688   9.460   4.227   1.974 -0.1803 -2.7828 -0.4195
    5MOL0     H  689   9.446   4.112   2.117  1.5976 -0.5824  1.3401
    5MOL0     H  690   9.484   4.287   2.146 -1.6895 -1.6213  1.6518
    6MOL0     O  691   8.896   5.048   5.444  0.2932 -0.0241  0.2130
    6MOL0     C  692   9.009   5.042   5.403  0.5448 -0.0352 -0.1390
    6MOL0     O  693   9.082   5.144   5.376 -0.6839 -0.0594  1.4076
    6MOL0     C  694   9.055   5.274   5.395 -0.1397 -0.5143 -0.1078
    6MOL0     C  695   8.961   5.349   5.478  0.1078 -0.7908 -0.2867
    6MOL0     C  696   8.968   5.488   5.492 -0.7752  1.1543 -0.4858
    6MOL0     C  697   9.057   5.558   5.410 -0.1295 -0.5167  0.5481
    6MOL0     O  698   9.059   5.699   5.413 -0.1182  0.9558 -0.2444
    6MOL0     C  699   9.059   5.758   5.285  0.7108  0.5299 -0.2131
    6MOL0     C  700   8.988   5.891   5.306  0.1056 -0.0573 -1.4359
    6MOL0     C  701   8.932   5.963   5.180 -0.0849  0.7510 -0.4728
    6MOL0     C  702   8.856   6.087   5.202  0.6862 -0.4543 -0.0933
    6MOL0     C  703   8.796   6.137   5.065 -0.7164  0.3947 -0.6911
    6MOL0     C  704   8.748   6.278   5.092 -0.5220 -0.1773 -0.2221
    6MOL0     C  705   8.606   6.281   5.140  0.2273  0.8415 -0.4916
    6MOL0     C  706   8.558   6.423   5.185 -0.8197 -0.2963 -0.4151
    6MOL0     N  707   8.413   6.446   5.214 -0.7906  0.4587 -0.0242
    6MOL0     C  708   8.338   6.545   5.166  0.9474  0.1051  0.0120
    6MOL0     C  709   8.234   6.559   5.240  1.6782  0.1369 -0.1422
    6MOL0     C  710   8.112   6.646   5.220  0.0578  0.3442  0.3697
    6MOL0     C  711   8.051   6.643   5.079  0.1471  0.8788  0.5005
    6MOL0     C  712   8.013   6.497   5.038 -0.5018 -0.7065  0.1221
    6MOL0     C  713   7.968   6.495   4.890 -0.2720  0.5396  0.1448
    6MOL0     O  714   8.070   6.523   4.796  0.3084 -0.1862 -0.5449
    6MOL0     C  715   8.178   6.434   4.800  0.3230 -1.0286 -0.2195
    6MOL0     C  716   8.178   6.307   4.859  0.6316  0.0566 -0.7607
    6MOL0     C  717   8.292   6.234   4.858 -0.4086 -0.4584 -0.3217
    6MOL0     C  718   8.277   6.095   4.919 -0.2899  0.4375  0.4217
    6MOL0     C  719   8.403   6.279   4.795 -0.0584 -0.7326 -0.0746
    6MOL0     C  720   8.535   6.205   4.790 -0.7154 -0.1545  1.0925
    6MOL0     O  721   8.634   6.261   4.723  0.0116  0.4849  0.1647
    6MOL0     C  722   8.757   6.205   4.693 -0.3488 -0.2087 -0.2935
    6MOL0     C  723   8.806   6.074   4.722 -0.5433  0.6424  0.4897
    6MOL0     C  724   8.941   6.033   4.687 -0.0877 -0.7952 -1.4009
    6MOL0     C  725   9.028   6.123   4.631  0.1929 -0.2966  0.0976
    6MOL0     O  726   9.154   6.097   4.579  0.1771 -0.8290 -1.0349
    6MOL0     C  727   9.200   5.959   4.571  0.1018  0.0458 -0.7956
    6MOL0     C  728   9.333   5.947   4.505  0.4216  1.0131  0.6660
    6MOL0     C  729   9.406   5.807   4.519 -0.7140  0.7051 -0.9134
    6MOL0     C  730   9.449   5.761   4.661 -0.0793  0.0558 -0.0017
    6MOL0     C  731   9.563   5.846   4.726  0.2725 -0.1169  0.6261
    6MOL0     C  732   9.545   5.822   4.879  0.3311  0.2146  0.1824
    6MOL0     C  733   9.436   5.903   4.946  0.1340 -0.4840 -0.4798
    6MOL0     C  734   9.421   5.880   5.089 -0.6191  0.4515  0.3926
    6MOL0    Cl  735   9.317   6.010   5.149  0.4262  0.5942 -0.9522
    6MOL0     C  736   8.990   6.250   4.604 -1.0706 -0.3911 -0.1478
    6MOL0     C  737   8.862   6.295   4.640  0.0308 -0.1454  0.6744
    6MOL0     O  738   8.547   6.107   4.858 -0.1608 -0.2784 -0.5318
    6MOL0     C  739   8.402   6.411   4.738 -0.4231  0.4017  0.3140
    6MOL0     C  740   8.292   6.480   4.745 -0.1769 -0.5104 -0.2532
    6MOL0     N  741   8.242   6.457   5.333  0.0548 -0.0393  0.6429
    6MOL0     N  742   8.350   6.400   5.326  0.9232  0.0632  0.2512
    6MOL0     C  743   9.160   5.490   5.342  0.0889 -0.2023 -0.8520
    6MOL0     C  744   9.146   5.357   5.329  0.0449  0.5629 -0.4583
    6MOL0     C  745   9.072   4.904   5.401 -0.4340 -0.3687 -0.4732
    6MOL0     C  746   9.215   4.895   5.410  0.3541 -0.6865  0.1484
    6MOL0     C  747   9.281   4.776   5.392 -0.9552  0.1743 -0.4491
    6MOL0     C  748   9.207   4.659   5.371 -0.4451 -0.2619  0.8028
    6MOL0     O  749   9.259   4.531   5.336 -0.6225 -0.5255 -0.6719
    6MOL0     C  750   9.379   4.520   5.266  0.3143  0.0388 -0.5531
    6MOL0     C  751   9.498   4.451   5.342 -0.2064 -0.9995 -0.1992
    6MOL0     C  752   9.467   4.301   5.369  0.2587 -0.5843  0.1700
    6MOL0     C  753   9.577   4.207   5.318  0.6601  0.2843 -0.0916
    6MOL0     C  754   9.712   4.238   5.356 -0.2988 -0.0694 -0.4163
    6MOL0     C  755   9.835   4.262   5.373  0.2467  0.1141  0.8276
    6MOL0     C  756   9.074   4.668   5.362 -0.2237 -1.0946 -0.5303
    6MOL0     C  757   9.003   4.789   5.371  0.0070  0.0081  0.7741
    6MOL0     C  758   8.852   4.786   5.356 -0.2157 -0.1066 -0.2233
    6MOL0     H  759   8.890   5.293   5.538  0.0048 -0.1665  0.1866
    6MOL0     H  760   8.903   5.549   5.554 -1.1516  3.9019 -3.3244
    6MOL0     H  761   9.008   5.687   5.220  1.7084 -1.7128  1.3371
    6MOL0     H  762   9.157   5.787   5.245  0.8497 -0.0435 -0.2886
    6MOL0     H  763   8.899   5.865   5.365  1.2906  0.4760  0.6836
    6MOL0     H  764   9.047   5.959   5.369 -0.5501  1.3628 -2.3053
    6MOL0     H  765   9.023   5.990   5.126  2.0934 -3.7116  0.5430
    6MOL0     H  766   8.878   5.896   5.112  0.7771 -0.0077 -0.4157
    6MOL0     H  767   8.780   6.057   5.274 -0.1367 -0.8974 -1.1057
    6MOL0     H  768   8.921   6.154   5.258 -0.1644  1.1428 -0.9584
    6MOL0     H  769   8.715   6.071   5.033  0.3840 -0.7662 -1.1649
    6MOL0     H  770   8.886   6.144   5.002 -1.0487  0.9974 -1.1135
    6MOL0     H  771   8.812   6.342   5.153 -0.3421  1.1509 -1.7401
    6MOL0     H  772   8.747   6.334   4.999 -0.1523 -0.8117 -0.6150
    6MOL0     H  773   8.598   6.212   5.224  3.7144 -0.4399 -1.0508
    6MOL0     H  774   8.530   6.252   5.067 -3.4025 -0.4828  3.4080
    6MOL0     H  775   8.620   6.454   5.270 -1.5507  1.5172 -0.4942
    6MOL0     H  776   8.582   6.489   5.101 -4.1991  1.1024 -0.4367
    6MOL0     H  777   8.342   6.609   5.078 -0.5197 -0.6571 -0.6519
    6MOL0     H  778   8.122   6.752   5.248 -0.4532  1.1076 -2.0445
    6MOL0     H  779   8.037   6.614   5.292 -1.2434  1.3013 -0.5091
    6MOL0     H  780   7.961   6.705   5.083 -1.5710 -1.3359 -0.9029
    6MOL0     H  781   8.122   6.693   5.013  2.2076 -1.8290  0.4773
    6MOL0     H  782   8.091   6.425   5.066 -2.3598 -2.4778  0.9817
    6MOL0     H  783   7.928   6.476   5.102 -0.8023  0.4526  0.1357
    6MOL0     H  784   7.937   6.391   4.873  0.9215  0.4527 -1.6802
    6MOL0     H  785   7.875   6.553   4.881  0.5199  2.2978  2.3060
    6MOL0     H  786   8.093   6.260   4.907  2.0703 -0.4042  1.5071
    6MOL0     H  787   8.170   6.072   4.930 -0.3721  0.8805  0.5400
    6MOL0     H  788   8.324   6.086   5.017  0.1163 -3.4256  0.0245
    6MOL0     H  789   8.316   6.011   4.860  0.4085 -1.3268  3.1953
    6MOL0     H  790   8.743   6.001   4.773 -0.4476 -1.1883 -1.8070
    6MOL0     H  791   8.984   5.941   4.725 -2.4371 -0.7380  1.9087
    6MOL0     H  792   9.199   5.924   4.675  0.5150  0.2124 -0.7316
    6MOL0     H  793   9.136   5.894   4.510  1.9961 -0.8737 -1.8899
    6MOL0     H  794   9.312   5.975   4.402 -0.9501 -3.7398 -0.5806
    6MOL0     H  795   9.404   6.013   4.557  3.5299 -0.5179 -1.3303
    6MOL0     H  796   9.492   5.803   4.452 -1.5662 -0.9619 -1.9558
    6MOL0     H  797   9.350   5.726   4.472 -0.7259 -1.1813  2.0597
    6MOL0     H  798   9.474   5.655   4.647 -2.1043 -0.4783  0.0189
    6MOL0     H  799   9.354   5.752   4.715 -0.5286 -0.8356 -0.8922
    6MOL0     H  800   9.662   5.823   4.685  0.1731  2.0866 -1.0712
    6MOL0     H  801   9.537   5.952   4.727  0.1141 -0.1359 -0.3754
    6MOL0     H  802   9.637   5.864   4.921 -1.6072  1.4516  3.5467
    6MOL0     H  803   9.540   5.716   4.907  4.0658 -0.3123 -0.6410
    6MOL0     H  804   9.336   5.877   4.908 -0.5765 -0.8303  1.5254
    6MOL0     H  805   9.458   6.010   4.938 -4.4569  0.7912  0.6230
    6MOL0     H  806   9.514   5.893   5.145 -0.2631  1.2615 -0.3601
    6MOL0     H  807   9.389   5.779   5.114  1.1405 -0.9545 -2.5079
    6MOL0     H  808   9.061   6.309   4.547 -0.0512  0.3825  1.8110
    6MOL0     H  809   8.834   6.398   4.621  1.6280 -0.0451 -1.6135
    6MOL0     H  810   8.494   6.460   4.707 -2.3511  3.1985 -1.5008
    6MOL0     H  811   8.296   6.579   4.701 -1.1312 -0.3562 -0.0241
    6MOL0     H  812   9.244   5.545   5.300  0.4546 -0.7073 -0.7910
    6MOL0     H  813   9.221   5.310   5.266  0.0978 -0.6402  0.4529
    6MOL0     H  814   9.265   4.991   5.413 -0.3820 -0.2565 -0.9141
    6MOL0     H  815   9.389   4.767   5.383 -0.7092  1.3544  0.9449
    6MOL0     H  816   9.357   4.474   5.170 -0.4532  1.2053 -0.9571
    6MOL0     H  817   9.417   4.619   5.238 -1.9079  1.0387 -0.2473
    6MOL0     H  818   9.504   4.506   5.437  1.7222  1.4394 -1.6354
    6MOL0     H  819   9.593   4.461   5.289 -0.2185 -1.1880 -0.2570
    6MOL0     H  820   9.476   4.300   5.478  0.6020  1.0805  0.1732
    6MOL0     H  821   9.365   4.276   5.339 -0.4143  0.7968  1.2060
    6MOL0     H  822   9.568   4.225   5.211  1.9733  3.7181  0.2559
    6MOL0     H  823   9.557   4.104   5.348 -2.6043  1.1967  1.3487
    6MOL0     H  824   9.938   4.267   5.401  1.0093 -0.4546 -1.6099
    6MOL0     H  825   9.023   4.578   5.331  0.3601 -0.8218 -2.3690
    6MOL0     H  826   8.823   4.868   5.290 -0.0904 -0.6808 -1.0058
    6MOL0     H  827   8.820   4.694   5.306  1.2512 -0.6916 -0.1487
    6MOL0     H  828   8.823   4.799   5.461  2.1660  2.2564  0.2624
    7MOL0     O  829   0.394   1.319   1.504 -0.7876  0.2267  0.3230
    7MOL0     C  830   0.344   1.258   1.602 -0.8328  0.0708 -0.1257
    7MOL0     O  831   0.285   1.134   1.585  0.8251  0.6018 -0.2995
    7MOL0     C  832   0.273   1.073   1.464  0.1347  0.7954 -0.4446
    7MOL0     C  833   0.377   1.004   1.423 -1.1796  0.3412 -0.3527
    7MOL0     C  834   0.387   0.959   1.283  0.0556 -0.9279 -0.4004
    7MOL0     C  835   0.278   0.989   1.196  0.3783 -0.2900  0.2368
    7MOL0     O  836   0.268   0.950   1.059  0.7208  0.7332 -0.1376
    7MOL0     C  837   0.382   0.915   0.987 -0.2885  0.0516  0.5202
    7MOL0     C  838   0.406   1.006   0.863  0.0622 -0.2346  0.7375
    7MOL0     C  839   0.277   1.035   0.781  0.0442  0.6018  0.2626
    7MOL0     C  840   0.309   1.114   0.658  0.1926  0.4827  0.5238
    7MOL0     C  841   0.182   1.134   0.571  0.0154 -0.2086 -0.5163
    7MOL0     C  842   0.087   1.236   0.643  0.0438 -0.0560 -0.2248
    7MOL0     C  843  -0.018   1.305   0.555 -0.3417 -0.3619 -0.3043
    7MOL0     C  844  -0.087   1.411   0.640  0.3370  0.5458 -0.3034
    7MOL0     N  845  -0.209   1.460   0.569  0.2178 -0.0829 -0.1876
    7MOL0     C  846  -0.217   1.534   0.452 -0.4776  0.1712  0.5588
    7MOL0     C  847  -0.345   1.537   0.429  0.7283 -0.0079  0.3210
    7MOL0     C  848  -0.397   1.622   0.311 -0.3834 -0.4401  0.7653
    7MOL0     C  849  -0.550   1.642   0.313 -0.3839  0.2254  0.0140
    7MOL0     C  850  -0.595   1.713   0.441 -0.2308 -0.0598 -0.4410
    7MOL0     C  851  -0.556   1.860   0.446 -0.1430 -0.8111 -0.5041
    7MOL0     O  852  -0.607   1.936   0.555  0.2346 -0.0156  0.1671
    7MOL0     C  853  -0.739   1.980   0.564 -0.0305 -0.0176  0.3280
    7MOL0     C  854  -0.768   2.032   0.684  0.3583 -0.6011 -0.0389
    7MOL0     C  855  -0.900   2.072   0.717  0.0323 -0.2901  0.1436
    7MOL0     C  856  -0.920   2.119   0.850 -0.2052  0.0818 -0.3314
    7MOL0     C  857  -1.005   2.062   0.620  0.5038 -1.1124 -0.0144
    7MOL0     C  858  -1.141   2.113   0.644 -0.0475 -0.1048  0.5188
    7MOL0     O  859  -1.240   2.052   0.570 -0.3248  0.6195 -0.3198
    7MOL0     C  860  -1.367   2.083   0.605  0.2290  1.0842  0.8562
    7MOL0     C  861  -1.420   2.036   0.724  0.2383 -0.1566 -0.5803
    7MOL0     C  862  -1.551   2.074   0.755 -0.3528  0.0627 -0.6101
    7MOL0     C  863  -1.624   2.164   0.676 -0.6991 -0.0967 -0.4035
    7MOL0     O  864  -1.744   2.206   0.719  0.4981  0.4894  0.1403
    7MOL0     C  865  -1.747   2.266   0.849  0.1656 -0.5346 -0.2845
    7MOL0     C  866  -1.861   2.200   0.928  0.3728  0.2076 -0.3296
    7MOL0     C  867  -2.002   2.253   0.887 -1.1331  0.5223 -0.3241
    7MOL0     C  868  -2.115   2.233   0.988 -0.8852 -0.5170 -0.2583
    7MOL0     C  869  -2.254   2.273   0.925 -0.3483 -0.2152 -0.4542
    7MOL0     C  870  -2.368   2.260   1.034  0.0094 -0.6074  0.7892
    7MOL0     C  871  -2.509   2.240   0.956 -0.5327 -0.2314  0.4835
    7MOL0     C  872  -2.618   2.216   1.060 -0.1461 -0.1490 -0.1833
    7MOL0    Cl  873  -2.578   2.078   1.172  0.0152 -0.3850 -0.0615
    7MOL0     C  874  -1.571   2.197   0.553 -0.1573  0.9972 -1.2773
    7MOL0     C  875  -1.448   2.146   0.510 -0.2165  0.5765  0.1166
    7MOL0     O  876  -1.157   2.220   0.709  0.2562  0.1953  0.1655
    7MOL0     C  877  -0.971   2.010   0.498 -0.6361  0.4962 -0.5113
    7MOL0     C  878  -0.843   1.960   0.477 -0.2875  0.3118 -0.2577
    7MOL0     N  879  -0.416   1.457   0.519 -0.8183  0.6411  0.1569
    7MOL0     N  880  -0.328   1.407   0.602  0.4688 -0.8881 -0.5549
    7MOL0     C  881   0.165   1.064   1.248 -0.5436  0.1777  0.3208
    7MOL0     C  882   0.158   1.106   1.383 -0.3821  0.1788 -0.0917
    7MOL0     C  883   0.352   1.315   1.724  0.1884 -0.1262 -1.0192
    7MOL0     C  884   0.256   1.280   1.825  0.2195  0.2393 -0.0314
    7MOL0     C  885   0.261   1.317   1.960  0.0831  0.6133 -0.2673
    7MOL0     C  886   0.366   1.413   1.992 -0.0849  0.0646 -0.5917
    7MOL0     O  887   0.372   1.489   2.108  0.1775  0.5831 -0.5871
    7MOL0     C  888   0.458   1.456   2.218 -0.7292  0.2109 -0.1736
    7MOL0     C  889   0.399   1.447   2.359  0.1584 -0.3052 -0.2314
    7MOL0     C  890   0.335   1.577   2.410 -0.5344  0.0866  0.0759
    7MOL0     C  891   0.316   1.587   2.567  0.0276 -0.9841 -0.4906
    7MOL0     C  892   0.206   1.499   2.613  0.0828 -0.0818  0.9482
    7MOL0     C  893   0.114   1.417   2.631  0.0211 -0.7564 -0.4209
    7MOL0     C  894   0.463   1.438   1.896  0.0926 -0.9930 -0.5079
    7MOL0     C  895   0.463   1.401   1.767 -0.0223  0.1717  0.0636
    7MOL0     C  896   0.586   1.448   1.691 -0.4238  0.6540 -0.3978
    7MOL0     H  897   0.467   0.979   1.479  0.4161 -3.0807 -3.9953
    7MOL0     H  898   0.474   0.895   1.270 -0.0545 -1.8887  2.8183
    7MOL0     H  899   0.372   0.811   0.957 -0.3534  0.6935 -1.8667
    7MOL0     H  900   0.474   0.926   1.046 -1.0074 -1.3875  1.9784
    7MOL0     H  901   0.440   1.095   0.917 -2.1369  1.0642  0.0988
    7MOL0     H  902   0.489   0.972   0.799 -0.7906  1.0187 -1.1241
    7MOL0     H  903   0.236   0.936   0.757  1.1109  0.3297 -0.5260
    7MOL0     H  904   0.212   1.090   0.850  0.3715 -0.8133  1.7701
    7MOL0     H  905   0.354   1.211   0.681  0.5691  1.5781 -3.8800
    7MOL0     H  906   0.382   1.062   0.595 -0.5704  2.2736 -2.0077
    7MOL0     H  907   0.127   1.043   0.542  1.8601 -2.4169  2.3326
    7MOL0     H  908   0.219   1.185   0.482  1.2034  0.9642  0.6116
    7MOL0     H  909   0.038   1.185   0.726  3.1139 -2.9563  0.0532
    7MOL0     H  910   0.143   1.313   0.697 -1.4675  0.2822  0.9255
    7MOL0     H  911  -0.099   1.239   0.524 -0.7430 -0.2252  0.4310
    7MOL0     H  912   0.035   1.361   0.477  0.0046 -1.4358 -0.8551
    7MOL0     H  913  -0.110   1.371   0.739  0.1335  0.8549 -0.2235
    7MOL0     H  914  -0.016   1.490   0.664  4.7839 -2.0228 -3.5203
    7MOL0     H  915  -0.133   1.575   0.396 -0.1639 -1.1655  0.0141
    7MOL0     H  916  -0.354   1.573   0.223 -1.0279  0.4436 -0.0669
    7MOL0     H  917  -0.351   1.721   0.313 -0.6054 -0.0972 -2.9065
    7MOL0     H  918  -0.595   1.704   0.234  0.8092  2.0198  0.6636
    7MOL0     H  919  -0.594   1.542   0.315  0.6137 -0.2056  1.1513
    7MOL0     H  920  -0.703   1.720   0.452  0.0024  3.5771  0.7970
    7MOL0     H  921  -0.558   1.673   0.536 -0.0539  0.5669 -0.2475
    7MOL0     H  922  -0.447   1.863   0.455  0.0200  0.2265 -2.3350
    7MOL0     H  923  -0.595   1.909   0.356  0.4691  2.9042  1.0965
    7MOL0     H  924  -0.681   2.029   0.749 -1.3647  0.7585  2.5151
    7MOL0     H  925  -0.829   2.130   0.909 -0.6292 -2.6863  1.0363
    7MOL0     H  926  -0.976   2.046   0.910  3.0548 -0.3124  2.5445
    7MOL0     H  927  -0.982   2.209   0.855 -0.3629 -0.0378 -0.0829
    7MOL0     H  928  -1.352   1.976   0.784 -0.3682  0.9350  1.2773
    7MOL0     H  929  -1.591   2.031   0.847 -0.3012 -1.7492 -1.3836
    7MOL0     H  930  -1.653   2.257   0.904 -0.4257 -1.2023  0.6492
    7MOL0     H  931  -1.753   2.375   0.842  2.8377 -0.4158 -4.8743
    7MOL0     H  932  -1.865   2.091   0.920  1.9959 -0.2674  3.3535
    7MOL0     H  933  -1.850   2.233   1.031  1.4723  0.4388 -0.5148
    7MOL0     H  934  -2.041   2.218   0.791 -3.9354 -1.9604  1.5313
    7MOL0     H  935  -1.981   2.358   0.863 -1.0342  0.0742 -2.4719
    7MOL0     H  936  -2.082   2.281   1.081  3.5698 -3.9448  0.2369
    7MOL0     H  937  -2.129   2.132   1.028  2.0016 -0.6551  0.5803
    7MOL0     H  938  -2.244   2.375   0.888  2.5946 -0.4934 -0.5969
    7MOL0     H  939  -2.287   2.222   0.834 -1.1657  2.3915 -1.7105
    7MOL0     H  940  -2.376   2.347   1.099 -1.0764  0.0920 -0.2366
    7MOL0     H  941  -2.337   2.175   1.095  2.4619  0.5936  1.3599
    7MOL0     H  942  -2.504   2.151   0.893  1.8369  0.3874 -0.3253
    7MOL0     H  943  -2.532   2.332   0.900 -1.0099  0.3849  1.6505
    7MOL0     H  944  -2.711   2.184   1.012  0.6175 -0.7232 -1.3492
    7MOL0     H  945  -2.628   2.313   1.109  2.0185 -0.6134  1.3427
    7MOL0     H  946  -1.625   2.274   0.498 -1.6437  0.7093 -0.2695
    7MOL0     H  947  -1.411   2.189   0.417 -2.0289 -2.2623 -2.1056
    7MOL0     H  948  -1.036   2.007   0.411  0.1097  0.5091 -1.0743
    7MOL0     H  949  -0.819   1.909   0.384  1.5768 -2.9411  1.8258
    7MOL0     H  950   0.085   1.081   1.176 -0.9997 -0.9654  0.5376
    7MOL0     H  951   0.089   1.180   1.423  0.5772  1.9257 -1.4906
    7MOL0     H  952   0.186   1.198   1.815 -1.5542  0.6997  5.1431
    7MOL0     H  953   0.175   1.292   2.022  0.9929 -0.0269  0.7575
    7MOL0     H  954   0.510   1.363   2.195 -0.9568  0.5413 -2.1677
    7MOL0     H  955   0.533   1.535   2.213 -0.8518  0.2746 -1.1156
    7MOL0     H  956   0.482   1.434   2.430  0.3462 -1.9377 -0.6989
    7MOL0     H  957   0.324   1.369   2.374 -1.9088  1.2914 -1.7443
    7MOL0     H  958   0.395   1.656   2.363 -1.7498  0.7542 -0.4236
    7MOL0     H  959   0.247   1.605   2.352  0.5470 -2.2066 -2.9287
    7MOL0     H  960   0.296   1.689   2.601 -0.2463 -1.2003  0.0033
    7MOL0     H  961   0.400   1.543   2.620  1.6258  0.1834 -1.9470
    7MOL0     H  962   0.047   1.338   2.659  2.0129 -1.8220  1.6624
    7MOL0     H  963   0.535   1.510   1.933 -0.9626 -1.2323  2.2613
    7MOL0     H  964   0.642   1.528   1.740 -2.5964  0.7045  2.2101
    7MOL0     H  965   0.660   1.367   1.684  0.9928  1.8963 -0.3232
    7MOL0     H  966   0.558   1.483   1.592 -2.6776 -1.9812 -0.8029
    8MOL0     O  967   3.326   3.810  10.202 -0.2851 -0.3026 -0.2491
    8MOL0     C  968   3.308   3.911  10.139  0.0937  0.4795 -0.2078
    8MOL0     O  969   3.408   3.992  10.091 -0.7692  0.4710  0.2303
    8MOL0     C  970   3.538   3.947  10.069  1.4854  0.3351 -0.3403
    8MOL0     C  971   3.633   4.043  10.050 -0.4860  0.6124  0.7933
    8MOL0     C  972   3.768   4.009  10.039  0.6768  0.0376  1.1047
    8MOL0     C  973   3.806   3.876  10.039 -0.4806  0.1094 -0.9507
    8MOL0     O  974   3.932   3.828  10.050 -0.2561  0.0434 -0.0720
    8MOL0     C  975   4.037   3.908   9.996 -0.6337 -0.1099  0.2335
    8MOL0     C  976   4.163   3.873  10.075 -0.7095  0.5931 -0.5886
    8MOL0     C  977   4.225   3.733  10.040  0.0512 -0.8520 -0.0803
    8MOL0     C  978   4.343   3.713  10.127  0.2003 -0.1069  0.4197
    8MOL0     C  979   4.405   3.574  10.125 -0.2035  0.1896 -0.0338
    8MOL0     C  980   4.515   3.554  10.229 -0.1173  0.0322  0.5271
    8MOL0     C  981   4.471   3.519  10.381  0.7871  0.4536  0.4385
    8MOL0     C  982   4.435   3.373  10.399 -0.6243  0.0595  0.3603
    8MOL0     N  983   4.540   3.303  10.475 -0.9007 -0.2217 -0.2496
    8MOL0     C  984   4.499   3.229  10.588 -0.4441 -0.6760  0.8307
    8MOL0     C  985   4.605   3.154  10.617 -0.2117 -0.1139  1.6206
    8MOL0     C  986   4.619   3.044  10.715 -0.4735  0.8161  0.5034
    8MOL0     C  987   4.707   3.082  10.834 -0.9234 -0.1245 -0.3437
    8MOL0     C  988   4.791   2.962  10.898  1.2348 -0.3989  0.2411
    8MOL0     C  989   4.711   2.835  10.918 -0.3811 -0.2453  0.5215
    8MOL0     O  990   4.586   2.865  10.972  1.1272 -0.2937 -0.7210
    8MOL0     C  991   4.556   2.893  11.104  0.6289  0.3374 -0.0524
    8MOL0     C  992   4.633   2.874  11.216  0.8049 -0.1953 -0.4179
    8MOL0     C  993   4.597   2.927  11.341 -0.0816 -0.2560  0.4334
    8MOL0     C  994   4.700   2.886  11.447  0.5042 -0.4538 -0.2152
    8MOL0     C  995   4.476   2.996  11.352  0.1480 -0.5071 -0.6755
    8MOL0     C  996   4.428   3.057  11.483  1.1217  0.5615  0.5917
    8MOL0     O  997   4.318   3.137  11.472 -0.4933 -0.0219 -0.0295
    8MOL0     C  998   4.268   3.208  11.582 -0.0644 -0.5539 -0.0864
    8MOL0     C  999   4.248   3.346  11.572 -0.7497  0.6584 -0.3784
    8MOL0     C 1000   4.185   3.415  11.667  0.1858 -0.2179  0.2925
    8MOL0     C 1001   4.146   3.356  11.783  0.2934 -0.6221 -0.7587
    8MOL0     O 1002   4.080   3.446  11.869  0.6905  0.3365 -0.1392
    8MOL0     C 1003   4.179   3.523  11.950  0.1799 -0.1296 -0.0145
    8MOL0     C 1004   4.139   3.674  11.946  0.0020 -0.3773  0.4251
    8MOL0     C 1005   4.211   3.760  11.839 -0.7143 -0.7508 -0.8653
    8MOL0     C 1006   4.208   3.908  11.877  0.1413 -0.7212  0.1481
    8MOL0     C 1007   4.248   3.993  11.759  0.5617 -0.4314  0.6559
    8MOL0     C 1008   4.388   3.964  11.698 -0.2269 -0.1803  0.2190
    8MOL0     C 1009   4.424   4.061  11.588  0.2171  0.2275  0.0547
    8MOL0     C 1010   4.555   4.014  11.513  0.9116 -1.0553 -1.0077
    8MOL0    Cl 1011   4.522   4.063  11.344  0.5018 -0.1158  0.3770
    8MOL0     C 1012   4.162   3.219  11.801  0.5691 -0.1799 -0.2455
    8MOL0     C 1013   4.212   3.141  11.695 -0.4984  0.2729  0.0524
    8MOL0     O 1014   4.481   3.042  11.587  0.0405  0.0539  0.4671
    8MOL0     C 1015   4.392   3.007  11.243 -0.6970 -1.0961 -0.1506
    8MOL0     C 1016   4.433   2.965  11.120  0.3760  0.8655  0.9549
    8MOL0     N 1017   4.707   3.194  10.529 -0.4812  0.5921  0.1852
    8MOL0     N 1018   4.667   3.282  10.443 -0.5807  0.4517 -0.1939
    8MOL0     C 1019   3.701   3.778  10.051 -0.8658 -0.5949 -0.2908
    8MOL0     C 1020   3.568   3.815  10.052 -0.1683  0.0986 -0.2225
    8MOL0     C 1021   3.166   3.963  10.144  0.6936  0.3973 -0.0733
    8MOL0     C 1022   3.153   4.098  10.129  0.0710  0.4460 -1.0418
    8MOL0     C 1023   3.036   4.157  10.152  0.1500  0.1762 -0.9417
    8MOL0     C 1024   2.911   4.089  10.140  0.4699 -0.7155 -0.0850
    8MOL0     O 1025   2.800   4.164  10.139  0.0199  0.5281 -0.0692
    8MOL0     C 1026   2.671   4.110  10.104  0.4350  0.3860 -0.4483
    8MOL0     C 1027   2.658   4.030   9.971 -0.7533 -0.4885  0.0622
    8MOL0     C 1028   2.692   4.130   9.861 -0.1533 -0.2147  0.7192
    8MOL0     C 1029   2.586   4.233   9.815 -0.1369  0.0066  0.6987
    8MOL0     C 1030   2.475   4.159   9.746  0.3677  0.1511 -0.5032
    8MOL0     C 1031   2.385   4.106   9.692  1.3124  0.1403 -0.6768
    8MOL0     C 1032   2.917   3.956  10.164  0.6968  0.0979 -0.2157
    8MOL0     C 1033   3.041   3.892  10.170 -0.5159 -1.0081  1.0114
    8MOL0     C 1034   3.032   3.746  10.192 -0.2692 -0.8282  0.3047
    8MOL0     H 1035   3.603   4.147  10.043  0.5196  0.9168  0.8749
    8MOL0     H 1036   3.832   4.094  10.021  0.2635  0.2568  0.6590
    8MOL0     H 1037   4.025   4.016  10.006  1.4117  0.3162 -1.2275
    8MOL0     H 1038   4.067   3.889   9.893 -1.7752  0.4100 -0.2068
    8MOL0     H 1039   4.246   3.943  10.061  2.1124 -2.9818 -4.0268
    8MOL0     H 1040   4.124   3.863  10.177 -2.4752 -3.2094 -1.4699
    8MOL0     H 1041   4.152   3.653  10.053 -3.2786  2.2828  2.5816
    8MOL0     H 1042   4.257   3.728   9.935 -2.4980 -1.5860 -0.9117
    8MOL0     H 1043   4.418   3.789  10.103  1.3395 -0.7214  1.8714
    8MOL0     H 1044   4.306   3.736  10.227 -1.1623 -1.8851  0.3689
    8MOL0     H 1045   4.445   3.546  10.027  0.1979  1.8756 -0.3775
    8MOL0     H 1046   4.333   3.496  10.150 -0.7008  0.4961 -0.4965
    8MOL0     H 1047   4.587   3.481  10.192  0.2947  2.1625 -3.4325
    8MOL0     H 1048   4.566   3.651  10.228 -3.4705  1.9561 -0.3335
    8MOL0     H 1049   4.386   3.574  10.420 -0.1661 -2.3839  2.7198
    8MOL0     H 1050   4.556   3.526  10.449 -1.1152 -3.8524  3.7191
    8MOL0     H 1051   4.336   3.357  10.441 -0.3914  2.3325  1.9250
    8MOL0     H 1052   4.422   3.327  10.300  2.6632 -1.0513  0.2986
    8MOL0     H 1053   4.400   3.227  10.633 -1.3430 -0.3146 -1.0026
    8MOL0     H 1054   4.648   2.961  10.650 -1.8520  1.8881 -1.5859
    8MOL0     H 1055   4.528   2.990  10.744 -0.1127  0.0990  0.3307
    8MOL0     H 1056   4.774   3.159  10.795 -0.5083 -1.7523 -3.1053
    8MOL0     H 1057   4.644   3.128  10.911  0.5073  0.1658  0.6959
    8MOL0     H 1058   4.868   2.940  10.824  0.8718  1.3805 -0.7453
    8MOL0     H 1059   4.836   2.983  10.995  2.2472 -1.4071  0.0002
    8MOL0     H 1060   4.695   2.787  10.821  0.9254 -1.2322  0.7759
    8MOL0     H 1061   4.775   2.765  10.970  3.6027 -0.4011 -3.9180
    8MOL0     H 1062   4.725   2.817  11.217  1.1281  0.3279  0.2011
    8MOL0     H 1063   4.798   2.923  11.415 -0.2958 -0.0459 -2.3455
    8MOL0     H 1064   4.717   2.778  11.458  1.5949 -0.4095 -1.2563
    8MOL0     H 1065   4.683   2.924  11.548 -0.8976 -2.1679  0.2577
    8MOL0     H 1066   4.280   3.405  11.486  0.2200  0.5594 -0.1018
    8MOL0     H 1067   4.162   3.521  11.664 -2.8895 -0.7291  1.6828
    8MOL0     H 1068   4.159   3.500  12.055 -0.8421 -2.0394 -0.5850
    8MOL0     H 1069   4.285   3.505  11.931  0.1081  0.6513 -1.2829
    8MOL0     H 1070   4.031   3.676  11.928  0.2425 -0.5077 -1.1936
    8MOL0     H 1071   4.159   3.708  12.048 -0.4105  0.9765  0.0779
    8MOL0     H 1072   4.182   3.744  11.734  0.3948 -0.2106 -1.2648
    8MOL0     H 1073   4.311   3.718  11.845 -0.9322 -1.0818  3.2578
    8MOL0     H 1074   4.263   3.942  11.965 -3.0893  3.9028  0.7501
    8MOL0     H 1075   4.108   3.929  11.918  0.5313  1.0539  0.2946
    8MOL0     H 1076   4.181   3.972  11.675  1.5322 -0.7332 -0.0576
    8MOL0     H 1077   4.247   4.100  11.786 -0.6060  0.7943 -3.4971
    8MOL0     H 1078   4.377   3.865  11.653  1.0876 -0.9648  1.5367
    8MOL0     H 1079   4.465   3.970  11.775 -0.9506  0.6327  0.9030
    8MOL0     H 1080   4.444   4.163  11.623 -2.2593  0.8100 -0.0198
    8MOL0     H 1081   4.335   4.052  11.524  1.5161 -0.3923 -1.7531
    8MOL0     H 1082   4.574   3.906  11.522  0.1947 -0.9876  3.7112
    8MOL0     H 1083   4.642   4.063  11.556 -0.8867  3.7175 -2.1456
    8MOL0     H 1084   4.129   3.174  11.894  1.4343  1.4116  0.8808
    8MOL0     H 1085   4.226   3.034  11.706  1.1537  0.3926 -0.6267
    8MOL0     H 1086   4.294   3.056  11.248  0.4830  1.5005 -0.6020
    8MOL0     H 1087   4.364   3.005  11.047 -2.0668 -2.1602  1.4144
    8MOL0     H 1088   3.742   3.677  10.049  0.8647  0.0849 -1.8508
    8MOL0     H 1089   3.494   3.737  10.037 -0.1333  0.3722 -2.0989
    8MOL0     H 1090   3.242   4.155  10.104  1.3962 -1.6263 -1.2802
    8MOL0     H 1091   3.039   4.264  10.133 -1.1195  0.1653 -1.3029
    8MOL0     H 1092   2.640   4.042  10.183  0.5434  1.1789  0.2947
    8MOL0     H 1093   2.608   4.199  10.097  2.0690  1.4912 -2.5186
    8MOL0     H 1094   2.554   3.998   9.964 -0.8504 -0.1404 -0.0981
    8MOL0     H 1095   2.727   3.945   9.973 -0.6994 -0.4911 -1.2682
    8MOL0     H 1096   2.778   4.189   9.894 -0.4202  1.8821 -2.0286
    8MOL0     H 1097   2.721   4.075   9.771  1.9044  0.7568  0.7325
    8MOL0     H 1098   2.633   4.299   9.741 -1.9192  2.8096  1.8713
    8MOL0     H 1099   2.539   4.293   9.894 -2.3653  1.2961 -1.4854
    8MOL0     H 1100   2.292   4.067   9.656  1.6723 -0.5966 -0.8285
    8MOL0     H 1101   2.831   3.891  10.175  0.6994  0.0709 -0.3560
    8MOL0     H 1102   3.081   3.723  10.287  0.1288  0.1524  0.3468
    8MOL0     H 1103   2.929   3.707  10.193 -0.8029  0.5014 -0.1777
    8MOL0     H 1104   3.081   3.690  10.112 -1.0289 -1.5365  0.3106
    9MOL0     O 1105   0.578   4.206  11.070 -0.2576  0.3951 -0.1913
    9MOL0     C 1106   0.456   4.222  11.056  0.2551  0.2104  0.2356
    9MOL0     O 1107   0.364   4.152  11.115  0.3648 -0.7185 -0.2767
    9MOL0     C 1108   0.369   4.098  11.246  0.1076  0.1743 -0.5176
    9MOL0     C 1109   0.483   4.076  11.320 -0.0921  0.2436  0.0083
    9MOL0     C 1110   0.471   4.026  11.451  0.1003  0.1650 -0.2743
    9MOL0     C 1111   0.349   3.985  11.510  0.1051  0.1378 -0.0490
    9MOL0     O 1112   0.351   3.928  11.630 -0.2708 -0.1413  0.1237
    9MOL0     C 1113   0.254   3.828  11.655 -0.7100 -0.0243 -0.7345
    9MOL0     C 1114   0.298   3.760  11.793 -0.6813  0.1895  0.4256
    9MOL0     C 1115   0.417   3.670  11.765 -0.1285 -0.0752  0.2822
    9MOL0     C 1116   0.500   3.632  11.890  0.4853 -1.0183  0.6466
    9MOL0     C 1117   0.617   3.550  11.848 -0.4352 -0.2144  0.8291
    9MOL0     C 1118   0.566   3.407  11.803  0.3720 -0.1062 -0.4303
    9MOL0     C 1119   0.663   3.326  11.720 -0.3677 -0.8528 -0.3172
    9MOL0     C 1120   0.672   3.367  11.575 -0.2515 -0.2578  0.6614
    9MOL0     N 1121   0.746   3.267  11.492 -0.9092 -0.1247  0.6447
    9MOL0     C 1122   0.702   3.143  11.451  0.1224 -0.3649 -0.9696
    9MOL0     C 1123   0.785   3.094  11.359  0.3107  0.4284  0.9682
    9MOL0     C 1124   0.780   2.953  11.286 -0.5009  0.0932  0.9155
    9MOL0     C 1125   0.824   2.844  11.386 -0.3284  0.1979  0.3354
    9MOL0     C 1126   0.774   2.703  11.355 -0.7438 -0.0345 -0.7477
    9MOL0     C 1127   0.807   2.648  11.214 -0.5033  0.0495  0.5913
    9MOL0     O 1128   0.801   2.506  11.196  0.2360  0.1926  0.0152
    9MOL0     C 1129   0.905   2.417  11.206  0.0672 -1.0129  1.2657
    9MOL0     C 1130   1.025   2.436  11.275 -0.8876  0.6882 -0.3178
    9MOL0     C 1131   1.115   2.336  11.304  0.0551 -0.3357  0.3977
    9MOL0     C 1132   1.233   2.366  11.395  0.5137  0.1868  0.2380
    9MOL0     C 1133   1.096   2.208  11.239  0.0500  0.1140 -0.0522
    9MOL0     C 1134   1.176   2.092  11.264  0.1528  0.4641  1.3701
    9MOL0     O 1135   1.211   2.018  11.159 -0.5416  0.7488 -0.0999
    9MOL0     C 1136   1.286   1.905  11.186 -0.1260 -0.0942  0.8671
    9MOL0     C 1137   1.421   1.907  11.205  0.4091  0.1072 -0.3433
    9MOL0     C 1138   1.491   1.788  11.225 -0.8033  0.9526  0.1489
    9MOL0     C 1139   1.427   1.672  11.236 -0.9189 -0.1391 -0.2008
    9MOL0     O 1140   1.490   1.550  11.250 -0.0626  0.1406 -0.3096
    9MOL0     C 1141   1.627   1.541  11.263 -0.2343  1.2213  0.2449
    9MOL0     C 1142   1.665   1.596  11.401 -0.3967  0.2448 -0.1961
    9MOL0     C 1143   1.818   1.577  11.424 -0.1695  0.1552 -0.7651
    9MOL0     C 1144   1.875   1.644  11.548 -0.1971 -0.4906  0.2734
    9MOL0     C 1145   1.872   1.800  11.544 -0.4090 -0.1181  0.2204
    9MOL0     C 1146   1.950   1.870  11.437 -0.5393  0.2391  0.2428
    9MOL0     C 1147   1.979   2.016  11.460  0.2823 -0.0616  0.6085
    9MOL0     C 1148   2.024   2.088  11.333 -1.5042  0.1907  0.5599
    9MOL0    Cl 1149   2.072   2.251  11.352 -0.1223  0.1648  0.0628
    9MOL0     C 1150   1.289   1.669  11.191  0.2794 -0.1930 -0.2230
    9MOL0     C 1151   1.218   1.788  11.182  0.5734  0.2765  0.6007
    9MOL0     O 1152   1.213   2.074  11.377  0.0678 -0.3250 -0.4234
    9MOL0     C 1153   0.974   2.183  11.167 -0.3641 -0.1580  0.3094
    9MOL0     C 1154   0.891   2.290  11.157 -0.9414 -0.3897  0.9900
    9MOL0     N 1155   0.884   3.181  11.340  0.5433 -0.0592 -0.8402
    9MOL0     N 1156   0.855   3.286  11.420 -0.5070  0.6091  0.2776
    9MOL0     C 1157   0.231   4.011  11.435  0.6911  0.5335 -0.2952
    9MOL0     C 1158   0.238   4.076  11.311  0.0323 -0.0581 -0.5751
    9MOL0     C 1159   0.420   4.304  10.946  0.6270 -0.1541 -0.4574
    9MOL0     C 1160   0.513   4.323  10.839  0.7247 -0.1942 -0.5916
    9MOL0     C 1161   0.481   4.396  10.730  0.3298  0.2096  0.7661
    9MOL0     C 1162   0.352   4.454  10.710 -1.1799 -0.4139  0.8987
    9MOL0     O 1163   0.321   4.513  10.585  0.1495 -0.0015  0.3249
    9MOL0     C 1164   0.181   4.536  10.551  0.1417 -0.4061  0.8435
    9MOL0     C 1165   0.151   4.685  10.553 -0.8486  0.6065 -0.3504
    9MOL0     C 1166   0.009   4.734  10.518 -0.3777  0.1661  0.7539
    9MOL0     C 1167  -0.027   4.725  10.377 -0.0484 -0.0901  0.2444
    9MOL0     C 1168  -0.155   4.786  10.348  0.0227 -0.4546 -0.9088
    9MOL0     C 1169  -0.262   4.838  10.330 -0.8857  0.7321  0.9308
    9MOL0     C 1170   0.267   4.450  10.823  0.1843 -0.1325  0.6499
    9MOL0     C 1171   0.301   4.378  10.939  0.1865 -0.5297 -0.7430
    9MOL0     C 1172   0.197   4.389  11.049  0.4082 -0.3871  0.2274
    9MOL0     H 1173   0.583   4.092  11.282 -0.4188  1.3806 -0.4266
    9MOL0     H 1174   0.565   4.002  11.501 -1.7217 -0.7377  3.0476
    9MOL0     H 1175   0.257   3.750  11.578  0.3512 -1.3968  0.6488
    9MOL0     H 1176   0.163   3.889  11.666  0.5133  1.6937  0.2972
    9MOL0     H 1177   0.319   3.831  11.874  1.1746  0.4297 -0.2249
    9MOL0     H 1178   0.211   3.703  11.827 -0.3345 -0.4941  0.1648
    9MOL0     H 1179   0.374   3.585  11.712 -1.0449  0.7270 -0.2970
    9MOL0     H 1180   0.492   3.720  11.703  0.9971 -0.5836  1.2099
    9MOL0     H 1181   0.535   3.726  11.934  4.0034 -0.9085 -1.9319
    9MOL0     H 1182   0.437   3.575  11.959 -0.5275  1.4467  1.8965
    9MOL0     H 1183   0.695   3.538  11.925  0.9150 -0.1588 -0.4752
    9MOL0     H 1184   0.662   3.603  11.764 -0.1941  0.8831  1.6339
    9MOL0     H 1185   0.537   3.354  11.894  0.7506 -2.6187 -1.6705
    9MOL0     H 1186   0.472   3.419  11.747 -1.1955  2.0675  2.4152
    9MOL0     H 1187   0.619   3.226  11.721 -0.2607 -0.9069 -0.9801
    9MOL0     H 1188   0.756   3.329  11.776 -1.2133  2.5782  1.1632
    9MOL0     H 1189   0.575   3.383  11.528  0.8986 -0.8564 -2.1463
    9MOL0     H 1190   0.722   3.464  11.570 -3.4147  1.4590 -3.1463
    9MOL0     H 1191   0.627   3.091  11.509  1.9213  0.9923  2.8819
    9MOL0     H 1192   0.839   2.942  11.194  0.4918  4.1961  0.8818
    9MOL0     H 1193   0.678   2.936  11.251 -0.0452  0.7531 -0.8311
    9MOL0     H 1194   0.932   2.852  11.402  0.0190  0.2441 -1.7754
    9MOL0     H 1195   0.796   2.865  11.490  0.3381  0.5267  0.4584
    9MOL0     H 1196   0.825   2.636  11.424  0.2482  0.6034 -0.8315
    9MOL0     H 1197   0.669   2.696  11.384 -0.7272  0.9933 -0.3789
    9MOL0     H 1198   0.729   2.686  11.148  0.7964 -1.8913 -2.3006
    9MOL0     H 1199   0.908   2.681  11.187  0.1730 -0.2505  2.6195
    9MOL0     H 1200   1.054   2.537  11.304  1.7558  0.2818 -1.2262
    9MOL0     H 1201   1.271   2.467  11.379  0.8685  0.2919  1.5838
    9MOL0     H 1202   1.316   2.296  11.381 -1.4220 -1.8408 -2.0667
    9MOL0     H 1203   1.194   2.353  11.497 -1.3211  1.9626 -0.1571
    9MOL0     H 1204   1.466   2.005  11.193  1.3541 -0.4107 -1.1610
    9MOL0     H 1205   1.599   1.794  11.223 -0.6306  0.9758  3.9135
    9MOL0     H 1206   1.656   1.436  11.260 -1.0842  0.9959 -1.9605
    9MOL0     H 1207   1.681   1.593  11.183 -0.1604  1.1107  0.2221
    9MOL0     H 1208   1.641   1.702  11.412 -1.8198  0.0507 -1.1864
    9MOL0     H 1209   1.616   1.545  11.484  0.9342 -0.6065  0.0911
    9MOL0     H 1210   1.876   1.601  11.334  1.8737 -0.3410  0.3546
    9MOL0     H 1211   1.834   1.469  11.437  2.0755  0.2232 -2.3505
    9MOL0     H 1212   1.982   1.625  11.559 -0.0578  0.1738  0.0868
    9MOL0     H 1213   1.817   1.595  11.627  3.7190 -4.0472  1.3330
    9MOL0     H 1214   1.767   1.833  11.545 -0.7864 -1.1128  3.2947
    9MOL0     H 1215   1.910   1.833  11.641  0.1217 -0.7331  0.2255
    9MOL0     H 1216   1.896   1.844  11.345  1.0711 -0.0499 -0.6494
    9MOL0     H 1217   2.049   1.825  11.428 -0.2120  0.8580  0.6996
    9MOL0     H 1218   2.048   2.020  11.545 -0.9784 -2.0769  1.8249
    9MOL0     H 1219   1.881   2.056  11.488  0.5151 -0.6740  2.4292
    9MOL0     H 1220   1.944   2.073  11.260 -1.2456 -3.5512  0.8438
    9MOL0     H 1221   2.109   2.030  11.295 -3.0543 -2.1745  0.4633
    9MOL0     H 1222   1.236   1.575  11.183  1.8336 -0.9311 -2.9892
    9MOL0     H 1223   1.113   1.780  11.159  0.6718 -1.2347  0.5813
    9MOL0     H 1224   0.948   2.084  11.132  1.2324  0.4919 -3.1024
    9MOL0     H 1225   0.790   2.265  11.125  0.0438 -1.5372 -1.4832
    9MOL0     H 1226   0.134   3.976  11.469  0.8585 -0.7714 -1.0983
    9MOL0     H 1227   0.147   4.096  11.257 -0.3714  0.1586  0.1695
    9MOL0     H 1228   0.616   4.289  10.838  0.7237 -0.1971 -1.2571
    9MOL0     H 1229   0.553   4.414  10.651 -0.8972 -0.3266 -0.5135
    9MOL0     H 1230   0.168   4.489  10.453  4.2320  0.8520 -0.5262
    9MOL0     H 1231   0.109   4.484  10.615 -1.2109 -2.5742 -2.1713
    9MOL0     H 1232   0.227   4.733  10.489  0.1277 -1.9629 -1.2595
    9MOL0     H 1233   0.167   4.718  10.656 -1.1941  0.7119 -0.3310
    9MOL0     H 1234  -0.060   4.680  10.583  2.0642 -2.5503  1.3161
    9MOL0     H 1235   0.015   4.841  10.540  0.7784 -0.0868  1.8003
    9MOL0     H 1236  -0.032   4.630  10.324  1.4685  1.0293 -2.0528
    9MOL0     H 1237   0.042   4.790  10.323 -0.9327  2.5315  2.0821
    9MOL0     H 1238  -0.348   4.886  10.290 -2.7920 -2.8402  0.3279
    9MOL0     H 1239   0.180   4.512  10.808 -0.3272 -1.3776 -2.1587
    9MOL0     H 1240   0.132   4.470  11.015 -0.4969  0.0004  2.6860
    9MOL0     H 1241   0.137   4.297  11.055  0.3510 -0.2609  3.8574
    9MOL0     H 1242   0.242   4.429  11.141  1.2299  1.7325 -1.0304
   10MOL0     O 1243   3.666   7.615   8.084  0.5043  0.5167 -0.3413
   10MOL0     C 1244   3.684   7.613   8.205 -0.2816  0.2279  1.0280
   10MOL0     O 1245   3.754   7.524   8.276  0.8942 -0.0662  0.2117
   10MOL0     C 1246   3.803   7.429   8.199 -0.4231 -0.3697  0.6302
   10MOL0     C 1247   3.738   7.308   8.206 -0.0522 -1.0041 -0.2354
   10MOL0     C 1248   3.778   7.201   8.134 -1.0740  0.3566  0.2298
   10MOL0     C 1249   3.903   7.203   8.060  0.4634  0.1046 -0.2397
   10MOL0     O 1250   3.959   7.103   7.985 -0.0726  0.0102  0.7949
   10MOL0     C 1251   3.897   6.977   7.993 -0.6276 -0.2718 -0.4040
   10MOL0     C 1252   3.954   6.908   8.126  0.1698 -0.8419  0.0267
   10MOL0     C 1253   3.937   6.755   8.104  1.0170 -0.7014  0.4830
   10MOL0     C 1254   4.036   6.686   8.202  0.3338  0.0400 -0.0775
   10MOL0     C 1255   4.008   6.537   8.193  0.1305  0.6310  0.3330
   10MOL0     C 1256   4.069   6.469   8.068  0.6394  0.5321 -0.7208
   10MOL0     C 1257   4.223   6.428   8.074  0.3032 -0.8748 -0.0785
   10MOL0     C 1258   4.284   6.380   7.944 -0.0797  0.4403 -0.1628
   10MOL0     N 1259   4.211   6.254   7.912 -0.3127  0.5376  0.4584
   10MOL0     C 1260   4.114   6.235   7.819 -0.1392  0.0482  0.0026
   10MOL0     C 1261   4.088   6.096   7.813  0.1182 -0.0039  0.2190
   10MOL0     C 1262   3.988   6.028   7.728  0.7921  0.6410 -0.2089
   10MOL0     C 1263   4.041   5.918   7.641  0.3094 -0.0588  0.3884
   10MOL0     C 1264   3.938   5.843   7.541  0.1608 -0.8185 -0.8611
   10MOL0     C 1265   3.841   5.760   7.618 -0.1332 -0.3695  0.0204
   10MOL0     O 1266   3.719   5.812   7.672  0.1898  0.2984  0.1198
   10MOL0     C 1267   3.637   5.725   7.735  0.4210 -0.2619 -0.5536
   10MOL0     C 1268   3.681   5.602   7.782 -0.1239  0.7212 -0.0602
   10MOL0     C 1269   3.598   5.509   7.842  0.0193 -0.1603  0.0243
   10MOL0     C 1270   3.648   5.366   7.850 -0.4877 -0.3419  0.2365
   10MOL0     C 1271   3.466   5.551   7.871  0.1382  0.7634 -0.0685
   10MOL0     C 1272   3.368   5.451   7.923 -0.2141 -0.1259  0.6080
   10MOL0     O 1273   3.242   5.468   7.868  0.1649  0.1885  0.2127
   10MOL0     C 1274   3.138   5.385   7.900 -0.5902  0.6379 -0.3225
   10MOL0     C 1275   3.138   5.259   7.964  0.0004  0.2204  0.9338
   10MOL0     C 1276   3.018   5.195   7.997  0.1111 -0.8398 -0.3396
   10MOL0     C 1277   2.897   5.238   7.948 -0.4701 -0.1329 -0.7712
   10MOL0     O 1278   2.794   5.169   7.991  0.0823 -0.4834  0.0807
   10MOL0     C 1279   2.664   5.214   7.947 -0.4074 -0.3654  0.7023
   10MOL0     C 1280   2.549   5.123   7.980  0.5512  0.5034 -0.2990
   10MOL0     C 1281   2.428   5.201   7.937  0.1797 -0.2061  0.2581
   10MOL0     C 1282   2.295   5.123   7.950  0.3242  0.2128  0.5252
   10MOL0     C 1283   2.192   5.238   7.913  0.4452  0.1451 -0.1024
   10MOL0     C 1284   2.048   5.186   7.916 -0.3304 -0.2087  0.4967
   10MOL0     C 1285   2.005   5.160   8.055 -0.2629  0.1394  0.5932
   10MOL0     C 1286   1.854   5.142   8.059  0.7298  0.1045  0.0758
   10MOL0    Cl 1287   1.817   5.110   8.221  0.2077  0.4006 -0.1216
   10MOL0     C 1288   2.893   5.360   7.885 -0.3987 -0.2148 -0.8722
   10MOL0     C 1289   3.007   5.430   7.861  0.0006  0.7507  0.4143
   10MOL0     O 1290   3.398   5.377   8.013 -0.1019 -0.6870 -0.1660
   10MOL0     C 1291   3.430   5.683   7.833  0.0837  0.1221  0.7256
   10MOL0     C 1292   3.515   5.770   7.758  0.7501  0.4815  0.4689
   10MOL0     N 1293   4.185   6.036   7.897  0.0628  0.3975  0.4611
   10MOL0     N 1294   4.247   6.132   7.957 -0.0392 -0.3774  0.3332
   10MOL0     C 1295   3.968   7.332   8.047  0.7838  0.9522  0.5212
   10MOL0     C 1296   3.920   7.438   8.116  0.2197 -0.7496 -0.1361
   10MOL0     C 1297   3.647   7.737   8.275 -0.1868  0.2307  0.1463
   10MOL0     C 1298   3.680   7.745   8.419 -0.1732 -0.3866 -0.7455
   10MOL0     C 1299   3.646   7.858   8.499 -0.0604 -0.2909  0.3378
   10MOL0     C 1300   3.564   7.960   8.446 -0.0896  0.0986 -0.3912
   10MOL0     O 1301   3.518   8.067   8.518 -0.4766  0.1394 -0.6938
   10MOL0     C 1302   3.601   8.112   8.629 -0.3900 -0.1554  0.2888
   10MOL0     C 1303   3.595   8.270   8.632  0.0285  0.3949 -0.0818
   10MOL0     C 1304   3.652   8.336   8.758  0.5966 -0.6127  0.7165
   10MOL0     C 1305   3.605   8.485   8.779  0.4108 -0.9125 -0.4339
   10MOL0     C 1306   3.623   8.535   8.918 -0.2602  0.7148  0.3426
   10MOL0     C 1307   3.641   8.593   9.021  0.2787 -0.1154  0.0058
   10MOL0     C 1308   3.540   7.955   8.311 -0.1385 -0.7122 -0.8108
   10MOL0     C 1309   3.574   7.848   8.229 -0.2843  0.4161 -0.0293
   10MOL0     C 1310   3.550   7.871   8.080 -0.3795 -0.5818 -0.0237
   10MOL0     H 1311   3.657   7.292   8.276  0.6028 -1.7216  0.3866
   10MOL0     H 1312   3.733   7.104   8.152  2.2343 -1.1631  1.1160
   10MOL0     H 1313   3.950   6.927   7.912 -0.5719 -0.1970 -0.4136
   10MOL0     H 1314   3.788   6.970   7.984 -0.4883 -0.3374 -2.5004
   10MOL0     H 1315   4.061   6.931   8.131 -0.3894  2.9138 -2.2058
   10MOL0     H 1316   3.896   6.936   8.214 -0.3099  0.9559 -0.8151
   10MOL0     H 1317   3.833   6.740   8.137  0.2590  3.9518  0.7783
   10MOL0     H 1318   3.950   6.738   7.997 -0.9163  3.9326 -0.7261
   10MOL0     H 1319   4.142   6.711   8.185 -0.4158  2.8731 -1.1445
   10MOL0     H 1320   4.014   6.713   8.306 -1.4054  3.6374 -1.2078
   10MOL0     H 1321   3.900   6.522   8.189  0.1354  0.7334 -0.2079
   10MOL0     H 1322   4.033   6.478   8.281 -1.7061 -0.4489  0.1826
   10MOL0     H 1323   4.013   6.375   8.061 -1.5754  1.5677  1.6895
   10MOL0     H 1324   4.041   6.516   7.974 -0.3142 -0.8546 -1.1712
   10MOL0     H 1325   4.251   6.346   8.141  0.7983  0.1096  0.9539
   10MOL0     H 1326   4.289   6.512   8.099  1.7011 -1.3603 -1.9035
   10MOL0     H 1327   4.266   6.453   7.866  2.3399  0.6839 -0.5729
   10MOL0     H 1328   4.390   6.354   7.950  0.2591  1.5463 -1.1995
   10MOL0     H 1329   4.060   6.316   7.771 -2.5896 -2.1747 -1.2565
   10MOL0     H 1330   3.923   6.099   7.676 -1.0112  0.0986  1.2022
   10MOL0     H 1331   3.923   5.977   7.799  0.4671 -1.6915 -2.0669
   10MOL0     H 1332   4.115   5.963   7.573 -0.4608 -0.4599 -0.7560
   10MOL0     H 1333   4.098   5.844   7.697  0.9233 -0.2478 -0.4610
   10MOL0     H 1334   3.886   5.914   7.477 -1.8027 -0.0662  1.4599
   10MOL0     H 1335   4.006   5.777   7.485 -0.2763 -0.5059 -1.7877
   10MOL0     H 1336   3.803   5.696   7.538 -1.4226  0.1704  0.1809
   10MOL0     H 1337   3.904   5.709   7.691  3.4832  0.2045 -2.3954
   10MOL0     H 1338   3.783   5.567   7.771 -0.4859  0.0535 -1.6523
   10MOL0     H 1339   3.583   5.300   7.792 -0.1744  2.1741 -3.2769
   10MOL0     H 1340   3.645   5.328   7.953  0.7334  0.8655  0.7518
   10MOL0     H 1341   3.751   5.357   7.815 -1.2945 -0.9153 -2.1418
   10MOL0     H 1342   3.231   5.205   7.972 -1.0725 -2.3220 -1.8592
   10MOL0     H 1343   3.034   5.096   8.039  2.1001 -1.0164 -1.3936
   10MOL0     H 1344   2.650   5.313   7.991  0.3978  1.5711 -2.9819
   10MOL0     H 1345   2.672   5.209   7.838 -0.6165 -2.0280  0.7366
   10MOL0     H 1346   2.562   5.028   7.927 -1.2674  0.0362  0.0342
   10MOL0     H 1347   2.546   5.105   8.087 -0.0098  0.1603 -0.3687
   10MOL0     H 1348   2.440   5.240   7.836 -0.0071  0.7500  0.6019
   10MOL0     H 1349   2.438   5.296   7.991 -1.4147 -1.3423  2.7571
   10MOL0     H 1350   2.283   5.097   8.055  3.3180  2.3400  1.5529
   10MOL0     H 1351   2.277   5.040   7.881  0.3523 -1.0989  2.0446
   10MOL0     H 1352   2.216   5.332   7.962  0.6174 -0.7241  1.5623
   10MOL0     H 1353   2.207   5.255   7.806  1.1661 -0.8671 -0.1851
   10MOL0     H 1354   2.052   5.094   7.857  1.3990  0.8321 -1.1162
   10MOL0     H 1355   1.980   5.256   7.867  0.2526 -0.6017 -0.9368
   10MOL0     H 1356   2.021   5.253   8.110 -0.6182 -0.2424  1.3556
   10MOL0     H 1357   2.057   5.071   8.090 -0.2476 -0.7723 -1.5992
   10MOL0     H 1358   1.815   5.065   7.993 -1.3048  0.2016  1.0924
   10MOL0     H 1359   1.788   5.224   8.028 -2.6596 -2.3896  0.1564
   10MOL0     H 1360   2.792   5.399   7.879 -1.4118 -2.8093 -2.3047
   10MOL0     H 1361   3.012   5.533   7.826 -0.3378  0.8437  0.6353
   10MOL0     H 1362   3.331   5.713   7.863  0.3628 -0.8816  2.8670
   10MOL0     H 1363   3.483   5.868   7.725  1.7557  0.8873  0.6395
   10MOL0     H 1364   4.051   7.326   7.977 -1.0673 -3.7501 -1.6974
   10MOL0     H 1365   3.961   7.539   8.120 -1.5497 -0.0331  1.8145
   10MOL0     H 1366   3.727   7.661   8.469  1.3895  0.4116 -0.8100
   10MOL0     H 1367   3.666   7.858   8.606  0.1595 -0.1118  0.2974
   10MOL0     H 1368   3.545   8.097   8.721  0.7822  1.2279  1.2826
   10MOL0     H 1369   3.699   8.065   8.638 -0.8127 -1.1414 -0.1431
   10MOL0     H 1370   3.491   8.301   8.619 -0.7382 -0.7562  2.7566
   10MOL0     H 1371   3.656   8.309   8.550  0.7597 -2.3285 -0.9446
   10MOL0     H 1372   3.604   8.281   8.840  0.2580 -0.2817  0.7453
   10MOL0     H 1373   3.761   8.328   8.758  0.5085 -2.3237  0.4113
   10MOL0     H 1374   3.496   8.489   8.766  0.4616 -1.7096 -1.2341
   10MOL0     H 1375   3.647   8.546   8.699  1.3771  0.4006  1.0226
   10MOL0     H 1376   3.678   8.633   9.113  1.9886  0.4886 -0.8984
   10MOL0     H 1377   3.478   8.032   8.264  2.5034  0.6544 -2.2874
   10MOL0     H 1378   3.647   7.875   8.030 -0.4007 -4.1805 -0.6143
   10MOL0     H 1379   3.485   7.793   8.040 -1.6297  1.3490 -2.0287
   10MOL0     H 1380   3.484   7.957   8.060 -1.7819 -1.4486  0.7015
   11MOL0     O 1381   2.732   8.468   6.584 -0.3647 -0.0266  0.2852
   11MOL0     C 1382   2.845   8.427   6.609  0.2425  0.4255 -0.3421
   11MOL0     O 1383   2.915   8.442   6.733 -0.2964  0.0616  0.7459
   11MOL0     C 1384   2.855   8.470   6.853 -0.4013  0.1814 -0.9380
   11MOL0     C 1385   2.718   8.457   6.880 -0.6752  0.3099  0.5413
   11MOL0     C 1386   2.669   8.496   7.006  0.1400  0.1853  0.0302
   11MOL0     C 1387   2.755   8.545   7.110 -0.5656  0.7515  0.0371
   11MOL0     O 1388   2.714   8.559   7.242 -0.3409  0.4599  0.3906
   11MOL0     C 1389   2.586   8.635   7.251 -0.8378 -0.4276 -0.6897
   11MOL0     C 1390   2.620   8.750   7.339  0.2173  1.2489  0.0559
   11MOL0     C 1391   2.498   8.832   7.383  1.0395 -0.4097 -0.4218
   11MOL0     C 1392   2.490   8.860   7.529 -0.4321  0.0569 -0.7276
   11MOL0     C 1393   2.355   8.921   7.566 -0.0230  0.0700  0.3806
   11MOL0     C 1394   2.310   8.946   7.716  0.3190  0.5813 -0.2270
   11MOL0     C 1395   2.290   8.823   7.803 -0.0662  0.7459  0.4469
   11MOL0     C 1396   2.272   8.870   7.946  1.1381  0.5173 -0.6652
   11MOL0     N 1397   2.198   8.773   8.023  0.2642  0.0051  0.8464
   11MOL0     C 1398   2.064   8.760   8.024  0.3968  0.1950 -0.3628
   11MOL0     C 1399   2.044   8.688   8.141 -0.2651 -0.5563  0.4171
   11MOL0     C 1400   1.906   8.699   8.195  0.3609  0.0234  0.0791
   11MOL0     C 1401   1.867   8.834   8.261 -0.2255 -0.1972  0.4977
   11MOL0     C 1402   1.980   8.892   8.344  0.5827 -0.1537 -1.0309
   11MOL0     C 1403   2.027   8.809   8.469 -0.1305  0.7745 -0.0937
   11MOL0     O 1404   1.914   8.782   8.560 -0.2425 -0.0875 -0.3546
   11MOL0     C 1405   1.928   8.686   8.657  0.3769 -0.0606  0.2265
   11MOL0     C 1406   2.044   8.615   8.684  0.0080  0.9266 -0.1606
   11MOL0     C 1407   2.067   8.520   8.783  0.3012 -0.2277 -0.4487
   11MOL0     C 1408   2.199   8.450   8.794 -0.6194  0.0930  0.1639
   11MOL0     C 1409   1.965   8.490   8.869  0.0775  0.5036  1.0516
   11MOL0     C 1410   1.982   8.389   8.976 -0.0700 -0.0764  0.4522
   11MOL0     O 1411   2.040   8.261   8.934  0.3408  0.3318  0.5152
   11MOL0     C 1412   2.077   8.168   9.028  0.2502  0.2636  0.0712
   11MOL0     C 1413   2.090   8.031   8.984  0.2356 -0.5675 -0.1661
   11MOL0     C 1414   2.122   7.928   9.070 -0.1867 -0.1380 -0.1059
   11MOL0     C 1415   2.149   7.954   9.202 -0.3514 -0.6369  0.7291
   11MOL0     O 1416   2.184   7.861   9.287 -0.2852  0.2278 -0.5259
   11MOL0     C 1417   2.081   7.771   9.327 -0.1332 -0.0968  1.1288
   11MOL0     C 1418   2.146   7.664   9.419 -0.6430 -0.0860 -0.6785
   11MOL0     C 1419   2.035   7.581   9.487 -0.6796 -0.0536 -0.4286
   11MOL0     C 1420   2.107   7.468   9.565 -0.0570 -0.2702 -0.4806
   11MOL0     C 1421   2.002   7.370   9.616  0.4618  0.4528  0.1032
   11MOL0     C 1422   1.969   7.280   9.504 -0.2633  0.0317  0.1325
   11MOL0     C 1423   1.890   7.162   9.584 -0.7747  0.1601 -0.1438
   11MOL0     C 1424   1.867   7.028   9.502 -0.3130  0.1698  1.0856
   11MOL0    Cl 1425   1.771   6.916   9.611  0.4943  0.5005 -0.0911
   11MOL0     C 1426   2.142   8.091   9.249 -0.3453  0.4959 -0.4186
   11MOL0     C 1427   2.102   8.190   9.165 -0.0170 -0.2038 -0.7921
   11MOL0     O 1428   1.913   8.405   9.082 -0.3497 -0.2504  0.0598
   11MOL0     C 1429   1.845   8.556   8.853  0.3557 -0.3914  0.2850
   11MOL0     C 1430   1.824   8.654   8.751  0.0938  0.8962  0.0218
   11MOL0     N 1431   2.160   8.640   8.194 -0.7123 -0.6019  0.3984
   11MOL0     N 1432   2.258   8.700   8.120  0.0259  0.4541  0.1285
   11MOL0     C 1433   2.891   8.555   7.082  0.5530 -0.5045 -0.5223
   11MOL0     C 1434   2.932   8.522   6.959 -0.8545 -0.2031 -0.0130
   11MOL0     C 1435   2.923   8.366   6.497  0.7291 -0.1151 -0.5155
   11MOL0     C 1436   3.050   8.409   6.481  0.3182 -0.0014  0.5238
   11MOL0     C 1437   3.121   8.380   6.364  0.5133  0.5531 -0.1579
   11MOL0     C 1438   3.070   8.291   6.274 -1.0439 -0.2011  0.5362
   11MOL0     O 1439   3.155   8.260   6.161 -0.2726  0.2644  0.0027
   11MOL0     C 1440   3.108   8.160   6.065  0.6393 -0.4543 -0.3771
   11MOL0     C 1441   3.197   8.155   5.938  0.7634 -0.9947  0.1643
   11MOL0     C 1442   3.265   8.289   5.901  0.1892 -0.1591 -0.1736
   11MOL0     C 1443   3.289   8.291   5.755  0.1463  0.3668  0.6238
   11MOL0     C 1444   3.400   8.386   5.732 -0.3424  1.2054 -0.4936
   11MOL0     C 1445   3.489   8.465   5.707  0.3972  0.0779 -0.7345
   11MOL0     C 1446   2.941   8.236   6.289 -0.5570 -0.5786 -0.0370
   11MOL0     C 1447   2.866   8.275   6.400 -1.0088  0.6667 -0.0193
   11MOL0     C 1448   2.735   8.195   6.416  0.1998  0.1550  0.6197
   11MOL0     H 1449   2.649   8.418   6.806 -0.4846  2.3460 -0.7605
   11MOL0     H 1450   2.570   8.474   7.043  1.6451 -4.6400  1.9829
   11MOL0     H 1451   2.506   8.573   7.292  0.3234 -0.0180  2.4632
   11MOL0     H 1452   2.562   8.672   7.151 -0.6724  0.2331 -0.4962
   11MOL0     H 1453   2.669   8.708   7.427  1.2911  1.8650 -0.2338
   11MOL0     H 1454   2.684   8.806   7.270  0.2466  2.9024  1.3472
   11MOL0     H 1455   2.507   8.928   7.330  1.6670 -0.0104  0.3770
   11MOL0     H 1456   2.409   8.779   7.347  0.8426  1.0575 -2.2925
   11MOL0     H 1457   2.513   8.768   7.584  3.2564  1.3983  0.2607
   11MOL0     H 1458   2.568   8.933   7.553  0.6421 -0.9037 -1.2336
   11MOL0     H 1459   2.272   8.857   7.536 -2.5014  3.0486  0.3603
   11MOL0     H 1460   2.348   9.018   7.515  0.6539 -0.6882 -1.2082
   11MOL0     H 1461   2.388   9.011   7.756  1.5632 -1.3406  0.5895
   11MOL0     H 1462   2.221   9.010   7.710 -1.6605 -2.0500 -0.8011
   11MOL0     H 1463   2.384   8.767   7.796 -0.2564 -0.1740  3.7000
   11MOL0     H 1464   2.212   8.755   7.769  0.1444  1.5265 -1.7573
   11MOL0     H 1465   2.371   8.896   7.985  1.2375 -1.0135  0.1959
   11MOL0     H 1466   2.210   8.960   7.948 -2.4677 -1.7370 -1.9752
   11MOL0     H 1467   1.994   8.823   7.970  0.1843 -0.0630 -0.3933
   11MOL0     H 1468   1.902   8.616   8.267  2.6407  0.2790  0.5711
   11MOL0     H 1469   1.838   8.674   8.112 -1.2768 -0.1167  1.4104
   11MOL0     H 1470   1.833   8.904   8.184 -0.8036  0.3553  1.2379
   11MOL0     H 1471   1.774   8.816   8.317  0.3485  0.4320  1.6693
   11MOL0     H 1472   2.065   8.904   8.276  0.5061 -3.2345 -1.7875
   11MOL0     H 1473   1.953   8.995   8.370  2.0154 -0.0991  0.4194
   11MOL0     H 1474   2.061   8.714   8.428  1.6788  1.0988  0.5949
   11MOL0     H 1475   2.096   8.875   8.522 -1.2845  1.4295  0.6546
   11MOL0     H 1476   2.132   8.639   8.625  0.2769 -4.0611 -2.2833
   11MOL0     H 1477   2.206   8.352   8.744 -1.2888 -0.7768  1.7075
   11MOL0     H 1478   2.223   8.438   8.900  0.9997  0.2357 -0.1515
   11MOL0     H 1479   2.268   8.520   8.746 -1.9135  2.1023  1.1174
   11MOL0     H 1480   2.079   8.020   8.877  1.2703 -1.2837 -0.2090
   11MOL0     H 1481   2.121   7.833   9.017  2.8753  1.0162 -2.5807
   11MOL0     H 1482   2.004   7.821   9.387 -1.0807 -2.2402  1.7889
   11MOL0     H 1483   2.042   7.726   9.236  3.8567 -1.8730  0.0489
   11MOL0     H 1484   2.227   7.612   9.367 -1.3981 -0.1025 -1.8887
   11MOL0     H 1485   2.199   7.715   9.500  0.4198  0.7351 -1.8484
   11MOL0     H 1486   1.968   7.537   9.413 -0.8466 -0.0723 -0.2663
   11MOL0     H 1487   1.987   7.646   9.561  2.5046  0.5846  1.2802
   11MOL0     H 1488   2.149   7.514   9.655 -0.2162  1.9367 -1.4638
   11MOL0     H 1489   2.182   7.417   9.505  0.3496 -0.9064  0.5387
   11MOL0     H 1490   2.048   7.323   9.704  2.5956  3.7142  0.9222
   11MOL0     H 1491   1.914   7.425   9.652 -0.9235 -0.8527 -1.1709
   11MOL0     H 1492   2.057   7.237   9.456  1.9885  0.3193  3.6319
   11MOL0     H 1493   1.907   7.336   9.433 -2.3149 -0.4497  1.4407
   11MOL0     H 1494   1.799   7.205   9.629 -1.9043 -2.2955  0.0663
   11MOL0     H 1495   1.942   7.130   9.674 -0.9735  1.8755  0.6351
   11MOL0     H 1496   1.969   6.998   9.476  0.2424  2.6198  0.1711
   11MOL0     H 1497   1.819   7.031   9.404  3.9072  2.9407 -1.2289
   11MOL0     H 1498   2.181   8.100   9.350  2.0644  0.5762 -1.3056
   11MOL0     H 1499   2.131   8.291   9.191  2.9824 -1.1484 -0.0474
   11MOL0     H 1500   1.758   8.537   8.915 -2.0927  0.5764 -2.5972
   11MOL0     H 1501   1.723   8.693   8.747  0.6057  2.5559  1.6297
   11MOL0     H 1502   2.960   8.589   7.159 -2.3979  1.5228  1.4324
   11MOL0     H 1503   3.038   8.512   6.937 -0.3540  0.0304  2.1142
   11MOL0     H 1504   3.106   8.470   6.552  1.7792 -1.7511  0.9542
   11MOL0     H 1505   3.221   8.417   6.343  1.5264 -0.0312  3.0589
   11MOL0     H 1506   3.111   8.069   6.126  0.9925  0.2499  0.6710
   11MOL0     H 1507   3.002   8.176   6.044  0.4329 -0.9438  0.2624
   11MOL0     H 1508   3.146   8.124   5.846  1.4003  0.6994 -0.8029
   11MOL0     H 1509   3.269   8.075   5.958  1.7832  0.7298  4.8923
   11MOL0     H 1510   3.196   8.370   5.924  1.4626  1.1815 -0.9296
   11MOL0     H 1511   3.354   8.301   5.963  0.3590 -3.1419  0.3178
   11MOL0     H 1512   3.203   8.336   5.705  0.8791  0.0926 -0.9473
   11MOL0     H 1513   3.312   8.189   5.723 -0.2538  0.8728 -1.4216
   11MOL0     H 1514   3.572   8.531   5.687 -0.6778  1.4778 -0.7571
   11MOL0     H 1515   2.885   8.184   6.212 -5.3280 -0.2028  2.7773
   11MOL0     H 1516   2.761   8.096   6.455 -2.4374 -0.3002  1.4696
   11MOL0     H 1517   2.658   8.240   6.480 -2.9015  0.1266 -2.7585
   11MOL0     H 1518   2.705   8.175   6.313  2.5741  3.2565 -0.8465
   12MOL0     O 1519  10.225   7.407   9.902  0.2314  0.6489  0.9386
   12MOL0     C 1520  10.314   7.498   9.906  0.5538  0.4174  0.6873
   12MOL0     O 1521  10.378   7.543   9.797  0.4867  0.0337 -0.2764
   12MOL0     C 1522  10.353   7.484   9.676 -0.2926  0.8770 -0.0276
   12MOL0     C 1523  10.449   7.392   9.628 -0.0256  0.5411 -0.3157
   12MOL0     C 1524  10.433   7.335   9.505  0.2212 -0.9656 -0.2252
   12MOL0     C 1525  10.324   7.360   9.426 -0.2875 -0.3570  0.2952
   12MOL0     O 1526  10.316   7.302   9.305  0.2718 -0.5632 -0.1253
   12MOL0     C 1527  10.201   7.207   9.313  0.2065 -0.0923 -0.8995
   12MOL0     C 1528  10.129   7.193   9.183  1.3281 -0.0290  0.8030
   12MOL0     C 1529  10.044   7.324   9.141 -0.3272 -0.9256 -0.5143
   12MOL0     C 1530  10.055   7.347   8.989 -0.2925 -0.4740 -0.2400
   12MOL0     C 1531   9.988   7.477   8.940  0.0050 -0.7126 -0.1125
   12MOL0     C 1532   9.959   7.467   8.794  0.1509 -0.2150  0.1118
   12MOL0     C 1533   9.914   7.601   8.741 -0.6844 -0.9589 -0.0170
   12MOL0     C 1534   9.884   7.607   8.593  0.7968 -0.2660  0.4431
   12MOL0     N 1535   9.992   7.553   8.499 -0.0190 -1.0701  0.3608
   12MOL0     C 1536  10.006   7.420   8.475 -0.1693 -0.3238  0.2537
   12MOL0     C 1537  10.119   7.417   8.400 -0.3410  0.2860 -0.7812
   12MOL0     C 1538  10.187   7.292   8.339 -0.2499 -0.2849  0.5857
   12MOL0     C 1539  10.096   7.175   8.337  0.6532  0.3293 -0.3962
   12MOL0     C 1540  10.157   7.055   8.265 -0.3332  0.2575  0.0015
   12MOL0     C 1541  10.058   6.941   8.242 -0.0262 -0.0436  1.0721
   12MOL0     O 1542  10.008   6.901   8.368  0.4232  0.0382 -0.5170
   12MOL0     C 1543   9.929   6.791   8.382 -0.5585 -0.5183 -0.0128
   12MOL0     C 1544   9.893   6.711   8.278  0.3831  0.8819  0.3035
   12MOL0     C 1545   9.810   6.601   8.297 -0.5248 -0.1002  0.0827
   12MOL0     C 1546   9.788   6.508   8.181  0.7762 -0.3152 -0.6402
   12MOL0     C 1547   9.753   6.572   8.425 -0.0764 -0.1091 -0.3787
   12MOL0     C 1548   9.675   6.448   8.459 -0.1110  0.3001 -0.6598
   12MOL0     O 1549   9.692   6.395   8.592 -0.4612 -0.3199  0.3182
   12MOL0     C 1550   9.671   6.262   8.602  0.2721  0.4762  0.0056
   12MOL0     C 1551   9.555   6.236   8.668 -0.6052  0.3048  0.9435
   12MOL0     C 1552   9.514   6.100   8.689 -0.4190 -0.5745  0.0093
   12MOL0     C 1553   9.591   5.997   8.646 -0.0662 -0.1863 -0.2906
   12MOL0     O 1554   9.539   5.879   8.670 -0.1556 -0.4343  0.0271
   12MOL0     C 1555   9.579   5.764   8.596 -0.1639  0.8204 -1.0907
   12MOL0     C 1556   9.554   5.637   8.681  0.6318  0.0051  0.4065
   12MOL0     C 1557   9.405   5.617   8.704 -0.3736 -0.8062 -0.0901
   12MOL0     C 1558   9.318   5.595   8.585 -0.2319  1.6988  0.0124
   12MOL0     C 1559   9.170   5.596   8.606 -0.7902  0.1762 -0.1471
   12MOL0     C 1560   9.099   5.536   8.479 -0.1123 -0.1865 -0.0648
   12MOL0     C 1561   9.097   5.643   8.367  0.4612 -0.5962  0.2821
   12MOL0     C 1562   9.060   5.572   8.235 -0.3627  0.6750 -0.1359
   12MOL0    Cl 1563   8.900   5.489   8.234 -0.1538 -0.0321 -0.1640
   12MOL0     C 1564   9.705   6.026   8.562 -0.1950  0.2375  0.4854
   12MOL0     C 1565   9.741   6.155   8.550 -0.1346 -0.4063  0.5591
   12MOL0     O 1566   9.608   6.391   8.371 -0.5559 -0.2512  0.5205
   12MOL0     C 1567   9.787   6.655   8.537  0.5603  0.1509  0.1777
   12MOL0     C 1568   9.882   6.761   8.509  1.0893  0.0582 -0.5610
   12MOL0     N 1569  10.169   7.542   8.369  0.2081  0.0909 -0.0631
   12MOL0     N 1570  10.091   7.625   8.430  0.3313 -0.1105 -0.0195
   12MOL0     C 1571  10.236   7.460   9.467 -0.0676  0.8706 -0.6977
   12MOL0     C 1572  10.245   7.516   9.601 -0.0202  0.4994  0.0244
   12MOL0     C 1573  10.356   7.547  10.036  0.7229 -0.4639 -0.7823
   12MOL0     C 1574  10.442   7.661  10.046  0.7933 -0.2132 -0.5904
   12MOL0     C 1575  10.496   7.704  10.170 -0.7340 -0.4479  0.2529
   12MOL0     C 1576  10.453   7.649  10.293 -0.0857 -0.4531 -0.3728
   12MOL0     O 1577  10.490   7.700  10.417  0.1697 -0.6695  0.0472
   12MOL0     C 1578  10.551   7.826  10.424 -0.8262  0.1512  0.3187
   12MOL0     C 1579  10.589   7.866  10.568 -0.3455 -0.4210 -0.4893
   12MOL0     C 1580  10.474   7.928  10.629 -0.1133 -0.5913  0.3022
   12MOL0     C 1581  10.508   7.955  10.770 -0.6657  0.3967 -0.7022
   12MOL0     C 1582  10.409   8.038  10.835  1.0127 -0.9075 -0.0475
   12MOL0     C 1583  10.329   8.118  10.887  0.2139 -0.9614  0.2522
   12MOL0     C 1584  10.380   7.530  10.285  0.6158  0.0094 -0.0705
   12MOL0     C 1585  10.332   7.476  10.159  0.0349 -0.0186 -0.4941
   12MOL0     C 1586  10.261   7.346  10.173  0.5564  0.0864  0.0448
   12MOL0     H 1587  10.542   7.386   9.683 -1.0541 -0.9735  1.3343
   12MOL0     H 1588  10.516   7.275   9.470  1.2504 -1.0437  2.1641
   12MOL0     H 1589  10.121   7.239   9.380  1.8655  1.4195  0.4744
   12MOL0     H 1590  10.229   7.105   9.340  0.6730 -0.7148 -3.4724
   12MOL0     H 1591  10.206   7.172   9.108  0.9165 -2.5635  0.9983
   12MOL0     H 1592  10.060   7.109   9.196 -0.3553  1.5175  2.4993
   12MOL0     H 1593   9.938   7.308   9.161 -0.4542  1.3948  1.0666
   12MOL0     H 1594  10.074   7.412   9.198  1.0780 -0.1077 -2.4082
   12MOL0     H 1595  10.162   7.362   8.974 -0.3902  0.1957 -0.2815
   12MOL0     H 1596  10.025   7.255   8.938 -1.9037 -0.3649  0.4594
   12MOL0     H 1597  10.049   7.563   8.966 -0.1397 -0.2641 -1.2186
   12MOL0     H 1598   9.891   7.486   8.990  0.6368 -1.9148  1.4289
   12MOL0     H 1599  10.052   7.434   8.748  0.6611 -2.4706  2.5170
   12MOL0     H 1600   9.881   7.391   8.782  0.3544 -0.7980  2.1595
   12MOL0     H 1601   9.998   7.671   8.749 -2.1659  1.3199 -2.4997
   12MOL0     H 1602   9.841   7.652   8.805  0.2948  0.6811 -0.1369
   12MOL0     H 1603   9.792   7.553   8.568  0.0698  1.5409 -1.0750
   12MOL0     H 1604   9.862   7.710   8.562  0.7216 -0.8008 -1.3967
   12MOL0     H 1605   9.946   7.334   8.502 -2.9172  1.0208 -1.1803
   12MOL0     H 1606  10.269   7.272   8.408  0.9488  0.4888 -0.5675
   12MOL0     H 1607  10.237   7.311   8.244  2.4616 -1.2969  1.6953
   12MOL0     H 1608  10.077   7.151   8.442 -1.2471 -0.1454 -0.8035
   12MOL0     H 1609  10.008   7.198   8.276 -0.4079  0.0229  0.9771
   12MOL0     H 1610  10.181   7.091   8.165 -3.6115 -0.6232 -1.2409
   12MOL0     H 1611  10.246   7.021   8.319 -0.3605 -0.1870 -0.2298
   12MOL0     H 1612   9.975   6.974   8.179 -0.9462 -0.7141  1.9015
   12MOL0     H 1613  10.111   6.858   8.194 -1.5485 -0.2908 -0.2576
   12MOL0     H 1614   9.928   6.725   8.176 -2.4370 -1.0361 -1.0587
   12MOL0     H 1615   9.832   6.408   8.193  1.2325 -0.2696 -1.8001
   12MOL0     H 1616   9.840   6.557   8.098 -2.1763  2.1078 -1.2439
   12MOL0     H 1617   9.683   6.502   8.150  0.5585  2.0353 -0.5180
   12MOL0     H 1618   9.491   6.316   8.702 -1.2010 -0.1229  0.8452
   12MOL0     H 1619   9.421   6.069   8.737  1.2505 -2.7975  2.0587
   12MOL0     H 1620   9.539   5.759   8.494 -1.2672 -1.2256 -0.6268
   12MOL0     H 1621   9.687   5.767   8.585 -0.1264 -2.4720 -3.0366
   12MOL0     H 1622   9.600   5.548   8.637  1.9161 -0.0563  1.7823
   12MOL0     H 1623   9.597   5.651   8.781 -0.1566 -0.8971  0.8891
   12MOL0     H 1624   9.375   5.707   8.758  1.8745 -0.6271  0.9692
   12MOL0     H 1625   9.394   5.540   8.781  0.4302  0.8942  1.8080
   12MOL0     H 1626   9.347   5.502   8.535 -3.7987  0.4731 -0.0175
   12MOL0     H 1627   9.343   5.661   8.501  1.2571 -0.0031 -0.9658
   12MOL0     H 1628   9.149   5.530   8.691  1.8606 -0.8402 -0.1751
   12MOL0     H 1629   9.141   5.701   8.621  1.0456  0.4240  2.3739
   12MOL0     H 1630   8.996   5.503   8.493 -0.7534  1.1748 -1.3659
   12MOL0     H 1631   9.145   5.447   8.434 -0.5028 -0.3247 -0.1906
   12MOL0     H 1632   9.192   5.697   8.357  1.3581 -1.9842  1.0446
   12MOL0     H 1633   9.021   5.720   8.384  0.5015 -0.5217  0.1235
   12MOL0     H 1634   9.135   5.500   8.201 -3.1415 -2.7551  0.3476
   12MOL0     H 1635   9.065   5.654   8.163  0.3634  0.2192 -0.6191
   12MOL0     H 1636   9.770   5.956   8.511  0.6939  0.0801  1.7846
   12MOL0     H 1637   9.831   6.163   8.490 -0.6993  1.0331 -0.1485
   12MOL0     H 1638   9.754   6.635   8.638  0.8336  1.2574  0.4954
   12MOL0     H 1639   9.917   6.824   8.590 -0.9405 -2.4888  2.5231
   12MOL0     H 1640  10.154   7.482   9.399  0.6701  0.4385 -1.7656
   12MOL0     H 1641  10.176   7.585   9.649 -1.5182 -1.5539  0.9967
   12MOL0     H 1642  10.479   7.714   9.958  2.1224 -1.5236 -0.8665
   12MOL0     H 1643  10.561   7.790  10.158 -2.0235  0.2779 -2.0534
   12MOL0     H 1644  10.637   7.834  10.357 -1.3722  2.6348 -0.2047
   12MOL0     H 1645  10.491   7.906  10.378 -0.7571  0.1881  0.2919
   12MOL0     H 1646  10.669   7.939  10.558  0.4690 -1.3388 -0.8654
   12MOL0     H 1647  10.619   7.773  10.617  0.8177  0.3817  0.3749
   12MOL0     H 1648  10.429   8.015  10.580 -1.2284 -1.0309  0.4944
   12MOL0     H 1649  10.398   7.851  10.611  1.6752 -2.0985 -1.2084
   12MOL0     H 1650  10.599   8.016  10.767 -0.9678  0.9576  0.8179
   12MOL0     H 1651  10.543   7.866  10.825 -1.8563  1.8177  2.6082
   12MOL0     H 1652  10.260   8.192  10.921  2.8436  3.3655 -2.6633
   12MOL0     H 1653  10.364   7.480  10.380  1.1001 -1.4522 -0.7311
   12MOL0     H 1654  10.247   7.313  10.276 -0.6902 -0.7428 -0.3590
   12MOL0     H 1655  10.167   7.346  10.116  2.0978 -1.3066 -2.7216
   12MOL0     H 1656  10.338   7.278  10.136  1.4002  1.3473 -0.5657
   13MOL0     O 1657   1.190   6.645   8.646  0.5519  0.5853  0.7791
   13MOL0     C 1658   1.098   6.708   8.593  0.0097 -0.6720  1.1889
   13MOL0     O 1659   1.032   6.667   8.484  0.2176  0.6838  0.5782
   13MOL0     C 1660   1.082   6.567   8.393  1.2139 -0.0326  0.0672
   13MOL0     C 1661   1.219   6.527   8.375  0.0164 -0.2330 -0.5022
   13MOL0     C 1662   1.245   6.415   8.294 -0.1921 -0.3671  0.0098
   13MOL0     C 1663   1.146   6.352   8.211 -1.0669 -0.2061  0.2385
   13MOL0     O 1664   1.173   6.270   8.097  0.1266 -0.1425 -0.4619
   13MOL0     C 1665   1.310   6.256   8.055  0.4411 -0.0676  0.1528
   13MOL0     C 1666   1.354   6.385   7.989 -0.6897  0.2774 -0.0308
   13MOL0     C 1667   1.265   6.443   7.880 -0.6004 -0.2209  0.2030
   13MOL0     C 1668   1.337   6.555   7.799  0.0943 -0.0313 -0.7207
   13MOL0     C 1669   1.246   6.613   7.691  0.1787 -0.5075 -0.1616
   13MOL0     C 1670   1.315   6.696   7.575 -1.3143 -0.2238  0.2077
   13MOL0     C 1671   1.202   6.770   7.497  0.0978 -0.6909 -0.2684
   13MOL0     C 1672   1.243   6.813   7.359 -0.8005  0.1909  0.0461
   13MOL0     N 1673   1.136   6.868   7.277 -0.5324  0.2079  1.2330
   13MOL0     C 1674   1.109   7.002   7.270  0.4687  0.2630 -0.6380
   13MOL0     C 1675   1.051   7.025   7.149 -0.7042 -0.7252 -0.2043
   13MOL0     C 1676   0.980   7.144   7.096 -0.1045 -0.6716  1.3216
   13MOL0     C 1677   1.076   7.243   7.024 -0.5110 -0.7542  0.1892
   13MOL0     C 1678   1.142   7.193   6.899  0.0013 -1.2103  0.3866
   13MOL0     C 1679   1.204   7.295   6.814 -0.2794 -0.1390 -0.7164
   13MOL0     O 1680   1.211   7.243   6.678 -0.1816  0.2334 -0.3028
   13MOL0     C 1681   1.250   7.320   6.578 -0.7269 -0.0070  0.9005
   13MOL0     C 1682   1.248   7.463   6.584  0.5446 -0.8356  0.1847
   13MOL0     C 1683   1.283   7.544   6.473 -0.2018 -0.6269  0.5983
   13MOL0     C 1684   1.281   7.694   6.497  0.7031  0.4713  0.3882
   13MOL0     C 1685   1.334   7.472   6.356  0.4290 -0.6550  0.1527
   13MOL0     C 1686   1.379   7.542   6.229 -0.4865 -0.8101 -0.0650
   13MOL0     O 1687   1.391   7.460   6.123 -0.1618 -0.2403 -0.4061
   13MOL0     C 1688   1.494   7.474   6.034 -0.1286  0.0437 -0.5986
   13MOL0     C 1689   1.582   7.369   6.018 -0.6880 -0.4620  0.6552
   13MOL0     C 1690   1.695   7.389   5.941 -0.1871  0.8307 -0.4498
   13MOL0     C 1691   1.728   7.504   5.875 -0.2702 -0.3456  1.2684
   13MOL0     O 1692   1.854   7.512   5.815 -0.6050 -0.1979  0.0362
   13MOL0     C 1693   1.968   7.527   5.909  0.3591 -0.0901  0.1513
   13MOL0     C 1694   1.997   7.672   5.955  0.5680  0.4037 -0.4286
   13MOL0     C 1695   2.077   7.769   5.849  0.3708 -0.1592  0.0835
   13MOL0     C 1696   2.119   7.903   5.916  0.3875 -0.7603  0.2522
   13MOL0     C 1697   2.191   8.004   5.834 -0.3948  0.7422  0.3745
   13MOL0     C 1698   2.340   7.973   5.807  0.1213 -0.6221 -0.2074
   13MOL0     C 1699   2.390   8.015   5.669 -1.0473 -0.2822  0.6302
   13MOL0     C 1700   2.537   8.015   5.652  0.0659  0.1050  0.0957
   13MOL0    Cl 1701   2.611   7.844   5.650 -0.0249 -0.1744 -0.3296
   13MOL0     C 1702   1.647   7.615   5.891 -1.0046  0.2428  0.9544
   13MOL0     C 1703   1.528   7.597   5.968  0.2527 -0.2750 -0.8761
   13MOL0     O 1704   1.406   7.667   6.235 -0.0582 -0.1891  0.1396
   13MOL0     C 1705   1.330   7.338   6.348 -0.1895  0.8559  0.2486
   13MOL0     C 1706   1.294   7.259   6.461  0.4895 -0.4671 -0.9356
   13MOL0     N 1707   1.054   6.907   7.080 -0.0294  0.5249 -0.4195
   13MOL0     N 1708   1.103   6.817   7.154 -0.0530  0.2703 -0.0622
   13MOL0     C 1709   1.010   6.408   8.224 -0.6145  0.6406  0.6259
   13MOL0     C 1710   0.982   6.505   8.319 -0.7071  0.2337  0.2774
   13MOL0     C 1711   1.057   6.833   8.666  0.0108 -0.1641 -0.4273
   13MOL0     C 1712   1.160   6.912   8.717 -1.1294 -0.5209 -0.4604
   13MOL0     C 1713   1.132   7.029   8.797  0.4886  0.3848 -0.0742
   13MOL0     C 1714   1.000   7.062   8.827  0.0717 -0.3320 -0.4045
   13MOL0     O 1715   0.958   7.176   8.892 -0.0467  0.5395  0.1022
   13MOL0     C 1716   1.048   7.262   8.953  0.7813  0.1013 -0.4557
   13MOL0     C 1717   1.060   7.206   9.093  0.1693  0.1078  0.2908
   13MOL0     C 1718   1.166   7.284   9.165 -0.3862  1.4638  0.6206
   13MOL0     C 1719   1.107   7.421   9.203  0.2245 -0.2207 -0.8548
   13MOL0     C 1720   1.202   7.516   9.257  1.1004 -0.0835  0.0467
   13MOL0     C 1721   1.283   7.584   9.306 -1.0641  0.5411 -0.1211
   13MOL0     C 1722   0.901   6.985   8.776  0.5030 -0.5547 -0.0113
   13MOL0     C 1723   0.919   6.867   8.688  0.5367  0.6358  0.3230
   13MOL0     C 1724   0.793   6.783   8.648 -0.0511  0.1344 -0.1473
   13MOL0     H 1725   1.291   6.553   8.452 -2.3773 -0.4473  1.9430
   13MOL0     H 1726   1.348   6.384   8.286  0.1240  0.4855  0.6751
   13MOL0     H 1727   1.307   6.170   7.988 -1.2369  0.7464 -0.8747
   13MOL0     H 1728   1.386   6.235   8.131  1.4793 -0.2108 -0.8889
   13MOL0     H 1729   1.380   6.459   8.065 -1.1347 -1.5930  2.0301
   13MOL0     H 1730   1.455   6.363   7.951 -0.2042  0.8878  0.8682
   13MOL0     H 1731   1.244   6.364   7.807 -0.2379  0.6501 -0.8680
   13MOL0     H 1732   1.178   6.490   7.926 -1.1027 -3.2146  2.6362
   13MOL0     H 1733   1.337   6.638   7.870  2.1007  0.0464 -0.7654
   13MOL0     H 1734   1.442   6.543   7.770  0.2954  4.3262 -2.6164
   13MOL0     H 1735   1.175   6.681   7.737  0.3133 -0.7312  0.3803
   13MOL0     H 1736   1.176   6.539   7.650 -1.5828 -0.2777  2.2642
   13MOL0     H 1737   1.378   6.775   7.617 -1.3533 -0.8693  1.5675
   13MOL0     H 1738   1.372   6.634   7.505  1.6115  1.1084  1.2459
   13MOL0     H 1739   1.173   6.857   7.557  0.0686 -0.8993  0.0207
   13MOL0     H 1740   1.117   6.703   7.506 -0.2005 -0.0864  1.9860
   13MOL0     H 1741   1.322   6.887   7.371 -1.6461  0.9857  0.9402
   13MOL0     H 1742   1.284   6.729   7.303 -0.4912  0.0212  0.5136
   13MOL0     H 1743   1.138   7.066   7.352  2.1438  0.1443 -1.1048
   13MOL0     H 1744   0.932   7.199   7.177 -2.3191 -3.6138  2.1600
   13MOL0     H 1745   0.893   7.113   7.037 -0.1117 -1.3057  1.6563
   13MOL0     H 1746   1.015   7.332   7.007  0.8336  0.7818  2.7694
   13MOL0     H 1747   1.155   7.279   7.090  0.8027 -1.9319 -0.6837
   13MOL0     H 1748   1.218   7.120   6.927 -1.7164 -2.7063  1.2664
   13MOL0     H 1749   1.071   7.135   6.839 -0.6995 -0.7763  0.7949
   13MOL0     H 1750   1.134   7.379   6.803  0.4351  0.2483 -2.8326
   13MOL0     H 1751   1.303   7.326   6.849  1.0902 -1.4882 -3.1357
   13MOL0     H 1752   1.209   7.519   6.668  2.8476  1.2705 -0.0374
   13MOL0     H 1753   1.384   7.729   6.513  1.1578 -0.3755 -0.5686
   13MOL0     H 1754   1.219   7.710   6.586 -0.3606 -0.2492 -0.2068
   13MOL0     H 1755   1.223   7.748   6.422  1.2319  1.5845  0.7611
   13MOL0     H 1756   1.567   7.269   6.056 -4.5907  0.1242  0.9991
   13MOL0     H 1757   1.771   7.312   5.942  0.9787  1.9478 -0.3247
   13MOL0     H 1758   1.947   7.474   6.002  0.1357 -0.7652 -0.2744
   13MOL0     H 1759   2.058   7.493   5.856  0.5132  1.8842 -0.9218
   13MOL0     H 1760   1.900   7.719   5.973  0.7969  0.1616  1.6877
   13MOL0     H 1761   2.054   7.670   6.048  3.8328 -1.1859 -2.2872
   13MOL0     H 1762   2.026   7.796   5.756  0.4171 -0.6170 -0.0800
   13MOL0     H 1763   2.173   7.723   5.823  0.6975 -0.7078  2.0865
   13MOL0     H 1764   2.178   7.896   6.007  1.9690  1.6957 -0.4748
   13MOL0     H 1765   2.028   7.957   5.946  0.0865  0.0984 -1.9683
   13MOL0     H 1766   2.151   8.022   5.734  0.0122  3.8292  0.6756
   13MOL0     H 1767   2.170   8.105   5.871 -1.1521  0.9904 -0.6906
   13MOL0     H 1768   2.361   7.866   5.805 -0.6518 -0.8109 -3.4701
   13MOL0     H 1769   2.393   8.027   5.886  1.5113 -0.1042 -1.4709
   13MOL0     H 1770   2.354   8.114   5.640  1.6221  0.4943 -0.3191
   13MOL0     H 1771   2.349   7.949   5.592 -0.2713  1.0960 -1.0205
   13MOL0     H 1772   2.582   8.078   5.729 -1.0020 -1.7920  2.4164
   13MOL0     H 1773   2.560   8.057   5.554  1.6055 -0.8272  0.0222
   13MOL0     H 1774   1.683   7.710   5.855  0.8280 -0.8479 -0.2670
   13MOL0     H 1775   1.476   7.690   5.991  1.6630 -0.1832  2.4850
   13MOL0     H 1776   1.372   7.281   6.266 -0.4541  1.9944 -0.7086
   13MOL0     H 1777   1.302   7.152   6.445 -2.6600 -1.3271  1.9765
   13MOL0     H 1778   0.926   6.372   8.166 -0.1490  1.3612 -0.5391
   13MOL0     H 1779   0.877   6.525   8.338 -0.7688 -0.3726  0.6057
   13MOL0     H 1780   1.266   6.901   8.696 -0.7860 -0.5691  1.1643
   13MOL0     H 1781   1.212   7.098   8.822 -0.3252  1.0804  0.6860
   13MOL0     H 1782   1.147   7.278   8.910 -0.1196  1.3413 -2.1558
   13MOL0     H 1783   0.999   7.359   8.972  1.6634  0.0899  2.5048
   13MOL0     H 1784   1.080   7.099   9.087  0.7644  0.2699 -1.5656
   13MOL0     H 1785   0.956   7.211   9.128  0.1496  0.5778  0.1735
   13MOL0     H 1786   1.197   7.233   9.257 -0.2886 -1.2916 -0.8387
   13MOL0     H 1787   1.252   7.288   9.097 -1.5186 -1.7929 -1.2440
   13MOL0     H 1788   1.026   7.417   9.277  0.6110 -1.9387 -0.4889
   13MOL0     H 1789   1.053   7.473   9.124  1.9084 -0.1529 -2.0108
   13MOL0     H 1790   1.367   7.635   9.351 -0.2015 -0.0113 -1.0880
   13MOL0     H 1791   0.803   7.007   8.816  0.7447  2.7159 -0.9516
   13MOL0     H 1792   0.820   6.680   8.624  0.0410  0.1601 -0.1561
   13MOL0     H 1793   0.736   6.787   8.741  2.0310 -4.1991  1.6103
   13MOL0     H 1794   0.737   6.842   8.575 -0.4591 -0.4402 -0.3054
   14MOL0     O 1795   4.452   1.521   8.663 -0.7127  0.3036  0.6917
   14MOL0     C 1796   4.420   1.555   8.771  0.0030  0.2515 -1.5245
   14MOL0     O 1797   4.329   1.491   8.853  0.4518 -0.0990  0.0039
   14MOL0     C 1798   4.287   1.372   8.798 -0.6668 -0.9047  0.0357
   14MOL0     C 1799   4.150   1.347   8.794 -0.3013  0.6701 -0.5123
   14MOL0     C 1800   4.102   1.229   8.736 -0.1894  0.3985  0.2108
   14MOL0     C 1801   4.193   1.138   8.678  1.1322  0.0520 -0.7614
   14MOL0     O 1802   4.132   1.026   8.625  0.3701  0.2631  0.6063
   14MOL0     C 1803   4.221   0.945   8.542  0.7739  0.4578  0.5102
   14MOL0     C 1804   4.127   0.871   8.440  0.4248  0.1907 -0.6957
   14MOL0     C 1805   4.215   0.779   8.348 -0.1919  0.0742 -1.0207
   14MOL0     C 1806   4.136   0.731   8.225  0.1455 -1.0096 -0.7462
   14MOL0     C 1807   4.232   0.643   8.145  0.3031  0.1151  0.1803
   14MOL0     C 1808   4.151   0.617   8.014 -0.3185 -0.4855 -0.2560
   14MOL0     C 1809   4.210   0.507   7.926  0.4107  0.0444 -0.0818
   14MOL0     C 1810   4.116   0.431   7.839  0.4927 -0.7225  0.2881
   14MOL0     N 1811   4.176   0.343   7.741 -0.1363  0.7707 -0.2700
   14MOL0     C 1812   4.139   0.353   7.606  0.4815  0.2364 -0.4748
   14MOL0     C 1813   4.184   0.234   7.559 -0.6211  0.1374 -0.1506
   14MOL0     C 1814   4.161   0.173   7.415 -0.3313 -0.6048 -0.2113
   14MOL0     C 1815   4.152   0.264   7.303 -0.2108 -0.0449  0.9056
   14MOL0     C 1816   4.203   0.197   7.177  0.1384  0.8734 -0.0697
   14MOL0     C 1817   4.198   0.303   7.074  0.4757  0.1196  0.0422
   14MOL0     O 1818   4.277   0.420   7.098  0.2077  0.0951 -0.6464
   14MOL0     C 1819   4.292   0.516   6.996  1.0434 -0.2845 -1.1101
   14MOL0     C 1820   4.238   0.501   6.870  0.3073 -0.6395 -0.3500
   14MOL0     C 1821   4.263   0.613   6.774  1.2079 -0.3920  0.0551
   14MOL0     C 1822   4.192   0.592   6.640 -0.0409  0.0332  0.8127
   14MOL0     C 1823   4.328   0.732   6.814 -0.1646 -0.2494  1.0091
   14MOL0     C 1824   4.325   0.860   6.730 -0.3096 -0.0539 -0.3341
   14MOL0     O 1825   4.354   0.976   6.797 -0.1001  0.2337  0.0397
   14MOL0     C 1826   4.395   1.102   6.741  0.2526  1.2979  1.2553
   14MOL0     C 1827   4.323   1.172   6.646  0.1924 -0.0259  0.2517
   14MOL0     C 1828   4.356   1.307   6.610  0.7807  0.1238 -0.1080
   14MOL0     C 1829   4.473   1.372   6.664  0.2466  0.6568  0.2604
   14MOL0     O 1830   4.508   1.497   6.632  0.1621  0.2258  0.0849
   14MOL0     C 1831   4.436   1.563   6.527  0.4360  0.6546 -0.7803
   14MOL0     C 1832   4.496   1.680   6.492 -0.5910 -0.4241  0.4755
   14MOL0     C 1833   4.416   1.755   6.379  0.0822 -0.0125 -0.0254
   14MOL0     C 1834   4.437   1.907   6.384  0.6141 -0.3692  0.8444
   14MOL0     C 1835   4.396   1.969   6.255 -0.4480 -0.6539 -0.6127
   14MOL0     C 1836   4.244   1.977   6.220  0.0838 -0.0542 -0.5396
   14MOL0     C 1837   4.220   2.037   6.073  1.2292 -0.1229  0.1630
   14MOL0     C 1838   4.070   2.045   6.044  0.1132  0.3998 -1.3232
   14MOL0    Cl 1839   4.006   1.879   6.032  0.0369  0.0225 -0.0447
   14MOL0     C 1840   4.552   1.301   6.758  0.2170 -0.5294  0.2447
   14MOL0     C 1841   4.509   1.170   6.804 -0.6572 -0.1368  0.1212
   14MOL0     O 1842   4.308   0.857   6.604 -0.0492 -0.1979 -1.0757
   14MOL0     C 1843   4.380   0.732   6.944  0.4630 -0.6560  0.1801
   14MOL0     C 1844   4.362   0.629   7.035  1.4266 -0.5170 -0.5564
   14MOL0     N 1845   4.238   0.154   7.662  0.3298 -0.1531  0.0950
   14MOL0     N 1846   4.238   0.229   7.766 -0.3307 -0.6943 -0.0994
   14MOL0     C 1847   4.335   1.153   8.702  1.0294 -0.1211  0.2549
   14MOL0     C 1848   4.377   1.274   8.758 -0.0848  0.8017  0.4306
   14MOL0     C 1849   4.476   1.682   8.829 -0.4753 -0.1546  0.3570
   14MOL0     C 1850   4.509   1.684   8.965 -1.1690  0.4587 -0.6580
   14MOL0     C 1851   4.582   1.800   9.010 -0.9289 -0.2857 -0.8398
   14MOL0     C 1852   4.611   1.904   8.928 -0.2193 -0.6174  0.1712
   14MOL0     O 1853   4.693   1.996   8.990 -0.7039  0.1156 -0.3530
   14MOL0     C 1854   4.727   2.117   8.924 -0.5822  1.3431  0.1837
   14MOL0     C 1855   4.811   2.214   9.020  0.1012 -0.4525  0.3994
   14MOL0     C 1856   4.750   2.254   9.163  0.8657  0.0368 -0.9362
   14MOL0     C 1857   4.864   2.306   9.262  0.0056  0.1203 -0.4019
   14MOL0     C 1858   4.807   2.344   9.393  0.0701 -0.2578  0.2027
   14MOL0     C 1859   4.765   2.400   9.575 -0.2174  0.5433  0.0110
   14MOL0     C 1860   4.561   1.910   8.793  0.1415 -0.9961 -0.1093
   14MOL0     C 1861   4.496   1.796   8.739  0.3638  0.4291  0.4646
   14MOL0     C 1862   4.463   1.812   8.593  0.4693 -0.6827 -0.5428
   14MOL0     H 1863   4.088   1.419   8.846  1.0877  2.1102 -0.7816
   14MOL0     H 1864   3.999   1.201   8.753 -0.4051  1.4287  0.6302
   14MOL0     H 1865   4.264   0.871   8.610  0.2327  0.0748  0.4452
   14MOL0     H 1866   4.295   0.994   8.477 -0.6101 -1.1367 -2.4646
   14MOL0     H 1867   4.050   0.818   8.496 -0.3634  3.6954  1.8833
   14MOL0     H 1868   4.075   0.954   8.392  0.9841  0.6890 -0.4475
   14MOL0     H 1869   4.300   0.838   8.312 -0.4612 -0.1650 -2.0688
   14MOL0     H 1870   4.251   0.688   8.397  4.0914  1.4290 -1.2418
   14MOL0     H 1871   4.043   0.681   8.255  1.9259 -3.0913  1.8205
   14MOL0     H 1872   4.116   0.828   8.178 -0.4503 -1.7363 -2.0335
   14MOL0     H 1873   4.253   0.555   8.206 -0.9175 -0.6833 -0.5124
   14MOL0     H 1874   4.329   0.692   8.128  1.3886 -1.8667  0.4504
   14MOL0     H 1875   4.053   0.574   8.036 -0.5674 -0.5562 -1.4371
   14MOL0     H 1876   4.137   0.711   7.959  0.1013 -1.6928 -2.5423
   14MOL0     H 1877   4.268   0.436   7.985  2.1739  0.2973 -1.4499
   14MOL0     H 1878   4.285   0.558   7.866 -0.4741  0.4773 -0.8536
   14MOL0     H 1879   4.048   0.369   7.899 -3.8018 -0.0296 -3.3385
   14MOL0     H 1880   4.057   0.509   7.791  3.4898  2.4112  1.3106
   14MOL0     H 1881   4.081   0.429   7.556 -1.0646  0.0849  0.9972
   14MOL0     H 1882   4.087   0.092   7.418 -0.4598 -0.4582  0.7946
   14MOL0     H 1883   4.251   0.111   7.404  0.9445  0.7694  1.8729
   14MOL0     H 1884   4.045   0.280   7.290 -1.3634 -5.5920  1.0771
   14MOL0     H 1885   4.214   0.351   7.324  1.6067  0.3078 -4.2898
   14MOL0     H 1886   4.304   0.161   7.194 -0.7715 -1.3412  0.9994
   14MOL0     H 1887   4.147   0.107   7.151 -1.0635  2.5617 -4.1908
   14MOL0     H 1888   4.228   0.251   6.982 -3.9064 -1.3742 -0.7725
   14MOL0     H 1889   4.097   0.338   7.053 -0.3019 -2.2659 -0.5018
   14MOL0     H 1890   4.183   0.411   6.845  0.0823 -0.3730 -0.8148
   14MOL0     H 1891   4.091   0.632   6.647 -0.5651 -1.2093  0.6305
   14MOL0     H 1892   4.198   0.483   6.630  3.9361  0.1226  0.5075
   14MOL0     H 1893   4.247   0.637   6.557 -0.6496  0.3059  0.5578
   14MOL0     H 1894   4.232   1.127   6.607  1.5514 -1.8858 -0.9253
   14MOL0     H 1895   4.286   1.359   6.546 -0.2969 -0.8505  0.2483
   14MOL0     H 1896   4.438   1.494   6.442 -0.0878 -0.0173 -0.2645
   14MOL0     H 1897   4.331   1.567   6.557  1.1657 -2.3305  2.9819
   14MOL0     H 1898   4.508   1.738   6.583 -0.6009 -1.6629  1.2850
   14MOL0     H 1899   4.592   1.647   6.449 -1.0369  0.7081 -1.5501
   14MOL0     H 1900   4.310   1.735   6.396  0.3557 -1.4539  0.1149
   14MOL0     H 1901   4.447   1.702   6.289 -0.0241 -2.1160  1.1081
   14MOL0     H 1902   4.542   1.935   6.403  1.1618  1.7167 -3.8872
   14MOL0     H 1903   4.374   1.965   6.452  0.7327 -1.0697  1.5617
   14MOL0     H 1904   4.440   2.068   6.274 -0.0457 -1.1528  1.2261
   14MOL0     H 1905   4.448   1.915   6.176  1.9403 -2.5028  2.0374
   14MOL0     H 1906   4.204   2.052   6.289 -1.0582  0.0822 -1.3346
   14MOL0     H 1907   4.198   1.881   6.241 -1.0550  0.2763 -1.4512
   14MOL0     H 1908   4.253   1.974   5.989 -0.3474 -1.1136  0.2496
   14MOL0     H 1909   4.265   2.137   6.069 -3.2759  2.0883 -0.8490
   14MOL0     H 1910   4.055   2.093   5.947 -0.2589  0.0326 -1.4468
   14MOL0     H 1911   4.003   2.103   6.108 -1.1190 -2.7714  0.5046
   14MOL0     H 1912   4.637   1.340   6.813  1.6756 -0.9571 -1.6104
   14MOL0     H 1913   4.551   1.130   6.895 -3.3444 -3.0912  0.2691
   14MOL0     H 1914   4.417   0.830   6.974 -0.4168  0.4010 -1.9639
   14MOL0     H 1915   4.414   0.635   7.130 -0.1417 -1.2976  0.3900
   14MOL0     H 1916   4.413   1.083   8.674  0.7909 -2.4273  4.5094
   14MOL0     H 1917   4.482   1.299   8.765  0.7369 -2.5780  1.9591
   14MOL0     H 1918   4.489   1.609   9.040  0.9070 -1.3876 -1.8366
   14MOL0     H 1919   4.622   1.806   9.111 -0.0996 -3.3640 -0.9063
   14MOL0     H 1920   4.785   2.098   8.833 -0.7660  1.2001  0.0955
   14MOL0     H 1921   4.633   2.167   8.899 -2.0526 -1.0954  0.5381
   14MOL0     H 1922   4.835   2.310   8.972  0.1169  0.5001  2.2199
   14MOL0     H 1923   4.909   2.169   9.040  0.3175  0.0161  0.4123
   14MOL0     H 1924   4.676   2.333   9.145 -1.0246 -1.3790  0.2308
   14MOL0     H 1925   4.704   2.168   9.211  1.8978 -1.0166 -1.7827
   14MOL0     H 1926   4.895   2.401   9.219  0.1661  0.7795  1.1206
   14MOL0     H 1927   4.944   2.232   9.274  0.8291  1.2276  1.3102
   14MOL0     H 1928   4.747   2.426   9.678 -1.5065 -2.8039  0.7400
   14MOL0     H 1929   4.571   1.998   8.730 -1.8577 -0.3929  0.3604
   14MOL0     H 1930   4.545   1.788   8.525 -1.0444  0.0592 -2.7591
   14MOL0     H 1931   4.374   1.751   8.576 -0.3841 -0.5679  2.8153
   14MOL0     H 1932   4.434   1.916   8.577  1.4891 -0.0177  1.4881
   15MOL0     O 1933  10.547   4.710   7.202  0.0956  0.8116 -0.1664
   15MOL0     C 1934  10.543   4.588   7.224 -0.7144  0.4374  0.0589
   15MOL0     O 1935  10.463   4.497   7.145  0.5629 -0.7515  0.0972
   15MOL0     C 1936  10.399   4.551   7.036 -0.0332 -0.3633 -0.2350
   15MOL0     C 1937  10.294   4.635   7.055  0.3131 -1.0015 -1.9362
   15MOL0     C 1938  10.236   4.702   6.953  0.3884  0.3512 -0.5360
   15MOL0     C 1939  10.284   4.676   6.823 -0.0394  0.5245 -0.3729
   15MOL0     O 1940  10.243   4.734   6.716  0.2197 -0.9741  0.9278
   15MOL0     C 1941  10.097   4.736   6.702  0.4682 -0.0006  0.6477
   15MOL0     C 1942  10.054   4.763   6.561  0.6072  0.2103 -0.0821
   15MOL0     C 1943   9.900   4.763   6.547  0.6255 -0.0591 -0.1586
   15MOL0     C 1944   9.837   4.636   6.555 -0.7608  1.4489 -0.5165
   15MOL0     C 1945   9.686   4.643   6.503 -0.5297  0.4216  0.2678
   15MOL0     C 1946   9.665   4.623   6.352  0.0117 -0.3917  0.6510
   15MOL0     C 1947   9.521   4.612   6.298 -0.3814 -0.1108 -0.1698
   15MOL0     C 1948   9.436   4.745   6.310  0.0519 -0.1387 -0.6761
   15MOL0     N 1949   9.495   4.868   6.253 -0.3339  1.1360  0.5857
   15MOL0     C 1950   9.537   4.974   6.325 -0.3077  0.6388  0.1875
   15MOL0     C 1951   9.626   5.045   6.246  0.6312 -0.4908  0.9474
   15MOL0     C 1952   9.683   5.183   6.285  0.1777  0.8229  0.4923
   15MOL0     C 1953   9.729   5.192   6.429 -0.7719  0.4529  0.9891
   15MOL0     C 1954   9.824   5.309   6.464  0.6052  0.1588  0.7725
   15MOL0     C 1955   9.803   5.374   6.599  0.2980 -0.0662 -0.2701
   15MOL0     O 1956   9.862   5.292   6.700  0.1009  0.5205 -0.2303
   15MOL0     C 1957   9.996   5.291   6.738 -0.0358 -0.8675 -0.2008
   15MOL0     C 1958  10.066   5.179   6.790  0.4104 -0.0324 -0.0534
   15MOL0     C 1959  10.202   5.193   6.823  0.8543  0.6567  0.2639
   15MOL0     C 1960  10.258   5.064   6.882 -0.1440 -0.2069 -0.0757
   15MOL0     C 1961  10.278   5.306   6.798 -0.4535  0.4006 -0.4172
   15MOL0     C 1962  10.430   5.306   6.814 -0.3438 -0.4459  0.9697
   15MOL0     O 1963  10.494   5.429   6.800 -0.0051  0.3692 -0.2507
   15MOL0     C 1964  10.629   5.430   6.786  0.1909  0.6900  1.2274
   15MOL0     C 1965  10.688   5.416   6.665  0.2106 -0.1188 -0.0844
   15MOL0     C 1966  10.822   5.379   6.648 -0.1596 -1.0139 -0.7540
   15MOL0     C 1967  10.903   5.369   6.764 -0.7066 -0.3781  0.3322
   15MOL0     O 1968  11.033   5.320   6.758  0.1424  0.3691 -0.6486
   15MOL0     C 1969  11.122   5.396   6.676 -0.0632  0.6166  0.0948
   15MOL0     C 1970  11.258   5.328   6.659  0.0127 -0.4886 -0.0767
   15MOL0     C 1971  11.349   5.391   6.547  0.1632 -0.2653  0.5313
   15MOL0     C 1972  11.467   5.301   6.516  0.4584 -0.7439  0.1474
   15MOL0     C 1973  11.549   5.359   6.405 -0.3212 -0.3184 -0.0498
   15MOL0     C 1974  11.666   5.289   6.364 -0.6604  0.5880 -0.8593
   15MOL0     C 1975  11.749   5.351   6.251 -0.1384  0.3953  0.2922
   15MOL0     C 1976  11.736   5.286   6.112 -0.5261  0.7654  0.2786
   15MOL0    Cl 1977  11.883   5.342   6.012 -0.5569 -0.2114 -0.2373
   15MOL0     C 1978  10.853   5.401   6.891  0.5370 -0.1369  0.9476
   15MOL0     C 1979  10.715   5.425   6.908  0.6374  0.1384 -0.3000
   15MOL0     O 1980  10.491   5.204   6.810  0.4996  0.2656 -0.4507
   15MOL0     C 1981  10.214   5.417   6.743 -0.5761  0.6734  1.3402
   15MOL0     C 1982  10.074   5.407   6.714 -0.4807 -0.2464 -0.5170
   15MOL0     N 1983   9.635   4.976   6.123 -0.8394  0.5151  0.2363
   15MOL0     N 1984   9.564   4.865   6.132 -0.8617 -0.4847 -0.8388
   15MOL0     C 1985  10.376   4.579   6.800  0.0056 -0.2305  0.0279
   15MOL0     C 1986  10.440   4.522   6.909  0.1057  0.1124 -1.2347
   15MOL0     C 1987  10.623   4.520   7.329 -1.4270  0.2632 -0.2939
   15MOL0     C 1988  10.584   4.397   7.361 -0.1658 -0.6902 -0.3449
   15MOL0     C 1989  10.629   4.342   7.479  0.0691  0.6533 -0.5837
   15MOL0     C 1990  10.744   4.388   7.551 -0.3931 -1.0882  0.3451
   15MOL0     O 1991  10.807   4.325   7.662  0.0652 -0.0805  0.2525
   15MOL0     C 1992  10.754   4.206   7.724 -0.4719  0.2340 -0.0535
   15MOL0     C 1993  10.837   4.154   7.833  0.0747 -0.3033  0.2226
   15MOL0     C 1994  10.986   4.143   7.819 -0.8013 -0.1660  0.1459
   15MOL0     C 1995  11.045   4.083   7.690 -0.3448  0.2644  0.1614
   15MOL0     C 1996  11.193   4.071   7.716  0.0427  0.9735  0.3953
   15MOL0     C 1997  11.313   4.073   7.741  0.3772  0.7716  0.2897
   15MOL0     C 1998  10.792   4.513   7.507  0.0797 -0.3268  0.0538
   15MOL0     C 1999  10.730   4.584   7.404 -0.7808  0.8064 -0.2115
   15MOL0     C 2000  10.790   4.709   7.362 -0.2753  0.2532 -0.8393
   15MOL0     H 2001  10.271   4.656   7.159  2.0025  1.6068 -2.0019
   15MOL0     H 2002  10.161   4.780   6.945  0.3871  0.2648 -1.6231
   15MOL0     H 2003  10.063   4.822   6.761  0.8102  0.4240  0.2329
   15MOL0     H 2004  10.049   4.642   6.731 -1.9912  0.1438 -2.4965
   15MOL0     H 2005  10.088   4.863   6.533 -2.0957  1.4613  0.8489
   15MOL0     H 2006  10.096   4.688   6.492 -1.1111 -2.0714  1.2274
   15MOL0     H 2007   9.858   4.836   6.617  2.5364  2.5011 -1.5249
   15MOL0     H 2008   9.893   4.809   6.448  4.3870 -0.3477 -0.7086
   15MOL0     H 2009   9.895   4.577   6.484  0.6575  2.4129 -0.2026
   15MOL0     H 2010   9.843   4.591   6.655 -1.7806  3.4143  0.4929
   15MOL0     H 2011   9.640   4.741   6.519 -0.5871 -0.0090  3.6244
   15MOL0     H 2012   9.628   4.575   6.567 -0.0054  0.6228  0.9605
   15MOL0     H 2013   9.709   4.712   6.306 -1.2569  0.1088  0.3469
   15MOL0     H 2014   9.723   4.535   6.322  0.1690  0.5141 -1.9783
   15MOL0     H 2015   9.471   4.528   6.347  0.6108 -2.3826 -2.7401
   15MOL0     H 2016   9.537   4.596   6.191  1.0620  0.3993 -0.0627
   15MOL0     H 2017   9.340   4.720   6.264 -1.6055  2.2669  1.2048
   15MOL0     H 2018   9.415   4.767   6.415 -1.2683 -0.6921 -0.8092
   15MOL0     H 2019   9.503   4.985   6.427  2.2074  2.3877  0.9213
   15MOL0     H 2020   9.603   5.257   6.276  0.0070  0.8865  2.1660
   15MOL0     H 2021   9.751   5.224   6.210 -2.7860  1.4745 -2.0045
   15MOL0     H 2022   9.646   5.190   6.500 -0.8928 -0.1774  0.8429
   15MOL0     H 2023   9.784   5.097   6.432 -1.8510 -0.2457 -0.2729
   15MOL0     H 2024   9.928   5.277   6.450  0.5268  0.0877  0.3454
   15MOL0     H 2025   9.797   5.384   6.390  0.3001  1.9434  2.6251
   15MOL0     H 2026   9.838   5.477   6.594  2.1987 -0.5645  1.4819
   15MOL0     H 2027   9.694   5.371   6.612  0.1370 -0.0327 -1.4530
   15MOL0     H 2028  10.007   5.088   6.801  3.8676 -2.2899  1.9866
   15MOL0     H 2029  10.318   5.006   6.812 -1.9828 -2.7915  0.3392
   15MOL0     H 2030  10.176   5.004   6.922  0.4399 -2.4995 -2.0774
   15MOL0     H 2031  10.317   5.092   6.969  1.4426 -0.7890 -0.9344
   15MOL0     H 2032  10.627   5.416   6.575  1.4087 -0.8577 -0.9229
   15MOL0     H 2033  10.863   5.341   6.555  2.0508 -2.0048  0.5496
   15MOL0     H 2034  11.083   5.395   6.574 -0.1656 -3.5745 -0.0202
   15MOL0     H 2035  11.126   5.496   6.721 -4.8521  2.5069 -2.8741
   15MOL0     H 2036  11.312   5.338   6.754  0.0844  0.7755 -0.2264
   15MOL0     H 2037  11.254   5.221   6.641  2.9338 -1.0694  2.0402
   15MOL0     H 2038  11.388   5.491   6.567 -0.1594 -0.0150 -0.0449
   15MOL0     H 2039  11.294   5.401   6.452  0.4298 -2.1241  0.1447
   15MOL0     H 2040  11.422   5.205   6.492  0.4407 -0.4026 -1.2390
   15MOL0     H 2041  11.522   5.291   6.610 -0.4525  0.5077  0.8518
   15MOL0     H 2042  11.495   5.363   6.309  4.1284 -3.6731 -3.1083
   15MOL0     H 2043  11.588   5.454   6.442 -1.0956  0.1263 -0.3536
   15MOL0     H 2044  11.656   5.182   6.342  2.6860 -0.2774  1.1871
   15MOL0     H 2045  11.731   5.294   6.452 -2.2207  3.4322  0.2873
   15MOL0     H 2046  11.855   5.328   6.269  0.0893 -0.0430 -1.4099
   15MOL0     H 2047  11.742   5.459   6.241  0.9006  0.2807 -2.8932
   15MOL0     H 2048  11.647   5.325   6.061  1.8220  0.9220 -4.1821
   15MOL0     H 2049  11.741   5.178   6.127 -1.1495  0.8433  1.1005
   15MOL0     H 2050  10.919   5.418   6.975 -1.2496  0.7782  2.2183
   15MOL0     H 2051  10.665   5.435   7.004  1.5419  0.8858  0.1085
   15MOL0     H 2052  10.267   5.509   6.724 -0.1053 -0.1191 -1.6702
   15MOL0     H 2053  10.016   5.492   6.682  0.1051  0.3720  0.0226
   15MOL0     H 2054  10.411   4.552   6.701 -2.5191 -0.8866 -0.7670
   15MOL0     H 2055  10.526   4.457   6.891 -0.6916 -1.5412  0.5538
   15MOL0     H 2056  10.496   4.352   7.316 -1.2267  0.1059  0.8450
   15MOL0     H 2057  10.576   4.254   7.517  1.1623 -0.3950 -1.4070
   15MOL0     H 2058  10.651   4.212   7.761 -0.8068 -0.2862 -0.8698
   15MOL0     H 2059  10.754   4.120   7.656 -2.3656 -1.4955  1.9569
   15MOL0     H 2060  10.790   4.065   7.876 -0.3942  0.1993  0.7716
   15MOL0     H 2061  10.827   4.227   7.914 -0.1634  0.0316 -0.1072
   15MOL0     H 2062  11.036   4.240   7.828 -0.7184  0.0155 -1.9557
   15MOL0     H 2063  11.018   4.086   7.907 -2.2147  0.9066  1.4101
   15MOL0     H 2064  11.030   4.147   7.602  0.2878 -0.6029 -0.5864
   15MOL0     H 2065  10.985   3.993   7.676  1.3713 -0.8758 -0.1503
   15MOL0     H 2066  11.417   4.060   7.763  0.0739  1.2069  2.1630
   15MOL0     H 2067  10.882   4.558   7.547  1.8054 -2.1575 -1.5675
   15MOL0     H 2068  10.825   4.690   7.260  1.2035 -0.5932 -0.2106
   15MOL0     H 2069  10.712   4.784   7.379  0.3729  0.6015  0.8059
   15MOL0     H 2070  10.885   4.731   7.411 -0.0089 -2.2480 -0.0612
   16MOL0     O 2071   6.525  10.333   9.095 -0.3474 -0.5341  0.7074
   16MOL0     C 2072   6.457  10.431   9.092  1.0080  0.0387  0.7291
   16MOL0     O 2073   6.441  10.505   8.983 -0.5591  0.3956 -0.3278
   16MOL0     C 2074   6.533  10.500   8.879 -0.5853 -0.5341 -0.2445
   16MOL0     C 2075   6.672  10.494   8.889 -0.4471 -0.9650 -0.5500
   16MOL0     C 2076   6.762  10.543   8.789 -0.5425  0.5572 -0.1776
   16MOL0     C 2077   6.706  10.561   8.666  0.9315 -0.0348 -0.4036
   16MOL0     O 2078   6.792  10.580   8.562  0.5440 -0.3447  0.4704
   16MOL0     C 2079   6.856  10.710   8.552  0.4596 -0.4179  1.0103
   16MOL0     C 2080   6.769  10.823   8.488 -0.8994  0.0390  0.3978
   16MOL0     C 2081   6.855  10.930   8.420  0.5940 -0.2037  0.4228
   16MOL0     C 2082   6.943  11.018   8.505  0.8675  0.7771 -0.7040
   16MOL0     C 2083   7.077  10.965   8.529 -0.4913 -0.8849 -0.1257
   16MOL0     C 2084   7.146  10.917   8.394  0.0594  0.0432  0.1566
   16MOL0     C 2085   7.295  10.900   8.402  0.3853  0.8849 -0.7410
   16MOL0     C 2086   7.382  11.006   8.339  0.0805  0.2727  0.1517
   16MOL0     N 2087   7.390  11.123   8.428  0.1433 -0.6883 -0.0953
   16MOL0     C 2088   7.457  11.126   8.547  0.1228  0.1377 -1.1904
   16MOL0     C 2089   7.432  11.242   8.601  0.4189 -0.3080  0.2158
   16MOL0     C 2090   7.478  11.288   8.738  0.3822 -0.0075  0.9215
   16MOL0     C 2091   7.619  11.323   8.741 -0.9335 -0.8696  0.0053
   16MOL0     C 2092   7.660  11.332   8.891  0.0993 -0.3539 -0.2095
   16MOL0     C 2093   7.596  11.456   8.953  0.6677 -0.5697  0.1665
   16MOL0     O 2094   7.661  11.477   9.081 -0.4765  0.6447 -0.0584
   16MOL0     C 2095   7.650  11.608   9.128 -0.1922  0.1024 -0.6224
   16MOL0     C 2096   7.575  11.721   9.085 -0.1487  0.9518 -0.0582
   16MOL0     C 2097   7.590  11.846   9.153 -0.4817 -0.4920  0.0541
   16MOL0     C 2098   7.501  11.965   9.100 -0.7258 -0.1026  1.1638
   16MOL0     C 2099   7.673  11.853   9.269 -0.3035 -0.3617  0.4401
   16MOL0     C 2100   7.684  11.980   9.337 -0.1213  0.7879 -0.1580
   16MOL0     O 2101   7.815  12.017   9.322 -0.8150 -0.0718 -0.4674
   16MOL0     C 2102   7.867  12.134   9.382  0.1780  0.7760 -0.0602
   16MOL0     C 2103   7.920  12.222   9.294  0.1362 -0.6253 -0.3659
   16MOL0     C 2104   7.974  12.345   9.346  0.0491 -0.2124  0.5441
   16MOL0     C 2105   7.966  12.371   9.480 -0.5030 -0.3679  0.2201
   16MOL0     O 2106   8.014  12.493   9.517  0.8621 -0.3895  0.4404
   16MOL0     C 2107   8.057  12.503   9.661 -0.2783 -0.6647  0.2609
   16MOL0     C 2108   8.143  12.622   9.677 -0.5789  0.5281 -0.4253
   16MOL0     C 2109   8.187  12.665   9.817 -0.3857  0.1690 -0.0605
   16MOL0     C 2110   8.233  12.547   9.905 -0.3650 -0.0974 -0.7178
   16MOL0     C 2111   8.309  12.602  10.029  0.0992  0.6554  0.0507
   16MOL0     C 2112   8.332  12.499  10.139 -0.4585  0.5714 -0.0704
   16MOL0     C 2113   8.416  12.557  10.260 -0.2297  0.2992 -0.4653
   16MOL0     C 2114   8.462  12.447  10.359 -0.0468  0.3860 -0.1769
   16MOL0    Cl 2115   8.358  12.305  10.360  0.2501  0.0670 -0.3153
   16MOL0     C 2116   7.914  12.275   9.568  0.2878  0.6334 -0.4248
   16MOL0     C 2117   7.862  12.152   9.517  0.1572 -0.9970  0.1242
   16MOL0     O 2118   7.591  12.037   9.391 -0.5059 -0.5073 -0.6317
   16MOL0     C 2119   7.750  11.741   9.303  0.1555 -0.1895 -0.8239
   16MOL0     C 2120   7.741  11.621   9.237  0.7447  0.8923  0.9389
   16MOL0     N 2121   7.337  11.313   8.519 -0.2959 -0.3869  0.1716
   16MOL0     N 2122   7.309  11.234   8.421 -0.5285  0.4274  0.8338
   16MOL0     C 2123   6.570  10.538   8.642  1.0044  0.5905  0.2303
   16MOL0     C 2124   6.488  10.526   8.750  1.0192 -0.4558 -0.7814
   16MOL0     C 2125   6.383  10.480   9.203  0.5415 -0.3181  0.3469
   16MOL0     C 2126   6.286  10.579   9.186 -0.0791 -0.4265 -0.4011
   16MOL0     C 2127   6.218  10.639   9.296 -0.3428  0.0264 -0.2123
   16MOL0     C 2128   6.260  10.619   9.429  0.2539  0.1571  0.4399
   16MOL0     O 2129   6.200  10.658   9.548 -0.6362  0.6251 -0.9263
   16MOL0     C 2130   6.065  10.705   9.550  0.2784 -0.0524 -0.4035
   16MOL0     C 2131   6.003  10.716   9.693 -0.6246  0.2681  0.5686
   16MOL0     C 2132   5.882  10.799   9.703 -0.0934 -1.0404 -0.3690
   16MOL0     C 2133   5.767  10.739   9.625 -0.4277  0.0977 -0.1907
   16MOL0     C 2134   5.767  10.774   9.484  0.3951  0.0513  0.0063
   16MOL0     C 2135   5.769  10.807   9.370 -0.9936  0.5025  0.3757
   16MOL0     C 2136   6.363  10.528   9.445 -0.5273 -0.0889 -0.9925
   16MOL0     C 2137   6.428  10.454   9.336  0.6020 -0.3797 -0.8198
   16MOL0     C 2138   6.534  10.356   9.372  0.6376 -0.3368 -0.5197
   16MOL0     H 2139   6.711  10.470   8.988 -0.0074  0.9092 -0.2117
   16MOL0     H 2140   6.869  10.556   8.802 -0.1502 -1.0535 -1.4800
   16MOL0     H 2141   6.951  10.686   8.504  0.5079  0.2291  0.7769
   16MOL0     H 2142   6.886  10.749   8.650 -0.4722  4.4134 -0.3464
   16MOL0     H 2143   6.720  10.755   8.417 -1.4959 -2.0164  2.6272
   16MOL0     H 2144   6.691  10.849   8.560 -1.2001 -2.9923  1.3329
   16MOL0     H 2145   6.909  10.882   8.338  1.8162 -0.6418  1.4631
   16MOL0     H 2146   6.793  11.003   8.366 -1.5718 -1.4421  1.1169
   16MOL0     H 2147   6.947  11.112   8.450 -0.9264  2.8886  2.4486
   16MOL0     H 2148   6.891  11.046   8.598  1.4461  0.8978 -0.4151
   16MOL0     H 2149   7.083  10.885   8.602 -2.5173  1.4606  2.8732
   16MOL0     H 2150   7.140  11.047   8.566  1.5026 -2.3080 -0.2708
   16MOL0     H 2151   7.098  10.822   8.372 -1.9785  0.2111  3.2741
   16MOL0     H 2152   7.122  10.983   8.310  1.9299  0.2872 -0.2354
   16MOL0     H 2153   7.317  10.803   8.357 -0.3582  0.0978  0.5671
   16MOL0     H 2154   7.328  10.879   8.503  0.2809 -1.3899 -1.1394
   16MOL0     H 2155   7.480  10.960   8.320 -0.7802 -2.0895  1.0735
   16MOL0     H 2156   7.347  11.030   8.238 -1.2869 -1.0368  0.2833
   16MOL0     H 2157   7.499  11.035   8.587 -1.0965 -0.3137 -0.8794
   16MOL0     H 2158   7.454  11.204   8.804  0.8461 -0.7092  0.2026
   16MOL0     H 2159   7.423  11.377   8.771 -1.0071  0.3604 -2.0748
   16MOL0     H 2160   7.671  11.234   8.702  0.5875 -0.0938  0.1855
   16MOL0     H 2161   7.651  11.410   8.682  0.8871 -0.0997  2.0128
   16MOL0     H 2162   7.625  11.252   8.957 -2.6551  1.3387  0.5720
   16MOL0     H 2163   7.768  11.336   8.907  0.0602 -0.1795  0.0164
   16MOL0     H 2164   7.626  11.543   8.894  0.4412 -0.6665 -0.0921
   16MOL0     H 2165   7.489  11.438   8.963  0.9311 -5.2428 -2.4743
   16MOL0     H 2166   7.508  11.702   9.001 -0.8369  1.2589  0.4084
   16MOL0     H 2167   7.440  11.935   9.014 -2.6128 -0.2384  2.5006
   16MOL0     H 2168   7.571  12.041   9.065  1.8159 -3.3290 -1.5460
   16MOL0     H 2169   7.440  12.010   9.178 -0.5616 -1.9802  2.4497
   16MOL0     H 2170   7.924  12.199   9.188  1.1292 -1.2531 -0.2059
   16MOL0     H 2171   8.025  12.418   9.285 -0.0772 -0.6737 -0.1196
   16MOL0     H 2172   7.972  12.524   9.726  0.0131  2.6036 -0.2462
   16MOL0     H 2173   8.103  12.415   9.707 -0.2859  0.1677  1.9458
   16MOL0     H 2174   8.236  12.624   9.618 -0.9475  0.3406 -1.0205
   16MOL0     H 2175   8.077  12.699   9.638 -0.2606  0.0074 -2.0711
   16MOL0     H 2176   8.102  12.714   9.866  0.5072 -1.5288  3.5411
   16MOL0     H 2177   8.269  12.737   9.812 -0.0879 -0.2416 -1.2505
   16MOL0     H 2178   8.301  12.482   9.849  0.9830  1.0244 -0.4063
   16MOL0     H 2179   8.145  12.486   9.930  0.0390 -0.8162 -1.0227
   16MOL0     H 2180   8.409  12.638  10.005  0.3511 -0.6261 -0.9434
   16MOL0     H 2181   8.243  12.679  10.071 -2.5518  0.3571 -3.1233
   16MOL0     H 2182   8.391  12.415  10.099 -0.5699  0.9713 -1.0822
   16MOL0     H 2183   8.239  12.455  10.178  0.1389  0.8316  1.7513
   16MOL0     H 2184   8.367  12.636  10.318 -2.4041 -0.1830 -1.5729
   16MOL0     H 2185   8.512  12.595  10.223  1.0801 -1.5391  0.8449
   16MOL0     H 2186   8.474  12.481  10.463 -4.0049  2.0047 -0.0423
   16MOL0     H 2187   8.559  12.413  10.323 -1.0801 -3.0082 -0.1555
   16MOL0     H 2188   7.902  12.293   9.674 -0.9436  0.4049 -0.5094
   16MOL0     H 2189   7.821  12.075   9.582 -1.2594 -0.5429 -0.1922
   16MOL0     H 2190   7.821  11.745   9.385 -1.4513  2.1925  0.5547
   16MOL0     H 2191   7.783  11.525   9.265 -0.4557 -0.0596 -0.4214
   16MOL0     H 2192   6.515  10.546   8.548  0.6485  1.2700  0.4923
   16MOL0     H 2193   6.381  10.515   8.737  1.3328 -2.6406 -1.9336
   16MOL0     H 2194   6.248  10.614   9.090  2.0722  0.2095 -1.0738
   16MOL0     H 2195   6.142  10.713   9.275 -1.1588 -0.6718  0.2581
   16MOL0     H 2196   6.071  10.807   9.510  1.1389 -0.1365 -0.5260
   16MOL0     H 2197   6.003  10.649   9.479 -3.3435  4.4157 -1.2680
   16MOL0     H 2198   6.081  10.763   9.754 -0.4398 -2.4668  2.6518
   16MOL0     H 2199   5.988  10.623   9.748 -0.1440  0.3940  0.9266
   16MOL0     H 2200   5.855  10.805   9.809 -2.9933  0.3014 -1.0755
   16MOL0     H 2201   5.907  10.900   9.670  0.0245 -0.7638  0.5411
   16MOL0     H 2202   5.675  10.772   9.674 -0.7781  0.1125 -0.8449
   16MOL0     H 2203   5.762  10.630   9.627 -3.2883  0.1597  2.2527
   16MOL0     H 2204   5.771  10.836   9.267 -0.3009 -0.1958  0.1794
   16MOL0     H 2205   6.403  10.509   9.545 -0.2332  0.4671 -1.0014
   16MOL0     H 2206   6.628  10.385   9.324  0.9710 -1.3564 -0.5011
   16MOL0     H 2207   6.540  10.338   9.480  2.3727  3.6440  0.2457
   16MOL0     H 2208   6.511  10.265   9.315  0.5994  0.4767 -1.8545
   17MOL0     O 2209   8.432  11.233   8.734  0.5608  0.1737 -1.2407
   17MOL0     C 2210   8.456  11.335   8.672  0.1608  0.8049  0.3251
   17MOL0     O 2211   8.487  11.454   8.727  0.6126  0.7556 -0.6578
   17MOL0     C 2212   8.485  11.487   8.857  0.2598 -0.1390  0.0616
   17MOL0     C 2213   8.542  11.404   8.949 -0.2833 -0.3782 -0.1297
   17MOL0     C 2214   8.570  11.456   9.079 -0.0607  0.0160 -0.0182
   17MOL0     C 2215   8.539  11.589   9.112 -0.7824 -0.3675 -0.3703
   17MOL0     O 2216   8.554  11.650   9.238 -0.2304 -0.2117  0.2406
   17MOL0     C 2217   8.485  11.583   9.351  0.0081  0.5019  0.6261
   17MOL0     C 2218   8.561  11.626   9.478  0.7817  0.4274 -0.2063
   17MOL0     C 2219   8.706  11.585   9.468  0.1799  0.1216 -0.3708
   17MOL0     C 2220   8.784  11.624   9.603  0.4302  0.1725 -0.1127
   17MOL0     C 2221   8.941  11.616   9.576  1.1419 -0.0645 -0.2423
   17MOL0     C 2222   8.988  11.467   9.556  0.4850 -0.0666 -0.9323
   17MOL0     C 2223   9.131  11.465   9.501 -0.5097 -0.3769  0.1954
   17MOL0     C 2224   9.236  11.516   9.597 -0.0601  0.5578 -0.4374
   17MOL0     N 2225   9.264  11.424   9.707 -0.8407 -0.1059  0.3249
   17MOL0     C 2226   9.341  11.311   9.696  0.5074 -0.2334  0.0777
   17MOL0     C 2227   9.327  11.250   9.816 -0.0113  0.0709 -0.0770
   17MOL0     C 2228   9.375  11.108   9.842 -0.0309  0.0032  0.3112
   17MOL0     C 2229   9.320  11.040   9.964 -0.7768 -0.4908  0.8328
   17MOL0     C 2230   9.400  10.913   9.996  0.0498  0.1509 -0.6280
   17MOL0     C 2231   9.555  10.933  10.006 -0.2962  0.6703  0.1021
   17MOL0     O 2232   9.628  10.834  10.095  0.3151  0.3071  1.2086
   17MOL0     C 2233   9.763  10.822  10.077 -0.5305  0.3134 -0.2965
   17MOL0     C 2234   9.809  10.709  10.154 -0.2068 -0.2163  0.0086
   17MOL0     C 2235   9.949  10.685  10.171 -0.6702  0.2719 -0.7449
   17MOL0     C 2236   9.987  10.572  10.254 -0.0442  0.4913 -0.1659
   17MOL0     C 2237  10.045  10.765  10.100 -0.4574 -0.6692  0.1917
   17MOL0     C 2238  10.195  10.753  10.092 -0.6924 -0.3286  0.3445
   17MOL0     O 2239  10.267  10.684  10.184 -0.0017 -0.0504 -0.0067
   17MOL0     C 2240  10.401  10.686  10.181  0.9767 -0.4329  1.2162
   17MOL0     C 2241  10.476  10.768  10.261  0.6163 -0.8250 -0.2993
   17MOL0     C 2242  10.614  10.757  10.259  0.4219 -0.8731  0.2551
   17MOL0     C 2243  10.686  10.671  10.179 -0.1173  0.1635 -0.2525
   17MOL0     O 2244  10.826  10.671  10.186  1.0857 -0.5093 -0.1196
   17MOL0     C 2245  10.895  10.552  10.158 -0.0049  0.4219  0.3754
   17MOL0     C 2246  10.892  10.457  10.276 -0.5034 -0.2212 -0.4946
   17MOL0     C 2247  10.947  10.521  10.409  0.7245 -0.3262  0.7208
   17MOL0     C 2248  10.835  10.560  10.513 -0.1182  0.2498 -0.0939
   17MOL0     C 2249  10.887  10.622  10.643  0.5568 -0.0344  0.6459
   17MOL0     C 2250  10.819  10.578  10.776  0.6276 -0.3416  0.1628
   17MOL0     C 2251  10.879  10.648  10.898 -0.3891 -0.3326 -0.0823
   17MOL0     C 2252  10.849  10.587  11.027 -0.4318 -0.5675 -0.3415
   17MOL0    Cl 2253  10.689  10.643  11.087 -0.1079  0.0583  0.4035
   17MOL0     C 2254  10.602  10.586  10.096  0.0188 -0.5865 -0.5268
   17MOL0     C 2255  10.461  10.591  10.090  0.2734 -0.1292 -0.2060
   17MOL0     O 2256  10.242  10.789   9.989  1.2532 -0.1131  0.4086
   17MOL0     C 2257   9.991  10.876  10.026 -0.4266  0.3695  1.3590
   17MOL0     C 2258   9.853  10.908  10.023  0.5184 -0.1226  0.1095
   17MOL0     N 2259   9.265  11.338   9.906 -0.1885  1.2265  0.7984
   17MOL0     N 2260   9.218  11.437   9.836 -0.1084 -1.0941 -0.5575
   17MOL0     C 2261   8.483  11.667   9.017 -0.5428 -0.3373 -0.3509
   17MOL0     C 2262   8.452  11.618   8.888 -1.0102  0.1915 -0.4467
   17MOL0     C 2263   8.480  11.325   8.517 -0.2789  0.0804  0.1910
   17MOL0     C 2264   8.527  11.438   8.458 -0.3416 -1.1559 -0.5503
   17MOL0     C 2265   8.566  11.444   8.320 -0.0369  0.5537 -0.3042
   17MOL0     C 2266   8.551  11.336   8.243  0.6025  0.0269  0.4274
   17MOL0     O 2267   8.583  11.335   8.111 -0.5646  0.2302  0.3701
   17MOL0     C 2268   8.583  11.459   8.042  0.1936 -0.1789  0.9775
   17MOL0     C 2269   8.584  11.439   7.895  0.7944  0.0221 -0.2722
   17MOL0     C 2270   8.464  11.362   7.848  0.0015  0.9170 -0.2382
   17MOL0     C 2271   8.447  11.359   7.696  0.3526 -0.3483 -0.2441
   17MOL0     C 2272   8.312  11.311   7.658 -0.1149  0.1632  0.0348
   17MOL0     C 2273   8.199  11.272   7.627 -1.2702 -0.1900 -0.0849
   17MOL0     C 2274   8.496  11.213   8.295 -0.4794 -0.5063 -0.1836
   17MOL0     C 2275   8.465  11.204   8.437  0.2936 -0.0224 -0.2611
   17MOL0     C 2276   8.390  11.078   8.478  0.5308 -0.7211  0.4317
   17MOL0     H 2277   8.562  11.302   8.919  3.4147  0.6158 -1.4765
   17MOL0     H 2278   8.626  11.396   9.151  2.9447  1.5550 -0.9069
   17MOL0     H 2279   8.495  11.474   9.343  2.2869  0.6844  0.4820
   17MOL0     H 2280   8.379  11.609   9.356 -0.2757 -0.4400 -0.2511
   17MOL0     H 2281   8.553  11.733   9.499 -0.1438 -0.0060  1.8944
   17MOL0     H 2282   8.519  11.567   9.559  0.7895 -0.1508 -0.6147
   17MOL0     H 2283   8.712  11.480   9.437  0.2895  0.3775 -1.2412
   17MOL0     H 2284   8.751  11.644   9.387  2.8881 -1.3566 -0.0612
   17MOL0     H 2285   8.768  11.722   9.649  0.1318 -1.7447  4.3410
   17MOL0     H 2286   8.752  11.543   9.669 -3.3775  0.8969 -0.8693
   17MOL0     H 2287   8.990  11.664   9.662  0.4466  0.5342 -0.1649
   17MOL0     H 2288   8.970  11.671   9.486 -1.2126  1.0692 -0.3887
   17MOL0     H 2289   8.983  11.419   9.655 -0.5546  0.0948 -0.8990
   17MOL0     H 2290   8.931  11.415   9.479  3.0865 -1.7508 -1.8912
   17MOL0     H 2291   9.124  11.535   9.417  0.4774 -0.3870  0.0928
   17MOL0     H 2292   9.152  11.377   9.439 -1.2603  2.3051 -4.4195
   17MOL0     H 2293   9.327  11.528   9.538  0.6437 -2.5994 -0.1454
   17MOL0     H 2294   9.198  11.611   9.637 -2.7681 -1.0696  1.1680
   17MOL0     H 2295   9.384  11.274   9.604 -3.0338 -2.3809 -0.9186
   17MOL0     H 2296   9.484  11.118   9.847  0.3296 -2.8389 -0.3359
   17MOL0     H 2297   9.344  11.051   9.754  0.0076 -0.0736  0.3475
   17MOL0     H 2298   9.322  11.116  10.043 -0.4048 -0.9709  1.2976
   17MOL0     H 2299   9.215  11.012   9.947 -0.5660  0.1992 -2.0889
   17MOL0     H 2300   9.362  10.893  10.097 -0.4282  0.7387 -0.6904
   17MOL0     H 2301   9.373  10.834   9.925 -1.2718  0.3865 -0.4083
   17MOL0     H 2302   9.582  10.934   9.900 -2.5316  2.0161 -0.5322
   17MOL0     H 2303   9.561  11.034  10.050  0.5474 -0.1553  1.9861
   17MOL0     H 2304   9.739  10.649  10.213 -0.3799 -2.8764 -2.6883
   17MOL0     H 2305  10.073  10.524  10.206  0.5293  2.1180 -0.8162
   17MOL0     H 2306   9.913  10.491  10.251  2.2743 -1.8725  1.2938
   17MOL0     H 2307  10.010  10.603  10.356  1.9601 -0.1324 -0.3889
   17MOL0     H 2308  10.423  10.822  10.339  0.5105 -2.3799  0.7496
   17MOL0     H 2309  10.670  10.830  10.317 -2.2034  0.1277  1.6990
   17MOL0     H 2310  10.861  10.498  10.069  0.1032 -2.7113  2.0802
   17MOL0     H 2311  10.999  10.573  10.134 -0.3969 -0.2537 -2.2417
   17MOL0     H 2312  10.793  10.413  10.288 -2.4392  3.3515 -1.8859
   17MOL0     H 2313  10.962  10.376  10.254 -0.4665 -0.3123 -0.0488
   17MOL0     H 2314  11.013  10.604  10.382  0.6610 -0.0072  1.5212
   17MOL0     H 2315  11.006  10.445  10.461 -1.1509 -0.1916  3.2404
   17MOL0     H 2316  10.796  10.461  10.537  0.2391  0.0302 -0.3971
   17MOL0     H 2317  10.755  10.620  10.469 -0.0079 -1.0305 -2.1993
   17MOL0     H 2318  10.992  10.596  10.658  0.2225 -2.5393 -0.8702
   17MOL0     H 2319  10.874  10.730  10.628 -0.4907 -0.1219  0.8268
   17MOL0     H 2320  10.825  10.470  10.792 -2.6382 -0.9851 -1.9514
   17MOL0     H 2321  10.712  10.599  10.765  0.5322 -1.5470 -1.4614
   17MOL0     H 2322  10.860  10.756  10.896  0.7120 -0.1016 -3.2654
   17MOL0     H 2323  10.988  10.639  10.897 -0.2500  1.0422 -1.7574
   17MOL0     H 2324  10.925  10.621  11.098 -0.1352 -1.4049 -0.2496
   17MOL0     H 2325  10.857  10.478  11.028 -2.4774 -0.8307 -2.6579
   17MOL0     H 2326  10.672  10.532  10.033  3.1855  2.1658  0.3102
   17MOL0     H 2327  10.408  10.527  10.020 -0.6698  1.3414 -0.8752
   17MOL0     H 2328  10.058  10.942   9.971  1.2482 -0.8203  1.8770
   17MOL0     H 2329   9.823  11.003   9.979  0.0378 -0.8008 -1.0946
   17MOL0     H 2330   8.468  11.771   9.048  1.8509 -0.8894  3.3979
   17MOL0     H 2331   8.425  11.690   8.812 -0.6489  1.1079  0.2830
   17MOL0     H 2332   8.531  11.538   8.502  0.6227 -1.6073  0.4370
   17MOL0     H 2333   8.608  11.527   8.265 -0.9136  1.0409 -0.2582
   17MOL0     H 2334   8.505  11.527   8.077  1.0810  1.3891 -0.0046
   17MOL0     H 2335   8.670  11.518   8.073  1.1007 -0.7961 -0.2878
   17MOL0     H 2336   8.676  11.383   7.875  0.3042 -1.0887  0.5114
   17MOL0     H 2337   8.584  11.542   7.857  1.3637  0.9688  2.1124
   17MOL0     H 2338   8.472  11.260   7.887  2.1874  0.6505 -1.2287
   17MOL0     H 2339   8.368  11.406   7.876 -2.0005 -1.2517 -3.0738
   17MOL0     H 2340   8.526  11.300   7.649 -0.0416 -1.1805  0.1004
   17MOL0     H 2341   8.448  11.459   7.654 -0.0297 -1.0497 -2.0174
   17MOL0     H 2342   8.095  11.257   7.606 -1.0542 -2.1303  0.0376
   17MOL0     H 2343   8.473  11.124   8.237 -0.0626 -0.5566 -0.2739
   17MOL0     H 2344   8.458  11.034   8.553  1.9483 -0.3393 -0.5946
   17MOL0     H 2345   8.301  11.105   8.537  0.0449  0.9241 -0.9989
   17MOL0     H 2346   8.366  11.017   8.391  0.1858 -0.1953  0.1586
   18MOL0     O 2347   7.724   3.332   3.295 -0.4500 -0.2107  0.0658
   18MOL0     C 2348   7.705   3.370   3.410  0.7360 -0.7261  0.1760
   18MOL0     O 2349   7.587   3.341   3.484  0.0809 -0.0220 -0.9281
   18MOL0     C 2350   7.484   3.289   3.415  0.0588 -0.1223 -0.1069
   18MOL0     C 2351   7.490   3.162   3.363  0.2868 -0.3472 -0.2271
   18MOL0     C 2352   7.391   3.107   3.288 -0.5133 -0.0388  0.6283
   18MOL0     C 2353   7.276   3.176   3.263 -0.3508  1.3197 -0.2986
   18MOL0     O 2354   7.188   3.127   3.165 -0.4187  0.2240 -0.2523
   18MOL0     C 2355   7.050   3.163   3.174  0.3206 -0.3841 -0.0349
   18MOL0     C 2356   7.005   3.259   3.063  0.2703 -0.1274 -0.0373
   18MOL0     C 2357   6.854   3.231   3.029  0.1458 -0.6780 -0.2502
   18MOL0     C 2358   6.765   3.173   3.141  0.4396  0.2583 -0.8818
   18MOL0     C 2359   6.614   3.198   3.099 -0.7484 -0.4656  0.7307
   18MOL0     C 2360   6.571   3.347   3.115  0.8930 -0.0851  0.5653
   18MOL0     C 2361   6.424   3.375   3.129  0.1966 -0.0490  0.2091
   18MOL0     C 2362   6.352   3.300   3.254 -0.5055 -0.3255 -0.5076
   18MOL0     N 2363   6.212   3.354   3.255 -0.0660  0.0941 -0.0600
   18MOL0     C 2364   6.148   3.404   3.363  0.9191 -0.4278 -1.2558
   18MOL0     C 2365   6.021   3.437   3.332  0.2678  0.5557  0.3716
   18MOL0     C 2366   5.912   3.495   3.422  0.9337 -0.9737 -1.1708
   18MOL0     C 2367   5.939   3.497   3.572 -0.3953 -0.5176 -0.2516
   18MOL0     C 2368   5.821   3.537   3.652 -0.0612  0.3587 -0.2701
   18MOL0     C 2369   5.843   3.505   3.803 -0.0474 -0.1765 -0.3282
   18MOL0     O 2370   5.930   3.594   3.869 -0.3407  0.4148 -0.5161
   18MOL0     C 2371   5.904   3.732   3.880  0.0957  0.0625  0.0514
   18MOL0     C 2372   5.776   3.783   3.867  0.5905 -0.5824 -1.0710
   18MOL0     C 2373   5.763   3.922   3.886 -0.0589 -0.0976  1.2343
   18MOL0     C 2374   5.628   3.979   3.864  0.1245 -0.1201  0.5741
   18MOL0     C 2375   5.873   4.002   3.921  0.8156 -0.5231 -0.1634
   18MOL0     C 2376   5.862   4.151   3.952 -0.1073  0.2238  0.7818
   18MOL0     O 2377   5.748   4.216   3.908  0.1655  0.0992  0.6987
   18MOL0     C 2378   5.742   4.354   3.914  1.8157  0.4655  0.4792
   18MOL0     C 2379   5.839   4.443   3.933 -0.3262 -0.1009  0.2771
   18MOL0     C 2380   5.822   4.579   3.922 -0.4658 -0.1517 -0.4373
   18MOL0     C 2381   5.696   4.632   3.886 -0.1607  0.0248  0.5365
   18MOL0     O 2382   5.686   4.770   3.880  0.5921 -0.2016 -0.0468
   18MOL0     C 2383   5.563   4.832   3.820 -0.6690  0.0641 -0.2136
   18MOL0     C 2384   5.603   4.978   3.788  0.5428  0.3064 -0.2274
   18MOL0     C 2385   5.485   5.067   3.752  0.3270  0.0477  0.1523
   18MOL0     C 2386   5.526   5.214   3.740 -0.2697 -0.0956  0.2424
   18MOL0     C 2387   5.401   5.296   3.702 -0.5845  0.2025  0.0209
   18MOL0     C 2388   5.425   5.449   3.732  0.1817 -0.5102 -0.0745
   18MOL0     C 2389   5.297   5.521   3.731  0.1084 -0.1871  0.4076
   18MOL0     C 2390   5.258   5.531   3.584  0.5496  0.1466 -0.0164
   18MOL0    Cl 2391   5.116   5.639   3.570  0.1988 -0.7604 -0.2874
   18MOL0     C 2392   5.595   4.543   3.865  1.3090  0.2281  0.0449
   18MOL0     C 2393   5.607   4.401   3.878 -0.7701  0.2533 -0.3908
   18MOL0     O 2394   5.949   4.201   4.014 -0.3434 -0.1034 -0.2778
   18MOL0     C 2395   6.000   3.946   3.944  0.1259 -0.5390 -0.9823
   18MOL0     C 2396   6.016   3.812   3.906 -0.3071  0.9502 -0.6877
   18MOL0     N 2397   5.999   3.396   3.196  0.3709 -0.3620 -0.0218
   18MOL0     N 2398   6.114   3.345   3.154  0.1098 -0.2852 -0.3908
   18MOL0     C 2399   7.258   3.301   3.318 -0.4517  0.1967 -0.9777
   18MOL0     C 2400   7.362   3.362   3.391 -0.2565 -0.0735  0.2752
   18MOL0     C 2401   7.812   3.419   3.490  0.4098 -0.4577  0.0992
   18MOL0     C 2402   7.853   3.332   3.584 -0.0241  0.1235 -0.0019
   18MOL0     C 2403   7.967   3.363   3.661  0.8490  0.3789  0.4885
   18MOL0     C 2404   8.049   3.479   3.646  0.4753  0.5357 -0.2124
   18MOL0     O 2405   8.157   3.489   3.725  0.6430 -0.0889  0.2712
   18MOL0     C 2406   8.229   3.614   3.743  0.2916  0.4286 -0.6247
   18MOL0     C 2407   8.340   3.614   3.844 -0.3147 -0.0387 -0.9523
   18MOL0     C 2408   8.304   3.582   3.991  0.1028  0.3245  0.3606
   18MOL0     C 2409   8.412   3.621   4.084  0.1776  0.9940 -0.3680
   18MOL0     C 2410   8.371   3.666   4.213  0.3127 -0.4180 -0.6395
   18MOL0     C 2411   8.328   3.709   4.319 -0.0937  0.1986 -0.3230
   18MOL0     C 2412   7.998   3.570   3.548  0.2171 -0.5060 -0.0765
   18MOL0     C 2413   7.889   3.538   3.470 -0.4988 -0.1445  0.7221
   18MOL0     C 2414   7.832   3.629   3.367 -0.3976 -0.1195  1.1929
   18MOL0     H 2415   7.587   3.114   3.371 -0.2839 -1.7895 -1.4385
   18MOL0     H 2416   7.392   3.008   3.243 -1.7720  0.3986 -0.4408
   18MOL0     H 2417   7.008   3.204   3.266  1.4560  1.4050 -0.2776
   18MOL0     H 2418   7.006   3.064   3.158  0.2538 -0.3331 -0.1670
   18MOL0     H 2419   7.011   3.359   3.107  0.8670 -0.0639 -0.2535
   18MOL0     H 2420   7.068   3.241   2.976  2.1571 -1.4075  1.4971
   18MOL0     H 2421   6.810   3.327   3.002  0.3441 -0.5708 -0.1900
   18MOL0     H 2422   6.834   3.168   2.942 -1.5852 -0.7620  0.1609
   18MOL0     H 2423   6.778   3.065   3.155 -1.7070  0.0081 -0.5075
   18MOL0     H 2424   6.791   3.225   3.234  1.2754 -2.4550  0.5042
   18MOL0     H 2425   6.539   3.136   3.150 -2.3980  1.2547  0.5175
   18MOL0     H 2426   6.603   3.165   2.995 -0.1739  0.6139  0.3109
   18MOL0     H 2427   6.613   3.395   3.204 -2.8248 -0.4959  2.7761
   18MOL0     H 2428   6.600   3.393   3.019  2.5687 -2.9859 -0.4271
   18MOL0     H 2429   6.367   3.332   3.047 -0.6689 -0.3060  0.9258
   18MOL0     H 2430   6.399   3.481   3.136  0.4863 -0.0465  1.4680
   18MOL0     H 2431   6.359   3.193   3.234  0.6860 -0.0849 -1.5325
   18MOL0     H 2432   6.406   3.330   3.344  2.2646 -0.4149 -2.0384
   18MOL0     H 2433   6.186   3.431   3.461  2.9048  0.7372 -2.2839
   18MOL0     H 2434   5.819   3.445   3.395 -0.2295  0.3178  0.2335
   18MOL0     H 2435   5.886   3.597   3.392 -0.7837 -1.6289 -2.0295
   18MOL0     H 2436   5.977   3.400   3.607  4.9433  2.3859  3.4026
   18MOL0     H 2437   6.021   3.564   3.599  0.3679 -1.4908 -0.0755
   18MOL0     H 2438   5.788   3.641   3.640 -1.4546 -0.2342 -2.1995
   18MOL0     H 2439   5.738   3.476   3.616  0.5770 -0.1047 -0.9886
   18MOL0     H 2440   5.746   3.485   3.849 -0.0524  0.6483  0.0427
   18MOL0     H 2441   5.891   3.407   3.804  0.0450 -0.1301  0.1946
   18MOL0     H 2442   5.692   3.718   3.842 -0.2996  0.8946 -2.0571
   18MOL0     H 2443   5.590   4.031   3.952 -1.3559 -1.9279  1.0655
   18MOL0     H 2444   5.550   3.904   3.848  0.5653 -1.2531  3.2186
   18MOL0     H 2445   5.626   4.043   3.775 -4.0673 -0.2542  0.4031
   18MOL0     H 2446   5.944   4.423   3.952 -0.4461 -0.5469  0.4764
   18MOL0     H 2447   5.899   4.647   3.957  0.8294 -2.3352  1.1691
   18MOL0     H 2448   5.541   4.778   3.728  0.1960  1.8770 -1.5475
   18MOL0     H 2449   5.469   4.839   3.875  0.4364  4.1211  1.6048
   18MOL0     H 2450   5.650   5.020   3.878  1.5394 -1.1556 -0.0264
   18MOL0     H 2451   5.677   4.985   3.707  2.7647 -6.0569  0.6287
   18MOL0     H 2452   5.409   5.056   3.829  0.0018 -2.2795 -0.4303
   18MOL0     H 2453   5.432   5.027   3.665  1.2967 -1.9941  0.4424
   18MOL0     H 2454   5.596   5.227   3.657 -2.1086 -0.0523 -1.3842
   18MOL0     H 2455   5.575   5.243   3.833 -1.9429 -0.9442  1.4314
   18MOL0     H 2456   5.377   5.275   3.597 -0.5719 -0.0790  0.0721
   18MOL0     H 2457   5.317   5.264   3.765 -0.4518 -0.7900 -0.2800
   18MOL0     H 2458   5.504   5.486   3.666  1.8491 -3.2101  0.2321
   18MOL0     H 2459   5.467   5.446   3.834  1.9824  0.4828 -0.7349
   18MOL0     H 2460   5.309   5.619   3.778  0.8492 -0.0205 -0.0934
   18MOL0     H 2461   5.231   5.460   3.793  0.8416 -1.0226  0.4068
   18MOL0     H 2462   5.226   5.436   3.540 -1.6918  0.3884  0.9529
   18MOL0     H 2463   5.346   5.568   3.530  2.7735  0.0646  3.2697
   18MOL0     H 2464   5.495   4.584   3.856  0.6183 -1.7707 -3.9523
   18MOL0     H 2465   5.514   4.348   3.860 -1.6030  0.9500  1.5652
   18MOL0     H 2466   6.079   4.006   3.987 -1.3268  1.3556 -0.7954
   18MOL0     H 2467   6.117   3.775   3.919 -0.9616 -0.5236  0.4720
   18MOL0     H 2468   7.167   3.357   3.302 -0.3132  0.8808  0.4963
   18MOL0     H 2469   7.346   3.460   3.435  2.9368  0.9236 -0.5163
   18MOL0     H 2470   7.805   3.240   3.615  1.1881 -0.2517  0.8653
   18MOL0     H 2471   7.992   3.291   3.738  3.6005  0.0842 -0.5801
   18MOL0     H 2472   8.263   3.645   3.644 -2.5500  1.1114 -1.4782
   18MOL0     H 2473   8.153   3.686   3.773  0.2163  0.5100 -1.0030
   18MOL0     H 2474   8.387   3.713   3.843  0.8398 -0.5656 -0.4688
   18MOL0     H 2475   8.402   3.536   3.799  2.7613  1.2228  0.7511
   18MOL0     H 2476   8.213   3.633   4.022 -0.1055 -0.0582  0.3761
   18MOL0     H 2477   8.285   3.475   4.002 -0.2000  0.4866  1.5342
   18MOL0     H 2478   8.471   3.702   4.039  0.5221  0.0574 -1.6612
   18MOL0     H 2479   8.482   3.538   4.093 -0.1607  0.4485 -2.2502
   18MOL0     H 2480   8.304   3.744   4.417 -0.8456  0.1903 -0.4985
   18MOL0     H 2481   8.043   3.667   3.532  2.3316 -1.0930  1.7196
   18MOL0     H 2482   7.772   3.573   3.294 -2.5764  3.3461  0.0264
   18MOL0     H 2483   7.779   3.711   3.416  0.8498  1.6851 -0.3311
   18MOL0     H 2484   7.903   3.677   3.298 -0.2933  0.6177  1.7996
   19MOL0     O 2485   6.301   2.881   4.299 -0.3209  0.2713  0.3550
   19MOL0     C 2486   6.308   2.810   4.395  0.2849  0.2078 -0.2731
   19MOL0     O 2487   6.387   2.843   4.503  0.2990  0.0452 -0.1497
   19MOL0     C 2488   6.443   2.962   4.500 -0.0558  1.0251 -1.3395
   19MOL0     C 2489   6.553   2.994   4.426 -0.0073 -0.2733 -0.2484
   19MOL0     C 2490   6.617   3.118   4.430  0.6996 -0.2259  0.0618
   19MOL0     C 2491   6.560   3.223   4.510 -0.0440  0.5838  0.1028
   19MOL0     O 2492   6.600   3.348   4.529 -0.0560 -0.3390 -0.3942
   19MOL0     C 2493   6.711   3.396   4.453 -0.0262 -0.7253 -0.2732
   19MOL0     C 2494   6.755   3.538   4.505  0.1192  0.3740 -0.0387
   19MOL0     C 2495   6.778   3.562   4.661  0.6455 -1.1871  0.8236
   19MOL0     C 2496   6.919   3.524   4.700 -0.3751 -0.7558 -0.1383
   19MOL0     C 2497   7.021   3.641   4.678 -0.7785 -0.8041  0.2671
   19MOL0     C 2498   7.168   3.602   4.689  0.7308  0.4209 -1.1264
   19MOL0     C 2499   7.269   3.723   4.655  0.1982  0.0587  0.0244
   19MOL0     C 2500   7.390   3.668   4.574  0.8593  0.1571 -0.7007
   19MOL0     N 2501   7.483   3.777   4.548 -1.1146 -1.1747  0.1365
   19MOL0     C 2502   7.566   3.847   4.642 -0.2860 -0.2524  0.0325
   19MOL0     C 2503   7.587   3.961   4.572 -1.2260 -0.4492  0.6593
   19MOL0     C 2504   7.666   4.087   4.617  0.0736 -0.2897 -0.3102
   19MOL0     C 2505   7.700   4.101   4.765 -2.0757 -0.3956  0.7878
   19MOL0     C 2506   7.598   4.167   4.856 -0.0549 -0.3148 -0.2020
   19MOL0     C 2507   7.465   4.088   4.873 -1.0944 -1.0189  0.8045
   19MOL0     O 2508   7.492   3.981   4.956 -0.4156  0.1067 -0.6004
   19MOL0     C 2509   7.388   3.896   4.983  0.3456 -0.4607 -0.3063
   19MOL0     C 2510   7.254   3.940   4.987  0.0861  0.6455 -0.5589
   19MOL0     C 2511   7.150   3.858   5.026 -0.6986 -0.0466 -0.6215
   19MOL0     C 2512   7.009   3.923   5.044 -1.2320 -0.6446 -0.0374
   19MOL0     C 2513   7.174   3.714   5.038  0.2847  0.7395  0.5501
   19MOL0     C 2514   7.078   3.619   5.096 -0.4337 -0.1984  0.2895
   19MOL0     O 2515   7.138   3.538   5.192  0.5250  0.5037  0.6997
   19MOL0     C 2516   7.068   3.430   5.234 -0.6580 -0.6874 -0.0273
   19MOL0     C 2517   6.939   3.435   5.288 -0.8557  0.5467 -0.4972
   19MOL0     C 2518   6.890   3.321   5.349  0.9243  0.5346 -0.3060
   19MOL0     C 2519   6.959   3.200   5.340 -1.6164 -0.0701 -0.1382
   19MOL0     O 2520   6.907   3.088   5.394 -0.7721 -0.4434 -0.0936
   19MOL0     C 2521   7.000   2.987   5.441  0.5777  0.0924  0.0192
   19MOL0     C 2522   6.931   2.861   5.499 -0.2242 -0.1751 -0.2563
   19MOL0     C 2523   7.029   2.768   5.566  0.0215 -0.0588 -0.1999
   19MOL0     C 2524   6.977   2.749   5.715 -0.9675 -0.5857  0.7094
   19MOL0     C 2525   7.056   2.636   5.778 -0.0039  0.5791 -0.4938
   19MOL0     C 2526   7.199   2.674   5.830 -0.4533  0.4675  0.5545
   19MOL0     C 2527   7.263   2.544   5.875  0.1478  0.1040 -0.7630
   19MOL0     C 2528   7.372   2.577   5.982  1.2179 -0.2165 -0.5698
   19MOL0    Cl 2529   7.439   2.434   6.058  0.6594 -0.1007 -0.4052
   19MOL0     C 2530   7.084   3.202   5.279  0.0836  0.1045 -0.1899
   19MOL0     C 2531   7.143   3.312   5.225  0.1745  0.3339  0.3501
   19MOL0     O 2532   6.965   3.610   5.048  0.0836 -0.3155  0.1019
   19MOL0     C 2533   7.307   3.671   5.018 -0.8456 -0.3131 -0.2715
   19MOL0     C 2534   7.410   3.763   4.987  0.1970  0.6983 -0.3210
   19MOL0     N 2535   7.534   3.961   4.447 -0.2093 -0.3970  0.4033
   19MOL0     N 2536   7.463   3.851   4.438 -0.1640 -0.1193 -0.1806
   19MOL0     C 2537   6.433   3.189   4.572  0.2254  0.4192 -0.5720
   19MOL0     C 2538   6.375   3.061   4.563 -0.6962 -0.0566  0.2299
   19MOL0     C 2539   6.252   2.670   4.397 -0.2663  0.1680  0.7348
   19MOL0     C 2540   6.287   2.588   4.502 -0.5408 -0.1254 -0.6068
   19MOL0     C 2541   6.231   2.467   4.527 -0.2210  0.9249 -0.4856
   19MOL0     C 2542   6.146   2.407   4.432 -0.3042 -1.1031 -0.7593
   19MOL0     O 2543   6.107   2.278   4.448  0.1852  0.2024  0.9540
   19MOL0     C 2544   6.218   2.190   4.425  0.0549 -0.0887 -0.3189
   19MOL0     C 2545   6.158   2.050   4.395 -0.8654 -0.2458  0.4270
   19MOL0     C 2546   6.071   2.043   4.263 -0.5137 -0.0015 -1.1202
   19MOL0     C 2547   5.998   1.909   4.242  0.2774 -0.1973  0.6547
   19MOL0     C 2548   5.896   1.907   4.135  0.4806  0.4998 -0.7581
   19MOL0     C 2549   5.816   1.926   4.046 -0.2154 -0.6245 -1.2096
   19MOL0     C 2550   6.119   2.484   4.314 -0.2560 -0.0662 -1.2459
   19MOL0     C 2551   6.163   2.615   4.298 -0.6532 -0.0410 -0.5090
   19MOL0     C 2552   6.119   2.700   4.176 -0.1387 -0.1776 -0.8788
   19MOL0     H 2553   6.589   2.923   4.352 -0.7656  0.2703 -1.1622
   19MOL0     H 2554   6.696   3.142   4.359  0.2410  0.5450 -0.2106
   19MOL0     H 2555   6.694   3.405   4.345 -2.5467  1.3462  0.1764
   19MOL0     H 2556   6.797   3.331   4.468  1.2875  0.5466 -1.8230
   19MOL0     H 2557   6.852   3.560   4.458  1.7656 -2.2450  1.8683
   19MOL0     H 2558   6.682   3.605   4.458  0.2833  0.5253 -0.0830
   19MOL0     H 2559   6.764   3.667   4.690  3.3742 -0.3814 -0.4830
   19MOL0     H 2560   6.702   3.496   4.705  1.5276 -3.6529 -1.1036
   19MOL0     H 2561   6.919   3.501   4.807 -2.1325  0.8701  0.2615
   19MOL0     H 2562   6.956   3.432   4.655 -0.2249 -0.7074 -0.1142
   19MOL0     H 2563   6.990   3.707   4.760 -1.2230 -1.8490  0.9583
   19MOL0     H 2564   7.013   3.690   4.581  2.3924  0.2881  0.4432
   19MOL0     H 2565   7.177   3.567   4.792 -0.9093  2.6587 -0.1361
   19MOL0     H 2566   7.191   3.524   4.616  2.2118 -0.4270  0.1906
   19MOL0     H 2567   7.295   3.784   4.742 -3.5952 -2.5649  3.3909
   19MOL0     H 2568   7.210   3.783   4.587 -1.3249  0.2418  1.4338
   19MOL0     H 2569   7.440   3.596   4.639  1.3731  0.7054 -0.4766
   19MOL0     H 2570   7.355   3.609   4.490  0.0948  1.0672 -1.0457
   19MOL0     H 2571   7.569   3.827   4.749  4.0336 -0.4662  0.0624
   19MOL0     H 2572   7.627   4.181   4.577  0.4397  0.8829  1.9277
   19MOL0     H 2573   7.763   4.077   4.569  0.0799 -1.9158  0.0010
   19MOL0     H 2574   7.738   4.009   4.811 -1.6769  0.6682  2.6993
   19MOL0     H 2575   7.790   4.164   4.770 -1.9847 -0.4520 -0.0748
   19MOL0     H 2576   7.645   4.179   4.953  0.7233 -0.4064 -0.5600
   19MOL0     H 2577   7.565   4.265   4.818 -1.9446 -0.3652  1.1699
   19MOL0     H 2578   7.411   4.161   4.934 -1.6835 -1.9185  1.3753
   19MOL0     H 2579   7.421   4.066   4.775 -0.5335 -3.8693  1.1156
   19MOL0     H 2580   7.242   4.048   4.978  2.5112  0.8995 -1.2738
   19MOL0     H 2581   6.949   3.931   4.952  2.1773 -0.5682 -2.4709
   19MOL0     H 2582   7.012   4.024   5.086 -3.8893  0.2969 -1.8756
   19MOL0     H 2583   6.957   3.863   5.119  0.9548 -2.1281  0.4183
   19MOL0     H 2584   6.880   3.525   5.297 -0.7989  0.4406  1.0905
   19MOL0     H 2585   6.791   3.326   5.394  0.9616  0.9038 -0.2633
   19MOL0     H 2586   7.055   2.950   5.354  0.0361  0.5160 -0.5164
   19MOL0     H 2587   7.061   3.038   5.517  0.3652  0.5099 -0.0843
   19MOL0     H 2588   6.847   2.895   5.561 -0.1376  0.8742 -0.6943
   19MOL0     H 2589   6.889   2.803   5.417  1.0624 -0.7769 -0.5073
   19MOL0     H 2590   7.125   2.821   5.566  0.1962 -0.3487  1.1881
   19MOL0     H 2591   7.030   2.669   5.519  0.3112  0.3372 -1.0582
   19MOL0     H 2592   6.875   2.710   5.713 -1.3585 -0.0173  4.3785
   19MOL0     H 2593   6.982   2.836   5.780 -0.1230  0.7950 -1.0973
   19MOL0     H 2594   6.992   2.601   5.860  1.4404 -3.0063 -0.7316
   19MOL0     H 2595   7.055   2.548   5.714 -1.0246 -0.6961  1.1953
   19MOL0     H 2596   7.193   2.746   5.912  3.8244  1.3461  0.2845
   19MOL0     H 2597   7.265   2.717   5.755  0.5189  1.4491  1.9180
   19MOL0     H 2598   7.325   2.512   5.790  0.8887  1.3072 -0.6958
   19MOL0     H 2599   7.194   2.469   5.914  0.2740  0.7176  0.6802
   19MOL0     H 2600   7.318   2.640   6.053 -2.9671 -1.7664 -2.0744
   19MOL0     H 2601   7.458   2.626   5.936  3.4944 -2.7325  0.7326
   19MOL0     H 2602   7.138   3.109   5.267  1.6157  1.2213 -2.6147
   19MOL0     H 2603   7.236   3.292   5.174 -0.7743  0.5174 -1.5227
   19MOL0     H 2604   7.331   3.565   5.018 -0.4296 -0.2614  2.3045
   19MOL0     H 2605   7.509   3.730   4.957  0.4692  1.9826 -0.8949
   19MOL0     H 2606   6.382   3.269   4.625 -1.5651 -0.7885 -0.4082
   19MOL0     H 2607   6.285   3.041   4.621 -0.6609  2.9050  1.4987
   19MOL0     H 2608   6.352   2.633   4.576 -0.5090  2.3170 -2.0108
   19MOL0     H 2609   6.256   2.398   4.606 -0.4214 -0.5815 -1.6902
   19MOL0     H 2610   6.274   2.219   4.336  1.8912  0.8144  1.0578
   19MOL0     H 2611   6.284   2.194   4.512  2.0174  0.1052 -1.7677
   19MOL0     H 2612   6.095   2.022   4.480 -2.2833  0.1298 -0.4639
   19MOL0     H 2613   6.235   1.973   4.398 -0.7709 -0.1253  1.5416
   19MOL0     H 2614   6.005   2.130   4.265  1.6625  1.7334  1.1874
   19MOL0     H 2615   6.136   2.055   4.176 -0.7172  2.2016 -1.0158
   19MOL0     H 2616   5.942   1.879   4.331 -0.7535 -2.0522 -0.5537
   19MOL0     H 2617   6.066   1.827   4.219  0.6154  0.0386  0.8095
   19MOL0     H 2618   5.770   1.945   3.951  0.2983 -1.4340 -1.6339
   19MOL0     H 2619   6.065   2.444   4.229  1.0796 -1.2275 -1.5816
   19MOL0     H 2620   6.049   2.639   4.119  0.1745 -0.1948 -1.2525
   19MOL0     H 2621   6.049   2.774   4.214  0.6847 -0.4591  1.3060
   19MOL0     H 2622   6.199   2.750   4.121 -1.5228  0.4956 -2.3457
   20MOL0     O 2623   0.134   8.576   9.793 -0.0998  0.4884 -0.3797
   20MOL0     C 2624   0.220   8.596   9.705  0.0321  0.9194 -0.1881
   20MOL0     O 2625   0.282   8.501   9.633  0.3163 -0.3798 -0.2260
   20MOL0     C 2626   0.284   8.375   9.672 -0.1869  0.9076  0.1837
   20MOL0     C 2627   0.365   8.326   9.777  0.4114  0.5000 -1.0474
   20MOL0     C 2628   0.357   8.190   9.819 -0.3187 -0.1135 -0.5185
   20MOL0     C 2629   0.273   8.104   9.744 -0.7181 -0.2312 -1.0658
   20MOL0     O 2630   0.274   7.969   9.779  0.0380  0.4226 -0.0499
   20MOL0     C 2631   0.360   7.912   9.881  0.0794 -0.9043 -0.0140
   20MOL0     C 2632   0.335   7.759   9.873 -0.1285 -0.8245 -0.8723
   20MOL0     C 2633   0.410   7.689   9.992  0.3884  0.3605 -0.2019
   20MOL0     C 2634   0.370   7.546  10.033  0.2407  0.3307  0.5692
   20MOL0     C 2635   0.469   7.476  10.128  0.2511  0.0014  0.6780
   20MOL0     C 2636   0.469   7.317  10.120  0.5796  0.4465  0.2918
   20MOL0     C 2637   0.554   7.250  10.224 -0.2630 -0.6095 -0.6316
   20MOL0     C 2638   0.539   7.096  10.208  0.2878  0.2076 -0.4510
   20MOL0     N 2639   0.623   7.034  10.309  0.0610  0.0047  0.0434
   20MOL0     C 2640   0.758   7.007  10.309 -0.2815  0.7168  0.8899
   20MOL0     C 2641   0.777   6.950  10.425  0.0150 -0.2216 -0.4229
   20MOL0     C 2642   0.912   6.929  10.500  0.3499  0.0254  0.2166
   20MOL0     C 2643   0.923   6.944  10.658  1.2800  1.2235  0.5087
   20MOL0     C 2644   1.069   6.936  10.708 -0.2184 -0.2005 -0.1573
   20MOL0     C 2645   1.125   7.078  10.705 -1.4049 -0.3969  0.9354
   20MOL0     O 2646   1.260   7.077  10.663 -0.6962  0.1814  0.6723
   20MOL0     C 2647   1.363   7.060  10.753  0.7061 -0.2216 -0.6599
   20MOL0     C 2648   1.341   7.016  10.881  0.4733 -0.1526  0.1632
   20MOL0     C 2649   1.442   7.008  10.977 -0.2113 -0.2484 -1.1797
   20MOL0     C 2650   1.405   6.952  11.115 -0.2252 -0.9974 -1.2287
   20MOL0     C 2651   1.574   7.043  10.940  0.3015 -0.3047  0.1316
   20MOL0     C 2652   1.691   7.028  11.028  0.5895  0.0281 -0.7357
   20MOL0     O 2653   1.794   7.110  10.992 -0.4641  0.6766  0.7940
   20MOL0     C 2654   1.915   7.084  11.043  0.1624 -0.3326  1.3552
   20MOL0     C 2655   1.989   6.979  11.004 -0.4561 -1.0384  0.8030
   20MOL0     C 2656   2.115   6.955  11.069  0.5142 -0.0194  0.0114
   20MOL0     C 2657   2.173   7.052  11.144 -0.3217  0.2076 -0.7612
   20MOL0     O 2658   2.296   7.037  11.203 -0.0931  0.4330 -0.0167
   20MOL0     C 2659   2.391   6.937  11.151 -0.3770 -0.7659  0.8495
   20MOL0     C 2660   2.526   6.953  11.225  0.8667 -1.2000 -0.1728
   20MOL0     C 2661   2.635   6.852  11.184  0.3409 -1.3046  0.4053
   20MOL0     C 2662   2.706   6.900  11.060 -0.5015 -0.3613  0.4976
   20MOL0     C 2663   2.787   7.028  11.069 -0.5674 -0.0780  1.0745
   20MOL0     C 2664   2.882   7.034  11.188  0.1033  0.1791  0.3747
   20MOL0     C 2665   2.973   7.155  11.188 -1.2269 -0.5301  0.1299
   20MOL0     C 2666   3.089   7.165  11.290 -0.0758  0.1563 -0.0129
   20MOL0    Cl 2667   3.183   7.316  11.275  0.0647 -0.2011  0.2549
   20MOL0     C 2668   2.099   7.167  11.167 -0.1870  0.3802  0.4903
   20MOL0     C 2669   1.972   7.182  11.112 -0.0042 -0.2449  0.0307
   20MOL0     O 2670   1.687   6.951  11.126  0.1553 -0.2014  0.1262
   20MOL0     C 2671   1.593   7.091  10.814  0.9094 -0.9763  0.1433
   20MOL0     C 2672   1.493   7.097  10.721  0.1251  0.9842 -0.7869
   20MOL0     N 2673   0.664   6.927  10.497 -0.7264 -0.5791 -0.0343
   20MOL0     N 2674   0.566   6.979  10.417 -0.8603  0.1441 -0.4758
   20MOL0     C 2675   0.187   8.161   9.649 -0.0067  0.3257 -0.8421
   20MOL0     C 2676   0.195   8.287   9.607 -0.3733 -0.8645 -0.5696
   20MOL0     C 2677   0.273   8.730   9.664  0.0259 -0.0698 -0.7507
   20MOL0     C 2678   0.368   8.734   9.560  0.5261 -0.1734  0.1192
   20MOL0     C 2679   0.426   8.851   9.511  0.4411 -0.6688 -0.5619
   20MOL0     C 2680   0.394   8.973   9.583  0.3235 -0.1606 -0.6700
   20MOL0     O 2681   0.458   9.090   9.539  0.3030 -0.5382  0.4943
   20MOL0     C 2682   0.464   9.191   9.640  0.0722 -0.0664  0.7726
   20MOL0     C 2683   0.561   9.308   9.587  0.3170 -0.1550 -0.2793
   20MOL0     C 2684   0.512   9.450   9.607 -0.3596  0.2762 -0.4971
   20MOL0     C 2685   0.529   9.541   9.482  0.6336 -0.2427  0.1614
   20MOL0     C 2686   0.476   9.678   9.495  0.5662 -0.5206  0.2205
   20MOL0     C 2687   0.433   9.790   9.506 -0.0844  0.1967  0.5848
   20MOL0     C 2688   0.302   8.969   9.690  0.3490  0.0962 -0.0104
   20MOL0     C 2689   0.244   8.848   9.738 -0.8333 -1.1732 -0.2146
   20MOL0     C 2690   0.167   8.848   9.866 -0.1940  0.9124  0.1167
   20MOL0     H 2691   0.425   8.394   9.837  1.4501  2.0736 -3.6759
   20MOL0     H 2692   0.422   8.163   9.901  2.1452  0.0852 -2.2664
   20MOL0     H 2693   0.338   7.958   9.977 -1.2591 -0.2039 -0.6341
   20MOL0     H 2694   0.464   7.932   9.853  0.3714 -0.6859  1.1669
   20MOL0     H 2695   0.229   7.733   9.873 -0.3712  0.0576 -2.7685
   20MOL0     H 2696   0.378   7.730   9.777 -0.4333 -0.7331 -1.0371
   20MOL0     H 2697   0.516   7.700   9.966  0.4611  0.4989  0.1345
   20MOL0     H 2698   0.386   7.753  10.078 -1.8837 -0.1930 -0.3728
   20MOL0     H 2699   0.275   7.561  10.085 -0.7296 -1.4888 -0.5757
   20MOL0     H 2700   0.365   7.486   9.942 -0.3774 -0.5467  1.1662
   20MOL0     H 2701   0.437   7.503  10.229 -1.3782 -1.8245  0.7029
   20MOL0     H 2702   0.571   7.515  10.125 -0.4802  2.6940  4.1639
   20MOL0     H 2703   0.369   7.279  10.143  1.4181 -0.4755  2.7904
   20MOL0     H 2704   0.498   7.296  10.016  0.0229 -0.7465  0.3557
   20MOL0     H 2705   0.534   7.275  10.328  3.4594 -0.1856  0.1209
   20MOL0     H 2706   0.658   7.277  10.206 -0.5284 -1.1686 -3.4440
   20MOL0     H 2707   0.434   7.067  10.204  0.1895  0.5195 -0.0964
   20MOL0     H 2708   0.588   7.079  10.111  2.2444  0.0251  0.5330
   20MOL0     H 2709   0.833   7.027  10.233 -3.2530 -1.1708 -2.8670
   20MOL0     H 2710   0.988   6.994  10.456  1.3418 -0.0938  1.6920
   20MOL0     H 2711   0.951   6.828  10.482  2.9874  1.1203 -0.8189
   20MOL0     H 2712   0.880   7.039  10.691 -1.6464  0.3697 -0.4526
   20MOL0     H 2713   0.873   6.865  10.715 -0.7133  1.3413 -0.9601
   20MOL0     H 2714   1.079   6.913  10.814 -0.9998  3.5348  0.8771
   20MOL0     H 2715   1.123   6.860  10.651  3.2477  1.8914  0.0780
   20MOL0     H 2716   1.063   7.144  10.644  0.9686 -0.2203 -1.4528
   20MOL0     H 2717   1.120   7.114  10.808  0.4082 -3.7180  2.3572
   20MOL0     H 2718   1.240   6.997  10.917 -0.8939 -0.3384 -3.3288
   20MOL0     H 2719   1.471   6.868  11.138  0.5083 -0.1793 -0.2332
   20MOL0     H 2720   1.298   6.931  11.128 -1.3482  3.6823 -1.0082
   20MOL0     H 2721   1.424   7.038  11.181  2.3428 -0.5301 -2.4609
   20MOL0     H 2722   1.943   6.896  10.951  2.7750 -2.0952 -0.6071
   20MOL0     H 2723   2.167   6.864  11.042 -1.5879 -2.0813  2.3730
   20MOL0     H 2724   2.346   6.837  11.163 -1.1576 -1.0056 -2.7342
   20MOL0     H 2725   2.401   6.951  11.043 -0.5209  0.2910  0.9680
   20MOL0     H 2726   2.554   7.057  11.203  0.5189 -1.4383 -1.9116
   20MOL0     H 2727   2.521   6.933  11.332  1.4834 -2.0528 -0.2955
   20MOL0     H 2728   2.591   6.753  11.170  0.5532 -1.2439 -0.7342
   20MOL0     H 2729   2.706   6.852  11.267 -0.2203 -0.3837  0.9014
   20MOL0     H 2730   2.641   6.908  10.972 -2.3530 -0.9328  1.7396
   20MOL0     H 2731   2.781   6.823  11.045  0.4487  0.2272  1.9771
   20MOL0     H 2732   2.844   7.030  10.976  0.5148  0.4149  1.7288
   20MOL0     H 2733   2.723   7.118  11.068  3.7368  3.3064  0.4629
   20MOL0     H 2734   2.939   6.941  11.180 -0.6117 -0.3116  0.8143
   20MOL0     H 2735   2.817   7.026  11.276 -0.4068 -1.1914 -0.0970
   20MOL0     H 2736   2.914   7.245  11.210 -1.2409 -0.4550 -0.2072
   20MOL0     H 2737   3.024   7.165  11.092  1.8906 -2.2646  1.4751
   20MOL0     H 2738   3.155   7.079  11.272 -0.1301  0.3532 -1.2099
   20MOL0     H 2739   3.047   7.160  11.391  2.2949  0.3104  1.0522
   20MOL0     H 2740   2.142   7.246  11.227 -2.3367 -0.6836  3.6986
   20MOL0     H 2741   1.912   7.271  11.125 -1.6085 -0.7143 -3.1339
   20MOL0     H 2742   1.696   7.113  10.787  0.8363  2.1081  1.9160
   20MOL0     H 2743   1.519   7.144  10.627  1.7258  2.9221  0.5479
   20MOL0     H 2744   0.122   8.095   9.593 -1.0771  2.3161 -2.0740
   20MOL0     H 2745   0.127   8.324   9.531 -0.8409 -0.2484  0.1248
   20MOL0     H 2746   0.413   8.657   9.498  1.5209  0.8254 -0.4383
   20MOL0     H 2747   0.491   8.853   9.424  0.2662  0.1338 -0.6837
   20MOL0     H 2748   0.363   9.230   9.651  0.2430  0.2097  1.3823
   20MOL0     H 2749   0.504   9.151   9.734  1.5727  1.2007  0.7235
   20MOL0     H 2750   0.582   9.286   9.482  3.4623  2.2359 -0.2937
   20MOL0     H 2751   0.655   9.299   9.641 -0.4997  2.0205  1.6851
   20MOL0     H 2752   0.403   9.444   9.620 -0.1435 -1.8359  0.7369
   20MOL0     H 2753   0.563   9.488   9.696  2.2339 -2.0657 -0.8422
   20MOL0     H 2754   0.475   9.501   9.395  0.3339  0.2650  0.1096
   20MOL0     H 2755   0.635   9.557   9.459  0.7623  1.9205  1.9243
   20MOL0     H 2756   0.390   9.888   9.506  1.5563  0.9752  2.0222
   20MOL0     H 2757   0.273   9.057   9.745  2.0468  0.5191  0.2669
   20MOL0     H 2758   0.067   8.805   9.854 -0.1486  0.7588  0.2970
   20MOL0     H 2759   0.226   8.794   9.940  0.8040  1.6868 -0.0929
   20MOL0     H 2760   0.144   8.942   9.917 -0.9138  1.0064 -0.3521
   21MOL0     O 2761   3.271   9.449   9.870 -0.2082  0.2334 -0.1154
   21MOL0     C 2762   3.171   9.376   9.878 -0.6433  0.1844  0.4494
   21MOL0     O 2763   3.115   9.299   9.776 -0.5640 -0.3887  0.7951
   21MOL0     C 2764   3.148   9.317   9.648  0.6774 -1.0565  0.2737
   21MOL0     C 2765   3.159   9.447   9.585 -0.0516  0.3707  0.1207
   21MOL0     C 2766   3.194   9.460   9.445 -0.4281 -0.5187  0.5742
   21MOL0     C 2767   3.233   9.345   9.375  0.1231 -0.1505  0.4658
   21MOL0     O 2768   3.288   9.363   9.251  0.9232 -1.1158  0.0761
   21MOL0     C 2769   3.377   9.265   9.200 -0.5109  0.2731  0.3811
   21MOL0     C 2770   3.417   9.302   9.057 -0.3459  0.3487 -0.4577
   21MOL0     C 2771   3.469   9.452   9.042  0.1029  1.0526 -0.9364
   21MOL0     C 2772   3.412   9.511   8.923  0.1199  0.2849 -0.4908
   21MOL0     C 2773   3.449   9.658   8.896  0.0470 -0.2084  0.5837
   21MOL0     C 2774   3.464   9.757   9.012  0.1559  1.1980  0.1507
   21MOL0     C 2775   3.339   9.795   9.102 -0.4238  0.0705  0.3769
   21MOL0     C 2776   3.223   9.864   9.029  0.1991 -0.1596  0.4503
   21MOL0     N 2777   3.259   9.991   8.972  0.5125  0.0082 -0.2710
   21MOL0     C 2778   3.312  10.095   9.034 -0.4199 -1.2200 -0.2087
   21MOL0     C 2779   3.324  10.188   8.941 -0.9290  0.1804  0.2371
   21MOL0     C 2780   3.395  10.318   8.945 -0.1810  0.1673 -0.5408
   21MOL0     C 2781   3.541  10.298   8.980  0.1318 -0.1375  0.2401
   21MOL0     C 2782   3.615  10.431   9.029 -0.9390  0.3648  0.3861
   21MOL0     C 2783   3.602  10.439   9.174  0.9621 -0.9827 -0.5702
   21MOL0     O 2784   3.671  10.334   9.243 -0.1529  0.1005  0.1502
   21MOL0     C 2785   3.796  10.363   9.298  0.2983  0.1532 -0.1887
   21MOL0     C 2786   3.905  10.349   9.204  0.3056  0.3433  0.1219
   21MOL0     C 2787   4.036  10.354   9.247  0.6530 -0.3225  0.2918
   21MOL0     C 2788   4.130  10.316   9.141  0.7176 -0.7531  0.4401
   21MOL0     C 2789   4.059  10.398   9.378 -0.5007 -0.5335  0.2167
   21MOL0     C 2790   4.198  10.408   9.429  0.0464  0.8764 -0.0131
   21MOL0     O 2791   4.291  10.468   9.351 -0.1270 -0.2261 -0.5995
   21MOL0     C 2792   4.423  10.433   9.344  0.2345  0.2035 -1.0701
   21MOL0     C 2793   4.487  10.315   9.391  0.3415 -0.6976  0.8297
   21MOL0     C 2794   4.625  10.305   9.389 -0.8935 -0.7510 -0.2167
   21MOL0     C 2795   4.702  10.403   9.320 -0.0714 -0.3101 -0.0502
   21MOL0     O 2796   4.839  10.386   9.315  0.2443 -0.7580  0.3750
   21MOL0     C 2797   4.918  10.495   9.364 -0.0832 -0.2275 -0.2714
   21MOL0     C 2798   5.005  10.548   9.246 -0.6730  0.4555 -0.3722
   21MOL0     C 2799   5.097  10.672   9.281  0.3899  0.0191  0.6524
   21MOL0     C 2800   5.213  10.636   9.383 -0.1438  0.2081  0.9925
   21MOL0     C 2801   5.327  10.735   9.375  0.5443 -0.1657  0.2197
   21MOL0     C 2802   5.286  10.881   9.412  0.7848  0.4488  0.5436
   21MOL0     C 2803   5.410  10.964   9.426  0.1271 -1.1331  1.1127
   21MOL0     C 2804   5.459  10.988   9.286 -0.2706 -0.4838 -0.6312
   21MOL0    Cl 2805   5.579  11.128   9.291 -0.2111 -0.0979  0.2802
   21MOL0     C 2806   4.632  10.515   9.267  0.3199 -0.8829  0.2024
   21MOL0     C 2807   4.494  10.535   9.282 -0.1137  0.3197  0.0740
   21MOL0     O 2808   4.215  10.370   9.545 -1.1409 -0.3778  0.2423
   21MOL0     C 2809   3.953  10.414   9.470  0.2134 -0.3121  0.1345
   21MOL0     C 2810   3.821  10.393   9.429  0.2805 -0.7964  1.1274
   21MOL0     N 2811   3.266  10.150   8.826  0.4903  0.4514 -0.6405
   21MOL0     N 2812   3.234  10.028   8.847  0.2106 -0.1112  0.3690
   21MOL0     C 2813   3.217   9.218   9.434 -0.0708  0.3521 -0.7901
   21MOL0     C 2814   3.166   9.208   9.563 -0.2799 -0.3142 -0.4153
   21MOL0     C 2815   3.111   9.348  10.013 -0.4337 -0.4834  0.8366
   21MOL0     C 2816   2.980   9.312  10.016  1.2223  0.2854 -0.5866
   21MOL0     C 2817   2.924   9.279  10.135 -0.4036 -0.1280  0.3590
   21MOL0     C 2818   2.985   9.308  10.256  1.2424 -0.3614  0.5230
   21MOL0     O 2819   2.928   9.287  10.382  0.6887  1.0837  0.2857
   21MOL0     C 2820   2.793   9.325  10.410 -0.7894 -0.5526 -0.5762
   21MOL0     C 2821   2.805   9.470  10.481 -0.1109  0.6702 -0.3624
   21MOL0     C 2822   2.876   9.467  10.622 -0.7879  0.3902  0.0091
   21MOL0     C 2823   2.792   9.544  10.718 -0.0758  0.8080 -0.8381
   21MOL0     C 2824   2.759   9.686  10.686  0.6796  1.0073  0.1925
   21MOL0     C 2825   2.742   9.805  10.685 -1.5338  0.5135  0.4048
   21MOL0     C 2826   3.119   9.350  10.256 -0.2121  0.2693 -0.7136
   21MOL0     C 2827   3.184   9.369  10.133  0.4622  0.9576  0.2366
   21MOL0     C 2828   3.333   9.403  10.140  0.3956  0.2909  0.3184
   21MOL0     H 2829   3.151   9.534   9.649  1.0122 -0.1041  0.9237
   21MOL0     H 2830   3.191   9.562   9.409  0.1358  0.7626  3.8463
   21MOL0     H 2831   3.326   9.168   9.195 -1.7881  0.8548  1.4485
   21MOL0     H 2832   3.470   9.248   9.256 -0.2789 -4.9677 -1.0655
   21MOL0     H 2833   3.504   9.240   9.031 -1.0927 -1.9990  2.2063
   21MOL0     H 2834   3.331   9.276   8.994 -1.9800 -3.0962  2.7984
   21MOL0     H 2835   3.457   9.509   9.134  0.0317  0.3335 -0.4856
   21MOL0     H 2836   3.577   9.444   9.026  0.5244  2.5302  0.9355
   21MOL0     H 2837   3.442   9.451   8.837 -1.1903 -2.0506  0.5615
   21MOL0     H 2838   3.303   9.505   8.931 -0.1202 -1.2459 -3.4583
   21MOL0     H 2839   3.390   9.696   8.812 -0.2512 -0.0041  0.8857
   21MOL0     H 2840   3.552   9.661   8.860  1.7311 -0.5149  4.7501
   21MOL0     H 2841   3.548   9.730   9.077 -0.3571  0.0445  0.3674
   21MOL0     H 2842   3.491   9.849   8.961  3.7422  0.6454  0.8035
   21MOL0     H 2843   3.376   9.860   9.182  1.4686 -0.4350 -0.0246
   21MOL0     H 2844   3.307   9.709   9.162  1.6713  0.8325  2.8027
   21MOL0     H 2845   3.173   9.799   8.956 -0.8046  0.8290  0.2269
   21MOL0     H 2846   3.150   9.880   9.109 -2.2296 -1.5091 -1.3683
   21MOL0     H 2847   3.339  10.099   9.139 -0.9721 -1.6051 -0.0517
   21MOL0     H 2848   3.354  10.392   9.014  0.5030  1.6909 -1.7094
   21MOL0     H 2849   3.391  10.356   8.843  1.5947 -1.7475 -1.4256
   21MOL0     H 2850   3.557  10.221   9.057 -2.1041 -0.1182  0.7700
   21MOL0     H 2851   3.591  10.259   8.890  1.0915 -1.8389  1.4532
   21MOL0     H 2852   3.722  10.428   9.008 -1.0461 -2.8598 -0.2625
   21MOL0     H 2853   3.564  10.520   8.989 -0.9322  1.7571  3.2226
   21MOL0     H 2854   3.639  10.535   9.210 -1.5638  0.8611 -2.5184
   21MOL0     H 2855   3.499  10.431   9.209  1.7629 -2.9845  1.5587
   21MOL0     H 2856   3.881  10.306   9.108  0.5208 -2.4208  1.2249
   21MOL0     H 2857   4.117  10.386   9.058 -1.4103 -2.1706 -0.5303
   21MOL0     H 2858   4.113  10.214   9.105  1.7031 -0.6613 -0.3344
   21MOL0     H 2859   4.232  10.316   9.179  1.1099  0.3054 -0.5509
   21MOL0     H 2860   4.431  10.237   9.441 -0.5696 -0.9925 -0.5832
   21MOL0     H 2861   4.678  10.223   9.437 -2.4219 -2.2172 -0.9088
   21MOL0     H 2862   4.853  10.576   9.399 -2.1513 -1.2564 -1.5468
   21MOL0     H 2863   4.980  10.480   9.453  1.2716  1.4535 -0.8738
   21MOL0     H 2864   5.079  10.475   9.213  0.4217  2.5061 -2.8642
   21MOL0     H 2865   4.945  10.565   9.156  0.4909  0.5110 -1.1679
   21MOL0     H 2866   5.029  10.749   9.320 -0.3228 -1.0015  1.4982
   21MOL0     H 2867   5.142  10.697   9.185 -1.2594 -0.6549 -0.3469
   21MOL0     H 2868   5.260  10.541   9.357  1.6588  1.9346 -2.8010
   21MOL0     H 2869   5.168  10.630   9.483 -0.8520  3.1463  0.9336
   21MOL0     H 2870   5.404  10.706   9.446  0.9231  1.6749  0.6292
   21MOL0     H 2871   5.374  10.736   9.276  1.2364  0.0313  0.5415
   21MOL0     H 2872   5.227  10.889   9.504 -0.6208  3.4078 -0.4570
   21MOL0     H 2873   5.220  10.919   9.332 -0.6906 -1.6022  0.7029
   21MOL0     H 2874   5.483  10.903   9.481  1.0810 -2.0254 -1.0143
   21MOL0     H 2875   5.383  11.056   9.479 -0.3420  1.4429 -3.1034
   21MOL0     H 2876   5.379  11.020   9.218  0.9783  0.7435 -1.5898
   21MOL0     H 2877   5.507  10.901   9.241  1.2668  0.2984 -0.5621
   21MOL0     H 2878   4.688  10.579   9.199  1.4153 -2.2761 -0.2594
   21MOL0     H 2879   4.447  10.628   9.251 -0.3828  0.5760  1.2334
   21MOL0     H 2880   3.974  10.463   9.565 -0.7238  1.1823 -0.3945
   21MOL0     H 2881   3.734  10.421   9.488 -1.6896  1.8395 -2.5601
   21MOL0     H 2882   3.241   9.129   9.377  1.6672  0.1882  0.1332
   21MOL0     H 2883   3.150   9.112   9.612  2.5315  0.1834  1.7442
   21MOL0     H 2884   2.920   9.295   9.928  0.4170 -1.5955  0.2578
   21MOL0     H 2885   2.821   9.246  10.131  0.4323 -3.0031  0.2370
   21MOL0     H 2886   2.721   9.326  10.328 -3.0059 -4.0170  1.0895
   21MOL0     H 2887   2.743   9.257  10.480  0.3576 -0.3828  0.4589
   21MOL0     H 2888   2.699   9.498  10.482 -0.1937  0.5498 -2.1567
   21MOL0     H 2889   2.856   9.534  10.409  1.1440  0.0720 -0.0217
   21MOL0     H 2890   2.878   9.364  10.658 -1.0920 -0.4458 -2.2470
   21MOL0     H 2891   2.976   9.511  10.618 -0.2708 -0.7813 -0.3402
   21MOL0     H 2892   2.845   9.543  10.813 -2.6185 -0.5434  0.6927
   21MOL0     H 2893   2.700   9.485  10.732  1.4540 -1.5371 -0.0287
   21MOL0     H 2894   2.731   9.911  10.683 -2.4650  0.4283  0.3614
   21MOL0     H 2895   3.170   9.368  10.350  2.4534 -1.1914 -1.7997
   21MOL0     H 2896   3.347   9.404  10.249  0.1610  1.9696  0.3696
   21MOL0     H 2897   3.384   9.321  10.089 -1.1212  0.0856 -0.9234
   21MOL0     H 2898   3.368   9.504  10.115  0.0775  0.7583  1.6565
   22MOL0     O 2899   1.078   2.400   2.710 -0.0218  1.2029 -0.1028
   22MOL0     C 2900   0.978   2.448   2.668  0.4047 -0.2454 -0.0512
   22MOL0     O 2901   0.964   2.479   2.528  0.6861  0.1959 -0.2373
   22MOL0     C 2902   1.066   2.445   2.439 -0.0122 -1.2765 -0.6021
   22MOL0     C 2903   1.126   2.315   2.432 -0.9426  0.7808  1.1913
   22MOL0     C 2904   1.217   2.295   2.318  0.2318  0.5591  0.0739
   22MOL0     C 2905   1.239   2.388   2.221 -0.7733 -0.2990 -0.3224
   22MOL0     O 2906   1.311   2.347   2.112 -0.0456  0.1692  0.6187
   22MOL0     C 2907   1.378   2.443   2.023  0.0174  0.0381 -0.4022
   22MOL0     C 2908   1.289   2.478   1.897  0.6730 -0.1903 -0.0132
   22MOL0     C 2909   1.338   2.582   1.804  0.1233  0.2942 -1.0868
   22MOL0     C 2910   1.493   2.567   1.774  0.8826 -0.1703 -0.0432
   22MOL0     C 2911   1.553   2.689   1.703 -1.3130  0.7850 -0.4492
   22MOL0     C 2912   1.703   2.681   1.666 -0.1434 -0.3012 -0.7224
   22MOL0     C 2913   1.733   2.782   1.547  0.5926  0.8694  0.6906
   22MOL0     C 2914   1.887   2.801   1.538  0.4749  0.3251  0.3532
   22MOL0     N 2915   1.948   2.862   1.421  0.6579 -0.0695 -0.1553
   22MOL0     C 2916   2.082   2.856   1.406 -0.1335 -0.6368  0.5092
   22MOL0     C 2917   2.115   2.938   1.305  0.4910  0.4918 -0.3503
   22MOL0     C 2918   2.249   2.987   1.266 -0.2493 -0.0872 -0.3428
   22MOL0     C 2919   2.268   3.008   1.113  0.1020  0.1962 -0.0938
   22MOL0     C 2920   2.381   3.100   1.091 -0.3119  0.1084 -0.2626
   22MOL0     C 2921   2.424   3.098   0.941 -1.2331 -0.4850 -0.4979
   22MOL0     O 2922   2.485   2.972   0.897  0.6314 -0.4304  0.0135
   22MOL0     C 2923   2.425   2.903   0.792  0.5024 -0.6258  0.4053
   22MOL0     C 2924   2.492   2.801   0.731 -0.5491  0.4787 -0.6275
   22MOL0     C 2925   2.437   2.702   0.651  0.3206 -0.6199 -1.4136
   22MOL0     C 2926   2.529   2.596   0.596 -0.3855 -0.1968 -0.7850
   22MOL0     C 2927   2.296   2.714   0.620  0.4019  0.6184  0.3556
   22MOL0     C 2928   2.226   2.627   0.522 -0.3125  0.0145  0.5314
   22MOL0     O 2929   2.123   2.683   0.447 -0.4120  1.0213 -0.7226
   22MOL0     C 2930   2.042   2.587   0.397  0.1334 -0.3275 -0.7517
   22MOL0     C 2931   1.935   2.549   0.480 -0.2289 -0.0795  0.5654
   22MOL0     C 2932   1.856   2.452   0.430  0.4990 -0.6389  0.1168
   22MOL0     C 2933   1.867   2.396   0.297 -0.2802  0.4008  0.6520
   22MOL0     O 2934   1.776   2.307   0.243 -0.1844  0.2286 -1.0786
   22MOL0     C 2935   1.651   2.279   0.311  0.0052  0.4809  0.6329
   22MOL0     C 2936   1.547   2.238   0.207 -0.1570 -0.5548 -0.1202
   22MOL0     C 2937   1.589   2.108   0.135  0.2461  1.0469 -0.6406
   22MOL0     C 2938   1.588   1.980   0.217 -0.4253 -0.2450  0.0307
   22MOL0     C 2939   1.461   1.938   0.289 -0.1019  0.6121  0.6993
   22MOL0     C 2940   1.358   1.894   0.188  0.4111 -0.8672 -0.0635
   22MOL0     C 2941   1.384   1.776   0.091 -0.3540  0.1432  0.6387
   22MOL0     C 2942   1.432   1.646   0.155 -0.1503  0.0869  0.6430
   22MOL0    Cl 2943   1.384   1.611   0.323 -0.2489  0.1979  0.4315
   22MOL0     C 2944   1.976   2.436   0.214  0.2315 -0.3998  0.7973
   22MOL0     C 2945   2.055   2.536   0.268 -0.0274  0.0104  0.6051
   22MOL0     O 2946   2.259   2.510   0.515  0.4348 -0.2354 -0.3324
   22MOL0     C 2947   2.227   2.820   0.670  0.2409 -0.1473  0.6516
   22MOL0     C 2948   2.288   2.917   0.753  0.6500  0.4463  0.2552
   22MOL0     N 2949   2.001   3.007   1.279 -0.0164  0.7571  0.3473
   22MOL0     N 2950   1.900   2.965   1.349  1.2249 -0.4586  0.2169
   22MOL0     C 2951   1.175   2.512   2.232 -0.2192 -0.0234 -0.3329
   22MOL0     C 2952   1.098   2.546   2.343 -0.3607 -0.2155  0.7146
   22MOL0     C 2953   0.875   2.502   2.767  0.5189  0.4536  0.0244
   22MOL0     C 2954   0.908   2.512   2.901 -0.2954 -0.6476 -0.0159
   22MOL0     C 2955   0.819   2.559   2.999  0.4183 -0.1572 -0.5967
   22MOL0     C 2956   0.696   2.617   2.963 -0.2211 -0.3765  0.4857
   22MOL0     O 2957   0.601   2.654   3.059  0.0144 -0.5005 -0.3793
   22MOL0     C 2958   0.467   2.683   3.011  0.3192  0.1435 -0.7586
   22MOL0     C 2959   0.378   2.697   3.135 -0.4926 -0.3640 -0.9624
   22MOL0     C 2960   0.351   2.551   3.199  0.7894  0.3500  0.2477
   22MOL0     C 2961   0.297   2.549   3.343 -0.4401 -1.2626  0.1969
   22MOL0     C 2962   0.257   2.419   3.399 -0.9302  0.0901  0.3594
   22MOL0     C 2963   0.209   2.323   3.450  0.6728  0.4886  0.8006
   22MOL0     C 2964   0.661   2.596   2.825  0.0246 -0.7372 -0.5640
   22MOL0     C 2965   0.750   2.545   2.732  0.1308  0.7502 -0.7902
   22MOL0     C 2966   0.699   2.514   2.587  0.1108 -0.2370 -0.0001
   22MOL0     H 2967   1.092   2.239   2.501 -2.2917 -0.9372 -1.1825
   22MOL0     H 2968   1.253   2.195   2.294 -1.0035 -0.6555  2.8706
   22MOL0     H 2969   1.472   2.402   1.984 -0.1620  1.5989 -2.7225
   22MOL0     H 2970   1.399   2.536   2.078 -0.2312 -0.0274 -0.1967
   22MOL0     H 2971   1.268   2.386   1.841 -1.0956  0.0871  0.1202
   22MOL0     H 2972   1.192   2.519   1.929  0.2282 -0.7666 -0.5896
   22MOL0     H 2973   1.278   2.575   1.713 -2.6999 -0.0835  0.6612
   22MOL0     H 2974   1.325   2.684   1.842 -0.1332  1.4932 -4.1319
   22MOL0     H 2975   1.530   2.557   1.877  1.7651  1.8987 -0.1108
   22MOL0     H 2976   1.506   2.474   1.716 -1.4097 -0.3747 -0.3176
   22MOL0     H 2977   1.538   2.767   1.778  2.3159 -1.4552  3.0013
   22MOL0     H 2978   1.481   2.699   1.621 -1.3867 -1.1161 -0.6714
   22MOL0     H 2979   1.756   2.710   1.757  0.8602  1.7478 -1.8846
   22MOL0     H 2980   1.726   2.579   1.636  0.0761 -0.1917 -0.9307
   22MOL0     H 2981   1.692   2.883   1.557  0.6313  0.7440  2.3499
   22MOL0     H 2982   1.699   2.725   1.460  0.6619  1.8464  0.0051
   22MOL0     H 2983   1.921   2.851   1.629 -2.3763  1.6468  0.7874
   22MOL0     H 2984   1.929   2.701   1.551 -1.0568 -0.1328  2.2651
   22MOL0     H 2985   2.154   2.798   1.464 -0.7890 -0.1431  1.8580
   22MOL0     H 2986   2.316   2.908   1.302  2.5867  1.4795 -1.8385
   22MOL0     H 2987   2.281   3.078   1.318  0.6669 -1.7816  2.2881
   22MOL0     H 2988   2.294   2.913   1.064  2.4538  1.3168 -1.1500
   22MOL0     H 2989   2.179   3.053   1.067  0.2009 -3.0637 -4.0683
   22MOL0     H 2990   2.352   3.197   1.131 -1.9763 -1.1756  1.8883
   22MOL0     H 2991   2.467   3.066   1.149 -0.7349 -1.9151 -0.7392
   22MOL0     H 2992   2.337   3.129   0.882 -0.1539 -0.6716 -2.2445
   22MOL0     H 2993   2.488   3.186   0.947 -0.2091 -1.2166 -0.3520
   22MOL0     H 2994   2.600   2.801   0.740 -0.2445  1.4208 -3.4168
   22MOL0     H 2995   2.518   2.506   0.657  2.4203  0.8809  1.5285
   22MOL0     H 2996   2.633   2.619   0.621  0.1047 -1.5076 -1.4991
   22MOL0     H 2997   2.513   2.570   0.491  0.0492 -1.4344 -0.5692
   22MOL0     H 2998   1.917   2.583   0.581  2.5942 -0.1936  1.1792
   22MOL0     H 2999   1.775   2.419   0.495 -0.0692  2.1965  0.9881
   22MOL0     H 3000   1.660   2.200   0.386 -2.5450 -1.2560 -0.7246
   22MOL0     H 3001   1.613   2.375   0.347 -2.1348 -0.0350 -0.1238
   22MOL0     H 3002   1.450   2.231   0.258 -0.5133 -0.8591 -0.8369
   22MOL0     H 3003   1.545   2.315   0.130  1.0253 -0.5709 -0.1884
   22MOL0     H 3004   1.692   2.122   0.104  1.1426 -2.0446  0.5763
   22MOL0     H 3005   1.526   2.090   0.047  2.3891  0.3903 -2.1147
   22MOL0     H 3006   1.661   1.975   0.298 -1.2273 -2.8494  0.6592
   22MOL0     H 3007   1.616   1.901   0.147 -0.1767 -0.8458  0.7981
   22MOL0     H 3008   1.496   1.852   0.346 -0.8863 -0.1523  0.0563
   22MOL0     H 3009   1.425   2.016   0.356 -0.9474  0.3065  0.6142
   22MOL0     H 3010   1.339   1.981   0.123 -0.3701  0.1194  1.4268
   22MOL0     H 3011   1.268   1.858   0.238  0.8098 -1.7389  0.0337
   22MOL0     H 3012   1.449   1.798   0.006 -3.3555 -0.5327 -2.0011
   22MOL0     H 3013   1.288   1.754   0.044  1.0390  0.1812 -2.4908
   22MOL0     H 3014   1.541   1.648   0.151  0.0310 -2.5455  1.9959
   22MOL0     H 3015   1.388   1.564   0.097  1.3475 -0.4886  0.2815
   22MOL0     H 3016   2.005   2.399   0.116 -0.6131  2.1543 -0.5137
   22MOL0     H 3017   2.139   2.568   0.207  1.0714 -4.3155 -0.5069
   22MOL0     H 3018   2.130   2.845   0.630  0.8797  2.5891  0.6092
   22MOL0     H 3019   2.221   2.986   0.804  0.8935  0.5992  0.3748
   22MOL0     H 3020   1.196   2.590   2.159  1.5443 -1.6294 -1.6575
   22MOL0     H 3021   1.064   2.645   2.370  0.1410  0.1820 -0.0816
   22MOL0     H 3022   1.008   2.477   2.923 -0.5588  0.3386  3.2329
   22MOL0     H 3023   0.853   2.563   3.102  1.7752 -0.4712 -1.0098
   22MOL0     H 3024   0.464   2.779   2.959  0.6342  0.2901 -0.5112
   22MOL0     H 3025   0.424   2.599   2.956 -1.1262 -2.0875  3.3398
   22MOL0     H 3026   0.281   2.733   3.100  0.0067 -1.5074 -3.7647
   22MOL0     H 3027   0.434   2.758   3.207 -1.3141 -2.3098  1.4966
   22MOL0     H 3028   0.274   2.517   3.130  0.9175 -1.7829  1.0863
   22MOL0     H 3029   0.443   2.491   3.192  2.7171  3.2831 -1.8516
   22MOL0     H 3030   0.227   2.631   3.359  1.8466  0.8253  0.1582
   22MOL0     H 3031   0.376   2.575   3.414 -2.5600  1.4898  1.7387
   22MOL0     H 3032   0.179   2.230   3.492 -1.9979  1.7401  1.8627
   22MOL0     H 3033   0.569   2.630   2.780 -0.0682 -1.2864 -0.7967
   22MOL0     H 3034   0.696   2.407   2.564 -1.3445 -0.4127  0.8516
   22MOL0     H 3035   0.594   2.546   2.581  0.7822  2.0415 -0.3502
   22MOL0     H 3036   0.746   2.575   2.510 -2.6320 -1.2525 -2.7108
   23MOL0     O 3037   8.917   6.464   0.444 -0.1862  0.3586 -0.0365
   23MOL0     C 3038   8.996   6.523   0.518  0.8284  0.2281 -1.0214
   23MOL0     O 3039   8.984   6.656   0.551  0.3693  0.5517 -0.2972
   23MOL0     C 3040   8.874   6.712   0.497  0.2591 -0.1336 -0.7217
   23MOL0     C 3041   8.772   6.742   0.578 -0.0983  0.8090  0.7105
   23MOL0     C 3042   8.684   6.837   0.536 -0.5530  0.1152 -0.4973
   23MOL0     C 3043   8.675   6.879   0.404  0.4459  0.1092 -0.2968
   23MOL0     O 3044   8.570   6.961   0.369 -0.1569 -0.3343 -0.0813
   23MOL0     C 3045   8.594   7.037   0.250 -0.5172  0.3647  0.9221
   23MOL0     C 3046   8.488   7.140   0.225 -0.2380  0.5972 -0.0578
   23MOL0     C 3047   8.497   7.198   0.088 -0.1600 -0.2042 -0.0356
   23MOL0     C 3048   8.392   7.307   0.073  0.1374 -0.6457 -0.0588
   23MOL0     C 3049   8.397   7.388  -0.060  0.8653  0.3880  0.5795
   23MOL0     C 3050   8.353   7.300  -0.183 -0.7488  0.1940 -0.2259
   23MOL0     C 3051   8.341   7.371  -0.321 -0.1331  0.2291 -0.8226
   23MOL0     C 3052   8.235   7.299  -0.416  0.1529 -0.4980  0.3585
   23MOL0     N 3053   8.250   7.368  -0.549 -0.8116  0.4101 -0.7991
   23MOL0     C 3054   8.249   7.315  -0.680  0.6246 -0.2313  0.2547
   23MOL0     C 3055   8.285   7.424  -0.763 -0.2865 -0.3972  0.0242
   23MOL0     C 3056   8.289   7.428  -0.917 -0.7412  0.2069  0.3362
   23MOL0     C 3057   8.359   7.312  -0.985  0.2920  0.2251 -0.1737
   23MOL0     C 3058   8.260   7.194  -1.008  0.4928  0.3412  0.1222
   23MOL0     C 3059   8.333   7.075  -1.073 -0.6806 -0.3011 -0.3760
   23MOL0     O 3060   8.241   6.977  -1.116  0.4103 -0.2151  0.5104
   23MOL0     C 3061   8.293   6.857  -1.162 -0.8846 -0.3160 -0.8017
   23MOL0     C 3062   8.201   6.755  -1.205  0.2648  0.0462  0.9326
   23MOL0     C 3063   8.252   6.633  -1.257 -0.2731 -0.0544  0.0165
   23MOL0     C 3064   8.143   6.556  -1.327  0.5361  1.3149 -0.4065
   23MOL0     C 3065   8.388   6.606  -1.256 -0.4284 -0.5331  0.5089
   23MOL0     C 3066   8.455   6.484  -1.304  0.9437  0.3630 -0.1103
   23MOL0     O 3067   8.580   6.458  -1.261 -0.1728  0.6173  0.1671
   23MOL0     C 3068   8.626   6.330  -1.245 -0.1380  0.8216  0.0297
   23MOL0     C 3069   8.762   6.308  -1.273  0.5371  0.9694  0.8195
   23MOL0     C 3070   8.817   6.172  -1.261 -0.0020 -0.2826  0.8265
   23MOL0     C 3071   8.727   6.073  -1.212 -0.0688 -0.1038 -0.3070
   23MOL0     O 3072   8.765   5.947  -1.196  0.8001  0.6919  0.0437
   23MOL0     C 3073   8.894   5.895  -1.240  0.9671 -1.6360 -0.0388
   23MOL0     C 3074   8.900   5.747  -1.191  1.0323  0.7804 -0.3306
   23MOL0     C 3075   8.798   5.643  -1.264  0.0372 -1.1107  0.7695
   23MOL0     C 3076   8.834   5.615  -1.414  0.2481 -0.7128 -0.5420
   23MOL0     C 3077   8.741   5.508  -1.483 -0.2296 -0.9759 -0.6742
   23MOL0     C 3078   8.777   5.478  -1.631 -0.3750 -0.6597 -0.3432
   23MOL0     C 3079   8.648   5.414  -1.684 -0.2184  0.4309  0.1392
   23MOL0     C 3080   8.650   5.393  -1.840 -0.1125 -1.5175  0.5546
   23MOL0    Cl 3081   8.488   5.341  -1.896  0.6267  0.2417 -0.0213
   23MOL0     C 3082   8.590   6.102  -1.179 -0.1300  0.0174  0.8362
   23MOL0     C 3083   8.545   6.228  -1.197  0.1994 -0.9943  0.9830
   23MOL0     O 3084   8.379   6.406  -1.364  0.6595  0.7198 -0.0236
   23MOL0     C 3085   8.475   6.702  -1.209 -0.1032 -0.2405 -0.7171
   23MOL0     C 3086   8.428   6.823  -1.161 -0.3270 -0.1205  0.0120
   23MOL0     N 3087   8.297   7.533  -0.680 -1.0319 -0.0100  0.2927
   23MOL0     N 3088   8.270   7.503  -0.559 -0.3687  0.6161 -1.2272
   23MOL0     C 3089   8.774   6.837   0.318  0.2602 -0.5971  0.0897
   23MOL0     C 3090   8.874   6.751   0.368 -0.1775 -0.1939 -0.0578
   23MOL0     C 3091   9.107   6.456   0.594  0.0906  0.2638 -0.2138
   23MOL0     C 3092   9.185   6.530   0.690 -0.1356  0.1233  0.7888
   23MOL0     C 3093   9.294   6.467   0.757 -0.0255 -1.0258 -0.2287
   23MOL0     C 3094   9.310   6.329   0.745  0.9075  0.0757  0.2905
   23MOL0     O 3095   9.393   6.244   0.813  0.0598  0.4985  0.6624
   23MOL0     C 3096   9.488   6.304   0.893 -0.0936  0.2570  0.3726
   23MOL0     C 3097   9.586   6.204   0.959 -0.0803  0.2569 -0.4490
   23MOL0     C 3098   9.629   6.094   0.859  0.4856  0.1429 -0.6417
   23MOL0     C 3099   9.728   5.997   0.920 -0.8698 -1.2377  0.1956
   23MOL0     C 3100   9.752   5.901   0.807  0.3865  0.6788 -0.5456
   23MOL0     C 3101   9.755   5.814   0.721 -0.3379  0.3587  0.0134
   23MOL0     C 3102   9.224   6.257   0.666 -0.4035  0.3860  0.0639
   23MOL0     C 3103   9.125   6.319   0.595 -0.7341  0.5785  0.3442
   23MOL0     C 3104   9.037   6.223   0.517  0.2069  0.3623 -0.0403
   23MOL0     H 3105   8.754   6.701   0.677 -2.1647  2.4945  1.0899
   23MOL0     H 3106   8.601   6.865   0.599 -3.5950 -1.7782 -3.2887
   23MOL0     H 3107   8.581   6.977   0.160 -0.0036 -1.2089  1.8508
   23MOL0     H 3108   8.694   7.080   0.238  0.2610 -2.1242 -3.1532
   23MOL0     H 3109   8.397   7.079   0.229 -0.3134  0.7156  0.0085
   23MOL0     H 3110   8.486   7.220   0.300  2.4987 -0.6774  1.5330
   23MOL0     H 3111   8.594   7.245   0.074 -1.6495  2.6404 -1.6179
   23MOL0     H 3112   8.482   7.122   0.012  0.4104  0.0127 -0.3653
   23MOL0     H 3113   8.289   7.273   0.088 -1.2389  2.8771 -0.6137
   23MOL0     H 3114   8.411   7.368   0.162 -2.2822 -1.6936  1.2748
   23MOL0     H 3115   8.500   7.417  -0.083 -0.0297  2.6825 -0.8754
   23MOL0     H 3116   8.335   7.477  -0.053 -2.2244 -1.4168 -1.6177
   23MOL0     H 3117   8.429   7.224  -0.201 -3.1662 -2.0077 -1.8595
   23MOL0     H 3118   8.266   7.237  -0.161 -1.3657  0.3283 -2.0507
   23MOL0     H 3119   8.440   7.387  -0.366  0.7201 -1.0075  0.4932
   23MOL0     H 3120   8.311   7.473  -0.295  1.9689  0.6794  0.0754
   23MOL0     H 3121   8.262   7.194  -0.420 -0.6506 -0.8991  3.3232
   23MOL0     H 3122   8.135   7.307  -0.374  0.0361  1.1057 -0.1365
   23MOL0     H 3123   8.229   7.216  -0.718  1.6618 -0.7128  0.9175
   23MOL0     H 3124   8.353   7.513  -0.943 -1.2002  0.5915  0.4633
   23MOL0     H 3125   8.189   7.447  -0.957 -1.2477  0.8229  1.8267
   23MOL0     H 3126   8.405   7.330  -1.083  2.6020 -2.7272  0.1992
   23MOL0     H 3127   8.446   7.269  -0.933  1.5204  1.5733 -1.0251
   23MOL0     H 3128   8.215   7.164  -0.913  2.0650  2.0325  1.4763
   23MOL0     H 3129   8.178   7.230  -1.071 -0.2369  2.7432  2.2396
   23MOL0     H 3130   8.384   7.115  -1.161 -2.3958 -0.6186 -1.5738
   23MOL0     H 3131   8.400   7.024  -1.004 -2.7599  0.9599  2.7574
   23MOL0     H 3132   8.094   6.773  -1.206 -0.1266 -1.7875 -2.0775
   23MOL0     H 3133   8.044   6.583  -1.291 -0.4081 -0.4100 -1.5524
   23MOL0     H 3134   8.145   6.447  -1.311  2.5757  1.6494  2.3811
   23MOL0     H 3135   8.146   6.568  -1.436  0.3508 -0.7621 -0.6952
   23MOL0     H 3136   8.835   6.380  -1.308  0.7316 -0.6528 -2.4879
   23MOL0     H 3137   8.914   6.136  -1.292 -1.3639 -1.2479 -2.7809
   23MOL0     H 3138   8.910   5.897  -1.348  1.6479 -2.5871  0.0290
   23MOL0     H 3139   8.967   5.948  -1.177 -0.9566  1.2244 -0.0344
   23MOL0     H 3140   9.003   5.712  -1.208  0.7500  0.0539 -0.6011
   23MOL0     H 3141   8.875   5.749  -1.084  2.4371  3.9872  0.0420
   23MOL0     H 3142   8.700   5.688  -1.249 -0.6482 -3.0202  2.4089
   23MOL0     H 3143   8.796   5.547  -1.210 -2.1867 -1.5001  0.0756
   23MOL0     H 3144   8.940   5.590  -1.414  1.3067  2.7131  2.6616
   23MOL0     H 3145   8.836   5.708  -1.473 -1.1351  0.9250  1.8148
   23MOL0     H 3146   8.739   5.417  -1.423 -0.7762  1.8932  4.2039
   23MOL0     H 3147   8.641   5.551  -1.475  0.2933 -0.0043  1.0195
   23MOL0     H 3148   8.873   5.426  -1.641 -0.4709 -1.0586  0.7068
   23MOL0     H 3149   8.798   5.577  -1.674  0.8481 -0.4862  0.5741
   23MOL0     H 3150   8.560   5.468  -1.649  1.3431  2.9554  0.4351
   23MOL0     H 3151   8.649   5.311  -1.647 -0.1122 -0.1928 -1.5090
   23MOL0     H 3152   8.726   5.318  -1.861 -0.7605 -3.2304  3.7083
   23MOL0     H 3153   8.666   5.487  -1.894 -1.6478 -1.4981  0.0976
   23MOL0     H 3154   8.524   6.020  -1.151  1.7893 -1.6819  0.6752
   23MOL0     H 3155   8.444   6.256  -1.166 -1.4159 -2.6981 -2.2180
   23MOL0     H 3156   8.583   6.692  -1.210 -0.0741 -0.9972  2.2160
   23MOL0     H 3157   8.501   6.895  -1.126 -1.5541  0.6726  1.0222
   23MOL0     H 3158   8.770   6.863   0.212  1.2277 -0.2304  0.1377
   23MOL0     H 3159   8.951   6.740   0.291  1.3172 -2.7495  1.6551
   23MOL0     H 3160   9.163   6.634   0.710 -0.5456 -0.4027  3.4404
   23MOL0     H 3161   9.351   6.532   0.823 -2.3691  1.0240 -0.0949
   23MOL0     H 3162   9.539   6.389   0.846 -0.2001  0.9903  1.5219
   23MOL0     H 3163   9.423   6.354   0.965 -0.8321 -2.3353  1.6081
   23MOL0     H 3164   9.530   6.176   1.049  1.9630  2.3186  1.5977
   23MOL0     H 3165   9.679   6.249   0.995 -1.1701  1.6396  0.7854
   23MOL0     H 3166   9.546   6.031   0.825  1.3580 -1.1078 -0.5126
   23MOL0     H 3167   9.678   6.147   0.777  0.6776  3.3375  1.3433
   23MOL0     H 3168   9.676   5.959   1.009 -2.2409  1.3713  0.6330
   23MOL0     H 3169   9.816   6.052   0.954 -0.9102 -1.7091  1.0899
   23MOL0     H 3170   9.734   5.730   0.659 -0.5713 -0.3512  1.0214
   23MOL0     H 3171   9.232   6.149   0.673 -3.9713  0.0951  1.9223
   23MOL0     H 3172   9.094   6.130   0.509 -1.2983 -0.8464  2.1674
   23MOL0     H 3173   8.945   6.199   0.572  1.1528  0.7329  1.7709
   23MOL0     H 3174   9.007   6.249   0.415  0.5933 -2.0358 -0.8380
   24MOL0     O 3175   0.625   4.132   8.979  0.4065 -0.3906 -0.3232
   24MOL0     C 3176   0.634   4.210   8.880 -0.1786  0.0267 -0.1345
   24MOL0     O 3177   0.641   4.168   8.756  0.3595  0.6549  1.0204
   24MOL0     C 3178   0.744   4.077   8.718  1.0115 -0.5173 -0.1811
   24MOL0     C 3179   0.797   3.968   8.795 -0.3578 -0.5826  0.4035
   24MOL0     C 3180   0.896   3.888   8.739  0.1718 -0.4356 -0.8628
   24MOL0     C 3181   0.954   3.909   8.616  0.3270  0.4339 -0.4482
   24MOL0     O 3182   1.057   3.824   8.577 -0.1637  0.1337 -1.1003
   24MOL0     C 3183   1.145   3.865   8.475 -0.1165  0.0223  1.3585
   24MOL0     C 3184   1.076   3.834   8.334 -0.2221 -0.0692  0.5556
   24MOL0     C 3185   1.051   3.681   8.330 -0.7992 -0.1521  0.4981
   24MOL0     C 3186   0.963   3.643   8.212  0.4166 -0.2948  0.4635
   24MOL0     C 3187   0.946   3.485   8.216 -0.0235 -0.6079 -0.5732
   24MOL0     C 3188   0.801   3.460   8.170  0.6096  0.2770 -0.9432
   24MOL0     C 3189   0.760   3.303   8.168  0.5873 -0.1163  0.1091
   24MOL0     C 3190   0.826   3.227   8.043  0.1954 -0.9250  0.9889
   24MOL0     N 3191   0.825   3.085   8.041  0.3379  0.3250  0.7646
   24MOL0     C 3192   0.720   3.006   7.992  0.1999 -0.3531  0.2780
   24MOL0     C 3193   0.772   2.879   8.006 -0.1140 -0.6381 -0.8997
   24MOL0     C 3194   0.686   2.757   7.989 -0.8075 -0.5464 -0.4041
   24MOL0     C 3195   0.583   2.763   7.869 -0.8060  0.4441  0.3887
   24MOL0     C 3196   0.508   2.641   7.839  0.3383 -0.5944 -0.9847
   24MOL0     C 3197   0.402   2.658   7.738  1.0839  0.1828 -0.0122
   24MOL0     O 3198   0.449   2.703   7.620  0.3754  0.4708  0.0233
   24MOL0     C 3199   0.519   2.610   7.549 -0.2518 -1.0096  0.1572
   24MOL0     C 3200   0.459   2.487   7.498  0.8592 -0.5335 -0.3593
   24MOL0     C 3201   0.533   2.392   7.433  0.3922 -0.0020 -0.4014
   24MOL0     C 3202   0.473   2.254   7.401 -0.0960  0.0581  0.2732
   24MOL0     C 3203   0.663   2.425   7.406 -0.2492 -0.4076 -1.0101
   24MOL0     C 3204   0.759   2.328   7.349 -0.2651 -0.1001  0.3470
   24MOL0     O 3205   0.805   2.219   7.424 -0.3681  0.5160  0.8352
   24MOL0     C 3206   0.927   2.161   7.401  0.5914 -0.0757 -0.4057
   24MOL0     C 3207   0.963   2.100   7.285  0.0681  1.1982  0.4344
   24MOL0     C 3208   1.081   2.022   7.281 -0.0215 -0.4861  0.0113
   24MOL0     C 3209   1.168   2.016   7.394  0.3409 -0.1667 -0.5556
   24MOL0     O 3210   1.282   1.944   7.385  0.0424 -0.6865  0.1364
   24MOL0     C 3211   1.300   1.831   7.300  0.0382 -0.0437 -0.0761
   24MOL0     C 3212   1.410   1.834   7.193  0.0007 -0.7160  0.1591
   24MOL0     C 3213   1.555   1.856   7.256  0.9734  0.7606 -0.9772
   24MOL0     C 3214   1.674   1.800   7.172 -0.0045  0.3958 -0.1878
   24MOL0     C 3215   1.799   1.829   7.245  0.6282 -0.0229  0.7003
   24MOL0     C 3216   1.906   1.761   7.169  0.0154  0.3879 -0.0101
   24MOL0     C 3217   2.040   1.798   7.228  0.0064 -0.4941 -0.3976
   24MOL0     C 3218   2.155   1.704   7.197 -0.2089  0.3044  0.8125
   24MOL0    Cl 3219   2.159   1.660   7.022  0.4022  0.0320 -0.0821
   24MOL0     C 3220   1.132   2.084   7.514 -0.6574  0.0702  0.8500
   24MOL0     C 3221   1.018   2.156   7.513 -0.0652 -0.0367 -0.1818
   24MOL0     O 3222   0.808   2.369   7.242  0.2313  0.3717 -0.4230
   24MOL0     C 3223   0.722   2.548   7.441 -0.1708 -0.4939 -0.0042
   24MOL0     C 3224   0.646   2.640   7.507  0.1439  0.2780 -0.4268
   24MOL0     N 3225   0.888   2.892   8.070 -1.1372 -0.0591  0.0710
   24MOL0     N 3226   0.920   3.012   8.086 -0.6211  0.4758  0.2709
   24MOL0     C 3227   0.907   4.018   8.540  0.1289  0.2447 -1.0190
   24MOL0     C 3228   0.800   4.096   8.594  1.0167  0.1858  0.8643
   24MOL0     C 3229   0.563   4.341   8.908  0.3583  0.5803 -0.5345
   24MOL0     C 3230   0.596   4.407   9.028 -0.2343 -0.5719 -0.3453
   24MOL0     C 3231   0.555   4.539   9.052 -0.9429 -1.2891  0.1850
   24MOL0     C 3232   0.470   4.608   8.965  0.3901  0.5190 -0.2504
   24MOL0     O 3233   0.421   4.734   8.990 -1.2076 -0.4181 -0.7485
   24MOL0     C 3234   0.400   4.769   9.128 -0.3400 -1.1624 -0.0663
   24MOL0     C 3235   0.320   4.893   9.134  0.0677  1.1415  0.6998
   24MOL0     C 3236   0.381   5.013   9.059  0.2306 -0.2497  0.2068
   24MOL0     C 3237   0.295   5.143   9.090 -0.5293  0.1095  0.1964
   24MOL0     C 3238   0.363   5.253   9.036  0.4768  0.3849 -0.7238
   24MOL0     C 3239   0.423   5.345   8.984  1.2221  0.1057  0.1190
   24MOL0     C 3240   0.415   4.536   8.856 -0.2646 -0.1872 -0.4563
   24MOL0     C 3241   0.465   4.411   8.820  0.0111  0.5008  0.6012
   24MOL0     C 3242   0.409   4.343   8.694  0.3164 -0.0128 -0.2065
   24MOL0     H 3243   0.760   3.941   8.893  0.3360  1.1180  1.1737
   24MOL0     H 3244   0.927   3.809   8.807 -6.1269 -1.3855  1.5922
   24MOL0     H 3245   1.239   3.810   8.476 -0.1392 -0.1179  3.9005
   24MOL0     H 3246   1.182   3.968   8.483  4.2597 -1.1105 -0.9985
   24MOL0     H 3247   0.987   3.897   8.323  1.6817  2.6618 -0.4042
   24MOL0     H 3248   1.134   3.866   8.247 -0.4933  0.2714  0.4949
   24MOL0     H 3249   1.141   3.619   8.328 -0.5932  0.1560  0.1903
   24MOL0     H 3250   1.001   3.657   8.425 -0.2929 -0.8166  0.6060
   24MOL0     H 3251   0.866   3.693   8.222 -1.3156 -3.3075  0.0278
   24MOL0     H 3252   1.014   3.656   8.117 -3.1063 -0.9174 -1.6871
   24MOL0     H 3253   0.971   3.430   8.307 -0.6638  1.2202  0.7523
   24MOL0     H 3254   1.017   3.444   8.143  1.1984  0.1115  0.1856
   24MOL0     H 3255   0.740   3.513   8.244  0.1459 -1.2890 -0.1499
   24MOL0     H 3256   0.777   3.496   8.069 -1.3256 -0.7534 -0.8978
   24MOL0     H 3257   0.653   3.287   8.155  0.5450  0.8485 -0.8666
   24MOL0     H 3258   0.792   3.252   8.259  1.6082  1.5380  0.7198
   24MOL0     H 3259   0.792   3.269   7.949  3.2671  1.2093  0.6705
   24MOL0     H 3260   0.933   3.247   8.058  0.0529  0.3512  0.4136
   24MOL0     H 3261   0.614   3.028   7.983  0.3198  0.2727  0.3813
   24MOL0     H 3262   0.638   2.746   8.087 -0.1254  3.2359  0.5069
   24MOL0     H 3263   0.767   2.686   7.969  2.2424  2.7226 -0.5520
   24MOL0     H 3264   0.517   2.847   7.890  1.3830  2.9237 -1.9964
   24MOL0     H 3265   0.645   2.787   7.782 -0.5959 -1.7620 -0.1353
   24MOL0     H 3266   0.572   2.559   7.803  1.2033  0.1164 -1.0913
   24MOL0     H 3267   0.457   2.604   7.928 -0.2409 -0.5773 -1.3061
   24MOL0     H 3268   0.347   2.564   7.735  2.7259 -1.0072  2.9606
   24MOL0     H 3269   0.326   2.727   7.777  0.9284  1.3702 -2.2719
   24MOL0     H 3270   0.353   2.469   7.509  1.1512 -1.9400  0.3357
   24MOL0     H 3271   0.510   2.211   7.308 -0.4822  0.0751  0.1097
   24MOL0     H 3272   0.367   2.276   7.387  0.0865 -0.3344 -1.9562
   24MOL0     H 3273   0.480   2.192   7.491  1.4175 -0.3410 -0.0947
   24MOL0     H 3274   0.893   2.098   7.202 -0.3049  0.7836  0.7592
   24MOL0     H 3275   1.113   1.966   7.193 -2.4015 -4.5524  1.4396
   24MOL0     H 3276   1.328   1.748   7.366 -2.2924  0.4141  1.6113
   24MOL0     H 3277   1.202   1.803   7.259 -0.6861 -0.8148  2.0597
   24MOL0     H 3278   1.426   1.742   7.137  1.1190 -0.3797 -0.1016
   24MOL0     H 3279   1.402   1.916   7.120  0.8726  0.7726  1.6590
   24MOL0     H 3280   1.551   1.813   7.357  1.1444  1.4515 -0.6746
   24MOL0     H 3281   1.569   1.962   7.279 -1.2710  0.7418  0.9174
   24MOL0     H 3282   1.670   1.863   7.083 -0.6346  0.2398 -0.2691
   24MOL0     H 3283   1.650   1.694   7.160  0.6491  0.1513  0.5226
   24MOL0     H 3284   1.809   1.937   7.233  0.0613 -0.1779 -1.7771
   24MOL0     H 3285   1.799   1.796   7.349 -3.5714 -0.6301  0.6783
   24MOL0     H 3286   1.900   1.788   7.063 -0.7639 -1.6784 -0.5465
   24MOL0     H 3287   1.892   1.652   7.178 -2.6756  0.4364 -2.0468
   24MOL0     H 3288   2.034   1.816   7.336  0.1845  1.6167 -0.6859
   24MOL0     H 3289   2.069   1.897   7.191  0.6819 -0.6279 -0.2485
   24MOL0     H 3290   2.118   1.624   7.262 -0.2568  2.7824  4.0869
   24MOL0     H 3291   2.253   1.734   7.235 -0.4995 -1.6374  3.3411
   24MOL0     H 3292   1.196   2.092   7.601  2.0937  1.4892 -1.1312
   24MOL0     H 3293   1.002   2.216   7.602  2.9198  0.7462 -0.0992
   24MOL0     H 3294   0.823   2.576   7.412  0.0609 -1.7332 -0.4533
   24MOL0     H 3295   0.687   2.738   7.529  3.0549 -1.0559  0.6470
   24MOL0     H 3296   0.938   4.048   8.441  1.1741  1.0414 -0.4690
   24MOL0     H 3297   0.773   4.187   8.541  0.6685  0.4105  1.4169
   24MOL0     H 3298   0.686   4.370   9.076  1.8018  1.9407 -1.9628
   24MOL0     H 3299   0.602   4.577   9.142 -1.1517  0.6702 -0.5014
   24MOL0     H 3300   0.356   4.691   9.192 -0.9990 -0.1408  0.7495
   24MOL0     H 3301   0.490   4.787   9.188 -2.2363  0.0452  2.6048
   24MOL0     H 3302   0.298   4.918   9.239  0.6904  1.8536  0.6721
   24MOL0     H 3303   0.225   4.872   9.085  1.2907 -0.3112 -1.1530
   24MOL0     H 3304   0.487   5.029   9.079  1.1261 -3.3543 -1.5672
   24MOL0     H 3305   0.381   4.987   8.953  0.4748 -0.3168  0.2238
   24MOL0     H 3306   0.301   5.148   9.199 -3.6739 -0.3646  0.4893
   24MOL0     H 3307   0.193   5.139   9.050  0.2257 -0.8067 -1.7776
   24MOL0     H 3308   0.461   5.436   8.942 -3.0745  1.2139 -2.0434
   24MOL0     H 3309   0.338   4.580   8.793  1.1079  0.2508 -1.8879
   24MOL0     H 3310   0.355   4.406   8.622 -2.6572 -4.0220 -1.8787
   24MOL0     H 3311   0.496   4.313   8.635  0.6482  0.3492  0.0948
   24MOL0     H 3312   0.338   4.267   8.729 -0.8547  2.1859  2.5363
   25MOL0     O 3313   2.024   9.237  10.175 -1.0985 -0.1403 -0.0979
   25MOL0     C 3314   1.937   9.275  10.250  0.0807 -0.1078 -0.5890
   25MOL0     O 3315   1.883   9.207  10.364 -0.6628  0.3426  0.3107
   25MOL0     C 3316   1.920   9.078  10.392 -0.0759  0.0580 -0.1902
   25MOL0     C 3317   2.052   9.051  10.437  0.2466  0.4698  0.3208
   25MOL0     C 3318   2.093   8.929  10.468 -0.1822  0.4544  0.3714
   25MOL0     C 3319   1.999   8.819  10.448 -0.1054 -0.1999  0.0882
   25MOL0     O 3320   2.030   8.687  10.453 -0.7753 -0.6350 -0.1801
   25MOL0     C 3321   2.168   8.657  10.435  0.1798  0.4271 -0.9166
   25MOL0     C 3322   2.176   8.499  10.447  0.4634 -0.4775 -0.2350
   25MOL0     C 3323   2.114   8.432  10.575  0.2823 -0.4854 -0.5346
   25MOL0     C 3324   2.175   8.482  10.700  0.1395 -0.2924 -0.2963
   25MOL0     C 3325   2.095   8.434  10.821 -0.5039 -0.9932  0.3568
   25MOL0     C 3326   2.185   8.434  10.948  0.1482  0.7460  0.2207
   25MOL0     C 3327   2.104   8.382  11.074  0.2905  0.6062  1.3996
   25MOL0     C 3328   2.193   8.323  11.173 -0.3676 -0.1668  0.6315
   25MOL0     N 3329   2.260   8.434  11.243 -0.5444  0.0471  0.1358
   25MOL0     C 3330   2.220   8.473  11.369 -0.7457 -1.2055  0.5399
   25MOL0     C 3331   2.327   8.535  11.416 -0.4938 -0.0816 -0.5168
   25MOL0     C 3332   2.339   8.600  11.555  0.6989 -0.2848 -0.2852
   25MOL0     C 3333   2.415   8.731  11.547 -0.0324 -0.9756 -0.2068
   25MOL0     C 3334   2.408   8.796  11.692  0.5719  0.3681 -0.6220
   25MOL0     C 3335   2.298   8.904  11.696 -0.1528 -0.9086 -0.1341
   25MOL0     O 3336   2.343   9.022  11.625 -0.6198 -0.5755 -0.3549
   25MOL0     C 3337   2.266   9.138  11.634  0.2899  0.1598 -0.2355
   25MOL0     C 3338   2.166   9.160  11.546  1.0300 -0.0859  0.6285
   25MOL0     C 3339   2.074   9.267  11.549  0.6042  0.5212 -0.0776
   25MOL0     C 3340   1.970   9.252  11.444  0.4613 -0.5342  0.4379
   25MOL0     C 3341   2.085   9.362  11.653 -0.1936 -0.8016 -0.1392
   25MOL0     C 3342   1.976   9.455  11.684  0.7893  0.1181  0.4673
   25MOL0     O 3343   2.000   9.540  11.789  0.5348 -0.2805 -0.4036
   25MOL0     C 3344   1.948   9.670  11.786  0.1817 -0.6241 -0.8006
   25MOL0     C 3345   1.879   9.732  11.682 -0.2666 -0.4915 -0.4078
   25MOL0     C 3346   1.837   9.870  11.684 -0.5576  0.4417 -0.7836
   25MOL0     C 3347   1.864   9.948  11.790 -0.1388 -0.4422 -0.7070
   25MOL0     O 3348   1.835  10.081  11.785  0.2332  0.0375  0.7404
   25MOL0     C 3349   1.819  10.165  11.902 -0.2592  0.4608  0.3859
   25MOL0     C 3350   1.667  10.201  11.921 -0.6451  0.2011  0.3056
   25MOL0     C 3351   1.656  10.314  12.016  0.1246  0.1306 -0.3133
   25MOL0     C 3352   1.515  10.378  12.010  0.1723  0.2026  0.5045
   25MOL0     C 3353   1.505  10.486  12.116  0.7960  0.0904 -1.2929
   25MOL0     C 3354   1.608  10.597  12.092  0.3505  0.6869 -0.4725
   25MOL0     C 3355   1.558  10.733  12.153  0.8649  0.5567 -0.4877
   25MOL0     C 3356   1.468  10.806  12.056  0.8982 -0.1931 -0.3485
   25MOL0    Cl 3357   1.561  10.894  11.932 -0.0464 -0.4999 -0.3700
   25MOL0     C 3358   1.933   9.891  11.897  0.2448 -0.2775 -0.1612
   25MOL0     C 3359   1.975   9.755  11.900  0.2927  0.2263 -0.5510
   25MOL0     O 3360   1.868   9.444  11.622 -1.0017  0.6156 -0.1967
   25MOL0     C 3361   2.185   9.341  11.748  0.4680  1.0419  0.0301
   25MOL0     C 3362   2.279   9.227  11.734 -0.5124  0.2066  0.2302
   25MOL0     N 3363   2.436   8.542  11.338 -0.2253  0.8351  0.2889
   25MOL0     N 3364   2.394   8.486  11.223  0.1941 -0.2696  0.2854
   25MOL0     C 3365   1.871   8.842  10.407 -0.0163  0.5401  1.1856
   25MOL0     C 3366   1.829   8.977  10.378  0.0978  0.2879 -0.4943
   25MOL0     C 3367   1.890   9.421  10.238 -0.1459  0.0468  0.5956
   25MOL0     C 3368   1.836   9.485  10.358 -0.1213 -0.2083  0.2548
   25MOL0     C 3369   1.791   9.628  10.352 -0.7968  0.0695  0.0165
   25MOL0     C 3370   1.800   9.704  10.242  0.5560  0.5830  0.8977
   25MOL0     O 3371   1.748   9.834  10.233  0.8536  0.3296  0.6276
   25MOL0     C 3372   1.772   9.920  10.348  0.2194  0.0027  0.1579
   25MOL0     C 3373   1.721  10.059  10.325 -0.5988  0.0977 -0.4960
   25MOL0     C 3374   1.709  10.109  10.460 -0.3656 -0.8323 -0.4323
   25MOL0     C 3375   1.664  10.253  10.435 -0.2233 -0.4113 -0.0135
   25MOL0     C 3376   1.718  10.335  10.549  0.3586  0.6063  0.0718
   25MOL0     C 3377   1.750  10.410  10.640 -0.2246  1.0661  0.5341
   25MOL0     C 3378   1.852   9.636  10.129  1.0910  0.0774  1.1902
   25MOL0     C 3379   1.905   9.505  10.123  0.6524 -0.1792  0.0917
   25MOL0     C 3380   1.983   9.472   9.994  0.1236  0.5750  0.4009
   25MOL0     H 3381   2.123   9.131  10.455 -1.3730  1.8219  1.0233
   25MOL0     H 3382   2.200   8.917  10.485  0.5269  1.2441 -2.7945
   25MOL0     H 3383   2.231   8.706  10.510 -2.1559  2.4926 -0.1622
   25MOL0     H 3384   2.198   8.684  10.334  0.4631 -0.1364 -0.9890
   25MOL0     H 3385   2.120   8.447  10.369  0.9363 -2.4386  0.6469
   25MOL0     H 3386   2.281   8.465  10.445  0.7306 -0.0655  2.6269
   25MOL0     H 3387   2.005   8.434  10.578  0.2573  0.5028 -1.3575
   25MOL0     H 3388   2.121   8.323  10.567 -2.6492 -0.8493  0.7761
   25MOL0     H 3389   2.280   8.454  10.703  0.9914  2.5809  0.1220
   25MOL0     H 3390   2.168   8.591  10.686  0.7498 -0.2912 -0.6548
   25MOL0     H 3391   2.050   8.336  10.802  0.7826 -1.9225  1.8663
   25MOL0     H 3392   2.004   8.493  10.837 -1.3785 -1.5362 -2.2601
   25MOL0     H 3393   2.256   8.350  10.948 -1.3169 -0.5403 -0.5976
   25MOL0     H 3394   2.230   8.531  10.972  0.2972  0.5192  0.8910
   25MOL0     H 3395   2.031   8.307  11.041 -0.1525  1.5805  0.0992
   25MOL0     H 3396   2.041   8.462  11.116  0.4567  1.1481  0.6377
   25MOL0     H 3397   2.143   8.252  11.240 -0.5257 -1.7489 -1.1018
   25MOL0     H 3398   2.275   8.258  11.142  0.4090  1.4933 -0.9495
   25MOL0     H 3399   2.124   8.466  11.418 -1.8966  1.3522 -1.1271
   25MOL0     H 3400   2.404   8.533  11.612  0.2569  0.6726  1.3878
   25MOL0     H 3401   2.239   8.597  11.599 -1.2340 -2.8701 -4.2433
   25MOL0     H 3402   2.523   8.716  11.536  0.0072 -1.8875  1.1777
   25MOL0     H 3403   2.380   8.795  11.465  0.9332  0.5149  0.4930
   25MOL0     H 3404   2.392   8.719  11.768 -0.5242 -1.2145 -2.3721
   25MOL0     H 3405   2.500   8.849  11.719 -1.0496  2.8203  0.3568
   25MOL0     H 3406   2.209   8.858  11.653 -0.9645 -0.4511  0.9962
   25MOL0     H 3407   2.276   8.929  11.801  3.6719 -0.5546  0.7173
   25MOL0     H 3408   2.149   9.083  11.472 -1.4033 -0.0175  1.0052
   25MOL0     H 3409   1.979   9.334  11.372 -0.4010  0.9797  1.9778
   25MOL0     H 3410   1.867   9.249  11.482  0.9630 -1.2087  1.8173
   25MOL0     H 3411   1.981   9.166  11.377 -3.0693  0.2144 -1.3642
   25MOL0     H 3412   1.862   9.675  11.591 -1.3258 -0.1260 -0.4579
   25MOL0     H 3413   1.787   9.917  11.600 -1.8090  2.6466  1.0841
   25MOL0     H 3414   1.859  10.129  11.997 -1.3098  2.5306  1.6856
   25MOL0     H 3415   1.875  10.257  11.886  0.9912 -0.2521  0.5279
   25MOL0     H 3416   1.638  10.244  11.825  2.9622  1.6442 -0.2870
   25MOL0     H 3417   1.605  10.114  11.947 -0.0681 -0.3082  0.0022
   25MOL0     H 3418   1.734  10.391  12.005 -0.0652  0.5149  0.8182
   25MOL0     H 3419   1.667  10.261  12.112 -1.6428 -3.1796 -1.7860
   25MOL0     H 3420   1.437  10.302  12.022  0.5650 -0.7891 -2.4711
   25MOL0     H 3421   1.502  10.424  11.912  0.7156  1.2710  0.9218
   25MOL0     H 3422   1.403  10.521  12.098 -0.5589 -2.1652  1.1216
   25MOL0     H 3423   1.512  10.449  12.219  1.0109 -0.9351 -1.6631
   25MOL0     H 3424   1.623  10.610  11.985  1.4787  0.7037 -0.3266
   25MOL0     H 3425   1.708  10.571  12.129  0.2336 -1.7836 -1.6831
   25MOL0     H 3426   1.639  10.799  12.185 -0.2101  1.8169 -0.3289
   25MOL0     H 3427   1.513  10.714  12.251  0.0612  0.1259 -0.9390
   25MOL0     H 3428   1.405  10.877  12.111 -3.6013 -2.2886 -2.2186
   25MOL0     H 3429   1.393  10.748  12.002  0.8838  0.2100 -0.7719
   25MOL0     H 3430   1.973   9.937  11.987  1.4149 -1.8638  0.1704
   25MOL0     H 3431   2.036   9.720  11.982  0.8239 -1.3847 -1.5831
   25MOL0     H 3432   2.172   9.397  11.839  2.1883  0.6059  0.5902
   25MOL0     H 3433   2.354   9.211  11.811 -0.9952 -3.6436  0.0486
   25MOL0     H 3434   1.801   8.762  10.381  0.2832  0.7385 -0.3309
   25MOL0     H 3435   1.728   8.999  10.347  0.0830  0.6349 -0.1956
   25MOL0     H 3436   1.823   9.438  10.455 -1.4086 -1.3010 -0.4070
   25MOL0     H 3437   1.747   9.671  10.441  1.7959  0.5545  1.1481
   25MOL0     H 3438   1.705   9.874  10.422 -0.1333  2.3891  1.4195
   25MOL0     H 3439   1.874   9.919  10.385  0.6368 -0.4724 -0.9610
   25MOL0     H 3440   1.621  10.048  10.282 -1.1855  0.8718  0.6227
   25MOL0     H 3441   1.783  10.122  10.259  0.8423  0.0088  0.7158
   25MOL0     H 3442   1.642  10.051  10.524  0.3195 -1.0804  0.0758
   25MOL0     H 3443   1.808  10.110  10.506  0.1891  1.2368 -1.5560
   25MOL0     H 3444   1.555  10.249  10.425 -0.2341 -0.4987  0.1337
   25MOL0     H 3445   1.701  10.302  10.344 -2.3032  0.9391 -0.1872
   25MOL0     H 3446   1.785  10.466  10.724 -0.7441  1.0375  0.7785
   25MOL0     H 3447   1.841   9.685  10.032 -1.2541 -1.7463  0.4329
   25MOL0     H 3448   1.957   9.373   9.955  0.3446  0.4494  0.5695
   25MOL0     H 3449   1.952   9.544   9.917 -1.1440  1.6377  1.8419
   25MOL0     H 3450   2.091   9.473  10.012  0.4147  0.0241 -1.1837
   26MOL0     O 3451  11.059   0.475   2.920  0.7192  0.6304  0.2934
   26MOL0     C 3452  10.947   0.519   2.938 -0.0096 -0.3525  0.3422
   26MOL0     O 3453  10.850   0.542   2.842 -0.3919 -0.3880 -0.0739
   26MOL0     C 3454  10.877   0.502   2.716  0.0820  0.4132 -0.4945
   26MOL0     C 3455  10.867   0.364   2.678  0.5269 -0.0515  0.6031
   26MOL0     C 3456  10.883   0.332   2.545 -0.3897 -0.1909 -0.5989
   26MOL0     C 3457  10.896   0.428   2.441  0.0060 -0.1607  0.5226
   26MOL0     O 3458  10.893   0.374   2.309  0.4189 -0.5429  0.5043
   26MOL0     C 3459  10.935   0.446   2.201 -0.3359 -0.1174  0.0644
   26MOL0     C 3460  11.082   0.450   2.182  0.2832  0.3346  0.1470
   26MOL0     C 3461  11.130   0.565   2.083  0.6602 -0.3809 -0.2956
   26MOL0     C 3462  11.225   0.533   1.975  0.0643  0.3167 -0.2509
   26MOL0     C 3463  11.217   0.606   1.837  0.6094 -0.3009  0.1762
   26MOL0     C 3464  11.241   0.759   1.844 -0.3072  0.7912 -0.2850
   26MOL0     C 3465  11.146   0.831   1.929 -0.0272 -1.1414  0.4037
   26MOL0     C 3466  11.142   0.987   1.915  0.5057  0.6431  0.4356
   26MOL0     N 3467  11.262   1.051   1.959 -0.1758 -0.0032 -0.3293
   26MOL0     C 3468  11.280   1.119   2.079 -0.0156  0.6859  0.0576
   26MOL0     C 3469  11.395   1.189   2.074 -0.3421  0.7998  0.2108
   26MOL0     C 3470  11.441   1.290   2.189  0.7719 -0.4817  0.2916
   26MOL0     C 3471  11.421   1.440   2.162 -0.4980 -0.4764  0.3247
   26MOL0     C 3472  11.417   1.499   2.295 -0.0282 -0.0951 -0.3396
   26MOL0     C 3473  11.439   1.648   2.295 -0.0454 -0.5746 -0.6755
   26MOL0     O 3474  11.354   1.731   2.378  0.2469  0.5567  0.2385
   26MOL0     C 3475  11.411   1.758   2.501  1.1437  0.7688 -0.0878
   26MOL0     C 3476  11.387   1.686   2.610  0.3808 -0.2780  0.1733
   26MOL0     C 3477  11.429   1.713   2.738 -0.5368 -0.1833  0.8670
   26MOL0     C 3478  11.412   1.606   2.846  0.2440 -1.7614 -0.6614
   26MOL0     C 3479  11.511   1.832   2.750  0.7322  0.7130 -0.2570
   26MOL0     C 3480  11.567   1.870   2.879 -0.0152 -0.0414 -0.4437
   26MOL0     O 3481  11.476   1.878   2.981 -0.1801 -1.0305 -0.5573
   26MOL0     C 3482  11.516   1.907   3.108  0.1846 -0.6826 -0.0106
   26MOL0     C 3483  11.442   1.845   3.211 -0.7094  0.3225  0.1268
   26MOL0     C 3484  11.469   1.865   3.344  0.2238  0.2444  0.0153
   26MOL0     C 3485  11.593   1.923   3.383 -0.2583  0.3167 -0.0126
   26MOL0     O 3486  11.620   1.937   3.514 -0.1217  0.2671 -0.7608
   26MOL0     C 3487  11.723   1.859   3.578  0.0230 -0.2229  0.3286
   26MOL0     C 3488  11.657   1.742   3.645 -0.5603  0.0288  0.0070
   26MOL0     C 3489  11.756   1.627   3.664 -0.9106 -0.6664  0.2151
   26MOL0     C 3490  11.801   1.614   3.807  1.0038  0.1504  0.0889
   26MOL0     C 3491  11.904   1.508   3.823 -0.9122 -0.5097 -0.4938
   26MOL0     C 3492  11.957   1.487   3.967  0.4537 -0.1188 -0.4853
   26MOL0     C 3493  12.078   1.401   3.950  0.3275  0.9192  1.4019
   26MOL0     C 3494  12.166   1.402   4.069  0.3687 -0.1771 -0.2626
   26MOL0    Cl 3495  12.337   1.336   4.051  0.3424  0.0972  0.2263
   26MOL0     C 3496  11.659   1.990   3.283  0.1465 -0.2407 -0.0730
   26MOL0     C 3497  11.621   1.985   3.152 -0.2747  0.8904  0.1379
   26MOL0     O 3498  11.685   1.853   2.885 -0.5993 -0.2811 -0.9133
   26MOL0     C 3499  11.528   1.923   2.641  0.7337  0.0648 -0.2568
   26MOL0     C 3500  11.477   1.878   2.518 -0.0214 -0.1701  0.9855
   26MOL0     N 3501  11.461   1.138   1.959 -0.2101  0.7037  0.6427
   26MOL0     N 3502  11.385   1.053   1.891 -0.5724  0.3266 -0.8147
   26MOL0     C 3503  10.897   0.563   2.486 -0.1134 -0.3045 -0.0262
   26MOL0     C 3504  10.877   0.599   2.619 -0.4269 -0.3823 -0.1116
   26MOL0     C 3505  10.919   0.581   3.068 -0.5502  0.7896  0.1282
   26MOL0     C 3506  10.814   0.673   3.081  0.2295  0.1542  0.0951
   26MOL0     C 3507  10.773   0.723   3.204 -0.4789 -0.5096 -0.6345
   26MOL0     C 3508  10.845   0.694   3.319  0.6630 -0.6981  0.6255
   26MOL0     O 3509  10.797   0.737   3.439 -0.0916  0.2602  0.8905
   26MOL0     C 3510  10.693   0.836   3.453  0.1522 -0.4148  0.5415
   26MOL0     C 3511  10.709   0.883   3.602 -0.5584  0.3093 -0.4741
   26MOL0     C 3512  10.582   0.946   3.660 -0.8046 -0.0041  0.1623
   26MOL0     C 3513  10.466   0.855   3.674  0.0547  0.7045  0.1217
   26MOL0     C 3514  10.343   0.917   3.735 -1.4506 -1.0441  0.6870
   26MOL0     C 3515  10.239   0.967   3.775  0.0448 -0.1560 -0.7102
   26MOL0     C 3516  10.957   0.610   3.319  0.0199 -0.1623  0.0760
   26MOL0     C 3517  10.999   0.569   3.184 -0.2955 -0.2507 -0.4975
   26MOL0     C 3518  11.135   0.496   3.192  0.0133 -0.8597 -0.4178
   26MOL0     H 3519  10.851   0.282   2.747  2.6554  0.3378  1.6551
   26MOL0     H 3520  10.866   0.228   2.519 -2.3416  0.5437 -2.6935
   26MOL0     H 3521  10.896   0.547   2.206 -3.1838 -1.0704 -1.0016
   26MOL0     H 3522  10.876   0.413   2.115 -1.6360  2.1823  0.0046
   26MOL0     H 3523  11.128   0.471   2.279 -2.3636 -0.0674  1.5867
   26MOL0     H 3524  11.115   0.354   2.143  2.9962  1.1666  0.2304
   26MOL0     H 3525  11.040   0.613   2.044 -0.9099 -2.0761  1.0594
   26MOL0     H 3526  11.179   0.639   2.147 -1.9618 -0.7439  2.3810
   26MOL0     H 3527  11.330   0.541   2.006 -0.1138 -0.4381  0.5918
   26MOL0     H 3528  11.203   0.427   1.960 -3.3931  0.7965  0.4557
   26MOL0     H 3529  11.116   0.589   1.798  0.6462  1.0475 -0.5526
   26MOL0     H 3530  11.289   0.560   1.769  0.2038  2.2819 -2.1849
   26MOL0     H 3531  11.343   0.779   1.880  0.6632 -0.2282 -2.2800
   26MOL0     H 3532  11.237   0.804   1.744  2.2085 -1.6636 -1.6623
   26MOL0     H 3533  11.158   0.802   2.033  1.1585 -0.9679  0.3311
   26MOL0     H 3534  11.045   0.793   1.914 -0.0016 -1.2378  0.4746
   26MOL0     H 3535  11.112   1.002   1.811 -1.8081  2.1633  1.2422
   26MOL0     H 3536  11.065   1.038   1.974  0.0409 -3.4451  3.8313
   26MOL0     H 3537  11.215   1.116   2.165  0.0999  0.6853  0.1439
   26MOL0     H 3538  11.547   1.268   2.207  1.0643  1.0341  0.5995
   26MOL0     H 3539  11.390   1.264   2.282 -1.3214  0.1187 -0.6428
   26MOL0     H 3540  11.503   1.472   2.098  0.6393 -0.0142  1.9469
   26MOL0     H 3541  11.327   1.461   2.109 -0.1416  1.3227  0.3367
   26MOL0     H 3542  11.317   1.474   2.334  0.6095  0.0401  1.5124
   26MOL0     H 3543  11.481   1.443   2.365 -4.3654 -3.3350  1.5716
   26MOL0     H 3544  11.545   1.671   2.302 -0.3767  1.1213 -0.9386
   26MOL0     H 3545  11.424   1.686   2.194  2.1862  0.1365 -0.7816
   26MOL0     H 3546  11.325   1.598   2.595 -0.3871  0.8818 -5.0167
   26MOL0     H 3547  11.504   1.550   2.867 -0.3246 -2.3861  0.2077
   26MOL0     H 3548  11.337   1.532   2.818 -1.4277 -0.3957  0.0339
   26MOL0     H 3549  11.377   1.651   2.940  0.3240 -2.5394 -0.2500
   26MOL0     H 3550  11.363   1.775   3.188  0.7802 -1.9754  1.5933
   26MOL0     H 3551  11.403   1.812   3.411 -0.3183  0.1122 -0.6223
   26MOL0     H 3552  11.800   1.827   3.508 -0.4838 -1.0845  0.1576
   26MOL0     H 3553  11.763   1.933   3.648 -0.8274  1.7607 -1.1778
   26MOL0     H 3554  11.617   1.763   3.745 -0.7287 -0.8034  0.1242
   26MOL0     H 3555  11.575   1.703   3.585 -1.0688 -0.9111  1.2578
   26MOL0     H 3556  11.844   1.637   3.599 -1.5410  0.6059 -0.4840
   26MOL0     H 3557  11.704   1.534   3.640 -0.1084 -0.2479 -3.8934
   26MOL0     H 3558  11.719   1.599   3.878  0.3452 -0.9157 -0.8812
   26MOL0     H 3559  11.838   1.715   3.826  3.1728 -0.9110  1.9262
   26MOL0     H 3560  11.860   1.416   3.786 -1.4185 -0.7614  0.6816
   26MOL0     H 3561  11.981   1.537   3.751  1.0081 -3.3584  0.2336
   26MOL0     H 3562  11.883   1.432   4.026 -1.2351 -0.4249 -2.7692
   26MOL0     H 3563  11.973   1.581   4.021  1.4384  0.1122 -1.1608
   26MOL0     H 3564  12.128   1.427   3.857 -2.0729 -0.2812 -0.3185
   26MOL0     H 3565  12.054   1.295   3.938 -3.0269  1.7168  0.0032
   26MOL0     H 3566  12.102   1.358   4.147 -3.6271  1.4176 -2.3341
   26MOL0     H 3567  12.188   1.506   4.093 -0.7105  0.2553 -1.0816
   26MOL0     H 3568  11.748   2.045   3.311  1.5973 -3.4346  2.1947
   26MOL0     H 3569  11.679   2.044   3.082  1.3873  0.8408  1.3887
   26MOL0     H 3570  11.572   2.021   2.655  0.8129 -0.2690  2.4583
   26MOL0     H 3571  11.503   1.950   2.441  1.5258 -1.8813 -0.1763
   26MOL0     H 3572  10.922   0.639   2.413 -2.0618  1.2746  0.8522
   26MOL0     H 3573  10.891   0.704   2.646  0.2013 -1.1488  3.0012
   26MOL0     H 3574  10.759   0.697   2.990  0.7628 -3.3231 -1.3150
   26MOL0     H 3575  10.683   0.784   3.193  0.3854  0.9595  0.1132
   26MOL0     H 3576  10.697   0.919   3.383 -0.4690 -0.8635 -0.0473
   26MOL0     H 3577  10.599   0.784   3.430  0.2850 -0.0024 -1.0303
   26MOL0     H 3578  10.791   0.956   3.597 -1.4985  1.4055 -0.3490
   26MOL0     H 3579  10.739   0.808   3.676  0.1345  3.1474  2.3520
   26MOL0     H 3580  10.612   0.998   3.751  0.2037 -1.6779  0.8329
   26MOL0     H 3581  10.545   1.027   3.596 -1.7851  1.5413  2.5599
   26MOL0     H 3582  10.497   0.776   3.743  0.5360 -0.1288 -1.0325
   26MOL0     H 3583  10.452   0.803   3.579 -1.0175 -0.5306  0.9106
   26MOL0     H 3584  10.161   1.025   3.818  0.7235  0.1540  0.1409
   26MOL0     H 3585  11.013   0.582   3.407  1.5867 -0.0903 -0.8631
   26MOL0     H 3586  11.128   0.394   3.151  0.2773 -0.9320 -0.2826
   26MOL0     H 3587  11.211   0.556   3.142  1.4411 -3.8097 -2.1000
   26MOL0     H 3588  11.163   0.484   3.297  0.7140 -2.1658 -0.7321
   27MOL0     O 3589   2.885   7.157  10.656  0.2284  0.4348 -0.6222
   27MOL0     C 3590   2.798   7.224  10.595  0.7691 -0.2447  0.0353
   27MOL0     O 3591   2.729   7.330  10.650 -1.0296  1.4345 -0.4787
   27MOL0     C 3592   2.736   7.364  10.784  0.0854 -0.3911 -0.1676
   27MOL0     C 3593   2.622   7.356  10.858  0.2454  0.8751 -0.1748
   27MOL0     C 3594   2.632   7.371  10.998 -0.1290 -0.4914 -0.2547
   27MOL0     C 3595   2.752   7.407  11.070  0.5901  0.0468 -0.0013
   27MOL0     O 3596   2.743   7.423  11.208  0.2033  0.1706  0.3452
   27MOL0     C 3597   2.625   7.408  11.285  0.4752  0.2356 -0.5255
   27MOL0     C 3598   2.642   7.477  11.423 -0.1005 -1.3319  0.5499
   27MOL0     C 3599   2.710   7.392  11.527 -0.3536 -0.2205 -0.2397
   27MOL0     C 3600   2.659   7.242  11.540 -0.4716  0.8035 -1.4235
   27MOL0     C 3601   2.692   7.165  11.665  1.0927 -0.0313 -0.4278
   27MOL0     C 3602   2.838   7.138  11.670 -1.1274  0.6629 -0.2348
   27MOL0     C 3603   2.884   7.031  11.771 -0.2432  0.3450  0.1688
   27MOL0     C 3604   2.870   6.879  11.731 -0.1489 -1.2322 -0.3382
   27MOL0     N 3605   2.919   6.838  11.609 -0.3071 -0.3847  0.2830
   27MOL0     C 3606   3.046   6.859  11.559  0.3462  0.4186  0.3172
   27MOL0     C 3607   3.061   6.796  11.442  0.7401 -0.1188 -0.6872
   27MOL0     C 3608   3.176   6.785  11.360  0.5978  0.2521 -0.9800
   27MOL0     C 3609   3.154   6.664  11.269 -1.4120  0.4564 -0.0319
   27MOL0     C 3610   3.269   6.669  11.168  0.4072 -0.1414 -0.4152
   27MOL0     C 3611   3.399   6.629  11.230  0.4706  0.3157  0.3187
   27MOL0     O 3612   3.500   6.624  11.134  0.8688 -0.3959 -0.2742
   27MOL0     C 3613   3.545   6.730  11.059  0.6737  0.0555  0.1032
   27MOL0     C 3614   3.517   6.861  11.096 -0.1096  0.3889 -0.4727
   27MOL0     C 3615   3.552   6.975  11.015 -1.0848  0.2035  0.6319
   27MOL0     C 3616   3.528   7.119  11.084  0.2963 -0.5408 -0.2555
   27MOL0     C 3617   3.616   6.955  10.893  0.2176  0.9177  0.1655
   27MOL0     C 3618   3.647   7.069  10.801 -0.8069  0.1760  0.3496
   27MOL0     O 3619   3.764   7.060  10.734 -0.7825  0.6096  0.2315
   27MOL0     C 3620   3.811   7.142  10.633  0.8687 -0.4338  0.0182
   27MOL0     C 3621   3.929   7.098  10.564  0.7493  0.3029  0.1787
   27MOL0     C 3622   3.988   7.182  10.473 -0.2859  0.2642  0.3889
   27MOL0     C 3623   3.931   7.306  10.441  0.3999 -0.1098 -0.1594
   27MOL0     O 3624   4.000   7.404  10.372 -0.5191  0.9191  0.3492
   27MOL0     C 3625   4.125   7.379  10.307 -0.1105 -0.6545  0.1199
   27MOL0     C 3626   4.100   7.303  10.182 -0.1360 -0.7905  1.0020
   27MOL0     C 3627   4.235   7.245  10.128  0.1766  0.2902 -0.7171
   27MOL0     C 3628   4.279   7.118  10.197  1.1464  0.3523  0.7868
   27MOL0     C 3629   4.415   7.132  10.263  0.2096 -0.2163  0.2888
   27MOL0     C 3630   4.536   7.122  10.175 -0.5360 -0.0803 -0.6051
   27MOL0     C 3631   4.665   7.150  10.264  0.2191 -0.1245  0.7869
   27MOL0     C 3632   4.700   7.048  10.372 -0.1079 -0.9562 -0.6987
   27MOL0    Cl 3633   4.772   6.892  10.288  0.0324 -0.3795 -0.0159
   27MOL0     C 3634   3.808   7.333  10.484  0.6292  0.2810  0.9332
   27MOL0     C 3635   3.742   7.256  10.584  0.3954 -0.0469  0.1247
   27MOL0     O 3636   3.561   7.146  10.779  0.1638 -0.0558 -0.4306
   27MOL0     C 3637   3.651   6.820  10.857  1.0292 -0.3778 -0.0117
   27MOL0     C 3638   3.616   6.716  10.935  0.2858  0.5303 -1.0452
   27MOL0     N 3639   2.931   6.749  11.415 -0.1152 -0.2804 -1.0296
   27MOL0     N 3640   2.850   6.769  11.517 -0.9650  0.1686  0.5437
   27MOL0     C 3641   2.872   7.411  10.991  0.5162 -0.5180 -0.1086
   27MOL0     C 3642   2.859   7.392  10.847 -0.4356  0.0747 -0.8096
   27MOL0     C 3643   2.759   7.184  10.452  0.6530  0.0857  1.0187
   27MOL0     C 3644   2.819   7.066  10.399  0.0993  0.4980  0.0819
   27MOL0     C 3645   2.776   7.020  10.273 -0.2263  0.5540  0.5686
   27MOL0     C 3646   2.690   7.097  10.194 -0.5769  0.3177  1.0502
   27MOL0     O 3647   2.657   7.061  10.065  0.9824 -0.2029  0.5238
   27MOL0     C 3648   2.720   6.951   9.991  0.6920 -0.9078 -0.5154
   27MOL0     C 3649   2.674   6.965   9.845  0.2675  0.1021  0.2835
   27MOL0     C 3650   2.744   7.058   9.753  0.4721 -0.5245  0.5810
   27MOL0     C 3651   2.744   7.201   9.819  0.5641 -0.1964 -0.2637
   27MOL0     C 3652   2.818   7.297   9.741 -0.9174 -1.0912 -0.4747
   27MOL0     C 3653   2.872   7.366   9.660 -0.0770 -0.4964 -0.6103
   27MOL0     C 3654   2.641   7.217  10.243  0.0250  1.3024  0.1279
   27MOL0     C 3655   2.682   7.264  10.365  0.6370 -0.1020  0.8785
   27MOL0     C 3656   2.650   7.410  10.378  0.5922 -0.6673 -0.1027
   27MOL0     H 3657   2.529   7.319  10.815  0.8891 -0.4910 -0.4467
   27MOL0     H 3658   2.540   7.349  11.052  1.6091 -3.7143  1.7164
   27MOL0     H 3659   2.599   7.302  11.294 -1.3264  0.6762 -0.0460
   27MOL0     H 3660   2.533   7.455  11.248 -0.0470  0.1214  0.5959
   27MOL0     H 3661   2.693   7.573  11.410 -2.2641 -0.0113  1.2196
   27MOL0     H 3662   2.543   7.515  11.452  0.7704  1.5638  0.0644
   27MOL0     H 3663   2.818   7.397  11.508 -0.8118  1.6911 -2.8420
   27MOL0     H 3664   2.690   7.438  11.624 -2.7438 -0.2822 -0.6444
   27MOL0     H 3665   2.550   7.250  11.537 -0.7702 -2.3894 -2.3164
   27MOL0     H 3666   2.684   7.180  11.454 -0.7360  1.2391 -1.8195
   27MOL0     H 3667   2.652   7.063  11.657  2.6683 -0.9588  2.2249
   27MOL0     H 3668   2.647   7.214  11.752  3.7885  1.7883  0.0632
   27MOL0     H 3669   2.876   7.098  11.576 -1.7520  0.5784 -0.4600
   27MOL0     H 3670   2.884   7.232  11.700  1.4433 -0.8670  1.0293
   27MOL0     H 3671   2.825   7.042  11.862  1.1154  0.3607  1.0715
   27MOL0     H 3672   2.986   7.061  11.796 -0.3294 -0.0892  1.0743
   27MOL0     H 3673   2.904   6.818  11.815 -0.0909  0.9430  1.3046
   27MOL0     H 3674   2.761   6.875  11.720  0.0360 -2.6598 -2.1041
   27MOL0     H 3675   3.120   6.927  11.601  2.3269  0.8830 -3.4516
   27MOL0     H 3676   3.262   6.757  11.421 -1.0048 -1.5015  0.6021
   27MOL0     H 3677   3.201   6.882  11.315  3.0412  1.4825  2.5638
   27MOL0     H 3678   3.154   6.580  11.338  1.2487  1.0095  0.7472
   27MOL0     H 3679   3.054   6.661  11.225 -1.3550 -2.0368 -0.0928
   27MOL0     H 3680   3.248   6.594  11.091  1.4038 -1.2380  0.3470
   27MOL0     H 3681   3.267   6.772  11.131 -0.7402 -0.1536 -0.4415
   27MOL0     H 3682   3.415   6.693  11.318 -1.1787  1.9436 -0.4858
   27MOL0     H 3683   3.383   6.527  11.266 -2.3537  0.5599 -0.0331
   27MOL0     H 3684   3.463   6.883  11.187 -0.1429  1.7822 -0.8014
   27MOL0     H 3685   3.474   7.190  11.021  1.1130  0.7645  0.4537
   27MOL0     H 3686   3.614   7.177  11.121 -1.2110  1.9727 -0.4557
   27MOL0     H 3687   3.459   7.108  11.168  0.7859  2.1230  0.5871
   27MOL0     H 3688   3.984   7.010  10.597  1.7730  0.8694  0.0392
   27MOL0     H 3689   4.093   7.170  10.449  0.3990  3.0428  1.6280
   27MOL0     H 3690   4.175   7.468  10.270  0.2202 -1.2851 -1.0011
   27MOL0     H 3691   4.191   7.319  10.372 -0.8581 -0.5224  1.0253
   27MOL0     H 3692   4.021   7.230  10.199 -3.7709  2.3488 -0.9043
   27MOL0     H 3693   4.046   7.366  10.111  0.6440  0.1665  1.2269
   27MOL0     H 3694   4.313   7.322  10.124  0.5027 -0.0554 -1.2526
   27MOL0     H 3695   4.215   7.213  10.025 -0.8556 -2.4495  0.2394
   27MOL0     H 3696   4.286   7.044  10.117  2.1700  0.1461  1.0449
   27MOL0     H 3697   4.201   7.088  10.266 -0.7568  1.5695 -0.7403
   27MOL0     H 3698   4.417   7.228  10.315 -0.1770 -0.7919  1.3876
   27MOL0     H 3699   4.422   7.049  10.333  1.1914 -0.2866  0.1301
   27MOL0     H 3700   4.529   7.194  10.094 -2.6184 -0.6329 -0.9806
   27MOL0     H 3701   4.530   7.023  10.129 -1.9720 -0.2786 -0.0295
   27MOL0     H 3702   4.665   7.246  10.317  2.1387 -0.0529  0.7168
   27MOL0     H 3703   4.749   7.164  10.195 -0.2053  3.1690  0.7716
   27MOL0     H 3704   4.613   7.033  10.436 -0.9938 -2.5482 -2.1996
   27MOL0     H 3705   4.778   7.096  10.431 -0.6617  1.2304 -1.6384
   27MOL0     H 3706   3.759   7.420  10.440 -0.4441 -0.3162  0.8981
   27MOL0     H 3707   3.645   7.289  10.620 -0.1539  0.4474 -1.7416
   27MOL0     H 3708   3.696   6.804  10.759 -3.6374 -1.5719 -2.2612
   27MOL0     H 3709   3.650   6.618  10.902  0.3069 -0.7375  2.3145
   27MOL0     H 3710   2.964   7.441  11.039  1.2066  2.0442 -2.7916
   27MOL0     H 3711   2.945   7.392  10.780 -0.6355  2.7095 -1.1831
   27MOL0     H 3712   2.898   7.013  10.451 -0.5054 -0.2187  0.2797
   27MOL0     H 3713   2.824   6.930  10.236 -0.7736  0.0506  1.0813
   27MOL0     H 3714   2.829   6.954   9.996  0.6917 -2.2998  1.2745
   27MOL0     H 3715   2.697   6.856  10.041  0.6213  0.6553  2.7042
   27MOL0     H 3716   2.566   6.981   9.835 -0.7062 -5.4807 -2.0892
   27MOL0     H 3717   2.680   6.865   9.802  0.7804  0.9678 -1.7893
   27MOL0     H 3718   2.848   7.030   9.736  1.9023  2.1489  3.8546
   27MOL0     H 3719   2.700   7.073   9.654  0.2462 -1.7794  0.4683
   27MOL0     H 3720   2.798   7.192   9.915 -0.2938  0.9630  0.3534
   27MOL0     H 3721   2.643   7.237   9.841  1.2921  1.5345  0.4918
   27MOL0     H 3722   2.944   7.423   9.605 -0.0650 -0.8026 -0.9181
   27MOL0     H 3723   2.572   7.276  10.184 -2.8075 -0.3317  1.5916
   27MOL0     H 3724   2.606   7.432  10.475  0.9927  1.0741 -0.2744
   27MOL0     H 3725   2.735   7.475  10.356  1.0125 -0.8010  1.0658
   27MOL0     H 3726   2.571   7.434  10.306  1.0020 -0.2543 -0.4288
   28MOL0     O 3727   9.460  11.071   0.064  0.3164  0.0618 -0.8523
   28MOL0     C 3728   9.345  11.106   0.094 -1.1294 -0.6219  0.3265
   28MOL0     O 3729   9.275  11.067   0.204  0.8128 -0.6682 -0.1903
   28MOL0     C 3730   9.328  10.951   0.262  0.7537  0.0901  0.2982
   28MOL0     C 3731   9.230  10.857   0.305  0.0367 -0.9631  1.3356
   28MOL0     C 3732   9.255  10.753   0.393 -0.4071  0.0902  0.2140
   28MOL0     C 3733   9.371  10.740   0.463 -1.0176  0.4197 -0.0217
   28MOL0     O 3734   9.398  10.649   0.554  0.1313  0.3606  0.2460
   28MOL0     C 3735   9.346  10.520   0.524 -0.2538  0.7127 -0.0143
   28MOL0     C 3736   9.430  10.417   0.596  0.1769  0.2557  0.0757
   28MOL0     C 3737   9.456  10.452   0.752  0.3563 -0.0092 -0.5665
   28MOL0     C 3738   9.596  10.497   0.770 -0.2333  0.9235  0.3300
   28MOL0     C 3739   9.622  10.529   0.917 -0.1788  0.0089  0.1805
   28MOL0     C 3740   9.772  10.543   0.955  0.2568 -0.0149 -0.0728
   28MOL0     C 3741   9.802  10.570   1.102  0.1725  0.9662  0.4152
   28MOL0     C 3742   9.941  10.545   1.155 -0.4189 -0.0704  0.1954
   28MOL0     N 3743   9.949  10.579   1.302 -0.7979 -0.1274  0.6203
   28MOL0     C 3744  10.064  10.622   1.369  0.6467 -0.4552  0.5295
   28MOL0     C 3745  10.034  10.637   1.503 -1.0307 -0.2562  0.5642
   28MOL0     C 3746  10.118  10.675   1.619 -0.2812 -0.4065  0.0682
   28MOL0     C 3747  10.258  10.608   1.612 -0.4855 -0.0488 -0.5642
   28MOL0     C 3748  10.349  10.649   1.727 -0.4063 -0.4463 -0.4331
   28MOL0     C 3749  10.496  10.583   1.727 -0.8006 -0.5365 -0.0151
   28MOL0     O 3750  10.566  10.594   1.851  0.6490  0.3841  0.6438
   28MOL0     C 3751  10.532  10.518   1.965  0.8450 -0.5378  0.3258
   28MOL0     C 3752  10.423  10.428   1.980 -0.9270 -1.0917 -0.4405
   28MOL0     C 3753  10.397  10.370   2.101  0.5719  0.7425 -0.5537
   28MOL0     C 3754  10.280  10.269   2.113  0.9086 -0.4912  0.8134
   28MOL0     C 3755  10.490  10.388   2.209 -0.0917 -0.1717 -0.4872
   28MOL0     C 3756  10.490  10.324   2.341  0.2601  1.3348 -0.7233
   28MOL0     O 3757  10.368  10.320   2.400 -0.3185 -0.4762 -1.1207
   28MOL0     C 3758  10.363  10.293   2.536  0.8573 -0.2117 -0.1934
   28MOL0     C 3759  10.264  10.206   2.585  0.5751  1.3687 -0.6164
   28MOL0     C 3760  10.221  10.199   2.722 -0.5994  0.1685  0.6072
   28MOL0     C 3761  10.287  10.283   2.804  0.4227 -0.8467  0.2977
   28MOL0     O 3762  10.266  10.285   2.938  0.2675 -0.2943  0.0093
   28MOL0     C 3763  10.246  10.412   3.004 -0.0218  0.2748  0.2325
   28MOL0     C 3764  10.163  10.395   3.138  0.0417 -0.4395  0.1979
   28MOL0     C 3765  10.011  10.388   3.110 -0.2790  0.8610  0.8317
   28MOL0     C 3766   9.968  10.246   3.062  0.7719 -0.5192  1.4990
   28MOL0     C 3767   9.827  10.255   3.005  1.0294  0.8272 -0.0448
   28MOL0     C 3768   9.805  10.181   2.868 -0.8205 -0.5880 -0.4702
   28MOL0     C 3769   9.834  10.037   2.873  0.1457  0.1081  0.1542
   28MOL0     C 3770   9.815   9.986   2.732 -1.1271 -0.1626  0.3735
   28MOL0    Cl 3771   9.957  10.036   2.609  0.0921 -0.0385  0.1012
   28MOL0     C 3772  10.389  10.369   2.762  0.0417  0.3745 -0.3039
   28MOL0     C 3773  10.431  10.377   2.628  0.5241 -0.9784  0.9178
   28MOL0     O 3774  10.598  10.303   2.396  0.0532 -0.1470  0.2259
   28MOL0     C 3775  10.606  10.466   2.184  0.5560 -0.0221 -0.2639
   28MOL0     C 3776  10.625  10.529   2.064  0.2105  0.4560 -0.0506
   28MOL0     N 3777   9.894  10.612   1.503  0.4942 -0.3408  0.5408
   28MOL0     N 3778   9.850  10.572   1.386 -0.0036  0.3101 -0.9168
   28MOL0     C 3779   9.472  10.840   0.440  0.3322  0.3668 -0.7387
   28MOL0     C 3780   9.441  10.941   0.340  0.6721 -0.4714 -0.2768
   28MOL0     C 3781   9.267  11.188  -0.007 -0.3952 -0.4541 -1.3887
   28MOL0     C 3782   9.162  11.268   0.046 -0.4236  0.0038  0.7974
   28MOL0     C 3783   9.081  11.353  -0.038 -0.7359  0.0369 -0.0300
   28MOL0     C 3784   9.117  11.365  -0.179  2.2191 -0.4109 -0.3430
   28MOL0     O 3785   9.040  11.431  -0.267  0.0027 -0.3674  0.1774
   28MOL0     C 3786   8.912  11.493  -0.224 -0.2172 -0.2875  0.1181
   28MOL0     C 3787   8.840  11.557  -0.353  0.7238 -0.9903 -0.2897
   28MOL0     C 3788   8.767  11.693  -0.322 -0.0414 -0.1037  0.3836
   28MOL0     C 3789   8.686  11.746  -0.454 -0.1331  0.3474 -0.1260
   28MOL0     C 3790   8.661  11.890  -0.443 -0.6483  0.7409  0.0836
   28MOL0     C 3791   8.636  12.009  -0.437  0.5189  0.3201 -0.5864
   28MOL0     C 3792   9.226  11.293  -0.217  0.4067 -0.0479  0.6027
   28MOL0     C 3793   9.302  11.219  -0.136  0.2205  0.2254 -0.8964
   28MOL0     C 3794   9.416  11.151  -0.212 -0.7126 -0.2169  0.5374
   28MOL0     H 3795   9.130  10.880   0.269  0.9180  1.1800  0.0487
   28MOL0     H 3796   9.174  10.684   0.414 -0.8830  0.2180 -1.0727
   28MOL0     H 3797   9.354  10.488   0.419  0.1750  0.3653  0.1232
   28MOL0     H 3798   9.238  10.514   0.537 -0.7398 -0.0292 -3.3120
   28MOL0     H 3799   9.367  10.328   0.592 -0.1203  0.3725  1.5957
   28MOL0     H 3800   9.525  10.400   0.546  0.1325  0.4807 -0.0914
   28MOL0     H 3801   9.386  10.526   0.791 -2.6921 -2.7117 -0.5381
   28MOL0     H 3802   9.437  10.361   0.809 -1.7152  0.5285 -0.3161
   28MOL0     H 3803   9.654  10.412   0.733  0.3979  1.5481 -0.1494
   28MOL0     H 3804   9.609  10.584   0.704 -2.4556  2.0607  1.2758
   28MOL0     H 3805   9.575  10.452   0.978  1.6689 -1.9834 -0.7294
   28MOL0     H 3806   9.576  10.623   0.945 -1.7489 -0.5313 -0.4846
   28MOL0     H 3807   9.824  10.450   0.931  0.2475  0.0840 -0.4909
   28MOL0     H 3808   9.826  10.613   0.890  0.2576 -2.4824 -2.9575
   28MOL0     H 3809   9.740  10.500   1.159  2.3987 -3.5192 -2.1054
   28MOL0     H 3810   9.778  10.674   1.127  0.1878  0.3988  3.1335
   28MOL0     H 3811   9.959  10.437   1.156 -1.8752 -0.3316  1.1536
   28MOL0     H 3812  10.023  10.591   1.099  0.7629 -2.0311  0.2316
   28MOL0     H 3813  10.153  10.669   1.326 -0.9867  4.4358  1.8819
   28MOL0     H 3814  10.062  10.647   1.709 -0.1425 -0.8628  0.0162
   28MOL0     H 3815  10.127  10.784   1.618 -2.5921 -0.0740  2.5785
   28MOL0     H 3816  10.244  10.500   1.602 -0.6049  0.0582 -1.6653
   28MOL0     H 3817  10.312  10.650   1.527  2.1453 -1.6097  0.2305
   28MOL0     H 3818  10.347  10.758   1.724  1.6517 -0.3780 -0.2909
   28MOL0     H 3819  10.296  10.623   1.819  1.3719  0.5735  0.9222
   28MOL0     H 3820  10.492  10.477   1.701  3.6652 -2.0489  3.8956
   28MOL0     H 3821  10.559  10.636   1.654  0.7292 -0.3782  1.3539
   28MOL0     H 3822  10.351  10.413   1.900 -1.4139  1.9010 -0.7036
   28MOL0     H 3823  10.326  10.174   2.141 -1.1864 -1.4417  1.2018
   28MOL0     H 3824  10.219  10.248   2.025 -1.3258  0.0083  2.1755
   28MOL0     H 3825  10.216  10.293   2.198 -1.0437 -1.9319 -0.1833
   28MOL0     H 3826  10.217  10.134   2.519 -0.7271  0.7121  0.9578
   28MOL0     H 3827  10.143  10.138   2.766 -1.1631  1.0994  0.9413
   28MOL0     H 3828  10.347  10.439   3.035  1.0821 -2.4398 -0.6074
   28MOL0     H 3829  10.211  10.493   2.939  2.2045  1.3681  0.3095
   28MOL0     H 3830  10.191  10.292   3.164  0.5141 -0.3372  0.0993
   28MOL0     H 3831  10.189  10.470   3.213  0.7055 -0.5027  0.0412
   28MOL0     H 3832   9.983  10.472   3.045 -2.4144  0.1570  0.7608
   28MOL0     H 3833   9.958  10.405   3.203 -1.0134 -0.7634  0.7320
   28MOL0     H 3834   9.982  10.176   3.144 -0.0073  0.3751  2.4097
   28MOL0     H 3835  10.040  10.217   2.984 -1.1542  0.7226 -0.8926
   28MOL0     H 3836   9.759  10.223   3.085  3.2993  0.6525  1.9279
   28MOL0     H 3837   9.799  10.358   2.982  1.3591  1.1943  1.1289
   28MOL0     H 3838   9.867  10.230   2.792 -1.1015 -1.7691 -1.4884
   28MOL0     H 3839   9.701  10.203   2.841 -1.4960 -2.4551  0.5139
   28MOL0     H 3840   9.771   9.983   2.945  1.7474  2.1137  3.2951
   28MOL0     H 3841   9.938  10.029   2.907 -0.8820  0.4583  3.8729
   28MOL0     H 3842   9.715  10.002   2.691 -0.6819  0.5033 -0.4760
   28MOL0     H 3843   9.815   9.877   2.747  4.0536 -0.6891 -1.6771
   28MOL0     H 3844  10.445  10.440   2.821 -0.3054  1.3184 -1.0746
   28MOL0     H 3845  10.516  10.441   2.606  0.2452 -1.2035 -1.0921
   28MOL0     H 3846  10.674  10.482   2.268 -2.5964  0.5148  2.3827
   28MOL0     H 3847  10.708  10.596   2.044 -0.7166  2.9540  3.5333
   28MOL0     H 3848   9.567  10.841   0.491 -0.5117  1.9246  0.9121
   28MOL0     H 3849   9.497  11.033   0.350 -0.3377  0.0453  0.8250
   28MOL0     H 3850   9.129  11.259   0.149 -2.7186 -0.3820  0.0855
   28MOL0     H 3851   8.995  11.401   0.008  0.1023 -0.8393  2.6270
   28MOL0     H 3852   8.856  11.405  -0.191 -1.8534  1.0552  1.0616
   28MOL0     H 3853   8.934  11.562  -0.143  3.0055 -1.3946  0.3218
   28MOL0     H 3854   8.763  11.481  -0.371  0.5067 -0.7079 -0.5891
   28MOL0     H 3855   8.905  11.567  -0.441  1.2212 -0.3627  0.1436
   28MOL0     H 3856   8.706  11.682  -0.232 -0.1232  0.9990  0.4870
   28MOL0     H 3857   8.837  11.772  -0.292 -0.1353 -0.3459  1.2603
   28MOL0     H 3858   8.599  11.687  -0.484 -0.8437  0.5865  1.3560
   28MOL0     H 3859   8.745  11.742  -0.546  0.3413  1.9054  0.0863
   28MOL0     H 3860   8.610  12.110  -0.413  2.5940  0.7329  0.1507
   28MOL0     H 3861   9.249  11.303  -0.323 -0.5522  0.0868  0.4030
   28MOL0     H 3862   9.507  11.197  -0.172 -0.9783 -1.5177  2.8115
   28MOL0     H 3863   9.409  11.042  -0.203  2.0200 -0.7251 -1.7693
   28MOL0     H 3864   9.408  11.169  -0.320 -3.5779 -0.0847  0.7138
   29MOL0     O 3865   2.895   2.515   9.530  0.1782 -0.4170 -0.4606
   29MOL0     C 3866   2.927   2.600   9.445 -0.2262 -0.5029  0.4517
   29MOL0     O 3867   3.039   2.671   9.448 -0.0068 -0.1775 -0.0521
   29MOL0     C 3868   3.138   2.648   9.542  0.9327  0.3306  0.7326
   29MOL0     C 3869   3.221   2.756   9.573  0.8597  0.0364  1.3657
   29MOL0     C 3870   3.327   2.745   9.669  0.1635 -0.1083 -0.1767
   29MOL0     C 3871   3.367   2.613   9.712 -0.6640  0.2851 -0.9800
   29MOL0     O 3872   3.486   2.589   9.785  0.2726 -0.4931  0.0470
   29MOL0     C 3873   3.546   2.683   9.872  0.5408  0.4245 -0.6988
   29MOL0     C 3874   3.552   2.648  10.022  0.4910 -0.3116 -0.6075
   29MOL0     C 3875   3.583   2.499  10.056  0.7724 -0.5695  0.9102
   29MOL0     C 3876   3.619   2.497  10.203  0.5465  0.6381 -0.1518
   29MOL0     C 3877   3.613   2.352  10.253  0.0549  0.1727  0.2009
   29MOL0     C 3878   3.684   2.344  10.386  0.0490 -0.1819 -0.0200
   29MOL0     C 3879   3.724   2.194  10.402 -0.1004 -0.1050  0.1805
   29MOL0     C 3880   3.818   2.171  10.526  0.9960 -0.1745  0.4927
   29MOL0     N 3881   3.948   2.229  10.506 -0.3107  0.1631  0.3166
   29MOL0     C 3882   4.037   2.218  10.400 -0.0198  0.2733  0.3569
   29MOL0     C 3883   4.149   2.285  10.449  1.5940  0.3718  0.4167
   29MOL0     C 3884   4.269   2.314  10.374 -0.6405 -0.1576  0.3491
   29MOL0     C 3885   4.327   2.199  10.288 -0.3864  0.0078  0.1823
   29MOL0     C 3886   4.355   2.074  10.366  0.1861  0.6204  0.3809
   29MOL0     C 3887   4.436   1.973  10.286  0.2998  1.1517 -1.1811
   29MOL0     O 3888   4.347   1.890  10.202 -0.4396 -1.1941  0.2162
   29MOL0     C 3889   4.405   1.777  10.149  0.6478  1.1783 -0.2401
   29MOL0     C 3890   4.537   1.741  10.179  0.0961  0.3059  0.2206
   29MOL0     C 3891   4.591   1.628  10.114 -0.9902  1.0712 -0.4139
   29MOL0     C 3892   4.737   1.616  10.144  0.2227 -0.2070  0.5934
   29MOL0     C 3893   4.516   1.543  10.030 -0.6862 -0.0979 -0.1109
   29MOL0     C 3894   4.567   1.418   9.962 -0.2510  0.4115 -0.9735
   29MOL0     O 3895   4.699   1.397   9.943 -0.6116  0.0793  0.3129
   29MOL0     C 3896   4.746   1.278   9.884 -0.2705  0.4062 -0.1700
   29MOL0     C 3897   4.883   1.267   9.901 -0.1507 -0.3635 -0.3031
   29MOL0     C 3898   4.955   1.157   9.835 -0.2816 -0.0990 -0.5490
   29MOL0     C 3899   4.894   1.069   9.750  0.1439 -0.6141 -1.3283
   29MOL0     O 3900   4.951   0.954   9.701 -0.1217  0.3950  0.0528
   29MOL0     C 3901   5.075   0.914   9.758  0.1787  0.1925  0.0679
   29MOL0     C 3902   5.116   0.779   9.710  0.1266 -0.9301  0.5230
   29MOL0     C 3903   5.255   0.737   9.763  0.0926 -0.3564  0.1672
   29MOL0     C 3904   5.274   0.590   9.746 -0.1286  0.2636  0.7953
   29MOL0     C 3905   5.252   0.525   9.608  0.2962 -0.1917  0.9485
   29MOL0     C 3906   5.366   0.566   9.508 -0.4513 -0.2335  0.7579
   29MOL0     C 3907   5.330   0.521   9.365  0.2598  0.4917 -0.1069
   29MOL0     C 3908   5.419   0.581   9.256 -0.1432 -0.5062 -0.0059
   29MOL0    Cl 3909   5.416   0.762   9.268 -0.0524  0.0846  0.0451
   29MOL0     C 3910   4.754   1.082   9.735 -0.4089 -0.5239  0.6969
   29MOL0     C 3911   4.677   1.182   9.798 -0.3632  1.2044  0.8193
   29MOL0     O 3912   4.477   1.333   9.962 -0.3831 -0.0074  0.2428
   29MOL0     C 3913   4.385   1.572  10.005  1.2230 -0.1932  0.0431
   29MOL0     C 3914   4.336   1.705  10.056 -0.1632  0.8903  0.6369
   29MOL0     N 3915   4.118   2.334  10.571  0.3562  0.1962  0.5549
   29MOL0     N 3916   3.995   2.307  10.601  0.5997  0.1563 -1.0166
   29MOL0     C 3917   3.292   2.509   9.665  0.0748 -0.4797 -0.2570
   29MOL0     C 3918   3.170   2.526   9.588 -0.6538  0.9424  0.1700
   29MOL0     C 3919   2.826   2.622   9.340  0.0377  0.4940  0.2608
   29MOL0     C 3920   2.870   2.678   9.216 -0.4100 -0.1646  0.3638
   29MOL0     C 3921   2.792   2.705   9.112 -0.2415 -0.6047  0.4004
   29MOL0     C 3922   2.653   2.667   9.118 -0.3604 -0.1477  0.7320
   29MOL0     O 3923   2.566   2.660   9.012 -0.2298  0.1035 -0.2951
   29MOL0     C 3924   2.617   2.675   8.878  0.3486  0.0838 -0.2948
   29MOL0     C 3925   2.631   2.820   8.848 -0.3235  0.1281 -0.2481
   29MOL0     C 3926   2.493   2.901   8.841 -0.4069  0.5682  0.3755
   29MOL0     C 3927   2.508   3.052   8.841  0.3658  0.0736  0.7279
   29MOL0     C 3928   2.364   3.104   8.828 -0.1940  0.1934  0.5608
   29MOL0     C 3929   2.256   3.153   8.829  0.4143  0.2235 -0.1765
   29MOL0     C 3930   2.597   2.621   9.234  0.4395  0.7642 -0.3047
   29MOL0     C 3931   2.683   2.595   9.348 -0.7405  0.0983 -0.2239
   29MOL0     C 3932   2.614   2.524   9.463  0.3995 -0.3872 -0.1025
   29MOL0     H 3933   3.182   2.853   9.542  0.4250 -0.1187  1.4266
   29MOL0     H 3934   3.386   2.832   9.696  3.8946 -1.7984 -2.1348
   29MOL0     H 3935   3.482   2.771   9.862  1.9724  2.0397  2.8997
   29MOL0     H 3936   3.644   2.708   9.831  0.4791  0.8000 -0.6179
   29MOL0     H 3937   3.629   2.707  10.072 -0.9244 -0.6011  2.1265
   29MOL0     H 3938   3.461   2.681  10.074  2.6467 -0.5059  3.7060
   29MOL0     H 3939   3.498   2.441  10.018  1.4894  0.3396 -2.4725
   29MOL0     H 3940   3.664   2.455   9.996  0.9120 -1.3665  1.6665
   29MOL0     H 3941   3.720   2.538  10.206 -0.4857  3.4589 -0.8527
   29MOL0     H 3942   3.551   2.555  10.266 -0.7067  2.1065 -2.6744
   29MOL0     H 3943   3.640   2.275  10.180  0.6972 -2.1349  2.7228
   29MOL0     H 3944   3.511   2.327  10.285  1.3901 -2.0926  3.0932
   29MOL0     H 3945   3.778   2.400  10.392  3.0468 -4.5844 -0.4458
   29MOL0     H 3946   3.629   2.368  10.477 -1.4559 -0.1154 -0.9119
   29MOL0     H 3947   3.773   2.160  10.310 -0.1936  0.9344 -0.2672
   29MOL0     H 3948   3.637   2.133  10.426  0.8509 -0.7852  2.0649
   29MOL0     H 3949   3.768   2.214  10.614  2.5938  2.7363  0.0967
   29MOL0     H 3950   3.830   2.064  10.546  2.5029  0.1712  1.6033
   29MOL0     H 3951   4.019   2.175  10.302 -2.8899 -0.9657  1.2969
   29MOL0     H 3952   4.348   2.336  10.447  0.5051 -2.1687 -0.2103
   29MOL0     H 3953   4.250   2.405  10.316 -1.4765 -0.6017 -0.0872
   29MOL0     H 3954   4.259   2.169  10.207 -0.6300 -2.6355  1.2563
   29MOL0     H 3955   4.425   2.231  10.251 -1.1261  1.2039 -0.8246
   29MOL0     H 3956   4.403   2.083  10.464  0.6149 -1.8482  0.4683
   29MOL0     H 3957   4.260   2.029  10.395 -0.6370  2.3905  0.5882
   29MOL0     H 3958   4.509   2.032  10.229  1.3782  1.9537  0.9517
   29MOL0     H 3959   4.484   1.911  10.361  1.7034  0.5220 -2.5390
   29MOL0     H 3960   4.598   1.793  10.252  2.6949 -0.7761 -1.0601
   29MOL0     H 3961   4.768   1.511  10.154 -1.2940 -1.1555 -3.0114
   29MOL0     H 3962   4.768   1.674  10.232  0.0809 -1.2393  1.3427
   29MOL0     H 3963   4.790   1.654  10.056  0.5091 -1.0110  0.4025
   29MOL0     H 3964   4.939   1.341   9.957 -1.8667 -0.1320  1.2073
   29MOL0     H 3965   5.063   1.159   9.850  0.0354 -0.6949 -2.4862
   29MOL0     H 3966   5.157   0.982   9.734  0.7476 -0.4386  0.1864
   29MOL0     H 3967   5.061   0.912   9.867 -2.4726  1.0172 -0.2118
   29MOL0     H 3968   5.044   0.708   9.753 -0.7181  1.2384  2.9612
   29MOL0     H 3969   5.100   0.773   9.602  0.0568 -1.3807  0.5559
   29MOL0     H 3970   5.244   0.768   9.867 -0.8264  0.6763 -0.2207
   29MOL0     H 3971   5.336   0.792   9.714  0.9204  1.0027  2.8406
   29MOL0     H 3972   5.201   0.537   9.809  2.7694 -1.3063  3.0781
   29MOL0     H 3973   5.375   0.559   9.774  0.1160 -1.6804 -1.8171
   29MOL0     H 3974   5.246   0.416   9.620 -0.2108 -0.0228  2.4487
   29MOL0     H 3975   5.162   0.564   9.559 -0.3083 -1.9682  0.5626
   29MOL0     H 3976   5.454   0.509   9.537  1.8889  2.8562  0.2168
   29MOL0     H 3977   5.390   0.672   9.513  2.1536 -0.4635 -2.7061
   29MOL0     H 3978   5.226   0.548   9.343  0.3448  1.8097  1.0148
   29MOL0     H 3979   5.352   0.414   9.355  0.4865  0.5828 -0.6123
   29MOL0     H 3980   5.383   0.550   9.157 -1.6108 -4.5448  1.5817
   29MOL0     H 3981   5.524   0.562   9.279 -0.4825 -0.7063  1.4948
   29MOL0     H 3982   4.709   1.014   9.664  1.7156 -1.6696  0.3681
   29MOL0     H 3983   4.570   1.180   9.781 -0.5642  0.6614  2.0468
   29MOL0     H 3984   4.318   1.508   9.949  2.8715 -0.7955 -1.3450
   29MOL0     H 3985   4.235   1.732  10.027 -0.8305 -2.1657 -0.2777
   29MOL0     H 3986   3.337   2.414   9.690  0.1192 -0.4096 -0.0750
   29MOL0     H 3987   3.131   2.434   9.545 -0.2903 -0.8817  3.3933
   29MOL0     H 3988   2.973   2.709   9.199  0.1260 -1.1584  1.6220
   29MOL0     H 3989   2.840   2.746   9.023 -0.4212  0.5066  0.7921
   29MOL0     H 3990   2.710   2.621   8.857  1.6260  1.9637  0.2554
   29MOL0     H 3991   2.541   2.637   8.808 -0.0470  3.2011 -1.7116
   29MOL0     H 3992   2.683   2.815   8.751 -0.9025  1.2989 -0.6431
   29MOL0     H 3993   2.691   2.879   8.917 -0.7716  2.7071 -1.9104
   29MOL0     H 3994   2.434   2.887   8.750 -0.8588 -1.3603  0.9243
   29MOL0     H 3995   2.435   2.880   8.931 -0.5003 -3.7198 -0.4591
   29MOL0     H 3996   2.563   3.095   8.757  1.4280 -0.5220  1.1017
   29MOL0     H 3997   2.543   3.100   8.933 -2.4493  2.5844  0.6584
   29MOL0     H 3998   2.166   3.210   8.833 -0.6600 -1.2838 -1.5897
   29MOL0     H 3999   2.492   2.594   9.236  0.3439  1.1131 -0.5910
   29MOL0     H 4000   2.612   2.421   9.424 -0.3619 -0.4608  0.1178
   29MOL0     H 4001   2.664   2.549   9.557 -0.3191 -1.4558  0.5891
   29MOL0     H 4002   2.510   2.556   9.470 -0.3851 -2.7767 -0.0141
   30MOL0     O 4003   0.219   5.751   3.991 -0.1469 -0.1354 -0.5174
   30MOL0     C 4004   0.192   5.845   3.915  0.5538  0.2383  0.6425
   30MOL0     O 4005   0.286   5.905   3.830 -0.3515 -0.7737  0.5157
   30MOL0     C 4006   0.414   5.857   3.808  0.6616  0.1409  0.6595
   30MOL0     C 4007   0.462   5.724   3.813 -0.1393  0.1622  0.5832
   30MOL0     C 4008   0.600   5.700   3.792  0.3377  0.1958 -0.2276
   30MOL0     C 4009   0.687   5.798   3.759  0.8428 -0.1442 -0.4637
   30MOL0     O 4010   0.816   5.760   3.732  0.0216  0.5942  0.1646
   30MOL0     C 4011   0.908   5.850   3.667 -0.7208  0.6598 -0.6780
   30MOL0     C 4012   1.037   5.784   3.623 -0.8976 -0.7208 -0.3256
   30MOL0     C 4013   1.122   5.883   3.536 -0.4989  0.2551 -0.5524
   30MOL0     C 4014   1.088   5.876   3.386 -0.8937  0.0640  0.6203
   30MOL0     C 4015   1.168   5.781   3.286  0.3031  0.4169 -0.4315
   30MOL0     C 4016   1.311   5.825   3.238 -0.0871  0.2340  0.0141
   30MOL0     C 4017   1.327   5.964   3.168  0.4555 -0.9097 -0.2186
   30MOL0     C 4018   1.478   5.993   3.151  0.5896  0.2511 -0.3126
   30MOL0     N 4019   1.515   6.139   3.152  0.2894  0.3020  0.4467
   30MOL0     C 4020   1.448   6.243   3.220  0.2355  0.7952 -0.1964
   30MOL0     C 4021   1.492   6.355   3.172 -0.0888  1.0295  0.2268
   30MOL0     C 4022   1.452   6.497   3.206  0.7000 -0.0368 -0.6697
   30MOL0     C 4023   1.430   6.522   3.353  0.2923 -0.3926 -0.4361
   30MOL0     C 4024   1.402   6.675   3.385  0.8099  0.4076  0.4564
   30MOL0     C 4025   1.252   6.711   3.387  0.0402  0.1614 -0.6242
   30MOL0     O 4026   1.202   6.680   3.525  0.1181 -0.3260  0.0569
   30MOL0     C 4027   1.070   6.701   3.561  0.1021 -0.3023  0.2991
   30MOL0     C 4028   1.024   6.640   3.675  0.9237  0.2482  0.1707
   30MOL0     C 4029   0.895   6.658   3.724 -0.0712  0.6530  0.4587
   30MOL0     C 4030   0.864   6.596   3.863 -0.0442  0.0343 -0.4669
   30MOL0     C 4031   0.799   6.739   3.647  0.6690  0.5047 -0.3078
   30MOL0     C 4032   0.654   6.751   3.684  0.5598  0.1422  0.2282
   30MOL0     O 4033   0.585   6.854   3.624  0.1081 -0.7311 -0.9681
   30MOL0     C 4034   0.451   6.868   3.662 -0.1729 -0.5310  0.1709
   30MOL0     C 4035   0.408   6.914   3.786  0.2912  0.5437 -0.8383
   30MOL0     C 4036   0.267   6.923   3.821  0.1407 -1.0114  0.3721
   30MOL0     C 4037   0.173   6.875   3.730 -0.1698 -0.0708 -0.1884
   30MOL0     O 4038   0.038   6.870   3.752  0.0687  0.4021  1.1359
   30MOL0     C 4039  -0.008   6.920   3.877  0.1501  0.4486 -1.0653
   30MOL0     C 4040  -0.167   6.907   3.887  0.0546 -0.2371  0.5270
   30MOL0     C 4041  -0.235   6.990   3.777 -0.1084 -0.3720  0.6151
   30MOL0     C 4042  -0.387   6.982   3.799 -0.9885  0.5731 -0.8779
   30MOL0     C 4043  -0.463   7.077   3.704 -1.5659 -0.7113  0.3225
   30MOL0     C 4044  -0.617   7.082   3.740 -0.6346  0.0055 -0.0214
   30MOL0     C 4045  -0.696   7.134   3.625  0.0717 -0.2905 -0.6168
   30MOL0     C 4046  -0.854   7.139   3.662  0.0581  0.8973 -0.3292
   30MOL0    Cl 4047  -0.888   7.271   3.793  0.1163  0.2731 -0.0605
   30MOL0     C 4048   0.219   6.841   3.599 -0.2388 -0.5217  0.1930
   30MOL0     C 4049   0.356   6.843   3.563 -0.1509  0.2560  0.9482
   30MOL0     O 4050   0.603   6.668   3.760  0.1663  0.1845  0.4726
   30MOL0     C 4051   0.847   6.799   3.530  0.1976  0.1490 -0.2047
   30MOL0     C 4052   0.972   6.777   3.485  0.2470 -1.2848 -0.0768
   30MOL0     N 4053   1.588   6.325   3.073  0.1630 -0.1253 -0.0936
   30MOL0     N 4054   1.594   6.194   3.061 -0.2857  0.0526 -0.0170
   30MOL0     C 4055   0.636   5.934   3.758 -0.4279  0.5371  0.0421
   30MOL0     C 4056   0.499   5.966   3.785  0.7832  0.4222  1.1098
   30MOL0     C 4057   0.062   5.912   3.902  0.3086  0.3689 -0.9112
   30MOL0     C 4058   0.050   6.028   3.824 -0.0331 -0.4078 -0.5462
   30MOL0     C 4059  -0.072   6.096   3.820 -0.2152 -0.4023  0.4409
   30MOL0     C 4060  -0.185   6.057   3.897  0.2784  0.3835 -0.6913
   30MOL0     O 4061  -0.296   6.143   3.891 -0.3075 -0.3510 -0.0377
   30MOL0     C 4062  -0.417   6.098   3.947  0.4629  0.1639 -0.1188
   30MOL0     C 4063  -0.429   6.166   4.082  0.7680  0.6452 -0.0091
   30MOL0     C 4064  -0.552   6.262   4.079 -0.4598  0.1975 -0.0040
   30MOL0     C 4065  -0.679   6.194   4.130  0.7062 -0.4291  0.8271
   30MOL0     C 4066  -0.666   6.158   4.271  0.9061  0.7297 -0.8118
   30MOL0     C 4067  -0.654   6.120   4.387 -0.6728  0.9748 -0.2657
   30MOL0     C 4068  -0.173   5.948   3.986  0.9002  0.7412  0.5294
   30MOL0     C 4069  -0.056   5.869   3.984 -0.7984  0.3795  0.2462
   30MOL0     C 4070  -0.061   5.727   4.049 -0.1641 -0.3898 -0.1301
   30MOL0     H 4071   0.395   5.641   3.833 -1.6576  1.0632 -0.5509
   30MOL0     H 4072   0.643   5.600   3.789 -2.8505 -1.2702 -1.1020
   30MOL0     H 4073   0.931   5.943   3.720 -0.7483  2.7828 -4.0628
   30MOL0     H 4074   0.863   5.886   3.573  0.6342  1.8476 -0.9129
   30MOL0     H 4075   1.091   5.750   3.711 -1.6398 -1.4011 -0.1264
   30MOL0     H 4076   1.020   5.701   3.554 -0.0996 -0.8458 -0.3709
   30MOL0     H 4077   1.125   5.987   3.570 -1.1083  0.4351 -1.0301
   30MOL0     H 4078   1.228   5.855   3.538  0.0663  2.3074  0.3560
   30MOL0     H 4079   0.981   5.865   3.367 -0.9073  1.4116 -0.2897
   30MOL0     H 4080   1.114   5.978   3.355  0.3270  0.2832  2.2312
   30MOL0     H 4081   1.110   5.782   3.193  2.9481  1.9978 -2.1846
   30MOL0     H 4082   1.169   5.681   3.331 -2.1527 -1.5130 -4.1416
   30MOL0     H 4083   1.367   5.825   3.332 -2.4256  0.2940  1.4826
   30MOL0     H 4084   1.360   5.748   3.177  2.4013  1.5677  0.1849
   30MOL0     H 4085   1.292   6.047   3.230  2.4046  0.4690 -0.8380
   30MOL0     H 4086   1.274   5.978   3.073 -0.5281  2.0056  0.6437
   30MOL0     H 4087   1.525   5.935   3.231 -0.9418  1.2013  1.3782
   30MOL0     H 4088   1.510   5.952   3.055  1.3238 -0.5788  0.2742
   30MOL0     H 4089   1.373   6.226   3.296 -0.2902  1.3928 -0.5773
   30MOL0     H 4090   1.367   6.527   3.143  1.2541 -2.6768 -2.8994
   30MOL0     H 4091   1.531   6.566   3.177  0.6990  0.8177  1.2469
   30MOL0     H 4092   1.340   6.464   3.376 -0.6382  1.2671  0.2371
   30MOL0     H 4093   1.509   6.476   3.413 -0.6512  0.2401  1.3486
   30MOL0     H 4094   1.434   6.688   3.489  1.3534 -1.3924  0.5353
   30MOL0     H 4095   1.455   6.741   3.315 -3.2761  2.1928 -1.2740
   30MOL0     H 4096   1.235   6.817   3.369  3.3811  0.6106 -1.8894
   30MOL0     H 4097   1.196   6.643   3.322 -0.3788 -1.5201  1.4004
   30MOL0     H 4098   1.106   6.592   3.727  0.9279  0.4288  0.3298
   30MOL0     H 4099   0.852   6.683   3.928  0.1874  0.9724 -1.6458
   30MOL0     H 4100   0.949   6.541   3.904 -0.8541 -0.3138  0.8353
   30MOL0     H 4101   0.771   6.539   3.870  0.0678  0.0661  3.8501
   30MOL0     H 4102   0.489   6.934   3.855  1.0134 -1.6715 -0.9821
   30MOL0     H 4103   0.236   6.952   3.921 -1.7957 -1.9313  0.0816
   30MOL0     H 4104   0.027   6.853   3.956 -0.8232  1.1756  0.0125
   30MOL0     H 4105   0.036   7.018   3.899 -0.3015  0.4334 -0.0426
   30MOL0     H 4106  -0.185   6.800   3.875  1.3425 -0.4422  0.2013
   30MOL0     H 4107  -0.199   6.945   3.984 -0.0955  2.5354 -0.4991
   30MOL0     H 4108  -0.201   6.955   3.680  0.6275  1.7266  0.0734
   30MOL0     H 4109  -0.197   7.092   3.789  0.8383 -0.6412 -0.0353
   30MOL0     H 4110  -0.412   7.019   3.899 -3.2138  2.5572 -2.0772
   30MOL0     H 4111  -0.429   6.884   3.776  0.7824 -0.1810 -1.0535
   30MOL0     H 4112  -0.414   7.175   3.706 -0.2370 -1.3640  1.2718
   30MOL0     H 4113  -0.450   7.044   3.601  1.3937 -1.4337  0.8331
   30MOL0     H 4114  -0.639   7.146   3.826 -2.6057  1.1133 -1.2860
   30MOL0     H 4115  -0.641   6.977   3.757  0.6977 -0.5028 -1.0850
   30MOL0     H 4116  -0.678   7.075   3.534  2.5460  1.2756 -1.2370
   30MOL0     H 4117  -0.675   7.237   3.595 -0.3232 -1.4104 -5.7894
   30MOL0     H 4118  -0.884   7.041   3.700 -0.8090  1.6156  0.9171
   30MOL0     H 4119  -0.898   7.162   3.564  3.4999  1.9646 -1.7775
   30MOL0     H 4120   0.151   6.822   3.517 -0.3220 -0.7776  0.3198
   30MOL0     H 4121   0.400   6.823   3.466 -0.1046  0.6294  0.8912
   30MOL0     H 4122   0.789   6.871   3.474  0.3718 -0.1896 -0.8266
   30MOL0     H 4123   1.001   6.825   3.392 -0.1725 -0.6357  0.1174
   30MOL0     H 4124   0.704   6.009   3.718  0.9139 -0.8796 -0.4184
   30MOL0     H 4125   0.480   6.070   3.760  1.7203  0.5539  0.9168
   30MOL0     H 4126   0.127   6.071   3.761  0.1074 -0.6595 -0.5457
   30MOL0     H 4127  -0.098   6.188   3.768 -1.4605 -0.2060  1.3666
   30MOL0     H 4128  -0.496   6.121   3.875 -1.2448 -0.7113  1.3926
   30MOL0     H 4129  -0.416   5.989   3.956 -1.8803  0.0046 -1.0987
   30MOL0     H 4130  -0.339   6.229   4.086  0.6936  0.7042  2.3620
   30MOL0     H 4131  -0.434   6.095   4.166  0.3824 -1.0526 -1.4179
   30MOL0     H 4132  -0.541   6.356   4.133 -2.9229 -0.2617  1.4709
   30MOL0     H 4133  -0.567   6.287   3.974 -2.2762 -1.3622 -0.1814
   30MOL0     H 4134  -0.688   6.092   4.092 -1.2654 -1.1625  2.9954
   30MOL0     H 4135  -0.770   6.251   4.111  1.1650  0.4048  1.1077
   30MOL0     H 4136  -0.644   6.078   4.485 -1.0740  1.9719  0.2076
   30MOL0     H 4137  -0.255   5.908   4.046  2.0395 -1.5161  0.6457
   30MOL0     H 4138  -0.165   5.712   4.077 -0.1564  0.6280  0.4966
   30MOL0     H 4139  -0.033   5.649   3.979  3.5791  0.9088 -0.3128
   30MOL0     H 4140   0.008   5.718   4.134 -0.5690 -0.2239  0.2167
   31MOL0     O 4141   9.277   8.649   7.405 -0.6214  0.2047  0.0622
   31MOL0     C 4142   9.399   8.681   7.390  0.1772 -0.3070 -0.2012
   31MOL0     O 4143   9.496   8.600   7.341 -0.0476  0.4394 -0.0097
   31MOL0     C 4144   9.461   8.462   7.339 -0.3403  0.5337 -1.0378
   31MOL0     C 4145   9.526   8.373   7.426  0.0398 -0.0837  0.1663
   31MOL0     C 4146   9.509   8.230   7.423 -1.3575 -0.7002  0.2146
   31MOL0     C 4147   9.425   8.180   7.329 -0.1202  0.4343 -0.7106
   31MOL0     O 4148   9.391   8.044   7.326 -0.1408 -0.0452  0.5458
   31MOL0     C 4149   9.401   7.964   7.448 -0.4468 -0.2831 -0.1141
   31MOL0     C 4150   9.270   7.878   7.463  0.3756  0.1568  0.0587
   31MOL0     C 4151   9.267   7.808   7.604  0.5627 -0.3620  0.1558
   31MOL0     C 4152   9.336   7.674   7.592  0.0574 -0.1721  0.0256
   31MOL0     C 4153   9.379   7.630   7.731  0.1923  0.5921 -0.4459
   31MOL0     C 4154   9.419   7.481   7.726  0.3806  0.1854 -0.6968
   31MOL0     C 4155   9.526   7.451   7.843  0.1405  0.8903 -0.5174
   31MOL0     C 4156   9.571   7.302   7.831  0.0628 -0.0157  0.1996
   31MOL0     N 4157   9.636   7.274   7.958 -0.2473  0.0768  0.1737
   31MOL0     C 4158   9.576   7.246   8.070 -0.0161 -0.0050  0.4048
   31MOL0     C 4159   9.673   7.244   8.165 -0.2836 -0.8190 -1.1278
   31MOL0     C 4160   9.671   7.214   8.315  0.0080 -0.4599 -0.2790
   31MOL0     C 4161   9.586   7.084   8.335  0.6231  0.5343  0.6437
   31MOL0     C 4162   9.648   6.955   8.278 -0.1725 -0.1968  0.0345
   31MOL0     C 4163   9.570   6.904   8.147  0.3241  0.8011 -0.5102
   31MOL0     O 4164   9.497   6.780   8.177 -0.2410  0.4785  0.0631
   31MOL0     C 4165   9.469   6.703   8.073  0.3086  0.2801 -0.3100
   31MOL0     C 4166   9.433   6.574   8.106  0.6888 -0.3907  0.9002
   31MOL0     C 4167   9.418   6.472   8.010 -1.1549 -0.4336 -0.6770
   31MOL0     C 4168   9.394   6.333   8.073  0.6851  0.8993  0.7719
   31MOL0     C 4169   9.423   6.500   7.874  0.1939  0.4981  0.5939
   31MOL0     C 4170   9.386   6.406   7.759  0.5438  0.4975 -0.6166
   31MOL0     O 4171   9.315   6.301   7.799 -0.3196  0.1059 -0.1375
   31MOL0     C 4172   9.285   6.197   7.713  0.0011  0.8305  0.5231
   31MOL0     C 4173   9.229   6.083   7.780  0.1481 -0.9174  0.1801
   31MOL0     C 4174   9.191   5.974   7.711 -0.5273  0.6966 -1.7226
   31MOL0     C 4175   9.207   5.972   7.577  1.0999  0.9908  0.2153
   31MOL0     O 4176   9.160   5.851   7.521  0.2395  0.8844 -0.2905
   31MOL0     C 4177   9.122   5.861   7.381  0.4439  0.2574 -0.4422
   31MOL0     C 4178   9.029   5.747   7.347 -0.1282  0.1514  0.0679
   31MOL0     C 4179   9.102   5.610   7.368 -0.0959  0.5288 -0.5961
   31MOL0     C 4180   9.025   5.495   7.291  0.7076 -0.5698  0.0950
   31MOL0     C 4181   9.054   5.353   7.346  0.4853  0.0153  0.3149
   31MOL0     C 4182   9.009   5.238   7.250  0.3773  0.7588  0.3571
   31MOL0     C 4183   9.067   5.102   7.278 -0.1780  0.3581  0.0805
   31MOL0     C 4184   8.995   4.998   7.190  0.1729 -0.5524  0.3602
   31MOL0    Cl 4185   8.972   5.046   7.017  0.3456  0.0786  0.4381
   31MOL0     C 4186   9.267   6.070   7.504 -0.0211  0.7855  0.0717
   31MOL0     C 4187   9.293   6.191   7.566 -0.3978 -0.4640 -0.6586
   31MOL0     O 4188   9.415   6.434   7.648  0.5493  0.4736  0.3797
   31MOL0     C 4189   9.435   6.635   7.837  0.3325 -1.0945  0.7585
   31MOL0     C 4190   9.470   6.733   7.929  0.6986 -0.4206 -0.8753
   31MOL0     N 4191   9.789   7.281   8.102  0.0542  0.4638 -0.4562
   31MOL0     N 4192   9.765   7.304   7.976  0.5336 -0.1864 -0.5135
   31MOL0     C 4193   9.360   8.265   7.227 -0.6039 -0.0878  0.5919
   31MOL0     C 4194   9.379   8.407   7.239 -0.0027  0.5650 -0.0229
   31MOL0     C 4195   9.446   8.813   7.442 -0.4817 -0.4472 -0.0287
   31MOL0     C 4196   9.585   8.849   7.423  0.5900  0.4564  0.4274
   31MOL0     C 4197   9.637   8.963   7.477  0.0583 -0.3194 -0.4549
   31MOL0     C 4198   9.555   9.056   7.544 -0.5437  0.0515  0.3462
   31MOL0     O 4199   9.624   9.159   7.592  0.4457 -0.4288  0.3239
   31MOL0     C 4200   9.623   9.270   7.499  0.0542  0.0049  0.8901
   31MOL0     C 4201   9.757   9.272   7.422  0.4320 -0.1826  0.0959
   31MOL0     C 4202   9.759   9.408   7.337 -0.1607 -0.4620  0.1456
   31MOL0     C 4203   9.882   9.490   7.359 -0.0486 -0.2762  0.4870
   31MOL0     C 4204   9.885   9.543   7.495  0.8292  0.2556  0.8290
   31MOL0     C 4205   9.866   9.589   7.602 -0.2524  0.4500 -0.2793
   31MOL0     C 4206   9.414   9.033   7.549 -0.3443  0.1684  0.5099
   31MOL0     C 4207   9.357   8.917   7.496 -0.1712  0.6791 -0.6398
   31MOL0     C 4208   9.205   8.896   7.501 -0.5069  0.1162  0.0444
   31MOL0     H 4209   9.576   8.412   7.514  0.0423 -0.2169  0.2239
   31MOL0     H 4210   9.564   8.159   7.484 -1.5813 -0.8114  0.2885
   31MOL0     H 4211   9.416   8.024   7.538 -0.5991 -0.9697  0.3782
   31MOL0     H 4212   9.484   7.892   7.441 -1.8659 -2.2326  1.6319
   31MOL0     H 4213   9.177   7.932   7.444  0.8743  0.7641 -0.7256
   31MOL0     H 4214   9.287   7.806   7.382  4.2450  2.2084 -1.1900
   31MOL0     H 4215   9.319   7.863   7.683  2.7350 -1.4083 -0.4744
   31MOL0     H 4216   9.160   7.798   7.626  0.6814 -1.7131  0.2372
   31MOL0     H 4217   9.275   7.600   7.538  2.3489 -1.1065 -1.4725
   31MOL0     H 4218   9.427   7.693   7.534 -2.0366  0.6177 -3.2505
   31MOL0     H 4219   9.294   7.639   7.800  1.1216  0.5198  0.7441
   31MOL0     H 4220   9.452   7.697   7.777  1.7197  0.2486 -2.2753
   31MOL0     H 4221   9.328   7.423   7.744 -0.8646  2.5158  1.0036
   31MOL0     H 4222   9.448   7.468   7.621  1.6864  1.5565 -0.5370
   31MOL0     H 4223   9.473   7.468   7.938 -0.8984  1.6256 -1.1990
   31MOL0     H 4224   9.617   7.511   7.834  0.2120  0.4185 -4.9096
   31MOL0     H 4225   9.477   7.249   7.819  0.9451 -1.9442  1.3441
   31MOL0     H 4226   9.638   7.283   7.746  1.4459  1.4015  0.9303
   31MOL0     H 4227   9.471   7.220   8.081 -0.1976 -2.5079 -4.4056
   31MOL0     H 4228   9.618   7.299   8.359  1.2824  0.4340 -0.3901
   31MOL0     H 4229   9.775   7.209   8.350  0.3247  3.4490 -0.2278
   31MOL0     H 4230   9.546   7.062   8.435 -0.7801 -4.4284 -0.6863
   31MOL0     H 4231   9.490   7.106   8.288  1.4461  1.3644 -0.7157
   31MOL0     H 4232   9.752   6.972   8.249 -0.5368 -1.5096 -2.2604
   31MOL0     H 4233   9.644   6.873   8.351 -1.0314  0.0087  0.2301
   31MOL0     H 4234   9.513   6.985   8.100 -0.3507  0.9347  0.5220
   31MOL0     H 4235   9.654   6.872   8.084  2.1010  0.8056  1.7262
   31MOL0     H 4236   9.433   6.541   8.209 -0.9399  1.3242  1.5030
   31MOL0     H 4237   9.293   6.299   8.048  0.9869  0.1627  0.5018
   31MOL0     H 4238   9.416   6.321   8.179  2.7208 -2.3116  0.1376
   31MOL0     H 4239   9.464   6.273   8.013  0.6831  2.4982 -0.9175
   31MOL0     H 4240   9.226   6.091   7.888 -1.9811 -1.6092  0.2193
   31MOL0     H 4241   9.136   5.899   7.766 -0.4590  1.7379 -0.1556
   31MOL0     H 4242   9.069   5.955   7.361 -1.7528 -1.3116 -2.6369
   31MOL0     H 4243   9.210   5.853   7.317  2.0483 -3.4965  1.8972
   31MOL0     H 4244   8.944   5.750   7.416 -0.4665 -2.9386 -0.0747
   31MOL0     H 4245   8.980   5.758   7.250 -1.6502  0.4491  0.8292
   31MOL0     H 4246   9.099   5.587   7.475  0.2765  0.9957 -0.4825
   31MOL0     H 4247   9.208   5.621   7.342 -0.7769  1.2067 -3.5151
   31MOL0     H 4248   9.062   5.489   7.189 -1.3805 -1.5855 -0.6734
   31MOL0     H 4249   8.917   5.513   7.292  0.6602 -0.6853 -1.0867
   31MOL0     H 4250   9.160   5.331   7.330 -0.2534 -2.6238 -1.8315
   31MOL0     H 4251   9.025   5.346   7.451 -2.3821  1.1290 -0.3234
   31MOL0     H 4252   9.027   5.263   7.145  1.2428 -1.0278  0.0441
   31MOL0     H 4253   8.900   5.230   7.253  0.5248 -1.4571  1.6387
   31MOL0     H 4254   9.051   5.090   7.386  4.5932  0.9357  1.0740
   31MOL0     H 4255   9.176   5.096   7.274 -0.1822  0.1006  0.2848
   31MOL0     H 4256   8.896   4.981   7.234 -0.0753  1.5368  0.7354
   31MOL0     H 4257   9.046   4.902   7.198  0.4614 -0.3044  1.7415
   31MOL0     H 4258   9.283   6.069   7.397 -2.0567  2.0767 -0.3094
   31MOL0     H 4259   9.341   6.276   7.519  0.9818  0.0803  1.5573
   31MOL0     H 4260   9.433   6.665   7.733  0.5875  2.4449  1.6409
   31MOL0     H 4261   9.513   6.824   7.888  3.9972 -2.0491 -1.4011
   31MOL0     H 4262   9.292   8.225   7.152 -0.2181  2.2545 -1.1417
   31MOL0     H 4263   9.338   8.479   7.169 -1.8647  0.3905  0.8160
   31MOL0     H 4264   9.647   8.787   7.358 -3.6992 -4.1570  0.1295
   31MOL0     H 4265   9.744   8.972   7.461 -0.0014  0.0271 -0.6673
   31MOL0     H 4266   9.542   9.270   7.426  0.3798 -1.9793  0.4559
   31MOL0     H 4267   9.615   9.367   7.549  1.2869  0.5656  0.0619
   31MOL0     H 4268   9.761   9.195   7.345  1.1985  0.9052 -0.9956
   31MOL0     H 4269   9.844   9.253   7.487  0.4467 -2.0962 -0.4437
   31MOL0     H 4270   9.747   9.400   7.228 -1.2508  2.4611 -0.0342
   31MOL0     H 4271   9.682   9.475   7.376  1.6461  0.2154  2.8684
   31MOL0     H 4272   9.908   9.562   7.281 -0.3848 -1.2801 -0.5744
   31MOL0     H 4273   9.967   9.422   7.346  0.0100  0.3500 -3.5675
   31MOL0     H 4274   9.861   9.613   7.707  2.9839  1.3008 -0.2179
   31MOL0     H 4275   9.347   9.115   7.571 -0.1550  0.1205  1.2963
   31MOL0     H 4276   9.144   8.981   7.535 -1.3751 -0.3052 -0.4258
   31MOL0     H 4277   9.167   8.879   7.400 -0.6107  4.1662 -0.8054
   31MOL0     H 4278   9.204   8.810   7.568 -0.3692  1.7125  2.1995
   32MOL0     O 4279   3.482   2.948   3.030 -0.4970 -0.4745  0.4658
   32MOL0     C 4280   3.509   2.834   3.044 -0.5643 -0.3817  0.2712
   32MOL0     O 4281   3.610   2.775   2.976 -0.4415 -0.0138  0.1314
   32MOL0     C 4282   3.709   2.842   2.919  0.7149 -0.4731 -0.1977
   32MOL0     C 4283   3.698   2.895   2.795 -0.1824  0.8926  0.6799
   32MOL0     C 4284   3.811   2.951   2.729  0.0250  0.2935  0.0398
   32MOL0     C 4285   3.920   2.988   2.804  0.3696 -1.1053 -0.0344
   32MOL0     O 4286   4.028   3.055   2.743  0.5377 -0.0390  0.3566
   32MOL0     C 4287   4.101   3.148   2.826 -0.2760  0.0130  0.3937
   32MOL0     C 4288   4.188   3.257   2.768  0.6922 -0.0897  0.1337
   32MOL0     C 4289   4.279   3.212   2.657  0.3342 -0.8858  1.3929
   32MOL0     C 4290   4.351   3.338   2.610 -1.1518 -0.2894  0.1454
   32MOL0     C 4291   4.474   3.304   2.533  0.2172 -0.4577 -0.3049
   32MOL0     C 4292   4.526   3.428   2.469 -0.3230 -0.2638 -0.9487
   32MOL0     C 4293   4.670   3.463   2.492  0.0734 -0.1611  0.0775
   32MOL0     C 4294   4.768   3.418   2.380  0.8680  0.2970  1.1397
   32MOL0     N 4295   4.897   3.468   2.411 -0.1874  0.5600 -0.3511
   32MOL0     C 4296   4.954   3.575   2.350 -1.0862  0.1054  0.6010
   32MOL0     C 4297   5.079   3.569   2.404 -0.0169 -0.4015 -1.5866
   32MOL0     C 4298   5.174   3.683   2.388 -0.1086  0.2104 -0.6721
   32MOL0     C 4299   5.177   3.792   2.502  1.0772  0.8538  0.7561
   32MOL0     C 4300   5.309   3.794   2.574 -0.2151  0.4970  0.3526
   32MOL0     C 4301   5.328   3.671   2.660  0.6353 -0.7858 -0.4895
   32MOL0     O 4302   5.429   3.704   2.751  0.4229  0.6330  0.5185
   32MOL0     C 4303   5.420   3.651   2.880  0.4069  0.5960 -0.6993
   32MOL0     C 4304   5.528   3.576   2.931 -0.4911  0.2009  0.3456
   32MOL0     C 4305   5.540   3.532   3.061 -0.3979  0.1354 -0.2007
   32MOL0     C 4306   5.667   3.454   3.105 -0.4319 -0.6798  0.1884
   32MOL0     C 4307   5.444   3.594   3.154  0.1782  0.1809  0.9669
   32MOL0     C 4308   5.447   3.593   3.300  0.4754 -0.2967 -0.7290
   32MOL0     O 4309   5.334   3.622   3.375 -0.2892 -0.0941 -0.0574
   32MOL0     C 4310   5.356   3.641   3.510 -0.6673 -0.1096  0.6583
   32MOL0     C 4311   5.325   3.767   3.563  0.1578  0.3137  0.5698
   32MOL0     C 4312   5.323   3.787   3.697 -0.6283  0.3456  0.2205
   32MOL0     C 4313   5.351   3.679   3.780  0.0065  0.5478  0.0541
   32MOL0     O 4314   5.345   3.703   3.916 -0.2337  1.0314  1.0667
   32MOL0     C 4315   5.379   3.589   4.000  0.9410  0.1937 -0.8268
   32MOL0     C 4316   5.335   3.633   4.137  0.1734 -0.8451  0.2294
   32MOL0     C 4317   5.351   3.533   4.246 -0.3652  0.2739  0.2345
   32MOL0     C 4318   5.500   3.494   4.268  0.3038 -0.0470  0.2386
   32MOL0     C 4319   5.550   3.392   4.364  0.5444  0.2245 -0.6192
   32MOL0     C 4320   5.499   3.396   4.505 -0.4080  0.5429  0.3124
   32MOL0     C 4321   5.568   3.302   4.604 -0.6161  0.9170  0.5854
   32MOL0     C 4322   5.516   3.301   4.751 -0.2098 -0.6133 -0.1956
   32MOL0    Cl 4323   5.584   3.165   4.847 -0.3818  0.6353  0.0310
   32MOL0     C 4324   5.382   3.553   3.728  0.6873  0.4100 -0.3555
   32MOL0     C 4325   5.377   3.529   3.589 -0.1926  0.2879 -1.1282
   32MOL0     O 4326   5.562   3.584   3.341  0.3873 -0.0023  0.4448
   32MOL0     C 4327   5.326   3.658   3.094 -0.1577  0.3798 -0.0910
   32MOL0     C 4328   5.313   3.689   2.964 -0.0351 -0.3829  0.1468
   32MOL0     N 4329   5.098   3.461   2.488  0.1909 -0.2934  0.2477
   32MOL0     N 4330   4.980   3.404   2.492 -0.8806  0.0707  0.2123
   32MOL0     C 4331   3.929   2.950   2.942  0.1877  0.0834  0.5556
   32MOL0     C 4332   3.829   2.865   2.986  0.6228  0.3660 -0.4918
   32MOL0     C 4333   3.431   2.750   3.144  0.2668  0.5574  0.8765
   32MOL0     C 4334   3.433   2.609   3.117  0.3450 -1.3775 -0.1273
   32MOL0     C 4335   3.354   2.525   3.191 -0.4488  0.3605  0.7885
   32MOL0     C 4336   3.283   2.571   3.300  0.0871 -0.8298 -0.4750
   32MOL0     O 4337   3.205   2.482   3.363  0.2622 -0.2442  0.0999
   32MOL0     C 4338   3.196   2.468   3.507 -0.3885 -0.1862  0.2481
   32MOL0     C 4339   3.131   2.340   3.551  0.4632  0.4836 -0.1839
   32MOL0     C 4340   3.195   2.221   3.483 -0.3950 -0.5689 -0.1116
   32MOL0     C 4341   3.124   2.092   3.544 -0.2056 -0.1363  0.4712
   32MOL0     C 4342   3.191   2.050   3.673  0.0798 -0.1328  0.2229
   32MOL0     C 4343   3.236   2.023   3.782  0.5335  0.2533  0.5442
   32MOL0     C 4344   3.289   2.710   3.334  0.6176  0.0345 -0.2763
   32MOL0     C 4345   3.359   2.799   3.255  0.3132  0.0588  0.2014
   32MOL0     C 4346   3.364   2.940   3.304  0.6755  0.1912  0.2386
   32MOL0     H 4347   3.609   2.895   2.734  0.3464  0.6642 -0.1177
   32MOL0     H 4348   3.802   2.989   2.628  2.5852  3.5280  0.8336
   32MOL0     H 4349   4.180   3.088   2.873 -0.4362 -0.6613 -0.1805
   32MOL0     H 4350   4.033   3.188   2.900  0.6489  1.1110  0.6773
   32MOL0     H 4351   4.118   3.332   2.732  1.6947  0.3281 -1.0130
   32MOL0     H 4352   4.239   3.304   2.853  0.9243 -0.4801  0.2146
   32MOL0     H 4353   4.344   3.134   2.699  0.3147 -0.5344  2.1033
   32MOL0     H 4354   4.241   3.167   2.565  3.6799 -1.1223  0.0049
   32MOL0     H 4355   4.287   3.398   2.545 -2.3190 -0.7715  0.8134
   32MOL0     H 4356   4.387   3.397   2.694 -0.5933  1.1953 -1.0902
   32MOL0     H 4357   4.464   3.238   2.447  3.2591 -1.8817  0.3246
   32MOL0     H 4358   4.539   3.251   2.603 -2.1026 -1.5205  1.1901
   32MOL0     H 4359   4.517   3.414   2.360 -2.3811 -2.0016 -0.6280
   32MOL0     H 4360   4.463   3.513   2.495 -0.3087 -0.1391 -1.3194
   32MOL0     H 4361   4.694   3.415   2.588  2.4195  0.7357 -0.0080
   32MOL0     H 4362   4.672   3.571   2.506  1.1056  0.0974 -1.8003
   32MOL0     H 4363   4.759   3.310   2.372 -0.3992  0.3932  1.0652
   32MOL0     H 4364   4.734   3.458   2.284 -1.5337  0.0676  1.8186
   32MOL0     H 4365   4.915   3.656   2.290  0.2095  0.5562  0.3284
   32MOL0     H 4366   5.148   3.732   2.294 -2.4185  0.5536  0.0896
   32MOL0     H 4367   5.278   3.652   2.375 -0.1505 -0.3042  0.1158
   32MOL0     H 4368   5.150   3.890   2.461 -0.8966  0.4851  1.0560
   32MOL0     H 4369   5.095   3.766   2.570  0.7137 -3.1501 -0.8844
   32MOL0     H 4370   5.384   3.789   2.495 -0.4078 -1.2913  0.2431
   32MOL0     H 4371   5.320   3.885   2.633 -0.3909  1.5037 -1.1195
   32MOL0     H 4372   5.238   3.636   2.711 -0.3035  0.7519 -1.0212
   32MOL0     H 4373   5.359   3.587   2.598  0.7154 -0.6280 -0.6652
   32MOL0     H 4374   5.608   3.539   2.868 -0.0837 -0.7464  1.3929
   32MOL0     H 4375   5.746   3.516   3.147  0.5862 -0.0839 -2.4285
   32MOL0     H 4376   5.714   3.413   3.016 -0.0804  0.5744 -0.2254
   32MOL0     H 4377   5.639   3.383   3.183 -2.0341  1.6308  1.8608
   32MOL0     H 4378   5.298   3.854   3.505  3.4180  2.4124  1.8971
   32MOL0     H 4379   5.308   3.886   3.739 -1.0261 -0.5208  2.2043
   32MOL0     H 4380   5.313   3.504   3.982  0.3935  0.3592  0.2924
   32MOL0     H 4381   5.486   3.566   4.000  1.3941  2.0782  0.3532
   32MOL0     H 4382   5.399   3.719   4.161 -2.8296  1.0570  2.1390
   32MOL0     H 4383   5.231   3.666   4.132  0.0957 -1.2368 -4.0771
   32MOL0     H 4384   5.310   3.436   4.214  1.2123 -0.8322  1.4154
   32MOL0     H 4385   5.307   3.572   4.338 -0.9953  0.6204 -0.2094
   32MOL0     H 4386   5.546   3.591   4.290 -0.4937  0.5054 -0.4478
   32MOL0     H 4387   5.544   3.471   4.171 -0.2858 -0.4368  0.0620
   32MOL0     H 4388   5.535   3.292   4.324 -0.7277  0.0346  0.2589
   32MOL0     H 4389   5.656   3.417   4.357  0.4418  3.0217  3.7817
   32MOL0     H 4390   5.393   3.369   4.504 -0.9053  2.3545 -1.4267
   32MOL0     H 4391   5.503   3.499   4.542  3.6513  1.0425 -1.0494
   32MOL0     H 4392   5.677   3.307   4.614 -0.3777 -1.6159 -0.0634
   32MOL0     H 4393   5.539   3.209   4.555  1.2582  0.1900  0.7804
   32MOL0     H 4394   5.407   3.305   4.747 -0.1996 -0.9837 -1.1428
   32MOL0     H 4395   5.555   3.383   4.812 -3.2398  1.6302 -1.0716
   32MOL0     H 4396   5.433   3.481   3.791  1.6404  2.6517  1.6051
   32MOL0     H 4397   5.403   3.440   3.531  1.4120  1.5513 -2.4449
   32MOL0     H 4398   5.258   3.709   3.162  0.0776 -1.6203  1.7361
   32MOL0     H 4399   5.239   3.754   2.919  0.2787  0.1266  0.3591
   32MOL0     H 4400   4.020   2.970   2.999  0.4146  1.4700 -0.2637
   32MOL0     H 4401   3.848   2.831   3.087  0.0307 -1.8759 -1.0917
   32MOL0     H 4402   3.479   2.574   3.026 -3.6002 -0.4211 -2.7451
   32MOL0     H 4403   3.354   2.419   3.168  1.9016  0.3841  0.4185
   32MOL0     H 4404   3.295   2.487   3.548  1.2662  0.8057 -3.7635
   32MOL0     H 4405   3.128   2.546   3.543 -2.5039 -1.3752 -0.9596
   32MOL0     H 4406   3.024   2.350   3.527  0.3099  0.2207  0.3614
   32MOL0     H 4407   3.140   2.328   3.660  3.9288 -2.5214 -0.6104
   32MOL0     H 4408   3.175   2.215   3.375  0.8715  0.7583 -0.4636
   32MOL0     H 4409   3.303   2.222   3.495 -0.2558 -0.1708 -1.2300
   32MOL0     H 4410   3.137   2.017   3.465  2.0339  3.2645 -2.7835
   32MOL0     H 4411   3.017   2.108   3.559 -0.2571  1.0946 -0.9264
   32MOL0     H 4412   3.281   1.985   3.871  0.7060 -1.5841 -0.2883
   32MOL0     H 4413   3.237   2.747   3.422  0.7373  0.9218 -0.5709
   32MOL0     H 4414   3.466   2.973   3.322 -0.2978  1.5829  4.2037
   32MOL0     H 4415   3.314   3.010   3.237  2.0188 -0.8831 -1.9893
   32MOL0     H 4416   3.313   2.952   3.401 -0.2370  0.8907 -0.3067
   33MOL0     O 4417   8.484  10.183   8.372 -0.1000  0.4965 -0.0961
   33MOL0     C 4418   8.598  10.138   8.402 -0.1873 -0.0449 -0.3396
   33MOL0     O 4419   8.636  10.131   8.532  0.0150 -0.9482  0.4238
   33MOL0     C 4420   8.555  10.146   8.646 -0.3974  0.4721 -0.4103
   33MOL0     C 4421   8.424  10.136   8.653  1.3783 -0.0458 -0.7764
   33MOL0     C 4422   8.342  10.177   8.760  0.5653  0.3194  0.1936
   33MOL0     C 4423   8.398  10.225   8.877 -0.9827 -0.1287 -0.0890
   33MOL0     O 4424   8.313  10.259   8.969  0.4122  0.1933  0.0802
   33MOL0     C 4425   8.358  10.295   9.098 -0.2873 -0.3640  0.2136
   33MOL0     C 4426   8.232  10.313   9.191 -0.0612 -0.0652  0.8749
   33MOL0     C 4427   8.155  10.183   9.217 -0.9388 -0.5642  0.6981
   33MOL0     C 4428   8.071  10.204   9.347 -0.2813 -0.8047 -0.4074
   33MOL0     C 4429   7.959  10.091   9.367 -0.2472  0.3938 -0.4335
   33MOL0     C 4430   8.020   9.945   9.406 -0.3899  0.3428  0.4380
   33MOL0     C 4431   7.908   9.844   9.441  0.6686  0.5266 -0.0065
   33MOL0     C 4432   7.832   9.808   9.306  0.1091 -0.4217 -0.8982
   33MOL0     N 4433   7.745   9.690   9.313 -0.1753  0.8150  0.0870
   33MOL0     C 4434   7.635   9.685   9.395  0.8181  1.0065  0.4604
   33MOL0     C 4435   7.576   9.570   9.369 -0.9507  0.0786 -0.3766
   33MOL0     C 4436   7.467   9.504   9.453  0.1700 -0.0372  0.1523
   33MOL0     C 4437   7.326   9.532   9.388 -0.2938 -0.0540 -0.1987
   33MOL0     C 4438   7.199   9.458   9.431  0.0905 -0.5713  0.0865
   33MOL0     C 4439   7.208   9.314   9.385  0.4202 -0.0541  0.5711
   33MOL0     O 4440   7.085   9.251   9.419  1.2575 -0.3167 -1.1630
   33MOL0     C 4441   7.069   9.114   9.398  1.1969  1.1286 -0.2256
   33MOL0     C 4442   6.950   9.047   9.431  0.0352  0.6903  0.1804
   33MOL0     C 4443   6.935   8.910   9.407  0.0879 -0.1900  0.0976
   33MOL0     C 4444   6.798   8.851   9.446 -0.7429  0.5682  0.3893
   33MOL0     C 4445   7.039   8.834   9.350 -0.8467  0.6549 -1.1439
   33MOL0     C 4446   7.031   8.697   9.302 -0.2503 -0.3493  0.3791
   33MOL0     O 4447   7.097   8.605   9.378 -0.3779  0.0620 -0.4772
   33MOL0     C 4448   7.087   8.472   9.344  0.2887 -0.2452  0.0905
   33MOL0     C 4449   6.964   8.413   9.373  0.0167 -0.3861 -0.1228
   33MOL0     C 4450   6.950   8.283   9.318  0.1971 -0.7891 -0.4024
   33MOL0     C 4451   7.057   8.204   9.264 -0.4377  0.2853 -0.2499
   33MOL0     O 4452   7.053   8.065   9.240  0.0339  0.1127 -0.1865
   33MOL0     C 4453   6.927   8.009   9.194  0.1689  0.5917  0.6227
   33MOL0     C 4454   6.946   7.856   9.187 -0.2613  0.6841 -0.5156
   33MOL0     C 4455   6.820   7.774   9.153  0.5289 -0.1498  0.2898
   33MOL0     C 4456   6.843   7.621   9.121 -0.3283 -0.6791 -0.7693
   33MOL0     C 4457   6.704   7.562   9.099  0.7827 -0.8935  0.3240
   33MOL0     C 4458   6.632   7.523   9.233 -0.7112  0.4372  0.3786
   33MOL0     C 4459   6.489   7.472   9.204  0.4543 -0.9681  0.5988
   33MOL0     C 4460   6.491   7.324   9.206  1.0770  1.0266  0.2757
   33MOL0    Cl 4461   6.552   7.283   9.035 -0.0564  0.0098 -0.0205
   33MOL0     C 4462   7.179   8.280   9.233  0.4715  0.6047 -0.6842
   33MOL0     C 4463   7.194   8.406   9.275  0.4462 -0.6820  0.6184
   33MOL0     O 4464   6.953   8.674   9.212 -0.2563  0.3615  0.4848
   33MOL0     C 4465   7.156   8.901   9.325  0.3824 -0.0859  1.1401
   33MOL0     C 4466   7.171   9.034   9.347 -0.7335 -0.1083 -0.4904
   33MOL0     N 4467   7.658   9.495   9.284  1.3548  0.5213  0.8081
   33MOL0     N 4468   7.749   9.573   9.239 -0.9669 -0.1179 -0.3870
   33MOL0     C 4469   8.546  10.216   8.878 -0.2390  0.2320 -0.1522
   33MOL0     C 4470   8.618  10.185   8.761 -1.1568  1.0059  0.4123
   33MOL0     C 4471   8.672  10.069   8.294  0.1978 -0.2115 -0.0450
   33MOL0     C 4472   8.605  10.033   8.172  0.1625 -0.0758 -0.2419
   33MOL0     C 4473   8.673   9.985   8.058  0.0272 -0.2998 -0.8198
   33MOL0     C 4474   8.807   9.955   8.073 -0.3727  0.1696 -0.3488
   33MOL0     O 4475   8.862   9.897   7.969  0.1387 -0.0446 -0.1915
   33MOL0     C 4476   8.982   9.826   7.988 -0.4241 -0.3629  0.1197
   33MOL0     C 4477   9.058   9.821   7.852 -0.0610  0.2614 -0.4996
   33MOL0     C 4478   8.989   9.719   7.765 -0.3444 -0.5109  0.4328
   33MOL0     C 4479   9.056   9.712   7.627 -0.5270 -0.8779  0.2547
   33MOL0     C 4480   8.977   9.629   7.530  0.1683  0.2643 -0.2802
   33MOL0     C 4481   8.927   9.557   7.450  0.2052  0.4523 -0.5087
   33MOL0     C 4482   8.880   9.994   8.186  0.7207 -0.0262 -0.3839
   33MOL0     C 4483   8.810  10.056   8.297  0.4847  0.1111  0.8330
   33MOL0     C 4484   8.906  10.112   8.401 -0.1432  0.2207 -0.7431
   33MOL0     H 4485   8.368  10.102   8.566  0.7418  1.0642 -0.8251
   33MOL0     H 4486   8.236  10.156   8.770  0.3824  0.8916 -0.4832
   33MOL0     H 4487   8.409  10.391   9.095  0.0758 -0.3022  3.8075
   33MOL0     H 4488   8.432  10.232   9.148 -0.6817 -0.5863  0.5278
   33MOL0     H 4489   8.262  10.372   9.278  0.4591  1.0726 -0.0547
   33MOL0     H 4490   8.175  10.382   9.128  2.0203 -0.4564 -1.6031
   33MOL0     H 4491   8.100  10.153   9.127  0.5385 -0.0742 -0.3949
   33MOL0     H 4492   8.220  10.097   9.238 -2.1685 -2.1546 -1.5621
   33MOL0     H 4493   8.142  10.210   9.430 -1.8179  3.2788  0.8460
   33MOL0     H 4494   8.016  10.299   9.347 -0.1379 -0.5885  3.2588
   33MOL0     H 4495   7.888  10.078   9.285 -1.4694  0.3359  0.6091
   33MOL0     H 4496   7.893  10.130   9.444 -2.7624 -0.5584 -1.9790
   33MOL0     H 4497   8.066   9.913   9.312  1.0176 -2.4113  1.9531
   33MOL0     H 4498   8.086   9.952   9.492 -0.4792  0.8737  0.4686
   33MOL0     H 4499   7.846   9.887   9.520  1.2965  0.7621  0.3701
   33MOL0     H 4500   7.949   9.748   9.474 -2.6273 -0.2071  2.4114
   33MOL0     H 4501   7.769   9.884   9.259  0.8348  1.6743  1.3048
   33MOL0     H 4502   7.910   9.776   9.236  1.4293 -1.0905  0.8030
   33MOL0     H 4503   7.614   9.746   9.482 -1.5193  1.1879 -0.1721
   33MOL0     H 4504   7.473   9.535   9.558  1.0073 -2.7729  0.9992
   33MOL0     H 4505   7.485   9.396   9.458  1.7758  0.2480  1.6349
   33MOL0     H 4506   7.300   9.637   9.406 -0.1995 -0.3401  1.9227
   33MOL0     H 4507   7.344   9.512   9.282 -1.5143  1.9359 -0.8470
   33MOL0     H 4508   7.186   9.474   9.539 -4.9557  0.0674 -0.3792
   33MOL0     H 4509   7.112   9.507   9.387 -0.2309  0.7286  2.0586
   33MOL0     H 4510   7.238   9.298   9.281  1.2674  0.7672  0.6764
   33MOL0     H 4511   7.291   9.261   9.433  2.0662  0.1528 -1.8524
   33MOL0     H 4512   6.861   9.095   9.471 -0.9767 -0.4325 -0.6415
   33MOL0     H 4513   6.767   8.919   9.526  0.6415  1.5224  0.1530
   33MOL0     H 4514   6.804   8.746   9.475  2.7982  0.4742 -0.1474
   33MOL0     H 4515   6.721   8.859   9.369  0.5184 -0.0492 -0.9929
   33MOL0     H 4516   6.883   8.462   9.425  2.3316 -0.2545  3.7033
   33MOL0     H 4517   6.856   8.229   9.324  0.1285 -0.6664 -0.3508
   33MOL0     H 4518   6.845   8.034   9.262 -1.7717  1.0760 -1.7264
   33MOL0     H 4519   6.908   8.055   9.096 -3.5687  0.6874  1.2522
   33MOL0     H 4520   7.037   7.829   9.132  0.2554  3.8840 -1.4061
   33MOL0     H 4521   6.972   7.820   9.287  0.3666  0.4055 -0.7687
   33MOL0     H 4522   6.787   7.825   9.062 -0.8811 -0.0995  0.8008
   33MOL0     H 4523   6.735   7.798   9.218 -0.5834 -3.6985  0.3667
   33MOL0     H 4524   6.890   7.570   9.205 -0.7822  1.3651  0.8391
   33MOL0     H 4525   6.905   7.615   9.032 -1.4856 -0.4141 -1.6209
   33MOL0     H 4526   6.642   7.629   9.037 -0.6913 -2.6036 -0.1393
   33MOL0     H 4527   6.709   7.468   9.043 -1.6344 -2.2949  2.2617
   33MOL0     H 4528   6.632   7.611   9.297 -0.1397  0.8262 -0.1417
   33MOL0     H 4529   6.694   7.450   9.286 -0.4673 -0.7570 -1.4548
   33MOL0     H 4530   6.440   7.507   9.113 -2.1846  0.1898  2.3551
   33MOL0     H 4531   6.424   7.506   9.285 -1.4207  2.3653 -2.0790
   33MOL0     H 4532   6.390   7.284   9.214 -0.1318  4.0359  1.1970
   33MOL0     H 4533   6.554   7.276   9.282  0.8323  0.0804 -0.0969
   33MOL0     H 4534   7.264   8.219   9.203  0.3678  0.0616  0.1044
   33MOL0     H 4535   7.287   8.459   9.260 -1.2815  2.0804 -1.1276
   33MOL0     H 4536   7.231   8.856   9.261  1.8695  1.8470  1.4388
   33MOL0     H 4537   7.261   9.070   9.298 -0.3088 -1.4218 -0.6871
   33MOL0     H 4538   8.592  10.250   8.971 -0.0782  1.6058 -0.7108
   33MOL0     H 4539   8.726  10.187   8.755 -1.0682 -1.2178  0.3121
   33MOL0     H 4540   8.499  10.054   8.165  0.3679  0.6147 -1.6416
   33MOL0     H 4541   8.625   9.948   7.968 -2.8808 -0.4256  0.6780
   33MOL0     H 4542   9.042   9.869   8.068  0.6750 -0.1351 -0.7915
   33MOL0     H 4543   8.960   9.722   8.012  0.9484 -0.7601 -0.2379
   33MOL0     H 4544   9.158   9.781   7.870  0.2629 -1.6761 -5.2037
   33MOL0     H 4545   9.074   9.916   7.800  0.6600  0.1461 -0.4914
   33MOL0     H 4546   8.979   9.626   7.821 -1.3006  1.2023  3.3475
   33MOL0     H 4547   8.885   9.754   7.759  0.6188  2.6956  0.4540
   33MOL0     H 4548   9.151   9.660   7.642 -1.4884 -3.5005 -1.9290
   33MOL0     H 4549   9.081   9.810   7.587 -0.2518 -1.2447 -0.4845
   33MOL0     H 4550   8.882   9.494   7.376 -0.8500  0.1162  0.3878
   33MOL0     H 4551   8.986   9.991   8.208  0.7470 -1.3698 -0.5792
   33MOL0     H 4552   8.859  10.204   8.438 -0.9639  0.5491 -2.4848
   33MOL0     H 4553   8.918  10.037   8.480  1.6129  1.4212  0.2015
   33MOL0     H 4554   9.002  10.139   8.357  1.5286 -1.8384  1.3431
   34MOL0     O 4555   2.731   3.564   9.961  0.6805 -0.5489 -0.4385
   34MOL0     C 4556   2.710   3.440   9.955  0.1879  0.0493  1.3516
   34MOL0     O 4557   2.781   3.350  10.017  0.0468 -0.1942 -0.9577
   34MOL0     C 4558   2.912   3.368  10.056  1.4337  0.2525  0.1523
   34MOL0     C 4559   3.014   3.411   9.962 -0.2550 -0.0459 -0.3883
   34MOL0     C 4560   3.152   3.414  10.003 -0.5273 -0.2445  0.5725
   34MOL0     C 4561   3.188   3.355  10.124  0.5614 -0.2973  0.1897
   34MOL0     O 4562   3.310   3.325  10.158 -0.5152 -0.7165  0.2074
   34MOL0     C 4563   3.379   3.445  10.214 -0.7042  0.7146  0.3334
   34MOL0     C 4564   3.531   3.452  10.177 -0.5307 -1.0442 -0.2413
   34MOL0     C 4565   3.628   3.367  10.255  0.2819  0.1110  0.3834
   34MOL0     C 4566   3.776   3.361  10.207 -1.1255 -0.4682  0.1954
   34MOL0     C 4567   3.863   3.279  10.309 -0.4355  0.2570 -0.1151
   34MOL0     C 4568   4.011   3.320  10.302 -0.6373 -0.1199 -0.0601
   34MOL0     C 4569   4.037   3.463  10.342 -0.0470  0.3685  0.1741
   34MOL0     C 4570   3.967   3.509  10.468 -0.1723  0.2888 -0.5464
   34MOL0     N 4571   4.017   3.434  10.584  0.1260 -0.0015 -1.5033
   34MOL0     C 4572   3.942   3.341  10.648 -0.2556 -0.0981 -0.4736
   34MOL0     C 4573   4.036   3.270  10.724  0.6219  0.5477  1.1806
   34MOL0     C 4574   4.009   3.166  10.833  0.5394  0.2763  0.3330
   34MOL0     C 4575   4.054   3.034  10.794 -0.1625  0.2584 -0.4561
   34MOL0     C 4576   3.984   2.977  10.666  1.0203  0.0380 -1.0262
   34MOL0     C 4577   3.837   2.949  10.687  1.4462  0.0439  1.0481
   34MOL0     O 4578   3.780   2.866  10.591  0.8640  0.1461 -0.1576
   34MOL0     C 4579   3.642   2.871  10.553 -0.2142 -0.1507 -0.5186
   34MOL0     C 4580   3.571   2.982  10.519  0.8715 -0.5372  0.2997
   34MOL0     C 4581   3.443   2.966  10.447 -0.0912  0.9406 -0.7416
   34MOL0     C 4582   3.381   3.094  10.395  0.0535  0.4304 -0.5723
   34MOL0     C 4583   3.391   2.841  10.426  0.2791  1.4239 -0.3872
   34MOL0     C 4584   3.257   2.808  10.372  0.2281 -0.3236  0.5044
   34MOL0     O 4585   3.157   2.905  10.374 -0.0511  0.7815 -0.5536
   34MOL0     C 4586   3.020   2.886  10.346  0.0628 -0.7558  0.4670
   34MOL0     C 4587   2.953   2.762  10.338 -1.0230 -0.7997 -0.5296
   34MOL0     C 4588   2.814   2.762  10.315 -0.0286 -0.3673 -0.0365
   34MOL0     C 4589   2.733   2.880  10.312 -0.3942  0.0025 -0.4347
   34MOL0     O 4590   2.607   2.895  10.296  0.0328  0.6994  0.1525
   34MOL0     C 4591   2.512   2.798  10.322  0.2204 -0.1057  0.3704
   34MOL0     C 4592   2.383   2.844  10.254 -0.2096 -0.6278  0.0694
   34MOL0     C 4593   2.380   2.798  10.104  0.5243  0.3691 -0.7985
   34MOL0     C 4594   2.248   2.825  10.027 -1.4738  0.1614 -0.2876
   34MOL0     C 4595   2.264   2.764   9.883  0.5655 -0.1409  0.5580
   34MOL0     C 4596   2.139   2.813   9.804 -0.4771  0.2098 -0.8921
   34MOL0     C 4597   2.153   2.756   9.653  0.2509 -0.4433  0.1650
   34MOL0     C 4598   2.015   2.738   9.591 -0.3775 -0.2307 -0.2772
   34MOL0    Cl 4599   2.031   2.684   9.427  0.2969  0.4177 -0.2371
   34MOL0     C 4600   2.810   2.998  10.310 -0.0773 -0.5728  0.0267
   34MOL0     C 4601   2.949   3.003  10.327  0.6273 -1.1331 -0.1364
   34MOL0     O 4602   3.231   2.693  10.330 -0.0023 -0.3326 -0.3456
   34MOL0     C 4603   3.462   2.732  10.479  0.1779  1.1629  0.5840
   34MOL0     C 4604   3.582   2.744  10.540 -0.4957 -0.3115 -0.6244
   34MOL0     N 4605   4.156   3.329  10.711 -0.5933  1.1488 -1.0326
   34MOL0     N 4606   4.148   3.428  10.619 -0.8240  0.9802 -0.8161
   34MOL0     C 4607   3.085   3.320  10.207 -0.5292 -0.2748  0.5235
   34MOL0     C 4608   2.949   3.333  10.182  0.3364 -0.4462  0.1329
   34MOL0     C 4609   2.585   3.406   9.885  0.1923  0.7655 -0.0139
   34MOL0     C 4610   2.545   3.269   9.900  0.3336  1.7243 -0.4688
   34MOL0     C 4611   2.424   3.220   9.845 -0.1391  0.3579  0.1021
   34MOL0     C 4612   2.344   3.302   9.767 -0.0352 -0.0365  0.2676
   34MOL0     O 4613   2.230   3.247   9.717 -0.7775  0.4861  0.1436
   34MOL0     C 4614   2.213   3.269   9.577 -0.3835 -0.4950 -0.1799
   34MOL0     C 4615   2.075   3.229   9.539  0.1224  0.7994  0.0878
   34MOL0     C 4616   1.970   3.338   9.573 -0.0798  0.6119 -0.6415
   34MOL0     C 4617   1.936   3.368   9.731  0.0526  0.7026  0.9615
   34MOL0     C 4618   1.828   3.471   9.728  0.0080  0.5548  0.3963
   34MOL0     C 4619   1.744   3.556   9.713  0.2886 -0.3334 -0.6266
   34MOL0     C 4620   2.375   3.435   9.757  0.1460 -0.6639  0.0729
   34MOL0     C 4621   2.489   3.494   9.816  0.0877 -0.6596  0.2999
   34MOL0     C 4622   2.500   3.647   9.796 -0.9377  0.2552 -0.4850
   34MOL0     H 4623   2.983   3.434   9.860  0.1748 -0.5181 -0.6311
   34MOL0     H 4624   3.216   3.441   9.919 -0.8631 -1.5465 -0.1270
   34MOL0     H 4625   3.368   3.459  10.322  0.6326  0.9389  0.4523
   34MOL0     H 4626   3.332   3.533  10.170  2.8130  2.2823 -0.5966
   34MOL0     H 4627   3.540   3.439  10.068 -3.5910 -0.9253 -0.5937
   34MOL0     H 4628   3.563   3.551  10.211  3.1919 -1.6153 -1.5434
   34MOL0     H 4629   3.622   3.389  10.362 -1.3656  2.0642 -0.0447
   34MOL0     H 4630   3.590   3.265  10.239 -0.5619  0.4906 -0.1542
   34MOL0     H 4631   3.756   3.302  10.117 -1.1853 -2.0465  1.1981
   34MOL0     H 4632   3.812   3.459  10.175 -5.1976  1.5114  1.1254
   34MOL0     H 4633   3.849   3.174  10.282 -0.1001  0.4350 -1.0456
   34MOL0     H 4634   3.830   3.291  10.412 -1.2234 -1.1589 -0.1786
   34MOL0     H 4635   4.050   3.243  10.369  0.2183  1.7020  1.6084
   34MOL0     H 4636   4.054   3.288  10.207 -1.5909 -2.1933  0.1384
   34MOL0     H 4637   4.013   3.536  10.264 -0.3742 -1.7544 -1.8123
   34MOL0     H 4638   4.145   3.476  10.355 -0.5001  3.9929  1.5175
   34MOL0     H 4639   3.978   3.618  10.479 -3.1736  1.0620 -3.7245
   34MOL0     H 4640   3.860   3.488  10.461  0.0943 -0.6309 -2.3918
   34MOL0     H 4641   3.834   3.333  10.652 -0.1126 -4.2067  0.4392
   34MOL0     H 4642   3.901   3.177  10.846  0.2143  0.2635 -2.0186
   34MOL0     H 4643   4.055   3.190  10.929 -0.3020  1.6890  0.4078
   34MOL0     H 4644   4.161   3.045  10.773  0.5042 -0.9309  2.0237
   34MOL0     H 4645   4.057   2.972  10.884 -0.7889 -0.5902 -1.0008
   34MOL0     H 4646   3.994   3.046  10.582 -3.3761  0.8696 -1.0899
   34MOL0     H 4647   4.035   2.883  10.644 -1.0871 -1.4872  0.1613
   34MOL0     H 4648   3.829   2.892  10.780 -3.4160 -0.8380  0.3425
   34MOL0     H 4649   3.784   3.045  10.696  4.0157  1.6571  0.0447
   34MOL0     H 4650   3.613   3.081  10.535  0.1187 -0.6389  3.6004
   34MOL0     H 4651   3.434   3.188  10.411  1.2400 -0.6091  2.3226
   34MOL0     H 4652   3.282   3.110  10.439  0.6979  2.1028  0.3500
   34MOL0     H 4653   3.355   3.084  10.289  0.1805  4.4170 -1.1043
   34MOL0     H 4654   3.010   2.674  10.366  2.4536  1.0567 -1.2120
   34MOL0     H 4655   2.775   2.662  10.329 -0.4148 -0.3477 -0.9518
   34MOL0     H 4656   2.537   2.696  10.294 -1.4911 -0.0738 -1.5317
   34MOL0     H 4657   2.493   2.810  10.429 -1.3909 -1.1475  0.2347
   34MOL0     H 4658   2.298   2.806  10.312 -1.6088  0.7688 -0.9515
   34MOL0     H 4659   2.376   2.953  10.265 -2.3025 -0.5295 -1.5337
   34MOL0     H 4660   2.393   2.690  10.089 -1.5769  0.1847 -1.6307
   34MOL0     H 4661   2.464   2.842  10.048  0.0702  1.0207 -0.9756
   34MOL0     H 4662   2.226   2.932  10.013  0.3031  0.6992  0.6279
   34MOL0     H 4663   2.168   2.782  10.088  1.1743 -1.5933  2.2314
   34MOL0     H 4664   2.366   2.773   9.845  0.4259  3.9846  0.7318
   34MOL0     H 4665   2.237   2.658   9.891  0.0607  0.1185  3.4031
   34MOL0     H 4666   2.126   2.922   9.811  0.2507  0.2707 -0.2970
   34MOL0     H 4667   2.047   2.768   9.843 -0.4461  0.0857 -0.9622
   34MOL0     H 4668   2.209   2.662   9.660 -1.2030 -1.2594  1.6017
   34MOL0     H 4669   2.199   2.839   9.598 -1.0399  0.5612  0.5472
   34MOL0     H 4670   1.958   2.831   9.592  2.2934  1.5227  0.9431
   34MOL0     H 4671   1.966   2.658   9.648 -1.3260  0.2275 -0.4451
   34MOL0     H 4672   2.754   3.090  10.298  1.4746  0.5331  0.8704
   34MOL0     H 4673   3.004   3.096  10.333 -2.5942  0.8645  1.3434
   34MOL0     H 4674   3.427   2.629  10.477  3.1906  0.0358 -1.4734
   34MOL0     H 4675   3.635   2.663  10.588  0.3996 -0.5744 -2.0058
   34MOL0     H 4676   3.112   3.270  10.300  0.8222  1.7143  1.2621
   34MOL0     H 4677   2.872   3.295  10.248  0.0926  1.3067  0.8992
   34MOL0     H 4678   2.619   3.199   9.938 -0.1851  0.6790 -1.3428
   34MOL0     H 4679   2.397   3.115   9.851  2.9651 -0.4862  4.5682
   34MOL0     H 4680   2.232   3.374   9.550  0.7045  0.0867  2.4799
   34MOL0     H 4681   2.282   3.205   9.522  1.1118  1.8900 -1.2826
   34MOL0     H 4682   2.047   3.133   9.582  0.6181 -0.1244 -1.5949
   34MOL0     H 4683   2.082   3.208   9.432 -3.9641  0.4196 -0.2464
   34MOL0     H 4684   2.014   3.431   9.534 -0.6017  1.1268 -0.0281
   34MOL0     H 4685   1.879   3.311   9.519 -0.6106  1.7105 -0.3408
   34MOL0     H 4686   2.022   3.428   9.764  2.4562  0.1607 -3.4586
   34MOL0     H 4687   1.912   3.285   9.797  1.2863 -0.6808 -0.2323
   34MOL0     H 4688   1.664   3.625   9.698 -1.8209 -2.9653 -2.4371
   34MOL0     H 4689   2.312   3.507   9.706  1.8404  1.3493  0.6743
   34MOL0     H 4690   2.429   3.697   9.862  0.0152  2.2222 -0.8653
   34MOL0     H 4691   2.594   3.697   9.820 -2.8975  3.7395  0.7025
   34MOL0     H 4692   2.485   3.661   9.688 -0.2949  0.3470 -0.5640
   35MOL0     O 4693   3.025   3.383   3.138  0.3810 -0.1463  0.5912
   35MOL0     C 4694   2.994   3.488   3.185 -0.2205 -0.8831 -0.0992
   35MOL0     O 4695   3.073   3.597   3.169  0.2245  0.7456  0.4771
   35MOL0     C 4696   3.196   3.582   3.122 -0.9522  0.4628  0.4227
   35MOL0     C 4697   3.298   3.598   3.221 -0.2554 -0.1254  0.5289
   35MOL0     C 4698   3.437   3.581   3.182  0.3592  0.8568 -0.6577
   35MOL0     C 4699   3.467   3.533   3.048  0.9425  0.3574  0.3090
   35MOL0     O 4700   3.592   3.504   3.029 -0.4455 -0.1302  0.1879
   35MOL0     C 4701   3.632   3.364   3.036  0.2769 -0.2024  0.5945
   35MOL0     C 4702   3.732   3.331   2.926  0.0307 -0.2428 -0.1362
   35MOL0     C 4703   3.663   3.283   2.798  0.0263  1.5221  0.0781
   35MOL0     C 4704   3.764   3.311   2.680 -0.0740  0.4928 -0.3210
   35MOL0     C 4705   3.705   3.301   2.541 -0.8385 -0.6847 -0.0538
   35MOL0     C 4706   3.593   3.411   2.505 -0.3312 -0.0039  0.9855
   35MOL0     C 4707   3.633   3.561   2.535  0.2060  0.4761  0.2919
   35MOL0     C 4708   3.738   3.601   2.427 -0.0891 -0.0953 -0.7571
   35MOL0     N 4709   3.677   3.632   2.294  0.2308  0.2875 -0.2277
   35MOL0     C 4710   3.585   3.732   2.289 -0.2908  0.7607  0.4600
   35MOL0     C 4711   3.545   3.727   2.159 -0.8539 -0.2011 -0.1750
   35MOL0     C 4712   3.429   3.811   2.112  1.0839 -0.1861 -0.0846
   35MOL0     C 4713   3.474   3.933   2.032  0.1528 -0.0944  0.3241
   35MOL0     C 4714   3.356   4.017   1.985 -0.6876 -0.3632  0.3115
   35MOL0     C 4715   3.400   4.118   1.885 -0.4386  0.0047  0.5389
   35MOL0     O 4716   3.383   4.057   1.761  0.5511  0.6454  0.1486
   35MOL0     C 4717   3.405   4.116   1.648 -0.5928  0.6490  0.0520
   35MOL0     C 4718   3.502   4.212   1.641 -0.4948  0.1644  0.3463
   35MOL0     C 4719   3.542   4.261   1.509 -0.9846 -0.0631  0.3962
   35MOL0     C 4720   3.678   4.331   1.500 -0.2128  0.0786 -0.7802
   35MOL0     C 4721   3.468   4.209   1.394 -0.8560  0.1888 -0.4177
   35MOL0     C 4722   3.515   4.232   1.258 -0.2333  0.3598 -0.4951
   35MOL0     O 4723   3.416   4.257   1.178  0.9256  0.1430 -0.7101
   35MOL0     C 4724   3.445   4.269   1.043 -0.1528 -1.0027 -0.4189
   35MOL0     C 4725   3.438   4.399   0.977  0.0573 -0.1016  0.3759
   35MOL0     C 4726   3.453   4.415   0.842  0.1538  0.0541  1.0336
   35MOL0     C 4727   3.477   4.306   0.758  0.1370 -1.3188 -0.6180
   35MOL0     O 4728   3.507   4.338   0.625 -0.1399 -0.2019 -0.8301
   35MOL0     C 4729   3.398   4.324   0.535 -0.8748 -0.1871  0.7546
   35MOL0     C 4730   3.451   4.398   0.402 -0.7312 -0.6760 -0.2928
   35MOL0     C 4731   3.353   4.345   0.289 -0.0292 -0.5018  0.1128
   35MOL0     C 4732   3.212   4.385   0.289 -0.0134 -0.2534  0.1597
   35MOL0     C 4733   3.131   4.319   0.183  0.3835  0.9262 -0.2377
   35MOL0     C 4734   3.095   4.169   0.210 -0.3640  0.0529 -0.7935
   35MOL0     C 4735   3.027   4.142   0.344 -0.2142 -1.0567 -0.4497
   35MOL0     C 4736   2.980   3.991   0.367 -0.2350 -0.3504 -1.1615
   35MOL0    Cl 4737   2.833   3.966   0.279 -0.1592 -0.0303 -0.3872
   35MOL0     C 4738   3.472   4.181   0.812  0.2352  0.4195 -0.1873
   35MOL0     C 4739   3.459   4.161   0.961  0.1504  0.1796 -0.2702
   35MOL0     O 4740   3.632   4.217   1.230 -0.0182  0.6593 -0.2111
   35MOL0     C 4741   3.374   4.116   1.418 -0.1072 -1.0185  0.0469
   35MOL0     C 4742   3.339   4.064   1.545  0.6854 -0.1853  0.5993
   35MOL0     N 4743   3.618   3.633   2.086  0.5069 -0.1399  0.6164
   35MOL0     N 4744   3.688   3.570   2.172  0.0234  0.3536  0.4972
   35MOL0     C 4745   3.370   3.530   2.948  0.4088  0.2855 -0.7889
   35MOL0     C 4746   3.235   3.566   2.983  0.3080 -0.5360 -0.3046
   35MOL0     C 4747   2.885   3.503   3.284  0.5199 -0.1180 -0.4301
   35MOL0     C 4748   2.886   3.620   3.365  0.1925 -0.0809  0.9215
   35MOL0     C 4749   2.788   3.631   3.462  0.4599 -0.4401  0.2403
   35MOL0     C 4750   2.687   3.539   3.481 -0.3193 -0.5395 -0.6462
   35MOL0     O 4751   2.589   3.583   3.570  0.0441 -0.1389  0.2792
   35MOL0     C 4752   2.461   3.507   3.565  0.2340 -0.3926 -0.2796
   35MOL0     C 4753   2.474   3.389   3.659  0.3200 -0.0917 -0.0370
   35MOL0     C 4754   2.339   3.313   3.678  0.0143 -0.0435 -0.3192
   35MOL0     C 4755   2.214   3.393   3.722 -0.0900  0.2071 -0.1479
   35MOL0     C 4756   2.097   3.306   3.749  0.6857  1.0812 -0.7451
   35MOL0     C 4757   2.003   3.226   3.767 -0.6438  0.3948 -0.6750
   35MOL0     C 4758   2.681   3.429   3.395 -0.5306 -0.0777  0.0631
   35MOL0     C 4759   2.780   3.414   3.300  0.5400  0.3261  0.5834
   35MOL0     C 4760   2.755   3.293   3.207  0.3972 -0.7074 -0.2946
   35MOL0     H 4761   3.268   3.635   3.319  2.7732  2.3670  0.6445
   35MOL0     H 4762   3.510   3.587   3.262 -2.1113  1.6383  1.6802
   35MOL0     H 4763   3.547   3.296   3.032 -0.0923  0.3068 -0.4733
   35MOL0     H 4764   3.681   3.355   3.134  0.5085  1.4176  0.6549
   35MOL0     H 4765   3.805   3.412   2.918  2.6116 -2.2860  1.0473
   35MOL0     H 4766   3.787   3.246   2.968  3.5182  0.6643 -2.4505
   35MOL0     H 4767   3.629   3.179   2.806  3.8690  0.0414 -0.5276
   35MOL0     H 4768   3.568   3.333   2.777 -1.1269 -0.6725 -0.2604
   35MOL0     H 4769   3.815   3.407   2.693 -1.9803  1.4738  0.2047
   35MOL0     H 4770   3.851   3.244   2.676 -0.5622 -0.0839 -2.2428
   35MOL0     H 4771   3.653   3.206   2.548  1.0129 -1.6664  1.9227
   35MOL0     H 4772   3.784   3.299   2.465  0.9107 -2.4808  1.6961
   35MOL0     H 4773   3.569   3.397   2.400 -0.6776  0.6044  0.9802
   35MOL0     H 4774   3.498   3.397   2.556 -1.2358  0.0677 -0.6306
   35MOL0     H 4775   3.673   3.570   2.636  0.5978  1.1336  0.0912
   35MOL0     H 4776   3.543   3.623   2.536 -0.8857 -1.0462 -0.1469
   35MOL0     H 4777   3.804   3.681   2.460  0.0495  0.9842 -3.4115
   35MOL0     H 4778   3.803   3.512   2.423  3.5946  2.2657  0.9897
   35MOL0     H 4779   3.551   3.794   2.371  0.0396  1.0623  0.3751
   35MOL0     H 4780   3.365   3.838   2.196  0.5326  0.7108 -0.7741
   35MOL0     H 4781   3.367   3.741   2.055 -1.2290 -0.5183  2.5858
   35MOL0     H 4782   3.539   3.999   2.090  1.3729 -1.4161  0.4965
   35MOL0     H 4783   3.535   3.893   1.951  1.7612 -1.7848  2.2690
   35MOL0     H 4784   3.274   3.959   1.941 -0.3090  0.3782 -1.4499
   35MOL0     H 4785   3.315   4.060   2.076  0.1592  3.3388 -0.8899
   35MOL0     H 4786   3.325   4.197   1.891  0.9537  1.3978  0.1692
   35MOL0     H 4787   3.501   4.153   1.906 -0.1212  0.1275 -1.1125
   35MOL0     H 4788   3.558   4.238   1.730  1.4521 -2.7501  0.1069
   35MOL0     H 4789   3.689   4.354   1.393 -1.6048 -3.6128 -1.8565
   35MOL0     H 4790   3.758   4.272   1.545 -0.1921  2.4113  2.6164
   35MOL0     H 4791   3.661   4.414   1.568 -1.3002 -3.0248  3.0986
   35MOL0     H 4792   3.412   4.484   1.039  0.3849  0.6574 -0.5166
   35MOL0     H 4793   3.443   4.511   0.794  1.9595 -0.7985 -1.2977
   35MOL0     H 4794   3.382   4.218   0.513  0.0523 -0.0428 -0.8121
   35MOL0     H 4795   3.307   4.374   0.568  0.2851  0.9173  2.4196
   35MOL0     H 4796   3.436   4.506   0.411  1.5970  0.4011 -5.6709
   35MOL0     H 4797   3.553   4.381   0.367 -1.2439 -1.5618 -1.4236
   35MOL0     H 4798   3.348   4.236   0.294  0.1509 -0.4808  0.8552
   35MOL0     H 4799   3.389   4.373   0.190 -0.9687 -2.0991 -0.7211
   35MOL0     H 4800   3.210   4.490   0.257 -3.1436 -0.2284  0.1548
   35MOL0     H 4801   3.161   4.370   0.384 -3.4590 -0.6967 -1.5960
   35MOL0     H 4802   3.041   4.377   0.164  0.4706  1.0488 -0.2753
   35MOL0     H 4803   3.187   4.330   0.090 -0.6730  0.0908 -0.9935
   35MOL0     H 4804   3.185   4.107   0.213  0.0348  0.6615 -0.1120
   35MOL0     H 4805   3.019   4.144   0.135  0.2407 -0.7424 -1.1629
   35MOL0     H 4806   2.935   4.201   0.349 -0.1633 -0.8789 -1.4612
   35MOL0     H 4807   3.093   4.169   0.427 -0.1892  1.6634 -1.2541
   35MOL0     H 4808   2.969   3.991   0.476 -1.2854  1.9911 -1.2119
   35MOL0     H 4809   3.067   3.928   0.344  1.6373  0.7943  2.1441
   35MOL0     H 4810   3.494   4.108   0.734 -2.4119  0.1186 -0.7435
   35MOL0     H 4811   3.457   4.058   0.996  3.5715  0.7735  2.2855
   35MOL0     H 4812   3.320   4.069   1.337  1.7339 -0.1406 -1.7620
   35MOL0     H 4813   3.277   3.976   1.560 -0.7633  1.3251  4.7471
   35MOL0     H 4814   3.390   3.495   2.847 -3.6776  2.3395 -2.5404
   35MOL0     H 4815   3.156   3.563   2.909 -1.3851  0.5401  1.3569
   35MOL0     H 4816   2.966   3.693   3.359  0.2826 -0.2835 -2.2536
   35MOL0     H 4817   2.793   3.717   3.528  1.5310 -0.8002  0.6557
   35MOL0     H 4818   2.391   3.575   3.613  1.7180 -0.2934  1.8466
   35MOL0     H 4819   2.423   3.487   3.464  2.1836 -0.7657 -0.9911
   35MOL0     H 4820   2.495   3.426   3.760  0.8396  0.9474 -0.5181
   35MOL0     H 4821   2.555   3.323   3.627  0.3598  0.1553 -0.4443
   35MOL0     H 4822   2.308   3.278   3.579 -1.1814  0.0287  0.0145
   35MOL0     H 4823   2.359   3.226   3.741  0.0078 -0.5966 -1.0697
   35MOL0     H 4824   2.202   3.472   3.647  1.2840  2.1858  1.6061
   35MOL0     H 4825   2.243   3.446   3.813 -0.1973 -1.7350  1.0585
   35MOL0     H 4826   1.921   3.170   3.809  1.3238 -1.4211  0.9776
   35MOL0     H 4827   2.592   3.366   3.397 -2.6756  2.6827 -1.2338
   35MOL0     H 4828   2.837   3.221   3.193  1.8576  0.9273 -0.4327
   35MOL0     H 4829   2.672   3.229   3.241 -1.0903  1.8544  1.1958
   35MOL0     H 4830   2.729   3.329   3.107 -0.1370  0.3213  0.2105
   36MOL0     O 4831   5.934   9.916  10.086  0.2194 -0.0469  0.0837
   36MOL0     C 4832   6.009   9.822  10.086 -0.9050  0.4395 -0.2325
   36MOL0     O 4833   6.065   9.765   9.969  0.3042  1.2999  0.1234
   36MOL0     C 4834   6.002   9.790   9.851 -0.5227 -0.2603  0.5506
   36MOL0     C 4835   5.894   9.708   9.812 -0.3490  0.1050 -0.0508
   36MOL0     C 4836   5.831   9.730   9.692  0.7641  0.9296  0.0287
   36MOL0     C 4837   5.879   9.820   9.602 -0.4132 -0.8796  0.0170
   36MOL0     O 4838   5.826   9.856   9.479 -0.2791 -0.1567 -0.6982
   36MOL0     C 4839   5.680   9.841   9.466  0.7873 -0.3610  0.0744
   36MOL0     C 4840   5.601   9.961   9.398 -0.7790 -0.9513 -0.1779
   36MOL0     C 4841   5.474   9.908   9.335  0.8483 -0.2803 -0.0304
   36MOL0     C 4842   5.401  10.029   9.277 -0.6416  0.0024 -0.7482
   36MOL0     C 4843   5.281  10.011   9.177  0.4675  0.5253 -0.3317
   36MOL0     C 4844   5.245  10.146   9.116  0.3820  0.0532 -0.3112
   36MOL0     C 4845   5.110  10.116   9.028 -0.2923  0.4530 -0.4250
   36MOL0     C 4846   5.041  10.256   9.017 -1.1700  0.0121  0.0918
   36MOL0     N 4847   4.916  10.242   8.949  0.5565  0.8570 -0.1729
   36MOL0     C 4848   4.809  10.314   8.983 -0.0179  0.8622  0.0400
   36MOL0     C 4849   4.709  10.275   8.907 -0.2297 -0.2857 -0.0477
   36MOL0     C 4850   4.552  10.307   8.922 -0.3465  0.1287  0.6677
   36MOL0     C 4851   4.495  10.432   8.851 -0.0592  0.1981 -0.7097
   36MOL0     C 4852   4.527  10.563   8.932 -0.0726  0.2437  0.1378
   36MOL0     C 4853   4.522  10.686   8.828 -0.7152  0.0999 -0.5422
   36MOL0     O 4854   4.401  10.714   8.755  0.3776 -0.2790  0.4302
   36MOL0     C 4855   4.290  10.737   8.831  0.4039  0.1888  0.2570
   36MOL0     C 4856   4.292  10.784   8.966  0.5292  0.2782 -0.6599
   36MOL0     C 4857   4.182  10.784   9.052 -0.4704 -0.0805 -0.2050
   36MOL0     C 4858   4.199  10.813   9.195 -0.2293 -0.1676 -0.2475
   36MOL0     C 4859   4.052  10.758   8.994 -0.1180 -0.1535 -0.3186
   36MOL0     C 4860   3.930  10.765   9.067 -0.2597 -1.2421  0.1214
   36MOL0     O 4861   3.919  10.821   9.199 -0.3543  0.3277  0.5469
   36MOL0     C 4862   3.795  10.822   9.265  0.4667  1.0701 -0.3401
   36MOL0     C 4863   3.693  10.900   9.212  0.4104 -0.0652 -0.4708
   36MOL0     C 4864   3.569  10.919   9.280  0.2298  0.5973 -0.6233
   36MOL0     C 4865   3.548  10.855   9.406  0.3898  0.3453  0.4591
   36MOL0     O 4866   3.435  10.865   9.483 -0.2556  0.0448 -0.8957
   36MOL0     C 4867   3.345  10.968   9.448  0.0510 -0.5182 -0.9739
   36MOL0     C 4868   3.242  10.973   9.559 -0.6092  0.0568  0.4575
   36MOL0     C 4869   3.154  10.857   9.528  0.2599  0.1861  0.6473
   36MOL0     C 4870   3.044  10.851   9.624  0.1414 -0.0260 -0.3708
   36MOL0     C 4871   2.936  10.744   9.583 -0.4560 -1.2205 -0.2374
   36MOL0     C 4872   2.828  10.743   9.688 -0.7969  0.3910  0.4265
   36MOL0     C 4873   2.706  10.655   9.650  0.6142  0.9302 -1.0206
   36MOL0     C 4874   2.710  10.524   9.725  0.3457  0.9528 -0.6144
   36MOL0    Cl 4875   2.718  10.552   9.906 -0.1585 -0.1585 -0.0793
   36MOL0     C 4876   3.650  10.768   9.458 -0.5043 -0.5829  0.0526
   36MOL0     C 4877   3.771  10.748   9.390  0.5917 -0.3182 -0.4240
   36MOL0     O 4878   3.836  10.718   9.008 -0.2520  0.3690  0.1023
   36MOL0     C 4879   4.049  10.713   8.858  0.8003  0.4845  1.1749
   36MOL0     C 4880   4.162  10.697   8.782  0.3638  0.7093  0.1474
   36MOL0     N 4881   4.760  10.194   8.809 -0.5023  0.6741  0.7253
   36MOL0     N 4882   4.882  10.175   8.836 -0.4732 -0.6674 -0.4754
   36MOL0     C 4883   5.998   9.886   9.626 -0.4968  0.3579  0.0981
   36MOL0     C 4884   6.058   9.874   9.755 -0.0208 -0.8980  1.2973
   36MOL0     C 4885   6.034   9.752  10.210 -0.2626 -0.1699 -0.1888
   36MOL0     C 4886   6.159   9.711  10.240  0.0076  0.7804  0.3959
   36MOL0     C 4887   6.189   9.657  10.364 -0.0661  1.1242  0.2131
   36MOL0     C 4888   6.095   9.655  10.467  0.3061 -0.5044  0.0750
   36MOL0     O 4889   6.122   9.602  10.594 -0.4558  0.0444  0.0146
   36MOL0     C 4890   6.066   9.675  10.707 -0.4460 -0.0152  1.4676
   36MOL0     C 4891   6.142   9.659  10.844 -0.6332  1.1943  0.3569
   36MOL0     C 4892   6.094   9.772  10.930 -0.9155  0.0014 -0.5524
   36MOL0     C 4893   6.155   9.770  11.074  0.6544  0.3939  0.3932
   36MOL0     C 4894   6.127   9.897  11.146 -0.3800 -0.6889  1.0946
   36MOL0     C 4895   6.122   9.992  11.220 -0.1134 -0.4054  0.5163
   36MOL0     C 4896   5.973   9.707  10.440 -0.0467 -0.1615 -0.2171
   36MOL0     C 4897   5.938   9.753  10.312  0.1297  0.6668 -0.2570
   36MOL0     C 4898   5.793   9.792  10.309  0.7017 -0.3877 -0.2319
   36MOL0     H 4899   5.860   9.644   9.893  0.6375 -2.0368 -1.2379
   36MOL0     H 4900   5.734   9.684   9.675  1.8127 -1.3146 -0.1636
   36MOL0     H 4901   5.624   9.806   9.554 -2.1627  2.6703 -0.3765
   36MOL0     H 4902   5.684   9.755   9.400  2.2530  0.4385 -0.9524
   36MOL0     H 4903   5.574  10.034   9.475  0.1690 -0.5718 -0.1926
   36MOL0     H 4904   5.662  10.001   9.317 -0.6486 -1.1813 -0.1937
   36MOL0     H 4905   5.483   9.836   9.254 -1.7636 -1.7060  0.8566
   36MOL0     H 4906   5.408   9.860   9.408 -0.3691 -0.5130 -1.2384
   36MOL0     H 4907   5.363  10.095   9.355  2.5070 -1.9668  2.8110
   36MOL0     H 4908   5.480  10.083   9.225 -1.2061 -1.3718 -3.1919
   36MOL0     H 4909   5.204   9.959   9.235  0.4107  1.4057  0.4144
   36MOL0     H 4910   5.313   9.958   9.087  1.8580  2.0274 -0.7632
   36MOL0     H 4911   5.234  10.226   9.190  0.4825  0.1697 -0.4206
   36MOL0     H 4912   5.329  10.169   9.050  0.2034 -1.0285 -0.9437
   36MOL0     H 4913   5.040  10.045   9.072  0.1497  0.7145  0.7589
   36MOL0     H 4914   5.148  10.070   8.937  1.9787  0.9706  0.1817
   36MOL0     H 4915   5.010  10.284   9.117  0.2204 -2.3884  1.3051
   36MOL0     H 4916   5.096  10.332   8.961 -0.9154 -0.7407 -0.7136
   36MOL0     H 4917   4.792  10.363   9.078  1.8559  1.5529  0.0581
   36MOL0     H 4918   4.532  10.309   9.029  1.3053 -1.4483  1.0664
   36MOL0     H 4919   4.509  10.221   8.870 -0.8030 -0.8256  2.5681
   36MOL0     H 4920   4.541  10.452   8.754  2.6172  1.1916  0.6632
   36MOL0     H 4921   4.387  10.419   8.840 -0.7471  0.7719  3.6756
   36MOL0     H 4922   4.457  10.569   9.015  0.0376 -1.4942  0.3984
   36MOL0     H 4923   4.632  10.548   8.960  0.6190  0.0405 -2.3141
   36MOL0     H 4924   4.562  10.769   8.886 -0.4172  0.0738 -0.7069
   36MOL0     H 4925   4.606  10.665   8.761 -0.9367 -2.7910 -0.0293
   36MOL0     H 4926   4.386  10.815   9.011  0.6502 -2.6173  1.4294
   36MOL0     H 4927   4.182  10.722   9.253 -2.8618 -0.2857 -1.0590
   36MOL0     H 4928   4.133  10.894   9.228 -0.5945 -0.7760  0.5551
   36MOL0     H 4929   4.300  10.849   9.216 -0.6795  0.8880  0.1575
   36MOL0     H 4930   3.702  10.940   9.111  3.6428  0.5500 -0.0644
   36MOL0     H 4931   3.489  10.976   9.234  1.2036  0.9247 -1.9684
   36MOL0     H 4932   3.390  11.068   9.452 -0.6225 -0.2312 -0.5527
   36MOL0     H 4933   3.295  10.953   9.352 -1.6345  1.3342 -0.4545
   36MOL0     H 4934   3.295  10.975   9.654  0.1583  0.0071  0.0395
   36MOL0     H 4935   3.192  11.070   9.556  1.4019  1.1314 -0.9238
   36MOL0     H 4936   3.204  10.760   9.534 -1.1291 -0.4714  2.8321
   36MOL0     H 4937   3.107  10.877   9.431  3.4703  0.6528 -0.9396
   36MOL0     H 4938   2.998  10.950   9.625 -0.4614 -0.1542 -4.1718
   36MOL0     H 4939   3.076  10.810   9.721 -0.1197 -2.8707 -1.3888
   36MOL0     H 4940   2.899  10.783   9.488  1.9595  4.3339  0.6857
   36MOL0     H 4941   2.972  10.642   9.569 -1.9281 -2.0903  1.7806
   36MOL0     H 4942   2.802  10.848   9.703 -0.0161  0.7074 -0.3357
   36MOL0     H 4943   2.872  10.720   9.786  1.3918 -1.7044 -0.9340
   36MOL0     H 4944   2.707  10.638   9.542  3.0080 -0.9960 -0.7753
   36MOL0     H 4945   2.615  10.711   9.671  0.0154  1.1072 -3.6966
   36MOL0     H 4946   2.791  10.466   9.679  1.1568  2.3279 -0.9862
   36MOL0     H 4947   2.616  10.469   9.714  0.1287  1.4127 -1.1128
   36MOL0     H 4948   3.631  10.708   9.547 -0.1855 -0.4805  0.1944
   36MOL0     H 4949   3.840  10.667   9.414 -0.7955 -2.1392 -2.2175
   36MOL0     H 4950   3.959  10.673   8.812  3.2093 -1.2416 -2.5554
   36MOL0     H 4951   4.157  10.665   8.678 -1.4962 -0.0284  0.4276
   36MOL0     H 4952   6.044   9.961   9.563  0.8162  0.1956  0.8369
   36MOL0     H 4953   6.145   9.936   9.771 -0.3302 -0.0404 -0.1007
   36MOL0     H 4954   6.239   9.724  10.167  0.1486  1.9817  0.7405
   36MOL0     H 4955   6.285   9.612  10.389  0.9885  1.9567 -1.9974
   36MOL0     H 4956   6.049   9.780  10.681 -3.3294  0.0083  3.0712
   36MOL0     H 4957   5.968   9.632  10.728 -0.0862 -2.3338 -1.0120
   36MOL0     H 4958   6.250   9.663  10.828 -0.2149  0.4051  2.5718
   36MOL0     H 4959   6.119   9.562  10.890 -0.2986  1.1202  0.3716
   36MOL0     H 4960   6.117   9.872  10.892 -2.4277 -0.3642 -2.5734
   36MOL0     H 4961   5.985   9.772  10.932 -1.0429 -4.0985  0.6212
   36MOL0     H 4962   6.263   9.759  11.058  0.1990 -2.4282 -1.4793
   36MOL0     H 4963   6.113   9.684  11.126 -1.2475  0.4256 -0.9790
   36MOL0     H 4964   6.115  10.084  11.275 -1.8164  0.9263 -1.7785
   36MOL0     H 4965   5.887   9.709  10.507 -1.2525 -2.0934 -1.5743
   36MOL0     H 4966   5.775   9.894  10.277 -1.8671 -1.2474 -1.8355
   36MOL0     H 4967   5.738   9.733  10.235 -3.3781  0.8101  1.5343
   36MOL0     H 4968   5.734   9.774  10.400 -0.2234 -0.0062 -0.7426
   37MOL0     O 4969  10.089   0.420   9.234  0.1394 -0.2636  0.0204
   37MOL0     C 4970  10.154   0.458   9.137  1.1195 -0.1460 -1.0279
   37MOL0     O 4971  10.257   0.389   9.086  0.5760 -0.3284 -0.1369
   37MOL0     C 4972  10.297   0.275   9.143  0.7823 -0.1814  0.0056
   37MOL0     C 4973  10.414   0.262   9.219  0.6596 -0.4745  0.4684
   37MOL0     C 4974  10.441   0.142   9.289 -0.2462  0.0879  0.2361
   37MOL0     C 4975  10.362   0.035   9.279 -0.1037 -0.1257  0.0620
   37MOL0     O 4976  10.403  -0.083   9.337 -0.1053  0.3560 -0.3182
   37MOL0     C 4977  10.504  -0.091   9.432 -0.8179  0.1264 -0.1620
   37MOL0     C 4978  10.528  -0.242   9.462 -0.5226 -0.4440 -0.3963
   37MOL0     C 4979  10.620  -0.297   9.351  0.1259 -0.3525  0.5248
   37MOL0     C 4980  10.628  -0.446   9.358 -0.1698  0.1330 -0.2863
   37MOL0     C 4981  10.687  -0.514   9.232 -0.5836 -0.4902 -0.4668
   37MOL0     C 4982  10.694  -0.665   9.235  1.0166  0.3404 -0.4167
   37MOL0     C 4983  10.727  -0.735   9.100 -0.1782 -0.4182 -0.7386
   37MOL0     C 4984  10.849  -0.664   9.032  0.5716  0.9053  0.0657
   37MOL0     N 4985  10.887  -0.760   8.924 -0.2732 -0.6725 -1.0642
   37MOL0     C 4986  10.852  -0.765   8.790  0.4985  0.1187 -0.5041
   37MOL0     C 4987  10.904  -0.870   8.733  0.5604  0.2261  0.3315
   37MOL0     C 4988  10.902  -0.912   8.582 -0.1837  0.2172  0.3333
   37MOL0     C 4989  11.013  -0.838   8.510  0.0902 -0.1305 -0.1656
   37MOL0     C 4990  11.158  -0.852   8.564 -0.4866 -0.7649 -0.1289
   37MOL0     C 4991  11.250  -0.773   8.480 -0.0037 -0.4342  0.6146
   37MOL0     O 4992  11.382  -0.784   8.533 -0.1289  0.2489 -0.1575
   37MOL0     C 4993  11.458  -0.889   8.499 -0.4129 -0.1577  0.0932
   37MOL0     C 4994  11.425  -1.001   8.421  0.8701  0.3037 -0.5584
   37MOL0     C 4995  11.515  -1.107   8.403  0.2685 -0.3117 -0.2078
   37MOL0     C 4996  11.480  -1.221   8.305 -0.2927 -0.2467 -0.4726
   37MOL0     C 4997  11.650  -1.088   8.455  0.3745 -0.3015 -0.3690
   37MOL0     C 4998  11.748  -1.193   8.433 -0.2173 -0.6606  0.2913
   37MOL0     O 4999  11.701  -1.319   8.457 -0.8162 -0.4238  1.5522
   37MOL0     C 5000  11.798  -1.422   8.446 -0.2724 -0.5413  0.2924
   37MOL0     C 5001  11.758  -1.523   8.358  0.1064 -0.6636 -1.2766
   37MOL0     C 5002  11.850  -1.623   8.330  0.3484 -1.1192  0.5316
   37MOL0     C 5003  11.978  -1.622   8.385 -0.4341 -0.6758  0.4150
   37MOL0     O 5004  12.072  -1.722   8.369  0.2433  0.0259 -0.0391
   37MOL0     C 5005  12.039  -1.828   8.284  0.8581  0.3741  0.0500
   37MOL0     C 5006  11.951  -1.944   8.338 -0.1417 -0.6136 -0.6793
   37MOL0     C 5007  12.030  -2.008   8.453  0.0128  0.3546  0.2815
   37MOL0     C 5008  11.961  -1.991   8.597  0.3747 -0.0532 -0.4155
   37MOL0     C 5009  12.066  -2.022   8.700  1.1968  0.0106  0.0979
   37MOL0     C 5010  12.002  -2.016   8.845  0.4665  0.2693  0.1270
   37MOL0     C 5011  12.091  -2.062   8.945 -0.2512  0.1930  1.1830
   37MOL0     C 5012  12.033  -2.052   9.078  0.0008  0.4691 -0.3393
   37MOL0    Cl 5013  12.147  -2.085   9.209  0.0748  0.0890 -0.3463
   37MOL0     C 5014  12.010  -1.515   8.471  0.0752  0.5131 -0.8753
   37MOL0     C 5015  11.912  -1.429   8.508 -0.6070  0.3172 -0.6277
   37MOL0     O 5016  11.850  -1.164   8.375 -0.4007 -0.0130 -0.0819
   37MOL0     C 5017  11.690  -0.967   8.523  0.1377  0.2445 -0.5220
   37MOL0     C 5018  11.589  -0.876   8.538  0.6075  0.3026 -0.7177
   37MOL0     N 5019  10.981  -0.927   8.831  0.0099  0.2897 -0.7724
   37MOL0     N 5020  10.966  -0.862   8.941  0.4150  0.3669 -0.7597
   37MOL0     C 5021  10.239   0.052   9.214 -0.0792  0.2107 -0.7394
   37MOL0     C 5022  10.212   0.165   9.135  0.2151  0.2648  0.4691
   37MOL0     C 5023  10.111   0.602   9.104  0.3813 -0.4590 -0.2967
   37MOL0     C 5024  10.097   0.701   9.200 -0.3922 -0.2789  0.3671
   37MOL0     C 5025  10.052   0.829   9.170  0.0181 -0.1095 -0.7214
   37MOL0     C 5026  10.007   0.861   9.045 -0.9498 -0.6432  0.3244
   37MOL0     O 5027   9.952   0.994   9.027 -0.4541 -0.2712  0.2267
   37MOL0     C 5028   9.895   1.030   8.903  0.0225  0.3119  1.1768
   37MOL0     C 5029   9.850   1.177   8.891 -0.1350  1.0378  0.4359
   37MOL0     C 5030   9.746   1.213   9.010  0.1627 -0.6501 -0.0019
   37MOL0     C 5031   9.688   1.350   8.990  0.2733 -0.2533 -0.2820
   37MOL0     C 5032   9.553   1.338   8.932  0.9339 -0.2161 -0.8060
   37MOL0     C 5033   9.437   1.337   8.905  0.1492  1.2359 -0.1785
   37MOL0     C 5034  10.020   0.763   8.948  0.1265 -0.7838 -0.0372
   37MOL0     C 5035  10.083   0.636   8.970 -0.2086 -0.3003  0.5818
   37MOL0     C 5036  10.096   0.540   8.852  0.8874 -0.8124  0.6541
   37MOL0     H 5037  10.475   0.351   9.231  1.2019 -0.5567 -1.3813
   37MOL0     H 5038  10.533   0.139   9.346  1.1938  1.6026 -1.8583
   37MOL0     H 5039  10.472  -0.033   9.519 -0.8134  1.5621 -1.0887
   37MOL0     H 5040  10.594  -0.046   9.388 -2.8986  2.9477 -1.8028
   37MOL0     H 5041  10.576  -0.256   9.559 -1.1491 -0.9902 -0.1615
   37MOL0     H 5042  10.431  -0.292   9.471 -0.8980  0.0137 -1.7292
   37MOL0     H 5043  10.589  -0.268   9.250 -2.2465 -0.6902  1.0950
   37MOL0     H 5044  10.723  -0.261   9.344  0.6520 -1.1760  2.9930
   37MOL0     H 5045  10.670  -0.484   9.451  1.6257  1.1030 -0.6465
   37MOL0     H 5046  10.523  -0.477   9.351 -0.6236  1.5821 -0.2234
   37MOL0     H 5047  10.786  -0.471   9.212 -1.4802  2.7281  1.1872
   37MOL0     H 5048  10.634  -0.477   9.144 -1.1266  0.6842  0.3250
   37MOL0     H 5049  10.764  -0.704   9.309  1.3555 -1.9075 -1.8244
   37MOL0     H 5050  10.594  -0.692   9.270  1.5027 -1.4388 -0.2907
   37MOL0     H 5051  10.645  -0.752   9.029 -0.6203 -0.3605 -0.2507
   37MOL0     H 5052  10.757  -0.837   9.127 -0.5898  0.0261  1.6143
   37MOL0     H 5053  10.823  -0.571   8.981  0.6561  1.9503  1.8519
   37MOL0     H 5054  10.931  -0.653   9.104  0.3817 -3.6521  1.3013
   37MOL0     H 5055  10.784  -0.692   8.747  1.7915  0.0513 -2.8573
   37MOL0     H 5056  10.804  -0.899   8.536 -1.8737 -1.2006  3.2763
   37MOL0     H 5057  10.914  -1.021   8.575  0.0376  0.2868 -0.5444
   37MOL0     H 5058  11.007  -0.867   8.405 -0.4387 -0.5339 -0.0315
   37MOL0     H 5059  10.999  -0.730   8.508 -0.3543 -0.1296  1.2649
   37MOL0     H 5060  11.157  -0.802   8.661 -2.5114 -0.7750 -0.1217
   37MOL0     H 5061  11.190  -0.956   8.563 -0.9154 -0.8970 -0.2540
   37MOL0     H 5062  11.243  -0.814   8.379  0.0594  0.0349  0.4209
   37MOL0     H 5063  11.239  -0.664   8.476 -0.4177 -0.5211 -1.7587
   37MOL0     H 5064  11.333  -1.007   8.362  2.5949  0.1572 -3.4133
   37MOL0     H 5065  11.393  -1.201   8.242  0.9706 -0.6948 -2.4872
   37MOL0     H 5066  11.460  -1.299   8.378  0.8750  1.2098  1.4815
   37MOL0     H 5067  11.563  -1.251   8.240  1.0761 -0.6694  1.3793
   37MOL0     H 5068  11.669  -1.512   8.297 -1.5382  2.8464  1.4436
   37MOL0     H 5069  11.815  -1.690   8.252 -0.7535  2.0129 -1.8968
   37MOL0     H 5070  11.981  -1.809   8.193 -0.5736 -0.8231  0.6776
   37MOL0     H 5071  12.132  -1.871   8.244  0.4889 -2.2754  1.8042
   37MOL0     H 5072  11.857  -1.896   8.364 -0.0659  0.1382 -1.7522
   37MOL0     H 5073  11.937  -2.021   8.262  1.5099 -3.3890  1.6031
   37MOL0     H 5074  12.134  -1.975   8.458  0.3086 -0.6744  1.0214
   37MOL0     H 5075  12.027  -2.115   8.431 -2.2338  0.8074 -2.1566
   37MOL0     H 5076  11.869  -2.045   8.624 -0.2032  1.8182  1.6785
   37MOL0     H 5077  11.935  -1.885   8.605 -2.7226 -0.7617  0.3874
   37MOL0     H 5078  12.107  -2.122   8.679  1.4821 -0.3123  1.9966
   37MOL0     H 5079  12.138  -1.942   8.682 -0.8857  2.2281  1.0776
   37MOL0     H 5080  11.922  -2.088   8.831  0.9816 -0.4284  0.7141
   37MOL0     H 5081  11.968  -1.918   8.881  1.7141  1.2223 -1.1466
   37MOL0     H 5082  12.172  -1.988   8.944 -0.1296  0.0680  0.0316
   37MOL0     H 5083  12.132  -2.160   8.922  2.2093  1.3547  0.2668
   37MOL0     H 5084  11.945  -2.116   9.086 -1.0652  1.9085 -0.1779
   37MOL0     H 5085  11.996  -1.951   9.100  0.2361  0.1946  1.5032
   37MOL0     H 5086  12.097  -1.517   8.536 -2.4251  0.3834  2.7530
   37MOL0     H 5087  11.947  -1.357   8.582 -0.7433 -1.5554  1.3784
   37MOL0     H 5088  11.790  -0.954   8.563  1.2757 -2.7488 -2.1491
   37MOL0     H 5089  11.621  -0.799   8.608  5.2081  0.4465 -2.5823
   37MOL0     H 5090  10.170  -0.032   9.214 -0.1825  0.2810  0.2900
   37MOL0     H 5091  10.117   0.182   9.086  0.3273 -0.9995 -0.2201
   37MOL0     H 5092  10.122   0.667   9.300  1.2009  0.9023  0.4185
   37MOL0     H 5093  10.034   0.904   9.247  0.5555  0.1394 -0.8360
   37MOL0     H 5094   9.967   1.003   8.825 -3.6968 -2.8720 -1.5902
   37MOL0     H 5095   9.804   0.972   8.884  0.8631 -0.6609 -0.0702
   37MOL0     H 5096   9.800   1.184   8.794  1.4538 -0.4058 -0.5598
   37MOL0     H 5097   9.934   1.246   8.875 -1.6260  3.1611  1.3525
   37MOL0     H 5098   9.664   1.140   9.016  1.6458 -2.5376 -1.4410
   37MOL0     H 5099   9.808   1.202   9.099 -0.7938 -3.7334  0.3977
   37MOL0     H 5100   9.746   1.418   8.927 -1.7880  1.4876 -0.3827
   37MOL0     H 5101   9.675   1.407   9.083 -1.4764 -0.3234 -0.4637
   37MOL0     H 5102   9.333   1.337   8.877  0.4298 -0.9133 -1.5074
   37MOL0     H 5103   9.973   0.785   8.853 -1.5521  0.0907  0.9455
   37MOL0     H 5104  10.067   0.577   8.753  2.8876 -1.5160 -0.2664
   37MOL0     H 5105  10.201   0.508   8.844  0.5788 -1.7256  0.2451
   37MOL0     H 5106  10.037   0.452   8.878  0.0260 -1.5990 -3.2669
   38MOL0     O 5107   6.898   1.625   0.848  0.0707  0.0872 -0.9467
   38MOL0     C 5108   6.898   1.641   0.729 -0.1332  0.1101  0.2942
   38MOL0     O 5109   6.895   1.764   0.669 -0.0215  0.5517 -0.0841
   38MOL0     C 5110   6.976   1.861   0.721 -0.1365 -0.5551 -0.2957
   38MOL0     C 5111   6.922   1.989   0.697  0.5497 -0.6195  0.8086
   38MOL0     C 5112   6.978   2.102   0.756  0.2845 -0.0568  0.7123
   38MOL0     C 5113   7.094   2.094   0.831 -1.1846 -0.0858  0.0409
   38MOL0     O 5114   7.159   2.196   0.906  0.2184  0.4629  0.3264
   38MOL0     C 5115   7.081   2.320   0.906 -0.2735 -0.3782  0.5327
   38MOL0     C 5116   7.139   2.415   1.012  0.5298  0.2305 -0.0152
   38MOL0     C 5117   7.270   2.467   0.966  0.0049 -1.3083  1.1993
   38MOL0     C 5118   7.316   2.591   1.043 -0.5676 -0.3402 -1.1238
   38MOL0     C 5119   7.468   2.629   1.025 -0.2794 -0.5392 -0.2707
   38MOL0     C 5120   7.509   2.708   0.904  0.6032  0.4221  0.2054
   38MOL0     C 5121   7.658   2.742   0.892 -0.2166  0.4844  0.5833
   38MOL0     C 5122   7.706   2.775   0.750 -0.8673  0.2585 -0.3877
   38MOL0     N 5123   7.644   2.886   0.682 -0.1889  0.5795 -0.8011
   38MOL0     C 5124   7.678   2.929   0.553  0.1260 -0.3844 -0.5504
   38MOL0     C 5125   7.593   3.038   0.529  0.7814  0.2301  0.1453
   38MOL0     C 5126   7.575   3.112   0.401  0.8186  0.4821  0.7043
   38MOL0     C 5127   7.420   3.134   0.357  0.2617 -0.1195 -1.0846
   38MOL0     C 5128   7.369   3.005   0.286 -0.3047 -0.5465  0.6012
   38MOL0     C 5129   7.361   2.879   0.375 -0.1998  0.1878 -0.1844
   38MOL0     O 5130   7.272   2.791   0.326 -0.3232  0.3833 -0.2970
   38MOL0     C 5131   7.300   2.698   0.228  0.4290 -0.0051 -0.1262
   38MOL0     C 5132   7.187   2.637   0.177 -0.6042 -0.0429 -0.5812
   38MOL0     C 5133   7.196   2.555   0.064 -0.7842  0.5092 -0.2103
   38MOL0     C 5134   7.065   2.480   0.028  0.4229 -0.1763 -0.5196
   38MOL0     C 5135   7.323   2.544   0.001  0.1705 -0.3126  0.6831
   38MOL0     C 5136   7.341   2.459  -0.119 -0.4636  0.0569  0.1022
   38MOL0     O 5137   7.462   2.455  -0.181 -0.3977 -0.3569 -1.1289
   38MOL0     C 5138   7.484   2.385  -0.297  1.4071 -0.2780 -0.1902
   38MOL0     C 5139   7.458   2.448  -0.422 -0.1760  0.5364  0.1403
   38MOL0     C 5140   7.477   2.377  -0.539 -0.6848  0.2169  0.2152
   38MOL0     C 5141   7.504   2.241  -0.532  0.8969 -0.1557  0.2549
   38MOL0     O 5142   7.511   2.171  -0.647 -0.5976  0.1372 -0.2515
   38MOL0     C 5143   7.611   2.214  -0.738  1.1093  0.6295  0.3954
   38MOL0     C 5144   7.599   2.139  -0.868 -0.2661 -0.6192  0.6869
   38MOL0     C 5145   7.695   2.200  -0.963 -0.0257  0.4924  0.7841
   38MOL0     C 5146   7.677   2.141  -1.110 -0.4561  0.4529  0.2896
   38MOL0     C 5147   7.736   2.237  -1.206 -0.9777 -0.4598 -0.1672
   38MOL0     C 5148   7.711   2.201  -1.352  0.9551 -0.7254  0.3272
   38MOL0     C 5149   7.813   2.096  -1.403  0.2778  0.1891 -0.4617
   38MOL0     C 5150   7.780   2.031  -1.530 -0.4569  0.8181  0.6779
   38MOL0    Cl 5151   7.796   2.158  -1.660  0.7864 -0.1325 -0.3416
   38MOL0     C 5152   7.510   2.176  -0.409  0.0120 -0.4730 -0.7202
   38MOL0     C 5153   7.508   2.246  -0.285 -1.0242  0.1166 -0.2517
   38MOL0     O 5154   7.243   2.397  -0.154  0.6356 -0.3253 -0.5774
   38MOL0     C 5155   7.435   2.612   0.054  0.1301 -0.4700 -0.2807
   38MOL0     C 5156   7.420   2.680   0.173  0.2618 -1.1922 -0.2697
   38MOL0     N 5157   7.511   3.057   0.647 -0.6759 -0.5506  0.8534
   38MOL0     N 5158   7.548   2.965   0.727 -0.4814  0.2425 -0.5698
   38MOL0     C 5159   7.156   1.964   0.853 -0.0899 -0.2019  1.0616
   38MOL0     C 5160   7.088   1.856   0.799 -0.7687  0.8611  1.4485
   38MOL0     C 5161   6.860   1.518   0.646 -0.4003 -0.1528 -0.2714
   38MOL0     C 5162   6.754   1.438   0.690 -1.4853  0.6826  0.4538
   38MOL0     C 5163   6.704   1.341   0.604 -0.5788 -0.3380  0.2814
   38MOL0     C 5164   6.760   1.315   0.477 -1.1985 -0.2107  0.4663
   38MOL0     O 5165   6.697   1.224   0.396 -0.0995  0.5501  0.2421
   38MOL0     C 5166   6.761   1.203   0.266 -0.4747  0.5617  0.5306
   38MOL0     C 5167   6.678   1.113   0.174 -0.2914  0.2847 -0.8063
   38MOL0     C 5168   6.521   1.149   0.190 -0.3162  0.7198  0.0260
   38MOL0     C 5169   6.440   1.094   0.069 -0.0844  1.0169 -0.0329
   38MOL0     C 5170   6.349   0.985   0.118  0.3456  0.1604  0.2140
   38MOL0     C 5171   6.274   0.903   0.179  0.4453 -0.1026 -0.2916
   38MOL0     C 5172   6.884   1.389   0.446  0.0751  0.3941  0.2167
   38MOL0     C 5173   6.932   1.494   0.525  0.5025 -0.6014  0.7464
   38MOL0     C 5174   7.052   1.579   0.473 -0.0213 -0.1563  0.2534
   38MOL0     H 5175   6.833   2.014   0.640  3.1223  3.9883 -1.8058
   38MOL0     H 5176   6.927   2.198   0.758 -3.2167 -1.6046  6.0018
   38MOL0     H 5177   6.980   2.287   0.932  0.3596 -0.3566  3.2685
   38MOL0     H 5178   7.100   2.359   0.806  2.1513 -1.8980  0.3279
   38MOL0     H 5179   7.061   2.491   1.021 -0.4826 -0.7622 -0.1162
   38MOL0     H 5180   7.146   2.364   1.108  2.5371  1.7337  0.7041
   38MOL0     H 5181   7.339   2.386   0.990  1.6816  0.7120  3.7442
   38MOL0     H 5182   7.283   2.488   0.859 -0.7767  0.3488  1.3972
   38MOL0     H 5183   7.249   2.669   1.006  2.6688  1.0696 -4.6993
   38MOL0     H 5184   7.310   2.576   1.151  0.4160 -2.0553 -1.2738
   38MOL0     H 5185   7.530   2.540   1.011 -1.0859 -0.8474 -2.0829
   38MOL0     H 5186   7.497   2.680   1.118  2.7926 -1.9800 -0.3122
   38MOL0     H 5187   7.483   2.643   0.821 -1.3729 -3.1062  3.2713
   38MOL0     H 5188   7.458   2.801   0.877 -2.9012 -1.7850 -1.4813
   38MOL0     H 5189   7.715   2.652   0.918 -0.5260 -0.2022 -1.0152
   38MOL0     H 5190   7.706   2.811   0.963  0.1304  1.6838 -0.7644
   38MOL0     H 5191   7.813   2.795   0.755 -1.1380  1.6231  0.3356
   38MOL0     H 5192   7.676   2.689   0.689 -4.6454  2.3120 -1.7944
   38MOL0     H 5193   7.757   2.895   0.487 -1.8771  1.5763 -4.3421
   38MOL0     H 5194   7.630   3.067   0.317 -2.1699 -1.3373 -0.4330
   38MOL0     H 5195   7.623   3.208   0.421 -0.3480  1.2344 -0.0123
   38MOL0     H 5196   7.360   3.149   0.447  2.3829  0.0841  0.3794
   38MOL0     H 5197   7.408   3.223   0.294 -1.5879  0.4415 -0.0075
   38MOL0     H 5198   7.269   3.027   0.248 -0.6773 -2.3206  0.4390
   38MOL0     H 5199   7.429   2.989   0.197 -0.4930  2.0632 -0.0442
   38MOL0     H 5200   7.456   2.834   0.403 -0.9209 -0.6732  0.9554
   38MOL0     H 5201   7.318   2.909   0.471  0.4725 -2.4983  1.0583
   38MOL0     H 5202   7.087   2.663   0.211  0.6091  1.6454  2.0622
   38MOL0     H 5203   7.077   2.372   0.034 -4.8431 -0.9646  4.2442
   38MOL0     H 5204   7.027   2.513  -0.070 -1.4687 -1.3354 -0.2249
   38MOL0     H 5205   6.989   2.504   0.102  0.9433 -0.1696  0.0181
   38MOL0     H 5206   7.446   2.556  -0.419  0.4483  0.5896  1.8094
   38MOL0     H 5207   7.471   2.436  -0.630 -0.9280 -1.7042 -1.0763
   38MOL0     H 5208   7.604   2.321  -0.756  0.1086  0.7941  1.6606
   38MOL0     H 5209   7.704   2.183  -0.688  0.1048 -3.3383  0.1886
   38MOL0     H 5210   7.623   2.034  -0.850  0.0653 -0.6270  0.2391
   38MOL0     H 5211   7.496   2.159  -0.897  0.5629  1.2812 -1.2354
   38MOL0     H 5212   7.799   2.176  -0.940  0.3722  0.9549 -0.4747
   38MOL0     H 5213   7.683   2.308  -0.964 -0.5936  0.5208 -3.0821
   38MOL0     H 5214   7.571   2.129  -1.133 -0.2100 -1.1662 -0.1045
   38MOL0     H 5215   7.723   2.042  -1.114 -1.4717 -0.0319  0.2926
   38MOL0     H 5216   7.697   2.338  -1.188 -1.2252 -1.1017  3.9805
   38MOL0     H 5217   7.844   2.236  -1.192 -0.8177 -2.9266 -1.1075
   38MOL0     H 5218   7.713   2.290  -1.416  2.7007 -0.1888  1.0612
   38MOL0     H 5219   7.615   2.152  -1.367  0.3899  0.4369 -0.0181
   38MOL0     H 5220   7.827   2.019  -1.327  0.1889  1.4785  0.8859
   38MOL0     H 5221   7.913   2.137  -1.413  1.1169 -1.9132 -1.2923
   38MOL0     H 5222   7.681   1.985  -1.520 -0.3133  0.1197 -0.7986
   38MOL0     H 5223   7.856   1.957  -1.558 -0.3883  1.8372 -2.1587
   38MOL0     H 5224   7.522   2.068  -0.406 -1.0052 -0.6181  2.5468
   38MOL0     H 5225   7.522   2.189  -0.194 -1.4307  2.7702  1.6113
   38MOL0     H 5226   7.537   2.602   0.021  0.5305  1.7520  0.1206
   38MOL0     H 5227   7.510   2.720   0.219 -2.1794  0.6225  3.5371
   38MOL0     H 5228   7.258   1.947   0.886  0.6159 -3.0235 -1.9530
   38MOL0     H 5229   7.133   1.757   0.799 -2.9748 -0.2247 -0.1927
   38MOL0     H 5230   6.707   1.435   0.788  0.1739 -0.3028  1.2689
   38MOL0     H 5231   6.625   1.270   0.626 -0.7724  0.1924  1.3707
   38MOL0     H 5232   6.773   1.298   0.214  0.4000  0.0076 -0.3236
   38MOL0     H 5233   6.861   1.157   0.266 -0.3187  0.8580 -0.9753
   38MOL0     H 5234   6.700   1.008   0.197 -2.3944 -0.5390 -2.2824
   38MOL0     H 5235   6.703   1.120   0.068 -1.1360 -2.6706 -1.3151
   38MOL0     H 5236   6.476   1.131   0.288  0.5864  1.9608  0.6920
   38MOL0     H 5237   6.532   1.257   0.176  5.2411  1.1190  4.0630
   38MOL0     H 5238   6.495   1.065  -0.021 -0.8875  0.5111 -0.3715
   38MOL0     H 5239   6.377   1.172   0.025  2.0608  2.5198 -0.5921
   38MOL0     H 5240   6.219   0.831   0.237 -3.2275  3.3260  0.9309
   38MOL0     H 5241   6.925   1.373   0.346 -1.7282 -1.6937 -0.2811
   38MOL0     H 5242   7.029   1.660   0.404 -1.7060 -2.3218 -1.9146
   38MOL0     H 5243   7.109   1.612   0.560  0.9721 -3.7460  1.1194
   38MOL0     H 5244   7.121   1.509   0.424  2.3477  0.7974  2.0766
   39MOL0     O 5245   2.728   8.553  10.536  0.2137  0.0606 -0.4907
   39MOL0     C 5246   2.628   8.482  10.527  0.3637 -0.7467  0.3002
   39MOL0     O 5247   2.567   8.455  10.407 -0.8418  0.2364  0.0100
   39MOL0     C 5248   2.617   8.500  10.285 -0.0040  0.0097 -0.5523
   39MOL0     C 5249   2.535   8.548  10.181 -0.2591  0.9512 -0.1443
   39MOL0     C 5250   2.580   8.584  10.058  0.0433  0.3252  0.0496
   39MOL0     C 5251   2.722   8.596  10.037  0.1432 -0.3765  0.3488
   39MOL0     O 5252   2.763   8.649   9.917 -0.5439 -0.6696  0.3918
   39MOL0     C 5253   2.892   8.713   9.928 -0.5363 -0.9705 -0.2460
   39MOL0     C 5254   2.944   8.752   9.790 -0.6979 -0.5391 -0.3050
   39MOL0     C 5255   2.840   8.846   9.719  0.4536  0.4683  0.7817
   39MOL0     C 5256   2.869   8.994   9.765  0.6247  0.5635  0.2020
   39MOL0     C 5257   2.768   9.091   9.732  0.4732 -0.0467 -0.4170
   39MOL0     C 5258   2.758   9.104   9.576  0.0587  0.4362 -0.2354
   39MOL0     C 5259   2.669   9.212   9.520  0.3839  0.3126  0.3712
   39MOL0     C 5260   2.717   9.355   9.546 -0.3728 -0.3774 -0.2188
   39MOL0     N 5261   2.597   9.444   9.545  0.2935  0.2763 -0.8224
   39MOL0     C 5262   2.512   9.468   9.641  0.9273 -0.7499  0.4592
   39MOL0     C 5263   2.408   9.537   9.588 -1.0407  0.2995 -0.7035
   39MOL0     C 5264   2.287   9.594   9.652 -1.0024 -0.3901  0.2831
   39MOL0     C 5265   2.172   9.511   9.626  0.2944  0.2168  0.2099
   39MOL0     C 5266   2.193   9.375   9.703 -0.2169 -0.7018 -0.1983
   39MOL0     C 5267   2.078   9.273   9.663 -0.2692 -0.3787  0.1518
   39MOL0     O 5268   2.073   9.261   9.519  0.3493  0.5011  0.0687
   39MOL0     C 5269   2.176   9.196   9.452 -0.1092 -0.1769  0.5176
   39MOL0     C 5270   2.216   9.238   9.327  0.6366 -0.5797  0.5198
   39MOL0     C 5271   2.320   9.179   9.256  1.3349  0.6231 -0.6712
   39MOL0     C 5272   2.365   9.262   9.139 -0.2312  0.0922  0.5827
   39MOL0     C 5273   2.371   9.051   9.298 -0.3274 -0.3545 -0.1439
   39MOL0     C 5274   2.454   8.966   9.221 -0.0020  0.3743  0.0646
   39MOL0     O 5275   2.422   8.969   9.090 -0.0509 -0.4661 -0.3897
   39MOL0     C 5276   2.482   8.893   8.992  0.1242  0.2354  1.0730
   39MOL0     C 5277   2.394   8.844   8.895 -0.0405  0.3877 -0.0910
   39MOL0     C 5278   2.440   8.763   8.794 -0.1408 -0.0347  0.3375
   39MOL0     C 5279   2.585   8.736   8.787 -0.7119  0.4239 -0.3557
   39MOL0     O 5280   2.650   8.653   8.700  0.1153  0.4620 -1.0516
   39MOL0     C 5281   2.579   8.576   8.602 -0.1387  0.0466 -0.6254
   39MOL0     C 5282   2.569   8.430   8.651  0.6305  0.5359 -0.3293
   39MOL0     C 5283   2.699   8.376   8.701  0.4486 -0.4360  0.4502
   39MOL0     C 5284   2.816   8.380   8.601 -0.5819  1.3855 -0.5655
   39MOL0     C 5285   2.918   8.268   8.615  0.1476  0.5643 -0.0565
   39MOL0     C 5286   3.019   8.274   8.501 -0.0275 -0.7213  0.0972
   39MOL0     C 5287   3.150   8.207   8.540 -1.1787 -0.3095 -0.0759
   39MOL0     C 5288   3.139   8.070   8.576 -0.2193 -0.2898 -0.1690
   39MOL0    Cl 5289   3.066   7.964   8.456  0.2054 -0.3831 -0.4563
   39MOL0     C 5290   2.669   8.778   8.892  0.2862  0.0414  0.2709
   39MOL0     C 5291   2.619   8.858   8.991  0.3528  0.2317  0.4276
   39MOL0     O 5292   2.536   8.896   9.278  0.0214  0.2067  1.0548
   39MOL0     C 5293   2.319   9.009   9.421  0.0469  0.7330 -0.5965
   39MOL0     C 5294   2.237   9.083   9.506 -0.2562  0.5101 -0.4921
   39MOL0     N 5295   2.428   9.545   9.451  0.1496  0.2566 -0.1068
   39MOL0     N 5296   2.536   9.483   9.429 -0.5437  0.3968  0.3379
   39MOL0     C 5297   2.803   8.551  10.145 -0.6319  0.1101 -0.1509
   39MOL0     C 5298   2.753   8.494  10.265 -0.2204 -0.5426  0.3271
   39MOL0     C 5299   2.574   8.406  10.645 -0.0448 -0.3022  0.5553
   39MOL0     C 5300   2.490   8.307  10.613 -0.2223  0.6196 -0.4512
   39MOL0     C 5301   2.451   8.212  10.707  0.0976  0.5345 -0.6959
   39MOL0     C 5302   2.470   8.234  10.840  0.8033 -0.2654  0.9457
   39MOL0     O 5303   2.437   8.155  10.941  0.1880 -0.6426 -0.4444
   39MOL0     C 5304   2.366   8.036  10.905  0.8292 -0.3295 -0.4310
   39MOL0     C 5305   2.214   8.052  10.894  1.2102 -0.2527  0.0273
   39MOL0     C 5306   2.141   7.920  10.854 -0.1453 -1.3399 -0.3971
   39MOL0     C 5307   2.013   7.963  10.773  0.2211  0.2309  0.5129
   39MOL0     C 5308   1.905   8.052  10.834  0.1059  0.4100  0.0796
   39MOL0     C 5309   1.828   8.120  10.896  0.7750  0.1868 -0.4150
   39MOL0     C 5310   2.548   8.341  10.870  0.8673 -0.2050 -1.1319
   39MOL0     C 5311   2.595   8.431  10.779 -0.2852 -0.2200 -0.8972
   39MOL0     C 5312   2.696   8.528  10.833 -0.0946 -0.2715  0.3333
   39MOL0     H 5313   2.428   8.555  10.198 -0.3927  1.9131 -1.2457
   39MOL0     H 5314   2.513   8.621   9.980 -1.2649 -0.0908  0.9402
   39MOL0     H 5315   2.969   8.663   9.987 -1.6168  0.1180  2.2005
   39MOL0     H 5316   2.879   8.803   9.989  1.5151 -2.1603  2.1020
   39MOL0     H 5317   3.047   8.788   9.788 -0.4586 -1.0501  1.4331
   39MOL0     H 5318   2.958   8.658   9.735  1.3265 -0.5721  0.2241
   39MOL0     H 5319   2.843   8.841   9.610 -1.5150  1.5202  0.6251
   39MOL0     H 5320   2.735   8.820   9.737  0.4763 -0.5233 -0.3727
   39MOL0     H 5321   2.879   8.992   9.874  1.4311 -2.1347  0.1511
   39MOL0     H 5322   2.966   9.027   9.727  1.1633 -0.2116  0.8640
   39MOL0     H 5323   2.803   9.188   9.768 -1.0076 -0.1236  1.3618
   39MOL0     H 5324   2.672   9.058   9.772  2.2149 -6.0860 -0.2533
   39MOL0     H 5325   2.856   9.127   9.532  0.8560  1.2356  1.8578
   39MOL0     H 5326   2.734   9.008   9.529  0.7996  0.1785 -0.1039
   39MOL0     H 5327   2.570   9.193   9.564 -0.5771  3.4159 -0.2517
   39MOL0     H 5328   2.654   9.199   9.412  1.8021  2.8158 -0.1888
   39MOL0     H 5329   2.776   9.351   9.639  0.4775 -1.2662 -0.7797
   39MOL0     H 5330   2.782   9.382   9.462 -0.1270 -1.2334 -0.3072
   39MOL0     H 5331   2.521   9.440   9.745  2.1480 -1.5664  0.1638
   39MOL0     H 5332   2.275   9.700   9.626 -0.5539 -0.5453 -0.6125
   39MOL0     H 5333   2.307   9.586   9.759  0.0679 -1.3902  0.0285
   39MOL0     H 5334   2.083   9.561   9.665 -1.4364  0.1424 -3.2657
   39MOL0     H 5335   2.169   9.496   9.517  1.9788 -0.4300  0.2211
   39MOL0     H 5336   2.289   9.335   9.668  1.2875 -0.0845  2.8578
   39MOL0     H 5337   2.187   9.375   9.812  0.2257 -3.9530 -0.0659
   39MOL0     H 5338   2.093   9.181   9.720  0.2393 -0.8966 -0.7967
   39MOL0     H 5339   1.983   9.316   9.695 -0.2850  0.4811 -1.0180
   39MOL0     H 5340   2.158   9.325   9.295  1.6854  0.0157  0.1946
   39MOL0     H 5341   2.303   9.348   9.112 -0.5675 -0.9790 -2.5841
   39MOL0     H 5342   2.378   9.200   9.050  2.5816 -0.1369  1.0651
   39MOL0     H 5343   2.463   9.302   9.163  1.5645 -2.6027 -1.6598
   39MOL0     H 5344   2.294   8.884   8.887 -0.2116 -0.2554 -1.3990
   39MOL0     H 5345   2.371   8.729   8.718  0.6352 -1.0176  0.0585
   39MOL0     H 5346   2.479   8.620   8.592  0.0466  1.1622  1.6702
   39MOL0     H 5347   2.636   8.571   8.509 -0.7824  1.0292 -1.0841
   39MOL0     H 5348   2.486   8.410   8.719  0.3673  0.7420 -0.5889
   39MOL0     H 5349   2.534   8.368   8.568 -2.3716  0.6180  0.7782
   39MOL0     H 5350   2.673   8.271   8.717 -0.3366 -0.1994  0.7504
   39MOL0     H 5351   2.728   8.423   8.796 -0.0368 -2.1343  1.4737
   39MOL0     H 5352   2.865   8.475   8.623  0.0956  0.3824  2.9576
   39MOL0     H 5353   2.781   8.382   8.497  2.9789 -1.0994 -2.0354
   39MOL0     H 5354   2.971   8.275   8.710  0.5106 -1.3728 -0.0841
   39MOL0     H 5355   2.865   8.172   8.623  0.3401  0.1053 -3.1472
   39MOL0     H 5356   3.058   8.372   8.473  2.5147 -1.6484  0.1271
   39MOL0     H 5357   2.972   8.232   8.412 -2.0360  3.3967 -1.0438
   39MOL0     H 5358   3.208   8.255   8.620 -0.6165 -1.9881  0.5682
   39MOL0     H 5359   3.204   8.205   8.445 -0.8976 -2.4687  0.0829
   39MOL0     H 5360   3.082   8.068   8.669 -0.1775  3.2438  0.0775
   39MOL0     H 5361   3.238   8.033   8.603  1.1427  1.8111 -1.8658
   39MOL0     H 5362   2.772   8.742   8.888  0.5022  0.6540 -4.0067
   39MOL0     H 5363   2.689   8.897   9.065  1.7663  0.6200 -1.0529
   39MOL0     H 5364   2.361   8.918   9.463 -4.0141 -1.1227 -0.1064
   39MOL0     H 5365   2.211   9.042   9.603  3.1610 -0.0249  0.3583
   39MOL0     H 5366   2.911   8.554  10.132 -0.6737  0.5659 -0.4127
   39MOL0     H 5367   2.830   8.464  10.335 -0.2912 -1.0628  0.1872
   39MOL0     H 5368   2.464   8.276  10.512  3.3141 -0.7334 -1.0935
   39MOL0     H 5369   2.407   8.120  10.671 -2.6050 -0.2116  3.8024
   39MOL0     H 5370   2.414   7.986  10.820  0.4738  0.6778 -1.2387
   39MOL0     H 5371   2.392   7.977  10.994  3.2101  1.6781  0.3130
   39MOL0     H 5372   2.189   8.125  10.817  0.1616 -0.2569  0.3550
   39MOL0     H 5373   2.191   8.087  10.995 -0.5330  1.3597 -0.8691
   39MOL0     H 5374   2.213   7.870  10.789 -0.0077 -0.6141 -0.8050
   39MOL0     H 5375   2.109   7.861  10.941 -1.6134  1.4131  1.0539
   39MOL0     H 5376   1.955   7.884  10.724 -1.0707  2.5285 -1.9152
   39MOL0     H 5377   2.041   8.019  10.684 -1.0908 -0.4466 -0.3683
   39MOL0     H 5378   1.767   8.181  10.960 -0.4399 -3.2955  2.0196
   39MOL0     H 5379   2.583   8.353  10.972  2.8437  2.4881 -2.0203
   39MOL0     H 5380   2.701   8.528  10.942  1.5830  2.7541  0.3675
   39MOL0     H 5381   2.798   8.509  10.798 -0.5345 -0.0136 -1.1365
   39MOL0     H 5382   2.667   8.629  10.804 -0.6119 -0.8701 -1.3814
   40MOL0     O 5383   4.490   5.852   2.623 -0.1067 -0.4117  0.0540
   40MOL0     C 5384   4.610   5.866   2.635 -0.2462 -0.4282 -0.2917
   40MOL0     O 5385   4.697   5.760   2.656 -0.2851 -0.3826 -0.0979
   40MOL0     C 5386   4.665   5.620   2.633 -0.8629 -0.6568  0.3641
   40MOL0     C 5387   4.752   5.537   2.709  0.0255  0.4440 -0.0942
   40MOL0     C 5388   4.721   5.401   2.717 -0.6928  0.5617 -0.4785
   40MOL0     C 5389   4.623   5.346   2.636 -0.0853 -0.0321 -0.0198
   40MOL0     O 5390   4.621   5.212   2.625 -0.2173  0.0732  0.3488
   40MOL0     C 5391   4.488   5.172   2.656 -0.3034 -0.0310  0.1528
   40MOL0     C 5392   4.404   5.125   2.544  0.3053 -0.6439  0.0386
   40MOL0     C 5393   4.290   5.038   2.584 -0.9633  0.1993  0.0654
   40MOL0     C 5394   4.338   4.891   2.599  0.9948 -0.0837  0.5672
   40MOL0     C 5395   4.341   4.814   2.470  0.0921 -0.6948 -1.0228
   40MOL0     C 5396   4.372   4.675   2.507  0.1594  0.2924  0.5891
   40MOL0     C 5397   4.338   4.563   2.393  0.0750  0.4667 -0.5013
   40MOL0     C 5398   4.329   4.422   2.455  0.2763  0.4291  0.2529
   40MOL0     N 5399   4.305   4.299   2.367  0.2047  0.6664 -0.7935
   40MOL0     C 5400   4.338   4.174   2.394  0.4273 -0.6106 -0.4119
   40MOL0     C 5401   4.302   4.109   2.282  0.9036 -0.5970 -0.7198
   40MOL0     C 5402   4.305   3.960   2.269  0.2671  0.5752  0.7585
   40MOL0     C 5403   4.439   3.901   2.216 -0.2862 -0.0602  0.1941
   40MOL0     C 5404   4.440   3.751   2.220  0.0963 -0.5447  0.3008
   40MOL0     C 5405   4.366   3.684   2.107 -0.4109 -0.8231 -0.5086
   40MOL0     O 5406   4.375   3.544   2.123 -0.0279 -0.5100 -0.3843
   40MOL0     C 5407   4.423   3.470   2.018  0.6465  0.5580  0.0164
   40MOL0     C 5408   4.381   3.495   1.884  0.2974 -0.0487  0.0177
   40MOL0     C 5409   4.425   3.421   1.773 -0.5050  0.3087  0.1047
   40MOL0     C 5410   4.392   3.459   1.631  0.6587  0.0008  1.0963
   40MOL0     C 5411   4.504   3.303   1.803 -0.1397 -0.6215  0.1849
   40MOL0     C 5412   4.558   3.218   1.698 -0.7519  0.8916  0.8565
   40MOL0     O 5413   4.695   3.213   1.691 -0.3545 -0.0025  0.5072
   40MOL0     C 5414   4.761   3.188   1.574 -0.2750 -0.0686 -0.1450
   40MOL0     C 5415   4.771   3.284   1.475 -1.0677 -0.7192  0.6525
   40MOL0     C 5416   4.864   3.277   1.366 -1.0648  0.4674  0.0037
   40MOL0     C 5417   4.952   3.166   1.361  0.8306  0.5426 -0.5655
   40MOL0     O 5418   5.031   3.122   1.265  0.3990  0.2125 -0.1052
   40MOL0     C 5419   5.034   3.196   1.143 -0.3650  0.6963  0.8746
   40MOL0     C 5420   4.980   3.117   1.028  0.6518 -0.2034  0.3428
   40MOL0     C 5421   4.952   3.207   0.895 -0.3063  1.0419  0.2442
   40MOL0     C 5422   5.070   3.296   0.850  0.2648  0.2085 -1.0037
   40MOL0     C 5423   5.208   3.222   0.831  0.2608 -0.2210  0.8335
   40MOL0     C 5424   5.211   3.122   0.710 -0.3696 -0.4403  0.1632
   40MOL0     C 5425   5.343   3.046   0.716 -0.0475  0.0714 -0.5147
   40MOL0     C 5426   5.322   2.919   0.637 -0.0147  0.3794  0.5854
   40MOL0    Cl 5427   5.331   2.983   0.468 -0.4499 -0.3887  0.3903
   40MOL0     C 5428   4.944   3.065   1.468  0.0594  0.5300 -0.6172
   40MOL0     C 5429   4.845   3.079   1.566 -0.2064 -0.6642  0.2973
   40MOL0     O 5430   4.478   3.167   1.611 -0.1099 -0.3830 -0.3663
   40MOL0     C 5431   4.539   3.277   1.936 -0.0319  0.1956  0.1557
   40MOL0     C 5432   4.505   3.358   2.040  0.3797  0.3598  0.3205
   40MOL0     N 5433   4.230   4.190   2.199 -0.7989 -0.9386  0.0613
   40MOL0     N 5434   4.239   4.312   2.253  0.8864  0.2299 -0.8710
   40MOL0     C 5435   4.558   5.429   2.537  0.4786 -0.4162 -0.1144
   40MOL0     C 5436   4.584   5.564   2.537  0.3169  0.5359  0.5172
   40MOL0     C 5437   4.664   6.005   2.611 -0.5254 -0.1762 -0.7474
   40MOL0     C 5438   4.792   6.026   2.647 -0.2392  0.8551  0.6885
   40MOL0     C 5439   4.856   6.145   2.625  0.4155 -0.6885 -0.4424
   40MOL0     C 5440   4.786   6.255   2.589  0.3354  0.2195  1.4409
   40MOL0     O 5441   4.853   6.382   2.569  0.3574  0.6729  0.2724
   40MOL0     C 5442   4.777   6.505   2.578 -0.1852  0.7751 -0.7273
   40MOL0     C 5443   4.730   6.521   2.725  0.8987  0.5805  1.2931
   40MOL0     C 5444   4.650   6.657   2.739 -1.1371  1.1823  0.3918
   40MOL0     C 5445   4.525   6.671   2.654  0.4147  0.7900 -0.1395
   40MOL0     C 5446   4.435   6.567   2.690  0.7739  0.8454  0.7638
   40MOL0     C 5447   4.357   6.482   2.726  0.0575 -0.4959 -0.9026
   40MOL0     C 5448   4.651   6.242   2.570 -0.2751 -0.4519  0.5613
   40MOL0     C 5449   4.587   6.122   2.567 -0.1059  0.4528 -0.1139
   40MOL0     C 5450   4.445   6.126   2.510  0.8625  0.3891 -0.0244
   40MOL0     H 5451   4.820   5.578   2.783  0.4827 -2.4766  1.2562
   40MOL0     H 5452   4.791   5.344   2.777 -1.1977 -0.0659 -0.4715
   40MOL0     H 5453   4.435   5.243   2.720  1.9029  0.5212  1.4663
   40MOL0     H 5454   4.505   5.089   2.725  2.1895  0.4494  0.2124
   40MOL0     H 5455   4.355   5.213   2.500  2.4037  1.4581  1.6515
   40MOL0     H 5456   4.464   5.067   2.474 -1.7008 -2.4005 -0.3393
   40MOL0     H 5457   4.240   5.075   2.673 -1.6961 -0.4552 -0.0577
   40MOL0     H 5458   4.214   5.040   2.505 -0.4521 -0.5825 -0.4581
   40MOL0     H 5459   4.436   4.885   2.647  0.7461 -0.3306  1.0480
   40MOL0     H 5460   4.270   4.842   2.668 -2.1687  3.8750  0.6200
   40MOL0     H 5461   4.398   4.852   2.385  2.0477 -2.1235 -0.4200
   40MOL0     H 5462   4.241   4.805   2.426  0.6321 -0.9148 -2.2429
   40MOL0     H 5463   4.479   4.665   2.525  0.5870  0.7407 -1.4195
   40MOL0     H 5464   4.319   4.644   2.598 -0.6016  1.3021  0.5143
   40MOL0     H 5465   4.405   4.550   2.307 -1.6345 -2.4548 -1.5297
   40MOL0     H 5466   4.237   4.590   2.362 -1.7194 -0.8655  3.5204
   40MOL0     H 5467   4.427   4.411   2.502  1.0175  2.3308 -0.7183
   40MOL0     H 5468   4.249   4.425   2.529  1.3825  0.4375  1.5015
   40MOL0     H 5469   4.391   4.134   2.480  0.9519  0.6170 -0.1341
   40MOL0     H 5470   4.231   3.948   2.190  1.7587  0.6904 -0.7254
   40MOL0     H 5471   4.268   3.909   2.359  3.9261 -1.1171  1.4876
   40MOL0     H 5472   4.469   3.940   2.118  1.5009  0.6553  0.9761
   40MOL0     H 5473   4.518   3.937   2.283  0.6815 -2.6038  0.5282
   40MOL0     H 5474   4.545   3.722   2.220  0.1191 -0.5745  2.0478
   40MOL0     H 5475   4.390   3.713   2.310 -2.2411 -1.3308 -1.2402
   40MOL0     H 5476   4.264   3.722   2.112  0.0728  0.3267  2.9272
   40MOL0     H 5477   4.407   3.725   2.014  0.3926  1.9405  0.9618
   40MOL0     H 5478   4.318   3.581   1.863  2.7686  1.0707 -3.7792
   40MOL0     H 5479   4.478   3.435   1.568  0.3317 -0.1103  0.6873
   40MOL0     H 5480   4.359   3.562   1.616  1.1413 -0.1332 -1.3788
   40MOL0     H 5481   4.309   3.391   1.609  0.2124  0.5939  0.9308
   40MOL0     H 5482   4.700   3.365   1.488  0.2197  0.3988  0.7875
   40MOL0     H 5483   4.866   3.350   1.286  0.2740 -0.9665 -1.3491
   40MOL0     H 5484   4.970   3.284   1.149 -3.9434 -1.7409  1.8197
   40MOL0     H 5485   5.136   3.228   1.123 -0.0121 -1.0383 -0.3292
   40MOL0     H 5486   5.056   3.042   1.005 -0.2971 -0.3794 -2.5149
   40MOL0     H 5487   4.893   3.059   1.060  1.3565  0.3598  3.6653
   40MOL0     H 5488   4.875   3.281   0.921  0.4438  1.4631  1.3223
   40MOL0     H 5489   4.914   3.135   0.821 -0.6084  0.2410  1.1594
   40MOL0     H 5490   5.072   3.390   0.905 -1.6272  0.9318 -2.0559
   40MOL0     H 5491   5.040   3.334   0.751 -0.2692 -1.3861 -1.4821
   40MOL0     H 5492   5.290   3.295   0.835  0.4922 -0.5342  2.9325
   40MOL0     H 5493   5.215   3.165   0.924  0.0279  0.0260  1.0082
   40MOL0     H 5494   5.200   3.172   0.613 -3.0440 -0.1669  0.5396
   40MOL0     H 5495   5.125   3.056   0.711 -0.6654 -0.0543  0.8317
   40MOL0     H 5496   5.378   3.029   0.818 -0.4745 -1.8018 -0.6446
   40MOL0     H 5497   5.415   3.105   0.658  2.3138 -3.6055 -1.6538
   40MOL0     H 5498   5.230   2.864   0.658 -0.0557  0.0148 -0.4479
   40MOL0     H 5499   5.407   2.851   0.649 -1.6714 -1.7350  0.9126
   40MOL0     H 5500   5.000   2.972   1.470 -1.8898 -0.6875  0.3723
   40MOL0     H 5501   4.826   3.004   1.642 -2.3466 -0.9481 -0.4557
   40MOL0     H 5502   4.605   3.194   1.959 -2.3199 -1.4579  1.2197
   40MOL0     H 5503   4.547   3.322   2.133  1.0518  2.1522  0.7343
   40MOL0     H 5504   4.489   5.391   2.464 -1.4938 -0.6092  1.7583
   40MOL0     H 5505   4.536   5.629   2.464  1.2597 -1.4290 -1.9955
   40MOL0     H 5506   4.838   5.943   2.701 -0.2555  0.7123  0.4829
   40MOL0     H 5507   4.964   6.144   2.638  0.0763 -0.6871  3.3037
   40MOL0     H 5508   4.833   6.591   2.540 -1.1329  1.7355 -0.0053
   40MOL0     H 5509   4.688   6.495   2.514  1.4352 -1.0889 -2.8499
   40MOL0     H 5510   4.822   6.524   2.784  2.0260 -0.7728 -0.3219
   40MOL0     H 5511   4.660   6.448   2.769 -1.1371  1.5004 -0.2380
   40MOL0     H 5512   4.633   6.657   2.847  4.0330 -0.3067  1.5135
   40MOL0     H 5513   4.726   6.730   2.711  0.7891 -0.9319 -0.2579
   40MOL0     H 5514   4.549   6.678   2.548 -1.9798 -0.5067 -0.8493
   40MOL0     H 5515   4.469   6.765   2.667 -0.2669  0.4213 -0.3791
   40MOL0     H 5516   4.316   6.392   2.768 -0.9849  0.0439 -0.7354
   40MOL0     H 5517   4.588   6.330   2.564  1.1519  0.6408  1.2515
   40MOL0     H 5518   4.433   6.212   2.444 -2.6058 -0.3487 -0.5620
   40MOL0     H 5519   4.421   6.042   2.444 -4.2939  0.4110  1.3975
   40MOL0     H 5520   4.371   6.121   2.591  0.2520  0.8303 -0.5525
   41MOL0     O 5521   3.784  10.398   1.819  0.2513  0.9837 -0.9458
   41MOL0     C 5522   3.780  10.414   1.943  0.0961 -0.1281 -0.5885
   41MOL0     O 5523   3.667  10.417   2.023  0.0938 -0.7218 -0.9659
   41MOL0     C 5524   3.562  10.481   1.967 -0.0976 -0.4354 -0.9208
   41MOL0     C 5525   3.437  10.418   1.987 -0.1034  0.2761 -0.3421
   41MOL0     C 5526   3.321  10.474   1.928 -0.0169 -0.3371 -0.0494
   41MOL0     C 5527   3.332  10.597   1.860  0.3073  1.4969  0.8055
   41MOL0     O 5528   3.230  10.661   1.799  0.4463  0.3022 -0.0549
   41MOL0     C 5529   3.134  10.579   1.723 -0.0560 -0.2190 -0.6184
   41MOL0     C 5530   3.129  10.620   1.574 -0.5231 -0.6570  0.5823
   41MOL0     C 5531   2.990  10.595   1.497  0.1105  0.0763  0.2625
   41MOL0     C 5532   2.877  10.702   1.514 -0.2104  0.2161 -0.5273
   41MOL0     C 5533   2.762  10.675   1.412  0.7903  0.7360  0.2792
   41MOL0     C 5534   2.648  10.776   1.422  0.6601  0.6834  0.6594
   41MOL0     C 5535   2.538  10.737   1.322  0.3109  0.1913 -0.3494
   41MOL0     C 5536   2.416  10.835   1.327 -0.4148  0.3357  0.2539
   41MOL0     N 5537   2.332  10.822   1.202  0.1079  0.0682 -0.6433
   41MOL0     C 5538   2.223  10.745   1.184  0.1058  0.3752  0.2581
   41MOL0     C 5539   2.186  10.779   1.058 -0.1687  0.1506  0.2351
   41MOL0     C 5540   2.060  10.723   0.992 -0.5910 -0.9684 -0.4280
   41MOL0     C 5541   1.955  10.682   1.092  0.7323  0.0535  0.1128
   41MOL0     C 5542   1.821  10.659   1.009  0.0908 -0.9384 -0.0049
   41MOL0     C 5543   1.715  10.654   1.120 -0.4948 -0.2362  0.1367
   41MOL0     O 5544   1.584  10.656   1.069  0.3189  0.2014  0.0999
   41MOL0     C 5545   1.527  10.550   0.991 -0.3463 -0.0439 -0.1183
   41MOL0     C 5546   1.586  10.421   0.988  0.1979 -0.2359 -1.1983
   41MOL0     C 5547   1.513  10.307   0.950 -0.2576  0.3346  0.5333
   41MOL0     C 5548   1.588  10.170   0.967  0.9336  0.1672 -0.1916
   41MOL0     C 5549   1.385  10.319   0.895 -0.0230 -0.9101  0.8460
   41MOL0     C 5550   1.292  10.207   0.846 -0.8721  0.3183 -0.9909
   41MOL0     O 5551   1.325  10.083   0.896 -0.2133  0.2972  0.2341
   41MOL0     C 5552   1.275   9.968   0.843 -0.5845  0.2528  0.6916
   41MOL0     C 5553   1.358   9.898   0.750 -0.0868 -0.7026 -0.0607
   41MOL0     C 5554   1.316   9.778   0.689  0.4364 -0.0483  1.2835
   41MOL0     C 5555   1.198   9.714   0.733 -0.1870 -0.9771 -0.3705
   41MOL0     O 5556   1.137   9.603   0.685  0.5779 -0.2968 -0.9386
   41MOL0     C 5557   1.189   9.544   0.560  0.4519  0.0199  0.2829
   41MOL0     C 5558   1.135   9.401   0.550  0.8102  0.2035 -0.0431
   41MOL0     C 5559   1.003   9.362   0.474 -0.1807  0.9773  0.4900
   41MOL0     C 5560   0.979   9.210   0.474  0.7558 -0.6830  0.1603
   41MOL0     C 5561   0.853   9.180   0.399  0.1843  0.3123 -0.4124
   41MOL0     C 5562   0.731   9.206   0.495  0.9825  0.1558  0.2050
   41MOL0     C 5563   0.587   9.172   0.431 -1.0109 -0.7447 -0.1825
   41MOL0     C 5564   0.473   9.121   0.513  0.5928 -0.5269  0.5103
   41MOL0    Cl 5565   0.395   9.228   0.637 -0.3834  0.1088 -0.6953
   41MOL0     C 5566   1.121   9.784   0.834  1.4322 -0.4043 -0.1861
   41MOL0     C 5567   1.155   9.913   0.879 -0.7497 -0.2556  0.2116
   41MOL0     O 5568   1.218  10.228   0.752 -0.1938  0.1514  0.6584
   41MOL0     C 5569   1.333  10.452   0.896  0.5516  0.7412  0.5550
   41MOL0     C 5570   1.402  10.567   0.938  0.9100 -0.4142 -0.3927
   41MOL0     N 5571   2.283  10.853   0.995  0.5119 -0.1564  0.9348
   41MOL0     N 5572   2.364  10.884   1.085 -0.5484 -0.1419  0.2829
   41MOL0     C 5573   3.449  10.664   1.849  0.4512 -0.7164 -1.0117
   41MOL0     C 5574   3.568  10.612   1.913 -0.4444  0.7958  0.3557
   41MOL0     C 5575   3.904  10.422   2.028 -0.0370  0.5196 -0.0193
   41MOL0     C 5576   3.903  10.493   2.144 -0.6882  0.3622 -0.6187
   41MOL0     C 5577   4.020  10.488   2.222  0.1510 -0.2226  0.4725
   41MOL0     C 5578   4.137  10.418   2.174  0.5958  0.9877 -0.1080
   41MOL0     O 5579   4.258  10.430   2.245 -0.1878 -0.1931 -0.1115
   41MOL0     C 5580   4.236  10.463   2.385 -0.3717 -0.7108  0.1906
   41MOL0     C 5581   4.364  10.428   2.454  0.1244  0.1366 -0.4655
   41MOL0     C 5582   4.387  10.277   2.455 -0.5290  0.4964  0.0778
   41MOL0     C 5583   4.508  10.243   2.547  0.3630  0.3881  0.5044
   41MOL0     C 5584   4.550  10.108   2.506  0.1583 -0.5996  0.5383
   41MOL0     C 5585   4.583   9.994   2.476  0.4997 -0.3763 -0.7839
   41MOL0     C 5586   4.131  10.344   2.052 -0.3219  0.0712 -0.2630
   41MOL0     C 5587   4.018  10.347   1.978 -0.5267  0.0100 -0.0083
   41MOL0     C 5588   4.015  10.253   1.849  1.1116 -0.3321 -0.3539
   41MOL0     H 5589   3.434  10.318   2.028 -1.9863 -0.3672 -1.9059
   41MOL0     H 5590   3.237  10.408   1.946  0.6609 -1.6970 -1.7084
   41MOL0     H 5591   3.033  10.598   1.760 -0.0685 -2.7936  0.8927
   41MOL0     H 5592   3.153  10.472   1.732  1.0053 -0.0302 -0.4515
   41MOL0     H 5593   3.146  10.728   1.567 -0.6226 -0.7435 -2.4575
   41MOL0     H 5594   3.214  10.573   1.523 -0.0157 -0.5150  1.2783
   41MOL0     H 5595   3.001  10.595   1.388  2.6321  1.9082  0.4229
   41MOL0     H 5596   2.945  10.502   1.531 -0.4995  0.1087 -0.4420
   41MOL0     H 5597   2.829  10.698   1.612  1.1747 -1.0448  0.1345
   41MOL0     H 5598   2.929  10.799   1.516  1.8255 -0.8017  2.4791
   41MOL0     H 5599   2.721  10.577   1.435 -1.2240  1.0253 -1.7843
   41MOL0     H 5600   2.802  10.671   1.310 -2.1711 -0.8604 -0.9139
   41MOL0     H 5601   2.606  10.770   1.523 -2.5873 -3.9869 -0.6058
   41MOL0     H 5602   2.682  10.877   1.400  0.6418  0.6700  0.5684
   41MOL0     H 5603   2.496  10.639   1.343  0.0443  0.4186  0.1965
   41MOL0     H 5604   2.578  10.730   1.220 -2.4256  0.8780 -1.5654
   41MOL0     H 5605   2.354  10.822   1.416 -0.1227 -0.8185  0.3050
   41MOL0     H 5606   2.470  10.930   1.332 -0.1853  0.1575  1.5459
   41MOL0     H 5607   2.179  10.677   1.255  0.0319 -0.6922 -0.7842
   41MOL0     H 5608   2.092  10.636   0.933  0.0097  0.4417 -2.2733
   41MOL0     H 5609   2.015  10.795   0.923 -3.2625 -0.7612  1.4113
   41MOL0     H 5610   1.977  10.586   1.140 -0.0271 -0.4788 -0.5780
   41MOL0     H 5611   1.942  10.757   1.171  1.5529  1.3648 -0.9682
   41MOL0     H 5612   1.793  10.742   0.943  1.4698 -1.5307 -1.3646
   41MOL0     H 5613   1.813  10.563   0.959 -1.2272 -0.8584  0.0129
   41MOL0     H 5614   1.739  10.576   1.193  0.7978  0.7556  0.8244
   41MOL0     H 5615   1.721  10.746   1.179 -1.2854 -1.1231  1.6449
   41MOL0     H 5616   1.681  10.406   1.038 -0.0330  0.7515 -0.4328
   41MOL0     H 5617   1.688  10.197   1.001  1.6921 -2.1665 -0.4016
   41MOL0     H 5618   1.589  10.112   0.874  0.0970 -2.0078  1.0823
   41MOL0     H 5619   1.541  10.104   1.040 -2.4390  0.5817 -1.8063
   41MOL0     H 5620   1.455   9.943   0.735 -0.2808 -0.4481 -0.5656
   41MOL0     H 5621   1.361   9.737   0.600 -3.5520 -1.8140 -0.1681
   41MOL0     H 5622   1.164   9.603   0.471 -0.2411 -0.9139 -0.1560
   41MOL0     H 5623   1.299   9.543   0.565  0.4141 -1.2947  1.4122
   41MOL0     H 5624   1.217   9.342   0.507 -0.8958 -2.6383  0.3056
   41MOL0     H 5625   1.131   9.361   0.652 -0.3419  0.9903  0.2325
   41MOL0     H 5626   1.016   9.389   0.369 -0.8874 -1.4591 -0.3084
   41MOL0     H 5627   0.915   9.407   0.521 -1.6760 -1.9473  0.7815
   41MOL0     H 5628   0.982   9.171   0.576  1.4698  1.9044  1.1928
   41MOL0     H 5629   1.062   9.161   0.421 -1.4643 -1.7951 -2.5261
   41MOL0     H 5630   0.844   9.247   0.313 -0.6868  1.1504  0.3164
   41MOL0     H 5631   0.865   9.073   0.378  1.0554 -0.1690  2.1105
   41MOL0     H 5632   0.722   9.306   0.538 -0.7072 -0.7985  2.2712
   41MOL0     H 5633   0.735   9.136   0.579 -1.9221 -0.8586 -0.3776
   41MOL0     H 5634   0.609   9.099   0.353  2.0623 -1.0838  0.8546
   41MOL0     H 5635   0.555   9.267   0.388 -1.7620  0.0047  1.8746
   41MOL0     H 5636   0.496   9.026   0.562 -2.3704 -2.3537 -1.3173
   41MOL0     H 5637   0.401   9.092   0.435 -1.5668  0.2661  2.1194
   41MOL0     H 5638   1.028   9.739   0.866 -1.9750  4.2499 -2.3976
   41MOL0     H 5639   1.101   9.963   0.959 -0.7041 -2.6380  1.8676
   41MOL0     H 5640   1.228  10.473   0.877  0.0252 -1.4853  0.7683
   41MOL0     H 5641   1.358  10.666   0.934 -2.4146 -1.7344 -0.3507
   41MOL0     H 5642   3.441  10.764   1.807  3.1574 -0.7766 -1.8802
   41MOL0     H 5643   3.656  10.676   1.918 -0.7949  1.1356  3.3270
   41MOL0     H 5644   3.819  10.554   2.175  1.1506  2.4690  0.4531
   41MOL0     H 5645   4.011  10.550   2.310 -1.6653  0.0051  0.1757
   41MOL0     H 5646   4.203  10.567   2.385 -2.8281 -1.3672 -1.9328
   41MOL0     H 5647   4.147  10.411   2.423 -1.8433  1.0190 -0.7395
   41MOL0     H 5648   4.360  10.463   2.558  3.3565 -1.1959  0.2514
   41MOL0     H 5649   4.458  10.474   2.421  1.6061 -1.5116  1.1631
   41MOL0     H 5650   4.303  10.220   2.496 -0.8425  0.9874  0.1298
   41MOL0     H 5651   4.407  10.245   2.352 -0.0802 -0.6960  0.5162
   41MOL0     H 5652   4.484  10.227   2.652  1.5663 -2.9237  0.3677
   41MOL0     H 5653   4.566  10.336   2.541  0.7683  0.2129  1.6606
   41MOL0     H 5654   4.607   9.891   2.459 -0.7852 -0.6495 -0.9964
   41MOL0     H 5655   4.220  10.294   2.017  1.6446  2.7046  0.6591
   41MOL0     H 5656   4.112  10.204   1.861  1.5597  0.8248  1.1656
   41MOL0     H 5657   3.934  10.181   1.853 -0.3250  1.2400  2.2409
   41MOL0     H 5658   4.017  10.314   1.759 -1.4380 -1.1357 -1.0320
   42MOL0     O 5659   6.355   1.061   5.011 -0.2687 -0.3829 -0.4998
   42MOL0     C 5660   6.347   1.013   4.897  0.2051 -0.0213  0.5797
   42MOL0     O 5661   6.441   1.016   4.799 -0.7736 -0.5532  0.2769
   42MOL0     C 5662   6.575   1.048   4.843  0.3068  0.4120 -0.5690
   42MOL0     C 5663   6.684   0.974   4.784  0.7943  0.8362  0.2617
   42MOL0     C 5664   6.818   1.011   4.816  0.2616  0.1674 -0.0347
   42MOL0     C 5665   6.839   1.115   4.906 -0.6384 -1.1503 -0.5117
   42MOL0     O 5666   6.965   1.166   4.949 -0.2590  0.1566  0.1726
   42MOL0     C 5667   7.082   1.082   4.948 -0.0779  0.5330 -0.6185
   42MOL0     C 5668   7.188   1.122   5.052 -1.0904 -0.2027 -0.9748
   42MOL0     C 5669   7.295   1.238   5.002  0.9834  0.0648 -0.1712
   42MOL0     C 5670   7.221   1.368   4.960 -0.2804 -0.0904  0.5925
   42MOL0     C 5671   7.194   1.459   5.076 -0.1706 -0.8448 -0.1544
   42MOL0     C 5672   7.103   1.579   5.031  1.1488 -0.3515 -0.6027
   42MOL0     C 5673   6.951   1.567   5.037 -0.1691  0.0981  0.4438
   42MOL0     C 5674   6.897   1.541   5.175 -0.4594  0.5071 -0.4365
   42MOL0     N 5675   6.754   1.543   5.182  0.4608 -0.5273 -0.8917
   42MOL0     C 5676   6.673   1.445   5.250 -1.1480  0.4851 -0.6913
   42MOL0     C 5677   6.547   1.487   5.227  0.1448  0.2275 -1.0898
   42MOL0     C 5678   6.419   1.419   5.269 -0.4725 -0.5940 -0.4671
   42MOL0     C 5679   6.403   1.416   5.424  0.6104  0.1263  0.6639
   42MOL0     C 5680   6.247   1.388   5.458 -1.1229  0.6497 -0.0373
   42MOL0     C 5681   6.212   1.239   5.435 -0.0562 -0.0428  0.1899
   42MOL0     O 5682   6.304   1.158   5.509  0.2234 -0.3751  0.3445
   42MOL0     C 5683   6.327   1.027   5.480 -0.1803  0.1742 -1.0354
   42MOL0     C 5684   6.424   0.962   5.547 -0.4189  0.6322  0.3228
   42MOL0     C 5685   6.457   0.822   5.523 -0.1670  0.0122  0.4497
   42MOL0     C 5686   6.553   0.757   5.617 -0.7331  1.3569  0.8690
   42MOL0     C 5687   6.372   0.751   5.431 -0.2236 -0.5977 -0.7082
   42MOL0     C 5688   6.376   0.608   5.412  0.0129  0.4718  0.2831
   42MOL0     O 5689   6.495   0.546   5.419  0.6441 -0.0237  0.1143
   42MOL0     C 5690   6.505   0.409   5.409  1.0267 -0.0447  0.0247
   42MOL0     C 5691   6.602   0.346   5.332 -0.4682 -0.3263 -1.2371
   42MOL0     C 5692   6.614   0.209   5.332  0.4431 -0.2363  0.3252
   42MOL0     C 5693   6.520   0.136   5.399 -0.2327 -0.3045  0.3735
   42MOL0     O 5694   6.529   0.005   5.385  0.1671 -0.5652 -0.9243
   42MOL0     C 5695   6.617  -0.047   5.489 -0.7335 -0.5578  0.4315
   42MOL0     C 5696   6.676  -0.182   5.450 -0.4769  1.3894  0.3179
   42MOL0     C 5697   6.776  -0.249   5.546 -0.3201  0.5547 -1.1127
   42MOL0     C 5698   6.711  -0.323   5.667 -0.2541 -0.2903  0.1388
   42MOL0     C 5699   6.823  -0.382   5.752 -0.4987  0.3364  0.5040
   42MOL0     C 5700   6.773  -0.440   5.880  0.1259 -0.0558 -0.2013
   42MOL0     C 5701   6.857  -0.559   5.928 -0.5067 -0.2710  0.0889
   42MOL0     C 5702   6.786  -0.632   6.045 -0.4936  0.0352  0.2689
   42MOL0    Cl 5703   6.789  -0.534   6.184 -0.3549 -0.2966 -0.5243
   42MOL0     C 5704   6.419   0.192   5.480  0.2140  0.8477 -0.2351
   42MOL0     C 5705   6.413   0.328   5.480 -0.4291  0.6003 -0.0742
   42MOL0     O 5706   6.272   0.551   5.371 -0.7708  0.1992 -0.6631
   42MOL0     C 5707   6.263   0.823   5.368 -1.1306 -0.1235  0.1220
   42MOL0     C 5708   6.247   0.964   5.387 -1.0337  0.0435  0.3607
   42MOL0     N 5709   6.548   1.601   5.146 -0.6889  0.2754 -0.3869
   42MOL0     N 5710   6.667   1.636   5.133 -0.2530  0.3517  0.4384
   42MOL0     C 5711   6.735   1.190   4.964 -0.3196 -0.2747  0.7317
   42MOL0     C 5712   6.607   1.146   4.936  0.0505 -0.7646  0.0351
   42MOL0     C 5713   6.216   0.950   4.853  0.2230  0.3359  0.1499
   42MOL0     C 5714   6.207   0.896   4.720  0.8565  0.1970  0.2868
   42MOL0     C 5715   6.083   0.847   4.673 -0.0812  0.8034 -0.4562
   42MOL0     C 5716   5.972   0.828   4.757 -0.0919 -1.0957 -0.0326
   42MOL0     O 5717   5.855   0.783   4.715  0.1509 -0.1107  0.0128
   42MOL0     C 5718   5.829   0.762   4.573 -0.6611  0.6813 -0.7553
   42MOL0     C 5719   5.691   0.699   4.574  1.3015 -0.0592  0.3489
   42MOL0     C 5720   5.681   0.553   4.589 -0.1746 -0.0992  0.6718
   42MOL0     C 5721   5.534   0.506   4.605 -0.3980  0.7829  0.0389
   42MOL0     C 5722   5.528   0.365   4.638 -0.1310 -0.6572 -0.3910
   42MOL0     C 5723   5.530   0.245   4.653  0.0231 -0.3880 -1.0020
   42MOL0     C 5724   5.976   0.883   4.889 -1.1111  0.2350 -0.2288
   42MOL0     C 5725   6.098   0.942   4.933 -0.3085 -0.0275  0.7007
   42MOL0     C 5726   6.098   0.996   5.072  0.1418  0.3517  0.1220
   42MOL0     H 5727   6.660   0.899   4.710  1.6139  2.3594 -1.6628
   42MOL0     H 5728   6.906   0.957   4.783  0.7320  1.1358 -0.4194
   42MOL0     H 5729   7.119   1.085   4.845  1.8325  0.4706  0.0216
   42MOL0     H 5730   7.054   0.978   4.966  2.4260 -0.1826 -0.5574
   42MOL0     H 5731   7.139   1.155   5.144  1.2095  0.9828 -0.0797
   42MOL0     H 5732   7.241   1.034   5.090 -1.8593 -1.1705 -2.0792
   42MOL0     H 5733   7.358   1.276   5.083  0.4737 -0.7692  0.6531
   42MOL0     H 5734   7.356   1.200   4.920 -0.1179 -0.0849 -0.9481
   42MOL0     H 5735   7.279   1.432   4.892 -3.4513  0.6186 -1.6838
   42MOL0     H 5736   7.133   1.338   4.903  0.5284  0.2146 -0.8803
   42MOL0     H 5737   7.279   1.505   5.127 -1.3268  2.7777 -1.2234
   42MOL0     H 5738   7.140   1.416   5.162 -2.9265  2.9575  0.2293
   42MOL0     H 5739   7.130   1.667   5.090 -1.9000  0.1636  0.2242
   42MOL0     H 5740   7.121   1.604   4.926 -1.4611  3.7002 -0.3150
   42MOL0     H 5741   6.926   1.492   4.961  2.8163  0.2506 -0.8113
   42MOL0     H 5742   6.915   1.662   4.996 -1.0714 -0.5940 -0.4371
   42MOL0     H 5743   6.936   1.448   5.218 -2.1061  0.4709  1.0419
   42MOL0     H 5744   6.931   1.630   5.228  1.8889  0.2190 -1.2997
   42MOL0     H 5745   6.697   1.347   5.290 -2.6347 -0.0335 -0.9926
   42MOL0     H 5746   6.430   1.317   5.231  2.5255  0.2610 -2.1530
   42MOL0     H 5747   6.339   1.479   5.224  0.0089  0.0587 -0.4662
   42MOL0     H 5748   6.466   1.333   5.457  1.9849  0.0303 -1.9347
   42MOL0     H 5749   6.435   1.508   5.472 -1.1932  1.2515 -0.1655
   42MOL0     H 5750   6.240   1.413   5.564  6.1543  2.7137  0.4993
   42MOL0     H 5751   6.188   1.445   5.385 -2.0968 -0.9120 -0.5142
   42MOL0     H 5752   6.114   1.224   5.482  0.0977 -0.6930  0.3102
   42MOL0     H 5753   6.208   1.227   5.327  1.2715 -0.3277  0.1543
   42MOL0     H 5754   6.488   1.001   5.625  2.2766 -1.8330 -0.4804
   42MOL0     H 5755   6.516   0.677   5.682  3.5370 -0.1185  1.8241
   42MOL0     H 5756   6.600   0.828   5.686  0.4676  1.8467 -0.4012
   42MOL0     H 5757   6.621   0.710   5.545 -1.5370  1.9450 -0.2910
   42MOL0     H 5758   6.675   0.412   5.285  0.9964  0.7516  2.2372
   42MOL0     H 5759   6.700   0.177   5.274  3.3161  4.2000  1.5983
   42MOL0     H 5760   6.697   0.018   5.525  0.6489 -1.1426 -1.3895
   42MOL0     H 5761   6.551  -0.058   5.575 -2.3359  2.0887 -0.2993
   42MOL0     H 5762   6.593  -0.253   5.442  0.5830 -0.3821  3.4033
   42MOL0     H 5763   6.724  -0.171   5.352 -1.0087 -0.3868 -0.1787
   42MOL0     H 5764   6.847  -0.174   5.584 -0.0855 -0.4157  0.4861
   42MOL0     H 5765   6.833  -0.322   5.488 -0.5073  0.3853 -1.0848
   42MOL0     H 5766   6.647  -0.392   5.611 -2.5083  1.1394  0.8259
   42MOL0     H 5767   6.647  -0.253   5.721 -2.5056 -1.7482 -0.5304
   42MOL0     H 5768   6.874  -0.458   5.692 -0.2867  0.3571  0.6556
   42MOL0     H 5769   6.905  -0.310   5.765 -0.6317  0.4066  0.9457
   42MOL0     H 5770   6.670  -0.477   5.869 -0.3810 -0.8468  4.8974
   42MOL0     H 5771   6.766  -0.364   5.958  0.0342 -0.3967  0.1262
   42MOL0     H 5772   6.958  -0.528   5.956 -0.8360 -1.2598  2.7054
   42MOL0     H 5773   6.877  -0.629   5.846 -0.5839 -1.5378  1.1186
   42MOL0     H 5774   6.806  -0.738   6.062 -2.8395 -0.6139 -0.6261
   42MOL0     H 5775   6.680  -0.643   6.018 -1.1635  1.9554  1.8123
   42MOL0     H 5776   6.345   0.136   5.537 -0.6579  1.7509 -0.4595
   42MOL0     H 5777   6.329   0.367   5.536 -0.4273 -0.7053  0.8915
   42MOL0     H 5778   6.191   0.771   5.306 -0.9471 -1.7469  1.2122
   42MOL0     H 5779   6.165   1.013   5.336 -0.7442  0.9402  0.7234
   42MOL0     H 5780   6.751   1.282   5.020 -2.1654  1.5164 -1.4560
   42MOL0     H 5781   6.536   1.220   4.973  0.7760 -0.4626  0.8604
   42MOL0     H 5782   6.287   0.898   4.646  1.1448  1.3305  0.6102
   42MOL0     H 5783   6.073   0.815   4.570 -0.6808  0.3626 -0.2695
   42MOL0     H 5784   5.837   0.858   4.521  1.3748  1.1737  0.3811
   42MOL0     H 5785   5.895   0.700   4.513 -1.4305 -0.8745 -0.0474
   42MOL0     H 5786   5.655   0.727   4.474  0.6002  1.7820  1.0675
   42MOL0     H 5787   5.642   0.741   4.662  1.0969 -0.4371  0.4180
   42MOL0     H 5788   5.724   0.512   4.497  1.3331  0.5052  1.0916
   42MOL0     H 5789   5.736   0.504   4.670  0.5377 -3.2076 -1.4960
   42MOL0     H 5790   5.486   0.515   4.507  3.0536 -3.4237 -2.3790
   42MOL0     H 5791   5.480   0.569   4.676 -1.0555  0.9052 -0.5631
   42MOL0     H 5792   5.523   0.141   4.677 -0.0285  0.6362  4.6907
   42MOL0     H 5793   5.884   0.879   4.947 -0.4407  0.3761  0.8697
   42MOL0     H 5794   6.005   0.972   5.125  0.9631 -1.9764  0.6335
   42MOL0     H 5795   6.179   0.943   5.123  0.9965  1.0491 -0.4937
   42MOL0     H 5796   6.104   1.104   5.083  0.4665  0.4093 -0.5940
   43MOL0     O 5797   8.642   6.293   4.359 -0.4147  0.0483 -0.6648
   43MOL0     C 5798   8.637   6.271   4.241  0.5253  0.0650  0.6629
   43MOL0     O 5799   8.537   6.315   4.156 -0.9064 -0.0250  0.3469
   43MOL0     C 5800   8.450   6.411   4.203 -0.3654  0.3028 -0.4925
   43MOL0     C 5801   8.307   6.395   4.185 -0.6851  0.8289 -0.2851
   43MOL0     C 5802   8.221   6.498   4.228 -1.2344 -0.2269 -0.4403
   43MOL0     C 5803   8.269   6.621   4.278  0.1081  0.6949  0.4036
   43MOL0     O 5804   8.183   6.711   4.324  0.2293  0.8961  0.3320
   43MOL0     C 5805   8.153   6.714   4.464 -0.1170 -0.2964  0.4981
   43MOL0     C 5806   8.017   6.764   4.487 -1.1906  0.2133 -0.9569
   43MOL0     C 5807   7.907   6.709   4.392 -0.8343  0.1237  0.3016
   43MOL0     C 5808   7.770   6.726   4.447  0.4569  0.0522 -0.2575
   43MOL0     C 5809   7.660   6.701   4.348  0.3647  0.0411 -0.5001
   43MOL0     C 5810   7.516   6.723   4.398 -0.4312  0.5320 -0.5845
   43MOL0     C 5811   7.491   6.856   4.462  0.3514 -0.5998 -0.5984
   43MOL0     C 5812   7.344   6.877   4.471 -1.0287  1.0008 -0.1857
   43MOL0     N 5813   7.313   6.998   4.548 -0.3053 -0.3979 -0.2115
   43MOL0     C 5814   7.269   7.118   4.492  0.3115  0.6646  0.6293
   43MOL0     C 5815   7.247   7.207   4.594  0.7152  0.1082  0.1181
   43MOL0     C 5816   7.190   7.354   4.595  0.1891  0.6802 -0.1221
   43MOL0     C 5817   7.129   7.398   4.726  0.3675 -0.1122  0.1106
   43MOL0     C 5818   7.225   7.457   4.822 -0.6972 -0.3104 -0.2785
   43MOL0     C 5819   7.179   7.474   4.965  1.0222 -0.2514 -0.9176
   43MOL0     O 5820   7.073   7.565   5.002  0.1530 -1.2821  0.7900
   43MOL0     C 5821   7.104   7.695   4.970 -0.9507 -0.0043 -0.1495
   43MOL0     C 5822   7.077   7.754   4.844 -0.9973  0.0895  0.8362
   43MOL0     C 5823   7.093   7.892   4.815  0.4471  0.6032 -0.0881
   43MOL0     C 5824   7.043   7.939   4.685  0.1920 -0.2824  0.1558
   43MOL0     C 5825   7.143   7.978   4.909 -0.0978  0.2164 -0.1399
   43MOL0     C 5826   7.152   8.117   4.882  0.0107 -0.9734 -0.7960
   43MOL0     O 5827   7.265   8.168   4.931 -0.4054  0.2140 -0.1502
   43MOL0     C 5828   7.305   8.288   4.883 -0.2393 -0.2348 -0.2631
   43MOL0     C 5829   7.330   8.381   4.981  0.2152  0.0336 -0.4284
   43MOL0     C 5830   7.367   8.513   4.952  0.1682  1.0364 -0.7001
   43MOL0     C 5831   7.373   8.548   4.818  0.1045 -0.1268 -0.4513
   43MOL0     O 5832   7.384   8.683   4.799 -0.1878  0.3213  0.2787
   43MOL0     C 5833   7.260   8.748   4.808  0.0844 -0.2542  0.2926
   43MOL0     C 5834   7.273   8.896   4.822  0.5499 -0.2952  0.0589
   43MOL0     C 5835   7.334   8.918   4.967 -0.0094 -0.3182  0.5126
   43MOL0     C 5836   7.333   9.066   5.003 -0.8976 -0.0481 -0.3298
   43MOL0     C 5837   7.344   9.081   5.153 -0.2315  1.0279  0.2210
   43MOL0     C 5838   7.368   9.220   5.214 -0.4167 -0.1983  0.7030
   43MOL0     C 5839   7.356   9.348   5.124  0.3752  0.2099 -0.1785
   43MOL0     C 5840   7.345   9.481   5.195  1.0168 -0.0650  0.2268
   43MOL0    Cl 5841   7.520   9.524   5.236  0.2856  0.0801  0.0996
   43MOL0     C 5842   7.351   8.452   4.712 -0.5077 -0.5854  0.2329
   43MOL0     C 5843   7.318   8.320   4.747 -0.1508 -0.8477 -0.0655
   43MOL0     O 5844   7.061   8.186   4.823  0.4073  0.1469 -0.0370
   43MOL0     C 5845   7.179   7.923   5.035 -0.5948  0.3426  0.7597
   43MOL0     C 5846   7.168   7.781   5.054  0.2669  0.7140  0.8592
   43MOL0     N 5847   7.263   7.133   4.709 -0.3300  0.0050  0.8941
   43MOL0     N 5848   7.313   7.016   4.682 -0.7621 -0.3030  0.4291
   43MOL0     C 5849   8.411   6.633   4.282 -0.2363 -0.0739  0.7134
   43MOL0     C 5850   8.499   6.536   4.249  0.1022  1.0439  0.4859
   43MOL0     C 5851   8.740   6.184   4.184 -0.1039 -0.5397  0.4394
   43MOL0     C 5852   8.863   6.180   4.254  0.4378 -0.4159 -0.4624
   43MOL0     C 5853   8.968   6.106   4.209 -0.1192 -0.2801  0.3062
   43MOL0     C 5854   8.959   6.035   4.087  0.0963  1.2157 -0.0223
   43MOL0     O 5855   9.071   5.964   4.038 -0.1769  0.5268 -0.3166
   43MOL0     C 5856   9.064   5.821   4.060  0.1072 -0.0571  0.1307
   43MOL0     C 5857   9.176   5.759   3.976  0.1068  0.5027  1.0120
   43MOL0     C 5858   9.154   5.605   3.956 -0.1534  0.7844  0.1496
   43MOL0     C 5859   9.272   5.525   3.903 -0.3216 -0.4684 -0.3287
   43MOL0     C 5860   9.268   5.382   3.945 -0.4084  0.1235 -0.1545
   43MOL0     C 5861   9.264   5.274   3.990 -0.0874 -0.0774  0.4380
   43MOL0     C 5862   8.835   6.036   4.018 -0.2237  1.0317  1.0033
   43MOL0     C 5863   8.729   6.116   4.063  0.6758  0.5772 -0.0303
   43MOL0     C 5864   8.599   6.093   3.995  1.0355 -0.0066 -0.5316
   43MOL0     H 5865   8.267   6.314   4.125 -1.0890 -0.6522  1.8556
   43MOL0     H 5866   8.116   6.482   4.206 -0.7566 -3.2108 -0.9835
   43MOL0     H 5867   8.221   6.782   4.515 -1.3242  2.6130 -1.4876
   43MOL0     H 5868   8.163   6.616   4.512  3.6703 -0.1463  0.3110
   43MOL0     H 5869   7.987   6.745   4.591 -0.6882  0.1226 -0.8242
   43MOL0     H 5870   8.024   6.873   4.483  2.7515  0.1170 -0.7652
   43MOL0     H 5871   7.908   6.758   4.294  0.2712 -1.6423 -0.6300
   43MOL0     H 5872   7.934   6.605   4.368  1.5749  0.6006  0.6574
   43MOL0     H 5873   7.766   6.647   4.523  0.2238 -0.1053 -0.4328
   43MOL0     H 5874   7.764   6.827   4.490 -0.8130 -0.0031 -0.2696
   43MOL0     H 5875   7.661   6.605   4.296 -1.3448  0.4248 -1.2993
   43MOL0     H 5876   7.676   6.773   4.267  0.6053  0.8878  0.2843
   43MOL0     H 5877   7.443   6.713   4.318 -2.2815  2.1144  0.8119
   43MOL0     H 5878   7.486   6.645   4.468 -2.7801  1.5657 -0.3411
   43MOL0     H 5879   7.537   6.938   4.405 -0.5701  0.6459  0.3878
   43MOL0     H 5880   7.538   6.859   4.561 -0.3388 -0.2699 -0.2735
   43MOL0     H 5881   7.309   6.883   4.368 -0.3739 -2.6439 -0.7457
   43MOL0     H 5882   7.292   6.790   4.512 -0.0882  0.9257  0.8912
   43MOL0     H 5883   7.257   7.148   4.389  2.0315  2.0087  0.7590
   43MOL0     H 5884   7.123   7.356   4.508 -0.8907  3.2038  0.6506
   43MOL0     H 5885   7.259   7.435   4.567 -0.8144  1.9270  0.8624
   43MOL0     H 5886   7.053   7.476   4.717  2.5035  2.2295  1.1751
   43MOL0     H 5887   7.083   7.312   4.776 -3.3181  1.1222 -0.8372
   43MOL0     H 5888   7.311   7.390   4.822 -0.8710 -0.7077 -3.9130
   43MOL0     H 5889   7.264   7.554   4.789 -2.4426 -0.4666 -3.1099
   43MOL0     H 5890   7.138   7.377   4.995 -0.6736  0.3597 -1.1297
   43MOL0     H 5891   7.270   7.502   5.018  0.4903  2.9136 -1.5020
   43MOL0     H 5892   7.024   7.694   4.772  0.2509 -1.9566  1.5523
   43MOL0     H 5893   7.043   7.849   4.624  3.3230 -1.4213  1.6509
   43MOL0     H 5894   7.110   8.009   4.635  1.9192 -2.6432 -1.0366
   43MOL0     H 5895   6.941   7.978   4.692  1.1151  2.8208 -1.7047
   43MOL0     H 5896   7.325   8.348   5.084 -1.4049 -0.4412 -0.6373
   43MOL0     H 5897   7.381   8.583   5.033  0.4693 -0.9217  1.0025
   43MOL0     H 5898   7.215   8.736   4.709  1.6652 -1.4614 -0.3178
   43MOL0     H 5899   7.187   8.716   4.883 -2.4519 -0.3148 -2.0261
   43MOL0     H 5900   7.326   8.936   4.735  2.8590 -2.5790  0.2815
   43MOL0     H 5901   7.168   8.920   4.837  0.8696  1.0799  0.2781
   43MOL0     H 5902   7.437   8.882   4.964 -0.1440 -0.7817  1.2771
   43MOL0     H 5903   7.281   8.855   5.039 -2.6310  0.6166 -0.4839
   43MOL0     H 5904   7.235   9.100   4.966 -0.2397  0.7958 -1.3419
   43MOL0     H 5905   7.416   9.114   4.951  0.0429  0.7393  1.8016
   43MOL0     H 5906   7.262   9.029   5.203 -1.1195  1.1655 -1.0317
   43MOL0     H 5907   7.436   9.033   5.189  1.7552  3.5692 -1.1413
   43MOL0     H 5908   7.471   9.213   5.248  0.6765 -3.0871 -2.5778
   43MOL0     H 5909   7.301   9.252   5.294  0.3760  2.8460  0.2439
   43MOL0     H 5910   7.266   9.343   5.062 -0.7378  1.0956  1.2920
   43MOL0     H 5911   7.437   9.351   5.050 -1.3330  0.0893 -2.1586
   43MOL0     H 5912   7.279   9.479   5.282  0.9946 -3.0994  0.2465
   43MOL0     H 5913   7.306   9.554   5.124  1.3541  1.9065  1.9807
   43MOL0     H 5914   7.341   8.481   4.608 -1.1336 -2.9687 -0.4320
   43MOL0     H 5915   7.304   8.251   4.664  1.3051  0.4935 -1.4944
   43MOL0     H 5916   7.221   7.979   5.119 -0.0448 -0.4095  0.9877
   43MOL0     H 5917   7.187   7.734   5.150  1.5431  2.4586  1.5244
   43MOL0     H 5918   8.438   6.734   4.308  0.0605  0.1078 -0.2829
   43MOL0     H 5919   8.608   6.543   4.246  0.4038 -2.3452 -1.6143
   43MOL0     H 5920   8.870   6.239   4.345 -1.3936  0.4777 -0.8455
   43MOL0     H 5921   9.067   6.107   4.254  0.6867 -0.4764 -1.3899
   43MOL0     H 5922   9.077   5.815   4.169 -3.9747  3.4396  1.0757
   43MOL0     H 5923   8.963   5.792   4.029  0.4097 -2.7093  1.3233
   43MOL0     H 5924   9.272   5.785   4.023  0.6497 -0.5768  0.5462
   43MOL0     H 5925   9.179   5.800   3.875 -0.2069 -2.1039 -0.1192
   43MOL0     H 5926   9.124   5.574   4.056 -1.1809  1.3046  0.0122
   43MOL0     H 5927   9.073   5.604   3.882  0.2965 -0.7172 -0.3485
   43MOL0     H 5928   9.359   5.562   3.958  0.2146 -3.4329  1.0272
   43MOL0     H 5929   9.286   5.528   3.794  1.4045 -0.3871 -0.1304
   43MOL0     H 5930   9.245   5.170   4.011  0.3492 -0.3444 -0.4252
   43MOL0     H 5931   8.824   5.958   3.943 -1.9213  2.6467 -0.4913
   43MOL0     H 5932   8.561   6.182   3.944  2.9223 -0.0264 -2.1297
   43MOL0     H 5933   8.604   6.011   3.923  2.3315 -3.5176  3.2028
   43MOL0     H 5934   8.530   6.059   4.072  3.9174 -1.0465  1.7674
   44MOL0     O 5935   4.574  10.688   2.655 -0.0541  0.1976 -0.3280
   44MOL0     C 5936   4.657  10.739   2.579 -0.0706 -1.5374 -0.5436
   44MOL0     O 5937   4.645  10.766   2.449 -0.1463  0.6518 -0.5696
   44MOL0     C 5938   4.518  10.772   2.390  0.1240 -0.5708 -0.9736
   44MOL0     C 5939   4.407  10.833   2.451 -0.4308  0.1514 -1.1596
   44MOL0     C 5940   4.285  10.835   2.395 -0.2612  0.0308 -0.1776
   44MOL0     C 5941   4.267  10.791   2.260  0.5778 -0.9234 -0.2947
   44MOL0     O 5942   4.145  10.786   2.200 -0.5289  1.1604  0.1192
   44MOL0     C 5943   4.109  10.918   2.167  0.3424  0.2423  0.2551
   44MOL0     C 5944   4.157  10.942   2.018 -0.2268  0.1326 -0.2301
   44MOL0     C 5945   4.070  10.852   1.927  0.3433 -0.4613  0.7036
   44MOL0     C 5946   3.987  10.926   1.824  0.7458 -0.1934 -0.0242
   44MOL0     C 5947   4.070  10.971   1.702 -0.7257  1.2308  0.6107
   44MOL0     C 5948   3.972  11.041   1.600  0.0304  0.0002 -0.0442
   44MOL0     C 5949   4.055  11.100   1.491  0.3305 -0.4502 -1.3751
   44MOL0     C 5950   4.123  11.229   1.541  0.6758  0.7481 -0.5432
   44MOL0     N 5951   4.160  11.308   1.429  0.4740 -0.1801 -0.6833
   44MOL0     C 5952   4.276  11.313   1.365 -0.3047 -0.3337  0.7868
   44MOL0     C 5953   4.260  11.397   1.269 -1.4082  0.9265  0.7040
   44MOL0     C 5954   4.364  11.442   1.174 -0.2052 -0.4854 -0.5880
   44MOL0     C 5955   4.353  11.373   1.038  0.2790  0.5456  0.1725
   44MOL0     C 5956   4.472  11.405   0.945 -0.7868 -0.7316  0.0973
   44MOL0     C 5957   4.472  11.316   0.820 -1.1807 -0.0298  0.1638
   44MOL0     O 5958   4.382  11.370   0.729  0.0476 -0.0897  0.2756
   44MOL0     C 5959   4.350  11.288   0.621  0.0130 -0.1503 -0.7436
   44MOL0     C 5960   4.246  11.200   0.628 -0.2239  0.4723  0.0802
   44MOL0     C 5961   4.203  11.116   0.525  0.6100 -0.5952  1.1755
   44MOL0     C 5962   4.090  11.031   0.554 -0.1805  0.6509  0.5364
   44MOL0     C 5963   4.268  11.126   0.407 -0.0391  1.0623  0.4142
   44MOL0     C 5964   4.212  11.073   0.280 -1.1892 -0.3176  1.8141
   44MOL0     O 5965   4.296  11.055   0.175  0.2531  0.0252  0.4910
   44MOL0     C 5966   4.255  11.073   0.049 -0.3437  0.3905 -0.1443
   44MOL0     C 5967   4.326  10.997  -0.042  0.6484  0.5504 -0.6533
   44MOL0     C 5968   4.290  10.996  -0.178  0.3827  0.2451  0.2751
   44MOL0     C 5969   4.177  11.068  -0.225 -0.2572 -1.3352 -0.5289
   44MOL0     O 5970   4.141  11.084  -0.361 -0.5848  0.5658  0.3840
   44MOL0     C 5971   4.242  11.076  -0.466  0.4648  0.3224 -0.3533
   44MOL0     C 5972   4.188  11.104  -0.607  0.0254 -0.9730 -0.8924
   44MOL0     C 5973   4.089  10.994  -0.646 -0.2506 -0.7522  0.1896
   44MOL0     C 5974   4.013  11.026  -0.780  0.0350  0.0133  0.5583
   44MOL0     C 5975   3.897  11.127  -0.733 -0.4652  0.2146  1.0408
   44MOL0     C 5976   3.797  11.173  -0.847 -0.7529  0.7889  0.5653
   44MOL0     C 5977   3.777  11.057  -0.955  0.6720 -0.0371 -0.6324
   44MOL0     C 5978   3.684  11.102  -1.064 -0.4969  0.4260 -0.4988
   44MOL0    Cl 5979   3.518  11.111  -0.997 -0.1382  0.2590  0.0893
   44MOL0     C 5980   4.106  11.148  -0.132 -0.4174 -0.1452  0.4588
   44MOL0     C 5981   4.137  11.135   0.008  0.0567  0.6676  0.5372
   44MOL0     O 5982   4.095  11.045   0.279 -0.2575 -0.1273  0.1628
   44MOL0     C 5983   4.381  11.205   0.394  0.1164 -0.2106  1.0101
   44MOL0     C 5984   4.417  11.297   0.495  0.7209  0.4337 -0.9544
   44MOL0     N 5985   4.137  11.446   1.280  0.8063 -0.3869 -0.0216
   44MOL0     N 5986   4.081  11.396   1.377  0.5373 -0.4259 -0.8029
   44MOL0     C 5987   4.380  10.735   2.199  0.1074  0.4930  0.1567
   44MOL0     C 5988   4.497  10.720   2.263  0.5806 -0.0200 -0.7564
   44MOL0     C 5989   4.778  10.787   2.645  0.6322  0.4394  0.6063
   44MOL0     C 5990   4.848  10.686   2.714  0.1429  0.7450 -0.3742
   44MOL0     C 5991   4.972  10.706   2.776  0.7451 -0.2510  0.3280
   44MOL0     C 5992   5.043  10.823   2.761 -0.6627 -0.4982 -0.1558
   44MOL0     O 5993   5.155  10.841   2.827 -0.0594  0.0338  0.1604
   44MOL0     C 5994   5.277  10.809   2.762  0.1317 -0.0428  0.6412
   44MOL0     C 5995   5.383  10.778   2.871  0.2834  0.2034  0.4067
   44MOL0     C 5996   5.339  10.676   2.965  0.2054  0.3912  0.6292
   44MOL0     C 5997   5.463  10.610   3.033 -0.3545 -0.1755 -0.9574
   44MOL0     C 5998   5.536  10.690   3.127 -0.9306 -0.0783 -0.0498
   44MOL0     C 5999   5.595  10.751   3.216 -0.6840  0.8909  0.5325
   44MOL0     C 6000   4.983  10.924   2.685 -0.5476 -0.6632 -0.1267
   44MOL0     C 6001   4.852  10.909   2.629  0.4666  0.1180 -0.5226
   44MOL0     C 6002   4.802  11.024   2.548  0.9328 -0.4867  0.7323
   44MOL0     H 6003   4.417  10.879   2.549  1.7000 -1.7565 -0.3997
   44MOL0     H 6004   4.206  10.884   2.453  0.9324 -0.8066  2.2817
   44MOL0     H 6005   4.150  10.991   2.237 -1.2013 -0.1601  1.6339
   44MOL0     H 6006   4.000  10.926   2.167  0.3138  0.5178 -1.9115
   44MOL0     H 6007   4.128  11.047   2.007 -3.5534  0.0083  4.5299
   44MOL0     H 6008   4.263  10.914   2.008 -0.1976 -0.9264  2.3886
   44MOL0     H 6009   4.131  10.786   1.865  0.1490 -0.4312  0.4795
   44MOL0     H 6010   3.999  10.793   1.985 -0.3974 -0.3478 -0.0682
   44MOL0     H 6011   3.907  10.860   1.789  3.1615 -2.3008 -2.0340
   44MOL0     H 6012   3.938  11.010   1.874  0.1114  0.1153 -1.1408
   44MOL0     H 6013   4.136  10.897   1.657  1.0933  1.1718  3.1446
   44MOL0     H 6014   4.136  11.053   1.731 -1.8568  2.0445  0.9798
   44MOL0     H 6015   3.899  10.963   1.579  0.0869 -1.0852  3.2128
   44MOL0     H 6016   3.914  11.120   1.647  1.5643  1.3330 -0.3121
   44MOL0     H 6017   3.973  11.126   1.423 -3.2539  2.2563  3.3163
   44MOL0     H 6018   4.130  11.032   1.450 -1.1806 -3.7272  0.9411
   44MOL0     H 6019   4.053  11.287   1.602 -0.5147  0.6651 -1.7713
   44MOL0     H 6020   4.205  11.203   1.608 -2.1505 -1.1752  2.4733
   44MOL0     H 6021   4.368  11.262   1.393 -0.7840 -1.0100  1.1644
   44MOL0     H 6022   4.463  11.435   1.220 -1.7407 -1.0724  2.9524
   44MOL0     H 6023   4.353  11.551   1.174 -0.1417 -0.4592 -2.0420
   44MOL0     H 6024   4.346  11.265   1.054  1.0409  0.6626  1.3966
   44MOL0     H 6025   4.260  11.404   0.989 -0.1782 -0.6208  0.2626
   44MOL0     H 6026   4.491  11.505   0.906  2.6025 -0.8067  1.2675
   44MOL0     H 6027   4.567  11.387   0.996  0.1808  0.4659 -1.2204
   44MOL0     H 6028   4.574  11.323   0.782 -0.7694  0.6817  1.3584
   44MOL0     H 6029   4.455  11.209   0.835  0.5962 -0.3845 -0.1557
   44MOL0     H 6030   4.197  11.188   0.725 -1.8947 -1.3774 -0.9351
   44MOL0     H 6031   4.074  11.014   0.661 -3.0961 -0.8569 -0.0276
   44MOL0     H 6032   4.107  10.931   0.514  0.6393  2.0506 -2.9930
   44MOL0     H 6033   3.990  11.073   0.535 -1.7271 -1.4035  3.3809
   44MOL0     H 6034   4.394  10.930   0.009 -0.3618  0.3362  0.4378
   44MOL0     H 6035   4.364  10.956  -0.246  0.1021 -0.9835  0.6775
   44MOL0     H 6036   4.324  11.144  -0.443  1.6684 -1.3192  0.4045
   44MOL0     H 6037   4.289  10.977  -0.466 -0.6039 -0.3238  3.0468
   44MOL0     H 6038   4.133  11.198  -0.605 -0.7853 -1.4488 -0.2452
   44MOL0     H 6039   4.271  11.118  -0.677  0.8002 -2.2640 -0.2773
   44MOL0     H 6040   4.023  10.981  -0.559 -0.6547  3.4581  0.7226
   44MOL0     H 6041   4.152  10.906  -0.653  0.6908 -0.1571  0.8725
   44MOL0     H 6042   3.968  10.934  -0.820  1.3541  0.5187 -2.3215
   44MOL0     H 6043   4.071  11.065  -0.864 -1.9360  3.5926  0.6866
   44MOL0     H 6044   3.837  11.073  -0.660 -0.3931  0.9898  1.6800
   44MOL0     H 6045   3.944  11.215  -0.689  0.7898 -0.8623  1.9473
   44MOL0     H 6046   3.835  11.268  -0.887 -0.9415  0.0768 -1.3985
   44MOL0     H 6047   3.701  11.198  -0.802 -0.9012  0.2072  0.5798
   44MOL0     H 6048   3.733  10.973  -0.901 -0.3553  1.6410  1.2891
   44MOL0     H 6049   3.870  11.023  -1.000  1.2170  0.8847 -0.2293
   44MOL0     H 6050   3.672  11.031  -1.147  1.1825 -3.8947  2.6232
   44MOL0     H 6051   3.725  11.196  -1.103  2.1465 -0.9596 -1.2259
   44MOL0     H 6052   4.027  11.208  -0.177 -0.3515 -0.5051 -0.1554
   44MOL0     H 6053   4.074  11.192   0.076  3.0341  2.0729  2.2922
   44MOL0     H 6054   4.445  11.234   0.311  0.5283  2.3986  2.1210
   44MOL0     H 6055   4.494  11.371   0.477 -2.7114  4.4972 -0.5288
   44MOL0     H 6056   4.356  10.694   2.101 -3.1034  0.8540  0.6760
   44MOL0     H 6057   4.578  10.667   2.214  0.3152 -1.5936  0.4205
   44MOL0     H 6058   4.818  10.583   2.729 -3.3513  1.5536 -0.8453
   44MOL0     H 6059   4.996  10.622   2.840 -4.3167 -2.9824 -0.8236
   44MOL0     H 6060   5.260  10.723   2.696 -4.3240  0.8016  0.3783
   44MOL0     H 6061   5.315  10.886   2.694 -0.6205 -0.1719  0.0646
   44MOL0     H 6062   5.413  10.868   2.924 -0.8597 -0.6453  2.6013
   44MOL0     H 6063   5.469  10.747   2.811 -0.8536 -1.7477 -0.3014
   44MOL0     H 6064   5.280  10.727   3.042  0.5000  1.5272  0.1223
   44MOL0     H 6065   5.281  10.596   2.918 -1.8995  1.0226  1.9855
   44MOL0     H 6066   5.526  10.579   2.949  0.2595  1.9586 -1.3581
   44MOL0     H 6067   5.449  10.515   3.085  0.5000 -0.8528 -1.9351
   44MOL0     H 6068   5.667  10.795   3.282  1.3789  0.8377 -1.5398
   44MOL0     H 6069   5.034  11.019   2.670 -0.9445 -0.1716  1.3949
   44MOL0     H 6070   4.874  11.106   2.535  2.6198 -2.2273 -1.6647
   44MOL0     H 6071   4.770  10.974   2.456  2.9521  0.7021 -0.7020
   44MOL0     H 6072   4.707  11.063   2.586  1.9995  3.8304 -0.4029
   45MOL0     O 6073   3.822   4.020   4.090  0.0079  0.2854 -0.1767
   45MOL0     C 6074   3.726   4.077   4.038  0.5070 -0.1833 -0.6909
   45MOL0     O 6075   3.706   4.216   4.031 -0.1656 -0.1549  0.6715
   45MOL0     C 6076   3.787   4.311   4.094  0.1753 -0.7674  0.6079
   45MOL0     C 6077   3.845   4.277   4.221 -0.5076 -0.1748 -0.7032
   45MOL0     C 6078   3.910   4.373   4.295  0.1078  0.7127 -0.6530
   45MOL0     C 6079   3.907   4.507   4.257 -0.6146  0.2076  1.1425
   45MOL0     O 6080   3.972   4.615   4.320  0.7777  0.2621 -0.5257
   45MOL0     C 6081   3.884   4.666   4.422  0.9351 -0.4152  0.2739
   45MOL0     C 6082   3.916   4.812   4.436  0.3577  0.1893 -0.6421
   45MOL0     C 6083   4.060   4.827   4.472  0.1779 -0.2073  0.1622
   45MOL0     C 6084   4.091   4.969   4.501  0.3334  0.6461  0.0036
   45MOL0     C 6085   4.244   4.993   4.481  0.6222  0.2143 -0.5377
   45MOL0     C 6086   4.291   5.075   4.604  0.1916  0.1469 -0.2254
   45MOL0     C 6087   4.441   5.110   4.607 -0.3690  0.1100 -1.3712
   45MOL0     C 6088   4.539   5.006   4.563 -0.4838  0.6256  0.4832
   45MOL0     N 6089   4.682   5.024   4.595 -0.6329 -0.1349 -0.0834
   45MOL0     C 6090   4.788   5.023   4.504  0.4063  0.5840  0.5984
   45MOL0     C 6091   4.897   5.034   4.573 -0.9261  0.2029  0.4045
   45MOL0     C 6092   5.041   5.013   4.523  0.3770 -0.4864  0.1442
   45MOL0     C 6093   5.096   4.870   4.552 -0.0364  0.4156 -0.0269
   45MOL0     C 6094   5.130   4.866   4.702 -0.1773 -0.2857 -0.3826
   45MOL0     C 6095   5.218   4.738   4.748 -0.1592  0.5454 -0.2144
   45MOL0     O 6096   5.269   4.772   4.880 -0.0985 -0.3297  0.8316
   45MOL0     C 6097   5.346   4.675   4.941  0.4728  0.4826  0.3489
   45MOL0     C 6098   5.324   4.675   5.085 -0.6348 -0.5379 -0.1258
   45MOL0     C 6099   5.407   4.603   5.160 -0.1978  0.7884 -1.5591
   45MOL0     C 6100   5.373   4.622   5.317 -0.7863 -0.1984  0.3006
   45MOL0     C 6101   5.502   4.513   5.105 -0.5202  0.4625 -0.6458
   45MOL0     C 6102   5.584   4.428   5.198 -0.9315  0.7236 -1.2004
   45MOL0     O 6103   5.629   4.311   5.143  0.2971  0.6475  0.2500
   45MOL0     C 6104   5.695   4.212   5.218  0.4005  0.5586  0.8156
   45MOL0     C 6105   5.632   4.093   5.258  0.2258  0.7058 -1.1839
   45MOL0     C 6106   5.692   4.003   5.347 -0.0190  0.4698  0.1011
   45MOL0     C 6107   5.810   4.030   5.410  0.8077 -0.5096  0.4418
   45MOL0     O 6108   5.866   3.933   5.493 -0.2394  0.8539 -0.6165
   45MOL0     C 6109   5.932   3.975   5.615  0.1208 -0.3375  0.0034
   45MOL0     C 6110   5.953   3.843   5.686  0.0554  1.0329 -0.3859
   45MOL0     C 6111   5.829   3.775   5.730 -0.6762 -1.0645 -1.6696
   45MOL0     C 6112   5.869   3.640   5.802 -1.0768  0.5794  0.5028
   45MOL0     C 6113   5.906   3.643   5.953  0.3222  0.0341  0.5434
   45MOL0     C 6114   5.781   3.690   6.034 -0.4901 -0.2640 -0.2963
   45MOL0     C 6115   5.813   3.770   6.157 -0.3104 -0.1989 -0.5733
   45MOL0     C 6116   5.780   3.693   6.293  1.0293 -0.0287 -0.0493
   45MOL0    Cl 6117   5.603   3.706   6.315 -0.0725 -0.1855  0.1032
   45MOL0     C 6118   5.869   4.158   5.391  0.3540 -0.1356  0.0291
   45MOL0     C 6119   5.811   4.241   5.287  0.1837 -0.7495  0.1752
   45MOL0     O 6120   5.602   4.453   5.321 -0.2220 -0.1786  0.5568
   45MOL0     C 6121   5.517   4.509   4.969 -0.0915  0.0715  0.1916
   45MOL0     C 6122   5.440   4.591   4.884 -0.6034  0.9226  0.0180
   45MOL0     N 6123   4.853   5.063   4.706  0.5515  0.3289  0.8490
   45MOL0     N 6124   4.729   5.033   4.725 -0.4566  0.0168 -0.1682
   45MOL0     C 6125   3.852   4.541   4.133  0.1121  0.1379  0.3520
   45MOL0     C 6126   3.785   4.448   4.049 -0.7846  0.1022  0.3716
   45MOL0     C 6127   3.615   4.001   3.991 -0.0607 -0.1025 -0.7486
   45MOL0     C 6128   3.488   4.050   4.002  0.0818  0.3374 -0.4601
   45MOL0     C 6129   3.384   3.981   3.952  0.7207  0.7934  0.7179
   45MOL0     C 6130   3.394   3.864   3.882  0.5406  0.7990 -0.2476
   45MOL0     O 6131   3.282   3.789   3.839 -0.0491  0.0292  0.1338
   45MOL0     C 6132   3.242   3.839   3.715 -0.0424 -0.2433  0.6082
   45MOL0     C 6133   3.125   3.933   3.728  0.0344 -0.3136 -0.2945
   45MOL0     C 6134   2.992   3.889   3.669  0.1565  0.1335 -0.6462
   45MOL0     C 6135   2.871   3.976   3.715 -0.4556  0.0193 -0.3101
   45MOL0     C 6136   2.893   4.108   3.655 -0.0608  0.3526 -0.1892
   45MOL0     C 6137   2.901   4.219   3.597 -0.2507  0.7426 -0.2059
   45MOL0     C 6138   3.519   3.802   3.880 -0.5415 -0.0433  0.1541
   45MOL0     C 6139   3.635   3.876   3.927 -0.0377  0.1820 -1.0421
   45MOL0     C 6140   3.776   3.812   3.901 -0.0338 -0.6237 -0.3711
   45MOL0     H 6141   3.827   4.179   4.264  0.6116 -0.6885 -1.3565
   45MOL0     H 6142   3.973   4.343   4.377 -0.0943 -0.5605 -0.9443
   45MOL0     H 6143   3.900   4.607   4.513 -2.2382  0.9404  1.8613
   45MOL0     H 6144   3.782   4.658   4.384  1.6676 -1.6900 -1.5943
   45MOL0     H 6145   3.895   4.871   4.347 -2.6848  2.0541  1.1448
   45MOL0     H 6146   3.847   4.851   4.511 -0.3818 -0.1388 -1.1388
   45MOL0     H 6147   4.080   4.760   4.556 -0.0549 -0.3202  0.1279
   45MOL0     H 6148   4.121   4.795   4.387  1.7988 -0.5510  1.4177
   45MOL0     H 6149   4.026   5.025   4.434  1.5074 -0.3398 -2.0576
   45MOL0     H 6150   4.058   4.997   4.601 -0.0912 -0.2603  0.1289
   45MOL0     H 6151   4.260   5.042   4.384  2.6828  0.4175 -0.1598
   45MOL0     H 6152   4.302   4.900   4.478  2.4100  1.1581  1.8408
   45MOL0     H 6153   4.226   5.163   4.611  0.1727  0.2812 -1.8251
   45MOL0     H 6154   4.268   5.017   4.694 -3.0319 -0.6447 -1.4309
   45MOL0     H 6155   4.457   5.127   4.714  1.4909 -0.4556 -1.5187
   45MOL0     H 6156   4.465   5.200   4.549  0.4983 -0.7124 -2.3236
   45MOL0     H 6157   4.515   4.908   4.606  1.7114 -1.0818 -1.8714
   45MOL0     H 6158   4.544   5.002   4.454  3.8188  1.3937  0.4785
   45MOL0     H 6159   4.783   5.002   4.397 -1.1595 -3.0295  1.2538
   45MOL0     H 6160   5.099   5.091   4.573 -2.1176  2.5323 -1.2891
   45MOL0     H 6161   5.049   5.027   4.415  2.2295  2.0146  0.5082
   45MOL0     H 6162   5.032   4.786   4.525  2.4599 -0.7862 -2.8976
   45MOL0     H 6163   5.199   4.863   4.515  0.7630  0.8611  1.9564
   45MOL0     H 6164   5.160   4.964   4.741 -4.1516  0.8599  0.1792
   45MOL0     H 6165   5.033   4.849   4.749  0.5568  0.2656  1.4319
   45MOL0     H 6166   5.156   4.649   4.753  1.1445 -0.5369 -2.1161
   45MOL0     H 6167   5.304   4.714   4.684 -0.5523 -1.8328  0.0840
   45MOL0     H 6168   5.248   4.741   5.126 -0.8609 -1.2765  0.6731
   45MOL0     H 6169   5.470   4.654   5.358 -0.0837 -0.5660 -1.0195
   45MOL0     H 6170   5.341   4.532   5.370  1.6878 -1.0023  0.5656
   45MOL0     H 6171   5.304   4.705   5.335  1.5555  2.9962 -3.7885
   45MOL0     H 6172   5.539   4.071   5.206 -0.2792  0.5671 -0.2543
   45MOL0     H 6173   5.650   3.904   5.357  1.3486 -0.1615 -0.2028
   45MOL0     H 6174   6.026   4.027   5.594 -0.3551  0.3806 -0.3663
   45MOL0     H 6175   5.865   4.044   5.667  2.0240  2.7406 -1.3708
   45MOL0     H 6176   6.001   3.779   5.611 -0.5898  0.2611 -0.1473
   45MOL0     H 6177   6.031   3.836   5.762 -2.6656 -0.3795  2.4880
   45MOL0     H 6178   5.755   3.769   5.650  0.3793 -0.1141 -2.7635
   45MOL0     H 6179   5.787   3.842   5.806  1.3070 -0.2180 -1.2389
   45MOL0     H 6180   5.944   3.581   5.748 -1.2143  1.6924 -0.9801
   45MOL0     H 6181   5.784   3.572   5.790 -0.9885  0.0260  2.6867
   45MOL0     H 6182   5.923   3.540   5.983 -1.5854  0.2807  2.6875
   45MOL0     H 6183   5.987   3.711   5.980 -1.2265  0.7878  3.7865
   45MOL0     H 6184   5.721   3.605   6.069 -0.8117 -0.5609 -1.5343
   45MOL0     H 6185   5.721   3.755   5.971 -1.6910 -0.5819  0.4770
   45MOL0     H 6186   5.766   3.869   6.154 -0.9134 -0.4901 -0.8460
   45MOL0     H 6187   5.920   3.793   6.153 -0.3171 -0.1627 -0.5433
   45MOL0     H 6188   5.824   3.736   6.384 -0.6382  0.1710  0.7045
   45MOL0     H 6189   5.813   3.589   6.291  0.1348 -0.3787  1.7983
   45MOL0     H 6190   5.952   4.203   5.444 -0.4256  0.0707  1.1163
   45MOL0     H 6191   5.856   4.337   5.265 -1.7461  0.0092 -0.7277
   45MOL0     H 6192   5.591   4.440   4.931  1.1585  0.9626  0.8984
   45MOL0     H 6193   5.467   4.576   4.779 -0.3642  1.6299 -0.0244
   45MOL0     H 6194   3.874   4.641   4.096 -2.5176  0.0383 -1.8129
   45MOL0     H 6195   3.743   4.473   3.952  2.9007  0.4784 -1.3289
   45MOL0     H 6196   3.479   4.141   4.061 -2.0920  0.6409 -1.1592
   45MOL0     H 6197   3.285   4.023   3.968  1.1678  1.4542  1.9003
   45MOL0     H 6198   3.321   3.889   3.658 -3.3898 -0.5206 -4.9563
   45MOL0     H 6199   3.221   3.757   3.646  0.8373 -0.1554  0.2189
   45MOL0     H 6200   3.158   4.020   3.671 -1.1141 -0.7866 -1.7232
   45MOL0     H 6201   3.107   3.950   3.835 -0.6936  2.8638 -0.8142
   45MOL0     H 6202   2.991   3.885   3.559 -0.0119  1.0845 -0.6896
   45MOL0     H 6203   2.972   3.785   3.698 -0.5011  1.3918  4.3183
   45MOL0     H 6204   2.886   3.977   3.823 -0.1469 -1.0629 -0.3276
   45MOL0     H 6205   2.776   3.934   3.680 -2.8324  3.6597  1.2117
   45MOL0     H 6206   2.898   4.309   3.540 -3.5579 -0.5439 -2.3096
   45MOL0     H 6207   3.527   3.705   3.832 -2.9161  0.1831 -0.7861
   45MOL0     H 6208   3.808   3.875   3.818 -5.0616 -0.3910 -2.5180
   45MOL0     H 6209   3.852   3.814   3.980 -0.6218 -1.2613  0.2241
   45MOL0     H 6210   3.772   3.707   3.871  0.3907 -0.5675 -0.6256
   46MOL0     O 6211   6.135   3.661   2.750 -0.1104  0.0048  0.8126
   46MOL0     C 6212   6.156   3.767   2.809 -0.1553  0.1123 -0.1123
   46MOL0     O 6213   6.277   3.826   2.825  0.1097  0.0312  0.5216
   46MOL0     C 6214   6.369   3.781   2.742  0.2146  0.0414 -1.1601
   46MOL0     C 6215   6.438   3.667   2.781 -0.1921 -0.0845  0.3990
   46MOL0     C 6216   6.547   3.629   2.706  0.2180  0.0259  0.7454
   46MOL0     C 6217   6.573   3.686   2.581 -1.6796  0.2535 -0.5823
   46MOL0     O 6218   6.674   3.646   2.502 -0.1243  0.3904  0.6661
   46MOL0     C 6219   6.673   3.523   2.433 -0.6504  0.5686  0.2748
   46MOL0     C 6220   6.711   3.544   2.283 -0.0521  0.3927 -0.4194
   46MOL0     C 6221   6.606   3.622   2.197  0.2021 -0.1585  0.7993
   46MOL0     C 6222   6.646   3.641   2.053  0.4482 -0.4445  0.1652
   46MOL0     C 6223   6.534   3.712   1.983 -0.1320 -0.3126  0.5587
   46MOL0     C 6224   6.537   3.873   1.987 -0.2809  0.2435 -0.0539
   46MOL0     C 6225   6.416   3.929   1.907 -0.3945  0.4257  0.3040
   46MOL0     C 6226   6.432   4.080   1.918  0.6265 -0.2392 -0.0595
   46MOL0     N 6227   6.319   4.142   1.842  0.6798  0.7723 -0.1702
   46MOL0     C 6228   6.281   4.125   1.705 -0.5260 -0.2868 -0.6048
   46MOL0     C 6229   6.192   4.224   1.682 -0.2259  0.0475  0.4319
   46MOL0     C 6230   6.102   4.251   1.557 -0.0001 -0.4033 -0.4827
   46MOL0     C 6231   6.158   4.382   1.496  0.7432  0.3255  0.4928
   46MOL0     C 6232   6.078   4.422   1.367 -0.1805  0.7342 -0.0050
   46MOL0     C 6233   6.170   4.511   1.285 -0.1902 -0.7256  0.0725
   46MOL0     O 6234   6.265   4.434   1.213 -0.3214  0.5937 -0.3957
   46MOL0     C 6235   6.329   4.497   1.107 -0.4000  0.3579 -0.5132
   46MOL0     C 6236   6.397   4.406   1.031  0.1270  0.0489 -0.2042
   46MOL0     C 6237   6.493   4.439   0.926  0.3849 -1.1058  0.1589
   46MOL0     C 6238   6.579   4.318   0.875 -0.2300 -0.3835 -0.8908
   46MOL0     C 6239   6.502   4.576   0.893  1.1253 -0.1625 -0.1280
   46MOL0     C 6240   6.598   4.636   0.789 -0.2818  0.0486 -0.5555
   46MOL0     O 6241   6.619   4.768   0.800 -0.1759  0.4432  0.1689
   46MOL0     C 6242   6.712   4.828   0.712  0.7083  0.7264 -0.7250
   46MOL0     C 6243   6.818   4.895   0.763 -0.2351  0.6113  0.3507
   46MOL0     C 6244   6.913   4.962   0.685  0.1759 -0.2470  0.1783
   46MOL0     C 6245   6.877   4.987   0.555  0.3379  0.4905 -0.2953
   46MOL0     O 6246   6.965   5.066   0.485  0.3049  0.4608 -0.6359
   46MOL0     C 6247   6.914   5.133   0.372  0.1539 -0.7027  0.7849
   46MOL0     C 6248   6.944   5.083   0.235 -1.1183  0.0215  0.5804
   46MOL0     C 6249   6.877   5.176   0.123 -0.5714  0.2915 -1.3335
   46MOL0     C 6250   6.931   5.317   0.110 -0.4726  0.2432  0.4118
   46MOL0     C 6251   6.857   5.387  -0.007 -0.2287 -0.1748 -0.8106
   46MOL0     C 6252   6.907   5.354  -0.147  0.0782  0.2519  0.0091
   46MOL0     C 6253   6.854   5.463  -0.239  0.2993  0.9573 -0.3091
   46MOL0     C 6254   6.704   5.487  -0.233 -0.2217  0.0401 -0.8975
   46MOL0    Cl 6255   6.626   5.333  -0.260 -0.5674 -0.4156 -0.0735
   46MOL0     C 6256   6.774   4.907   0.497 -0.3979  0.7669 -0.7529
   46MOL0     C 6257   6.698   4.826   0.574  0.1492  0.3789  0.3900
   46MOL0     O 6258   6.664   4.560   0.716 -0.3473 -0.6200  0.9627
   46MOL0     C 6259   6.414   4.674   0.966 -0.0159 -0.0396 -0.3813
   46MOL0     C 6260   6.338   4.634   1.077  0.0873  0.1148  0.4050
   46MOL0     N 6261   6.174   4.300   1.803 -0.1937 -0.3196 -0.2968
   46MOL0     N 6262   6.248   4.249   1.891  0.3847 -0.2481  0.5282
   46MOL0     C 6263   6.505   3.802   2.548  0.0172  0.4530 -0.0621
   46MOL0     C 6264   6.398   3.839   2.619 -0.0428 -1.5426 -1.0023
   46MOL0     C 6265   6.049   3.829   2.875 -0.3638  0.4632 -0.7578
   46MOL0     C 6266   5.972   3.743   2.965 -0.6029  0.2385  0.2817
   46MOL0     C 6267   5.873   3.796   3.044 -0.1201 -0.9211  0.3158
   46MOL0     C 6268   5.836   3.931   3.042  0.3712 -1.5013  0.0961
   46MOL0     O 6269   5.725   3.989   3.097  0.1286  0.4609 -0.8910
   46MOL0     C 6270   5.652   3.917   3.198 -0.1559 -0.0290 -0.1544
   46MOL0     C 6271   5.532   4.002   3.250  0.5607  0.4940 -0.2155
   46MOL0     C 6272   5.573   4.134   3.315 -0.2481 -0.0974  0.0429
   46MOL0     C 6273   5.447   4.231   3.331 -0.2804  0.0079 -0.0414
   46MOL0     C 6274   5.441   4.285   3.463  0.2341 -0.0094  0.2972
   46MOL0     C 6275   5.428   4.348   3.573 -0.4175 -0.0229  1.3345
   46MOL0     C 6276   5.911   4.021   2.958 -0.0951  0.8686  0.3422
   46MOL0     C 6277   6.020   3.968   2.872 -0.0515  0.6246  0.7754
   46MOL0     C 6278   6.087   4.073   2.779 -0.2171  0.1009 -0.0703
   46MOL0     H 6279   6.415   3.626   2.879 -3.4398  0.0302 -0.1858
   46MOL0     H 6280   6.629   3.572   2.750 -1.1190 -1.6282  1.2064
   46MOL0     H 6281   6.584   3.463   2.454 -0.5815  0.9767  1.7840
   46MOL0     H 6282   6.758   3.472   2.479 -2.4042 -2.8679  0.0813
   46MOL0     H 6283   6.809   3.593   2.278 -0.0941  0.6791  0.9765
   46MOL0     H 6284   6.710   3.441   2.248 -0.4403  0.6712 -1.2509
   46MOL0     H 6285   6.521   3.554   2.190  0.0008  0.2178 -0.5927
   46MOL0     H 6286   6.569   3.713   2.244 -0.0841  0.0321  0.2166
   46MOL0     H 6287   6.739   3.699   2.051  0.1891 -0.0472 -0.3328
   46MOL0     H 6288   6.662   3.541   2.011  2.1122 -1.7562  3.5012
   46MOL0     H 6289   6.439   3.682   2.029 -0.3837  0.1462  0.3384
   46MOL0     H 6290   6.554   3.675   1.882 -4.1418  2.9496 -1.7003
   46MOL0     H 6291   6.544   3.909   2.090  3.9110  1.7077 -0.6425
   46MOL0     H 6292   6.629   3.900   1.934 -0.7492  0.7699 -0.6149
   46MOL0     H 6293   6.320   3.897   1.947 -0.3238 -0.7332 -0.4254
   46MOL0     H 6294   6.415   3.895   1.803 -1.0188 -3.0718  1.3318
   46MOL0     H 6295   6.408   4.114   2.019  1.6138 -1.1973  0.5193
   46MOL0     H 6296   6.528   4.124   1.891 -0.5892  1.9934 -0.9863
   46MOL0     H 6297   6.314   4.054   1.630  0.7312  2.1927 -2.5448
   46MOL0     H 6298   5.998   4.266   1.587  0.0640  2.6573 -1.4273
   46MOL0     H 6299   6.107   4.175   1.479 -2.0256 -1.7220  0.5907
   46MOL0     H 6300   6.154   4.469   1.562  2.2216 -0.1587  1.2700
   46MOL0     H 6301   6.265   4.363   1.481  0.1633 -0.9885 -3.2306
   46MOL0     H 6302   6.054   4.330   1.312  1.0577  0.3273  0.1084
   46MOL0     H 6303   5.987   4.475   1.397  0.1458  0.2622  1.9563
   46MOL0     H 6304   6.107   4.562   1.212  1.9438  3.1806  0.6923
   46MOL0     H 6305   6.214   4.593   1.343  1.1152  0.0712 -1.9234
   46MOL0     H 6306   6.377   4.302   1.054 -1.3454  0.3967  0.1934
   46MOL0     H 6307   6.513   4.232   0.887 -3.2636  2.0620  1.6838
   46MOL0     H 6308   6.669   4.291   0.931  0.4572  1.1583 -1.1991
   46MOL0     H 6309   6.621   4.316   0.774 -1.1701 -0.8622 -1.2755
   46MOL0     H 6310   6.820   4.890   0.871  0.8242  0.9080  0.3633
   46MOL0     H 6311   6.992   5.015   0.736  1.8326 -2.9309  0.6192
   46MOL0     H 6312   6.805   5.130   0.383  0.3517 -2.0119  2.8446
   46MOL0     H 6313   6.949   5.236   0.386  0.2008 -0.6831  0.5303
   46MOL0     H 6314   7.053   5.082   0.224 -0.9090  0.5642  2.3854
   46MOL0     H 6315   6.917   4.980   0.213  1.0408 -0.5622  0.4751
   46MOL0     H 6316   6.770   5.184   0.142 -1.4680 -4.5914 -2.8683
   46MOL0     H 6317   6.877   5.128   0.024  0.2376  3.0046 -2.7779
   46MOL0     H 6318   7.036   5.312   0.080 -0.3663 -0.4658  0.8873
   46MOL0     H 6319   6.916   5.378   0.199 -1.6229  1.3211 -0.4776
   46MOL0     H 6320   6.751   5.363   0.003 -0.2934  0.5665  0.6178
   46MOL0     H 6321   6.876   5.494   0.011  1.3705 -0.1586 -2.3158
   46MOL0     H 6322   6.874   5.257  -0.186  1.4763  0.5798 -2.1590
   46MOL0     H 6323   7.016   5.346  -0.157  0.3366  4.1885 -2.2682
   46MOL0     H 6324   6.876   5.425  -0.339  2.0571 -1.8616  1.0084
   46MOL0     H 6325   6.910   5.550  -0.204  0.2471 -0.3508  3.5677
   46MOL0     H 6326   6.670   5.570  -0.296 -0.3163 -0.3605 -1.3880
   46MOL0     H 6327   6.665   5.523  -0.137  3.3558  3.4963 -0.4856
   46MOL0     H 6328   6.780   4.885   0.390 -0.7186 -2.0707 -0.2641
   46MOL0     H 6329   6.619   4.772   0.523  1.5509  1.0297 -2.7067
   46MOL0     H 6330   6.425   4.781   0.952  1.5485  0.2084  2.0399
   46MOL0     H 6331   6.284   4.708   1.136  1.4453  0.9425  0.6324
   46MOL0     H 6332   6.538   3.860   2.462  1.6664 -1.8135 -1.0641
   46MOL0     H 6333   6.333   3.920   2.588 -0.0318 -1.6177 -1.2279
   46MOL0     H 6334   6.003   3.639   2.966  1.8831  0.8945 -0.3809
   46MOL0     H 6335   5.811   3.725   3.099  1.8268 -2.2484  0.8813
   46MOL0     H 6336   5.611   3.823   3.160 -0.9395  1.2805 -2.7743
   46MOL0     H 6337   5.724   3.899   3.279  0.3778  1.8969 -0.1462
   46MOL0     H 6338   5.476   3.943   3.323  0.9497 -0.4453 -0.6607
   46MOL0     H 6339   5.465   4.025   3.166  0.3167 -0.0770 -0.1790
   46MOL0     H 6340   5.610   4.108   3.415 -1.0454 -1.5544 -0.0189
   46MOL0     H 6341   5.655   4.188   3.267 -0.8992  1.9829  1.1382
   46MOL0     H 6342   5.357   4.179   3.297  1.4579 -0.3455 -4.8265
   46MOL0     H 6343   5.460   4.318   3.266  3.2476 -0.1685  0.2243
   46MOL0     H 6344   5.418   4.395   3.670  2.0453  0.0853  1.5847
   46MOL0     H 6345   5.880   4.125   2.967 -2.4922  0.2998 -0.7455
   46MOL0     H 6346   6.173   4.028   2.727 -0.7763  2.1611 -3.0510
   46MOL0     H 6347   6.012   4.103   2.705 -2.0846 -1.8033  0.9386
   46MOL0     H 6348   6.134   4.154   2.834  0.7227 -1.8169  2.1432
   47MOL0     O 6349   4.248   5.505   5.065  0.0162  0.0377  0.2863
   47MOL0     C 6350   4.269   5.492   5.188  0.1687 -0.2253  0.1377
   47MOL0     O 6351   4.196   5.538   5.292  0.9123 -0.1712 -0.1943
   47MOL0     C 6352   4.084   5.623   5.285 -0.8722 -0.0347 -0.3314
   47MOL0     C 6353   4.087   5.739   5.215 -0.2725 -0.6366 -0.8627
   47MOL0     C 6354   3.974   5.816   5.191 -0.2498 -0.3136 -0.3367
   47MOL0     C 6355   3.856   5.788   5.251  0.8781 -0.4977  0.8472
   47MOL0     O 6356   3.731   5.862   5.247 -0.4566 -0.4716 -0.4640
   47MOL0     C 6357   3.705   5.943   5.131  0.1859  0.3626 -1.2124
   47MOL0     C 6358   3.709   6.082   5.173  0.7240 -0.7785 -0.9344
   47MOL0     C 6359   3.738   6.168   5.042 -0.4640 -0.0098 -0.0448
   47MOL0     C 6360   3.748   6.314   5.086 -0.0979  0.0925 -0.3097
   47MOL0     C 6361   3.780   6.397   4.961 -0.3741 -0.3580 -0.3000
   47MOL0     C 6362   3.838   6.536   5.008  0.4643  0.5737 -0.4400
   47MOL0     C 6363   3.871   6.617   4.887  0.1690  0.5313  0.5719
   47MOL0     C 6364   3.891   6.764   4.909 -0.4313 -0.4393 -0.1866
   47MOL0     N 6365   3.874   6.837   4.780  0.0700 -0.3800  0.7313
   47MOL0     C 6366   3.845   6.973   4.780  0.1644  0.2586 -0.3299
   47MOL0     C 6367   3.818   6.995   4.652  0.2680  0.5566  0.1226
   47MOL0     C 6368   3.729   7.113   4.614 -0.6961  0.2711  0.5480
   47MOL0     C 6369   3.812   7.233   4.579  0.3070  1.2964 -0.0273
   47MOL0     C 6370   3.873   7.281   4.708  0.7154 -0.1602 -0.2835
   47MOL0     C 6371   3.938   7.409   4.673 -0.2089  0.4263 -0.5070
   47MOL0     O 6372   3.948   7.486   4.800 -0.5517 -0.8269  0.2302
   47MOL0     C 6373   4.002   7.617   4.792  0.1711  0.9073  0.7861
   47MOL0     C 6374   4.017   7.682   4.915  0.1626  0.4541 -0.5061
   47MOL0     C 6375   4.057   7.813   4.922  0.2793  0.7300  0.0626
   47MOL0     C 6376   4.092   7.849   5.062  0.0600 -0.9755 -0.1046
   47MOL0     C 6377   4.082   7.881   4.792 -0.4543  0.1208 -0.5622
   47MOL0     C 6378   4.149   8.020   4.794 -0.0397 -0.2002  0.4902
   47MOL0     O 6379   4.183   8.073   4.670  0.1420  0.9233 -0.2077
   47MOL0     C 6380   4.223   8.203   4.668  0.2435 -0.3757 -0.6980
   47MOL0     C 6381   4.357   8.233   4.678 -0.4812 -0.3886  0.1789
   47MOL0     C 6382   4.399   8.364   4.673  0.1686  1.0413 -0.4350
   47MOL0     C 6383   4.308   8.464   4.630  0.3738  0.3267  0.0747
   47MOL0     O 6384   4.368   8.583   4.608  0.0796 -0.9413  0.1885
   47MOL0     C 6385   4.303   8.704   4.560 -0.6056  0.1011 -0.3954
   47MOL0     C 6386   4.368   8.834   4.615  0.0535  0.7364  0.0462
   47MOL0     C 6387   4.474   8.866   4.503 -0.6990 -0.6740  0.7803
   47MOL0     C 6388   4.584   8.967   4.548  0.2835  0.6133  0.7292
   47MOL0     C 6389   4.535   9.092   4.605 -0.6404 -0.9661  0.0203
   47MOL0     C 6390   4.503   9.093   4.755 -0.5091 -0.1805  0.4374
   47MOL0     C 6391   4.442   9.232   4.802 -0.1034  0.8563  0.6115
   47MOL0     C 6392   4.402   9.226   4.954 -0.5141  0.4320  0.1836
   47MOL0    Cl 6393   4.303   9.357   5.021 -0.1846 -0.0342  0.0344
   47MOL0     C 6394   4.173   8.435   4.615  1.0220  0.9263  0.5899
   47MOL0     C 6395   4.131   8.302   4.635  0.1453  0.4852  0.3855
   47MOL0     O 6396   4.165   8.082   4.895  0.0429  0.5350 -0.9141
   47MOL0     C 6397   4.066   7.816   4.667  0.3768  0.6608 -0.0513
   47MOL0     C 6398   4.025   7.679   4.670 -0.5480 -0.4258 -0.1792
   47MOL0     N 6399   3.852   6.884   4.576 -0.0834  1.0600  0.7423
   47MOL0     N 6400   3.901   6.790   4.655  0.8907  0.2327  0.5114
   47MOL0     C 6401   3.857   5.671   5.328  0.1181 -0.0503  0.2585
   47MOL0     C 6402   3.965   5.589   5.346 -0.4502  0.1032  0.1863
   47MOL0     C 6403   4.392   5.412   5.227  0.6949  1.0584  0.4089
   47MOL0     C 6404   4.459   5.440   5.349  0.0995 -0.6913  0.7716
   47MOL0     C 6405   4.558   5.353   5.401 -0.1541 -0.4118 -0.2029
   47MOL0     C 6406   4.606   5.245   5.327 -0.4087 -0.5969  0.3667
   47MOL0     O 6407   4.715   5.162   5.351 -0.6049  0.1034  0.1273
   47MOL0     C 6408   4.751   5.140   5.488  0.6810  0.0246 -0.3943
   47MOL0     C 6409   4.814   4.999   5.499  0.0547  0.3918 -0.3238
   47MOL0     C 6410   4.948   4.971   5.424 -1.1236 -0.3717 -0.1433
   47MOL0     C 6411   5.000   4.830   5.432 -0.4776  0.5582  0.0932
   47MOL0     C 6412   4.956   4.756   5.551  0.8793 -0.3453 -0.2528
   47MOL0     C 6413   4.900   4.703   5.646 -1.0438 -0.5807 -0.0105
   47MOL0     C 6414   4.542   5.219   5.211  0.9914 -0.1969  0.2954
   47MOL0     C 6415   4.432   5.295   5.155 -0.5629  0.4262  0.3460
   47MOL0     C 6416   4.361   5.245   5.033  0.3257  0.7350  1.0202
   47MOL0     H 6417   4.173   5.788   5.171 -1.2760  2.0315 -0.0794
   47MOL0     H 6418   3.977   5.910   5.136  0.5108  0.9524  1.7650
   47MOL0     H 6419   3.602   5.926   5.096 -0.7397  0.7293  1.1856
   47MOL0     H 6420   3.774   5.916   5.050 -1.0132 -1.8710 -1.6051
   47MOL0     H 6421   3.614   6.110   5.218  0.7553 -3.0522  0.6546
   47MOL0     H 6422   3.794   6.094   5.240 -0.4321  0.7416  0.3284
   47MOL0     H 6423   3.830   6.131   4.997  0.0623 -0.6158  1.4522
   47MOL0     H 6424   3.651   6.150   4.979 -2.0405 -2.5723  2.5921
   47MOL0     H 6425   3.650   6.343   5.124 -0.2202  0.2181 -0.7146
   47MOL0     H 6426   3.824   6.331   5.163  0.2426  4.3891 -1.3337
   47MOL0     H 6427   3.686   6.400   4.904 -2.1063 -0.2459  2.3619
   47MOL0     H 6428   3.855   6.348   4.899  0.9713 -0.9042  1.6696
   47MOL0     H 6429   3.760   6.587   5.065 -1.6765 -4.0387  1.2961
   47MOL0     H 6430   3.918   6.521   5.081 -2.0595  2.3762  2.9947
   47MOL0     H 6431   3.791   6.612   4.813  1.2340  1.9969 -0.7623
   47MOL0     H 6432   3.962   6.572   4.846  0.1514 -1.0992  2.1918
   47MOL0     H 6433   3.802   6.796   4.965  0.7807  1.0585  0.9729
   47MOL0     H 6434   3.984   6.785   4.963 -0.2233 -1.2753 -0.2051
   47MOL0     H 6435   3.820   7.035   4.865 -1.4055 -0.0238 -0.5474
   47MOL0     H 6436   3.663   7.140   4.697  0.6081  1.1783  1.3245
   47MOL0     H 6437   3.672   7.077   4.527  2.5857  1.5135 -2.3395
   47MOL0     H 6438   3.881   7.209   4.497  0.5992  0.4815  0.4511
   47MOL0     H 6439   3.736   7.295   4.531  1.0157 -1.8138 -6.2303
   47MOL0     H 6440   3.787   7.308   4.770 -0.3677 -1.2460 -1.2532
   47MOL0     H 6441   3.935   7.217   4.771 -0.0645 -0.1277  0.5422
   47MOL0     H 6442   4.034   7.397   4.622  0.8523  2.2289  0.9262
   47MOL0     H 6443   3.873   7.465   4.604 -2.0516 -1.5713 -0.5092
   47MOL0     H 6444   4.014   7.621   5.004 -3.1359 -1.5143 -1.7979
   47MOL0     H 6445   4.073   7.785   5.148  4.6674 -1.0770  1.0916
   47MOL0     H 6446   4.059   7.951   5.082 -0.2309 -0.5096 -2.6213
   47MOL0     H 6447   4.202   7.858   5.061 -0.0461  0.7346 -0.1957
   47MOL0     H 6448   4.435   8.163   4.705  1.3755  1.9897  1.3179
   47MOL0     H 6449   4.502   8.393   4.687 -0.4859  3.1773  0.3397
   47MOL0     H 6450   4.292   8.714   4.452 -2.3000  2.2537 -0.0953
   47MOL0     H 6451   4.199   8.705   4.595 -1.1102  1.0383 -1.8513
   47MOL0     H 6452   4.292   8.911   4.627 -0.1671  0.4931  0.2287
   47MOL0     H 6453   4.405   8.808   4.715 -2.5175  0.1570  0.9224
   47MOL0     H 6454   4.429   8.904   4.411  0.1463  1.1048  1.0677
   47MOL0     H 6455   4.516   8.767   4.481  1.2719  0.4812 -1.0059
   47MOL0     H 6456   4.656   8.985   4.468 -1.2507 -0.2004 -0.9220
   47MOL0     H 6457   4.648   8.926   4.627  1.7741  2.7527  0.7039
   47MOL0     H 6458   4.612   9.166   4.584 -1.7851  0.0239 -0.7666
   47MOL0     H 6459   4.439   9.109   4.555 -2.0373  0.8995  3.0431
   47MOL0     H 6460   4.592   9.062   4.809 -1.4788 -4.3751 -0.0004
   47MOL0     H 6461   4.428   9.022   4.790 -0.7754  0.6567  1.6571
   47MOL0     H 6462   4.355   9.262   4.742  1.2663 -0.9202 -2.5248
   47MOL0     H 6463   4.523   9.302   4.781 -1.0167  1.3815 -1.4226
   47MOL0     H 6464   4.497   9.201   5.002  0.7996  3.6460 -0.4924
   47MOL0     H 6465   4.342   9.135   4.966 -1.4562  1.3354  3.0124
   47MOL0     H 6466   4.097   8.508   4.589  0.1779 -0.5893 -1.3850
   47MOL0     H 6467   4.026   8.281   4.620  0.0251  1.1330  0.2769
   47MOL0     H 6468   4.093   7.858   4.571  0.2488  0.1642 -0.3055
   47MOL0     H 6469   4.023   7.620   4.579 -3.9232 -3.4887  1.6520
   47MOL0     H 6470   3.764   5.632   5.369 -0.3542 -0.0432 -0.7785
   47MOL0     H 6471   3.968   5.504   5.412 -1.1630 -0.9660 -1.1201
   47MOL0     H 6472   4.431   5.528   5.405  0.3463 -0.4622  0.5368
   47MOL0     H 6473   4.619   5.381   5.486  1.4364  0.7773 -1.6711
   47MOL0     H 6474   4.828   5.208   5.525  1.2009 -0.5167 -0.4630
   47MOL0     H 6475   4.663   5.150   5.551  1.9371  2.0135  1.1703
   47MOL0     H 6476   4.748   4.921   5.460  0.3965 -1.3041  2.2544
   47MOL0     H 6477   4.833   4.982   5.605  1.5223 -0.7568 -0.7280
   47MOL0     H 6478   4.947   5.000   5.318  1.7931  0.5039 -0.0366
   47MOL0     H 6479   5.038   5.024   5.457  0.5461 -2.5102 -1.0223
   47MOL0     H 6480   5.109   4.823   5.426 -0.2009  4.2816 -1.6978
   47MOL0     H 6481   4.950   4.775   5.352 -2.0833 -1.3208  2.2599
   47MOL0     H 6482   4.865   4.656   5.736  0.3561  0.9044  1.3570
   47MOL0     H 6483   4.586   5.138   5.154 -1.4131 -1.6323  0.3158
   47MOL0     H 6484   4.383   5.306   4.945 -0.2607  0.1437  0.4551
   47MOL0     H 6485   4.388   5.141   5.011  0.8247  1.1308 -0.3354
   47MOL0     H 6486   4.256   5.239   5.064 -0.6310 -7.8844 -1.2803
   48MOL0     O 6487   7.071   8.333   2.255 -0.4447  0.5396  0.0442
   48MOL0     C 6488   7.002   8.401   2.329  0.3216  0.4317  0.3090
   48MOL0     O 6489   6.923   8.506   2.289 -0.3465  0.2275 -0.9157
   48MOL0     C 6490   6.955   8.563   2.180 -0.5825  0.6398  0.2847
   48MOL0     C 6491   7.015   8.688   2.185 -0.2890 -0.2298  0.0613
   48MOL0     C 6492   7.024   8.779   2.081  0.1476 -0.0536 -0.2467
   48MOL0     C 6493   6.962   8.733   1.959  1.1078  0.0652 -0.1955
   48MOL0     O 6494   6.928   8.802   1.845 -0.0712 -0.0045 -0.0873
   48MOL0     C 6495   6.972   8.935   1.846 -1.3122 -0.2920 -0.2155
   48MOL0     C 6496   6.995   8.988   1.701 -0.0860 -0.6739 -0.5961
   48MOL0     C 6497   6.880   8.955   1.601 -0.4512  0.0991 -0.7527
   48MOL0     C 6498   6.763   9.043   1.629 -0.4951  0.3240 -0.4218
   48MOL0     C 6499   6.641   8.970   1.661  1.7545  0.1218  0.4506
   48MOL0     C 6500   6.530   9.078   1.648 -0.4343  0.7922 -0.2198
   48MOL0     C 6501   6.393   9.032   1.701  0.4903 -0.4920  0.3973
   48MOL0     C 6502   6.328   8.904   1.645 -0.0145  0.3757  0.2490
   48MOL0     N 6503   6.195   8.888   1.687 -0.6967 -0.3451  0.4158
   48MOL0     C 6504   6.102   8.846   1.603 -0.0989 -0.2361  0.6872
   48MOL0     C 6505   5.991   8.832   1.683 -0.1642  0.1225  1.0340
   48MOL0     C 6506   5.864   8.772   1.638  0.5207  0.6488  0.5992
   48MOL0     C 6507   5.738   8.865   1.657 -0.4612  0.0385 -0.3131
   48MOL0     C 6508   5.701   8.928   1.524  0.7726 -1.1318 -0.0440
   48MOL0     C 6509   5.579   9.027   1.536 -0.1125  0.8265  0.3731
   48MOL0     O 6510   5.500   9.025   1.410 -0.6498 -0.5547 -0.3140
   48MOL0     C 6511   5.555   9.115   1.313  0.0532  0.4855 -0.2999
   48MOL0     C 6512   5.481   9.111   1.199 -0.8846  0.3033  0.3886
   48MOL0     C 6513   5.500   9.198   1.089  0.7051  0.1784 -0.2323
   48MOL0     C 6514   5.406   9.184   0.969 -0.5043 -0.2487  0.0650
   48MOL0     C 6515   5.605   9.293   1.106  0.5450 -0.0831  0.4509
   48MOL0     C 6516   5.637   9.393   0.989 -0.8793 -0.4056 -0.6087
   48MOL0     O 6517   5.737   9.479   1.013 -0.1511  0.2063 -0.3541
   48MOL0     C 6518   5.772   9.600   0.954 -0.4309  0.2005  0.9469
   48MOL0     C 6519   5.715   9.674   0.842  0.0385 -0.2878 -0.3323
   48MOL0     C 6520   5.760   9.803   0.795  0.1534 -0.6322  0.2067
   48MOL0     C 6521   5.870   9.859   0.843  0.6456  0.4828  0.6642
   48MOL0     O 6522   5.909   9.976   0.798 -0.0562 -0.6025 -0.6679
   48MOL0     C 6523   6.037   9.966   0.739  0.3517 -0.5450  0.5156
   48MOL0     C 6524   6.111  10.068   0.810  0.0913 -0.5882  0.8366
   48MOL0     C 6525   6.255  10.035   0.821 -0.3345 -0.1527  0.5638
   48MOL0     C 6526   6.285   9.931   0.930  1.3181 -0.5395  0.4195
   48MOL0     C 6527   6.434   9.939   0.982  0.2738  0.1617 -0.1605
   48MOL0     C 6528   6.486   9.825   1.070  0.0433 -0.6704  0.3091
   48MOL0     C 6529   6.618   9.863   1.133 -0.3338 -0.5669  1.0148
   48MOL0     C 6530   6.595   9.947   1.250 -0.5652 -0.1736 -0.0561
   48MOL0    Cl 6531   6.556   9.839   1.384 -0.0016  0.0619 -0.0771
   48MOL0     C 6532   5.931   9.792   0.955 -1.7031  0.4253  0.2325
   48MOL0     C 6533   5.881   9.668   1.009 -0.1058 -0.6656  0.3614
   48MOL0     O 6534   5.579   9.393   0.884 -0.1002  1.0255 -0.3994
   48MOL0     C 6535   5.682   9.299   1.229  0.2089  0.0953  0.6104
   48MOL0     C 6536   5.654   9.208   1.326 -0.7232  0.1645  0.5108
   48MOL0     N 6537   6.033   8.843   1.811  0.6004 -0.4124  0.2655
   48MOL0     N 6538   6.154   8.882   1.817  0.4240 -1.6378  0.2700
   48MOL0     C 6539   6.907   8.604   1.948  0.2776 -0.1088 -0.4080
   48MOL0     C 6540   6.905   8.512   2.055  0.8005  0.0947  0.7896
   48MOL0     C 6541   6.963   8.337   2.451 -0.5480  0.9127 -0.5083
   48MOL0     C 6542   6.950   8.200   2.459  0.4820  0.1643  0.2982
   48MOL0     C 6543   6.913   8.137   2.581 -0.1472 -0.4061 -0.3359
   48MOL0     C 6544   6.900   8.212   2.695 -0.0549 -0.1115 -0.3342
   48MOL0     O 6545   6.878   8.138   2.813 -0.4784  0.2438  0.6652
   48MOL0     C 6546   6.977   8.046   2.863  0.0657 -0.3495  0.3808
   48MOL0     C 6547   6.926   7.996   2.995 -0.1430  0.2593 -0.0660
   48MOL0     C 6548   7.021   7.887   3.046 -0.0119  0.2002 -0.2113
   48MOL0     C 6549   6.943   7.823   3.165 -0.2028  0.3104  0.0642
   48MOL0     C 6550   7.008   7.702   3.211 -0.4684 -0.8226  0.0433
   48MOL0     C 6551   7.082   7.621   3.259  0.3220  0.6421 -0.6992
   48MOL0     C 6552   6.925   8.349   2.697 -0.0014 -0.6885  1.0525
   48MOL0     C 6553   6.954   8.412   2.574  0.3642 -0.1498 -0.1918
   48MOL0     C 6554   6.997   8.569   2.574 -0.2183 -0.2575 -0.5472
   48MOL0     H 6555   7.018   8.734   2.284 -3.5051  1.2821 -0.4188
   48MOL0     H 6556   7.061   8.880   2.088 -2.2490  0.9244 -0.8459
   48MOL0     H 6557   7.070   8.940   1.895 -0.1104 -2.6356 -2.1353
   48MOL0     H 6558   6.904   8.993   1.908  0.4317  1.4907  0.1279
   48MOL0     H 6559   7.016   9.095   1.692  1.0639 -0.4286  3.2130
   48MOL0     H 6560   7.087   8.944   1.661  1.1018  2.2702 -1.3407
   48MOL0     H 6561   6.916   8.981   1.501 -2.9113 -1.5776 -2.1733
   48MOL0     H 6562   6.860   8.848   1.595 -2.2566  0.2997  0.8156
   48MOL0     H 6563   6.792   9.107   1.713  1.2357  0.0423 -0.7565
   48MOL0     H 6564   6.741   9.108   1.544  1.1605 -0.5019 -1.5486
   48MOL0     H 6565   6.646   8.925   1.760  1.1660 -1.9276 -0.4038
   48MOL0     H 6566   6.607   8.894   1.589 -1.9524  0.3013  1.8062
   48MOL0     H 6567   6.559   9.166   1.707 -1.5095  1.4873 -0.6816
   48MOL0     H 6568   6.531   9.119   1.547  2.7430  4.0561  0.9177
   48MOL0     H 6569   6.318   9.107   1.673  0.6413 -1.1599 -2.0262
   48MOL0     H 6570   6.398   9.022   1.810  1.5406 -1.2489  0.2961
   48MOL0     H 6571   6.332   8.920   1.537  0.1204  3.8821  0.6353
   48MOL0     H 6572   6.388   8.814   1.659 -1.4112 -1.0995 -2.4982
   48MOL0     H 6573   6.112   8.820   1.498 -4.2093  0.6422 -0.0583
   48MOL0     H 6574   5.856   8.677   1.691 -1.9398  0.3474 -0.2310
   48MOL0     H 6575   5.878   8.751   1.532  3.2479  0.2844  0.9566
   48MOL0     H 6576   5.658   8.796   1.685  0.9953 -3.5968 -3.9868
   48MOL0     H 6577   5.742   8.944   1.732  0.9076 -0.7075  0.4467
   48MOL0     H 6578   5.779   8.990   1.479  0.0361 -0.5995 -0.6232
   48MOL0     H 6579   5.676   8.852   1.449 -1.2178 -0.1085 -0.5079
   48MOL0     H 6580   5.518   8.977   1.612  0.6372 -1.0218 -0.1820
   48MOL0     H 6581   5.613   9.126   1.568  1.8057  1.0245 -2.0106
   48MOL0     H 6582   5.399   9.040   1.195 -0.5644 -0.4281  3.9780
   48MOL0     H 6583   5.472   9.156   0.886 -0.0505 -1.7911  0.9020
   48MOL0     H 6584   5.354   9.280   0.961  0.7918  0.4801 -0.0381
   48MOL0     H 6585   5.330   9.106   0.975  1.0002 -1.7033  1.2937
   48MOL0     H 6586   5.641   9.619   0.785  1.2591  0.1676 -2.4698
   48MOL0     H 6587   5.719   9.855   0.708  2.5287  4.6884  1.8337
   48MOL0     H 6588   6.082   9.866   0.736  3.5441  0.6185  3.5859
   48MOL0     H 6589   6.032  10.011   0.639  0.2611  0.5913  1.0213
   48MOL0     H 6590   6.100  10.168   0.766 -1.3986 -0.7585  0.7819
   48MOL0     H 6591   6.073  10.067   0.912 -1.0495 -1.2416  0.4228
   48MOL0     H 6592   6.310  10.125   0.852  0.3926  0.0737 -1.2754
   48MOL0     H 6593   6.293   9.995   0.727 -1.7913 -0.0740 -0.0703
   48MOL0     H 6594   6.257   9.833   0.890 -1.0615 -0.2926  1.3185
   48MOL0     H 6595   6.226   9.952   1.020  0.8616  0.9076 -0.1962
   48MOL0     H 6596   6.505   9.936   0.898  2.8071 -3.9463  1.8113
   48MOL0     H 6597   6.439  10.032   1.039  0.6891 -0.9030  1.6049
   48MOL0     H 6598   6.496   9.730   1.016 -3.0903 -0.8693 -0.1040
   48MOL0     H 6599   6.410   9.818   1.148 -2.0860 -1.0797 -1.7057
   48MOL0     H 6600   6.674   9.924   1.061  0.1017  0.7011  2.3828
   48MOL0     H 6601   6.686   9.779   1.152 -0.1697 -0.2643  1.7991
   48MOL0     H 6602   6.509  10.015   1.244 -1.1147 -0.9907 -2.2130
   48MOL0     H 6603   6.690   9.996   1.274  0.6006 -1.1050 -2.4168
   48MOL0     H 6604   6.011   9.839   1.011 -1.8507  1.1896 -0.1842
   48MOL0     H 6605   5.932   9.621   1.093 -0.0165 -3.9756 -1.3543
   48MOL0     H 6606   5.765   9.370   1.226  3.2617 -3.0198  3.3773
   48MOL0     H 6607   5.715   9.220   1.415 -0.8838  0.8398  0.5374
   48MOL0     H 6608   6.847   8.576   1.862 -0.6301 -0.6273  0.3730
   48MOL0     H 6609   6.845   8.423   2.042 -1.5563  1.8891 -1.6995
   48MOL0     H 6610   6.962   8.144   2.366 -1.0689 -0.4274  0.4364
   48MOL0     H 6611   6.899   8.030   2.574  2.3411 -0.7706 -0.6878
   48MOL0     H 6612   6.984   7.961   2.794  0.5206  0.2806 -0.3747
   48MOL0     H 6613   7.075   8.093   2.871 -0.2072  0.3050  0.0072
   48MOL0     H 6614   6.825   7.954   2.983 -0.7912  0.9820  2.3379
   48MOL0     H 6615   6.922   8.088   3.053 -0.4575  2.7308 -3.6335
   48MOL0     H 6616   7.038   7.805   2.976 -0.0941 -0.0126  0.0141
   48MOL0     H 6617   7.119   7.922   3.078  0.9858 -2.6177  0.0866
   48MOL0     H 6618   6.840   7.793   3.142 -0.6477  0.9015  1.2324
   48MOL0     H 6619   6.941   7.904   3.237  2.0152  0.7583 -0.3097
   48MOL0     H 6620   7.138   7.545   3.311 -1.9040  0.0095  0.9038
   48MOL0     H 6621   6.933   8.409   2.788 -1.2830  0.9819  0.1258
   48MOL0     H 6622   7.039   8.586   2.673  2.0364 -2.1480 -1.0982
   48MOL0     H 6623   7.080   8.591   2.506  0.2577  1.3174  0.5028
   48MOL0     H 6624   6.913   8.637   2.560 -0.1568 -0.0082  0.2750
   49MOL0     O 6625  10.781   7.673   7.141  0.2276 -0.7044  0.4337
   49MOL0     C 6626  10.864   7.731   7.067 -0.8126  0.3639  0.8270
   49MOL0     O 6627  10.838   7.843   6.985 -0.6934 -0.8141  0.8940
   49MOL0     C 6628  10.714   7.894   6.987  0.3940 -0.4731 -0.7274
   49MOL0     C 6629  10.650   7.923   7.111 -0.5022  0.8313  0.5166
   49MOL0     C 6630  10.515   7.963   7.111 -0.1627  0.4187  0.3712
   49MOL0     C 6631  10.440   7.980   6.995 -0.0420 -1.2044 -0.3198
   49MOL0     O 6632  10.307   8.016   6.982 -0.3756  0.6373 -0.1317
   49MOL0     C 6633  10.265   8.136   7.068 -0.3178  0.1519 -0.5184
   49MOL0     C 6634  10.164   8.224   6.995 -0.6355  0.2830  0.3603
   49MOL0     C 6635  10.039   8.145   6.942 -1.3372  1.5902  0.0043
   49MOL0     C 6636   9.926   8.235   6.895 -0.3999  0.5432 -0.1591
   49MOL0     C 6637   9.813   8.144   6.846 -0.3617 -0.4308  0.0891
   49MOL0     C 6638   9.778   8.173   6.702  0.8695  0.2821  0.5988
   49MOL0     C 6639   9.724   8.313   6.688  0.3353 -0.1831 -0.0168
   49MOL0     C 6640   9.666   8.331   6.550  0.8614  0.2680  1.0171
   49MOL0     N 6641   9.624   8.471   6.539 -0.3170 -1.0769 -0.1526
   49MOL0     C 6642   9.615   8.543   6.425 -0.2529  0.3977  0.2275
   49MOL0     C 6643   9.595   8.669   6.451 -1.1185  0.7706 -0.5016
   49MOL0     C 6644   9.626   8.777   6.348 -0.4605 -0.1279  0.1935
   49MOL0     C 6645   9.690   8.901   6.411 -0.1087 -0.2324  0.4458
   49MOL0     C 6646   9.791   8.968   6.313 -0.2970 -1.4036 -0.3722
   49MOL0     C 6647   9.930   8.918   6.321  0.2232 -0.0699  0.2144
   49MOL0     O 6648   9.943   8.782   6.357 -0.0956 -0.7047  0.0850
   49MOL0     C 6649  10.066   8.725   6.374  0.1573 -0.3084  1.7409
   49MOL0     C 6650  10.145   8.745   6.487  0.8044  0.3599 -0.4957
   49MOL0     C 6651  10.267   8.685   6.499  0.3505 -1.3803 -0.0571
   49MOL0     C 6652  10.329   8.707   6.639  0.0098  0.0629 -0.8450
   49MOL0     C 6653  10.312   8.592   6.402  0.7844 -0.2356 -0.0307
   49MOL0     C 6654  10.435   8.511   6.425 -0.7880 -0.9361  0.4370
   49MOL0     O 6655  10.460   8.420   6.330 -0.3851 -0.2136 -0.1857
   49MOL0     C 6656  10.568   8.336   6.325 -0.4945  0.4973  0.1033
   49MOL0     C 6657  10.610   8.310   6.187 -0.1280 -0.3730 -0.0686
   49MOL0     C 6658  10.710   8.217   6.161 -0.2208 -0.2711  1.2041
   49MOL0     C 6659  10.769   8.138   6.259 -0.1112  0.4320  0.4840
   49MOL0     O 6660  10.857   8.034   6.231  0.2433 -0.2529  0.0649
   49MOL0     C 6661  10.971   8.067   6.149  0.8880 -0.1105 -0.0171
   49MOL0     C 6662  11.061   7.950   6.151  0.2597  0.0259  1.0030
   49MOL0     C 6663  10.988   7.823   6.131 -0.2239 -0.5429  0.5937
   49MOL0     C 6664  11.088   7.700   6.124  0.2002  0.1218  0.2176
   49MOL0     C 6665  11.021   7.558   6.136 -0.5060  0.1734 -0.4698
   49MOL0     C 6666  10.960   7.537   6.000 -0.4128 -0.1189  0.3086
   49MOL0     C 6667  10.912   7.390   5.982  0.3715  0.7285 -0.4048
   49MOL0     C 6668  10.809   7.372   5.874 -0.2519 -0.6122 -0.8038
   49MOL0    Cl 6669  10.696   7.228   5.905  0.1636 -0.3244  0.1767
   49MOL0     C 6670  10.721   8.166   6.395  0.6127  0.0375  1.0021
   49MOL0     C 6671  10.635   8.269   6.431  0.8755 -0.6616  0.7953
   49MOL0     O 6672  10.509   8.537   6.521 -0.9385  0.2939  0.0897
   49MOL0     C 6673  10.222   8.558   6.290 -0.5009 -0.1110 -0.5513
   49MOL0     C 6674  10.105   8.630   6.277  0.8854  0.5031 -0.8278
   49MOL0     N 6675   9.594   8.678   6.586  0.5092 -0.3441 -0.6958
   49MOL0     N 6676   9.604   8.562   6.638  0.3385  0.8392 -0.5111
   49MOL0     C 6677  10.502   7.950   6.871 -0.1715  1.2541  0.2216
   49MOL0     C 6678  10.639   7.912   6.868  0.1444  0.3415  0.1833
   49MOL0     C 6679  11.003   7.673   7.061 -0.0740  0.0262  0.5899
   49MOL0     C 6680  11.112   7.756   7.023 -0.3239 -0.3149 -0.2069
   49MOL0     C 6681  11.249   7.713   7.038  0.2007  1.0241  0.1717
   49MOL0     C 6682  11.275   7.580   7.066 -0.8436  0.4074 -0.3701
   49MOL0     O 6683  11.402   7.537   7.091 -0.5250 -0.2482 -0.9128
   49MOL0     C 6684  11.459   7.505   6.967 -0.8957 -0.1355 -0.7843
   49MOL0     C 6685  11.608   7.547   6.967  0.9940 -0.8230  0.8373
   49MOL0     C 6686  11.619   7.694   6.992 -0.0416  0.3127 -0.3768
   49MOL0     C 6687  11.757   7.742   7.039 -0.6611 -0.0216 -0.2072
   49MOL0     C 6688  11.865   7.712   6.944 -0.1858  0.1519 -0.8907
   49MOL0     C 6689  11.960   7.687   6.871 -1.1977 -0.3423 -0.1649
   49MOL0     C 6690  11.168   7.496   7.090 -0.6589 -0.0508 -0.1271
   49MOL0     C 6691  11.037   7.537   7.088 -0.3723  0.6151  0.0878
   49MOL0     C 6692  10.931   7.429   7.117 -0.0795 -1.0560 -0.2448
   49MOL0     H 6693  10.700   7.899   7.204 -1.6287 -3.0167  0.3022
   49MOL0     H 6694  10.463   7.958   7.206 -1.1682 -1.9200 -0.2400
   49MOL0     H 6695  10.353   8.184   7.111 -2.1277  1.8563  1.5921
   49MOL0     H 6696  10.211   8.099   7.157  2.6674 -0.8325  1.0118
   49MOL0     H 6697  10.121   8.288   7.073 -3.9780  1.2261 -2.0217
   49MOL0     H 6698  10.217   8.282   6.919 -1.0612  3.1904  2.1168
   49MOL0     H 6699  10.061   8.068   6.868 -3.9344 -1.1410  1.8254
   49MOL0     H 6700  10.000   8.092   7.029 -0.8812 -1.5189 -1.5553
   49MOL0     H 6701   9.888   8.307   6.967 -1.8229  0.8987 -1.2269
   49MOL0     H 6702   9.980   8.284   6.814  1.2761  1.7910  1.6123
   49MOL0     H 6703   9.719   8.146   6.902 -0.9320  0.2910 -0.8630
   49MOL0     H 6704   9.849   8.041   6.844  0.1679 -0.2900  1.3448
   49MOL0     H 6705   9.873   8.151   6.653  1.3008 -0.4342  1.7232
   49MOL0     H 6706   9.704   8.100   6.669 -0.0413  1.1254  0.7076
   49MOL0     H 6707   9.806   8.386   6.691 -0.0729  0.2722 -0.0116
   49MOL0     H 6708   9.655   8.344   6.767 -0.1925  0.4883 -0.7325
   49MOL0     H 6709   9.744   8.310   6.476 -1.4672  0.7198 -1.7076
   49MOL0     H 6710   9.582   8.265   6.527  1.4149  0.3762 -1.5797
   49MOL0     H 6711   9.634   8.512   6.323  0.3137 -2.2961  1.0859
   49MOL0     H 6712   9.544   8.809   6.283  2.3170  2.0553 -2.5477
   49MOL0     H 6713   9.697   8.740   6.274 -1.0798 -1.4123  0.2125
   49MOL0     H 6714   9.604   8.964   6.434 -0.6105  1.1234 -4.1498
   49MOL0     H 6715   9.734   8.882   6.509  2.9827  4.0907  0.1998
   49MOL0     H 6716   9.754   8.973   6.211 -0.8839 -1.7064 -0.1753
   49MOL0     H 6717   9.809   9.073   6.340 -0.2061 -1.3494 -0.6380
   49MOL0     H 6718   9.978   8.919   6.222 -0.5804  0.1537 -0.1811
   49MOL0     H 6719   9.985   8.982   6.391  0.8020  0.5960 -0.8069
   49MOL0     H 6720  10.101   8.811   6.561 -1.5442  2.7291 -3.6747
   49MOL0     H 6721  10.266   8.782   6.689  0.9247  0.9832 -1.0580
   49MOL0     H 6722  10.427   8.754   6.636 -0.3107  0.9133  0.9179
   49MOL0     H 6723  10.317   8.620   6.706 -1.8649  1.1924  0.3932
   49MOL0     H 6724  10.555   8.355   6.105 -1.8918 -1.7235  0.3144
   49MOL0     H 6725  10.728   8.200   6.055  0.1158  1.4888  0.9455
   49MOL0     H 6726  10.952   8.107   6.049 -3.5583  2.4818  1.5658
   49MOL0     H 6727  11.033   8.143   6.198  1.7859 -0.6478 -0.2950
   49MOL0     H 6728  11.125   7.953   6.062 -1.5720 -1.7546 -0.4462
   49MOL0     H 6729  11.121   7.945   6.243  0.9525  0.8107  0.6174
   49MOL0     H 6730  10.932   7.830   6.037  0.9299 -0.5197 -0.1194
   49MOL0     H 6731  10.927   7.790   6.216 -0.7010 -0.7266  0.1853
   49MOL0     H 6732  11.165   7.714   6.201 -0.4128 -0.3486  0.9241
   49MOL0     H 6733  11.146   7.699   6.031  2.4791 -1.5222  1.5490
   49MOL0     H 6734  11.098   7.482   6.153  2.9946  3.0029 -2.1597
   49MOL0     H 6735  10.943   7.563   6.212 -1.7156 -0.8407 -1.6004
   49MOL0     H 6736  11.031   7.567   5.923  0.3904 -0.7576  0.7794
   49MOL0     H 6737  10.873   7.603   5.989 -0.0422 -0.0766 -3.4568
   49MOL0     H 6738  10.881   7.358   6.082  2.4061  2.1734  0.7630
   49MOL0     H 6739  11.001   7.331   5.959 -1.2617 -1.3505 -1.7425
   49MOL0     H 6740  10.866   7.366   5.781  2.0675 -2.5521  0.6431
   49MOL0     H 6741  10.745   7.462   5.879  0.5961  0.2158 -3.3461
   49MOL0     H 6742  10.756   8.101   6.475 -3.0734 -2.6644  0.7169
   49MOL0     H 6743  10.609   8.292   6.534 -1.2006 -1.7109  0.5659
   49MOL0     H 6744  10.252   8.473   6.229  1.1666  0.1637 -0.1769
   49MOL0     H 6745  10.031   8.627   6.198 -1.8360  0.0207  1.5645
   49MOL0     H 6746  10.455   7.949   6.774 -1.8671  2.3584  0.9927
   49MOL0     H 6747  10.694   7.888   6.777 -0.9559 -1.0698 -0.1469
   49MOL0     H 6748  11.099   7.862   7.008  1.4206  0.7322  4.1673
   49MOL0     H 6749  11.326   7.788   7.023  2.3624 -0.3210  3.4120
   49MOL0     H 6750  11.451   7.398   6.946 -0.2210  0.4110 -4.5134
   49MOL0     H 6751  11.403   7.547   6.883 -2.3849  0.2090  0.3280
   49MOL0     H 6752  11.645   7.512   6.870  0.9914  0.2838  0.4211
   49MOL0     H 6753  11.669   7.485   7.034  1.7644  1.7759  2.6888
   49MOL0     H 6754  11.577   7.752   6.910  0.2970 -1.8827 -2.1893
   49MOL0     H 6755  11.560   7.737   7.073  1.5133  1.2633  0.3072
   49MOL0     H 6756  11.802   7.690   7.125  1.0644  0.2164 -0.9232
   49MOL0     H 6757  11.754   7.848   7.068 -0.9753 -0.8987  3.5270
   49MOL0     H 6758  12.047   7.661   6.814 -0.9366 -0.6092  0.3446
   49MOL0     H 6759  11.171   7.399   7.137 -0.1953  1.5361  3.4100
   49MOL0     H 6760  10.853   7.416   7.041  1.3830 -1.7323 -1.6882
   49MOL0     H 6761  10.971   7.327   7.119  1.1383 -0.6088 -1.0587
   49MOL0     H 6762  10.868   7.450   7.204  1.6771 -0.9840  1.0648
   50MOL0     O 6763   3.157   7.625   6.166 -0.5843 -0.5191  0.3696
   50MOL0     C 6764   3.128   7.653   6.051  0.2445 -0.0959  0.8456
   50MOL0     O 6765   3.013   7.729   6.021  0.8402 -0.2004  0.0683
   50MOL0     C 6766   2.909   7.762   6.111 -0.3116 -0.1173  0.6238
   50MOL0     C 6767   2.882   7.727   6.247  0.6190  0.6321  0.6854
   50MOL0     C 6768   2.771   7.779   6.313 -0.5161  0.9181 -0.0252
   50MOL0     C 6769   2.696   7.881   6.248 -0.1804 -0.0632  0.3505
   50MOL0     O 6770   2.586   7.921   6.312 -0.0673  0.1133  0.0414
   50MOL0     C 6771   2.467   7.844   6.292 -0.3510  0.7764 -1.2192
   50MOL0     C 6772   2.354   7.926   6.345  0.2478 -0.5753 -0.2485
   50MOL0     C 6773   2.362   8.063   6.274 -0.7382 -0.4986 -0.6333
   50MOL0     C 6774   2.228   8.131   6.252  0.4284 -0.4023 -0.0038
   50MOL0     C 6775   2.142   8.195   6.362 -0.5128 -0.6876  0.5877
   50MOL0     C 6776   1.995   8.191   6.348 -0.1383 -0.7619  0.2263
   50MOL0     C 6777   1.955   8.266   6.221 -0.2540 -0.0080  0.3100
   50MOL0     C 6778   1.803   8.258   6.206 -0.3650  0.2040 -0.3663
   50MOL0     N 6779   1.769   8.348   6.091  0.2698  0.0610  0.3292
   50MOL0     C 6780   1.731   8.482   6.090 -0.1472 -0.9234  1.3290
   50MOL0     C 6781   1.753   8.529   5.960 -0.3975 -0.4524 -0.3589
   50MOL0     C 6782   1.724   8.659   5.909  0.1057 -0.4687 -0.0619
   50MOL0     C 6783   1.570   8.675   5.878 -0.5881  0.2786  0.3351
   50MOL0     C 6784   1.537   8.667   5.726  0.5441 -0.6365  0.1005
   50MOL0     C 6785   1.389   8.695   5.689 -0.6104  0.4709  0.4000
   50MOL0     O 6786   1.373   8.687   5.546  0.4938 -0.2058  0.3922
   50MOL0     C 6787   1.246   8.689   5.491 -0.1886 -0.3485 -0.6095
   50MOL0     C 6788   1.128   8.722   5.569  0.0760 -0.2638  0.1373
   50MOL0     C 6789   0.999   8.716   5.505 -0.2557 -0.4604 -0.3194
   50MOL0     C 6790   0.891   8.766   5.595 -1.3931 -0.3328 -0.3612
   50MOL0     C 6791   0.989   8.686   5.370 -0.4718  1.2572  0.1934
   50MOL0     C 6792   0.861   8.665   5.304 -0.0447  0.6217  0.9438
   50MOL0     O 6793   0.874   8.606   5.177  0.8719 -0.2621 -0.6354
   50MOL0     C 6794   0.772   8.620   5.087 -0.9267 -0.3015  0.2870
   50MOL0     C 6795   0.690   8.734   5.075 -0.4863  0.1530 -0.5850
   50MOL0     C 6796   0.579   8.745   4.991  0.5179 -0.1691 -0.3617
   50MOL0     C 6797   0.545   8.641   4.908  0.5886 -0.2455 -0.3781
   50MOL0     O 6798   0.435   8.669   4.827  0.3756  0.0488  0.6323
   50MOL0     C 6799   0.435   8.598   4.702 -0.0414 -0.1334  1.4222
   50MOL0     C 6800   0.556   8.645   4.619  0.6432  0.2688 -0.8988
   50MOL0     C 6801   0.567   8.612   4.465 -0.1354 -0.8678 -0.3980
   50MOL0     C 6802   0.620   8.469   4.447 -0.2649  0.0162  0.0804
   50MOL0     C 6803   0.772   8.448   4.446  0.6210 -0.1959 -0.0273
   50MOL0     C 6804   0.802   8.298   4.392  0.6249  0.4427 -0.5504
   50MOL0     C 6805   0.951   8.298   4.356  0.2037  0.3266 -0.6232
   50MOL0     C 6806   0.998   8.157   4.315 -0.0892 -0.3092 -0.2322
   50MOL0    Cl 6807   0.909   8.090   4.183  0.5781 -0.5872 -0.1879
   50MOL0     C 6808   0.622   8.517   4.921 -0.3027 -0.4886 -0.2427
   50MOL0     C 6809   0.732   8.504   5.010  0.4030 -0.6482  0.0441
   50MOL0     O 6810   0.753   8.697   5.354  0.2904  0.4089 -0.2969
   50MOL0     C 6811   1.111   8.660   5.293 -0.1042 -0.8480 -0.9942
   50MOL0     C 6812   1.235   8.676   5.355 -0.5423  0.2325 -0.0442
   50MOL0     N 6813   1.785   8.424   5.881 -0.9071  0.0766 -0.2896
   50MOL0     N 6814   1.792   8.314   5.961  0.2947  0.0581 -0.0807
   50MOL0     C 6815   2.731   7.932   6.121  0.0369  0.6757 -0.3234
   50MOL0     C 6816   2.840   7.870   6.056  0.3523 -0.7979  1.1118
   50MOL0     C 6817   3.202   7.601   5.932  0.4717  0.4603  0.6378
   50MOL0     C 6818   3.203   7.673   5.815 -0.5794  0.2834 -0.6267
   50MOL0     C 6819   3.266   7.628   5.702 -0.1711 -0.6659  0.0495
   50MOL0     C 6820   3.352   7.522   5.703 -0.5926  0.2772 -0.2001
   50MOL0     O 6821   3.416   7.494   5.584 -0.0333 -0.1305 -0.4102
   50MOL0     C 6822   3.464   7.353   5.567  0.5645 -0.3245 -0.6041
   50MOL0     C 6823   3.533   7.348   5.433 -0.3570 -0.3258 -1.2263
   50MOL0     C 6824   3.652   7.440   5.419 -0.9779 -0.3963 -0.2314
   50MOL0     C 6825   3.747   7.423   5.296 -0.6717 -0.2523 -0.6980
   50MOL0     C 6826   3.873   7.504   5.313 -0.6372 -0.3888 -0.2345
   50MOL0     C 6827   3.983   7.556   5.325  0.0540 -0.7147  0.0713
   50MOL0     C 6828   3.367   7.447   5.825  0.3781  0.5625 -0.5449
   50MOL0     C 6829   3.288   7.487   5.944 -0.0845 -0.0295  0.7122
   50MOL0     C 6830   3.289   7.393   6.068 -0.9538 -0.2796  0.4050
   50MOL0     H 6831   2.945   7.654   6.298 -1.2286 -0.1888  1.8682
   50MOL0     H 6832   2.749   7.746   6.414 -0.3211  2.6403  0.6296
   50MOL0     H 6833   2.467   7.748   6.343 -0.0268  1.4339  0.0536
   50MOL0     H 6834   2.461   7.825   6.185 -0.3931 -1.2272 -0.8942
   50MOL0     H 6835   2.259   7.881   6.316 -0.4145  0.1575  0.7347
   50MOL0     H 6836   2.362   7.921   6.454  2.6608 -0.5171 -0.3607
   50MOL0     H 6837   2.413   8.123   6.350 -0.6432 -1.3369 -0.0112
   50MOL0     H 6838   2.420   8.057   6.182  0.1793  2.3079 -0.3299
   50MOL0     H 6839   2.233   8.203   6.170 -5.7712  2.4323  1.5295
   50MOL0     H 6840   2.180   8.052   6.193  0.6997 -0.6720  0.1283
   50MOL0     H 6841   2.172   8.300   6.374 -2.8070 -0.0072  0.8619
   50MOL0     H 6842   2.169   8.151   6.459 -0.6778  1.1947  1.5439
   50MOL0     H 6843   1.956   8.089   6.345 -0.6414 -0.6002  1.0628
   50MOL0     H 6844   1.954   8.253   6.428  2.9868  1.4671  0.2762
   50MOL0     H 6845   2.000   8.218   6.134  0.2576 -0.8600  1.0249
   50MOL0     H 6846   1.986   8.371   6.227 -1.8037  0.4154  1.6503
   50MOL0     H 6847   1.783   8.151   6.195  0.7442  0.1094 -1.7633
   50MOL0     H 6848   1.745   8.295   6.291  0.9109  1.2012  0.1166
   50MOL0     H 6849   1.701   8.541   6.176  0.6069 -0.8909  1.5721
   50MOL0     H 6850   1.784   8.686   5.822 -1.0972 -0.7248 -1.0027
   50MOL0     H 6851   1.735   8.731   5.990 -0.3252 -1.2657  0.7332
   50MOL0     H 6852   1.527   8.583   5.918  0.2692  0.0445  0.7540
   50MOL0     H 6853   1.526   8.760   5.930  1.1727  1.5180 -0.0969
   50MOL0     H 6854   1.596   8.746   5.679  1.3551 -0.9949  0.4906
   50MOL0     H 6855   1.552   8.568   5.683 -0.8067 -1.0041  0.4264
   50MOL0     H 6856   1.326   8.618   5.734  1.8387 -2.0734 -0.2223
   50MOL0     H 6857   1.355   8.794   5.722  0.2416  0.7281  0.5260
   50MOL0     H 6858   1.142   8.737   5.675  3.4816 -0.2290 -0.2033
   50MOL0     H 6859   0.829   8.832   5.534 -0.1352  2.1140  0.8688
   50MOL0     H 6860   0.923   8.821   5.684  2.1910 -2.0932 -0.3512
   50MOL0     H 6861   0.832   8.687   5.642 -0.2331 -0.3993  1.0855
   50MOL0     H 6862   0.718   8.825   5.126 -0.2673 -2.8055  5.3318
   50MOL0     H 6863   0.512   8.831   4.992 -0.6843 -1.0704  0.6443
   50MOL0     H 6864   0.430   8.490   4.721  2.9297 -1.5753 -3.9986
   50MOL0     H 6865   0.345   8.624   4.646  0.7255  0.2875  0.3438
   50MOL0     H 6866   0.546   8.754   4.620  0.5270  0.3706  2.7769
   50MOL0     H 6867   0.644   8.622   4.679 -1.0745 -0.4044  1.5640
   50MOL0     H 6868   0.630   8.683   4.410 -2.4986  1.9955  0.3364
   50MOL0     H 6869   0.463   8.612   4.432 -0.1946  0.7888 -0.2877
   50MOL0     H 6870   0.584   8.438   4.348  0.2837  3.1047 -1.1870
   50MOL0     H 6871   0.567   8.393   4.505  0.8277 -1.6492 -0.9861
   50MOL0     H 6872   0.823   8.531   4.396  0.1290  1.0499  1.4538
   50MOL0     H 6873   0.803   8.445   4.551 -0.9534  1.1434  0.5288
   50MOL0     H 6874   0.756   8.259   4.300 -0.1439 -1.5549  0.6323
   50MOL0     H 6875   0.781   8.219   4.464 -0.6286  0.4502 -0.8850
   50MOL0     H 6876   1.012   8.336   4.439  0.6504  0.8263 -1.1589
   50MOL0     H 6877   0.971   8.370   4.275 -1.1543  2.6250  0.9774
   50MOL0     H 6878   0.985   8.082   4.393 -3.5517 -0.6764 -1.0002
   50MOL0     H 6879   1.106   8.158   4.297  0.5562  2.0023  2.9253
   50MOL0     H 6880   0.597   8.435   4.855  0.1279 -0.6295 -0.2343
   50MOL0     H 6881   0.796   8.416   5.013 -0.7199 -1.4554  1.3040
   50MOL0     H 6882   1.110   8.645   5.186  1.1261 -1.0421 -0.9953
   50MOL0     H 6883   1.313   8.673   5.280 -3.2345  3.1688 -3.2958
   50MOL0     H 6884   2.665   8.005   6.077 -1.8453 -0.2532  0.8133
   50MOL0     H 6885   2.861   7.903   5.954 -2.8365  0.0119  0.6070
   50MOL0     H 6886   3.127   7.750   5.805 -3.0355 -2.0747 -1.5013
   50MOL0     H 6887   3.256   7.691   5.614  1.6850  0.0550  0.3120
   50MOL0     H 6888   3.525   7.326   5.654 -1.1556 -0.9877  0.4484
   50MOL0     H 6889   3.379   7.284   5.562 -2.3640  2.8808  1.1518
   50MOL0     H 6890   3.459   7.392   5.365  1.3437  3.7433 -0.7387
   50MOL0     H 6891   3.536   7.240   5.415 -1.9192 -0.4552 -0.8328
   50MOL0     H 6892   3.615   7.543   5.425 -2.8674 -0.9875 -1.1663
   50MOL0     H 6893   3.711   7.423   5.510  0.4192  7.0793  0.9253
   50MOL0     H 6894   3.704   7.449   5.199  1.0324  0.0393 -1.4030
   50MOL0     H 6895   3.772   7.317   5.285  0.2795  0.0797 -1.8598
   50MOL0     H 6896   4.076   7.610   5.323 -2.0345  3.3495 -2.9589
   50MOL0     H 6897   3.416   7.353   5.848  1.1486  1.6231  2.6654
   50MOL0     H 6898   3.347   7.438   6.149 -1.2175 -0.4884  0.7129
   50MOL0     H 6899   3.183   7.391   6.095 -1.0340 -3.5277  0.1933
   50MOL0     H 6900   3.329   7.293   6.053  2.4349  0.7775  1.5671
   51MOL0     O 6901   9.341   0.460   8.546  0.1047  0.4744 -0.1556
   51MOL0     C 6902   9.226   0.483   8.573  0.8723 -0.8938  0.0118
   51MOL0     O 6903   9.125   0.502   8.481  0.3642  0.6730 -0.6148
   51MOL0     C 6904   9.150   0.547   8.348  0.2151  0.7466 -0.3244
   51MOL0     C 6905   9.265   0.615   8.304  0.1772  0.1550 -0.2890
   51MOL0     C 6906   9.280   0.649   8.165  0.2589 -0.1413 -0.7037
   51MOL0     C 6907   9.177   0.621   8.074 -0.6128 -0.5450  0.4987
   51MOL0     O 6908   9.196   0.646   7.943 -0.2752  0.4994 -0.1971
   51MOL0     C 6909   9.099   0.608   7.842 -0.7283  0.7345  0.2561
   51MOL0     C 6910   9.184   0.599   7.712  0.6755 -0.7655  0.6614
   51MOL0     C 6911   9.116   0.624   7.584 -0.2021  0.0642 -0.1486
   51MOL0     C 6912   9.146   0.763   7.519 -0.3477  0.3353  0.1795
   51MOL0     C 6913   9.080   0.761   7.380 -0.4173 -1.0619 -0.1308
   51MOL0     C 6914   9.093   0.884   7.303 -0.6431 -0.0721  0.8463
   51MOL0     C 6915   9.018   1.002   7.367 -0.1904  0.3194 -0.7179
   51MOL0     C 6916   9.046   1.131   7.300 -0.8336 -0.0900 -0.1822
   51MOL0     N 6917   9.019   1.249   7.388 -0.0669 -0.6146  0.1168
   51MOL0     C 6918   8.908   1.326   7.391 -0.4861 -0.1663 -0.4545
   51MOL0     C 6919   8.912   1.406   7.501 -0.5066 -1.1689  0.8093
   51MOL0     C 6920   8.816   1.522   7.531 -0.1502 -0.4633 -0.6979
   51MOL0     C 6921   8.884   1.661   7.505 -0.9182 -0.4568  0.4863
   51MOL0     C 6922   8.794   1.786   7.519 -0.0244  0.4367 -0.0288
   51MOL0     C 6923   8.840   1.901   7.432  0.1824 -0.3168 -0.1488
   51MOL0     O 6924   8.987   1.908   7.437  0.1094 -0.4505 -0.4071
   51MOL0     C 6925   9.059   1.956   7.326  0.3623  0.3323  0.2237
   51MOL0     C 6926   9.192   1.928   7.313 -0.1464 -1.1448 -0.6547
   51MOL0     C 6927   9.266   1.971   7.200 -0.1561 -0.0805 -0.1281
   51MOL0     C 6928   9.413   1.946   7.209 -0.6175  0.2677  0.2701
   51MOL0     C 6929   9.208   2.039   7.092  0.4179  0.2146 -1.0592
   51MOL0     C 6930   9.278   2.088   6.958 -0.6953  0.6568  0.1046
   51MOL0     O 6931   9.226   2.206   6.908 -0.9411 -0.1226 -0.4656
   51MOL0     C 6932   9.280   2.248   6.786  0.3074  0.7644 -1.1148
   51MOL0     C 6933   9.283   2.159   6.674 -0.0918  0.0196 -0.2667
   51MOL0     C 6934   9.320   2.208   6.551  0.7008  1.5834 -0.3365
   51MOL0     C 6935   9.369   2.333   6.540  0.9419 -0.8463 -0.6229
   51MOL0     O 6936   9.432   2.358   6.423 -1.7042 -0.4826  0.5995
   51MOL0     C 6937   9.551   2.442   6.432  0.6666  0.5820 -0.0482
   51MOL0     C 6938   9.643   2.440   6.306  0.7623 -0.0826  0.3054
   51MOL0     C 6939   9.548   2.488   6.199 -0.0550 -0.2133  0.3819
   51MOL0     C 6940   9.622   2.553   6.078  0.3093 -0.0584 -0.0702
   51MOL0     C 6941   9.718   2.667   6.129  0.3003 -0.1121 -0.6444
   51MOL0     C 6942   9.775   2.760   6.017  0.1150  0.8936 -0.0514
   51MOL0     C 6943   9.888   2.844   6.078  0.1698  0.1230 -0.5680
   51MOL0     C 6944   9.934   2.947   5.976  0.3526 -0.3774  0.1787
   51MOL0    Cl 6945  10.071   3.036   6.046  0.2179 -0.1383  0.2717
   51MOL0     C 6946   9.367   2.417   6.645 -0.1158 -1.4256  0.4366
   51MOL0     C 6947   9.320   2.380   6.763  0.3030  0.1762 -0.2346
   51MOL0     O 6948   9.378   2.032   6.920 -0.1622  0.1463  0.6834
   51MOL0     C 6949   9.063   2.061   7.115 -1.2997 -0.5160  1.2109
   51MOL0     C 6950   8.990   2.027   7.223 -0.4284  1.0459  0.2038
   51MOL0     N 6951   9.033   1.381   7.566 -0.0479  0.4204  0.2098
   51MOL0     N 6952   9.097   1.292   7.498  0.2529  0.2740 -0.2218
   51MOL0     C 6953   9.059   0.566   8.129  0.3704 -0.5144  0.2654
   51MOL0     C 6954   9.044   0.537   8.262 -0.8874 -0.8769  0.1627
   51MOL0     C 6955   9.201   0.517   8.720 -0.6004  0.6877  0.6006
   51MOL0     C 6956   9.267   0.431   8.817 -0.4543 -0.9328  0.1011
   51MOL0     C 6957   9.241   0.450   8.953 -0.2214 -0.5969  0.8793
   51MOL0     C 6958   9.159   0.548   8.995  0.3340  0.7204  0.1088
   51MOL0     O 6959   9.134   0.586   9.123  0.1494 -0.8677  0.5748
   51MOL0     C 6960   9.190   0.501   9.222  0.3293 -0.7373 -0.5446
   51MOL0     C 6961   9.129   0.558   9.353 -0.2740 -0.0919  0.4157
   51MOL0     C 6962   9.235   0.572   9.468  0.0165  0.3336 -0.0030
   51MOL0     C 6963   9.160   0.630   9.583  0.1952 -0.3211 -0.0767
   51MOL0     C 6964   9.250   0.663   9.697 -0.2578  0.0493 -0.0022
   51MOL0     C 6965   9.322   0.685   9.790  0.4657  0.6578  0.7715
   51MOL0     C 6966   9.098   0.637   8.903 -0.1982 -1.0459  0.3551
   51MOL0     C 6967   9.123   0.625   8.763  0.4978 -0.1942 -0.5300
   51MOL0     C 6968   9.046   0.721   8.668 -0.4794 -0.1346  0.0033
   51MOL0     H 6969   9.352   0.648   8.359  1.4239  1.3248 -2.8005
   51MOL0     H 6970   9.376   0.694   8.140  0.5779  0.7286  1.8012
   51MOL0     H 6971   9.009   0.671   7.835 -2.5662 -1.6999  0.6389
   51MOL0     H 6972   9.059   0.509   7.863  2.6338 -0.2720  2.6136
   51MOL0     H 6973   9.268   0.666   7.732 -0.4708  0.2803  2.2914
   51MOL0     H 6974   9.232   0.501   7.714 -0.9769 -1.6238  0.2734
   51MOL0     H 6975   9.141   0.555   7.504 -1.3343  0.7262 -1.1009
   51MOL0     H 6976   9.010   0.619   7.609 -0.4098 -0.9646 -1.2087
   51MOL0     H 6977   9.100   0.846   7.574 -2.0144  0.7575 -1.7265
   51MOL0     H 6978   9.251   0.788   7.499 -0.4762  0.9312  0.2321
   51MOL0     H 6979   8.973   0.752   7.398 -0.4983 -2.6424 -1.1675
   51MOL0     H 6980   9.109   0.672   7.323 -3.0807 -1.2064 -1.4143
   51MOL0     H 6981   9.200   0.906   7.308 -0.0990 -2.2842  0.0333
   51MOL0     H 6982   9.062   0.872   7.199  1.6448 -1.3544  0.2476
   51MOL0     H 6983   9.029   1.017   7.475  0.9189  0.1524 -0.7946
   51MOL0     H 6984   8.913   0.972   7.364 -0.2497  0.1723  1.4580
   51MOL0     H 6985   9.154   1.126   7.286 -0.0872 -1.9476  4.4897
   51MOL0     H 6986   9.005   1.142   7.199 -2.1067  0.5902  0.3939
   51MOL0     H 6987   8.833   1.323   7.312  0.5764 -0.1380 -1.5085
   51MOL0     H 6988   8.801   1.519   7.639 -0.1450 -2.0848 -0.7159
   51MOL0     H 6989   8.718   1.510   7.484 -0.3819  0.6092 -0.5063
   51MOL0     H 6990   8.966   1.673   7.576 -1.0313 -1.5952  0.8283
   51MOL0     H 6991   8.935   1.654   7.409  3.1283  2.2103  2.1837
   51MOL0     H 6992   8.696   1.749   7.486  0.2423 -0.5978  0.2914
   51MOL0     H 6993   8.799   1.836   7.617  1.9023  0.2487  0.0031
   51MOL0     H 6994   8.784   1.887   7.339 -5.7286  0.8762  2.7160
   51MOL0     H 6995   8.799   1.995   7.473  1.0011  1.0218 -2.2520
   51MOL0     H 6996   9.238   1.873   7.395  1.0298  1.2675  0.3746
   51MOL0     H 6997   9.441   1.863   7.144 -0.9395  1.2873 -1.2378
   51MOL0     H 6998   9.454   1.917   7.306 -1.1337 -1.6661 -0.0686
   51MOL0     H 6999   9.476   2.031   7.179 -0.8973 -0.0952 -1.4864
   51MOL0     H 7000   9.262   2.052   6.676  2.1253 -0.4880 -1.0970
   51MOL0     H 7001   9.312   2.146   6.463 -1.7584  0.0716  0.8402
   51MOL0     H 7002   9.530   2.545   6.461 -0.6640  0.0279  1.0815
   51MOL0     H 7003   9.611   2.409   6.518  2.2213  1.4311 -0.7712
   51MOL0     H 7004   9.723   2.513   6.323  1.6503 -0.7692 -0.8525
   51MOL0     H 7005   9.669   2.337   6.282 -1.1645 -0.2585 -1.2982
   51MOL0     H 7006   9.473   2.553   6.246 -2.4953 -3.0821  0.8094
   51MOL0     H 7007   9.489   2.406   6.156  0.7558 -0.1722 -0.8603
   51MOL0     H 7008   9.547   2.587   6.006  1.1938  0.4715 -0.7751
   51MOL0     H 7009   9.679   2.475   6.026 -0.1498 -0.3109 -0.1979
   51MOL0     H 7010   9.658   2.732   6.194  1.0688  0.8080 -0.8353
   51MOL0     H 7011   9.802   2.627   6.186  0.9597 -1.2713 -2.3358
   51MOL0     H 7012   9.690   2.809   5.968  1.1352  1.1365 -1.6488
   51MOL0     H 7013   9.827   2.707   5.936  1.0796  1.7638 -0.0256
   51MOL0     H 7014   9.968   2.774   6.106  1.4552  2.3612  1.7744
   51MOL0     H 7015   9.849   2.888   6.170 -3.0577 -3.0609 -0.1634
   51MOL0     H 7016   9.855   3.022   5.962  1.6819  0.7339 -1.7986
   51MOL0     H 7017   9.964   2.894   5.885 -1.2259 -0.5746 -0.2721
   51MOL0     H 7018   9.396   2.520   6.625 -0.5859 -1.6351 -1.5126
   51MOL0     H 7019   9.299   2.457   6.836  3.0632  2.3617 -1.5350
   51MOL0     H 7020   9.018   2.129   7.043  0.7467 -1.2828 -0.9401
   51MOL0     H 7021   8.883   2.048   7.229  0.2791  5.3612  1.9882
   51MOL0     H 7022   8.973   0.558   8.063 -0.3145  0.7766  0.9711
   51MOL0     H 7023   8.957   0.492   8.308  1.4171 -1.7253  4.2293
   51MOL0     H 7024   9.337   0.355   8.785  0.0679 -0.8147  0.9291
   51MOL0     H 7025   9.296   0.390   9.025 -0.6725 -2.0993  0.0079
   51MOL0     H 7026   9.157   0.398   9.207 -2.3577  0.0540 -0.4918
   51MOL0     H 7027   9.299   0.507   9.214  0.3531  2.3880  0.8776
   51MOL0     H 7028   9.059   0.482   9.389 -0.6613  0.0815  0.0454
   51MOL0     H 7029   9.077   0.653   9.341  1.2817  0.8332  0.6420
   51MOL0     H 7030   9.291   0.480   9.486  2.0057  1.3913 -0.5383
   51MOL0     H 7031   9.310   0.646   9.439  2.5881 -1.6125  1.3519
   51MOL0     H 7032   9.082   0.560   9.614  1.2169 -2.0839 -1.3013
   51MOL0     H 7033   9.117   0.725   9.551  0.8729 -0.8894 -2.9192
   51MOL0     H 7034   9.381   0.695   9.879  0.9967 -0.2777  0.5460
   51MOL0     H 7035   9.024   0.711   8.932 -1.7128 -2.6773  0.7719
   51MOL0     H 7036   9.113   0.752   8.588 -4.3132  0.3786 -3.3327
   51MOL0     H 7037   8.954   0.682   8.623  0.4407 -0.8390 -1.3098
   51MOL0     H 7038   9.007   0.811   8.717 -2.8433 -1.3358  0.4816
   52MOL0     O 7039   1.525   4.458   7.166 -0.0615 -0.0947 -0.2749
   52MOL0     C 7040   1.534   4.347   7.224 -0.0128 -0.6424 -0.4685
   52MOL0     O 7041   1.470   4.230   7.187  0.8021 -0.1971 -0.2742
   52MOL0     C 7042   1.359   4.234   7.105  0.5932 -0.8839 -0.5980
   52MOL0     C 7043   1.354   4.148   6.998  1.3697  1.1767  0.1981
   52MOL0     C 7044   1.266   4.168   6.899  0.8553  0.8448 -0.2784
   52MOL0     C 7045   1.168   4.264   6.908  0.1428  0.0847 -0.4858
   52MOL0     O 7046   1.073   4.290   6.810 -0.2712  0.5958  0.0539
   52MOL0     C 7047   1.101   4.275   6.669 -0.1315 -0.0228 -0.0195
   52MOL0     C 7048   0.983   4.305   6.575  0.3195  0.6849 -0.6765
   52MOL0     C 7049   1.007   4.294   6.422  0.2755  0.0637  1.3584
   52MOL0     C 7050   0.894   4.347   6.329  0.6798 -0.2779  0.3349
   52MOL0     C 7051   0.873   4.498   6.337  0.1657 -0.6467  0.6401
   52MOL0     C 7052   0.761   4.543   6.236  0.3144  0.1424  0.1315
   52MOL0     C 7053   0.708   4.685   6.262  0.2810  0.5866  0.7410
   52MOL0     C 7054   0.658   4.765   6.131  0.3889 -0.8143 -0.0994
   52MOL0     N 7055   0.755   4.750   6.025  0.1710 -0.3355  0.0855
   52MOL0     C 7056   0.865   4.817   6.010 -0.2719 -0.5510 -0.2563
   52MOL0     C 7057   0.945   4.760   5.909 -0.5228 -0.6863 -0.5964
   52MOL0     C 7058   1.095   4.786   5.888  0.1748  0.3067 -0.1105
   52MOL0     C 7059   1.174   4.666   5.946  0.9775  0.4179 -0.3702
   52MOL0     C 7060   1.329   4.674   5.932  0.1619 -0.8918 -0.3177
   52MOL0     C 7061   1.385   4.763   5.824  0.5062  0.4575 -0.3075
   52MOL0     O 7062   1.341   4.723   5.690 -1.2452 -0.1597  0.4201
   52MOL0     C 7063   1.382   4.599   5.656 -0.3943  0.4026  0.9399
   52MOL0     C 7064   1.286   4.517   5.590 -0.5050 -0.2644 -0.4202
   52MOL0     C 7065   1.305   4.388   5.548  0.0168 -0.1323  0.4657
   52MOL0     C 7066   1.185   4.325   5.481 -0.9800 -0.4757 -0.8870
   52MOL0     C 7067   1.433   4.330   5.562  0.0912 -0.4053 -0.4871
   52MOL0     C 7068   1.466   4.197   5.512 -0.3132  0.5602 -0.2794
   52MOL0     O 7069   1.403   4.146   5.407  0.0268  0.3011  0.9221
   52MOL0     C 7070   1.466   4.046   5.323  0.3024  0.1975  0.7998
   52MOL0     C 7071   1.381   3.948   5.284  0.5437  1.4117 -0.1176
   52MOL0     C 7072   1.426   3.830   5.214 -0.9665 -0.3451 -0.2244
   52MOL0     C 7073   1.571   3.817   5.188 -0.2794  0.5893  0.5536
   52MOL0     O 7074   1.630   3.712   5.114  0.0194  0.3611 -0.5966
   52MOL0     C 7075   1.694   3.617   5.203 -0.0449 -0.4034  1.1436
   52MOL0     C 7076   1.756   3.514   5.100  0.7712  0.0126 -0.9976
   52MOL0     C 7077   1.848   3.415   5.182 -0.0755  0.8908  0.2615
   52MOL0     C 7078   1.900   3.315   5.080  0.5137  0.2108  0.3111
   52MOL0     C 7079   2.004   3.217   5.141 -0.3790 -0.6465  0.6560
   52MOL0     C 7080   1.957   3.109   5.248 -0.8759 -0.5486  0.0413
   52MOL0     C 7081   2.071   3.012   5.280 -0.8339  0.0790  0.1201
   52MOL0     C 7082   2.050   2.947   5.424  0.2924  0.4101 -0.0425
   52MOL0    Cl 7083   2.209   2.869   5.479  0.1432 -0.2586 -0.1113
   52MOL0     C 7084   1.660   3.916   5.236 -0.1347 -0.5283  0.4282
   52MOL0     C 7085   1.609   4.037   5.294  0.3089  0.5014 -1.0485
   52MOL0     O 7086   1.575   4.150   5.551 -0.0606  0.1056  0.1685
   52MOL0     C 7087   1.527   4.401   5.644  1.0016  0.6399 -0.3517
   52MOL0     C 7088   1.501   4.533   5.694  0.0727  0.0228  0.5150
   52MOL0     N 7089   0.864   4.652   5.867  0.5924 -0.4020 -0.1679
   52MOL0     N 7090   0.754   4.651   5.931 -0.3071  0.1136  0.3071
   52MOL0     C 7091   1.158   4.342   7.020  0.3385 -0.4387  0.6471
   52MOL0     C 7092   1.260   4.333   7.122  0.7233 -0.2247  0.4073
   52MOL0     C 7093   1.653   4.334   7.308  0.9654 -0.4440  0.7688
   52MOL0     C 7094   1.772   4.357   7.253  0.2300  0.2237  0.6365
   52MOL0     C 7095   1.893   4.348   7.327  0.1616 -0.3863 -1.0762
   52MOL0     C 7096   1.893   4.314   7.467  0.8686  0.7417  0.3330
   52MOL0     O 7097   2.013   4.326   7.532  0.3378 -0.2329 -0.3509
   52MOL0     C 7098   2.013   4.309   7.678 -0.0907  0.0785  0.2343
   52MOL0     C 7099   2.150   4.344   7.737 -0.2291 -0.7922  0.2560
   52MOL0     C 7100   2.150   4.316   7.892 -0.0481  0.3023  0.1028
   52MOL0     C 7101   2.261   4.382   7.962 -0.8259  0.0130  0.3118
   52MOL0     C 7102   2.380   4.310   7.939 -0.4629  0.0230 -0.2358
   52MOL0     C 7103   2.488   4.260   7.916 -0.1836  0.8446 -0.6554
   52MOL0     C 7104   1.767   4.278   7.512  0.3560 -0.0394 -1.0858
   52MOL0     C 7105   1.648   4.273   7.442  0.0834  0.1315  0.1405
   52MOL0     C 7106   1.521   4.252   7.521  0.6093  0.8455 -0.3214
   52MOL0     H 7107   1.424   4.066   6.988 -0.1209 -0.0876 -0.3773
   52MOL0     H 7108   1.260   4.099   6.815  0.2918  0.9565 -0.3362
   52MOL0     H 7109   1.122   4.168   6.666 -4.4732 -1.1862  2.0155
   52MOL0     H 7110   1.184   4.342   6.647 -1.2445  1.9518  1.4364
   52MOL0     H 7111   0.895   4.244   6.600  0.1492  1.5278  0.8903
   52MOL0     H 7112   0.958   4.410   6.594  3.1609  0.9555  2.4037
   52MOL0     H 7113   1.088   4.359   6.388 -1.6743  0.9268 -2.1784
   52MOL0     H 7114   1.022   4.186   6.407  2.9441  0.3413  1.5668
   52MOL0     H 7115   0.907   4.314   6.226 -2.4043  1.0147 -0.5733
   52MOL0     H 7116   0.797   4.301   6.350  0.3450  0.1078 -0.3329
   52MOL0     H 7117   0.961   4.554   6.304  0.7293 -2.0946 -0.4368
   52MOL0     H 7118   0.847   4.532   6.438  3.5631  0.8114  1.1448
   52MOL0     H 7119   0.792   4.524   6.133  1.1588 -0.3853  0.4706
   52MOL0     H 7120   0.673   4.481   6.252  0.8483 -0.8104 -0.5584
   52MOL0     H 7121   0.794   4.735   6.308  0.4612  0.9116  0.0604
   52MOL0     H 7122   0.626   4.686   6.334 -0.1094  0.2214  0.3096
   52MOL0     H 7123   0.561   4.736   6.089 -0.6550  0.4434  1.3349
   52MOL0     H 7124   0.643   4.869   6.161 -2.4546 -0.4011 -2.4628
   52MOL0     H 7125   0.904   4.893   6.078 -0.2534 -2.1725  1.6493
   52MOL0     H 7126   1.129   4.884   5.923  1.0868 -0.9729  2.8874
   52MOL0     H 7127   1.114   4.778   5.780 -2.8872  0.3613 -0.7338
   52MOL0     H 7128   1.158   4.652   6.053 -0.0419 -2.2802 -0.8011
   52MOL0     H 7129   1.134   4.578   5.895  0.6546  0.9040 -0.9678
   52MOL0     H 7130   1.360   4.733   6.019 -1.3066  0.9163 -0.9489
   52MOL0     H 7131   1.371   4.573   5.937  1.7065 -0.2582  0.4135
   52MOL0     H 7132   1.348   4.865   5.839 -0.1929  0.1987 -0.2341
   52MOL0     H 7133   1.492   4.766   5.847  0.6779 -1.9232 -0.4698
   52MOL0     H 7134   1.195   4.577   5.583 -0.8333 -0.3585  2.2320
   52MOL0     H 7135   1.178   4.216   5.479  0.6001 -0.7168  1.6493
   52MOL0     H 7136   1.187   4.355   5.376 -1.0196  3.0726  0.0064
   52MOL0     H 7137   1.096   4.357   5.536  1.6098  3.1943  1.6192
   52MOL0     H 7138   1.283   3.953   5.331  1.6132 -3.5891  3.5721
   52MOL0     H 7139   1.364   3.743   5.196 -0.4442 -0.9869  0.9738
   52MOL0     H 7140   1.777   3.660   5.259  0.7091  0.6212 -0.6749
   52MOL0     H 7141   1.623   3.573   5.274 -1.6187  1.4800  0.8109
   52MOL0     H 7142   1.679   3.463   5.043 -0.5360  0.9523 -0.1250
   52MOL0     H 7143   1.825   3.566   5.032  1.5877  0.5503  0.1908
   52MOL0     H 7144   1.800   3.368   5.269 -2.3891  1.8611 -0.4099
   52MOL0     H 7145   1.937   3.469   5.217  1.4212 -1.8297  0.9661
   52MOL0     H 7146   1.951   3.364   4.996  0.3123  0.4622  0.3347
   52MOL0     H 7147   1.813   3.259   5.044  0.7591 -1.4002  2.0411
   52MOL0     H 7148   2.044   3.155   5.059  4.0241  2.7771 -0.1833
   52MOL0     H 7149   2.092   3.274   5.173 -0.7704 -0.9208  2.3147
   52MOL0     H 7150   1.869   3.053   5.214 -1.3280  0.8904 -1.2901
   52MOL0     H 7151   1.935   3.173   5.334  1.9541 -1.4239  1.5313
   52MOL0     H 7152   2.164   3.069   5.284  0.1364 -1.1901 -2.1021
   52MOL0     H 7153   2.070   2.937   5.200  2.7401  0.5700 -0.5634
   52MOL0     H 7154   1.969   2.875   5.408  2.2623 -1.6711 -1.2760
   52MOL0     H 7155   2.021   3.018   5.502 -1.2132 -0.4063  0.1852
   52MOL0     H 7156   1.765   3.911   5.207 -0.3979 -0.7601 -0.5071
   52MOL0     H 7157   1.676   4.109   5.338 -0.2651  0.0210  0.6939
   52MOL0     H 7158   1.614   4.350   5.682 -1.2863 -1.9774  1.7957
   52MOL0     H 7159   1.579   4.587   5.746 -0.6165  2.3008 -0.6997
   52MOL0     H 7160   1.068   4.403   7.026  0.9141  0.6087 -0.6857
   52MOL0     H 7161   1.262   4.402   7.205 -2.4202  0.9452 -0.3235
   52MOL0     H 7162   1.775   4.392   7.151  1.3476 -1.0275  0.2077
   52MOL0     H 7163   1.994   4.345   7.290  0.9516  1.8112  0.6810
   52MOL0     H 7164   1.926   4.357   7.723  0.6905 -0.5618  2.5647
   52MOL0     H 7165   1.987   4.203   7.686 -2.6721  0.6040 -0.1606
   52MOL0     H 7166   2.181   4.447   7.719 -0.9474 -0.7816 -1.1056
   52MOL0     H 7167   2.233   4.289   7.692 -0.6606 -0.4594 -0.9897
   52MOL0     H 7168   2.053   4.355   7.923  0.0562  0.1802  0.5921
   52MOL0     H 7169   2.147   4.209   7.915 -0.5987  0.3044  0.0509
   52MOL0     H 7170   2.239   4.391   8.069 -2.8171 -2.4041  0.2165
   52MOL0     H 7171   2.277   4.484   7.927  1.3724  0.1534  1.5332
   52MOL0     H 7172   2.586   4.218   7.906 -1.2068 -1.4960 -1.4359
   52MOL0     H 7173   1.751   4.258   7.617 -2.6998 -0.9736 -1.6302
   52MOL0     H 7174   1.533   4.179   7.602 -4.7779  1.2989  1.2254
   52MOL0     H 7175   1.487   4.346   7.564 -2.9955 -1.2975  2.0405
   52MOL0     H 7176   1.435   4.210   7.468 -0.4308 -0.5680  2.3329
   53MOL0     O 7177  11.096   3.366   7.642 -0.1520  0.3610 -0.0922
   53MOL0     C 7178  11.093   3.487   7.648 -0.1673  0.0277  0.0430
   53MOL0     O 7179  11.175   3.567   7.570 -0.0322 -0.1130  0.5408
   53MOL0     C 7180  11.259   3.506   7.480  0.4446  0.6079  0.4346
   53MOL0     C 7181  11.191   3.456   7.373  0.8232  0.2778 -0.1802
   53MOL0     C 7182  11.259   3.413   7.252 -0.0909  0.1270  0.2025
   53MOL0     C 7183  11.402   3.395   7.254  1.2586 -1.0470 -0.4372
   53MOL0     O 7184  11.476   3.336   7.154 -0.2566  0.8714 -0.3291
   53MOL0     C 7185  11.409   3.232   7.077 -0.3071  0.1466 -0.2241
   53MOL0     C 7186  11.510   3.133   7.014 -0.0147  0.9372 -0.5541
   53MOL0     C 7187  11.420   3.022   6.952 -0.3223 -0.8681  0.0099
   53MOL0     C 7188  11.485   2.889   6.904 -0.2855 -0.0718 -0.4561
   53MOL0     C 7189  11.373   2.810   6.825 -0.9400 -1.0473 -0.0447
   53MOL0     C 7190  11.430   2.666   6.787 -1.2521 -1.2827  0.8757
   53MOL0     C 7191  11.336   2.570   6.714  0.2500  0.5154  0.5766
   53MOL0     C 7192  11.392   2.428   6.696 -0.4637  0.1882  1.1123
   53MOL0     N 7193  11.429   2.409   6.554 -0.4779  0.5949 -0.4666
   53MOL0     C 7194  11.543   2.454   6.493  0.5578  0.0643 -0.3098
   53MOL0     C 7195  11.542   2.413   6.367  0.5384  0.2681 -0.6688
   53MOL0     C 7196  11.645   2.415   6.263  0.1026  0.1863 -0.3049
   53MOL0     C 7197  11.591   2.488   6.133  0.1851  0.0405 -0.0955
   53MOL0     C 7198  11.704   2.489   6.032  0.5540 -0.0297 -1.1452
   53MOL0     C 7199  11.685   2.590   5.926 -0.8418 -0.1847 -0.3825
   53MOL0     O 7200  11.586   2.551   5.824  0.1984 -0.1645 -0.2736
   53MOL0     C 7201  11.612   2.472   5.711 -0.5630 -0.1456  0.4711
   53MOL0     C 7202  11.507   2.437   5.621 -0.6123  0.4826 -0.1871
   53MOL0     C 7203  11.525   2.353   5.508  1.1788  0.4329  0.3599
   53MOL0     C 7204  11.401   2.301   5.435  0.6788 -0.3302  0.0836
   53MOL0     C 7205  11.654   2.312   5.480 -1.1170  0.9380 -0.7022
   53MOL0     C 7206  11.685   2.216   5.363  0.0452  1.5386 -1.1852
   53MOL0     O 7207  11.595   2.118   5.319  0.0314 -0.4803  0.3038
   53MOL0     C 7208  11.630   2.026   5.221  0.4182  0.3619 -0.9339
   53MOL0     C 7209  11.637   2.052   5.084  0.3058  0.6443  0.1058
   53MOL0     C 7210  11.692   1.963   4.994 -1.1687  0.6045  0.4543
   53MOL0     C 7211  11.729   1.831   5.032 -0.5957 -0.1060  0.2628
   53MOL0     O 7212  11.773   1.738   4.948  0.2905  0.9885  0.6196
   53MOL0     C 7213  11.814   1.612   4.992  0.0360 -0.2162 -0.6282
   53MOL0     C 7214  11.877   1.547   4.874 -0.7937 -0.1927 -0.5134
   53MOL0     C 7215  11.909   1.398   4.897  0.3884  0.6374 -0.4757
   53MOL0     C 7216  11.877   1.306   4.773 -0.4623  0.6880  0.3063
   53MOL0     C 7217  11.873   1.165   4.813  0.9268  0.5139  0.2061
   53MOL0     C 7218  11.808   1.079   4.702  0.7487 -0.0773 -0.0360
   53MOL0     C 7219  11.826   0.929   4.729 -0.1465 -0.8619  0.7408
   53MOL0     C 7220  11.829   0.869   4.578 -0.0015  0.0167  0.0287
   53MOL0    Cl 7221  11.684   0.899   4.493 -0.0530  0.0345 -0.2669
   53MOL0     C 7222  11.716   1.805   5.167 -0.1084 -0.5959 -1.3483
   53MOL0     C 7223  11.678   1.902   5.259  0.7989 -0.4321 -0.3626
   53MOL0     O 7224  11.802   2.226   5.320 -0.5422 -0.0816  0.1872
   53MOL0     C 7225  11.766   2.361   5.554  0.6858 -0.1321 -0.6746
   53MOL0     C 7226  11.744   2.439   5.666  0.2099 -0.8577  0.6733
   53MOL0     N 7227  11.418   2.342   6.348 -0.2936 -1.4865 -1.1096
   53MOL0     N 7228  11.359   2.340   6.462  0.5374  0.2872  0.0733
   53MOL0     C 7229  11.461   3.423   7.381  0.3512 -0.7873  0.2946
   53MOL0     C 7230  11.397   3.482   7.495 -0.1873  0.1378  0.2907
   53MOL0     C 7231  11.011   3.560   7.755 -0.4888 -0.1893 -0.3961
   53MOL0     C 7232  11.039   3.696   7.786  0.5460 -0.1797 -0.9275
   53MOL0     C 7233  10.973   3.754   7.892  0.6773  1.1414  0.7673
   53MOL0     C 7234  10.882   3.689   7.969  0.4955 -1.0382 -0.0415
   53MOL0     O 7235  10.816   3.763   8.072 -0.2807  0.8678  0.4346
   53MOL0     C 7236  10.688   3.722   8.117 -0.2330 -0.4261  0.5161
   53MOL0     C 7237  10.571   3.722   8.015 -0.7987 -0.4694  0.3677
   53MOL0     C 7238  10.435   3.664   8.069 -0.0659 -0.2256 -0.6069
   53MOL0     C 7239  10.376   3.737   8.187  0.0731  0.5469  1.0920
   53MOL0     C 7240  10.229   3.724   8.201  0.2181  0.5118 -0.1279
   53MOL0     C 7241  10.110   3.702   8.212  0.7957  0.6782  0.2499
   53MOL0     C 7242  10.854   3.558   7.941 -0.0034 -0.2806  0.5139
   53MOL0     C 7243  10.914   3.494   7.832 -0.3624 -0.2607  0.2901
   53MOL0     C 7244  10.850   3.363   7.794  0.4834  0.1783 -0.7739
   53MOL0     H 7245  11.084   3.458   7.360  0.8346  1.9785 -0.2463
   53MOL0     H 7246  11.202   3.365   7.172  1.2855 -1.3052  0.0163
   53MOL0     H 7247  11.358   3.268   6.987  0.0561 -1.3387 -1.0522
   53MOL0     H 7248  11.334   3.175   7.131  0.7061 -0.2901  0.7599
   53MOL0     H 7249  11.573   3.177   6.936 -0.3171  0.3470 -1.1393
   53MOL0     H 7250  11.584   3.103   7.089 -0.4790 -1.4417 -0.9693
   53MOL0     H 7251  11.345   2.992   7.026  1.1835 -2.9657  0.7843
   53MOL0     H 7252  11.378   3.061   6.859  0.2805 -0.7693 -0.2254
   53MOL0     H 7253  11.575   2.906   6.844  1.3805 -0.9025  1.6740
   53MOL0     H 7254  11.529   2.829   6.984 -0.5448  1.6855  1.0808
   53MOL0     H 7255  11.351   2.861   6.731  0.3431 -1.5560 -0.6549
   53MOL0     H 7256  11.289   2.795   6.893  2.4259 -0.9590  4.6004
   53MOL0     H 7257  11.529   2.656   6.743 -2.0553  1.5467 -1.9900
   53MOL0     H 7258  11.452   2.624   6.885  0.2813  2.5329  2.3523
   53MOL0     H 7259  11.304   2.620   6.622 -0.7182  1.1282  1.2356
   53MOL0     H 7260  11.241   2.552   6.765 -0.2153 -0.2409 -0.5059
   53MOL0     H 7261  11.485   2.406   6.749  0.0406 -1.2078 -0.2684
   53MOL0     H 7262  11.328   2.345   6.729  1.9888 -2.1054  0.4810
   53MOL0     H 7263  11.631   2.502   6.536  0.3955 -1.1384  1.4760
   53MOL0     H 7264  11.676   2.313   6.239 -1.6227 -0.7373  1.0993
   53MOL0     H 7265  11.736   2.461   6.301 -0.4226  0.5568  0.5445
   53MOL0     H 7266  11.506   2.445   6.080 -0.8312  3.9033 -2.0203
   53MOL0     H 7267  11.557   2.588   6.163 -1.3697 -0.2464 -0.8096
   53MOL0     H 7268  11.793   2.525   6.083 -0.6506  0.5554  0.6589
   53MOL0     H 7269  11.709   2.389   5.987  1.7569 -1.6586  2.2506
   53MOL0     H 7270  11.658   2.682   5.978  2.0370  0.9069 -0.6035
   53MOL0     H 7271  11.783   2.601   5.878 -0.1048 -0.3317  1.0417
   53MOL0     H 7272  11.410   2.486   5.632  0.5386  2.3190  4.0832
   53MOL0     H 7273  11.381   2.199   5.472 -0.6012 -0.5334 -1.1070
   53MOL0     H 7274  11.427   2.301   5.329 -2.0279  0.8208 -0.6484
   53MOL0     H 7275  11.309   2.359   5.447 -0.0032 -0.9175 -2.0338
   53MOL0     H 7276  11.625   2.154   5.049  1.5277  0.2891 -1.5020
   53MOL0     H 7277  11.707   1.990   4.889  3.5571 -1.4676  0.3198
   53MOL0     H 7278  11.892   1.617   5.070 -0.8764  3.1308  0.2423
   53MOL0     H 7279  11.731   1.554   5.032  0.5189 -1.0872 -0.8798
   53MOL0     H 7280  11.809   1.559   4.789 -2.1949  1.3448  0.7418
   53MOL0     H 7281  11.959   1.606   4.832  1.9159 -3.3195 -0.0172
   53MOL0     H 7282  11.846   1.367   4.981 -3.3835  1.1847 -2.8700
   53MOL0     H 7283  12.013   1.393   4.931  0.6985  1.4581 -1.2712
   53MOL0     H 7284  11.954   1.322   4.697  0.0401  2.0997  1.0677
   53MOL0     H 7285  11.789   1.338   4.717 -1.9474  0.7915  2.5660
   53MOL0     H 7286  11.973   1.127   4.835  2.3289  0.6019 -4.7375
   53MOL0     H 7287  11.809   1.157   4.901 -2.2495  0.8231 -1.8911
   53MOL0     H 7288  11.857   1.098   4.606 -1.8723 -0.1314 -1.4964
   53MOL0     H 7289  11.699   1.093   4.699  0.4576 -1.9955 -3.1024
   53MOL0     H 7290  11.737   0.900   4.786 -0.1735  1.6023  2.0812
   53MOL0     H 7291  11.919   0.919   4.785  2.6793  4.8050 -2.0919
   53MOL0     H 7292  11.846   0.762   4.591 -1.6107 -0.4729 -1.5436
   53MOL0     H 7293  11.915   0.914   4.527  0.0769  0.7706  0.7820
   53MOL0     H 7294  11.749   1.718   5.223  1.3217  1.3558  1.0295
   53MOL0     H 7295  11.680   1.880   5.366 -1.2897  1.4768  0.1422
   53MOL0     H 7296  11.870   2.339   5.533  0.7796  1.1643 -1.6775
   53MOL0     H 7297  11.833   2.466   5.721  1.4055 -1.3718 -0.9581
   53MOL0     H 7298  11.567   3.404   7.376  0.6614  1.0736 -2.2327
   53MOL0     H 7299  11.439   3.505   7.592  1.8281  0.8018 -0.6855
   53MOL0     H 7300  11.117   3.749   7.731  1.4010 -1.6799 -1.2116
   53MOL0     H 7301  10.988   3.860   7.911 -4.1454  2.1681  0.0599
   53MOL0     H 7302  10.699   3.620   8.156 -2.4150  0.0345  2.5981
   53MOL0     H 7303  10.666   3.785   8.204 -1.7263 -0.2651  0.0445
   53MOL0     H 7304  10.594   3.659   7.929  2.0254 -0.6572  1.1446
   53MOL0     H 7305  10.555   3.822   7.975 -1.1123 -1.5315 -2.3441
   53MOL0     H 7306  10.364   3.676   7.986 -1.3539 -0.3079  0.4360
   53MOL0     H 7307  10.433   3.556   8.089 -0.1433  0.2742  2.5874
   53MOL0     H 7308  10.389   3.846   8.189 -1.1030  0.7261  0.2203
   53MOL0     H 7309  10.411   3.691   8.279  0.4858  0.4806  0.9046
   53MOL0     H 7310  10.004   3.695   8.199  0.8413 -4.2869  0.7155
   53MOL0     H 7311  10.777   3.508   7.998 -0.3797 -0.9727 -0.5872
   53MOL0     H 7312  10.751   3.339   7.832 -0.2295 -0.0382 -2.6464
   53MOL0     H 7313  10.840   3.371   7.685  0.3737  3.0744 -0.6507
   53MOL0     H 7314  10.914   3.279   7.821 -0.7544  0.3324  3.2451
   54MOL0     O 7315   2.845   1.595   5.165  0.4079  1.0320 -0.4330
   54MOL0     C 7316   2.738   1.597   5.224  0.3011  0.3493  0.2498
   54MOL0     O 7317   2.690   1.697   5.295 -0.4583 -1.1208  0.1165
   54MOL0     C 7318   2.747   1.824   5.292  0.1337  0.8418 -0.0087
   54MOL0     C 7319   2.749   1.898   5.181 -0.2790  0.1853  0.2753
   54MOL0     C 7320   2.792   2.031   5.194 -0.7850 -0.4952  1.3482
   54MOL0     C 7321   2.830   2.096   5.316 -0.0829  0.5589 -0.2066
   54MOL0     O 7322   2.852   2.224   5.318 -0.3862 -1.2824  0.5696
   54MOL0     C 7323   2.860   2.297   5.447  0.2523 -0.0753  0.1335
   54MOL0     C 7324   2.837   2.446   5.418 -0.1489 -1.2031 -0.0496
   54MOL0     C 7325   2.863   2.528   5.542 -0.1622  0.3838 -0.5332
   54MOL0     C 7326   2.778   2.650   5.543 -0.8834 -0.0315 -0.1070
   54MOL0     C 7327   2.785   2.718   5.682 -0.1450  0.6060  0.0592
   54MOL0     C 7328   2.663   2.804   5.706 -0.0268  0.0409  0.1700
   54MOL0     C 7329   2.641   2.940   5.630  0.5775 -0.3578  0.5079
   54MOL0     C 7330   2.728   3.055   5.687 -0.0850 -0.7944  0.0300
   54MOL0     N 7331   2.744   3.058   5.832 -0.1241  0.5027  0.9665
   54MOL0     C 7332   2.850   3.003   5.904  0.0470  0.2331  0.4580
   54MOL0     C 7333   2.838   3.051   6.023  0.1099  0.8398 -1.0900
   54MOL0     C 7334   2.952   3.032   6.115  0.8336 -0.1369 -0.2075
   54MOL0     C 7335   3.044   3.158   6.132 -0.5071  0.0086 -0.4869
   54MOL0     C 7336   2.960   3.285   6.173 -0.0260  0.3622  0.2527
   54MOL0     C 7337   3.054   3.398   6.229  0.3420 -0.3915 -0.6396
   54MOL0     O 7338   3.138   3.478   6.139 -0.2060 -0.0653 -0.0246
   54MOL0     C 7339   3.201   3.589   6.198 -0.0371 -0.1106 -0.3627
   54MOL0     C 7340   3.211   3.626   6.331  0.2033  0.6842  1.0146
   54MOL0     C 7341   3.268   3.754   6.367 -1.1538  0.1321  0.0031
   54MOL0     C 7342   3.278   3.796   6.510  0.0968 -0.5602 -0.1844
   54MOL0     C 7343   3.319   3.846   6.261 -0.7171 -0.3097  0.0270
   54MOL0     C 7344   3.373   3.990   6.275 -0.0378  0.2496 -0.4104
   54MOL0     O 7345   3.437   4.019   6.394 -0.1799 -0.3609  0.8095
   54MOL0     C 7346   3.462   4.153   6.435 -0.2505  0.1295  1.2609
   54MOL0     C 7347   3.592   4.187   6.468 -0.5171 -0.6095 -0.1074
   54MOL0     C 7348   3.626   4.323   6.492 -0.3355  0.3155  0.4145
   54MOL0     C 7349   3.530   4.418   6.482 -0.3657 -0.2341  1.0506
   54MOL0     O 7350   3.547   4.550   6.513 -1.2107  0.7429  0.6060
   54MOL0     C 7351   3.669   4.598   6.568 -0.0002  0.0308 -0.9446
   54MOL0     C 7352   3.794   4.619   6.472  0.1839  1.1452 -0.7030
   54MOL0     C 7353   3.918   4.615   6.561 -0.7440  0.5063  0.0074
   54MOL0     C 7354   3.939   4.744   6.634  0.6828  0.2980  0.1240
   54MOL0     C 7355   4.018   4.723   6.768 -0.5622  0.1684  0.1620
   54MOL0     C 7356   4.009   4.848   6.854 -0.8552  0.6061 -0.1546
   54MOL0     C 7357   4.116   4.861   6.967 -0.7888 -0.0456  0.3139
   54MOL0     C 7358   4.096   4.774   7.094  0.8032 -0.3934  0.5539
   54MOL0    Cl 7359   4.034   4.871   7.239  0.4614  0.1938 -0.0406
   54MOL0     C 7360   3.403   4.383   6.457 -0.5239 -0.7010 -0.4993
   54MOL0     C 7361   3.366   4.252   6.415  0.4536  0.1353  0.2314
   54MOL0     O 7362   3.369   4.072   6.180  0.6662 -0.8728  0.2742
   54MOL0     C 7363   3.320   3.783   6.131 -0.3995  0.2185 -0.8047
   54MOL0     C 7364   3.258   3.663   6.101  0.8587 -0.4320  0.1058
   54MOL0     N 7365   2.729   3.136   6.034 -0.8940  0.1845  1.0066
   54MOL0     N 7366   2.682   3.145   5.916  0.4856  0.1067 -0.3124
   54MOL0     C 7367   2.818   2.013   5.428 -0.8012  0.0123 -0.0797
   54MOL0     C 7368   2.783   1.877   5.417  1.0753 -0.0073  0.2777
   54MOL0     C 7369   2.661   1.465   5.233  0.2064 -0.2721 -0.2375
   54MOL0     C 7370   2.719   1.344   5.184 -0.1000  0.1114  0.1997
   54MOL0     C 7371   2.656   1.219   5.178  0.1099  0.5915 -0.2575
   54MOL0     C 7372   2.528   1.204   5.244 -0.3809 -0.2923 -0.3413
   54MOL0     O 7373   2.461   1.085   5.253 -0.0891  0.4672  0.6489
   54MOL0     C 7374   2.468   0.991   5.140  1.1394 -0.5592 -0.7067
   54MOL0     C 7375   2.569   0.886   5.179  0.2900 -0.3347  0.3576
   54MOL0     C 7376   2.609   0.800   5.061 -0.7774  0.4050  0.1494
   54MOL0     C 7377   2.656   0.657   5.111  0.5023  0.3002  0.1277
   54MOL0     C 7378   2.540   0.571   5.117  0.4554  0.4000 -0.0443
   54MOL0     C 7379   2.442   0.501   5.128 -0.2237 -0.6885 -0.4042
   54MOL0     C 7380   2.474   1.323   5.305  0.2969  0.1190 -0.1084
   54MOL0     C 7381   2.532   1.451   5.294  0.1421 -0.1233 -0.1827
   54MOL0     C 7382   2.454   1.569   5.344  0.4206  0.4773  0.3705
   54MOL0     H 7383   2.714   1.845   5.093 -2.1233  0.8688  0.5544
   54MOL0     H 7384   2.788   2.094   5.106 -1.5318 -0.4904  1.3733
   54MOL0     H 7385   2.966   2.292   5.472  0.0636 -0.8955  0.7998
   54MOL0     H 7386   2.802   2.249   5.526 -2.5265  1.9507 -0.5039
   54MOL0     H 7387   2.904   2.494   5.346 -1.3422  1.6847  0.6089
   54MOL0     H 7388   2.734   2.458   5.383  0.0525 -0.6582 -0.4655
   54MOL0     H 7389   2.833   2.469   5.629  1.9491  0.9168  0.6354
   54MOL0     H 7390   2.971   2.550   5.546 -0.0972 -0.0705  1.3138
   54MOL0     H 7391   2.805   2.709   5.455 -0.4465 -1.7078 -1.1377
   54MOL0     H 7392   2.676   2.611   5.536  0.4638 -3.8901 -0.5283
   54MOL0     H 7393   2.873   2.781   5.696 -0.0146  0.2996  0.6935
   54MOL0     H 7394   2.791   2.643   5.761 -1.9922  1.2675  0.8695
   54MOL0     H 7395   2.578   2.737   5.691  1.4915 -2.2748  1.2733
   54MOL0     H 7396   2.660   2.820   5.814  0.4478 -1.4774  0.4331
   54MOL0     H 7397   2.535   2.964   5.641  0.8197  1.9092 -1.2958
   54MOL0     H 7398   2.652   2.935   5.521  0.4666 -0.4752  0.5012
   54MOL0     H 7399   2.827   3.049   5.639 -0.1577 -0.5532 -0.1569
   54MOL0     H 7400   2.685   3.150   5.653  2.3195 -0.1119 -1.4620
   54MOL0     H 7401   2.931   2.938   5.874  1.1134  1.5235  0.4741
   54MOL0     H 7402   3.007   2.942   6.086  0.2303 -0.8828  0.9018
   54MOL0     H 7403   2.909   3.006   6.212  0.6852  0.7956 -0.0158
   54MOL0     H 7404   3.120   3.138   6.208 -0.4364 -0.0277 -0.5680
   54MOL0     H 7405   3.102   3.177   6.042 -1.9287  1.8115 -1.0868
   54MOL0     H 7406   2.899   3.315   6.088  0.5150 -2.2406 -1.1716
   54MOL0     H 7407   2.888   3.266   6.253 -0.9429  0.4294 -0.5476
   54MOL0     H 7408   2.991   3.463   6.290  1.9428  1.1279 -0.5225
   54MOL0     H 7409   3.123   3.351   6.299 -1.3968 -0.6484  0.9833
   54MOL0     H 7410   3.172   3.565   6.412  0.0847 -0.1658  0.3405
   54MOL0     H 7411   3.229   3.893   6.521 -1.3466 -0.8650 -3.1355
   54MOL0     H 7412   3.384   3.815   6.528  0.2805 -0.4370 -1.3686
   54MOL0     H 7413   3.221   3.736   6.582  0.4821 -1.5596 -0.6978
   54MOL0     H 7414   3.673   4.116   6.478  0.5690  0.7792  1.6118
   54MOL0     H 7415   3.728   4.344   6.524  0.6366  0.2223 -2.3478
   54MOL0     H 7416   3.649   4.692   6.619  0.1036 -0.2637 -0.3495
   54MOL0     H 7417   3.688   4.539   6.658  0.8317  0.7297 -0.6468
   54MOL0     H 7418   3.804   4.546   6.390 -0.5379  0.9089 -0.5902
   54MOL0     H 7419   3.783   4.718   6.426 -0.6309  2.8441  2.7903
   54MOL0     H 7420   4.002   4.580   6.501 -1.0167 -0.9886  0.4704
   54MOL0     H 7421   3.902   4.536   6.634  0.4521  0.1448 -0.1096
   54MOL0     H 7422   3.839   4.782   6.655  0.5508  0.5585 -0.9323
   54MOL0     H 7423   3.978   4.813   6.558 -1.0379 -0.4262 -1.5014
   54MOL0     H 7424   3.974   4.634   6.813  0.7506  0.2922  1.8032
   54MOL0     H 7425   4.121   4.697   6.744 -0.4593  0.0904  0.6684
   54MOL0     H 7426   3.908   4.854   6.896 -0.1144 -1.3812  2.1596
   54MOL0     H 7427   4.032   4.928   6.783  0.9155 -1.1200 -1.6414
   54MOL0     H 7428   4.134   4.967   6.987  1.2545 -0.7541  2.7299
   54MOL0     H 7429   4.211   4.823   6.930 -0.3983 -1.4685  2.5992
   54MOL0     H 7430   4.181   4.713   7.126 -1.6457 -2.2568  4.1846
   54MOL0     H 7431   4.018   4.704   7.064  2.2168 -0.9206 -2.2691
   54MOL0     H 7432   3.334   4.467   6.452  0.5143  0.2984  0.8930
   54MOL0     H 7433   3.265   4.221   6.393 -0.3982  3.1476 -0.6437
   54MOL0     H 7434   3.372   3.836   6.052 -3.1901 -0.1692 -3.0783
   54MOL0     H 7435   3.250   3.633   5.997  1.7502 -1.7564  0.3885
   54MOL0     H 7436   2.849   2.049   5.526 -0.9765  0.2509 -0.1103
   54MOL0     H 7437   2.768   1.815   5.504 -0.6493  2.4960  1.9116
   54MOL0     H 7438   2.805   1.357   5.120 -0.8812 -0.8218 -1.0917
   54MOL0     H 7439   2.710   1.138   5.129 -0.2811  0.7632 -0.9918
   54MOL0     H 7440   2.376   0.933   5.135  3.2346 -4.0751 -1.5613
   54MOL0     H 7441   2.503   1.036   5.047  2.2951 -1.0177 -0.5100
   54MOL0     H 7442   2.525   0.815   5.249  3.0236 -2.2877  0.2334
   54MOL0     H 7443   2.659   0.930   5.222 -0.4295  1.3465  0.2208
   54MOL0     H 7444   2.521   0.795   4.996 -1.4431  0.4252  1.0186
   54MOL0     H 7445   2.694   0.847   5.011 -0.7182  1.9609  1.5838
   54MOL0     H 7446   2.705   0.676   5.208 -0.0848  0.7721  0.3449
   54MOL0     H 7447   2.727   0.606   5.047  0.9516  0.8290  0.2012
   54MOL0     H 7448   2.353   0.443   5.142 -0.3165 -0.8601 -1.6400
   54MOL0     H 7449   2.377   1.309   5.352 -0.8999  1.3998 -2.0565
   54MOL0     H 7450   2.361   1.541   5.395  1.5237  1.6082  3.1946
   54MOL0     H 7451   2.500   1.620   5.429 -2.6085  2.9906  0.6532
   54MOL0     H 7452   2.436   1.649   5.272  0.7296  3.1753  3.1012
   55MOL0     O 7453  10.101   3.777   3.308 -0.1825 -0.2975 -0.4086
   55MOL0     C 7454  10.038   3.713   3.221 -0.0068 -0.1202  0.2403
   55MOL0     O 7455   9.909   3.743   3.184 -0.0503  0.3852 -0.9003
   55MOL0     C 7456   9.847   3.851   3.234  0.1235  0.0428  0.1627
   55MOL0     C 7457   9.733   3.830   3.308 -0.6585 -0.4007 -0.0329
   55MOL0     C 7458   9.657   3.941   3.343  0.4536  0.2293 -0.9738
   55MOL0     C 7459   9.687   4.070   3.317 -0.6310  0.0872  0.3508
   55MOL0     O 7460   9.592   4.166   3.347 -1.7750 -0.0860  0.1136
   55MOL0     C 7461   9.642   4.263   3.436  0.8256 -1.0579 -0.3925
   55MOL0     C 7462   9.620   4.221   3.583 -0.6861 -0.3969  0.0048
   55MOL0     C 7463   9.760   4.159   3.626  0.1149  0.2700 -0.8238
   55MOL0     C 7464   9.744   4.060   3.749 -0.3077  0.8930  0.4970
   55MOL0     C 7465   9.682   3.917   3.725  0.3099 -0.6922  0.1318
   55MOL0     C 7466   9.787   3.814   3.707 -0.0635  0.7825  0.4401
   55MOL0     C 7467   9.726   3.672   3.680 -0.5767 -0.2966 -0.7146
   55MOL0     C 7468   9.829   3.582   3.598  0.6058 -0.1772  0.1374
   55MOL0     N 7469   9.778   3.454   3.541 -0.3654 -0.2807 -0.7555
   55MOL0     C 7470   9.746   3.446   3.409 -0.9921 -0.3099  0.0329
   55MOL0     C 7471   9.646   3.354   3.391 -0.4010 -0.6324 -0.3045
   55MOL0     C 7472   9.583   3.305   3.261 -0.4460 -0.3741 -0.3855
   55MOL0     C 7473   9.431   3.288   3.260 -0.6369  1.0424  0.2786
   55MOL0     C 7474   9.350   3.395   3.199 -0.6216 -0.3318 -0.2040
   55MOL0     C 7475   9.289   3.487   3.306 -0.1464 -0.2148 -0.1323
   55MOL0     O 7476   9.394   3.542   3.391  0.4620 -0.1781  0.0945
   55MOL0     C 7477   9.342   3.607   3.500 -0.2155 -0.5654 -0.0685
   55MOL0     C 7478   9.312   3.744   3.495 -0.4085 -0.1007  0.2671
   55MOL0     C 7479   9.289   3.809   3.622  0.1407 -0.5394  0.3271
   55MOL0     C 7480   9.261   3.959   3.626 -0.2193 -0.0735 -0.0931
   55MOL0     C 7481   9.291   3.736   3.740 -0.1396  0.2315  0.7999
   55MOL0     C 7482   9.274   3.796   3.876  0.8211  0.1139  0.5237
   55MOL0     O 7483   9.390   3.854   3.924  0.4957  0.4201 -0.3359
   55MOL0     C 7484   9.401   3.891   4.051  0.1471  0.5438 -1.0174
   55MOL0     C 7485   9.302   3.948   4.132  1.1240  0.0078 -0.2370
   55MOL0     C 7486   9.313   3.974   4.266  0.3675 -0.1513 -1.3587
   55MOL0     C 7487   9.424   3.940   4.328 -0.6998  1.1292 -0.7299
   55MOL0     O 7488   9.420   3.968   4.464 -0.2205  0.5828 -1.0591
   55MOL0     C 7489   9.451   3.860   4.557 -0.7903 -0.4304  0.4958
   55MOL0     C 7490   9.451   3.906   4.700 -0.8388  0.1867 -0.5645
   55MOL0     C 7491   9.494   3.804   4.803 -0.7170 -0.2648 -0.5072
   55MOL0     C 7492   9.392   3.690   4.824 -0.0948  0.9319 -0.1225
   55MOL0     C 7493   9.420   3.602   4.951  0.3947  0.3335  0.0649
   55MOL0     C 7494   9.367   3.680   5.077 -0.1080 -0.2409  0.1915
   55MOL0     C 7495   9.400   3.602   5.203  0.1517 -0.1332  0.3823
   55MOL0     C 7496   9.535   3.647   5.262 -0.7456 -0.6082  1.4422
   55MOL0    Cl 7497   9.537   3.825   5.293  0.1535 -0.3790  0.7624
   55MOL0     C 7498   9.523   3.873   4.259  0.0536  0.1539  0.4332
   55MOL0     C 7499   9.511   3.841   4.122  0.4772  0.6078 -0.0696
   55MOL0     O 7500   9.165   3.776   3.934 -0.3202  0.3316  0.7533
   55MOL0     C 7501   9.321   3.604   3.739 -0.4883  0.4864 -0.6546
   55MOL0     C 7502   9.351   3.536   3.620  0.3529  0.3593  0.0259
   55MOL0     N 7503   9.628   3.300   3.523  0.1524 -0.2258  0.2478
   55MOL0     N 7504   9.709   3.354   3.605  0.3378 -0.9388  0.0745
   55MOL0     C 7505   9.808   4.094   3.245 -0.1518 -0.6502  0.1330
   55MOL0     C 7506   9.881   3.985   3.192  0.2985  0.5009 -0.2563
   55MOL0     C 7507  10.099   3.590   3.166  1.1352  0.0903 -1.0029
   55MOL0     C 7508  10.194   3.524   3.244 -0.1133  0.2919  0.2457
   55MOL0     C 7509  10.258   3.401   3.205 -0.1346 -0.4067  0.6737
   55MOL0     C 7510  10.233   3.348   3.084 -0.0026 -0.3198  0.5753
   55MOL0     O 7511  10.298   3.241   3.048 -0.4444  0.0525 -0.4675
   55MOL0     C 7512  10.300   3.195   2.912 -0.2263 -0.3760  0.0578
   55MOL0     C 7513  10.441   3.140   2.889 -0.1107  0.1985  1.1818
   55MOL0     C 7514  10.443   3.071   2.750  0.0639 -0.2399 -0.9573
   55MOL0     C 7515  10.583   3.026   2.711 -0.2584  0.8224 -0.9403
   55MOL0     C 7516  10.638   2.937   2.805  0.3286 -0.4557 -0.0979
   55MOL0     C 7517  10.693   2.873   2.894 -0.9893  0.7722 -0.4214
   55MOL0     C 7518  10.139   3.416   2.999  0.6571  0.1618 -0.0990
   55MOL0     C 7519  10.076   3.539   3.043  0.9962 -0.0258  1.4805
   55MOL0     C 7520   9.986   3.608   2.942  0.7763  0.2950  0.2386
   55MOL0     H 7521   9.684   3.738   3.339  1.0139 -2.4535 -2.9437
   55MOL0     H 7522   9.559   3.920   3.385  1.8195  0.2533  2.4946
   55MOL0     H 7523   9.590   4.358   3.421  1.5829 -0.2518  1.7053
   55MOL0     H 7524   9.744   4.300   3.424  0.3092 -0.2432 -2.6753
   55MOL0     H 7525   9.597   4.313   3.637  0.7767 -0.1879  0.3198
   55MOL0     H 7526   9.539   4.151   3.604 -0.9329  0.7569  3.5326
   55MOL0     H 7527   9.806   4.103   3.544  0.5161  1.9886 -1.7952
   55MOL0     H 7528   9.832   4.237   3.651  1.4272 -0.9529 -0.6428
   55MOL0     H 7529   9.842   4.056   3.797 -0.1032  1.0523  0.1019
   55MOL0     H 7530   9.680   4.123   3.812  1.7335  2.5373  1.0343
   55MOL0     H 7531   9.615   3.930   3.640  0.8511  3.1582  0.1090
   55MOL0     H 7532   9.627   3.880   3.812  0.9313 -1.6298  0.1412
   55MOL0     H 7533   9.847   3.845   3.620  1.8637  1.4322  1.9382
   55MOL0     H 7534   9.852   3.818   3.795 -0.6280  3.5001  0.8262
   55MOL0     H 7535   9.632   3.677   3.624 -1.5698 -0.9018  0.8132
   55MOL0     H 7536   9.694   3.638   3.780 -0.2987  0.3602 -0.3963
   55MOL0     H 7537   9.857   3.643   3.512  2.1514 -2.5659 -1.1748
   55MOL0     H 7538   9.920   3.569   3.659  1.5522  2.0543 -0.7039
   55MOL0     H 7539   9.791   3.509   3.333 -0.3390  1.6338  1.9348
   55MOL0     H 7540   9.640   3.215   3.237  1.9739  0.9752  0.0477
   55MOL0     H 7541   9.603   3.379   3.183 -1.0595 -0.3141 -0.4906
   55MOL0     H 7542   9.410   3.200   3.198 -1.3394  0.6375  1.0695
   55MOL0     H 7543   9.396   3.252   3.358  0.7333 -0.6750  0.1926
   55MOL0     H 7544   9.405   3.444   3.118 -2.8809 -0.0465 -1.6595
   55MOL0     H 7545   9.274   3.345   3.139  0.1897  0.8155 -2.2834
   55MOL0     H 7546   9.229   3.565   3.260  1.4960  0.5369 -1.0878
   55MOL0     H 7547   9.218   3.430   3.367  2.3565 -1.4085  1.8705
   55MOL0     H 7548   9.319   3.795   3.400 -0.8890  2.7833  1.6631
   55MOL0     H 7549   9.187   3.977   3.705  1.8263 -0.8418  2.1202
   55MOL0     H 7550   9.220   3.978   3.526 -2.4423  2.2143  1.1317
   55MOL0     H 7551   9.350   4.021   3.642  0.2759 -0.7665 -0.1332
   55MOL0     H 7552   9.205   3.970   4.087  0.2156 -0.4745  1.3826
   55MOL0     H 7553   9.231   4.022   4.319  1.2380 -0.7971  0.6750
   55MOL0     H 7554   9.383   3.779   4.532  1.0615 -1.3115 -2.1605
   55MOL0     H 7555   9.555   3.826   4.549 -1.0762 -0.9773 -1.1099
   55MOL0     H 7556   9.524   3.984   4.723 -2.0189  1.6318 -1.5718
   55MOL0     H 7557   9.356   3.948   4.735 -0.1229  0.0795  1.6894
   55MOL0     H 7558   9.510   3.860   4.896  1.1163 -2.2201  0.4124
   55MOL0     H 7559   9.588   3.756   4.777 -0.4196  0.3383 -0.5723
   55MOL0     H 7560   9.384   3.642   4.726 -1.6942  0.3303  0.2599
   55MOL0     H 7561   9.290   3.730   4.826 -0.8699 -0.9453  0.3031
   55MOL0     H 7562   9.368   3.506   4.945  0.7311 -0.1296  3.0693
   55MOL0     H 7563   9.523   3.566   4.951  0.1582 -0.5292  2.6203
   55MOL0     H 7564   9.259   3.693   5.071 -0.0940 -0.1085  0.2340
   55MOL0     H 7565   9.403   3.783   5.071  0.8073 -0.2971  3.2905
   55MOL0     H 7566   9.386   3.497   5.175 -0.3408 -1.2909  4.2975
   55MOL0     H 7567   9.329   3.609   5.285  0.8775  1.9103  0.9035
   55MOL0     H 7568   9.615   3.634   5.189 -3.9046 -1.3507 -2.1757
   55MOL0     H 7569   9.555   3.594   5.356  0.4909 -1.8882  0.5015
   55MOL0     H 7570   9.615   3.846   4.311  0.5768  0.8114 -0.1336
   55MOL0     H 7571   9.577   3.772   4.071 -2.0039 -0.1605 -2.4967
   55MOL0     H 7572   9.341   3.558   3.835  3.1673  2.1338 -0.4743
   55MOL0     H 7573   9.392   3.436   3.616 -0.2125  0.1590 -1.7490
   55MOL0     H 7574   9.832   4.199   3.231 -0.4891 -0.3142  1.8407
   55MOL0     H 7575   9.970   4.001   3.132  0.0816 -0.1441 -0.7600
   55MOL0     H 7576  10.240   3.566   3.333  2.7568 -0.9181 -0.5546
   55MOL0     H 7577  10.338   3.354   3.261  2.4578  1.2094 -1.4144
   55MOL0     H 7578  10.235   3.107   2.915  1.3440 -1.5636  0.8556
   55MOL0     H 7579  10.277   3.272   2.837  2.5610 -0.0521 -0.5894
   55MOL0     H 7580  10.474   3.074   2.969  1.2728 -2.6702 -1.5366
   55MOL0     H 7581  10.508   3.226   2.879  1.3438 -0.4720  4.1504
   55MOL0     H 7582  10.378   2.984   2.758 -2.8289  1.9138  1.4483
   55MOL0     H 7583  10.410   3.133   2.666  0.7940 -2.3666 -2.8746
   55MOL0     H 7584  10.647   3.114   2.703  0.2653  0.4402 -0.9913
   55MOL0     H 7585  10.579   2.977   2.613 -3.3450  3.0655 -2.0866
   55MOL0     H 7586  10.746   2.822   2.971 -0.5337  1.5154 -0.2382
   55MOL0     H 7587  10.116   3.381   2.899 -2.3261  1.8716 -0.1245
   55MOL0     H 7588   9.986   3.715   2.967 -1.6384  0.3538  0.2850
   55MOL0     H 7589   9.998   3.580   2.837  1.2985 -0.1997  0.4268
   55MOL0     H 7590   9.887   3.576   2.976  1.4050 -0.2639  1.6156
   56MOL0     O 7591   5.368   8.629   5.271  0.0309 -0.3773 -0.1249
   56MOL0     C 7592   5.264   8.562   5.262  1.1031  0.1818  0.0989
   56MOL0     O 7593   5.215   8.477   5.346  0.2629  0.4100  0.4410
   56MOL0     C 7594   5.270   8.470   5.477 -0.2353 -0.4068 -0.3223
   56MOL0     C 7595   5.265   8.341   5.532 -0.9872 -0.4778  0.4783
   56MOL0     C 7596   5.324   8.315   5.660  0.3908 -0.6773 -0.9136
   56MOL0     C 7597   5.358   8.422   5.743  0.1645  0.7157  0.3028
   56MOL0     O 7598   5.404   8.388   5.875  0.1256  0.4081  0.1015
   56MOL0     C 7599   5.354   8.471   5.973  0.4297 -0.2925  0.2893
   56MOL0     C 7600   5.390   8.428   6.112 -0.0393  0.2161 -0.3359
   56MOL0     C 7601   5.343   8.282   6.155  0.9251 -0.0638 -0.5513
   56MOL0     C 7602   5.314   8.263   6.310  0.6248 -0.2466  0.0928
   56MOL0     C 7603   5.285   8.113   6.328 -0.4547  0.6582 -0.0766
   56MOL0     C 7604   5.298   8.077   6.479 -0.2380  0.9289  0.7503
   56MOL0     C 7605   5.246   7.935   6.500 -0.9134 -0.8015  0.0456
   56MOL0     C 7606   5.246   7.893   6.644 -0.0906  1.3674 -0.0365
   56MOL0     N 7607   5.193   7.760   6.667  0.2103 -0.6675 -0.0226
   56MOL0     C 7608   5.084   7.741   6.742  0.0000 -0.1948  0.3093
   56MOL0     C 7609   5.069   7.615   6.768  0.1037  0.6372  1.1548
   56MOL0     C 7610   4.981   7.553   6.877 -0.3281 -0.7332 -0.5933
   56MOL0     C 7611   4.838   7.541   6.839 -0.0201  0.3973 -0.4370
   56MOL0     C 7612   4.768   7.675   6.855 -0.5729 -0.4858  1.0814
   56MOL0     C 7613   4.618   7.675   6.843 -0.1708  0.1314  0.6689
   56MOL0     O 7614   4.568   7.795   6.786 -0.5178 -0.3409  0.7335
   56MOL0     C 7615   4.456   7.797   6.708  0.8744  0.5920 -0.1757
   56MOL0     C 7616   4.332   7.726   6.730  0.1729  0.7183  0.0249
   56MOL0     C 7617   4.227   7.726   6.630  0.9597 -0.1894  0.2828
   56MOL0     C 7618   4.099   7.650   6.674 -0.3439 -0.3409 -0.3590
   56MOL0     C 7619   4.244   7.792   6.511 -0.8234  0.1333 -0.3578
   56MOL0     C 7620   4.150   7.790   6.390 -1.3171 -0.5709 -0.1774
   56MOL0     O 7621   4.181   7.879   6.292  0.3211  0.4153 -0.0640
   56MOL0     C 7622   4.078   7.923   6.214  0.8514 -0.0442 -0.2311
   56MOL0     C 7623   4.014   7.840   6.125  0.3825 -0.2712 -0.0656
   56MOL0     C 7624   3.897   7.885   6.055 -0.2672 -0.0105  0.6707
   56MOL0     C 7625   3.860   8.021   6.068 -0.0444  0.4676  0.2051
   56MOL0     O 7626   3.752   8.063   5.996 -0.1223 -0.4738  0.7302
   56MOL0     C 7627   3.763   8.036   5.852 -0.1775  0.2699 -0.1768
   56MOL0     C 7628   3.624   8.051   5.787 -0.0378  0.8241  1.4465
   56MOL0     C 7629   3.633   8.015   5.634 -0.0268  0.5822 -0.2588
   56MOL0     C 7630   3.638   7.863   5.608 -0.6579  0.6584  0.7535
   56MOL0     C 7631   3.736   7.833   5.496 -0.6173  0.4705 -0.7490
   56MOL0     C 7632   3.714   7.923   5.363  0.7082 -0.0193  0.0612
   56MOL0     C 7633   3.796   7.870   5.240 -0.1072  0.7564  0.8231
   56MOL0     C 7634   3.710   7.853   5.108  0.2666  0.3046 -0.7155
   56MOL0    Cl 7635   3.595   7.713   5.134 -0.4280  0.1128  0.8404
   56MOL0     C 7636   3.923   8.101   6.159 -0.4709 -0.8137 -0.0474
   56MOL0     C 7637   4.037   8.060   6.238  0.4752  0.8994  1.0991
   56MOL0     O 7638   4.053   7.722   6.394  0.5031  0.3277  0.2722
   56MOL0     C 7639   4.365   7.859   6.488  0.9397  0.2188  1.0999
   56MOL0     C 7640   4.466   7.867   6.586  0.1425 -0.1104  0.0464
   56MOL0     N 7641   5.166   7.556   6.699 -0.7141  0.5384  0.0757
   56MOL0     N 7642   5.254   7.637   6.650 -0.2877  0.0084  0.1117
   56MOL0     C 7643   5.356   8.557   5.693 -0.8059 -0.0473 -1.3608
   56MOL0     C 7644   5.317   8.579   5.559 -0.2771 -1.2741 -0.0136
   56MOL0     C 7645   5.208   8.563   5.132 -0.3432  0.2359 -0.1478
   56MOL0     C 7646   5.164   8.438   5.087  0.3988  0.4345 -0.1051
   56MOL0     C 7647   5.092   8.426   4.971  0.2055 -0.9409  0.9058
   56MOL0     C 7648   5.072   8.537   4.892 -0.0355 -0.2888  0.4450
   56MOL0     O 7649   5.002   8.510   4.774 -0.0277 -0.5784 -0.1359
   56MOL0     C 7650   4.992   8.601   4.658 -0.2303 -0.6703  0.1744
   56MOL0     C 7651   4.856   8.597   4.591  0.4147  0.3036 -0.4762
   56MOL0     C 7652   4.806   8.457   4.548  0.3312 -0.3173  0.9258
   56MOL0     C 7653   4.898   8.414   4.428 -0.2010 -0.1446  0.2590
   56MOL0     C 7654   4.861   8.292   4.352 -0.0284 -1.1490  1.1973
   56MOL0     C 7655   4.832   8.192   4.286  0.7964 -0.3249  0.5473
   56MOL0     C 7656   5.116   8.665   4.936 -0.1483  0.4999 -0.1511
   56MOL0     C 7657   5.190   8.681   5.058  0.5393  0.4378 -0.7746
   56MOL0     C 7658   5.224   8.821   5.098 -0.4275  0.0872  0.0199
   56MOL0     H 7659   5.228   8.272   5.457 -1.1491  1.2110 -1.0467
   56MOL0     H 7660   5.313   8.214   5.696  0.2123  0.3228  2.1268
   56MOL0     H 7661   5.244   8.471   5.972  0.3413 -1.5518  2.8253
   56MOL0     H 7662   5.379   8.575   5.952 -2.8098  0.0530 -2.9149
   56MOL0     H 7663   5.499   8.434   6.124 -0.0712 -3.1346  4.5238
   56MOL0     H 7664   5.349   8.506   6.176  0.7737  0.6778 -0.3580
   56MOL0     H 7665   5.240   8.275   6.117  0.3554 -0.8735  1.0523
   56MOL0     H 7666   5.400   8.199   6.112 -0.8243 -0.6753 -1.8109
   56MOL0     H 7667   5.400   8.290   6.372 -0.6694  0.9927  1.4323
   56MOL0     H 7668   5.228   8.322   6.342  1.1985  0.5164  0.2647
   56MOL0     H 7669   5.358   8.055   6.270 -1.0651  0.8221 -1.0406
   56MOL0     H 7670   5.188   8.090   6.282 -0.4879  1.0126 -0.1888
   56MOL0     H 7671   5.404   8.076   6.507 -0.8463 -1.1246  3.3536
   56MOL0     H 7672   5.250   8.149   6.546  1.1801  1.9534  0.7144
   56MOL0     H 7673   5.314   7.877   6.438 -2.2613 -0.8553 -1.4429
   56MOL0     H 7674   5.144   7.924   6.460 -0.7104  1.0080 -1.0890
   56MOL0     H 7675   5.346   7.897   6.688  0.7891 -3.6308 -1.0010
   56MOL0     H 7676   5.187   7.961   6.706 -2.2069 -0.9812  0.6954
   56MOL0     H 7677   5.026   7.818   6.793  2.1749  3.5141 -2.3030
   56MOL0     H 7678   4.983   7.619   6.963 -1.2742 -3.8144  1.9995
   56MOL0     H 7679   5.017   7.457   6.916 -2.6950 -0.0555  3.9304
   56MOL0     H 7680   4.826   7.518   6.733  1.5537  1.7118 -0.9378
   56MOL0     H 7681   4.795   7.469   6.909  2.2918  1.2302  2.0351
   56MOL0     H 7682   4.789   7.725   6.950 -0.3279  0.9793  0.2784
   56MOL0     H 7683   4.809   7.737   6.776 -0.9872  0.3880  1.5372
   56MOL0     H 7684   4.584   7.600   6.772 -1.1448 -0.7956  2.0719
   56MOL0     H 7685   4.570   7.654   6.939 -0.4866  0.0990  0.5014
   56MOL0     H 7686   4.318   7.664   6.818  0.4710 -0.4202 -0.7068
   56MOL0     H 7687   4.110   7.633   6.782  1.7702  1.1395 -0.2737
   56MOL0     H 7688   4.079   7.560   6.616 -1.6311  0.2819 -0.9258
   56MOL0     H 7689   4.002   7.701   6.672 -1.9770 -3.2214  0.5266
   56MOL0     H 7690   4.028   7.734   6.109 -2.4179 -0.9974  1.6265
   56MOL0     H 7691   3.838   7.823   5.988 -0.0061  1.6589 -1.2366
   56MOL0     H 7692   3.824   8.115   5.808 -0.9456  0.2484 -1.3302
   56MOL0     H 7693   3.816   7.943   5.833  3.0238  0.9913  3.8457
   56MOL0     H 7694   3.555   7.974   5.820  2.4634 -1.6715  1.1874
   56MOL0     H 7695   3.577   8.150   5.794 -1.9585 -0.1199  2.6501
   56MOL0     H 7696   3.728   8.063   5.610 -0.2296  1.9808  1.5437
   56MOL0     H 7697   3.546   8.050   5.578 -0.8111  1.0127  1.1820
   56MOL0     H 7698   3.535   7.830   5.590 -1.4008 -0.6880  5.9306
   56MOL0     H 7699   3.663   7.805   5.697  2.9868  0.7783 -0.0110
   56MOL0     H 7700   3.837   7.858   5.528 -0.5242 -0.7434 -0.0531
   56MOL0     H 7701   3.729   7.725   5.485 -1.4051  0.4141  0.1641
   56MOL0     H 7702   3.745   8.027   5.377 -1.9348  1.0343 -1.2854
   56MOL0     H 7703   3.610   7.921   5.332  0.2261 -2.0743  1.5882
   56MOL0     H 7704   3.832   7.771   5.270 -0.1523  1.7292  4.6097
   56MOL0     H 7705   3.885   7.932   5.229  1.4835 -1.6694 -1.1371
   56MOL0     H 7706   3.787   7.834   5.033  2.0790 -0.1965  1.2135
   56MOL0     H 7707   3.656   7.944   5.077  1.2166  0.2893 -2.5911
   56MOL0     H 7708   3.903   8.207   6.155 -0.6194 -0.8008  0.7685
   56MOL0     H 7709   4.078   8.126   6.313 -0.3358  1.5827  0.9499
   56MOL0     H 7710   4.379   7.911   6.393 -2.5005 -0.2535  0.1929
   56MOL0     H 7711   4.557   7.920   6.561 -0.6999  2.3179  1.7264
   56MOL0     H 7712   5.393   8.642   5.748 -0.9872 -1.6170  1.3919
   56MOL0     H 7713   5.310   8.680   5.521 -0.7892 -0.3184  2.4351
   56MOL0     H 7714   5.182   8.347   5.144 -1.0923 -1.1025 -1.9460
   56MOL0     H 7715   5.018   8.349   4.952 -0.9930  0.5006 -0.7215
   56MOL0     H 7716   5.022   8.704   4.679  2.2672 -1.6702  2.0533
   56MOL0     H 7717   5.061   8.557   4.584  1.6164  1.9475  0.1958
   56MOL0     H 7718   4.873   8.671   4.512  0.7833  3.9081  2.6547
   56MOL0     H 7719   4.787   8.637   4.665  1.3062  3.6930 -1.2860
   56MOL0     H 7720   4.811   8.378   4.623 -1.3867 -1.6624 -0.2888
   56MOL0     H 7721   4.706   8.463   4.504 -0.5122  2.8965  2.9653
   56MOL0     H 7722   4.997   8.388   4.467 -0.5733 -1.3001  0.4714
   56MOL0     H 7723   4.908   8.497   4.357 -1.7784 -1.1230 -1.1866
   56MOL0     H 7724   4.797   8.106   4.233  0.1342 -0.1537  0.6974
   56MOL0     H 7725   5.091   8.751   4.875 -1.8275  0.5383  0.5603
   56MOL0     H 7726   5.221   8.887   5.011 -0.6767 -1.5287 -1.2441
   56MOL0     H 7727   5.150   8.853   5.173 -1.2032  1.1575 -1.1576
   56MOL0     H 7728   5.325   8.830   5.138  0.7971 -1.1804 -2.5498
   57MOL0     O 7729   1.708   3.249   2.432  1.1794 -0.1273  0.4789
   57MOL0     C 7730   1.757   3.306   2.534 -0.3962  0.1781 -0.1273
   57MOL0     O 7731   1.829   3.420   2.537 -0.0142  0.1789 -0.6862
   57MOL0     C 7732   1.875   3.483   2.423  0.4214 -0.4675  0.4560
   57MOL0     C 7733   1.899   3.621   2.439 -0.2783  0.9622 -0.9524
   57MOL0     C 7734   1.959   3.693   2.336  0.8382 -0.0744 -0.2035
   57MOL0     C 7735   1.989   3.634   2.208 -0.0592  0.3107 -1.1027
   57MOL0     O 7736   2.042   3.700   2.104 -0.5684 -0.4036  0.8013
   57MOL0     C 7737   2.082   3.835   2.110 -0.3020  0.3760 -0.0068
   57MOL0     C 7738   2.138   3.891   1.980 -0.4856  0.7028 -0.6563
   57MOL0     C 7739   2.054   3.874   1.856 -0.2377  0.0675 -0.7074
   57MOL0     C 7740   2.117   3.933   1.735 -0.2836  0.1729 -0.6646
   57MOL0     C 7741   2.007   3.960   1.621  0.1324  0.5744  0.7524
   57MOL0     C 7742   1.944   3.843   1.559 -0.4884  0.1136 -0.7452
   57MOL0     C 7743   1.841   3.878   1.454  0.3943 -1.0537 -0.1355
   57MOL0     C 7744   1.701   3.866   1.513  0.2549 -0.3154  0.4141
   57MOL0     N 7745   1.604   3.854   1.401 -0.1395 -0.4484  0.3404
   57MOL0     C 7746   1.573   3.951   1.308 -0.0530  0.3480  0.0543
   57MOL0     C 7747   1.452   3.914   1.269 -0.6612 -0.8282 -0.1551
   57MOL0     C 7748   1.363   3.996   1.172  0.2062  0.2428  0.5687
   57MOL0     C 7749   1.408   3.974   1.025  0.3953 -0.2844 -0.3273
   57MOL0     C 7750   1.337   3.841   0.971  0.0971  0.3321 -0.9584
   57MOL0     C 7751   1.402   3.771   0.846 -0.1923 -0.0631 -1.8789
   57MOL0     O 7752   1.431   3.862   0.740 -0.2858  0.3711 -0.0169
   57MOL0     C 7753   1.455   3.800   0.623  0.1255  1.4283  0.0993
   57MOL0     C 7754   1.526   3.676   0.597 -0.3431 -0.1023  0.1109
   57MOL0     C 7755   1.539   3.617   0.469  0.6919  1.0321 -0.9887
   57MOL0     C 7756   1.623   3.487   0.461 -0.6227 -0.7619  0.0457
   57MOL0     C 7757   1.478   3.676   0.358  1.1945  0.3611 -0.1728
   57MOL0     C 7758   1.480   3.618   0.216 -0.1332  0.5587 -0.2995
   57MOL0     O 7759   1.590   3.549   0.186  0.0544  1.4714  0.7218
   57MOL0     C 7760   1.570   3.439   0.102  0.5102  0.5427 -0.7456
   57MOL0     C 7761   1.491   3.329   0.157  0.0690 -0.5613  0.0094
   57MOL0     C 7762   1.511   3.206   0.102  0.4591 -0.3163  0.0904
   57MOL0     C 7763   1.572   3.186  -0.021  0.3274  1.1630 -0.7428
   57MOL0     O 7764   1.583   3.062  -0.077 -0.1611 -0.1096  0.3917
   57MOL0     C 7765   1.613   3.040  -0.211 -1.5798  0.1515  0.4029
   57MOL0     C 7766   1.583   2.892  -0.257  0.4086  0.5666 -0.0335
   57MOL0     C 7767   1.663   2.860  -0.379  0.1403  0.3989  0.2413
   57MOL0     C 7768   1.595   2.760  -0.482  0.0853  0.1389 -0.0448
   57MOL0     C 7769   1.705   2.716  -0.586  0.3506 -0.4694 -0.2086
   57MOL0     C 7770   1.717   2.806  -0.710 -0.1629 -0.6753  0.5835
   57MOL0     C 7771   1.789   2.756  -0.828 -1.5309 -0.2485  0.9109
   57MOL0     C 7772   1.766   2.839  -0.946  0.3664 -0.0603  0.1457
   57MOL0    Cl 7773   1.598   2.818  -1.012  0.0839  0.0415  0.0712
   57MOL0     C 7774   1.637   3.296  -0.076 -0.7599  0.4181 -0.2860
   57MOL0     C 7775   1.637   3.414  -0.013 -1.2973 -1.3587 -0.4912
   57MOL0     O 7776   1.385   3.628   0.142  0.1249 -0.1565  0.3348
   57MOL0     C 7777   1.406   3.797   0.377  1.0084  0.8633 -0.2371
   57MOL0     C 7778   1.394   3.856   0.508 -1.1956  0.0010 -0.3329
   57MOL0     N 7779   1.415   3.791   1.317  0.2349  0.4020  0.5035
   57MOL0     N 7780   1.497   3.763   1.412  0.4817 -0.0595  1.3725
   57MOL0     C 7781   1.967   3.498   2.190  0.9608  1.2486  0.0425
   57MOL0     C 7782   1.907   3.427   2.293  0.5338  0.4634  0.2589
   57MOL0     C 7783   1.741   3.225   2.658  0.1956 -0.6138  0.3863
   57MOL0     C 7784   1.749   3.084   2.665  0.1159  0.3395  0.2307
   57MOL0     C 7785   1.712   3.021   2.777  0.7729  0.0171 -0.1150
   57MOL0     C 7786   1.658   3.087   2.888  0.1948  0.8920 -0.3147
   57MOL0     O 7787   1.602   3.026   3.003  0.1301 -0.0773 -0.1336
   57MOL0     C 7788   1.602   2.884   3.013  0.2988 -0.0942 -0.1716
   57MOL0     C 7789   1.566   2.869   3.167  0.1246  0.0567 -0.2771
   57MOL0     C 7790   1.664   2.932   3.266  1.4183 -0.5903 -0.7272
   57MOL0     C 7791   1.610   2.929   3.414  0.3786 -0.1792 -0.2987
   57MOL0     C 7792   1.495   3.016   3.434 -0.1154 -0.7721 -0.0752
   57MOL0     C 7793   1.401   3.084   3.472 -0.2987  1.0673  0.3302
   57MOL0     C 7794   1.656   3.222   2.887 -0.2648  0.3557 -0.2113
   57MOL0     C 7795   1.691   3.293   2.773 -0.8413  0.4944 -0.7815
   57MOL0     C 7796   1.673   3.447   2.771 -0.3403  0.3426 -0.0042
   57MOL0     H 7797   1.869   3.673   2.529  2.0116  2.6993 -1.0935
   57MOL0     H 7798   1.993   3.793   2.362 -2.2131  0.3193  3.2114
   57MOL0     H 7799   2.162   3.847   2.184  2.0210 -0.5898 -2.2058
   57MOL0     H 7800   1.998   3.902   2.131 -0.6980 -0.1710  0.1615
   57MOL0     H 7801   2.164   3.996   1.990  1.3431  0.3795 -1.6230
   57MOL0     H 7802   2.233   3.843   1.955 -0.0769  1.2849 -0.2337
   57MOL0     H 7803   2.026   3.771   1.834 -1.1403  0.2269 -0.3455
   57MOL0     H 7804   1.958   3.920   1.880 -0.0066 -0.7414  2.0795
   57MOL0     H 7805   2.147   4.038   1.746 -1.3222  0.7262 -2.4639
   57MOL0     H 7806   2.202   3.873   1.703  1.1421  1.7519 -0.0030
   57MOL0     H 7807   2.069   4.009   1.545  1.2190 -0.0245  1.2179
   57MOL0     H 7808   1.931   4.035   1.642 -2.3066 -1.3198 -0.8055
   57MOL0     H 7809   2.024   3.788   1.507  0.5713 -0.8618  1.7447
   57MOL0     H 7810   1.904   3.773   1.633  3.3996 -0.3904  1.1521
   57MOL0     H 7811   1.857   3.815   1.366  3.5071 -1.4900  0.6120
   57MOL0     H 7812   1.859   3.980   1.418  3.2508 -0.6123  2.1127
   57MOL0     H 7813   1.699   3.771   1.567  0.5047  0.1489  1.2743
   57MOL0     H 7814   1.670   3.951   1.574  1.0975 -0.5835  1.2383
   57MOL0     H 7815   1.632   4.036   1.278  0.7314 -0.5851 -1.1351
   57MOL0     H 7816   1.361   4.102   1.197  0.0098  1.2626 -3.1074
   57MOL0     H 7817   1.265   3.949   1.184  0.4986 -0.6861 -0.4417
   57MOL0     H 7818   1.371   4.056   0.964  0.9164  0.6177  0.5334
   57MOL0     H 7819   1.517   3.980   1.033  0.1919  2.1726  1.6851
   57MOL0     H 7820   1.322   3.770   1.053 -2.2753  1.3499 -0.4281
   57MOL0     H 7821   1.240   3.881   0.942  0.9838  1.7186 -2.1510
   57MOL0     H 7822   1.494   3.726   0.885 -1.3646  0.4980  1.9943
   57MOL0     H 7823   1.333   3.698   0.804 -1.0221  0.9180 -2.2760
   57MOL0     H 7824   1.563   3.630   0.689  0.8138  1.6526  0.5736
   57MOL0     H 7825   1.678   3.460   0.551 -1.4329  0.2165  0.8600
   57MOL0     H 7826   1.707   3.509   0.395 -0.7570 -0.4402 -0.0189
   57MOL0     H 7827   1.575   3.394   0.428  0.8037 -0.8267 -2.0197
   57MOL0     H 7828   1.436   3.347   0.249 -0.9091 -2.5699 -0.1218
   57MOL0     H 7829   1.474   3.120   0.157 -0.3669  1.3842  2.3340
   57MOL0     H 7830   1.559   3.111  -0.274  0.4759  0.1953 -1.4025
   57MOL0     H 7831   1.717   3.067  -0.229 -1.1085 -0.9076  1.4054
   57MOL0     H 7832   1.623   2.826  -0.179  1.1625  1.1720  0.1076
   57MOL0     H 7833   1.476   2.882  -0.275  0.8399 -2.7806 -1.4222
   57MOL0     H 7834   1.762   2.831  -0.343 -0.0638  1.8857  2.1672
   57MOL0     H 7835   1.691   2.951  -0.433  1.7535  0.0141  0.3878
   57MOL0     H 7836   1.514   2.818  -0.528  1.1945  1.9831  0.2341
   57MOL0     H 7837   1.566   2.673  -0.423  0.5398 -0.4440 -0.6623
   57MOL0     H 7838   1.804   2.698  -0.543  0.4200  0.9148  0.2421
   57MOL0     H 7839   1.658   2.624  -0.624 -2.5849 -0.2507  2.4753
   57MOL0     H 7840   1.756   2.906  -0.684 -0.0161 -0.8437  1.0262
   57MOL0     H 7841   1.616   2.813  -0.751  0.7176 -0.5348 -1.6831
   57MOL0     H 7842   1.764   2.653  -0.855  1.1022 -0.8379  0.4908
   57MOL0     H 7843   1.894   2.764  -0.800 -1.1135  0.3856 -0.7040
   57MOL0     H 7844   1.849   2.819  -1.015  0.9598  0.4932  0.6948
   57MOL0     H 7845   1.786   2.944  -0.923  1.1777  0.4786 -2.6348
   57MOL0     H 7846   1.692   3.282  -0.169  0.3546 -1.2160  0.5606
   57MOL0     H 7847   1.687   3.497  -0.061 -2.5680 -1.7018 -2.5430
   57MOL0     H 7848   1.358   3.841   0.290  0.0511  0.3053 -0.0077
   57MOL0     H 7849   1.328   3.941   0.522 -1.0275 -0.1790  1.8654
   57MOL0     H 7850   1.982   3.443   2.098 -1.7805  2.0768 -0.9743
   57MOL0     H 7851   1.887   3.322   2.279  4.4973 -0.0967 -3.2595
   57MOL0     H 7852   1.779   3.021   2.582 -0.3571 -0.7628  0.8691
   57MOL0     H 7853   1.715   2.913   2.786  0.8395 -0.0154 -0.5207
   57MOL0     H 7854   1.520   2.852   2.949 -0.6936  1.6805  0.1442
   57MOL0     H 7855   1.696   2.828   3.005  0.1073 -0.4254 -0.1219
   57MOL0     H 7856   1.570   2.763   3.195  0.6834  0.3850  0.9389
   57MOL0     H 7857   1.469   2.917   3.181  0.7169  0.9101  1.0777
   57MOL0     H 7858   1.756   2.874   3.256  1.8987 -0.0609  0.3784
   57MOL0     H 7859   1.683   3.038   3.246  0.3421 -0.1941  0.2381
   57MOL0     H 7860   1.680   2.967   3.489  0.3127 -0.4717 -0.0868
   57MOL0     H 7861   1.593   2.822   3.433  3.2841 -0.7955 -0.7831
   57MOL0     H 7862   1.312   3.138   3.499 -0.9852 -0.2127  0.6919
   57MOL0     H 7863   1.612   3.276   2.970  0.9014 -2.3686  2.3425
   57MOL0     H 7864   1.775   3.487   2.774 -0.4722  0.6433  0.7900
   57MOL0     H 7865   1.629   3.484   2.678  0.3855  1.6064  0.1271
   57MOL0     H 7866   1.614   3.482   2.857 -1.1849  3.2090 -1.5988
   58MOL0     O 7867   7.910   8.264   1.681 -0.3402 -0.1197  1.4996
   58MOL0     C 7868   7.861   8.323   1.586  0.8469  0.5204  0.2494
   58MOL0     O 7869   7.790   8.264   1.480  0.1494  1.2448 -0.4222
   58MOL0     C 7870   7.786   8.121   1.461 -1.1968 -0.0902 -1.2831
   58MOL0     C 7871   7.848   8.012   1.528 -0.0892 -0.2232  0.0949
   58MOL0     C 7872   7.822   7.876   1.490  0.1650  0.6216  0.9475
   58MOL0     C 7873   7.731   7.848   1.393 -0.2122 -0.2296  1.3997
   58MOL0     O 7874   7.693   7.725   1.345 -0.2664 -0.0889  0.8519
   58MOL0     C 7875   7.665   7.634   1.449 -0.2685 -0.4482  0.3947
   58MOL0     C 7876   7.575   7.518   1.411  0.2968 -0.2023  0.1247
   58MOL0     C 7877   7.612   7.460   1.274  0.4084  0.0001 -0.5543
   58MOL0     C 7878   7.510   7.358   1.233 -0.3657 -0.2035  0.8277
   58MOL0     C 7879   7.551   7.278   1.105 -0.0836  0.0621  1.3146
   58MOL0     C 7880   7.421   7.222   1.048  0.7810 -0.0136 -0.0759
   58MOL0     C 7881   7.453   7.120   0.942  1.4282  0.2130  0.0514
   58MOL0     C 7882   7.527   6.998   0.986 -0.4894 -0.9169 -0.2354
   58MOL0     N 7883   7.461   6.877   0.932 -0.4596 -0.5503 -0.3196
   58MOL0     C 7884   7.380   6.791   1.007 -0.8122 -0.4043 -0.1778
   58MOL0     C 7885   7.339   6.713   0.906 -1.0483 -0.3877 -0.5855
   58MOL0     C 7886   7.243   6.590   0.921 -0.0594 -0.5161  0.5062
   58MOL0     C 7887   7.303   6.481   1.015 -0.0507 -0.0498 -0.0581
   58MOL0     C 7888   7.426   6.412   0.949  0.3730 -0.4999 -0.3547
   58MOL0     C 7889   7.528   6.369   1.052 -0.5926  0.2841 -0.9906
   58MOL0     O 7890   7.590   6.477   1.115 -0.2309  0.2989  0.3622
   58MOL0     C 7891   7.661   6.570   1.042  0.8339 -0.3877 -0.3138
   58MOL0     C 7892   7.687   6.693   1.101  0.2816 -0.3257  0.2308
   58MOL0     C 7893   7.768   6.792   1.038  0.4875 -0.3265 -0.2962
   58MOL0     C 7894   7.814   6.914   1.122  0.1706  0.1999  0.3107
   58MOL0     C 7895   7.808   6.765   0.905 -0.0288 -0.7927 -0.4663
   58MOL0     C 7896   7.876   6.861   0.816  0.0364 -0.5330  1.0610
   58MOL0     O 7897   7.885   6.994   0.858 -0.4138 -0.5472 -0.0422
   58MOL0     C 7898   7.968   7.080   0.796 -0.8997 -0.2928 -0.2923
   58MOL0     C 7899   8.076   7.050   0.715  0.1708 -0.6934 -0.1824
   58MOL0     C 7900   8.160   7.154   0.670  0.3441  0.1165 -0.0943
   58MOL0     C 7901   8.127   7.290   0.707 -0.3811 -0.3205  0.0533
   58MOL0     O 7902   8.203   7.396   0.667  0.0909 -0.2967 -1.0447
   58MOL0     C 7903   8.301   7.385   0.569 -0.0922  0.4148  0.1877
   58MOL0     C 7904   8.346   7.524   0.521  0.6732 -0.4593 -0.2873
   58MOL0     C 7905   8.415   7.615   0.625  0.2269 -0.1733 -0.8030
   58MOL0     C 7906   8.469   7.754   0.591  0.5199 -0.5396 -0.4241
   58MOL0     C 7907   8.508   7.827   0.719  0.2841  0.5048 -0.4347
   58MOL0     C 7908   8.519   7.981   0.722  0.3690  0.5409 -0.5707
   58MOL0     C 7909   8.558   8.024   0.857 -0.8219 -0.3379 -1.1079
   58MOL0     C 7910   8.641   8.152   0.863 -0.1422 -0.3301  0.9992
   58MOL0    Cl 7911   8.533   8.272   0.763 -0.1065  0.2701  0.2452
   58MOL0     C 7912   8.018   7.315   0.789  0.1478  0.0362  1.3264
   58MOL0     C 7913   7.936   7.210   0.825 -1.3665 -0.1037 -0.0586
   58MOL0     O 7914   7.928   6.813   0.716  0.3541  0.6980 -0.5936
   58MOL0     C 7915   7.772   6.647   0.845  0.1458 -1.0775 -0.6687
   58MOL0     C 7916   7.713   6.547   0.918  0.6367 -0.1893  0.2133
   58MOL0     N 7917   7.402   6.733   0.781 -0.5149 -0.1582 -0.4163
   58MOL0     N 7918   7.462   6.846   0.795  0.2762 -1.2530 -0.5388
   58MOL0     C 7919   7.669   7.951   1.324  0.1236 -0.2877 -0.3290
   58MOL0     C 7920   7.696   8.084   1.360 -0.0364  0.1363  0.3856
   58MOL0     C 7921   7.864   8.470   1.588  0.2483 -0.3088 -0.4861
   58MOL0     C 7922   7.957   8.522   1.679 -0.9593 -0.0875 -0.3249
   58MOL0     C 7923   8.001   8.657   1.681 -0.0773 -0.2639 -0.3879
   58MOL0     C 7924   7.936   8.751   1.604 -0.5050 -0.6902  1.3811
   58MOL0     O 7925   7.957   8.885   1.597 -0.2776 -0.4618  0.1052
   58MOL0     C 7926   8.088   8.937   1.632  0.7474 -0.7440 -0.4551
   58MOL0     C 7927   8.203   8.904   1.539  0.7612 -0.1994 -0.1326
   58MOL0     C 7928   8.152   8.900   1.392 -0.4403  0.4718  0.2140
   58MOL0     C 7929   8.277   8.885   1.300  0.7459 -0.9935  0.3509
   58MOL0     C 7930   8.304   9.018   1.228 -0.2299  0.0463 -0.8865
   58MOL0     C 7931   8.334   9.122   1.171 -0.2939  0.1275 -0.2663
   58MOL0     C 7932   7.848   8.688   1.503 -0.2488 -0.1416  0.4269
   58MOL0     C 7933   7.798   8.556   1.498  0.9918  0.7559  0.2169
   58MOL0     C 7934   7.711   8.517   1.379 -0.7813 -0.0534 -0.7102
   58MOL0     H 7935   7.899   8.034   1.621  2.7460 -1.4671 -1.0606
   58MOL0     H 7936   7.861   7.788   1.541 -2.5162 -1.5949 -0.5122
   58MOL0     H 7937   7.597   7.687   1.517 -0.8113  0.1852 -0.6140
   58MOL0     H 7938   7.750   7.601   1.509 -0.0349 -0.1781  0.2111
   58MOL0     H 7939   7.588   7.437   1.484 -4.1539 -1.6606 -0.3875
   58MOL0     H 7940   7.469   7.545   1.413  0.4975  2.4923 -5.4659
   58MOL0     H 7941   7.634   7.539   1.202  0.1895 -0.0682 -0.6981
   58MOL0     H 7942   7.705   7.406   1.296 -1.2565 -2.7882  0.1902
   58MOL0     H 7943   7.478   7.283   1.306  2.3316 -1.6520  0.6455
   58MOL0     H 7944   7.419   7.416   1.219 -0.0668  0.2736  0.8552
   58MOL0     H 7945   7.635   7.211   1.122 -0.4714 -1.3523 -1.7103
   58MOL0     H 7946   7.595   7.342   1.027 -0.4963 -0.5151  0.5940
   58MOL0     H 7947   7.362   7.174   1.126 -1.4543  2.8856  0.1852
   58MOL0     H 7948   7.347   7.294   1.012  2.4216  2.4132  1.1780
   58MOL0     H 7949   7.494   7.168   0.853 -2.2815  1.5163 -1.1006
   58MOL0     H 7950   7.356   7.082   0.907  0.4563  2.7759 -0.1971
   58MOL0     H 7951   7.622   7.016   0.936 -0.1144  3.0982  1.4566
   58MOL0     H 7952   7.539   7.008   1.095  2.1039  1.4334 -0.6178
   58MOL0     H 7953   7.361   6.805   1.114  0.2073  0.3927 -0.0822
   58MOL0     H 7954   7.211   6.541   0.829  1.3994  2.1486 -1.5533
   58MOL0     H 7955   7.147   6.621   0.963 -0.0089 -0.4262  0.5550
   58MOL0     H 7956   7.337   6.523   1.110 -1.1602  1.9313 -0.4831
   58MOL0     H 7957   7.216   6.418   1.035 -0.0858  0.3346  1.0677
   58MOL0     H 7958   7.379   6.328   0.899 -2.0454  0.1994  0.6202
   58MOL0     H 7959   7.476   6.481   0.880  0.8881 -0.2965  0.2033
   58MOL0     H 7960   7.479   6.302   1.124  1.3899 -1.2661 -1.0015
   58MOL0     H 7961   7.599   6.303   1.002 -1.6114 -0.5679 -1.3452
   58MOL0     H 7962   7.653   6.717   1.201  1.3895  1.0069  0.3080
   58MOL0     H 7963   7.814   6.888   1.228  1.4028 -0.2645  0.2144
   58MOL0     H 7964   7.754   7.004   1.105 -0.7019  0.0335  2.2988
   58MOL0     H 7965   7.919   6.929   1.094  0.2403 -2.7218 -1.3432
   58MOL0     H 7966   8.110   6.958   0.668 -0.2415 -0.6543 -0.5610
   58MOL0     H 7967   8.238   7.123   0.602 -0.9040 -1.4131 -0.8981
   58MOL0     H 7968   8.393   7.334   0.600 -0.1430 -1.2547 -2.1392
   58MOL0     H 7969   8.268   7.331   0.480  0.1974 -0.4194  0.5713
   58MOL0     H 7970   8.411   7.503   0.435  0.9528 -0.9609  0.0354
   58MOL0     H 7971   8.258   7.579   0.488  1.2639  1.5151  1.2496
   58MOL0     H 7972   8.501   7.552   0.648  1.1572  1.7039  1.2824
   58MOL0     H 7973   8.348   7.621   0.711 -0.0626  0.8336 -1.0908
   58MOL0     H 7974   8.381   7.804   0.550  1.0123 -0.2066 -1.0928
   58MOL0     H 7975   8.558   7.752   0.528  0.5211  2.1615 -0.6214
   58MOL0     H 7976   8.435   7.814   0.799  0.3299 -2.3857 -0.7626
   58MOL0     H 7977   8.601   7.781   0.752 -0.2859  0.0831  0.6482
   58MOL0     H 7978   8.418   8.009   0.692  1.3317  2.2543 -2.4318
   58MOL0     H 7979   8.586   8.032   0.652  0.1116  3.6045  1.2346
   58MOL0     H 7980   8.625   7.953   0.906 -0.9131  2.1187  3.0382
   58MOL0     H 7981   8.470   8.048   0.918  1.3262  3.3611  0.9359
   58MOL0     H 7982   8.736   8.151   0.809 -0.5246  2.0042  0.1184
   58MOL0     H 7983   8.654   8.179   0.968 -0.6605  2.3739  0.4456
   58MOL0     H 7984   7.990   7.414   0.822 -3.1185 -0.4924  0.4223
   58MOL0     H 7985   7.853   7.242   0.887 -1.3839 -0.8149  0.2976
   58MOL0     H 7986   7.812   6.614   0.749  0.8794  1.1654 -1.2033
   58MOL0     H 7987   7.684   6.457   0.865 -2.2359  0.9450 -0.3288
   58MOL0     H 7988   7.605   7.918   1.242  0.8558  1.6880 -1.7640
   58MOL0     H 7989   7.646   8.167   1.310  1.0887 -1.0874 -3.1106
   58MOL0     H 7990   8.016   8.455   1.741 -2.6012  0.4234  1.9304
   58MOL0     H 7991   8.083   8.698   1.739  1.9203 -1.6026 -2.1093
   58MOL0     H 7992   8.069   9.045   1.632 -2.1320 -1.1530 -1.4653
   58MOL0     H 7993   8.120   8.905   1.731  1.2554  2.1993  0.4222
   58MOL0     H 7994   8.251   8.808   1.560  3.0001  0.7737 -0.4404
   58MOL0     H 7995   8.282   8.979   1.554 -0.1329  0.2398  3.0123
   58MOL0     H 7996   8.082   8.818   1.376  0.8845 -0.7428  0.4376
   58MOL0     H 7997   8.112   8.998   1.363 -0.1050 -0.0002 -1.9997
   58MOL0     H 7998   8.249   8.806   1.229  1.7318 -2.7979  1.8744
   58MOL0     H 7999   8.365   8.841   1.348 -0.3001 -1.4717  1.9166
   58MOL0     H 8000   8.363   9.216   1.128  1.1859 -0.2881 -0.2635
   58MOL0     H 8001   7.815   8.757   1.426 -4.0617  1.7112  3.3622
   58MOL0     H 8002   7.769   8.471   1.299 -2.6806 -0.8276 -1.7085
   58MOL0     H 8003   7.637   8.439   1.398  0.0955 -1.1437 -1.6244
   58MOL0     H 8004   7.665   8.607   1.336 -0.5292  0.3886 -0.0629
   59MOL0     O 8005   7.054   4.429  10.624  0.6891  0.1053  0.6509
   59MOL0     C 8006   7.166   4.419  10.575 -0.3687 -1.1455  0.4436
   59MOL0     O 8007   7.248   4.311  10.592 -0.5863 -0.3792 -0.3765
   59MOL0     C 8008   7.196   4.208  10.669  0.1571  0.2226  0.4567
   59MOL0     C 8009   7.105   4.116  10.631  1.1943  0.4799 -0.6323
   59MOL0     C 8010   7.075   3.998  10.696  1.0629 -0.3339 -0.6663
   59MOL0     C 8011   7.123   3.984  10.827 -0.0072  0.8676 -0.2765
   59MOL0     O 8012   7.081   3.868  10.895 -0.6617 -0.1669 -0.4852
   59MOL0     C 8013   7.075   3.864  11.043 -0.1549  0.3341  0.0164
   59MOL0     C 8014   6.943   3.788  11.079 -0.0243 -0.4802  0.3460
   59MOL0     C 8015   6.944   3.776  11.233  0.3906  0.2005  0.0584
   59MOL0     C 8016   6.820   3.816  11.306  0.6889 -0.1160 -1.0187
   59MOL0     C 8017   6.701   3.724  11.285  0.5567 -0.0739 -0.2945
   59MOL0     C 8018   6.649   3.695  11.146  0.3935  0.3389 -0.1860
   59MOL0     C 8019   6.530   3.602  11.156  0.1513  0.7215 -0.0700
   59MOL0     C 8020   6.468   3.546  11.029  0.0601 -0.1395  0.6086
   59MOL0     N 8021   6.365   3.641  10.971 -0.3970  0.5214  0.2602
   59MOL0     C 8022   6.282   3.594  10.865 -0.7826 -0.1389  0.3207
   59MOL0     C 8023   6.191   3.695  10.851  0.6371  0.0586  0.0766
   59MOL0     C 8024   6.085   3.708  10.751  0.9848 -0.4530  0.7046
   59MOL0     C 8025   6.110   3.836  10.663  0.9723 -0.0162  0.1458
   59MOL0     C 8026   5.974   3.858  10.590 -0.7798 -0.7008  0.3672
   59MOL0     C 8027   6.016   3.938  10.458 -0.6361  1.0871 -0.3387
   59MOL0     O 8028   5.900   3.936  10.370 -0.1877 -0.5857 -0.2769
   59MOL0     C 8029   5.821   4.041  10.402  0.0802  0.0301 -0.9201
   59MOL0     C 8030   5.709   4.034  10.485 -0.5087 -0.3637 -0.6021
   59MOL0     C 8031   5.630   4.153  10.500 -1.0331  1.1219 -0.5707
   59MOL0     C 8032   5.525   4.138  10.607  0.7376  0.5659  0.4795
   59MOL0     C 8033   5.650   4.267  10.420  0.3416 -0.1033 -0.4944
   59MOL0     C 8034   5.562   4.387  10.403 -0.3963 -0.0961 -0.9908
   59MOL0     O 8035   5.609   4.495  10.337  0.3860  0.2321  0.0989
   59MOL0     C 8036   5.549   4.616  10.345  0.7422  0.3836  0.0800
   59MOL0     C 8037   5.558   4.701  10.238  0.0681 -0.3096  0.2305
   59MOL0     C 8038   5.503   4.832  10.236  0.2695 -0.1234 -0.6966
   59MOL0     C 8039   5.433   4.881  10.354 -0.2016 -0.4506 -0.2689
   59MOL0     O 8040   5.362   5.003  10.366 -1.4402  1.1446  0.7001
   59MOL0     C 8041   5.359   5.093  10.261 -0.2597  0.5880 -0.3359
   59MOL0     C 8042   5.272   5.204  10.315  0.3053  0.0616  0.9669
   59MOL0     C 8043   5.121   5.168  10.298  0.5586 -0.0056  0.5986
   59MOL0     C 8044   5.022   5.281  10.325 -0.7367 -0.0440 -0.1140
   59MOL0     C 8045   4.876   5.236  10.323  0.4022 -0.2754  0.4782
   59MOL0     C 8046   4.780   5.328  10.387 -0.2642 -0.0064 -0.1118
   59MOL0     C 8047   4.655   5.246  10.418  0.6492 -0.2681  0.0529
   59MOL0     C 8048   4.579   5.303  10.529 -0.4856  0.9425 -0.2158
   59MOL0    Cl 8049   4.555   5.481  10.501  0.1305  0.1074  0.3457
   59MOL0     C 8050   5.436   4.795  10.462  0.1303  0.1512 -0.2333
   59MOL0     C 8051   5.503   4.673  10.461  1.5262  0.0480 -0.0142
   59MOL0     O 8052   5.451   4.380  10.461  0.0650  0.3543 -0.2937
   59MOL0     C 8053   5.758   4.258  10.329 -0.7771  0.3336 -0.7592
   59MOL0     C 8054   5.853   4.158  10.328  0.4688 -0.3228 -0.4590
   59MOL0     N 8055   6.208   3.788  10.949 -0.5743 -0.0441  0.5734
   59MOL0     N 8056   6.316   3.751  11.018  0.0205 -0.1781  0.0919
   59MOL0     C 8057   7.222   4.077  10.875 -0.6355  0.1064 -1.1038
   59MOL0     C 8058   7.263   4.185  10.795  0.2020 -0.4815  0.2301
   59MOL0     C 8059   7.205   4.528  10.481  0.1590 -1.2793 -0.3325
   59MOL0     C 8060   7.281   4.506  10.365 -0.1701  0.4562  0.3341
   59MOL0     C 8061   7.333   4.605  10.283 -0.6100 -0.0396  0.0191
   59MOL0     C 8062   7.297   4.737  10.312  0.1083 -0.3297 -0.4746
   59MOL0     O 8063   7.342   4.849  10.237 -0.2705 -0.2238  1.0025
   59MOL0     C 8064   7.454   4.913  10.293 -0.0783 -0.1140  1.3402
   59MOL0     C 8065   7.410   5.047  10.353  0.1105 -0.2769  0.8833
   59MOL0     C 8066   7.544   5.121  10.398 -0.1393  0.2332 -0.4505
   59MOL0     C 8067   7.527   5.276  10.394  1.3330 -0.5648 -0.3368
   59MOL0     C 8068   7.650   5.356  10.424 -0.0446 -0.1148  0.2809
   59MOL0     C 8069   7.742   5.439  10.429 -0.5108  1.2131 -0.8807
   59MOL0     C 8070   7.225   4.762  10.429 -0.1432 -0.1579  0.6213
   59MOL0     C 8071   7.181   4.665  10.511 -0.5143 -0.1894  0.2762
   59MOL0     C 8072   7.118   4.716  10.635 -0.3645  0.2002  0.7430
   59MOL0     H 8073   7.068   4.122  10.528  0.4423 -0.4158 -0.4297
   59MOL0     H 8074   7.010   3.921  10.656 -1.2974  1.1521  0.0951
   59MOL0     H 8075   7.076   3.962  11.091  0.9713 -0.6130  2.0504
   59MOL0     H 8076   7.167   3.818  11.080 -0.6022  1.7359  3.1865
   59MOL0     H 8077   6.851   3.825  11.032  0.9026 -0.3272 -1.4202
   59MOL0     H 8078   6.955   3.696  11.021 -2.0915 -0.9937  0.6518
   59MOL0     H 8079   6.993   3.683  11.262  0.3525 -1.0738 -3.4666
   59MOL0     H 8080   7.014   3.851  11.268  1.5682 -0.5940 -0.5413
   59MOL0     H 8081   6.850   3.822  11.411  0.5065 -1.4716 -0.8751
   59MOL0     H 8082   6.786   3.917  11.281  0.5500 -0.0814 -0.6924
   59MOL0     H 8083   6.627   3.763  11.355 -1.7643 -2.3553 -1.3185
   59MOL0     H 8084   6.726   3.630  11.335 -2.4647 -0.2288  1.1222
   59MOL0     H 8085   6.612   3.782  11.092 -1.8267 -0.3041  0.1779
   59MOL0     H 8086   6.725   3.644  11.086  2.6163  3.8080 -0.5807
   59MOL0     H 8087   6.450   3.655  11.209  0.2604  0.3898  0.4364
   59MOL0     H 8088   6.562   3.512  11.211 -1.0073 -0.4851 -1.2886
   59MOL0     H 8089   6.533   3.537  10.942  1.9368 -2.9450  2.1547
   59MOL0     H 8090   6.420   3.451  11.051  3.1705 -1.7009  1.1899
   59MOL0     H 8091   6.280   3.504  10.804 -0.9848  1.5079 -2.2587
   59MOL0     H 8092   5.988   3.723  10.799  0.0488 -1.1068 -0.9419
   59MOL0     H 8093   6.084   3.617  10.691  0.6487 -0.4267  0.6713
   59MOL0     H 8094   6.114   3.920  10.733 -1.5570 -0.4780  0.9283
   59MOL0     H 8095   6.196   3.837  10.595  1.9460 -0.5005  1.3246
   59MOL0     H 8096   5.933   3.758  10.575 -3.3510 -0.0745  2.3739
   59MOL0     H 8097   5.901   3.917  10.647  0.2070  2.1088 -1.0842
   59MOL0     H 8098   6.046   4.041  10.484 -0.3226  1.3576 -1.7169
   59MOL0     H 8099   6.102   3.885  10.418 -0.2648  2.6816 -1.7747
   59MOL0     H 8100   5.681   3.950  10.546 -4.1007  1.8468  1.1431
   59MOL0     H 8101   5.525   4.229  10.667 -1.5436  2.2800 -1.8846
   59MOL0     H 8102   5.545   4.055  10.676  0.6741 -0.1077 -0.2944
   59MOL0     H 8103   5.427   4.125  10.559  0.6490  2.1582  0.1747
   59MOL0     H 8104   5.621   4.668  10.156  0.2069  1.0196 -0.2243
   59MOL0     H 8105   5.503   4.887  10.143 -3.6541 -3.0466 -2.7141
   59MOL0     H 8106   5.460   5.130  10.240 -0.6408  1.8497 -0.0906
   59MOL0     H 8107   5.311   5.059  10.169 -1.3295 -1.7717  1.0082
   59MOL0     H 8108   5.292   5.226  10.420 -0.4919 -1.5948  1.4973
   59MOL0     H 8109   5.279   5.297  10.258 -2.5710  1.2762  2.3725
   59MOL0     H 8110   5.089   5.102  10.380 -1.2656  1.2666  0.9821
   59MOL0     H 8111   5.111   5.123  10.199 -0.5252 -2.2260  1.6280
   59MOL0     H 8112   5.033   5.362  10.252  1.6025 -2.4259 -2.7128
   59MOL0     H 8113   5.053   5.319  10.423 -0.2467 -0.9066  0.0802
   59MOL0     H 8114   4.841   5.197  10.226  0.2015 -3.6352  1.7537
   59MOL0     H 8115   4.869   5.138  10.373  0.2229 -0.3872  0.2383
   59MOL0     H 8116   4.745   5.409  10.323 -0.1262 -1.8726 -2.6791
   59MOL0     H 8117   4.826   5.376  10.474  1.2247 -1.7594  0.1469
   59MOL0     H 8118   4.678   5.139  10.430  2.6132  0.1758  0.6343
   59MOL0     H 8119   4.588   5.255  10.333 -2.1342  2.4954  2.3226
   59MOL0     H 8120   4.639   5.295  10.620 -0.5697 -0.3633 -0.2508
   59MOL0     H 8121   4.476   5.268  10.547  0.1089 -1.6038 -1.3320
   59MOL0     H 8122   5.376   4.815  10.551  0.5205  3.4439 -0.5675
   59MOL0     H 8123   5.485   4.611  10.548 -2.1199 -0.5149 -0.9678
   59MOL0     H 8124   5.761   4.337  10.254  3.2231 -0.4685 -1.6908
   59MOL0     H 8125   5.917   4.167  10.241 -1.3451  2.0398 -1.6425
   59MOL0     H 8126   7.268   4.052  10.969  3.1633 -1.8867 -3.2332
   59MOL0     H 8127   7.342   4.252  10.828 -1.7362  2.7574 -1.2009
   59MOL0     H 8128   7.302   4.402  10.342  2.5216  1.1476 -0.7388
   59MOL0     H 8129   7.389   4.578  10.194 -1.3920 -1.5045 -0.0639
   59MOL0     H 8130   7.514   4.859  10.367  1.1399  2.7179  2.5951
   59MOL0     H 8131   7.515   4.933  10.204 -0.5893  3.1282  1.5850
   59MOL0     H 8132   7.361   5.031  10.450 -0.5143 -4.5303  0.0410
   59MOL0     H 8133   7.344   5.104  10.288 -0.4797 -2.5706 -0.6127
   59MOL0     H 8134   7.559   5.091  10.502  0.1800  2.4093  0.1669
   59MOL0     H 8135   7.629   5.092  10.336  2.8984  1.3340  2.8806
   59MOL0     H 8136   7.463   5.304  10.479  0.9328 -0.8604 -0.5378
   59MOL0     H 8137   7.466   5.308  10.309 -2.9397 -0.2001  2.5847
   59MOL0     H 8138   7.831   5.493  10.456 -0.0013 -0.1389  0.2870
   59MOL0     H 8139   7.182   4.858  10.458 -1.0988 -0.8765  1.6531
   59MOL0     H 8140   7.014   4.686  10.643  0.0892 -1.4540  0.7413
   59MOL0     H 8141   7.168   4.684  10.726 -1.2294 -1.8954  0.5230
   59MOL0     H 8142   7.115   4.826  10.640 -0.3148  0.3817 -1.8747
   60MOL0     O 8143   4.508   1.421   5.555  0.2507 -0.3089  0.2555
   60MOL0     C 8144   4.515   1.330   5.642 -0.1968 -0.0269 -0.5268
   60MOL0     O 8145   4.636   1.286   5.696 -0.6521  0.2372  0.2567
   60MOL0     C 8146   4.744   1.341   5.632  0.2024 -1.0459  0.3125
   60MOL0     C 8147   4.837   1.403   5.709  0.1758 -0.6705 -0.1123
   60MOL0     C 8148   4.951   1.467   5.654 -0.0401  0.1804  0.8161
   60MOL0     C 8149   4.972   1.465   5.513 -0.4350  0.6211  0.8196
   60MOL0     O 8150   5.075   1.541   5.460 -0.3190  0.1840 -0.1480
   60MOL0     C 8151   5.087   1.577   5.321  1.5448 -0.2547 -0.3696
   60MOL0     C 8152   5.170   1.465   5.257  0.0762  0.3371 -0.6435
   60MOL0     C 8153   5.165   1.475   5.098  0.3170  0.2732 -0.1762
   60MOL0     C 8154   5.056   1.380   5.046 -0.1668  0.1383  1.1548
   60MOL0     C 8155   5.101   1.230   5.047  0.6806 -0.1078  0.0689
   60MOL0     C 8156   5.198   1.195   4.938  0.1665 -0.6130 -0.7768
   60MOL0     C 8157   5.239   1.048   4.939  0.6444  0.0581  0.3082
   60MOL0     C 8158   5.385   1.023   4.988  0.4913 -0.5472 -0.4489
   60MOL0     N 8159   5.421   0.885   4.971  0.2260  0.5651  1.3313
   60MOL0     C 8160   5.414   0.789   5.066  0.3201  0.4684  0.8457
   60MOL0     C 8161   5.465   0.675   5.003  0.1050 -0.2820 -0.5368
   60MOL0     C 8162   5.471   0.538   5.062 -0.0861 -0.2940  0.6015
   60MOL0     C 8163   5.374   0.440   4.983  0.4619  0.7316 -1.3773
   60MOL0     C 8164   5.384   0.282   5.024  0.3441 -0.2239 -0.9830
   60MOL0     C 8165   5.277   0.197   4.960 -0.0123  0.2723  0.5295
   60MOL0     O 8166   5.140   0.252   4.971 -0.1569 -0.2407 -0.3933
   60MOL0     C 8167   5.063   0.250   5.085 -0.2764  0.1189 -1.5751
   60MOL0     C 8168   5.065   0.154   5.192  0.4912 -0.2395 -0.3011
   60MOL0     C 8169   4.969   0.158   5.297  0.1364 -0.1787  0.6848
   60MOL0     C 8170   4.990   0.068   5.410 -0.6924 -0.1887  0.2017
   60MOL0     C 8171   4.860   0.249   5.293  0.7282 -0.2271  0.2627
   60MOL0     C 8172   4.749   0.241   5.400 -0.1023 -1.1591 -0.8420
   60MOL0     O 8173   4.634   0.309   5.363  0.1504  0.1284 -0.3683
   60MOL0     C 8174   4.523   0.297   5.439  1.0867 -0.1608  0.6008
   60MOL0     C 8175   4.404   0.317   5.374  0.2744 -0.6054 -0.2193
   60MOL0     C 8176   4.279   0.298   5.442 -0.6238 -0.4376 -0.4661
   60MOL0     C 8177   4.273   0.280   5.577 -0.7794 -1.0425 -0.0298
   60MOL0     O 8178   4.152   0.306   5.631  0.6160  0.1897 -0.6536
   60MOL0     C 8179   4.059   0.196   5.643  0.5704  0.6423  0.3150
   60MOL0     C 8180   3.946   0.217   5.543  0.0570  0.1393  0.7327
   60MOL0     C 8181   3.825   0.132   5.570 -1.2972  0.0855  0.4174
   60MOL0     C 8182   3.704   0.184   5.490  0.0414  0.5373  0.4685
   60MOL0     C 8183   3.573   0.125   5.539 -0.6918 -0.0384  0.4776
   60MOL0     C 8184   3.462   0.191   5.461 -0.3137  1.0560  0.2089
   60MOL0     C 8185   3.330   0.182   5.523  0.0408  0.5299  0.2460
   60MOL0     C 8186   3.290   0.038   5.574  0.3280 -0.0787 -0.8953
   60MOL0    Cl 8187   3.130   0.039   5.638 -0.1051 -0.4155  0.1375
   60MOL0     C 8188   4.393   0.273   5.646  0.3822  0.5862 -0.2298
   60MOL0     C 8189   4.516   0.267   5.579  0.0645  0.2772  0.5999
   60MOL0     O 8190   4.758   0.155   5.489 -0.4707  0.0714 -0.8089
   60MOL0     C 8191   4.850   0.333   5.184 -0.8992 -0.4878  0.5662
   60MOL0     C 8192   4.951   0.336   5.088  0.9260 -0.2930 -1.1360
   60MOL0     N 8193   5.517   0.713   4.879 -0.9106  0.2316  0.1450
   60MOL0     N 8194   5.482   0.834   4.861  0.3429  0.0743 -0.2198
   60MOL0     C 8195   4.882   1.398   5.437  1.1746  0.1895  0.0483
   60MOL0     C 8196   4.771   1.336   5.492  0.6514  0.2950 -1.0485
   60MOL0     C 8197   4.389   1.282   5.695 -0.1443  0.9292  0.6816
   60MOL0     C 8198   4.398   1.232   5.826  1.2330  0.3136 -0.4334
   60MOL0     C 8199   4.281   1.167   5.872 -0.4420  0.2978  0.3372
   60MOL0     C 8200   4.158   1.164   5.800  0.2420  0.2841 -0.4256
   60MOL0     O 8201   4.050   1.095   5.851 -0.1719  0.9176  0.8137
   60MOL0     C 8202   3.935   1.079   5.777  0.7214  0.2095  0.5719
   60MOL0     C 8203   3.963   0.984   5.653  0.2784 -0.1674  0.0968
   60MOL0     C 8204   3.925   0.845   5.681 -0.0500 -0.4668 -0.4237
   60MOL0     C 8205   4.029   0.772   5.771  0.3152  0.7604 -1.0518
   60MOL0     C 8206   3.991   0.629   5.812 -0.9601  0.0757 -0.4694
   60MOL0     C 8207   3.956   0.518   5.835  0.2837  0.4079 -0.7878
   60MOL0     C 8208   4.157   1.231   5.681 -0.2658 -0.5080 -0.3132
   60MOL0     C 8209   4.272   1.270   5.619 -0.1029  0.2752  0.5564
   60MOL0     C 8210   4.257   1.306   5.477 -0.1216 -0.3093 -0.0898
   60MOL0     H 8211   4.825   1.403   5.817 -0.0613  0.8977 -0.1224
   60MOL0     H 8212   5.016   1.536   5.707  0.6379  1.1486 -1.1932
   60MOL0     H 8213   5.136   1.674   5.312 -2.9150  2.1789 -1.4639
   60MOL0     H 8214   4.987   1.592   5.280 -0.4538 -2.4773  3.1707
   60MOL0     H 8215   5.276   1.477   5.279 -0.0506  0.1608  0.1008
   60MOL0     H 8216   5.150   1.367   5.302  3.5369  0.8011  2.3268
   60MOL0     H 8217   5.147   1.574   5.055  0.7145 -0.1550 -1.3590
   60MOL0     H 8218   5.256   1.432   5.055 -1.0636 -0.8310 -2.1421
   60MOL0     H 8219   4.969   1.382   5.112 -1.0324  0.1115  0.0296
   60MOL0     H 8220   5.035   1.404   4.942  1.8388 -3.3299 -0.2292
   60MOL0     H 8221   5.018   1.177   4.999  0.5649  0.7615 -0.7267
   60MOL0     H 8222   5.125   1.197   5.148  0.5474 -1.9108 -0.4429
   60MOL0     H 8223   5.141   1.227   4.850 -0.1172  4.0270  0.8583
   60MOL0     H 8224   5.292   1.248   4.953 -0.2848  0.3583 -1.2751
   60MOL0     H 8225   5.242   1.023   4.833  0.2447  1.4913 -0.0580
   60MOL0     H 8226   5.164   0.986   4.990  0.5046  1.5119  1.9565
   60MOL0     H 8227   5.462   1.090   4.949  0.9919  1.5918  3.7574
   60MOL0     H 8228   5.388   1.062   5.090  1.3773 -0.4623 -0.4943
   60MOL0     H 8229   5.373   0.784   5.167 -2.7365  1.5267 -0.2451
   60MOL0     H 8230   5.446   0.550   5.168 -0.6300 -1.5907  0.6357
   60MOL0     H 8231   5.574   0.500   5.067 -0.5723 -1.8517 -0.4422
   60MOL0     H 8232   5.272   0.473   5.003  0.5901 -0.3730  1.8491
   60MOL0     H 8233   5.404   0.436   4.878  3.1396 -2.9211 -0.6858
   60MOL0     H 8234   5.484   0.251   4.991  0.8906 -1.6718  1.7039
   60MOL0     H 8235   5.377   0.273   5.133  2.5929  0.9424 -0.6878
   60MOL0     H 8236   5.300   0.195   4.853  4.8862  2.0448  1.2514
   60MOL0     H 8237   5.280   0.094   4.997 -2.1874  0.8592  2.5844
   60MOL0     H 8238   5.146   0.082   5.188  0.7529  0.0718 -0.8995
   60MOL0     H 8239   4.928  -0.021   5.392  1.8723 -2.5001  1.9461
   60MOL0     H 8240   4.979   0.120   5.506  0.3660  2.9163 -1.2353
   60MOL0     H 8241   5.095   0.039   5.405 -0.7892 -0.3294 -1.4497
   60MOL0     H 8242   4.406   0.357   5.273 -0.5995  0.1816  0.0600
   60MOL0     H 8243   4.184   0.312   5.392  1.4078  1.0237 -4.3588
   60MOL0     H 8244   4.109   0.103   5.618  0.2323  0.9473 -1.6013
   60MOL0     H 8245   4.027   0.178   5.746  2.5864 -1.0354  0.7082
   60MOL0     H 8246   3.917   0.322   5.548 -0.8899 -0.0006 -0.9750
   60MOL0     H 8247   3.981   0.198   5.441  1.1590  1.6913  0.7847
   60MOL0     H 8248   3.802   0.149   5.676 -1.9432  4.1691 -0.1838
   60MOL0     H 8249   3.851   0.030   5.543  0.8866  1.0091 -1.1929
   60MOL0     H 8250   3.715   0.158   5.385 -0.5405  2.4985 -0.1131
   60MOL0     H 8251   3.696   0.292   5.501 -1.6524  0.6653 -1.4698
   60MOL0     H 8252   3.572   0.016   5.535  0.4011 -0.0287 -1.3317
   60MOL0     H 8253   3.556   0.160   5.641 -2.2912  1.0517 -0.1314
   60MOL0     H 8254   3.461   0.131   5.369 -3.8746  3.6448 -1.6656
   60MOL0     H 8255   3.484   0.294   5.432  0.8873  0.6962 -0.2511
   60MOL0     H 8256   3.256   0.216   5.450 -1.1671  2.0614  2.0692
   60MOL0     H 8257   3.317   0.246   5.611 -1.3969 -0.2586  0.6367
   60MOL0     H 8258   3.365   0.007   5.648 -0.1167 -0.2739 -0.5244
   60MOL0     H 8259   3.282  -0.033   5.491 -1.5821 -0.4078 -0.4673
   60MOL0     H 8260   4.406   0.271   5.754 -0.7940  2.5641 -0.0044
   60MOL0     H 8261   4.604   0.255   5.641  0.6982  0.2985 -0.2828
   60MOL0     H 8262   4.767   0.401   5.168  0.3899  0.8374 -0.8854
   60MOL0     H 8263   4.916   0.401   5.010 -1.9524 -0.6074 -0.2082
   60MOL0     H 8264   4.900   1.397   5.330  2.0049  1.4853  0.1473
   60MOL0     H 8265   4.697   1.282   5.434 -1.4369  2.8382 -0.9177
   60MOL0     H 8266   4.482   1.225   5.894  0.8652 -1.8186 -0.1223
   60MOL0     H 8267   4.270   1.112   5.965 -0.3219  0.7618  0.6314
   60MOL0     H 8268   3.850   1.037   5.831  1.4067 -1.3416  0.5108
   60MOL0     H 8269   3.894   1.176   5.747 -0.6845 -0.3952  0.4757
   60MOL0     H 8270   4.065   0.979   5.613 -0.4022  1.9906 -2.1311
   60MOL0     H 8271   3.905   1.023   5.569  1.0805 -0.4121 -0.5814
   60MOL0     H 8272   3.828   0.828   5.728 -0.3138  1.4120 -0.2066
   60MOL0     H 8273   3.924   0.797   5.582 -0.2560  1.6041 -1.4989
   60MOL0     H 8274   4.041   0.833   5.861 -1.9208  1.7683 -1.3483
   60MOL0     H 8275   4.125   0.769   5.719  1.1952 -0.2273  0.5576
   60MOL0     H 8276   3.900   0.428   5.848  0.8349  0.3896  1.8735
   60MOL0     H 8277   4.069   1.236   5.618 -0.1698 -2.2802 -0.6462
   60MOL0     H 8278   4.346   1.281   5.417  1.3252  3.5931  0.1440
   60MOL0     H 8279   4.165   1.270   5.432 -0.7153  0.6635  0.3225
   60MOL0     H 8280   4.248   1.415   5.469 -0.5892 -0.4701 -2.3900
   61MOL0     O 8281  10.901   0.521   8.680 -0.3466  0.0579  0.9858
   61MOL0     C 8282  10.786   0.554   8.662  0.9289  1.0043  0.3676
   61MOL0     O 8283  10.685   0.464   8.622  1.1030  0.1941  0.7812
   61MOL0     C 8284  10.709   0.338   8.592  0.4955 -0.4468 -0.4082
   61MOL0     C 8285  10.802   0.303   8.491 -0.4776 -0.8407  0.1176
   61MOL0     C 8286  10.828   0.171   8.464 -0.1472 -0.0165  0.0507
   61MOL0     C 8287  10.744   0.073   8.508 -0.2384 -0.1893 -0.7980
   61MOL0     O 8288  10.774  -0.062   8.470 -0.0449  0.9575  0.9006
   61MOL0     C 8289  10.752  -0.170   8.560  0.5756  0.5308  0.3774
   61MOL0     C 8290  10.830  -0.301   8.509  0.6403  0.2178  0.2403
   61MOL0     C 8291  10.784  -0.346   8.365 -0.4158 -1.0535  0.7286
   61MOL0     C 8292  10.852  -0.475   8.332 -0.2536  0.3276  0.1502
   61MOL0     C 8293  10.807  -0.534   8.203  0.2179  0.4228  0.1895
   61MOL0     C 8294  10.879  -0.660   8.170 -0.2369  0.5197 -0.2976
   61MOL0     C 8295  10.869  -0.712   8.026 -0.3379 -0.0763  0.0547
   61MOL0     C 8296  10.995  -0.692   7.938  0.2320 -0.3048  0.4283
   61MOL0     N 8297  11.116  -0.766   7.988  0.1839  0.0470 -0.7785
   61MOL0     C 8298  11.243  -0.731   7.986  0.4092 -0.8248  0.1878
   61MOL0     C 8299  11.304  -0.823   8.062  0.2246 -0.3920 -0.1663
   61MOL0     C 8300  11.445  -0.827   8.100 -0.3834 -0.3693 -0.1910
   61MOL0     C 8301  11.530  -0.948   8.033 -0.0067  0.0347 -0.2050
   61MOL0     C 8302  11.675  -0.925   8.048 -0.8400  0.1067 -0.1695
   61MOL0     C 8303  11.746  -1.058   8.037  0.4092  0.7654  0.3862
   61MOL0     O 8304  11.890  -1.048   8.033  0.3791 -0.1928 -0.3203
   61MOL0     C 8305  11.957  -1.165   7.993 -0.6164  0.8755 -0.2028
   61MOL0     C 8306  11.961  -1.201   7.859 -0.2318 -0.2939 -0.0240
   61MOL0     C 8307  12.039  -1.319   7.832  1.8058 -0.7868 -0.3875
   61MOL0     C 8308  12.061  -1.341   7.685 -0.6567  0.3950 -0.4865
   61MOL0     C 8309  12.088  -1.396   7.940  0.2300 -0.0172 -0.0239
   61MOL0     C 8310  12.153  -1.531   7.922  0.4745 -0.9383 -0.2310
   61MOL0     O 8311  12.211  -1.588   8.039 -0.4519 -0.0315 -0.1323
   61MOL0     C 8312  12.294  -1.698   8.017 -0.2654 -0.4542 -0.3414
   61MOL0     C 8313  12.256  -1.832   7.982 -0.3678 -0.3045 -0.3294
   61MOL0     C 8314  12.360  -1.929   7.948 -0.1404  0.6704 -0.4877
   61MOL0     C 8315  12.495  -1.895   7.957  0.2919  0.5310 -0.2798
   61MOL0     O 8316  12.603  -1.976   7.938 -0.3437 -0.1008  0.1298
   61MOL0     C 8317  12.592  -2.089   7.850  0.2267  1.3477 -0.3959
   61MOL0     C 8318  12.721  -2.141   7.790  0.8388 -0.0850  0.5185
   61MOL0     C 8319  12.816  -2.206   7.894 -0.5391 -0.2170 -0.4347
   61MOL0     C 8320  12.933  -2.266   7.824 -0.6486 -0.8625 -0.4279
   61MOL0     C 8321  13.046  -2.330   7.905  0.8662  0.2939 -0.2252
   61MOL0     C 8322  12.990  -2.452   7.994  0.0675 -0.3167  0.3337
   61MOL0     C 8323  13.106  -2.510   8.084  0.0358  0.3355 -0.4109
   61MOL0     C 8324  13.055  -2.522   8.229  0.4270 -0.4520 -0.0375
   61MOL0    Cl 8325  12.930  -2.656   8.234  0.2120 -0.3059  0.0883
   61MOL0     C 8326  12.534  -1.769   7.987 -0.1746 -1.1107 -0.1989
   61MOL0     C 8327  12.433  -1.675   8.025  0.5973  0.0809  0.3927
   61MOL0     O 8328  12.172  -1.571   7.813  0.2626  0.4646  0.4979
   61MOL0     C 8329  12.074  -1.356   8.074 -0.4710 -0.5125  1.1810
   61MOL0     C 8330  12.019  -1.234   8.095  0.4850  0.2337  0.1964
   61MOL0     N 8331  11.213  -0.913   8.106  0.4123  0.8854 -0.0635
   61MOL0     N 8332  11.101  -0.888   8.054  0.3011  0.1516 -1.0406
   61MOL0     C 8333  10.655   0.109   8.610 -0.0538  0.0716 -0.3958
   61MOL0     C 8334  10.631   0.241   8.654 -0.4672 -0.1436 -0.4058
   61MOL0     C 8335  10.753   0.701   8.659 -0.2462  0.6404 -0.4928
   61MOL0     C 8336  10.650   0.756   8.588 -0.4464 -0.2624 -0.3143
   61MOL0     C 8337  10.618   0.894   8.594 -0.3785  0.0306 -0.4399
   61MOL0     C 8338  10.697   0.984   8.664 -0.1351 -0.2083  0.0207
   61MOL0     O 8339  10.674   1.115   8.663  0.9844  0.3796 -0.0952
   61MOL0     C 8340  10.653   1.165   8.792  0.8486 -1.2281 -0.2334
   61MOL0     C 8341  10.549   1.278   8.790  0.0645  1.0455  0.4006
   61MOL0     C 8342  10.548   1.355   8.922 -0.5927 -0.4268  0.2116
   61MOL0     C 8343  10.484   1.283   9.040  0.0355 -0.0395  0.2103
   61MOL0     C 8344  10.462   1.377   9.153  0.4457 -0.2249 -0.3034
   61MOL0     C 8345  10.440   1.447   9.251 -0.0151 -0.0562  0.7751
   61MOL0     C 8346  10.807   0.934   8.733  0.4892  0.2408  0.3028
   61MOL0     C 8347  10.832   0.795   8.731  0.0690  0.4628  0.0793
   61MOL0     C 8348  10.927   0.763   8.851 -0.8148 -0.5329  0.2377
   61MOL0     H 8349  10.850   0.384   8.436  3.7737 -3.0989  0.0563
   61MOL0     H 8350  10.908   0.150   8.393  2.3938  1.6495  2.2170
   61MOL0     H 8351  10.646  -0.199   8.562  1.1935 -1.9117  0.8274
   61MOL0     H 8352  10.784  -0.152   8.662 -0.4854  1.4794  0.5648
   61MOL0     H 8353  10.934  -0.270   8.509 -0.1586  3.2400  0.0062
   61MOL0     H 8354  10.815  -0.382   8.580  2.6439 -0.6611 -0.2947
   61MOL0     H 8355  10.676  -0.358   8.352 -1.3620  3.4722  2.4561
   61MOL0     H 8356  10.824  -0.278   8.290 -0.4329 -0.9120  0.8467
   61MOL0     H 8357  10.959  -0.456   8.322 -0.3817 -0.1508 -3.3037
   61MOL0     H 8358  10.850  -0.555   8.407  0.1233 -2.9009 -3.0396
   61MOL0     H 8359  10.816  -0.468   8.117 -1.8854 -2.2568 -2.2838
   61MOL0     H 8360  10.700  -0.556   8.208  0.1016  0.9233 -0.0536
   61MOL0     H 8361  10.985  -0.647   8.191  1.2052 -4.0388 -3.1458
   61MOL0     H 8362  10.854  -0.739   8.241 -1.1918 -1.2010 -2.4020
   61MOL0     H 8363  10.784  -0.661   7.981  0.4176  0.0723 -1.2597
   61MOL0     H 8364  10.841  -0.818   8.033  1.9634 -0.7363  0.1427
   61MOL0     H 8365  10.970  -0.742   7.844 -0.7844 -0.3889  0.7350
   61MOL0     H 8366  11.014  -0.590   7.904  1.1080 -1.0364 -1.3928
   61MOL0     H 8367  11.284  -0.651   7.926 -0.0158 -1.2094 -0.6242
   61MOL0     H 8368  11.465  -0.824   8.207 -1.1926  1.2165 -0.0365
   61MOL0     H 8369  11.484  -0.736   8.052 -0.6716 -1.1964 -2.0831
   61MOL0     H 8370  11.496  -1.031   8.096  0.2220 -0.6575 -0.9706
   61MOL0     H 8371  11.502  -0.975   7.931  0.3411  1.5669 -0.7299
   61MOL0     H 8372  11.722  -0.856   7.977  2.0638 -0.9227  0.5870
   61MOL0     H 8373  11.692  -0.894   8.151 -3.5183  0.0952  0.3481
   61MOL0     H 8374  11.722  -1.121   8.123 -1.8083  0.1490 -0.5921
   61MOL0     H 8375  11.716  -1.104   7.942  1.1142  3.7283 -1.3867
   61MOL0     H 8376  11.925  -1.128   7.787 -4.7901 -1.6389  0.5459
   61MOL0     H 8377  11.991  -1.278   7.629 -1.1435  2.0399  1.8229
   61MOL0     H 8378  12.039  -1.447   7.668  4.3346 -1.3085  1.6815
   61MOL0     H 8379  12.164  -1.322   7.655 -1.2711 -0.5194 -3.5390
   61MOL0     H 8380  12.151  -1.859   7.994 -0.6763  0.3519 -1.3981
   61MOL0     H 8381  12.321  -2.026   7.918 -0.2617 -0.0799  1.9154
   61MOL0     H 8382  12.551  -2.180   7.894  0.1862  1.8395  0.6021
   61MOL0     H 8383  12.521  -2.066   7.770  2.2079 -0.6471 -2.9022
   61MOL0     H 8384  12.704  -2.217   7.714 -2.3771  0.0603  0.9510
   61MOL0     H 8385  12.769  -2.051   7.751 -0.6595  1.1972  1.5141
   61MOL0     H 8386  12.756  -2.270   7.960 -2.0985  0.0099 -1.5740
   61MOL0     H 8387  12.858  -2.131   7.961  1.8687 -0.2199 -1.8342
   61MOL0     H 8388  12.971  -2.192   7.752 -0.1416 -1.7098 -1.0543
   61MOL0     H 8389  12.896  -2.344   7.757 -1.5582  0.8108 -1.9760
   61MOL0     H 8390  13.119  -2.366   7.831  1.1284 -0.0942  0.2215
   61MOL0     H 8391  13.094  -2.255   7.968 -2.2069  3.2189 -1.0627
   61MOL0     H 8392  12.964  -2.526   7.918  1.9861  2.1142 -2.9599
   61MOL0     H 8393  12.898  -2.424   8.046 -0.4980  2.6749 -1.9852
   61MOL0     H 8394  13.195  -2.448   8.070  0.7014 -0.3535  0.6300
   61MOL0     H 8395  13.131  -2.608   8.043  2.5571  0.2195  1.1814
   61MOL0     H 8396  13.020  -2.423   8.260  0.9524  0.0889 -1.1202
   61MOL0     H 8397  13.135  -2.548   8.300 -1.2479  0.9862  2.5444
   61MOL0     H 8398  12.641  -1.753   7.997  0.1335 -2.3970 -1.1599
   61MOL0     H 8399  12.463  -1.575   8.054 -0.5058  1.4447 -2.7794
   61MOL0     H 8400  12.118  -1.423   8.147 -1.3065 -3.1540 -0.6119
   61MOL0     H 8401  12.007  -1.188   8.192 -0.2125  0.7215 -0.1172
   61MOL0     H 8402  10.591   0.033   8.653  2.0197 -1.2648  0.5219
   61MOL0     H 8403  10.552   0.259   8.727 -0.1511 -2.7982  0.7201
   61MOL0     H 8404  10.577   0.690   8.542 -1.0777 -0.0273  0.3204
   61MOL0     H 8405  10.533   0.938   8.542  2.2189  3.9811 -1.8539
   61MOL0     H 8406  10.594   1.092   8.849  1.8664 -2.0793 -0.2545
   61MOL0     H 8407  10.743   1.197   8.844 -1.2210  2.0400  1.7096
   61MOL0     H 8408  10.454   1.237   8.754  0.6453  1.1290 -1.3477
   61MOL0     H 8409  10.572   1.352   8.712  0.7461  0.9605  0.5093
   61MOL0     H 8410  10.652   1.366   8.953 -0.7969  1.0559  0.4635
   61MOL0     H 8411  10.508   1.457   8.918 -0.9655 -0.5653  0.4008
   61MOL0     H 8412  10.531   1.188   9.069 -2.3685 -1.6333 -0.7133
   61MOL0     H 8413  10.385   1.249   9.006 -0.4471 -0.3963  1.8802
   61MOL0     H 8414  10.422   1.510   9.336 -4.0488  2.3182 -1.5264
   61MOL0     H 8415  10.863   1.003   8.795 -0.0170  3.1951 -2.2770
   61MOL0     H 8416  10.908   0.669   8.905  4.0304 -1.9422 -0.0517
   61MOL0     H 8417  11.032   0.768   8.820 -0.3784  1.1262  1.8424
   61MOL0     H 8418  10.913   0.840   8.927  1.9720 -2.4406  2.9240
   62MOL0     O 8419   1.066   6.209   7.562  0.3294  0.4574 -0.1314
   62MOL0     C 8420   1.013   6.278   7.641 -0.0331  0.1990 -0.3263
   62MOL0     O 8421   0.996   6.245   7.774 -0.8863  0.5824 -0.0517
   62MOL0     C 8422   0.965   6.120   7.808  0.1623 -0.2926  0.2950
   62MOL0     C 8423   1.026   6.040   7.904  0.1904 -0.0322 -0.0821
   62MOL0     C 8424   0.993   5.908   7.910 -0.1305  0.9876  1.1011
   62MOL0     C 8425   0.896   5.850   7.830 -0.0145  0.2346 -0.3387
   62MOL0     O 8426   0.852   5.717   7.846 -0.6520  0.1578  0.6369
   62MOL0     C 8427   0.946   5.628   7.905 -0.2690 -0.4357 -0.8297
   62MOL0     C 8428   0.886   5.490   7.914  0.0348 -0.1693 -0.0860
   62MOL0     C 8429   0.932   5.410   8.036 -0.8239 -0.2878 -0.0426
   62MOL0     C 8430   0.855   5.281   8.026  0.1117 -0.5045 -0.0035
   62MOL0     C 8431   0.902   5.199   8.140 -0.1218 -0.4271  1.3754
   62MOL0     C 8432   0.827   5.069   8.138  0.1486  0.4547  0.5574
   62MOL0     C 8433   0.868   4.973   8.259  0.1989 -1.0127  0.2794
   62MOL0     C 8434   1.003   4.896   8.247 -0.2850  1.3839 -0.0231
   62MOL0     N 8435   0.980   4.781   8.151 -0.1967  0.6384 -0.4208
   62MOL0     C 8436   0.990   4.788   8.012 -0.0169  0.0529  0.1408
   62MOL0     C 8437   1.000   4.656   7.966 -0.0663 -0.3054  0.0822
   62MOL0     C 8438   1.009   4.598   7.832  0.0949  0.3641 -0.2050
   62MOL0     C 8439   0.995   4.704   7.717 -0.1882  1.0055 -0.7181
   62MOL0     C 8440   1.132   4.763   7.677 -0.4406 -0.8743 -0.8808
   62MOL0     C 8441   1.106   4.911   7.650 -0.6083 -0.6654  0.4063
   62MOL0     O 8442   1.115   4.990   7.770 -0.0135 -0.0145 -0.5879
   62MOL0     C 8443   1.156   5.119   7.752  0.4757 -0.5623 -0.1748
   62MOL0     C 8444   1.217   5.182   7.855 -0.8701 -0.0814  0.2555
   62MOL0     C 8445   1.254   5.320   7.850  0.4968  0.2087  0.6847
   62MOL0     C 8446   1.299   5.391   7.973 -0.1018  0.4965 -0.6698
   62MOL0     C 8447   1.247   5.388   7.727 -0.0941  0.2857 -0.1896
   62MOL0     C 8448   1.296   5.533   7.704  0.9460  0.5337  0.2066
   62MOL0     O 8449   1.344   5.609   7.809  0.3268  0.1611  0.1397
   62MOL0     C 8450   1.372   5.736   7.766  0.4936 -0.0339 -1.2760
   62MOL0     C 8451   1.285   5.827   7.720  0.1387  0.2395 -0.0315
   62MOL0     C 8452   1.325   5.952   7.673 -0.1022 -1.1065  1.0416
   62MOL0     C 8453   1.457   5.991   7.688 -1.4611 -0.4701 -0.4161
   62MOL0     O 8454   1.513   6.110   7.652 -0.5964  0.0311 -0.2926
   62MOL0     C 8455   1.453   6.177   7.538 -0.4229  0.0649  0.2839
   62MOL0     C 8456   1.539   6.284   7.487  0.5328  0.6306  0.3355
   62MOL0     C 8457   1.482   6.351   7.368  0.5733 -1.3099 -0.6308
   62MOL0     C 8458   1.492   6.281   7.234 -0.4227 -0.2656  0.2646
   62MOL0     C 8459   1.437   6.343   7.106  0.1532 -1.3535 -0.4162
   62MOL0     C 8460   1.514   6.472   7.064 -1.0718 -0.1010  1.2806
   62MOL0     C 8461   1.466   6.513   6.925  0.4359 -0.0748  1.1786
   62MOL0     C 8462   1.508   6.664   6.895 -0.5178  1.2550  0.2082
   62MOL0    Cl 8463   1.449   6.767   7.013 -0.3048  0.3661  0.2956
   62MOL0     C 8464   1.550   5.904   7.735 -0.9035 -0.0748 -0.2095
   62MOL0     C 8465   1.505   5.769   7.776 -0.7291 -0.8805 -0.4445
   62MOL0     O 8466   1.276   5.572   7.588 -0.5797  0.2741  0.3721
   62MOL0     C 8467   1.187   5.315   7.615  0.0102  0.2454  0.1666
   62MOL0     C 8468   1.139   5.189   7.637  0.2940 -0.0911  0.5417
   62MOL0     N 8469   0.992   4.575   8.077 -0.3235 -0.1653  0.8327
   62MOL0     N 8470   0.981   4.651   8.183 -0.4039 -0.3295 -0.0856
   62MOL0     C 8471   0.830   5.930   7.736 -0.6534  1.0028 -0.4513
   62MOL0     C 8472   0.866   6.057   7.722  0.4613 -0.1710 -0.0192
   62MOL0     C 8473   0.931   6.398   7.594  0.8479 -0.5566  0.1980
   62MOL0     C 8474   0.843   6.467   7.686 -1.5190  0.5184 -0.1254
   62MOL0     C 8475   0.789   6.586   7.638  0.4683  0.0941 -0.4166
   62MOL0     C 8476   0.787   6.630   7.512  0.8070  0.8627  1.2119
   62MOL0     O 8477   0.716   6.748   7.483 -1.0339 -0.2314  0.4393
   62MOL0     C 8478   0.647   6.746   7.363 -0.3743 -0.7301  0.8629
   62MOL0     C 8479   0.719   6.837   7.274 -0.6821  0.5535  0.0244
   62MOL0     C 8480   0.641   6.873   7.144 -0.6910  0.6682 -0.5317
   62MOL0     C 8481   0.526   6.973   7.159  0.6177 -0.0534  0.0845
   62MOL0     C 8482   0.573   7.105   7.197  0.3336  0.8985  0.0562
   62MOL0     C 8483   0.594   7.220   7.224 -0.3455 -0.1559 -0.6088
   62MOL0     C 8484   0.859   6.558   7.411  0.4796  0.2604  0.5645
   62MOL0     C 8485   0.933   6.447   7.454  0.1422 -0.2324  0.9278
   62MOL0     C 8486   1.018   6.383   7.355 -0.1786 -0.5549 -0.2915
   62MOL0     H 8487   1.100   6.092   7.965  0.2140  1.3356 -1.2162
   62MOL0     H 8488   1.033   5.853   7.995 -0.1005 -3.2391 -1.3685
   62MOL0     H 8489   0.961   5.659   8.008  1.9518 -1.2569 -0.8641
   62MOL0     H 8490   1.041   5.634   7.851  0.8031 -0.8003  0.9504
   62MOL0     H 8491   0.778   5.504   7.909  0.5040  4.1886 -2.4942
   62MOL0     H 8492   0.907   5.432   7.823 -1.4471 -1.1310  0.1651
   62MOL0     H 8493   1.039   5.391   8.026 -0.3271  1.0819  1.9473
   62MOL0     H 8494   0.934   5.457   8.135  0.7487 -3.0550  1.3561
   62MOL0     H 8495   0.747   5.289   8.040 -0.0304 -3.2493  1.1584
   62MOL0     H 8496   0.873   5.229   7.931 -2.1668 -0.1601 -0.6823
   62MOL0     H 8497   0.891   5.247   8.238 -1.9887 -0.8628  1.4229
   62MOL0     H 8498   1.005   5.165   8.130  0.1139  0.8113 -1.4131
   62MOL0     H 8499   0.723   5.102   8.146 -0.0382  0.0775 -0.1558
   62MOL0     H 8500   0.835   5.010   8.045 -0.2009  0.2807  0.6358
   62MOL0     H 8501   0.783   4.905   8.269  0.2729 -1.5583 -2.0306
   62MOL0     H 8502   0.878   5.025   8.354  1.7246 -3.8841  1.8032
   62MOL0     H 8503   1.085   4.962   8.216 -0.6975  1.8535 -0.1362
   62MOL0     H 8504   1.033   4.858   8.345  1.8197  1.6767 -0.5019
   62MOL0     H 8505   1.005   4.873   7.946 -2.5799 -0.9022 -1.8813
   62MOL0     H 8506   0.927   4.529   7.812  0.7832 -0.5992  0.2206
   62MOL0     H 8507   1.103   4.543   7.825  0.6750  1.5252 -2.7627
   62MOL0     H 8508   0.956   4.666   7.622  0.2696  1.4000 -1.0642
   62MOL0     H 8509   0.927   4.784   7.748  1.4038  1.9859  0.3958
   62MOL0     H 8510   1.201   4.751   7.761 -0.3702 -0.7101 -0.9152
   62MOL0     H 8511   1.171   4.718   7.586  1.4440  0.4141 -0.7719
   62MOL0     H 8512   1.178   4.948   7.575 -1.0534 -4.3929 -2.1632
   62MOL0     H 8513   1.002   4.918   7.617 -0.6957  1.2426  0.9608
   62MOL0     H 8514   1.234   5.127   7.947  2.0972  0.3340  0.0448
   62MOL0     H 8515   1.259   5.492   7.979  5.0759  3.2336 -4.1831
   62MOL0     H 8516   1.406   5.404   7.991 -0.3597 -0.4684  2.1843
   62MOL0     H 8517   1.273   5.328   8.059  0.5288 -1.6102 -1.9265
   62MOL0     H 8518   1.179   5.803   7.725  0.3545 -0.7851 -0.2206
   62MOL0     H 8519   1.248   6.011   7.624  1.5112 -1.2094 -1.7994
   62MOL0     H 8520   1.442   6.101   7.460 -2.6336  1.7862 -1.1897
   62MOL0     H 8521   1.358   6.226   7.560  0.8010  2.3574  0.8571
   62MOL0     H 8522   1.550   6.363   7.562 -2.3185  0.3661  1.1798
   62MOL0     H 8523   1.638   6.242   7.468 -0.0815  0.0843 -1.9104
   62MOL0     H 8524   1.534   6.446   7.348 -0.3547 -0.9463 -1.4348
   62MOL0     H 8525   1.376   6.374   7.384  1.3193  2.2404  0.0712
   62MOL0     H 8526   1.447   6.182   7.245 -0.6947 -0.1445  0.2422
   62MOL0     H 8527   1.599   6.274   7.211 -0.2415  0.7034  0.7797
   62MOL0     H 8528   1.445   6.269   7.026 -0.0149 -4.9239  2.5937
   62MOL0     H 8529   1.330   6.366   7.118  0.3690  0.8002 -2.1035
   62MOL0     H 8530   1.620   6.448   7.049 -1.0810  0.6593 -0.1987
   62MOL0     H 8531   1.508   6.548   7.143  0.9807  3.1156 -1.3715
   62MOL0     H 8532   1.359   6.517   6.949  0.1988 -2.8859  0.9303
   62MOL0     H 8533   1.485   6.437   6.850 -1.3501 -0.6776  1.2858
   62MOL0     H 8534   1.462   6.687   6.798  0.9588  1.7654 -0.4017
   62MOL0     H 8535   1.616   6.671   6.881 -0.4433  0.6877  0.4883
   62MOL0     H 8536   1.655   5.925   7.749 -0.3453 -0.2331 -3.3454
   62MOL0     H 8537   1.581   5.703   7.815  0.8659  1.1900  0.1774
   62MOL0     H 8538   1.169   5.364   7.520  0.0245 -1.9538 -1.0160
   62MOL0     H 8539   1.079   5.150   7.555 -0.5561 -0.0451  1.1348
   62MOL0     H 8540   0.755   5.896   7.666 -1.0041  1.2102 -0.1848
   62MOL0     H 8541   0.791   6.105   7.659 -1.5038  0.7875  2.8671
   62MOL0     H 8542   0.839   6.440   7.791  0.3963  1.2850  0.1925
   62MOL0     H 8543   0.744   6.651   7.712  2.1286 -0.6161  1.3020
   62MOL0     H 8544   0.625   6.644   7.331 -4.3863 -0.2434  1.5286
   62MOL0     H 8545   0.549   6.788   7.390  1.6243  4.0961  1.6337
   62MOL0     H 8546   0.818   6.800   7.244 -0.2147  1.7367  0.0298
   62MOL0     H 8547   0.751   6.930   7.322 -0.1926 -0.1397  1.0823
   62MOL0     H 8548   0.706   6.900   7.061 -2.3632  2.3102 -1.3700
   62MOL0     H 8549   0.599   6.773   7.125 -0.5236  0.4039  0.4115
   62MOL0     H 8550   0.446   6.943   7.227  0.8954  0.7227  0.7773
   62MOL0     H 8551   0.480   6.966   7.061  0.4230 -4.5833  0.2890
   62MOL0     H 8552   0.596   7.322   7.258  1.6856 -0.2264 -0.3726
   62MOL0     H 8553   0.872   6.603   7.313  1.8047 -0.0660  0.5730
   62MOL0     H 8554   1.030   6.456   7.275 -2.0763  0.2775  0.1526
   62MOL0     H 8555   1.118   6.349   7.384 -1.1786 -2.3256  1.3308
   62MOL0     H 8556   0.969   6.294   7.314 -2.2773 -1.2108  3.2621
   63MOL0     O 8557   8.767   3.255   6.462 -0.2883 -0.2593 -0.0218
   63MOL0     C 8558   8.755   3.285   6.577  1.1730  0.7725 -0.5270
   63MOL0     O 8559   8.808   3.229   6.687  0.9535  0.2281 -0.3648
   63MOL0     C 8560   8.889   3.128   6.654  0.2850  1.1063  0.3712
   63MOL0     C 8561   9.016   3.145   6.617  0.0235 -0.6355  0.7494
   63MOL0     C 8562   9.105   3.044   6.591 -0.1423 -0.1409  0.3471
   63MOL0     C 8563   9.052   2.913   6.578 -0.8639 -1.2223  0.4109
   63MOL0     O 8564   9.136   2.806   6.533 -0.0823 -0.0882  0.0556
   63MOL0     C 8565   9.249   2.833   6.457 -0.1589  0.1837 -0.2133
   63MOL0     C 8566   9.203   2.886   6.311  0.2678 -0.3681 -0.0661
   63MOL0     C 8567   9.291   2.844   6.196  0.3512 -0.6711  0.3183
   63MOL0     C 8568   9.225   2.841   6.054 -0.6098 -0.1606 -1.1537
   63MOL0     C 8569   9.161   2.705   6.042  0.6410  0.2352 -0.8652
   63MOL0     C 8570   9.239   2.610   5.954 -0.5894  0.3792  0.3533
   63MOL0     C 8571   9.154   2.503   5.880 -0.0023 -1.1219  0.3803
   63MOL0     C 8572   9.232   2.434   5.768  0.2504  0.3621 -0.9120
   63MOL0     N 8573   9.324   2.342   5.848  0.5771  0.0009  0.0022
   63MOL0     C 8574   9.298   2.244   5.939  1.2793 -0.3721  0.4742
   63MOL0     C 8575   9.416   2.186   5.961 -0.2915 -0.7070  0.6116
   63MOL0     C 8576   9.421   2.085   6.076 -0.0359  0.3787  0.8087
   63MOL0     C 8577   9.374   1.949   6.015  0.1455  0.9945 -1.1615
   63MOL0     C 8578   9.466   1.905   5.897  0.2408 -0.1357  0.0956
   63MOL0     C 8579   9.444   1.757   5.880 -0.1740 -0.0688  0.5253
   63MOL0     O 8580   9.308   1.737   5.833  0.1098  1.0790 -0.0379
   63MOL0     C 8581   9.272   1.606   5.826 -1.0983  0.1934  0.0387
   63MOL0     C 8582   9.364   1.493   5.810  1.0724 -0.0208 -0.7082
   63MOL0     C 8583   9.304   1.360   5.815 -0.4965 -0.3776  0.6854
   63MOL0     C 8584   9.409   1.263   5.828 -0.9186  0.3181 -0.1725
   63MOL0     C 8585   9.165   1.346   5.821 -0.3512  0.3051  0.7022
   63MOL0     C 8586   9.097   1.213   5.814  1.0268  0.2836  0.3663
   63MOL0     O 8587   9.146   1.107   5.886 -0.7851 -0.3619  0.1237
   63MOL0     C 8588   9.097   0.979   5.869  0.5395 -0.0586 -0.2236
   63MOL0     C 8589   9.185   0.875   5.846  1.5333 -0.1181  0.5385
   63MOL0     C 8590   9.121   0.741   5.834 -0.5026 -0.3453  0.4158
   63MOL0     C 8591   8.981   0.722   5.844  1.0538  0.0255 -0.3079
   63MOL0     O 8592   8.921   0.600   5.819  0.3157  0.1605 -0.7103
   63MOL0     C 8593   8.962   0.476   5.880  0.4074  0.3263  0.3522
   63MOL0     C 8594   8.840   0.384   5.871  0.0034 -0.5987 -1.2053
   63MOL0     C 8595   8.739   0.441   5.975 -0.4337  0.2375  0.2618
   63MOL0     C 8596   8.605   0.360   5.980  0.3036 -0.2938 -0.3173
   63MOL0     C 8597   8.523   0.369   5.856  0.4487 -0.8336 -0.0635
   63MOL0     C 8598   8.516   0.510   5.790 -1.2623 -0.2754  0.4847
   63MOL0     C 8599   8.395   0.525   5.712  0.0086  0.1076 -0.4190
   63MOL0     C 8600   8.402   0.473   5.570  0.6167 -0.4910  0.9504
   63MOL0    Cl 8601   8.402   0.295   5.554 -0.0762  0.0058 -0.0058
   63MOL0     C 8602   8.901   0.833   5.861  0.0964 -0.3040  1.3783
   63MOL0     C 8603   8.958   0.957   5.887  0.4179  0.3374 -0.2398
   63MOL0     O 8604   9.011   1.209   5.724  0.4062  0.1522  0.0942
   63MOL0     C 8605   9.078   1.457   5.814  0.1411 -1.3702 -0.2154
   63MOL0     C 8606   9.142   1.586   5.828  1.0292  0.7918  1.1254
   63MOL0     N 8607   9.515   2.250   5.883 -0.0145  0.2235 -0.2838
   63MOL0     N 8608   9.458   2.345   5.824  0.1083 -1.2275 -0.4655
   63MOL0     C 8609   8.922   2.888   6.619 -1.1674 -0.2282  0.0662
   63MOL0     C 8610   8.840   2.996   6.656 -0.4847 -0.7685 -0.2448
   63MOL0     C 8611   8.665   3.393   6.600 -0.1729 -0.7517 -0.1729
   63MOL0     C 8612   8.570   3.384   6.698 -0.0536 -0.6505  0.5299
   63MOL0     C 8613   8.485   3.487   6.737 -0.2675 -0.7896 -0.1237
   63MOL0     C 8614   8.481   3.604   6.669  0.3121  0.6082 -0.1890
   63MOL0     O 8615   8.396   3.712   6.682 -0.0894 -0.1394  0.2692
   63MOL0     C 8616   8.264   3.703   6.749 -0.0911  0.2797 -0.8439
   63MOL0     C 8617   8.278   3.792   6.873 -0.2649  0.5707  0.2301
   63MOL0     C 8618   8.333   3.725   6.991  0.4263  0.8104 -0.0638
   63MOL0     C 8619   8.349   3.825   7.106 -0.2119  0.2800  0.2702
   63MOL0     C 8620   8.391   3.752   7.229  0.5872  0.0950 -0.3455
   63MOL0     C 8621   8.438   3.694   7.322 -0.0529  0.3663 -0.3755
   63MOL0     C 8622   8.580   3.616   6.569 -0.9276 -0.3900  0.4547
   63MOL0     C 8623   8.669   3.517   6.522 -0.3741 -0.1666  0.0026
   63MOL0     C 8624   8.778   3.541   6.422 -0.3247 -0.5513  1.4982
   63MOL0     H 8625   9.049   3.248   6.621  1.5770 -1.0066 -1.0933
   63MOL0     H 8626   9.210   3.064   6.571 -0.2650 -0.2312 -0.4058
   63MOL0     H 8627   9.286   2.730   6.447  2.3061  1.2009 -2.7174
   63MOL0     H 8628   9.334   2.884   6.504  1.8869 -0.4237 -2.9818
   63MOL0     H 8629   9.105   2.849   6.282 -1.0360  2.7518 -0.0240
   63MOL0     H 8630   9.199   2.995   6.315  3.9588 -0.0463 -1.1645
   63MOL0     H 8631   9.372   2.918   6.201 -0.5776  0.2797  1.8739
   63MOL0     H 8632   9.340   2.750   6.224 -0.7931 -1.5677 -0.5669
   63MOL0     H 8633   9.150   2.920   6.052  0.9954  2.2393  6.1468
   63MOL0     H 8634   9.296   2.860   5.973 -0.7538 -2.2196 -1.8299
   63MOL0     H 8635   9.059   2.709   6.002 -0.7796 -2.3516  2.0668
   63MOL0     H 8636   9.134   2.654   6.136 -3.8721 -2.0511 -3.0718
   63MOL0     H 8637   9.287   2.674   5.879  0.8817 -0.2649  0.7194
   63MOL0     H 8638   9.321   2.564   6.009 -0.7923 -0.5149 -0.0697
   63MOL0     H 8639   9.067   2.562   5.849  0.7807  0.9170  1.9035
   63MOL0     H 8640   9.105   2.429   5.944  1.2040 -0.5301  2.0490
   63MOL0     H 8641   9.171   2.374   5.701  3.6405 -0.5657 -3.4752
   63MOL0     H 8642   9.283   2.491   5.690  0.2296 -0.9573 -1.9152
   63MOL0     H 8643   9.202   2.225   5.986 -0.5475  2.4992 -1.7205
   63MOL0     H 8644   9.357   2.112   6.161 -1.4496 -0.1797 -0.0393
   63MOL0     H 8645   9.527   2.072   6.101  0.6224 -0.8891 -2.1874
   63MOL0     H 8646   9.379   1.869   6.090  0.4994  0.3052 -1.9028
   63MOL0     H 8647   9.275   1.961   5.970 -1.0938 -4.3930 -0.6050
   63MOL0     H 8648   9.441   1.960   5.806 -0.8809 -1.4621 -0.4380
   63MOL0     H 8649   9.570   1.921   5.927  0.1427 -1.8816  1.5433
   63MOL0     H 8650   9.510   1.713   5.804 -1.1279 -0.9697  0.1976
   63MOL0     H 8651   9.457   1.693   5.967 -0.8824 -1.3640 -0.2890
   63MOL0     H 8652   9.470   1.518   5.806  1.2024 -0.0900  1.5269
   63MOL0     H 8653   9.485   1.277   5.751 -0.1962 -2.6578 -0.0843
   63MOL0     H 8654   9.364   1.163   5.826 -2.0937  0.8232 -2.2353
   63MOL0     H 8655   9.454   1.275   5.927 -0.9096  1.7073 -0.3197
   63MOL0     H 8656   9.288   0.909   5.845  1.2359  0.9850  2.2824
   63MOL0     H 8657   9.172   0.648   5.811  2.4229  0.4426  2.9759
   63MOL0     H 8658   9.035   0.424   5.817 -0.7714 -1.5315  0.4643
   63MOL0     H 8659   9.007   0.494   5.978 -1.0253  1.0611  0.9014
   63MOL0     H 8660   8.805   0.368   5.769 -0.9349 -1.3865 -0.7803
   63MOL0     H 8661   8.876   0.288   5.910  0.2255  0.4301  1.3251
   63MOL0     H 8662   8.710   0.546   5.965  0.3076  0.5877  1.5481
   63MOL0     H 8663   8.784   0.440   6.075  1.3572 -0.0464 -0.4980
   63MOL0     H 8664   8.540   0.391   6.063  1.9604 -0.0415  0.9437
   63MOL0     H 8665   8.626   0.253   5.983  2.4189  0.1012  1.2962
   63MOL0     H 8666   8.562   0.293   5.788 -1.0901 -0.3461 -1.5443
   63MOL0     H 8667   8.423   0.332   5.882  1.1255 -0.6091  3.4291
   63MOL0     H 8668   8.600   0.515   5.719  0.0438  0.0715  2.0028
   63MOL0     H 8669   8.522   0.577   5.875 -0.2987 -0.7270  0.7959
   63MOL0     H 8670   8.374   0.631   5.702  0.5250  0.1218 -1.5562
   63MOL0     H 8671   8.308   0.495   5.771  0.3473  0.6154  0.3685
   63MOL0     H 8672   8.481   0.526   5.516 -0.6329  3.0079  2.2794
   63MOL0     H 8673   8.315   0.504   5.511  1.0588  0.6548  0.8829
   63MOL0     H 8674   8.794   0.819   5.848  0.3640  0.4711 -4.5599
   63MOL0     H 8675   8.900   1.040   5.925 -1.5644 -0.5190 -1.2368
   63MOL0     H 8676   8.972   1.439   5.826 -0.0645 -0.7476 -1.0591
   63MOL0     H 8677   9.064   1.662   5.837 -0.8947 -1.2635  3.1520
   63MOL0     H 8678   8.887   2.786   6.615  0.9834 -1.0121 -2.9658
   63MOL0     H 8679   8.735   2.978   6.677 -0.9913  1.1382 -1.0243
   63MOL0     H 8680   8.555   3.291   6.752  0.5091  0.3055  2.4488
   63MOL0     H 8681   8.406   3.493   6.811 -1.5650  1.0275 -1.5678
   63MOL0     H 8682   8.179   3.735   6.687  1.4555  0.7776 -2.8119
   63MOL0     H 8683   8.246   3.606   6.796  0.1394 -0.7016 -2.7143
   63MOL0     H 8684   8.178   3.834   6.889 -0.8888 -0.3339 -1.1453
   63MOL0     H 8685   8.338   3.880   6.847  0.2357  1.2735  3.3014
   63MOL0     H 8686   8.264   3.646   7.022  0.2367  0.3517 -1.5727
   63MOL0     H 8687   8.432   3.682   6.969  0.0628 -0.3602  0.4790
   63MOL0     H 8688   8.255   3.877   7.126 -0.2911  0.7967 -1.3671
   63MOL0     H 8689   8.427   3.901   7.091 -1.1017  0.7627 -2.3039
   63MOL0     H 8690   8.484   3.632   7.396 -1.4201 -1.9686 -1.3757
   63MOL0     H 8691   8.579   3.707   6.509 -1.8974 -1.5415 -1.3830
   63MOL0     H 8692   8.772   3.483   6.330 -0.9754  1.1776  0.4035
   63MOL0     H 8693   8.771   3.647   6.396  2.7858 -0.6312 -0.1609
   63MOL0     H 8694   8.878   3.537   6.467  2.2877  3.4713 -2.9685
   64MOL0     O 8695   3.770   8.485   0.260  0.3275 -0.1121 -0.1015
   64MOL0     C 8696   3.844   8.539   0.343  0.7387  0.1893  0.2497
   64MOL0     O 8697   3.952   8.483   0.388 -0.5391 -0.3947  0.3472
   64MOL0     C 8698   4.014   8.373   0.338 -0.2175  0.2761 -1.1298
   64MOL0     C 8699   3.967   8.264   0.258  0.5547 -0.3392 -1.0554
   64MOL0     C 8700   4.035   8.152   0.237 -0.4008 -0.6334  0.6553
   64MOL0     C 8701   4.169   8.145   0.276 -0.5305 -0.6454 -0.1511
   64MOL0     O 8702   4.246   8.035   0.253  0.0441  0.5231 -0.2915
   64MOL0     C 8703   4.341   8.055   0.154 -0.6925 -0.9917  0.3177
   64MOL0     C 8704   4.433   7.937   0.155 -0.1906 -0.8091 -0.5448
   64MOL0     C 8705   4.353   7.812   0.116 -1.0033 -0.3105 -0.5622
   64MOL0     C 8706   4.372   7.688   0.209 -0.2873  0.8619 -0.3340
   64MOL0     C 8707   4.346   7.555   0.128  0.0306  0.4790  0.0239
   64MOL0     C 8708   4.395   7.422   0.207 -0.2961 -0.5668  1.3763
   64MOL0     C 8709   4.544   7.426   0.240  0.2526 -0.3832  0.7866
   64MOL0     C 8710   4.627   7.451   0.115 -0.0413  0.1502  0.3635
   64MOL0     N 8711   4.764   7.402   0.141 -0.1142 -0.3491  0.0383
   64MOL0     C 8712   4.828   7.291   0.095  0.3545 -0.4413  0.0815
   64MOL0     C 8713   4.945   7.279   0.157 -0.1592 -0.3388  0.1497
   64MOL0     C 8714   5.040   7.161   0.145  0.7630  0.4023 -0.3211
   64MOL0     C 8715   5.138   7.180   0.026 -0.2211  0.5231 -0.8462
   64MOL0     C 8716   5.228   7.061   0.000  0.6802  0.2683 -0.4282
   64MOL0     C 8717   5.338   7.103  -0.098  0.3321 -0.1220  0.3527
   64MOL0     O 8718   5.298   7.171  -0.219 -0.2891 -0.1569 -0.6846
   64MOL0     C 8719   5.223   7.101  -0.314 -0.5072  0.4228  0.2669
   64MOL0     C 8720   5.114   7.146  -0.385  0.9982  0.2730 -0.8506
   64MOL0     C 8721   5.051   7.082  -0.495 -0.0936  0.4370  0.0299
   64MOL0     C 8722   4.935   7.152  -0.554  0.1157  0.2540  0.6341
   64MOL0     C 8723   5.097   6.958  -0.535 -0.8706 -0.1131  0.0511
   64MOL0     C 8724   5.030   6.886  -0.640  0.6612  1.0765 -0.1277
   64MOL0     O 8725   5.009   6.939  -0.771 -0.5323 -0.3995 -0.6367
   64MOL0     C 8726   4.960   6.847  -0.860  0.3315  0.0669  0.0191
   64MOL0     C 8727   4.832   6.790  -0.848  0.1373 -0.0597  0.1650
   64MOL0     C 8728   4.794   6.686  -0.935  1.1727  0.3158  0.4225
   64MOL0     C 8729   4.884   6.637  -1.030 -0.7272  0.5377  0.9543
   64MOL0     O 8730   4.861   6.532  -1.113  0.3190  0.1195  0.1335
   64MOL0     C 8731   4.963   6.421  -1.130  0.6482 -0.0454 -0.0444
   64MOL0     C 8732   4.885   6.297  -1.163 -0.7835 -0.2681  0.2957
   64MOL0     C 8733   4.980   6.168  -1.148 -0.1106  0.1593  0.0490
   64MOL0     C 8734   4.916   6.041  -1.170 -0.0720 -0.3260 -0.2263
   64MOL0     C 8735   5.004   5.918  -1.155  0.2127  0.4835 -1.0868
   64MOL0     C 8736   5.122   5.921  -1.246 -1.0154 -1.0923  0.7591
   64MOL0     C 8737   5.188   5.778  -1.255 -1.3922  0.0020  0.1696
   64MOL0     C 8738   5.230   5.738  -1.393  0.1243 -0.1480 -0.4384
   64MOL0    Cl 8739   5.281   5.572  -1.414  0.1656  0.1125  0.1547
   64MOL0     C 8740   5.009   6.700  -1.055  0.2063  0.0940  0.0750
   64MOL0     C 8741   5.044   6.807  -0.963  0.0798 -0.2837  0.4393
   64MOL0     O 8742   4.996   6.770  -0.611 -0.1319  0.6085  0.5264
   64MOL0     C 8743   5.211   6.912  -0.470  0.1084  0.6346  1.1351
   64MOL0     C 8744   5.275   6.985  -0.368 -0.7022  0.0509 -0.2434
   64MOL0     N 8745   4.957   7.387   0.238  0.0103 -0.1769 -0.1845
   64MOL0     N 8746   4.854   7.470   0.223  0.0277  0.3467  1.0945
   64MOL0     C 8747   4.222   8.261   0.339  0.0433  0.0157  0.3879
   64MOL0     C 8748   4.144   8.366   0.383  0.3227  0.0798 -0.1640
   64MOL0     C 8749   3.789   8.662   0.409  0.5616  1.0436 -0.7328
   64MOL0     C 8750   3.855   8.713   0.524  0.7060  0.6173  0.2599
   64MOL0     C 8751   3.806   8.824   0.582 -1.0167 -0.4910 -0.2714
   64MOL0     C 8752   3.690   8.889   0.541  0.5339  0.2711  1.0666
   64MOL0     O 8753   3.666   9.010   0.600 -0.4912  0.3309 -0.5581
   64MOL0     C 8754   3.558   9.093   0.572  0.4304 -0.8471  0.4939
   64MOL0     C 8755   3.429   9.028   0.634  0.7058 -0.1875 -0.4597
   64MOL0     C 8756   3.447   8.991   0.775 -0.5650 -0.3109 -1.2002
   64MOL0     C 8757   3.321   8.938   0.840  0.4202 -0.0356  1.3404
   64MOL0     C 8758   3.344   8.894   0.979 -0.3723  0.2771 -0.0649
   64MOL0     C 8759   3.354   8.848   1.088  0.3413 -0.0795  0.0659
   64MOL0     C 8760   3.631   8.847   0.420  0.3646  0.6280 -0.0202
   64MOL0     C 8761   3.680   8.732   0.353 -1.1205 -1.0775 -0.0793
   64MOL0     C 8762   3.610   8.700   0.221 -0.3534 -0.1885 -1.3434
   64MOL0     H 8763   3.871   8.276   0.210 -0.0817  1.1002  0.4564
   64MOL0     H 8764   3.991   8.074   0.175  0.3227  0.4073 -1.2514
   64MOL0     H 8765   4.391   8.152   0.163 -1.3017 -0.6277 -0.1165
   64MOL0     H 8766   4.298   8.056   0.053 -3.5704  0.2838  1.4685
   64MOL0     H 8767   4.507   7.964   0.079 -1.3426 -0.6355 -1.6385
   64MOL0     H 8768   4.471   7.945   0.257 -0.0637  3.8811 -0.7785
   64MOL0     H 8769   4.245   7.825   0.105 -1.1735 -2.1446 -1.4640
   64MOL0     H 8770   4.387   7.779   0.017 -0.4657 -0.8015 -0.2165
   64MOL0     H 8771   4.473   7.692   0.251 -0.3068  0.7271 -0.2733
   64MOL0     H 8772   4.294   7.698   0.284 -0.4869  0.1083 -0.4338
   64MOL0     H 8773   4.366   7.558   0.020 -0.3194  1.4196 -0.0168
   64MOL0     H 8774   4.238   7.548   0.120 -0.0362 -0.0528  1.1353
   64MOL0     H 8775   4.351   7.412   0.306  3.0481 -1.2569  2.9297
   64MOL0     H 8776   4.372   7.337   0.143 -0.2529  0.6390 -0.3173
   64MOL0     H 8777   4.566   7.330   0.289  0.8673  0.8585  3.0784
   64MOL0     H 8778   4.564   7.502   0.316  2.0566  1.1394 -1.0965
   64MOL0     H 8779   4.575   7.404   0.031  2.6178 -0.3637 -1.1043
   64MOL0     H 8780   4.635   7.557   0.090  1.5859  0.0001  0.1332
   64MOL0     H 8781   4.777   7.214   0.038  1.4524 -1.1367  0.0221
   64MOL0     H 8782   4.982   7.069   0.135  2.8911 -0.9816 -0.6965
   64MOL0     H 8783   5.093   7.145   0.239 -0.0775  0.4178  0.1686
   64MOL0     H 8784   5.085   7.198  -0.068  3.2972  0.0500 -3.0696
   64MOL0     H 8785   5.189   7.274   0.051 -2.9001  1.5825  1.1804
   64MOL0     H 8786   5.267   7.024   0.096 -0.4630  0.5958  0.1796
   64MOL0     H 8787   5.176   6.981  -0.054 -0.1863  3.0003 -4.0413
   64MOL0     H 8788   5.385   7.174  -0.029 -2.8371 -1.2062  3.9544
   64MOL0     H 8789   5.412   7.026  -0.120 -0.8100 -2.0001  2.5827
   64MOL0     H 8790   5.077   7.239  -0.344  1.3084  0.4863 -1.0519
   64MOL0     H 8791   4.845   7.090  -0.559  1.8154 -2.3118 -1.0791
   64MOL0     H 8792   4.942   7.160  -0.663 -1.8602  0.5644  0.4971
   64MOL0     H 8793   4.912   7.245  -0.501 -1.8577 -1.0149  2.1631
   64MOL0     H 8794   4.772   6.817  -0.763 -0.3812 -1.2934  0.2189
   64MOL0     H 8795   4.703   6.627  -0.938  1.4327 -0.0861  0.3872
   64MOL0     H 8796   5.039   6.447  -1.205 -0.1249 -1.1503 -1.2523
   64MOL0     H 8797   5.012   6.415  -1.032  0.2172  1.9316  0.3427
   64MOL0     H 8798   4.799   6.290  -1.096 -1.7211 -0.4237 -0.8789
   64MOL0     H 8799   4.850   6.321  -1.264  5.5931  2.2054 -1.8298
   64MOL0     H 8800   5.027   6.170  -1.049 -1.3259  3.3821  0.7034
   64MOL0     H 8801   5.062   6.167  -1.221 -0.2418 -4.9294 -0.3891
   64MOL0     H 8802   4.876   6.051  -1.271 -4.2466  1.8327  1.3577
   64MOL0     H 8803   4.837   6.021  -1.097  1.4564 -3.1004  0.8136
   64MOL0     H 8804   5.029   5.896  -1.051 -1.7801 -2.1104 -1.0395
   64MOL0     H 8805   4.944   5.831  -1.184  3.2618 -1.5161 -1.8804
   64MOL0     H 8806   5.198   5.987  -1.204 -0.0587 -0.9908 -1.0454
   64MOL0     H 8807   5.091   5.961  -1.343 -0.2850  0.6839  1.2180
   64MOL0     H 8808   5.129   5.705  -1.198  2.6814 -1.3707  3.1624
   64MOL0     H 8809   5.280   5.782  -1.196 -1.6081  1.1335  0.4506
   64MOL0     H 8810   5.311   5.794  -1.440 -0.1906 -0.3831 -1.2683
   64MOL0     H 8811   5.141   5.752  -1.456  0.8622  0.9972 -1.2597
   64MOL0     H 8812   5.078   6.657  -1.127 -0.0251 -1.1123  0.5585
   64MOL0     H 8813   5.142   6.848  -0.984 -0.7338  1.4601 -0.1948
   64MOL0     H 8814   5.256   6.820  -0.508  0.2136  2.1211 -2.7340
   64MOL0     H 8815   5.368   6.947  -0.327 -1.3970 -1.2629  0.1893
   64MOL0     H 8816   4.324   8.268   0.375  0.5434  2.0621 -1.1820
   64MOL0     H 8817   4.187   8.443   0.447  1.0162  0.1525 -0.7049
   64MOL0     H 8818   3.947   8.661   0.545 -1.0157 -3.6107 -1.5559
   64MOL0     H 8819   3.865   8.872   0.659  1.7660  0.1725 -2.6294
   64MOL0     H 8820   3.572   9.195   0.610 -2.7910 -0.2293  0.3111
   64MOL0     H 8821   3.543   9.109   0.465 -0.9256 -0.2860  0.7480
   64MOL0     H 8822   3.396   8.949   0.566  0.1024  0.2915 -0.7361
   64MOL0     H 8823   3.350   9.104   0.630 -0.0828 -1.0292 -3.9635
   64MOL0     H 8824   3.535   8.929   0.792  0.8688  2.2906  2.2711
   64MOL0     H 8825   3.478   9.080   0.832 -2.9119 -1.1384  1.6601
   64MOL0     H 8826   3.276   8.851   0.793 -2.7656  3.5953 -3.1358
   64MOL0     H 8827   3.255   9.024   0.839  1.8721  1.2672 -2.9656
   64MOL0     H 8828   3.376   8.804   1.183  0.0851  1.1890  0.7325
   64MOL0     H 8829   3.549   8.906   0.381  0.5674  0.3194 -0.9430
   64MOL0     H 8830   3.538   8.618   0.225  0.6558 -1.2107 -2.8224
   64MOL0     H 8831   3.550   8.788   0.199  0.0112  0.6006  0.6266
   64MOL0     H 8832   3.679   8.679   0.138  0.3851  1.5248 -1.2053
   65MOL0     O 8833   9.219   6.965  10.199 -0.7997  0.2699  0.2182
   65MOL0     C 8834   9.325   7.015  10.156  0.5158  0.0320  0.4228
   65MOL0     O 8835   9.342   7.147  10.142  0.0662  0.2863  0.6461
   65MOL0     C 8836   9.245   7.239  10.171 -0.3627  0.0528  0.7311
   65MOL0     C 8837   9.273   7.375  10.194  0.5748  0.6845 -0.6376
   65MOL0     C 8838   9.181   7.469  10.230 -0.2939 -0.6395  0.0327
   65MOL0     C 8839   9.049   7.438  10.255 -1.0110 -0.4110  0.2999
   65MOL0     O 8840   8.969   7.527  10.319  0.2331 -1.3714  0.1903
   65MOL0     C 8841   8.825   7.499  10.332 -0.0384  0.2974  0.9045
   65MOL0     C 8842   8.742   7.623  10.300  0.2347  0.2683 -0.0461
   65MOL0     C 8843   8.744   7.734  10.397 -0.3333  0.5686 -0.1251
   65MOL0     C 8844   8.716   7.695  10.546  0.2874 -0.0027 -0.3739
   65MOL0     C 8845   8.726   7.819  10.640 -1.0533  0.6926  0.7810
   65MOL0     C 8846   8.728   7.781  10.787 -0.8867 -0.5496 -0.5153
   65MOL0     C 8847   8.592   7.748  10.857  0.1433  0.0620  0.3430
   65MOL0     C 8848   8.610   7.718  11.005  0.9402 -0.0747  1.3376
   65MOL0     N 8849   8.725   7.631  11.036 -0.3267  0.8375  0.5197
   65MOL0     C 8850   8.725   7.491  11.044 -0.5201 -0.1077  0.3746
   65MOL0     C 8851   8.843   7.464  11.106  0.8852 -0.1140 -0.6347
   65MOL0     C 8852   8.893   7.321  11.131  0.7447 -0.2869  0.0936
   65MOL0     C 8853   8.992   7.286  11.020 -0.3901 -0.3155 -0.2084
   65MOL0     C 8854   9.022   7.135  10.996  0.3043 -0.1768  0.4717
   65MOL0     C 8855   9.089   7.106  10.866  0.5584 -0.5763  0.2402
   65MOL0     O 8856   9.160   6.987  10.861  0.4040 -0.3631  0.3838
   65MOL0     C 8857   9.095   6.868  10.834  0.3850  0.0435 -0.3522
   65MOL0     C 8858   9.174   6.756  10.827 -0.0583  0.9292  0.4258
   65MOL0     C 8859   9.131   6.618  10.810 -0.3057  0.2052 -0.4369
   65MOL0     C 8860   9.234   6.501  10.826  0.1773  0.1961 -0.7149
   65MOL0     C 8861   8.994   6.604  10.794  0.1874 -0.4421 -1.2954
   65MOL0     C 8862   8.928   6.473  10.761 -0.0654  0.4114  0.4119
   65MOL0     O 8863   8.796   6.475  10.775  1.0374 -0.7307 -0.6760
   65MOL0     C 8864   8.718   6.362  10.753 -0.2994  0.0118  0.4003
   65MOL0     C 8865   8.701   6.263  10.856  0.7547  0.2298  0.6398
   65MOL0     C 8866   8.593   6.166  10.850 -0.0234 -0.1469 -0.2508
   65MOL0     C 8867   8.500   6.173  10.740 -0.3506 -0.6047 -0.5654
   65MOL0     O 8868   8.390   6.097  10.743  0.1674  0.1018  0.1969
   65MOL0     C 8869   8.289   6.148  10.841  0.6209 -0.2997 -0.3396
   65MOL0     C 8870   8.194   6.252  10.790 -0.0667  0.4047  0.2675
   65MOL0     C 8871   8.109   6.196  10.664 -0.9723 -0.0446  0.0107
   65MOL0     C 8872   7.988   6.286  10.614 -0.7394  0.2483  0.3983
   65MOL0     C 8873   7.958   6.233  10.476 -0.6763 -0.7247  0.1288
   65MOL0     C 8874   7.872   6.340  10.405 -0.5713 -0.2347  0.2522
   65MOL0     C 8875   7.843   6.298  10.258 -0.4938  0.4315 -0.5021
   65MOL0     C 8876   7.771   6.414  10.187 -0.9406  0.2264 -0.0721
   65MOL0    Cl 8877   7.706   6.363  10.027 -0.4053  0.3689  0.1140
   65MOL0     C 8878   8.518   6.275  10.641 -0.4709  1.0890 -0.4151
   65MOL0     C 8879   8.626   6.368  10.645  1.4868  0.2362  0.5057
   65MOL0     O 8880   8.992   6.376  10.721 -0.4077 -0.4764 -0.0306
   65MOL0     C 8881   8.915   6.718  10.790 -0.0143  1.0303 -0.2623
   65MOL0     C 8882   8.962   6.851  10.808  0.4265  0.3182  0.2404
   65MOL0     N 8883   8.916   7.582  11.134 -0.5736 -0.9828  0.5565
   65MOL0     N 8884   8.847   7.673  11.084 -0.1574 -0.5518  0.0808
   65MOL0     C 8885   9.015   7.308  10.218  0.4287 -1.0644  0.2884
   65MOL0     C 8886   9.107   7.214  10.169  0.9269  0.3080 -0.1304
   65MOL0     C 8887   9.438   6.920  10.146 -0.2947  0.6309  0.4567
   65MOL0     C 8888   9.411   6.782  10.172 -0.2529  0.2494  0.0037
   65MOL0     C 8889   9.515   6.687  10.144 -0.9430  0.6125 -0.9341
   65MOL0     C 8890   9.633   6.725  10.106 -0.4675 -0.2398  0.7511
   65MOL0     O 8891   9.738   6.651  10.083 -0.3313  0.6688 -0.6605
   65MOL0     C 8892   9.714   6.504  10.079 -0.3277 -0.4435 -0.1656
   65MOL0     C 8893   9.847   6.442  10.033  0.0771  0.7328 -0.0553
   65MOL0     C 8894   9.832   6.288  10.017 -0.0443  0.4502  0.5986
   65MOL0     C 8895   9.816   6.205  10.149 -0.2904 -0.7332 -0.0201
   65MOL0     C 8896   9.830   6.064  10.124  0.0519  0.7205  0.5972
   65MOL0     C 8897   9.852   5.945  10.110 -0.5930 -0.0356  0.0957
   65MOL0     C 8898   9.665   6.858  10.096 -0.1433 -0.2737  0.4741
   65MOL0     C 8899   9.573   6.958  10.119  0.2762 -0.4579 -0.7176
   65MOL0     C 8900   9.625   7.098  10.100  0.3838  0.5809 -0.5978
   65MOL0     H 8901   9.375   7.411  10.191  2.0148 -2.9162 -0.1084
   65MOL0     H 8902   9.209   7.570  10.256  1.1894 -0.9830 -0.1556
   65MOL0     H 8903   8.794   7.459  10.429  1.5766 -1.5786  0.7156
   65MOL0     H 8904   8.789   7.422  10.263  1.2091  0.4256  0.0888
   65MOL0     H 8905   8.750   7.662  10.198 -2.1346  1.3005  0.0949
   65MOL0     H 8906   8.638   7.589  10.303 -1.2958  4.1700 -1.9183
   65MOL0     H 8907   8.842   7.783  10.391 -0.6436  1.0510 -1.7740
   65MOL0     H 8908   8.672   7.810  10.366  0.6717  0.9914 -1.5541
   65MOL0     H 8909   8.611   7.665  10.550  0.3581 -0.1343  1.0315
   65MOL0     H 8910   8.785   7.616  10.577 -1.2457 -0.2267  2.7981
   65MOL0     H 8911   8.650   7.897  10.624  0.1797  1.2489 -4.1269
   65MOL0     H 8912   8.828   7.852  10.617 -0.8579 -0.7315 -0.5799
   65MOL0     H 8913   8.794   7.696  10.807 -0.6611 -0.0010  1.2106
   65MOL0     H 8914   8.770   7.861  10.850 -0.8385 -1.8811  1.2051
   65MOL0     H 8915   8.551   7.668  10.796  3.8706  0.8113 -3.7001
   65MOL0     H 8916   8.521   7.831  10.848 -1.1974 -1.1584 -0.7926
   65MOL0     H 8917   8.622   7.813  11.059 -1.2924  1.0127  0.0664
   65MOL0     H 8918   8.518   7.669  11.038 -0.6131  2.4744  1.1010
   65MOL0     H 8919   8.652   7.419  11.007  2.4795 -1.7309 -2.9781
   65MOL0     H 8920   8.810   7.252  11.147  0.7922 -0.9293 -2.0600
   65MOL0     H 8921   8.946   7.340  11.225 -0.5394 -1.4018  1.0754
   65MOL0     H 8922   8.955   7.335  10.929 -3.1278 -1.6922  0.0753
   65MOL0     H 8923   9.085   7.342  11.032  0.2836 -0.6725 -3.0510
   65MOL0     H 8924   9.084   7.097  11.078  1.0301 -0.6369 -0.2821
   65MOL0     H 8925   8.924   7.086  10.998  0.5716 -0.7065  0.9013
   65MOL0     H 8926   9.024   7.126  10.781  0.9922  3.8520  0.7363
   65MOL0     H 8927   9.158   7.188  10.844 -0.8857  0.0279 -2.4358
   65MOL0     H 8928   9.281   6.770  10.840  0.4599  0.1373 -2.3438
   65MOL0     H 8929   9.322   6.533  10.882  0.0795 -1.5653  0.5461
   65MOL0     H 8930   9.255   6.453  10.729 -4.5653 -1.1957 -1.3198
   65MOL0     H 8931   9.180   6.425  10.884 -0.1844  1.6260  0.8670
   65MOL0     H 8932   8.763   6.253  10.945  0.9328 -0.2572  0.4663
   65MOL0     H 8933   8.590   6.082  10.919 -1.8426  1.3407  1.6230
   65MOL0     H 8934   8.232   6.061  10.874 -1.3647  0.7644 -0.7911
   65MOL0     H 8935   8.336   6.190  10.930  2.6482  4.6394 -3.2991
   65MOL0     H 8936   8.129   6.283  10.873  1.7107  0.9116  1.5259
   65MOL0     H 8937   8.243   6.348  10.769  1.4637 -0.3746  0.1605
   65MOL0     H 8938   8.069   6.095  10.679  0.4066 -0.4387  1.3134
   65MOL0     H 8939   8.184   6.187  10.584 -1.6527  3.9040 -1.3036
   65MOL0     H 8940   8.016   6.391  10.613  1.2758 -0.2213 -2.3505
   65MOL0     H 8941   7.892   6.277  10.667 -3.0486  1.7700 -3.1648
   65MOL0     H 8942   8.053   6.217  10.425 -1.0459 -1.3684 -0.3775
   65MOL0     H 8943   7.898   6.142  10.484 -1.5473 -0.3123 -1.2955
   65MOL0     H 8944   7.921   6.437  10.417 -1.4887  0.0418  1.9950
   65MOL0     H 8945   7.773   6.350  10.450 -1.3646 -1.4476 -1.1309
   65MOL0     H 8946   7.798   6.199  10.257 -3.2606  1.6071 -2.1656
   65MOL0     H 8947   7.939   6.282  10.207 -0.1517  0.8951 -0.0197
   65MOL0     H 8948   7.840   6.499  10.189 -1.4333  0.6254  0.5340
   65MOL0     H 8949   7.687   6.440  10.253  0.9181  1.1286  2.0457
   65MOL0     H 8950   8.442   6.293  10.565 -0.8415  2.4816  0.2464
   65MOL0     H 8951   8.629   6.435  10.560 -1.5116 -2.1244 -1.7065
   65MOL0     H 8952   8.809   6.710  10.766  0.6050 -0.6253 -2.8908
   65MOL0     H 8953   8.889   6.931  10.802 -0.5078 -0.3568  1.9996
   65MOL0     H 8954   8.918   7.267  10.247  0.6949 -0.7608  1.7091
   65MOL0     H 8955   9.064   7.115  10.160  0.7216  0.2999  0.8152
   65MOL0     H 8956   9.316   6.736  10.197 -0.3715 -0.0045 -0.8773
   65MOL0     H 8957   9.497   6.586  10.178 -0.0118  1.3851  2.0949
   65MOL0     H 8958   9.689   6.459  10.176 -1.4475  2.1972  0.8781
   65MOL0     H 8959   9.643   6.474  10.001 -0.8626 -1.1843  0.5914
   65MOL0     H 8960   9.923   6.458  10.109  1.1472  0.4024 -1.0190
   65MOL0     H 8961   9.884   6.489   9.941 -0.0440 -1.0172 -1.0663
   65MOL0     H 8962   9.743   6.284   9.954  1.1269 -0.2351 -1.0627
   65MOL0     H 8963   9.910   6.253   9.950 -0.3377  0.6979  0.1227
   65MOL0     H 8964   9.715   6.230  10.182 -0.3580  1.3316 -1.5565
   65MOL0     H 8965   9.904   6.238  10.207 -1.1617 -0.3380  1.1070
   65MOL0     H 8966   9.878   5.841  10.099  2.0812  0.6657 -0.8470
   65MOL0     H 8967   9.763   6.873  10.052 -1.2323 -1.2969 -2.5416
   65MOL0     H 8968   9.578   7.165  10.172 -0.6366  0.8863 -1.5082
   65MOL0     H 8969   9.730   7.109  10.126  0.1149 -1.1080  1.3742
   65MOL0     H 8970   9.606   7.134   9.998 -0.6959  0.0163 -0.6108
   66MOL0     O 8971   8.950  10.099   4.396 -0.6005  0.4163  0.4512
   66MOL0     C 8972   8.918  10.080   4.277 -0.5401 -0.1050 -0.6225
   66MOL0     O 8973   8.988  10.011   4.182 -0.2427  0.2197 -0.1744
   66MOL0     C 8974   9.117   9.959   4.208  0.2074  0.2534  0.2181
   66MOL0     C 8975   9.201   9.952   4.096 -0.0037 -0.0018 -0.2536
   66MOL0     C 8976   9.329   9.907   4.107  0.0582 -0.5253 -0.9515
   66MOL0     C 8977   9.376   9.861   4.230 -0.7671  0.8781  0.0603
   66MOL0     O 8978   9.500   9.795   4.240 -1.1327 -0.0891  0.2667
   66MOL0     C 8979   9.610   9.813   4.143 -0.0847 -0.1820 -0.1280
   66MOL0     C 8980   9.629   9.663   4.102  0.3630  0.0555  0.3071
   66MOL0     C 8981   9.724   9.655   3.980 -0.4822 -0.8385 -0.6008
   66MOL0     C 8982   9.771   9.514   3.967 -0.0198 -0.7234  0.2812
   66MOL0     C 8983   9.668   9.405   3.920  0.1713  0.2128  0.0033
   66MOL0     C 8984   9.605   9.420   3.777 -0.1773 -0.5073 -0.1853
   66MOL0     C 8985   9.710   9.374   3.667  0.8951  0.1897  0.2893
   66MOL0     C 8986   9.633   9.365   3.531 -0.0576 -0.2630  0.3433
   66MOL0     N 8987   9.575   9.489   3.473  1.0525 -0.2782  0.2810
   66MOL0     C 8988   9.638   9.615   3.477  0.6406  0.3211 -0.3849
   66MOL0     C 8989   9.539   9.701   3.434 -0.1447 -0.3848  0.7161
   66MOL0     C 8990   9.551   9.844   3.415 -0.4297 -0.4914 -0.2036
   66MOL0     C 8991   9.673   9.906   3.485 -0.0775 -0.4243  1.3373
   66MOL0     C 8992   9.696   9.883   3.631  0.0660  0.2830 -0.8660
   66MOL0     C 8993   9.621   9.986   3.712  0.3035 -0.1176 -0.8259
   66MOL0     O 8994   9.484   9.956   3.722 -0.0683  0.0945 -0.2466
   66MOL0     C 8995   9.388  10.050   3.736 -0.0709 -0.4279  0.6383
   66MOL0     C 8996   9.408  10.193   3.739  0.0947  0.3255 -0.9265
   66MOL0     C 8997   9.304  10.282   3.748  0.9029 -0.7631 -0.3188
   66MOL0     C 8998   9.344  10.429   3.745 -0.6035 -0.1348 -0.0303
   66MOL0     C 8999   9.167  10.230   3.754 -0.0306 -0.4720 -0.1763
   66MOL0     C 9000   9.053  10.323   3.769 -0.7803  0.1946 -0.4389
   66MOL0     O 9001   9.068  10.418   3.859  0.0111  0.1919 -0.0516
   66MOL0     C 9002   8.961  10.494   3.893 -0.4934 -0.1353  0.2173
   66MOL0     C 9003   8.920  10.499   4.026 -0.2176 -0.5666  0.3411
   66MOL0     C 9004   8.807  10.564   4.060 -0.4054 -0.0489  0.2314
   66MOL0     C 9005   8.729  10.637   3.964 -0.3845  0.1823  0.0959
   66MOL0     O 9006   8.616  10.707   3.999 -0.4739  0.0207  0.3545
   66MOL0     C 9007   8.570  10.719   4.133 -0.1901 -0.4456  0.1438
   66MOL0     C 9008   8.508  10.594   4.201  0.0340 -0.7482  0.1701
   66MOL0     C 9009   8.492  10.612   4.352 -0.9082 -0.9898  0.0377
   66MOL0     C 9010   8.405  10.508   4.423  1.1042 -0.2151  0.7252
   66MOL0     C 9011   8.338  10.559   4.546  0.4404  0.4614 -0.5576
   66MOL0     C 9012   8.259  10.450   4.618 -0.3547 -1.0693  0.4519
   66MOL0     C 9013   8.137  10.393   4.543 -0.1483  0.5580  0.1194
   66MOL0     C 9014   8.030  10.502   4.515 -0.9110  0.4528 -0.6410
   66MOL0    Cl 9015   8.026  10.533   4.344  0.6283 -0.3508  0.0276
   66MOL0     C 9016   8.771  10.635   3.834 -0.2014 -0.0859  0.5631
   66MOL0     C 9017   8.890  10.573   3.798  0.0844  0.1073  0.1380
   66MOL0     O 9018   8.950  10.290   3.719  0.4751 -0.6595 -0.0449
   66MOL0     C 9019   9.153  10.090   3.735  0.3609  0.1013 -0.3467
   66MOL0     C 9020   9.254  10.007   3.727 -0.2721  0.9209 -0.8085
   66MOL0     N 9021   9.422   9.630   3.434 -0.1200 -0.2738  1.1294
   66MOL0     N 9022   9.444   9.505   3.442  0.2192 -1.3638 -0.2578
   66MOL0     C 9023   9.300   9.872   4.344  0.2321  0.6014 -0.3029
   66MOL0     C 9024   9.168   9.924   4.334  0.0732 -0.1800 -0.2883
   66MOL0     C 9025   8.785  10.136   4.241 -0.5885 -0.4413 -0.2999
   66MOL0     C 9026   8.696  10.145   4.349  0.8444  0.0695 -0.2726
   66MOL0     C 9027   8.564  10.192   4.327  0.4587 -0.1962 -0.9406
   66MOL0     C 9028   8.510  10.210   4.204  0.6498 -0.7603 -0.0814
   66MOL0     O 9029   8.381  10.244   4.194 -0.2771  0.0042  0.0967
   66MOL0     C 9030   8.322  10.255   4.067  0.8154 -0.1127 -0.5954
   66MOL0     C 9031   8.170  10.243   4.079  0.1271 -0.3179 -0.3918
   66MOL0     C 9032   8.109  10.228   3.944 -0.1450 -0.1857  0.1811
   66MOL0     C 9033   7.955  10.230   3.954  0.1367 -0.1906  0.7114
   66MOL0     C 9034   7.902  10.132   4.042  0.0632 -0.0342  0.1870
   66MOL0     C 9035   7.867  10.055   4.122 -0.0365  0.8391 -0.7346
   66MOL0     C 9036   8.604  10.206   4.093 -0.2304 -0.3517  0.1058
   66MOL0     C 9037   8.743  10.175   4.114  0.4432  0.7599 -0.0596
   66MOL0     C 9038   8.835  10.172   3.989 -1.4598 -0.5488  0.3290
   66MOL0     H 9039   9.158   9.972   3.998  2.2263 -2.9719 -2.0149
   66MOL0     H 9040   9.378   9.894   4.011  0.2380  0.2634 -0.9731
   66MOL0     H 9041   9.704   9.847   4.188 -0.9156  0.3300  1.2826
   66MOL0     H 9042   9.590   9.873   4.053 -0.3708 -0.7721 -0.4626
   66MOL0     H 9043   9.662   9.604   4.187 -2.3795  1.4994  2.5137
   66MOL0     H 9044   9.532   9.633   4.062  1.4026 -1.8803 -0.9249
   66MOL0     H 9045   9.677   9.696   3.890  0.4039  0.9582 -0.2953
   66MOL0     H 9046   9.801   9.732   3.992 -2.2859  1.7274 -3.6468
   66MOL0     H 9047   9.850   9.508   3.891 -2.0756  1.0386 -2.1762
   66MOL0     H 9048   9.823   9.479   4.056 -0.0110  0.4875  0.7631
   66MOL0     H 9049   9.592   9.399   3.998  0.0376 -1.9677 -0.2475
   66MOL0     H 9050   9.723   9.311   3.923 -0.4333 -0.2121 -1.3733
   66MOL0     H 9051   9.519   9.353   3.786  0.5355 -1.2913  1.2387
   66MOL0     H 9052   9.583   9.524   3.752 -0.6240 -1.0744 -2.2701
   66MOL0     H 9053   9.755   9.277   3.688 -0.2688 -1.2328 -3.1005
   66MOL0     H 9054   9.793   9.446   3.662  1.4765 -0.4970 -0.0932
   66MOL0     H 9055   9.693   9.318   3.453 -1.5016 -1.5049 -0.0663
   66MOL0     H 9056   9.547   9.299   3.549  0.4993 -0.5108  2.4271
   66MOL0     H 9057   9.742   9.634   3.501  0.4441  2.5892 -1.1243
   66MOL0     H 9058   9.457   9.888   3.448 -0.4046  0.3728 -1.2315
   66MOL0     H 9059   9.567   9.858   3.307 -1.3271 -1.1740 -0.4341
   66MOL0     H 9060   9.760   9.856   3.441 -1.1109 -0.8225 -0.3763
   66MOL0     H 9061   9.671  10.011   3.455 -1.9880 -0.5514  0.9028
   66MOL0     H 9062   9.665   9.785   3.668 -0.9127  0.6790 -0.6080
   66MOL0     H 9063   9.801   9.906   3.650 -0.4737  1.5212  0.8961
   66MOL0     H 9064   9.666   9.993   3.811  0.1967 -1.2548 -0.6858
   66MOL0     H 9065   9.623  10.079   3.655  0.7242 -1.4927 -3.2430
   66MOL0     H 9066   9.502  10.247   3.729  0.6203 -0.7659 -2.0742
   66MOL0     H 9067   9.371  10.448   3.850 -1.3995  0.5587  0.0534
   66MOL0     H 9068   9.263  10.498   3.723 -0.0854  0.9972  1.4560
   66MOL0     H 9069   9.433  10.443   3.683  0.5412  2.9985  2.0658
   66MOL0     H 9070   8.980  10.451   4.102 -1.0351  0.4572  1.6695
   66MOL0     H 9071   8.795  10.567   4.168 -2.7285 -2.4063  0.1364
   66MOL0     H 9072   8.652  10.749   4.199 -0.6541 -0.6703  0.8441
   66MOL0     H 9073   8.495  10.799   4.130 -0.0937 -0.3959 -1.4851
   66MOL0     H 9074   8.412  10.558   4.161  1.0860 -0.5508 -2.7178
   66MOL0     H 9075   8.577  10.512   4.179 -1.8086 -2.0346 -1.1219
   66MOL0     H 9076   8.450  10.712   4.367  0.5530 -0.6158  2.1060
   66MOL0     H 9077   8.594  10.600   4.390 -1.6805 -2.2899  1.8065
   66MOL0     H 9078   8.468  10.425   4.456  0.6580 -0.4093  1.1074
   66MOL0     H 9079   8.334  10.479   4.345 -0.9135  1.7078  1.7114
   66MOL0     H 9080   8.408  10.600   4.620  0.6093  2.4520 -1.7627
   66MOL0     H 9081   8.266  10.634   4.512 -1.7962 -1.7573 -1.0506
   66MOL0     H 9082   8.214  10.482   4.712  1.8716 -1.2428  1.6525
   66MOL0     H 9083   8.331  10.369   4.636  0.9272  0.2810  1.7476
   66MOL0     H 9084   8.091  10.310   4.598 -3.1816  1.6789 -0.5170
   66MOL0     H 9085   8.171  10.338   4.455 -1.0585 -1.0256  0.7063
   66MOL0     H 9086   8.061  10.589   4.575  0.7794 -1.6442  1.7085
   66MOL0     H 9087   7.932  10.478   4.556 -0.6989  1.4687  0.5342
   66MOL0     H 9088   8.707  10.687   3.763 -0.4343 -0.8506  0.2056
   66MOL0     H 9089   8.907  10.579   3.691  0.2208  3.1182  0.2304
   66MOL0     H 9090   9.053  10.048   3.725  1.4502 -2.3699 -1.9694
   66MOL0     H 9091   9.255   9.899   3.724  4.8086  0.6819  0.8221
   66MOL0     H 9092   9.336   9.815   4.429 -1.4479 -3.0791 -1.8498
   66MOL0     H 9093   9.098   9.933   4.416 -3.1701  2.9742 -3.0719
   66MOL0     H 9094   8.716  10.109   4.449  1.3695  2.1527  0.4047
   66MOL0     H 9095   8.492  10.202   4.408 -0.3767  2.3369 -1.8971
   66MOL0     H 9096   8.344  10.355   4.028  0.6363  0.0724 -0.2221
   66MOL0     H 9097   8.362  10.172   4.008  0.2662 -0.5945 -0.2957
   66MOL0     H 9098   8.120  10.322   4.136 -1.5113 -0.8619 -1.0249
   66MOL0     H 9099   8.140  10.151   4.130 -1.0892 -0.9107 -2.0878
   66MOL0     H 9100   8.144  10.299   3.869 -1.2237 -0.6384 -0.7754
   66MOL0     H 9101   8.139  10.127   3.915  0.7209 -0.0674  0.6211
   66MOL0     H 9102   7.924  10.210   3.851 -0.6505 -2.4249  1.3049
   66MOL0     H 9103   7.919  10.331   3.972 -0.9689  0.3370 -3.4771
   66MOL0     H 9104   7.829   9.980   4.189  1.6665  0.6257  0.0525
   66MOL0     H 9105   8.572  10.237   3.994 -0.7853 -1.8506 -0.2117
   66MOL0     H 9106   8.776  10.191   3.899 -1.0040 -2.6052 -0.4765
   66MOL0     H 9107   8.914  10.246   4.001 -2.8925  1.4281 -1.6732
   66MOL0     H 9108   8.879  10.074   3.966 -0.8498  0.2347 -2.1076
   67MOL0     O 9109  10.847   6.466  11.509  0.4515 -0.1340 -0.3079
   67MOL0     C 9110  10.886   6.581  11.481  0.7003  0.3206 -0.3431
   67MOL0     O 9111  10.849   6.692  11.547 -0.6963  0.0865  0.1166
   67MOL0     C 9112  10.744   6.698  11.636 -0.6755 -0.3902 -0.5468
   67MOL0     C 9113  10.628   6.618  11.640  0.6791  0.0700 -0.1718
   67MOL0     C 9114  10.530   6.642  11.730 -0.6369  0.0141  0.0814
   67MOL0     C 9115  10.533   6.754  11.811 -0.4156 -0.7099  0.3353
   67MOL0     O 9116  10.417   6.776  11.889 -0.5507 -0.3177 -0.1151
   67MOL0     C 9117  10.417   6.890  11.973 -0.2601 -0.0451  0.4232
   67MOL0     C 9118  10.301   6.885  12.079  0.1037  0.3796  0.0634
   67MOL0     C 9119  10.307   6.762  12.172 -0.1730  0.2384  1.0251
   67MOL0     C 9120  10.168   6.744  12.236 -0.0290 -0.0358  0.1788
   67MOL0     C 9121  10.117   6.861  12.332  0.1974 -0.2116 -0.7229
   67MOL0     C 9122   9.975   6.849  12.410 -0.2847 -0.5960  0.7458
   67MOL0     C 9123   9.965   6.744  12.513  0.0560  0.7150  0.3465
   67MOL0     C 9124   9.833   6.746  12.585 -0.0490  0.3189 -0.6005
   67MOL0     N 9125   9.818   6.621  12.663  0.1666 -0.4576  0.1962
   67MOL0     C 9126   9.745   6.627  12.784 -0.9450 -1.2634 -0.0007
   67MOL0     C 9127   9.720   6.501  12.817 -0.0839  0.0403 -0.2625
   67MOL0     C 9128   9.647   6.442  12.937 -0.3913  0.4804  0.1155
   67MOL0     C 9129   9.524   6.360  12.877 -0.5176 -1.3319 -0.6816
   67MOL0     C 9130   9.429   6.311  12.994  0.1431 -0.0600  0.0624
   67MOL0     C 9131   9.299   6.242  12.933 -0.3367 -1.0319  0.4798
   67MOL0     O 9132   9.242   6.321  12.824 -0.6359 -0.4508 -0.6705
   67MOL0     C 9133   9.136   6.272  12.747  0.1856 -0.2416 -0.1290
   67MOL0     C 9134   9.051   6.165  12.773  0.4337 -0.4827 -0.8141
   67MOL0     C 9135   8.966   6.101  12.669 -0.4694 -1.3981 -0.5631
   67MOL0     C 9136   8.869   5.995  12.730 -0.5693 -0.1047  0.9748
   67MOL0     C 9137   8.957   6.171  12.547 -0.6657 -0.3404 -1.2450
   67MOL0     C 9138   8.862   6.114  12.452  0.3039  0.1689  0.2547
   67MOL0     O 9139   8.805   5.983  12.463 -0.3404  0.0683  0.3796
   67MOL0     C 9140   8.705   5.955  12.368 -0.9857  0.0310  0.2147
   67MOL0     C 9141   8.580   5.967  12.400 -0.2219  0.1941 -0.5508
   67MOL0     C 9142   8.477   5.925  12.317 -0.4471  0.7968 -0.2881
   67MOL0     C 9143   8.503   5.857  12.198 -0.1383  0.3561  0.2582
   67MOL0     O 9144   8.402   5.808  12.108 -0.5120 -0.1811  0.2678
   67MOL0     C 9145   8.304   5.721  12.167  0.0466  0.9226  0.4583
   67MOL0     C 9146   8.176   5.803  12.155  0.1397 -0.2157  0.5219
   67MOL0     C 9147   8.066   5.739  12.230  0.7254 -1.0386 -0.0575
   67MOL0     C 9148   7.935   5.795  12.167  0.0843  0.1769 -0.0181
   67MOL0     C 9149   7.805   5.778  12.254 -0.0776 -0.3794  1.0637
   67MOL0     C 9150   7.774   5.640  12.306  0.9398  0.5288 -0.2691
   67MOL0     C 9151   7.652   5.651  12.397  0.0281 -0.1762 -0.4958
   67MOL0     C 9152   7.608   5.511  12.457 -0.6722 -0.3388 -0.0186
   67MOL0    Cl 9153   7.556   5.405  12.312 -0.6719  0.5743 -0.0118
   67MOL0     C 9154   8.638   5.851  12.158  0.5707  0.1508 -0.5687
   67MOL0     C 9155   8.739   5.896  12.246  0.2370 -0.4135  0.4717
   67MOL0     O 9156   8.824   6.199  12.368  0.3014  0.4502 -0.7230
   67MOL0     C 9157   9.029   6.287  12.524 -0.6389  0.7284  0.0235
   67MOL0     C 9158   9.131   6.328  12.622 -0.2378  0.4798  0.9052
   67MOL0     N 9159   9.769   6.416  12.721 -0.1301 -0.2938 -0.2938
   67MOL0     N 9160   9.834   6.486  12.627  0.4687 -0.6910  0.0347
   67MOL0     C 9161  10.650   6.832  11.805  0.9403 -0.1678 -0.0533
   67MOL0     C 9162  10.754   6.807  11.720 -0.7192 -0.8853 -0.3717
   67MOL0     C 9163  10.985   6.596  11.376 -0.4069  0.0814  0.2151
   67MOL0     C 9164  10.970   6.520  11.261 -0.4002  0.4235  0.0032
   67MOL0     C 9165  11.058   6.528  11.154 -0.2829  0.4427  0.8032
   67MOL0     C 9166  11.165   6.625  11.153 -0.4573 -0.9651  0.9919
   67MOL0     O 9167  11.260   6.630  11.045 -0.5279  0.2804 -0.3734
   67MOL0     C 9168  11.387   6.697  11.053 -0.6399 -0.4072 -0.6702
   67MOL0     C 9169  11.479   6.599  11.125 -1.1307  0.2683 -0.1132
   67MOL0     C 9170  11.499   6.469  11.040 -0.7963 -0.5592 -0.0372
   67MOL0     C 9171  11.529   6.496  10.896 -0.1966  0.4277  0.4555
   67MOL0     C 9172  11.565   6.359  10.844  0.6899  0.9224 -0.1249
   67MOL0     C 9173  11.585   6.254  10.789 -0.2664  0.0293  0.4596
   67MOL0     C 9174  11.169   6.705  11.263 -0.0523  0.3478  0.2641
   67MOL0     C 9175  11.090   6.695  11.371  0.4342 -0.4681 -0.0441
   67MOL0     C 9176  11.110   6.788  11.498 -0.3954 -0.0538  0.8262
   67MOL0     H 9177  10.609   6.530  11.579  4.8123 -0.0231 -1.6386
   67MOL0     H 9178  10.435   6.590  11.738 -1.6044  1.8521  1.6117
   67MOL0     H 9179  10.407   6.977  11.907  1.3919 -0.5655 -0.5860
   67MOL0     H 9180  10.512   6.899  12.027 -0.0829 -0.2532  0.1519
   67MOL0     H 9181  10.338   6.962  12.147  2.2612 -0.6063  0.1142
   67MOL0     H 9182  10.205   6.889  12.027  1.1903 -0.4309 -2.1157
   67MOL0     H 9183  10.343   6.677  12.114  1.4900 -0.9569  3.5904
   67MOL0     H 9184  10.376   6.790  12.253  0.3886  0.0023  0.6339
   67MOL0     H 9185  10.092   6.725  12.160  0.9023  2.6357 -1.5739
   67MOL0     H 9186  10.169   6.657  12.301  0.9711  1.4185  2.2420
   67MOL0     H 9187  10.100   6.946  12.265 -0.2614 -0.0615 -0.4191
   67MOL0     H 9188  10.205   6.880  12.395  1.3211 -0.7517 -2.0517
   67MOL0     H 9189   9.958   6.942  12.464  2.8602 -0.3137  1.4655
   67MOL0     H 9190   9.899   6.844  12.332  1.0623 -0.4506 -0.6121
   67MOL0     H 9191  10.052   6.758  12.579 -0.6441  3.1840  0.8290
   67MOL0     H 9192   9.964   6.642  12.473 -1.6481  0.1576  1.6556
   67MOL0     H 9193   9.842   6.835  12.649 -1.5045  0.9994 -1.2964
   67MOL0     H 9194   9.749   6.760  12.516  0.1354 -1.7411 -1.3059
   67MOL0     H 9195   9.718   6.719  12.835  5.0125  0.2502  1.1726
   67MOL0     H 9196   9.619   6.528  12.998  0.9167  2.0741 -1.4392
   67MOL0     H 9197   9.713   6.376  12.994  2.1189  2.4545 -0.3559
   67MOL0     H 9198   9.471   6.431  12.813  0.8243  1.6536  1.3224
   67MOL0     H 9199   9.548   6.271  12.818  0.4203 -1.2646 -0.4106
   67MOL0     H 9200   9.486   6.253  13.067  0.9760 -0.1883 -0.6742
   67MOL0     H 9201   9.388   6.402  13.039  0.7372 -0.1576  0.8213
   67MOL0     H 9202   9.327   6.145  12.891 -0.1493 -0.7778  0.0213
   67MOL0     H 9203   9.224   6.216  13.009 -1.3776 -1.1149 -0.5460
   67MOL0     H 9204   9.051   6.124  12.873  0.2927 -0.8365 -0.9560
   67MOL0     H 9205   8.764   6.025  12.726 -1.3858 -2.3626  3.1700
   67MOL0     H 9206   8.894   5.979  12.835  0.1838  1.0214  0.9886
   67MOL0     H 9207   8.876   5.901  12.674 -0.3415 -0.9215  2.3504
   67MOL0     H 9208   8.567   6.014  12.497 -2.6416  0.6501 -1.0443
   67MOL0     H 9209   8.379   5.936  12.362 -0.6210  0.0613 -0.4748
   67MOL0     H 9210   8.301   5.625  12.115  2.3385 -0.5494  2.7879
   67MOL0     H 9211   8.329   5.689  12.269  1.9001  1.2982  0.1603
   67MOL0     H 9212   8.196   5.906  12.188 -1.1773 -0.0235  0.7682
   67MOL0     H 9213   8.153   5.814  12.049  1.2100 -0.7930  0.2203
   67MOL0     H 9214   8.071   5.774  12.334  2.3341  1.9114 -1.0102
   67MOL0     H 9215   8.074   5.630  12.233 -1.7441 -1.3132 -1.1451
   67MOL0     H 9216   7.911   5.751  12.070  1.3407 -1.8714  0.5267
   67MOL0     H 9217   7.938   5.902  12.145  0.5682 -0.1142 -1.5054
   67MOL0     H 9218   7.808   5.854  12.332 -2.7268 -0.0567  0.9521
   67MOL0     H 9219   7.722   5.809  12.189  2.9172  2.5482 -1.7355
   67MOL0     H 9220   7.862   5.600  12.357 -0.2586 -1.1750  0.5342
   67MOL0     H 9221   7.741   5.585  12.217  0.0200  2.0364 -0.9086
   67MOL0     H 9222   7.562   5.692  12.350 -1.3003 -1.1779  1.0503
   67MOL0     H 9223   7.679   5.717  12.480  0.1657 -0.6488 -0.1608
   67MOL0     H 9224   7.531   5.531  12.532 -1.5338 -1.8285 -0.4614
   67MOL0     H 9225   7.694   5.474  12.512 -1.0698 -0.4616  0.5254
   67MOL0     H 9226   8.683   5.805  12.071  1.8348 -0.5504  0.4106
   67MOL0     H 9227   8.841   5.894  12.207  1.3017  1.3224  2.8856
   67MOL0     H 9228   9.003   6.338  12.432 -4.5839 -0.8710  0.0661
   67MOL0     H 9229   9.196   6.406  12.584  1.1152 -1.6210 -1.4023
   67MOL0     H 9230  10.664   6.914  11.875 -2.5303  2.1914 -1.8277
   67MOL0     H 9231  10.843   6.868  11.709 -1.1371 -0.0624  0.6071
   67MOL0     H 9232  10.903   6.435  11.260 -2.7941  2.2014  0.9165
   67MOL0     H 9233  11.054   6.464  11.066 -0.2814 -1.1059  1.8881
   67MOL0     H 9234  11.433   6.725  10.958 -2.2352  0.3439 -1.2600
   67MOL0     H 9235  11.373   6.789  11.112 -1.1810 -2.5383  2.7891
   67MOL0     H 9236  11.454   6.577  11.230  0.1145 -2.5993 -0.3444
   67MOL0     H 9237  11.581   6.636  11.133 -0.7139 -0.9963  0.7836
   67MOL0     H 9238  11.576   6.408  11.087  0.1032  1.4239  1.1809
   67MOL0     H 9239  11.400   6.423  11.040 -0.0730 -2.1635  0.5284
   67MOL0     H 9240  11.622   6.552  10.888 -0.8149  2.0395  3.1580
   67MOL0     H 9241  11.454   6.559  10.846  0.8137  0.0659 -1.5928
   67MOL0     H 9242  11.596   6.160  10.738  0.4434  0.6262 -0.5266
   67MOL0     H 9243  11.239   6.788  11.272  0.9046 -0.3550 -0.4152
   67MOL0     H 9244  11.053   6.880  11.482 -3.0316 -1.2057  2.8938
   67MOL0     H 9245  11.078   6.739  11.590 -1.9490  3.1224  2.1204
   67MOL0     H 9246  11.215   6.809  11.517 -0.7478  2.2145  0.4979
   68MOL0     O 9247   5.283   8.271  10.441 -0.3652 -0.5958 -0.5829
   68MOL0     C 9248   5.314   8.169  10.501 -1.0953  0.0945  0.0620
   68MOL0     O 9249   5.252   8.116  10.615  0.2868 -0.3281 -0.1932
   68MOL0     C 9250   5.142   8.187  10.667 -0.4397  0.3457 -0.2231
   68MOL0     C 9251   5.149   8.217  10.800 -0.7377 -0.9220 -0.1860
   68MOL0     C 9252   5.049   8.282  10.873  1.2494 -0.6780  0.0574
   68MOL0     C 9253   4.924   8.315  10.802 -0.7721 -0.7348 -0.4071
   68MOL0     O 9254   4.816   8.365  10.870  0.5263 -0.2057  0.3894
   68MOL0     C 9255   4.846   8.461  10.975 -1.1534  0.1539  0.9359
   68MOL0     C 9256   4.892   8.593  10.921 -0.0501  0.2574  0.3799
   68MOL0     C 9257   4.778   8.673  10.848 -0.1653 -0.0258  1.0759
   68MOL0     C 9258   4.834   8.817  10.808 -0.2375 -0.3009 -0.7350
   68MOL0     C 9259   4.724   8.913  10.771 -0.3090  0.0812 -0.2423
   68MOL0     C 9260   4.609   8.922  10.865 -0.0806  0.6276 -0.5186
   68MOL0     C 9261   4.658   8.950  11.006 -0.1413 -0.0938  0.0400
   68MOL0     C 9262   4.549   8.981  11.113  0.2685 -0.8140 -1.0098
   68MOL0     N 9263   4.459   8.875  11.127 -0.0444  0.2450  0.4583
   68MOL0     C 9264   4.480   8.749  11.182 -1.1632  0.4781  0.1403
   68MOL0     C 9265   4.365   8.681  11.171  1.0456  0.5829 -0.2869
   68MOL0     C 9266   4.338   8.540  11.206  0.3268  0.0249 -0.5968
   68MOL0     C 9267   4.294   8.451  11.077  0.2115  0.4334 -0.1317
   68MOL0     C 9268   4.266   8.305  11.117  0.2309 -0.6223 -0.3808
   68MOL0     C 9269   4.210   8.219  10.998  1.4911  0.1620 -1.1756
   68MOL0     O 9270   4.301   8.131  10.937  0.0274 -0.2627  0.2270
   68MOL0     C 9271   4.337   8.010  11.006  0.2680 -0.0808 -0.3552
   68MOL0     C 9272   4.416   7.930  10.931 -0.4074 -0.8183  0.1367
   68MOL0     C 9273   4.470   7.808  10.970 -0.4875  0.5051 -0.3899
   68MOL0     C 9274   4.561   7.748  10.875  0.4388  0.7314  0.4809
   68MOL0     C 9275   4.450   7.763  11.108  1.1868 -0.3610 -0.2810
   68MOL0     C 9276   4.488   7.625  11.159  0.5426  0.4176 -0.6155
   68MOL0     O 9277   4.523   7.533  11.073 -0.2062  0.0003  0.1021
   68MOL0     C 9278   4.580   7.412  11.121  0.1741  0.1867  0.4267
   68MOL0     C 9279   4.666   7.402  11.225 -0.3243  0.3345  0.4086
   68MOL0     C 9280   4.708   7.277  11.261 -0.1830 -0.0837  0.3754
   68MOL0     C 9281   4.670   7.161  11.200  0.0959  0.8811  0.1883
   68MOL0     O 9282   4.710   7.029  11.228 -0.2945  0.3405  0.2621
   68MOL0     C 9283   4.802   7.003  11.332  0.3369 -0.8044 -0.0688
   68MOL0     C 9284   4.910   6.910  11.289 -0.4315 -0.0099  0.4153
   68MOL0     C 9285   4.895   6.765  11.344  0.9540 -0.4945  0.0875
   68MOL0     C 9286   4.988   6.667  11.293 -1.2771  0.9694 -0.5649
   68MOL0     C 9287   5.121   6.685  11.356 -0.8864  0.1620 -0.3806
   68MOL0     C 9288   5.220   6.570  11.309 -0.5555  0.4194  1.1467
   68MOL0     C 9289   5.362   6.606  11.371 -0.2685  0.1547  0.4292
   68MOL0     C 9290   5.362   6.574  11.524 -0.3690 -0.1269 -0.2283
   68MOL0    Cl 9291   5.391   6.392  11.550 -0.1706 -0.7239 -0.2675
   68MOL0     C 9292   4.576   7.173  11.094 -0.4927 -0.1692  0.0145
   68MOL0     C 9293   4.528   7.298  11.059 -0.2644  0.4874  0.5015
   68MOL0     O 9294   4.481   7.605  11.278  0.6546 -0.0114 -0.5088
   68MOL0     C 9295   4.379   7.854  11.188 -1.1795 -1.1665 -1.0032
   68MOL0     C 9296   4.324   7.979  11.142 -0.4014 -0.3006 -0.1846
   68MOL0     N 9297   4.280   8.766  11.100  0.7213 -0.0722  0.2175
   68MOL0     N 9298   4.331   8.879  11.083 -0.6146  0.4838  0.1388
   68MOL0     C 9299   4.923   8.275  10.663 -0.6078  0.2555  0.0786
   68MOL0     C 9300   5.023   8.211  10.591  0.1530 -0.2211  0.4416
   68MOL0     C 9301   5.417   8.083  10.451  1.0317 -0.5951  0.2967
   68MOL0     C 9302   5.504   8.014  10.540 -0.5218 -0.3474 -1.1260
   68MOL0     C 9303   5.605   7.938  10.502  0.8486  0.6711 -0.1239
   68MOL0     C 9304   5.631   7.926  10.362 -0.2644  0.0196 -0.9664
   68MOL0     O 9305   5.750   7.870  10.314  0.7106 -1.2731  0.2681
   68MOL0     C 9306   5.864   7.862  10.401  0.7476  0.0803 -0.7132
   68MOL0     C 9307   5.987   7.807  10.334 -0.0402  0.2800  0.1335
   68MOL0     C 9308   5.967   7.647  10.317 -1.1526  0.8416 -0.7715
   68MOL0     C 9309   6.085   7.577  10.247  0.0415  0.3046  0.2103
   68MOL0     C 9310   6.060   7.453  10.189 -0.5445  0.2638  0.9208
   68MOL0     C 9311   6.067   7.345  10.134 -0.5324 -0.6382  0.2322
   68MOL0     C 9312   5.549   7.991  10.270  0.7525 -0.1456  0.2211
   68MOL0     C 9313   5.436   8.063  10.313 -1.0224  0.2771  0.8738
   68MOL0     C 9314   5.345   8.117  10.208  0.5214  0.1128  0.1826
   68MOL0     H 9315   5.235   8.200  10.864 -1.6725  0.3543  1.4917
   68MOL0     H 9316   5.059   8.298  10.980 -0.2387  1.2319 -0.0272
   68MOL0     H 9317   4.924   8.420  11.039 -0.0883 -0.6633 -0.8016
   68MOL0     H 9318   4.773   8.491  11.050  1.7946  2.3050  3.2085
   68MOL0     H 9319   4.933   8.650  11.005 -0.1501  2.1850 -0.8135
   68MOL0     H 9320   4.976   8.582  10.851 -0.4974  1.1278 -0.3145
   68MOL0     H 9321   4.738   8.639  10.752  0.2546  0.4551  0.7282
   68MOL0     H 9322   4.698   8.675  10.923 -0.9961  2.2756  0.1973
   68MOL0     H 9323   4.889   8.857  10.894 -1.3726  0.6580 -0.4384
   68MOL0     H 9324   4.910   8.821  10.729 -0.6915 -0.2447 -1.1715
   68MOL0     H 9325   4.677   8.885  10.676 -1.0365 -1.4687  0.5446
   68MOL0     H 9326   4.773   9.011  10.774  1.5112 -0.7708 -1.1734
   68MOL0     H 9327   4.536   8.997  10.833 -2.2550 -1.3826 -0.6172
   68MOL0     H 9328   4.564   8.822  10.860  3.4939 -1.4399  2.9335
   68MOL0     H 9329   4.720   9.039  10.994  1.1643 -0.9516  0.1667
   68MOL0     H 9330   4.715   8.862  11.038 -2.0666 -2.2520 -2.1125
   68MOL0     H 9331   4.601   9.018  11.201 -1.3016  0.7582 -0.6928
   68MOL0     H 9332   4.488   9.065  11.079  1.3329 -0.5306 -2.3355
   68MOL0     H 9333   4.570   8.716  11.233 -2.5836 -1.5948  1.4856
   68MOL0     H 9334   4.250   8.527  11.270 -1.4484  2.0708 -2.4385
   68MOL0     H 9335   4.422   8.504  11.266  0.5853  1.1093 -0.2840
   68MOL0     H 9336   4.213   8.495  11.019  1.7846  3.5033 -0.1806
   68MOL0     H 9337   4.378   8.452  11.008 -1.1106 -0.4892 -1.8236
   68MOL0     H 9338   4.360   8.264  11.155 -1.0907 -3.7540 -0.1902
   68MOL0     H 9339   4.194   8.304  11.200  0.6445 -2.8936 -0.0074
   68MOL0     H 9340   4.122   8.158  11.018  1.9932 -0.6284 -1.3540
   68MOL0     H 9341   4.168   8.288  10.923 -0.6550  2.0274  1.5223
   68MOL0     H 9342   4.433   7.978  10.835  2.8494  0.6341  1.3069
   68MOL0     H 9343   4.537   7.641  10.865 -1.6582  1.1932  0.1919
   68MOL0     H 9344   4.667   7.763  10.896  0.6634  0.2741 -0.2494
   68MOL0     H 9345   4.538   7.794  10.778  1.1596  2.4278  1.0912
   68MOL0     H 9346   4.704   7.494  11.269  3.2317 -0.2357 -1.1531
   68MOL0     H 9347   4.793   7.282  11.329 -0.3324 -1.3510  0.6871
   68MOL0     H 9348   4.854   7.093  11.367  3.9190 -2.6037 -0.3189
   68MOL0     H 9349   4.753   6.966  11.422  2.9947  1.9876  2.7676
   68MOL0     H 9350   4.909   6.902  11.180 -1.3901  0.1170  0.4055
   68MOL0     H 9351   5.006   6.951  11.319  0.8482 -1.1191 -1.9506
   68MOL0     H 9352   4.791   6.744  11.317  0.3030  3.2330 -0.8765
   68MOL0     H 9353   4.897   6.778  11.453  1.9719  2.2430 -0.1659
   68MOL0     H 9354   4.994   6.684  11.185 -1.5771 -0.6326 -0.8558
   68MOL0     H 9355   4.954   6.565  11.308 -0.6686  0.6751 -1.1292
   68MOL0     H 9356   5.155   6.785  11.326 -0.1696 -0.0294 -0.2165
   68MOL0     H 9357   5.118   6.688  11.465  0.5572 -1.4737 -0.2690
   68MOL0     H 9358   5.225   6.570  11.200  2.4805  1.8740  1.1987
   68MOL0     H 9359   5.195   6.465  11.330  1.2672 -0.8640 -2.2466
   68MOL0     H 9360   5.395   6.709  11.355  0.3229  0.0093  0.6921
   68MOL0     H 9361   5.426   6.538  11.315 -2.1330  0.0149 -1.6863
   68MOL0     H 9362   5.272   6.606  11.578  1.4323  1.4862  2.0082
   68MOL0     H 9363   5.439   6.632  11.576  0.0514  1.8876 -2.9273
   68MOL0     H 9364   4.542   7.079  11.052 -0.6686 -0.3969  0.6404
   68MOL0     H 9365   4.466   7.305  10.970 -0.2991  0.5873  0.5338
   68MOL0     H 9366   4.370   7.846  11.296  2.1312  1.4967 -0.3611
   68MOL0     H 9367   4.274   8.035  11.221 -2.0001 -0.5890 -0.9501
   68MOL0     H 9368   4.837   8.272  10.596  0.7858  0.4379 -1.8199
   68MOL0     H 9369   5.021   8.185  10.485 -0.1670 -0.7941  0.5841
   68MOL0     H 9370   5.509   8.020  10.649 -2.2822 -0.9127 -0.9783
   68MOL0     H 9371   5.672   7.908  10.582  0.4856 -1.7450 -0.6543
   68MOL0     H 9372   5.889   7.966  10.422  1.6367 -0.4887  1.2978
   68MOL0     H 9373   5.843   7.806  10.492  0.1911  0.0601 -0.8542
   68MOL0     H 9374   6.076   7.827  10.395  2.5204  1.2084 -3.5553
   68MOL0     H 9375   6.002   7.862  10.240 -2.6723 -3.6030 -2.8669
   68MOL0     H 9376   5.950   7.605  10.417  1.0527 -0.7139 -0.9764
   68MOL0     H 9377   5.878   7.626  10.256 -1.0623 -2.7626  0.1046
   68MOL0     H 9378   6.173   7.572  10.313 -0.3651 -0.4539  0.7098
   68MOL0     H 9379   6.109   7.646  10.166 -0.8519  0.8664  0.4032
   68MOL0     H 9380   6.079   7.253  10.082 -0.3384 -1.7418  2.1227
   68MOL0     H 9381   5.575   7.991  10.165  2.6231 -1.1612  0.6418
   68MOL0     H 9382   5.339   8.046  10.125 -1.4220 -2.3994  2.2767
   68MOL0     H 9383   5.243   8.151  10.229  0.4050 -1.3281  2.3406
   68MOL0     H 9384   5.393   8.211  10.182 -0.6189  1.2686  2.0511
   69MOL0     O 9385   5.511  10.440   8.664 -0.3710  0.4523  0.4404
   69MOL0     C 9386   5.405  10.389   8.682  1.5069  0.1250  0.1843
   69MOL0     O 9387   5.390  10.268   8.750 -0.7562 -0.3017  1.1982
   69MOL0     C 9388   5.501  10.191   8.761  0.1776 -0.6969 -0.3075
   69MOL0     C 9389   5.505  10.071   8.698  0.1318  0.0106 -0.0047
   69MOL0     C 9390   5.582   9.970   8.744 -0.1868 -1.5740  1.5229
   69MOL0     C 9391   5.664   9.993   8.858  1.5250 -0.6906  0.9780
   69MOL0     O 9392   5.737   9.895   8.912 -1.0049 -0.3823 -0.2781
   69MOL0     C 9393   5.708   9.876   9.052 -0.1042 -1.0089  0.0731
   69MOL0     C 9394   5.837   9.862   9.129 -0.4318  0.0693 -0.0870
   69MOL0     C 9395   5.937   9.765   9.063  0.4834 -0.0874 -0.1640
   69MOL0     C 9396   5.891   9.629   9.051 -0.0240 -0.4443  0.1039
   69MOL0     C 9397   5.884   9.545   9.188 -0.2997  0.5687  0.9618
   69MOL0     C 9398   5.997   9.563   9.278 -0.2270  0.4410 -0.1167
   69MOL0     C 9399   5.977   9.512   9.423  0.0905 -0.2136 -0.0259
   69MOL0     C 9400   6.103   9.536   9.507  0.0279  0.3584  0.2661
   69MOL0     N 9401   6.137   9.444   9.612 -0.3600  0.9815 -0.5632
   69MOL0     C 9402   6.166   9.491   9.743 -0.1949 -0.2421  0.4147
   69MOL0     C 9403   6.247   9.396   9.794  0.2270 -0.3041  0.6304
   69MOL0     C 9404   6.313   9.393   9.930 -0.4825 -0.7822  0.6770
   69MOL0     C 9405   6.210   9.437  10.037  0.4301  0.6233 -0.1627
   69MOL0     C 9406   6.097   9.327  10.044  1.0807  0.0159 -0.1305
   69MOL0     C 9407   6.023   9.329  10.171 -0.2122  0.9810 -0.0214
   69MOL0     O 9408   5.946   9.214  10.200 -0.5671  0.4346  1.3801
   69MOL0     C 9409   5.825   9.185  10.124 -0.6334  0.4721 -0.4122
   69MOL0     C 9410   5.767   9.274  10.035  0.2372 -0.3133  0.4687
   69MOL0     C 9411   5.639   9.242   9.977 -0.0899 -0.9453  0.1837
   69MOL0     C 9412   5.563   9.349   9.894  0.7586  0.4659 -0.0474
   69MOL0     C 9413   5.588   9.115   9.999  0.2480 -0.8773 -0.4577
   69MOL0     C 9414   5.459   9.084   9.948  0.0875  0.7004  0.4547
   69MOL0     O 9415   5.458   8.989   9.847  0.3786 -0.8734 -0.4391
   69MOL0     C 9416   5.352   8.943   9.778 -0.3780 -1.2394 -0.0747
   69MOL0     C 9417   5.223   8.999   9.774 -0.6610  0.5982  0.8027
   69MOL0     C 9418   5.129   8.948   9.679  0.7110 -1.1451  0.7215
   69MOL0     C 9419   5.158   8.848   9.588 -0.4965  0.1800 -0.0652
   69MOL0     O 9420   5.076   8.795   9.492 -0.1738 -0.2822 -0.0833
   69MOL0     C 9421   4.945   8.755   9.525  0.4402 -0.9024  0.6903
   69MOL0     C 9422   4.922   8.635   9.429 -0.2151  0.3126 -0.6151
   69MOL0     C 9423   4.910   8.669   9.279  1.3236 -0.7449 -0.1990
   69MOL0     C 9424   5.043   8.649   9.201 -0.3749  0.7230 -0.1660
   69MOL0     C 9425   5.046   8.504   9.142 -0.1961  0.2881 -0.3384
   69MOL0     C 9426   5.137   8.494   9.026 -0.1944 -0.7231 -0.1682
   69MOL0     C 9427   5.061   8.549   8.900 -0.2219 -0.4540 -0.1594
   69MOL0     C 9428   4.978   8.446   8.825  0.5287  0.1302  0.0494
   69MOL0    Cl 9429   4.822   8.409   8.906 -0.1543 -0.0082  0.0201
   69MOL0     C 9430   5.285   8.793   9.598 -0.0362  0.4861 -0.2566
   69MOL0     C 9431   5.380   8.838   9.695 -0.6174  0.4154  0.1951
   69MOL0     O 9432   5.357   9.140   9.986  0.2333 -0.0662 -0.4161
   69MOL0     C 9433   5.661   9.024  10.087  0.6762  0.0706 -0.8770
   69MOL0     C 9434   5.775   9.062  10.149  0.5312  0.6140  0.4596
   69MOL0     N 9435   6.274   9.296   9.703  0.1055  1.2021  0.4050
   69MOL0     N 9436   6.199   9.322   9.609 -0.4577 -0.3164  0.5332
   69MOL0     C 9437   5.674  10.126   8.914  1.4788  0.0651  0.5412
   69MOL0     C 9438   5.593  10.221   8.867  0.3413 -0.2383  0.3980
   69MOL0     C 9439   5.279  10.469   8.648 -0.5195  0.0918  0.3480
   69MOL0     C 9440   5.154  10.415   8.684 -0.5448 -0.3015 -0.9733
   69MOL0     C 9441   5.031  10.476   8.657 -0.5196  1.0977 -0.2751
   69MOL0     C 9442   5.032  10.608   8.607 -0.3165  0.2879  0.2536
   69MOL0     O 9443   4.916  10.675   8.620 -0.0188 -0.5039 -0.2923
   69MOL0     C 9444   4.921  10.819   8.654 -0.2858  0.4451  0.5543
   69MOL0     C 9445   5.001  10.862   8.773 -0.2938 -1.2338  0.7275
   69MOL0     C 9446   4.962  10.777   8.902  0.6965 -0.2512  0.4926
   69MOL0     C 9447   4.911  10.857   9.026  0.6751  0.4316  0.3131
   69MOL0     C 9448   5.022  10.942   9.067  0.2535  0.1947  0.2853
   69MOL0     C 9449   5.111  11.017   9.108  0.1624 -0.0220  0.3109
   69MOL0     C 9450   5.153  10.667   8.570 -0.2676  0.6244  0.5714
   69MOL0     C 9451   5.279  10.594   8.579  1.3155 -0.3086  0.4226
   69MOL0     C 9452   5.405  10.662   8.511  0.1121  0.3655 -0.0363
   69MOL0     H 9453   5.437  10.048   8.616 -0.1760 -4.6177  1.2995
   69MOL0     H 9454   5.581   9.870   8.702  4.5103 -0.7587 -1.2888
   69MOL0     H 9455   5.656   9.781   9.067  3.3792 -2.7043  3.0711
   69MOL0     H 9456   5.654   9.962   9.093  0.4332 -1.3347  1.5267
   69MOL0     H 9457   5.892   9.956   9.140 -0.1749 -0.1689  0.7911
   69MOL0     H 9458   5.806   9.835   9.230 -5.8622  1.9650 -0.9335
   69MOL0     H 9459   5.969   9.803   8.966  1.5766  0.1212  0.2659
   69MOL0     H 9460   6.026   9.788   9.122  0.3569 -0.1853  0.0659
   69MOL0     H 9461   5.792   9.629   9.003  0.3388 -1.5646 -0.6958
   69MOL0     H 9462   5.959   9.578   8.982 -0.2844  0.5992 -0.9569
   69MOL0     H 9463   5.876   9.440   9.157  1.7376  0.1721  1.6361
   69MOL0     H 9464   5.789   9.563   9.238 -0.0052  1.1119  1.3262
   69MOL0     H 9465   6.084   9.510   9.238  1.0189  0.6234  2.1792
   69MOL0     H 9466   6.024   9.669   9.281 -2.2274  0.9915 -0.2035
   69MOL0     H 9467   5.959   9.405   9.415 -1.1088  0.0758 -1.8895
   69MOL0     H 9468   5.893   9.562   9.471  0.3837 -0.1099  0.3877
   69MOL0     H 9469   6.182   9.550   9.432 -1.0816  2.0981 -0.6738
   69MOL0     H 9470   6.086   9.638   9.543 -2.6411  0.7766 -1.8047
   69MOL0     H 9471   6.144   9.583   9.795  0.0132  0.3646 -0.5353
   69MOL0     H 9472   6.400   9.459   9.934  0.0426 -1.0430 -3.1216
   69MOL0     H 9473   6.348   9.292   9.951  2.4614  0.4814  2.4597
   69MOL0     H 9474   6.270   9.443  10.128  2.4888 -0.8761 -1.3207
   69MOL0     H 9475   6.165   9.532  10.009 -1.5050 -0.0743  0.3860
   69MOL0     H 9476   6.032   9.336   9.956  0.3019  0.5430  0.4845
   69MOL0     H 9477   6.145   9.230  10.056 -2.2938 -2.2849 -3.1487
   69MOL0     H 9478   6.096   9.323  10.253  0.4494 -3.1728 -0.7174
   69MOL0     H 9479   5.969   9.423  10.162  2.9670  2.7569 -3.0700
   69MOL0     H 9480   5.807   9.371  10.007  0.2228 -0.0303  1.3985
   69MOL0     H 9481   5.520   9.293   9.810  0.7254 -3.0860  2.1202
   69MOL0     H 9482   5.620   9.438   9.866 -1.8711  2.0625 -0.6672
   69MOL0     H 9483   5.484   9.390   9.957 -0.9522 -1.7405 -0.6118
   69MOL0     H 9484   5.187   9.090   9.820  1.0637  1.0045  1.4343
   69MOL0     H 9485   5.029   8.987   9.687  1.4852  0.8376  1.2128
   69MOL0     H 9486   4.928   8.715   9.625 -2.1063  0.9276  1.0930
   69MOL0     H 9487   4.879   8.836   9.493  2.0740 -0.3656 -1.5692
   69MOL0     H 9488   4.999   8.559   9.447 -0.9760 -0.5038 -0.7203
   69MOL0     H 9489   4.827   8.591   9.461 -0.6513  0.9904 -0.9744
   69MOL0     H 9490   4.892   8.777   9.273 -2.7254 -1.2707 -0.5383
   69MOL0     H 9491   4.824   8.614   9.240 -0.7133  0.7409  1.8710
   69MOL0     H 9492   5.128   8.660   9.270  0.3408  1.6253 -1.1615
   69MOL0     H 9493   5.028   8.720   9.120  0.9518 -0.0162 -1.0934
   69MOL0     H 9494   5.066   8.426   9.217  1.5235 -0.9866 -2.0304
   69MOL0     H 9495   4.949   8.471   9.103  0.7709 -2.6968 -0.5248
   69MOL0     H 9496   5.163   8.390   9.006 -2.0213 -0.9106 -1.9273
   69MOL0     H 9497   5.229   8.552   9.036 -1.1237  0.3197  4.5677
   69MOL0     H 9498   5.136   8.589   8.831  0.7208  2.8194  2.4808
   69MOL0     H 9499   5.003   8.637   8.931 -2.9950 -2.0667 -0.4018
   69MOL0     H 9500   5.040   8.356   8.821  0.5924  0.1390  0.7189
   69MOL0     H 9501   4.955   8.468   8.721 -1.6145  1.4657  0.7437
   69MOL0     H 9502   5.335   8.729   9.526  2.3003  0.9828  0.7971
   69MOL0     H 9503   5.479   8.798   9.679  0.2522  3.6237 -4.6817
   69MOL0     H 9504   5.638   8.925  10.125 -0.1827  0.3336 -0.6765
   69MOL0     H 9505   5.826   8.997  10.220 -1.2505 -0.8581  0.4497
   69MOL0     H 9506   5.750  10.148   8.989  0.9084  2.4153  0.5041
   69MOL0     H 9507   5.585  10.319   8.912  1.8600  0.7897 -1.3774
   69MOL0     H 9508   5.148  10.320   8.737 -2.2163  0.1095 -0.3513
   69MOL0     H 9509   4.934  10.436   8.685  0.1124  0.5827  1.2279
   69MOL0     H 9510   4.947  10.869   8.560  0.0844  1.7419  1.3193
   69MOL0     H 9511   4.818  10.854   8.667 -1.2153 -2.1013  0.4688
   69MOL0     H 9512   5.001  10.970   8.791  1.2573 -1.0697 -0.0347
   69MOL0     H 9513   5.102  10.849   8.732 -0.1604  2.1775 -0.3950
   69MOL0     H 9514   4.877  10.710   8.886 -0.5747  1.3870  0.0543
   69MOL0     H 9515   5.054  10.728   8.933  1.6165 -0.0418 -1.7463
   69MOL0     H 9516   4.882  10.790   9.107  2.4782  1.6343  2.0607
   69MOL0     H 9517   4.827  10.906   8.976 -0.7783 -2.3545 -0.1486
   69MOL0     H 9518   5.177  11.095   9.142  1.9099 -2.5087  3.2581
   69MOL0     H 9519   5.146  10.769   8.535 -3.2576  0.6101  0.8432
   69MOL0     H 9520   5.460  10.589   8.450 -1.1552 -1.1994  0.6202
   69MOL0     H 9521   5.380  10.744   8.443 -0.8829  0.6058  0.6102
   69MOL0     H 9522   5.474  10.691   8.590 -0.8557 -1.9020  1.7329
   70MOL0     O 9523   0.328   1.520   5.704 -0.4390 -0.4348 -0.2848
   70MOL0     C 9524   0.260   1.524   5.803  1.0758  0.5851  0.5944
   70MOL0     O 9525   0.299   1.500   5.933  0.4156  0.2723 -0.8072
   70MOL0     C 9526   0.429   1.467   5.953 -0.9212  0.2824 -0.4518
   70MOL0     C 9527   0.528   1.561   5.936  0.7159  0.1452  0.4135
   70MOL0     C 9528   0.665   1.539   5.966  0.0763  0.1691  0.1926
   70MOL0     C 9529   0.707   1.418   6.020 -0.3317 -0.1569  0.4634
   70MOL0     O 9530   0.837   1.387   6.047  0.3158 -0.4638  0.6491
   70MOL0     C 9531   0.853   1.374   6.182 -0.4546 -0.1788 -0.3263
   70MOL0     C 9532   0.988   1.443   6.217  0.3235  0.0401  0.6942
   70MOL0     C 9533   0.988   1.604   6.207 -0.2122  1.3518  0.4628
   70MOL0     C 9534   1.099   1.660   6.297  0.3515 -0.4658 -0.5072
   70MOL0     C 9535   1.117   1.811   6.276 -0.6761 -0.1948 -0.7197
   70MOL0     C 9536   1.007   1.891   6.334  1.0044 -0.5536 -0.3729
   70MOL0     C 9537   1.039   2.041   6.322  0.8815 -0.7868 -0.0706
   70MOL0     C 9538   0.926   2.111   6.393  0.0278  0.3382 -0.4344
   70MOL0     N 9539   0.931   2.261   6.378 -0.1406 -0.4617 -0.1319
   70MOL0     C 9540   1.020   2.350   6.434  0.3016 -0.0018 -0.1365
   70MOL0     C 9541   0.992   2.472   6.384  0.0695 -0.3299  0.3834
   70MOL0     C 9542   1.056   2.607   6.425 -0.4775 -0.3173  0.3681
   70MOL0     C 9543   1.193   2.635   6.357 -0.5633 -0.6556 -0.4410
   70MOL0     C 9544   1.187   2.662   6.213  0.2638  0.0888 -0.4534
   70MOL0     C 9545   1.107   2.780   6.159  0.1284 -0.6615 -0.9069
   70MOL0     O 9546   0.975   2.737   6.174  0.3281 -0.4757  0.4860
   70MOL0     C 9547   0.873   2.805   6.114  0.0107  0.1429 -0.3586
   70MOL0     C 9548   0.879   2.938   6.067 -0.3656 -0.8438 -0.4688
   70MOL0     C 9549   0.765   3.022   6.020  0.2553  0.7438 -0.2603
   70MOL0     C 9550   0.780   3.173   6.006 -0.9230  0.6280 -1.4692
   70MOL0     C 9551   0.643   2.954   6.004 -0.5469  1.0437 -0.0810
   70MOL0     C 9552   0.508   3.018   5.972  0.4933 -0.1262 -0.5311
   70MOL0     O 9553   0.401   2.941   6.006 -0.3821 -0.1189 -0.6821
   70MOL0     C 9554   0.270   2.981   5.987  0.0604 -0.8792  0.3059
   70MOL0     C 9555   0.212   3.012   5.859  0.4858 -1.7309  0.1978
   70MOL0     C 9556   0.076   3.020   5.842  0.3056  0.4888 -0.2740
   70MOL0     C 9557  -0.013   2.994   5.951 -0.7842 -0.2412 -0.1747
   70MOL0     O 9558  -0.149   3.009   5.917 -0.0945  0.1140  0.0687
   70MOL0     C 9559  -0.236   2.919   5.984  0.0699  0.2399  0.1315
   70MOL0     C 9560  -0.376   2.914   5.927  0.1599 -0.3924  0.1955
   70MOL0     C 9561  -0.379   2.883   5.774  0.0511  0.8398 -0.8324
   70MOL0     C 9562  -0.390   2.726   5.751 -0.1763  0.7658 -0.1155
   70MOL0     C 9563  -0.365   2.679   5.609  0.6207 -0.7770  0.7178
   70MOL0     C 9564  -0.471   2.735   5.511  0.1547 -0.2536  0.3733
   70MOL0     C 9565  -0.457   2.659   5.381 -0.3358 -0.5788  0.5163
   70MOL0     C 9566  -0.546   2.711   5.265 -0.2364  0.3766  0.3014
   70MOL0    Cl 9567  -0.429   2.798   5.159  0.1491  0.4491  0.2932
   70MOL0     C 9568   0.039   2.979   6.081 -0.0959  1.2230 -0.2463
   70MOL0     C 9569   0.179   2.962   6.095 -0.5627  0.1177 -0.7066
   70MOL0     O 9570   0.500   3.130   5.919  0.4330  0.0530  0.6236
   70MOL0     C 9571   0.638   2.817   6.043 -0.4276  0.7186  0.2168
   70MOL0     C 9572   0.748   2.741   6.099 -0.3064  0.1182  0.1773
   70MOL0     N 9573   0.888   2.455   6.301  0.1308 -0.0242  0.2535
   70MOL0     N 9574   0.854   2.332   6.290  0.2329 -0.1464  0.8125
   70MOL0     C 9575   0.607   1.324   6.042  0.3816 -0.0426 -0.3365
   70MOL0     C 9576   0.476   1.345   6.018 -0.0675 -0.2676  0.2967
   70MOL0     C 9577   0.119   1.551   5.792 -0.0428 -0.1663 -0.8214
   70MOL0     C 9578   0.045   1.566   5.911  0.0819 -0.0917 -0.2345
   70MOL0     C 9579  -0.094   1.589   5.904  0.3031 -0.9522 -0.2876
   70MOL0     C 9580  -0.167   1.602   5.787 -0.0776  0.6783 -0.4156
   70MOL0     O 9581  -0.291   1.638   5.776  0.5001 -0.1861  0.5714
   70MOL0     C 9582  -0.360   1.667   5.890 -0.4983 -0.1560  0.2184
   70MOL0     C 9583  -0.409   1.533   5.957 -0.0534  0.4376  0.6107
   70MOL0     C 9584  -0.488   1.461   5.842  0.6056  0.4692 -0.1186
   70MOL0     C 9585  -0.512   1.322   5.885  0.8959  0.9155  0.0527
   70MOL0     C 9586  -0.418   1.225   5.843 -0.4502  0.5008  0.6467
   70MOL0     C 9587  -0.330   1.144   5.809 -0.8532  0.0136  0.1532
   70MOL0     C 9588  -0.096   1.582   5.671  0.0566 -0.9805 -0.0644
   70MOL0     C 9589   0.042   1.560   5.667 -1.3485 -0.7272  0.3148
   70MOL0     C 9590   0.105   1.522   5.533  0.3193  1.5379 -0.6825
   70MOL0     H 9591   0.505   1.664   5.913  1.2486  0.0605 -0.5265
   70MOL0     H 9592   0.719   1.633   5.960 -0.6452  0.4976 -2.2596
   70MOL0     H 9593   0.861   1.266   6.194  1.9176 -0.0353 -0.1258
   70MOL0     H 9594   0.787   1.426   6.252  1.5505  0.9160  0.8464
   70MOL0     H 9595   1.009   1.412   6.320 -1.5075 -1.6503  0.6034
   70MOL0     H 9596   1.064   1.401   6.150 -3.5535 -1.4187 -3.2518
   70MOL0     H 9597   1.002   1.631   6.102  1.7690 -0.3999  0.2236
   70MOL0     H 9598   0.893   1.647   6.241 -0.2314  1.3171  0.4529
   70MOL0     H 9599   1.094   1.631   6.403  0.0911 -0.2090 -0.4485
   70MOL0     H 9600   1.185   1.609   6.253  2.2088  1.1819  1.0472
   70MOL0     H 9601   1.120   1.834   6.169 -1.3579  0.7535 -0.5572
   70MOL0     H 9602   1.214   1.848   6.311 -1.1855  1.9356 -1.3454
   70MOL0     H 9603   0.910   1.863   6.293  0.7026 -0.2785  0.1505
   70MOL0     H 9604   0.991   1.869   6.440  2.0323 -1.6222 -0.4176
   70MOL0     H 9605   1.035   2.068   6.216 -1.9530  0.7876  0.3364
   70MOL0     H 9606   1.136   2.059   6.371  0.3885 -0.0397  0.6554
   70MOL0     H 9607   0.823   2.082   6.370  0.0941 -0.4546  0.1889
   70MOL0     H 9608   0.927   2.072   6.496 -3.9315 -0.4690 -0.5226
   70MOL0     H 9609   1.106   2.340   6.500  0.0925  3.0788  0.7549
   70MOL0     H 9610   1.075   2.612   6.533  1.2737  3.3327  0.0311
   70MOL0     H 9611   0.980   2.685   6.418 -1.5250 -1.2161  1.1474
   70MOL0     H 9612   1.233   2.716   6.418 -0.7256  1.2108 -2.6885
   70MOL0     H 9613   1.266   2.556   6.379 -0.9834 -0.7089  0.8089
   70MOL0     H 9614   1.286   2.680   6.171  1.0854  0.6915  1.6400
   70MOL0     H 9615   1.163   2.573   6.154  4.4782 -0.2490 -1.9855
   70MOL0     H 9616   1.124   2.869   6.219  0.3703  1.0716 -3.3925
   70MOL0     H 9617   1.134   2.795   6.054  2.1020 -0.3931 -0.4029
   70MOL0     H 9618   0.969   2.995   6.090 -0.8653  0.5737 -1.8308
   70MOL0     H 9619   0.882   3.210   6.016 -0.6092 -0.5096 -0.0190
   70MOL0     H 9620   0.717   3.217   6.084  2.2345 -3.7218  4.3187
   70MOL0     H 9621   0.755   3.201   5.904 -0.3601 -0.6256 -1.9657
   70MOL0     H 9622   0.283   3.015   5.777  2.5378 -2.2744  1.8576
   70MOL0     H 9623   0.037   3.052   5.746 -1.3687 -0.2821  0.1076
   70MOL0     H 9624  -0.197   2.817   5.974  1.1374  0.5907  0.5077
   70MOL0     H 9625  -0.245   2.941   6.091  3.9009  0.5569  0.5205
   70MOL0     H 9626  -0.439   2.842   5.979 -0.6722  0.1320 -0.0572
   70MOL0     H 9627  -0.428   3.011   5.929  2.1647  0.8191 -1.4928
   70MOL0     H 9628  -0.292   2.926   5.724  1.8031  0.0660  1.4003
   70MOL0     H 9629  -0.465   2.930   5.724  1.0910  2.7908 -0.8992
   70MOL0     H 9630  -0.484   2.685   5.790  2.7521 -3.5582  3.5161
   70MOL0     H 9631  -0.313   2.675   5.809 -0.6538 -2.1113 -1.7971
   70MOL0     H 9632  -0.264   2.697   5.572  0.0091  0.6612 -0.3579
   70MOL0     H 9633  -0.378   2.571   5.601 -0.8392 -0.5162 -1.2150
   70MOL0     H 9634  -0.450   2.842   5.503 -2.8486  0.4480  0.3873
   70MOL0     H 9635  -0.575   2.728   5.546 -0.1352  0.0540 -0.3978
   70MOL0     H 9636  -0.482   2.553   5.396  0.6255 -0.7387  1.0827
   70MOL0     H 9637  -0.351   2.664   5.356 -0.2178  0.0622  1.1273
   70MOL0     H 9638  -0.630   2.775   5.294  0.6518  0.8367  1.9380
   70MOL0     H 9639  -0.592   2.623   5.217  0.6536 -0.0207  0.1659
   70MOL0     H 9640  -0.021   2.971   6.171 -0.0994  0.7753 -0.2862
   70MOL0     H 9641   0.212   2.930   6.193  0.7396  0.9323 -0.8615
   70MOL0     H 9642   0.549   2.760   6.020 -0.2468  1.4410 -2.6242
   70MOL0     H 9643   0.728   2.640   6.134 -1.5051  0.4478  0.4967
   70MOL0     H 9644   0.625   1.227   6.087 -3.2452 -0.4387  0.5573
   70MOL0     H 9645   0.416   1.257   6.037 -0.6091  0.0036 -0.1312
   70MOL0     H 9646   0.086   1.579   6.011 -2.1836  1.9916  0.5145
   70MOL0     H 9647  -0.139   1.606   6.001 -0.2663  1.1617 -0.8813
   70MOL0     H 9648  -0.302   1.721   5.965  1.2461 -1.2911 -0.2510
   70MOL0     H 9649  -0.443   1.734   5.864  2.5819  3.5759 -1.0041
   70MOL0     H 9650  -0.473   1.548   6.044 -1.6152  0.9539 -0.5849
   70MOL0     H 9651  -0.318   1.476   5.979 -1.2121 -1.5968  0.2887
   70MOL0     H 9652  -0.581   1.517   5.830  0.8096  0.9623  0.5871
   70MOL0     H 9653  -0.433   1.457   5.748 -1.0701 -2.8101 -1.1171
   70MOL0     H 9654  -0.600   1.289   5.829  1.4150 -1.4175  0.4752
   70MOL0     H 9655  -0.510   1.312   5.994  1.2774 -0.2519 -0.0448
   70MOL0     H 9656  -0.259   1.069   5.780  1.4676  2.1689 -0.0961
   70MOL0     H 9657  -0.148   1.598   5.577 -2.4168  0.0343  1.3936
   70MOL0     H 9658   0.152   1.424   5.548 -0.3591  1.1784 -0.8747
   70MOL0     H 9659   0.026   1.506   5.459  0.2156 -1.0356 -0.1012
   70MOL0     H 9660   0.173   1.597   5.492  0.6583  2.6449  1.7316
   71MOL0     O 9661   6.390  10.864   7.341 -0.0057  0.5070 -0.3068
   71MOL0     C 9662   6.319  10.915   7.253 -0.5288  0.4277 -0.4882
   71MOL0     O 9663   6.207  10.998   7.280 -0.9889  0.0940 -0.6690
   71MOL0     C 9664   6.144  11.014   7.399 -0.6350 -0.3916 -0.9801
   71MOL0     C 9665   6.069  10.916   7.454 -0.1626  0.6900 -1.0257
   71MOL0     C 9666   5.998  10.926   7.576 -0.9981 -0.0067  0.4800
   71MOL0     C 9667   6.020  11.042   7.649 -0.2362  0.0328  0.3714
   71MOL0     O 9668   5.980  11.074   7.773 -0.3856  0.0926  0.6408
   71MOL0     C 9669   5.913  10.984   7.854  1.4665 -0.3611  0.9405
   71MOL0     C 9670   5.761  11.036   7.884  0.7907 -0.2410 -0.0909
   71MOL0     C 9671   5.743  11.184   7.913 -0.4263 -0.3978  0.0524
   71MOL0     C 9672   5.595  11.232   7.907 -0.4051 -0.7811  0.6877
   71MOL0     C 9673   5.537  11.282   8.045 -0.2543  0.1631 -0.1129
   71MOL0     C 9674   5.546  11.182   8.159  0.7281 -0.4446 -0.2818
   71MOL0     C 9675   5.459  11.242   8.269  0.3054  0.2676  0.6021
   71MOL0     C 9676   5.471  11.144   8.387 -0.8736  0.2321  0.1353
   71MOL0     N 9677   5.606  11.159   8.448 -0.4665  0.0918  0.0900
   71MOL0     C 9678   5.654  11.270   8.506 -0.8031  0.3946  0.2563
   71MOL0     C 9679   5.788  11.254   8.521 -0.0460  0.4034  0.3335
   71MOL0     C 9680   5.884  11.339   8.597 -0.2448 -1.3304  0.5431
   71MOL0     C 9681   5.979  11.258   8.686  0.6502  1.5037  0.9721
   71MOL0     C 9682   6.050  11.341   8.797  0.3391  0.2292  0.6177
   71MOL0     C 9683   6.125  11.224   8.872 -0.6921 -0.7222 -0.3325
   71MOL0     O 9684   6.161  11.268   9.003 -0.4598 -0.5384 -0.9051
   71MOL0     C 9685   6.293  11.297   9.043  0.2279  0.0936  0.5644
   71MOL0     C 9686   6.367  11.380   8.966  0.0350 -1.2999  0.0964
   71MOL0     C 9687   6.503  11.401   8.977  0.1879  0.0494 -0.6619
   71MOL0     C 9688   6.565  11.498   8.883 -0.8294 -0.1110 -0.7107
   71MOL0     C 9689   6.573  11.336   9.084 -0.9447 -1.1376  0.2160
   71MOL0     C 9690   6.726  11.342   9.101 -0.3777  1.3998 -0.7112
   71MOL0     O 9691   6.767  11.284   9.218 -0.1972  0.3756 -0.2399
   71MOL0     C 9692   6.866  11.342   9.293 -0.1716 -0.2557  0.1918
   71MOL0     C 9693   6.912  11.247   9.387 -0.3277  0.0033  0.5322
   71MOL0     C 9694   7.017  11.281   9.472  1.2405  0.4719  0.1364
   71MOL0     C 9695   7.067  11.417   9.468 -0.5627 -0.0510  0.4995
   71MOL0     O 9696   7.167  11.463   9.542  0.5825 -0.7366  0.9289
   71MOL0     C 9697   7.180  11.423   9.681 -0.7364  0.0192  0.3065
   71MOL0     C 9698   7.109  11.514   9.778 -0.6864 -0.0964 -1.4988
   71MOL0     C 9699   7.162  11.469   9.918 -0.0928 -0.5573 -0.1693
   71MOL0     C 9700   7.093  11.538  10.036 -0.0854 -0.2101  0.9134
   71MOL0     C 9701   7.154  11.480  10.157 -0.9881 -0.0723  1.6913
   71MOL0     C 9702   7.074  11.525  10.282 -0.4262  0.2522  0.1981
   71MOL0     C 9703   6.938  11.449  10.284 -0.2285 -0.4063 -0.7270
   71MOL0     C 9704   6.804  11.529  10.287  0.3476  0.2861 -0.5323
   71MOL0    Cl 9705   6.768  11.583  10.127 -0.7264 -0.1364 -0.3493
   71MOL0     C 9706   7.016  11.512   9.377  0.4852  0.3099  0.0664
   71MOL0     C 9707   6.918  11.469   9.281 -0.0146 -0.3080 -0.1342
   71MOL0     O 9708   6.797  11.385   9.010 -0.2130 -0.8899 -0.0688
   71MOL0     C 9709   6.494  11.266   9.172  1.3217  0.0098 -0.1326
   71MOL0     C 9710   6.361  11.237   9.144  0.4071 -0.7658 -0.7958
   71MOL0     N 9711   5.820  11.128   8.463  0.5503  0.6879  0.0060
   71MOL0     N 9712   5.710  11.070   8.435  0.4013  0.8250 -0.7345
   71MOL0     C 9713   6.109  11.151   7.601 -0.3022 -0.2743  0.7815
   71MOL0     C 9714   6.168  11.134   7.472 -0.2645  0.5623  0.0779
   71MOL0     C 9715   6.374  10.931   7.113 -0.8054 -0.7403  0.5798
   71MOL0     C 9716   6.284  10.976   7.015 -0.2384 -0.2256 -0.9465
   71MOL0     C 9717   6.325  11.003   6.884  1.1577  0.4134  0.0586
   71MOL0     C 9718   6.452  11.003   6.852 -0.1515 -0.5199 -0.3339
   71MOL0     O 9719   6.473  11.038   6.714 -0.2202 -0.7638 -0.3062
   71MOL0     C 9720   6.611  11.033   6.667  0.2823 -0.1031  0.2436
   71MOL0     C 9721   6.628  11.116   6.536  0.0987  0.3348 -0.5885
   71MOL0     C 9722   6.608  11.269   6.567  0.2338 -0.3321  0.9100
   71MOL0     C 9723   6.716  11.330   6.651 -0.0653 -0.0039  0.6987
   71MOL0     C 9724   6.729  11.475   6.619 -0.0880  0.7854  0.1436
   71MOL0     C 9725   6.743  11.591   6.593  0.2304 -0.0386  0.2443
   71MOL0     C 9726   6.548  10.964   6.939 -0.1380 -0.5114 -0.0408
   71MOL0     C 9727   6.510  10.910   7.067 -0.0522  0.3946  1.0527
   71MOL0     C 9728   6.632  10.855   7.138 -0.5865  0.4183  1.0143
   71MOL0     H 9729   6.053  10.824   7.399  2.2283 -1.6157  1.8075
   71MOL0     H 9730   5.935  10.844   7.609 -0.5857 -0.3829  0.3471
   71MOL0     H 9731   5.978  10.980   7.942  2.3049  0.3239  0.3702
   71MOL0     H 9732   5.917  10.882   7.814  2.5650 -1.6329  4.0121
   71MOL0     H 9733   5.699  11.024   7.795 -0.3356  0.8793  0.5140
   71MOL0     H 9734   5.713  10.973   7.960 -3.7940 -1.2734 -3.4460
   71MOL0     H 9735   5.791  11.215   8.007 -3.6531 -0.7444  1.9500
   71MOL0     H 9736   5.788  11.237   7.829 -3.8405  1.4894 -0.7671
   71MOL0     H 9737   5.605  11.315   7.836 -1.8819 -0.1592  1.1832
   71MOL0     H 9738   5.525  11.154   7.876 -1.0650  0.0678 -0.0012
   71MOL0     H 9739   5.430  11.301   8.030  0.1292  2.0765 -0.6875
   71MOL0     H 9740   5.584  11.376   8.076  0.9740 -0.0058 -1.3603
   71MOL0     H 9741   5.496  11.087   8.138  1.1570 -0.6052 -0.5664
   71MOL0     H 9742   5.651  11.169   8.187  0.9096 -0.4118 -0.9403
   71MOL0     H 9743   5.356  11.238   8.234  0.5794  0.6027 -0.2800
   71MOL0     H 9744   5.488  11.345   8.292  3.5079 -0.7162  1.4353
   71MOL0     H 9745   5.402  11.163   8.470 -1.0885 -0.5423  0.1417
   71MOL0     H 9746   5.467  11.040   8.353  1.7145 -0.0545  0.5505
   71MOL0     H 9747   5.603  11.364   8.525 -0.0669  1.0361 -0.8710
   71MOL0     H 9748   5.844  11.416   8.663 -1.1749  1.9618 -3.4264
   71MOL0     H 9749   5.938  11.400   8.523  3.4354 -1.4454  2.9221
   71MOL0     H 9750   5.911  11.186   8.732 -0.3237  2.7157  1.4807
   71MOL0     H 9751   6.057  11.206   8.629 -1.7689 -0.5248 -0.6801
   71MOL0     H 9752   6.120  11.418   8.764  0.1916  0.5506  1.0401
   71MOL0     H 9753   5.978  11.398   8.856 -1.2216  2.6442 -3.1929
   71MOL0     H 9754   6.068  11.130   8.879 -3.4759  0.9971  2.6953
   71MOL0     H 9755   6.223  11.204   8.827 -0.9971 -2.2793 -0.3649
   71MOL0     H 9756   6.317  11.413   8.876 -0.8796  1.3275  1.4799
   71MOL0     H 9757   6.495  11.562   8.830  0.6822  2.1066 -0.1506
   71MOL0     H 9758   6.622  11.438   8.812 -0.4904 -0.7681  0.0907
   71MOL0     H 9759   6.631  11.570   8.931 -0.7337  0.2562 -1.3839
   71MOL0     H 9760   6.865  11.149   9.381 -0.4854  0.0435  1.0399
   71MOL0     H 9761   7.055  11.206   9.541 -0.1529 -0.1591  0.2453
   71MOL0     H 9762   7.160  11.317   9.695  1.8474 -0.6674 -0.6728
   71MOL0     H 9763   7.286  11.436   9.703 -0.5893 -0.4008 -0.1608
   71MOL0     H 9764   7.143  11.615   9.751  1.2318  0.0261  0.9571
   71MOL0     H 9765   7.001  11.504   9.768 -1.1119  0.8234  1.1976
   71MOL0     H 9766   7.269  11.488   9.928 -0.8669  4.6809  0.5956
   71MOL0     H 9767   7.132  11.365   9.931  0.0745 -0.4245  1.3818
   71MOL0     H 9768   6.986  11.522  10.026 -0.1899  1.1022 -0.5910
   71MOL0     H 9769   7.109  11.645  10.019 -0.3208 -0.6250 -2.6846
   71MOL0     H 9770   7.165  11.371  10.153  0.7676  0.0816  1.5133
   71MOL0     H 9771   7.259  11.510  10.166 -0.0189 -3.0264  1.4714
   71MOL0     H 9772   7.060  11.634  10.281 -1.6954  0.1101 -0.0129
   71MOL0     H 9773   7.133  11.489  10.366 -2.1085 -2.5263  0.3267
   71MOL0     H 9774   6.931  11.390  10.376 -1.5029  0.6099 -0.1487
   71MOL0     H 9775   6.938  11.380  10.199 -0.3100 -3.3023  1.4467
   71MOL0     H 9776   6.810  11.620  10.347 -0.0501  1.0946 -1.6773
   71MOL0     H 9777   6.722  11.464  10.317  0.0133 -0.0650 -2.1059
   71MOL0     H 9778   7.066  11.607   9.389  0.3277  0.2378  1.3940
   71MOL0     H 9779   6.896  11.533   9.196 -0.9127  1.6526  1.5173
   71MOL0     H 9780   6.547  11.222   9.256  1.3650 -1.3863 -0.8551
   71MOL0     H 9781   6.302  11.179   9.214  0.3535 -2.3357 -2.0946
   71MOL0     H 9782   6.126  11.241   7.658 -0.0806  0.8017 -0.8939
   71MOL0     H 9783   6.228  11.207   7.419  1.7919  0.8582  2.6248
   71MOL0     H 9784   6.181  10.997   7.042  0.4441  4.5205 -1.1873
   71MOL0     H 9785   6.262  11.041   6.803 -0.9468 -0.0170  1.4321
   71MOL0     H 9786   6.684  11.069   6.741  2.3641 -0.6888 -1.4095
   71MOL0     H 9787   6.645  10.933   6.637  0.6583  0.9543 -3.3629
   71MOL0     H 9788   6.552  11.078   6.468 -2.1127  2.1852  0.6905
   71MOL0     H 9789   6.730  11.094   6.504  0.6953 -0.1958  1.5189
   71MOL0     H 9790   6.596  11.322   6.472  2.1125 -1.8007 -0.2080
   71MOL0     H 9791   6.513  11.287   6.618 -0.3652 -1.8066  0.3551
   71MOL0     H 9792   6.814  11.283   6.639 -0.3622 -0.8245  1.3335
   71MOL0     H 9793   6.690  11.336   6.757 -1.6886  2.0303  0.2428
   71MOL0     H 9794   6.758  11.697   6.589  0.7128 -0.0551  1.2000
   71MOL0     H 9795   6.645  10.940   6.897 -0.7009  2.0752 -3.1524
   71MOL0     H 9796   6.616  10.753   7.172 -1.2722  0.5195  1.0058
   71MOL0     H 9797   6.721  10.874   7.077 -1.9434  2.3408 -0.5499
   71MOL0     H 9798   6.650  10.914   7.228  0.6128  1.3529  0.2056
   72MOL0     O 9799   1.965   3.682   4.682 -0.2306 -0.1166  0.4395
   72MOL0     C 9800   1.992   3.789   4.637  0.1934  0.5013  0.5072
   72MOL0     O 9801   2.083   3.805   4.532  0.5420 -0.8091 -0.1162
   72MOL0     C 9802   2.170   3.709   4.477  0.2467  0.5076 -0.2085
   72MOL0     C 9803   2.205   3.721   4.340  0.7773 -0.2748  0.0500
   72MOL0     C 9804   2.301   3.637   4.277  0.2981 -0.4481 -0.7740
   72MOL0     C 9805   2.366   3.541   4.352 -0.4523 -0.4391  0.5930
   72MOL0     O 9806   2.456   3.460   4.287  0.2622 -0.0800 -0.1018
   72MOL0     C 9807   2.518   3.351   4.358 -0.1710  0.5186  1.0640
   72MOL0     C 9808   2.600   3.270   4.259  0.8624 -0.3165  0.0788
   72MOL0     C 9809   2.653   3.144   4.310  0.0542  0.3707  0.0605
   72MOL0     C 9810   2.687   3.060   4.186  0.6738  0.4963  0.6409
   72MOL0     C 9811   2.722   2.917   4.233 -0.1971 -0.8713 -0.4401
   72MOL0     C 9812   2.761   2.819   4.134 -0.1616  0.4927 -0.1703
   72MOL0     C 9813   2.901   2.850   4.075 -0.0902  1.0612  0.6913
   72MOL0     C 9814   2.954   2.731   3.983  0.5685 -0.0774  1.0003
   72MOL0     N 9815   3.059   2.770   3.883 -0.9329  0.1531  0.0135
   72MOL0     C 9816   3.158   2.868   3.910 -0.1445  0.1019 -0.7818
   72MOL0     C 9817   3.234   2.861   3.798 -0.5449 -0.2772 -0.7233
   72MOL0     C 9818   3.354   2.950   3.765 -0.5977 -0.0164 -0.5325
   72MOL0     C 9819   3.476   2.873   3.706 -0.5205  0.2552  0.1470
   72MOL0     C 9820   3.578   2.985   3.668  0.2337 -0.8212 -0.0834
   72MOL0     C 9821   3.695   2.924   3.597  0.1024  0.7063  0.1370
   72MOL0     O 9822   3.796   3.013   3.583 -0.3431 -0.0338 -0.0513
   72MOL0     C 9823   3.908   2.967   3.516 -0.0923 -0.1340 -0.0276
   72MOL0     C 9824   4.022   2.985   3.585 -0.8284 -0.2569 -0.4832
   72MOL0     C 9825   4.147   2.958   3.530 -0.2402 -0.2756  0.1393
   72MOL0     C 9826   4.273   2.979   3.614  0.0621  0.8935 -0.2135
   72MOL0     C 9827   4.158   2.913   3.396 -0.4811  0.3761 -0.3404
   72MOL0     C 9828   4.287   2.888   3.324  0.0813  0.5769 -0.0985
   72MOL0     O 9829   4.269   2.790   3.232 -0.5883 -0.0295 -0.3237
   72MOL0     C 9830   4.371   2.750   3.143 -0.7109 -0.2686  0.2596
   72MOL0     C 9831   4.362   2.783   3.009  0.4066  0.5705 -0.6492
   72MOL0     C 9832   4.457   2.740   2.922 -0.7416  0.3808  0.0833
   72MOL0     C 9833   4.575   2.672   2.969  1.4985  0.0445  0.4301
   72MOL0     O 9834   4.677   2.626   2.883 -0.6255 -0.0130  0.0329
   72MOL0     C 9835   4.640   2.556   2.763  0.2339  1.4155 -0.1283
   72MOL0     C 9836   4.739   2.454   2.719 -0.9547  0.7815  0.4100
   72MOL0     C 9837   4.833   2.512   2.601  0.4365 -0.6566 -0.4786
   72MOL0     C 9838   4.882   2.409   2.503  0.3714 -0.1048  0.5460
   72MOL0     C 9839   4.983   2.445   2.391  0.4953  0.0327 -0.3159
   72MOL0     C 9840   5.109   2.519   2.448 -0.7053 -0.2022  0.7069
   72MOL0     C 9841   5.222   2.539   2.332 -0.2943 -0.4075  0.5325
   72MOL0     C 9842   5.339   2.632   2.382  0.5920  1.1115 -0.4697
   72MOL0    Cl 9843   5.437   2.680   2.249 -0.1193 -0.4733 -0.3100
   72MOL0     C 9844   4.587   2.638   3.102  0.3254 -0.1300 -0.2618
   72MOL0     C 9845   4.482   2.678   3.188 -0.4135 -0.1082  0.2089
   72MOL0     O 9846   4.391   2.952   3.349  0.1106 -0.2061 -0.6877
   72MOL0     C 9847   4.033   2.878   3.333 -0.3636  0.0653 -0.1427
   72MOL0     C 9848   3.912   2.909   3.393 -0.0447 -0.4144 -0.4402
   72MOL0     N 9849   3.192   2.757   3.713  0.6047 -0.0159  0.1979
   72MOL0     N 9850   3.085   2.708   3.764 -0.1759 -0.4381  0.5046
   72MOL0     C 9851   2.326   3.520   4.487 -0.0164  0.0338  0.3720
   72MOL0     C 9852   2.228   3.601   4.545  0.6229 -0.3744  0.0179
   72MOL0     C 9853   1.928   3.914   4.691 -0.1949 -0.4128  0.1531
   72MOL0     C 9854   1.839   3.893   4.806 -0.6800 -0.2563  0.3886
   72MOL0     C 9855   1.774   3.998   4.862 -0.8035 -0.8645 -0.4818
   72MOL0     C 9856   1.806   4.130   4.826  0.1309  0.5335  0.3961
   72MOL0     O 9857   1.750   4.234   4.905  0.8616  1.2091  0.0609
   72MOL0     C 9858   1.772   4.362   4.857 -0.3512  0.5089  0.0181
   72MOL0     C 9859   1.746   4.473   4.962  0.2974  0.4581  0.6535
   72MOL0     C 9860   1.739   4.606   4.896  0.1709 -0.4705  0.1390
   72MOL0     C 9861   1.653   4.706   4.985 -0.1755  0.4338 -0.0922
   72MOL0     C 9862   1.743   4.739   5.097  0.4232  0.3605 -0.5578
   72MOL0     C 9863   1.802   4.764   5.199  0.2126  0.2713 -0.1353
   72MOL0     C 9864   1.882   4.153   4.710 -0.4862 -0.0122 -0.5460
   72MOL0     C 9865   1.962   4.053   4.654  0.0739  0.2709  0.0884
   72MOL0     C 9866   2.046   4.097   4.541  0.0947  0.5632  0.3495
   72MOL0     H 9867   2.160   3.790   4.269  2.5160  1.1253  0.2369
   72MOL0     H 9868   2.318   3.653   4.171  0.2977  0.6596 -0.6130
   72MOL0     H 9869   2.434   3.296   4.402 -2.0553 -0.1544 -2.8979
   72MOL0     H 9870   2.581   3.404   4.429 -1.0575  3.0980  0.0559
   72MOL0     H 9871   2.544   3.251   4.167 -1.5121 -0.1651  1.4107
   72MOL0     H 9872   2.678   3.344   4.238 -3.4916  3.9533 -3.5322
   72MOL0     H 9873   2.740   3.155   4.377  1.4842 -4.0297 -0.7422
   72MOL0     H 9874   2.583   3.090   4.374 -1.0795  1.9061  0.1497
   72MOL0     H 9875   2.592   3.050   4.134  0.1245 -0.6461  1.7859
   72MOL0     H 9876   2.768   3.112   4.134  0.8625  3.1260  3.2657
   72MOL0     H 9877   2.635   2.870   4.280 -1.7001 -0.8838 -3.0791
   72MOL0     H 9878   2.801   2.936   4.307 -0.6700 -0.2532 -0.0869
   72MOL0     H 9879   2.771   2.724   4.188 -0.6605 -1.0111 -2.5446
   72MOL0     H 9880   2.688   2.798   4.055  1.3117 -2.0472 -0.9886
   72MOL0     H 9881   2.977   2.879   4.149  1.7639  2.5600 -1.6521
   72MOL0     H 9882   2.888   2.929   4.001  1.5902  2.1674  1.4987
   72MOL0     H 9883   2.992   2.651   4.047  1.0532 -2.9649 -2.5228
   72MOL0     H 9884   2.866   2.692   3.930 -0.1562  2.1469  0.4456
   72MOL0     H 9885   3.166   2.932   3.997 -1.4253 -0.2436 -0.3910
   72MOL0     H 9886   3.384   3.000   3.857 -4.0955  2.3385 -0.4608
   72MOL0     H 9887   3.318   3.029   3.698 -1.3446  1.3309  1.3576
   72MOL0     H 9888   3.502   2.793   3.776  0.8915  0.2947 -0.3088
   72MOL0     H 9889   3.461   2.837   3.604  2.7506  1.7402 -1.0038
   72MOL0     H 9890   3.547   3.064   3.598  2.9092 -0.5181 -1.0630
   72MOL0     H 9891   3.614   3.032   3.760  0.0793  1.0350 -0.9144
   72MOL0     H 9892   3.727   2.829   3.641 -0.9004  0.7655  1.0371
   72MOL0     H 9893   3.664   2.910   3.493  2.4206  0.4754 -0.5806
   72MOL0     H 9894   4.000   3.043   3.674 -0.3416  1.5987 -1.5052
   72MOL0     H 9895   4.294   3.085   3.595 -4.8422  2.6373  2.3949
   72MOL0     H 9896   4.361   2.916   3.596 -0.1391 -0.2946  2.4523
   72MOL0     H 9897   4.256   2.959   3.720 -0.5678  2.2704 -0.0428
   72MOL0     H 9898   4.277   2.841   2.975  1.1110  1.0495 -1.6329
   72MOL0     H 9899   4.447   2.768   2.817 -0.6574  0.3439  0.0652
   72MOL0     H 9900   4.563   2.483   2.789  2.6683 -1.4753 -0.5276
   72MOL0     H 9901   4.593   2.617   2.685 -2.1865 -2.1082 -1.6591
   72MOL0     H 9902   4.804   2.427   2.802 -0.1042  2.1320  0.2098
   72MOL0     H 9903   4.694   2.362   2.681 -0.0947  1.4596 -2.5002
   72MOL0     H 9904   4.923   2.551   2.650 -0.5236  1.8871 -0.5884
   72MOL0     H 9905   4.783   2.596   2.551  0.3539  1.2532  2.5384
   72MOL0     H 9906   4.790   2.375   2.454 -0.2993  0.9130  1.0439
   72MOL0     H 9907   4.924   2.328   2.564 -0.1606 -1.1624 -0.4564
   72MOL0     H 9908   5.005   2.349   2.342 -3.2921 -0.0550 -2.2186
   72MOL0     H 9909   4.935   2.517   2.324 -0.6564 -1.4598 -1.1550
   72MOL0     H 9910   5.168   2.455   2.514  3.4064 -0.0111 -2.3804
   72MOL0     H 9911   5.084   2.612   2.501 -2.0016  0.0935 -0.3873
   72MOL0     H 9912   5.187   2.589   2.241  2.4724  1.0683  0.1638
   72MOL0     H 9913   5.266   2.442   2.308  2.2600  1.4057 -3.0428
   72MOL0     H 9914   5.392   2.596   2.470 -1.4052 -2.9806 -0.7079
   72MOL0     H 9915   5.293   2.727   2.409  0.7344  1.0162  0.1145
   72MOL0     H 9916   4.675   2.579   3.128  1.6179  0.7660 -2.3003
   72MOL0     H 9917   4.493   2.659   3.295  0.5461  1.4238  0.4032
   72MOL0     H 9918   4.040   2.837   3.233  4.0699  0.9636 -0.4153
   72MOL0     H 9919   3.831   2.908   3.320 -0.0105 -0.4034 -0.4782
   72MOL0     H 9920   2.371   3.446   4.551 -1.1754 -1.3502 -0.3442
   72MOL0     H 9921   2.195   3.584   4.647 -2.6352 -1.0046 -0.9977
   72MOL0     H 9922   1.819   3.791   4.839 -1.5689 -0.1804  0.1145
   72MOL0     H 9923   1.700   3.990   4.941 -0.1379  1.2765  0.4361
   72MOL0     H 9924   1.878   4.370   4.833 -0.1390 -4.1405 -1.5578
   72MOL0     H 9925   1.702   4.381   4.775  0.4590  0.5021 -0.6803
   72MOL0     H 9926   1.815   4.465   5.046 -0.6538  0.0714  1.4173
   72MOL0     H 9927   1.648   4.446   5.003  0.0199 -1.3179 -1.0498
   72MOL0     H 9928   1.843   4.639   4.887 -0.5379  1.5522 -1.3038
   72MOL0     H 9929   1.696   4.593   4.797  0.7494 -0.9948 -0.0441
   72MOL0     H 9930   1.557   4.659   5.008  0.0231  0.9829  2.0755
   72MOL0     H 9931   1.626   4.799   4.932 -3.6157  1.4704  3.0511
   72MOL0     H 9932   1.862   4.764   5.288 -0.2875 -1.9712  0.2570
   72MOL0     H 9933   1.887   4.255   4.673 -0.1912  0.7065  1.3370
   72MOL0     H 9934   2.015   4.065   4.441  2.8889  1.3123 -0.8428
   72MOL0     H 9935   2.044   4.206   4.530 -3.3015  0.4432 -1.6617
   72MOL0     H 9936   2.152   4.072   4.552 -0.4905 -2.3686  0.1507
   73MOL0     O 9937  10.678   1.151   1.547  0.1470  0.2516  0.3719
   73MOL0     C 9938  10.783   1.201   1.581  0.4839  0.5129  0.3332
   73MOL0     O 9939  10.904   1.144   1.555  0.2089  0.2498 -0.6898
   73MOL0     C 9940  10.906   1.012   1.508  0.0575  0.2944 -0.0166
   73MOL0     C 9941  10.847   0.899   1.573  0.1757 -0.0468 -0.2423
   73MOL0     C 9942  10.852   0.770   1.520  0.6453  0.4145  0.1292
   73MOL0     C 9943  10.905   0.761   1.393 -0.0255  0.8532 -0.2307
   73MOL0     O 9944  10.877   0.637   1.334 -0.6127  0.3740  0.5982
   73MOL0     C 9945  10.984   0.591   1.250  0.4697 -0.9078  0.3623
   73MOL0     C 9946  10.985   0.436   1.252 -0.2670 -0.4767 -0.4922
   73MOL0     C 9947  11.100   0.367   1.179 -0.3377 -0.5084 -0.1068
   73MOL0     C 9948  11.179   0.263   1.266 -0.2827 -0.0620 -0.3725
   73MOL0     C 9949  11.286   0.188   1.174  0.3758  0.1837 -0.2645
   73MOL0     C 9950  11.246   0.071   1.080  0.0714  0.0918 -0.3177
   73MOL0     C 9951  11.368   0.023   1.015 -1.6419 -0.5182  0.2837
   73MOL0     C 9952  11.355  -0.065   0.893 -0.1677  0.4816 -0.8041
   73MOL0     N 9953  11.282  -0.013   0.782  0.1803  0.2132 -0.3433
   73MOL0     C 9954  11.159  -0.058   0.743  0.6776  0.4267  0.7831
   73MOL0     C 9955  11.149  -0.027   0.611 -0.3927 -0.3110 -0.1468
   73MOL0     C 9956  11.022  -0.057   0.533 -0.3181 -0.1775  0.2353
   73MOL0     C 9957  10.954   0.059   0.470 -0.3513  0.5630  0.0786
   73MOL0     C 9958  10.880   0.154   0.559  0.0838  0.7356  0.1070
   73MOL0     C 9959  10.743   0.088   0.582  0.4830 -0.4229 -0.9526
   73MOL0     O 9960  10.661   0.180   0.647  0.4593 -0.5853 -0.0453
   73MOL0     C 9961  10.667   0.195   0.785  0.0389  0.4253 -0.1503
   73MOL0     C 9962  10.576   0.288   0.831 -0.4207  0.5855  0.9956
   73MOL0     C 9963  10.560   0.319   0.959 -0.6684 -0.2299 -0.8166
   73MOL0     C 9964  10.457   0.423   0.993  0.1011 -0.2106 -0.5679
   73MOL0     C 9965  10.640   0.254   1.057 -0.8468  0.0520 -0.4362
   73MOL0     C 9966  10.610   0.269   1.202  0.8677  0.2626 -0.3333
   73MOL0     O 9967  10.485   0.296   1.239  0.5121  0.0170 -0.5582
   73MOL0     C 9968  10.461   0.329   1.372 -0.1765 -0.1051  1.3962
   73MOL0     C 9969  10.479   0.230   1.466  0.0472 -0.2955 -0.5844
   73MOL0     C 9970  10.447   0.259   1.606 -1.4285  0.1829 -0.7055
   73MOL0     C 9971  10.371   0.371   1.639 -0.9693 -0.0283  0.8872
   73MOL0     O 9972  10.359   0.400   1.776 -0.5703 -0.7926  0.1908
   73MOL0     C 9973  10.300   0.518   1.829  0.4283 -0.5728  0.0512
   73MOL0     C 9974  10.408   0.629   1.793 -0.1500  0.6996  0.3289
   73MOL0     C 9975  10.374   0.768   1.844  0.2168  0.1233  1.4156
   73MOL0     C 9976  10.488   0.874   1.814  0.5306 -0.3573 -0.0512
   73MOL0     C 9977  10.436   1.012   1.867 -0.3398 -0.1001  0.8489
   73MOL0     C 9978  10.561   1.087   1.912 -0.3439  0.0248 -0.6979
   73MOL0     C 9979  10.616   1.033   2.044 -0.0825  0.4136  0.2969
   73MOL0     C 9980  10.679   1.146   2.134  0.4211 -0.0360 -0.2426
   73MOL0    Cl 9981  10.819   1.210   2.038 -0.2317  0.1402 -0.3601
   73MOL0     C 9982  10.331   0.456   1.521  0.1583  0.0070 -0.4034
   73MOL0     C 9983  10.371   0.429   1.395  0.2082 -0.1476  0.4732
   73MOL0     O 9984  10.708   0.255   1.274 -0.1987  0.0690  0.3910
   73MOL0     C 9985  10.740   0.162   1.014  0.0013  0.4013 -0.1782
   73MOL0     C 9986  10.753   0.137   0.876  0.4829  0.1050  0.3062
   73MOL0     N 9987  11.262   0.040   0.574 -0.3955  0.2795  0.0251
   73MOL0     N 9988  11.341   0.038   0.673  0.1912  0.0857  0.5582
   73MOL0     C 9989  10.951   0.873   1.324 -0.3887 -0.3363 -0.2064
   73MOL0     C 9990  10.959   0.996   1.390 -1.0567 -0.0783  0.1482
   73MOL0     C 9991  10.782   1.343   1.623  0.5360 -0.6833  0.6047
   73MOL0     C 9992  10.892   1.408   1.674  1.2973 -0.1411  0.8483
   73MOL0     C 9993  10.894   1.543   1.723 -0.1231  0.0034  0.5683
   73MOL0     C 9994  10.786   1.627   1.720 -0.0528 -0.2514  0.4303
   73MOL0     O 9995  10.791   1.757   1.761 -0.2599 -0.1699  0.1332
   73MOL0     C 9996  10.684   1.808   1.834 -0.0346 -0.2942  0.7194
   73MOL0     C 9997  10.620   1.919   1.745  0.4356  0.2884 -0.8540
   73MOL0     C 9998  10.705   2.046   1.714  0.1480  0.2410 -0.2841
   73MOL0     C 9999  10.634   2.179   1.766 -0.8318  0.2817  0.7777
   73MOL0     C10000  10.670   2.295   1.688  0.2421  0.4354 -0.3447
   73MOL0     C10001  10.691   2.384   1.615  0.1669 -1.3475  0.2405
   73MOL0     C10002  10.667   1.576   1.648  0.5774  0.6260 -0.9276
   73MOL0     C10003  10.661   1.430   1.612  0.0833 -0.8122  0.0389
   73MOL0     C10004  10.521   1.383   1.598 -0.2288 -0.1325  0.3544
   73MOL0     H10005  10.798   0.910   1.669  0.1732  0.5061 -0.3064
   73MOL0     H10006  10.798   0.688   1.567  2.4927 -1.4410 -0.8226
   73MOL0     H10007  11.083   0.614   1.291  0.1863  0.3868  0.3363
   73MOL0     H10008  10.973   0.648   1.157  0.3006  2.5489  2.3580
   73MOL0     H10009  10.989   0.405   1.356  1.0307 -2.4538 -1.0768
   73MOL0     H10010  10.896   0.394   1.204  0.1074  0.3945 -2.0144
   73MOL0     H10011  11.062   0.311   1.093 -1.4090 -0.4906  0.3439
   73MOL0     H10012  11.163   0.448   1.141 -1.9516  1.5691  1.3946
   73MOL0     H10013  11.228   0.320   1.346  2.7054 -3.1643  0.2734
   73MOL0     H10014  11.119   0.178   1.299 -1.3641  0.0307 -2.0012
   73MOL0     H10015  11.340   0.134   1.252  0.0358  1.8006  1.1528
   73MOL0     H10016  11.339   0.271   1.128  0.1269  0.5136  0.0389
   73MOL0     H10017  11.182  -0.007   1.123  1.8775 -1.2478  0.0756
   73MOL0     H10018  11.201   0.108   0.987 -1.3914 -0.2866  0.2082
   73MOL0     H10019  11.424  -0.035   1.089 -1.6132  0.6280  1.1819
   73MOL0     H10020  11.428   0.105   0.974 -1.1290 -0.8084  0.4437
   73MOL0     H10021  11.453  -0.090   0.852  0.6782 -2.0246  2.3374
   73MOL0     H10022  11.305  -0.160   0.917  0.0794  1.0320  2.2613
   73MOL0     H10023  11.084  -0.122   0.788  0.9503  0.2653  1.0057
   73MOL0     H10024  10.953  -0.125   0.584 -0.6473 -0.0620 -0.0533
   73MOL0     H10025  11.056  -0.121   0.452 -1.0594 -1.4477  0.9059
   73MOL0     H10026  11.025   0.125   0.419 -1.1715  1.5246  0.1479
   73MOL0     H10027  10.889   0.021   0.391  0.1153 -1.9472  0.8307
   73MOL0     H10028  10.926   0.169   0.657  1.1169 -1.8069  0.1090
   73MOL0     H10029  10.863   0.253   0.517  1.6752  0.5254 -1.1148
   73MOL0     H10030  10.697   0.057   0.488 -4.5552 -1.2114  1.4138
   73MOL0     H10031  10.762  -0.003   0.640  0.5271  0.9347  1.3084
   73MOL0     H10032  10.520   0.337   0.753  0.8207  0.8895  0.2605
   73MOL0     H10033  10.443   0.487   0.905 -0.8048  1.3226  0.6419
   73MOL0     H10034  10.489   0.486   1.077 -3.2555 -1.3731  1.7940
   73MOL0     H10035  10.359   0.386   1.024  1.0658 -1.5866  0.9825
   73MOL0     H10036  10.506   0.128   1.440 -2.0974 -0.9267 -0.5502
   73MOL0     H10037  10.474   0.184   1.679  1.9436  0.0825 -1.8859
   73MOL0     H10038  10.209   0.553   1.778  0.7348  0.7507  0.3858
   73MOL0     H10039  10.277   0.516   1.935  1.3913  1.2581  0.3476
   73MOL0     H10040  10.501   0.591   1.835  0.3006 -2.2174 -2.8520
   73MOL0     H10041  10.420   0.628   1.684 -0.7498  0.3750  0.2552
   73MOL0     H10042  10.362   0.752   1.952 -0.1488 -4.3664  0.9120
   73MOL0     H10043  10.276   0.792   1.802 -0.4914 -2.5464  1.3340
   73MOL0     H10044  10.497   0.868   1.706 -2.9956 -3.2113 -0.3768
   73MOL0     H10045  10.576   0.842   1.871  0.6572 -0.5661 -0.3686
   73MOL0     H10046  10.377   1.052   1.784  0.9357 -0.7846 -0.4305
   73MOL0     H10047  10.375   1.000   1.957  0.5211 -0.3784  1.4033
   73MOL0     H10048  10.529   1.191   1.927  3.1971  1.0710  0.4498
   73MOL0     H10049  10.634   1.087   1.831 -1.0764  0.4135 -1.3807
   73MOL0     H10050  10.706   0.974   2.023  0.8231  2.1467 -0.9014
   73MOL0     H10051  10.543   0.968   2.094  0.4686 -0.8322 -0.4641
   73MOL0     H10052  10.712   1.117   2.234 -0.9775  0.6396  0.4279
   73MOL0     H10053  10.606   1.224   2.155  0.8287  0.2513  0.1212
   73MOL0     H10054  10.275   0.544   1.550  2.4600  0.4126  3.4193
   73MOL0     H10055  10.340   0.497   1.315  2.2909  0.0514 -0.2198
   73MOL0     H10056  10.802   0.101   1.079  0.5438 -1.6449 -2.4468
   73MOL0     H10057  10.836   0.076   0.840 -0.5643 -2.2001  1.5751
   73MOL0     H10058  10.977   0.877   1.219  2.1542  0.8106  0.3735
   73MOL0     H10059  11.001   1.084   1.341 -1.5092  0.5483  0.8711
   73MOL0     H10060  10.984   1.353   1.686  1.3557 -0.6752 -1.5561
   73MOL0     H10061  10.981   1.587   1.771  0.4952 -0.9381  0.3274
   73MOL0     H10062  10.607   1.733   1.852 -2.2242  1.1726 -1.8238
   73MOL0     H10063  10.727   1.849   1.926  1.4328  0.4074 -0.2287
   73MOL0     H10064  10.529   1.954   1.795 -0.7862 -3.7170  0.1078
   73MOL0     H10065  10.602   1.868   1.650  3.5420 -0.3286 -1.2259
   73MOL0     H10066  10.801   2.032   1.766 -0.7848 -1.0196  1.1830
   73MOL0     H10067  10.720   2.050   1.606  0.5010 -0.5137 -0.2738
   73MOL0     H10068  10.668   2.211   1.865  0.9046  0.4725  0.1516
   73MOL0     H10069  10.525   2.177   1.773 -0.8257 -0.9721  0.7923
   73MOL0     H10070  10.711   2.455   1.538  0.0661 -0.1854  1.2612
   73MOL0     H10071  10.582   1.643   1.655 -0.1543 -0.1378 -2.0551
   73MOL0     H10072  10.499   1.291   1.653 -0.3878 -1.4761 -1.8303
   73MOL0     H10073  10.452   1.459   1.636 -0.9522 -1.5013  1.8931
   73MOL0     H10074  10.492   1.366   1.494  0.5073  0.3624  0.0650
   74MOL0     O10075   3.190   8.657   2.423  0.6380  0.0998 -0.1403
   74MOL0     C10076   3.209   8.558   2.489 -0.3726 -0.5396  0.0636
   74MOL0     O10077   3.122   8.513   2.581  0.5436  0.0676  0.8724
   74MOL0     C10078   2.985   8.552   2.578 -0.6073  0.8269 -0.1309
   74MOL0     C10079   2.913   8.614   2.472  0.4362 -0.7618 -0.8823
   74MOL0     C10080   2.777   8.646   2.494  0.5598 -1.0820  0.0906
   74MOL0     C10081   2.708   8.623   2.612  0.4920 -1.0032  0.3562
   74MOL0     O10082   2.580   8.658   2.639  0.5964  1.1307  0.0648
   74MOL0     C10083   2.508   8.771   2.592 -0.7953  0.3745 -0.1210
   74MOL0     C10084   2.416   8.831   2.702 -0.5213 -0.1719  0.9451
   74MOL0     C10085   2.315   8.935   2.650 -0.2637  0.2637  0.6853
   74MOL0     C10086   2.205   8.975   2.750 -0.7015  0.4048  0.2893
   74MOL0     C10087   2.075   8.884   2.757  0.1291 -0.9340 -1.4446
   74MOL0     C10088   2.084   8.754   2.843 -0.4282 -0.2219 -0.3271
   74MOL0     C10089   1.941   8.689   2.852  0.6210  0.5270 -0.7256
   74MOL0     C10090   1.943   8.553   2.914 -0.3081  0.1902  0.1301
   74MOL0     N10091   1.964   8.574   3.060 -1.1707  0.6889  0.3581
   74MOL0     C10092   1.877   8.620   3.142  0.0645 -1.4609 -0.4809
   74MOL0     C10093   1.933   8.624   3.268  0.3044  0.0488  0.6158
   74MOL0     C10094   1.865   8.668   3.396  0.6432 -0.0893  0.5803
   74MOL0     C10095   1.886   8.564   3.515  0.3945  1.0526  0.2518
   74MOL0     C10096   1.833   8.631   3.640 -0.4634  0.9042  0.8751
   74MOL0     C10097   1.902   8.567   3.760  0.1779 -0.0017 -0.1520
   74MOL0     O10098   2.046   8.608   3.754 -0.5563  0.6975  0.0194
   74MOL0     C10099   2.097   8.728   3.799 -0.3534  0.1395  0.1713
   74MOL0     C10100   2.022   8.827   3.847 -0.2439 -0.2134  0.2416
   74MOL0     C10101   2.077   8.945   3.887  0.4196 -0.5827 -0.2020
   74MOL0     C10102   1.978   9.046   3.938  0.8003 -0.2113  0.6384
   74MOL0     C10103   2.217   8.967   3.868 -0.5193  0.8424  0.7721
   74MOL0     C10104   2.287   9.101   3.907 -0.0408 -0.5856  0.2081
   74MOL0     O10105   2.414   9.117   3.878  0.2025 -0.2335 -0.1787
   74MOL0     C10106   2.491   9.223   3.922 -0.0252  0.2747  0.1332
   74MOL0     C10107   2.458   9.299   4.029 -0.4433  0.5691 -0.3058
   74MOL0     C10108   2.547   9.409   4.061  0.5742 -0.4724 -0.2251
   74MOL0     C10109   2.665   9.426   3.989 -0.2144  0.3236 -0.2537
   74MOL0     O10110   2.740   9.532   4.021  0.3826  0.3635  0.6255
   74MOL0     C10111   2.779   9.550   4.156 -0.2684  0.2487  0.1230
   74MOL0     C10112   2.876   9.441   4.223  0.4326  0.0039  0.4299
   74MOL0     C10113   2.990   9.390   4.128 -0.4396 -0.5817  0.0570
   74MOL0     C10114   3.034   9.249   4.171 -0.1443  0.6131  0.0675
   74MOL0     C10115   3.082   9.164   4.049 -0.3170 -0.5090 -0.3301
   74MOL0     C10116   3.201   9.205   3.961 -0.5448 -0.5060  0.1716
   74MOL0     C10117   3.237   9.091   3.859  1.6059  1.0716  0.2900
   74MOL0     C10118   3.376   9.109   3.787  0.5166 -0.2694  0.5936
   74MOL0    Cl10119   3.373   9.227   3.656 -0.5378  0.4466  0.1358
   74MOL0     C10120   2.694   9.343   3.880  0.6904  0.6470 -0.3763
   74MOL0     C10121   2.608   9.235   3.853  0.4423 -0.3818  0.5390
   74MOL0     O10122   2.214   9.191   3.963 -0.4137  0.2050 -0.3674
   74MOL0     C10123   2.291   8.862   3.821 -0.6360 -0.1133  0.6635
   74MOL0     C10124   2.236   8.739   3.792  0.4930 -0.6921  0.7963
   74MOL0     N10125   2.061   8.584   3.247  0.0687 -0.8673  0.8901
   74MOL0     N10126   2.079   8.552   3.126 -0.0604  0.3445 -0.0139
   74MOL0     C10127   2.777   8.559   2.712  0.2657  0.3674 -0.2187
   74MOL0     C10128   2.918   8.524   2.695  0.4951 -0.8250 -0.5839
   74MOL0     C10129   3.342   8.494   2.493  0.3348 -0.8717 -0.2643
   74MOL0     C10130   3.399   8.423   2.604  0.2305 -0.1674  0.1362
   74MOL0     C10131   3.513   8.350   2.603 -0.1998 -0.6062 -0.2407
   74MOL0     C10132   3.589   8.337   2.488  0.1770 -1.0749 -1.3443
   74MOL0     O10133   3.695   8.260   2.515 -0.0380 -0.6034 -0.1110
   74MOL0     C10134   3.739   8.177   2.408 -0.1398 -0.1330 -0.7515
   74MOL0     C10135   3.738   8.030   2.449  0.0825  0.2642 -0.7666
   74MOL0     C10136   3.863   8.000   2.530  0.8085 -0.0244  0.6034
   74MOL0     C10137   3.868   7.848   2.566 -1.4105 -0.4372 -0.6486
   74MOL0     C10138   3.990   7.810   2.644 -0.6556 -0.7955 -0.6199
   74MOL0     C10139   4.061   7.787   2.743 -0.5482 -0.7251  0.7041
   74MOL0     C10140   3.555   8.408   2.375 -0.1494  0.3958  0.3004
   74MOL0     C10141   3.431   8.485   2.379  0.2338 -0.0722  0.4076
   74MOL0     C10142   3.396   8.555   2.261  0.2567  0.8092 -0.1480
   74MOL0     H10143   2.952   8.643   2.375 -1.0937  1.7610 -0.8138
   74MOL0     H10144   2.719   8.705   2.423 -0.8364 -0.9870  1.2566
   74MOL0     H10145   2.441   8.728   2.516  0.1866 -0.1173 -0.7318
   74MOL0     H10146   2.568   8.851   2.549 -1.8228  0.8523 -0.7148
   74MOL0     H10147   2.366   8.746   2.749  0.3517 -2.0131 -1.3085
   74MOL0     H10148   2.477   8.884   2.776  0.2349 -0.4164  0.5019
   74MOL0     H10149   2.377   9.019   2.618  1.5003 -1.7679 -1.6163
   74MOL0     H10150   2.265   8.892   2.563 -2.9428 -2.6496  3.4068
   74MOL0     H10151   2.249   8.989   2.849 -2.3453  0.5211  1.0515
   74MOL0     H10152   2.162   9.070   2.717 -0.1732  0.6541  0.3137
   74MOL0     H10153   2.058   8.851   2.654  0.5342 -4.5576 -0.4978
   74MOL0     H10154   1.988   8.935   2.799  0.1270 -2.4911  0.5958
   74MOL0     H10155   2.158   8.693   2.790  0.1379 -0.0543  0.2615
   74MOL0     H10156   2.131   8.771   2.940  0.5698 -3.4202 -0.1527
   74MOL0     H10157   1.886   8.692   2.758  0.0194  4.6727 -0.3984
   74MOL0     H10158   1.892   8.758   2.921  2.8421 -0.3062  1.8577
   74MOL0     H10159   1.853   8.494   2.895  1.4049 -2.6246  0.2441
   74MOL0     H10160   2.024   8.492   2.874 -0.9339 -0.6199  0.0833
   74MOL0     H10161   1.776   8.654   3.123 -0.1029 -1.4642  0.3695
   74MOL0     H10162   1.757   8.674   3.381  0.3639 -3.5179  0.4851
   74MOL0     H10163   1.889   8.769   3.432 -0.2172  0.0233  0.8616
   74MOL0     H10164   1.822   8.477   3.503  1.0912  0.1288  2.5803
   74MOL0     H10165   1.987   8.522   3.520  0.4790  0.9933 -1.5733
   74MOL0     H10166   1.865   8.735   3.635 -2.7293  1.6269  0.4309
   74MOL0     H10167   1.725   8.631   3.660  0.2552  0.4691  6.1197
   74MOL0     H10168   1.842   8.595   3.846 -3.3360 -2.7134 -1.4721
   74MOL0     H10169   1.913   8.459   3.748  0.2451 -0.3026  2.2483
   74MOL0     H10170   1.916   8.817   3.865 -0.3275  1.0807  0.5466
   74MOL0     H10171   1.968   9.133   3.873 -3.2181 -1.5818 -0.9227
   74MOL0     H10172   1.997   9.084   4.039  1.0902 -0.7168  0.7761
   74MOL0     H10173   1.881   8.999   3.958  0.7750  1.3116  5.4827
   74MOL0     H10174   2.375   9.297   4.099 -0.2420  0.2873 -0.0734
   74MOL0     H10175   2.514   9.473   4.142 -1.9145  0.1702 -1.6204
   74MOL0     H10176   2.844   9.637   4.161  4.5195 -3.0053  1.1119
   74MOL0     H10177   2.695   9.585   4.217  0.9480  3.3867  0.1503
   74MOL0     H10178   2.917   9.482   4.316  2.3414  0.3225 -0.4915
   74MOL0     H10179   2.804   9.360   4.238 -0.1929 -0.0549 -2.3306
   74MOL0     H10180   3.070   9.463   4.132  0.4285 -1.4103 -1.2466
   74MOL0     H10181   2.962   9.385   4.022  0.8484  1.8630 -0.4467
   74MOL0     H10182   2.955   9.186   4.213  0.4844 -0.7423 -0.7222
   74MOL0     H10183   3.122   9.257   4.236 -0.9894 -3.1376  1.9375
   74MOL0     H10184   3.087   9.062   4.088 -0.2002 -1.5411 -2.8196
   74MOL0     H10185   2.997   9.167   3.980  0.0062  0.1865 -0.7102
   74MOL0     H10186   3.287   9.203   4.029 -0.9001 -3.8506  0.7106
   74MOL0     H10187   3.178   9.301   3.913  2.8027 -0.7700 -2.2938
   74MOL0     H10188   3.160   9.075   3.783  1.0099 -0.0744  1.1115
   74MOL0     H10189   3.236   8.995   3.910 -0.6406 -0.7234 -2.7606
   74MOL0     H10190   3.393   9.010   3.744  0.4539  0.2382 -0.6510
   74MOL0     H10191   3.452   9.140   3.860 -0.3665  2.9362  0.2909
   74MOL0     H10192   2.790   9.343   3.831  0.3341 -0.2841 -1.1087
   74MOL0     H10193   2.641   9.166   3.777  2.6500 -0.7334  1.7340
   74MOL0     H10194   2.396   8.887   3.812 -1.2000  2.9770  1.4459
   74MOL0     H10195   2.304   8.656   3.771  1.1921 -0.3138  1.5475
   74MOL0     H10196   2.724   8.513   2.794  2.7682 -0.6317  0.9281
   74MOL0     H10197   2.969   8.467   2.772 -0.4351 -0.3896  0.3896
   74MOL0     H10198   3.338   8.422   2.693 -0.8326  0.8833 -0.5479
   74MOL0     H10199   3.550   8.314   2.698  0.8510  2.7593  0.7796
   74MOL0     H10200   3.664   8.177   2.328 -1.2848  1.3963  0.2660
   74MOL0     H10201   3.835   8.216   2.374  0.9251 -0.4267  1.7210
   74MOL0     H10202   3.747   7.976   2.354  0.5884  0.1337 -0.6457
   74MOL0     H10203   3.654   7.994   2.509  1.9831 -0.9341  1.3287
   74MOL0     H10204   3.946   8.027   2.463  0.4477  0.3640  0.3094
   74MOL0     H10205   3.863   8.054   2.625 -1.6099  1.5560 -0.2033
   74MOL0     H10206   3.869   7.784   2.478 -0.7164 -0.8514 -0.3550
   74MOL0     H10207   3.778   7.839   2.628  0.3313 -2.8731  1.7836
   74MOL0     H10208   4.142   7.770   2.811  2.0579 -1.9364 -2.4150
   74MOL0     H10209   3.610   8.390   2.283 -1.3390  1.8305 -0.7435
   74MOL0     H10210   3.297   8.525   2.226  0.3754  0.2774 -0.0401
   74MOL0     H10211   3.399   8.663   2.274 -0.4138  1.0255 -1.5638
   74MOL0     H10212   3.463   8.534   2.177  2.3438  0.3507  1.5270
   75MOL0     O10213   3.847   6.643   1.760 -0.0662  0.5111  0.0816
   75MOL0     C10214   3.756   6.559   1.739  0.2880  0.0401  0.7055
   75MOL0     O10215   3.638   6.596   1.667 -0.0918  0.0518 -0.1441
   75MOL0     C10216   3.634   6.718   1.601 -0.5352 -0.4215  0.0424
   75MOL0     C10217   3.501   6.773   1.609 -0.5139 -0.5965 -0.0184
   75MOL0     C10218   3.468   6.888   1.551 -0.5948  0.3555 -0.4322
   75MOL0     C10219   3.569   6.960   1.489 -0.5738 -0.9567  0.0184
   75MOL0     O10220   3.548   7.074   1.419  0.2739 -0.0450 -1.1396
   75MOL0     C10221   3.614   7.198   1.477 -0.5988  0.6808  0.2566
   75MOL0     C10222   3.561   7.235   1.611  0.8532  0.5189  0.2590
   75MOL0     C10223   3.640   7.342   1.679  0.3841  0.7098 -0.3127
   75MOL0     C10224   3.557   7.428   1.790  0.1263  0.9560 -0.0237
   75MOL0     C10225   3.530   7.559   1.722  0.7625 -0.9694 -0.4665
   75MOL0     C10226   3.413   7.551   1.622 -0.3476  0.3519 -0.5950
   75MOL0     C10227   3.348   7.683   1.578  0.1075 -0.4723  0.6810
   75MOL0     C10228   3.246   7.672   1.466 -0.5195 -0.7020 -0.7307
   75MOL0     N10229   3.134   7.581   1.485  0.2826  0.9527 -0.3738
   75MOL0     C10230   3.120   7.439   1.484 -1.0919 -0.4029 -0.0771
   75MOL0     C10231   2.987   7.415   1.481  0.2064 -0.3420 -0.1241
   75MOL0     C10232   2.914   7.289   1.469  0.6193  0.2007  0.5451
   75MOL0     C10233   2.953   7.196   1.577 -0.3718 -0.9645  0.2507
   75MOL0     C10234   2.879   7.070   1.550  0.4215 -0.4724  0.6776
   75MOL0     C10235   2.914   6.961   1.656 -0.2942  0.6105  0.3685
   75MOL0     O10236   2.859   6.995   1.780  0.6784 -0.0042 -0.4660
   75MOL0     C10237   2.763   6.912   1.832  0.0378 -0.2222  0.8905
   75MOL0     C10238   2.802   6.784   1.867 -0.5481 -0.0555  0.5887
   75MOL0     C10239   2.715   6.712   1.949  0.0497 -0.4077 -0.3345
   75MOL0     C10240   2.766   6.567   1.982  0.6409 -0.4464  0.2801
   75MOL0     C10241   2.585   6.772   1.990  0.0202 -0.7614 -0.8559
   75MOL0     C10242   2.488   6.707   2.086  0.0959  0.4100 -0.3830
   75MOL0     O10243   2.416   6.788   2.162  0.6041 -0.0514  0.0505
   75MOL0     C10244   2.302   6.733   2.223 -0.4924 -0.2997  0.6312
   75MOL0     C10245   2.170   6.734   2.164 -0.0562  1.0071 -0.3714
   75MOL0     C10246   2.065   6.664   2.225  0.4332  0.4130 -0.3925
   75MOL0     C10247   2.086   6.615   2.354  0.1934 -0.0863  0.1658
   75MOL0     O10248   1.982   6.548   2.416 -0.0785  0.2641 -0.5433
   75MOL0     C10249   2.006   6.424   2.485  0.6977  0.4145 -0.4780
   75MOL0     C10250   2.027   6.435   2.642  0.3285 -1.2969 -0.2899
   75MOL0     C10251   1.969   6.306   2.707  0.1596 -0.6603  0.1173
   75MOL0     C10252   1.945   6.307   2.853  0.2907  0.1595 -0.6643
   75MOL0     C10253   2.072   6.273   2.938  0.9686  0.0461 -0.2832
   75MOL0     C10254   2.092   6.358   3.068 -0.4657  0.5467 -0.1228
   75MOL0     C10255   2.115   6.500   3.025  0.5773  1.2727  0.9355
   75MOL0     C10256   2.243   6.550   3.091 -0.8689  0.2614 -0.0730
   75MOL0    Cl10257   2.245   6.731   3.112  0.0446 -0.1371 -0.6664
   75MOL0     C10258   2.209   6.632   2.423  0.0862 -0.0381  0.0671
   75MOL0     C10259   2.314   6.681   2.356 -0.3201 -0.7973  0.3951
   75MOL0     O10260   2.471   6.583   2.073  0.0006  0.6252 -0.2726
   75MOL0     C10261   2.556   6.903   1.947  0.5171  0.3591 -0.4242
   75MOL0     C10262   2.635   6.968   1.865 -0.1482  0.3018  0.7136
   75MOL0     N10263   2.924   7.537   1.492 -0.4395 -0.1380  0.2447
   75MOL0     N10264   3.011   7.635   1.497  0.4399 -0.1660  0.2896
   75MOL0     C10265   3.701   6.912   1.484 -0.4155  0.3870  0.2840
   75MOL0     C10266   3.732   6.785   1.543  0.1767 -0.1997  0.0470
   75MOL0     C10267   3.770   6.428   1.798 -0.0425  0.2941 -0.6959
   75MOL0     C10268   3.821   6.429   1.928 -0.9823  0.2041  0.8142
   75MOL0     C10269   3.830   6.304   1.997  0.8958  0.9208 -0.0856
   75MOL0     C10270   3.790   6.187   1.931 -1.3622  0.0038  0.0437
   75MOL0     O10271   3.819   6.070   1.994  0.0135 -0.2349 -0.3481
   75MOL0     C10272   3.744   5.954   1.959 -0.3095 -0.6956 -0.5980
   75MOL0     C10273   3.725   5.866   2.093 -0.1095 -0.0364  0.4118
   75MOL0     C10274   3.842   5.884   2.192 -0.6187  0.7298  0.2932
   75MOL0     C10275   3.841   5.771   2.296 -0.0681  0.3573  0.3138
   75MOL0     C10276   3.739   5.794   2.397  0.3882  0.1455  0.9316
   75MOL0     C10277   3.658   5.811   2.484 -0.2447  0.9060 -0.5906
   75MOL0     C10278   3.742   6.191   1.799 -0.7879 -0.5731 -0.2813
   75MOL0     C10279   3.740   6.311   1.728  0.5843  1.5664  0.4400
   75MOL0     C10280   3.700   6.298   1.577  0.2773 -0.3066 -0.1005
   75MOL0     H10281   3.413   6.727   1.653  0.2706 -1.5256  0.6311
   75MOL0     H10282   3.368   6.929   1.553 -2.6341 -4.0647  1.9036
   75MOL0     H10283   3.608   7.283   1.409 -3.2589  1.0482  0.8339
   75MOL0     H10284   3.721   7.178   1.494 -0.8974 -1.3137  0.1125
   75MOL0     H10285   3.462   7.275   1.585 -0.4139 -2.4366  0.0819
   75MOL0     H10286   3.562   7.143   1.671 -0.9143 -0.5721 -1.2634
   75MOL0     H10287   3.719   7.286   1.730  1.9712  1.4121 -1.8717
   75MOL0     H10288   3.694   7.404   1.607  1.7974  1.6006  1.4259
   75MOL0     H10289   3.470   7.377   1.832  0.0885 -1.7032 -2.9390
   75MOL0     H10290   3.628   7.450   1.870 -0.8974  1.5832  0.7341
   75MOL0     H10291   3.618   7.611   1.686 -1.1925  3.3756  0.3996
   75MOL0     H10292   3.491   7.628   1.798  0.1338  0.1307 -1.7444
   75MOL0     H10293   3.437   7.492   1.532 -0.6930 -1.9379  0.7372
   75MOL0     H10294   3.344   7.489   1.679  1.0886  0.0206  0.8597
   75MOL0     H10295   3.429   7.746   1.542 -0.3915  0.9753  1.9693
   75MOL0     H10296   3.305   7.724   1.670 -4.2550 -0.4899 -1.0640
   75MOL0     H10297   3.208   7.774   1.463  0.8275 -0.1820 -0.7911
   75MOL0     H10298   3.300   7.662   1.372  1.0338  2.3064 -0.2761
   75MOL0     H10299   3.197   7.362   1.479  0.3544  1.0459 -1.9067
   75MOL0     H10300   2.945   7.256   1.370  0.0618  3.6471 -0.9072
   75MOL0     H10301   2.806   7.302   1.464  0.2363 -2.7741 -0.8550
   75MOL0     H10302   3.062   7.195   1.570 -0.3823 -0.4208 -0.0138
   75MOL0     H10303   2.914   7.237   1.671 -2.8057 -0.6569 -0.8227
   75MOL0     H10304   2.771   7.089   1.550  0.7601  2.2712 -2.1194
   75MOL0     H10305   2.903   7.029   1.451 -1.8635  2.0280 -1.0581
   75MOL0     H10306   2.878   6.865   1.618  1.0293 -0.4630  1.6829
   75MOL0     H10307   3.024   6.957   1.656 -0.2730 -0.3478 -1.8935
   75MOL0     H10308   2.896   6.742   1.835 -0.4306 -2.7471  3.8541
   75MOL0     H10309   2.696   6.494   1.939 -1.8188  0.1580  2.9079
   75MOL0     H10310   2.758   6.551   2.090  1.2391  1.8827  0.7134
   75MOL0     H10311   2.865   6.543   1.944 -0.1623 -2.4338 -0.7301
   75MOL0     H10312   2.158   6.781   2.067 -1.5645 -0.3651 -0.8865
   75MOL0     H10313   1.965   6.666   2.181 -0.2025  0.2263  0.9994
   75MOL0     H10314   1.913   6.368   2.470  0.8678 -0.2254  0.7625
   75MOL0     H10315   2.090   6.370   2.440 -2.3097 -2.0594 -3.7348
   75MOL0     H10316   2.132   6.450   2.668 -0.1742  1.6632  0.3006
   75MOL0     H10317   1.981   6.531   2.667  0.1665 -1.2266 -0.8545
   75MOL0     H10318   2.043   6.226   2.692 -1.3082 -1.7335 -1.8359
   75MOL0     H10319   1.873   6.270   2.669  0.4198 -0.0414 -1.1587
   75MOL0     H10320   1.866   6.233   2.866 -0.5013  0.3555 -3.5504
   75MOL0     H10321   1.896   6.396   2.895 -1.6342 -1.2857  0.3342
   75MOL0     H10322   2.063   6.171   2.978  0.8974 -0.0759 -0.6095
   75MOL0     H10323   2.165   6.287   2.883  1.2102  4.3615  0.8752
   75MOL0     H10324   2.181   6.321   3.119 -1.4978 -0.2630  1.1581
   75MOL0     H10325   2.013   6.355   3.145 -0.3123  0.0006  0.0216
   75MOL0     H10326   2.027   6.545   3.072 -1.0350 -1.6048  0.9016
   75MOL0     H10327   2.104   6.514   2.917 -2.8439  1.5376  1.2196
   75MOL0     H10328   2.326   6.517   3.029  1.3318  4.8868  0.0595
   75MOL0     H10329   2.250   6.503   3.190 -2.2151 -1.1970 -0.6247
   75MOL0     H10330   2.224   6.592   2.523 -1.8976 -2.0920 -0.3836
   75MOL0     H10331   2.411   6.681   2.405  1.4390 -5.4513 -2.4685
   75MOL0     H10332   2.471   6.954   1.991  0.9832  0.0453  0.9016
   75MOL0     H10333   2.603   7.069   1.840 -2.1067 -0.7875 -1.5020
   75MOL0     H10334   3.787   6.960   1.440 -1.0876  0.0794 -1.4629
   75MOL0     H10335   3.837   6.760   1.552  0.9899  2.5010 -0.8541
   75MOL0     H10336   3.855   6.520   1.977  1.2297 -0.6206  0.9558
   75MOL0     H10337   3.866   6.289   2.099  0.9201 -1.9583 -0.4443
   75MOL0     H10338   3.640   5.974   1.931 -1.1302  0.4299  2.7489
   75MOL0     H10339   3.795   5.887   1.889 -2.0062 -0.6717 -1.9214
   75MOL0     H10340   3.729   5.763   2.058  1.6856  0.1278  0.0295
   75MOL0     H10341   3.628   5.894   2.135  1.2381  1.7102  2.5966
   75MOL0     H10342   3.933   5.878   2.131 -2.8537  0.0523 -3.2901
   75MOL0     H10343   3.838   5.983   2.238  0.0052  0.9117 -0.0268
   75MOL0     H10344   3.937   5.769   2.349 -0.7228 -2.4857  1.5676
   75MOL0     H10345   3.826   5.676   2.244  0.3106  1.7780 -2.6021
   75MOL0     H10346   3.603   5.816   2.576 -0.1998  2.0269 -0.6099
   75MOL0     H10347   3.738   6.096   1.747  0.5715  0.0282 -1.5627
   75MOL0     H10348   3.784   6.263   1.516 -0.3415  1.8493 -2.3154
   75MOL0     H10349   3.616   6.231   1.555 -0.4318  0.4182  0.3374
   75MOL0     H10350   3.666   6.396   1.546  1.6429 -0.0332 -0.8012
   76MOL0     O10351   3.446   6.276   7.585  0.4115 -0.2282 -0.1963
   76MOL0     C10352   3.356   6.336   7.525 -0.3746  0.5684  0.4840
   76MOL0     O10353   3.271   6.416   7.579  0.3454  0.3824 -0.2441
   76MOL0     C10354   3.218   6.410   7.703 -0.4343 -0.4047  0.7554
   76MOL0     C10355   3.129   6.516   7.732 -0.2306 -0.4343  0.6502
   76MOL0     C10356   3.062   6.526   7.856 -0.4012 -0.5811 -0.1107
   76MOL0     C10357   3.093   6.435   7.959 -0.0726  0.7830 -0.5906
   76MOL0     O10358   3.019   6.448   8.080 -0.4357 -0.2432  0.4623
   76MOL0     C10359   3.054   6.374   8.202  0.2954 -0.6214  0.2883
   76MOL0     C10360   2.977   6.428   8.328 -1.2355  0.9482  0.3066
   76MOL0     C10361   3.022   6.346   8.450 -0.1110 -0.0296 -0.4861
   76MOL0     C10362   2.945   6.407   8.571  0.2244 -0.7532 -0.2370
   76MOL0     C10363   2.950   6.327   8.691  0.4782 -0.0804  0.0661
   76MOL0     C10364   2.862   6.207   8.678 -0.2456  0.0718  0.3503
   76MOL0     C10365   2.837   6.141   8.815 -0.0007  0.2805 -0.1028
   76MOL0     C10366   2.964   6.073   8.880 -0.0992 -0.0005 -0.4910
   76MOL0     N10367   3.034   5.960   8.798  0.9096  0.1960 -0.2416
   76MOL0     C10368   3.141   5.953   8.712  0.1371 -0.1570  0.3437
   76MOL0     C10369   3.165   5.823   8.682  0.1898  0.4224  0.2931
   76MOL0     C10370   3.284   5.758   8.609  0.6514  0.6327  0.4413
   76MOL0     C10371   3.416   5.778   8.651  0.5591  0.1491 -0.3850
   76MOL0     C10372   3.422   5.734   8.805 -0.7314  0.0865 -0.3005
   76MOL0     C10373   3.560   5.701   8.838 -1.2989  0.0485 -1.1344
   76MOL0     O10374   3.624   5.823   8.846 -0.9775 -0.0984 -0.1105
   76MOL0     C10375   3.758   5.823   8.880 -0.2339 -0.2707 -0.0739
   76MOL0     C10376   3.843   5.711   8.891  0.1077  1.2527  0.3747
   76MOL0     C10377   3.977   5.721   8.918 -0.1181 -0.6868 -1.1468
   76MOL0     C10378   4.066   5.596   8.910 -0.1590  0.3289 -0.5537
   76MOL0     C10379   4.031   5.848   8.954 -0.5103 -0.2847  0.8545
   76MOL0     C10380   4.174   5.879   8.996  0.9916  0.0182 -0.3125
   76MOL0     O10381   4.182   5.987   9.079 -0.2471  0.2111  0.0537
   76MOL0     C10382   4.311   6.035   9.085 -1.0285 -0.7436 -0.9636
   76MOL0     C10383   4.391   6.056   8.976 -0.0313  0.6666  0.5185
   76MOL0     C10384   4.515   6.111   8.976 -0.4600 -0.1984 -0.5153
   76MOL0     C10385   4.572   6.151   9.092 -0.1284  1.2896  0.0329
   76MOL0     O10386   4.700   6.198   9.090 -0.2301  0.1017 -0.1257
   76MOL0     C10387   4.741   6.300   8.998  0.1624  1.2607  0.1161
   76MOL0     C10388   4.864   6.374   9.040 -0.4301 -0.2777 -0.2077
   76MOL0     C10389   4.840   6.437   9.179 -0.1946 -1.0545  0.5074
   76MOL0     C10390   4.958   6.516   9.229  0.3952  0.8748 -0.4578
   76MOL0     C10391   4.930   6.602   9.354 -0.1671  0.1976  1.3481
   76MOL0     C10392   5.061   6.683   9.403  0.3099  0.0468  0.2241
   76MOL0     C10393   5.033   6.783   9.510  0.4640 -0.0215 -0.2893
   76MOL0     C10394   5.158   6.832   9.582  0.4087 -0.6908 -0.2149
   76MOL0    Cl10395   5.109   6.954   9.699 -0.6126  0.5305 -0.1179
   76MOL0     C10396   4.504   6.132   9.209 -0.3869  0.2255  0.3751
   76MOL0     C10397   4.370   6.072   9.208  0.3724  0.3762  0.5751
   76MOL0     O10398   4.262   5.809   8.954 -0.6486  0.4912 -0.4576
   76MOL0     C10399   3.942   5.958   8.953 -0.3004  0.3320 -0.5465
   76MOL0     C10400   3.811   5.943   8.917  0.4416 -0.3997 -0.1806
   76MOL0     N10401   3.066   5.754   8.750 -0.0575  0.3301  0.2311
   76MOL0     N10402   2.991   5.833   8.820 -0.3997  0.3336  0.3154
   76MOL0     C10403   3.175   6.327   7.935 -0.1003  0.8374 -0.9807
   76MOL0     C10404   3.240   6.317   7.806  0.5089  0.0663 -0.0558
   76MOL0     C10405   3.338   6.336   7.374 -0.0145 -0.0782  0.1644
   76MOL0     C10406   3.211   6.345   7.317  1.6366  0.0478 -0.4277
   76MOL0     C10407   3.188   6.334   7.184  0.0980  0.9376  0.5539
   76MOL0     C10408   3.302   6.327   7.096 -0.3306 -0.9899 -0.9542
   76MOL0     O10409   3.288   6.325   6.961 -0.2517 -0.4346  0.4025
   76MOL0     C10410   3.167   6.355   6.886 -0.1949 -0.7254  0.4667
   76MOL0     C10411   3.194   6.432   6.761 -0.6845  1.0303 -0.2821
   76MOL0     C10412   3.208   6.347   6.630 -0.2687  0.4074 -0.1079
   76MOL0     C10413   3.178   6.432   6.506  0.6252  0.2751  1.0774
   76MOL0     C10414   3.297   6.486   6.449  0.4034 -0.5483  0.2746
   76MOL0     C10415   3.407   6.523   6.406  0.2434  0.4974 -0.3124
   76MOL0     C10416   3.427   6.315   7.146 -0.4127  0.6366  0.1714
   76MOL0     C10417   3.451   6.320   7.283  0.9209  0.0306 -1.1208
   76MOL0     C10418   3.593   6.301   7.336  0.4501  0.1014 -0.0013
   76MOL0     H10419   3.108   6.589   7.655  0.5836  0.1247  0.9514
   76MOL0     H10420   2.994   6.609   7.867  2.2039  1.7844 -0.6491
   76MOL0     H10421   3.163   6.382   8.209  0.4421 -2.5188  0.9209
   76MOL0     H10422   3.035   6.268   8.184 -1.6210 -0.5650  1.6217
   76MOL0     H10423   2.994   6.535   8.344 -1.9018  1.3727 -1.5200
   76MOL0     H10424   2.874   6.411   8.295  0.2783 -2.4087 -3.6344
   76MOL0     H10425   2.997   6.241   8.431 -0.7318 -0.2103  1.0888
   76MOL0     H10426   3.128   6.359   8.475 -0.1945 -2.5611  1.6091
   76MOL0     H10427   2.993   6.500   8.601  0.2370 -1.2142  1.2278
   76MOL0     H10428   2.840   6.425   8.545  0.1565 -0.0716  0.4866
   76MOL0     H10429   2.922   6.382   8.781  2.7521  3.0852 -0.9423
   76MOL0     H10430   3.056   6.304   8.703  1.1614  3.7512  3.8797
   76MOL0     H10431   2.768   6.244   8.636  0.9555  0.9940 -1.6552
   76MOL0     H10432   2.898   6.132   8.608 -1.2469 -1.6784  1.6261
   76MOL0     H10433   2.764   6.061   8.802 -0.6727  0.7775  0.5299
   76MOL0     H10434   2.792   6.217   8.880 -1.1005 -1.3455  1.1542
   76MOL0     H10435   3.040   6.151   8.888  2.9166 -2.7649  0.1997
   76MOL0     H10436   2.940   6.041   8.982  0.1929  5.2769  1.5201
   76MOL0     H10437   3.197   6.036   8.672  2.5352 -2.7511 -2.0870
   76MOL0     H10438   3.281   5.793   8.505  0.4300  0.5434  0.4144
   76MOL0     H10439   3.255   5.652   8.604  2.3670  0.1758 -0.6004
   76MOL0     H10440   3.485   5.719   8.590  0.3844 -0.8672  0.3686
   76MOL0     H10441   3.449   5.882   8.641 -1.4297  0.9859  1.0885
   76MOL0     H10442   3.383   5.811   8.872  1.3998  0.2557  0.8196
   76MOL0     H10443   3.362   5.644   8.821  1.5895 -1.2403  1.5988
   76MOL0     H10444   3.563   5.648   8.934  0.1557  0.2435 -1.0558
   76MOL0     H10445   3.605   5.633   8.766  0.0519  1.3609 -1.5801
   76MOL0     H10446   3.793   5.618   8.866  1.6634  0.7134 -0.8662
   76MOL0     H10447   4.132   5.609   8.823 -0.8733 -3.9957 -1.9992
   76MOL0     H10448   4.003   5.508   8.896 -0.7588  0.9896 -2.2830
   76MOL0     H10449   4.139   5.575   8.990 -0.1041 -1.0540 -0.9273
   76MOL0     H10450   4.332   6.040   8.886 -1.7627 -4.9678  2.2473
   76MOL0     H10451   4.564   6.108   8.879  1.1853 -3.6541  0.2663
   76MOL0     H10452   4.759   6.249   8.904 -0.4783  0.0177  0.6445
   76MOL0     H10453   4.668   6.378   8.975 -1.3061  0.1682  0.8779
   76MOL0     H10454   4.952   6.310   9.040 -0.2442 -0.0198 -0.1761
   76MOL0     H10455   4.887   6.447   8.962 -1.2326  0.7359  0.4795
   76MOL0     H10456   4.821   6.369   9.262  0.9072 -1.4002  0.4955
   76MOL0     H10457   4.754   6.504   9.166  1.5991  0.9586 -1.8116
   76MOL0     H10458   5.001   6.572   9.145  1.4922 -0.7430 -1.0255
   76MOL0     H10459   5.041   6.447   9.249 -0.8599 -0.2571  1.1279
   76MOL0     H10460   4.854   6.673   9.320  0.1717  0.8103  1.8361
   76MOL0     H10461   4.892   6.544   9.438  0.0892  0.1680  1.4468
   76MOL0     H10462   5.103   6.732   9.314  4.5045 -0.3292  1.7926
   76MOL0     H10463   5.134   6.609   9.438  4.0921  0.4041 -5.4713
   76MOL0     H10464   4.972   6.745   9.593  1.9530 -1.2291  0.2757
   76MOL0     H10465   4.989   6.876   9.472 -1.6167 -0.7227  0.2627
   76MOL0     H10466   5.229   6.876   9.511  0.1875  0.7570  0.4360
   76MOL0     H10467   5.196   6.738   9.622  0.6904 -0.9172 -0.9918
   76MOL0     H10468   4.552   6.152   9.304  0.2960 -0.8498  0.2690
   76MOL0     H10469   4.307   6.052   9.294 -0.3875 -1.4400 -0.3599
   76MOL0     H10470   3.971   6.060   8.977  0.0724 -0.2372  1.5899
   76MOL0     H10471   3.750   6.030   8.893 -1.4751 -1.4382  0.6919
   76MOL0     H10472   3.191   6.247   8.007 -0.5625  1.7254  0.1424
   76MOL0     H10473   3.302   6.228   7.799 -2.2107 -1.8875 -0.7882
   76MOL0     H10474   3.124   6.367   7.378  2.5070  1.7656  0.2702
   76MOL0     H10475   3.091   6.351   7.138  0.4169 -0.4334 -0.7290
   76MOL0     H10476   3.119   6.258   6.868 -0.2974 -0.4032 -1.1461
   76MOL0     H10477   3.100   6.424   6.938  1.4663  0.0610  1.6677
   76MOL0     H10478   3.282   6.496   6.773 -0.2522  0.1625  1.4106
   76MOL0     H10479   3.116   6.505   6.739  1.0199  2.1295 -3.4499
   76MOL0     H10480   3.307   6.300   6.631  0.6299  2.2340  1.4741
   76MOL0     H10481   3.130   6.271   6.640 -1.3542  1.5483  0.3112
   76MOL0     H10482   3.100   6.507   6.519 -0.9236 -0.6675 -1.8460
   76MOL0     H10483   3.145   6.368   6.423 -0.9990 -2.2325  3.4495
   76MOL0     H10484   3.507   6.546   6.376  0.0279  0.3966 -1.1365
   76MOL0     H10485   3.509   6.314   7.075  0.2180 -1.3124  0.8568
   76MOL0     H10486   3.618   6.196   7.351  1.0327  0.5240  2.4209
   76MOL0     H10487   3.668   6.348   7.273 -1.4214  0.2452 -2.2685
   76MOL0     H10488   3.602   6.353   7.432  0.5319 -0.1690  0.1390
   77MOL0     O10489   4.570   5.101  10.047 -0.3679 -0.5271 -0.3272
   77MOL0     C10490   4.451   5.104  10.035  0.0107  0.4334  0.1059
   77MOL0     O10491   4.364   5.208  10.068  0.1828  0.2326 -0.2569
   77MOL0     C10492   4.430   5.326  10.082 -0.1958  0.7648  0.6532
   77MOL0     C10493   4.509   5.388   9.978  1.2090  0.2530  0.3928
   77MOL0     C10494   4.551   5.524   9.986 -0.3273  0.0263  0.5686
   77MOL0     C10495   4.531   5.591  10.107  0.3674  0.3197  0.2641
   77MOL0     O10496   4.577   5.716  10.124  0.5619 -0.4194  0.4475
   77MOL0     C10497   4.517   5.814  10.043 -0.1900 -0.0911  1.3027
   77MOL0     C10498   4.606   5.946  10.062  0.1100 -0.2771  0.2045
   77MOL0     C10499   4.600   6.053   9.951 -0.3849  0.0389 -0.2840
   77MOL0     C10500   4.461   6.107   9.932  0.6012  0.5423 -0.5983
   77MOL0     C10501   4.443   6.174   9.797  0.6825  0.0124  0.6474
   77MOL0     C10502   4.303   6.235   9.779 -0.6437 -0.5003  0.5792
   77MOL0     C10503   4.296   6.301   9.638  0.6035 -0.3157  0.0111
   77MOL0     C10504   4.150   6.343   9.625 -0.4724 -0.4361  0.7897
   77MOL0     N10505   4.045   6.263   9.572  0.2027  1.0069  1.7672
   77MOL0     C10506   4.057   6.144   9.507 -0.5162  0.6822 -0.7960
   77MOL0     C10507   3.931   6.115   9.461  0.4482  0.1835  0.6011
   77MOL0     C10508   3.869   5.996   9.376  0.1473 -0.4161 -0.0268
   77MOL0     C10509   3.923   5.859   9.415  0.2535 -0.3460 -0.3631
   77MOL0     C10510   3.850   5.822   9.539 -0.0303  0.5650 -0.4223
   77MOL0     C10511   3.868   5.679   9.571 -0.5601 -0.2719 -0.3768
   77MOL0     O10512   3.801   5.651   9.690  0.0161 -0.4567  0.2900
   77MOL0     C10513   3.797   5.532   9.754 -0.2251 -0.1861 -0.2116
   77MOL0     C10514   3.734   5.532   9.883  0.5562  0.1781  0.1090
   77MOL0     C10515   3.747   5.418   9.965 -0.8115  0.0799 -0.0880
   77MOL0     C10516   3.674   5.415  10.097  0.4990  0.7191 -0.5915
   77MOL0     C10517   3.819   5.305   9.920  0.6925  0.4418 -0.6602
   77MOL0     C10518   3.857   5.183   9.995  0.6191  0.3224 -0.1897
   77MOL0     O10519   3.754   5.094  10.006 -0.8968 -0.0780  0.1628
   77MOL0     C10520   3.773   4.951  10.001 -0.1033 -0.4806  0.1319
   77MOL0     C10521   3.760   4.899   9.876 -0.9710  1.0222  0.4801
   77MOL0     C10522   3.780   4.756   9.867  0.4211  0.9322 -0.4011
   77MOL0     C10523   3.815   4.680   9.983  0.5536 -0.1428  0.0269
   77MOL0     O10524   3.836   4.547   9.982  0.2156  0.3017  0.5931
   77MOL0     C10525   3.726   4.466   9.923  0.2341 -0.6504 -0.5303
   77MOL0     C10526   3.620   4.434  10.027  1.3877 -0.3469  0.0169
   77MOL0     C10527   3.669   4.388  10.168  0.3268  0.7382  0.1969
   77MOL0     C10528   3.555   4.335  10.263  0.6529 -0.2773  0.3356
   77MOL0     C10529   3.625   4.269  10.383 -0.3361 -0.5430 -0.3367
   77MOL0     C10530   3.523   4.250  10.503  1.0925 -0.2912 -0.1198
   77MOL0     C10531   3.381   4.179  10.453  0.1487 -0.1955 -0.7809
   77MOL0     C10532   3.302   4.104  10.561 -0.1943  1.2034 -0.2452
   77MOL0    Cl10533   3.150   4.042  10.490 -0.0933 -0.0634 -0.1359
   77MOL0     C10534   3.835   4.741  10.107 -0.9176 -0.3368  0.0288
   77MOL0     C10535   3.821   4.882  10.111  0.0069  0.5351 -0.5181
   77MOL0     O10536   3.968   5.168  10.037 -0.0378  0.1992 -0.2449
   77MOL0     C10537   3.886   5.309   9.792 -0.3100 -0.3060 -0.2119
   77MOL0     C10538   3.872   5.422   9.715 -0.3050 -0.6829 -0.2117
   77MOL0     N10539   3.844   6.208   9.515 -0.4306  0.1290  0.3827
   77MOL0     N10540   3.914   6.287   9.587  0.7726 -0.4632 -0.3116
   77MOL0     C10541   4.447   5.532  10.207  0.9195 -0.2971  0.0504
   77MOL0     C10542   4.405   5.396  10.199  0.5197  0.3455 -0.4092
   77MOL0     C10543   4.372   4.974   9.998 -0.7065 -0.3724 -0.0874
   77MOL0     C10544   4.243   4.988   9.958  0.6321  0.4492  0.4341
   77MOL0     C10545   4.167   4.890   9.908  0.2520 -0.2007 -0.5125
   77MOL0     C10546   4.227   4.765   9.883  0.6243 -0.0221 -0.2910
   77MOL0     O10547   4.161   4.666   9.825  1.0245  0.4229 -0.5275
   77MOL0     C10548   4.146   4.690   9.687 -0.4653 -0.3432 -0.2636
   77MOL0     C10549   4.259   4.617   9.617 -0.3571 -0.4753 -0.5053
   77MOL0     C10550   4.265   4.622   9.460 -0.3268 -0.2585 -0.1665
   77MOL0     C10551   4.351   4.738   9.400  0.4299  0.5748  0.1469
   77MOL0     C10552   4.327   4.765   9.252 -1.2106 -0.4632  0.6557
   77MOL0     C10553   4.310   4.794   9.137 -0.6632 -0.9093 -0.1588
   77MOL0     C10554   4.358   4.739   9.926  0.1575 -0.7404  0.1418
   77MOL0     C10555   4.431   4.844   9.992 -0.4901 -0.4148 -0.1547
   77MOL0     C10556   4.562   4.806  10.045 -0.5490  0.3151 -0.1630
   77MOL0     H10557   4.524   5.330   9.888  1.7140 -3.0962  2.4477
   77MOL0     H10558   4.612   5.576   9.912 -2.4907 -0.4279 -1.6647
   77MOL0     H10559   4.416   5.832  10.081 -0.8577 -1.5740  0.3305
   77MOL0     H10560   4.514   5.805   9.934  0.0240 -1.3100  1.3853
   77MOL0     H10561   4.569   5.976  10.160  2.8754 -0.6896  1.4644
   77MOL0     H10562   4.711   5.916  10.067  0.0669 -1.2906 -2.7523
   77MOL0     H10563   4.655   6.142   9.982 -0.5035 -0.3991  1.2546
   77MOL0     H10564   4.650   6.017   9.860  2.0341 -3.8052  2.2868
   77MOL0     H10565   4.382   6.032   9.928  0.3832  0.5636  1.7159
   77MOL0     H10566   4.414   6.160  10.015 -2.2544 -1.1301 -1.0199
   77MOL0     H10567   4.456   6.096   9.722  1.6314  2.1361 -1.5419
   77MOL0     H10568   4.518   6.252   9.783  0.3251  0.3042  0.3145
   77MOL0     H10569   4.231   6.154   9.792 -0.0941 -1.2650 -0.9247
   77MOL0     H10570   4.287   6.315   9.852 -0.6002 -0.6081  0.7076
   77MOL0     H10571   4.324   6.232   9.557  1.3943  1.5399 -1.3744
   77MOL0     H10572   4.351   6.394   9.622 -0.8743  0.8359  1.3421
   77MOL0     H10573   4.112   6.371   9.723 -2.9875  1.2142 -0.5697
   77MOL0     H10574   4.145   6.437   9.571  2.6820 -0.2841  0.5600
   77MOL0     H10575   4.144   6.086   9.478 -2.2918 -1.6138 -1.9053
   77MOL0     H10576   3.911   6.005   9.275 -0.3047  2.4760 -0.0209
   77MOL0     H10577   3.760   6.004   9.381  0.3805  2.7093  2.7460
   77MOL0     H10578   3.906   5.783   9.338  0.7424 -0.6813 -0.1427
   77MOL0     H10579   4.022   5.866   9.460 -0.3118  0.3375  0.8225
   77MOL0     H10580   3.890   5.884   9.619  2.0839 -0.9043 -0.2582
   77MOL0     H10581   3.742   5.840   9.531 -0.2264  0.6968  1.8742
   77MOL0     H10582   3.830   5.611   9.494 -0.0978 -0.0309 -0.8237
   77MOL0     H10583   3.976   5.668   9.585 -0.3166  0.7703 -1.3999
   77MOL0     H10584   3.684   5.619   9.924  2.2446  0.4852  1.6586
   77MOL0     H10585   3.586   5.479  10.088 -2.4430 -2.7172  1.0747
   77MOL0     H10586   3.750   5.460  10.162  3.8321 -2.4287 -1.9551
   77MOL0     H10587   3.638   5.316  10.126 -0.5084  1.5586  1.1667
   77MOL0     H10588   3.742   4.960   9.788  0.8990  0.5052 -0.3022
   77MOL0     H10589   3.788   4.709   9.770  1.4117 -0.0681  0.1499
   77MOL0     H10590   3.687   4.518   9.835  1.8461 -0.4066 -1.1386
   77MOL0     H10591   3.773   4.373   9.889 -0.3044 -1.0460 -0.2127
   77MOL0     H10592   3.553   4.519  10.043  1.5036 -0.6826  3.0147
   77MOL0     H10593   3.554   4.354   9.995 -0.5103  1.6479 -1.3328
   77MOL0     H10594   3.721   4.471  10.217  0.0553 -0.7380  3.1745
   77MOL0     H10595   3.748   4.313  10.156 -1.1285 -1.1080  1.6231
   77MOL0     H10596   3.483   4.260  10.228 -0.3808 -1.9453  5.2002
   77MOL0     H10597   3.500   4.415  10.313  0.6990 -2.3706  4.1445
   77MOL0     H10598   3.662   4.174  10.341 -3.2012 -2.2928  0.7970
   77MOL0     H10599   3.713   4.325  10.416 -1.5786  2.8729 -2.3244
   77MOL0     H10600   3.495   4.339  10.561 -0.2234 -1.2157  0.7226
   77MOL0     H10601   3.573   4.177  10.568  3.4472  1.5459  0.2594
   77MOL0     H10602   3.422   4.102  10.387  0.1000  0.1551 -1.2261
   77MOL0     H10603   3.320   4.252  10.398  1.1865  1.3791  0.0614
   77MOL0     H10604   3.272   4.166  10.646 -1.0695 -0.6747  0.8854
   77MOL0     H10605   3.367   4.024  10.597  0.3946  1.4831 -0.6710
   77MOL0     H10606   3.851   4.688  10.200  2.2015 -0.4355 -0.4583
   77MOL0     H10607   3.833   4.933  10.206  4.6801  0.0869 -0.6728
   77MOL0     H10608   3.938   5.219   9.760  3.4621  0.3799  3.1762
   77MOL0     H10609   3.907   5.424   9.612  1.1647  4.2732  0.1009
   77MOL0     H10610   4.419   5.594  10.291 -4.2892 -1.8006 -0.2245
   77MOL0     H10611   4.343   5.357  10.279 -0.8413  1.9650 -0.6149
   77MOL0     H10612   4.193   5.084   9.959  0.7621  0.5314  2.1221
   77MOL0     H10613   4.066   4.904   9.872  1.4749  0.1604 -4.3179
   77MOL0     H10614   4.056   4.636   9.654 -1.7332  1.0918  0.7419
   77MOL0     H10615   4.144   4.792   9.649 -0.0741 -0.4742 -0.6480
   77MOL0     H10616   4.260   4.512   9.649 -1.9495 -0.9445 -1.8637
   77MOL0     H10617   4.353   4.658   9.654 -0.6071 -1.1668  1.0040
   77MOL0     H10618   4.290   4.524   9.418 -0.3310 -1.7404  2.9593
   77MOL0     H10619   4.167   4.643   9.417 -1.0238 -3.0729 -0.1293
   77MOL0     H10620   4.456   4.724   9.425 -0.1506 -1.2198  1.8309
   77MOL0     H10621   4.321   4.830   9.451  4.0506  0.7796  2.2455
   77MOL0     H10622   4.294   4.814   9.033  1.6544 -3.3978 -1.1066
   77MOL0     H10623   4.380   4.633   9.922 -1.2946 -1.0547 -0.1443
   77MOL0     H10624   4.552   4.703  10.079 -0.1897  1.0065  2.1823
   77MOL0     H10625   4.649   4.811   9.979 -0.7422 -3.0027 -0.8445
   77MOL0     H10626   4.605   4.864  10.127  1.3963 -4.0194  2.1968
   78MOL0     O10627   7.276   0.769   0.982 -0.1075  0.1527  0.2112
   78MOL0     C10628   7.368   0.723   1.045 -0.1306 -0.3379 -0.3757
   78MOL0     O10629   7.349   0.620   1.135  0.5953  0.5191 -0.4466
   78MOL0     C10630   7.231   0.549   1.125 -1.0575 -0.3595 -0.3397
   78MOL0     C10631   7.229   0.428   1.058 -0.1582  0.7438 -0.4428
   78MOL0     C10632   7.118   0.336   1.066  0.1964 -0.0484 -0.7585
   78MOL0     C10633   7.004   0.379   1.137 -0.1623 -0.1750 -0.1686
   78MOL0     O10634   6.882   0.310   1.136 -0.5685 -0.5040  0.3651
   78MOL0     C10635   6.887   0.172   1.076  0.3474 -0.9542  0.9429
   78MOL0     C10636   6.751   0.093   1.108 -0.5632 -0.2110 -0.2729
   78MOL0     C10637   6.621   0.155   1.057  0.8342  1.1862  0.3666
   78MOL0     C10638   6.503   0.057   1.066  0.4630 -0.3074 -0.3201
   78MOL0     C10639   6.460   0.031   1.213 -0.2698 -0.0734 -0.1357
   78MOL0     C10640   6.340  -0.072   1.215 -0.2977 -0.0393  0.7319
   78MOL0     C10641   6.332  -0.126   1.350 -0.4027 -0.6723 -0.3066
   78MOL0     C10642   6.243  -0.251   1.337  0.2382  0.8926 -0.5261
   78MOL0     N10643   6.109  -0.215   1.391  0.5974  0.5445  0.7637
   78MOL0     C10644   5.999  -0.202   1.313 -0.1520  0.7381 -0.3023
   78MOL0     C10645   5.912  -0.123   1.374  0.9340 -0.1665 -1.0832
   78MOL0     C10646   5.770  -0.075   1.331  0.4952 -0.6305  0.4989
   78MOL0     C10647   5.665  -0.164   1.403  0.5527  0.1953  0.3962
   78MOL0     C10648   5.514  -0.115   1.397  0.0038 -0.2255  0.2150
   78MOL0     C10649   5.479  -0.087   1.248  0.4022 -0.6043  0.4199
   78MOL0     O10650   5.522   0.048   1.224  0.1560 -0.4815  0.4306
   78MOL0     C10651   5.490   0.096   1.094  0.1852  0.6475 -0.3368
   78MOL0     C10652   5.539   0.225   1.066  1.3577  1.2465  0.2774
   78MOL0     C10653   5.505   0.289   0.951 -0.1626 -0.4304  0.4048
   78MOL0     C10654   5.562   0.425   0.928  0.2961 -0.0898 -0.9356
   78MOL0     C10655   5.431   0.223   0.848  0.3291 -0.1574  0.1730
   78MOL0     C10656   5.384   0.290   0.721 -0.0439  0.2522 -1.4001
   78MOL0     O10657   5.326   0.207   0.627 -0.3650 -0.1078  0.0504
   78MOL0     C10658   5.280   0.269   0.517 -0.1285  0.9959  0.1061
   78MOL0     C10659   5.336   0.256   0.390  0.5293  0.0935  0.3002
   78MOL0     C10660   5.293   0.332   0.283  0.1614  1.1815 -0.3639
   78MOL0     C10661   5.184   0.416   0.294  0.0942  0.8161 -0.4689
   78MOL0     O10662   5.146   0.482   0.183  0.3895 -0.1106 -0.2087
   78MOL0     C10663   5.016   0.464   0.138 -0.1099 -0.5880  0.7099
   78MOL0     C10664   5.000   0.550   0.005  1.2340  0.4649  0.0155
   78MOL0     C10665   4.848   0.568  -0.040 -0.2925 -0.1538  0.2053
   78MOL0     C10666   4.834   0.620  -0.181  0.2985 -0.2881 -0.3669
   78MOL0     C10667   4.893   0.755  -0.204 -0.6028  0.0016 -0.8131
   78MOL0     C10668   4.830   0.885  -0.137 -0.5826 -0.7470 -0.6615
   78MOL0     C10669   4.825   1.009  -0.227 -1.0496  0.1012  0.8061
   78MOL0     C10670   4.780   1.130  -0.153 -0.0203  0.2600 -0.0704
   78MOL0    Cl10671   4.698   1.245  -0.268 -0.7427 -0.0862  0.1323
   78MOL0     C10672   5.116   0.419   0.415 -0.1152  0.4344  0.1416
   78MOL0     C10673   5.169   0.352   0.528  0.2380  0.0783 -0.0963
   78MOL0     O10674   5.411   0.413   0.707  0.5138  0.4066  0.9453
   78MOL0     C10675   5.398   0.086   0.868  0.4596 -0.4715  0.0690
   78MOL0     C10676   5.434   0.024   0.983 -0.4086 -0.1882 -0.4199
   78MOL0     N10677   5.966  -0.097   1.505  0.6170 -0.0860 -0.0755
   78MOL0     N10678   6.079  -0.157   1.511  0.7657 -0.5377  0.2607
   78MOL0     C10679   7.007   0.504   1.200 -0.2534  0.0031  0.5199
   78MOL0     C10680   7.125   0.588   1.195 -0.0971 -0.1735  0.3799
   78MOL0     C10681   7.496   0.783   1.035 -0.0266 -0.0899 -0.1195
   78MOL0     C10682   7.586   0.764   1.141 -0.3195  1.3657  0.5301
   78MOL0     C10683   7.704   0.825   1.146 -0.7056  0.2701 -1.1229
   78MOL0     C10684   7.740   0.909   1.045  0.3487 -0.0863  0.1752
   78MOL0     O10685   7.861   0.976   1.069 -0.0627  0.6541 -0.3583
   78MOL0     C10686   7.896   1.093   0.996 -0.2205  0.3200  0.0701
   78MOL0     C10687   7.995   1.195   1.061 -0.3366  0.1774 -0.4921
   78MOL0     C10688   7.935   1.266   1.177 -0.1046 -0.0387 -0.1834
   78MOL0     C10689   8.024   1.367   1.243 -0.2520 -0.0987 -1.0669
   78MOL0     C10690   7.951   1.457   1.339  0.3722  1.3091  0.0152
   78MOL0     C10691   7.880   1.528   1.412 -0.8168 -0.3126 -0.4782
   78MOL0     C10692   7.660   0.933   0.930  0.4147  0.7955 -0.1135
   78MOL0     C10693   7.541   0.865   0.926  0.3654  0.8463  0.6300
   78MOL0     C10694   7.451   0.898   0.809  0.4722 -0.1692 -0.8800
   78MOL0     H10695   7.327   0.402   1.019  1.8086  1.0631  3.7622
   78MOL0     H10696   7.130   0.239   1.019 -2.5916 -0.0816 -1.5522
   78MOL0     H10697   6.974   0.114   1.107 -0.4863 -2.2944  0.8500
   78MOL0     H10698   6.876   0.183   0.968  0.0766  0.5476  1.0956
   78MOL0     H10699   6.785  -0.004   1.070  3.1125  1.2136 -1.0410
   78MOL0     H10700   6.738   0.074   1.215 -4.2463  0.7091 -0.4050
   78MOL0     H10701   6.594   0.238   1.122 -0.4772  0.9528  0.1367
   78MOL0     H10702   6.633   0.185   0.952  1.6129  0.7922  0.3364
   78MOL0     H10703   6.413   0.101   1.022 -0.0425 -0.1435  0.8144
   78MOL0     H10704   6.531  -0.035   1.013  1.5274  0.9491 -1.9931
   78MOL0     H10705   6.444   0.116   1.281 -1.3446  0.8219 -1.4461
   78MOL0     H10706   6.546  -0.021   1.257 -1.3385 -0.3988  1.6736
   78MOL0     H10707   6.251  -0.014   1.190  0.8840  3.3517  3.6950
   78MOL0     H10708   6.353  -0.155   1.144  2.4823 -0.3260  1.4554
   78MOL0     H10709   6.306  -0.061   1.435 -0.8529 -0.7901 -0.3505
   78MOL0     H10710   6.426  -0.170   1.383  1.0795  0.7700 -2.3809
   78MOL0     H10711   6.240  -0.298   1.238 -1.1149 -0.0926 -0.0471
   78MOL0     H10712   6.302  -0.317   1.400 -2.4028 -1.3508 -0.2078
   78MOL0     H10713   6.000  -0.230   1.208 -0.0212  0.6619 -0.2815
   78MOL0     H10714   5.759  -0.081   1.222  2.1953 -1.3564  0.3460
   78MOL0     H10715   5.763   0.025   1.375 -0.0779 -1.1431  1.6073
   78MOL0     H10716   5.682  -0.264   1.363 -0.9495 -0.0254  0.2540
   78MOL0     H10717   5.700  -0.169   1.507  2.1335 -2.9636 -0.1660
   78MOL0     H10718   5.450  -0.192   1.440  0.1457 -1.2782 -1.3929
   78MOL0     H10719   5.520  -0.023   1.457  1.1055 -0.2871  0.2180
   78MOL0     H10720   5.533  -0.160   1.186 -0.6599 -2.2506  1.3578
   78MOL0     H10721   5.371  -0.099   1.237  0.3564  1.0071 -1.2420
   78MOL0     H10722   5.593   0.278   1.143  1.2909  0.4365  0.8989
   78MOL0     H10723   5.618   0.460   1.015 -0.1349  0.3824 -0.8453
   78MOL0     H10724   5.484   0.495   0.899  0.7143 -0.2391 -2.5152
   78MOL0     H10725   5.633   0.421   0.844  0.5553 -0.0717 -0.7185
   78MOL0     H10726   5.418   0.184   0.384  1.3350  1.0369 -0.5561
   78MOL0     H10727   5.340   0.322   0.186  3.3237  1.1387  1.0289
   78MOL0     H10728   4.996   0.361   0.108  1.2729 -0.6499 -0.1098
   78MOL0     H10729   4.940   0.492   0.211 -1.8402  1.4644 -1.7206
   78MOL0     H10730   5.048   0.646   0.024  2.2535  0.5065 -2.3720
   78MOL0     H10731   5.066   0.505  -0.070  2.5877  2.3421  0.0126
   78MOL0     H10732   4.796   0.634   0.030  2.8564  0.7538  1.9269
   78MOL0     H10733   4.803   0.469  -0.042 -1.5079  0.3678 -2.9568
   78MOL0     H10734   4.733   0.619  -0.223 -0.1390 -4.9079  0.2316
   78MOL0     H10735   4.874   0.543  -0.248  0.4346  0.9945 -1.8209
   78MOL0     H10736   4.998   0.749  -0.174 -0.6294 -1.7734 -0.9736
   78MOL0     H10737   4.885   0.782  -0.310  0.5455  0.1253 -0.8844
   78MOL0     H10738   4.882   0.921  -0.048 -3.7854 -0.4601  1.2439
   78MOL0     H10739   4.725   0.867  -0.110 -0.5809 -0.5460 -0.5181
   78MOL0     H10740   4.750   0.985  -0.303 -0.4307 -0.6245  0.4053
   78MOL0     H10741   4.921   1.019  -0.278 -1.0111 -1.1103  0.6085
   78MOL0     H10742   4.855   1.182  -0.092  1.6025  1.1779 -2.6810
   78MOL0     H10743   4.707   1.094  -0.081 -2.3989  0.6002 -2.1978
   78MOL0     H10744   5.034   0.490   0.424 -0.9389 -0.2643 -1.4382
   78MOL0     H10745   5.120   0.369   0.623  1.7926 -0.9641  0.9490
   78MOL0     H10746   5.354   0.030   0.786  0.3255  1.3226 -1.1438
   78MOL0     H10747   5.409  -0.081   0.993  3.6705 -1.1588  1.6931
   78MOL0     H10748   6.918   0.529   1.256 -0.1059 -1.4522  1.4591
   78MOL0     H10749   7.128   0.684   1.245 -1.8754 -0.2036  0.5924
   78MOL0     H10750   7.557   0.688   1.213 -1.3586 -2.2285 -3.2910
   78MOL0     H10751   7.754   0.813   1.241 -2.1466  1.4579 -0.1675
   78MOL0     H10752   7.962   1.041   0.926 -0.0494 -1.4861  1.4933
   78MOL0     H10753   7.816   1.146   0.944  0.0929  4.0582  2.9709
   78MOL0     H10754   8.021   1.270   0.986 -1.8272  1.7790  0.5078
   78MOL0     H10755   8.083   1.142   1.100 -1.0462 -0.9737 -0.4229
   78MOL0     H10756   7.857   1.332   1.138  0.5653 -0.3942 -2.2038
   78MOL0     H10757   7.890   1.203   1.255  1.8335 -0.1790  0.8816
   78MOL0     H10758   8.083   1.433   1.178  0.1165 -0.1325 -0.7714
   78MOL0     H10759   8.103   1.319   1.302  2.4444  1.0671 -3.5003
   78MOL0     H10760   7.827   1.606   1.462 -0.2852 -0.4295  0.2916
   78MOL0     H10761   7.683   1.014   0.862  0.3198  0.9362  0.0236
   78MOL0     H10762   7.402   0.811   0.764  1.3416 -1.5273  0.7112
   78MOL0     H10763   7.380   0.976   0.841  2.2023  0.7977  0.7962
   78MOL0     H10764   7.497   0.953   0.727 -2.3274 -0.1389 -2.5772
   79MOL0     O10765   0.193   5.230   0.325  0.4188 -0.0741  0.0590
   79MOL0     C10766   0.155   5.230   0.206 -0.6634  0.2700  0.2627
   79MOL0     O10767   0.208   5.149   0.108 -0.3487 -0.4191  0.4090
   79MOL0     C10768   0.290   5.047   0.150 -1.0659 -0.6932 -0.8700
   79MOL0     C10769   0.240   4.930   0.201  0.8463  0.0332  0.2299
   79MOL0     C10770   0.333   4.834   0.250 -0.0809 -0.7842 -0.6483
   79MOL0     C10771   0.475   4.848   0.240  0.0863  0.7026  0.7937
   79MOL0     O10772   0.560   4.759   0.302  0.6781  0.0390 -0.1122
   79MOL0     C10773   0.699   4.762   0.267 -1.1150  0.4167  0.2852
   79MOL0     C10774   0.778   4.641   0.322  0.8336  0.5397 -0.8666
   79MOL0     C10775   0.792   4.651   0.474 -0.2335 -0.2623  0.1073
   79MOL0     C10776   0.878   4.525   0.521  0.0472  0.4889  0.4840
   79MOL0     C10777   0.797   4.396   0.564  0.4284  0.4695 -1.5476
   79MOL0     C10778   0.752   4.423   0.706 -0.2157  0.2777 -0.2556
   79MOL0     C10779   0.668   4.298   0.754 -0.2560 -0.1521 -0.1949
   79MOL0     C10780   0.586   4.316   0.880 -0.0869  0.7685  0.2818
   79MOL0     N10781   0.659   4.380   0.990 -0.3974 -0.3752  0.3331
   79MOL0     C10782   0.680   4.317   1.108 -0.0425 -0.9327  0.5622
   79MOL0     C10783   0.742   4.408   1.187  0.2818  0.3543 -0.8608
   79MOL0     C10784   0.792   4.372   1.321  0.0686 -0.2325  0.2065
   79MOL0     C10785   0.685   4.349   1.421  0.7392 -0.5677 -1.5282
   79MOL0     C10786   0.728   4.294   1.559 -0.3844  0.7174  0.0081
   79MOL0     C10787   0.630   4.319   1.667 -0.5957 -0.2393 -1.0575
   79MOL0     O10788   0.560   4.195   1.689 -0.4879 -0.0174  0.1660
   79MOL0     C10789   0.500   4.183   1.811  0.3555  0.4167 -0.6731
   79MOL0     C10790   0.413   4.271   1.867  0.1256 -0.6154 -0.1325
   79MOL0     C10791   0.364   4.260   1.991  0.0795  0.1373 -0.7562
   79MOL0     C10792   0.260   4.369   2.034  0.0978 -0.3208 -0.0980
   79MOL0     C10793   0.408   4.145   2.071 -0.2535  0.3131  0.1895
   79MOL0     C10794   0.371   4.130   2.223 -0.0345 -1.4496  0.2121
   79MOL0     O10795   0.298   4.230   2.278  0.2988  0.3885 -0.6930
   79MOL0     C10796   0.239   4.212   2.401  0.7751  0.0015  0.3847
   79MOL0     C10797   0.204   4.084   2.454  0.1244 -0.0402  0.7945
   79MOL0     C10798   0.129   4.066   2.573 -0.0242 -0.1249 -1.1408
   79MOL0     C10799   0.082   4.174   2.639  0.4466 -0.3226 -0.5488
   79MOL0     O10800   0.001   4.147   2.747  0.4923 -0.1857  0.0842
   79MOL0     C10801  -0.113   4.240   2.769 -1.1064 -1.1299 -0.3988
   79MOL0     C10802  -0.226   4.169   2.841 -0.1605  0.3687  0.2229
   79MOL0     C10803  -0.311   4.270   2.910  1.2108 -0.5420  0.0010
   79MOL0     C10804  -0.413   4.203   2.997 -0.1776 -0.8698  0.1475
   79MOL0     C10805  -0.475   4.303   3.096 -0.1813 -0.7950  0.4860
   79MOL0     C10806  -0.605   4.265   3.137 -0.1551 -0.1748 -0.3192
   79MOL0     C10807  -0.639   4.306   3.288 -0.0491 -0.8518  0.8507
   79MOL0     C10808  -0.771   4.237   3.325 -0.2471 -0.1621  0.2639
   79MOL0    Cl10809  -0.774   4.234   3.497 -0.0758 -0.3769 -0.2341
   79MOL0     C10810   0.119   4.303   2.588  0.3007 -0.7303 -0.9261
   79MOL0     C10811   0.191   4.326   2.471 -0.3949  0.1637  0.7191
   79MOL0     O10812   0.412   4.030   2.283 -0.1717  0.5105  0.1093
   79MOL0     C10813   0.483   4.045   2.007 -0.1847  0.5575  0.3934
   79MOL0     C10814   0.527   4.066   1.882 -0.7724  0.4420  0.6685
   79MOL0     N10815   0.747   4.534   1.124  0.9996  0.1476  0.0208
   79MOL0     N10816   0.691   4.512   1.003 -0.1539  0.2063  0.0115
   79MOL0     C10817   0.522   4.970   0.202  0.2944  0.3335  0.0983
   79MOL0     C10818   0.430   5.070   0.158 -0.6870 -0.1288  0.4269
   79MOL0     C10819   0.071   5.339   0.143 -0.5713  0.7415  0.2175
   79MOL0     C10820   0.096   5.380   0.003 -0.6182 -0.4563 -0.4795
   79MOL0     C10821   0.014   5.478  -0.047 -0.2844  0.1458 -0.1112
   79MOL0     C10822  -0.087   5.548   0.023 -0.8455  0.2345  0.4496
   79MOL0     O10823  -0.169   5.645  -0.019 -0.3040 -0.2286 -0.3078
   79MOL0     C10824  -0.146   5.704  -0.146  0.2139 -0.8626 -0.1286
   79MOL0     C10825  -0.041   5.811  -0.150 -0.6289  0.2524  0.4959
   79MOL0     C10826  -0.045   5.880  -0.289  0.3657  0.1846  0.2879
   79MOL0     C10827   0.082   5.968  -0.303  0.3664  0.4390  0.4298
   79MOL0     C10828   0.068   6.104  -0.237 -0.4320 -0.1056  0.3975
   79MOL0     C10829   0.071   6.208  -0.177 -0.2720  0.1341  0.6280
   79MOL0     C10830  -0.106   5.507   0.154  0.7932 -0.0428  0.4734
   79MOL0     C10831  -0.032   5.403   0.216  0.5585 -0.1326  0.1970
   79MOL0     C10832  -0.055   5.390   0.363  0.0136  0.8114  0.0165
   79MOL0     H10833   0.133   4.913   0.209  0.8115 -0.4345 -1.0550
   79MOL0     H10834   0.288   4.748   0.298  0.2220  0.2805  1.7000
   79MOL0     H10835   0.755   4.850   0.303  1.1430  0.9796 -3.9483
   79MOL0     H10836   0.713   4.778   0.160  0.7947  4.4407  0.9436
   79MOL0     H10837   0.718   4.555   0.293  0.1438  0.5751  0.3950
   79MOL0     H10838   0.875   4.634   0.271  1.0458  1.2748 -0.5733
   79MOL0     H10839   0.860   4.736   0.485 -2.6778  2.3150 -2.8768
   79MOL0     H10840   0.701   4.655   0.534 -0.3879  1.6269 -0.2093
   79MOL0     H10841   0.928   4.482   0.433 -1.6117 -0.5141 -0.0003
   79MOL0     H10842   0.950   4.553   0.598  0.4467 -0.5192  0.4942
   79MOL0     H10843   0.858   4.305   0.566 -0.7859 -0.3825  1.3248
   79MOL0     H10844   0.714   4.362   0.501 -1.8501 -0.0008  1.5083
   79MOL0     H10845   0.839   4.432   0.771 -1.7740  3.0259  1.6441
   79MOL0     H10846   0.708   4.522   0.721 -3.9228 -1.1751 -0.2787
   79MOL0     H10847   0.726   4.207   0.774  0.5565  0.5197  0.6411
   79MOL0     H10848   0.596   4.275   0.676  0.3154 -2.8605 -0.0237
   79MOL0     H10849   0.506   4.388   0.860  0.1049  0.8468 -0.2323
   79MOL0     H10850   0.535   4.222   0.902  0.9168  0.4217  1.2363
   79MOL0     H10851   0.658   4.219   1.150  4.0366 -0.8519  3.5302
   79MOL0     H10852   0.872   4.441   1.350  1.5863 -2.0162  0.4606
   79MOL0     H10853   0.844   4.275   1.323  1.0111  0.2664  2.1591
   79MOL0     H10854   0.631   4.442   1.439  0.9625 -0.9756  1.9565
   79MOL0     H10855   0.611   4.275   1.390  0.2859 -2.2111  2.8601
   79MOL0     H10856   0.763   4.190   1.557 -1.3878  0.3363  0.9154
   79MOL0     H10857   0.818   4.346   1.594 -1.4678  1.8823  1.1742
   79MOL0     H10858   0.667   4.360   1.761 -0.3339  1.6141 -1.9158
   79MOL0     H10859   0.562   4.399   1.636  0.1643  1.6170  1.6376
   79MOL0     H10860   0.395   4.352   1.797  3.2123 -0.7719 -1.2581
   79MOL0     H10861   0.310   4.466   2.050 -1.0142  0.6489 -2.1203
   79MOL0     H10862   0.199   4.345   2.121  0.8428  1.4703  0.9899
   79MOL0     H10863   0.185   4.398   1.960  0.1186 -0.8572 -0.3285
   79MOL0     H10864   0.235   3.991   2.408  1.5954  0.2031  1.2387
   79MOL0     H10865   0.112   3.964   2.607 -0.0024  0.5693  1.0912
   79MOL0     H10866  -0.068   4.326   2.818  1.1656 -1.6109 -1.4828
   79MOL0     H10867  -0.152   4.269   2.671 -0.7828 -0.3310 -0.2970
   79MOL0     H10868  -0.285   4.109   2.771 -0.3367  1.4105 -0.5531
   79MOL0     H10869  -0.180   4.101   2.912  0.3199 -0.6128 -0.9930
   79MOL0     H10870  -0.367   4.339   2.846 -0.9902 -2.6444 -0.4581
   79MOL0     H10871  -0.251   4.339   2.971  0.6466 -0.1909  0.1645
   79MOL0     H10872  -0.370   4.128   3.064  1.1062  0.1756  0.5529
   79MOL0     H10873  -0.489   4.155   2.936 -1.0731 -2.7096  2.5369
   79MOL0     H10874  -0.403   4.314   3.176  0.6623  0.3835 -0.4028
   79MOL0     H10875  -0.490   4.403   3.053  1.6538 -1.1832 -1.1656
   79MOL0     H10876  -0.608   4.156   3.136  0.5817 -0.2057 -1.3947
   79MOL0     H10877  -0.682   4.294   3.065  0.8207 -1.0821 -1.8074
   79MOL0     H10878  -0.634   4.412   3.313 -1.9423 -0.9951  2.0712
   79MOL0     H10879  -0.564   4.259   3.353 -1.0406 -0.5256  2.2881
   79MOL0     H10880  -0.778   4.136   3.282 -1.9056  0.5844 -1.3952
   79MOL0     H10881  -0.854   4.289   3.276 -2.4880 -2.1167  1.8023
   79MOL0     H10882   0.075   4.380   2.651 -0.1110 -0.3655 -1.6439
   79MOL0     H10883   0.207   4.426   2.432 -0.6510 -1.3682 -3.8004
   79MOL0     H10884   0.510   3.957   2.065  1.3406  1.6923  1.5064
   79MOL0     H10885   0.593   3.997   1.831 -3.7970 -1.4809 -0.9577
   79MOL0     H10886   0.624   5.006   0.204  0.9105 -1.2987 -0.3881
   79MOL0     H10887   0.464   5.161   0.111 -0.9468  1.0568  2.4512
   79MOL0     H10888   0.180   5.340  -0.052 -0.8293  0.2626 -1.3476
   79MOL0     H10889   0.034   5.509  -0.149  1.8107  3.1519  1.0704
   79MOL0     H10890  -0.120   5.638  -0.230 -1.1828  0.1949 -1.4496
   79MOL0     H10891  -0.241   5.751  -0.173  0.0913 -1.6739 -1.1816
   79MOL0     H10892   0.059   5.768  -0.138 -0.5644  0.2968  0.1436
   79MOL0     H10893  -0.062   5.881  -0.069  1.6966  1.6235 -0.0119
   79MOL0     H10894  -0.045   5.809  -0.372  3.1666 -1.1819  1.3145
   79MOL0     H10895  -0.140   5.933  -0.299  1.6894  2.4633 -1.4806
   79MOL0     H10896   0.105   5.976  -0.409  1.4387 -0.9149  0.5269
   79MOL0     H10897   0.168   5.920  -0.257 -1.0932 -0.7719  2.0521
   79MOL0     H10898   0.050   6.306  -0.139  2.3229  1.1261 -0.2592
   79MOL0     H10899  -0.187   5.558   0.205 -1.0411 -3.1820  1.0212
   79MOL0     H10900   0.026   5.430   0.426  0.6438 -2.1790  1.2795
   79MOL0     H10901  -0.150   5.433   0.395 -0.7100 -0.6702 -0.0502
   79MOL0     H10902  -0.074   5.285   0.390  2.4254  0.1889 -0.4699
   80MOL0     O10903   3.453   8.092   4.726  0.1270  0.2528 -0.6980
   80MOL0     C10904   3.569   8.069   4.767  0.0121  0.4254  0.3449
   80MOL0     O10905   3.627   7.942   4.768  0.2061 -0.0118 -0.4501
   80MOL0     C10906   3.571   7.840   4.706 -1.5867 -0.4159  0.2689
   80MOL0     C10907   3.646   7.728   4.736  1.1117  0.4862  0.1186
   80MOL0     C10908   3.614   7.606   4.670  0.6267  0.8208  0.1156
   80MOL0     C10909   3.524   7.602   4.567 -0.0537  0.8223  0.8057
   80MOL0     O10910   3.502   7.485   4.506  0.0462  0.4192 -0.2707
   80MOL0     C10911   3.369   7.461   4.448 -0.4628  0.5619 -0.5349
   80MOL0     C10912   3.341   7.310   4.423 -0.4956  0.5164  0.1633
   80MOL0     C10913   3.443   7.239   4.331  0.6928  0.4449  0.5484
   80MOL0     C10914   3.396   7.228   4.179 -0.2420  0.6522  0.1685
   80MOL0     C10915   3.306   7.102   4.162  0.5634  0.0321  0.4906
   80MOL0     C10916   3.272   7.074   4.008 -0.2494 -0.8302  0.6570
   80MOL0     C10917   3.180   6.954   3.987 -0.3383 -1.0837  0.6310
   80MOL0     C10918   3.144   6.938   3.835 -0.9786  0.5255 -0.1373
   80MOL0     N10919   3.048   6.831   3.826 -0.1714  0.1266 -0.4501
   80MOL0     C10920   2.915   6.858   3.813  0.6873 -0.0114 -0.3004
   80MOL0     C10921   2.855   6.737   3.805  0.0579 -0.0629  0.6806
   80MOL0     C10922   2.711   6.699   3.795 -0.1169 -0.1685 -0.2914
   80MOL0     C10923   2.649   6.685   3.928  0.7304 -0.0091  0.5220
   80MOL0     C10924   2.517   6.620   3.902  1.1519 -0.4083 -0.0199
   80MOL0     C10925   2.429   6.589   4.025 -0.1031 -0.3045 -0.2610
   80MOL0     O10926   2.483   6.474   4.087  0.3622 -0.1380 -0.3085
   80MOL0     C10927   2.490   6.489   4.225 -0.5335 -0.2125 -0.0372
   80MOL0     C10928   2.593   6.408   4.279 -0.1373  0.4513  0.7197
   80MOL0     C10929   2.629   6.406   4.416 -0.1338  0.2974 -0.6137
   80MOL0     C10930   2.749   6.325   4.460 -0.1562 -0.7670 -1.7646
   80MOL0     C10931   2.553   6.492   4.503  0.1191 -0.8644  0.1832
   80MOL0     C10932   2.579   6.496   4.643 -0.3736 -0.2519 -0.8796
   80MOL0     O10933   2.606   6.382   4.719  0.7246  0.5244  0.0809
   80MOL0     C10934   2.624   6.391   4.853 -0.2015 -0.8612  0.2203
   80MOL0     C10935   2.732   6.334   4.911  0.0520  0.9624  0.7673
   80MOL0     C10936   2.748   6.304   5.043 -0.4792 -0.1493 -0.6118
   80MOL0     C10937   2.661   6.359   5.137  0.7573  0.6665  0.0534
   80MOL0     O10938   2.674   6.366   5.279 -0.2698  0.0676  0.2920
   80MOL0     C10939   2.776   6.283   5.350  0.4616  0.0297  0.4868
   80MOL0     C10940   2.722   6.230   5.485  0.7605  0.1615 -0.6987
   80MOL0     C10941   2.621   6.116   5.466  0.0400 -0.8119 -0.2001
   80MOL0     C10942   2.513   6.107   5.574 -0.7103 -0.1210 -0.1893
   80MOL0     C10943   2.561   6.106   5.719 -0.5442  0.1192  0.4628
   80MOL0     C10944   2.682   6.018   5.739 -0.2352 -0.4024  0.3015
   80MOL0     C10945   2.742   6.022   5.875  0.0841  1.0100  0.0315
   80MOL0     C10946   2.796   6.162   5.921 -0.9457  0.3391  0.3906
   80MOL0    Cl10947   2.934   6.214   5.813 -0.4883 -0.0899 -0.0104
   80MOL0     C10948   2.550   6.428   5.079 -0.4495  0.8572 -1.0575
   80MOL0     C10949   2.530   6.440   4.941  0.0423 -0.2418  0.7749
   80MOL0     O10950   2.566   6.608   4.692  1.4630  0.3423 -0.4766
   80MOL0     C10951   2.443   6.568   4.451  0.0989 -0.2968 -0.6899
   80MOL0     C10952   2.411   6.567   4.315 -0.0973  0.3713 -0.7326
   80MOL0     N10953   2.959   6.641   3.819  0.4058 -1.0288 -0.0201
   80MOL0     N10954   3.072   6.700   3.835  0.1242 -0.1822 -1.3109
   80MOL0     C10955   3.447   7.714   4.538 -0.5792  0.3230 -0.3376
   80MOL0     C10956   3.473   7.836   4.604  0.2457 -0.0667 -0.7059
   80MOL0     C10957   3.659   8.190   4.798 -0.4529  0.3296 -0.6310
   80MOL0     C10958   3.790   8.155   4.841 -0.0541  0.3214 -0.2223
   80MOL0     C10959   3.886   8.253   4.868 -0.1890  0.3579 -0.0947
   80MOL0     C10960   3.860   8.386   4.842  0.3259  0.5760  0.2819
   80MOL0     O10961   3.950   8.481   4.870 -0.5756 -0.0566 -0.2812
   80MOL0     C10962   3.926   8.569   4.979 -0.5728  0.6593 -0.5592
   80MOL0     C10963   3.912   8.714   4.932 -0.6513  0.2390  1.2909
   80MOL0     C10964   4.050   8.763   4.876 -0.0269 -0.8136  0.5494
   80MOL0     C10965   4.043   8.916   4.836 -0.3215  0.3372  0.7616
   80MOL0     C10966   4.043   8.996   4.950 -0.3585 -0.3254  0.4396
   80MOL0     C10967   4.034   9.068   5.042  1.4320  0.4718  0.1575
   80MOL0     C10968   3.736   8.422   4.797  0.5652 -0.6187  0.0376
   80MOL0     C10969   3.641   8.327   4.759  0.7775 -0.0091  0.4496
   80MOL0     C10970   3.501   8.376   4.706 -0.5842 -0.3765 -0.3685
   80MOL0     H10971   3.717   7.716   4.817 -0.5463 -1.1834  1.4082
   80MOL0     H10972   3.665   7.522   4.715 -1.2891  0.5479  1.9495
   80MOL0     H10973   3.368   7.518   4.355 -0.6508  0.8867 -0.3354
   80MOL0     H10974   3.293   7.505   4.514  0.4311  2.0689 -0.4686
   80MOL0     H10975   3.344   7.255   4.517  2.5705 -2.0575 -1.2394
   80MOL0     H10976   3.239   7.306   4.383 -0.7471 -1.1175  0.8737
   80MOL0     H10977   3.537   7.294   4.317  2.1518 -2.4799 -2.9038
   80MOL0     H10978   3.470   7.144   4.379 -0.7952  0.3711  1.3146
   80MOL0     H10979   3.335   7.311   4.141  2.6990  2.3451 -1.1715
   80MOL0     H10980   3.477   7.223   4.106 -3.2614  0.5429 -3.4609
   80MOL0     H10981   3.218   7.109   4.226  0.6082  2.7719  0.3890
   80MOL0     H10982   3.360   7.016   4.203 -0.8686 -0.5309  1.2695
   80MOL0     H10983   3.231   7.169   3.973  0.9225  0.0750  1.6356
   80MOL0     H10984   3.366   7.055   3.954 -1.8664  1.5598 -3.4579
   80MOL0     H10985   3.088   6.962   4.044 -1.6411  0.6470 -1.5266
   80MOL0     H10986   3.226   6.863   4.026  0.6520 -1.1234 -0.5573
   80MOL0     H10987   3.101   7.035   3.811 -1.1803  0.1903 -1.2010
   80MOL0     H10988   3.231   6.927   3.769 -0.5131 -3.2942  0.8180
   80MOL0     H10989   2.864   6.953   3.801  2.2465  1.0213  0.8130
   80MOL0     H10990   2.700   6.607   3.737  0.8079  0.8740 -2.2225
   80MOL0     H10991   2.645   6.765   3.739 -1.8018 -1.9173 -0.4615
   80MOL0     H10992   2.708   6.619   3.992  0.1758  1.2587  2.4304
   80MOL0     H10993   2.622   6.779   3.976  1.9976  0.2660  0.7484
   80MOL0     H10994   2.459   6.678   3.830 -0.8851 -0.7490  1.2467
   80MOL0     H10995   2.535   6.520   3.861  0.3081 -0.5347 -0.1170
   80MOL0     H10996   2.441   6.672   4.095  0.4086 -2.0876  1.9091
   80MOL0     H10997   2.323   6.579   4.001 -0.2131  1.7718 -0.7450
   80MOL0     H10998   2.642   6.342   4.208 -2.5351 -0.4549 -0.1767
   80MOL0     H10999   2.836   6.387   4.483 -1.1581  0.8288 -2.1877
   80MOL0     H11000   2.775   6.270   4.369 -0.1926  1.0582 -2.9133
   80MOL0     H11001   2.739   6.263   4.550  1.8690  1.4714  0.1404
   80MOL0     H11002   2.807   6.284   4.851 -2.8285 -0.5576 -1.8877
   80MOL0     H11003   2.837   6.251   5.074  0.8752  1.4860 -1.5093
   80MOL0     H11004   2.822   6.201   5.292 -1.2183 -0.3203 -0.4163
   80MOL0     H11005   2.844   6.362   5.383  0.5371  0.5301 -0.7967
   80MOL0     H11006   2.805   6.200   5.549 -0.6423  1.1117  1.7420
   80MOL0     H11007   2.680   6.322   5.528  0.5911  1.0212 -2.5682
   80MOL0     H11008   2.675   6.021   5.458 -0.0839 -0.8147 -1.1543
   80MOL0     H11009   2.563   6.131   5.374 -4.3454  2.2265  2.6510
   80MOL0     H11010   2.450   6.018   5.563 -1.6763  0.4079  0.8582
   80MOL0     H11011   2.452   6.195   5.550  0.5453  1.3093  1.5519
   80MOL0     H11012   2.572   6.210   5.753 -1.5490  0.5670 -0.5492
   80MOL0     H11013   2.477   6.070   5.779 -2.4040  2.7689 -0.3986
   80MOL0     H11014   2.768   6.062   5.688  1.3960 -0.3513  2.8916
   80MOL0     H11015   2.661   5.921   5.694 -2.3680  0.0994  0.0700
   80MOL0     H11016   2.816   5.942   5.867 -0.0786  0.3763  3.5209
   80MOL0     H11017   2.674   5.979   5.949  0.6060  1.2797  0.6772
   80MOL0     H11018   2.829   6.156   6.025 -0.6004  1.7849  0.3828
   80MOL0     H11019   2.714   6.234   5.912  0.3359  1.7664 -0.3496
   80MOL0     H11020   2.468   6.473   5.134  0.1636 -0.1179  0.7594
   80MOL0     H11021   2.441   6.487   4.901  1.1121  1.8039  0.7070
   80MOL0     H11022   2.390   6.629   4.524  2.1031 -3.2601  3.6456
   80MOL0     H11023   2.326   6.623   4.279 -1.4746 -1.6020 -0.7457
   80MOL0     H11024   3.372   7.714   4.461 -0.6888 -0.0391 -0.2308
   80MOL0     H11025   3.424   7.928   4.573  4.0651  4.0065  3.8238
   80MOL0     H11026   3.836   8.060   4.864  1.6138  0.9492 -0.7676
   80MOL0     H11027   3.984   8.220   4.901  0.0185 -2.4697 -2.9831
   80MOL0     H11028   3.838   8.535   5.034  0.9771 -3.5978 -0.4226
   80MOL0     H11029   4.013   8.571   5.044  0.3994 -0.7943 -1.7741
   80MOL0     H11030   3.880   8.778   5.016  0.2529  1.8428  0.4719
   80MOL0     H11031   3.833   8.709   4.856  0.5557  0.6389 -0.0296
   80MOL0     H11032   4.134   8.758   4.946  2.4463  0.5548 -2.1087
   80MOL0     H11033   4.075   8.700   4.790 -0.6300 -0.7727  0.3385
   80MOL0     H11034   3.954   8.926   4.773  1.1476 -0.0177 -1.4633
   80MOL0     H11035   4.128   8.943   4.773  1.2765 -0.6847  2.3710
   80MOL0     H11036   4.038   9.128   5.131 -2.5723 -1.2754  1.7795
   80MOL0     H11037   3.715   8.529   4.801  1.3963 -0.4931  2.1914
   80MOL0     H11038   3.490   8.320   4.613 -1.0461 -1.3570  0.2558
   80MOL0     H11039   3.424   8.338   4.773  0.4740  1.1001  1.8140
   80MOL0     H11040   3.488   8.484   4.693 -1.9036 -0.4991 -0.2324
   81MOL0     O11041   9.009   5.687   4.454 -0.6826  0.1071 -0.4061
   81MOL0     C11042   8.940   5.606   4.385  0.2462 -0.3125  0.0028
   81MOL0     O11043   8.974   5.477   4.365  0.2456  0.2262  0.5488
   81MOL0     C11044   9.097   5.426   4.404 -0.6230 -0.4098  0.0537
   81MOL0     C11045   9.135   5.429   4.536 -0.3878  0.1730 -0.4941
   81MOL0     C11046   9.259   5.373   4.583 -0.8762  0.4823  0.3514
   81MOL0     C11047   9.353   5.313   4.495  1.1986  0.2699  0.0288
   81MOL0     O11048   9.471   5.264   4.538 -0.6457 -0.8359  0.3862
   81MOL0     C11049   9.579   5.238   4.451 -0.3606  0.4594  0.1551
   81MOL0     C11050   9.692   5.193   4.543 -0.0064  0.3552 -0.3473
   81MOL0     C11051   9.830   5.164   4.483 -0.3782  0.6747  0.4335
   81MOL0     C11052   9.891   5.243   4.367 -1.0974  0.7382 -0.3562
   81MOL0     C11053  10.022   5.168   4.326  0.1250 -1.5161  0.2195
   81MOL0     C11054  10.094   5.272   4.238 -0.2454 -0.5646  0.0519
   81MOL0     C11055  10.235   5.223   4.199 -0.1175 -0.9980  0.1308
   81MOL0     C11056  10.229   5.214   4.046  0.6805 -0.0887  0.3229
   81MOL0     N11057  10.363   5.195   3.985  0.2435  0.0476  0.2453
   81MOL0     C11058  10.416   5.064   3.972  0.3149 -0.0639  0.9489
   81MOL0     C11059  10.548   5.090   3.942 -0.4196  0.5663  0.8547
   81MOL0     C11060  10.656   4.977   3.925  0.9770  0.2357  0.3741
   81MOL0     C11061  10.806   5.028   3.958  0.6900 -0.1001  0.8641
   81MOL0     C11062  10.904   4.915   3.927 -0.2875 -0.0600 -0.4572
   81MOL0     C11063  10.920   4.874   3.776 -0.4036 -0.1459 -0.7751
   81MOL0     O11064  10.989   4.986   3.704 -0.0538 -0.7990 -0.6569
   81MOL0     C11065  11.126   4.961   3.685  1.0521 -0.9098 -1.0603
   81MOL0     C11066  11.210   4.900   3.780 -1.0308  0.1529 -0.4899
   81MOL0     C11067  11.355   4.901   3.765  0.3083 -0.5629  0.0593
   81MOL0     C11068  11.449   4.847   3.874  0.3613  0.1797  0.7015
   81MOL0     C11069  11.412   4.969   3.654  0.5004 -0.1382 -0.1265
   81MOL0     C11070  11.562   4.992   3.626  1.0831  0.6746 -0.1814
   81MOL0     O11071  11.604   4.962   3.504 -0.2208  0.6827 -0.0215
   81MOL0     C11072  11.730   4.929   3.470 -0.0180  0.5818 -0.0769
   81MOL0     C11073  11.820   4.875   3.553  0.5509  0.2401 -0.3613
   81MOL0     C11074  11.943   4.833   3.508  0.2339  0.5696 -0.5103
   81MOL0     C11075  11.990   4.848   3.376  0.2035 -0.2005  0.3493
   81MOL0     O11076  12.117   4.802   3.348  0.2344  0.3864 -0.2259
   81MOL0     C11077  12.144   4.790   3.206 -0.2811 -0.2176 -0.0651
   81MOL0     C11078  12.251   4.691   3.195 -0.4384 -0.1987  0.1391
   81MOL0     C11079  12.311   4.680   3.045  0.7255 -1.0846 -0.6302
   81MOL0     C11080  12.424   4.575   3.047  0.3753 -0.7003  0.3227
   81MOL0     C11081  12.479   4.543   2.908 -0.1108  0.3376  0.1764
   81MOL0     C11082  12.482   4.661   2.811 -1.3047  0.5623 -0.6096
   81MOL0     C11083  12.568   4.634   2.695 -0.3478 -0.0999  0.8529
   81MOL0     C11084  12.657   4.754   2.662 -1.0381 -0.6466  0.2855
   81MOL0    Cl11085  12.551   4.896   2.631 -0.2395 -0.2447  0.3172
   81MOL0     C11086  11.894   4.916   3.279  0.4642  0.1528 -0.0108
   81MOL0     C11087  11.762   4.940   3.333  1.0616 -0.1109  0.1262
   81MOL0     O11088  11.630   5.037   3.718 -0.5313  0.2718 -0.4443
   81MOL0     C11089  11.326   5.023   3.557  0.0861  0.3882  0.8545
   81MOL0     C11090  11.190   5.014   3.567 -0.7421 -0.1991 -0.5827
   81MOL0     N11091  10.568   5.223   3.946 -0.1523 -0.5201 -0.2742
   81MOL0     N11092  10.461   5.287   3.962 -0.6604  0.1480 -0.1256
   81MOL0     C11093   9.317   5.333   4.360  0.0692  0.6806 -0.3131
   81MOL0     C11094   9.196   5.382   4.324  0.1698  0.1864  0.0798
   81MOL0     C11095   8.818   5.670   4.314 -0.9017  1.1042 -0.7346
   81MOL0     C11096   8.762   5.578   4.211  0.3091 -0.1626  0.3461
   81MOL0     C11097   8.671   5.625   4.121 -0.0464 -0.7049  0.1419
   81MOL0     C11098   8.598   5.749   4.146  1.3838 -0.7475  0.2382
   81MOL0     O11099   8.476   5.769   4.088 -0.7104  0.1458  0.2607
   81MOL0     C11100   8.379   5.658   4.115  1.1064 -0.5511  0.0906
   81MOL0     C11101   8.268   5.665   4.019  0.9688  0.0070  0.1035
   81MOL0     C11102   8.156   5.760   4.062 -0.0958 -0.0186  0.0084
   81MOL0     C11103   8.045   5.682   4.147  1.3587 -0.7433  0.4609
   81MOL0     C11104   7.956   5.786   4.205  1.0186  0.6235 -0.0835
   81MOL0     C11105   7.887   5.873   4.262 -0.1420  0.2438 -0.1220
   81MOL0     C11106   8.663   5.836   4.241 -0.0408  0.8885 -0.0164
   81MOL0     C11107   8.769   5.795   4.325  0.8251  0.3106 -0.2022
   81MOL0     C11108   8.805   5.894   4.423  0.8041 -0.1584  0.4567
   81MOL0     H11109   9.065   5.459   4.614  0.1546  0.3069 -0.0576
   81MOL0     H11110   9.280   5.372   4.689 -1.5229 -1.8913  0.5027
   81MOL0     H11111   9.605   5.331   4.399  2.5305 -1.0918 -1.3614
   81MOL0     H11112   9.548   5.166   4.374 -2.0084 -1.3862  2.3961
   81MOL0     H11113   9.704   5.271   4.619 -1.0298  0.3401 -0.1523
   81MOL0     H11114   9.654   5.112   4.606  0.7068  1.5288  1.6932
   81MOL0     H11115   9.898   5.141   4.566 -0.3728 -0.3994  0.1456
   81MOL0     H11116   9.815   5.065   4.438  1.3464  0.3804  0.4352
   81MOL0     H11117   9.824   5.266   4.283  0.5219  2.7963 -1.2005
   81MOL0     H11118   9.927   5.341   4.399  0.3901  0.4322 -0.9920
   81MOL0     H11119  10.010   5.076   4.268 -0.3968  0.0729 -2.3112
   81MOL0     H11120  10.072   5.152   4.422 -3.1150  0.7761  2.5052
   81MOL0     H11121  10.029   5.300   4.155 -0.9806  1.4545  1.2410
   81MOL0     H11122  10.106   5.365   4.293 -1.6364 -0.4486  0.2080
   81MOL0     H11123  10.270   5.131   4.247 -0.7810 -2.1926 -1.5828
   81MOL0     H11124  10.313   5.297   4.222 -2.7863  1.2732  2.7331
   81MOL0     H11125  10.155   5.146   4.003 -0.0258  1.2015 -0.5648
   81MOL0     H11126  10.198   5.315   4.016 -0.1754 -0.5630 -0.4534
   81MOL0     H11127  10.368   4.968   3.986  0.4661 -0.2803  0.0471
   81MOL0     H11128  10.652   4.938   3.823  3.4799 -0.4552  0.4940
   81MOL0     H11129  10.628   4.899   3.997  0.4252 -0.7437 -0.8713
   81MOL0     H11130  10.831   5.126   3.916  1.3485 -0.7379 -0.2667
   81MOL0     H11131  10.801   5.062   4.062 -3.6114  3.6888 -0.2377
   81MOL0     H11132  10.997   4.946   3.975 -1.0215  0.6482  0.5786
   81MOL0     H11133  10.878   4.822   3.977  2.4792  0.4435  2.2260
   81MOL0     H11134  10.982   4.784   3.773 -0.6815 -0.3533 -0.3373
   81MOL0     H11135  10.826   4.861   3.722  0.3393  2.2226 -2.8920
   81MOL0     H11136  11.174   4.874   3.879  1.3792  0.5273  0.5514
   81MOL0     H11137  11.553   4.830   3.845  1.2030  1.9939  2.4275
   81MOL0     H11138  11.412   4.749   3.906 -0.5150 -0.6877 -2.6006
   81MOL0     H11139  11.453   4.921   3.955 -1.9006  3.0959 -1.6220
   81MOL0     H11140  11.789   4.846   3.653  2.4867  1.2618  0.5816
   81MOL0     H11141  12.012   4.789   3.579  1.6499  1.3023 -1.3821
   81MOL0     H11142  12.062   4.763   3.139  1.0116 -0.4260 -1.6270
   81MOL0     H11143  12.185   4.886   3.172  0.2022 -0.9971 -1.7696
   81MOL0     H11144  12.342   4.722   3.249 -0.7296  2.2645 -0.6606
   81MOL0     H11145  12.211   4.601   3.243 -1.2307 -1.1308 -2.1490
   81MOL0     H11146  12.338   4.778   3.004  1.7234 -0.7156  0.8094
   81MOL0     H11147  12.223   4.661   2.983 -1.2603  1.7786  1.0794
   81MOL0     H11148  12.410   4.479   3.098 -0.8875 -1.4200 -1.3074
   81MOL0     H11149  12.505   4.622   3.104 -0.1819 -0.7869  1.2205
   81MOL0     H11150  12.582   4.506   2.920 -0.7147 -1.6715 -0.5434
   81MOL0     H11151  12.419   4.467   2.858 -0.2071 -0.1884  1.0599
   81MOL0     H11152  12.530   4.740   2.870 -1.5953 -0.6442  1.3298
   81MOL0     H11153  12.379   4.680   2.777 -0.6159  2.3574 -1.8204
   81MOL0     H11154  12.498   4.629   2.611  0.4749  2.8205 -0.1628
   81MOL0     H11155  12.623   4.540   2.701  1.4174  0.5998 -2.1609
   81MOL0     H11156  12.719   4.737   2.573  0.4367  6.4168 -0.6165
   81MOL0     H11157  12.730   4.768   2.742 -0.9648 -1.7411  0.4242
   81MOL0     H11158  11.909   4.924   3.172 -1.5196  0.3272 -0.3155
   81MOL0     H11159  11.677   4.982   3.281  0.1145  0.9446  2.4138
   81MOL0     H11160  11.367   5.066   3.466  0.3862 -1.5177  0.0336
   81MOL0     H11161  11.121   5.061   3.497 -1.0042 -0.2056 -0.3285
   81MOL0     H11162   9.376   5.293   4.278 -0.4340  0.3676 -0.5295
   81MOL0     H11163   9.170   5.393   4.219 -0.0169  0.1462  0.1223
   81MOL0     H11164   8.798   5.478   4.189 -0.6801  0.1481 -3.5310
   81MOL0     H11165   8.646   5.552   4.044  0.7179  0.8712 -1.6893
   81MOL0     H11166   8.424   5.559   4.104 -0.0284 -0.8644 -2.4037
   81MOL0     H11167   8.339   5.668   4.217  1.8250 -0.2411  0.3485
   81MOL0     H11168   8.229   5.567   3.989 -1.1478  0.2337  1.8367
   81MOL0     H11169   8.319   5.710   3.933  1.6290  1.0655  1.0231
   81MOL0     H11170   8.199   5.846   4.113  1.1129  0.9473 -2.4893
   81MOL0     H11171   8.114   5.794   3.967 -3.9977 -0.6625  1.3201
   81MOL0     H11172   8.089   5.636   4.236  0.7049  0.9486  1.7087
   81MOL0     H11173   7.982   5.618   4.084 -2.2545  3.1195 -0.3053
   81MOL0     H11174   7.819   5.938   4.314  0.1559 -0.8442  1.7122
   81MOL0     H11175   8.625   5.937   4.247 -1.0969  0.4599  0.7256
   81MOL0     H11176   8.809   5.848   4.522  0.9612 -2.8944 -0.7192
   81MOL0     H11177   8.903   5.931   4.391 -0.0981  0.1225 -2.2147
   81MOL0     H11178   8.747   5.987   4.425  2.9685  1.2611  0.1259
   82MOL0     O11179   7.898  11.031   3.394 -0.0018 -0.0996  0.4031
   82MOL0     C11180   7.926  10.973   3.492 -0.2080  0.1048  0.4296
   82MOL0     O11181   7.844  10.887   3.564  0.2555 -1.1835 -0.7097
   82MOL0     C11182   7.702  10.879   3.542 -0.3075  0.4975 -0.0055
   82MOL0     C11183   7.630  10.765   3.587 -0.8833 -0.7914 -0.9937
   82MOL0     C11184   7.496  10.750   3.581  0.2596  0.8951 -0.4359
   82MOL0     C11185   7.425  10.843   3.519  1.0485 -0.1302  0.4231
   82MOL0     O11186   7.283  10.844   3.515 -0.6419  0.0457  0.8506
   82MOL0     C11187   7.228  10.962   3.577 -0.4467 -0.6622 -0.6802
   82MOL0     C11188   7.086  10.933   3.625 -0.8213  0.7247 -0.3290
   82MOL0     C11189   7.026  11.040   3.721 -0.8104 -0.0776  0.3817
   82MOL0     C11190   7.092  11.178   3.743 -1.3002 -0.5861  0.1590
   82MOL0     C11191   7.029  11.267   3.863 -0.4486 -0.4892 -0.0353
   82MOL0     C11192   7.075  11.214   4.005 -0.3330  0.3571 -0.2405
   82MOL0     C11193   7.222  11.168   4.023 -0.4528 -0.1896 -0.7224
   82MOL0     C11194   7.306  11.288   3.993  0.8927  0.0573  0.3763
   82MOL0     N11195   7.445  11.241   4.000  0.2259 -1.0624 -0.4057
   82MOL0     C11196   7.533  11.245   3.893  0.0133 -0.5106 -0.3056
   82MOL0     C11197   7.650  11.194   3.941 -0.3099 -0.3098 -0.6872
   82MOL0     C11198   7.765  11.189   3.842  0.3218 -0.1841  0.4194
   82MOL0     C11199   7.895  11.134   3.889 -0.1531 -1.0625  0.7618
   82MOL0     C11200   7.888  10.997   3.945 -0.3707  0.4012 -0.7055
   82MOL0     C11201   8.012  10.945   4.005  0.5349 -0.5513 -0.1107
   82MOL0     O11202   7.980  10.811   4.041 -0.2218 -0.1498 -0.1706
   82MOL0     C11203   8.061  10.727   3.972  0.8730  0.5299 -0.3264
   82MOL0     C11204   8.006  10.653   3.870  0.0772  1.3025 -0.3956
   82MOL0     C11205   8.084  10.567   3.790 -0.6056  0.6376 -0.1658
   82MOL0     C11206   8.009  10.500   3.678 -0.0984 -0.1499  0.3143
   82MOL0     C11207   8.229  10.562   3.808 -0.4472  0.0086  1.0584
   82MOL0     C11208   8.308  10.476   3.722  0.5109  0.3851  0.2593
   82MOL0     O11209   8.397  10.393   3.787  0.4147 -0.6602  0.1130
   82MOL0     C11210   8.469  10.315   3.699 -0.3433  0.0202 -1.1186
   82MOL0     C11211   8.592  10.357   3.661  0.0915 -1.0059  0.9761
   82MOL0     C11212   8.670  10.285   3.576  0.0356  0.2028  1.1809
   82MOL0     C11213   8.625  10.151   3.540 -0.0395 -0.2381 -0.8167
   82MOL0     O11214   8.720  10.074   3.472  0.0573 -0.2755  0.1669
   82MOL0     C11215   8.739   9.940   3.508 -0.1723  1.1625 -0.2925
   82MOL0     C11216   8.765   9.859   3.379 -0.4094  0.8033  0.4432
   82MOL0     C11217   8.794   9.710   3.420 -0.0940  0.3164 -0.2970
   82MOL0     C11218   8.757   9.621   3.302 -0.3742  0.2548 -0.3439
   82MOL0     C11219   8.822   9.482   3.306 -1.0472  0.1509 -0.0303
   82MOL0     C11220   8.984   9.486   3.311 -0.0033  0.2085  0.0630
   82MOL0     C11221   9.049   9.351   3.277  0.9594  1.0823  0.1269
   82MOL0     C11222   9.194   9.328   3.316  0.0665  0.0090  0.2921
   82MOL0    Cl11223   9.254   9.154   3.295  0.3011 -0.2545 -0.1471
   82MOL0     C11224   8.497  10.103   3.584 -0.2522  0.2280 -1.5294
   82MOL0     C11225   8.415  10.191   3.654 -0.1944 -0.3465 -0.6177
   82MOL0     O11226   8.292  10.477   3.601 -0.4005  0.1377  0.7386
   82MOL0     C11227   8.283  10.642   3.913  0.0784  0.5200  0.2841
   82MOL0     C11228   8.202  10.727   3.982  1.7362  0.1826  0.1912
   82MOL0     N11229   7.639  11.183   4.083  0.1386 -0.0670  0.5812
   82MOL0     N11230   7.516  11.215   4.113  0.1124 -0.2017 -0.3399
   82MOL0     C11231   7.487  10.947   3.460  0.1257 -1.3320  0.2979
   82MOL0     C11232   7.623  10.980   3.481  0.7267 -0.8356  0.5412
   82MOL0     C11233   8.067  10.990   3.535 -0.0546  0.6444  1.4777
   82MOL0     C11234   8.139  10.880   3.575  0.0074  0.3887  0.5947
   82MOL0     C11235   8.263  10.882   3.627 -0.1879 -0.6288 -0.9793
   82MOL0     C11236   8.327  11.013   3.642  0.4624  0.0031  0.2898
   82MOL0     O11237   8.455  11.046   3.688 -0.5882 -0.4026 -0.0306
   82MOL0     C11238   8.527  10.941   3.753  1.2353 -0.3892  0.5575
   82MOL0     C11239   8.660  10.992   3.807  0.2850 -0.2738  0.4335
   82MOL0     C11240   8.617  11.100   3.908  0.2277  0.2914  0.2964
   82MOL0     C11241   8.744  11.164   3.961  0.1700  0.3910 -0.4634
   82MOL0     C11242   8.799  11.262   3.869 -1.0414 -0.6463  0.1011
   82MOL0     C11243   8.856  11.352   3.806  0.5286  0.8151  0.8141
   82MOL0     C11244   8.260  11.118   3.578  0.5474  0.4258 -0.5307
   82MOL0     C11245   8.136  11.111   3.533  0.4008 -0.4346 -0.1692
   82MOL0     C11246   8.082  11.243   3.488 -0.9382 -0.9627  0.3683
   82MOL0     H11247   7.685  10.689   3.641  2.0090  1.3637 -0.6057
   82MOL0     H11248   7.457  10.661   3.630  3.4043 -0.1898  0.3429
   82MOL0     H11249   7.239  11.055   3.521 -0.2836  1.0361  2.0060
   82MOL0     H11250   7.277  10.974   3.674 -0.8717 -0.7146 -0.4573
   82MOL0     H11251   7.016  10.939   3.541  0.8220 -3.1426 -2.2248
   82MOL0     H11252   7.073  10.838   3.677 -2.1934  1.1782  0.2061
   82MOL0     H11253   6.923  11.049   3.685 -0.1021 -0.0300 -1.7937
   82MOL0     H11254   7.020  10.990   3.818 -2.0297  1.8403  1.3746
   82MOL0     H11255   7.199  11.173   3.761 -1.0026  0.5073 -1.1269
   82MOL0     H11256   7.068  11.232   3.651 -2.2478  0.8924  1.2281
   82MOL0     H11257   6.922  11.288   3.869 -0.1846  0.5660  1.4668
   82MOL0     H11258   7.076  11.363   3.841 -0.3126 -0.8981 -1.7057
   82MOL0     H11259   7.061  11.300   4.070  1.3380  0.5088 -0.0416
   82MOL0     H11260   7.023  11.125   4.041 -0.1541  0.1397 -0.5082
   82MOL0     H11261   7.257  11.094   3.950  0.4360 -1.4091  0.8840
   82MOL0     H11262   7.241  11.130   4.124 -0.5301 -0.4056 -0.7871
   82MOL0     H11263   7.293  11.326   3.891 -0.9314  0.1409  0.6094
   82MOL0     H11264   7.275  11.362   4.067 -1.5173 -1.0419  0.5831
   82MOL0     H11265   7.510  11.283   3.794 -0.6255 -0.7881 -0.2660
   82MOL0     H11266   7.772  11.295   3.818  1.1925  0.2172  2.2872
   82MOL0     H11267   7.745  11.132   3.750 -0.3067  1.0843 -0.2532
   82MOL0     H11268   7.973  11.153   3.816  0.5968  0.7493  1.9572
   82MOL0     H11269   7.918  11.205   3.969  4.3824  0.4749 -1.5598
   82MOL0     H11270   7.811  10.982   4.022 -1.6997  0.1254 -2.0612
   82MOL0     H11271   7.869  10.923   3.867  0.2894  0.6363 -1.0912
   82MOL0     H11272   8.096  10.953   3.936  1.7336 -2.0996  1.1187
   82MOL0     H11273   8.039  11.013   4.087  0.5507  2.1072 -2.1595
   82MOL0     H11274   7.899  10.659   3.852 -0.2622  0.2054  1.1268
   82MOL0     H11275   7.903  10.529   3.681  0.1482  1.4037 -2.7377
   82MOL0     H11276   8.014  10.392   3.670  0.0190 -0.2320  1.3402
   82MOL0     H11277   8.039  10.542   3.582  2.5443  0.2484  1.2447
   82MOL0     H11278   8.625  10.451   3.704  0.3092  0.3699 -1.9812
   82MOL0     H11279   8.772  10.311   3.548  0.0672  0.0275  1.1355
   82MOL0     H11280   8.829   9.938   3.570  0.8240 -0.8909 -1.7097
   82MOL0     H11281   8.667   9.890   3.572  1.4514  0.7118  1.2535
   82MOL0     H11282   8.679   9.873   3.314 -1.1694  1.5084  1.5534
   82MOL0     H11283   8.857   9.893   3.329 -1.5088  0.7473 -1.7069
   82MOL0     H11284   8.738   9.666   3.503  1.7919 -2.1586 -0.2180
   82MOL0     H11285   8.896   9.696   3.457 -0.1233  1.8576  0.4510
   82MOL0     H11286   8.790   9.668   3.209  0.1142  0.4997 -0.0516
   82MOL0     H11287   8.648   9.614   3.290 -0.3588 -0.0493 -0.3166
   82MOL0     H11288   8.789   9.426   3.394  1.3304 -0.8497  0.2973
   82MOL0     H11289   8.800   9.437   3.209  1.3612  0.1578 -0.6494
   82MOL0     H11290   9.025   9.515   3.408 -2.0755  1.1177  0.7232
   82MOL0     H11291   9.019   9.552   3.231  1.3678 -2.0424 -1.3323
   82MOL0     H11292   9.044   9.330   3.169  1.9075 -2.1104  0.5901
   82MOL0     H11293   9.000   9.269   3.330  0.0337  0.5585 -1.4767
   82MOL0     H11294   9.198   9.359   3.421  4.3827  0.8998  0.0617
   82MOL0     H11295   9.261   9.387   3.252 -0.3321  1.2246  0.9739
   82MOL0     H11296   8.465  10.003   3.557  0.5762 -0.6708  0.5601
   82MOL0     H11297   8.316  10.165   3.688 -0.6816  1.3634 -0.6471
   82MOL0     H11298   8.386  10.642   3.948  0.4588 -1.8693 -0.5986
   82MOL0     H11299   8.240  10.784   4.066 -0.2258  0.4088  0.9843
   82MOL0     H11300   7.433  11.029   3.414  1.2070 -1.2904 -0.9408
   82MOL0     H11301   7.668  11.073   3.448  1.6678 -1.9191 -1.4297
   82MOL0     H11302   8.086  10.786   3.569  0.6486  0.0261  0.5007
   82MOL0     H11303   8.315  10.793   3.661 -0.1290 -1.5015 -3.1796
   82MOL0     H11304   8.464  10.912   3.838  0.5413  1.0319  0.5510
   82MOL0     H11305   8.541  10.853   3.689 -2.2874 -0.6155 -0.0922
   82MOL0     H11306   8.730  11.032   3.734 -0.1255  0.1921  0.2888
   82MOL0     H11307   8.724  10.921   3.860  2.0843  0.5426 -0.5575
   82MOL0     H11308   8.555  11.178   3.863  1.0218  0.7611 -0.0039
   82MOL0     H11309   8.558  11.064   3.993  0.2563 -2.2903 -0.6769
   82MOL0     H11310   8.818  11.085   3.977 -1.6753 -0.8042  3.1622
   82MOL0     H11311   8.745  11.190   4.067  1.5234  0.5498 -0.5007
   82MOL0     H11312   8.909  11.423   3.747  0.4444  1.2932  1.3096
   82MOL0     H11313   8.309  11.215   3.573 -0.0708  0.6854 -2.0583
   82MOL0     H11314   7.978  11.261   3.516 -0.8014  3.2950 -1.0586
   82MOL0     H11315   8.139  11.328   3.529 -2.3702  2.7668 -4.3740
   82MOL0     H11316   8.085  11.253   3.379 -0.0203  0.5863  0.4952
   83MOL0     O11317   0.660  10.930   9.071 -0.1349  0.0894  0.3078
   83MOL0     C11318   0.632  10.920   9.187 -0.5998 -0.3394 -0.8014
   83MOL0     O11319   0.664  11.013   9.280  0.0995 -0.2060 -0.3569
   83MOL0     C11320   0.715  11.142   9.236 -0.7387 -0.0096 -0.4404
   83MOL0     C11321   0.835  11.177   9.296 -0.4061 -0.2072 -0.6504
   83MOL0     C11322   0.896  11.300   9.275 -0.0237 -0.0420  0.5539
   83MOL0     C11323   0.848  11.391   9.181  0.0930  0.8313 -0.7732
   83MOL0     O11324   0.915  11.502   9.163 -0.5480  0.1617  0.8933
   83MOL0     C11325   0.829  11.608   9.093 -0.5526 -0.5734 -0.1114
   83MOL0     C11326   0.885  11.746   9.121  0.3634 -0.9195 -0.6092
   83MOL0     C11327   0.793  11.854   9.066 -0.2789 -0.4930  1.2597
   83MOL0     C11328   0.867  11.985   9.074  0.3038  0.3082  0.6093
   83MOL0     C11329   0.803  12.113   9.019 -0.5274 -0.3581 -0.7597
   83MOL0     C11330   0.896  12.239   9.049  0.0231  0.7767 -0.3284
   83MOL0     C11331   0.816  12.361   9.009  1.1341 -0.2312  0.1059
   83MOL0     C11332   0.902  12.493   9.009 -0.3427  0.3725 -0.4349
   83MOL0     N11333   0.819  12.611   9.006  0.6618  0.1902  0.4288
   83MOL0     C11334   0.737  12.647   8.901 -0.2321 -0.1861  0.9620
   83MOL0     C11335   0.690  12.765   8.939 -0.2746  0.3713 -0.0183
   83MOL0     C11336   0.592  12.844   8.865 -0.2320  0.6497 -0.0562
   83MOL0     C11337   0.639  12.989   8.861  0.2346 -0.5604  0.3295
   83MOL0     C11338   0.559  13.062   8.762  0.4372 -0.5541 -0.0515
   83MOL0     C11339   0.584  13.213   8.752 -0.0652 -0.2256  0.3508
   83MOL0     O11340   0.716  13.243   8.757 -0.4356  0.3346 -0.0538
   83MOL0     C11341   0.766  13.351   8.821 -0.1260 -0.7671  0.4522
   83MOL0     C11342   0.734  13.389   8.956  0.4594 -0.6967  0.7213
   83MOL0     C11343   0.794  13.496   9.024 -0.1730 -0.5662  0.4858
   83MOL0     C11344   0.754  13.522   9.168  0.8888  1.2219  0.2591
   83MOL0     C11345   0.892  13.572   8.953 -0.4390  0.5129  0.1015
   83MOL0     C11346   0.983  13.685   9.014  0.0292  0.0637 -0.3919
   83MOL0     O11347   1.040  13.767   8.935 -0.1215 -0.2264 -0.0590
   83MOL0     C11348   1.084  13.883   8.982 -0.0068 -0.2356  0.3456
   83MOL0     C11349   1.206  13.930   8.937  0.3532 -0.6725  0.3448
   83MOL0     C11350   1.245  14.064   8.948  0.8146  0.9320 -0.8221
   83MOL0     C11351   1.163  14.163   9.008  0.7428 -0.8654  0.0912
   83MOL0     O11352   1.204  14.289   8.999  0.5510  0.1727 -0.3300
   83MOL0     C11353   1.326  14.338   9.047  0.5766 -0.2623  0.3988
   83MOL0     C11354   1.328  14.488   9.033  0.0114  0.2729 -0.5496
   83MOL0     C11355   1.336  14.549   8.893 -0.0661  0.3105 -0.0423
   83MOL0     C11356   1.435  14.494   8.800 -0.2400  0.5275  0.0997
   83MOL0     C11357   1.429  14.559   8.662  0.4088  0.6294 -0.1893
   83MOL0     C11358   1.483  14.704   8.664  1.1344  0.1843 -0.1637
   83MOL0     C11359   1.526  14.733   8.512 -0.0961 -0.5669 -1.2358
   83MOL0     C11360   1.547  14.885   8.480 -0.0242  0.1376  0.3872
   83MOL0    Cl11361   1.659  14.887   8.340  0.2329 -0.0681  0.3770
   83MOL0     C11362   1.039  14.113   9.065 -0.0518  0.1214 -0.6997
   83MOL0     C11363   1.005  13.975   9.053  0.3600  0.2710 -0.7431
   83MOL0     O11364   0.985  13.697   9.135  0.2887 -0.2891  0.1075
   83MOL0     C11365   0.921  13.540   8.821  0.5695  0.0563  0.9239
   83MOL0     C11366   0.852  13.432   8.755  0.1034  0.4761  0.1075
   83MOL0     N11367   0.736  12.787   9.071  0.6045  0.2573 -0.0201
   83MOL0     N11368   0.801  12.686   9.119 -0.5545  1.0926 -0.8282
   83MOL0     C11369   0.736  11.350   9.106 -0.0991  0.0381  0.5705
   83MOL0     C11370   0.667  11.235   9.140 -0.9596  0.1507  0.5173
   83MOL0     C11371   0.566  10.798   9.245  0.6550 -0.4799  0.1320
   83MOL0     C11372   0.559  10.689   9.151 -1.1372  0.8756 -0.0485
   83MOL0     C11373   0.486  10.575   9.183 -0.4699  0.8751  0.2652
   83MOL0     C11374   0.429  10.563   9.307 -0.8933 -0.8615 -0.3765
   83MOL0     O11375   0.363  10.441   9.335  0.5381 -0.5732 -0.9394
   83MOL0     C11376   0.301  10.417   9.464 -0.0143  0.1581 -0.0903
   83MOL0     C11377   0.233  10.280   9.451  0.3736 -0.2057 -0.1326
   83MOL0     C11378   0.323  10.167   9.411 -1.2256 -0.3851  0.1617
   83MOL0     C11379   0.281  10.104   9.289 -0.5717 -0.1580 -1.3685
   83MOL0     C11380   0.376  10.002   9.240 -0.5308  0.4293  0.2108
   83MOL0     C11381   0.444   9.913   9.202  0.1925  0.2506  0.2722
   83MOL0     C11382   0.438  10.670   9.397 -0.7585 -1.6717 -0.7876
   83MOL0     C11383   0.495  10.792   9.369  0.2723  0.3554 -0.4093
   83MOL0     C11384   0.469  10.906   9.464 -0.3375  0.2531 -0.1796
   83MOL0     H11385   0.873  11.120   9.381  0.3200  0.1212 -0.7525
   83MOL0     H11386   0.979  11.325   9.341  1.3758 -0.6072 -0.9281
   83MOL0     H11387   0.724  11.604   9.123 -0.2953 -2.5642  0.7211
   83MOL0     H11388   0.831  11.598   8.984 -0.0390  1.0218 -0.2724
   83MOL0     H11389   0.895  11.757   9.229 -0.5006  4.3816 -0.7757
   83MOL0     H11390   0.983  11.753   9.074 -0.1113  2.6477 -1.3997
   83MOL0     H11391   0.770  11.843   8.959  1.3245  1.9840  0.5801
   83MOL0     H11392   0.700  11.852   9.123 -1.8137 -0.4540 -1.0921
   83MOL0     H11393   0.900  12.001   9.177  0.7213  0.8424  0.3935
   83MOL0     H11394   0.961  11.971   9.021 -0.7670 -0.5604 -1.1292
   83MOL0     H11395   0.702  12.111   9.060 -0.3821 -1.9452 -0.3972
   83MOL0     H11396   0.792  12.115   8.910 -1.3324  0.5831 -0.6763
   83MOL0     H11397   0.937  12.247   9.150 -0.0356 -0.4529 -0.1834
   83MOL0     H11398   0.986  12.230   8.988  0.8952  2.4441  0.6675
   83MOL0     H11399   0.729  12.370   9.075  0.9919 -1.2422  0.0698
   83MOL0     H11400   0.781  12.347   8.906  1.6918 -0.0896 -0.1059
   83MOL0     H11401   0.962  12.488   9.100 -1.0630 -1.4450 -0.0277
   83MOL0     H11402   0.969  12.482   8.923 -1.3756 -1.1633 -1.0904
   83MOL0     H11403   0.727  12.595   8.806  4.0541 -0.5831  0.5262
   83MOL0     H11404   0.497  12.829   8.917 -0.6673  2.3443 -0.3027
   83MOL0     H11405   0.588  12.805   8.763 -2.8597 -2.0595  0.9497
   83MOL0     H11406   0.617  13.033   8.959  0.3429  3.7256 -1.3303
   83MOL0     H11407   0.746  13.007   8.845 -0.6981  2.8698 -3.8807
   83MOL0     H11408   0.586  13.025   8.663  2.2785  0.9120 -0.1622
   83MOL0     H11409   0.451  13.050   8.778  0.4349 -2.6698 -1.2796
   83MOL0     H11410   0.523  13.256   8.671 -0.9099 -2.0516 -0.0423
   83MOL0     H11411   0.536  13.264   8.836 -0.3772 -0.1769  0.1477
   83MOL0     H11412   0.669  13.317   9.004 -2.2759  1.0838 -0.1091
   83MOL0     H11413   0.728  13.628   9.180 -1.3071  0.7446  0.1742
   83MOL0     H11414   0.832  13.496   9.241 -0.3551  1.4805  1.7353
   83MOL0     H11415   0.669  13.458   9.194  0.2758  0.9806 -2.0979
   83MOL0     H11416   1.261  13.865   8.869  1.1570  0.4955 -0.1532
   83MOL0     H11417   1.343  14.094   8.912  1.0912  1.9546  0.6967
   83MOL0     H11418   1.343  14.289   9.143 -3.8627 -3.4679 -0.1749
   83MOL0     H11419   1.418  14.315   8.992  1.6370  1.8000  1.1880
   83MOL0     H11420   1.238  14.530   9.080  0.2130  1.9487 -1.5943
   83MOL0     H11421   1.413  14.530   9.088 -1.0922  3.4711 -1.1181
   83MOL0     H11422   1.349  14.657   8.905 -1.7379  0.7720 -1.8214
   83MOL0     H11423   1.240  14.533   8.844  1.7587 -1.7480 -3.3093
   83MOL0     H11424   1.421  14.385   8.796  1.6723  0.1745  1.6170
   83MOL0     H11425   1.534  14.515   8.841  0.8051 -2.1722 -0.7810
   83MOL0     H11426   1.474  14.494   8.587  0.6857  2.1528 -1.4108
   83MOL0     H11427   1.325  14.546   8.631 -0.0701 -2.7182  2.3026
   83MOL0     H11428   1.571  14.719   8.728 -1.2805  3.4731  2.7728
   83MOL0     H11429   1.402  14.775   8.684  0.3025  0.7142 -4.4720
   83MOL0     H11430   1.467  14.673   8.443 -0.7050 -2.1867  0.6207
   83MOL0     H11431   1.630  14.700   8.500  0.2717  0.8553 -2.2382
   83MOL0     H11432   1.605  14.944   8.551  1.9122 -0.9511 -0.2235
   83MOL0     H11433   1.449  14.927   8.454 -0.6892 -1.6499 -0.1621
   83MOL0     H11434   0.967  14.182   9.107 -2.6267 -1.2115 -2.6390
   83MOL0     H11435   0.902  13.954   9.081  1.5965  0.4576  4.9865
   83MOL0     H11436   0.997  13.586   8.758  1.8494 -1.8991  0.9575
   83MOL0     H11437   0.881  13.402   8.655  0.4739 -0.1763  0.4073
   83MOL0     H11438   0.705  11.407   9.019  2.0892 -2.3207 -1.9560
   83MOL0     H11439   0.574  11.203   9.096 -1.4060  0.5874  1.1266
   83MOL0     H11440   0.611  10.701   9.057  2.6710 -0.3973  1.7123
   83MOL0     H11441   0.481  10.492   9.114  1.6874  1.0213 -0.1394
   83MOL0     H11442   0.371  10.420   9.549  3.0176  0.9792 -2.4235
   83MOL0     H11443   0.222  10.489   9.489 -0.8389 -1.7037  3.1410
   83MOL0     H11444   0.157  10.293   9.373 -1.2788 -3.7580  0.6776
   83MOL0     H11445   0.165  10.262   9.534  1.3233 -0.1851  0.6567
   83MOL0     H11446   0.424  10.207   9.400 -0.0884 -3.1064 -0.1228
   83MOL0     H11447   0.312  10.104   9.501  1.3179 -2.4746 -0.8825
   83MOL0     H11448   0.276  10.177   9.208  2.5661  1.4249 -0.3172
   83MOL0     H11449   0.189  10.048   9.309 -0.0442 -0.6154 -0.1304
   83MOL0     H11450   0.501   9.842   9.146  0.3922  1.8770 -1.6895
   83MOL0     H11451   0.373  10.658   9.483 -0.8994  0.1715 -0.5954
   83MOL0     H11452   0.544  10.904   9.544  2.9249  2.1319 -2.8874
   83MOL0     H11453   0.464  11.006   9.419  0.9212  1.6694  2.5443
   83MOL0     H11454   0.372  10.889   9.510  0.1959 -1.4017  0.4174
   84MOL0     O11455   0.685   5.508   2.756 -0.1873 -0.2648  0.3548
   84MOL0     C11456   0.757   5.588   2.812 -0.5395 -0.8286  0.2189
   84MOL0     O11457   0.719   5.712   2.856 -0.0178 -0.1040 -0.3254
   84MOL0     C11458   0.589   5.735   2.843  0.8043  0.1081 -0.5209
   84MOL0     C11459   0.542   5.774   2.721  0.3650 -0.8909  0.7490
   84MOL0     C11460   0.407   5.822   2.705  0.2575  0.5586  0.1129
   84MOL0     C11461   0.319   5.822   2.819 -0.1924  0.1337 -0.7893
   84MOL0     O11462   0.190   5.865   2.821  0.5541 -0.6437  0.4525
   84MOL0     C11463   0.139   5.952   2.712  0.1420  0.3626 -0.4108
   84MOL0     C11464   0.040   6.057   2.774 -0.7784 -0.1861 -0.1616
   84MOL0     C11465   0.127   6.169   2.839  1.0769 -0.6339  0.0741
   84MOL0     C11466   0.023   6.257   2.918  0.5308 -0.6839 -0.2901
   84MOL0     C11467   0.101   6.343   3.026 -0.1297 -0.1407  1.4413
   84MOL0     C11468   0.145   6.262   3.145  0.3967 -0.9155 -0.4461
   84MOL0     C11469   0.244   6.354   3.225 -0.2774  0.1830 -0.0356
   84MOL0     C11470   0.174   6.462   3.317 -0.5232  0.7005 -0.4345
   84MOL0     N11471   0.164   6.402   3.447  0.0111  0.4151 -0.5543
   84MOL0     C11472   0.253   6.447   3.543  0.2181 -0.8780 -0.3860
   84MOL0     C11473   0.187   6.406   3.658  0.3045 -0.1419  0.3880
   84MOL0     C11474   0.212   6.445   3.806 -0.6048 -0.0486 -0.4391
   84MOL0     C11475   0.234   6.314   3.889 -0.7270  0.4715  0.6958
   84MOL0     C11476   0.318   6.334   4.018  0.7101 -0.0408 -0.5789
   84MOL0     C11477   0.319   6.213   4.107  0.5563 -0.2224  0.3854
   84MOL0     O11478   0.190   6.184   4.170 -0.8109  0.5846  0.0900
   84MOL0     C11479   0.175   6.074   4.253 -0.8485  0.0560  0.1062
   84MOL0     C11480   0.055   6.067   4.301 -0.0391  1.1132 -0.2418
   84MOL0     C11481   0.008   5.965   4.376 -0.8624  0.4487 -0.2982
   84MOL0     C11482  -0.128   5.983   4.424  0.2106  0.1007  0.5538
   84MOL0     C11483   0.098   5.849   4.402 -0.0843 -0.6463 -0.3660
   84MOL0     C11484   0.062   5.737   4.497 -0.3947  0.1502 -0.1409
   84MOL0     O11485  -0.066   5.737   4.553 -0.6625 -0.3488 -0.1353
   84MOL0     C11486  -0.087   5.649   4.661  0.9046 -0.4838  0.4629
   84MOL0     C11487  -0.017   5.672   4.779 -0.0630  0.4706  1.2205
   84MOL0     C11488  -0.031   5.578   4.877 -0.9535  0.3081 -0.2053
   84MOL0     C11489  -0.114   5.465   4.870 -0.4435 -0.5160 -0.1076
   84MOL0     O11490  -0.119   5.389   4.983 -0.0579  0.1677  0.2426
   84MOL0     C11491  -0.168   5.255   4.993  0.0107  0.6841 -0.4086
   84MOL0     C11492  -0.131   5.176   5.126 -0.7027 -0.2548 -0.1609
   84MOL0     C11493  -0.203   5.220   5.254  0.9643  0.3140  0.3114
   84MOL0     C11494  -0.194   5.103   5.344 -0.6333 -0.1432 -0.2206
   84MOL0     C11495  -0.251   5.127   5.486  0.1219  0.0976  0.8955
   84MOL0     C11496  -0.377   5.056   5.501  0.6128 -0.2098  1.5277
   84MOL0     C11497  -0.427   5.077   5.643 -1.1708 -0.5864  0.8265
   84MOL0     C11498  -0.344   5.011   5.758  0.4505  0.1147 -0.3748
   84MOL0    Cl11499  -0.427   5.041   5.912  0.3525 -0.0645 -0.4650
   84MOL0     C11500  -0.181   5.441   4.757  0.3655 -0.5169  0.6170
   84MOL0     C11501  -0.183   5.541   4.651 -0.6919  0.3645 -0.1611
   84MOL0     O11502   0.147   5.652   4.521  0.3967  0.4736  0.2896
   84MOL0     C11503   0.227   5.853   4.357  0.2394  0.1851  0.2121
   84MOL0     C11504   0.262   5.963   4.275 -0.3061 -0.1814 -0.3554
   84MOL0     N11505   0.074   6.338   3.629  0.5049  0.9916 -0.0362
   84MOL0     N11506   0.060   6.339   3.503  0.2521 -0.1140  0.0714
   84MOL0     C11507   0.370   5.783   2.942 -0.1057  0.2113  0.5030
   84MOL0     C11508   0.496   5.740   2.955 -0.9371  0.4965 -0.7012
   84MOL0     C11509   0.907   5.589   2.808  0.4919 -0.1561 -0.0452
   84MOL0     C11510   0.981   5.703   2.799 -0.7420 -1.3579 -0.3488
   84MOL0     C11511   1.116   5.697   2.777 -0.2715  0.1140  0.0389
   84MOL0     C11512   1.177   5.572   2.767  0.1864  0.8745  0.3814
   84MOL0     O11513   1.309   5.551   2.733  0.2842 -0.2894  0.7771
   84MOL0     C11514   1.404   5.642   2.775  0.1901 -0.2962 -1.2773
   84MOL0     C11515   1.430   5.627   2.925 -0.4852  0.3436  0.2169
   84MOL0     C11516   1.528   5.518   2.961  0.1441  0.5142 -0.1778
   84MOL0     C11517   1.668   5.579   2.967  0.0261  1.0997 -0.1063
   84MOL0     C11518   1.692   5.653   3.092 -0.8182 -1.1352  0.5146
   84MOL0     C11519   1.689   5.719   3.197 -0.0668  0.5265  0.0926
   84MOL0     C11520   1.102   5.457   2.797  0.1250 -0.8428 -0.7384
   84MOL0     C11521   0.964   5.467   2.800 -0.2791  0.6367  1.1015
   84MOL0     C11522   0.898   5.332   2.804  0.0441  0.3704  0.5277
   84MOL0     H11523   0.599   5.764   2.629  1.5088  0.3102  1.3005
   84MOL0     H11524   0.348   5.846   2.617  2.5988  0.3708 -1.5965
   84MOL0     H11525   0.084   5.888   2.642 -3.9133  3.8153 -0.7926
   84MOL0     H11526   0.223   5.996   2.658  1.3287  1.3373  2.0812
   84MOL0     H11527  -0.022   6.096   2.693 -1.5924  0.1657  0.6166
   84MOL0     H11528  -0.027   6.014   2.849 -0.0599  1.0354  1.2251
   84MOL0     H11529   0.196   6.113   2.902  0.4445  0.1591  1.5325
   84MOL0     H11530   0.183   6.221   2.761  0.5790  1.5473  1.0959
   84MOL0     H11531  -0.027   6.323   2.847  2.9580  2.0485  0.3197
   84MOL0     H11532  -0.048   6.192   2.970 -2.2459  2.1676 -0.2582
   84MOL0     H11533   0.029   6.422   3.052  1.3400  1.4051  0.9941
   84MOL0     H11534   0.176   6.401   2.972 -0.9188 -1.2179 -0.9809
   84MOL0     H11535   0.054   6.239   3.201 -0.5511 -0.2148 -1.6357
   84MOL0     H11536   0.192   6.167   3.117  0.1746 -1.1166 -0.1369
   84MOL0     H11537   0.306   6.408   3.152  1.2208  0.9193  1.6929
   84MOL0     H11538   0.315   6.293   3.283 -0.4836 -2.5211 -2.3647
   84MOL0     H11539   0.227   6.558   3.316 -0.7997  0.9302  2.1316
   84MOL0     H11540   0.074   6.486   3.280 -1.4676 -2.2961 -0.1133
   84MOL0     H11541   0.333   6.521   3.540  0.6960 -1.4074 -1.2503
   84MOL0     H11542   0.127   6.505   3.838 -0.5555 -0.2799  0.1273
   84MOL0     H11543   0.297   6.513   3.804 -0.2975 -0.4228 -2.6484
   84MOL0     H11544   0.139   6.273   3.926 -1.9010  2.5135  0.0906
   84MOL0     H11545   0.285   6.242   3.825 -2.0941 -0.9127  1.1010
   84MOL0     H11546   0.422   6.358   3.991  1.1676  0.2633  1.3100
   84MOL0     H11547   0.279   6.420   4.071  2.2341  0.6173 -0.4747
   84MOL0     H11548   0.337   6.128   4.040 -1.7104  0.3929 -1.0792
   84MOL0     H11549   0.397   6.227   4.183 -0.7156  1.3666  1.4497
   84MOL0     H11550  -0.013   6.150   4.284  2.0721  2.4072 -3.2808
   84MOL0     H11551  -0.133   5.965   4.532 -0.4742 -0.3189  0.4621
   84MOL0     H11552  -0.188   5.915   4.363 -0.2982  0.6839  0.3921
   84MOL0     H11553  -0.178   6.078   4.404 -6.2273 -2.8031  0.2555
   84MOL0     H11554   0.047   5.759   4.793 -1.0075  1.5759 -0.9252
   84MOL0     H11555   0.032   5.590   4.965 -0.4161 -1.5307 -0.2968
   84MOL0     H11556  -0.277   5.263   4.997 -0.0444 -0.2985  0.6563
   84MOL0     H11557  -0.128   5.192   4.913  0.9725  0.1688  0.4556
   84MOL0     H11558  -0.139   5.068   5.115 -0.6979 -0.4085  1.1592
   84MOL0     H11559  -0.026   5.194   5.152 -1.4574  3.4918  1.0225
   84MOL0     H11560  -0.309   5.236   5.234  0.8363  1.2601  1.6250
   84MOL0     H11561  -0.160   5.316   5.286  1.4237  0.5270 -0.8673
   84MOL0     H11562  -0.086   5.088   5.356 -0.3164  0.5236 -1.8509
   84MOL0     H11563  -0.235   5.013   5.298  1.8309 -0.2675 -2.4243
   84MOL0     H11564  -0.175   5.096   5.558  0.4603  0.8333  0.8707
   84MOL0     H11565  -0.281   5.232   5.496  1.8662  0.8518 -1.0607
   84MOL0     H11566  -0.358   4.950   5.480  2.2966  0.5040 -1.0762
   84MOL0     H11567  -0.443   5.091   5.421  0.0302  0.5794  2.3312
   84MOL0     H11568  -0.533   5.052   5.648 -0.5391 -3.3371  2.2985
   84MOL0     H11569  -0.406   5.184   5.653  0.1419 -0.5935 -1.1781
   84MOL0     H11570  -0.241   5.048   5.766  1.4990 -2.4279 -1.0933
   84MOL0     H11571  -0.340   4.903   5.740  1.4255  0.3599 -1.7770
   84MOL0     H11572  -0.239   5.350   4.753 -0.6701  0.1657 -1.5617
   84MOL0     H11573  -0.227   5.519   4.554  0.2081  1.8179 -0.9329
   84MOL0     H11574   0.301   5.782   4.390  0.7382  1.7948  2.8908
   84MOL0     H11575   0.362   5.960   4.234 -0.4272  0.4419 -0.6993
   84MOL0     H11576   0.306   5.783   3.030  2.1777 -0.2993  2.2448
   84MOL0     H11577   0.520   5.718   3.059 -1.6403 -1.0458 -0.8524
   84MOL0     H11578   0.925   5.796   2.796 -0.6185 -1.2063  1.1064
   84MOL0     H11579   1.173   5.789   2.768  2.6256 -1.2975  2.2298
   84MOL0     H11580   1.497   5.628   2.721  0.1425 -1.4488 -1.0857
   84MOL0     H11581   1.381   5.747   2.753  1.4223  0.4188  0.6551
   84MOL0     H11582   1.336   5.616   2.979 -0.6159 -0.3789 -0.1495
   84MOL0     H11583   1.466   5.721   2.969 -1.9381  1.0855 -0.1330
   84MOL0     H11584   1.505   5.457   3.049  2.0945  1.4221  1.0223
   84MOL0     H11585   1.522   5.440   2.884  1.5303  0.4334 -0.2326
   84MOL0     H11586   1.686   5.643   2.881 -1.0829  1.8193  0.1759
   84MOL0     H11587   1.735   5.493   2.968 -0.6597  0.5427  1.0796
   84MOL0     H11588   1.678   5.774   3.288 -1.4929  0.8964 -0.2649
   84MOL0     H11589   1.140   5.355   2.806 -0.5318 -0.9081  2.2333
   84MOL0     H11590   0.965   5.245   2.797  2.6665  2.1939  1.2557
   84MOL0     H11591   0.843   5.324   2.897  1.3994 -0.2946  1.3040
   84MOL0     H11592   0.842   5.316   2.711  2.3312  0.6997 -0.9956
   85MOL0     O11593  10.447   9.926   3.827 -0.1752  0.1052  0.0507
   85MOL0     C11594  10.495  10.037   3.805  0.1975  0.2091  0.2285
   85MOL0     O11595  10.485  10.105   3.685 -0.4169 -0.8975  0.0017
   85MOL0     C11596  10.426  10.044   3.573 -0.6221 -0.4349 -0.0630
   85MOL0     C11597  10.315   9.969   3.573  0.3776  0.2994 -0.0020
   85MOL0     C11598  10.244   9.935   3.459 -0.2844  0.3441 -0.5731
   85MOL0     C11599  10.297   9.964   3.334  0.2732 -0.0946 -0.0950
   85MOL0     O11600  10.229   9.908   3.226 -0.4105  0.4623  0.6523
   85MOL0     C11601  10.274   9.909   3.095 -0.0349  0.2681  0.4433
   85MOL0     C11602  10.166   9.833   3.011  0.8791  0.3315 -0.2913
   85MOL0     C11603  10.192   9.690   2.977  0.5743  1.3446 -0.5543
   85MOL0     C11604  10.211   9.591   3.096 -0.6374  0.0770  0.7047
   85MOL0     C11605  10.092   9.593   3.193  0.3406 -0.0402 -0.2355
   85MOL0     C11606  10.139   9.573   3.335 -0.4822 -0.2708  0.0856
   85MOL0     C11607  10.018   9.578   3.428 -0.7761 -0.4492  0.2396
   85MOL0     C11608  10.045   9.580   3.576  0.5916 -0.6481 -0.0059
   85MOL0     N11609  10.070   9.446   3.630 -0.1888 -0.0658 -0.4999
   85MOL0     C11610  10.101   9.411   3.757  0.0408  0.0371  0.3512
   85MOL0     C11611  10.101   9.275   3.760 -0.6704 -0.4597 -0.2234
   85MOL0     C11612  10.133   9.194   3.878  0.3598 -0.1085 -0.3023
   85MOL0     C11613  10.010   9.110   3.912 -0.9765  0.3188  0.8698
   85MOL0     C11614   9.982   8.991   3.823 -0.0874  0.8862 -0.0819
   85MOL0     C11615   9.871   8.898   3.856  0.2964 -0.9274 -0.6238
   85MOL0     O11616   9.926   8.765   3.880  0.0774 -0.1005  0.2118
   85MOL0     C11617   9.848   8.665   3.921  0.0796 -0.3333 -0.5606
   85MOL0     C11618   9.707   8.680   3.926  0.6450  0.5449 -0.3129
   85MOL0     C11619   9.625   8.579   3.983  0.1660  1.3021  0.6173
   85MOL0     C11620   9.479   8.581   3.964  0.5892 -0.1484 -0.0337
   85MOL0     C11621   9.685   8.466   4.045  0.0865 -1.1085 -0.7431
   85MOL0     C11622   9.611   8.361   4.123  0.1772  0.6434  0.3248
   85MOL0     O11623   9.691   8.258   4.174 -0.0171 -0.5274  0.6277
   85MOL0     C11624   9.637   8.145   4.236  1.1336 -0.7625  0.7288
   85MOL0     C11625   9.658   8.031   4.170  0.1911 -0.2988 -0.4823
   85MOL0     C11626   9.623   7.910   4.232  0.0565 -0.8889  0.0597
   85MOL0     C11627   9.569   7.902   4.361 -0.2841 -0.4061  0.7812
   85MOL0     O11628   9.575   7.784   4.423 -0.3646  0.0192 -0.4643
   85MOL0     C11629   9.451   7.751   4.492  0.9650  0.4511 -0.1945
   85MOL0     C11630   9.446   7.628   4.579 -0.0287  0.0776 -1.1937
   85MOL0     C11631   9.539   7.655   4.694  0.6775  0.1153  0.2260
   85MOL0     C11632   9.540   7.533   4.786 -1.0517  0.0830  0.6713
   85MOL0     C11633   9.629   7.566   4.909  0.0231 -0.1293 -0.3203
   85MOL0     C11634   9.688   7.448   4.988 -1.0791 -0.7796 -0.1914
   85MOL0     C11635   9.814   7.380   4.932 -0.0857  0.3813  0.9047
   85MOL0     C11636   9.889   7.296   5.036 -0.1696  0.2385  0.9481
   85MOL0    Cl11637  10.035   7.223   4.970 -0.2404 -0.6044  0.0033
   85MOL0     C11638   9.539   8.026   4.418 -0.2692  0.4160 -0.0456
   85MOL0     C11639   9.565   8.145   4.351  0.9723  0.4964  0.6199
   85MOL0     O11640   9.491   8.376   4.149 -0.4874 -1.0969 -0.3083
   85MOL0     C11641   9.828   8.453   4.036  0.5156 -0.2199  0.6936
   85MOL0     C11642   9.911   8.550   3.972 -0.6115  1.0507  0.3099
   85MOL0     N11643  10.082   9.226   3.636 -1.1570  0.3953 -0.2963
   85MOL0     N11644  10.069   9.332   3.558 -0.1886  0.3041 -1.4651
   85MOL0     C11645  10.414  10.051   3.329  1.0558  0.8963  0.7553
   85MOL0     C11646  10.476  10.093   3.447  1.0858 -0.4355  0.0397
   85MOL0     C11647  10.571  10.097   3.922  0.3309  1.4390  1.1784
   85MOL0     C11648  10.628  10.221   3.898  0.0926  0.2212  0.4154
   85MOL0     C11649  10.716  10.287   3.987 -0.0150 -0.5637 -0.0495
   85MOL0     C11650  10.736  10.220   4.113  0.6154 -0.4443 -0.3490
   85MOL0     O11651  10.815  10.278   4.216 -0.1689  0.6312  0.5668
   85MOL0     C11652  10.955  10.270   4.216 -0.1126 -0.6462  0.0229
   85MOL0     C11653  11.016  10.375   4.310  0.3733  0.8201 -0.3764
   85MOL0     C11654  11.167  10.383   4.308 -0.1383  0.2672  0.0704
   85MOL0     C11655  11.238  10.507   4.357 -0.7804  0.9062 -0.1201
   85MOL0     C11656  11.184  10.541   4.495  0.7047  0.6813  0.0951
   85MOL0     C11657  11.127  10.571   4.597  0.2564  0.8152 -0.0642
   85MOL0     C11658  10.679  10.091   4.139 -0.3907  0.1267  0.0719
   85MOL0     C11659  10.606  10.027   4.044 -0.5526 -0.0841  0.8724
   85MOL0     C11660  10.552   9.886   4.072 -0.0864  0.8000 -0.5748
   85MOL0     H11661  10.260   9.938   3.661  0.7313  2.1101  0.8873
   85MOL0     H11662  10.165   9.862   3.470 -0.9183  1.3395  2.4787
   85MOL0     H11663  10.366   9.852   3.081 -0.4746  0.1206 -2.5708
   85MOL0     H11664  10.307  10.007   3.060  1.4938  0.2038  1.5707
   85MOL0     H11665  10.071   9.838   3.065  1.3057  2.7338  0.3665
   85MOL0     H11666  10.151   9.891   2.920 -0.2885  1.0250  0.3145
   85MOL0     H11667  10.108   9.657   2.916  0.4943  1.2991 -0.4187
   85MOL0     H11668  10.283   9.678   2.916  0.2176  1.3157 -1.0880
   85MOL0     H11669  10.214   9.491   3.053  1.0302 -0.0150  0.9678
   85MOL0     H11670  10.307   9.610   3.146  0.0482  0.2060 -0.6212
   85MOL0     H11671  10.030   9.511   3.156 -0.3175  1.1634 -1.9461
   85MOL0     H11672  10.029   9.682   3.182  2.1045  1.5908  1.9957
   85MOL0     H11673  10.197   9.482   3.352  4.7377  2.2698 -1.7764
   85MOL0     H11674  10.204   9.659   3.357 -4.3959  3.8638 -2.7053
   85MOL0     H11675   9.954   9.493   3.404  0.9764 -1.6599 -0.3044
   85MOL0     H11676   9.957   9.666   3.404  0.4513  1.3494  3.1850
   85MOL0     H11677  10.117   9.653   3.614 -1.0220 -0.1975  2.4277
   85MOL0     H11678   9.959   9.624   3.629  1.8454  0.8148  0.8934
   85MOL0     H11679  10.109   9.480   3.841 -3.0607 -3.1918  3.6645
   85MOL0     H11680  10.144   9.262   3.962 -0.5561 -0.6397  0.2690
   85MOL0     H11681  10.220   9.129   3.862  0.0884 -1.2820  2.4119
   85MOL0     H11682  10.030   9.071   4.013 -2.0748 -0.7704  0.6852
   85MOL0     H11683   9.919   9.171   3.916 -0.4990  1.1712 -0.5595
   85MOL0     H11684   9.961   9.024   3.721  1.7112 -0.6082 -1.0136
   85MOL0     H11685  10.079   8.940   3.822  0.7982  2.3411  2.7225
   85MOL0     H11686   9.827   8.936   3.949 -0.3618 -1.4304 -0.7173
   85MOL0     H11687   9.790   8.899   3.783  0.4184  0.6482 -0.7678
   85MOL0     H11688   9.656   8.769   3.889  1.0492  0.6418 -0.6486
   85MOL0     H11689   9.441   8.626   4.056  1.2051 -2.4039  1.4101
   85MOL0     H11690   9.438   8.486   3.927  0.0113 -0.1460  0.5768
   85MOL0     H11691   9.453   8.656   3.889 -0.5663 -0.6707 -0.1735
   85MOL0     H11692   9.704   8.029   4.072 -0.1850  0.9973 -0.7004
   85MOL0     H11693   9.634   7.820   4.173  0.5330 -0.8456  0.0737
   85MOL0     H11694   9.411   7.829   4.558  2.5067  0.1968  1.1079
   85MOL0     H11695   9.375   7.733   4.416 -0.9891  3.6053  0.8254
   85MOL0     H11696   9.347   7.604   4.620  0.5573  0.9204  0.8866
   85MOL0     H11697   9.468   7.532   4.532 -1.0537 -2.4868  2.9886
   85MOL0     H11698   9.501   7.744   4.745  1.0741  1.5237 -1.8241
   85MOL0     H11699   9.641   7.671   4.657  0.7837 -0.0102  0.4612
   85MOL0     H11700   9.584   7.451   4.728  1.0856  1.0344  0.8480
   85MOL0     H11701   9.440   7.510   4.824 -0.0526 -1.3535  2.6631
   85MOL0     H11702   9.708   7.637   4.883 -1.5140  1.7937  0.0178
   85MOL0     H11703   9.561   7.626   4.970  2.1525  1.9050  0.1770
   85MOL0     H11704   9.616   7.366   4.992  0.4668 -2.3519 -2.3041
   85MOL0     H11705   9.708   7.489   5.088 -1.1427  0.6658 -0.7386
   85MOL0     H11706   9.883   7.454   4.891 -0.0948  0.2129  0.5903
   85MOL0     H11707   9.771   7.309   4.861  0.7017  1.1709 -0.3978
   85MOL0     H11708   9.822   7.216   5.068 -1.1512  1.5127  2.2113
   85MOL0     H11709   9.904   7.341   5.135 -0.3957 -1.7221  1.9363
   85MOL0     H11710   9.480   8.040   4.508  1.4725  2.6271  0.8657
   85MOL0     H11711   9.525   8.242   4.379 -0.6912  2.1353 -5.8718
   85MOL0     H11712   9.883   8.367   4.074 -0.4771 -2.3094 -2.2560
   85MOL0     H11713  10.016   8.525   3.963 -0.3268  2.1854  0.3562
   85MOL0     H11714  10.452  10.103   3.241  1.2925  1.7248  1.3331
   85MOL0     H11715  10.554  10.167   3.437  2.7948 -2.1443  0.2990
   85MOL0     H11716  10.632  10.265   3.799 -0.3502 -1.2401 -0.2874
   85MOL0     H11717  10.765  10.383   3.976 -2.6963  0.8676 -0.2080
   85MOL0     H11718  10.991  10.172   4.250  0.7578  0.3150  1.9996
   85MOL0     H11719  10.984  10.299   4.114 -0.6065 -3.3508 -0.9676
   85MOL0     H11720  10.986  10.355   4.414  1.8117  1.2136  0.1426
   85MOL0     H11721  10.976  10.471   4.277  2.2821  1.0774 -2.1009
   85MOL0     H11722  11.204  10.293   4.357 -2.0220 -0.8464 -0.4520
   85MOL0     H11723  11.194  10.371   4.202 -1.9041  0.3130 -0.4270
   85MOL0     H11724  11.220  10.587   4.284  0.1075  2.4931  1.3140
   85MOL0     H11725  11.344  10.482   4.367 -0.4827  2.3451  0.5956
   85MOL0     H11726  11.085  10.584   4.695  1.1959 -2.3535  0.8807
   85MOL0     H11727  10.701  10.042   4.234 -2.8715 -0.6625  0.3207
   85MOL0     H11728  10.443   9.886   4.069 -0.0633  1.0034 -1.8330
   85MOL0     H11729  10.585   9.806   4.005 -1.1455 -1.0516  1.0008
   85MOL0     H11730  10.585   9.869   4.175  0.0566  2.1528 -0.3726
   86MOL0     O11731  11.218   8.382   1.539 -0.4607  0.0976 -0.4644
   86MOL0     C11732  11.178   8.280   1.485 -0.5758 -0.7675  0.0163
   86MOL0     O11733  11.122   8.172   1.546  0.6281 -0.2475 -0.1847
   86MOL0     C11734  11.137   8.161   1.681 -0.5362 -0.2603  0.3899
   86MOL0     C11735  11.083   8.258   1.770 -0.5302 -0.1107  0.2729
   86MOL0     C11736  11.095   8.247   1.910 -0.3655  0.3546 -0.3639
   86MOL0     C11737  11.151   8.131   1.958  0.2065  0.0323 -0.6392
   86MOL0     O11738  11.155   8.104   2.096 -0.0372 -0.1178 -0.7502
   86MOL0     C11739  11.049   8.024   2.134 -0.3053 -0.2872  0.1131
   86MOL0     C11740  10.911   8.096   2.159 -0.1982  0.2215  0.9406
   86MOL0     C11741  10.906   8.209   2.261  0.7247  0.4110 -0.0804
   86MOL0     C11742  10.756   8.236   2.291 -0.0394 -0.1879 -0.3326
   86MOL0     C11743  10.755   8.326   2.413 -0.9153  0.0383  0.0754
   86MOL0     C11744  10.609   8.352   2.450  0.2205  0.6554 -0.1079
   86MOL0     C11745  10.601   8.460   2.558 -0.2042  0.5061  0.0643
   86MOL0     C11746  10.654   8.429   2.700  0.2267  0.3455 -0.5917
   86MOL0     N11747  10.801   8.405   2.719  1.1967  0.5068  0.0294
   86MOL0     C11748  10.900   8.496   2.684  0.6894 -0.1668 -0.0465
   86MOL0     C11749  11.012   8.438   2.704  0.2188 -0.2050 -0.4114
   86MOL0     C11750  11.153   8.492   2.677  0.1681 -0.3088  0.3207
   86MOL0     C11751  11.219   8.436   2.555  0.2216  0.3781 -0.2946
   86MOL0     C11752  11.156   8.504   2.427  0.0380 -0.8497  0.3592
   86MOL0     C11753  11.220   8.439   2.306  0.5973 -0.2434  0.0770
   86MOL0     O11754  11.199   8.504   2.185 -0.7242 -0.0650 -0.2153
   86MOL0     C11755  11.291   8.593   2.140  0.1579  1.1551 -0.1730
   86MOL0     C11756  11.339   8.600   2.009  0.5917  0.0061  0.9086
   86MOL0     C11757  11.421   8.706   1.953  0.7584 -0.2848 -0.6654
   86MOL0     C11758  11.431   8.727   1.796 -0.5836 -0.3251  1.0045
   86MOL0     C11759  11.465   8.804   2.048 -0.6301  1.0198 -0.1376
   86MOL0     C11760  11.538   8.932   2.024 -0.1643  0.2903  0.3284
   86MOL0     O11761  11.575   9.009   2.134  0.0462 -0.3486  0.4966
   86MOL0     C11762  11.668   9.101   2.111  0.0329 -0.3049 -0.6692
   86MOL0     C11763  11.796   9.085   2.172 -0.5055  0.4830  0.2442
   86MOL0     C11764  11.899   9.173   2.149 -0.5558  0.5683 -0.5213
   86MOL0     C11765  11.875   9.283   2.069 -0.2148 -0.5135  0.6096
   86MOL0     O11766  11.975   9.375   2.047  0.2860  0.1184  0.7191
   86MOL0     C11767  12.090   9.334   1.976 -0.0784  0.0948 -0.3909
   86MOL0     C11768  12.189   9.444   1.947  0.5829  0.2065 -0.0587
   86MOL0     C11769  12.241   9.523   2.072 -1.5734  0.1171 -0.3247
   86MOL0     C11770  12.319   9.428   2.171 -0.4800 -0.4048 -0.3543
   86MOL0     C11771  12.437   9.489   2.252 -1.0253  0.7635  0.3151
   86MOL0     C11772  12.494   9.387   2.351  0.4678  0.3037 -0.9641
   86MOL0     C11773  12.631   9.428   2.418 -0.3783  0.6518  0.4014
   86MOL0     C11774  12.664   9.351   2.550  0.1776 -0.3078  0.4981
   86MOL0    Cl11775  12.540   9.371   2.673  0.1917 -0.6709 -0.0820
   86MOL0     C11776  11.749   9.306   2.013  0.0049 -0.4792 -0.5825
   86MOL0     C11777  11.648   9.214   2.029  0.1929 -0.1740  0.0300
   86MOL0     O11778  11.557   8.966   1.909  0.2327  0.1913 -0.2686
   86MOL0     C11779  11.443   8.779   2.178  0.5151 -0.1937 -0.1088
   86MOL0     C11780  11.359   8.680   2.226 -0.2141  0.5160 -0.0790
   86MOL0     N11781  10.985   8.309   2.751 -1.0500 -0.0774 -0.9456
   86MOL0     N11782  10.850   8.291   2.761  0.1456  0.0081 -0.3029
   86MOL0     C11783  11.209   8.034   1.872 -0.0265 -0.1011 -0.3857
   86MOL0     C11784  11.206   8.055   1.734  0.4650 -0.2704 -0.0365
   86MOL0     C11785  11.176   8.289   1.344  0.9645  0.1035 -0.2282
   86MOL0     C11786  11.296   8.300   1.275 -0.6485  0.0586  0.3249
   86MOL0     C11787  11.296   8.330   1.136 -0.8421  0.2523 -1.3827
   86MOL0     C11788  11.181   8.332   1.065 -0.7537 -0.2414  0.1423
   86MOL0     O11789  11.178   8.358   0.936 -0.5325  0.0199  0.9190
   86MOL0     C11790  11.219   8.253   0.838  0.1100 -0.4661 -0.8570
   86MOL0     C11791  11.093   8.220   0.761  0.3180 -1.3887 -0.1481
   86MOL0     C11792  11.129   8.158   0.625 -0.5244  0.5505  0.3773
   86MOL0     C11793  11.172   8.018   0.651 -0.5194 -0.0066  0.2894
   86MOL0     C11794  11.242   7.956   0.542  0.0606  0.5712 -0.6642
   86MOL0     C11795  11.294   7.912   0.440  0.8306  0.5227 -0.3037
   86MOL0     C11796  11.063   8.321   1.133 -1.1611 -1.0441  0.0181
   86MOL0     C11797  11.057   8.288   1.269 -0.1240  0.6936  0.0190
   86MOL0     C11798  10.927   8.264   1.331  0.0153 -0.0527  0.0585
   86MOL0     H11799  11.016   8.331   1.726  2.2198  0.3443 -3.6168
   86MOL0     H11800  11.050   8.323   1.973 -0.4772  0.8783 -1.0607
   86MOL0     H11801  11.088   7.983   2.228  1.8810  2.4597  0.5160
   86MOL0     H11802  11.030   7.943   2.063  1.0132  1.5642 -2.5097
   86MOL0     H11803  10.883   8.148   2.067 -4.4228 -1.7641  0.8653
   86MOL0     H11804  10.832   8.022   2.176  0.1820 -0.4257  0.0079
   86MOL0     H11805  10.969   8.181   2.346 -1.0630  2.0875  1.9401
   86MOL0     H11806  10.964   8.289   2.215  2.2629 -0.7202 -0.1818
   86MOL0     H11807  10.704   8.272   2.202  0.5687 -0.0904 -0.6530
   86MOL0     H11808  10.715   8.139   2.322 -1.2166  0.0513 -1.0894
   86MOL0     H11809  10.807   8.416   2.378 -2.7557  0.5366 -1.5688
   86MOL0     H11810  10.817   8.277   2.488 -1.4858  0.4864  0.8541
   86MOL0     H11811  10.554   8.378   2.359 -0.0243 -1.2910 -0.5544
   86MOL0     H11812  10.558   8.262   2.487  0.4932  1.2316  1.8116
   86MOL0     H11813  10.493   8.477   2.568 -0.4623 -0.4534 -0.8602
   86MOL0     H11814  10.654   8.550   2.525  1.4960 -1.2204 -2.2231
   86MOL0     H11815  10.621   8.518   2.755 -2.0863 -0.1650 -1.0559
   86MOL0     H11816  10.609   8.338   2.742  1.1518  0.5835  0.9801
   86MOL0     H11817  10.876   8.591   2.637 -2.6066  0.3249  2.3154
   86MOL0     H11818  11.200   8.486   2.776  0.8064  1.1556  0.1242
   86MOL0     H11819  11.158   8.601   2.669 -0.0828 -0.2187  1.3206
   86MOL0     H11820  11.326   8.458   2.554  1.1322 -3.3174 -2.7709
   86MOL0     H11821  11.203   8.329   2.548 -0.5704  0.3909  0.9013
   86MOL0     H11822  11.049   8.488   2.411  0.0865  1.6594 -4.0048
   86MOL0     H11823  11.166   8.612   2.440 -1.1831 -1.0288  3.9338
   86MOL0     H11824  11.327   8.422   2.318  0.5557 -0.5836 -0.0227
   86MOL0     H11825  11.167   8.343   2.303 -1.5422  0.8566  0.4843
   86MOL0     H11826  11.309   8.536   1.927 -0.6168  1.0093  0.5341
   86MOL0     H11827  11.371   8.811   1.762 -0.0574  0.9381  3.0314
   86MOL0     H11828  11.401   8.640   1.736  2.5243  0.2367 -1.6058
   86MOL0     H11829  11.534   8.738   1.761 -0.9385  4.0166  0.7945
   86MOL0     H11830  11.815   8.999   2.236  1.8345  0.9003  0.2104
   86MOL0     H11831  11.997   9.153   2.192 -0.2053 -0.7050 -1.8301
   86MOL0     H11832  12.152   9.269   2.038  0.0590 -1.2761 -1.8884
   86MOL0     H11833  12.073   9.269   1.890  2.1240 -1.3006  0.1351
   86MOL0     H11834  12.266   9.396   1.887 -1.6251 -2.0651 -1.2846
   86MOL0     H11835  12.138   9.512   1.878 -4.8395  0.5152  3.6416
   86MOL0     H11836  12.159   9.569   2.128 -0.3056  1.9356  0.1194
   86MOL0     H11837  12.310   9.602   2.041  0.3741 -1.2767  0.3172
   86MOL0     H11838  12.358   9.342   2.115  1.3186 -0.0466  0.2647
   86MOL0     H11839  12.248   9.389   2.245  1.6067 -1.5159  1.2204
   86MOL0     H11840  12.518   9.510   2.181  0.8292 -0.3074  2.0321
   86MOL0     H11841  12.406   9.580   2.304 -0.8948  0.7999  0.3297
   86MOL0     H11842  12.516   9.297   2.292  2.2794  1.7003 -2.5569
   86MOL0     H11843  12.424   9.346   2.425  1.5569 -4.2355 -2.1486
   86MOL0     H11844  12.626   9.530   2.455  0.8669  0.9077 -0.0780
   86MOL0     H11845  12.701   9.413   2.334  0.0235  0.8408  0.7008
   86MOL0     H11846  12.761   9.386   2.586  1.2945 -0.4167 -2.1698
   86MOL0     H11847  12.670   9.245   2.525  1.3235  0.2504 -1.8564
   86MOL0     H11848  11.747   9.394   1.950  1.7409  0.4501  0.5552
   86MOL0     H11849  11.550   9.223   1.983 -1.9836  0.3861  4.2959
   86MOL0     H11850  11.485   8.835   2.260 -0.2373  0.0318  0.1311
   86MOL0     H11851  11.354   8.674   2.334  2.0811 -3.1179 -0.0106
   86MOL0     H11852  11.271   7.951   1.905 -0.4842 -0.7358 -1.0919
   86MOL0     H11853  11.268   7.990   1.673  2.7062  1.9083 -0.2355
   86MOL0     H11854  11.396   8.296   1.317 -1.0136 -1.9677  1.1373
   86MOL0     H11855  11.392   8.347   1.089  0.0117  0.3984  0.3431
   86MOL0     H11856  11.296   8.300   0.775  0.7432  3.7957  2.6105
   86MOL0     H11857  11.242   8.163   0.896 -4.7940 -0.7039  1.1119
   86MOL0     H11858  11.028   8.305   0.737 -1.0853 -3.2122 -3.5121
   86MOL0     H11859  11.024   8.157   0.818 -0.3903  1.4517  2.3574
   86MOL0     H11860  11.047   8.141   0.554  0.1092 -2.5518  0.2394
   86MOL0     H11861  11.210   8.213   0.578 -2.7169  2.7781 -1.0387
   86MOL0     H11862  11.088   7.957   0.685 -0.0680 -0.7771  0.0471
   86MOL0     H11863  11.245   8.015   0.731  0.9915  0.2840 -1.0275
   86MOL0     H11864  11.320   7.867   0.346  0.5738 -1.0273  0.3375
   86MOL0     H11865  10.971   8.331   1.077 -1.3539  2.6807  0.7910
   86MOL0     H11866  10.921   8.165   1.376  2.3394 -0.3862 -0.2797
   86MOL0     H11867  10.904   8.329   1.416 -0.8208  2.0851 -1.6889
   86MOL0     H11868  10.841   8.274   1.264 -2.9981 -1.8078  3.3274
   87MOL0     O11869   8.412   9.963   0.222 -0.3993  0.4612  0.4152
   87MOL0     C11870   8.455   9.850   0.218  0.4472 -0.1783  0.0145
   87MOL0     O11871   8.532   9.791   0.316  0.1736 -0.6750 -0.8548
   87MOL0     C11872   8.528   9.862   0.437  0.4192  0.0383  0.1472
   87MOL0     C11873   8.600   9.980   0.451 -0.9140  0.2137  0.1934
   87MOL0     C11874   8.586  10.062   0.559  0.5421 -0.4186 -0.2574
   87MOL0     C11875   8.503  10.028   0.665  0.9801  0.0942  0.5764
   87MOL0     O11876   8.480  10.115   0.765  0.0308  0.1851  0.5580
   87MOL0     C11877   8.342  10.171   0.762  0.0373  0.0687 -0.0667
   87MOL0     C11878   8.223  10.092   0.824 -0.0317 -0.4010  1.0848
   87MOL0     C11879   8.259  10.031   0.959 -0.7515 -0.1195 -0.1830
   87MOL0     C11880   8.145   9.936   1.022  1.1084 -0.0628  0.3113
   87MOL0     C11881   8.196   9.876   1.153  0.6097  0.0510  0.4999
   87MOL0     C11882   8.107   9.765   1.208  0.0188  0.1649  0.1273
   87MOL0     C11883   8.147   9.744   1.356  0.0676  0.0129 -0.3489
   87MOL0     C11884   8.060   9.650   1.451  0.8146  0.2386 -1.0816
   87MOL0     N11885   8.030   9.520   1.397  0.6595 -0.2312  0.4893
   87MOL0     C11886   7.935   9.509   1.297  0.0730 -0.6097  0.5111
   87MOL0     C11887   7.949   9.381   1.248 -0.2816 -0.6985  1.0045
   87MOL0     C11888   7.858   9.330   1.143 -0.5556 -0.4432 -0.0160
   87MOL0     C11889   7.928   9.230   1.043 -0.7827  0.5954  0.0440
   87MOL0     C11890   8.029   9.288   0.947 -1.3971 -0.2804  0.5844
   87MOL0     C11891   7.976   9.250   0.813  0.1574 -0.2586 -0.1702
   87MOL0     O11892   7.860   9.335   0.773  0.8569  0.1543  1.0444
   87MOL0     C11893   7.852   9.379   0.641  0.0519  0.6920 -0.2440
   87MOL0     C11894   7.969   9.414   0.572 -0.1975  0.7869  0.5554
   87MOL0     C11895   7.957   9.441   0.438  0.8535 -0.1073  0.3040
   87MOL0     C11896   8.077   9.461   0.358 -0.3420 -0.1766  0.1788
   87MOL0     C11897   7.831   9.449   0.373 -0.1436  0.4038  0.1742
   87MOL0     C11898   7.810   9.474   0.225  1.1441 -0.4200  0.1089
   87MOL0     O11899   7.904   9.440   0.130  0.2985  0.8156  0.7508
   87MOL0     C11900   7.884   9.486   0.002 -0.2419 -0.1989 -0.0299
   87MOL0     C11901   7.926   9.618  -0.032 -0.4455 -0.5608 -0.0347
   87MOL0     C11902   7.921   9.663  -0.163 -0.1766  0.0035  0.3351
   87MOL0     C11903   7.865   9.580  -0.265  0.3141  0.4305 -0.1963
   87MOL0     O11904   7.876   9.610  -0.401 -0.6329  0.5057 -0.4894
   87MOL0     C11905   7.834   9.747  -0.438 -0.6519 -0.3215  0.8210
   87MOL0     C11906   7.760   9.743  -0.575 -0.4137  0.4151  1.1242
   87MOL0     C11907   7.843   9.675  -0.685  0.8403 -0.0831  0.1672
   87MOL0     C11908   7.750   9.685  -0.809 -0.0761  0.5253  0.0864
   87MOL0     C11909   7.819   9.619  -0.939  0.4241  0.3050 -0.5470
   87MOL0     C11910   7.719   9.572  -1.035 -0.4748 -0.1598 -0.1292
   87MOL0     C11911   7.629   9.692  -1.075 -0.1317  0.4542  0.5151
   87MOL0     C11912   7.699   9.807  -1.154  0.5101  0.2274  0.1970
   87MOL0    Cl11913   7.812   9.755  -1.279 -0.1806 -0.1175 -0.0462
   87MOL0     C11914   7.818   9.457  -0.229  0.6587  0.1858  0.9710
   87MOL0     C11915   7.827   9.407  -0.099  1.0698  0.5209 -0.5499
   87MOL0     O11916   7.699   9.525   0.196  0.5495  0.2021  0.3664
   87MOL0     C11917   7.710   9.430   0.451 -0.2401 -0.0765  0.3701
   87MOL0     C11918   7.721   9.401   0.591 -0.2151  0.0252  0.3056
   87MOL0     N11919   8.062   9.322   1.318 -0.1860  0.0089  0.1910
   87MOL0     N11920   8.108   9.410   1.396  0.0330 -0.7397  0.0571
   87MOL0     C11921   8.436   9.899   0.662  0.7695 -0.8235  0.0840
   87MOL0     C11922   8.446   9.824   0.548  0.5307  0.0646  0.0083
   87MOL0     C11923   8.396   9.751   0.129  0.3604  1.1988 -0.3187
   87MOL0     C11924   8.379   9.620   0.167 -0.0827  0.7951  0.2918
   87MOL0     C11925   8.320   9.528   0.082 -0.4739 -0.5182  0.0934
   87MOL0     C11926   8.289   9.565  -0.045  0.1477  0.5524  0.0226
   87MOL0     O11927   8.244   9.478  -0.149 -0.4113 -0.1635  0.7824
   87MOL0     C11928   8.234   9.332  -0.123  0.7008  0.1609 -0.0304
   87MOL0     C11929   8.213   9.263  -0.255  0.8503  0.5836  0.3122
   87MOL0     C11930   8.177   9.112  -0.252  0.0258 -0.1300 -0.8911
   87MOL0     C11931   8.023   9.089  -0.212  0.0968 -0.6884 -0.4902
   87MOL0     C11932   7.931   9.121  -0.322 -0.1160 -0.4779 -0.2180
   87MOL0     C11933   7.872   9.141  -0.425 -0.5643 -0.6846 -0.9137
   87MOL0     C11934   8.308   9.686  -0.094  0.4193 -1.2031  0.3518
   87MOL0     C11935   8.367   9.784  -0.007  0.3307 -0.5802  0.7294
   87MOL0     C11936   8.404   9.909  -0.082 -1.2641 -0.6890  0.5227
   87MOL0     H11937   8.661  10.017   0.370 -1.1717  1.8487  0.7210
   87MOL0     H11938   8.625  10.163   0.568 -2.0589  0.6389 -0.1495
   87MOL0     H11939   8.313  10.202   0.661 -1.6725  1.5736  0.8195
   87MOL0     H11940   8.352  10.261   0.824  2.3641 -1.0507  1.2995
   87MOL0     H11941   8.134  10.153   0.844 -0.7430 -0.5025 -1.4172
   87MOL0     H11942   8.191  10.015   0.753 -0.1420 -0.6922  1.4450
   87MOL0     H11943   8.352   9.974   0.949  0.0085  0.7755  1.4432
   87MOL0     H11944   8.278  10.114   1.028 -3.0323 -0.2186  0.6320
   87MOL0     H11945   8.053   9.994   1.028  2.3544  1.9632  0.5469
   87MOL0     H11946   8.114   9.856   0.953  0.8037  1.4186 -1.3478
   87MOL0     H11947   8.207   9.965   1.216  1.4749 -0.3780  0.9657
   87MOL0     H11948   8.298   9.843   1.132 -0.0277 -1.0140 -1.0970
   87MOL0     H11949   8.000   9.786   1.213 -0.2340 -1.3789  1.9487
   87MOL0     H11950   8.109   9.674   1.148 -1.1135  0.7283 -0.8173
   87MOL0     H11951   8.160   9.837   1.411 -1.1085  1.2522 -2.0532
   87MOL0     H11952   8.248   9.702   1.351  0.4597  0.2861  3.0504
   87MOL0     H11953   8.107   9.644   1.550 -0.3420  4.1445 -0.1230
   87MOL0     H11954   7.962   9.682   1.489  1.0146 -2.3496  2.1428
   87MOL0     H11955   7.857   9.576   1.263  1.0882  1.2615  1.6214
   87MOL0     H11956   7.813   9.406   1.079  1.0837 -1.7829 -2.9855
   87MOL0     H11957   7.782   9.271   1.195 -0.2883  0.0958  0.9972
   87MOL0     H11958   7.986   9.171   1.114  0.5606  0.8305 -0.8368
   87MOL0     H11959   7.849   9.172   0.994 -2.2252  3.2113 -0.9679
   87MOL0     H11960   8.043   9.396   0.949 -3.2058  0.0240 -0.9930
   87MOL0     H11961   8.129   9.244   0.960 -1.8424 -1.9266 -1.0225
   87MOL0     H11962   8.064   9.244   0.748 -0.3289  0.0797 -0.8700
   87MOL0     H11963   7.931   9.151   0.821  0.9524 -1.1251 -4.0802
   87MOL0     H11964   8.070   9.418   0.610  0.3856  4.6703 -0.9780
   87MOL0     H11965   8.169   9.468   0.418 -0.3928  1.8843  0.0857
   87MOL0     H11966   8.062   9.561   0.317  1.9601 -0.6571 -2.0749
   87MOL0     H11967   8.108   9.381   0.290  1.9140 -1.5262  2.5846
   87MOL0     H11968   7.983   9.674   0.041  0.6401 -2.6665  0.7966
   87MOL0     H11969   7.962   9.756  -0.201 -2.1982  0.3765 -1.0285
   87MOL0     H11970   7.772   9.793  -0.360 -1.1444 -0.4262  0.4959
   87MOL0     H11971   7.922   9.812  -0.441  0.0659 -1.2570  1.1637
   87MOL0     H11972   7.670   9.681  -0.570  0.0472 -0.6774 -1.8546
   87MOL0     H11973   7.740   9.839  -0.624  3.9934 -0.1000 -2.2714
   87MOL0     H11974   7.848   9.567  -0.668 -1.7311  0.0001  2.1152
   87MOL0     H11975   7.935   9.726  -0.717  0.7961 -2.1786 -3.8924
   87MOL0     H11976   7.737   9.790  -0.835 -1.4223  0.5199  0.6354
   87MOL0     H11977   7.651   9.645  -0.787 -0.1018 -0.8916 -2.2609
   87MOL0     H11978   7.892   9.689  -0.980  0.3826  0.4854 -0.3105
   87MOL0     H11979   7.866   9.524  -0.908 -2.1608 -2.0154 -3.1375
   87MOL0     H11980   7.657   9.495  -0.988 -1.1313 -0.2568 -1.1145
   87MOL0     H11981   7.773   9.529  -1.119  3.6840  4.4303 -0.2545
   87MOL0     H11982   7.576   9.739  -0.991 -0.6167  0.3200  0.2862
   87MOL0     H11983   7.544   9.653  -1.133  1.1857 -1.1820 -0.4171
   87MOL0     H11984   7.765   9.867  -1.090  0.9446 -0.1242  0.0852
   87MOL0     H11985   7.624   9.877  -1.192  0.1787  0.6414  1.5426
   87MOL0     H11986   7.779   9.391  -0.305 -0.3265  0.6496  1.0522
   87MOL0     H11987   7.787   9.307  -0.088  0.5513  0.3065 -3.5304
   87MOL0     H11988   7.616   9.454   0.402  1.0124  2.0199 -1.1637
   87MOL0     H11989   7.642   9.377   0.662 -3.0767 -0.1117 -2.6946
   87MOL0     H11990   8.372   9.880   0.747  1.6264 -2.3909  0.4224
   87MOL0     H11991   8.384   9.735   0.537  1.1018 -0.1732 -1.6146
   87MOL0     H11992   8.399   9.590   0.269 -2.3876  0.1121  0.6088
   87MOL0     H11993   8.306   9.422   0.098  0.6116 -0.4825  1.5578
   87MOL0     H11994   8.323   9.292  -0.073  0.0259  0.0588  1.1353
   87MOL0     H11995   8.147   9.317  -0.057  0.2529  1.8459 -0.1840
   87MOL0     H11996   8.305   9.269  -0.313 -0.9402 -0.0521 -2.8321
   87MOL0     H11997   8.139   9.307  -0.323 -0.3488 -0.8277  0.6545
   87MOL0     H11998   8.192   9.062  -0.348 -2.9983  1.2908 -2.2646
   87MOL0     H11999   8.243   9.070  -0.177  1.2740  1.7861 -0.8406
   87MOL0     H12000   8.004   9.137  -0.115  1.9932  0.1736 -0.5138
   87MOL0     H12001   8.010   8.983  -0.189 -1.6227 -1.0751 -2.9228
   87MOL0     H12002   7.817   9.173  -0.512  3.4108  3.0841 -2.4156
   87MOL0     H12003   8.293   9.698  -0.200  0.6349  1.8680  0.5853
   87MOL0     H12004   8.509   9.895  -0.113 -1.6815 -2.3544 -0.3142
   87MOL0     H12005   8.349   9.911  -0.177 -1.4892 -2.7101  0.5625
   87MOL0     H12006   8.379   9.995  -0.020  1.1766 -0.7573  1.7359
   88MOL0     O12007   6.676  10.127   5.751  0.4660  0.0845 -0.1063
   88MOL0     C12008   6.791  10.146   5.791  0.1780 -0.6854  0.2374
   88MOL0     O12009   6.910  10.154   5.711 -0.2272  0.8524 -0.3231
   88MOL0     C12010   6.909  10.101   5.578 -0.4497 -0.2198 -0.8940
   88MOL0     C12011   6.992  10.164   5.489  0.4789 -0.5053  0.0256
   88MOL0     C12012   7.003  10.125   5.357 -1.1949  0.3984  0.1521
   88MOL0     C12013   6.926  10.021   5.307 -0.6452  0.6529  0.2837
   88MOL0     O12014   6.921   9.972   5.176  0.7390 -0.5294 -0.0373
   88MOL0     C12015   7.005  10.035   5.080  0.7328  0.1270 -0.4370
   88MOL0     C12016   6.934  10.166   5.031  0.3152  0.2091  0.2350
   88MOL0     C12017   6.999  10.225   4.910  0.5437  0.2082 -0.3488
   88MOL0     C12018   7.133  10.295   4.932  0.2356 -0.0118 -0.0018
   88MOL0     C12019   7.173  10.408   4.837 -0.2529 -0.0641 -0.1730
   88MOL0     C12020   7.133  10.387   4.682 -0.4592  0.2766 -0.6059
   88MOL0     C12021   7.188  10.513   4.610 -0.9811 -0.0024 -0.4730
   88MOL0     C12022   7.337  10.509   4.581 -0.2106 -0.4249  0.0526
   88MOL0     N12023   7.377  10.646   4.532  0.1023  0.2610  0.2642
   88MOL0     C12024   7.298  10.724   4.452 -0.0010 -0.0362 -0.1260
   88MOL0     C12025   7.361  10.845   4.455 -0.9592  0.6874 -1.3245
   88MOL0     C12026   7.313  10.966   4.383 -0.3415 -0.2274 -1.0633
   88MOL0     C12027   7.231  11.044   4.466 -0.2186  0.3856 -0.8371
   88MOL0     C12028   7.297  11.171   4.524  0.4331  0.7571  0.7152
   88MOL0     C12029   7.342  11.265   4.421  0.5436  0.4929 -0.4249
   88MOL0     O12030   7.237  11.294   4.319  0.5801  0.4132  0.4398
   88MOL0     C12031   7.141  11.372   4.371 -0.3510 -0.0854 -0.0910
   88MOL0     C12032   7.149  11.513   4.383  0.1124 -0.1582  0.6071
   88MOL0     C12033   7.055  11.588   4.457 -0.1612  0.8844  0.5862
   88MOL0     C12034   7.096  11.737   4.461 -0.1087  0.4132  0.0890
   88MOL0     C12035   6.937  11.534   4.508  0.4394 -0.2499 -0.7053
   88MOL0     C12036   6.851  11.604   4.603  0.7074 -0.1098 -0.2928
   88MOL0     O12037   6.742  11.533   4.644  0.5832 -0.2249  0.3118
   88MOL0     C12038   6.658  11.576   4.737 -0.0461 -0.1239  0.9683
   88MOL0     C12039   6.655  11.532   4.875  0.0947  0.3337  0.9396
   88MOL0     C12040   6.571  11.585   4.968  0.0307  0.5789  0.7120
   88MOL0     C12041   6.479  11.681   4.920 -0.7965  0.6327 -1.0574
   88MOL0     O12042   6.415  11.751   5.026 -0.2550 -0.1241  0.3997
   88MOL0     C12043   6.281  11.728   5.030  0.0750 -0.0405  0.5064
   88MOL0     C12044   6.240  11.764   5.171 -0.0829  0.1375  0.2029
   88MOL0     C12045   6.093  11.738   5.185  0.4353 -0.4250  0.2316
   88MOL0     C12046   6.038  11.755   5.329 -0.3162  0.2320 -0.4921
   88MOL0     C12047   5.885  11.760   5.331 -0.2404 -0.1414 -1.2835
   88MOL0     C12048   5.831  11.768   5.479  0.4047 -0.2792 -0.9092
   88MOL0     C12049   5.683  11.802   5.496  0.2655  0.5355 -0.3645
   88MOL0     C12050   5.584  11.688   5.458 -0.5503 -0.1623 -0.0245
   88MOL0    Cl12051   5.414  11.734   5.457 -0.2292 -0.1175 -0.2026
   88MOL0     C12052   6.485  11.732   4.798  0.0399 -0.3942  0.0579
   88MOL0     C12053   6.575  11.682   4.703  0.9125  0.2713 -0.4297
   88MOL0     O12054   6.870  11.717   4.634 -0.4201  0.2825 -0.4538
   88MOL0     C12055   6.917  11.401   4.477  0.3111 -0.1978 -0.4987
   88MOL0     C12056   7.017  11.320   4.418 -0.6925  0.3247 -0.6331
   88MOL0     N12057   7.467  10.839   4.548  0.4194  0.1358 -0.7238
   88MOL0     N12058   7.480  10.722   4.585 -0.0022 -0.2147  0.4163
   88MOL0     C12059   6.852   9.957   5.396  0.8069  0.0412  0.4036
   88MOL0     C12060   6.829  10.000   5.530  0.5450  0.7361  0.8846
   88MOL0     C12061   6.821  10.151   5.938  0.5116 -0.6215 -0.5830
   88MOL0     C12062   6.948  10.166   5.981 -0.9187 -0.8155 -0.2617
   88MOL0     C12063   6.981  10.172   6.113 -0.9493 -0.8789  0.1658
   88MOL0     C12064   6.883  10.178   6.210 -0.1004 -0.2863 -0.2979
   88MOL0     O12065   6.937  10.198   6.337  0.0594  0.2227 -0.0757
   88MOL0     C12066   6.860  10.177   6.461 -0.4006 -0.1161  1.1628
   88MOL0     C12067   6.823  10.030   6.492 -0.9493 -0.0505  0.1830
   88MOL0     C12068   6.794   9.993   6.631  0.4760  0.7738  0.0454
   88MOL0     C12069   6.912   9.917   6.692  0.5974 -0.1784 -0.7873
   88MOL0     C12070   7.013  10.020   6.733  0.6213  0.4182  0.3565
   88MOL0     C12071   7.087  10.105   6.781 -0.4580  0.4943  1.3911
   88MOL0     C12072   6.742  10.161   6.180  0.1839  0.4584 -1.1848
   88MOL0     C12073   6.709  10.161   6.036 -0.8341 -0.6524 -1.1402
   88MOL0     C12074   6.559  10.169   6.001 -0.1202 -0.1255 -1.1548
   88MOL0     H12075   7.060  10.240   5.525  0.1860 -0.1498 -0.1593
   88MOL0     H12076   7.091  10.156   5.302 -1.0644 -0.4475 -0.1271
   88MOL0     H12077   7.020   9.964   4.998 -2.3048 -3.1635  1.5820
   88MOL0     H12078   7.103  10.056   5.124  0.1563 -1.7261  1.9667
   88MOL0     H12079   6.832  10.139   5.002  0.6864  0.6063 -1.5756
   88MOL0     H12080   6.947  10.229   5.119 -1.1633 -0.2449  0.8011
   88MOL0     H12081   7.002  10.146   4.834 -2.5323 -0.4939  0.1284
   88MOL0     H12082   6.932  10.308   4.884 -0.3536 -0.7504 -1.1868
   88MOL0     H12083   7.139  10.332   5.035  2.4539 -2.5678  0.9195
   88MOL0     H12084   7.214  10.224   4.912 -2.2518 -2.7028 -1.2597
   88MOL0     H12085   7.278  10.437   4.848 -0.3513 -0.1667  1.2209
   88MOL0     H12086   7.114  10.490   4.880 -2.0486 -1.0665 -0.6234
   88MOL0     H12087   7.173  10.298   4.632 -0.6439 -0.5234  0.6117
   88MOL0     H12088   7.025  10.376   4.677 -0.4073 -1.0383  0.4885
   88MOL0     H12089   7.176  10.602   4.672  0.8865 -1.3917  2.0682
   88MOL0     H12090   7.126  10.510   4.520  1.3651 -1.9595 -2.1455
   88MOL0     H12091   7.396  10.492   4.672  2.1086 -0.2890 -1.3440
   88MOL0     H12092   7.358  10.426   4.513  0.5813  0.1542 -0.4303
   88MOL0     H12093   7.206  10.701   4.399 -0.6358 -1.1339  1.4024
   88MOL0     H12094   7.254  10.933   4.297 -2.0632  3.1385 -1.3699
   88MOL0     H12095   7.395  11.033   4.354 -0.0009  0.9855  2.1701
   88MOL0     H12096   7.143  11.083   4.414 -0.3374  2.0264  0.5268
   88MOL0     H12097   7.190  10.987   4.550 -2.1168  1.6839 -0.8253
   88MOL0     H12098   7.239  11.230   4.595 -0.5159  1.2706 -0.4587
   88MOL0     H12099   7.386  11.131   4.574  0.4434  0.9835  0.8768
   88MOL0     H12100   7.372  11.359   4.468 -2.0379  1.7794 -1.1097
   88MOL0     H12101   7.433  11.232   4.370  0.6888  1.9545 -1.1964
   88MOL0     H12102   7.235  11.566   4.343  1.7443  0.6122  4.6350
   88MOL0     H12103   7.150  11.759   4.554  0.0134  0.6414 -0.0335
   88MOL0     H12104   7.006  11.797   4.447 -2.4559 -3.2288 -1.8983
   88MOL0     H12105   7.165  11.769   4.382 -0.3792  0.7291 -0.0216
   88MOL0     H12106   6.729  11.453   4.886  1.5966  0.5373 -4.6116
   88MOL0     H12107   6.573  11.561   5.074  0.8280 -0.7375  0.4160
   88MOL0     H12108   6.233  11.796   4.958  2.0708 -0.7939 -1.6710
   88MOL0     H12109   6.269  11.625   4.995  1.6954  0.1121 -0.6188
   88MOL0     H12110   6.296  11.705   5.244 -0.8447 -1.1144 -0.1917
   88MOL0     H12111   6.264  11.870   5.185 -1.5288  0.4928  0.1633
   88MOL0     H12112   6.053  11.644   5.145 -3.4838  2.0096 -2.2216
   88MOL0     H12113   6.054  11.829   5.139 -0.4312 -1.4411 -1.1244
   88MOL0     H12114   6.077  11.845   5.378  0.3570  0.2674 -1.0837
   88MOL0     H12115   6.073  11.676   5.395  0.8853  2.7851  2.1522
   88MOL0     H12116   5.849  11.851   5.282 -1.9771  0.4982  0.9815
   88MOL0     H12117   5.838  11.676   5.279 -0.4910 -0.6453 -0.2726
   88MOL0     H12118   5.878  11.849   5.535  1.9698 -3.2818  2.4692
   88MOL0     H12119   5.857  11.682   5.541  0.1836  0.6515  0.5276
   88MOL0     H12120   5.651  11.885   5.433  1.1728 -0.1968 -1.8522
   88MOL0     H12121   5.662  11.819   5.602  0.9750 -2.5879  0.3770
   88MOL0     H12122   5.594  11.604   5.527 -5.0654  0.2617  1.4775
   88MOL0     H12123   5.616  11.645   5.363  3.4757 -0.2076  1.1495
   88MOL0     H12124   6.417  11.807   4.757  0.2733 -1.1565 -1.8240
   88MOL0     H12125   6.581  11.712   4.599  0.7393  2.5793  0.1761
   88MOL0     H12126   6.834  11.343   4.514  1.4947 -2.4265 -1.1639
   88MOL0     H12127   6.997  11.219   4.382  2.0409 -0.8245  0.7746
   88MOL0     H12128   6.805   9.865   5.363  0.0687  1.4908 -3.0245
   88MOL0     H12129   6.761   9.950   5.597 -0.2752 -1.6326 -1.5303
   88MOL0     H12130   7.034  10.173   5.914 -0.4446  1.3671  0.5118
   88MOL0     H12131   7.082  10.186   6.149 -0.7768  1.4854 -1.0103
   88MOL0     H12132   6.918  10.209   6.548  0.9440 -0.1144  0.3012
   88MOL0     H12133   6.772  10.242   6.455 -0.2517 -0.0363 -2.0216
   88MOL0     H12134   6.903   9.968   6.452 -1.3465  1.1898 -2.7896
   88MOL0     H12135   6.729  10.011   6.440 -2.1784  2.6206  1.1958
   88MOL0     H12136   6.750  10.074   6.691  0.4345  1.0666 -0.3773
   88MOL0     H12137   6.714   9.920   6.620 -0.5925  2.1933 -2.3469
   88MOL0     H12138   6.956   9.848   6.619  1.0521  0.5487 -1.2175
   88MOL0     H12139   6.876   9.860   6.778  0.8826  1.7487  0.6880
   88MOL0     H12140   7.155  10.173   6.827  3.3885 -1.8968 -0.2007
   88MOL0     H12141   6.673  10.147   6.263  2.0448  0.2273  0.4058
   88MOL0     H12142   6.518  10.080   5.952 -0.4105 -1.2489  1.0289
   88MOL0     H12143   6.498  10.174   6.091  1.0423  2.5511 -0.4289
   88MOL0     H12144   6.537  10.256   5.939 -0.1112  0.8047  0.1082
   89MOL0     O12145  10.840   1.826   8.823 -0.0263 -0.2581  0.5516
   89MOL0     C12146  10.930   1.770   8.885 -0.0472  0.1976  0.0960
   89MOL0     O12147  10.934   1.761   9.023  0.7621  0.3361 -0.0737
   89MOL0     C12148  10.825   1.805   9.096  0.1038 -0.1100 -0.1596
   89MOL0     C12149  10.826   1.920   9.165  0.8314  0.2692  0.7364
   89MOL0     C12150  10.715   1.964   9.241  0.8290  0.1048 -0.5446
   89MOL0     C12151  10.591   1.890   9.239  0.3140 -0.4983  0.6719
   89MOL0     O12152  10.481   1.945   9.302 -0.2590 -0.9633  0.1979
   89MOL0     C12153  10.408   1.868   9.392 -0.4026  0.3727  0.0754
   89MOL0     C12154  10.283   1.799   9.328  0.4636 -0.0231 -0.0071
   89MOL0     C12155  10.195   1.914   9.280  0.5610 -0.0082  0.4999
   89MOL0     C12156  10.204   1.928   9.128 -0.2005  0.3317 -0.6090
   89MOL0     C12157  10.110   2.053   9.081 -0.3357  0.2260  0.0384
   89MOL0     C12158  10.125   2.106   8.939  0.1086 -0.4869  0.2315
   89MOL0     C12159  10.004   2.185   8.906  0.1118 -0.1484 -0.0125
   89MOL0     C12160  10.019   2.247   8.766 -0.4130 -0.2161 -0.2291
   89MOL0     N12161  10.014   2.149   8.654  0.9842  0.4383 -0.5173
   89MOL0     C12162   9.930   2.058   8.608  0.1435 -1.0723 -0.5359
   89MOL0     C12163   9.994   1.994   8.501  0.3222 -0.0638 -1.3622
   89MOL0     C12164   9.946   1.901   8.401 -0.2831  1.3773 -0.2498
   89MOL0     C12165   9.944   1.753   8.428  0.4569  0.0323  0.8285
   89MOL0     C12166   9.853   1.722   8.548 -0.7903  0.4665 -0.1211
   89MOL0     C12167   9.814   1.573   8.533  0.2758  0.2024  0.2786
   89MOL0     O12168   9.931   1.506   8.572 -0.1657  0.9979 -0.0922
   89MOL0     C12169   9.952   1.369   8.568 -0.0889  0.6902 -0.3976
   89MOL0     C12170   9.850   1.274   8.533 -0.3891 -0.0443  1.2487
   89MOL0     C12171   9.882   1.133   8.526  0.4642  0.4386 -0.1678
   89MOL0     C12172   9.772   1.032   8.488  0.1639  0.3020  0.2005
   89MOL0     C12173  10.014   1.092   8.560 -0.7916 -0.3585  0.3917
   89MOL0     C12174  10.069   0.953   8.558 -0.3263 -0.2499  0.2934
   89MOL0     O12175  10.194   0.929   8.504 -0.0320 -0.0167  0.2467
   89MOL0     C12176  10.235   0.798   8.510  0.5659  0.2596 -0.1805
   89MOL0     C12177  10.274   0.745   8.632 -0.3017  1.0736  0.0177
   89MOL0     C12178  10.327   0.608   8.633 -0.1996  0.1651  1.1714
   89MOL0     C12179  10.312   0.526   8.521 -1.0856  0.2710  0.0035
   89MOL0     O12180  10.342   0.392   8.535 -0.2223  0.1661 -0.3611
   89MOL0     C12181  10.283   0.302   8.442  0.4357  0.3017  0.5126
   89MOL0     C12182  10.269   0.160   8.491 -0.7128  0.2527  0.4226
   89MOL0     C12183  10.177   0.144   8.606  0.6818 -0.7555 -0.1747
   89MOL0     C12184  10.134   0.003   8.653  0.3738 -0.3035 -0.9135
   89MOL0     C12185   9.999  -0.009   8.723  0.5288 -1.0305  0.4078
   89MOL0     C12186   9.973  -0.148   8.798 -0.4392  1.1717  0.0441
   89MOL0     C12187   9.841  -0.144   8.883  0.0361 -0.5524  0.1612
   89MOL0     C12188   9.838  -0.249   8.994 -0.1616  0.2518 -0.6125
   89MOL0    Cl12189   9.950  -0.174   9.122  0.5739  0.0543  0.3245
   89MOL0     C12190  10.263   0.584   8.405 -0.7342 -0.6114  0.2628
   89MOL0     C12191  10.238   0.723   8.393 -0.2126  0.2441 -0.6031
   89MOL0     O12192   9.999   0.863   8.589  1.1006  0.4159 -0.6664
   89MOL0     C12193  10.111   1.195   8.586 -0.1575 -0.2081  0.8433
   89MOL0     C12194  10.076   1.327   8.587 -0.2460  0.0155  0.5154
   89MOL0     N12195  10.120   2.040   8.496 -0.0782  0.8185  0.0981
   89MOL0     N12196  10.129   2.130   8.584  0.3320  0.2745 -0.0474
   89MOL0     C12197  10.583   1.774   9.164 -0.9475 -0.9791  0.7140
   89MOL0     C12198  10.701   1.735   9.098  0.4279  0.1759  0.2071
   89MOL0     C12199  11.040   1.727   8.793 -1.2299 -0.0644  0.3755
   89MOL0     C12200  11.163   1.733   8.859 -0.8117  0.0783 -1.3474
   89MOL0     C12201  11.288   1.716   8.782 -0.2784  0.3172 -1.1169
   89MOL0     C12202  11.284   1.704   8.645 -0.9208  0.0331  0.7263
   89MOL0     O12203  11.399   1.692   8.564  0.7930 -0.1856  0.2428
   89MOL0     C12204  11.525   1.686   8.642  0.2272  0.9687  0.5995
   89MOL0     C12205  11.646   1.641   8.557  0.0075 -0.0039  0.6816
   89MOL0     C12206  11.629   1.504   8.491  0.1281  0.2324  0.3188
   89MOL0     C12207  11.743   1.398   8.510 -0.1057 -0.1599  0.7555
   89MOL0     C12208  11.755   1.330   8.646  0.2192  0.0336 -0.3811
   89MOL0     C12209  11.764   1.277   8.755 -0.3920 -0.1736  0.3448
   89MOL0     C12210  11.162   1.693   8.579  0.4286 -0.2131 -0.2649
   89MOL0     C12211  11.040   1.695   8.656 -0.0268  0.1905  0.7999
   89MOL0     C12212  10.914   1.642   8.591 -0.3936  1.0423  0.5546
   89MOL0     H12213  10.918   1.977   9.158  0.3189  0.9855 -0.4501
   89MOL0     H12214  10.732   2.052   9.302  0.5408 -0.2930  0.1141
   89MOL0     H12215  10.390   1.937   9.475  3.2233  0.1974  1.1546
   89MOL0     H12216  10.474   1.789   9.428  2.6349  0.7902 -3.8604
   89MOL0     H12217  10.305   1.731   9.245  1.2342  0.0264  0.1535
   89MOL0     H12218  10.238   1.731   9.401  0.5306 -2.9525 -2.4762
   89MOL0     H12219  10.091   1.904   9.311 -0.1985  3.2470 -0.5608
   89MOL0     H12220  10.202   2.015   9.324 -1.1911 -0.2499  1.4055
   89MOL0     H12221  10.307   1.940   9.093  0.1633 -1.2439 -0.1802
   89MOL0     H12222  10.181   1.829   9.088 -2.6176  0.1316  1.0855
   89MOL0     H12223  10.107   2.133   9.155  1.3911  0.1640  0.2184
   89MOL0     H12224  10.013   2.002   9.081 -0.5591  0.6064  1.8165
   89MOL0     H12225  10.211   2.174   8.938  0.9345 -1.5202 -0.2105
   89MOL0     H12226  10.138   2.031   8.861 -1.9743  0.1477 -0.8081
   89MOL0     H12227   9.999   2.265   8.981 -2.9362 -1.1566  1.0088
   89MOL0     H12228   9.920   2.117   8.926  0.9699 -0.6754  2.1063
   89MOL0     H12229   9.941   2.321   8.743  1.2207  1.5759 -0.2443
   89MOL0     H12230  10.115   2.297   8.751 -0.6688  0.4303  0.2375
   89MOL0     H12231   9.826   2.051   8.640  0.5872 -1.9412  0.7918
   89MOL0     H12232  10.007   1.905   8.310  1.7177 -2.0027  0.7802
   89MOL0     H12233   9.842   1.931   8.384 -2.0938 -2.4526  2.5865
   89MOL0     H12234   9.892   1.699   8.349  0.2379  0.5893  0.5879
   89MOL0     H12235  10.040   1.702   8.439 -0.8983 -2.7686  0.4861
   89MOL0     H12236   9.919   1.730   8.635  1.4880 -1.0059 -1.6223
   89MOL0     H12237   9.768   1.791   8.554 -2.0506 -0.8043 -2.2353
   89MOL0     H12238   9.727   1.550   8.595  1.6434 -0.7838  1.9127
   89MOL0     H12239   9.809   1.538   8.430  4.2329  0.2230 -0.0717
   89MOL0     H12240   9.750   1.312   8.513  0.2836  0.3621 -1.8982
   89MOL0     H12241   9.698   1.084   8.428 -0.3036 -0.1819  0.3476
   89MOL0     H12242   9.726   0.975   8.570 -0.0268 -1.2173 -0.9149
   89MOL0     H12243   9.809   0.956   8.419 -1.0685  0.0287 -0.1796
   89MOL0     H12244  10.264   0.806   8.721  0.4300  0.2799  0.6624
   89MOL0     H12245  10.385   0.575   8.718  1.6642  0.0555 -0.0925
   89MOL0     H12246  10.178   0.329   8.432 -0.6838 -3.4366  0.3612
   89MOL0     H12247  10.335   0.296   8.346  1.9534 -3.1031  1.3703
   89MOL0     H12248  10.225   0.110   8.404  0.7438 -0.4365  0.0528
   89MOL0     H12249  10.365   0.115   8.516 -0.3856 -0.1939 -1.4516
   89MOL0     H12250  10.085   0.200   8.585  0.3958 -1.8752 -2.2794
   89MOL0     H12251  10.233   0.191   8.687  1.0188 -0.3695 -0.6265
   89MOL0     H12252  10.210  -0.031   8.724 -0.7347 -0.7797  0.0826
   89MOL0     H12253  10.132  -0.066   8.569  1.9244 -2.1091  0.4500
   89MOL0     H12254   9.993   0.068   8.800 -0.0633 -1.7688  1.1245
   89MOL0     H12255   9.914   0.009   8.656 -0.8247  2.6316  2.8278
   89MOL0     H12256  10.059  -0.157   8.865  0.0785  0.3885 -0.7035
   89MOL0     H12257   9.972  -0.226   8.722 -0.8820  0.1043  1.1262
   89MOL0     H12258   9.763  -0.178   8.815 -1.8758 -0.5210  2.2166
   89MOL0     H12259   9.810  -0.044   8.916  1.4248  0.2309 -0.8119
   89MOL0     H12260   9.876  -0.346   8.959  1.1688  1.9889 -4.5827
   89MOL0     H12261   9.731  -0.251   9.017 -1.2734  1.9314 -4.7271
   89MOL0     H12262  10.250   0.533   8.310  0.6993  0.1120 -0.3580
   89MOL0     H12263  10.204   0.769   8.301  3.4879 -0.0416 -2.2700
   89MOL0     H12264  10.211   1.154   8.600  0.0671  0.5259  1.4596
   89MOL0     H12265  10.147   1.408   8.598  0.5291 -0.7023  0.9488
   89MOL0     H12266  10.491   1.721   9.141 -2.2459  0.3386  2.5857
   89MOL0     H12267  10.708   1.643   9.042  0.1237 -0.6025  1.3969
   89MOL0     H12268  11.167   1.762   8.964  2.0880  1.2403 -1.6949
   89MOL0     H12269  11.384   1.724   8.832 -0.2515  0.3763 -1.1780
   89MOL0     H12270  11.545   1.787   8.680  0.7678  1.8683 -1.8961
   89MOL0     H12271  11.505   1.618   8.726  0.3913 -1.0079 -0.9033
   89MOL0     H12272  11.738   1.634   8.617 -2.7963 -0.8997  5.4607
   89MOL0     H12273  11.647   1.713   8.476 -1.4061  0.4210  1.0188
   89MOL0     H12274  11.538   1.450   8.516  2.7235 -4.3632  0.8017
   89MOL0     H12275  11.619   1.527   8.384  0.0823  1.7605  0.6204
   89MOL0     H12276  11.839   1.449   8.496  0.7957 -0.9234  3.6012
   89MOL0     H12277  11.736   1.326   8.427  1.9068  0.7152 -0.2401
   89MOL0     H12278  11.774   1.229   8.850  1.4469 -1.5951 -0.5060
   89MOL0     H12279  11.171   1.664   8.474  2.0668 -0.8430  0.0277
   89MOL0     H12280  10.833   1.716   8.594 -2.7719 -1.4441  1.4782
   89MOL0     H12281  10.930   1.623   8.484 -0.3508  2.2217  0.3389
   89MOL0     H12282  10.877   1.557   8.649 -0.7728  0.8538  0.0411
   90MOL0     O12283   9.208   8.861   0.798 -0.3989  0.1783  0.0056
   90MOL0     C12284   9.295   8.780   0.810 -0.4597  0.5705  0.0334
   90MOL0     O12285   9.381   8.744   0.710 -0.6066 -0.4853  0.6759
   90MOL0     C12286   9.396   8.828   0.602  1.1404 -0.0532  0.2343
   90MOL0     C12287   9.303   8.832   0.500  1.1954 -0.3520 -0.1135
   90MOL0     C12288   9.334   8.906   0.379 -0.8391 -0.1584 -0.1703
   90MOL0     C12289   9.451   8.985   0.362  0.1318 -0.4806  0.3504
   90MOL0     O12290   9.479   9.062   0.250  0.2597 -0.5210 -0.7803
   90MOL0     C12291   9.376   9.158   0.210 -0.0509  0.2109  0.4943
   90MOL0     C12292   9.355   9.281   0.300 -0.1624  0.3762  0.5052
   90MOL0     C12293   9.475   9.377   0.303 -0.5920  1.1230  0.1731
   90MOL0     C12294   9.443   9.508   0.242  1.1563 -0.3831  0.7665
   90MOL0     C12295   9.563   9.600   0.211  0.4723 -0.0769  0.7182
   90MOL0     C12296   9.527   9.742   0.185  0.5249  0.2447  0.2812
   90MOL0     C12297   9.646   9.832   0.222 -0.4312 -0.1981 -0.6189
   90MOL0     C12298   9.616   9.983   0.172  0.4877  0.3246  0.1911
   90MOL0     N12299   9.486  10.028   0.224 -0.3226  0.2647  0.0032
   90MOL0     C12300   9.358  10.010   0.171 -0.7368 -0.1409 -0.1473
   90MOL0     C12301   9.272  10.015   0.279  0.1720 -1.0476  1.0373
   90MOL0     C12302   9.124   9.991   0.290 -0.5028 -0.5662  0.1757
   90MOL0     C12303   9.059   9.970   0.151 -0.1991  0.8555 -0.1864
   90MOL0     C12304   9.008  10.103   0.100 -0.3639 -0.5947  0.3951
   90MOL0     C12305   8.929  10.085  -0.033 -0.6122 -1.0326 -0.0320
   90MOL0     O12306   8.917  10.222  -0.085 -0.0628  0.0735  1.0119
   90MOL0     C12307   8.816  10.307  -0.038 -0.0002  0.7011 -0.1717
   90MOL0     C12308   8.722  10.268   0.055  0.0945 -0.1471 -0.8867
   90MOL0     C12309   8.618  10.361   0.096 -0.2059  0.7169  0.2158
   90MOL0     C12310   8.536  10.313   0.218 -0.3860  0.5291 -0.1381
   90MOL0     C12311   8.609  10.492   0.036  0.2565 -0.0467  0.3968
   90MOL0     C12312   8.493  10.588   0.065 -0.4675 -0.2832 -0.0474
   90MOL0     O12313   8.516  10.719   0.101 -0.4289 -1.1502 -0.3394
   90MOL0     C12314   8.421  10.811   0.081 -0.6688  0.1218 -0.7969
   90MOL0     C12315   8.416  10.884  -0.038  0.1224 -0.9236 -0.0508
   90MOL0     C12316   8.304  10.969  -0.067  0.5509 -1.0491  0.5386
   90MOL0     C12317   8.209  10.987   0.031  0.6865  0.3521 -0.3587
   90MOL0     O12318   8.114  11.084   0.007  0.2800  0.6116  0.3915
   90MOL0     C12319   7.977  11.045   0.009  0.1519  0.4014  0.3585
   90MOL0     C12320   7.905  11.137   0.114  0.8004  0.2509  0.2669
   90MOL0     C12321   7.884  11.283   0.078  0.0776  0.1274  0.1688
   90MOL0     C12322   7.760  11.287  -0.022  0.0202 -0.2386  0.2329
   90MOL0     C12323   7.760  11.405  -0.123 -0.7792 -0.2794 -0.8269
   90MOL0     C12324   7.798  11.550  -0.060  0.9531 -1.2285 -0.2054
   90MOL0     C12325   7.821  11.651  -0.175  0.6071  0.3303 -0.3056
   90MOL0     C12326   7.933  11.750  -0.127  0.1450  0.6445 -0.8277
   90MOL0    Cl12327   7.958  11.888  -0.238  0.1716 -0.0597 -0.0149
   90MOL0     C12328   8.211  10.908   0.144 -0.3153 -0.7648 -1.1706
   90MOL0     C12329   8.319  10.825   0.172 -0.0285  0.3251  0.8203
   90MOL0     O12330   8.387  10.539   0.027 -0.2984  0.1869 -1.0062
   90MOL0     C12331   8.703  10.525  -0.066 -0.6610 -0.7535  1.1280
   90MOL0     C12332   8.807  10.434  -0.100  0.6009  0.6900  0.0789
   90MOL0     N12333   9.352  10.066   0.379 -0.2270 -0.2176  0.7768
   90MOL0     N12334   9.473  10.076   0.346 -0.3889 -0.2132 -0.2023
   90MOL0     C12335   9.546   8.973   0.468 -0.8028  0.6883 -0.4357
   90MOL0     C12336   9.515   8.903   0.592  0.0074  1.1747 -0.1165
   90MOL0     C12337   9.291   8.704   0.936 -0.3487  0.0729 -0.1944
   90MOL0     C12338   9.391   8.604   0.953  0.4436 -1.3236 -0.3968
   90MOL0     C12339   9.388   8.522   1.067 -0.2527 -0.6393 -0.2600
   90MOL0     C12340   9.288   8.519   1.160 -0.2259 -0.1987 -0.5032
   90MOL0     O12341   9.286   8.416   1.251  0.1639 -0.6280 -0.7300
   90MOL0     C12342   9.199   8.424   1.370  0.1344 -0.1877 -1.3487
   90MOL0     C12343   9.282   8.487   1.492  0.5648 -0.3156 -0.0444
   90MOL0     C12344   9.407   8.393   1.515  0.6891 -0.2240 -0.2871
   90MOL0     C12345   9.509   8.468   1.603 -0.4303  0.4973  0.0104
   90MOL0     C12346   9.590   8.557   1.519 -0.6719 -0.0939 -0.9347
   90MOL0     C12347   9.653   8.628   1.446  0.0280  0.2355 -0.8468
   90MOL0     C12348   9.183   8.617   1.142 -0.5785 -0.4459 -0.3081
   90MOL0     C12349   9.188   8.714   1.036 -0.5751 -0.8858 -0.3129
   90MOL0     C12350   9.072   8.811   1.015 -1.0935  0.4839 -0.1666
   90MOL0     H12351   9.213   8.774   0.515 -0.0598  1.1391 -1.5408
   90MOL0     H12352   9.280   8.896   0.286 -2.6514 -2.8969  1.0549
   90MOL0     H12353   9.289   9.093   0.205  0.0255  0.0685  1.0374
   90MOL0     H12354   9.402   9.183   0.106  1.6102 -0.1022  0.8130
   90MOL0     H12355   9.271   9.340   0.263 -0.1206 -2.1094 -4.2067
   90MOL0     H12356   9.337   9.227   0.394  0.5476  0.5684  0.7562
   90MOL0     H12357   9.499   9.390   0.409  1.8207  0.0174 -0.1729
   90MOL0     H12358   9.560   9.328   0.255 -0.9006 -0.5024  1.2138
   90MOL0     H12359   9.400   9.489   0.144  0.5496 -3.3021  1.4922
   90MOL0     H12360   9.375   9.562   0.310  0.3709 -1.5725  0.9618
   90MOL0     H12361   9.607   9.573   0.115 -0.7512 -1.7082  0.5663
   90MOL0     H12362   9.634   9.582   0.292  1.2282  0.3487  0.1559
   90MOL0     H12363   9.481   9.767   0.089  1.4747  0.0300 -0.2369
   90MOL0     H12364   9.458   9.771   0.264  1.4524  1.4548  0.6703
   90MOL0     H12365   9.731   9.789   0.169  0.2364  0.7002 -0.3042
   90MOL0     H12366   9.668   9.825   0.329  1.4667  3.0539 -0.6370
   90MOL0     H12367   9.693  10.055   0.202 -0.3143  1.2664  0.0361
   90MOL0     H12368   9.620   9.966   0.064  0.6717 -0.7321  0.3553
   90MOL0     H12369   9.329   9.987   0.069  1.2226 -0.9773 -0.5551
   90MOL0     H12370   9.065  10.075   0.327  0.2294  0.6206 -1.3078
   90MOL0     H12371   9.098   9.911   0.361  2.8452 -1.8974  0.1015
   90MOL0     H12372   9.127   9.922   0.081  0.6286 -0.0047  1.1531
   90MOL0     H12373   8.978   9.899   0.173  2.2489 -2.1833 -0.3318
   90MOL0     H12374   8.949  10.160   0.172  0.9782  1.9628 -0.3825
   90MOL0     H12375   9.101  10.157   0.079  0.5692 -1.7851  1.3266
   90MOL0     H12376   8.995  10.031  -0.101  1.0449  0.7762  0.0733
   90MOL0     H12377   8.834  10.036  -0.006 -1.2334  1.3260  2.4857
   90MOL0     H12378   8.739  10.179   0.114  1.0715  1.5016  1.5182
   90MOL0     H12379   8.540  10.204   0.208 -0.9477  0.3568  1.2939
   90MOL0     H12380   8.431  10.344   0.212 -0.1621  1.0616 -2.4373
   90MOL0     H12381   8.576  10.347   0.314  1.0173 -2.1177  0.3228
   90MOL0     H12382   8.494  10.876  -0.113 -0.2101 -0.9307 -0.3974
   90MOL0     H12383   8.292  11.027  -0.158 -1.8160 -0.7152  0.9844
   90MOL0     H12384   7.936  11.044  -0.092  3.2200 -0.2833 -0.9945
   90MOL0     H12385   7.981  10.939   0.033 -1.8721 -0.1848 -1.5948
   90MOL0     H12386   7.804  11.099   0.135  0.5602  1.2901  1.0713
   90MOL0     H12387   7.962  11.144   0.206 -2.7078 -0.5136  2.7343
   90MOL0     H12388   7.973  11.324   0.029  0.4449 -2.7461 -1.7840
   90MOL0     H12389   7.861  11.339   0.169 -2.1013  0.4600 -0.5358
   90MOL0     H12390   7.668  11.298   0.036  0.3645  0.6343  0.6273
   90MOL0     H12391   7.739  11.192  -0.072  0.1751 -1.9137  3.1410
   90MOL0     H12392   7.832  11.393  -0.205  0.3565  0.4050  0.0277
   90MOL0     H12393   7.659  11.408  -0.163 -1.2102 -0.1810  0.2358
   90MOL0     H12394   7.883  11.556   0.008  1.3604 -1.0077 -0.7362
   90MOL0     H12395   7.718  11.584   0.006  2.1973 -0.6608  1.0569
   90MOL0     H12396   7.734  11.718  -0.183 -0.6972 -1.1851  0.6647
   90MOL0     H12397   7.842  11.594  -0.266 -1.0124  1.4989 -1.4794
   90MOL0     H12398   8.022  11.686  -0.126 -1.7329 -2.3775  3.3030
   90MOL0     H12399   7.907  11.781  -0.026 -0.4793 -0.4830 -0.6246
   90MOL0     H12400   8.151  10.917   0.234  1.3446  0.1113 -0.0984
   90MOL0     H12401   8.325  10.782   0.272 -1.4268 -1.3059  0.2744
   90MOL0     H12402   8.682  10.617  -0.120 -1.8004 -1.7225 -0.1668
   90MOL0     H12403   8.866  10.478  -0.180 -1.6585  2.2268 -0.8353
   90MOL0     H12404   9.638   9.029   0.456  0.2383 -1.2221 -2.0144
   90MOL0     H12405   9.589   8.900   0.671  0.8016 -0.0417 -0.8544
   90MOL0     H12406   9.470   8.599   0.879  0.6301 -1.6863 -0.1820
   90MOL0     H12407   9.473   8.459   1.088 -0.2424  0.2808  3.0927
   90MOL0     H12408   9.104   8.476   1.360  0.3299  0.1528 -1.4438
   90MOL0     H12409   9.191   8.317   1.389  3.6221 -0.9075 -3.0375
   90MOL0     H12410   9.219   8.497   1.581 -1.0521  0.2515 -1.2243
   90MOL0     H12411   9.317   8.587   1.465  0.0444  0.8049  3.0331
   90MOL0     H12412   9.387   8.297   1.563 -1.1134  0.4251  0.3464
   90MOL0     H12413   9.461   8.377   1.421  1.7918 -1.8489  0.5705
   90MOL0     H12414   9.576   8.404   1.661 -0.3031  0.0167 -0.6542
   90MOL0     H12415   9.462   8.526   1.684  1.8721 -1.2011  2.7634
   90MOL0     H12416   9.711   8.688   1.379  2.4538 -0.2103  0.7295
   90MOL0     H12417   9.102   8.635   1.211  1.1372  1.6293  1.3019
   90MOL0     H12418   9.013   8.807   1.107  0.7155  2.9685  1.2242
   90MOL0     H12419   9.119   8.910   1.017 -0.8223  0.4460 -2.2861
   90MOL0     H12420   9.010   8.789   0.927 -1.9466 -2.9950  1.1394
   91MOL0     O12421   6.919   8.025   2.153  0.3244  0.3027  0.1001
   91MOL0     C12422   6.929   8.040   2.030 -0.1274  1.0295  0.6070
   91MOL0     O12423   7.044   8.006   1.960 -0.2245 -0.8829 -0.3182
   91MOL0     C12424   7.160   7.978   2.031 -0.6560  0.3261  0.1234
   91MOL0     C12425   7.232   7.865   1.988 -0.4560  0.1158 -0.1429
   91MOL0     C12426   7.351   7.825   2.059 -1.3284  0.2964  1.0955
   91MOL0     C12427   7.416   7.909   2.149 -0.1297  0.5081 -0.5467
   91MOL0     O12428   7.527   7.880   2.232  0.7663 -0.6602 -0.2519
   91MOL0     C12429   7.585   7.751   2.218 -0.4883 -0.3781 -0.1384
   91MOL0     C12430   7.713   7.761   2.309  0.3744 -0.4514  0.9321
   91MOL0     C12431   7.839   7.818   2.232 -0.3839 -0.5905  0.3844
   91MOL0     C12432   7.964   7.837   2.319  0.3512 -0.2112  0.2138
   91MOL0     C12433   8.022   7.705   2.382  0.2964 -0.0720 -0.0695
   91MOL0     C12434   8.084   7.620   2.279 -0.1979 -0.0498  0.7491
   91MOL0     C12435   8.216   7.673   2.229  0.8563  0.1514 -0.6201
   91MOL0     C12436   8.305   7.568   2.176 -0.1104 -0.9369  0.3192
   91MOL0     N12437   8.444   7.609   2.157 -0.2573  0.2797 -0.1877
   91MOL0     C12438   8.494   7.700   2.069 -0.5847  1.1276  0.0639
   91MOL0     C12439   8.617   7.729   2.110 -0.3311  0.5186  0.0560
   91MOL0     C12440   8.725   7.807   2.030  0.4526  0.0850 -0.4519
   91MOL0     C12441   8.731   7.956   2.038 -0.5259 -1.2608  0.8356
   91MOL0     C12442   8.698   8.027   1.905 -0.0395 -0.3175  0.0920
   91MOL0     C12443   8.694   8.175   1.918  1.4334 -0.8094 -0.6934
   91MOL0     O12444   8.594   8.220   2.000  0.3585 -0.9607 -0.4872
   91MOL0     C12445   8.546   8.341   1.973  0.1993 -0.2316 -0.0533
   91MOL0     C12446   8.626   8.440   1.945 -0.1194 -0.8614  0.0636
   91MOL0     C12447   8.572   8.570   1.934 -0.0173 -0.1676 -1.3369
   91MOL0     C12448   8.665   8.689   1.900 -0.0508 -0.2529  0.6466
   91MOL0     C12449   8.429   8.590   1.945 -1.0247 -0.5898  1.4795
   91MOL0     C12450   8.370   8.725   1.926  0.1946  0.5666 -0.7943
   91MOL0     O12451   8.403   8.821   2.013 -0.6400 -0.4003  0.5568
   91MOL0     C12452   8.348   8.948   1.997  0.4486 -0.2442 -0.3960
   91MOL0     C12453   8.426   9.062   1.988 -0.0938  0.1367 -0.4457
   91MOL0     C12454   8.366   9.194   1.984  0.2509 -0.2866  0.3077
   91MOL0     C12455   8.229   9.206   2.009  1.0742 -0.2100 -0.4511
   91MOL0     O12456   8.167   9.328   2.025  0.5944  0.6751  0.2625
   91MOL0     C12457   8.248   9.436   2.076  0.6017  0.8810  0.0914
   91MOL0     C12458   8.143   9.539   2.134  0.9802 -0.1536  0.0982
   91MOL0     C12459   8.213   9.654   2.211  0.0340  0.0694 -0.5542
   91MOL0     C12460   8.316   9.735   2.128  0.6071  0.4312  0.2541
   91MOL0     C12461   8.455   9.681   2.128 -0.2201  0.1525  0.2916
   91MOL0     C12462   8.530   9.772   2.029  0.1098 -0.5861 -0.1713
   91MOL0     C12463   8.684   9.758   2.054 -0.6512 -0.3927 -0.2517
   91MOL0     C12464   8.744   9.857   2.158  0.2025 -0.5745 -0.3831
   91MOL0    Cl12465   8.917   9.839   2.154  0.1635 -0.2942  0.5521
   91MOL0     C12466   8.155   9.091   2.016 -0.7660  0.4673 -0.3609
   91MOL0     C12467   8.209   8.969   2.021 -0.0524 -0.2130 -0.6724
   91MOL0     O12468   8.309   8.740   1.823  0.3376  0.4557  0.1141
   91MOL0     C12469   8.343   8.488   1.968 -0.1580  0.5406 -0.6525
   91MOL0     C12470   8.400   8.363   1.986 -0.1877 -0.0487  0.8822
   91MOL0     N12471   8.634   7.659   2.233 -0.6419  0.0819 -0.2292
   91MOL0     N12472   8.522   7.592   2.267 -0.0917 -1.0380 -0.1476
   91MOL0     C12473   7.358   8.034   2.171 -0.2311  1.3465 -1.3544
   91MOL0     C12474   7.233   8.067   2.114  0.5712  0.8993 -0.7172
   91MOL0     C12475   6.823   8.123   1.965 -0.2544 -0.6118 -0.2761
   91MOL0     C12476   6.861   8.201   1.854 -0.0185 -0.3793 -1.0740
   91MOL0     C12477   6.775   8.291   1.798  0.1645 -0.6522 -0.8997
   91MOL0     C12478   6.651   8.320   1.852 -0.7642  0.2105 -0.0111
   91MOL0     O12479   6.582   8.431   1.804  0.4486  0.1345  0.1603
   91MOL0     C12480   6.458   8.471   1.871  0.4910 -0.0998  0.0472
   91MOL0     C12481   6.481   8.521   2.005  0.0297 -1.0411  0.2552
   91MOL0     C12482   6.483   8.672   1.997 -0.3968  0.1536  0.7031
   91MOL0     C12483   6.529   8.716   2.139 -1.4513  0.0983  0.2290
   91MOL0     C12484   6.596   8.846   2.129 -0.5331 -0.4219 -0.3395
   91MOL0     C12485   6.647   8.951   2.111  0.3307 -0.4435  0.1693
   91MOL0     C12486   6.604   8.226   1.938  0.2349  0.0427  0.3981
   91MOL0     C12487   6.686   8.126   1.996  0.1167 -0.2822  0.1237
   91MOL0     C12488   6.622   8.032   2.095 -0.2881  0.5564  0.0527
   91MOL0     H12489   7.194   7.791   1.918  1.1455 -0.4199 -0.4888
   91MOL0     H12490   7.393   7.728   2.035 -0.8644  0.2400  2.0571
   91MOL0     H12491   7.623   7.713   2.122 -1.2248 -0.6959 -0.3124
   91MOL0     H12492   7.507   7.687   2.260  1.1525 -1.7520  0.9282
   91MOL0     H12493   7.687   7.828   2.391 -0.9414 -0.1963  0.3348
   91MOL0     H12494   7.735   7.658   2.339 -2.6305 -1.0107  1.5161
   91MOL0     H12495   7.865   7.752   2.149 -2.8087  1.0954 -1.9008
   91MOL0     H12496   7.813   7.919   2.198  4.5259  0.6221 -0.3976
   91MOL0     H12497   8.040   7.878   2.252  2.7382 -0.8112  2.3862
   91MOL0     H12498   7.946   7.912   2.396  2.3486  0.4919  0.0570
   91MOL0     H12499   7.937   7.650   2.424 -0.9117 -0.1633 -2.4378
   91MOL0     H12500   8.093   7.722   2.463 -1.5475  1.0359  1.3798
   91MOL0     H12501   8.108   7.527   2.331  1.7285  0.2615  0.4887
   91MOL0     H12502   8.009   7.593   2.205 -0.1324 -2.2412  1.3972
   91MOL0     H12503   8.267   7.719   2.315 -3.0345  2.2263  0.8499
   91MOL0     H12504   8.210   7.745   2.147  3.9567  0.3307 -0.7982
   91MOL0     H12505   8.305   7.469   2.223  3.9852 -1.4313 -0.3402
   91MOL0     H12506   8.277   7.533   2.076  0.2929 -0.9024  0.1887
   91MOL0     H12507   8.438   7.726   1.979 -0.2024 -2.0423 -1.2067
   91MOL0     H12508   8.709   7.784   1.924 -3.1665  0.6079 -0.1322
   91MOL0     H12509   8.823   7.765   2.053  1.0747  0.8842 -1.5489
   91MOL0     H12510   8.670   7.997   2.120 -0.8988 -0.4125  0.1550
   91MOL0     H12511   8.833   7.989   2.058 -0.7604  0.2572 -0.2219
   91MOL0     H12512   8.778   7.994   1.838 -0.4608  1.5590 -1.4175
   91MOL0     H12513   8.606   7.988   1.860 -0.2566  0.8700 -0.5247
   91MOL0     H12514   8.784   8.218   1.961  0.1438  2.2055 -0.7237
   91MOL0     H12515   8.675   8.224   1.821 -1.7462  1.6367  0.9447
   91MOL0     H12516   8.733   8.422   1.940 -0.2922 -2.3470  1.0027
   91MOL0     H12517   8.651   8.755   1.986  0.5167 -0.5994  1.0082
   91MOL0     H12518   8.620   8.741   1.815 -0.6935 -4.4080 -1.8005
   91MOL0     H12519   8.771   8.682   1.877 -0.1307 -0.3976  0.3161
   91MOL0     H12520   8.532   9.044   1.974 -0.1337 -0.3349 -0.1623
   91MOL0     H12521   8.431   9.279   1.963  2.8063 -2.6713 -2.3200
   91MOL0     H12522   8.318   9.404   2.153  0.6720  0.7404 -0.0291
   91MOL0     H12523   8.303   9.471   1.988  1.2523 -0.4981 -0.0769
   91MOL0     H12524   8.090   9.577   2.046  0.4170  0.9939  0.9152
   91MOL0     H12525   8.068   9.482   2.190  0.5075  0.0748 -0.2952
   91MOL0     H12526   8.257   9.622   2.306 -0.6970 -0.1957 -0.2941
   91MOL0     H12527   8.128   9.714   2.242 -0.1094 -0.2279 -0.3590
   91MOL0     H12528   8.304   9.838   2.163 -0.1562  1.2371 -2.1936
   91MOL0     H12529   8.289   9.742   2.022 -1.8119  0.3710  0.8169
   91MOL0     H12530   8.507   9.690   2.224  0.1756  2.2058 -0.0764
   91MOL0     H12531   8.466   9.578   2.093  0.1952  0.3012 -0.0270
   91MOL0     H12532   8.494   9.872   2.051 -0.1027 -0.8016  0.5048
   91MOL0     H12533   8.500   9.752   1.926 -0.7743  2.8037 -0.6676
   91MOL0     H12534   8.726   9.788   1.957  0.2583 -2.5259 -0.5818
   91MOL0     H12535   8.725   9.660   2.080  3.1108  0.9912 -0.3721
   91MOL0     H12536   8.719   9.827   2.261 -0.0162 -2.1983 -0.8885
   91MOL0     H12537   8.709   9.960   2.149 -1.4728 -1.0682  0.1044
   91MOL0     H12538   8.049   9.088   2.037 -0.8808 -2.1180 -1.0336
   91MOL0     H12539   8.150   8.880   2.041  0.3874 -0.2489  0.5174
   91MOL0     H12540   8.235   8.499   1.975 -0.2041  0.3617 -1.0764
   91MOL0     H12541   8.334   8.287   2.026 -2.3991  2.3774  2.1145
   91MOL0     H12542   7.404   8.101   2.243 -1.5342  1.7070 -0.8417
   91MOL0     H12543   7.178   8.159   2.131  1.0477  1.3062 -1.3180
   91MOL0     H12544   6.957   8.178   1.809 -0.2171 -0.7335 -1.3178
   91MOL0     H12545   6.818   8.352   1.718  2.1817  0.9158  1.2242
   91MOL0     H12546   6.421   8.551   1.804  0.2989  0.6231  0.9918
   91MOL0     H12547   6.383   8.391   1.868 -1.7199  1.8429 -1.8025
   91MOL0     H12548   6.572   8.483   2.050  0.1914  0.1046  0.9422
   91MOL0     H12549   6.397   8.491   2.069 -0.7952  1.4179  0.4594
   91MOL0     H12550   6.553   8.703   1.919  0.0974 -0.2833  0.9702
   91MOL0     H12551   6.383   8.716   1.986 -2.0503 -2.8263  2.6083
   91MOL0     H12552   6.597   8.642   2.182 -2.4925  0.2923  2.3391
   91MOL0     H12553   6.449   8.716   2.214  1.3795 -0.6402  3.4499
   91MOL0     H12554   6.682   9.047   2.078 -0.6859  0.4593  1.5979
   91MOL0     H12555   6.500   8.231   1.970  0.5660  0.1184  1.4865
   91MOL0     H12556   6.638   7.925   2.083 -0.3552  0.4232  1.0862
   91MOL0     H12557   6.658   8.047   2.197  0.0591  2.6959 -0.3429
   91MOL0     H12558   6.516   8.055   2.114 -0.1723  0.1545  1.2540
   92MOL0     O12559   1.058   7.555   1.226  0.1203  0.1615  0.2345
   92MOL0     C12560   0.979   7.472   1.192  0.0696  0.1364 -1.3793
   92MOL0     O12561   1.010   7.345   1.172  0.1695 -0.6751 -0.0885
   92MOL0     C12562   1.133   7.297   1.179 -1.4993  0.6525 -0.2702
   92MOL0     C12563   1.232   7.328   1.081 -0.2523 -0.1360  0.3039
   92MOL0     C12564   1.356   7.269   1.086 -0.0079  1.0265  0.8811
   92MOL0     C12565   1.398   7.203   1.201  0.2412  0.1154  1.5221
   92MOL0     O12566   1.525   7.134   1.211  0.7994  0.8741 -0.0497
   92MOL0     C12567   1.630   7.145   1.121 -0.7429  0.0838  0.3255
   92MOL0     C12568   1.741   7.046   1.171 -0.6788 -0.0882  0.2848
   92MOL0     C12569   1.877   7.071   1.089 -0.5700 -0.0039  0.7141
   92MOL0     C12570   1.961   7.177   1.158 -0.5008  0.5716  0.1044
   92MOL0     C12571   2.052   7.090   1.246 -0.4589  0.2512 -0.5580
   92MOL0     C12572   2.116   7.172   1.366 -0.1047  0.2193  0.2651
   92MOL0     C12573   2.030   7.182   1.491 -0.3362  0.4633 -0.6371
   92MOL0     C12574   2.114   7.237   1.603 -1.1522  0.1576  1.1524
   92MOL0     N12575   2.035   7.272   1.726  0.8111 -0.0011  0.0635
   92MOL0     C12576   1.964   7.197   1.816  0.4667  0.1371  0.5175
   92MOL0     C12577   1.887   7.278   1.891 -0.6753 -0.0714  0.3898
   92MOL0     C12578   1.773   7.216   1.967 -0.5787 -0.1544  0.3139
   92MOL0     C12579   1.828   7.212   2.108 -0.3926  0.5075  0.5951
   92MOL0     C12580   1.721   7.146   2.203  0.2495  0.0172  0.3089
   92MOL0     C12581   1.768   7.141   2.356 -0.3094  1.1160  0.2209
   92MOL0     O12582   1.705   7.245   2.432  0.0127  0.1327 -0.5219
   92MOL0     C12583   1.755   7.364   2.402  0.6100  0.5600  0.3815
   92MOL0     C12584   1.874   7.403   2.460 -0.6928 -0.0936 -0.4476
   92MOL0     C12585   1.939   7.518   2.433 -0.0290 -1.1365  0.1288
   92MOL0     C12586   2.076   7.533   2.488  0.4224  0.1599  0.2069
   92MOL0     C12587   1.882   7.605   2.340  0.2189  0.5815 -0.6864
   92MOL0     C12588   1.935   7.731   2.293  0.3185  1.0364 -0.3312
   92MOL0     O12589   1.860   7.784   2.194  0.2225  0.3765 -0.9751
   92MOL0     C12590   1.911   7.896   2.130  0.1758 -0.0784 -0.0695
   92MOL0     C12591   1.974   7.906   2.000 -0.4025  0.1636  0.3545
   92MOL0     C12592   2.003   8.031   1.939  0.0406  0.1377 -0.8198
   92MOL0     C12593   1.983   8.148   2.011 -0.0023  0.1583 -0.4283
   92MOL0     O12594   2.004   8.268   1.951 -0.5159  0.0011  0.7270
   92MOL0     C12595   2.001   8.395   2.021  0.9522  1.2929 -0.0222
   92MOL0     C12596   2.009   8.506   1.924 -0.4216 -0.3140  0.5871
   92MOL0     C12597   1.987   8.643   1.982  0.9076 -1.1467 -0.2067
   92MOL0     C12598   2.044   8.748   1.885 -0.0687  1.5833  0.3788
   92MOL0     C12599   1.982   8.891   1.887 -0.0759  1.0819  0.0554
   92MOL0     C12600   2.053   8.990   1.800 -0.9118  0.2832 -0.0798
   92MOL0     C12601   2.192   9.032   1.863 -0.0609 -0.0709  0.2916
   92MOL0     C12602   2.252   9.142   1.783  0.8561  0.1580  0.0158
   92MOL0    Cl12603   2.430   9.159   1.838  0.1190 -0.3992  0.1806
   92MOL0     C12604   1.924   8.141   2.143 -0.6489  0.7716 -0.4880
   92MOL0     C12605   1.886   8.016   2.199 -0.3018 -0.3436 -0.7300
   92MOL0     O12606   2.042   7.771   2.331  0.1718  0.1297 -0.0168
   92MOL0     C12607   1.754   7.566   2.289  0.3011 -0.1316  0.0159
   92MOL0     C12608   1.692   7.449   2.323  0.2027 -0.5018  1.5123
   92MOL0     N12609   1.917   7.403   1.848  0.0468 -0.0004 -0.1916
   92MOL0     N12610   2.015   7.405   1.757 -0.9340 -0.2505  0.2554
   92MOL0     C12611   1.305   7.184   1.306 -0.2149  0.3393 -0.1464
   92MOL0     C12612   1.171   7.229   1.299 -0.1352  0.2046  0.4757
   92MOL0     C12613   0.834   7.508   1.174 -0.7998  0.0342 -0.1902
   92MOL0     C12614   0.761   7.420   1.101  0.5774  0.5844  0.3447
   92MOL0     C12615   0.622   7.429   1.083 -0.2897  0.8709 -0.7944
   92MOL0     C12616   0.556   7.545   1.134 -0.0196  0.5753 -0.2265
   92MOL0     O12617   0.428   7.575   1.107  0.2701  0.1701  0.4635
   92MOL0     C12618   0.339   7.466   1.060 -0.5941 -0.0379  0.5844
   92MOL0     C12619   0.310   7.344   1.149  0.0786  0.0416 -0.7744
   92MOL0     C12620   0.243   7.410   1.271 -0.5135  0.2216  0.3286
   92MOL0     C12621   0.183   7.303   1.361 -0.2485  0.0710  0.1483
   92MOL0     C12622   0.092   7.212   1.285 -0.0094 -0.1112 -0.0345
   92MOL0     C12623   0.016   7.154   1.204 -0.0746  0.2250  0.0877
   92MOL0     C12624   0.631   7.647   1.179 -1.3937 -0.0071 -0.4045
   92MOL0     C12625   0.769   7.628   1.204 -0.3882 -0.1755 -0.0098
   92MOL0     C12626   0.839   7.742   1.269 -1.0178 -0.6063  0.3547
   92MOL0     H12627   1.213   7.386   0.991  2.9028  3.2185  1.5339
   92MOL0     H12628   1.423   7.285   1.002 -2.8759  0.0420 -1.7706
   92MOL0     H12629   1.665   7.249   1.113  0.1886 -0.2189  0.3922
   92MOL0     H12630   1.593   7.117   1.022  0.2033 -3.2680  0.7978
   92MOL0     H12631   1.755   7.061   1.278  1.6539  0.6292 -0.0625
   92MOL0     H12632   1.711   6.949   1.133  0.8450  0.0329 -1.3628
   92MOL0     H12633   1.939   6.983   1.072  3.6005  2.5040  1.5644
   92MOL0     H12634   1.845   7.117   0.995 -0.4794  1.4185  1.3556
   92MOL0     H12635   2.013   7.240   1.084  2.4645 -0.6083  1.0448
   92MOL0     H12636   1.903   7.251   1.215 -1.8702 -1.9019  2.1252
   92MOL0     H12637   2.144   7.062   1.194  0.0441  2.5104 -0.9971
   92MOL0     H12638   2.004   7.002   1.289  0.9104 -0.0922  0.3401
   92MOL0     H12639   2.218   7.139   1.388  1.5200  3.5695 -1.5158
   92MOL0     H12640   2.139   7.275   1.338  0.8927 -0.6854 -2.6534
   92MOL0     H12641   2.002   7.081   1.522  0.1386  0.3991 -0.4104
   92MOL0     H12642   1.941   7.244   1.479 -0.4228  0.4334 -0.1738
   92MOL0     H12643   2.208   7.186   1.628 -0.0803  0.3498 -2.0868
   92MOL0     H12644   2.147   7.331   1.559 -0.8576 -0.6985 -0.5630
   92MOL0     H12645   1.971   7.089   1.811 -1.6403  0.0010 -2.7056
   92MOL0     H12646   1.763   7.111   1.939 -1.6405  0.0960 -0.2954
   92MOL0     H12647   1.672   7.256   1.952 -1.0982 -2.0814 -1.6689
   92MOL0     H12648   1.929   7.169   2.113 -0.1471  1.0169  0.1775
   92MOL0     H12649   1.848   7.318   2.126 -3.6514  1.2585  0.4258
   92MOL0     H12650   1.630   7.205   2.193  0.1354 -0.4877 -2.6694
   92MOL0     H12651   1.686   7.045   2.183  2.3914 -1.0829  1.7864
   92MOL0     H12652   1.737   7.046   2.401 -0.5044  1.1688  0.1990
   92MOL0     H12653   1.877   7.148   2.359 -0.3667  1.8551  1.3767
   92MOL0     H12654   1.919   7.335   2.533  1.4833  3.2974  1.6304
   92MOL0     H12655   2.096   7.460   2.567  0.2060 -2.4132 -1.9457
   92MOL0     H12656   2.080   7.631   2.535 -1.4636  1.4010 -2.0150
   92MOL0     H12657   2.156   7.526   2.414  1.2485  0.3568  1.0591
   92MOL0     H12658   1.989   7.819   1.938 -1.0171  2.4569 -3.3193
   92MOL0     H12659   2.057   8.053   1.848  3.0266  0.0508  0.7978
   92MOL0     H12660   1.929   8.409   2.102  2.8933 -1.9357  2.4812
   92MOL0     H12661   2.098   8.395   2.072  1.8003 -1.5292 -1.4124
   92MOL0     H12662   2.108   8.499   1.878 -0.4786  4.4295 -0.8293
   92MOL0     H12663   1.933   8.498   1.844  0.9089  2.1142 -1.0541
   92MOL0     H12664   2.041   8.660   2.076  3.0271 -0.6342 -1.4314
   92MOL0     H12665   1.882   8.650   2.010  0.7497 -3.4855 -0.0116
   92MOL0     H12666   2.032   8.715   1.781 -1.6616 -1.2193  1.3592
   92MOL0     H12667   2.153   8.747   1.897  0.3029  0.4329 -2.2986
   92MOL0     H12668   1.878   8.888   1.853 -1.7189  1.8593  4.3235
   92MOL0     H12669   1.963   8.909   1.993 -2.6478  1.1796 -0.3434
   92MOL0     H12670   1.995   9.083   1.803  1.1530  1.6239  1.5514
   92MOL0     H12671   2.064   8.953   1.698 -0.9276  3.3986 -1.3072
   92MOL0     H12672   2.273   8.959   1.854  0.6894  0.5647  1.5148
   92MOL0     H12673   2.173   9.061   1.967 -1.4421  1.6776 -0.3973
   92MOL0     H12674   2.198   9.235   1.801  0.8045  0.1965 -0.3332
   92MOL0     H12675   2.252   9.107   1.679 -0.1050 -4.4468  1.3668
   92MOL0     H12676   1.905   8.230   2.203 -2.3287  1.0136 -1.3274
   92MOL0     H12677   1.861   8.009   2.304  2.7561  3.0222  0.4427
   92MOL0     H12678   1.694   7.631   2.227 -1.4674 -1.7468 -0.0563
   92MOL0     H12679   1.592   7.437   2.283 -0.9192 -1.0278  4.2365
   92MOL0     H12680   1.350   7.126   1.386  1.4498  0.2374 -1.1179
   92MOL0     H12681   1.096   7.207   1.373 -1.9533 -0.5991 -1.5144
   92MOL0     H12682   0.813   7.334   1.061 -1.1865 -1.2791  1.8597
   92MOL0     H12683   0.571   7.353   1.025  0.8729  0.7610 -1.7117
   92MOL0     H12684   0.246   7.521   1.043 -0.8848 -0.2901  1.3503
   92MOL0     H12685   0.375   7.434   0.961 -0.8424  1.7589 -0.1305
   92MOL0     H12686   0.398   7.288   1.182  1.1626  1.5428 -1.0141
   92MOL0     H12687   0.244   7.279   1.092  1.6751 -0.3458 -2.2747
   92MOL0     H12688   0.315   7.467   1.330  1.4832 -1.2042 -0.6175
   92MOL0     H12689   0.170   7.487   1.245 -0.5785  0.3939  1.0253
   92MOL0     H12690   0.138   7.342   1.453  1.1809 -1.2538  1.4521
   92MOL0     H12691   0.269   7.242   1.390  1.0056  1.7016  0.0619
   92MOL0     H12692  -0.054   7.105   1.138 -1.2344  2.1299 -0.1829
   92MOL0     H12693   0.590   7.742   1.211 -0.4024  0.5635 -0.8049
   92MOL0     H12694   0.766   7.811   1.313  1.9013  0.3605  4.2430
   92MOL0     H12695   0.911   7.718   1.348 -3.3257 -0.4816  2.6603
   92MOL0     H12696   0.890   7.804   1.195 -0.3102  0.6675  1.8475
   93MOL0     O12697   7.677  10.684   1.601  0.6124 -0.3367 -0.5110
   93MOL0     C12698   7.754  10.772   1.591  1.4857 -0.5171 -0.0616
   93MOL0     O12699   7.730  10.903   1.609  0.5025  0.8109 -0.2332
   93MOL0     C12700   7.605  10.944   1.625 -0.1533  0.2522  0.7314
   93MOL0     C12701   7.573  11.036   1.723 -0.8785 -0.1916  0.1364
   93MOL0     C12702   7.458  11.102   1.731 -0.2971 -0.0113  0.2417
   93MOL0     C12703   7.350  11.078   1.639 -0.2447 -0.4560 -0.1884
   93MOL0     O12704   7.246  11.172   1.648 -0.0239  0.2794 -0.4205
   93MOL0     C12705   7.116  11.114   1.622 -0.5191 -0.0119 -0.5541
   93MOL0     C12706   7.079  11.159   1.484  0.5745  0.7071  0.5753
   93MOL0     C12707   6.974  11.066   1.421  1.3876  0.6575 -0.6917
   93MOL0     C12708   6.925  11.134   1.285  0.0559  0.0101  0.3098
   93MOL0     C12709   6.827  11.047   1.220  0.7886  0.3387 -0.0430
   93MOL0     C12710   6.743  11.101   1.104  0.0427  0.9528  0.6101
   93MOL0     C12711   6.798  11.205   1.003  0.3151  0.4369  0.5782
   93MOL0     C12712   6.919  11.150   0.926  0.1737 -0.6658  0.0777
   93MOL0     N12713   6.982  11.263   0.855 -0.3870 -0.0838  0.5653
   93MOL0     C12714   6.956  11.303   0.727  0.3822  0.0141  0.9233
   93MOL0     C12715   7.017  11.420   0.715  1.1821  0.7856  0.5175
   93MOL0     C12716   7.029  11.507   0.585  0.2220  0.8764 -0.9975
   93MOL0     C12717   6.926  11.622   0.592 -1.1920 -1.7825 -0.4981
   93MOL0     C12718   6.944  11.720   0.475 -0.4477  0.5764  0.1040
   93MOL0     C12719   6.835  11.834   0.459  0.2960  0.7478  0.1153
   93MOL0     O12720   6.702  11.778   0.455  0.1775 -0.0830 -0.1598
   93MOL0     C12721   6.599  11.860   0.466 -0.4104  0.2826  0.2437
   93MOL0     C12722   6.589  11.989   0.404  0.0848  0.6224 -0.1610
   93MOL0     C12723   6.464  12.057   0.402 -0.7559 -1.0585 -1.2665
   93MOL0     C12724   6.464  12.194   0.330 -0.1059  0.5153  0.7557
   93MOL0     C12725   6.349  12.003   0.466  0.6708  0.6988 -0.5643
   93MOL0     C12726   6.220  12.067   0.477  1.0444  0.3613  0.1581
   93MOL0     O12727   6.123  11.987   0.536 -0.2029  0.9850  0.1710
   93MOL0     C12728   6.035  12.054   0.611  0.1191 -0.7346 -0.3489
   93MOL0     C12729   5.930  12.127   0.550  0.2029  0.2698  0.2503
   93MOL0     C12730   5.835  12.209   0.620 -0.3464  0.1858  0.5972
   93MOL0     C12731   5.850  12.221   0.754  0.8623 -0.1751 -0.5365
   93MOL0     O12732   5.760  12.294   0.832 -0.4163  0.0420  0.6847
   93MOL0     C12733   5.713  12.420   0.785 -1.7391 -0.0020 -0.8645
   93MOL0     C12734   5.577  12.446   0.838  0.3534  0.5872 -0.4360
   93MOL0     C12735   5.472  12.418   0.729  0.1960  0.2040 -0.1551
   93MOL0     C12736   5.448  12.268   0.692 -0.4403 -0.1277 -0.6927
   93MOL0     C12737   5.298  12.255   0.690  0.7832  0.2404 -0.4378
   93MOL0     C12738   5.232  12.214   0.827  0.2142 -0.0489 -0.1667
   93MOL0     C12739   5.086  12.201   0.813 -0.8870 -0.0773  1.3489
   93MOL0     C12740   5.010  12.257   0.932  0.0394  0.7201  0.3709
   93MOL0    Cl12741   4.842  12.234   0.916 -0.0174 -0.4741 -0.5271
   93MOL0     C12742   5.948  12.154   0.821  0.7143  0.2125  0.4200
   93MOL0     C12743   6.037  12.062   0.748  1.1375 -0.0337 -0.0738
   93MOL0     O12744   6.192  12.171   0.423 -0.0767  0.3731  0.2915
   93MOL0     C12745   6.367  11.875   0.526  0.1416 -0.2090  0.0913
   93MOL0     C12746   6.486  11.801   0.512  1.5560  0.5200 -0.4667
   93MOL0     N12747   7.078  11.444   0.840 -0.5020 -0.1920  0.7528
   93MOL0     N12748   7.053  11.352   0.924  0.7494  0.2741  0.0153
   93MOL0     C12749   7.375  10.979   1.542 -0.1876 -0.0408  0.1661
   93MOL0     C12750   7.501  10.907   1.537 -0.1140  0.0212 -0.1269
   93MOL0     C12751   7.887  10.746   1.532 -0.0802  0.3602  0.1252
   93MOL0     C12752   7.920  10.610   1.494  0.3575  0.7992 -0.0323
   93MOL0     C12753   8.048  10.574   1.445 -0.6765 -0.3139  0.2679
   93MOL0     C12754   8.142  10.673   1.414  0.3596  0.4021  0.7893
   93MOL0     O12755   8.262  10.655   1.349  0.5519  0.0160 -0.5885
   93MOL0     C12756   8.338  10.543   1.395  0.8003 -0.2830 -0.2510
   93MOL0     C12757   8.488  10.572   1.356 -0.4036 -0.2389 -0.6631
   93MOL0     C12758   8.497  10.591   1.210  1.3359  0.0085  0.2472
   93MOL0     C12759   8.641  10.621   1.164  0.0010  0.3590  0.1523
   93MOL0     C12760   8.713  10.499   1.154 -1.0538 -0.2618 -0.4524
   93MOL0     C12761   8.772  10.392   1.131 -0.7439 -0.9807 -0.1284
   93MOL0     C12762   8.104  10.803   1.425 -0.1762 -0.0570  0.0584
   93MOL0     C12763   7.990  10.840   1.494 -0.8256 -0.6356 -0.2663
   93MOL0     C12764   7.974  10.994   1.503  0.4923  0.0900  0.3057
   93MOL0     H12765   7.652  11.065   1.792  1.0748 -3.3622 -0.5648
   93MOL0     H12766   7.462  11.185   1.802  2.0256  0.5222 -0.4212
   93MOL0     H12767   7.041  11.159   1.688  2.2691  2.2360  1.3440
   93MOL0     H12768   7.118  11.005   1.629  1.5497  0.0718  1.1203
   93MOL0     H12769   7.030  11.257   1.478  0.3819  0.5177 -1.5803
   93MOL0     H12770   7.170  11.146   1.425 -0.1193 -4.0386  0.2033
   93MOL0     H12771   7.010  10.964   1.403 -2.0237 -0.7599 -0.1360
   93MOL0     H12772   6.886  11.065   1.487  1.5360  0.3440 -0.4936
   93MOL0     H12773   6.888  11.233   1.312 -2.9763 -1.0395  0.3899
   93MOL0     H12774   7.011  11.142   1.218 -0.6504 -2.5428 -1.0621
   93MOL0     H12775   6.746  11.032   1.293  1.5919  0.3887  0.8782
   93MOL0     H12776   6.869  10.947   1.203  0.8068  0.3519 -0.0716
   93MOL0     H12777   6.722  11.007   1.052  0.6961  0.3780  1.3748
   93MOL0     H12778   6.652  11.144   1.147 -2.2995 -2.2463 -0.7690
   93MOL0     H12779   6.835  11.292   1.058 -3.9535  1.7908  1.7045
   93MOL0     H12780   6.717  11.220   0.931  1.7650 -1.2906 -1.5654
   93MOL0     H12781   6.997  11.110   0.992 -0.2397 -1.9338 -0.1656
   93MOL0     H12782   6.897  11.069   0.856 -3.8468 -0.5552  0.9579
   93MOL0     H12783   6.902  11.245   0.654 -1.3604  0.4765  1.7983
   93MOL0     H12784   7.019  11.441   0.499  0.0807 -1.5670  0.8040
   93MOL0     H12785   7.130  11.549   0.587  0.8026 -0.4080  2.1930
   93MOL0     H12786   6.825  11.583   0.604 -1.3267 -0.8978  1.7885
   93MOL0     H12787   6.942  11.689   0.677 -3.3199 -1.6342 -0.1638
   93MOL0     H12788   7.044  11.760   0.494  1.0177 -3.1004  0.8190
   93MOL0     H12789   6.947  11.664   0.381  1.4562 -3.1405  2.1608
   93MOL0     H12790   6.845  11.899   0.546  3.0569  0.4113  0.1241
   93MOL0     H12791   6.846  11.884   0.363 -3.0136 -0.5185 -1.0752
   93MOL0     H12792   6.679  12.022   0.353  0.2499 -0.4938 -0.6317
   93MOL0     H12793   6.429  12.274   0.396  0.3879  1.4766 -0.1181
   93MOL0     H12794   6.393  12.184   0.247 -0.5888 -1.4336  1.3643
   93MOL0     H12795   6.559  12.216   0.279  0.5085  0.1494  1.7185
   93MOL0     H12796   5.940  12.117   0.442  0.4011  2.5712  0.0075
   93MOL0     H12797   5.744  12.253   0.580 -1.1097  0.9944  3.0674
   93MOL0     H12798   5.780  12.487   0.839 -1.5652 -0.3339 -0.6626
   93MOL0     H12799   5.716  12.442   0.678 -2.5131 -1.5156 -1.2280
   93MOL0     H12800   5.546  12.380   0.920 -0.5183 -0.8008 -1.8273
   93MOL0     H12801   5.568  12.551   0.870  2.4963  0.9352 -0.8256
   93MOL0     H12802   5.515  12.462   0.639  0.8763  0.9390  0.5104
   93MOL0     H12803   5.377  12.466   0.752  0.3089  1.8759 -2.7489
   93MOL0     H12804   5.492  12.206   0.771 -0.1396 -0.5646 -1.1982
   93MOL0     H12805   5.486  12.233   0.596  0.0026 -1.2760 -0.1161
   93MOL0     H12806   5.253  12.334   0.630 -2.6357 -0.8996  0.4215
   93MOL0     H12807   5.273  12.161   0.639 -1.8226  2.0364 -2.7361
   93MOL0     H12808   5.252  12.288   0.906 -3.4934 -2.2522  3.2051
   93MOL0     H12809   5.262  12.117   0.868 -0.1427 -0.2160 -0.2979
   93MOL0     H12810   5.054  12.097   0.803 -0.0179 -0.4479  2.2892
   93MOL0     H12811   5.046  12.261   0.731  0.2533  0.4624  1.1732
   93MOL0     H12812   5.023  12.365   0.940  1.9127  0.6054 -0.5374
   93MOL0     H12813   5.054  12.216   1.024  1.4315 -1.0033 -0.9797
   93MOL0     H12814   5.944  12.162   0.929 -2.0480  1.3437  0.3228
   93MOL0     H12815   6.115  12.004   0.796  1.3944  0.4127  0.0627
   93MOL0     H12816   6.287  11.825   0.580  1.3459  0.0210  2.2040
   93MOL0     H12817   6.487  11.696   0.537 -1.1411  0.2322 -1.3046
   93MOL0     H12818   7.303  10.960   1.463  0.3589  0.2726 -0.4225
   93MOL0     H12819   7.521  10.824   1.470  1.1587 -0.8878  1.3130
   93MOL0     H12820   7.849  10.531   1.517  0.9222  0.3480  0.1871
   93MOL0     H12821   8.071  10.469   1.426 -0.4895  0.0940 -2.0343
   93MOL0     H12822   8.333  10.529   1.504 -3.0004 -1.9963 -0.4873
   93MOL0     H12823   8.306  10.447   1.355 -0.1030  0.5637 -1.6294
   93MOL0     H12824   8.546  10.486   1.392 -1.2962 -0.1984  0.9839
   93MOL0     H12825   8.521  10.668   1.397 -0.2370 -0.0668 -1.1975
   93MOL0     H12826   8.461  10.500   1.161  0.3518  1.4426 -1.8659
   93MOL0     H12827   8.433  10.673   1.177  1.0243 -0.0652  0.6667
   93MOL0     H12828   8.695  10.691   1.230  1.9562  0.2725 -1.2767
   93MOL0     H12829   8.638  10.673   1.068  1.6462  4.6877  2.1462
   93MOL0     H12830   8.809  10.294   1.109  2.9806  0.1615  0.3836
   93MOL0     H12831   8.162  10.877   1.371 -2.0823 -0.4021 -2.6484
   93MOL0     H12832   8.059  11.053   1.467  0.2898  1.3352  1.7644
   93MOL0     H12833   7.884  11.030   1.451 -1.2730  0.3181  3.2631
   93MOL0     H12834   7.962  11.023   1.608  1.9886 -1.7274  1.0262
   94MOL0     O12835   6.727   4.373  10.106  0.2103  0.3093 -0.4226
   94MOL0     C12836   6.756   4.255  10.120 -0.2953  0.1040 -0.1517
   94MOL0     O12837   6.783   4.172  10.017 -0.4056 -0.1867  0.2390
   94MOL0     C12838   6.793   4.222   9.882 -0.2788  0.2314 -0.1692
   94MOL0     C12839   6.714   4.330   9.826 -0.9014 -0.7872  1.0949
   94MOL0     C12840   6.726   4.381   9.693  0.2094 -0.6334  0.4360
   94MOL0     C12841   6.825   4.321   9.608  0.2031  0.0049  1.0253
   94MOL0     O12842   6.830   4.367   9.477 -0.3267 -0.3644 -0.4906
   94MOL0     C12843   6.866   4.265   9.383  0.0917 -0.7007  0.5486
   94MOL0     C12844   6.790   4.303   9.250 -0.1222 -0.4990  0.1349
   94MOL0     C12845   6.639   4.294   9.274 -0.5337 -0.3591  1.0713
   94MOL0     C12846   6.556   4.367   9.166  0.1857  0.5701 -1.0817
   94MOL0     C12847   6.511   4.273   9.059  0.4548 -0.2504  0.7129
   94MOL0     C12848   6.383   4.337   8.996  0.0160 -0.2399 -0.3080
   94MOL0     C12849   6.323   4.254   8.873 -0.0805 -0.3098 -0.4395
   94MOL0     C12850   6.418   4.231   8.752 -0.8765  0.5624  0.6449
   94MOL0     N12851   6.498   4.350   8.720  0.2542  0.0120  1.0471
   94MOL0     C12852   6.442   4.466   8.668 -0.7865  0.1511  0.4159
   94MOL0     C12853   6.546   4.535   8.623 -0.2088 -0.4931 -0.8413
   94MOL0     C12854   6.550   4.676   8.559 -0.0358  0.0222  0.3614
   94MOL0     C12855   6.527   4.668   8.402 -0.4248 -1.6203 -0.3078
   94MOL0     C12856   6.380   4.634   8.362  0.3016 -0.8854 -0.6158
   94MOL0     C12857   6.346   4.690   8.219 -1.4802 -0.4990  0.7672
   94MOL0     O12858   6.213   4.663   8.190 -0.3196  0.7520  0.3895
   94MOL0     C12859   6.124   4.760   8.156 -0.5874  0.2283  0.5763
   94MOL0     C12860   6.009   4.775   8.234 -0.4916 -0.7937 -0.6046
   94MOL0     C12861   5.929   4.881   8.229  0.3416 -1.0388  0.5375
   94MOL0     C12862   5.825   4.893   8.338  0.3616 -0.6037  0.5116
   94MOL0     C12863   5.949   4.983   8.128  0.1416 -0.6663 -0.7172
   94MOL0     C12864   5.874   5.115   8.118 -0.1588 -0.7236  0.3503
   94MOL0     O12865   5.871   5.174   7.988  0.2823  0.0442  0.0479
   94MOL0     C12866   5.760   5.249   7.967 -0.3493  0.4668 -0.2911
   94MOL0     C12867   5.631   5.219   8.001  0.3781  0.0430 -0.4586
   94MOL0     C12868   5.523   5.300   7.952 -0.6293  0.0635 -0.8345
   94MOL0     C12869   5.545   5.414   7.873  0.3690  0.7747 -1.0929
   94MOL0     O12870   5.438   5.494   7.840 -0.5571  0.1230 -0.0389
   94MOL0     C12871   5.447   5.629   7.894 -0.1432 -0.2109 -0.1672
   94MOL0     C12872   5.328   5.695   7.827 -0.2921 -0.6934  0.0118
   94MOL0     C12873   5.317   5.835   7.865  0.1507  0.0383  0.1687
   94MOL0     C12874   5.204   5.910   7.794  0.5817 -0.4196  0.1630
   94MOL0     C12875   5.152   6.035   7.872 -0.6419 -0.9311  0.2432
   94MOL0     C12876   5.259   6.147   7.868  0.5838  0.7116 -0.1379
   94MOL0     C12877   5.268   6.228   7.745  0.1535 -0.0582  0.4643
   94MOL0     C12878   5.143   6.307   7.707 -0.4356  0.0741 -0.2916
   94MOL0    Cl12879   5.091   6.432   7.826  0.1035 -0.0661 -0.0880
   94MOL0     C12880   5.677   5.447   7.851  0.5755  0.2814 -0.2134
   94MOL0     C12881   5.783   5.368   7.896 -0.2337 -0.7036  0.5763
   94MOL0     O12882   5.805   5.145   8.210 -0.1982  0.8145  0.0536
   94MOL0     C12883   6.055   4.965   8.040  0.7552  1.0950 -0.1477
   94MOL0     C12884   6.143   4.854   8.051  0.5680 -0.8303 -0.2035
   94MOL0     N12885   6.663   4.454   8.650  0.1666  0.5821 -0.4094
   94MOL0     N12886   6.633   4.343   8.699 -0.0499 -0.2732 -0.3067
   94MOL0     C12887   6.909   4.228   9.664  0.4126  1.0827  0.0389
   94MOL0     C12888   6.899   4.187   9.797 -1.0707  0.4811 -0.0373
   94MOL0     C12889   6.771   4.200  10.258 -0.2332 -0.5258 -0.1600
   94MOL0     C12890   6.772   4.059  10.276  0.0197 -0.7684  0.3651
   94MOL0     C12891   6.767   4.003  10.410  0.2994 -0.8824 -0.2123
   94MOL0     C12892   6.774   4.095  10.516 -0.4777 -0.0248 -1.0837
   94MOL0     O12893   6.773   4.033  10.641 -0.4800  0.6177  0.1549
   94MOL0     C12894   6.646   4.003  10.692  0.4124  1.0765  0.1744
   94MOL0     C12895   6.648   3.866  10.762 -0.8333  0.3809 -0.3725
   94MOL0     C12896   6.541   3.769  10.710  0.2242 -0.3211 -0.8113
   94MOL0     C12897   6.545   3.745  10.557  0.6886 -0.0543 -1.1839
   94MOL0     C12898   6.447   3.634  10.527 -0.5830  0.4195 -0.4251
   94MOL0     C12899   6.371   3.544  10.510  0.3382 -0.3057 -0.0321
   94MOL0     C12900   6.796   4.232  10.502  0.9178  0.1163 -0.8345
   94MOL0     C12901   6.785   4.284  10.376  0.3217 -0.1042 -0.8345
   94MOL0     C12902   6.782   4.436  10.381  0.3627  0.4424  0.2016
   94MOL0     H12903   6.637   4.371   9.890 -1.2368  0.4186 -0.0528
   94MOL0     H12904   6.652   4.456   9.665 -0.3258 -0.9454  1.0033
   94MOL0     H12905   6.835   4.164   9.410 -2.6973  0.2354  1.1358
   94MOL0     H12906   6.970   4.263   9.350 -1.0994 -2.5777 -3.7435
   94MOL0     H12907   6.806   4.411   9.236  1.1199 -0.3304  2.3350
   94MOL0     H12908   6.833   4.245   9.168 -0.5256 -0.1362 -0.3347
   94MOL0     H12909   6.608   4.189   9.279 -0.4346 -0.7031 -2.6885
   94MOL0     H12910   6.619   4.339   9.372 -0.4692 -1.9651  1.8478
   94MOL0     H12911   6.468   4.400   9.222  2.0491  1.7532  1.3752
   94MOL0     H12912   6.598   4.452   9.112 -0.3779  4.6435  4.0878
   94MOL0     H12913   6.479   4.174   9.094 -2.3956  0.0547 -0.6979
   94MOL0     H12914   6.587   4.269   8.981 -3.0026  0.6339 -3.0836
   94MOL0     H12915   6.309   4.343   9.076  0.2561  5.4246 -0.1037
   94MOL0     H12916   6.408   4.442   8.977  0.1052 -0.3549 -0.8476
   94MOL0     H12917   6.238   4.311   8.835  0.3444 -0.5539 -1.8264
   94MOL0     H12918   6.291   4.157   8.913  0.7953  0.3090  1.9455
   94MOL0     H12919   6.478   4.145   8.780 -0.5792  1.0248  1.4773
   94MOL0     H12920   6.367   4.208   8.658  0.8907  1.6015 -0.6240
   94MOL0     H12921   6.339   4.499   8.679 -0.8691  0.6264 -1.4305
   94MOL0     H12922   6.653   4.705   8.582  0.6719 -3.0605  1.6951
   94MOL0     H12923   6.477   4.744   8.603 -0.9664 -1.7172  1.6229
   94MOL0     H12924   6.539   4.769   8.361 -0.2306  0.3185  4.0005
   94MOL0     H12925   6.589   4.592   8.355 -0.5567 -1.0267 -1.5030
   94MOL0     H12926   6.370   4.525   8.369 -0.5522 -0.8000 -0.3825
   94MOL0     H12927   6.312   4.670   8.440  1.0659  2.3358 -1.3025
   94MOL0     H12928   6.362   4.798   8.223 -0.9231 -0.3749 -2.4242
   94MOL0     H12929   6.425   4.655   8.152 -0.5120  1.4386  0.8182
   94MOL0     H12930   6.001   4.720   8.327  0.9757 -1.2914 -0.7450
   94MOL0     H12931   5.727   4.909   8.293  1.0754 -0.0377 -0.9172
   94MOL0     H12932   5.844   4.984   8.397  1.2028  0.4285 -1.2528
   94MOL0     H12933   5.826   4.809   8.408  1.6091 -1.1306 -0.1028
   94MOL0     H12934   5.605   5.130   8.058  2.5274  1.3895  2.9818
   94MOL0     H12935   5.421   5.276   7.980 -1.3904  2.3205 -1.4597
   94MOL0     H12936   5.447   5.631   8.004  1.2251 -4.5505  0.1111
   94MOL0     H12937   5.538   5.674   7.856 -0.0210 -0.4245 -0.1306
   94MOL0     H12938   5.341   5.684   7.718  1.5534  2.7626 -0.2393
   94MOL0     H12939   5.232   5.648   7.851 -1.2455  1.2180  0.1325
   94MOL0     H12940   5.414   5.880   7.842 -0.7323  0.6854 -2.6967
   94MOL0     H12941   5.301   5.829   7.974  0.3961  2.5753  0.4094
   94MOL0     H12942   5.121   5.848   7.761  0.8732 -0.8523  0.2314
   94MOL0     H12943   5.243   5.944   7.698 -0.1867  1.7203  0.5535
   94MOL0     H12944   5.054   6.070   7.838 -0.2334 -0.1666 -0.1748
   94MOL0     H12945   5.125   6.003   7.973 -3.0506 -1.2103 -0.4097
   94MOL0     H12946   5.355   6.104   7.901  0.1635  0.8154  1.2841
   94MOL0     H12947   5.217   6.212   7.945  0.3911 -1.9054  2.1255
   94MOL0     H12948   5.309   6.170   7.662 -1.5245 -1.3088  0.4557
   94MOL0     H12949   5.348   6.298   7.770 -2.2768  2.0935  3.0152
   94MOL0     H12950   5.061   6.235   7.707 -0.0403 -0.4101  1.2580
   94MOL0     H12951   5.138   6.352   7.608 -0.8790  0.9854  0.1262
   94MOL0     H12952   5.688   5.537   7.792 -2.7025  1.1433  0.2592
   94MOL0     H12953   5.888   5.390   7.877 -0.2013 -1.1540  0.2085
   94MOL0     H12954   6.076   5.043   7.968  1.5745 -1.7539 -3.2620
   94MOL0     H12955   6.228   4.841   7.985  0.8422 -2.1639  0.3858
   94MOL0     H12956   6.991   4.185   9.606  0.8615  1.1378  0.6220
   94MOL0     H12957   6.971   4.123   9.848 -1.4650 -0.9967 -1.2690
   94MOL0     H12958   6.770   3.993  10.189 -2.3969  0.3797 -0.5511
   94MOL0     H12959   6.763   3.898  10.436  1.6439 -1.3885 -1.8984
   94MOL0     H12960   6.612   4.073  10.769 -2.8613  0.5851 -0.6532
   94MOL0     H12961   6.564   4.000  10.621 -1.6247 -0.9617  2.4064
   94MOL0     H12962   6.629   3.882  10.869 -0.4277 -0.2281 -0.2044
   94MOL0     H12963   6.752   3.834  10.758 -0.8091  0.2189  1.0295
   94MOL0     H12964   6.546   3.677  10.770 -2.3943 -1.1857 -1.8014
   94MOL0     H12965   6.444   3.809  10.741  1.2690  0.8403  1.1444
   94MOL0     H12966   6.643   3.706  10.527  1.5548  0.3332  0.9492
   94MOL0     H12967   6.504   3.824  10.493  2.0032 -0.5828 -2.7302
   94MOL0     H12968   6.306   3.459  10.502  0.3860 -0.1908 -2.1704
   94MOL0     H12969   6.816   4.294  10.588 -0.5924  1.5648 -1.4665
   94MOL0     H12970   6.687   4.476  10.346 -1.2454 -1.3277  2.2334
   94MOL0     H12971   6.784   4.476  10.483 -0.4973  0.7502  0.1029
   94MOL0     H12972   6.866   4.493  10.341 -0.2193  4.0650  3.4470
   95MOL0     O12973   2.133   1.120   8.279  0.5893  0.2090 -0.0639
   95MOL0     C12974   2.062   1.080   8.187  0.3946  0.1834  0.2499
   95MOL0     O12975   2.071   1.130   8.059  0.5022 -0.3914 -0.5121
   95MOL0     C12976   2.141   1.252   8.042 -0.3854 -0.4838 -0.1477
   95MOL0     C12977   2.129   1.360   8.140  0.1541 -0.9585  0.0603
   95MOL0     C12978   2.210   1.476   8.129 -0.2201 -0.1132  0.5675
   95MOL0     C12979   2.291   1.490   8.013  0.0916  0.6890 -1.0027
   95MOL0     O12980   2.360   1.614   7.995  0.5600 -0.1488  0.3624
   95MOL0     C12981   2.500   1.601   7.955  0.0832  0.3841 -0.8793
   95MOL0     C12982   2.570   1.726   7.902 -0.0131  0.1234 -0.9016
   95MOL0     C12983   2.729   1.697   7.879  0.1238 -0.4576 -0.0756
   95MOL0     C12984   2.787   1.808   7.792 -0.8106 -0.9021 -0.9222
   95MOL0     C12985   2.937   1.786   7.744  0.3830  0.0102  0.2760
   95MOL0     C12986   3.037   1.789   7.868 -1.0430 -0.4338 -0.4965
   95MOL0     C12987   3.026   1.916   7.952 -0.6364 -0.5256 -0.1403
   95MOL0     C12988   3.071   2.044   7.871 -0.0886  0.4959  0.3335
   95MOL0     N12989   3.200   2.036   7.803 -0.6598  0.0351 -0.8445
   95MOL0     C12990   3.306   2.088   7.869 -0.2903 -0.1875  0.1672
   95MOL0     C12991   3.394   2.127   7.773  0.0286 -0.1268 -0.2214
   95MOL0     C12992   3.522   2.192   7.801 -0.6738 -1.0852  0.4110
   95MOL0     C12993   3.562   2.309   7.700  0.2488 -0.2098  0.0274
   95MOL0     C12994   3.618   2.265   7.562  0.7887 -0.1329 -0.1514
   95MOL0     C12995   3.749   2.178   7.565 -0.1987  0.0383  0.1958
   95MOL0     O12996   3.863   2.247   7.615  0.4547  0.1082 -0.4375
   95MOL0     C12997   3.974   2.172   7.643 -0.7695 -0.5020  0.0982
   95MOL0     C12998   4.077   2.234   7.720  0.6143 -0.1115 -0.0966
   95MOL0     C12999   4.197   2.173   7.762  1.0307  0.1442  0.9927
   95MOL0     C13000   4.294   2.259   7.847  0.7801  0.6979 -0.6149
   95MOL0     C13001   4.216   2.040   7.731  0.5811  0.3321  0.3746
   95MOL0     C13002   4.331   1.954   7.774 -0.0253 -0.0713 -0.5836
   95MOL0     O13003   4.326   1.823   7.746 -0.3979  0.3223  0.5891
   95MOL0     C13004   4.433   1.746   7.781 -0.3494 -0.0038 -1.0521
   95MOL0     C13005   4.410   1.637   7.866 -1.1868  0.7026 -0.1448
   95MOL0     C13006   4.518   1.556   7.909 -0.6144  0.4178  0.1511
   95MOL0     C13007   4.641   1.568   7.862 -0.2758  0.7204  0.1819
   95MOL0     O13008   4.720   1.457   7.894 -0.4179 -0.4090  0.4491
   95MOL0     C13009   4.855   1.470   7.858  0.6475 -0.3962 -1.0167
   95MOL0     C13010   4.851   1.417   7.709 -0.0669 -0.1693  0.6314
   95MOL0     C13011   4.966   1.486   7.623  0.0508 -0.5909  0.4916
   95MOL0     C13012   5.010   1.394   7.502  0.2486 -0.5463  0.4239
   95MOL0     C13013   5.119   1.444   7.407 -0.3879  0.2974 -0.3810
   95MOL0     C13014   5.128   1.346   7.296  0.0132 -0.2896  0.3243
   95MOL0     C13015   5.251   1.378   7.214 -0.5004  0.5739 -0.0745
   95MOL0     C13016   5.265   1.290   7.094  0.6971 -0.1962  0.5117
   95MOL0    Cl13017   5.127   1.322   6.985  0.4990 -0.1035 -0.2326
   95MOL0     C13018   4.661   1.669   7.772 -1.7508  0.4620 -0.3857
   95MOL0     C13019   4.561   1.761   7.729 -0.1836 -1.2207 -0.1032
   95MOL0     O13020   4.416   2.009   7.842 -0.5113 -0.0706 -0.0099
   95MOL0     C13021   4.121   1.974   7.647 -0.1425  1.0818  0.6487
   95MOL0     C13022   4.008   2.039   7.602 -0.1045  0.0530 -0.1154
   95MOL0     N13023   3.327   2.109   7.651 -0.2873  0.7044 -0.1124
   95MOL0     N13024   3.210   2.046   7.671 -0.2831 -1.0479  0.0395
   95MOL0     C13025   2.298   1.382   7.920 -0.1648 -0.9689  0.0627
   95MOL0     C13026   2.229   1.257   7.939  0.8636 -0.0456  0.5015
   95MOL0     C13027   1.989   0.957   8.209 -0.9240 -0.0621  0.1790
   95MOL0     C13028   1.955   0.887   8.095  0.7381  0.1801  0.5053
   95MOL0     C13029   1.883   0.763   8.098  0.8842  0.5108  0.5612
   95MOL0     C13030   1.839   0.716   8.223 -1.0873  0.4458  0.5751
   95MOL0     O13031   1.753   0.609   8.234  0.0892 -0.0249 -0.2476
   95MOL0     C13032   1.804   0.481   8.269  0.4322 -0.3724  0.0801
   95MOL0     C13033   1.850   0.391   8.155 -0.0152  0.1516  0.4424
   95MOL0     C13034   1.746   0.334   8.060 -0.0302  0.6143 -0.0656
   95MOL0     C13035   1.708   0.415   7.931  0.3682 -0.0194 -1.1599
   95MOL0     C13036   1.670   0.322   7.830 -0.4484 -1.0161  1.3776
   95MOL0     C13037   1.630   0.252   7.741  0.9381  0.1081 -0.3908
   95MOL0     C13038   1.890   0.767   8.337  0.1933  0.4088 -0.3597
   95MOL0     C13039   1.956   0.891   8.331  0.7695  0.4355  0.4053
   95MOL0     C13040   1.988   0.945   8.471 -0.3570  0.1294 -0.1279
   95MOL0     H13041   2.047   1.348   8.210 -0.3778 -1.0427 -0.5718
   95MOL0     H13042   2.202   1.559   8.198  0.2932  2.7786 -2.5444
   95MOL0     H13043   2.533   1.504   7.915 -0.5747 -0.0916 -0.2902
   95MOL0     H13044   2.548   1.580   8.051  1.1807  2.2633 -0.9652
   95MOL0     H13045   2.527   1.751   7.804 -1.0917 -0.6446 -0.6318
   95MOL0     H13046   2.556   1.809   7.972  0.1082 -2.0054  1.7659
   95MOL0     H13047   2.777   1.678   7.976  2.4686 -2.7810 -1.5393
   95MOL0     H13048   2.745   1.605   7.823  3.0389  0.5146 -1.0287
   95MOL0     H13049   2.732   1.811   7.697  0.3153 -0.0876 -1.5848
   95MOL0     H13050   2.776   1.911   7.828 -1.2298 -0.2622 -2.7520
   95MOL0     H13051   2.950   1.868   7.673 -1.6364 -0.5152 -0.7836
   95MOL0     H13052   2.945   1.685   7.701 -3.4988 -0.8973  1.2083
   95MOL0     H13053   3.025   1.694   7.921 -0.9800 -0.7613 -1.0639
   95MOL0     H13054   3.139   1.779   7.830 -2.2326 -2.2670 -3.5683
   95MOL0     H13055   3.096   1.906   8.036 -2.0098 -0.2101  1.0834
   95MOL0     H13056   2.926   1.920   7.995 -0.7761  0.3051 -0.5228
   95MOL0     H13057   2.997   2.066   7.793 -1.0147  0.5634  1.2121
   95MOL0     H13058   3.079   2.134   7.933 -0.5924  2.0686 -1.7706
   95MOL0     H13059   3.308   2.104   7.976 -2.0236 -1.9623  0.5251
   95MOL0     H13060   3.588   2.106   7.784  0.2814  0.0254 -2.1123
   95MOL0     H13061   3.538   2.221   7.905  2.3310 -0.5198 -0.1122
   95MOL0     H13062   3.475   2.374   7.685  1.6754  1.3566 -1.8115
   95MOL0     H13063   3.642   2.363   7.750 -0.1678  0.1597  0.2988
   95MOL0     H13064   3.547   2.205   7.503  1.8656 -1.4048 -0.1925
   95MOL0     H13065   3.629   2.360   7.509  1.2870  0.0633  0.3058
   95MOL0     H13066   3.733   2.079   7.609  0.6878 -0.6778 -1.0227
   95MOL0     H13067   3.778   2.150   7.463  3.3337 -0.4093  1.1728
   95MOL0     H13068   4.063   2.339   7.745  0.0837 -0.2628  0.2329
   95MOL0     H13069   4.382   2.276   7.785 -0.4430 -2.1788 -3.4145
   95MOL0     H13070   4.313   2.211   7.944 -1.9849  1.0414  0.1860
   95MOL0     H13071   4.248   2.355   7.870  1.4180  0.5210  1.6479
   95MOL0     H13072   4.314   1.620   7.912  0.0369  0.9915  2.7149
   95MOL0     H13073   4.504   1.478   7.983  0.5012 -0.6336 -0.6943
   95MOL0     H13074   4.897   1.570   7.870  0.6752 -0.6279  1.2139
   95MOL0     H13075   4.905   1.392   7.916  1.2983  0.9720  0.3185
   95MOL0     H13076   4.859   1.308   7.713 -1.0767 -0.2974 -0.2969
   95MOL0     H13077   4.752   1.443   7.670  0.4458 -1.2852 -1.5391
   95MOL0     H13078   5.045   1.503   7.697  1.7229 -1.9135 -0.9071
   95MOL0     H13079   4.939   1.581   7.576  3.5357 -0.6028 -1.9329
   95MOL0     H13080   4.923   1.372   7.439  0.2219  1.8985 -0.5376
   95MOL0     H13081   5.042   1.300   7.548  2.5752  0.1017  0.2418
   95MOL0     H13082   5.102   1.546   7.370 -2.8573 -0.0071 -0.2656
   95MOL0     H13083   5.213   1.443   7.462  0.7115  2.0067 -2.0806
   95MOL0     H13084   5.039   1.354   7.233 -0.4519  0.1069  1.0213
   95MOL0     H13085   5.134   1.242   7.331 -1.5777 -1.7796 -3.2638
   95MOL0     H13086   5.344   1.359   7.268 -1.0731  1.7658  1.3941
   95MOL0     H13087   5.251   1.480   7.173  0.7941 -1.2346 -5.4898
   95MOL0     H13088   5.285   1.185   7.114  1.5552 -0.1901 -0.2737
   95MOL0     H13089   5.354   1.323   7.041  1.3940 -0.0777  1.7168
   95MOL0     H13090   4.759   1.667   7.724 -0.9501  0.3975  1.1973
   95MOL0     H13091   4.588   1.844   7.666 -0.7936 -0.9048  0.0498
   95MOL0     H13092   4.129   1.873   7.610  1.0022  1.2276  0.4420
   95MOL0     H13093   3.931   1.985   7.548 -0.6718 -1.6824  2.2579
   95MOL0     H13094   2.359   1.385   7.830  2.8449 -1.8689  1.9352
   95MOL0     H13095   2.232   1.167   7.878  0.8687  0.7910 -0.7777
   95MOL0     H13096   1.967   0.916   7.992  2.0445  0.2345  0.6605
   95MOL0     H13097   1.843   0.714   8.010  1.5245  0.5884  0.2186
   95MOL0     H13098   1.889   0.499   8.336  0.4259  1.2380 -0.2859
   95MOL0     H13099   1.728   0.428   8.327 -0.2226  0.1774 -0.2570
   95MOL0     H13100   1.893   0.304   8.206 -1.7561  0.3353  2.3243
   95MOL0     H13101   1.930   0.452   8.111  0.3157  0.2113  1.1226
   95MOL0     H13102   1.782   0.236   8.027 -0.8696 -0.6574  2.5834
   95MOL0     H13103   1.659   0.299   8.116 -0.2020  1.0154 -0.0766
   95MOL0     H13104   1.795   0.471   7.895  2.6648 -0.9772  2.3903
   95MOL0     H13105   1.633   0.490   7.956  3.2266  2.5529  0.4087
   95MOL0     H13106   1.586   0.181   7.673 -3.5315  0.5079  1.6701
   95MOL0     H13107   1.865   0.721   8.433  1.7581 -0.8729 -0.5265
   95MOL0     H13108   2.090   0.979   8.491 -1.1526  1.2710  2.3209
   95MOL0     H13109   1.906   1.016   8.487 -1.4892 -0.5417 -2.4657
   95MOL0     H13110   1.973   0.862   8.540  0.5661  1.8268  2.2420
   96MOL0     O13111   9.486   2.888   6.890 -0.5148 -0.0613 -0.1378
   96MOL0     C13112   9.492   2.773   6.847 -0.2464  0.2691 -0.2380
   96MOL0     O13113   9.407   2.667   6.863  0.5288 -0.1437  0.6293
   96MOL0     C13114   9.304   2.690   6.947  0.6046 -0.0061 -0.5040
   96MOL0     C13115   9.173   2.715   6.895  0.2374  0.7811  0.1451
   96MOL0     C13116   9.069   2.732   6.993  0.1716  1.0524 -0.4598
   96MOL0     C13117   9.102   2.733   7.132  0.6187  0.6685  0.0853
   96MOL0     O13118   8.990   2.754   7.211  0.0545 -0.1029 -0.5631
   96MOL0     C13119   8.993   2.746   7.354  0.3314 -0.1829  0.0515
   96MOL0     C13120   8.847   2.751   7.397 -0.1107 -0.2264  0.3011
   96MOL0     C13121   8.785   2.897   7.377  0.4964  1.2504  0.2053
   96MOL0     C13122   8.852   2.993   7.481 -0.3362 -0.3914 -0.4934
   96MOL0     C13123   8.755   3.067   7.577  0.4362 -0.2244  0.0497
   96MOL0     C13124   8.643   3.149   7.503 -0.6871  0.8343  0.0220
   96MOL0     C13125   8.592   3.257   7.591  1.2543  0.0342 -0.6275
   96MOL0     C13126   8.509   3.207   7.713  0.1617 -0.2965  0.3771
   96MOL0     N13127   8.378   3.173   7.665 -0.2965 -0.0577 -0.5153
   96MOL0     C13128   8.349   3.048   7.616  0.1499  0.4583  0.6492
   96MOL0     C13129   8.221   3.047   7.595 -0.2144 -0.5436 -0.4138
   96MOL0     C13130   8.128   2.938   7.554 -0.2620 -0.3920 -0.4452
   96MOL0     C13131   8.132   2.929   7.409  0.0636  0.1078  0.4453
   96MOL0     C13132   8.111   2.788   7.360  0.1459 -0.2225 -0.3311
   96MOL0     C13133   8.072   2.793   7.212 -0.5048  0.9588  0.1107
   96MOL0     O13134   8.057   2.666   7.148  0.1129  0.0696 -0.3822
   96MOL0     C13135   8.101   2.642   7.021  0.9456 -1.1858  0.0053
   96MOL0     C13136   8.134   2.513   6.985  0.5597 -0.8232 -0.0488
   96MOL0     C13137   8.160   2.473   6.852 -0.1728 -0.7766  0.0409
   96MOL0     C13138   8.220   2.330   6.833 -0.2014  0.4119  0.2540
   96MOL0     C13139   8.133   2.573   6.754 -0.4055 -0.3491  0.4200
   96MOL0     C13140   8.150   2.544   6.619 -0.8173 -0.8001  1.1377
   96MOL0     O13141   8.180   2.649   6.533 -0.3993  0.1022 -0.5152
   96MOL0     C13142   8.180   2.637   6.400  0.1163  0.7711 -0.0835
   96MOL0     C13143   8.287   2.579   6.333 -0.7862 -0.4260 -0.4635
   96MOL0     C13144   8.275   2.570   6.190 -0.6714  0.4213 -0.1511
   96MOL0     C13145   8.157   2.616   6.125  0.0119  0.2300  0.8127
   96MOL0     O13146   8.148   2.609   5.987 -0.3772 -0.6966 -0.0970
   96MOL0     C13147   8.108   2.481   5.944  0.5647  0.8544 -0.0189
   96MOL0     C13148   8.045   2.481   5.806  0.9538 -0.0590  0.0444
   96MOL0     C13149   7.927   2.583   5.779 -0.5573  0.1673 -0.3801
   96MOL0     C13150   7.802   2.542   5.873  0.1526 -0.6849  1.3794
   96MOL0     C13151   7.739   2.412   5.818  0.2396  0.2397 -0.3513
   96MOL0     C13152   7.688   2.426   5.676  0.2073 -0.0454 -1.0115
   96MOL0     C13153   7.571   2.334   5.650  0.7487 -1.1314  0.7697
   96MOL0     C13154   7.519   2.355   5.509 -0.3524 -0.0873  0.7221
   96MOL0    Cl13155   7.438   2.520   5.518  0.4553 -0.0806  0.3398
   96MOL0     C13156   8.055   2.680   6.193  1.5241  0.6871 -0.6125
   96MOL0     C13157   8.074   2.690   6.334  0.6441  0.5734  0.4391
   96MOL0     O13158   8.112   2.428   6.587 -0.6785 -0.6248 -0.5202
   96MOL0     C13159   8.094   2.702   6.792  0.3676 -1.7419 -0.1992
   96MOL0     C13160   8.077   2.739   6.930 -0.1426  0.2374  0.5999
   96MOL0     N13161   8.159   3.172   7.621 -0.6143  0.0763 -0.5852
   96MOL0     N13162   8.255   3.244   7.657  0.3260  0.5509  0.0458
   96MOL0     C13163   9.221   2.716   7.185 -0.6438  0.3874  0.9874
   96MOL0     C13164   9.330   2.694   7.091  1.1815 -0.0799  0.3776
   96MOL0     C13165   9.594   2.750   6.742 -0.1298 -0.2325  0.2577
   96MOL0     C13166   9.666   2.632   6.729 -0.2887 -0.3860 -0.5981
   96MOL0     C13167   9.770   2.617   6.642 -0.1430 -0.2594 -0.0986
   96MOL0     C13168   9.810   2.721   6.563 -0.2885  0.2757  0.5102
   96MOL0     O13169   9.908   2.714   6.465  0.0844  0.7270  0.7872
   96MOL0     C13170   9.999   2.600   6.468 -1.0805  0.2672 -0.1862
   96MOL0     C13171  10.132   2.628   6.392  0.7354 -0.8503 -0.4203
   96MOL0     C13172  10.219   2.710   6.488  0.3507 -0.3263 -0.3103
   96MOL0     C13173  10.353   2.725   6.413 -0.2294 -0.7604  0.9551
   96MOL0     C13174  10.336   2.823   6.305 -0.2735  0.2770 -0.3088
   96MOL0     C13175  10.313   2.880   6.200 -0.5236  0.8037 -0.2269
   96MOL0     C13176   9.742   2.846   6.571  0.3906 -0.1903 -0.6154
   96MOL0     C13177   9.631   2.862   6.654 -0.3770  0.3047 -0.2567
   96MOL0     C13178   9.549   2.989   6.622 -0.2415  0.0557  0.3806
   96MOL0     H13179   9.145   2.716   6.790 -1.8584  0.8728  0.6489
   96MOL0     H13180   8.972   2.751   6.949  1.2672  0.4265 -3.3578
   96MOL0     H13181   9.059   2.828   7.386  2.1955 -2.0891  1.3738
   96MOL0     H13182   9.042   2.660   7.400 -1.8787 -1.1593  0.6575
   96MOL0     H13183   8.789   2.668   7.357  0.7009 -1.9650  2.5300
   96MOL0     H13184   8.844   2.738   7.506  0.3580  0.5598  0.4206
   96MOL0     H13185   8.819   2.918   7.275  2.2029 -3.5171 -0.4590
   96MOL0     H13186   8.677   2.883   7.389  0.6965 -0.4843  0.3037
   96MOL0     H13187   8.927   2.944   7.544 -1.6921  1.3799  2.7850
   96MOL0     H13188   8.925   3.056   7.429 -0.2539 -1.4409 -1.6835
   96MOL0     H13189   8.809   3.144   7.634 -0.2781  0.8240 -0.6449
   96MOL0     H13190   8.723   3.002   7.658  3.0370  0.5749  1.8437
   96MOL0     H13191   8.678   3.194   7.410 -0.7536  0.2810 -0.2733
   96MOL0     H13192   8.563   3.086   7.464 -0.4194  1.6797 -1.9829
   96MOL0     H13193   8.517   3.313   7.535  0.2276 -1.5776 -0.9323
   96MOL0     H13194   8.672   3.326   7.619 -0.1187  1.8913 -1.0846
   96MOL0     H13195   8.572   3.131   7.760  0.6597 -0.9900 -1.3106
   96MOL0     H13196   8.493   3.295   7.776 -2.9993  0.0250 -0.6924
   96MOL0     H13197   8.414   2.962   7.605  0.0221  0.1124  2.3494
   96MOL0     H13198   8.028   2.966   7.588  0.0193  0.7139 -0.4836
   96MOL0     H13199   8.154   2.846   7.607  1.2149 -1.0402 -2.1662
   96MOL0     H13200   8.058   2.999   7.366 -1.1737 -0.1377  2.0807
   96MOL0     H13201   8.227   2.958   7.363  0.5120 -1.7070  0.1587
   96MOL0     H13202   8.195   2.719   7.370 -0.2270 -0.3660  2.4883
   96MOL0     H13203   8.031   2.745   7.420  1.6317 -0.3483  1.6495
   96MOL0     H13204   7.986   2.860   7.200  0.8208  2.6980 -0.0945
   96MOL0     H13205   8.153   2.851   7.166  0.0396 -0.2742 -0.5157
   96MOL0     H13206   8.145   2.439   7.064  1.1781 -0.4081  0.2655
   96MOL0     H13207   8.245   2.281   6.927  2.2518  1.8023  0.4008
   96MOL0     H13208   8.308   2.350   6.771 -0.9974  1.6048 -0.5454
   96MOL0     H13209   8.164   2.251   6.783 -1.6415  0.1684  2.1248
   96MOL0     H13210   8.377   2.552   6.388 -0.5123 -0.5162 -0.9500
   96MOL0     H13211   8.354   2.535   6.124 -1.7291 -4.0223  0.6122
   96MOL0     H13212   8.196   2.417   5.948  0.3354  0.5876  1.7139
   96MOL0     H13213   8.036   2.439   6.015  1.3839  1.0612  0.9512
   96MOL0     H13214   8.128   2.504   5.738  0.9182 -0.4645 -0.1438
   96MOL0     H13215   8.010   2.378   5.789 -0.3064  0.0780  1.6223
   96MOL0     H13216   7.898   2.563   5.676  2.4538 -2.9794 -0.8225
   96MOL0     H13217   7.962   2.684   5.799 -1.7930  0.2582  1.6693
   96MOL0     H13218   7.738   2.631   5.870 -0.7843 -1.2941 -2.0985
   96MOL0     H13219   7.825   2.529   5.979  3.0909  0.3072  0.9507
   96MOL0     H13220   7.815   2.336   5.840  1.1344  1.3268  0.4261
   96MOL0     H13221   7.655   2.389   5.884  0.3653 -4.0852 -1.4050
   96MOL0     H13222   7.769   2.408   5.605  0.3244 -1.7161 -0.4903
   96MOL0     H13223   7.639   2.524   5.668  2.3741  1.6119  2.9137
   96MOL0     H13224   7.489   2.362   5.717  1.1742  2.2596  0.0416
   96MOL0     H13225   7.592   2.228   5.669  0.1105 -1.8346 -1.9644
   96MOL0     H13226   7.464   2.264   5.483 -2.0292  1.0568  0.0527
   96MOL0     H13227   7.599   2.358   5.434  1.5009  0.8683  2.6449
   96MOL0     H13228   7.982   2.723   6.125  2.7199  0.6860 -1.9426
   96MOL0     H13229   8.009   2.740   6.405 -1.1930 -3.4329  1.8660
   96MOL0     H13230   8.061   2.779   6.724 -1.7258 -0.9513  1.5715
   96MOL0     H13231   8.052   2.843   6.952  2.6720  0.7661  1.7217
   96MOL0     H13232   9.230   2.720   7.293  1.8494 -1.2401  0.9161
   96MOL0     H13233   9.435   2.693   7.120  0.8395  1.0349  1.7580
   96MOL0     H13234   9.638   2.542   6.783  1.6233 -1.3945 -1.1802
   96MOL0     H13235   9.833   2.529   6.640  2.3101  1.2871 -3.9108
   96MOL0     H13236  10.025   2.579   6.573  0.7963  6.3960  0.9699
   96MOL0     H13237   9.946   2.522   6.414 -0.2541 -0.1517 -0.4115
   96MOL0     H13238  10.116   2.679   6.297  2.3909 -0.8536 -0.7269
   96MOL0     H13239  10.177   2.531   6.369 -1.6114 -2.2850  0.6916
   96MOL0     H13240  10.169   2.804   6.510  1.5216 -0.6960  5.8475
   96MOL0     H13241  10.224   2.655   6.583  1.7888  0.9835  0.4217
   96MOL0     H13242  10.376   2.625   6.374 -2.4897  0.0568 -2.9419
   96MOL0     H13243  10.442   2.745   6.473 -0.2185  1.8436  0.1727
   96MOL0     H13244  10.288   2.921   6.104 -1.3966  1.5909  0.3097
   96MOL0     H13245   9.781   2.930   6.515  0.9070 -0.6580 -0.9801
   96MOL0     H13246   9.603   3.082   6.640 -3.9441  2.3082  0.9221
   96MOL0     H13247   9.511   2.973   6.520  1.2072 -0.3569 -0.1168
   96MOL0     H13248   9.455   2.990   6.677 -0.5576 -1.6699 -0.0614
   97MOL0     O13249   2.786   1.319   1.234  0.7826  0.2342  0.0152
   97MOL0     C13250   2.840   1.429   1.261 -0.1369  0.6062 -1.1044
   97MOL0     O13251   2.914   1.452   1.374 -0.8243 -0.1367 -0.3776
   97MOL0     C13252   2.945   1.337   1.450 -0.0787  1.1934  0.0746
   97MOL0     C13253   2.849   1.255   1.519  0.0597 -0.1790 -0.1477
   97MOL0     C13254   2.892   1.140   1.599  0.6862 -1.1379 -1.0373
   97MOL0     C13255   3.030   1.108   1.614  0.3818 -0.2075  1.0350
   97MOL0     O13256   3.082   1.003   1.692  0.3103 -0.2704  0.1723
   97MOL0     C13257   2.991   0.912   1.745 -0.9132  0.7483 -1.0740
   97MOL0     C13258   3.059   0.790   1.810  0.4812 -0.1549 -1.2666
   97MOL0     C13259   2.968   0.702   1.903  0.1129  0.8490  0.8680
   97MOL0     C13260   2.913   0.764   2.027  0.0199 -0.2401  0.9203
   97MOL0     C13261   2.864   0.657   2.125  0.5200  0.8836  0.8207
   97MOL0     C13262   2.838   0.710   2.266  1.0796  0.7691  0.4236
   97MOL0     C13263   2.787   0.585   2.351 -0.0391 -0.3612  0.1248
   97MOL0     C13264   2.635   0.556   2.363  0.1732  0.0098  0.1564
   97MOL0     N13265   2.567   0.512   2.242 -0.4911  0.0461 -0.2579
   97MOL0     C13266   2.590   0.390   2.199  0.2414  0.5024 -0.7860
   97MOL0     C13267   2.539   0.387   2.073  0.7030 -0.6648 -0.6203
   97MOL0     C13268   2.543   0.270   1.985  0.6458  0.1518  0.6082
   97MOL0     C13269   2.683   0.217   1.984  0.3514 -0.2392 -1.0388
   97MOL0     C13270   2.703   0.115   1.874 -0.1965 -1.0870 -1.0751
   97MOL0     C13271   2.597   0.011   1.854 -0.7100  0.3670  0.5536
   97MOL0     O13272   2.643  -0.097   1.775 -0.5754 -0.0815 -0.2750
   97MOL0     C13273   2.639  -0.213   1.842  0.6989 -0.0599 -0.3294
   97MOL0     C13274   2.754  -0.286   1.876  0.4230  0.1750 -0.1560
   97MOL0     C13275   2.750  -0.401   1.957  0.3520 -0.3477  0.9580
   97MOL0     C13276   2.882  -0.451   2.008 -0.4011  0.1933 -0.8362
   97MOL0     C13277   2.625  -0.448   2.005  0.3525 -0.6529  1.0748
   97MOL0     C13278   2.603  -0.558   2.109  0.9390  0.4637  0.3812
   97MOL0     O13279   2.472  -0.592   2.134  0.2818  0.4987 -0.0202
   97MOL0     C13280   2.446  -0.670   2.243 -0.8672 -0.5552 -0.8678
   97MOL0     C13281   2.463  -0.805   2.240  0.4440 -0.4162  0.7683
   97MOL0     C13282   2.433  -0.881   2.342  0.2448  0.4098 -0.1930
   97MOL0     C13283   2.390  -0.829   2.467  0.1475  0.0787 -0.5976
   97MOL0     O13284   2.369  -0.889   2.586 -0.6806  0.4539 -0.5614
   97MOL0     C13285   2.430  -1.023   2.612  0.3497 -0.2650  0.4071
   97MOL0     C13286   2.333  -1.109   2.689 -0.1141  0.5989  0.6024
   97MOL0     C13287   2.196  -1.134   2.622 -0.6474  0.0660  0.5137
   97MOL0     C13288   2.188  -1.156   2.462 -0.8236 -0.0789 -0.2370
   97MOL0     C13289   2.039  -1.148   2.411 -0.1928 -0.1849  0.0117
   97MOL0     C13290   2.036  -1.179   2.267 -0.1812 -0.4582 -0.1035
   97MOL0     C13291   1.903  -1.139   2.197  0.2228 -0.4241 -0.1777
   97MOL0     C13292   1.913  -1.183   2.051  0.6119 -0.4836 -0.4039
   97MOL0    Cl13293   1.936  -1.365   2.045 -0.0272  0.2848  0.1574
   97MOL0     C13294   2.381  -0.692   2.472 -0.6829  0.6254 -0.4401
   97MOL0     C13295   2.407  -0.606   2.358  0.3366  0.0754 -0.1506
   97MOL0     O13296   2.702  -0.609   2.154 -0.4402  0.4740 -0.4260
   97MOL0     C13297   2.514  -0.388   1.955  0.2478  0.0664  0.2606
   97MOL0     C13298   2.523  -0.281   1.872 -0.2435  0.0752 -0.0419
   97MOL0     N13299   2.478   0.513   2.052 -0.1635  0.6417  0.5789
   97MOL0     N13300   2.502   0.593   2.150  0.6362 -0.2808  0.8296
   97MOL0     C13301   3.119   1.198   1.562 -1.3394 -0.0220  0.8064
   97MOL0     C13302   3.082   1.307   1.480 -0.2792  0.0113  0.0531
   97MOL0     C13303   2.818   1.546   1.181 -0.4041  1.5907  0.3951
   97MOL0     C13304   2.698   1.561   1.117 -0.6827  0.7370 -0.7997
   97MOL0     C13305   2.674   1.672   1.042  0.7212  0.5791  0.4534
   97MOL0     C13306   2.761   1.770   1.027 -0.4435  0.1640 -0.9219
   97MOL0     O13307   2.739   1.890   0.973  0.1505 -0.8848  0.1439
   97MOL0     C13308   2.617   1.913   0.893 -0.6047  0.2108  0.3660
   97MOL0     C13309   2.617   2.052   0.829 -0.6270  0.0450  0.8888
   97MOL0     C13310   2.724   2.072   0.718  0.5974 -0.0332  0.5640
   97MOL0     C13311   2.753   2.220   0.685  0.6405  0.0130  0.1250
   97MOL0     C13312   2.848   2.209   0.576 -0.4339  0.0762 -0.4813
   97MOL0     C13313   2.938   2.232   0.505  0.3727 -0.5516  0.4583
   97MOL0     C13314   2.888   1.757   1.093 -0.2278 -1.0466  0.0365
   97MOL0     C13315   2.921   1.643   1.167  0.1222  1.0453  0.3644
   97MOL0     C13316   3.065   1.629   1.217  0.9638 -0.1199 -0.0715
   97MOL0     H13317   2.743   1.275   1.511  0.0601 -1.0026 -3.5418
   97MOL0     H13318   2.825   1.076   1.654 -0.4891  2.7124  2.4635
   97MOL0     H13319   2.920   0.867   1.676 -0.1131  0.0948 -1.4903
   97MOL0     H13320   2.954   0.966   1.832  0.7863 -0.3420  0.4095
   97MOL0     H13321   3.097   0.726   1.729  0.5758 -0.1319 -1.2405
   97MOL0     H13322   3.143   0.813   1.877 -0.5090  0.0290 -0.0606
   97MOL0     H13323   2.891   0.650   1.845  3.4772 -1.3749 -2.0507
   97MOL0     H13324   3.036   0.628   1.946 -2.7774 -0.1302  4.2630
   97MOL0     H13325   2.998   0.815   2.072  0.9033 -1.9335  1.2265
   97MOL0     H13326   2.835   0.840   2.010 -0.0706  0.0423  2.4178
   97MOL0     H13327   2.934   0.573   2.128 -1.3203 -0.7000  3.2413
   97MOL0     H13328   2.772   0.617   2.081  0.7113 -0.0017  1.2002
   97MOL0     H13329   2.925   0.760   2.310 -0.0852  2.3154  1.0824
   97MOL0     H13330   2.760   0.787   2.268 -0.2187 -0.5234  1.0656
   97MOL0     H13331   2.813   0.601   2.456 -0.6838 -0.2104  0.2604
   97MOL0     H13332   2.838   0.491   2.328 -1.3914 -1.3472  1.0207
   97MOL0     H13333   2.618   0.497   2.454 -0.8844  0.1569  0.0565
   97MOL0     H13334   2.599   0.655   2.392  1.5474  0.4699  0.3979
   97MOL0     H13335   2.629   0.307   2.257 -3.4579 -0.6089  0.3731
   97MOL0     H13336   2.507   0.298   1.886  2.0113 -2.1030 -0.6138
   97MOL0     H13337   2.475   0.191   2.019 -0.3018  1.1050  0.9634
   97MOL0     H13338   2.755   0.298   1.968  0.7881 -0.4137 -0.0391
   97MOL0     H13339   2.703   0.176   2.083 -0.8062 -0.3692 -0.8414
   97MOL0     H13340   2.726   0.162   1.778 -0.4768 -1.8007 -1.5020
   97MOL0     H13341   2.796   0.071   1.910  0.5315  1.9124  1.0646
   97MOL0     H13342   2.565  -0.017   1.954 -1.4539 -1.4012 -0.1377
   97MOL0     H13343   2.515   0.049   1.792 -2.4868 -1.3556  1.7443
   97MOL0     H13344   2.858  -0.264   1.853  1.5192 -0.4142  3.4985
   97MOL0     H13345   2.880  -0.417   2.112  1.0293 -3.3977  0.5301
   97MOL0     H13346   2.972  -0.410   1.959 -1.3841  2.3479 -0.9422
   97MOL0     H13347   2.884  -0.560   1.999 -1.3244  0.2750 -2.3522
   97MOL0     H13348   2.509  -0.844   2.150  1.4026 -1.5354  1.7168
   97MOL0     H13349   2.443  -0.989   2.331  1.8648  0.5758 -0.4853
   97MOL0     H13350   2.461  -1.081   2.525 -0.5398 -4.4307  2.5933
   97MOL0     H13351   2.511  -1.003   2.684  0.1430  2.7539 -0.0877
   97MOL0     H13352   2.386  -1.203   2.708  1.5326  0.7573 -2.6396
   97MOL0     H13353   2.311  -1.063   2.786  1.7961  0.5973  1.0712
   97MOL0     H13354   2.133  -1.047   2.646 -1.9059 -0.0430 -2.0641
   97MOL0     H13355   2.139  -1.215   2.668 -0.5469  1.1673  2.6845
   97MOL0     H13356   2.225  -1.258   2.445 -2.6350 -0.7427 -0.3946
   97MOL0     H13357   2.256  -1.085   2.415  0.3272 -0.2817  1.0415
   97MOL0     H13358   1.961  -1.206   2.461 -0.7614  1.9240  1.7406
   97MOL0     H13359   2.005  -1.045   2.422 -1.3543 -0.5794  0.2559
   97MOL0     H13360   2.065  -1.284   2.254 -1.3190 -0.9881  1.2985
   97MOL0     H13361   2.106  -1.110   2.220  1.0109 -0.8486  1.0497
   97MOL0     H13362   1.880  -1.032   2.191 -0.5271 -0.5853 -0.2850
   97MOL0     H13363   1.818  -1.182   2.251  1.3722  1.1199  3.1315
   97MOL0     H13364   1.995  -1.130   2.000  1.3178 -1.9311 -0.8408
   97MOL0     H13365   1.822  -1.155   1.998  0.9326 -0.9638 -1.2405
   97MOL0     H13366   2.362  -0.651   2.571 -1.4312  0.6216 -0.5751
   97MOL0     H13367   2.386  -0.500   2.356  0.7067  0.1878 -2.9375
   97MOL0     H13368   2.415  -0.432   1.954 -0.2853  1.1128 -2.3923
   97MOL0     H13369   2.427  -0.244   1.835  0.1400  3.0473  1.6008
   97MOL0     H13370   3.224   1.188   1.588  0.1254 -0.8850 -4.3057
   97MOL0     H13371   3.148   1.382   1.438 -1.4569  0.7882 -0.4592
   97MOL0     H13372   2.620   1.486   1.131 -1.2972  1.1519 -1.8617
   97MOL0     H13373   2.575   1.676   0.998  1.1105  1.4484 -0.3967
   97MOL0     H13374   2.622   1.836   0.815 -1.9249  0.4094  0.0648
   97MOL0     H13375   2.522   1.900   0.946 -1.4428 -2.3109 -1.5587
   97MOL0     H13376   2.636   2.129   0.904  3.0882 -0.5459  0.7336
   97MOL0     H13377   2.518   2.066   0.783  0.0751 -0.2428 -0.7844
   97MOL0     H13378   2.817   2.024   0.747  0.9875 -0.9830 -1.9738
   97MOL0     H13379   2.695   2.010   0.633 -0.4270  1.5811 -0.3227
   97MOL0     H13380   2.797   2.283   0.763  1.5005  0.6723 -0.8577
   97MOL0     H13381   2.665   2.274   0.647 -1.4356 -2.8226  0.5695
   97MOL0     H13382   3.023   2.242   0.441  0.1138 -0.4637  0.1263
   97MOL0     H13383   2.962   1.836   1.088 -0.1211 -0.9778  2.0838
   97MOL0     H13384   3.129   1.696   1.159  1.4493  0.0543  0.6443
   97MOL0     H13385   3.075   1.659   1.322 -3.2575 -0.8760  0.6899
   97MOL0     H13386   3.088   1.523   1.205  1.7888  0.1356 -0.8592
   98MOL0     O13387   1.103   6.806   1.256 -0.0479  0.1233  0.1097
   98MOL0     C13388   1.187   6.726   1.294  0.0865 -1.0997 -0.5613
   98MOL0     O13389   1.182   6.684   1.425  0.4215  0.2040 -0.5259
   98MOL0     C13390   1.072   6.709   1.500  0.8517 -0.0215  0.2535
   98MOL0     C13391   0.963   6.613   1.504  0.0356 -1.1793 -0.3658
   98MOL0     C13392   0.846   6.638   1.594 -0.1841  0.9974  0.1481
   98MOL0     C13393   0.843   6.755   1.670  0.5694 -0.7129  0.3713
   98MOL0     O13394   0.736   6.797   1.747 -0.0163 -0.5053  0.1519
   98MOL0     C13395   0.608   6.738   1.725  0.1070 -0.5251 -0.4789
   98MOL0     C13396   0.519   6.798   1.832 -1.1288 -0.2753  0.9141
   98MOL0     C13397   0.383   6.732   1.846  0.0384 -0.4123  0.0116
   98MOL0     C13398   0.389   6.574   1.852  0.2036  0.1273 -0.2446
   98MOL0     C13399   0.456   6.516   1.983  0.0956  0.1379  0.2346
   98MOL0     C13400   0.399   6.574   2.113 -0.4171  0.5992 -0.3910
   98MOL0     C13401   0.500   6.532   2.231 -0.0425 -0.0112  0.2761
   98MOL0     C13402   0.617   6.625   2.257 -1.5918  0.2489  1.0456
   98MOL0     N13403   0.708   6.564   2.353 -0.1358 -0.0560  0.3124
   98MOL0     C13404   0.722   6.597   2.491  0.2642  0.6682  0.3991
   98MOL0     C13405   0.799   6.498   2.534 -0.1749  0.5957 -0.9229
   98MOL0     C13406   0.851   6.504   2.676  0.0270 -0.0527  0.2656
   98MOL0     C13407   0.756   6.458   2.782  0.0263  0.5653  0.0446
   98MOL0     C13408   0.663   6.565   2.834 -0.2684 -0.4973  0.1749
   98MOL0     C13409   0.569   6.517   2.948  0.3271  0.0529  0.1045
   98MOL0     O13410   0.446   6.572   2.954  0.0971  1.2149  0.4633
   98MOL0     C13411   0.424   6.687   3.026  1.1110 -0.1232  0.7470
   98MOL0     C13412   0.522   6.760   3.094  0.8900 -0.3688  0.5122
   98MOL0     C13413   0.492   6.873   3.178  0.0924  0.2710  0.7058
   98MOL0     C13414   0.606   6.935   3.256  0.1653  0.7261 -0.8021
   98MOL0     C13415   0.359   6.920   3.164  0.2036 -0.2346 -0.4878
   98MOL0     C13416   0.311   7.044   3.225  0.0141  0.5867  0.7397
   98MOL0     O13417   0.179   7.049   3.252  0.2380  0.1712 -0.2569
   98MOL0     C13418   0.117   7.152   3.320  0.1628  0.5630  0.2618
   98MOL0     C13419   0.004   7.110   3.376 -0.4996 -0.8256  0.1770
   98MOL0     C13420  -0.052   7.191   3.479 -0.1246  0.3686 -0.0306
   98MOL0     C13421   0.006   7.310   3.521  0.3835 -0.0082  0.7581
   98MOL0     O13422  -0.035   7.379   3.632 -0.1028  0.5024  0.7251
   98MOL0     C13423  -0.171   7.424   3.629  0.7634 -0.2082 -0.1500
   98MOL0     C13424  -0.229   7.399   3.777 -0.3375 -0.0404  0.8807
   98MOL0     C13425  -0.370   7.453   3.786  0.0314 -0.5655  0.4891
   98MOL0     C13426  -0.431   7.439   3.925 -0.3064 -0.5614  0.5358
   98MOL0     C13427  -0.530   7.549   3.948  0.1652 -0.0779 -0.7154
   98MOL0     C13428  -0.650   7.545   3.855 -0.1700  0.8091  0.6506
   98MOL0     C13429  -0.753   7.656   3.884 -0.5130  0.1969  0.5222
   98MOL0     C13430  -0.810   7.655   4.022 -0.3100  0.2992 -0.3862
   98MOL0    Cl13431  -0.904   7.506   4.051  0.4949  0.1637  0.1237
   98MOL0     C13432   0.124   7.351   3.452  0.4858 -0.0761 -1.0460
   98MOL0     C13433   0.178   7.269   3.353 -0.2107 -0.6055 -0.3171
   98MOL0     O13434   0.398   7.133   3.238  0.7922  0.4063  0.4470
   98MOL0     C13435   0.261   6.835   3.099 -0.1508 -0.3046  0.2008
   98MOL0     C13436   0.290   6.717   3.033  0.1515 -0.4121  0.4093
   98MOL0     N13437   0.848   6.418   2.434 -0.4706 -0.1280 -1.2038
   98MOL0     N13438   0.803   6.465   2.322 -0.3594  0.0796 -0.2797
   98MOL0     C13439   0.954   6.839   1.659 -0.1895  0.0534 -0.2034
   98MOL0     C13440   1.057   6.819   1.576  0.2551  0.1268  0.0411
   98MOL0     C13441   1.303   6.702   1.209  0.1395  0.7234 -0.5940
   98MOL0     C13442   1.320   6.777   1.093  0.9414  1.1708 -0.3067
   98MOL0     C13443   1.430   6.760   1.005  1.0086  0.1327  1.1170
   98MOL0     C13444   1.516   6.660   1.027  0.3007  0.2153  0.3788
   98MOL0     O13445   1.608   6.634   0.926 -0.6250 -0.0794 -0.0052
   98MOL0     C13446   1.706   6.527   0.939  0.0604  0.1179 -0.6070
   98MOL0     C13447   1.826   6.584   1.022  0.1072  0.2419  0.1296
   98MOL0     C13448   1.942   6.484   1.031  1.2762  0.6013  0.8295
   98MOL0     C13449   2.031   6.483   0.904  0.9297  0.9171  0.6066
   98MOL0     C13450   1.989   6.386   0.804  1.3369 -0.3163 -0.3534
   98MOL0     C13451   1.949   6.305   0.717  0.1061 -0.6624 -0.1173
   98MOL0     C13452   1.504   6.585   1.140 -0.6608 -0.0837  0.3237
   98MOL0     C13453   1.393   6.597   1.229 -0.3353  0.6698 -1.1118
   98MOL0     C13454   1.385   6.506   1.355 -0.1760  0.0296  0.1809
   98MOL0     H13455   0.972   6.531   1.434  3.9647 -0.8059 -0.5393
   98MOL0     H13456   0.768   6.563   1.588  1.0650 -0.3200 -0.0376
   98MOL0     H13457   0.622   6.630   1.735  2.0186 -0.2703 -0.0416
   98MOL0     H13458   0.571   6.751   1.623 -0.2606  2.0713 -0.0840
   98MOL0     H13459   0.572   6.792   1.927  3.4505 -1.3271 -1.3715
   98MOL0     H13460   0.513   6.903   1.801 -0.3727 -1.2765 -3.2588
   98MOL0     H13461   0.334   6.774   1.934  0.6946 -1.1658  0.7514
   98MOL0     H13462   0.325   6.752   1.755  1.9451 -1.2023 -1.4304
   98MOL0     H13463   0.287   6.535   1.849 -0.4081  1.6318 -3.0826
   98MOL0     H13464   0.431   6.532   1.760  2.3813 -1.0442  1.1863
   98MOL0     H13465   0.564   6.534   1.974  0.4033 -1.7012 -0.1442
   98MOL0     H13466   0.442   6.408   1.993 -0.2294  0.1255 -0.3157
   98MOL0     H13467   0.391   6.682   2.097 -2.1593  0.3887 -1.2506
   98MOL0     H13468   0.295   6.540   2.115 -0.0549 -0.7521 -2.1299
   98MOL0     H13469   0.528   6.427   2.216  0.0421  0.1903 -1.0610
   98MOL0     H13470   0.434   6.533   2.319 -0.4622  2.4005 -0.0085
   98MOL0     H13471   0.674   6.639   2.165 -0.8523 -0.1870  1.4324
   98MOL0     H13472   0.574   6.719   2.292 -2.7545  0.0308  0.2595
   98MOL0     H13473   0.674   6.674   2.550 -2.0595  0.1866 -0.7406
   98MOL0     H13474   0.904   6.598   2.695  0.8307 -0.5212  0.4064
   98MOL0     H13475   0.934   6.434   2.689 -0.5455 -0.5068  1.6430
   98MOL0     H13476   0.692   6.380   2.740 -1.4963  0.9723  1.5076
   98MOL0     H13477   0.817   6.409   2.859  0.1163 -2.8920 -2.0127
   98MOL0     H13478   0.731   6.642   2.871  0.8521 -1.1219 -0.5103
   98MOL0     H13479   0.607   6.611   2.752  1.0897 -0.3980 -0.7266
   98MOL0     H13480   0.551   6.410   2.935  0.0526  0.3435 -2.4022
   98MOL0     H13481   0.623   6.515   3.043 -0.9484 -4.8035  1.0088
   98MOL0     H13482   0.624   6.724   3.095  1.2922  0.6484  2.9105
   98MOL0     H13483   0.580   6.947   3.361  1.5127 -2.5100  0.0439
   98MOL0     H13484   0.644   7.027   3.211  3.5584  0.8260  1.8273
   98MOL0     H13485   0.692   6.867   3.259 -0.4740 -0.1379  2.6481
   98MOL0     H13486  -0.044   7.014   3.359 -0.7130 -0.8060  0.6525
   98MOL0     H13487  -0.144   7.172   3.531 -0.7987  1.4024 -0.7924
   98MOL0     H13488  -0.181   7.532   3.616  1.0301 -0.3015 -1.1939
   98MOL0     H13489  -0.221   7.380   3.543  1.5611 -0.8606 -0.2849
   98MOL0     H13490  -0.205   7.295   3.802  1.4359 -0.1167 -0.8680
   98MOL0     H13491  -0.167   7.458   3.844  1.0461  1.6420 -1.6891
   98MOL0     H13492  -0.428   7.398   3.712 -0.1904 -1.1912  1.1214
   98MOL0     H13493  -0.370   7.556   3.747 -1.6595 -0.2069  1.3440
   98MOL0     H13494  -0.353   7.450   4.001  1.8336  2.4784 -1.8676
   98MOL0     H13495  -0.481   7.342   3.935  0.7793 -0.9999  2.0723
   98MOL0     H13496  -0.558   7.548   4.054  0.2717 -0.2670 -0.6885
   98MOL0     H13497  -0.471   7.639   3.929 -0.5343  0.8376  1.1790
   98MOL0     H13498  -0.700   7.448   3.860  1.0203 -0.2172 -3.4839
   98MOL0     H13499  -0.618   7.559   3.752  0.3286 -4.0642 -0.0702
   98MOL0     H13500  -0.828   7.648   3.805  0.0911  1.3989 -0.2049
   98MOL0     H13501  -0.710   7.756   3.870  2.1943 -0.8780  0.5326
   98MOL0     H13502  -0.886   7.734   4.019  0.0203  0.6336 -0.0395
   98MOL0     H13503  -0.742   7.688   4.100  0.1089  2.1222 -1.4578
   98MOL0     H13504   0.167   7.449   3.470 -1.7136  0.7677  0.0169
   98MOL0     H13505   0.268   7.308   3.305  0.8649 -0.4243  1.7133
   98MOL0     H13506   0.162   6.876   3.084  0.8983  3.6407  2.6284
   98MOL0     H13507   0.218   6.658   2.977  1.0544 -0.3420 -0.8914
   98MOL0     H13508   0.960   6.924   1.726 -0.2394  0.9841 -1.3338
   98MOL0     H13509   1.142   6.886   1.564  0.4985 -0.5374 -2.3045
   98MOL0     H13510   1.245   6.853   1.071  1.3169  0.6770 -3.9331
   98MOL0     H13511   1.443   6.820   0.916 -1.0364  0.0599  0.7250
   98MOL0     H13512   1.668   6.434   0.981  0.0201  1.2021  1.9134
   98MOL0     H13513   1.742   6.500   0.839  0.6728 -0.0261 -0.3520
   98MOL0     H13514   1.778   6.598   1.120 -0.5362  6.3304 -0.7031
   98MOL0     H13515   1.843   6.680   0.973  0.0673 -0.9689 -2.3956
   98MOL0     H13516   2.015   6.533   1.096  2.5867  1.5109 -1.1964
   98MOL0     H13517   1.914   6.379   1.047  1.8601 -0.0029 -1.6069
   98MOL0     H13518   2.127   6.448   0.944 -0.6264 -0.2409  3.6665
   98MOL0     H13519   2.055   6.580   0.860  0.8456 -1.5352 -6.1805
   98MOL0     H13520   1.929   6.244   0.631  1.8761 -1.9993  0.3682
   98MOL0     H13521   1.576   6.505   1.156  1.7062  1.4616 -1.9125
   98MOL0     H13522   1.287   6.461   1.369 -0.5919  0.6197 -0.7295
   98MOL0     H13523   1.466   6.434   1.340  1.5374  2.0559 -0.8370
   98MOL0     H13524   1.416   6.564   1.443  0.3734  2.2153 -1.3549
   99MOL0     O13525   2.732   1.763   5.786  0.6038 -0.9632 -0.3162
   99MOL0     C13526   2.676   1.668   5.736 -0.8931  1.1620  0.5092
   99MOL0     O13527   2.536   1.651   5.721 -0.2054 -0.6753 -0.1721
   99MOL0     C13528   2.472   1.762   5.776 -0.4733 -0.4981  0.1327
   99MOL0     C13529   2.409   1.747   5.902  0.5285  0.4406 -0.2199
   99MOL0     C13530   2.331   1.846   5.960 -0.0406 -0.3596  0.5682
   99MOL0     C13531   2.318   1.966   5.896  0.9590 -0.0929 -0.6508
   99MOL0     O13532   2.242   2.075   5.944  0.0558  0.2297 -0.8660
   99MOL0     C13533   2.147   2.070   6.047 -0.0051  0.2215 -0.2438
   99MOL0     C13534   2.016   1.987   6.015 -0.0704 -0.1282  0.2526
   99MOL0     C13535   1.954   2.056   5.896 -0.3241 -0.9114 -0.2828
   99MOL0     C13536   1.874   1.961   5.807  0.3889  0.0864 -0.0238
   99MOL0     C13537   1.955   1.893   5.704  0.4625  0.5377 -0.2063
   99MOL0     C13538   1.865   1.785   5.636  0.2688 -0.5197 -0.0064
   99MOL0     C13539   1.913   1.740   5.489 -0.1729  0.0055 -0.1342
   99MOL0     C13540   2.047   1.672   5.489  0.1261 -0.1180 -1.9414
   99MOL0     N13541   2.065   1.554   5.585 -0.6817 -0.1565  0.0906
   99MOL0     C13542   2.164   1.522   5.676 -0.7904  0.8175  0.4905
   99MOL0     C13543   2.114   1.415   5.751 -1.0868 -0.7479  1.0479
   99MOL0     C13544   2.177   1.341   5.866  0.8382 -0.2323  0.9192
   99MOL0     C13545   2.320   1.296   5.835 -0.0477  1.0963  0.1914
   99MOL0     C13546   2.360   1.193   5.934 -0.4796  0.0241 -0.3209
   99MOL0     C13547   2.517   1.192   5.937  0.6715 -0.1250  0.1143
   99MOL0     O13548   2.561   1.320   5.972  0.0895  0.2931 -0.9277
   99MOL0     C13549   2.695   1.348   5.980  0.3553 -0.3429  0.5546
   99MOL0     C13550   2.718   1.469   6.037  0.0410 -0.5307 -0.4873
   99MOL0     C13551   2.853   1.512   6.055  0.2605  0.8263 -0.0724
   99MOL0     C13552   2.862   1.656   6.099  0.7123  0.4066  0.0763
   99MOL0     C13553   2.956   1.429   6.017  0.1098  0.1319  0.1748
   99MOL0     C13554   3.098   1.475   6.009 -0.5981  1.0058  0.5223
   99MOL0     O13555   3.185   1.380   5.958  0.1746  0.3868  0.6322
   99MOL0     C13556   3.318   1.415   5.934 -0.2595  0.2164 -0.1124
   99MOL0     C13557   3.413   1.423   6.039 -0.0416 -1.4169 -0.4116
   99MOL0     C13558   3.545   1.453   6.014  0.7278 -0.2578  0.1745
   99MOL0     C13559   3.591   1.466   5.882  0.1331  1.0488  0.3916
   99MOL0     O13560   3.725   1.486   5.850 -0.1251  0.0025  0.4282
   99MOL0     C13561   3.819   1.456   5.950  0.5047  0.8554 -0.0990
   99MOL0     C13562   3.965   1.450   5.896 -1.0633 -0.2236  0.7494
   99MOL0     C13563   4.008   1.584   5.853 -0.4674  0.9354 -0.7033
   99MOL0     C13564   4.165   1.590   5.834 -0.0235 -0.0104 -0.2113
   99MOL0     C13565   4.195   1.728   5.765  0.2318 -1.0819 -0.0241
   99MOL0     C13566   4.350   1.749   5.736  1.3930 -0.0429  0.8943
   99MOL0     C13567   4.433   1.713   5.860 -0.8500 -0.1974 -0.5367
   99MOL0     C13568   4.577   1.755   5.837  0.9697  0.3707 -0.0083
   99MOL0    Cl13569   4.588   1.930   5.830  0.3323  0.0507  0.2090
   99MOL0     C13570   3.495   1.454   5.778 -0.2905  0.6210 -0.5469
   99MOL0     C13571   3.361   1.433   5.804 -0.1253  0.3398 -0.1542
   99MOL0     O13572   3.131   1.594   6.041  0.2393 -0.1803  0.1761
   99MOL0     C13573   2.929   1.294   5.974  0.0927  0.2533 -0.3599
   99MOL0     C13574   2.796   1.253   5.949  0.2753  0.3570  1.1281
   99MOL0     N13575   1.990   1.383   5.696  0.0751  0.3241  0.7441
   99MOL0     N13576   1.960   1.466   5.598  0.2180 -0.4548  0.4899
   99MOL0     C13577   2.357   1.986   5.765  0.1300  0.2114  0.9075
   99MOL0     C13578   2.446   1.885   5.709  0.1715 -0.7797  0.8235
   99MOL0     C13579   2.762   1.559   5.688 -0.4230  0.6186  0.3471
   99MOL0     C13580   2.699   1.448   5.631  0.3731 -0.9649 -0.9479
   99MOL0     C13581   2.762   1.341   5.572  1.6103 -0.4873 -0.1504
   99MOL0     C13582   2.901   1.332   5.584  0.4622 -0.4025 -0.6641
   99MOL0     O13583   2.978   1.224   5.545 -0.3329 -0.3592 -0.4964
   99MOL0     C13584   2.953   1.088   5.601 -0.2443  0.1092  0.0399
   99MOL0     C13585   3.048   0.991   5.534  0.4054 -0.7426 -0.0060
   99MOL0     C13586   3.002   0.977   5.388 -0.0246 -0.2818 -0.0775
   99MOL0     C13587   3.030   0.835   5.331  0.1445 -0.9419  0.6789
   99MOL0     C13588   2.937   0.739   5.400  0.4864  0.6447 -0.3214
   99MOL0     C13589   2.858   0.661   5.453  0.6569 -0.1283  0.0525
   99MOL0     C13590   2.970   1.453   5.614  1.2154 -0.7687  0.5592
   99MOL0     C13591   2.898   1.565   5.662 -0.8340 -0.2977 -0.2655
   99MOL0     C13592   2.980   1.696   5.672 -0.2652  0.1088  0.0582
   99MOL0     H13593   2.414   1.652   5.954  0.7666  0.6680  0.1800
   99MOL0     H13594   2.274   1.813   6.046 -1.0247  0.5143  0.2800
   99MOL0     H13595   2.116   2.171   6.073 -0.4636 -0.2503  1.1626
   99MOL0     H13596   2.184   2.037   6.145 -5.3481 -0.8723  1.7575
   99MOL0     H13597   2.033   1.880   5.998  0.6877 -0.1278  0.9497
   99MOL0     H13598   1.947   2.001   6.099  1.9870  2.4460  1.6592
   99MOL0     H13599   1.884   2.134   5.928 -2.6240 -2.9319 -0.0920
   99MOL0     H13600   2.034   2.099   5.835  0.7029 -2.8101 -0.3416
   99MOL0     H13601   1.820   1.896   5.877  0.8646  0.1605  0.4142
   99MOL0     H13602   1.801   2.022   5.752  0.2863 -0.7091 -0.7755
   99MOL0     H13603   2.047   1.849   5.746 -1.1535 -3.5968 -0.5634
   99MOL0     H13604   1.976   1.971   5.630  3.0299 -0.2099 -0.3696
   99MOL0     H13605   1.860   1.695   5.698 -0.8359 -0.8361 -0.5231
   99MOL0     H13606   1.769   1.837   5.632  2.7173  4.5971 -1.4522
   99MOL0     H13607   1.910   1.823   5.419 -1.8619  1.5277  1.6418
   99MOL0     H13608   1.839   1.667   5.455  0.1277 -1.1529  1.5817
   99MOL0     H13609   2.047   1.640   5.384  1.3702 -1.0732 -1.6687
   99MOL0     H13610   2.138   1.732   5.498  1.4666 -2.3635  1.2110
   99MOL0     H13611   2.254   1.581   5.693 -0.8489  1.1779 -0.3861
   99MOL0     H13612   2.119   1.250   5.887  2.3206 -0.6970  3.4281
   99MOL0     H13613   2.161   1.398   5.958 -0.7254 -3.5737  2.9296
   99MOL0     H13614   2.317   1.248   5.737  0.6916  0.8352  0.2871
   99MOL0     H13615   2.389   1.377   5.811  1.7029 -0.4077 -0.1046
   99MOL0     H13616   2.324   1.211   6.036 -1.0496 -0.4317 -0.4387
   99MOL0     H13617   2.324   1.094   5.906 -1.5099 -0.0511  1.1581
   99MOL0     H13618   2.551   1.138   6.025 -0.6450 -1.3100 -0.0602
   99MOL0     H13619   2.559   1.150   5.844 -0.0038  1.8931 -1.1621
   99MOL0     H13620   2.637   1.535   6.067 -0.5687 -2.4861  2.5110
   99MOL0     H13621   2.946   1.678   6.166  0.6783  1.2350 -0.1406
   99MOL0     H13622   2.766   1.689   6.141 -1.2283 -2.2856 -1.8934
   99MOL0     H13623   2.891   1.720   6.015  3.1446 -1.1795 -0.3938
   99MOL0     H13624   3.390   1.393   6.141  1.3356 -0.2685  0.2715
   99MOL0     H13625   3.603   1.468   6.104 -0.6776 -1.8590  1.4305
   99MOL0     H13626   3.818   1.533   6.027 -0.3366  1.4514 -0.6913
   99MOL0     H13627   3.795   1.364   6.004 -0.4260  1.1480 -0.0008
   99MOL0     H13628   4.030   1.402   5.971  0.8175 -0.5083 -0.9768
   99MOL0     H13629   3.981   1.384   5.811 -0.2578 -1.1277  1.5709
   99MOL0     H13630   3.971   1.660   5.923 -1.7592  1.3463 -1.7857
   99MOL0     H13631   3.960   1.606   5.757 -0.6141  2.0113 -0.4061
   99MOL0     H13632   4.212   1.511   5.773 -0.4794 -1.6817  1.4933
   99MOL0     H13633   4.216   1.562   5.927  1.6209 -0.3229 -1.1668
   99MOL0     H13634   4.132   1.735   5.676  2.0084 -1.2901 -1.3576
   99MOL0     H13635   4.160   1.805   5.834 -0.2187 -2.0222  0.8084
   99MOL0     H13636   4.365   1.851   5.701  0.3794  0.3058  1.4328
   99MOL0     H13637   4.376   1.675   5.660 -2.1172 -0.8201  0.2512
   99MOL0     H13638   4.439   1.604   5.873 -2.5675 -0.0792  2.1243
   99MOL0     H13639   4.410   1.754   5.959  4.1826 -0.4482  0.9880
   99MOL0     H13640   4.604   1.715   5.738 -2.2442 -0.3748 -0.6735
   99MOL0     H13641   4.638   1.722   5.921  1.6084  0.7590 -0.3127
   99MOL0     H13642   3.527   1.443   5.675  0.2138  3.6128 -0.8085
   99MOL0     H13643   3.286   1.406   5.731 -1.1757  0.1983  0.9332
   99MOL0     H13644   2.999   1.224   5.931 -1.6875 -2.5186  0.9815
   99MOL0     H13645   2.770   1.160   5.900 -0.0794  1.0279  0.0042
   99MOL0     H13646   2.319   2.071   5.709 -1.7023 -1.0199  0.2292
   99MOL0     H13647   2.502   1.933   5.629  0.5517  0.4058  1.7678
   99MOL0     H13648   2.592   1.431   5.643  0.4867 -0.7293  0.6281
   99MOL0     H13649   2.700   1.262   5.532 -1.8763  2.3444 -0.8387
   99MOL0     H13650   2.982   1.085   5.707 -0.5872  0.9238  0.1704
   99MOL0     H13651   2.849   1.054   5.591 -0.0670 -0.2607 -0.5866
   99MOL0     H13652   3.037   0.898   5.590  0.9497 -1.1392 -0.5413
   99MOL0     H13653   3.153   1.023   5.542  0.3065 -0.7838  1.7649
   99MOL0     H13654   2.899   1.006   5.365 -0.3064 -2.1368 -1.4013
   99MOL0     H13655   3.072   1.055   5.353 -1.0173  0.7127  0.1040
   99MOL0     H13656   3.133   0.803   5.345  0.4807 -0.4356 -0.5129
   99MOL0     H13657   3.020   0.835   5.222 -1.1054 -0.7198  0.7817
   99MOL0     H13658   2.782   0.600   5.498  2.1953 -0.9086  1.6952
   99MOL0     H13659   3.077   1.465   5.605  0.8856  1.3645 -1.7622
   99MOL0     H13660   2.937   1.774   5.610 -1.0993  1.9396  2.7616
   99MOL0     H13661   2.980   1.730   5.776  0.4630  1.0282 -0.2381
   99MOL0     H13662   3.085   1.683   5.645 -0.1820 -1.7681  1.1078
  100MOL0     O13663   3.611   4.828   8.572  0.4146 -0.0208  0.1215
  100MOL0     C13664   3.542   4.798   8.476 -0.6256 -0.1020  1.1091
  100MOL0     O13665   3.493   4.882   8.379  0.0268 -0.2434  0.0335
  100MOL0     C13666   3.550   5.007   8.371 -0.3479  0.2829 -0.0570
  100MOL0     C13667   3.465   5.115   8.365  1.1490 -0.1353  0.0436
  100MOL0     C13668   3.508   5.252   8.337 -0.1975  0.4128 -0.7929
  100MOL0     C13669   3.650   5.280   8.332 -0.0584  0.2788  1.3405
  100MOL0     O13670   3.707   5.402   8.311  0.4030 -0.0721  0.0545
  100MOL0     C13671   3.613   5.508   8.292  0.0201 -0.2566 -0.2100
  100MOL0     C13672   3.683   5.641   8.278 -0.4397 -1.0044  0.3768
  100MOL0     C13673   3.736   5.648   8.129  0.3823  0.9952  0.4935
  100MOL0     C13674   3.832   5.761   8.113 -0.3531  0.5841 -0.1144
  100MOL0     C13675   3.977   5.740   8.160 -0.4467 -0.0547 -0.3061
  100MOL0     C13676   4.057   5.629   8.082  0.3148  0.2006 -1.3937
  100MOL0     C13677   4.118   5.688   7.953 -0.2240 -0.8188  0.3162
  100MOL0     C13678   4.177   5.580   7.870  0.2245  0.0300  0.0786
  100MOL0     N13679   4.279   5.484   7.925 -0.1884 -0.9844  0.1789
  100MOL0     C13680   4.412   5.506   7.931 -0.4515  1.2155  0.8133
  100MOL0     C13681   4.466   5.401   7.988  0.1574  0.8265 -0.6094
  100MOL0     C13682   4.610   5.393   8.000 -0.5941 -0.1014 -0.2265
  100MOL0     C13683   4.661   5.284   7.914  0.3524  0.7657  1.4168
  100MOL0     C13684   4.617   5.143   7.957  0.9676  0.4840 -0.8901
  100MOL0     C13685   4.709   5.030   7.908 -0.5419  0.3848  0.3954
  100MOL0     O13686   4.644   4.901   7.941  0.0776  0.6781 -0.4246
  100MOL0     C13687   4.726   4.790   7.927 -0.2269  0.2417 -0.6654
  100MOL0     C13688   4.710   4.688   8.010  0.1379  1.6751  0.8107
  100MOL0     C13689   4.795   4.577   7.999 -0.1040 -0.1753 -0.3592
  100MOL0     C13690   4.770   4.460   8.096 -0.0910  0.0917  0.0803
  100MOL0     C13691   4.891   4.568   7.898 -0.3244  0.0882  0.4424
  100MOL0     C13692   4.984   4.459   7.885 -0.0786  0.3091  0.0380
  100MOL0     O13693   5.113   4.496   7.871 -0.6290  0.3539 -0.2624
  100MOL0     C13694   5.210   4.420   7.926  1.0420 -0.1882  0.5427
  100MOL0     C13695   5.177   4.314   8.016 -0.4304 -0.0646  0.9662
  100MOL0     C13696   5.291   4.247   8.085 -0.1656  0.6629  1.1452
  100MOL0     C13697   5.425   4.273   8.057 -1.1177  0.3611 -1.2185
  100MOL0     O13698   5.531   4.206   8.125  0.3006  0.4941 -0.4982
  100MOL0     C13699   5.645   4.167   8.039  0.0646  0.2801 -0.0276
  100MOL0     C13700   5.725   4.058   8.112  0.0107  0.0290 -0.2672
  100MOL0     C13701   5.812   4.104   8.231  0.1534 -0.4679 -0.0918
  100MOL0     C13702   5.866   3.988   8.321 -0.1560 -0.0051 -0.2706
  100MOL0     C13703   5.969   4.018   8.424 -0.2250  0.2247 -0.8951
  100MOL0     C13704   6.019   3.895   8.489 -0.4032  0.8483  0.4362
  100MOL0     C13705   6.133   3.930   8.594  0.2072 -0.3411  0.1271
  100MOL0     C13706   6.189   3.815   8.666  1.0471  0.0319  0.8096
  100MOL0    Cl13707   6.067   3.697   8.716  0.3157  0.5918  0.5535
  100MOL0     C13708   5.453   4.381   7.967  0.1701  0.4957  0.5943
  100MOL0     C13709   5.348   4.452   7.905 -0.4914 -0.4132 -0.3569
  100MOL0     O13710   4.935   4.347   7.866  0.8407  0.4047 -0.6923
  100MOL0     C13711   4.914   4.677   7.815 -0.1665 -0.5471  1.1287
  100MOL0     C13712   4.831   4.790   7.835 -0.0521  0.2158 -0.4037
  100MOL0     N13713   4.364   5.319   8.030 -0.3644 -0.2842 -0.3916
  100MOL0     N13714   4.258   5.367   7.982 -0.3584  1.0586  0.0243
  100MOL0     C13715   3.732   5.158   8.343 -0.3869 -0.6307 -0.2101
  100MOL0     C13716   3.682   5.030   8.347  0.5515  0.2462  0.3560
  100MOL0     C13717   3.506   4.655   8.454 -0.4762  0.0025  0.4082
  100MOL0     C13718   3.413   4.618   8.355 -0.7508 -0.2577 -0.2021
  100MOL0     C13719   3.371   4.485   8.330 -0.9394  0.7708  0.6200
  100MOL0     C13720   3.434   4.381   8.395  0.1164 -0.3987 -0.6322
  100MOL0     O13721   3.416   4.251   8.373 -0.7450 -0.0914  0.6164
  100MOL0     C13722   3.344   4.196   8.261  0.0846  0.0483 -0.4421
  100MOL0     C13723   3.197   4.176   8.281  1.0469 -0.2714 -0.1706
  100MOL0     C13724   3.125   4.161   8.148 -0.7682  0.2882  0.2843
  100MOL0     C13725   3.073   4.296   8.105 -0.2402 -0.2704  0.1798
  100MOL0     C13726   3.176   4.374   8.040 -0.8919 -1.3533  0.7070
  100MOL0     C13727   3.262   4.455   7.997 -1.0919  0.0025  0.4825
  100MOL0     C13728   3.531   4.408   8.496 -0.0583 -0.1062  0.2107
  100MOL0     C13729   3.554   4.543   8.538  0.2141  0.4044  0.6086
  100MOL0     C13730   3.646   4.557   8.660  0.0612  0.2285  1.0974
  100MOL0     H13731   3.360   5.089   8.360  0.8417  1.2234 -3.6914
  100MOL0     H13732   3.424   5.318   8.317 -0.5120  1.0069  1.9916
  100MOL0     H13733   3.548   5.522   8.379  1.2671  0.4601  0.6394
  100MOL0     H13734   3.556   5.489   8.200  1.7394 -0.7412 -1.2244
  100MOL0     H13735   3.622   5.730   8.292  1.5421  0.7530 -1.4414
  100MOL0     H13736   3.767   5.657   8.347 -0.0230  0.9858 -0.5184
  100MOL0     H13737   3.776   5.552   8.095  1.1541  1.5354 -0.1628
  100MOL0     H13738   3.652   5.668   8.062 -0.1718  0.1421  0.9195
  100MOL0     H13739   3.828   5.793   8.009 -1.2510 -4.3997 -1.8796
  100MOL0     H13740   3.800   5.851   8.168  0.8772  0.2328  1.2561
  100MOL0     H13741   3.987   5.717   8.267  3.6054  0.5597 -0.3654
  100MOL0     H13742   4.037   5.831   8.148  0.3690 -0.6885 -1.2219
  100MOL0     H13743   4.138   5.599   8.150 -1.1364  2.4585  1.5461
  100MOL0     H13744   3.990   5.546   8.057 -0.7962  1.4924 -2.8753
  100MOL0     H13745   4.193   5.768   7.957  0.4132 -1.4299  1.0568
  100MOL0     H13746   4.038   5.727   7.890  1.2911  0.5317 -0.8591
  100MOL0     H13747   4.101   5.526   7.813  2.1408  0.2453 -2.9553
  100MOL0     H13748   4.226   5.645   7.796  1.1267 -1.8561 -1.0695
  100MOL0     H13749   4.468   5.592   7.893  0.6564 -0.3987 -1.4390
  100MOL0     H13750   4.633   5.363   8.103  2.0177 -0.8155 -0.9542
  100MOL0     H13751   4.659   5.490   7.985 -2.0245  1.3528  3.3681
  100MOL0     H13752   4.609   5.302   7.819 -2.8462  2.7476  3.3422
  100MOL0     H13753   4.770   5.281   7.905  0.1672 -2.2459 -1.6721
  100MOL0     H13754   4.606   5.134   8.065  2.7592 -0.4558 -0.7473
  100MOL0     H13755   4.520   5.124   7.911  0.7358 -0.4896 -0.0287
  100MOL0     H13756   4.727   5.042   7.801 -0.7769  0.8833  0.4105
  100MOL0     H13757   4.809   5.029   7.953 -0.4744  0.2113  0.2441
  100MOL0     H13758   4.636   4.686   8.090  0.8273  1.6724  1.4595
  100MOL0     H13759   4.725   4.503   8.186 -1.2773 -1.1143  0.0909
  100MOL0     H13760   4.863   4.410   8.124 -0.8272 -2.4340 -1.6416
  100MOL0     H13761   4.701   4.381   8.066 -0.7139 -0.2286  2.1910
  100MOL0     H13762   5.078   4.272   8.031 -1.4200  2.0605  0.7404
  100MOL0     H13763   5.270   4.164   8.152  3.4925 -2.4093 -1.0640
  100MOL0     H13764   5.605   4.133   7.943 -2.1306 -1.7807  1.4772
  100MOL0     H13765   5.697   4.256   8.002 -0.8815 -0.4227 -3.4212
  100MOL0     H13766   5.654   3.980   8.142  0.6480 -0.4282  0.0934
  100MOL0     H13767   5.784   4.011   8.033  0.3750 -0.8660  0.5063
  100MOL0     H13768   5.744   4.146   8.306 -3.5277 -0.4833 -3.1140
  100MOL0     H13769   5.896   4.167   8.201  0.2409  0.4599  1.9550
  100MOL0     H13770   5.912   3.908   8.263  0.8616 -2.3375  3.4624
  100MOL0     H13771   5.780   3.938   8.366  0.3929 -1.9380 -1.2360
  100MOL0     H13772   6.060   4.058   8.378  0.1388  0.8292  0.3048
  100MOL0     H13773   5.935   4.095   8.495  1.7738  2.1951 -1.9399
  100MOL0     H13774   6.061   3.822   8.419 -3.2176 -0.9083  0.3792
  100MOL0     H13775   5.933   3.846   8.537  0.2976  0.0135  0.8710
  100MOL0     H13776   6.087   3.997   8.667 -0.7062  0.6020 -1.2647
  100MOL0     H13777   6.209   3.989   8.541 -1.1672 -0.5870 -2.2707
  100MOL0     H13778   6.251   3.846   8.751  0.6213  1.0891  0.7470
  100MOL0     H13779   6.255   3.761   8.598  1.8902 -0.3237  1.8811
  100MOL0     H13780   5.552   4.414   7.936  0.2327  1.8524  2.1213
  100MOL0     H13781   5.368   4.520   7.823  2.3100 -2.2156 -1.3341
  100MOL0     H13782   4.990   4.692   7.738 -2.6058 -0.4294 -1.3977
  100MOL0     H13783   4.854   4.872   7.767 -0.8949  1.3305  0.6195
  100MOL0     H13784   3.839   5.163   8.329 -0.2394 -1.4621  0.5813
  100MOL0     H13785   3.744   4.941   8.342 -1.6212 -1.3349 -3.4293
  100MOL0     H13786   3.381   4.690   8.281  4.2875 -0.1340 -2.6106
  100MOL0     H13787   3.297   4.467   8.252 -1.1595 -0.2862  1.0540
  100MOL0     H13788   3.365   4.263   8.177  0.9451  0.3988  0.0370
  100MOL0     H13789   3.385   4.098   8.237  0.3463 -0.8711  3.1129
  100MOL0     H13790   3.152   4.253   8.343 -0.3726  1.7421 -3.4074
  100MOL0     H13791   3.194   4.083   8.339 -1.9623  0.7102  1.4650
  100MOL0     H13792   3.192   4.128   8.068 -1.6289  2.2996 -1.3504
  100MOL0     H13793   3.050   4.083   8.166  3.2921 -4.6401 -1.6401
  100MOL0     H13794   3.033   4.344   8.195 -3.7775 -2.1774 -0.1998
  100MOL0     H13795   3.000   4.282   8.024 -0.4079  0.9523  0.1075
  100MOL0     H13796   3.336   4.524   7.961  0.6671 -1.6246  0.8133
  100MOL0     H13797   3.572   4.327   8.555  2.0914 -1.1025 -2.4267
  100MOL0     H13798   3.749   4.557   8.625  0.0426 -1.4787  0.9673
  100MOL0     H13799   3.631   4.648   8.718  0.3415  1.0909 -0.1466
  100MOL0     H13800   3.643   4.469   8.725  0.4903 -0.2671  0.4696
  101MOL0     O13801  11.056   9.836   5.963  0.2710  0.2601 -0.6542
  101MOL0     C13802  11.066   9.778   6.072 -0.4146 -0.5559 -0.0254
  101MOL0     O13803  10.959   9.729   6.145 -0.7451  0.0229  1.1639
  101MOL0     C13804  10.831   9.770   6.116 -0.2938 -0.1371  0.0514
  101MOL0     C13805  10.770   9.822   6.229  0.4209 -0.1825 -0.1391
  101MOL0     C13806  10.637   9.876   6.212 -0.1797 -0.2833 -0.9273
  101MOL0     C13807  10.574   9.881   6.088  0.7807  0.9245 -0.2074
  101MOL0     O13808  10.440   9.922   6.066 -0.0630  0.0520 -0.8858
  101MOL0     C13809  10.349   9.964   6.176 -0.2504 -1.3911 -0.8113
  101MOL0     C13810  10.306   9.843   6.256 -0.1811  0.5076  0.5171
  101MOL0     C13811  10.185   9.887   6.352 -0.8471 -0.0015  0.7370
  101MOL0     C13812  10.170   9.794   6.476 -0.2459  0.3869  0.1886
  101MOL0     C13813  10.261   9.844   6.600 -0.3359 -0.1087  0.5764
  101MOL0     C13814  10.229   9.758   6.721  0.3825 -0.2156 -0.4426
  101MOL0     C13815  10.289   9.622   6.706 -0.7572 -0.0273  0.1770
  101MOL0     C13816  10.446   9.603   6.726  0.6204  0.5688 -0.5732
  101MOL0     N13817  10.522   9.619   6.603  0.1668  0.1471  0.0975
  101MOL0     C13818  10.488   9.549   6.492  0.2047  0.7722 -0.5747
  101MOL0     C13819  10.587   9.567   6.401  0.2992  0.1258 -0.2147
  101MOL0     C13820  10.576   9.511   6.256 -0.5024  0.0688  0.1939
  101MOL0     C13821  10.655   9.373   6.223  0.0555 -0.3311  0.3995
  101MOL0     C13822  10.805   9.397   6.221 -0.0148 -1.1178 -0.6074
  101MOL0     C13823  10.874   9.252   6.223 -0.2031 -0.1612  0.6864
  101MOL0     O13824  11.016   9.274   6.232 -0.5971  0.5680 -0.5377
  101MOL0     C13825  11.105   9.168   6.251 -0.5715  0.0443  0.2953
  101MOL0     C13826  11.087   9.037   6.223 -0.0688  0.0909  0.9903
  101MOL0     C13827  11.193   8.938   6.228 -0.4564  0.3001 -0.2287
  101MOL0     C13828  11.150   8.801   6.193  0.1223 -0.7194 -0.1554
  101MOL0     C13829  11.320   8.984   6.269 -0.4473 -0.3031 -0.5509
  101MOL0     C13830  11.440   8.902   6.271  0.4323  0.1219 -1.0285
  101MOL0     O13831  11.421   8.770   6.292  0.6750  0.2161  0.2395
  101MOL0     C13832  11.534   8.698   6.286 -0.6491 -0.2943  0.1584
  101MOL0     C13833  11.566   8.607   6.183  0.6922  0.4348  1.1214
  101MOL0     C13834  11.670   8.520   6.211 -0.0278 -0.1366  0.1119
  101MOL0     C13835  11.743   8.516   6.330 -0.2889  0.2548  0.7154
  101MOL0     O13836  11.847   8.417   6.333 -0.7401 -0.1840  0.0495
  101MOL0     C13837  11.885   8.393   6.464  0.3449  0.1636 -1.0000
  101MOL0     C13838  12.019   8.308   6.457 -0.4646  1.1970 -0.0023
  101MOL0     C13839  12.032   8.188   6.356 -0.4406  1.0200  0.5306
  101MOL0     C13840  11.930   8.080   6.407  0.8918 -0.0574  0.3819
  101MOL0     C13841  11.946   7.942   6.356 -0.4726  0.3545  0.6157
  101MOL0     C13842  11.958   7.940   6.204 -1.1507 -0.3217  0.3391
  101MOL0     C13843  11.883   7.816   6.141  0.1002  0.5670  0.4648
  101MOL0     C13844  11.910   7.796   5.986 -1.0350  0.3750  0.7704
  101MOL0    Cl13845  12.078   7.727   5.979  0.1792  0.5749  0.3260
  101MOL0     C13846  11.720   8.617   6.426 -0.1679 -0.5292  0.2330
  101MOL0     C13847  11.611   8.704   6.411  0.7336 -0.6076  0.1709
  101MOL0     O13848  11.551   8.959   6.251  0.5016  0.6822  0.2009
  101MOL0     C13849  11.337   9.120   6.305 -0.0628  1.2756  0.4313
  101MOL0     C13850  11.223   9.206   6.291  0.2397 -0.6283  0.6846
  101MOL0     N13851  10.680   9.659   6.455  0.0835 -0.3218  0.6748
  101MOL0     N13852  10.646   9.672   6.576  0.3560 -0.0200  0.5532
  101MOL0     C13853  10.637   9.829   5.977  0.8011 -0.0886 -0.4496
  101MOL0     C13854  10.769   9.766   5.988 -0.5028 -0.4805 -0.1448
  101MOL0     C13855  11.193   9.751   6.137  0.1005  0.4328  0.7157
  101MOL0     C13856  11.216   9.626   6.198  0.3369 -0.3928  1.0218
  101MOL0     C13857  11.340   9.594   6.258  0.2320  0.2856 -0.1209
  101MOL0     C13858  11.439   9.693   6.260 -0.1385  1.1001 -0.2858
  101MOL0     O13859  11.545   9.649   6.329  0.4648  0.2096  0.5494
  101MOL0     C13860  11.675   9.714   6.323 -0.3352  0.6502 -0.5679
  101MOL0     C13861  11.677   9.816   6.445 -0.5782 -0.2278  0.0320
  101MOL0     C13862  11.635   9.752   6.577 -0.2500  0.1956  0.8456
  101MOL0     C13863  11.656   9.838   6.705  0.3315 -0.6144 -0.2312
  101MOL0     C13864  11.578   9.962   6.683 -0.1324 -0.5382  0.5494
  101MOL0     C13865  11.528  10.072   6.655 -0.1295  0.4136  0.0694
  101MOL0     C13866  11.428   9.811   6.189 -0.0339 -0.2979  0.0159
  101MOL0     C13867  11.305   9.845   6.134 -0.1321 -0.6230 -0.0402
  101MOL0     C13868  11.304   9.977   6.059  0.7528 -0.1741 -0.4316
  101MOL0     H13869  10.817   9.803   6.324 -2.1711  0.5858  1.4063
  101MOL0     H13870  10.578   9.890   6.302 -0.0271  0.3846 -0.9266
  101MOL0     H13871  10.263  10.009   6.125 -2.2888 -1.4321  2.3597
  101MOL0     H13872  10.402  10.026   6.248  0.6666 -2.5731 -0.4331
  101MOL0     H13873  10.280   9.769   6.179  0.5268  0.0299  0.7196
  101MOL0     H13874  10.383   9.797   6.320  0.6724  0.6827 -0.3608
  101MOL0     H13875  10.183   9.993   6.382 -0.1670 -0.2102  1.5542
  101MOL0     H13876  10.095   9.878   6.291 -0.2617  1.6488 -0.4667
  101MOL0     H13877  10.063   9.806   6.499 -1.0832 -1.9458 -1.9577
  101MOL0     H13878  10.201   9.691   6.457  1.5566  0.9790 -0.2277
  101MOL0     H13879  10.239   9.948   6.623  0.1243  0.1971 -0.2984
  101MOL0     H13880  10.370   9.841   6.585 -0.2612  1.9864  0.4556
  101MOL0     H13881  10.252   9.808   6.816 -1.4927 -1.2638  0.6160
  101MOL0     H13882  10.121   9.742   6.728  0.8241 -2.6979  3.0246
  101MOL0     H13883  10.254   9.563   6.620 -0.4186 -0.1780  0.1399
  101MOL0     H13884  10.242   9.568   6.789  0.0142 -0.8571  0.0909
  101MOL0     H13885  10.477   9.670   6.807 -2.1435  1.6453 -0.2729
  101MOL0     H13886  10.455   9.496   6.746 -0.2149  0.5730 -0.1550
  101MOL0     H13887  10.398   9.489   6.484  0.2601  0.6389 -0.2346
  101MOL0     H13888  10.617   9.581   6.183 -1.9904  1.3305  0.5212
  101MOL0     H13889  10.472   9.490   6.232 -0.2177 -1.5051  0.2400
  101MOL0     H13890  10.622   9.296   6.293  3.1549 -1.9993  0.2011
  101MOL0     H13891  10.628   9.344   6.121 -0.3040  2.2598 -0.3207
  101MOL0     H13892  10.830   9.459   6.134  0.8632  2.8047  2.1378
  101MOL0     H13893  10.834   9.458   6.307  3.7266 -5.6108  1.7277
  101MOL0     H13894  10.845   9.182   6.303  1.9830 -0.4357  1.3138
  101MOL0     H13895  10.859   9.209   6.124  0.0748 -0.1228  0.6253
  101MOL0     H13896  10.987   9.011   6.191  0.0106  1.7655 -0.7939
  101MOL0     H13897  11.077   8.811   6.112 -0.1337 -0.6303  0.0820
  101MOL0     H13898  11.109   8.749   6.280 -0.6475 -0.6924 -0.4927
  101MOL0     H13899  11.228   8.740   6.146 -0.7379 -0.5041 -1.9461
  101MOL0     H13900  11.500   8.603   6.097  1.6652 -2.7271  0.3907
  101MOL0     H13901  11.688   8.442   6.137  0.5021  0.7020 -0.6595
  101MOL0     H13902  11.902   8.476   6.534  2.2708 -1.1875  0.2267
  101MOL0     H13903  11.813   8.333   6.520 -0.2666  2.6159  1.0385
  101MOL0     H13904  12.097   8.379   6.429  1.9342 -2.1083 -2.2542
  101MOL0     H13905  12.041   8.273   6.558  0.9962 -1.4886 -1.1796
  101MOL0     H13906  12.133   8.147   6.366 -1.3368 -0.8973  2.3226
  101MOL0     H13907  12.014   8.223   6.254  2.0439 -1.0419 -0.7287
  101MOL0     H13908  11.835   8.105   6.361  1.9442 -0.1488 -1.9807
  101MOL0     H13909  11.928   8.082   6.516  2.0238  0.1296  0.4108
  101MOL0     H13910  12.034   7.903   6.409 -1.8555 -1.5264  1.6568
  101MOL0     H13911  11.854   7.887   6.378  0.2234 -0.8655  0.5877
  101MOL0     H13912  12.064   7.931   6.181 -1.3245 -0.2030 -0.5458
  101MOL0     H13913  11.915   8.031   6.162  1.8270  1.5217  0.9751
  101MOL0     H13914  11.774   7.827   6.152 -0.6528 -0.6073 -3.7604
  101MOL0     H13915  11.905   7.718   6.182 -2.4262 -0.9161 -1.3946
  101MOL0     H13916  11.906   7.885   5.922  1.2036 -0.4151 -0.6021
  101MOL0     H13917  11.833   7.733   5.940  0.5111 -0.2113 -1.1264
  101MOL0     H13918  11.778   8.621   6.518  0.7599 -1.7214 -0.2765
  101MOL0     H13919  11.576   8.780   6.480 -2.0542  0.7688 -2.4753
  101MOL0     H13920  11.438   9.147   6.332  2.5251 -2.5581 -3.8067
  101MOL0     H13921  11.245   9.312   6.301 -0.5533 -0.2152 -1.4425
  101MOL0     H13922  10.596   9.823   5.876 -3.0264 -0.2030  0.9524
  101MOL0     H13923  10.832   9.724   5.910  2.1411 -2.7547  2.9521
  101MOL0     H13924  11.130   9.561   6.192 -0.8858  1.2462 -0.1382
  101MOL0     H13925  11.366   9.500   6.307  0.1033  1.2246  1.8706
  101MOL0     H13926  11.759   9.646   6.334  0.3842  1.3336 -1.7193
  101MOL0     H13927  11.696   9.778   6.237 -1.1473  4.4886  1.8280
  101MOL0     H13928  11.622   9.909   6.429 -1.8049 -0.7809  0.9377
  101MOL0     H13929  11.780   9.853   6.448 -0.5222 -0.3728  3.8948
  101MOL0     H13930  11.531   9.717   6.579 -0.2292  0.1384  1.0544
  101MOL0     H13931  11.688   9.657   6.571  0.9811  0.7819 -6.3562
  101MOL0     H13932  11.765   9.848   6.715  0.4785 -1.0409 -1.2269
  101MOL0     H13933  11.629   9.793   6.802 -0.9887  1.2522  0.3139
  101MOL0     H13934  11.497  10.169   6.622  4.0277  2.5101  1.4867
  101MOL0     H13935  11.512   9.879   6.185 -1.0971  1.3698  2.7205
  101MOL0     H13936  11.316   9.964   5.952 -0.8828 -1.7398 -0.4745
  101MOL0     H13937  11.212  10.029   6.086  0.3754 -2.0053  2.2330
  101MOL0     H13938  11.388  10.036   6.098 -1.7547  1.9677  2.2096
  102MOL0     O13939   6.240   6.725   3.202  0.3171  0.2418  0.0769
  102MOL0     C13940   6.136   6.739   3.264 -1.0225  0.3569 -1.0110
  102MOL0     O13941   6.046   6.641   3.271  0.3427  0.3077  1.0768
  102MOL0     C13942   6.039   6.526   3.191 -0.0300 -0.1759  0.0713
  102MOL0     C13943   5.948   6.437   3.252  0.2199 -0.1743 -0.1842
  102MOL0     C13944   5.901   6.324   3.188  0.5980 -0.2728  0.1058
  102MOL0     C13945   5.962   6.292   3.059  0.6114 -0.4591  0.4990
  102MOL0     O13946   5.910   6.184   2.986  0.1258  0.1140 -0.1944
  102MOL0     C13947   5.964   6.064   3.034  0.2436  0.8617 -0.3930
  102MOL0     C13948   5.903   5.939   2.986  0.7762 -1.0368 -0.4814
  102MOL0     C13949   5.999   5.817   3.010 -0.4093  0.4206 -0.0085
  102MOL0     C13950   5.925   5.682   2.989 -0.8288 -0.3587  0.8721
  102MOL0     C13951   6.017   5.565   2.980  0.4259 -0.9736 -0.3236
  102MOL0     C13952   6.076   5.526   3.121 -0.4464 -0.3861  1.4288
  102MOL0     C13953   5.962   5.491   3.215  1.1151 -0.8961 -0.5310
  102MOL0     C13954   6.006   5.410   3.339 -1.0114 -0.1793  0.2109
  102MOL0     N13955   6.128   5.462   3.412 -0.0418 -0.0620 -0.9852
  102MOL0     C13956   6.142   5.593   3.463 -0.0757 -0.8672 -0.5867
  102MOL0     C13957   6.270   5.597   3.509 -0.3063  0.5337  0.8155
  102MOL0     C13958   6.327   5.722   3.585 -0.1734 -0.6741 -0.9013
  102MOL0     C13959   6.481   5.706   3.595  0.3278  0.0411 -0.4914
  102MOL0     C13960   6.541   5.841   3.660  0.1671 -0.0370 -0.5272
  102MOL0     C13961   6.553   5.849   3.807 -0.5018 -0.5165  0.0200
  102MOL0     O13962   6.426   5.849   3.855  0.1006  0.3612 -0.0571
  102MOL0     C13963   6.384   5.935   3.949  0.5434 -0.5848  1.0858
  102MOL0     C13964   6.421   5.918   4.083  0.0494  0.0089 -0.8981
  102MOL0     C13965   6.353   5.991   4.181  0.7041 -0.3244  0.0360
  102MOL0     C13966   6.389   5.952   4.326 -0.0529 -0.2253 -0.1545
  102MOL0     C13967   6.277   6.108   4.145  0.8649  0.4536  0.0063
  102MOL0     C13968   6.219   6.208   4.238 -0.0877  0.4112 -0.3402
  102MOL0     O13969   6.111   6.278   4.201  0.2465 -0.7087 -0.7798
  102MOL0     C13970   6.086   6.401   4.275 -0.3770 -1.0036  1.2876
  102MOL0     C13971   6.007   6.405   4.391 -0.3213  0.0431 -0.1671
  102MOL0     C13972   5.991   6.529   4.456  0.2633 -0.6099 -0.1716
  102MOL0     C13973   6.031   6.646   4.399  0.1384  0.5628  0.8177
  102MOL0     O13974   6.000   6.767   4.460 -0.5127 -0.1936 -0.6230
  102MOL0     C13975   6.031   6.888   4.399  0.5759 -0.0812 -0.2487
  102MOL0     C13976   6.177   6.932   4.431  0.0925 -0.1856  0.2114
  102MOL0     C13977   6.224   6.947   4.573 -0.1930 -0.2359 -0.6963
  102MOL0     C13978   6.125   7.005   4.666 -0.1664  0.8376 -0.3857
  102MOL0     C13979   6.187   7.054   4.797  0.3293  0.2560  0.4500
  102MOL0     C13980   6.241   7.196   4.789 -0.0924  0.3101  0.0532
  102MOL0     C13981   6.122   7.288   4.788  0.2985  0.7649 -0.4219
  102MOL0     C13982   6.156   7.438   4.808 -0.7743 -0.3511  0.4586
  102MOL0    Cl13983   6.243   7.517   4.670  0.1524 -0.2856  0.2492
  102MOL0     C13984   6.114   6.641   4.282 -0.5498  0.0071 -0.3564
  102MOL0     C13985   6.150   6.514   4.222 -0.1293 -1.0417  0.3396
  102MOL0     O13986   6.284   6.221   4.342 -0.4318 -0.3849  0.1652
  102MOL0     C13987   6.254   6.135   4.005  0.0970  0.8153 -0.4153
  102MOL0     C13988   6.298   6.045   3.911 -0.5404 -0.7254  0.0088
  102MOL0     N13989   6.327   5.478   3.484  0.6255  1.2747 -0.1083
  102MOL0     N13990   6.240   5.399   3.436 -0.3830 -0.8645 -0.3173
  102MOL0     C13991   6.041   6.392   3.000 -0.4420  0.8884  0.6136
  102MOL0     C13992   6.088   6.509   3.058  0.0733 -1.3920  0.2891
  102MOL0     C13993   6.097   6.882   3.315  0.1120  1.2804 -0.5889
  102MOL0     C13994   5.970   6.898   3.371 -0.0427  0.1232 -0.0067
  102MOL0     C13995   5.929   7.014   3.439 -0.2222 -0.1564  0.8806
  102MOL0     C13996   6.021   7.131   3.449  0.1674  0.1736  0.1163
  102MOL0     O13997   5.977   7.244   3.513  0.0544 -0.0160  0.0543
  102MOL0     C13998   5.911   7.221   3.637 -0.2034  0.3207  0.0204
  102MOL0     C13999   5.980   7.139   3.752  0.2275  0.4382  0.0887
  102MOL0     C14000   5.895   7.100   3.868  0.3987 -0.1419  1.2754
  102MOL0     C14001   5.956   7.026   3.979 -0.0346 -0.9962 -0.7635
  102MOL0     C14002   6.014   6.903   3.930  0.5334  0.6200  0.3646
  102MOL0     C14003   6.060   6.802   3.877  0.0370 -0.1714  0.6287
  102MOL0     C14004   6.147   7.115   3.388 -0.4089  0.5913 -0.0685
  102MOL0     C14005   6.187   6.995   3.319  0.1883  0.8269  0.3879
  102MOL0     C14006   6.331   6.992   3.267 -0.5649 -0.3284 -0.3550
  102MOL0     H14007   5.912   6.466   3.350  1.2367 -0.8901  0.4225
  102MOL0     H14008   5.833   6.265   3.248  2.7576  0.7820  3.8996
  102MOL0     H14009   5.957   6.054   3.143  0.9846 -0.1129 -0.4133
  102MOL0     H14010   6.069   6.057   3.002  0.2728 -2.4021  0.0379
  102MOL0     H14011   5.799   5.930   3.019  0.1927  0.1988 -1.8796
  102MOL0     H14012   5.900   5.951   2.877 -2.7635  1.7778 -0.2581
  102MOL0     H14013   6.087   5.832   2.948  1.3349  0.2697  2.2883
  102MOL0     H14014   6.037   5.830   3.112 -0.3056  0.0311  0.0030
  102MOL0     H14015   5.844   5.674   3.062 -2.9432  0.1624 -1.2781
  102MOL0     H14016   5.867   5.691   2.896 -1.1806 -1.4185  0.9804
  102MOL0     H14017   6.096   5.583   2.906  0.5009 -2.5960 -0.6695
  102MOL0     H14018   5.966   5.475   2.945 -1.9156  0.0936  0.1038
  102MOL0     H14019   6.129   5.435   3.092  0.5924  1.2165 -2.2419
  102MOL0     H14020   6.158   5.593   3.150  0.9459 -1.3066 -0.2411
  102MOL0     H14021   5.880   5.432   3.173 -0.9129  0.8909  0.7221
  102MOL0     H14022   5.923   5.579   3.267  0.1868 -2.4462  1.5435
  102MOL0     H14023   5.928   5.412   3.416  1.1516  0.3677  2.5181
  102MOL0     H14024   6.012   5.310   3.294  0.6457  0.1931 -0.4585
  102MOL0     H14025   6.066   5.670   3.474 -0.2333 -1.0351 -0.4759
  102MOL0     H14026   6.284   5.728   3.686  1.6276 -0.1014 -0.1232
  102MOL0     H14027   6.307   5.811   3.525  1.1079  0.1752 -0.1119
  102MOL0     H14028   6.504   5.613   3.648  2.2084  0.6334 -0.1860
  102MOL0     H14029   6.515   5.708   3.491  0.4020  3.1202 -0.5078
  102MOL0     H14030   6.643   5.840   3.620  0.1573  0.5050 -0.5736
  102MOL0     H14031   6.477   5.925   3.634 -0.2333 -0.2727 -0.3046
  102MOL0     H14032   6.609   5.764   3.846 -0.6070 -0.0754  1.1716
  102MOL0     H14033   6.614   5.937   3.829 -0.5272  0.8091 -4.2249
  102MOL0     H14034   6.489   5.837   4.109 -0.9233  0.0021  2.0585
  102MOL0     H14035   6.314   5.967   4.404 -0.7153 -0.9388 -0.6339
  102MOL0     H14036   6.479   6.010   4.349  0.6218 -0.6827 -1.5083
  102MOL0     H14037   6.413   5.847   4.341 -1.4297 -0.3556  1.5076
  102MOL0     H14038   5.968   6.308   4.419 -0.6399  0.3676  0.5258
  102MOL0     H14039   5.953   6.526   4.557 -1.8277  1.6645 -0.8193
  102MOL0     H14040   6.015   6.876   4.292  2.1763 -0.8870 -0.4196
  102MOL0     H14041   5.958   6.960   4.438 -1.2398 -1.1870 -1.4325
  102MOL0     H14042   6.256   6.890   4.369  0.2413 -0.7582  0.7722
  102MOL0     H14043   6.171   7.038   4.406 -1.5557  0.2363  2.1327
  102MOL0     H14044   6.302   7.023   4.565  2.0238 -1.8040  3.3269
  102MOL0     H14045   6.269   6.855   4.611  2.9431 -0.3077 -4.0834
  102MOL0     H14046   6.043   6.933   4.679  1.1029 -0.4081  1.1417
  102MOL0     H14047   6.081   7.091   4.615 -1.0907  1.1976  0.9670
  102MOL0     H14048   6.108   7.058   4.872 -0.4552 -0.4775 -0.3097
  102MOL0     H14049   6.263   6.984   4.834 -0.2386 -0.4124  0.3673
  102MOL0     H14050   6.307   7.198   4.702 -2.1235  1.1670 -1.5587
  102MOL0     H14051   6.303   7.216   4.877  0.2027 -1.3392  0.2659
  102MOL0     H14052   6.040   7.267   4.859 -0.8880  2.3940 -1.2261
  102MOL0     H14053   6.069   7.275   4.694 -1.7448  1.0675  0.6215
  102MOL0     H14054   6.226   7.439   4.892 -0.0098 -1.7971 -0.1266
  102MOL0     H14055   6.061   7.492   4.814 -1.5904 -1.3433 -2.1769
  102MOL0     H14056   6.155   6.731   4.238  2.6241  2.3286  6.1053
  102MOL0     H14057   6.217   6.511   4.137 -0.6454 -3.8345 -0.0572
  102MOL0     H14058   6.182   6.209   3.972 -1.1663 -0.3200 -0.3168
  102MOL0     H14059   6.272   6.059   3.806  0.9405  3.3029 -0.0018
  102MOL0     H14060   6.067   6.381   2.895  0.9275  3.8300  0.5432
  102MOL0     H14061   6.139   6.586   3.002 -1.4196  0.1907  1.0094
  102MOL0     H14062   5.904   6.812   3.368 -0.2610  0.2467  1.0544
  102MOL0     H14063   5.830   7.019   3.483 -0.8192 -0.4304 -0.3784
  102MOL0     H14064   5.887   7.323   3.667 -3.0663  0.6713 -2.9365
  102MOL0     H14065   5.811   7.185   3.611 -1.0428  2.9658 -0.6490
  102MOL0     H14066   6.048   7.217   3.789 -1.6470  2.9199 -1.3836
  102MOL0     H14067   6.033   7.051   3.713 -0.9059  0.9222 -2.7969
  102MOL0     H14068   5.844   7.186   3.913 -1.1960  1.1713 -2.5809
  102MOL0     H14069   5.816   7.035   3.829 -1.0112  1.1382  1.8709
  102MOL0     H14070   5.890   7.003   4.062 -2.3977 -1.8291 -2.7534
  102MOL0     H14071   6.040   7.091   4.007 -0.7861  0.2337 -1.2686
  102MOL0     H14072   6.117   6.720   3.838 -1.2295 -1.1388  0.7561
  102MOL0     H14073   6.220   7.195   3.393  1.4764 -1.0785  0.8012
  102MOL0     H14074   6.393   7.069   3.315 -0.5627  0.8674 -2.1734
  102MOL0     H14075   6.382   6.900   3.296  0.7702 -0.0522 -1.6951
  102MOL0     H14076   6.357   7.003   3.161 -1.0603  1.0917 -0.3614
  103MOL0     O14077   6.403  10.961   9.987  0.3905 -0.5923 -0.5910
  103MOL0     C14078   6.416  11.078   9.997 -0.6241 -0.1109  0.0462
  103MOL0     O14079   6.389  11.167   9.895 -0.1423  0.1037 -0.3841
  103MOL0     C14080   6.343  11.130   9.773 -0.3675 -0.4999  1.5502
  103MOL0     C14081   6.262  11.218   9.709 -0.1580  0.0646 -0.4320
  103MOL0     C14082   6.230  11.196   9.575  0.1919  0.4131 -0.1962
  103MOL0     C14083   6.270  11.087   9.511 -0.0064  0.5352 -0.3857
  103MOL0     O14084   6.222  11.037   9.393 -0.6389  0.6114 -0.5276
  103MOL0     C14085   6.087  11.064   9.363 -0.0980  0.4042 -0.7568
  103MOL0     C14086   6.040  11.004   9.238  0.3758 -0.2937 -1.3796
  103MOL0     C14087   5.938  11.101   9.173 -1.5562 -0.0959 -0.6229
  103MOL0     C14088   5.868  11.024   9.059 -0.4375  1.5226 -0.5017
  103MOL0     C14089   5.762  11.118   8.988 -1.1851  0.6246 -1.3046
  103MOL0     C14090   5.650  11.048   8.921  0.1816  1.5405  0.0867
  103MOL0     C14091   5.691  10.941   8.824 -0.3530 -0.3422 -0.3331
  103MOL0     C14092   5.581  10.878   8.743  0.8658 -0.5942 -0.1660
  103MOL0     N14093   5.483  10.802   8.819  0.1121  0.3649  0.5459
  103MOL0     C14094   5.508  10.677   8.868  0.6278  0.6015 -0.5343
  103MOL0     C14095   5.417  10.664   8.970 -0.8332 -0.0638  0.8043
  103MOL0     C14096   5.402  10.540   9.040  0.2438  0.1611 -0.1053
  103MOL0     C14097   5.522  10.534   9.140  0.2692 -0.3975 -0.4204
  103MOL0     C14098   5.497  10.404   9.209  0.0034  0.3788  1.0706
  103MOL0     C14099   5.602  10.372   9.321 -0.3208 -0.4141  0.3039
  103MOL0     O14100   5.736  10.321   9.267  0.6724 -0.2249  1.0928
  103MOL0     C14101   5.843  10.307   9.354  0.0531 -0.0067 -0.2212
  103MOL0     C14102   5.954  10.237   9.301 -0.1929 -0.9614 -0.2438
  103MOL0     C14103   6.068  10.215   9.379 -0.6896 -0.9625  0.5874
  103MOL0     C14104   6.191  10.152   9.311  0.5431 -0.7276  0.0079
  103MOL0     C14105   6.059  10.250   9.515 -0.7171  0.3911 -0.1614
  103MOL0     C14106   6.173  10.233   9.604 -0.9460  0.2582 -0.3905
  103MOL0     O14107   6.163  10.283   9.729  0.4142  0.2203  0.6817
  103MOL0     C14108   6.277  10.319   9.800  0.7379 -0.5384 -0.7765
  103MOL0     C14109   6.309  10.457   9.787  0.4497  0.5166 -0.5133
  103MOL0     C14110   6.431  10.503   9.846 -0.2486 -0.2598  0.1409
  103MOL0     C14111   6.506  10.423   9.930 -0.0475  0.1097 -0.2252
  103MOL0     O14112   6.627  10.455   9.991  0.4753 -0.3637  0.6304
  103MOL0     C14113   6.643  10.596  10.016  0.2140 -0.1411 -0.5560
  103MOL0     C14114   6.776  10.622  10.102  0.4699 -0.5664  0.3799
  103MOL0     C14115   6.890  10.706  10.019  0.4726  0.0041 -0.0282
  103MOL0     C14116   6.951  10.621   9.914  0.4405 -0.0948 -0.1290
  103MOL0     C14117   7.051  10.697   9.824  0.8608 -0.3630 -0.2620
  103MOL0     C14118   7.149  10.786   9.905  0.0163  0.7685  0.1949
  103MOL0     C14119   7.273  10.832   9.827  0.3935  0.5300  0.2721
  103MOL0     C14120   7.376  10.898   9.917 -0.9570 -0.2609  0.1124
  103MOL0    Cl14121   7.496  11.004   9.823 -0.1628 -0.3239  0.1297
  103MOL0     C14122   6.466  10.287   9.947 -1.1404  0.5073 -0.0191
  103MOL0     C14123   6.358  10.234   9.875  0.0320 -0.1820  0.2688
  103MOL0     O14124   6.275  10.172   9.563 -0.0688 -0.1159  0.7527
  103MOL0     C14125   5.955  10.326   9.566  0.4050  0.3892  0.4111
  103MOL0     C14126   5.841  10.359   9.484 -0.1587  0.1602  0.5730
  103MOL0     N14127   5.334  10.774   8.973 -0.4692 -0.1379  0.3742
  103MOL0     N14128   5.377  10.857   8.883  0.2287  1.1212 -0.4993
  103MOL0     C14129   6.369  11.013   9.574  0.3611  0.3203  0.9144
  103MOL0     C14130   6.414  11.024   9.708  1.0894 -0.0149 -0.0813
  103MOL0     C14131   6.439  11.134  10.125 -0.7868 -0.2941 -0.8595
  103MOL0     C14132   6.378  11.256  10.160 -0.4295  0.8554 -0.5736
  103MOL0     C14133   6.401  11.308  10.291 -0.0036  0.3830 -0.1374
  103MOL0     C14134   6.477  11.248  10.387  0.4690 -0.0371 -1.3063
  103MOL0     O14135   6.475  11.306  10.518 -0.1334  0.6850 -0.1138
  103MOL0     C14136   6.554  11.260  10.628 -0.6744  0.1225  0.2008
  103MOL0     C14137   6.564  11.372  10.730  0.2268 -0.7087 -0.3186
  103MOL0     C14138   6.658  11.496  10.693  0.2966  0.0925  0.4265
  103MOL0     C14139   6.807  11.494  10.751  1.0341  0.0040  0.2290
  103MOL0     C14140   6.892  11.402  10.673  0.1760 -0.6438 -1.1250
  103MOL0     C14141   6.969  11.324  10.618  0.9355 -0.0900 -0.0403
  103MOL0     C14142   6.536  11.124  10.351  0.0917 -0.4227  0.3485
  103MOL0     C14143   6.510  11.064  10.226 -0.3661  0.0887  0.8384
  103MOL0     C14144   6.575  10.924  10.207 -0.6279  0.0339  0.2970
  103MOL0     H14145   6.207  11.294   9.764  0.8962  1.7539 -1.6101
  103MOL0     H14146   6.146  11.257   9.542 -2.0544 -1.9106  0.8513
  103MOL0     H14147   6.080  11.172   9.344 -0.4636  0.1247 -2.3713
  103MOL0     H14148   6.027  11.045   9.452 -0.0513  1.4337 -0.4927
  103MOL0     H14149   6.117  10.989   9.161  2.5260  0.2539  0.5572
  103MOL0     H14150   5.999  10.904   9.254 -3.6792  1.2670 -0.8845
  103MOL0     H14151   5.870  11.123   9.256 -0.1138  0.1751  0.5234
  103MOL0     H14152   5.991  11.191   9.140  2.0017 -2.4809 -2.0359
  103MOL0     H14153   5.936  10.998   8.978  1.1280  0.5288  1.0648
  103MOL0     H14154   5.838  10.923   9.090  1.6640  1.3813  1.2664
  103MOL0     H14155   5.818  11.179   8.917  1.2476  0.1070  0.0692
  103MOL0     H14156   5.725  11.194   9.059  3.9805  1.4847  0.8689
  103MOL0     H14157   5.585  11.003   8.996  0.3698 -0.0947 -0.6929
  103MOL0     H14158   5.596  11.127   8.868 -2.3450 -1.3722 -2.0721
  103MOL0     H14159   5.731  10.855   8.877  0.3175  0.9637  1.3684
  103MOL0     H14160   5.774  10.983   8.766 -0.8005  1.4818  0.2812
  103MOL0     H14161   5.526  10.951   8.683  0.6788 -1.5962 -1.2547
  103MOL0     H14162   5.639  10.812   8.678  0.9907 -0.5318 -0.1186
  103MOL0     H14163   5.586  10.608   8.840  0.8289  0.4763  0.3014
  103MOL0     H14164   5.408  10.459   8.966  2.5887 -0.7270  0.9600
  103MOL0     H14165   5.303  10.535   9.086 -0.6404 -0.4396 -1.9595
  103MOL0     H14166   5.615  10.557   9.087  0.3469  4.1669  1.2517
  103MOL0     H14167   5.516  10.612   9.217  0.8465  0.1393 -0.9092
  103MOL0     H14168   5.398  10.402   9.257  0.3008 -3.6854  1.8665
  103MOL0     H14169   5.484  10.322   9.138  2.8949 -0.4194  1.3325
  103MOL0     H14170   5.624  10.462   9.379  0.8653  0.0207 -0.7764
  103MOL0     H14171   5.558  10.293   9.384 -2.6400  0.4847 -0.0955
  103MOL0     H14172   5.967  10.198   9.200  2.8805  0.7215 -0.6199
  103MOL0     H14173   6.171  10.150   9.204 -2.1505 -0.7176  0.4460
  103MOL0     H14174   6.213  10.055   9.356 -3.5367 -1.1144  1.6192
  103MOL0     H14175   6.275  10.222   9.316  1.7486 -2.1741  0.7850
  103MOL0     H14176   6.236  10.514   9.730  0.1533  1.1609  0.4946
  103MOL0     H14177   6.441  10.610   9.831  0.9793  0.1966  3.3376
  103MOL0     H14178   6.641  10.660   9.928  1.6208 -0.2197 -0.6674
  103MOL0     H14179   6.562  10.631  10.081  1.1258 -0.3874  0.7667
  103MOL0     H14180   6.744  10.678  10.191  0.3788  0.1671 -0.1110
  103MOL0     H14181   6.832  10.533  10.131 -0.5603 -1.2121  0.4519
  103MOL0     H14182   6.970  10.743  10.084  1.0540 -0.3063 -0.5590
  103MOL0     H14183   6.843  10.795   9.974  2.7634  0.8069 -0.9903
  103MOL0     H14184   6.876  10.567   9.855  0.5682 -1.7802  1.1814
  103MOL0     H14185   7.004  10.538   9.961  0.2842 -0.0083  0.2012
  103MOL0     H14186   7.109  10.623   9.768 -1.6475 -1.8926 -1.0046
  103MOL0     H14187   6.996  10.760   9.754 -0.5300  0.1787  1.2634
  103MOL0     H14188   7.174  10.724   9.991 -1.1463 -0.3801 -0.2641
  103MOL0     H14189   7.099  10.873   9.950 -3.9952 -0.4673 -1.3842
  103MOL0     H14190   7.244  10.910   9.755  1.2893  1.6948  1.1317
  103MOL0     H14191   7.313  10.740   9.784 -1.8776 -0.2841 -0.2496
  103MOL0     H14192   7.427  10.813   9.964 -3.3542 -1.3210  0.9360
  103MOL0     H14193   7.331  10.956   9.998  2.3387  4.1255 -0.8556
  103MOL0     H14194   6.521  10.224  10.017 -1.7027 -0.2098 -0.2188
  103MOL0     H14195   6.332  10.129   9.883 -1.2526  0.1194  0.3261
  103MOL0     H14196   5.953  10.364   9.668 -0.7707 -0.9814  0.9315
  103MOL0     H14197   5.755  10.402   9.534  0.0071 -0.2766  1.2546
  103MOL0     H14198   6.410  10.930   9.517 -2.3366 -1.6092  1.5652
  103MOL0     H14199   6.483  10.953   9.752  0.0243 -2.5535 -2.2610
  103MOL0     H14200   6.310  11.313  10.099 -0.6780  1.9749  0.6986
  103MOL0     H14201   6.351  11.405  10.292 -1.7125 -0.4441 -1.1862
  103MOL0     H14202   6.509  11.167  10.665  2.3604 -2.0468 -1.0528
  103MOL0     H14203   6.655  11.237  10.591  0.4186  0.7174  2.6027
  103MOL0     H14204   6.609  11.335  10.822 -0.7051  1.2537  0.9983
  103MOL0     H14205   6.462  11.404  10.751 -0.2520 -1.8141 -0.8971
  103MOL0     H14206   6.657  11.515  10.585 -1.1737 -0.2117  0.3659
  103MOL0     H14207   6.618  11.589  10.733  0.3378 -0.3687  1.5682
  103MOL0     H14208   6.796  11.460  10.855 -1.9540  0.6974  0.2488
  103MOL0     H14209   6.843  11.596  10.761 -0.4212  0.6868 -1.0250
  103MOL0     H14210   7.037  11.255  10.571  0.3720  0.7085 -2.1348
  103MOL0     H14211   6.585  11.057  10.421 -1.7288 -1.3510  0.8118
  103MOL0     H14212   6.501  10.844  10.204  0.9922 -1.5367  0.5120
  103MOL0     H14213   6.635  10.923  10.115 -3.1746 -4.6253 -1.6404
  103MOL0     H14214   6.642  10.896  10.289 -1.4471  0.7393  1.2413
  104MOL0     O14215   4.285  10.007   5.434  0.6276 -0.0581  0.0352
  104MOL0     C14216   4.188  10.068   5.396  0.1177  0.1603 -0.8039
  104MOL0     O14217   4.090  10.113   5.478  0.0993  0.5881 -1.3372
  104MOL0     C14218   4.102  10.146   5.610  0.2388  0.1659 -0.6680
  104MOL0     C14219   4.213  10.178   5.683  0.0143  0.4126 -0.3675
  104MOL0     C14220   4.214  10.169   5.828 -0.4370 -0.3290 -0.3204
  104MOL0     C14221   4.093  10.142   5.895 -0.5281 -0.0804 -0.2278
  104MOL0     O14222   4.097  10.129   6.037 -0.0065  0.1371 -0.2913
  104MOL0     C14223   4.168  10.021   6.084 -0.1318  0.8709 -0.6431
  104MOL0     C14224   4.180  10.038   6.242 -0.3369 -0.3749 -0.2290
  104MOL0     C14225   4.056  10.033   6.327  0.1585  0.3655  0.2742
  104MOL0     C14226   4.082  10.041   6.472 -0.4177  0.5919 -0.7900
  104MOL0     C14227   4.094  10.194   6.522  0.5113 -0.6756 -0.4263
  104MOL0     C14228   3.969  10.284   6.482 -0.2434  0.2096 -0.5159
  104MOL0     C14229   3.976  10.412   6.554  1.0421 -0.6757  0.4876
  104MOL0     C14230   3.841  10.485   6.539 -0.1618  0.1856 -1.0876
  104MOL0     N14231   3.854  10.599   6.625 -0.2970 -0.5704  0.2431
  104MOL0     C14232   3.956  10.690   6.625  0.0967 -0.4143 -0.1871
  104MOL0     C14233   3.923  10.782   6.723 -1.5118 -0.7548  0.1055
  104MOL0     C14234   4.006  10.903   6.748 -0.4244 -0.3572 -1.0382
  104MOL0     C14235   3.979  10.966   6.888  0.4397  0.0270 -0.4635
  104MOL0     C14236   4.089  11.068   6.903  0.0896 -0.8757 -0.1668
  104MOL0     C14237   4.057  11.145   7.033  1.0231 -0.1046 -0.5063
  104MOL0     O14238   3.957  11.244   6.987 -0.6152 -0.0883  0.1124
  104MOL0     C14239   3.909  11.312   7.086 -0.0172  0.2912  0.6105
  104MOL0     C14240   3.839  11.247   7.186 -0.0034  0.6470  0.2946
  104MOL0     C14241   3.777  11.319   7.284  0.4121 -0.1727  0.6078
  104MOL0     C14242   3.696  11.233   7.377 -0.3419 -0.1342 -0.6978
  104MOL0     C14243   3.803  11.465   7.296  0.6670 -0.1164  0.4710
  104MOL0     C14244   3.749  11.555   7.403 -0.0051  0.4007 -0.7816
  104MOL0     O14245   3.799  11.687   7.412  1.3063 -0.3999  0.0980
  104MOL0     C14246   3.763  11.756   7.522 -0.0321  0.0455 -0.6045
  104MOL0     C14247   3.733  11.883   7.512 -0.8154  0.5469 -0.1312
  104MOL0     C14248   3.727  11.964   7.619  0.1217 -1.0891 -0.2811
  104MOL0     C14249   3.752  11.915   7.747 -0.0244  1.4940 -1.2138
  104MOL0     O14250   3.733  11.976   7.868 -0.7672  0.5430  0.2949
  104MOL0     C14251   3.736  12.118   7.869  0.0023  0.6905 -0.0255
  104MOL0     C14252   3.714  12.185   8.008 -0.5248  0.8061 -0.3995
  104MOL0     C14253   3.565  12.210   8.042 -0.0810  0.7939 -0.0962
  104MOL0     C14254   3.502  12.326   7.955  0.4686  0.1118  0.3287
  104MOL0     C14255   3.353  12.325   7.977  0.0724 -0.5857 -0.1264
  104MOL0     C14256   3.314  12.427   8.092  0.3277 -0.0038  0.1935
  104MOL0     C14257   3.176  12.496   8.070 -0.3553  1.2287 -0.0054
  104MOL0     C14258   3.138  12.584   8.187  0.7224  0.6135 -0.4977
  104MOL0    Cl14259   3.128  12.499   8.346 -0.4300 -0.0709 -0.3874
  104MOL0     C14260   3.786  11.785   7.767 -0.3549 -0.6488  0.5243
  104MOL0     C14261   3.785  11.701   7.653  0.0827  0.0753  0.2777
  104MOL0     O14262   3.659  11.508   7.477 -0.3822  0.8732  0.1923
  104MOL0     C14263   3.876  11.529   7.192  0.3801  0.0830  0.4076
  104MOL0     C14264   3.933  11.447   7.090  1.0707 -0.4724  0.4819
  104MOL0     N14265   3.805  10.746   6.784  0.3705  0.6344  1.1039
  104MOL0     N14266   3.771  10.631   6.732 -0.2213 -1.4738  1.2093
  104MOL0     C14267   3.976  10.127   5.828 -0.1108 -0.0428  0.6470
  104MOL0     C14268   3.980  10.123   5.681  0.6319 -0.4464 -0.0544
  104MOL0     C14269   4.162  10.067   5.250 -0.0868  0.4914 -1.1385
  104MOL0     C14270   4.222   9.970   5.167  0.2264 -0.6838 -0.5546
  104MOL0     C14271   4.192   9.946   5.032 -0.2911 -0.3426  0.5841
  104MOL0     C14272   4.108  10.037   4.968 -1.4346 -0.1821  0.4383
  104MOL0     O14273   4.084  10.054   4.836  0.8828  0.7911  0.9489
  104MOL0     C14274   4.170  10.006   4.737  0.1119 -0.4565  0.1039
  104MOL0     C14275   4.145  10.054   4.595  0.2644 -0.7889 -0.3937
  104MOL0     C14276   4.011  10.000   4.555  0.0246 -0.2562 -0.2108
  104MOL0     C14277   3.965  10.025   4.408 -0.1021  0.2016  0.1751
  104MOL0     C14278   4.068  10.013   4.305 -0.3687  0.0157 -0.2000
  104MOL0     C14279   4.160   9.983   4.230  0.0656 -1.0738  0.0273
  104MOL0     C14280   4.053  10.144   5.041  0.1251 -0.4743 -0.0893
  104MOL0     C14281   4.081  10.160   5.183 -0.0662 -0.9964  0.8937
  104MOL0     C14282   4.019  10.277   5.251 -0.5913  0.2380  0.0713
  104MOL0     H14283   4.303  10.196   5.625  0.4051  0.3753  0.2198
  104MOL0     H14284   4.307  10.179   5.883 -1.0585  1.3464  0.5023
  104MOL0     H14285   4.267  10.010   6.040  0.9560 -4.9010  2.2171
  104MOL0     H14286   4.116   9.926   6.067 -0.0465  0.7034 -0.0108
  104MOL0     H14287   4.257   9.966   6.270 -1.8086 -2.3502 -0.9554
  104MOL0     H14288   4.218  10.139   6.254  0.2215 -0.7106  0.9301
  104MOL0     H14289   3.982  10.110   6.305 -1.5004 -0.1781  3.3618
  104MOL0     H14290   4.001   9.939   6.316 -1.6120  1.5480 -1.8296
  104MOL0     H14291   3.995  10.007   6.529  1.7871 -1.0212  1.7843
  104MOL0     H14292   4.171   9.984   6.500 -0.3580  0.9384 -0.2733
  104MOL0     H14293   4.183  10.226   6.467  0.4092 -1.9473 -1.3847
  104MOL0     H14294   4.121  10.197   6.628 -3.5129 -2.9615  0.8771
  104MOL0     H14295   3.969  10.321   6.379  2.7393  2.7187  0.2195
  104MOL0     H14296   3.874  10.237   6.507  0.5768 -1.1866  0.1401
  104MOL0     H14297   4.048  10.477   6.504 -1.3030  1.6555 -0.1135
  104MOL0     H14298   3.992  10.392   6.660 -1.1994 -1.5350  0.7330
  104MOL0     H14299   3.811  10.528   6.443 -5.1865 -1.6794 -0.6207
  104MOL0     H14300   3.755  10.425   6.568 -0.4866  0.0914 -2.1923
  104MOL0     H14301   4.042  10.680   6.559 -1.9926 -3.2444 -2.7766
  104MOL0     H14302   3.987  10.973   6.667 -3.7857  1.0465  0.7686
  104MOL0     H14303   4.111  10.873   6.736 -0.1210  0.2718 -0.0483
  104MOL0     H14304   3.886  11.023   6.880  0.3997 -0.1663 -1.4319
  104MOL0     H14305   3.979  10.892   6.969  1.3648  1.6376  1.0829
  104MOL0     H14306   4.191  11.030   6.912 -0.2538 -1.4156  1.9099
  104MOL0     H14307   4.084  11.137   6.818  1.3939  4.5254  3.6414
  104MOL0     H14308   4.014  11.082   7.112 -2.1541 -0.6793 -2.5118
  104MOL0     H14309   4.143  11.201   7.071  1.5768 -1.3226  0.0977
  104MOL0     H14310   3.813  11.142   7.179 -1.1037  0.9118  0.2975
  104MOL0     H14311   3.745  11.136   7.393 -2.1797 -0.9920  0.0782
  104MOL0     H14312   3.598  11.212   7.335  0.9733 -1.6769 -3.2670
  104MOL0     H14313   3.692  11.270   7.480  2.1929 -0.6008 -0.3654
  104MOL0     H14314   3.715  11.921   7.412 -2.6137 -0.6999 -0.3246
  104MOL0     H14315   3.713  12.071   7.610  2.0624 -0.7766 -0.0812
  104MOL0     H14316   3.843  12.140   7.856 -0.0510  0.4732 -0.8611
  104MOL0     H14317   3.671  12.154   7.789 -1.7902  0.1974  1.1509
  104MOL0     H14318   3.764  12.124   8.084  0.9803  1.0569 -1.1476
  104MOL0     H14319   3.762  12.283   8.009  1.7600 -0.2507  0.3079
  104MOL0     H14320   3.565  12.253   8.143 -4.9562  1.6471 -0.2316
  104MOL0     H14321   3.511  12.116   8.051  0.6724  0.3971  0.4289
  104MOL0     H14322   3.525  12.316   7.849  0.4038  2.3369  0.0510
  104MOL0     H14323   3.548  12.422   7.982 -1.6029  2.0999 -2.6537
  104MOL0     H14324   3.316  12.360   7.880  0.0902  0.9664  0.3968
  104MOL0     H14325   3.307  12.230   8.006 -0.2148  0.2739  2.5583
  104MOL0     H14326   3.392  12.503   8.100 -1.2345  1.5263  1.8806
  104MOL0     H14327   3.322  12.372   8.186  1.0657  0.7640  0.5943
  104MOL0     H14328   3.097  12.422   8.055  1.5443 -1.3583  1.7168
  104MOL0     H14329   3.195  12.554   7.979  3.7693 -1.1505 -0.9586
  104MOL0     H14330   3.043  12.636   8.174  0.6427  0.7272  0.4652
  104MOL0     H14331   3.207  12.669   8.187  2.9573 -1.0931  0.8338
  104MOL0     H14332   3.807  11.739   7.863  0.2180 -2.4740 -0.4308
  104MOL0     H14333   3.815  11.598   7.669 -1.6213 -0.5765 -0.4916
  104MOL0     H14334   3.907  11.633   7.198  2.5515 -0.5894  3.0960
  104MOL0     H14335   3.984  11.497   7.009 -2.0179  0.6095 -0.9283
  104MOL0     H14336   3.882  10.108   5.879 -0.2696 -1.3457 -0.0982
  104MOL0     H14337   3.886  10.103   5.632 -0.2300  2.0003  0.4477
  104MOL0     H14338   4.291   9.894   5.203 -1.4468 -2.0992 -0.2273
  104MOL0     H14339   4.234   9.861   4.979 -1.6743 -1.0467  0.5684
  104MOL0     H14340   4.269  10.050   4.750  0.7288 -1.4007 -1.2194
  104MOL0     H14341   4.178   9.898   4.747 -2.1528 -1.2209 -4.0685
  104MOL0     H14342   4.228  10.003   4.545  1.8401  1.0736  0.2256
  104MOL0     H14343   4.142  10.161   4.575 -0.3533 -1.2475 -3.0807
  104MOL0     H14344   4.017   9.893   4.580 -3.2012  0.4770  5.1803
  104MOL0     H14345   3.932  10.035   4.621  0.8827 -0.8080  1.1528
  104MOL0     H14346   3.914  10.122   4.403 -2.1941 -0.8467  0.3239
  104MOL0     H14347   3.899   9.942   4.381  1.5543 -1.2738  0.4626
  104MOL0     H14348   4.237   9.961   4.159 -1.5928 -2.1724 -1.5372
  104MOL0     H14349   3.991  10.214   4.986  1.6553  0.9317 -0.0971
  104MOL0     H14350   3.970  10.352   5.190 -0.6349  0.1933  0.0517
  104MOL0     H14351   3.944  10.241   5.322 -2.4785  0.9304 -1.4979
  104MOL0     H14352   4.101  10.331   5.299 -1.3509 -0.5104  2.3470
  105MOL0     O14353   2.993  11.101   7.940 -0.1129 -0.3186  0.0495
  105MOL0     C14354   3.072  11.111   8.029  0.1573  0.0064  0.8604
  105MOL0     O14355   3.162  11.017   8.061 -0.0044  0.6368 -0.1865
  105MOL0     C14356   3.142  10.892   7.992  0.1092 -0.3860 -0.0588
  105MOL0     C14357   3.185  10.879   7.857  0.7221  0.2430 -0.7799
  105MOL0     C14358   3.177  10.759   7.791  0.0807  0.1943 -0.1556
  105MOL0     C14359   3.121  10.646   7.853  0.2024 -0.1329 -1.0440
  105MOL0     O14360   3.102  10.523   7.802 -0.5684 -0.0983 -1.0117
  105MOL0     C14361   3.145  10.488   7.669  0.3348 -0.2557 -0.4756
  105MOL0     C14362   3.165  10.332   7.641  0.1534  0.1457  0.0693
  105MOL0     C14363   3.300  10.279   7.685 -0.1811 -0.2607  0.3070
  105MOL0     C14364   3.326  10.134   7.663  0.1662  0.1474  0.0793
  105MOL0     C14365   3.238  10.049   7.759  0.3713 -0.3895 -0.7840
  105MOL0     C14366   3.276   9.903   7.738 -0.5564  0.3300 -0.6865
  105MOL0     C14367   3.182   9.815   7.817  0.8929 -0.1766 -0.0059
  105MOL0     C14368   3.176   9.838   7.972 -0.3474  0.1791  0.4061
  105MOL0     N14369   3.119   9.732   8.046 -0.3350 -0.0796 -0.0460
  105MOL0     C14370   2.984   9.732   8.067 -0.2436 -0.4589 -1.7792
  105MOL0     C14371   2.956   9.609   8.113 -0.6828  1.1780  0.4463
  105MOL0     C14372   2.819   9.554   8.156  0.6280 -0.0809 -0.7525
  105MOL0     C14373   2.756   9.462   8.058  0.7956  0.1739 -0.3012
  105MOL0     C14374   2.689   9.518   7.935  0.0291 -0.4217 -0.6683
  105MOL0     C14375   2.553   9.574   7.970 -0.6559 -0.3452  0.1952
  105MOL0     O14376   2.452   9.470   7.985 -0.2889 -0.2872  0.2485
  105MOL0     C14377   2.318   9.507   7.971  0.0140  0.5343 -0.2156
  105MOL0     C14378   2.224   9.417   8.017 -0.2448 -0.2509 -0.2554
  105MOL0     C14379   2.091   9.453   8.034 -0.1501  0.0440 -0.1989
  105MOL0     C14380   2.003   9.331   8.072 -0.4429  0.3346 -0.3930
  105MOL0     C14381   2.054   9.591   8.016  0.0336 -0.6210 -0.7846
  105MOL0     C14382   1.924   9.653   8.055  0.6766 -0.3436  0.5720
  105MOL0     O14383   1.894   9.778   7.993  0.0676 -0.0505 -0.4892
  105MOL0     C14384   1.788   9.850   8.029  0.2100 -0.2871  0.2825
  105MOL0     C14385   1.657   9.792   8.029 -0.6895  0.3236  0.0564
  105MOL0     C14386   1.539   9.855   8.061  0.4700 -0.0490 -0.4479
  105MOL0     C14387   1.552   9.983   8.112  0.2840  0.1289  0.5164
  105MOL0     O14388   1.443  10.064   8.152 -0.1043  0.1005 -0.7966
  105MOL0     C14389   1.328  10.078   8.067  0.2942 -0.4063  0.2514
  105MOL0     C14390   1.281  10.222   8.079 -0.4777 -0.3446  0.8233
  105MOL0     C14391   1.231  10.282   8.207  0.5558  0.0988  0.1713
  105MOL0     C14392   1.103  10.221   8.262  0.4396  0.0703 -0.3774
  105MOL0     C14393   1.037  10.315   8.356 -0.8650  0.4668 -0.3059
  105MOL0     C14394   0.889  10.272   8.372 -1.0225 -0.0200  0.1135
  105MOL0     C14395   0.827  10.364   8.472 -1.0578  0.2792 -0.4807
  105MOL0     C14396   0.673  10.339   8.481  0.0146  0.1032  0.2443
  105MOL0    Cl14397   0.624  10.433   8.634  0.0546 -0.1743 -0.1640
  105MOL0     C14398   1.675  10.043   8.116 -0.6629 -0.2283  0.3213
  105MOL0     C14399   1.795   9.977   8.082  0.2527 -0.3255  0.3214
  105MOL0     O14400   1.843   9.600   8.129 -0.0460  0.3693 -0.8235
  105MOL0     C14401   2.147   9.674   7.962  0.4930 -0.2105 -0.2818
  105MOL0     C14402   2.275   9.634   7.935 -0.9362  0.5056 -0.0154
  105MOL0     N14403   3.070   9.534   8.112  0.2032  0.7086 -0.2628
  105MOL0     N14404   3.161   9.604   8.069  0.1200  0.8312 -1.1575
  105MOL0     C14405   3.078  10.656   7.988 -0.1325 -0.9858  0.0446
  105MOL0     C14406   3.098  10.781   8.063  0.6079  0.7716  0.5237
  105MOL0     C14407   3.052  11.232   8.112  1.0082  0.7451  0.0209
  105MOL0     C14408   2.993  11.348   8.059  0.4127  0.6722 -0.2372
  105MOL0     C14409   2.972  11.461   8.135 -0.3704 -0.0244  0.4636
  105MOL0     C14410   3.004  11.449   8.277  0.5399 -0.0362 -0.1278
  105MOL0     O14411   2.966  11.561   8.341  0.6675 -0.8982 -0.9668
  105MOL0     C14412   3.045  11.572   8.461 -0.1346  0.4694 -0.6318
  105MOL0     C14413   3.052  11.714   8.519 -0.5348 -0.9021  0.6472
  105MOL0     C14414   2.941  11.767   8.609 -0.5666  0.2905 -0.3252
  105MOL0     C14415   2.837  11.823   8.519 -0.8305 -0.6777  0.4830
  105MOL0     C14416   2.726  11.883   8.592  0.7196 -0.1386 -0.2012
  105MOL0     C14417   2.634  11.918   8.665 -0.0841  0.1826  0.0929
  105MOL0     C14418   3.040  11.331   8.338  0.0124  0.8499 -0.6190
  105MOL0     C14419   3.078  11.223   8.250 -0.2871  0.7778  0.1796
  105MOL0     C14420   3.115  11.090   8.313 -0.5064  0.6271  0.2908
  105MOL0     H14421   3.232  10.969   7.817  2.0715 -0.1506 -0.1386
  105MOL0     H14422   3.213  10.750   7.689 -2.0060 -1.7343 -0.8078
  105MOL0     H14423   3.237  10.533   7.631  2.3081 -2.3018  1.5450
  105MOL0     H14424   3.061  10.515   7.605 -0.1956 -3.1780 -1.1430
  105MOL0     H14425   3.085  10.272   7.685 -0.7462  1.0781 -0.2722
  105MOL0     H14426   3.157  10.338   7.532 -2.4086 -0.6080  0.1524
  105MOL0     H14427   3.353  10.348   7.618  0.3903 -0.0198  0.9916
  105MOL0     H14428   3.322  10.312   7.787  0.5444 -1.4621  0.5640
  105MOL0     H14429   3.300  10.109   7.560 -0.4463 -0.8561  0.4642
  105MOL0     H14430   3.431  10.119   7.689 -0.0617  2.4899  2.9982
  105MOL0     H14431   3.130  10.062   7.748  0.0976 -0.6701  1.2811
  105MOL0     H14432   3.273  10.080   7.858  0.5073  0.1871 -1.0092
  105MOL0     H14433   3.251   9.867   7.637  0.2773  1.5256 -1.3371
  105MOL0     H14434   3.380   9.880   7.762 -1.0729 -0.8321  0.5752
  105MOL0     H14435   3.210   9.712   7.794 -1.1266 -1.1566  1.5668
  105MOL0     H14436   3.077   9.828   7.791  0.3592 -3.7263 -0.1268
  105MOL0     H14437   3.275   9.867   8.008 -0.1354 -1.2650  1.0641
  105MOL0     H14438   3.121   9.928   8.001 -1.9891 -0.4290 -0.6676
  105MOL0     H14439   2.903   9.803   8.054  0.8349  1.3816  0.7097
  105MOL0     H14440   2.749   9.639   8.158 -1.2001 -1.5061  2.3671
  105MOL0     H14441   2.818   9.501   8.251 -4.2932  2.2346  0.8017
  105MOL0     H14442   2.837   9.402   8.014  0.1459  0.5992 -2.1748
  105MOL0     H14443   2.691   9.390   8.109  1.0593  0.4930  0.5073
  105MOL0     H14444   2.742   9.600   7.886  0.5918 -0.9125 -0.8755
  105MOL0     H14445   2.676   9.435   7.865  0.5811  2.8672 -5.0633
  105MOL0     H14446   2.548   9.642   8.056 -3.3631 -0.7507  0.4507
  105MOL0     H14447   2.532   9.635   7.883  2.5244  2.0627  0.9372
  105MOL0     H14448   2.274   9.331   8.059 -0.8265  0.0078  1.0246
  105MOL0     H14449   1.919   9.343   8.140 -0.4409 -0.6678 -0.2020
  105MOL0     H14450   2.060   9.257   8.128 -0.2809  0.3022 -0.6001
  105MOL0     H14451   1.968   9.276   7.984 -0.1338 -1.5461  0.6335
  105MOL0     H14452   1.665   9.686   8.008  2.8353  0.2455  1.1546
  105MOL0     H14453   1.441   9.810   8.059 -0.4505  1.8863 -0.6691
  105MOL0     H14454   1.344  10.067   7.960  1.6065  0.0467  0.3808
  105MOL0     H14455   1.238  10.021   8.089 -0.2326 -0.1139 -1.0687
  105MOL0     H14456   1.353  10.294   8.040 -1.7892 -0.5287 -2.2278
  105MOL0     H14457   1.199  10.238   8.008 -0.8411  4.5585  2.0233
  105MOL0     H14458   1.217  10.389   8.188  0.3799  0.1996  0.8607
  105MOL0     H14459   1.308  10.258   8.281  0.2114  0.4330  0.6425
  105MOL0     H14460   1.127  10.121   8.297 -0.4351 -0.0036  0.0324
  105MOL0     H14461   1.020  10.199   8.194 -2.1524  0.0661  2.5394
  105MOL0     H14462   1.083  10.314   8.455 -4.1969  2.3290  1.4670
  105MOL0     H14463   1.046  10.419   8.324  0.1186  1.3873  2.6477
  105MOL0     H14464   0.873  10.168   8.402  1.5492 -0.5403 -0.0634
  105MOL0     H14465   0.838  10.271   8.275 -0.5729 -4.4236 -0.2695
  105MOL0     H14466   0.848  10.467   8.442  3.9594  0.8176  3.5323
  105MOL0     H14467   0.869  10.346   8.571 -3.4975  2.8198  1.1530
  105MOL0     H14468   0.644  10.236   8.502 -2.5795  1.2167  3.0092
  105MOL0     H14469   0.632  10.378   8.387  3.3782  0.2532 -1.2902
  105MOL0     H14470   1.683  10.144   8.154  1.6968 -0.2065 -0.0680
  105MOL0     H14471   1.883  10.038   8.096 -0.5441  0.7775  0.6688
  105MOL0     H14472   2.125   9.778   7.940  1.7581 -0.0905 -1.0935
  105MOL0     H14473   2.352   9.705   7.905 -1.5012  1.9885  1.8159
  105MOL0     H14474   3.041  10.574   8.047  0.3678 -0.4301  1.1779
  105MOL0     H14475   3.081  10.783   8.170 -0.8649  1.5303  0.3130
  105MOL0     H14476   2.987  11.352   7.951 -0.0822 -2.0565 -0.3697
  105MOL0     H14477   2.922  11.549   8.095  0.0395  0.0368  0.0838
  105MOL0     H14478   3.007  11.500   8.534  4.1955 -1.1972  0.2478
  105MOL0     H14479   3.146  11.535   8.446 -0.4064 -0.2626 -0.6888
  105MOL0     H14480   3.070  11.778   8.433 -2.0361  1.2914  1.8605
  105MOL0     H14481   3.151  11.717   8.565  0.5154  0.1511 -1.5146
  105MOL0     H14482   2.913  11.682   8.671  3.5894 -1.4662 -0.5344
  105MOL0     H14483   2.993  11.843   8.667 -0.6441 -0.0255  0.1572
  105MOL0     H14484   2.798  11.752   8.445  1.3834 -0.1349 -1.3102
  105MOL0     H14485   2.887  11.894   8.453  1.1269 -2.0374  0.4040
  105MOL0     H14486   2.565  11.978   8.720 -1.5272 -0.3342 -1.0744
  105MOL0     H14487   3.045  11.310   8.444 -0.1829 -0.9577 -0.9264
  105MOL0     H14488   3.222  11.069   8.300 -0.8880 -2.9383  1.6757
  105MOL0     H14489   3.091  11.080   8.419  1.1654  0.6395  0.6942
  105MOL0     H14490   3.058  11.002   8.280 -0.7124  0.1050  1.9400
  106MOL0     O14491   1.986   7.305   7.987  0.6542 -0.0283 -0.4030
  106MOL0     C14492   1.877   7.360   7.943  0.6626 -0.1658 -0.5609
  106MOL0     O14493   1.756   7.379   8.016 -1.3224  0.4028 -0.5872
  106MOL0     C14494   1.757   7.317   8.140  0.0642  0.6315  0.7761
  106MOL0     C14495   1.679   7.196   8.144 -0.4983 -1.2474 -0.3916
  106MOL0     C14496   1.672   7.119   8.264  0.3064  0.1176  0.2156
  106MOL0     C14497   1.753   7.151   8.375  0.1412  0.6006  0.7709
  106MOL0     O14498   1.757   7.087   8.490  0.7598 -0.4829 -0.5620
  106MOL0     C14499   1.664   6.980   8.516  0.0330  0.0581  0.5573
  106MOL0     C14500   1.642   6.956   8.668 -0.6725  0.1513 -0.6021
  106MOL0     C14501   1.556   7.073   8.741 -0.2089  0.3866  0.3264
  106MOL0     C14502   1.598   7.089   8.882 -0.3789 -0.1805 -0.5913
  106MOL0     C14503   1.546   7.214   8.952 -0.3163 -0.2209  0.1353
  106MOL0     C14504   1.608   7.242   9.094  0.0619  1.9887  0.6214
  106MOL0     C14505   1.571   7.371   9.164  1.0339 -0.5477 -0.4448
  106MOL0     C14506   1.667   7.398   9.272  0.5169  0.1305 -0.1028
  106MOL0     N14507   1.663   7.530   9.342 -0.0229  1.2009 -0.4494
  106MOL0     C14508   1.669   7.654   9.280 -0.2084  0.8116  0.0383
  106MOL0     C14509   1.658   7.739   9.380  1.0668 -0.0260  0.0464
  106MOL0     C14510   1.636   7.887   9.354 -0.0248  0.1783 -0.6715
  106MOL0     C14511   1.495   7.925   9.354 -0.0704  0.1482  0.4405
  106MOL0     C14512   1.455   8.071   9.339  0.6110 -0.6213  0.0757
  106MOL0     C14513   1.305   8.086   9.301  0.6651 -0.5906  0.0318
  106MOL0     O14514   1.282   8.010   9.175  1.3974  0.0301  0.7078
  106MOL0     C14515   1.149   7.960   9.144 -0.6138 -0.1139 -0.0402
  106MOL0     C14516   1.046   7.944   9.239 -0.5203 -0.5787  0.4055
  106MOL0     C14517   0.925   7.875   9.197 -0.9611  0.5112  0.7804
  106MOL0     C14518   0.831   7.862   9.310 -1.0167 -0.1896  0.1568
  106MOL0     C14519   0.914   7.811   9.068 -0.1219 -0.5316  0.7509
  106MOL0     C14520   0.795   7.734   9.021 -0.1644  0.2025 -0.5909
  106MOL0     O14521   0.822   7.644   8.918 -0.2363 -1.0377 -0.5734
  106MOL0     C14522   0.750   7.525   8.926 -0.5710 -0.1722 -0.2311
  106MOL0     C14523   0.718   7.461   9.048  0.5026  0.8306 -0.5044
  106MOL0     C14524   0.646   7.341   9.034  0.2167 -0.0672 -0.3497
  106MOL0     C14525   0.614   7.286   8.912  0.6800  0.3430  0.2105
  106MOL0     O14526   0.555   7.161   8.907 -0.4080 -0.1411  0.0091
  106MOL0     C14527   0.447   7.137   9.010  0.2132 -0.1578 -0.1621
  106MOL0     C14528   0.322   7.072   8.943  0.3705  0.1953 -0.9248
  106MOL0     C14529   0.356   6.963   8.838 -0.4195  0.4311  0.3964
  106MOL0     C14530   0.350   6.820   8.912  0.4810 -0.0456 -0.6010
  106MOL0     C14531   0.344   6.695   8.822 -0.3921 -0.5792 -0.7527
  106MOL0     C14532   0.305   6.582   8.912  0.0091  0.2680 -0.0536
  106MOL0     C14533   0.332   6.441   8.858 -0.5819 -0.2869 -0.1422
  106MOL0     C14534   0.273   6.320   8.924 -0.0874 -0.3982  0.0019
  106MOL0    Cl14535   0.334   6.164   8.861  0.0407 -0.4365  0.3100
  106MOL0     C14536   0.657   7.348   8.796 -0.7271  1.0984 -0.0409
  106MOL0     C14537   0.717   7.468   8.802 -0.0029 -0.1610 -0.8873
  106MOL0     O14538   0.686   7.758   9.066 -0.2237 -0.0437 -1.1551
  106MOL0     C14539   1.029   7.814   8.991 -0.3502  1.3474 -0.4570
  106MOL0     C14540   1.145   7.885   9.028  0.9086 -0.1699 -0.3305
  106MOL0     N14541   1.629   7.677   9.496 -0.0824  0.0118  0.5277
  106MOL0     N14542   1.628   7.544   9.468  0.0783 -0.0056  0.1145
  106MOL0     C14543   1.835   7.260   8.360 -0.5965 -0.1740  0.3004
  106MOL0     C14544   1.829   7.354   8.247 -0.2059 -0.0825  0.4492
  106MOL0     C14545   1.868   7.370   7.793 -0.2882  0.0979  0.5589
  106MOL0     C14546   1.748   7.417   7.742 -0.5888  0.4771  0.8896
  106MOL0     C14547   1.728   7.455   7.611 -0.8005 -0.6390  0.1966
  106MOL0     C14548   1.823   7.428   7.516 -0.2047 -0.3504 -0.3621
  106MOL0     O14549   1.796   7.451   7.373  0.2187 -0.3491 -0.3443
  106MOL0     C14550   1.898   7.448   7.278 -1.3158  0.5634 -0.7860
  106MOL0     C14551   1.846   7.517   7.158 -0.2484 -0.5446  0.4461
  106MOL0     C14552   1.939   7.524   7.044  0.3083 -0.3510  0.2782
  106MOL0     C14553   1.944   7.399   6.953  0.5872 -0.9216 -0.5255
  106MOL0     C14554   2.078   7.386   6.897  0.3550 -0.3007 -0.1465
  106MOL0     C14555   2.194   7.390   6.841  0.4399 -0.3151  0.2705
  106MOL0     C14556   1.944   7.378   7.569 -0.1505 -0.2793  0.8185
  106MOL0     C14557   1.970   7.347   7.702  0.0321 -0.1048  0.6940
  106MOL0     C14558   2.115   7.301   7.737 -0.0323  0.2361  0.0713
  106MOL0     H14559   1.628   7.165   8.054  0.2610 -1.3220 -0.7993
  106MOL0     H14560   1.618   7.025   8.260  0.5426  0.0109 -1.4164
  106MOL0     H14561   1.710   6.889   8.476 -0.0150  0.1816  0.2163
  106MOL0     H14562   1.562   6.985   8.477  1.3902  0.6212 -3.3691
  106MOL0     H14563   1.589   6.862   8.688 -0.2815 -0.1585 -0.9958
  106MOL0     H14564   1.739   6.943   8.717 -1.1528 -0.7486  0.1549
  106MOL0     H14565   1.564   7.171   8.692  3.8902  0.1030  0.0967
  106MOL0     H14566   1.454   7.032   8.737  0.6380 -1.8908  0.5115
  106MOL0     H14567   1.555   7.004   8.937 -2.5122  1.1957 -0.0436
  106MOL0     H14568   1.707   7.089   8.875 -0.4157  0.1071 -1.1934
  106MOL0     H14569   1.438   7.202   8.956 -0.2947 -1.7214 -1.8696
  106MOL0     H14570   1.561   7.297   8.882 -2.5785  1.5563  1.6159
  106MOL0     H14571   1.590   7.158   9.161 -0.8730 -0.4230 -2.4247
  106MOL0     H14572   1.715   7.222   9.083 -0.2166  1.8031 -2.5518
  106MOL0     H14573   1.467   7.373   9.198  1.6851 -0.1612  1.6859
  106MOL0     H14574   1.578   7.456   9.095  0.5115  1.9064  2.2794
  106MOL0     H14575   1.662   7.314   9.342  1.2169 -0.6927 -1.0267
  106MOL0     H14576   1.767   7.389   9.229  1.6912 -0.4197  2.5480
  106MOL0     H14577   1.690   7.672   9.175  2.0098 -3.9687 -0.6222
  106MOL0     H14578   1.685   7.920   9.262  0.8718 -2.2542 -1.1475
  106MOL0     H14579   1.689   7.945   9.431 -1.9455  0.5085  0.4763
  106MOL0     H14580   1.441   7.858   9.287 -2.7045  0.7819  1.7608
  106MOL0     H14581   1.478   7.900   9.459 -2.0955  3.3878  1.0518
  106MOL0     H14582   1.490   8.124   9.428  2.5990 -1.7065 -0.0145
  106MOL0     H14583   1.511   8.104   9.251 -0.8435 -6.4955 -3.6050
  106MOL0     H14584   1.237   8.035   9.370 -1.4074  0.8767 -0.8295
  106MOL0     H14585   1.288   8.194   9.294 -0.2350 -0.7534 -0.4346
  106MOL0     H14586   1.059   7.991   9.335  0.3020 -1.9288  0.9887
  106MOL0     H14587   0.801   7.967   9.311 -0.4440 -0.0223 -0.1403
  106MOL0     H14588   0.890   7.833   9.397 -1.3454  1.7428  1.0672
  106MOL0     H14589   0.748   7.792   9.298 -1.0871 -0.2397  0.8812
  106MOL0     H14590   0.753   7.505   9.140  1.9313  2.0915 -1.5957
  106MOL0     H14591   0.630   7.292   9.130  0.7446  0.7313  0.1648
  106MOL0     H14592   0.488   7.074   9.089  0.9959  1.9213  1.1996
  106MOL0     H14593   0.422   7.230   9.063  1.8057  0.0968  0.2100
  106MOL0     H14594   0.239   7.039   9.007 -0.1620 -2.9942 -3.0268
  106MOL0     H14595   0.274   7.154   8.889  1.0959  2.1392  1.2530
  106MOL0     H14596   0.454   6.970   8.789 -1.1561  2.2118 -0.9180
  106MOL0     H14597   0.281   6.957   8.759  1.5740 -4.0895 -1.5227
  106MOL0     H14598   0.261   6.815   8.976  1.0361 -2.3652  0.0954
  106MOL0     H14599   0.436   6.808   8.978  0.0886 -0.7427 -0.2050
  106MOL0     H14600   0.277   6.704   8.736  2.0810 -1.0659 -2.8427
  106MOL0     H14601   0.444   6.672   8.786 -0.5986  0.5064 -2.0890
  106MOL0     H14602   0.198   6.597   8.932 -0.2506  2.5876 -2.5682
  106MOL0     H14603   0.364   6.585   9.004 -0.9172  2.3202  0.5459
  106MOL0     H14604   0.439   6.416   8.860 -0.6149 -1.2389 -3.5607
  106MOL0     H14605   0.296   6.442   8.754 -0.6905  3.2895 -0.1807
  106MOL0     H14606   0.166   6.333   8.908  0.3625  2.4277 -1.3021
  106MOL0     H14607   0.296   6.319   9.031 -1.4255 -0.2137  0.3085
  106MOL0     H14608   0.615   7.301   8.708 -0.6656  1.2777 -0.1655
  106MOL0     H14609   0.753   7.528   8.719 -1.0546 -0.2766 -1.4460
  106MOL0     H14610   1.032   7.751   8.902 -0.8592  0.4618  0.1390
  106MOL0     H14611   1.238   7.864   8.976  2.5236  0.8536  1.9574
  106MOL0     H14612   1.908   7.259   8.441  0.5485  0.2836 -0.6997
  106MOL0     H14613   1.875   7.452   8.244 -2.3095  1.0375  2.0923
  106MOL0     H14614   1.671   7.433   7.818  0.1084 -1.5241  2.0720
  106MOL0     H14615   1.638   7.514   7.598 -0.2669 -0.0903 -1.3198
  106MOL0     H14616   1.985   7.506   7.313  0.9883 -3.7417  1.4187
  106MOL0     H14617   1.925   7.343   7.261 -1.7805  0.3479 -0.2020
  106MOL0     H14618   1.824   7.620   7.188 -0.8847 -1.4736  3.5308
  106MOL0     H14619   1.749   7.469   7.144  0.0686 -1.4106  1.1565
  106MOL0     H14620   1.917   7.613   6.986 -1.2821 -1.2474 -0.5676
  106MOL0     H14621   2.039   7.546   7.082 -0.4937  1.9911  1.2050
  106MOL0     H14622   1.876   7.422   6.871 -0.3071 -2.4159 -0.2471
  106MOL0     H14623   1.906   7.311   7.006 -1.4869  0.8774  1.1899
  106MOL0     H14624   2.292   7.399   6.800 -0.2774 -0.3997 -1.5496
  106MOL0     H14625   2.019   7.353   7.494 -1.3640 -0.3509 -0.4041
  106MOL0     H14626   2.169   7.374   7.798  0.5126  0.9097 -1.1926
  106MOL0     H14627   2.125   7.205   7.789 -0.4729 -0.2225 -0.6715
  106MOL0     H14628   2.155   7.285   7.637 -2.6156  2.1792 -1.4033
  107MOL0     O14629   6.495   2.377   3.691  0.5386  0.7811 -0.0477
  107MOL0     C14630   6.405   2.382   3.779  0.6840 -0.3950 -0.0313
  107MOL0     O14631   6.382   2.494   3.851 -0.3601  0.2188  0.4076
  107MOL0     C14632   6.474   2.606   3.846  0.2515  0.8084  0.0846
  107MOL0     C14633   6.614   2.594   3.835 -0.0357  1.3242 -0.0380
  107MOL0     C14634   6.695   2.705   3.844  0.5605  0.2366  0.3753
  107MOL0     C14635   6.638   2.831   3.865 -0.5364 -0.5993 -0.6575
  107MOL0     O14636   6.731   2.923   3.908  0.1633  0.5782 -0.6974
  107MOL0     C14637   6.684   3.062   3.906 -0.5451 -0.3015  0.2254
  107MOL0     C14638   6.811   3.136   3.970  0.2581 -0.0140 -0.4092
  107MOL0     C14639   6.772   3.277   3.964 -0.1962 -0.3906  0.8178
  107MOL0     C14640   6.850   3.353   4.065 -0.5725  1.2311  0.2086
  107MOL0     C14641   6.794   3.494   4.095 -0.4164 -0.3368  0.2734
  107MOL0     C14642   6.810   3.591   3.990  0.2848  0.2115  0.6093
  107MOL0     C14643   6.723   3.720   4.011  1.0799 -0.3694 -0.6377
  107MOL0     C14644   6.777   3.801   4.133  0.1319  0.8142  0.6785
  107MOL0     N14645   6.700   3.922   4.154  0.5885 -0.2132  0.7430
  107MOL0     C14646   6.720   4.030   4.070 -0.5699  0.0453  0.4997
  107MOL0     C14647   6.674   4.130   4.151  0.0783 -0.4358  0.4196
  107MOL0     C14648   6.671   4.262   4.098 -0.5760 -0.5271 -0.3377
  107MOL0     C14649   6.808   4.329   4.114  0.5551 -0.2207 -0.9405
  107MOL0     C14650   6.840   4.464   4.054 -0.3600 -0.4250  0.4225
  107MOL0     C14651   6.764   4.573   4.117  0.7141  0.0588 -0.8073
  107MOL0     O14652   6.821   4.592   4.251 -0.4804  0.1137 -0.0791
  107MOL0     C14653   6.779   4.691   4.336  0.2858 -0.2528 -0.7040
  107MOL0     C14654   6.656   4.760   4.316 -0.8420 -0.5579  0.4248
  107MOL0     C14655   6.615   4.864   4.408 -0.8060 -1.0713  0.3912
  107MOL0     C14656   6.488   4.935   4.369 -1.0604  0.2222  0.9746
  107MOL0     C14657   6.692   4.891   4.522 -0.4729  0.4215  0.3971
  107MOL0     C14658   6.660   5.003   4.611  0.3544  1.0458  1.4434
  107MOL0     O14659   6.740   5.000   4.720 -0.6279 -0.7301 -0.3471
  107MOL0     C14660   6.738   5.126   4.785  0.5844 -0.0845  0.4020
  107MOL0     C14661   6.640   5.162   4.871  0.0448 -0.3307 -1.1107
  107MOL0     C14662   6.647   5.281   4.946 -0.4344 -0.2391 -0.6944
  107MOL0     C14663   6.761   5.357   4.926 -0.0048  0.1737  0.4869
  107MOL0     O14664   6.743   5.475   4.979  0.1754 -0.3049  0.2916
  107MOL0     C14665   6.864   5.552   4.986 -0.1037 -0.1975  0.6234
  107MOL0     C14666   6.839   5.680   5.083  0.2405  0.2143 -0.0437
  107MOL0     C14667   6.830   5.655   5.229  0.8707  0.1563  0.0170
  107MOL0     C14668   6.961   5.667   5.301 -1.3267  0.2088 -0.4206
  107MOL0     C14669   6.939   5.654   5.450 -0.4173 -0.5384 -0.5255
  107MOL0     C14670   7.073   5.674   5.524  0.4473 -0.2083  0.9942
  107MOL0     C14671   7.065   5.661   5.674  0.1485  0.0700 -0.6087
  107MOL0     C14672   7.064   5.516   5.730  0.1325 -0.1968  0.7419
  107MOL0    Cl14673   7.032   5.525   5.907  0.3380 -0.0889  0.3311
  107MOL0     C14674   6.856   5.327   4.832  0.5198  0.8664  0.6788
  107MOL0     C14675   6.850   5.208   4.765  0.2432  0.8799 -0.2124
  107MOL0     O14676   6.600   5.097   4.574 -0.0528 -0.4667  0.1896
  107MOL0     C14677   6.817   4.823   4.541 -1.0256  0.0909 -0.6159
  107MOL0     C14678   6.853   4.726   4.450 -0.4222 -0.0799 -0.3635
  107MOL0     N14679   6.627   4.082   4.276  0.2142 -0.8349  0.0558
  107MOL0     N14680   6.652   3.956   4.273 -0.1166 -0.6405  0.7801
  107MOL0     C14681   6.502   2.837   3.887  0.6735 -0.0122  0.4298
  107MOL0     C14682   6.417   2.726   3.870 -0.1991 -0.1627 -0.2392
  107MOL0     C14683   6.335   2.257   3.807  0.6756  0.1405  0.6981
  107MOL0     C14684   6.371   2.135   3.744  0.0916 -0.7475  0.1437
  107MOL0     C14685   6.295   2.029   3.753 -1.1734 -0.0743  0.6543
  107MOL0     C14686   6.183   2.019   3.833 -0.2321  0.2099  1.3369
  107MOL0     O14687   6.103   1.908   3.845 -0.2171  0.9693 -0.0217
  107MOL0     C14688   6.171   1.782   3.803 -0.2023 -0.3829  0.0151
  107MOL0     C14689   6.088   1.678   3.879 -0.1392 -0.7760 -0.4048
  107MOL0     C14690   5.939   1.661   3.841  0.0547  0.1725 -0.1694
  107MOL0     C14691   5.915   1.592   3.706 -0.8088 -0.1584 -0.0489
  107MOL0     C14692   5.973   1.459   3.702 -0.2680  0.4550 -0.5314
  107MOL0     C14693   6.006   1.343   3.705 -0.6922 -0.2644 -0.3356
  107MOL0     C14694   6.149   2.136   3.897  0.2420 -0.2129 -0.1041
  107MOL0     C14695   6.219   2.260   3.888  0.1748 -0.7272 -0.0355
  107MOL0     C14696   6.157   2.388   3.955 -0.2300  0.3219 -0.6770
  107MOL0     H14697   6.670   2.501   3.832 -0.5508  1.0121  0.0001
  107MOL0     H14698   6.802   2.684   3.849  0.4626 -0.3063  0.1849
  107MOL0     H14699   6.603   3.071   3.979  2.1381 -0.2628  3.4346
  107MOL0     H14700   6.668   3.089   3.801  1.0798 -1.4371 -0.3536
  107MOL0     H14701   6.817   3.099   4.072  1.9789  1.8957  0.2580
  107MOL0     H14702   6.905   3.122   3.915 -0.5590 -2.6431 -1.2679
  107MOL0     H14703   6.784   3.311   3.861 -0.1812  0.1254  0.9870
  107MOL0     H14704   6.665   3.289   3.985 -1.5929 -3.6290 -3.1941
  107MOL0     H14705   6.854   3.311   4.166 -2.8977  2.0133  0.6802
  107MOL0     H14706   6.950   3.355   4.021  0.1408  2.3912  1.7922
  107MOL0     H14707   6.845   3.533   4.183  1.1928  2.0747 -1.6143
  107MOL0     H14708   6.689   3.477   4.123  0.2189 -2.4676  1.6770
  107MOL0     H14709   6.913   3.622   3.976 -0.8630  3.4058 -2.1220
  107MOL0     H14710   6.780   3.544   3.896  1.2440 -0.9196  0.8453
  107MOL0     H14711   6.615   3.704   4.007  1.3245 -1.9952 -2.7912
  107MOL0     H14712   6.734   3.788   3.925 -0.1157 -0.1547 -0.6403
  107MOL0     H14713   6.782   3.734   4.218 -2.4316 -0.8546 -0.3472
  107MOL0     H14714   6.880   3.826   4.106  0.7477 -2.3874 -0.4485
  107MOL0     H14715   6.752   4.025   3.966 -0.3292  0.8849  0.5272
  107MOL0     H14716   6.598   4.321   4.155  1.2793 -0.1955  1.8187
  107MOL0     H14717   6.635   4.261   3.994 -0.0493  2.5350 -0.6536
  107MOL0     H14718   6.816   4.341   4.222 -2.2105 -2.8670 -0.2940
  107MOL0     H14719   6.882   4.256   4.081 -0.7435 -1.7755 -0.5571
  107MOL0     H14720   6.948   4.480   4.059  0.2618 -1.5993 -4.4332
  107MOL0     H14721   6.810   4.462   3.949  0.1815  0.1089  0.2507
  107MOL0     H14722   6.772   4.662   4.055 -0.5223 -0.0137 -1.0897
  107MOL0     H14723   6.660   4.538   4.121  1.4696 -2.2942  0.0271
  107MOL0     H14724   6.603   4.753   4.221 -0.1172  0.9643 -0.1220
  107MOL0     H14725   6.408   4.911   4.440 -3.2464  0.2477 -1.3371
  107MOL0     H14726   6.461   4.900   4.269  0.1159 -0.9356  1.0362
  107MOL0     H14727   6.501   5.042   4.352  1.2309 -0.0070  0.8977
  107MOL0     H14728   6.552   5.099   4.878 -0.9603  1.0311 -1.0594
  107MOL0     H14729   6.577   5.312   5.023 -1.5908  0.1973 -1.9025
  107MOL0     H14730   6.948   5.493   5.025  1.1259 -0.5448 -2.2714
  107MOL0     H14731   6.885   5.609   4.895 -3.8039  0.8763  0.2763
  107MOL0     H14732   6.915   5.754   5.057  0.9377 -1.0844 -1.9660
  107MOL0     H14733   6.741   5.717   5.053 -0.9074  0.2446  3.3569
  107MOL0     H14734   6.776   5.561   5.242 -0.7489  1.3845  4.2246
  107MOL0     H14735   6.755   5.723   5.271 -0.3150 -0.4484 -1.0581
  107MOL0     H14736   7.011   5.762   5.284  0.4029 -0.3624  1.1578
  107MOL0     H14737   7.036   5.594   5.269 -0.2665  1.4587 -0.8793
  107MOL0     H14738   6.872   5.735   5.479 -0.0744  0.4441 -2.3175
  107MOL0     H14739   6.890   5.559   5.470 -0.0010 -0.3067  1.8420
  107MOL0     H14740   7.127   5.763   5.492  0.8218 -1.2273 -1.4289
  107MOL0     H14741   7.143   5.597   5.492  0.8427 -1.0188  3.5731
  107MOL0     H14742   6.989   5.728   5.716  0.3653 -0.5888  0.8848
  107MOL0     H14743   7.156   5.699   5.722 -0.5563 -0.4312  1.1954
  107MOL0     H14744   7.163   5.474   5.708  1.0424  0.7620  2.7083
  107MOL0     H14745   6.992   5.458   5.672 -0.2490  1.4530 -0.5151
  107MOL0     H14746   6.941   5.390   4.807  0.4302  1.0233  0.7693
  107MOL0     H14747   6.923   5.173   4.692 -0.0455 -0.2161  0.0008
  107MOL0     H14748   6.875   4.850   4.628 -2.6122  1.3580  0.0871
  107MOL0     H14749   6.943   4.669   4.473 -1.7470 -0.7044  4.1142
  107MOL0     H14750   6.452   2.925   3.928 -0.6609  0.1107 -1.3406
  107MOL0     H14751   6.314   2.742   3.902  0.4309 -0.0719  1.8579
  107MOL0     H14752   6.464   2.117   3.690 -0.9265 -1.1199 -1.5813
  107MOL0     H14753   6.331   1.949   3.688 -1.3505  0.8170 -0.5703
  107MOL0     H14754   6.180   1.778   3.694  1.7145  4.8027 -0.2897
  107MOL0     H14755   6.272   1.781   3.845 -0.7741 -2.4072  1.4896
  107MOL0     H14756   6.104   1.689   3.986  3.6315 -3.8703 -0.3896
  107MOL0     H14757   6.131   1.577   3.872  0.7160 -0.8672  3.6806
  107MOL0     H14758   5.898   1.602   3.923  0.2283  2.6068  1.7860
  107MOL0     H14759   5.880   1.753   3.850  0.9887  0.9529 -1.6510
  107MOL0     H14760   5.958   1.653   3.625  1.3991  0.9779  1.8454
  107MOL0     H14761   5.808   1.580   3.690 -0.9986  0.2281  0.8834
  107MOL0     H14762   6.050   1.248   3.731  2.0380  0.8504 -0.6112
  107MOL0     H14763   6.065   2.133   3.965 -1.6674  2.4216 -2.1665
  107MOL0     H14764   6.115   2.455   3.879 -1.6193 -2.2406 -2.3371
  107MOL0     H14765   6.066   2.374   4.015 -0.7374  1.4266 -1.1581
  107MOL0     H14766   6.233   2.434   4.017 -0.4211 -2.6891  2.0298
  108MOL0     O14767  10.898   0.186   7.330  0.1998  0.2411 -0.1402
  108MOL0     C14768  10.775   0.169   7.305 -0.1725 -1.2308  0.2160
  108MOL0     O14769  10.709   0.050   7.294  0.3529  0.1917  0.2481
  108MOL0     C14770  10.786  -0.062   7.297 -0.2001 -0.3540 -0.4031
  108MOL0     C14771  10.814  -0.134   7.184 -0.4150  0.6588  0.8851
  108MOL0     C14772  10.899  -0.245   7.179 -0.0134 -0.1869  0.0394
  108MOL0     C14773  10.965  -0.278   7.293 -0.5941  0.9419 -1.2056
  108MOL0     O14774  11.045  -0.382   7.300  0.0236 -0.1925 -0.2111
  108MOL0     C14775  11.071  -0.469   7.193  0.6646  1.0467  0.2552
  108MOL0     C14776  10.947  -0.561   7.161 -0.4998 -0.2933  0.7932
  108MOL0     C14777  10.999  -0.647   7.044  0.7602  0.5226 -0.2315
  108MOL0     C14778  11.086  -0.769   7.095  0.7973 -0.0712  0.2514
  108MOL0     C14779  11.059  -0.897   7.007 -0.2611 -0.8062 -0.9761
  108MOL0     C14780  11.161  -1.021   7.036 -0.5047 -0.2953 -0.2815
  108MOL0     C14781  11.293  -0.981   6.962  0.3252 -0.3163 -0.5138
  108MOL0     C14782  11.387  -1.095   6.948 -0.2652  0.0420 -0.0852
  108MOL0     N14783  11.494  -1.070   6.846  0.5704  0.1224  0.0545
  108MOL0     C14784  11.620  -1.040   6.877  0.6167 -0.2176 -0.0666
  108MOL0     C14785  11.692  -1.069   6.761  0.1062 -0.0128  0.0882
  108MOL0     C14786  11.832  -1.042   6.734 -1.2235  0.2876  0.0592
  108MOL0     C14787  11.851  -0.893   6.706  0.0361 -0.2127  0.7079
  108MOL0     C14788  11.980  -0.856   6.624  0.8809 -0.2085 -0.0479
  108MOL0     C14789  12.106  -0.859   6.702 -0.3428  0.4923  0.3989
  108MOL0     O14790  12.227  -0.849   6.613 -0.7600 -0.4535  0.1227
  108MOL0     C14791  12.345  -0.887   6.678 -0.3998 -0.4716  0.3704
  108MOL0     C14792  12.450  -0.905   6.597 -1.1156 -0.2383  1.1107
  108MOL0     C14793  12.581  -0.940   6.631 -0.0657  0.3047  0.2343
  108MOL0     C14794  12.661  -0.976   6.506  0.5730 -0.6529 -0.8009
  108MOL0     C14795  12.608  -0.955   6.768 -0.7779  0.2088  0.9919
  108MOL0     C14796  12.746  -0.994   6.817  0.4808  1.8731 -0.2691
  108MOL0     O14797  12.850  -0.990   6.728  0.9314 -0.0461 -0.4637
  108MOL0     C14798  12.972  -1.047   6.766  0.4848 -0.4942 -0.1470
  108MOL0     C14799  13.000  -1.155   6.857 -0.1896  0.1174  0.0362
  108MOL0     C14800  13.130  -1.204   6.890 -0.1961  0.2372  0.0400
  108MOL0     C14801  13.236  -1.129   6.842 -0.2884  0.1556 -0.8965
  108MOL0     O14802  13.370  -1.145   6.878  0.3606 -0.5623 -0.1154
  108MOL0     C14803  13.404  -1.272   6.937 -0.1485 -0.3432 -0.5798
  108MOL0     C14804  13.554  -1.302   6.913 -0.5128  0.1881  0.1346
  108MOL0     C14805  13.643  -1.203   6.989  0.0212  0.0848  0.6348
  108MOL0     C14806  13.782  -1.257   7.020  0.3650 -0.4117 -0.0162
  108MOL0     C14807  13.797  -1.358   7.131 -1.4793  0.6465 -0.3350
  108MOL0     C14808  13.947  -1.409   7.133 -0.0149  0.0649  1.5426
  108MOL0     C14809  13.984  -1.460   7.269 -0.1237 -0.3540 -0.2625
  108MOL0     C14810  13.966  -1.352   7.379 -0.5757  0.3903  0.5209
  108MOL0    Cl14811  14.049  -1.205   7.328 -0.1512  0.4388 -0.0701
  108MOL0     C14812  13.219  -1.016   6.766  0.2858  0.7700  0.4515
  108MOL0     C14813  13.091  -0.983   6.723  0.1387  0.1068  0.0180
  108MOL0     O14814  12.759  -1.014   6.938 -0.2149  0.4697  0.3613
  108MOL0     C14815  12.507  -0.933   6.853 -0.5653 -0.1235 -0.6399
  108MOL0     C14816  12.371  -0.897   6.814 -0.2239  0.2863 -0.1336
  108MOL0     N14817  11.609  -1.121   6.671 -0.4630  0.2441  0.4158
  108MOL0     N14818  11.485  -1.127   6.723 -0.1701 -0.2046  0.2966
  108MOL0     C14819  10.942  -0.212   7.412 -0.1810 -0.0698 -0.5048
  108MOL0     C14820  10.846  -0.105   7.421 -0.4314 -0.0562  0.0720
  108MOL0     C14821  10.705   0.305   7.263 -0.2486 -0.2820 -0.6765
  108MOL0     C14822  10.643   0.306   7.135  0.3471  0.1895  0.2847
  108MOL0     C14823  10.596   0.429   7.088  0.1702  0.0566 -0.1510
  108MOL0     C14824  10.601   0.546   7.170  0.2059 -0.0296 -0.6762
  108MOL0     O14825  10.539   0.665   7.120  0.9635  0.2251  0.6240
  108MOL0     C14826  10.531   0.780   7.201  0.2133  0.5856 -0.2022
  108MOL0     C14827  10.413   0.855   7.141 -0.0436  0.0972 -0.3631
  108MOL0     C14828  10.281   0.812   7.220  0.7592  0.3216  0.1456
  108MOL0     C14829  10.158   0.887   7.151  0.7681 -0.1808 -1.1407
  108MOL0     C14830  10.161   1.026   7.195  1.2721  0.2659 -0.4777
  108MOL0     C14831  10.160   1.131   7.247 -1.0613  0.1540 -0.3542
  108MOL0     C14832  10.651   0.535   7.305 -0.8897  0.2822  0.0708
  108MOL0     C14833  10.722   0.416   7.337 -0.6182 -0.8418 -0.7325
  108MOL0     C14834  10.784   0.409   7.492 -0.5176 -0.2458  0.5127
  108MOL0     H14835  10.759  -0.110   7.094  0.4289  0.1635  0.2223
  108MOL0     H14836  10.915  -0.291   7.081  1.7416  1.6166 -0.5956
  108MOL0     H14837  11.149  -0.537   7.230  0.3139 -0.5484 -1.7861
  108MOL0     H14838  11.105  -0.413   7.106 -0.4813  2.1254  0.4789
  108MOL0     H14839  10.914  -0.621   7.247  2.0849 -2.1206  0.6182
  108MOL0     H14840  10.868  -0.494   7.124  1.4345  0.5447 -2.1990
  108MOL0     H14841  10.909  -0.674   6.987  0.9373  0.5126 -0.5117
  108MOL0     H14842  11.056  -0.585   6.974 -0.8116 -0.2225 -2.2801
  108MOL0     H14843  11.192  -0.742   7.093  0.6047  2.0765  5.0997
  108MOL0     H14844  11.053  -0.797   7.195  0.0625  0.0748  0.0528
  108MOL0     H14845  11.064  -0.859   6.905  0.7472  2.5536  0.2029
  108MOL0     H14846  10.955  -0.922   7.026 -1.0599  2.0258 -1.1785
  108MOL0     H14847  11.168  -1.039   7.144 -2.4597  0.4292  0.0177
  108MOL0     H14848  11.126  -1.108   6.981 -0.9489  0.3000 -0.9628
  108MOL0     H14849  11.353  -0.901   7.006  0.4312  0.5019 -2.0615
  108MOL0     H14850  11.255  -0.939   6.868 -1.5190 -1.7134 -0.4408
  108MOL0     H14851  11.424  -1.097   7.051 -2.3457  0.4635  0.7228
  108MOL0     H14852  11.337  -1.183   6.908 -0.8427  1.7899 -3.5820
  108MOL0     H14853  11.663  -0.986   6.961 -3.6768  0.6958  1.7935
  108MOL0     H14854  11.860  -1.106   6.650  1.3688  1.7386 -0.2785
  108MOL0     H14855  11.896  -1.068   6.819  0.6292 -0.9962 -1.6503
  108MOL0     H14856  11.762  -0.859   6.653 -0.9863 -2.5120  0.8324
  108MOL0     H14857  11.851  -0.840   6.802  1.5736  1.3710 -0.1144
  108MOL0     H14858  11.993  -0.928   6.543 -0.0777  0.7223 -1.0733
  108MOL0     H14859  11.983  -0.757   6.577 -0.5731  0.3286  0.9283
  108MOL0     H14860  12.100  -0.772   6.768  3.8489  1.4984 -0.2266
  108MOL0     H14861  12.109  -0.956   6.753 -2.0884  0.4383  0.4569
  108MOL0     H14862  12.434  -0.907   6.490 -0.7854 -1.8912  1.0615
  108MOL0     H14863  12.735  -0.895   6.513  0.9312 -1.0138 -0.3339
  108MOL0     H14864  12.612  -0.975   6.409  1.3898 -0.4298 -1.2203
  108MOL0     H14865  12.712  -1.072   6.519  4.2170  1.1008 -0.6987
  108MOL0     H14866  12.916  -1.209   6.900  1.7621 -1.5460  1.9469
  108MOL0     H14867  13.138  -1.289   6.958 -1.5229  0.0726  0.0276
  108MOL0     H14868  13.385  -1.271   7.045  0.8705 -0.6717 -0.3829
  108MOL0     H14869  13.350  -1.356   6.891 -0.8261  0.2648 -0.9154
  108MOL0     H14870  13.583  -1.397   6.959 -1.5812 -0.1505  0.1269
  108MOL0     H14871  13.575  -1.306   6.806 -0.1355  0.9786  0.1729
  108MOL0     H14872  13.591  -1.195   7.086  2.1197 -1.0947  1.9219
  108MOL0     H14873  13.640  -1.115   6.924  1.2436 -0.9425 -0.8561
  108MOL0     H14874  13.847  -1.172   7.043 -2.3301  3.1083 -3.8069
  108MOL0     H14875  13.813  -1.285   6.918 -1.1560 -1.0650 -0.3267
  108MOL0     H14876  13.762  -1.307   7.221  0.8001  0.1590  0.9200
  108MOL0     H14877  13.736  -1.447   7.117  2.2415 -1.7679 -3.3632
  108MOL0     H14878  14.008  -1.323   7.104 -2.4424  0.8696 -1.9210
  108MOL0     H14879  13.971  -1.481   7.053 -2.6362  2.1423 -1.3682
  108MOL0     H14880  14.087  -1.495   7.256 -0.9884 -2.3870 -2.2997
  108MOL0     H14881  13.933  -1.552   7.298  1.1089 -0.0316  3.3935
  108MOL0     H14882  13.998  -1.378   7.481  0.6131  0.2645  0.1221
  108MOL0     H14883  13.863  -1.318   7.397 -0.3084  1.0286  0.9058
  108MOL0     H14884  13.302  -0.960   6.724  0.7672  0.4758  1.0002
  108MOL0     H14885  13.061  -0.900   6.660 -2.8369 -1.2225 -0.4804
  108MOL0     H14886  12.514  -0.959   6.958  0.5839 -0.6473 -0.8360
  108MOL0     H14887  12.308  -0.869   6.898 -0.2066 -0.3883  0.1173
  108MOL0     H14888  10.995  -0.228   7.506 -2.1774 -0.3348  0.6381
  108MOL0     H14889  10.808  -0.066   7.515  0.4905 -1.9189  1.2746
  108MOL0     H14890  10.634   0.222   7.067  2.7715 -1.1927  1.5605
  108MOL0     H14891  10.554   0.419   6.989 -0.2543 -2.8713  0.2396
  108MOL0     H14892  10.498   0.756   7.303  0.7911  3.2923  0.6914
  108MOL0     H14893  10.623   0.838   7.198  0.4407  0.3475  1.3500
  108MOL0     H14894  10.403   0.829   7.035 -0.4160  0.8300 -0.5158
  108MOL0     H14895  10.429   0.963   7.138 -1.1822  0.3046  0.1828
  108MOL0     H14896  10.265   0.704   7.207 -1.6435  0.9176 -3.4307
  108MOL0     H14897  10.293   0.842   7.324  0.1885  0.7240  0.0980
  108MOL0     H14898  10.063   0.847   7.187  0.2704  3.2146  1.8077
  108MOL0     H14899  10.165   0.887   7.042  2.1629 -0.2648 -1.0754
  108MOL0     H14900  10.160   1.223   7.300 -1.9159  0.0187 -0.0936
  108MOL0     H14901  10.653   0.610   7.384  2.7430  0.3484  0.1146
  108MOL0     H14902  10.743   0.498   7.543 -1.6350  0.6227 -1.7729
  108MOL0     H14903  10.753   0.320   7.547  1.3666 -1.9199 -1.0080
  108MOL0     H14904  10.893   0.411   7.480 -0.2466  0.2752  2.5962
  109MOL0     O14905   7.497   6.864   2.912 -0.5118  1.4242  0.2385
  109MOL0     C14906   7.397   6.825   2.854  0.2869  1.1668 -0.0505
  109MOL0     O14907   7.296   6.760   2.929 -0.0314  0.7596 -0.2127
  109MOL0     C14908   7.324   6.694   3.045  0.4358  0.6013  0.7654
  109MOL0     C14909   7.422   6.599   3.056  0.9979 -0.2938 -0.0096
  109MOL0     C14910   7.443   6.529   3.180 -0.1426 -0.3183  0.3451
  109MOL0     C14911   7.358   6.554   3.291 -0.2404  0.6015  0.7619
  109MOL0     O14912   7.386   6.490   3.410  0.2993  0.5023  0.2007
  109MOL0     C14913   7.269   6.468   3.489 -0.6723 -0.8960  0.0055
  109MOL0     C14914   7.287   6.364   3.593 -0.6608  0.2733 -0.4442
  109MOL0     C14915   7.359   6.238   3.531 -0.6453 -0.1901 -0.1568
  109MOL0     C14916   7.372   6.119   3.625 -0.2384 -0.1166 -0.6276
  109MOL0     C14917   7.314   5.989   3.564 -0.1841 -0.2383 -0.8691
  109MOL0     C14918   7.302   5.887   3.679 -0.3145  0.7470  1.1038
  109MOL0     C14919   7.246   5.760   3.619 -0.2623 -0.4717  0.6422
  109MOL0     C14920   7.341   5.668   3.544 -0.2649 -0.1065 -0.0115
  109MOL0     N14921   7.322   5.527   3.581  0.3131  0.3965  0.1280
  109MOL0     C14922   7.257   5.425   3.514  0.1834  0.6518 -0.7308
  109MOL0     C14923   7.254   5.326   3.613 -0.4114  0.0440  0.5940
  109MOL0     C14924   7.197   5.189   3.593 -0.0654 -0.1656  0.3815
  109MOL0     C14925   7.306   5.087   3.550 -0.1288 -0.9952 -0.1472
  109MOL0     C14926   7.355   5.109   3.404 -0.6079  1.0579 -1.0662
  109MOL0     C14927   7.474   5.010   3.385  0.1397  0.0484 -0.5541
  109MOL0     O14928   7.603   5.059   3.414  0.1893 -1.1186  0.1840
  109MOL0     C14929   7.673   5.129   3.320 -0.8221  0.5106 -0.4724
  109MOL0     C14930   7.625   5.165   3.189  0.1487  0.3327 -0.1337
  109MOL0     C14931   7.720   5.199   3.087  0.5008  0.7838 -0.1985
  109MOL0     C14932   7.669   5.195   2.946  0.5293  1.1249 -0.5807
  109MOL0     C14933   7.855   5.218   3.124  0.2002  0.8842  0.2604
  109MOL0     C14934   7.959   5.259   3.027 -0.0121 -0.6318 -1.4661
  109MOL0     O14935   8.094   5.246   3.079 -0.0525 -0.1006  0.1501
  109MOL0     C14936   8.197   5.291   3.005  0.1106 -1.0211 -0.3055
  109MOL0     C14937   8.229   5.224   2.890  0.5928 -0.0411  0.2678
  109MOL0     C14938   8.332   5.269   2.803 -0.0679 -0.7170 -1.1736
  109MOL0     C14939   8.394   5.389   2.835 -0.5108 -0.6623  0.1233
  109MOL0     O14940   8.491   5.435   2.757 -0.4562  0.3221  0.0975
  109MOL0     C14941   8.605   5.501   2.826 -0.5357  0.1981  0.3338
  109MOL0     C14942   8.705   5.545   2.732 -0.3686 -0.3788  0.5578
  109MOL0     C14943   8.833   5.604   2.795  0.3150  0.3493 -0.4285
  109MOL0     C14944   8.959   5.579   2.708  0.2699  0.3594 -0.5735
  109MOL0     C14945   9.082   5.642   2.765  0.6479  0.1126  0.8468
  109MOL0     C14946   9.126   5.615   2.904  1.0168  0.4496  0.3272
  109MOL0     C14947   9.164   5.471   2.923  0.7137 -0.3453 -0.3918
  109MOL0     C14948   9.240   5.458   3.053  0.5535 -0.0656 -0.5263
  109MOL0    Cl14949   9.121   5.480   3.190  0.3134  0.1318 -0.2235
  109MOL0     C14950   8.350   5.466   2.946  0.4285  0.6465 -0.3398
  109MOL0     C14951   8.257   5.411   3.033  0.4348  0.1125  0.3682
  109MOL0     O14952   7.935   5.309   2.922  0.6989 -0.0068  0.0097
  109MOL0     C14953   7.899   5.190   3.257 -0.0793 -0.1928 -0.3588
  109MOL0     C14954   7.810   5.139   3.350  0.6224 -0.5620 -0.4079
  109MOL0     N14955   7.325   5.371   3.723 -0.3634 -0.6396 -0.3131
  109MOL0     N14956   7.342   5.496   3.708  0.7687 -0.2140  0.7174
  109MOL0     C14957   7.255   6.652   3.276  0.4023 -0.6237  0.8168
  109MOL0     C14958   7.246   6.727   3.154 -0.5244 -0.1026 -0.1651
  109MOL0     C14959   7.387   6.837   2.712  0.1416 -0.4178  0.7510
  109MOL0     C14960   7.449   6.950   2.663  0.5220 -0.9428 -0.0807
  109MOL0     C14961   7.463   6.966   2.524  0.1034 -0.5448 -0.2538
  109MOL0     C14962   7.385   6.877   2.440 -0.3725  0.3438 -0.8151
  109MOL0     O14963   7.381   6.919   2.314 -0.0379  0.3100 -0.1198
  109MOL0     C14964   7.270   6.886   2.238 -0.4081 -0.6507  0.5059
  109MOL0     C14965   7.148   6.975   2.292  0.0609  0.4008  0.2909
  109MOL0     C14966   7.175   7.123   2.269  0.6945 -0.0493 -0.3791
  109MOL0     C14967   7.055   7.216   2.314  0.2498 -0.1231  0.4541
  109MOL0     C14968   6.953   7.239   2.215 -0.6721 -0.2971  0.1081
  109MOL0     C14969   6.869   7.274   2.141  0.3756 -0.8109  0.1724
  109MOL0     C14970   7.319   6.762   2.497  0.1123 -0.5386  1.2511
  109MOL0     C14971   7.325   6.744   2.634  0.3133 -1.4472  0.7787
  109MOL0     C14972   7.268   6.616   2.676 -0.0238  0.7478  1.0283
  109MOL0     H14973   7.489   6.580   2.974 -0.4791  0.1259 -1.3612
  109MOL0     H14974   7.521   6.457   3.204  0.0663 -0.4782 -0.7519
  109MOL0     H14975   7.184   6.433   3.430 -0.4909 -1.3225 -0.0067
  109MOL0     H14976   7.243   6.563   3.538  1.5603 -0.1987 -0.0475
  109MOL0     H14977   7.336   6.396   3.685 -2.8164 -2.1608  1.7386
  109MOL0     H14978   7.185   6.333   3.616 -1.1296  0.2453 -2.3688
  109MOL0     H14979   7.301   6.212   3.443 -0.2026  2.2488 -1.2529
  109MOL0     H14980   7.460   6.273   3.508  1.1906 -2.8869  2.8475
  109MOL0     H14981   7.476   6.099   3.651  0.3287  3.3187  0.2017
  109MOL0     H14982   7.329   6.142   3.723 -0.8069 -0.2690 -0.8347
  109MOL0     H14983   7.374   5.948   3.483  0.9299  0.0167 -0.1867
  109MOL0     H14984   7.212   6.001   3.526  0.2332  1.1086 -1.6096
  109MOL0     H14985   7.401   5.871   3.723  0.1944  2.2799  0.6106
  109MOL0     H14986   7.239   5.920   3.762  2.8522  0.7983  3.6698
  109MOL0     H14987   7.169   5.768   3.542  0.9599 -0.6793 -0.6321
  109MOL0     H14988   7.204   5.708   3.706  2.7428 -1.8292  1.3911
  109MOL0     H14989   7.318   5.682   3.438 -3.5247  0.3588  0.6374
  109MOL0     H14990   7.444   5.692   3.572  0.1977  0.0958 -1.7791
  109MOL0     H14991   7.190   5.428   3.429 -0.7049  0.4114 -0.0462
  109MOL0     H14992   7.112   5.198   3.524 -1.0602 -1.4888  1.3849
  109MOL0     H14993   7.150   5.149   3.683  1.9490 -1.0023  1.1045
  109MOL0     H14994   7.391   5.088   3.619 -0.7531 -0.9670  0.6301
  109MOL0     H14995   7.275   4.982   3.554  0.1004 -1.2549 -2.8441
  109MOL0     H14996   7.281   5.082   3.329  0.3933  1.5930 -2.2799
  109MOL0     H14997   7.387   5.213   3.408 -1.5954  1.3428 -0.0743
  109MOL0     H14998   7.457   4.919   3.443  1.4740  1.3009  1.9465
  109MOL0     H14999   7.465   4.978   3.281 -2.4010  1.0218 -0.7164
  109MOL0     H15000   7.520   5.165   3.162 -0.2489  2.4464  1.1759
  109MOL0     H15001   7.560   5.188   2.946  0.5681 -0.6948  1.5602
  109MOL0     H15002   7.714   5.112   2.890  1.7674  0.2822  1.5425
  109MOL0     H15003   7.691   5.293   2.903  1.8317  1.5772  1.0185
  109MOL0     H15004   8.179   5.130   2.867  2.4615 -0.4203 -2.7785
  109MOL0     H15005   8.356   5.219   2.710  0.5010 -4.6406  0.8817
  109MOL0     H15006   8.573   5.588   2.884 -0.5470  1.5543 -1.6461
  109MOL0     H15007   8.647   5.424   2.892  0.7956  1.2823  0.7997
  109MOL0     H15008   8.733   5.452   2.682  2.4084  1.6050 -1.9763
  109MOL0     H15009   8.679   5.609   2.647  2.2654 -2.0852 -1.7243
  109MOL0     H15010   8.851   5.560   2.893  1.6119  0.1658 -0.7304
  109MOL0     H15011   8.814   5.712   2.796  0.1471  0.4793 -3.8086
  109MOL0     H15012   8.936   5.632   2.614  0.1009  1.4104  0.0478
  109MOL0     H15013   8.978   5.473   2.691  1.8912  0.6236 -0.5080
  109MOL0     H15014   9.170   5.617   2.705  1.2167  2.3049  0.6473
  109MOL0     H15015   9.078   5.751   2.758  2.0596  0.1604  0.5156
  109MOL0     H15016   9.040   5.638   2.967  0.3837 -0.6882 -0.0751
  109MOL0     H15017   9.212   5.678   2.928  1.6101 -0.2865  0.1784
  109MOL0     H15018   9.220   5.429   2.839  0.0734 -0.5917 -0.7024
  109MOL0     H15019   9.067   5.420   2.922 -0.7583  2.1831 -2.5620
  109MOL0     H15020   9.319   5.533   3.060 -0.2866  0.9292 -1.5055
  109MOL0     H15021   9.287   5.361   3.073 -0.1487 -0.0954  1.2030
  109MOL0     H15022   8.398   5.561   2.966  3.6751 -0.9349 -0.0884
  109MOL0     H15023   8.210   5.445   3.125  0.8837 -1.8422  1.3618
  109MOL0     H15024   8.003   5.210   3.281 -0.0995 -0.3494 -0.1327
  109MOL0     H15025   7.842   5.126   3.453 -0.3506  3.6276  0.6194
  109MOL0     H15026   7.170   6.664   3.342 -1.8932 -1.6632 -1.7276
  109MOL0     H15027   7.175   6.805   3.129  1.9877  1.6147 -2.4231
  109MOL0     H15028   7.496   7.027   2.724  2.5330  0.5708 -3.2958
  109MOL0     H15029   7.529   7.045   2.492  3.5998 -3.0251  0.2460
  109MOL0     H15030   7.291   6.897   2.131  2.0522 -2.6001  0.6820
  109MOL0     H15031   7.239   6.783   2.261 -0.2720 -0.5690  1.0749
  109MOL0     H15032   7.117   6.950   2.393 -1.4145 -0.2215 -0.2943
  109MOL0     H15033   7.061   6.954   2.229 -0.3072  0.4806  0.7639
  109MOL0     H15034   7.263   7.157   2.324 -0.7493 -0.6360  2.5324
  109MOL0     H15035   7.190   7.131   2.161  0.4387  1.3408 -0.3316
  109MOL0     H15036   7.091   7.317   2.338  0.2931 -0.0979  0.2843
  109MOL0     H15037   7.006   7.169   2.400  0.6054  2.8669  2.4490
  109MOL0     H15038   6.815   7.316   2.059 -1.1700 -1.1903  0.9562
  109MOL0     H15039   7.254   6.692   2.445  0.1081 -0.6510  1.4076
  109MOL0     H15040   7.259   6.539   2.599  0.8052  0.4909  1.1847
  109MOL0     H15041   7.338   6.566   2.744  1.1998 -0.6898 -1.1849
  109MOL0     H15042   7.175   6.618   2.735 -0.3746  1.5755  0.4521
  110MOL0     O15043  11.315   5.780   3.544 -0.4916  0.3399  0.3947
  110MOL0     C15044  11.256   5.703   3.620 -0.5701 -0.0898 -0.1301
  110MOL0     O15045  11.300   5.593   3.675 -0.1020 -0.2223 -0.0742
  110MOL0     C15046  11.432   5.555   3.672  0.1401 -0.6817  0.3480
  110MOL0     C15047  11.547   5.634   3.695 -0.2569 -0.1351 -0.3367
  110MOL0     C15048  11.678   5.591   3.676  0.0115 -0.3090 -0.3863
  110MOL0     C15049  11.691   5.459   3.666 -0.4493  0.5606  0.3482
  110MOL0     O15050  11.820   5.408   3.655  0.0523 -0.4279 -0.0936
  110MOL0     C15051  11.843   5.285   3.723 -0.1658 -0.4596 -1.0938
  110MOL0     C15052  11.980   5.291   3.801 -0.0556 -0.2111  0.2939
  110MOL0     C15053  12.112   5.293   3.708 -0.4557  0.2492 -0.0481
  110MOL0     C15054  12.230   5.201   3.754  0.7039  0.4964 -0.5823
  110MOL0     C15055  12.340   5.193   3.654  0.2423  0.3313  0.3178
  110MOL0     C15056  12.316   5.102   3.540  0.0931  0.5575  0.0239
  110MOL0     C15057  12.416   5.126   3.421  0.2704  0.9385 -0.5352
  110MOL0     C15058  12.400   5.024   3.305 -0.1241  0.2593  0.1713
  110MOL0     N15059  12.520   5.023   3.224  0.3769  0.0755  0.0964
  110MOL0     C15060  12.652   4.995   3.242 -0.2071 -0.2550 -0.4463
  110MOL0     C15061  12.712   5.017   3.118 -0.8892  0.2143  0.1081
  110MOL0     C15062  12.858   5.016   3.093  0.6582 -0.3169 -0.3059
  110MOL0     C15063  12.916   5.152   3.146  0.6271  0.2801  0.6262
  110MOL0     C15064  13.070   5.166   3.138  0.2031 -0.0033 -0.5928
  110MOL0     C15065  13.124   5.154   2.994 -0.5134  0.0652  0.8214
  110MOL0     O15066  13.261   5.191   2.981  0.2268  0.0070 -0.4693
  110MOL0     C15067  13.352   5.130   3.070 -0.2127  0.5288  0.4272
  110MOL0     C15068  13.417   5.219   3.154 -0.4479 -0.0147 -0.3334
  110MOL0     C15069  13.513   5.184   3.248 -0.3129  0.9244  0.5188
  110MOL0     C15070  13.559   5.289   3.344 -0.5119 -0.0898  0.2741
  110MOL0     C15071  13.545   5.040   3.258  0.0924 -1.2456  0.6436
  110MOL0     C15072  13.627   4.978   3.363 -0.5008 -0.0967 -0.3374
  110MOL0     O15073  13.656   4.847   3.345  0.4383  0.3345 -0.9292
  110MOL0     C15074  13.738   4.774   3.435 -0.3426 -0.3254  0.5957
  110MOL0     C15075  13.767   4.799   3.573 -0.1925 -0.5494  0.3470
  110MOL0     C15076  13.846   4.703   3.638 -0.7376 -0.6150 -0.1439
  110MOL0     C15077  13.905   4.600   3.570 -0.5160  0.8270 -0.3138
  110MOL0     O15078  13.996   4.523   3.647 -0.7107  0.1704 -0.0575
  110MOL0     C15079  14.133   4.569   3.642  0.0965  0.4535  0.0281
  110MOL0     C15080  14.215   4.448   3.697 -0.7685 -0.3623  0.0762
  110MOL0     C15081  14.189   4.423   3.847  0.8089  0.9152  0.6312
  110MOL0     C15082  14.296   4.327   3.897 -0.6918  0.0432  0.1300
  110MOL0     C15083  14.271   4.270   4.045  0.2697 -0.6121 -0.1103
  110MOL0     C15084  14.357   4.156   4.084  0.4716  1.2253  0.7162
  110MOL0     C15085  14.502   4.197   4.070 -1.2086  0.6107  0.1204
  110MOL0     C15086  14.574   4.102   4.165  0.2216 -0.2776  0.1309
  110MOL0    Cl15087  14.553   3.933   4.124  0.1314 -0.4293  0.0168
  110MOL0     C15088  13.881   4.579   3.434 -0.7869  0.8379 -0.2555
  110MOL0     C15089  13.804   4.673   3.366 -0.0290 -0.7614 -0.6269
  110MOL0     O15090  13.679   5.050   3.444  0.2776  0.8732 -0.0114
  110MOL0     C15091  13.478   4.956   3.169  0.3880  0.6672 -0.3053
  110MOL0     C15092  13.381   4.998   3.075  0.6391  0.1866  0.2820
  110MOL0     N15093  12.609   5.059   3.033  0.1120 -0.5378  0.2671
  110MOL0     N15094  12.505   5.081   3.103 -0.4462 -0.5327 -0.9289
  110MOL0     C15095  11.583   5.374   3.633 -0.5340 -0.2876 -0.1564
  110MOL0     C15096  11.454   5.421   3.632 -0.0700 -0.6091 -0.5002
  110MOL0     C15097  11.125   5.746   3.649  0.2534 -1.5367  0.4108
  110MOL0     C15098  11.077   5.749   3.781  0.0510  0.8187  0.1498
  110MOL0     C15099  10.948   5.773   3.822  0.1924 -0.0448 -0.1087
  110MOL0     C15100  10.855   5.814   3.723  0.3137 -0.6013 -0.3014
  110MOL0     O15101  10.721   5.819   3.745 -0.3848 -0.1242  0.1697
  110MOL0     C15102  10.672   5.811   3.877 -0.0000  0.0469  0.2079
  110MOL0     C15103  10.520   5.808   3.870  1.1671 -0.5749  0.0996
  110MOL0     C15104  10.464   5.673   3.932  1.1011 -0.3042  0.8414
  110MOL0     C15105  10.308   5.670   3.958 -0.0234  0.2100 -1.4427
  110MOL0     C15106  10.227   5.683   3.842 -0.2725  0.5695 -0.4960
  110MOL0     C15107  10.154   5.708   3.745 -0.8283 -0.1546  0.5654
  110MOL0     C15108  10.907   5.820   3.591 -0.6119 -0.5426  0.2032
  110MOL0     C15109  11.037   5.790   3.549  0.0719  0.1607  0.3559
  110MOL0     C15110  11.051   5.798   3.405 -0.3511 -0.0959  0.0573
  110MOL0     H15111  11.518   5.733   3.727 -1.8739 -0.6520 -0.1046
  110MOL0     H15112  11.763   5.657   3.688  0.0232 -0.6830  2.3923
  110MOL0     H15113  11.835   5.196   3.659  0.2261 -1.0714 -0.3219
  110MOL0     H15114  11.767   5.264   3.800  1.3744 -2.1332  0.0590
  110MOL0     H15115  11.968   5.385   3.857 -2.4974  0.1452 -0.6661
  110MOL0     H15116  11.984   5.218   3.882 -0.5442  0.8819  1.3348
  110MOL0     H15117  12.076   5.265   3.609 -0.7024  3.0167 -0.8108
  110MOL0     H15118  12.150   5.395   3.703  1.7309 -0.5217 -0.3833
  110MOL0     H15119  12.278   5.232   3.847  2.5327 -1.4531 -0.7875
  110MOL0     H15120  12.182   5.105   3.775 -0.9096  0.8893 -2.2299
  110MOL0     H15121  12.441   5.176   3.693 -0.3438  1.0742  2.2433
  110MOL0     H15122  12.336   5.292   3.606 -1.0603  0.3295  0.3978
  110MOL0     H15123  12.303   5.002   3.582 -0.9209  1.0092  0.8395
  110MOL0     H15124  12.223   5.133   3.490  1.3498 -0.8713 -3.5683
  110MOL0     H15125  12.515   5.140   3.465 -0.8922  4.2586  1.3893
  110MOL0     H15126  12.399   5.225   3.377 -0.8953  0.8066 -0.4076
  110MOL0     H15127  12.379   4.925   3.345  0.3539 -1.1657 -2.8143
  110MOL0     H15128  12.311   5.053   3.249 -0.7746 -2.7222 -0.5005
  110MOL0     H15129  12.702   4.964   3.333 -1.6713  0.9479  0.8166
  110MOL0     H15130  12.873   5.004   2.985 -2.0501 -1.4352 -0.6354
  110MOL0     H15131  12.912   4.936   3.145  0.2976 -0.6423 -0.4233
  110MOL0     H15132  12.872   5.229   3.082  1.1585  1.1193  1.2434
  110MOL0     H15133  12.894   5.161   3.253  0.5088 -2.7989  0.9450
  110MOL0     H15134  13.103   5.259   3.184  3.7682 -1.4204  0.0707
  110MOL0     H15135  13.121   5.092   3.201 -1.8211 -1.6082 -0.7048
  110MOL0     H15136  13.098   5.055   2.955 -1.8387  1.3494 -1.8349
  110MOL0     H15137  13.063   5.221   2.932 -3.4812 -1.7524  1.5901
  110MOL0     H15138  13.382   5.321   3.156 -0.4542 -0.0204  1.3517
  110MOL0     H15139  13.495   5.376   3.329 -2.1720 -1.4432 -0.7879
  110MOL0     H15140  13.662   5.322   3.325 -0.7822  0.1719 -0.7516
  110MOL0     H15141  13.532   5.252   3.444  1.3776  2.6493  1.9373
  110MOL0     H15142  13.720   4.885   3.621  2.4183  0.3730  1.4048
  110MOL0     H15143  13.867   4.703   3.745 -0.9812 -0.6546 -0.0948
  110MOL0     H15144  14.174   4.594   3.544  0.4959  0.2763  0.1506
  110MOL0     H15145  14.148   4.652   3.711  4.2177  1.2199 -1.5166
  110MOL0     H15146  14.193   4.360   3.636  1.4005 -1.2993  0.5688
  110MOL0     H15147  14.319   4.480   3.704 -0.8376  0.0601 -0.6316
  110MOL0     H15148  14.090   4.379   3.856  0.0656  2.8229  2.8476
  110MOL0     H15149  14.191   4.516   3.905  0.8252  1.2391  0.1104
  110MOL0     H15150  14.393   4.378   3.892 -1.3679  1.4273  0.5612
  110MOL0     H15151  14.292   4.239   3.833  0.3722  0.2389 -0.2086
  110MOL0     H15152  14.288   4.349   4.119 -0.5819  1.6406 -2.1543
  110MOL0     H15153  14.170   4.233   4.064  0.4312 -2.1367 -1.9208
  110MOL0     H15154  14.336   4.071   4.019  4.3135  0.2224  0.5702
  110MOL0     H15155  14.332   4.123   4.186  3.1363  0.6417  1.2560
  110MOL0     H15156  14.506   4.301   4.105 -2.7561  0.8678 -0.3717
  110MOL0     H15157  14.554   4.189   3.974  4.0331 -1.1184  2.7006
  110MOL0     H15158  14.543   4.113   4.269 -1.5059 -4.2070  0.2263
  110MOL0     H15159  14.679   4.127   4.146 -0.6299  0.8963 -4.1150
  110MOL0     H15160  13.918   4.489   3.387  1.8487  0.3885  2.3698
  110MOL0     H15161  13.772   4.654   3.264  0.8449  0.2003 -1.1030
  110MOL0     H15162  13.497   4.849   3.174 -0.3288  0.5807  1.9149
  110MOL0     H15163  13.326   4.926   3.015  2.4641 -0.9642 -0.0900
  110MOL0     H15164  11.599   5.268   3.614 -1.8760 -0.6249  0.4670
  110MOL0     H15165  11.375   5.349   3.612 -0.9451  0.9254 -3.0173
  110MOL0     H15166  11.131   5.695   3.859 -2.0670 -2.5981 -0.5700
  110MOL0     H15167  10.917   5.754   3.925  2.1978 -0.5338  0.4397
  110MOL0     H15168  10.701   5.718   3.927  0.9859  1.0510  1.5894
  110MOL0     H15169  10.714   5.889   3.942 -0.3460  0.9592 -0.6376
  110MOL0     H15170  10.487   5.808   3.765 -1.7113 -1.3406  0.9175
  110MOL0     H15171  10.460   5.892   3.905 -1.6937 -0.6487 -3.8805
  110MOL0     H15172  10.492   5.594   3.862 -0.7386 -2.7940  2.7182
  110MOL0     H15173  10.513   5.644   4.026  2.5226 -1.0463 -0.1004
  110MOL0     H15174  10.274   5.741   4.034 -1.1210 -2.8557  1.1260
  110MOL0     H15175  10.299   5.573   4.007  0.0770  1.0171  0.2572
  110MOL0     H15176  10.095   5.725   3.657 -0.1969  1.5905  0.4438
  110MOL0     H15177  10.828   5.845   3.521 -1.6499  3.4032  2.5028
  110MOL0     H15178  11.038   5.902   3.372 -0.0194  0.0423  0.3609
  110MOL0     H15179  11.146   5.759   3.369  0.3297  1.5891 -0.0757
  110MOL0     H15180  10.966   5.750   3.355  0.6122 -0.6717 -1.0799
  111MOL0     O15181   0.633   0.119   3.435 -0.2349 -0.2765  0.0309
  111MOL0     C15182   0.671   0.032   3.357  0.4320  0.5467 -0.3188
  111MOL0     O15183   0.621   0.012   3.226 -0.4289 -0.3749 -0.2529
  111MOL0     C15184   0.573   0.116   3.151 -0.1363  0.9928  0.5521
  111MOL0     C15185   0.511   0.227   3.202  0.2869  0.5916 -0.5224
  111MOL0     C15186   0.450   0.325   3.120  0.6695 -0.5792  0.1233
  111MOL0     C15187   0.456   0.313   2.978 -1.1772  0.8413 -0.6770
  111MOL0     O15188   0.393   0.394   2.887 -0.5330  0.7406 -0.0603
  111MOL0     C15189   0.298   0.493   2.924  0.4468 -0.7287  0.0299
  111MOL0     C15190   0.269   0.550   2.786 -0.3744  0.0349  0.3004
  111MOL0     C15191   0.157   0.660   2.793  0.2736  0.0943 -0.3309
  111MOL0     C15192   0.022   0.596   2.816 -0.0723 -0.3188  0.4925
  111MOL0     C15193  -0.080   0.689   2.876 -1.0685 -0.2014  0.1910
  111MOL0     C15194  -0.109   0.806   2.783 -0.1697  0.5791  0.0786
  111MOL0     C15195  -0.255   0.854   2.796 -0.7634 -0.0837  0.8776
  111MOL0     C15196  -0.277   0.916   2.934 -0.2352  1.0488 -0.0786
  111MOL0     N15197  -0.199   1.037   2.969  0.5703 -0.7298 -0.5335
  111MOL0     C15198  -0.170   1.071   3.100  0.4892  0.1696 -0.2730
  111MOL0     C15199  -0.096   1.181   3.087 -1.1026 -0.8477  0.6535
  111MOL0     C15200  -0.031   1.250   3.202 -0.9153 -0.5495 -0.1610
  111MOL0     C15201  -0.081   1.394   3.229 -0.5889  0.0833 -0.9737
  111MOL0     C15202  -0.224   1.392   3.297  0.3946 -0.3581  0.7107
  111MOL0     C15203  -0.254   1.521   3.368  0.2703  0.5186 -0.0308
  111MOL0     O15204  -0.187   1.510   3.495  0.4866 -0.1421  0.2011
  111MOL0     C15205  -0.223   1.585   3.604  0.7576 -0.1168  0.4549
  111MOL0     C15206  -0.177   1.540   3.723 -0.7050  0.3060 -0.5726
  111MOL0     C15207  -0.218   1.605   3.840 -0.3328  0.1402 -1.2284
  111MOL0     C15208  -0.195   1.533   3.967  0.1012  0.3046 -1.3755
  111MOL0     C15209  -0.296   1.721   3.838  1.3911 -0.0446 -0.0422
  111MOL0     C15210  -0.362   1.803   3.959 -0.1823 -0.6963  0.3870
  111MOL0     O15211  -0.355   1.753   4.090 -0.1523 -0.3324 -0.3317
  111MOL0     C15212  -0.382   1.844   4.191 -0.2347 -0.2472 -0.1868
  111MOL0     C15213  -0.287   1.874   4.294  0.0787  0.2600  0.2512
  111MOL0     C15214  -0.323   1.959   4.394  0.3966  0.5939  0.1640
  111MOL0     C15215  -0.445   2.028   4.399 -0.4826  0.2276 -0.1182
  111MOL0     O15216  -0.484   2.117   4.490 -0.6597 -0.2267 -0.4018
  111MOL0     C15217  -0.430   2.249   4.475  0.6588 -0.4214 -0.3717
  111MOL0     C15218  -0.493   2.359   4.557 -0.0933  0.1817  0.1946
  111MOL0     C15219  -0.626   2.413   4.496  0.5452  0.0299 -0.9019
  111MOL0     C15220  -0.700   2.533   4.561  0.6444 -0.2237  0.7769
  111MOL0     C15221  -0.828   2.562   4.477 -0.0826 -0.0551  0.7277
  111MOL0     C15222  -0.891   2.707   4.507  0.0945  0.3054 -1.0736
  111MOL0     C15223  -1.029   2.723   4.445 -0.0663  0.1210  1.5040
  111MOL0     C15224  -1.076   2.870   4.427 -0.5191  0.5139 -0.5579
  111MOL0    Cl15225  -0.994   2.957   4.296  0.0074  0.4522 -0.2069
  111MOL0     C15226  -0.543   1.987   4.314 -0.7974 -0.4841  0.1956
  111MOL0     C15227  -0.513   1.897   4.208  0.2873 -0.4159  0.3493
  111MOL0     O15228  -0.441   1.891   3.932  0.0545  0.6505 -0.1071
  111MOL0     C15229  -0.336   1.766   3.705 -0.0834  0.9747 -0.0502
  111MOL0     C15230  -0.297   1.692   3.596 -0.2029 -0.3995 -0.0476
  111MOL0     N15231  -0.083   1.217   2.949 -0.1246 -0.5907  0.1684
  111MOL0     N15232  -0.160   1.132   2.887 -0.3440 -0.6575 -0.5838
  111MOL0     C15233   0.526   0.198   2.925  0.8305 -0.2166  0.6929
  111MOL0     C15234   0.582   0.100   3.012  0.4743 -0.2604 -0.4024
  111MOL0     C15235   0.772  -0.064   3.416 -0.5371 -0.0498  0.7326
  111MOL0     C15236   0.807  -0.053   3.551  0.2754  0.5818 -0.7498
  111MOL0     C15237   0.912  -0.121   3.611  0.7090  0.7452 -0.0966
  111MOL0     C15238   0.988  -0.208   3.541 -0.3472  0.2067 -0.3606
  111MOL0     O15239   1.087  -0.279   3.610  0.4364 -0.1616 -0.0155
  111MOL0     C15240   1.199  -0.333   3.530  1.0122 -0.0276  0.5043
  111MOL0     C15241   1.320  -0.335   3.631 -0.1232  0.2565 -0.5670
  111MOL0     C15242   1.346  -0.202   3.701 -0.7015 -0.6183 -0.3980
  111MOL0     C15243   1.324  -0.202   3.854 -0.3484  0.1889 -0.0063
  111MOL0     C15244   1.380  -0.083   3.906  0.0143 -0.0119 -0.8124
  111MOL0     C15245   1.434   0.014   3.961 -0.0333  0.5231 -0.1964
  111MOL0     C15246   0.964  -0.218   3.407  1.0251  0.6142  0.7277
  111MOL0     C15247   0.863  -0.145   3.336 -0.0984 -0.1335  0.4208
  111MOL0     C15248   0.856  -0.157   3.186 -0.3673 -0.8414 -0.3605
  111MOL0     H15249   0.481   0.231   3.306 -4.1011  1.0134 -1.6286
  111MOL0     H15250   0.388   0.405   3.160 -1.1452 -2.5996  1.5413
  111MOL0     H15251   0.342   0.568   2.990  1.0832 -2.2585  1.4257
  111MOL0     H15252   0.204   0.453   2.962 -1.2244  1.9743 -1.0027
  111MOL0     H15253   0.357   0.593   2.737 -1.0070  1.3793  0.2870
  111MOL0     H15254   0.243   0.471   2.716  1.5750  1.3371 -2.0718
  111MOL0     H15255   0.190   0.722   2.876  0.6970  0.0515 -0.4640
  111MOL0     H15256   0.143   0.714   2.699  0.6831 -1.8755 -1.5993
  111MOL0     H15257  -0.018   0.558   2.721  1.4133 -3.6456  1.0666
  111MOL0     H15258   0.032   0.510   2.882  1.5229 -2.1483 -1.9516
  111MOL0     H15259  -0.047   0.726   2.974 -0.3189  0.0820 -0.1572
  111MOL0     H15260  -0.172   0.636   2.903  0.1540 -2.3580  0.3569
  111MOL0     H15261  -0.035   0.886   2.790 -0.0612  0.3917  1.2112
  111MOL0     H15262  -0.107   0.765   2.682  2.1979 -0.5620  0.5403
  111MOL0     H15263  -0.319   0.769   2.770  2.3343 -3.5442  3.4478
  111MOL0     H15264  -0.270   0.928   2.717  1.3470 -0.6206 -0.1129
  111MOL0     H15265  -0.383   0.942   2.936 -0.6044 -0.3335 -0.3244
  111MOL0     H15266  -0.276   0.848   3.019 -0.1219  1.4394  0.2311
  111MOL0     H15267  -0.193   1.012   3.188  0.1517 -3.2124 -2.4406
  111MOL0     H15268   0.079   1.249   3.199 -0.8471 -1.2578  1.4030
  111MOL0     H15269  -0.049   1.187   3.289 -1.7932 -1.7389 -1.1618
  111MOL0     H15270  -0.009   1.448   3.291 -1.2191 -0.3186  0.1551
  111MOL0     H15271  -0.088   1.439   3.130  0.0734  1.0658 -0.5875
  111MOL0     H15272  -0.287   1.391   3.207  0.6880 -0.2178  0.5010
  111MOL0     H15273  -0.241   1.307   3.363  0.4607 -0.8251  0.1433
  111MOL0     H15274  -0.205   1.602   3.313  1.3325 -2.8904 -4.6909
  111MOL0     H15275  -0.362   1.534   3.378  0.3630  0.1500  1.8438
  111MOL0     H15276  -0.125   1.445   3.728 -2.8717 -0.9695 -0.8155
  111MOL0     H15277  -0.121   1.454   3.953  0.3289  0.3470 -0.4568
  111MOL0     H15278  -0.288   1.500   4.015  2.2116 -1.3768  1.8957
  111MOL0     H15279  -0.152   1.604   4.038 -0.3460  0.7021 -1.4971
  111MOL0     H15280  -0.188   1.831   4.295  0.9645  2.1635  2.0230
  111MOL0     H15281  -0.257   1.974   4.478 -0.3974  0.5310  0.8076
  111MOL0     H15282  -0.322   2.261   4.490  0.3648  3.0457 -0.1412
  111MOL0     H15283  -0.449   2.285   4.374  0.7844 -0.5604 -0.4451
  111MOL0     H15284  -0.514   2.321   4.658  0.7603 -0.3033  0.1955
  111MOL0     H15285  -0.421   2.441   4.562 -1.0085  0.9543  1.3882
  111MOL0     H15286  -0.688   2.324   4.510 -1.2347  1.4977  1.1609
  111MOL0     H15287  -0.614   2.437   4.390  0.6236  0.3824 -0.8128
  111MOL0     H15288  -0.634   2.620   4.565  0.6219 -0.2425  1.7535
  111MOL0     H15289  -0.726   2.525   4.667 -0.2766  0.9394  0.6492
  111MOL0     H15290  -0.801   2.551   4.372  1.2619 -0.4506  1.0896
  111MOL0     H15291  -0.908   2.493   4.506  0.4274 -0.1551  1.9371
  111MOL0     H15292  -0.820   2.788   4.488  0.4193 -0.1653 -1.8841
  111MOL0     H15293  -0.920   2.699   4.612 -1.1685 -3.7362 -1.5624
  111MOL0     H15294  -1.107   2.666   4.495 -0.9059  0.0892  0.2203
  111MOL0     H15295  -1.023   2.674   4.347 -1.5238  0.7128  1.0966
  111MOL0     H15296  -1.061   2.929   4.517 -0.7611 -1.0376  0.5357
  111MOL0     H15297  -1.184   2.864   4.411 -0.7761 -0.2595  1.2675
  111MOL0     H15298  -0.642   2.032   4.313  0.1614  1.8202 -2.3364
  111MOL0     H15299  -0.580   1.880   4.125  1.1234  1.1900 -0.6990
  111MOL0     H15300  -0.414   1.839   3.686 -0.8660  0.1839  0.0535
  111MOL0     H15301  -0.339   1.729   3.503 -2.1155  0.7083  1.1804
  111MOL0     H15302   0.533   0.188   2.818  0.0125  1.1351  0.4937
  111MOL0     H15303   0.636   0.012   2.978  0.7342 -1.1791  2.1262
  111MOL0     H15304   0.752   0.008   3.622 -1.5414 -2.7322  0.9621
  111MOL0     H15305   0.930  -0.111   3.717  0.1249  3.3362 -0.1817
  111MOL0     H15306   1.177  -0.433   3.491 -2.8462  0.5290  0.8878
  111MOL0     H15307   1.216  -0.282   3.435  0.7715 -0.3814  0.2680
  111MOL0     H15308   1.411  -0.370   3.581 -0.3142 -1.7361  0.3635
  111MOL0     H15309   1.291  -0.404   3.711 -2.5435  0.7091 -0.9835
  111MOL0     H15310   1.453  -0.184   3.685 -0.9444  2.3518  0.6636
  111MOL0     H15311   1.294  -0.128   3.639  0.4959  0.4904 -0.1233
  111MOL0     H15312   1.376  -0.286   3.901 -0.2673 -0.2210 -0.7964
  111MOL0     H15313   1.220  -0.211   3.884 -0.2279 -0.3911  0.2527
  111MOL0     H15314   1.500   0.084   4.006  1.1569 -2.1821  2.6047
  111MOL0     H15315   1.017  -0.290   3.345 -0.0099  0.3660  0.1090
  111MOL0     H15316   0.938  -0.222   3.154  0.0063  0.0466 -1.2697
  111MOL0     H15317   0.760  -0.200   3.158 -0.6475 -0.3400 -0.1773
  111MOL0     H15318   0.870  -0.065   3.128  0.9698 -1.1360 -0.5305
  112MOL0     O15319   7.439  10.693   8.036  0.0571  0.5122 -0.0588
  112MOL0     C15320   7.356  10.781   8.008 -0.1795 -0.4841  0.2628
  112MOL0     O15321   7.379  10.912   7.966 -0.6641 -0.1157 -0.2120
  112MOL0     C15322   7.513  10.942   7.936  0.3401 -0.0531 -0.2714
  112MOL0     C15323   7.611  10.960   8.032  0.0343  0.4351 -0.7829
  112MOL0     C15324   7.738  11.008   8.003  0.5204  0.3560  0.6012
  112MOL0     C15325   7.770  11.030   7.863 -0.5590  0.0812 -0.9207
  112MOL0     O15326   7.906  11.056   7.829  0.4180 -0.6443 -0.2902
  112MOL0     C15327   8.010  11.058   7.932  0.0552 -0.9899  0.2478
  112MOL0     C15328   8.018  11.189   8.004  0.5305 -0.9135  0.5434
  112MOL0     C15329   8.163  11.235   8.037 -0.0144 -0.8897  0.6580
  112MOL0     C15330   8.187  11.361   8.117  0.5904 -0.5266  0.1519
  112MOL0     C15331   8.111  11.358   8.256 -0.3403  0.7112 -0.5081
  112MOL0     C15332   8.154  11.460   8.359 -0.0501 -0.4841  0.5878
  112MOL0     C15333   8.121  11.597   8.317 -0.0926  0.4257 -0.4076
  112MOL0     C15334   8.162  11.697   8.425 -0.3121  0.2018  0.3311
  112MOL0     N15335   8.096  11.665   8.554 -0.0596  0.7246 -0.1801
  112MOL0     C15336   8.157  11.641   8.676  0.5504 -0.4297  0.4187
  112MOL0     C15337   8.059  11.654   8.773 -0.3027  0.0846 -0.3992
  112MOL0     C15338   8.072  11.659   8.924 -0.3271  0.5303  0.2381
  112MOL0     C15339   7.989  11.546   8.988 -0.7909  0.1985 -0.4162
  112MOL0     C15340   8.057  11.408   8.978 -0.3489  0.3152  0.6061
  112MOL0     C15341   8.184  11.402   9.073  0.5596 -0.3063 -0.0583
  112MOL0     O15342   8.144  11.418   9.207  0.4815  0.2280  0.7789
  112MOL0     C15343   8.208  11.361   9.315 -0.7846 -0.7621  0.3942
  112MOL0     C15344   8.323  11.289   9.299  0.5022  0.1081  0.1366
  112MOL0     C15345   8.384  11.232   9.415 -0.9143  0.1455  1.1019
  112MOL0     C15346   8.519  11.173   9.412  0.1262 -0.5548  0.7614
  112MOL0     C15347   8.328  11.260   9.542 -0.6736  0.6375 -0.0195
  112MOL0     C15348   8.382  11.199   9.664  0.2645  0.3261 -0.4164
  112MOL0     O15349   8.349  11.068   9.698  0.5944  0.6619  0.6317
  112MOL0     C15350   8.427  11.000   9.785 -0.2949  0.5079 -0.0122
  112MOL0     C15351   8.423  11.029   9.919 -0.2536  0.8405  0.5026
  112MOL0     C15352   8.523  10.979  10.009  0.3271 -0.1491 -0.0033
  112MOL0     C15353   8.629  10.912   9.954  0.4047  0.6276  0.0464
  112MOL0     O15354   8.726  10.870  10.045  0.1810 -0.7032 -0.4289
  112MOL0     C15355   8.823  10.773   9.995 -0.2104  0.5381 -0.8045
  112MOL0     C15356   8.929  10.755  10.106  0.7970 -0.8608 -0.1235
  112MOL0     C15357   9.053  10.685  10.051 -0.1757 -0.2861  0.0899
  112MOL0     C15358   9.155  10.660  10.169 -0.3630 -1.0353 -0.4412
  112MOL0     C15359   9.267  10.552  10.148  0.2435  0.5253  0.7290
  112MOL0     C15360   9.198  10.412  10.124 -0.0987  0.4271  1.0854
  112MOL0     C15361   9.303  10.296  10.114  1.0775  0.6915  0.1392
  112MOL0     C15362   9.246  10.153  10.113 -0.1811  0.2497 -0.2510
  112MOL0    Cl15363   9.155  10.126   9.960  0.4483  0.0054 -0.0591
  112MOL0     C15364   8.634  10.878   9.817 -0.7708 -0.3100  0.7094
  112MOL0     C15365   8.532  10.924   9.737 -0.5357  0.8770 -0.0551
  112MOL0     O15366   8.462  11.269   9.721  0.5878  0.3341 -0.9696
  112MOL0     C15367   8.212  11.333   9.547  0.6840  0.0116  0.6242
  112MOL0     C15368   8.143  11.377   9.440 -1.0660 -0.5950  0.6682
  112MOL0     N15369   7.944  11.675   8.706  0.5470 -0.7413  0.4902
  112MOL0     N15370   7.964  11.691   8.582 -1.1853  1.1866  1.1144
  112MOL0     C15371   7.667  11.030   7.773 -0.1644  0.2536  0.4064
  112MOL0     C15372   7.538  10.993   7.808 -0.2064 -0.4822  0.6600
  112MOL0     C15373   7.214  10.743   8.029  0.2740  0.1343 -0.2189
  112MOL0     C15374   7.195  10.643   8.134  0.2126  0.1582 -0.1089
  112MOL0     C15375   7.060  10.600   8.168  0.3296  1.5293 -0.5740
  112MOL0     C15376   6.951  10.658   8.113 -0.3758 -0.1002  0.6283
  112MOL0     O15377   6.817  10.626   8.137 -0.3417  0.1660 -0.0156
  112MOL0     C15378   6.780  10.523   8.232 -0.3977  0.0580  0.8800
  112MOL0     C15379   6.637  10.502   8.249  0.1690  1.0989 -0.0825
  112MOL0     C15380   6.600  10.357   8.279 -0.2376  0.9815 -0.4897
  112MOL0     C15381   6.452  10.340   8.233 -0.1782  0.0810  0.7107
  112MOL0     C15382   6.368  10.417   8.325 -0.0798  0.7672  0.6349
  112MOL0     C15383   6.292  10.469   8.400  0.4474  0.4032  0.1330
  112MOL0     C15384   6.974  10.768   8.018  0.0891  0.3947 -0.0273
  112MOL0     C15385   7.107  10.811   7.977 -0.3816  0.1267  0.4644
  112MOL0     C15386   7.125  10.893   7.846  0.3129 -0.4101  0.4325
  112MOL0     H15387   7.584  10.935   8.135 -1.8951  2.4250 -0.7279
  112MOL0     H15388   7.812  11.030   8.079  0.3459  1.7351  0.4044
  112MOL0     H15389   8.101  11.044   7.874 -0.4290  2.5941 -1.7060
  112MOL0     H15390   8.004  10.973   8.000 -2.0760 -0.0190  1.3822
  112MOL0     H15391   7.983  11.264   7.932  0.2532 -2.9593 -1.5580
  112MOL0     H15392   7.948  11.201   8.087 -0.0594 -0.9608  0.0677
  112MOL0     H15393   8.216  11.154   8.088  1.7055 -0.3738 -0.2200
  112MOL0     H15394   8.208  11.255   7.939 -2.6297 -0.9940 -0.6557
  112MOL0     H15395   8.296  11.361   8.127  0.5880 -2.5431  0.5869
  112MOL0     H15396   8.155  11.452   8.064  0.0209  0.0510  1.4336
  112MOL0     H15397   8.131  11.257   8.293  0.5876  0.2587 -2.1391
  112MOL0     H15398   8.003  11.359   8.235 -0.5684  0.8033  0.5822
  112MOL0     H15399   8.098  11.438   8.449 -1.0780  2.5414  0.8073
  112MOL0     H15400   8.261  11.447   8.376  0.2780 -1.4406 -1.8130
  112MOL0     H15401   8.012  11.601   8.324 -0.0300 -0.2027  1.7554
  112MOL0     H15402   8.172  11.627   8.226  4.7183  0.1964  1.9228
  112MOL0     H15403   8.271  11.703   8.433  0.0836 -0.3425 -3.1068
  112MOL0     H15404   8.121  11.796   8.402 -1.0932 -0.6665 -2.3513
  112MOL0     H15405   8.261  11.612   8.687 -0.3500 -4.4083  0.1418
  112MOL0     H15406   8.040  11.758   8.959  0.3396  1.3735 -1.4372
  112MOL0     H15407   8.181  11.647   8.934 -0.2816 -0.9351 -1.5025
  112MOL0     H15408   7.970  11.583   9.089  0.1259  2.1812 -0.9118
  112MOL0     H15409   7.891  11.541   8.941  0.3003  0.3619 -2.8679
  112MOL0     H15410   7.990  11.324   8.999  1.3318 -1.3551 -0.3627
  112MOL0     H15411   8.092  11.396   8.875  0.3518 -1.0621  0.9829
  112MOL0     H15412   8.234  11.307   9.054  2.8977  0.8174  0.1258
  112MOL0     H15413   8.251  11.487   9.054 -1.3834  1.6662  1.3813
  112MOL0     H15414   8.386  11.282   9.211  1.3504  0.8792  0.6767
  112MOL0     H15415   8.568  11.170   9.314 -0.8228  0.0145  0.2568
  112MOL0     H15416   8.498  11.079   9.464 -0.7348 -0.4080  0.6947
  112MOL0     H15417   8.589  11.234   9.470  1.1236  1.0633 -1.9493
  112MOL0     H15418   8.362  11.113   9.952 -1.7661  0.1675 -0.4982
  112MOL0     H15419   8.523  11.015  10.111  1.1445  2.0714 -0.7254
  112MOL0     H15420   8.765  10.680   9.988 -2.8227  1.8388  1.5907
  112MOL0     H15421   8.873  10.820   9.910 -0.5845  2.4436 -0.0348
  112MOL0     H15422   8.959  10.848  10.156 -0.8480 -1.2205  1.6500
  112MOL0     H15423   8.888  10.687  10.181 -1.7699  3.6365  3.0482
  112MOL0     H15424   9.101  10.738   9.967 -0.5946 -0.2853 -0.1511
  112MOL0     H15425   9.016  10.592  10.006  1.7829 -0.6775 -0.8112
  112MOL0     H15426   9.101  10.632  10.260 -1.2379  3.3764  0.6649
  112MOL0     H15427   9.215  10.750  10.184 -0.7921 -0.3449 -2.5514
  112MOL0     H15428   9.329  10.587  10.065 -1.1952  1.6612  0.0665
  112MOL0     H15429   9.332  10.541  10.234  1.9211 -0.5866 -0.6135
  112MOL0     H15430   9.155  10.409  10.024  0.5116 -2.0624  0.8204
  112MOL0     H15431   9.121  10.391  10.198 -0.4193 -5.0301 -0.3502
  112MOL0     H15432   9.358  10.286  10.208  1.8908 -3.5794 -0.5664
  112MOL0     H15433   9.370  10.307  10.028  1.0653  0.3264  0.0813
  112MOL0     H15434   9.184  10.155  10.203  1.2495  3.2832  0.7919
  112MOL0     H15435   9.331  10.089  10.136 -1.2708 -0.3627  2.4823
  112MOL0     H15436   8.712  10.818   9.771  0.1099  1.5928 -0.4089
  112MOL0     H15437   8.538  10.906   9.630 -1.6718 -1.8981  0.2313
  112MOL0     H15438   8.153  11.356   9.636 -0.9290 -0.3754 -0.3171
  112MOL0     H15439   8.046  11.425   9.439  0.5888  3.2401 -2.2220
  112MOL0     H15440   7.679  11.048   7.666  2.2971  0.0929  0.6008
  112MOL0     H15441   7.454  10.984   7.739  0.1237  0.1904  0.1578
  112MOL0     H15442   7.276  10.585   8.178 -0.2286  0.6229  1.3892
  112MOL0     H15443   7.054  10.515   8.235 -1.8643  2.7156  0.8665
  112MOL0     H15444   6.816  10.427   8.194 -1.5638 -0.1206  0.1915
  112MOL0     H15445   6.827  10.541   8.329  1.6467 -1.8309  0.3348
  112MOL0     H15446   6.587  10.533   8.157  0.5913 -0.5661 -0.9161
  112MOL0     H15447   6.596  10.575   8.319  1.9500  2.6000 -0.5121
  112MOL0     H15448   6.663  10.298   8.212  0.1625  1.8098 -0.8541
  112MOL0     H15449   6.615  10.322   8.381 -0.9552 -0.1702 -0.7622
  112MOL0     H15450   6.432  10.232   8.231  0.0685  0.0467 -0.3890
  112MOL0     H15451   6.442  10.370   8.129 -1.7520  0.2611  0.8801
  112MOL0     H15452   6.216  10.502   8.468 -0.6596 -2.8175  0.6524
  112MOL0     H15453   6.896  10.799   7.949  0.2245 -0.4133 -0.5672
  112MOL0     H15454   7.129  10.999   7.873 -0.6429  0.4485 -2.4145
  112MOL0     H15455   7.219  10.885   7.791  1.2912 -0.8609  2.0910
  112MOL0     H15456   7.042  10.876   7.777  0.1207  1.2351  0.2167
  113MOL0     O15457   6.626   3.070   1.168 -0.5743 -0.7034 -1.1551
  113MOL0     C15458   6.672   3.039   1.278 -1.0107 -0.4142  0.1158
  113MOL0     O15459   6.631   2.934   1.340  0.5356  0.2234 -0.3294
  113MOL0     C15460   6.533   2.854   1.286  0.2304 -0.4836  1.7622
  113MOL0     C15461   6.556   2.798   1.161  0.3614  0.4888  0.2862
  113MOL0     C15462   6.466   2.702   1.114  0.4893 -0.5479  0.8217
  113MOL0     C15463   6.347   2.674   1.176  0.1158  0.8087  0.5523
  113MOL0     O15464   6.253   2.597   1.097 -0.2619 -0.0226 -1.1061
  113MOL0     C15465   6.113   2.586   1.142 -1.0131  0.2815 -0.3923
  113MOL0     C15466   6.086   2.437   1.125 -0.4310 -0.2653 -0.0759
  113MOL0     C15467   6.179   2.357   1.223 -0.0902  0.7776  0.0082
  113MOL0     C15468   6.167   2.204   1.201 -0.0133 -0.5859 -0.1883
  113MOL0     C15469   6.227   2.130   1.310 -0.3408 -0.9472 -0.1829
  113MOL0     C15470   6.202   1.977   1.315 -0.3282 -0.3264 -0.3318
  113MOL0     C15471   6.244   1.903   1.182 -0.4542  0.4520  0.5834
  113MOL0     C15472   6.274   1.752   1.207  0.3899 -0.0284  0.2216
  113MOL0     N15473   6.154   1.668   1.227  0.5396 -0.0318 -0.4860
  113MOL0     C15474   6.086   1.597   1.132  0.7266 -0.1037 -0.3824
  113MOL0     C15475   5.980   1.534   1.198 -0.4403  0.6810  0.5064
  113MOL0     C15476   5.874   1.453   1.116  0.5729 -0.2145 -0.6158
  113MOL0     C15477   5.732   1.465   1.157  0.2281  0.0258  1.5076
  113MOL0     C15478   5.649   1.443   1.028  0.1969 -0.3239 -0.3540
  113MOL0     C15479   5.643   1.303   0.965 -0.3260  0.2022  0.8000
  113MOL0     O15480   5.767   1.280   0.904 -0.3848  0.2162  0.3828
  113MOL0     C15481   5.787   1.325   0.776  0.4521  0.7541  0.0602
  113MOL0     C15482   5.686   1.348   0.676  0.0135 -0.1044 -0.3089
  113MOL0     C15483   5.723   1.385   0.547 -0.5172 -0.3847  0.3880
  113MOL0     C15484   5.607   1.410   0.449  0.2954 -0.9781 -0.8292
  113MOL0     C15485   5.856   1.388   0.510  0.5599  0.0815 -0.3912
  113MOL0     C15486   5.894   1.437   0.372  0.3716  0.3768  0.3855
  113MOL0     O15487   5.811   1.536   0.309 -0.0181  0.6761 -0.6652
  113MOL0     C15488   5.851   1.560   0.174  0.3668  0.2793 -0.6188
  113MOL0     C15489   5.780   1.493   0.078  0.7933  0.2368  0.4545
  113MOL0     C15490   5.800   1.520  -0.062  0.3960  0.3173  0.1363
  113MOL0     C15491   5.886   1.624  -0.088  0.3606  0.1851 -0.4196
  113MOL0     O15492   5.922   1.673  -0.210 -0.1817 -0.0526 -0.0507
  113MOL0     C15493   5.852   1.627  -0.320  0.6548  0.2805 -0.2929
  113MOL0     C15494   5.893   1.489  -0.375 -0.6101 -0.9762  0.2003
  113MOL0     C15495   5.787   1.438  -0.485 -0.0672 -0.5258  0.7351
  113MOL0     C15496   5.639   1.418  -0.451 -0.6376 -0.2710 -0.1776
  113MOL0     C15497   5.566   1.369  -0.579 -0.2439 -0.5550  0.1028
  113MOL0     C15498   5.425   1.354  -0.557 -1.1861  0.4800  0.3253
  113MOL0     C15499   5.364   1.274  -0.678  0.1462 -0.3300 -0.0498
  113MOL0     C15500   5.217   1.280  -0.669  0.2028  0.1898 -0.1439
  113MOL0    Cl15501   5.147   1.165  -0.555 -0.7512  0.3717 -0.5819
  113MOL0     C15502   5.955   1.692   0.011  0.1556 -0.5375  0.1857
  113MOL0     C15503   5.936   1.666   0.143 -0.9244  0.1279 -0.6691
  113MOL0     O15504   5.995   1.391   0.324  0.0029 -0.5248 -0.4244
  113MOL0     C15505   5.957   1.354   0.606 -0.2460  0.1999  0.8577
  113MOL0     C15506   5.915   1.322   0.732 -0.3018 -0.3751 -0.7332
  113MOL0     N15507   6.006   1.553   1.337 -0.8501  0.8472  0.4952
  113MOL0     N15508   6.107   1.640   1.345 -0.2043  0.0241 -0.7182
  113MOL0     C15509   6.322   2.740   1.285 -0.8014  1.2054 -0.3214
  113MOL0     C15510   6.412   2.826   1.347  0.2353 -0.8492 -0.0541
  113MOL0     C15511   6.785   3.112   1.336 -0.1101 -0.1005 -0.7585
  113MOL0     C15512   6.870   3.038   1.432 -0.2439  0.7216 -0.2293
  113MOL0     C15513   6.971   3.091   1.508  0.4193 -0.5911  0.4372
  113MOL0     C15514   7.003   3.225   1.478 -0.7059  0.6664 -0.1045
  113MOL0     O15515   7.108   3.294   1.540  0.0782 -0.2429 -0.0394
  113MOL0     C15516   7.197   3.233   1.636 -1.2051 -0.6451 -0.1951
  113MOL0     C15517   7.159   3.233   1.780  0.6224  0.0587  0.3012
  113MOL0     C15518   7.243   3.145   1.877 -0.3362  0.3373 -0.1686
  113MOL0     C15519   7.186   3.140   2.017 -0.2195  0.0125  1.0125
  113MOL0     C15520   7.111   3.013   2.035  0.2298 -0.0447  0.3545
  113MOL0     C15521   7.048   2.912   2.058  0.4490 -0.0690  0.4110
  113MOL0     C15522   6.927   3.300   1.380 -0.2499  0.0230  0.7134
  113MOL0     C15523   6.825   3.244   1.308 -0.0931 -1.1305  0.0513
  113MOL0     C15524   6.757   3.335   1.208  0.4565  0.2389 -0.8879
  113MOL0     H15525   6.652   2.804   1.111 -0.2099 -1.6169 -1.2617
  113MOL0     H15526   6.486   2.655   1.019 -1.7864 -0.1021  0.0658
  113MOL0     H15527   6.051   2.649   1.077 -1.3848 -0.1826 -0.4886
  113MOL0     H15528   6.085   2.617   1.243  1.1855  0.3266  0.2588
  113MOL0     H15529   5.980   2.414   1.130 -0.3196 -0.5437  1.7120
  113MOL0     H15530   6.118   2.416   1.023 -0.0662  0.5502 -0.1374
  113MOL0     H15531   6.282   2.393   1.213 -0.5623  1.9209 -0.9347
  113MOL0     H15532   6.145   2.389   1.322  1.8848  1.9226  0.3803
  113MOL0     H15533   6.062   2.174   1.211 -0.4086  0.5386 -0.7582
  113MOL0     H15534   6.212   2.177   1.105 -0.9974  0.4359 -0.9686
  113MOL0     H15535   6.196   2.178   1.403 -0.1552 -0.1715 -0.5111
  113MOL0     H15536   6.333   2.153   1.303 -0.9021  1.8381 -0.7512
  113MOL0     H15537   6.255   1.935   1.401  0.9429  0.1578 -0.8632
  113MOL0     H15538   6.097   1.970   1.347 -0.2946  0.5045  0.0091
  113MOL0     H15539   6.338   1.950   1.154  0.5698 -1.3623  0.8205
  113MOL0     H15540   6.169   1.915   1.103  2.0755  1.0069 -1.8702
  113MOL0     H15541   6.328   1.703   1.126 -3.8424  1.9139 -4.2705
  113MOL0     H15542   6.340   1.745   1.294  1.1839 -0.9435 -0.4275
  113MOL0     H15543   6.083   1.614   1.025 -2.9662 -0.2324 -0.4208
  113MOL0     H15544   5.906   1.350   1.134 -1.3105 -0.6076  0.6347
  113MOL0     H15545   5.890   1.487   1.013  0.8547  1.4179 -0.0732
  113MOL0     H15546   5.697   1.383   1.222 -0.5218 -0.6278  0.3080
  113MOL0     H15547   5.708   1.563   1.199 -0.7711 -0.5208  2.2661
  113MOL0     H15548   5.546   1.467   1.054 -0.0548  1.1201 -2.4457
  113MOL0     H15549   5.675   1.517   0.951  1.0866  0.0137  0.2515
  113MOL0     H15550   5.616   1.234   1.046  3.9734 -2.5391  0.2212
  113MOL0     H15551   5.559   1.289   0.897 -1.5514 -3.3099  2.7678
  113MOL0     H15552   5.582   1.327   0.698  0.1102 -1.6099 -1.1325
  113MOL0     H15553   5.586   1.517   0.445  0.0968 -1.0442 -1.8532
  113MOL0     H15554   5.529   1.343   0.484  1.8072 -2.4910 -0.2309
  113MOL0     H15555   5.623   1.382   0.344  3.1595 -1.7333 -0.2619
  113MOL0     H15556   5.705   1.419   0.101 -0.5506  1.1224 -0.9202
  113MOL0     H15557   5.743   1.463  -0.134 -1.2244 -0.2552  1.7987
  113MOL0     H15558   5.745   1.630  -0.296  0.2443 -1.2967 -1.6980
  113MOL0     H15559   5.876   1.694  -0.402  0.4675  0.7651  0.0456
  113MOL0     H15560   5.995   1.502  -0.413 -0.7701  1.2734  0.4608
  113MOL0     H15561   5.896   1.412  -0.297 -2.0861  0.0197  1.2929
  113MOL0     H15562   5.836   1.351  -0.531 -1.4483 -0.1891 -1.5350
  113MOL0     H15563   5.784   1.513  -0.564 -1.6442 -2.5634 -1.2717
  113MOL0     H15564   5.594   1.507  -0.406 -1.7298 -1.9996  2.3521
  113MOL0     H15565   5.627   1.339  -0.377 -2.7366 -1.9585 -2.1490
  113MOL0     H15566   5.578   1.432  -0.667 -0.2631  0.6965  0.9693
  113MOL0     H15567   5.602   1.269  -0.606 -0.5934 -1.2166  1.9574
  113MOL0     H15568   5.379   1.452  -0.541  0.1569  1.1759  0.0805
  113MOL0     H15569   5.404   1.293  -0.469  1.1524  1.8224  1.9107
  113MOL0     H15570   5.407   1.173  -0.680  0.6406 -0.1486 -2.7544
  113MOL0     H15571   5.402   1.318  -0.771 -0.3549 -0.8721 -0.5220
  113MOL0     H15572   5.171   1.273  -0.768  1.8257 -0.4863 -0.9009
  113MOL0     H15573   5.182   1.380  -0.646  2.5432  1.6140 -2.2052
  113MOL0     H15574   6.031   1.763  -0.019  1.1839 -0.4514  2.7749
  113MOL0     H15575   5.987   1.723   0.221 -3.6763 -1.2898  2.3993
  113MOL0     H15576   6.059   1.351   0.569 -0.8846  0.2120 -1.0028
  113MOL0     H15577   5.983   1.292   0.812 -0.4562 -0.6800 -0.7149
  113MOL0     H15578   6.226   2.733   1.335 -0.1258  0.4021  0.9453
  113MOL0     H15579   6.384   2.884   1.434  0.2897  2.3855 -2.0147
  113MOL0     H15580   6.855   2.931   1.421  2.0155  0.2279  0.9695
  113MOL0     H15581   7.020   3.029   1.582  0.1915 -0.1336  0.9791
  113MOL0     H15582   7.220   3.129   1.610  3.0180  0.5051 -1.9294
  113MOL0     H15583   7.285   3.297   1.623 -1.7073  0.0010 -0.4566
  113MOL0     H15584   7.055   3.200   1.779  0.7785 -1.2660 -5.3827
  113MOL0     H15585   7.168   3.337   1.813 -1.2571 -0.1697  1.6840
  113MOL0     H15586   7.226   3.043   1.841 -0.8400  1.1060 -2.3141
  113MOL0     H15587   7.351   3.157   1.872 -0.4761  1.5210 -0.8508
  113MOL0     H15588   7.104   3.211   2.036  0.3899  1.0654 -0.1199
  113MOL0     H15589   7.265   3.155   2.091  2.6566  2.3600 -2.2273
  113MOL0     H15590   6.991   2.823   2.076  1.9897 -1.2317 -0.1832
  113MOL0     H15591   6.963   3.400   1.357 -0.5530  0.2054  1.0324
  113MOL0     H15592   6.755   3.301   1.104 -2.3352 -4.2357  0.3830
  113MOL0     H15593   6.654   3.348   1.241  1.0858 -0.7448  1.6717
  113MOL0     H15594   6.806   3.432   1.219  0.8172  0.3220 -2.8662
  114MOL0     O15595   5.894   8.682  10.738 -0.2338 -0.2598  0.2247
  114MOL0     C15596   5.826   8.789  10.736  0.1772 -0.9633  0.4248
  114MOL0     O15597   5.748   8.826  10.624  0.0687 -0.5537 -0.7013
  114MOL0     C15598   5.750   8.744  10.517  0.5586  0.3973  0.3940
  114MOL0     C15599   5.839   8.767  10.409 -0.2592 -0.2777  0.2295
  114MOL0     C15600   5.828   8.687  10.287 -0.5856  0.7783 -0.4127
  114MOL0     C15601   5.734   8.582  10.279 -0.7502 -0.3429 -0.6308
  114MOL0     O15602   5.743   8.506  10.165 -0.1410 -0.5852  0.2116
  114MOL0     C15603   5.634   8.408  10.136 -0.6235 -0.5763 -0.3008
  114MOL0     C15604   5.696   8.269  10.144 -0.6226 -0.1420  0.4593
  114MOL0     C15605   5.826   8.253  10.056  0.5816 -0.2474 -0.6770
  114MOL0     C15606   5.889   8.114  10.074 -0.9846 -0.7064 -0.3780
  114MOL0     C15607   6.019   8.100   9.999 -0.0999  0.7113  0.1319
  114MOL0     C15608   5.998   8.089   9.849  0.0290  0.1969 -0.7379
  114MOL0     C15609   6.144   8.076   9.777 -0.4819 -0.2286 -0.2680
  114MOL0     C15610   6.121   8.061   9.626  0.1839 -0.5213  0.3014
  114MOL0     N15611   6.014   7.973   9.590  1.0201 -0.0318 -0.0423
  114MOL0     C15612   6.002   7.838   9.612  0.3190  0.1600  0.6771
  114MOL0     C15613   5.872   7.815   9.590  0.3983 -0.1496  0.2752
  114MOL0     C15614   5.819   7.677   9.594 -0.1798  0.0312  0.1874
  114MOL0     C15615   5.752   7.621   9.459 -0.3102  0.1906 -0.4525
  114MOL0     C15616   5.697   7.476   9.467 -0.5401  0.4550  0.9473
  114MOL0     C15617   5.675   7.405   9.336  0.3199 -0.6869 -0.9599
  114MOL0     O15618   5.576   7.492   9.271  0.1982  0.0113  0.0011
  114MOL0     C15619   5.510   7.454   9.155 -0.4410  0.0025 -0.8557
  114MOL0     C15620   5.544   7.343   9.076 -0.5006  0.8546 -0.3085
  114MOL0     C15621   5.461   7.280   8.982  0.1122  0.1190  0.2647
  114MOL0     C15622   5.512   7.153   8.918 -0.6790  0.0670 -0.5257
  114MOL0     C15623   5.339   7.340   8.955 -0.4155 -0.1506  0.2267
  114MOL0     C15624   5.237   7.279   8.871  0.0833 -0.3359  0.1556
  114MOL0     O15625   5.178   7.371   8.783 -0.7661  0.5700  0.4496
  114MOL0     C15626   5.067   7.334   8.704 -0.1315  0.5288  0.8883
  114MOL0     C15627   4.972   7.240   8.741  0.6776 -0.4163  0.2670
  114MOL0     C15628   4.876   7.194   8.653 -0.3846  0.1806 -0.1471
  114MOL0     C15629   4.872   7.245   8.523  1.1881  0.3266 -1.1456
  114MOL0     O15630   4.782   7.190   8.443  0.7469  0.4342 -0.5723
  114MOL0     C15631   4.780   7.228   8.304 -0.8922  0.9938  0.7230
  114MOL0     C15632   4.709   7.124   8.222 -0.1223 -0.1115  1.0732
  114MOL0     C15633   4.753   7.128   8.073 -0.0829  0.3254 -0.4004
  114MOL0     C15634   4.742   6.986   8.017  0.6392 -0.4034 -0.5228
  114MOL0     C15635   4.803   6.971   7.882 -0.7001  0.4083  0.6650
  114MOL0     C15636   4.719   7.040   7.777  0.1455 -0.5885  0.9332
  114MOL0     C15637   4.717   6.966   7.640  0.0911  1.2578  0.3570
  114MOL0     C15638   4.640   7.022   7.525 -1.0584  0.5959  0.2702
  114MOL0    Cl15639   4.696   7.192   7.482  0.2839  0.2626  0.1414
  114MOL0     C15640   4.961   7.349   8.484  0.4640 -0.3014  0.4154
  114MOL0     C15641   5.060   7.391   8.573  0.3554 -0.2862  0.3363
  114MOL0     O15642   5.204   7.158   8.885 -0.0820  0.9371 -0.4039
  114MOL0     C15643   5.300   7.463   9.028 -0.7769 -0.2786 -0.5235
  114MOL0     C15644   5.387   7.516   9.126  0.6072  0.2300 -0.5555
  114MOL0     N15645   5.800   7.930   9.564  0.3184  0.0920  0.1318
  114MOL0     N15646   5.890   8.023   9.571  0.3030 -0.0157 -0.1538
  114MOL0     C15647   5.643   8.563  10.391  0.8296 -0.0505  0.2937
  114MOL0     C15648   5.649   8.649  10.507  0.3970  1.0314  0.2879
  114MOL0     C15649   5.810   8.864  10.869  0.4031  0.5292  0.3488
  114MOL0     C15650   5.934   8.901  10.922  0.1479  0.0429  0.8397
  114MOL0     C15651   5.947   8.994  11.025  0.4089 -0.4017 -0.2254
  114MOL0     C15652   5.827   9.053  11.073 -1.0101 -1.1584 -0.0777
  114MOL0     O15653   5.828   9.153  11.165  1.0913  0.6074 -0.1645
  114MOL0     C15654   5.940   9.172  11.253 -1.8073 -0.1230  0.1450
  114MOL0     C15655   5.971   9.052  11.349 -0.0993  0.3990  0.1684
  114MOL0     C15656   6.055   9.100  11.466 -1.0512 -1.0408 -0.3146
  114MOL0     C15657   6.112   8.981  11.537  0.1010  0.0827 -0.1893
  114MOL0     C15658   6.008   8.911  11.620 -0.4034 -0.1054 -0.7486
  114MOL0     C15659   5.945   8.840  11.693  0.6283 -0.0270 -0.2602
  114MOL0     C15660   5.698   9.020  11.023  0.7258  1.2773 -0.5162
  114MOL0     C15661   5.694   8.919  10.920 -0.3383 -0.1434  0.2504
  114MOL0     C15662   5.558   8.905  10.856  0.2081 -0.4271  0.5138
  114MOL0     H15663   5.912   8.847  10.398 -0.5431  0.1185  1.1573
  114MOL0     H15664   5.900   8.698  10.207 -1.1490  2.0556 -0.7750
  114MOL0     H15665   5.609   8.416  10.030  3.8073  0.2094 -1.4475
  114MOL0     H15666   5.536   8.420  10.184  0.2127 -2.6324  2.1438
  114MOL0     H15667   5.732   8.254  10.247  1.1886  0.1119 -0.0963
  114MOL0     H15668   5.629   8.187  10.116 -0.6891  0.0828 -0.0523
  114MOL0     H15669   5.779   8.270   9.958 -0.6967  0.3599  0.0141
  114MOL0     H15670   5.897   8.335  10.071  0.5252  0.0737 -2.0575
  114MOL0     H15671   5.904   8.108  10.183 -1.9363  0.0297 -0.1948
  114MOL0     H15672   5.816   8.037  10.048 -0.6989 -1.3100  0.5295
  114MOL0     H15673   6.067   8.011  10.042 -3.1137  0.3825  3.2737
  114MOL0     H15674   6.104   8.166  10.016  2.1307 -2.0288  0.3416
  114MOL0     H15675   5.942   7.996   9.835  1.6650 -0.9247 -0.1301
  114MOL0     H15676   5.942   8.176   9.815  0.7947  1.1546  0.3574
  114MOL0     H15677   6.190   7.991   9.829 -0.4671 -0.4966 -0.7144
  114MOL0     H15678   6.201   8.165   9.802 -1.5086  0.9592 -1.9708
  114MOL0     H15679   6.104   8.161   9.583 -0.5043 -0.6942  0.1633
  114MOL0     H15680   6.217   8.019   9.592 -1.0035 -3.0237 -0.1778
  114MOL0     H15681   6.066   7.757   9.646 -1.4290 -1.1002  1.0755
  114MOL0     H15682   5.757   7.673   9.683  1.0077  0.2217  1.0536
  114MOL0     H15683   5.896   7.607   9.628 -0.6344  0.3737  2.0299
  114MOL0     H15684   5.662   7.678   9.432  0.5991  1.6857 -0.4376
  114MOL0     H15685   5.815   7.637   9.371  0.6659  0.5574  0.2904
  114MOL0     H15686   5.770   7.415   9.520  0.7605  1.2130  0.0637
  114MOL0     H15687   5.603   7.467   9.523 -1.4033  0.7231 -0.4141
  114MOL0     H15688   5.762   7.402   9.270  0.8900 -1.4168 -0.1818
  114MOL0     H15689   5.645   7.300   9.346  2.1939 -1.1609 -0.0414
  114MOL0     H15690   5.643   7.299   9.086 -0.5794  0.6376 -0.4695
  114MOL0     H15691   5.464   7.130   8.822 -1.1023 -0.8836 -0.1028
  114MOL0     H15692   5.480   7.066   8.977 -0.5293  0.4380  0.1216
  114MOL0     H15693   5.615   7.154   8.882 -0.8444  0.3783 -0.9959
  114MOL0     H15694   4.969   7.189   8.837 -0.5576  1.1405  1.1014
  114MOL0     H15695   4.810   7.112   8.679  0.4195 -0.4674 -0.0852
  114MOL0     H15696   4.732   7.323   8.276 -0.6554  1.2752  1.2412
  114MOL0     H15697   4.882   7.236   8.267 -1.4675  1.8184 -0.7524
  114MOL0     H15698   4.736   7.024   8.258 -0.1666 -0.6260 -0.2612
  114MOL0     H15699   4.600   7.131   8.228 -0.5498 -4.3425  1.7163
  114MOL0     H15700   4.853   7.170   8.074 -0.3040  0.8437  0.1285
  114MOL0     H15701   4.689   7.193   8.012  1.2317  0.8091 -1.3080
  114MOL0     H15702   4.638   6.952   8.009  0.8389 -0.6914 -2.3159
  114MOL0     H15703   4.786   6.917   8.089 -0.4763  2.3571  3.1204
  114MOL0     H15704   4.904   7.012   7.877 -1.2324  2.0225  2.2826
  114MOL0     H15705   4.807   6.865   7.853 -0.4715  1.2167 -2.6777
  114MOL0     H15706   4.766   7.135   7.748 -0.4100 -1.0665 -1.8290
  114MOL0     H15707   4.616   7.056   7.810 -0.2954 -1.9953  0.3245
  114MOL0     H15708   4.679   6.865   7.656  1.2521  0.5587 -1.0608
  114MOL0     H15709   4.817   6.938   7.607  2.4156  3.7168  4.3393
  114MOL0     H15710   4.533   7.028   7.543 -1.8191  3.1810 -3.7157
  114MOL0     H15711   4.661   6.961   7.436 -0.9487  0.6927  0.2300
  114MOL0     H15712   4.966   7.386   8.382  0.0275 -0.2553  0.4098
  114MOL0     H15713   5.129   7.466   8.535 -3.1332  1.8022 -2.6018
  114MOL0     H15714   5.205   7.514   9.018 -1.8602 -2.4224 -1.9763
  114MOL0     H15715   5.350   7.592   9.194  0.8147  1.0141 -1.3040
  114MOL0     H15716   5.569   8.485  10.382  0.1984  0.7603 -2.2053
  114MOL0     H15717   5.576   8.648  10.587 -2.6722  1.3167 -2.3110
  114MOL0     H15718   6.018   8.858  10.867 -0.6324 -0.3780 -0.0407
  114MOL0     H15719   6.044   9.032  11.056 -0.4616  0.2811  1.8715
  114MOL0     H15720   6.022   9.189  11.182 -2.7140  0.9046 -0.6784
  114MOL0     H15721   5.924   9.264  11.311  0.8426 -0.2987  1.3118
  114MOL0     H15722   6.009   8.975  11.281 -0.2533  1.4515 -1.1501
  114MOL0     H15723   5.886   9.007  11.400  0.6062 -2.9442 -1.3210
  114MOL0     H15724   6.137   9.166  11.435 -1.5809 -0.2405 -0.0421
  114MOL0     H15725   5.999   9.168  11.530 -0.4266 -1.0999  0.2972
  114MOL0     H15726   6.197   9.028  11.587  0.2624  1.2851 -1.5326
  114MOL0     H15727   6.148   8.914  11.458 -3.3005 -0.5467 -1.3751
  114MOL0     H15728   5.870   8.777  11.735 -1.7921  2.2656 -0.8665
  114MOL0     H15729   5.612   9.080  11.051 -2.1222 -3.0037  0.8950
  114MOL0     H15730   5.472   8.899  10.922  0.9608  0.2022  1.5740
  114MOL0     H15731   5.541   8.995  10.797 -2.5511 -1.5779 -0.6118
  114MOL0     H15732   5.540   8.815  10.795 -1.1065  0.9316 -1.2240
  115MOL0     O15733   3.821   9.795   4.798 -0.1957  0.1850 -0.9501
  115MOL0     C15734   3.885   9.783   4.904 -0.7420  0.1884 -1.3383
  115MOL0     O15735   4.000   9.703   4.913  0.6812 -0.0952  0.2828
  115MOL0     C15736   4.063   9.638   4.810 -0.7106  0.2389  0.2741
  115MOL0     C15737   4.035   9.638   4.672  0.4095 -0.6727  0.4373
  115MOL0     C15738   4.136   9.609   4.573  0.7213  0.0858  0.2232
  115MOL0     C15739   4.262   9.577   4.622 -0.1294 -0.2034 -0.3445
  115MOL0     O15740   4.370   9.545   4.546 -0.1588  0.3084  0.0517
  115MOL0     C15741   4.363   9.533   4.401  0.3732  0.2216  0.4807
  115MOL0     C15742   4.470   9.636   4.356 -0.6327  1.0094 -0.4156
  115MOL0     C15743   4.425   9.782   4.353 -0.1577  0.0101 -0.0136
  115MOL0     C15744   4.489   9.851   4.477  0.1591 -0.4230  0.2381
  115MOL0     C15745   4.642   9.869   4.471  0.6315 -0.4208 -0.2883
  115MOL0     C15746   4.719   9.956   4.568 -0.3988  0.5398 -0.9589
  115MOL0     C15747   4.688   9.937   4.713  0.3042  0.7286  1.2405
  115MOL0     C15748   4.705   9.793   4.761  0.0466 -0.6574 -0.3912
  115MOL0     N15749   4.641   9.784   4.896 -0.7371  0.7502 -0.2022
  115MOL0     C15750   4.695   9.718   5.006  0.6892 -0.2200  0.0305
  115MOL0     C15751   4.591   9.717   5.092 -0.8222 -0.6037  0.7023
  115MOL0     C15752   4.580   9.645   5.226 -0.3581 -0.1854 -0.4965
  115MOL0     C15753   4.459   9.703   5.304 -0.5512 -0.5723 -0.2667
  115MOL0     C15754   4.456   9.626   5.437 -0.9309  0.1551  0.3697
  115MOL0     C15755   4.361   9.694   5.531 -0.0998 -0.3094  0.5170
  115MOL0     O15756   4.374   9.649   5.661 -0.0673 -0.3984 -0.3969
  115MOL0     C15757   4.285   9.674   5.759  0.9509 -0.8783  0.5594
  115MOL0     C15758   4.293   9.592   5.873  0.1592 -0.3535 -0.2198
  115MOL0     C15759   4.190   9.590   5.972  1.0785  0.3479  0.5003
  115MOL0     C15760   4.216   9.515   6.093  0.2073  0.5473 -0.4504
  115MOL0     C15761   4.079   9.671   5.951  0.1746  0.9473 -0.3599
  115MOL0     C15762   3.959   9.658   6.034 -0.2164  0.4778  0.6565
  115MOL0     O15763   3.899   9.775   6.062  0.2252 -0.3775 -0.0743
  115MOL0     C15764   3.770   9.766   6.095 -0.7121  0.6132 -0.6164
  115MOL0     C15765   3.666   9.748   6.004  0.0103 -0.0990 -0.9706
  115MOL0     C15766   3.535   9.734   6.058 -0.0951 -0.1153  0.3094
  115MOL0     C15767   3.513   9.724   6.197 -0.0319  0.6747 -0.2497
  115MOL0     O15768   3.384   9.700   6.252  0.2114  0.2712  0.4481
  115MOL0     C15769   3.287   9.785   6.206 -0.4354 -0.4122  0.3233
  115MOL0     C15770   3.197   9.838   6.329 -0.2895  0.0862  0.3032
  115MOL0     C15771   3.069   9.760   6.357 -0.0381 -0.5690 -0.4521
  115MOL0     C15772   2.996   9.839   6.470  0.0278 -0.7010 -0.0683
  115MOL0     C15773   2.871   9.763   6.520  0.7990  0.2291 -0.3410
  115MOL0     C15774   2.796   9.843   6.636 -0.6161 -0.1278  0.7756
  115MOL0     C15775   2.676   9.776   6.698  0.3419  0.1358  0.7091
  115MOL0     C15776   2.593   9.879   6.765 -0.1028  1.4848 -0.6960
  115MOL0    Cl15777   2.494   9.982   6.661  0.3778  0.5353  0.3325
  115MOL0     C15778   3.629   9.720   6.282  0.6587  1.2322 -0.8582
  115MOL0     C15779   3.749   9.759   6.234 -0.6389  0.1848 -0.9838
  115MOL0     O15780   3.927   9.549   6.078  0.0463  0.0910 -0.2508
  115MOL0     C15781   4.079   9.755   5.842 -0.1528  0.2342  0.1028
  115MOL0     C15782   4.172   9.754   5.749 -0.1100 -0.0184 -0.3878
  115MOL0     N15783   4.476   9.759   5.034 -0.2975 -0.2753 -0.6736
  115MOL0     N15784   4.507   9.803   4.921  0.1466 -1.3358  0.0868
  115MOL0     C15785   4.289   9.575   4.758  0.3184  0.3195  0.4034
  115MOL0     C15786   4.189   9.603   4.845  0.5848  0.3459  0.1093
  115MOL0     C15787   3.856   9.857   5.032 -0.9818  0.0401  0.1913
  115MOL0     C15788   3.902   9.808   5.151  0.2587  0.2875 -0.3534
  115MOL0     C15789   3.887   9.876   5.271  0.3096  0.0559 -0.4395
  115MOL0     C15790   3.801   9.989   5.292  0.0628 -1.1932  0.8095
  115MOL0     O15791   3.770  10.041   5.417  0.2635 -0.4850  0.8820
  115MOL0     C15792   3.629  10.053   5.440 -0.5906 -0.8268  0.2280
  115MOL0     C15793   3.583  10.029   5.583  0.9667  0.5262 -0.1175
  115MOL0     C15794   3.584  10.163   5.659 -0.4963  0.6012 -0.0372
  115MOL0     C15795   3.573  10.137   5.805 -0.2580  0.6093 -0.5532
  115MOL0     C15796   3.450  10.073   5.839  0.3939 -0.2218  0.1168
  115MOL0     C15797   3.343  10.019   5.853  1.2183  0.2444  0.2734
  115MOL0     C15798   3.762  10.038   5.170  0.2314  0.1318  0.5576
  115MOL0     C15799   3.776   9.979   5.046 -0.1839 -0.6159 -0.6908
  115MOL0     C15800   3.707  10.049   4.931 -0.3209 -0.4042 -0.2626
  115MOL0     H15801   3.945   9.682   4.630  1.3571  3.4311  2.1585
  115MOL0     H15802   4.098   9.611   4.471 -1.1076 -3.2707  0.6864
  115MOL0     H15803   4.262   9.547   4.361  0.2784 -2.6884 -0.5759
  115MOL0     H15804   4.393   9.438   4.356  0.1860 -0.7384  2.2838
  115MOL0     H15805   4.554   9.621   4.424  0.3421  0.5026 -1.6819
  115MOL0     H15806   4.504   9.611   4.255 -1.7492  0.8247 -0.7628
  115MOL0     H15807   4.457   9.826   4.258 -1.1576 -0.8739 -0.7914
  115MOL0     H15808   4.316   9.781   4.351 -0.2487 -0.0785  2.3919
  115MOL0     H15809   4.448   9.952   4.484 -1.8157 -0.9610 -2.1604
  115MOL0     H15810   4.461   9.804   4.572 -0.7883 -1.5796 -0.5819
  115MOL0     H15811   4.667   9.904   4.370 -0.5352 -0.9573 -0.7854
  115MOL0     H15812   4.675   9.766   4.486 -0.1346 -1.5677 -4.9054
  115MOL0     H15813   4.826   9.934   4.561 -0.1811  0.1192  2.3700
  115MOL0     H15814   4.707  10.061   4.538  0.2332  0.7550 -0.4831
  115MOL0     H15815   4.583   9.964   4.723 -0.3845 -1.3069  0.1882
  115MOL0     H15816   4.761   9.996   4.770  4.3434 -2.1470 -0.4281
  115MOL0     H15817   4.656   9.721   4.695  1.8995 -1.4145 -0.9842
  115MOL0     H15818   4.811   9.771   4.771 -0.1797 -1.1771  1.0847
  115MOL0     H15819   4.791   9.669   5.014 -0.0453 -1.7439 -0.1142
  115MOL0     H15820   4.676   9.649   5.278  0.4618 -0.8450 -1.8931
  115MOL0     H15821   4.555   9.541   5.203  1.0103 -0.6894  0.2164
  115MOL0     H15822   4.454   9.811   5.320 -2.2184 -0.6713  0.0306
  115MOL0     H15823   4.360   9.669   5.272 -1.2372  0.1171  1.0503
  115MOL0     H15824   4.435   9.519   5.437  0.3932 -0.1309  2.0678
  115MOL0     H15825   4.551   9.632   5.490 -0.6065  2.6181 -0.3493
  115MOL0     H15826   4.378   9.802   5.532  0.2976 -0.3601  2.1886
  115MOL0     H15827   4.263   9.679   5.486  0.7679  0.2249 -1.6770
  115MOL0     H15828   4.386   9.540   5.894  2.9998  4.7094  1.4092
  115MOL0     H15829   4.159   9.422   6.095  2.0962 -0.7587 -2.6289
  115MOL0     H15830   4.178   9.573   6.178  2.5455  0.1038  1.0049
  115MOL0     H15831   4.320   9.484   6.104  0.0557 -0.1004 -0.7742
  115MOL0     H15832   3.690   9.753   5.898  1.4128  1.9520 -0.6352
  115MOL0     H15833   3.446   9.736   5.996 -0.3748 -1.3332  0.6555
  115MOL0     H15834   3.337   9.859   6.143 -0.4054  1.3363  2.2899
  115MOL0     H15835   3.218   9.739   6.134 -0.7137  0.9799 -0.3277
  115MOL0     H15836   3.258   9.853   6.419 -1.2591  3.3177  0.5495
  115MOL0     H15837   3.178   9.943   6.305 -0.3629 -0.3046 -1.4528
  115MOL0     H15838   3.091   9.663   6.401 -0.4743  0.2911  1.7681
  115MOL0     H15839   3.003   9.748   6.270 -2.7715 -3.7148  1.8205
  115MOL0     H15840   2.970   9.937   6.428  1.4839 -0.6930 -0.9939
  115MOL0     H15841   3.070   9.855   6.548 -3.1232  2.7548  2.5886
  115MOL0     H15842   2.795   9.753   6.443 -2.6241  0.4651  2.7593
  115MOL0     H15843   2.887   9.661   6.555  0.2605  0.1511 -0.3214
  115MOL0     H15844   2.769   9.938   6.588  0.5860 -0.9418 -1.6713
  115MOL0     H15845   2.868   9.863   6.715  0.9579  1.8209 -1.0315
  115MOL0     H15846   2.696   9.698   6.772 -0.2261 -0.1222  0.5952
  115MOL0     H15847   2.624   9.730   6.614 -2.0535  2.2910  0.9071
  115MOL0     H15848   2.657   9.940   6.830 -1.1546 -1.1731  3.2296
  115MOL0     H15849   2.521   9.834   6.834  2.9280  1.7390  2.9482
  115MOL0     H15850   3.614   9.689   6.385 -0.0554  0.1152 -1.2758
  115MOL0     H15851   3.829   9.775   6.305 -1.0464  1.2170 -0.7402
  115MOL0     H15852   3.992   9.816   5.824  0.4910  0.8676 -1.0310
  115MOL0     H15853   4.164   9.831   5.673 -1.7912  0.3366  0.0893
  115MOL0     H15854   4.391   9.564   4.794 -0.1933  2.4337  2.8259
  115MOL0     H15855   4.220   9.608   4.949 -0.6190  0.0213  0.4963
  115MOL0     H15856   3.954   9.712   5.145 -1.4820 -0.6084 -3.5741
  115MOL0     H15857   3.918   9.819   5.358 -2.5413 -1.3902 -0.2365
  115MOL0     H15858   3.606  10.155   5.408  0.3527 -0.6140  0.2074
  115MOL0     H15859   3.584   9.974   5.379  0.1987 -3.5602  2.9392
  115MOL0     H15860   3.651   9.957   5.629 -0.1153 -0.7957 -0.5432
  115MOL0     H15861   3.479   9.995   5.585  0.1988  2.7100  0.5528
  115MOL0     H15862   3.681  10.211   5.645  0.6300 -0.9756  1.8662
  115MOL0     H15863   3.498  10.226   5.635 -0.6043  0.7246  0.6563
  115MOL0     H15864   3.578  10.234   5.856  1.2844 -0.4776  1.5342
  115MOL0     H15865   3.648  10.081   5.861 -0.2567  1.4587  0.3224
  115MOL0     H15866   3.256   9.962   5.876  3.1341 -2.6633  0.9045
  115MOL0     H15867   3.708  10.132   5.166  2.2615  1.3114 -1.7449
  115MOL0     H15868   3.756  10.057   4.833 -1.1373  0.1928 -0.6423
  115MOL0     H15869   3.621   9.983   4.913  0.2412 -1.0371 -0.6636
  115MOL0     H15870   3.670  10.148   4.958  1.7365  0.1892  0.5406
  116MOL0     O15871   0.007   8.442   0.692  0.6102  0.7096  0.8875
  116MOL0     C15872  -0.097   8.516   0.674 -0.6698  1.0335 -0.4180
  116MOL0     O15873  -0.125   8.612   0.759 -0.9255 -0.2598  0.7936
  116MOL0     C15874  -0.044   8.638   0.866 -0.7422 -1.0197 -0.2356
  116MOL0     C15875  -0.114   8.627   0.988 -0.5517  1.0739 -0.0524
  116MOL0     C15876  -0.043   8.621   1.107  0.0355  0.1048 -0.3630
  116MOL0     C15877   0.096   8.636   1.113  0.4828  0.9162  1.0229
  116MOL0     O15878   0.173   8.653   1.222  0.7484 -0.5717  0.2130
  116MOL0     C15879   0.115   8.592   1.344 -0.1581 -0.9555  0.3282
  116MOL0     C15880   0.105   8.438   1.347 -0.4019 -0.5826  0.2025
  116MOL0     C15881   0.051   8.376   1.479  0.6045  0.5760  0.0648
  116MOL0     C15882   0.127   8.402   1.603 -0.0261  0.7521 -0.6260
  116MOL0     C15883   0.034   8.349   1.725 -0.1044  0.5357 -0.1076
  116MOL0     C15884   0.126   8.350   1.847 -1.1876  0.9600 -1.1852
  116MOL0     C15885   0.044   8.300   1.968  0.6541  0.4180 -0.5949
  116MOL0     C15886   0.129   8.267   2.098 -0.3543  0.2027  0.3632
  116MOL0     N15887   0.048   8.247   2.215 -0.2493 -0.5480  0.9125
  116MOL0     C15888  -0.035   8.138   2.221 -0.3321  0.4142 -0.5996
  116MOL0     C15889  -0.068   8.139   2.350 -0.5148  0.4625 -0.6299
  116MOL0     C15890  -0.136   8.022   2.421  0.7188 -0.1229 -0.5802
  116MOL0     C15891  -0.266   8.079   2.475  0.1195 -0.3000 -0.5539
  116MOL0     C15892  -0.340   7.950   2.523 -1.1173  0.0049  0.1872
  116MOL0     C15893  -0.490   7.969   2.556 -0.7605 -0.6656  0.1253
  116MOL0     O15894  -0.537   7.845   2.611  0.2486  0.2666  0.5184
  116MOL0     C15895  -0.676   7.836   2.603  0.0435  0.3016 -0.6458
  116MOL0     C15896  -0.721   7.705   2.604 -0.2772  0.0455 -0.0922
  116MOL0     C15897  -0.861   7.677   2.591  0.4201 -0.7062 -1.0574
  116MOL0     C15898  -0.905   7.530   2.602 -0.4824 -0.4372 -0.5517
  116MOL0     C15899  -0.958   7.786   2.577 -0.1840 -0.5717 -0.2193
  116MOL0     C15900  -1.104   7.774   2.567  0.5525 -0.1689  0.2786
  116MOL0     O15901  -1.183   7.886   2.546  1.0350  0.2726  0.3186
  116MOL0     C15902  -1.311   7.860   2.498 -0.0989  0.3178  0.2041
  116MOL0     C15903  -1.407   7.929   2.572  0.5784  0.2891  0.4709
  116MOL0     C15904  -1.540   7.914   2.530 -0.2971 -0.1789 -0.6573
  116MOL0     C15905  -1.572   7.824   2.431  0.1438  0.5705  0.2447
  116MOL0     O15906  -1.704   7.820   2.411  0.3112 -0.1754  0.0407
  116MOL0     C15907  -1.770   7.701   2.370 -0.2553 -0.3903  0.4879
  116MOL0     C15908  -1.925   7.703   2.347 -0.2860 -0.0573 -0.1251
  116MOL0     C15909  -2.003   7.741   2.478  0.0117  0.6801 -0.1605
  116MOL0     C15910  -2.115   7.828   2.442 -0.0984 -0.5572 -0.1222
  116MOL0     C15911  -2.219   7.837   2.549 -0.2744 -0.8291  0.3976
  116MOL0     C15912  -2.300   7.963   2.523  0.5533  0.2588 -0.0325
  116MOL0     C15913  -2.350   7.980   2.376  1.2005 -0.4861 -0.3096
  116MOL0     C15914  -2.473   8.079   2.365 -0.7973 -0.3581 -0.8875
  116MOL0    Cl15915  -2.497   8.123   2.184  0.0252  0.0608  0.4927
  116MOL0     C15916  -1.472   7.757   2.361  0.2574  1.5569  0.7776
  116MOL0     C15917  -1.340   7.779   2.388 -0.6366 -0.5316  0.4706
  116MOL0     O15918  -1.147   7.656   2.558 -0.8279 -0.4037 -0.8161
  116MOL0     C15919  -0.912   7.918   2.590 -0.2651 -0.2094 -0.4425
  116MOL0     C15920  -0.777   7.943   2.602 -0.4020 -0.2048 -0.6684
  116MOL0     N15921  -0.010   8.251   2.412 -0.5197  0.9997  0.2116
  116MOL0     N15922   0.061   8.316   2.325  0.1386  0.1366  0.0161
  116MOL0     C15923   0.163   8.653   0.994  0.2586 -0.4303 -0.9071
  116MOL0     C15924   0.097   8.651   0.871  0.0358  0.0714 -0.7372
  116MOL0     C15925  -0.181   8.492   0.556 -0.4619  1.0528  0.8249
  116MOL0     C15926  -0.283   8.589   0.533  0.2933 -0.2983  0.7197
  116MOL0     C15927  -0.358   8.584   0.418 -0.0709  0.3532  0.1170
  116MOL0     C15928  -0.341   8.489   0.321  0.4005  0.1762  0.3177
  116MOL0     O15929  -0.439   8.481   0.215  0.1970  0.6297 -0.1386
  116MOL0     C15930  -0.473   8.363   0.144 -0.5048 -0.3879 -0.4729
  116MOL0     C15931  -0.560   8.274   0.227 -0.5264  0.3826  0.1653
  116MOL0     C15932  -0.560   8.138   0.158  0.1748 -0.6548  0.8909
  116MOL0     C15933  -0.664   8.047   0.218  0.4810 -0.3603 -0.2045
  116MOL0     C15934  -0.660   7.911   0.155  0.5336  0.3202 -1.3201
  116MOL0     C15935  -0.657   7.797   0.118  0.0920 -0.6698  0.3971
  116MOL0     C15936  -0.236   8.399   0.340  0.7707  0.2041 -0.5383
  116MOL0     C15937  -0.155   8.404   0.454  0.2032 -0.4490  0.2219
  116MOL0     C15938  -0.042   8.293   0.449  0.8147 -0.1831 -0.0604
  116MOL0     H15939  -0.221   8.609   0.982 -0.2989 -0.8001  0.4363
  116MOL0     H15940  -0.111   8.610   1.191 -1.6280 -1.3019 -1.8042
  116MOL0     H15941   0.018   8.637   1.365  0.9897  1.8382  0.1542
  116MOL0     H15942   0.180   8.615   1.430  0.2946 -1.7968  0.2259
  116MOL0     H15943   0.048   8.410   1.258  1.1504  1.6776 -1.6122
  116MOL0     H15944   0.208   8.405   1.330 -0.0814  1.0437 -1.3019
  116MOL0     H15945  -0.049   8.418   1.499  0.4312  0.6149 -0.8445
  116MOL0     H15946   0.049   8.267   1.476 -2.2654  0.5396 -0.0630
  116MOL0     H15947   0.219   8.345   1.601  1.7979  3.4499  0.5153
  116MOL0     H15948   0.152   8.508   1.613 -0.4601  1.0592 -2.4443
  116MOL0     H15949   0.009   8.244   1.714 -0.2513  0.5929 -0.3080
  116MOL0     H15950  -0.054   8.408   1.750 -0.0901  0.3336  0.4327
  116MOL0     H15951   0.216   8.289   1.833 -0.6353  0.8070  2.0492
  116MOL0     H15952   0.157   8.453   1.866 -4.2834  2.1507 -2.0790
  116MOL0     H15953  -0.023   8.217   1.943 -1.6611  1.9683  0.1016
  116MOL0     H15954  -0.020   8.385   1.993 -1.2661 -1.8805  3.2166
  116MOL0     H15955   0.196   8.181   2.097 -2.0575 -1.1680  0.7278
  116MOL0     H15956   0.201   8.350   2.104  1.0731 -0.8604 -1.0375
  116MOL0     H15957  -0.053   8.063   2.145  2.5379 -2.4775  1.2864
  116MOL0     H15958  -0.080   7.986   2.509 -2.5468 -2.7892  0.6474
  116MOL0     H15959  -0.142   7.944   2.345 -1.0668 -0.7409  0.1288
  116MOL0     H15960  -0.245   8.144   2.561 -0.1235 -0.0515 -0.6832
  116MOL0     H15961  -0.340   8.127   2.410 -0.9002 -2.4806 -1.0814
  116MOL0     H15962  -0.324   7.864   2.457  3.3705  0.4853  0.3688
  116MOL0     H15963  -0.295   7.917   2.617  1.3744  2.7325  0.0887
  116MOL0     H15964  -0.512   8.045   2.631  0.3084 -0.4093  0.2040
  116MOL0     H15965  -0.540   7.984   2.460  0.6623  0.7903 -0.4345
  116MOL0     H15966  -0.650   7.630   2.638 -1.7654 -0.1054  3.0046
  116MOL0     H15967  -0.944   7.500   2.504 -2.0825 -0.6703  0.1215
  116MOL0     H15968  -0.992   7.524   2.668  0.8317  4.7337  2.1900
  116MOL0     H15969  -0.824   7.469   2.640 -1.5647 -1.1801  0.6448
  116MOL0     H15970  -1.369   7.998   2.648  0.8139  0.7427 -0.0546
  116MOL0     H15971  -1.613   7.977   2.579  0.5391  0.3206 -0.0257
  116MOL0     H15972  -1.727   7.663   2.277 -1.4163 -2.5615  0.7588
  116MOL0     H15973  -1.748   7.624   2.446 -0.5299 -0.2066  0.7571
  116MOL0     H15974  -1.944   7.774   2.265 -0.4269  0.3904  0.2931
  116MOL0     H15975  -1.956   7.604   2.313 -1.0065  0.1086  0.0343
  116MOL0     H15976  -1.946   7.796   2.553 -0.4492  0.3725  0.4231
  116MOL0     H15977  -2.033   7.641   2.511  0.7565 -0.2495 -2.1201
  116MOL0     H15978  -2.154   7.792   2.347  1.1465 -2.0752 -0.0890
  116MOL0     H15979  -2.082   7.931   2.422 -0.5902  0.1199  2.2100
  116MOL0     H15980  -2.285   7.749   2.556 -1.7696  0.4022  3.8178
  116MOL0     H15981  -2.177   7.850   2.649  0.4174  0.8872 -0.0945
  116MOL0     H15982  -2.250   8.056   2.550 -1.9145  2.6049 -2.9374
  116MOL0     H15983  -2.385   7.950   2.590  2.4420 -2.9910  2.0645
  116MOL0     H15984  -2.375   7.883   2.331  0.8365 -2.5106  3.7436
  116MOL0     H15985  -2.273   8.027   2.315  1.4248  2.2277  1.8427
  116MOL0     H15986  -2.444   8.168   2.422 -0.8154  0.5959 -2.3122
  116MOL0     H15987  -2.571   8.044   2.399 -1.1591  0.3130 -1.2025
  116MOL0     H15988  -1.498   7.700   2.272 -0.4580 -2.2869  3.1704
  116MOL0     H15989  -1.272   7.725   2.323 -0.9582 -1.2441  0.7082
  116MOL0     H15990  -0.973   8.008   2.600  0.4801  0.1044  1.7577
  116MOL0     H15991  -0.745   8.047   2.604 -1.4880  0.1822 -1.9075
  116MOL0     H15992   0.269   8.676   0.998 -0.1272  1.3844  0.3560
  116MOL0     H15993   0.149   8.669   0.777  2.2443  2.2885  0.8047
  116MOL0     H15994  -0.295   8.671   0.603 -0.8935 -1.1644  1.5799
  116MOL0     H15995  -0.429   8.664   0.396  1.7476  1.7843 -0.8078
  116MOL0     H15996  -0.525   8.382   0.049 -1.9230 -2.8492 -0.2826
  116MOL0     H15997  -0.381   8.307   0.124  0.7733  2.3000 -2.7445
  116MOL0     H15998  -0.660   8.314   0.247 -0.4778  1.3728 -1.3242
  116MOL0     H15999  -0.506   8.258   0.320  0.8655 -0.7971 -0.8155
  116MOL0     H16000  -0.587   8.166   0.055  0.4319  1.3172  1.3266
  116MOL0     H16001  -0.461   8.092   0.152  0.0903 -0.8058 -4.3899
  116MOL0     H16002  -0.763   8.088   0.196  0.0567 -2.4165 -2.5178
  116MOL0     H16003  -0.663   8.048   0.328  2.2642 -2.2098 -0.1400
  116MOL0     H16004  -0.670   7.693   0.097 -2.1992 -0.5742  1.0595
  116MOL0     H16005  -0.223   8.316   0.270  2.0553 -0.4871  0.4927
  116MOL0     H16006   0.051   8.339   0.415 -0.1336  2.5458  0.7642
  116MOL0     H16007  -0.036   8.227   0.536  2.0072 -2.2047 -1.5940
  116MOL0     H16008  -0.083   8.220   0.379 -2.6754  0.6703  0.8735
  117MOL0     O16009   8.974   2.015   3.534  0.6922  1.1419  0.3758
  117MOL0     C16010   8.996   2.062   3.647  1.2240  0.3053 -0.3784
  117MOL0     O16011   9.070   2.004   3.747  0.6117  0.0338  0.2976
  117MOL0     C16012   9.128   1.879   3.742 -0.0261  1.0163  0.0376
  117MOL0     C16013   9.235   1.846   3.814  0.3490  0.0807  0.6353
  117MOL0     C16014   9.301   1.718   3.808 -0.3965  0.3579  0.0142
  117MOL0     C16015   9.246   1.619   3.728  0.1966  0.0112  0.9082
  117MOL0     O16016   9.313   1.496   3.710 -0.1114  0.1689 -0.0199
  117MOL0     C16017   9.359   1.410   3.814  0.0771 -0.2309  0.3389
  117MOL0     C16018   9.252   1.328   3.871  0.2456 -0.0803  0.0359
  117MOL0     C16019   9.201   1.201   3.795 -0.8630 -0.0910  0.1480
  117MOL0     C16020   9.116   1.231   3.671  0.4246 -0.4439 -1.4170
  117MOL0     C16021   9.062   1.117   3.591 -0.0349 -0.0043  0.3243
  117MOL0     C16022   9.172   1.030   3.532  0.4357 -0.6421 -0.1673
  117MOL0     C16023   9.280   1.107   3.463 -0.4111 -0.2166  0.8549
  117MOL0     C16024   9.235   1.150   3.321 -0.0968 -0.6423  0.2274
  117MOL0     N16025   9.328   1.220   3.230 -0.7159  0.2908 -0.3523
  117MOL0     C16026   9.352   1.353   3.221 -0.3878  0.1746 -0.3969
  117MOL0     C16027   9.445   1.367   3.139  0.7487 -0.0349  0.4092
  117MOL0     C16028   9.481   1.506   3.086 -0.2191 -0.2502 -0.6779
  117MOL0     C16029   9.414   1.540   2.958  0.6311 -0.8874  0.4259
  117MOL0     C16030   9.415   1.692   2.925 -0.6790 -0.6418  0.7690
  117MOL0     C16031   9.559   1.732   2.890  0.7834  0.3369  0.8687
  117MOL0     O16032   9.579   1.873   2.857  0.3237  0.2524  0.5997
  117MOL0     C16033   9.569   1.921   2.735  0.1394 -0.1716 -0.3959
  117MOL0     C16034   9.520   1.853   2.621  0.1924  0.4882 -0.1686
  117MOL0     C16035   9.520   1.913   2.499 -0.8107  0.5746  1.5273
  117MOL0     C16036   9.468   1.822   2.384  0.2582 -0.9429  0.2418
  117MOL0     C16037   9.557   2.052   2.483 -0.8179  0.4171  0.5156
  117MOL0     C16038   9.575   2.126   2.351 -0.3958 -0.2221 -0.8120
  117MOL0     O16039   9.577   2.262   2.367 -0.2118 -0.0698  0.1230
  117MOL0     C16040   9.601   2.348   2.266  0.1886 -0.4916  0.1901
  117MOL0     C16041   9.659   2.315   2.144  0.2233 -0.3979 -0.3286
  117MOL0     C16042   9.683   2.417   2.052 -1.3633  0.0127 -0.1681
  117MOL0     C16043   9.646   2.552   2.071  0.6413 -0.5793 -0.1946
  117MOL0     O16044   9.669   2.641   1.972 -0.1893 -0.2929  0.0427
  117MOL0     C16045   9.607   2.768   1.992 -1.5201  0.9666 -0.1082
  117MOL0     C16046   9.611   2.855   1.864  0.2042 -0.6594 -0.2627
  117MOL0     C16047   9.567   3.000   1.892 -0.4720 -0.6927  0.5379
  117MOL0     C16048   9.610   3.097   1.782  0.1904 -0.4202 -0.2983
  117MOL0     C16049   9.523   3.090   1.661 -0.2101  0.1693 -1.1190
  117MOL0     C16050   9.599   3.116   1.533  0.8808 -0.2017 -0.0005
  117MOL0     C16051   9.514   3.180   1.421 -0.5124  1.1229 -0.6612
  117MOL0     C16052   9.598   3.230   1.302  0.5641 -0.0783 -1.1116
  117MOL0    Cl16053   9.697   3.098   1.222  0.4122  0.3462 -0.4613
  117MOL0     C16054   9.575   2.577   2.195 -0.5879  0.3465 -0.4594
  117MOL0     C16055   9.554   2.474   2.286  0.0216  0.3687 -0.1025
  117MOL0     O16056   9.587   2.066   2.251  0.2310 -0.3337  0.2392
  117MOL0     C16057   9.605   2.117   2.595 -0.2370 -0.1004  0.6568
  117MOL0     C16058   9.599   2.051   2.718  0.8174 -0.4345 -0.1160
  117MOL0     N16059   9.492   1.245   3.093  0.2169  0.2868 -0.9027
  117MOL0     N16060   9.424   1.156   3.160 -0.2862  0.5480  0.3793
  117MOL0     C16061   9.131   1.640   3.660  0.0114 -0.0472  0.5854
  117MOL0     C16062   9.063   1.767   3.671  0.8147  0.7480 -0.5202
  117MOL0     C16063   8.945   2.203   3.682  0.0035 -0.1526 -0.2143
  117MOL0     C16064   8.958   2.257   3.809  1.4646  0.5058 -0.7537
  117MOL0     C16065   8.907   2.378   3.853 -0.4875  0.6986 -0.0186
  117MOL0     C16066   8.835   2.461   3.771  0.1241 -1.1691  0.3908
  117MOL0     O16067   8.795   2.577   3.834  0.1824 -0.4572 -0.9353
  117MOL0     C16068   8.704   2.663   3.766  0.2369 -0.1588 -0.1980
  117MOL0     C16069   8.778   2.756   3.672  0.5007 -0.3114 -0.4820
  117MOL0     C16070   8.679   2.830   3.578  0.1748 -0.3325 -0.5599
  117MOL0     C16071   8.748   2.944   3.502  0.1177 -0.2082 -1.4153
  117MOL0     C16072   8.642   3.038   3.453 -0.0064  0.6503  0.7919
  117MOL0     C16073   8.551   3.123   3.436  0.8403  0.1408 -0.7564
  117MOL0     C16074   8.814   2.418   3.641  0.1155 -0.2571  0.0343
  117MOL0     C16075   8.871   2.294   3.595  0.0518  0.6864 -0.4065
  117MOL0     C16076   8.869   2.262   3.457 -0.1010  0.2838 -0.1543
  117MOL0     H16077   9.279   1.932   3.863  1.3103  0.6696 -1.1663
  117MOL0     H16078   9.390   1.694   3.865  0.3491 -0.6765 -1.5198
  117MOL0     H16079   9.407   1.466   3.895 -0.1032  0.6158 -0.1349
  117MOL0     H16080   9.434   1.341   3.774  0.8347 -0.4537  2.0608
  117MOL0     H16081   9.264   1.300   3.976 -0.4946 -0.1034  0.1190
  117MOL0     H16082   9.167   1.395   3.887  1.1520  1.4346 -1.1436
  117MOL0     H16083   9.283   1.130   3.784 -0.9074 -0.6725  2.8708
  117MOL0     H16084   9.145   1.137   3.863  2.2532 -1.8850  1.2178
  117MOL0     H16085   9.028   1.287   3.704  1.7794  0.8748  0.0854
  117MOL0     H16086   9.171   1.300   3.607  2.5291 -1.8572 -1.2206
  117MOL0     H16087   8.990   1.151   3.517 -0.3828 -1.0963  0.1413
  117MOL0     H16088   9.004   1.047   3.652 -1.5066 -0.5256 -1.5903
  117MOL0     H16089   9.227   0.971   3.606  2.7424  0.1608 -1.1282
  117MOL0     H16090   9.121   0.960   3.466 -4.0118  1.5814  0.5444
  117MOL0     H16091   9.371   1.048   3.448 -0.9808 -1.3037  1.5325
  117MOL0     H16092   9.323   1.195   3.512  0.5544  3.1016 -4.9940
  117MOL0     H16093   9.179   1.078   3.260 -1.8345 -0.7421  1.8582
  117MOL0     H16094   9.161   1.224   3.353  2.8052  1.3849  2.7266
  117MOL0     H16095   9.293   1.429   3.272  0.2546 -0.1145  0.8014
  117MOL0     H16096   9.590   1.507   3.074  0.0856 -0.0817  1.5759
  117MOL0     H16097   9.458   1.576   3.166  0.6225  0.1576 -0.7764
  117MOL0     H16098   9.447   1.474   2.877  1.9531 -0.0186  0.2244
  117MOL0     H16099   9.309   1.517   2.980  0.6052  0.0718  1.3485
  117MOL0     H16100   9.342   1.717   2.848  0.4826 -1.7168 -0.7348
  117MOL0     H16101   9.389   1.738   3.021 -1.0997 -0.6095  0.6404
  117MOL0     H16102   9.628   1.709   2.972  3.0241 -0.3452 -1.1168
  117MOL0     H16103   9.594   1.670   2.807  0.6897  0.7226  0.5398
  117MOL0     H16104   9.476   1.755   2.634 -2.3329  1.6726  1.1086
  117MOL0     H16105   9.538   1.831   2.301  1.5609 -2.3458  1.1154
  117MOL0     H16106   9.370   1.858   2.353  0.4882  1.4969  2.0173
  117MOL0     H16107   9.467   1.715   2.407  3.7407 -1.3591 -0.9262
  117MOL0     H16108   9.687   2.212   2.122 -0.7341 -0.9220  0.8322
  117MOL0     H16109   9.730   2.379   1.962 -0.0625 -1.2119  0.9758
  117MOL0     H16110   9.500   2.758   2.011 -1.3828 -2.9740 -0.6810
  117MOL0     H16111   9.661   2.819   2.073  0.0015  0.5145 -0.8064
  117MOL0     H16112   9.714   2.864   1.827 -0.2623  3.8356 -1.0437
  117MOL0     H16113   9.546   2.822   1.782 -1.5475  1.0961  0.3607
  117MOL0     H16114   9.600   3.029   1.993 -3.5525 -0.2833  1.5376
  117MOL0     H16115   9.458   3.008   1.903 -0.3387  0.2862  1.2931
  117MOL0     H16116   9.715   3.091   1.755  0.1670  1.3146 -0.8913
  117MOL0     H16117   9.599   3.200   1.817 -0.7289  0.6162 -3.3807
  117MOL0     H16118   9.463   2.998   1.659  1.6448 -1.0913 -0.8223
  117MOL0     H16119   9.447   3.168   1.667 -0.2763  0.0505 -0.1886
  117MOL0     H16120   9.647   3.024   1.497 -0.7272 -0.7879 -0.7422
  117MOL0     H16121   9.670   3.195   1.559 -0.3193 -0.2006  3.8811
  117MOL0     H16122   9.455   3.264   1.461 -2.3399 -1.0802  1.5699
  117MOL0     H16123   9.442   3.109   1.379  1.0909 -0.8141 -0.2892
  117MOL0     H16124   9.671   3.307   1.330  0.3648  0.2950 -1.5978
  117MOL0     H16125   9.526   3.272   1.231 -2.2834  0.0560  1.6871
  117MOL0     H16126   9.551   2.678   2.228  1.8848  0.4717  1.2738
  117MOL0     H16127   9.506   2.498   2.380 -1.6466 -0.6112 -0.6561
  117MOL0     H16128   9.635   2.221   2.607 -0.2929 -0.1713  1.5001
  117MOL0     H16129   9.614   2.112   2.806 -0.1842  4.6304 -3.0615
  117MOL0     H16130   9.086   1.564   3.597 -1.0779 -0.8420  2.2672
  117MOL0     H16131   8.974   1.778   3.609  1.0437 -0.9002 -1.2029
  117MOL0     H16132   9.008   2.192   3.881 -1.2446 -0.0872  0.7446
  117MOL0     H16133   8.927   2.405   3.956  1.0639 -0.9508  0.1744
  117MOL0     H16134   8.627   2.611   3.710 -1.1489  0.6066  0.9348
  117MOL0     H16135   8.658   2.742   3.827  0.9969  0.9742 -1.0373
  117MOL0     H16136   8.851   2.698   3.615 -0.0555 -0.1230 -1.4108
  117MOL0     H16137   8.839   2.832   3.723 -1.9729 -0.0117  2.2874
  117MOL0     H16138   8.639   2.771   3.495 -0.8903  3.2118 -2.7915
  117MOL0     H16139   8.589   2.868   3.627 -0.2924 -0.4486 -1.3083
  117MOL0     H16140   8.803   2.906   3.415 -0.7456 -0.4084 -1.8833
  117MOL0     H16141   8.820   3.012   3.548  0.3098 -0.6350 -1.0757
  117MOL0     H16142   8.485   3.205   3.413 -0.6841 -1.3641 -1.9671
  117MOL0     H16143   8.765   2.487   3.573  0.8083 -0.0964 -0.3205
  117MOL0     H16144   8.832   2.351   3.406 -1.0583  0.4809  0.8634
  117MOL0     H16145   8.969   2.240   3.417 -0.1530 -1.5611  0.6141
  117MOL0     H16146   8.799   2.179   3.441 -2.8865  2.4161  0.3883
  118MOL0     O16147   7.727   1.736   8.851 -0.4907 -0.1339 -0.7710
  118MOL0     C16148   7.785   1.694   8.755  0.0294  0.4587  0.2386
  118MOL0     O16149   7.803   1.768   8.652 -0.4828 -0.7989 -0.1579
  118MOL0     C16150   7.761   1.899   8.633  1.0692 -1.1444  0.5461
  118MOL0     C16151   7.742   1.995   8.734  0.2773 -0.3934 -0.3806
  118MOL0     C16152   7.691   2.117   8.708  0.3635 -0.7770  0.1274
  118MOL0     C16153   7.653   2.156   8.580  0.1384  0.0582 -0.2942
  118MOL0     O16154   7.618   2.286   8.545 -0.6248  0.2065 -0.7227
  118MOL0     C16155   7.543   2.311   8.425 -0.2923 -0.0301  0.0629
  118MOL0     C16156   7.495   2.458   8.433  0.2848 -0.5440  1.0078
  118MOL0     C16157   7.489   2.528   8.296  0.4094  0.0441 -0.5258
  118MOL0     C16158   7.401   2.653   8.297 -0.2763 -0.8962 -0.1311
  118MOL0     C16159   7.471   2.762   8.380 -0.5412 -0.4235 -0.3177
  118MOL0     C16160   7.388   2.901   8.396 -0.9543 -0.1799  0.3396
  118MOL0     C16161   7.468   3.000   8.485  0.5377  0.0479  0.1280
  118MOL0     C16162   7.393   3.131   8.481  0.1862  0.2196 -0.1185
  118MOL0     N16163   7.277   3.143   8.576 -0.5221  0.1960  0.3504
  118MOL0     C16164   7.294   3.184   8.701 -0.1029  0.2841 -0.3179
  118MOL0     C16165   7.172   3.180   8.761 -0.0999 -0.6188 -0.0081
  118MOL0     C16166   7.126   3.239   8.894 -0.3211 -0.3321 -0.2241
  118MOL0     C16167   7.180   3.159   9.016  0.2125  0.0258 -0.7850
  118MOL0     C16168   7.135   3.010   9.002 -0.2093  0.8173  0.6486
  118MOL0     C16169   6.987   2.989   8.996  1.1863 -0.0705 -0.2704
  118MOL0     O16170   6.913   3.003   9.119 -0.0989 -0.0998 -0.1644
  118MOL0     C16171   6.895   2.893   9.197 -0.8754 -0.3591 -0.5372
  118MOL0     C16172   6.951   2.770   9.177  0.4032 -0.2384 -0.0626
  118MOL0     C16173   6.938   2.667   9.269 -0.1287  0.3586 -0.5502
  118MOL0     C16174   6.996   2.531   9.240 -0.6633  0.3544 -0.4601
  118MOL0     C16175   6.871   2.697   9.389  0.0942  0.3763 -0.0994
  118MOL0     C16176   6.865   2.598   9.501 -0.3780 -0.4448  0.3731
  118MOL0     O16177   6.760   2.607   9.584  0.7158 -0.3746  0.1736
  118MOL0     C16178   6.730   2.502   9.674  0.4143 -0.1900  0.3112
  118MOL0     C16179   6.736   2.364   9.631 -0.4565  0.5183 -0.3064
  118MOL0     C16180   6.714   2.263   9.728 -0.1240  0.2370  0.7492
  118MOL0     C16181   6.689   2.289   9.861 -0.3364  0.6153  0.7540
  118MOL0     O16182   6.684   2.178   9.944 -0.1515  0.3013 -0.4221
  118MOL0     C16183   6.742   2.214  10.076 -0.2390 -0.9259  0.2095
  118MOL0     C16184   6.733   2.093  10.164 -0.5966  0.2575  0.6201
  118MOL0     C16185   6.696   2.130  10.314 -0.1140  0.2346  0.0400
  118MOL0     C16186   6.712   2.015  10.413  0.2075 -0.1491 -0.2892
  118MOL0     C16187   6.651   1.883  10.372 -0.3108  0.4743  0.4154
  118MOL0     C16188   6.495   1.878  10.409 -0.2163  0.0511 -0.2836
  118MOL0     C16189   6.424   1.747  10.374  0.2179 -0.8489  0.3652
  118MOL0     C16190   6.272   1.766  10.363 -0.0154 -0.6510  0.2241
  118MOL0    Cl16191   6.193   1.610  10.354 -0.3168  0.0770  0.7128
  118MOL0     C16192   6.682   2.424   9.899  0.1707 -0.4496  0.0501
  118MOL0     C16193   6.697   2.533   9.806 -0.3661 -0.0049 -1.1838
  118MOL0     O16194   6.972   2.529   9.519  1.2466 -0.7812 -0.1128
  118MOL0     C16195   6.814   2.819   9.409  0.6032  0.0044  0.6518
  118MOL0     C16196   6.818   2.915   9.318 -0.1985  0.5493 -0.3550
  118MOL0     N16197   7.085   3.131   8.674 -0.0222 -0.8842  0.5977
  118MOL0     N16198   7.149   3.109   8.561  0.1372 -1.0605  0.8307
  118MOL0     C16199   7.672   2.063   8.478 -0.5094 -0.4015 -0.0094
  118MOL0     C16200   7.713   1.930   8.506 -0.1493 -0.4103  0.1398
  118MOL0     C16201   7.801   1.551   8.756 -0.8968  1.0121  0.5911
  118MOL0     C16202   7.932   1.506   8.763 -0.0013 -0.3667  0.9437
  118MOL0     C16203   7.954   1.370   8.781 -0.0863 -0.7772 -1.0474
  118MOL0     C16204   7.855   1.275   8.792  0.2566 -0.3966  0.7309
  118MOL0     O16205   7.892   1.147   8.786 -0.0698  0.1711 -0.1567
  118MOL0     C16206   7.801   1.052   8.739  0.7774  0.1393 -0.5373
  118MOL0     C16207   7.753   1.065   8.597 -0.4440 -0.3969 -0.3347
  118MOL0     C16208   7.633   0.971   8.572  0.4598  0.0675 -0.0181
  118MOL0     C16209   7.570   0.964   8.423  0.2917  0.2630 -0.2404
  118MOL0     C16210   7.666   0.880   8.345  0.5702 -0.3246  0.0250
  118MOL0     C16211   7.755   0.833   8.283 -0.4655  0.2324  0.7057
  118MOL0     C16212   7.724   1.320   8.781  0.5448  0.4389 -0.6276
  118MOL0     C16213   7.694   1.454   8.773  0.1065 -0.4105  0.6131
  118MOL0     C16214   7.548   1.493   8.765  0.2466 -0.2247 -0.8073
  118MOL0     H16215   7.781   1.985   8.835  4.7840  0.8750 -1.7704
  118MOL0     H16216   7.682   2.185   8.792 -2.0361 -1.1798  0.2701
  118MOL0     H16217   7.468   2.234   8.406  1.7684 -2.0509 -0.2233
  118MOL0     H16218   7.609   2.294   8.340 -0.1304 -1.2300  0.4118
  118MOL0     H16219   7.398   2.456   8.482  0.8642  2.8804  2.6557
  118MOL0     H16220   7.568   2.508   8.499  1.6058 -0.9389 -0.1086
  118MOL0     H16221   7.590   2.543   8.255  0.5478  1.6959  0.3389
  118MOL0     H16222   7.438   2.457   8.230 -0.9826 -1.1595  1.7186
  118MOL0     H16223   7.389   2.692   8.195  0.3928  0.3581  0.2449
  118MOL0     H16224   7.299   2.632   8.330  0.3043  0.3385  2.6979
  118MOL0     H16225   7.572   2.785   8.347 -0.8515  0.7765 -0.4874
  118MOL0     H16226   7.476   2.710   8.476 -2.5928  2.0313  1.2651
  118MOL0     H16227   7.388   2.941   8.294 -3.4879 -1.3092 -0.1859
  118MOL0     H16228   7.284   2.896   8.429 -1.4516  0.3033 -1.0744
  118MOL0     H16229   7.564   3.029   8.442 -0.0727  0.6460 -0.8632
  118MOL0     H16230   7.465   2.960   8.587 -3.5947 -0.7075 -0.1480
  118MOL0     H16231   7.469   3.205   8.507  1.5699 -1.8950  2.3888
  118MOL0     H16232   7.365   3.142   8.376 -0.5522 -0.7806 -0.0420
  118MOL0     H16233   7.386   3.219   8.748 -1.0315  4.0240 -0.9602
  118MOL0     H16234   7.018   3.252   8.892 -0.2640  0.1159 -1.5168
  118MOL0     H16235   7.151   3.345   8.906 -3.1353  0.0892  4.0441
  118MOL0     H16236   7.289   3.172   9.017  0.5355 -1.0465  4.1338
  118MOL0     H16237   7.153   3.204   9.112  2.9375 -3.6811  2.0514
  118MOL0     H16238   7.184   2.972   8.912 -0.9718  0.5783  0.3283
  118MOL0     H16239   7.170   2.945   9.082 -1.1732 -2.2567 -1.2637
  118MOL0     H16240   6.942   3.063   8.930  4.0497  1.2706 -0.9029
  118MOL0     H16241   6.958   2.892   8.954  0.2169 -0.3890  1.0950
  118MOL0     H16242   7.010   2.747   9.089  1.4691  4.6602 -0.9474
  118MOL0     H16243   7.024   2.533   9.134  0.6049  1.2308 -0.1393
  118MOL0     H16244   6.934   2.444   9.261  1.1723 -0.8295  0.3890
  118MOL0     H16245   7.093   2.525   9.291 -1.3497 -0.0467  0.8599
  118MOL0     H16246   6.753   2.341   9.526  0.2013  1.3343 -0.3858
  118MOL0     H16247   6.711   2.160   9.695 -0.4696  0.8402 -1.2392
  118MOL0     H16248   6.847   2.247  10.072 -0.6696  0.4317 -0.6367
  118MOL0     H16249   6.687   2.293  10.128  2.3477  0.3993  1.1178
  118MOL0     H16250   6.652   2.027  10.131 -1.8642  1.8309  0.4552
  118MOL0     H16251   6.825   2.035  10.156  1.6986  3.5818  0.6521
  118MOL0     H16252   6.599   2.178  10.330 -0.3759 -0.4410  0.4821
  118MOL0     H16253   6.771   2.204  10.346 -1.0300  2.3387 -2.3385
  118MOL0     H16254   6.676   2.043  10.512  1.9319 -1.9219  0.9066
  118MOL0     H16255   6.819   1.994  10.426  0.9155  0.3508 -4.0218
  118MOL0     H16256   6.679   1.857  10.270 -0.8755 -0.0972  0.4014
  118MOL0     H16257   6.689   1.809  10.443 -4.5891 -2.6709 -0.2064
  118MOL0     H16258   6.429   1.955  10.370  1.7180  1.8293 -0.2511
  118MOL0     H16259   6.492   1.885  10.518 -2.4691 -1.4110 -0.1937
  118MOL0     H16260   6.453   1.665  10.441  0.2630 -0.7755  0.4349
  118MOL0     H16261   6.461   1.718  10.275  0.8352  0.7195  0.1122
  118MOL0     H16262   6.269   1.823  10.270  0.3638  2.8766  2.2002
  118MOL0     H16263   6.221   1.835  10.431 -3.2188  0.6967 -3.1708
  118MOL0     H16264   6.660   2.461   9.998  2.5405  0.3182  0.3449
  118MOL0     H16265   6.688   2.633   9.845 -1.0672 -0.9183  1.1375
  118MOL0     H16266   6.759   2.836   9.501  0.3875  2.1704  0.1785
  118MOL0     H16267   6.790   3.016   9.348  1.6186  0.7919  0.7408
  118MOL0     H16268   7.652   2.091   8.375 -0.9997  0.8365  0.4062
  118MOL0     H16269   7.722   1.849   8.434 -0.2653 -3.0141  2.8679
  118MOL0     H16270   8.006   1.582   8.738 -0.5117 -0.0844  0.2402
  118MOL0     H16271   8.048   1.315   8.781 -0.6304 -1.7372 -0.6443
  118MOL0     H16272   7.836   0.948   8.739 -0.8550 -0.4585 -1.4465
  118MOL0     H16273   7.716   1.036   8.807  0.8401 -0.9384 -0.6905
  118MOL0     H16274   7.843   1.033   8.545  0.8086  0.7428  1.0092
  118MOL0     H16275   7.716   1.165   8.572  1.0081  0.7272  1.6750
  118MOL0     H16276   7.650   0.868   8.607  0.4949 -0.0736 -0.4407
  118MOL0     H16277   7.556   1.004   8.642 -0.8114 -2.1095 -0.2958
  118MOL0     H16278   7.567   1.067   8.386 -1.5017  0.4095  0.1856
  118MOL0     H16279   7.467   0.928   8.415  0.1709  0.7540 -1.0244
  118MOL0     H16280   7.836   0.788   8.230 -1.9539 -2.4080  0.4858
  118MOL0     H16281   7.640   1.252   8.782 -0.2313  1.3786 -0.9574
  118MOL0     H16282   7.536   1.587   8.711  0.5179  0.7475  0.7557
  118MOL0     H16283   7.491   1.417   8.712  1.2784 -2.9216  1.6942
  118MOL0     H16284   7.505   1.491   8.865 -0.0257 -2.9014 -0.9065
  119MOL0     O16285   3.958  11.383   1.899  0.1402  0.1190  0.4119
  119MOL0     C16286   3.874  11.454   1.941 -0.1961 -0.0794  0.5710
  119MOL0     O16287   3.839  11.577   1.893  0.8721  0.3187 -0.5570
  119MOL0     C16288   3.890  11.639   1.783  0.2060  0.4629 -0.4152
  119MOL0     C16289   3.943  11.572   1.678  0.0683  0.5825  1.0497
  119MOL0     C16290   3.995  11.644   1.568  1.0766 -0.2305  0.1245
  119MOL0     C16291   3.983  11.783   1.563  0.3703 -0.4623  0.5087
  119MOL0     O16292   4.033  11.865   1.463  0.8158 -0.4252 -0.0812
  119MOL0     C16293   4.055  11.799   1.338 -0.1302 -1.2898 -0.0814
  119MOL0     C16294   4.113  11.900   1.229 -0.3138 -0.4304 -0.2806
  119MOL0     C16295   4.001  11.990   1.177  0.4828 -0.6996  1.0155
  119MOL0     C16296   4.062  12.071   1.052 -0.0856  0.7580 -0.2527
  119MOL0     C16297   3.965  12.156   0.974  0.3730  0.5176 -0.7129
  119MOL0     C16298   3.899  12.068   0.872 -0.7401  0.8849 -0.7103
  119MOL0     C16299   3.752  12.101   0.887  0.8111 -0.5105  0.0264
  119MOL0     C16300   3.671  12.009   0.789 -0.3521  0.1439  0.5979
  119MOL0     N16301   3.663  12.053   0.657 -0.4029 -0.3929  0.0298
  119MOL0     C16302   3.577  12.013   0.559 -0.7263 -0.0095  0.7627
  119MOL0     C16303   3.604  12.075   0.443 -0.2241  0.3233 -0.3147
  119MOL0     C16304   3.543  12.044   0.310  0.0929 -0.1712  0.2422
  119MOL0     C16305   3.633  11.957   0.212  0.2261 -0.0934 -0.6493
  119MOL0     C16306   3.763  12.037   0.170 -0.9060  0.6210 -0.3794
  119MOL0     C16307   3.748  12.190   0.138 -0.9346  0.0935  0.7437
  119MOL0     O16308   3.672  12.206   0.020 -0.0592  0.0800 -0.1904
  119MOL0     C16309   3.721  12.178  -0.109  0.5976  0.2443 -0.0306
  119MOL0     C16310   3.850  12.131  -0.145  0.2395 -0.2147  0.4913
  119MOL0     C16311   3.889  12.114  -0.281 -0.0356 -0.0614  0.1675
  119MOL0     C16312   4.019  12.052  -0.318 -0.5463  0.1606 -0.3039
  119MOL0     C16313   3.796  12.155  -0.380 -0.4081 -0.3355 -0.4780
  119MOL0     C16314   3.825  12.143  -0.525 -0.5696 -0.0539 -0.7579
  119MOL0     O16315   3.948  12.172  -0.570 -1.2194  0.2992  0.6086
  119MOL0     C16316   3.999  12.141  -0.694  0.8841  0.5067 -0.6745
  119MOL0     C16317   4.116  12.207  -0.722 -0.4260  0.9013 -0.2740
  119MOL0     C16318   4.177  12.181  -0.850 -0.7063 -0.2711 -0.3706
  119MOL0     C16319   4.127  12.088  -0.941  0.1291  0.3006 -0.0911
  119MOL0     O16320   4.196  12.048  -1.055 -0.5834 -0.2002 -0.2614
  119MOL0     C16321   4.336  12.077  -1.070 -0.1154 -0.5869 -0.3689
  119MOL0     C16322   4.423  11.984  -1.004 -0.2604 -0.9798  0.6887
  119MOL0     C16323   4.378  11.835  -0.998 -0.7542  0.0340 -0.0198
  119MOL0     C16324   4.486  11.748  -0.931 -0.3416  0.1262 -0.4486
  119MOL0     C16325   4.567  11.676  -1.041 -0.4615 -0.0652  0.4007
  119MOL0     C16326   4.489  11.551  -1.095  0.3863  0.5771 -0.5316
  119MOL0     C16327   4.593  11.451  -1.161  0.1684  0.4966 -0.1301
  119MOL0     C16328   4.597  11.314  -1.082 -0.9957 -0.3566 -0.3987
  119MOL0    Cl16329   4.725  11.203  -1.163 -0.9313  0.2438 -0.0862
  119MOL0     C16330   4.010  12.031  -0.906  0.8817 -0.5781  0.2641
  119MOL0     C16331   3.943  12.053  -0.785 -0.0039  0.0396  0.3963
  119MOL0     O16332   3.725  12.118  -0.594  0.1598 -0.2094  0.5344
  119MOL0     C16333   3.665  12.202  -0.337 -0.0915  0.9812  0.6622
  119MOL0     C16334   3.633  12.213  -0.206  1.0730 -0.1062 -0.0669
  119MOL0     N16335   3.706  12.165   0.471 -0.9229  0.5450 -0.3064
  119MOL0     N16336   3.738  12.151   0.607  0.5678 -0.9770  0.4953
  119MOL0     C16337   3.930  11.844   1.671  0.0961 -0.2070  0.7110
  119MOL0     C16338   3.879  11.779   1.777  0.3105  0.3756 -0.0528
  119MOL0     C16339   3.812  11.400   2.066  0.3294 -0.4146 -0.5620
  119MOL0     C16340   3.864  11.284   2.116 -0.1131  0.1181 -0.6310
  119MOL0     C16341   3.813  11.212   2.221 -0.1274  0.4598  0.3821
  119MOL0     C16342   3.691  11.252   2.278 -0.2019  0.7371  0.9724
  119MOL0     O16343   3.645  11.169   2.373  0.3916 -0.4850 -0.2813
  119MOL0     C16344   3.584  11.212   2.498  0.3232  0.1672 -0.3470
  119MOL0     C16345   3.480  11.106   2.540  0.1026  0.8848  0.4819
  119MOL0     C16346   3.371  11.075   2.433  0.3826 -1.1768 -0.0515
  119MOL0     C16347   3.244  11.002   2.479 -0.7341  0.8245 -0.5454
  119MOL0     C16348   3.142  10.978   2.371 -0.0464 -0.3504 -0.0811
  119MOL0     C16349   3.073  10.975   2.270 -0.2776 -0.0093 -0.5730
  119MOL0     C16350   3.629  11.372   2.228 -0.4418 -0.2807  0.1593
  119MOL0     C16351   3.689  11.448   2.121  0.4398  0.7904  0.2135
  119MOL0     C16352   3.595  11.553   2.069 -0.0933  0.4325 -0.6346
  119MOL0     H16353   3.957  11.464   1.684  2.8437  0.8188  0.3260
  119MOL0     H16354   4.042  11.589   1.487  0.5249 -0.1337 -0.2657
  119MOL0     H16355   3.971  11.734   1.312  0.3185 -1.5226 -0.9971
  119MOL0     H16356   4.141  11.735   1.363  0.5022  0.1543  1.5641
  119MOL0     H16357   4.192  11.958   1.276  1.1159 -0.7326 -2.2130
  119MOL0     H16358   4.164  11.848   1.147 -0.4879  0.5410 -1.0332
  119MOL0     H16359   3.920  11.929   1.138  1.7883 -0.3149 -2.6792
  119MOL0     H16360   3.976  12.066   1.252 -1.5025  1.5173 -1.6835
  119MOL0     H16361   4.127  12.153   1.084  0.7689 -0.1163  0.2510
  119MOL0     H16362   4.115  12.008   0.980 -2.4118  1.3509 -2.6808
  119MOL0     H16363   4.018  12.239   0.926  1.4445  0.4122  0.2459
  119MOL0     H16364   3.892  12.200   1.043  1.3061  2.5728 -0.9717
  119MOL0     H16365   3.939  12.091   0.773  0.0189 -0.1032 -0.6571
  119MOL0     H16366   3.910  11.960   0.889 -3.7721  0.8124  1.4681
  119MOL0     H16367   3.741  12.206   0.858  0.6664 -1.2726 -3.0248
  119MOL0     H16368   3.718  12.088   0.990  0.4322  0.8464  0.1010
  119MOL0     H16369   3.719  11.911   0.798  0.0748  0.4739  2.3899
  119MOL0     H16370   3.566  11.994   0.815 -0.8194  0.7201 -0.8348
  119MOL0     H16371   3.504  11.933   0.569  1.0204 -1.7380  0.4685
  119MOL0     H16372   3.529  12.142   0.263 -1.4431  0.6777  2.3035
  119MOL0     H16373   3.449  11.988   0.314 -0.4677  0.6033 -1.2815
  119MOL0     H16374   3.661  11.864   0.263 -0.3847 -0.8876 -1.7173
  119MOL0     H16375   3.576  11.932   0.122 -0.3791  2.3254 -1.0238
  119MOL0     H16376   3.830  12.018   0.254  1.4106  0.4465 -2.1759
  119MOL0     H16377   3.822  11.985   0.094  2.9667  1.1739  1.9993
  119MOL0     H16378   3.704  12.245   0.222 -0.2775 -0.2139  1.3079
  119MOL0     H16379   3.843  12.244   0.131 -0.3457 -1.1289 -1.8731
  119MOL0     H16380   3.927  12.112  -0.071  0.4071  1.8656  0.9094
  119MOL0     H16381   4.084  12.038  -0.231  0.2873 -2.8409 -1.2999
  119MOL0     H16382   4.088  12.103  -0.385  1.1648 -1.3236  0.2376
  119MOL0     H16383   4.006  11.948  -0.347 -1.8158  0.4370 -0.7784
  119MOL0     H16384   4.158  12.278  -0.652 -0.6466  1.8663 -1.1097
  119MOL0     H16385   4.268  12.237  -0.872 -1.0986  1.6464  2.4495
  119MOL0     H16386   4.349  12.071  -1.179 -0.1505  2.8327 -0.6628
  119MOL0     H16387   4.364  12.181  -1.053 -3.8795  0.6800 -0.9767
  119MOL0     H16388   4.522  11.990  -1.049 -0.3846  0.0667  0.5345
  119MOL0     H16389   4.431  12.021  -0.902 -0.1995  1.6290 -0.2021
  119MOL0     H16390   4.365  11.800  -1.101  0.3581 -0.4666 -0.0074
  119MOL0     H16391   4.283  11.834  -0.945 -2.3148  0.6160 -2.6229
  119MOL0     H16392   4.438  11.689  -0.853  0.5937  1.1676  0.9675
  119MOL0     H16393   4.557  11.820  -0.889 -0.5835 -0.8326  1.7057
  119MOL0     H16394   4.580  11.756  -1.115 -2.0782 -1.0796 -1.0534
  119MOL0     H16395   4.665  11.639  -1.009 -0.8242 -3.9674 -2.3546
  119MOL0     H16396   4.412  11.590  -1.162 -0.2538 -1.0349 -0.7585
  119MOL0     H16397   4.439  11.513  -1.005 -1.9034  1.2522 -1.4457
  119MOL0     H16398   4.695  11.490  -1.166  0.2984  0.3052  0.8422
  119MOL0     H16399   4.559  11.418  -1.260  0.3534 -1.7185  0.4865
  119MOL0     H16400   4.500  11.264  -1.092 -0.5324 -0.8913 -2.9082
  119MOL0     H16401   4.619  11.319  -0.975 -2.9362 -2.4631  0.1694
  119MOL0     H16402   3.966  11.961  -0.976 -0.0257  2.4668 -2.4025
  119MOL0     H16403   3.855  12.000  -0.749  1.9418 -2.3206  2.0119
  119MOL0     H16404   3.586  12.225  -0.407 -1.1079 -0.0976  1.4023
  119MOL0     H16405   3.542  12.265  -0.179  2.4398  1.4099  2.0321
  119MOL0     H16406   3.920  11.952   1.675 -1.0812 -0.3275  2.3875
  119MOL0     H16407   3.827  11.838   1.852  0.4338 -0.3093  0.5894
  119MOL0     H16408   3.947  11.229   2.072 -1.0917 -1.4438 -0.6195
  119MOL0     H16409   3.852  11.115   2.250 -2.6592 -0.7896 -0.1428
  119MOL0     H16410   3.654  11.206   2.582 -0.5210 -2.8943  0.2682
  119MOL0     H16411   3.547  11.315   2.489  1.8124  1.0080  1.9433
  119MOL0     H16412   3.422  11.144   2.624 -1.4989 -1.0342  0.3068
  119MOL0     H16413   3.520  11.006   2.558  0.3593  1.0100  0.6107
  119MOL0     H16414   3.340  11.174   2.397  0.3972 -0.9350  0.5994
  119MOL0     H16415   3.417  11.031   2.344  2.4615 -0.0620  0.4235
  119MOL0     H16416   3.197  11.060   2.560  3.4825  0.2669  2.6217
  119MOL0     H16417   3.266  10.902   2.516  1.1038  0.8776 -1.4346
  119MOL0     H16418   3.005  10.971   2.187  0.6924  1.7428 -1.5072
  119MOL0     H16419   3.530  11.405   2.256 -0.9945 -0.4921 -1.4144
  119MOL0     H16420   3.591  11.556   1.960 -2.8363 -1.5194 -0.6973
  119MOL0     H16421   3.489  11.547   2.093  0.7145 -2.6716  3.3104
  119MOL0     H16422   3.633  11.641   2.121  0.9235  0.2884 -1.1132
  120MOL0     O16423   2.836   0.898   5.906 -0.2963 -0.7612  0.4833
  120MOL0     C16424   2.854   0.800   5.831  0.5992 -0.3390  0.4057
  120MOL0     O16425   2.755   0.748   5.753  0.2865  0.6217  0.1710
  120MOL0     C16426   2.639   0.819   5.733  0.6621  0.6857  0.2780
  120MOL0     C16427   2.535   0.810   5.822  0.1526 -0.8718  0.8842
  120MOL0     C16428   2.406   0.851   5.777  0.4574  0.1643 -1.7065
  120MOL0     C16429   2.387   0.916   5.660  0.1651 -0.4079 -0.3354
  120MOL0     O16430   2.251   0.938   5.638  0.7776  0.2338  0.5519
  120MOL0     C16431   2.211   0.982   5.504  0.5269  0.0430 -0.0332
  120MOL0     C16432   2.063   1.012   5.526  0.1967 -0.2559  0.2680
  120MOL0     C16433   2.000   1.061   5.392  0.2554  0.6219  1.0925
  120MOL0     C16434   1.849   1.082   5.422  0.2314  0.5844  0.4725
  120MOL0     C16435   1.776   1.173   5.334 -0.8345 -0.1977  0.6246
  120MOL0     C16436   1.641   1.210   5.380  1.0659  0.3185  0.3026
  120MOL0     C16437   1.646   1.316   5.494 -0.0848  0.3752 -0.1306
  120MOL0     C16438   1.554   1.435   5.470 -0.0540 -0.3974 -0.0958
  120MOL0     N16439   1.565   1.543   5.576  0.0737  0.9303 -0.2345
  120MOL0     C16440   1.626   1.531   5.700 -0.3098  0.1383  0.1677
  120MOL0     C16441   1.569   1.630   5.780 -0.6625  0.0329 -0.3425
  120MOL0     C16442   1.605   1.665   5.923 -1.1962 -0.1781  0.1431
  120MOL0     C16443   1.527   1.783   5.987  0.3303 -0.4356 -0.5117
  120MOL0     C16444   1.590   1.856   6.115  0.3320 -0.1474 -0.0498
  120MOL0     C16445   1.508   1.970   6.164 -0.1445 -0.6432 -1.1471
  120MOL0     O16446   1.538   2.084   6.085 -0.1286 -0.2251  0.6993
  120MOL0     C16447   1.438   2.170   6.046 -0.7676  0.1812 -0.6376
  120MOL0     C16448   1.457   2.226   5.930 -0.0383  0.1919 -0.2411
  120MOL0     C16449   1.372   2.329   5.880  0.9182  0.5261  0.3808
  120MOL0     C16450   1.403   2.384   5.739  0.1934  0.4465  0.0043
  120MOL0     C16451   1.253   2.354   5.950 -0.1601  0.0865 -0.3378
  120MOL0     C16452   1.127   2.413   5.896  0.1434  0.9512 -0.3770
  120MOL0     O16453   1.045   2.484   5.976  0.3435 -0.5815  0.3363
  120MOL0     C16454   0.920   2.520   5.917 -0.3140 -0.6738  0.1668
  120MOL0     C16455   0.913   2.648   5.836 -0.4212  0.2089  0.4567
  120MOL0     C16456   0.801   2.691   5.777 -0.3991 -0.4263  0.2476
  120MOL0     C16457   0.678   2.627   5.801  1.3206 -0.4418 -0.2669
  120MOL0     O16458   0.562   2.666   5.736  0.2073 -0.0788 -0.4197
  120MOL0     C16459   0.569   2.779   5.646  0.9978  0.0874 -0.6425
  120MOL0     C16460   0.423   2.813   5.622 -1.0841 -0.2356  0.2115
  120MOL0     C16461   0.386   2.784   5.477 -0.2725  0.0203  0.6803
  120MOL0     C16462   0.233   2.760   5.453  0.2491 -0.9043  0.1534
  120MOL0     C16463   0.141   2.881   5.482 -0.3991 -0.3001 -0.3081
  120MOL0     C16464   0.010   2.877   5.405  0.0590  0.7997 -0.0526
  120MOL0     C16465  -0.082   2.993   5.441 -0.6645 -0.0061  0.8781
  120MOL0     C16466  -0.203   2.980   5.366 -0.6154  1.2924 -1.4761
  120MOL0    Cl16467  -0.328   3.093   5.427 -0.2598 -0.3459 -0.1315
  120MOL0     C16468   0.679   2.500   5.866 -0.4081 -0.4190  0.1487
  120MOL0     C16469   0.802   2.447   5.927 -0.9709 -0.2679  0.6152
  120MOL0     O16470   1.098   2.394   5.779 -0.7515 -0.0798 -0.3546
  120MOL0     C16471   1.232   2.292   6.081  0.6067  0.4569 -0.0921
  120MOL0     C16472   1.330   2.202   6.130  0.2092 -0.3825 -0.0385
  120MOL0     N16473   1.480   1.707   5.697 -0.6212  0.4676  0.6153
  120MOL0     N16474   1.484   1.648   5.582  0.2755 -0.0976  0.0191
  120MOL0     C16475   2.496   0.951   5.578 -0.8402 -0.0536 -0.8163
  120MOL0     C16476   2.615   0.889   5.617 -0.0378  0.3369  0.4244
  120MOL0     C16477   2.993   0.746   5.824 -0.4365  0.2696 -0.2285
  120MOL0     C16478   3.006   0.620   5.753  0.9240  0.1558  0.6067
  120MOL0     C16479   3.128   0.572   5.710 -0.6018  0.7705 -0.1883
  120MOL0     C16480   3.250   0.621   5.749  0.1047  0.6321 -0.9827
  120MOL0     O16481   3.358   0.549   5.719  0.0265 -1.0135 -0.2790
  120MOL0     C16482   3.482   0.616   5.741  0.0094  0.5670  0.3253
  120MOL0     C16483   3.593   0.531   5.663  0.2574 -0.1343 -0.1035
  120MOL0     C16484   3.578   0.561   5.509  0.6620  1.0992 -0.7759
  120MOL0     C16485   3.586   0.712   5.462 -0.3466  0.1190  0.1465
  120MOL0     C16486   3.628   0.729   5.321  0.6893 -0.2806 -0.4900
  120MOL0     C16487   3.703   0.737   5.222 -0.8140  0.6781 -0.5094
  120MOL0     C16488   3.240   0.730   5.839 -0.5038 -0.1304 -0.0942
  120MOL0     C16489   3.116   0.801   5.863 -0.5164 -0.0872  0.5763
  120MOL0     C16490   3.131   0.926   5.935  0.0798 -0.2584  0.2135
  120MOL0     H16491   2.557   0.762   5.916  4.5092 -2.4598 -0.7154
  120MOL0     H16492   2.317   0.828   5.834  1.8810 -3.5026 -0.7291
  120MOL0     H16493   2.237   0.908   5.428  0.9266  0.1392  0.0059
  120MOL0     H16494   2.258   1.079   5.484  0.7611 -0.0087  0.2607
  120MOL0     H16495   2.004   0.927   5.559 -0.7395  0.9972  1.9921
  120MOL0     H16496   2.046   1.091   5.601  0.7573 -0.5312  0.6915
  120MOL0     H16497   2.045   1.158   5.369 -0.2771  0.0210 -3.5359
  120MOL0     H16498   2.015   0.998   5.304 -0.4621  1.2416  0.5075
  120MOL0     H16499   1.791   0.989   5.424  0.8537  0.1638 -0.4371
  120MOL0     H16500   1.844   1.121   5.524  1.8478 -1.2518  1.3305
  120MOL0     H16501   1.769   1.103   5.250  1.2821 -1.4849  1.4445
  120MOL0     H16502   1.835   1.263   5.313 -2.4971  0.3378 -2.4836
  120MOL0     H16503   1.583   1.254   5.299  2.3555 -1.1439 -1.4842
  120MOL0     H16504   1.587   1.123   5.419 -0.2851 -0.0011 -2.0650
  120MOL0     H16505   1.751   1.345   5.506 -0.0546  1.3549 -2.3156
  120MOL0     H16506   1.607   1.264   5.582  0.7803  0.4909  0.3414
  120MOL0     H16507   1.581   1.489   5.379 -3.0828  1.9808  0.2599
  120MOL0     H16508   1.452   1.405   5.444 -0.6881  1.0376  0.5696
  120MOL0     H16509   1.693   1.447   5.717 -2.2453 -1.4666  0.2997
  120MOL0     H16510   1.712   1.690   5.914 -0.3363 -2.9118  1.6725
  120MOL0     H16511   1.601   1.576   5.987  0.8935  0.3177  1.0696
  120MOL0     H16512   1.502   1.857   5.911  0.8049 -0.6051 -0.8365
  120MOL0     H16513   1.432   1.744   6.026  0.5153  0.3143  0.7616
  120MOL0     H16514   1.613   1.783   6.193 -0.4313  0.3752  0.6881
  120MOL0     H16515   1.688   1.894   6.085  0.4846 -0.5644 -0.0773
  120MOL0     H16516   1.402   1.943   6.163  0.2283 -2.2941  0.2421
  120MOL0     H16517   1.525   1.983   6.271 -4.9896 -0.7715 -0.1371
  120MOL0     H16518   1.537   2.196   5.862 -0.4526 -1.7193  0.0567
  120MOL0     H16519   1.511   2.400   5.744  0.2222  0.2573  0.0077
  120MOL0     H16520   1.359   2.481   5.717  1.5064  1.2532  0.7769
  120MOL0     H16521   1.376   2.312   5.662 -1.2733 -0.7191  1.5289
  120MOL0     H16522   1.008   2.699   5.819 -0.8626  0.4901 -1.3336
  120MOL0     H16523   0.805   2.768   5.701  1.4038 -1.4647 -0.7930
  120MOL0     H16524   0.611   2.856   5.710  1.7219 -1.1307  0.3957
  120MOL0     H16525   0.626   2.751   5.557 -1.6365 -1.2426 -2.0481
  120MOL0     H16526   0.366   2.757   5.696  0.1427 -0.9944  0.6080
  120MOL0     H16527   0.411   2.922   5.625 -2.9807 -0.4137  0.3040
  120MOL0     H16528   0.440   2.701   5.430  2.5506  1.5152  1.0828
  120MOL0     H16529   0.412   2.879   5.429 -1.9389  1.1492  1.8608
  120MOL0     H16530   0.191   2.671   5.501 -0.6066 -1.8200 -2.1438
  120MOL0     H16531   0.233   2.743   5.345  2.3950 -0.0104 -0.0393
  120MOL0     H16532   0.131   2.891   5.590  4.4320  1.2993  0.2796
  120MOL0     H16533   0.186   2.976   5.449  0.9785 -0.9319 -0.3345
  120MOL0     H16534  -0.030   2.779   5.434  3.0849  0.1509  2.4799
  120MOL0     H16535   0.029   2.888   5.298 -1.1083  2.6638 -0.1091
  120MOL0     H16536  -0.031   3.087   5.416 -1.7704  0.1017 -1.1886
  120MOL0     H16537  -0.091   2.984   5.549  1.7626 -0.7113  1.0858
  120MOL0     H16538  -0.254   2.883   5.371 -3.8136  2.8810  2.7240
  120MOL0     H16539  -0.180   2.999   5.261 -0.4770 -2.7073 -2.3238
  120MOL0     H16540   0.589   2.438   5.868  1.5173 -3.4456 -0.3929
  120MOL0     H16541   0.802   2.351   5.977  0.7655 -0.7879 -0.2904
  120MOL0     H16542   1.146   2.302   6.146  1.0979 -3.0926  1.2940
  120MOL0     H16543   1.324   2.159   6.229 -0.2252  2.5407  1.3077
  120MOL0     H16544   2.474   1.006   5.487 -2.3944  0.6298 -0.0649
  120MOL0     H16545   2.701   0.876   5.552 -2.3899  0.2454 -2.9117
  120MOL0     H16546   2.916   0.572   5.716  2.6513 -4.7216  1.9912
  120MOL0     H16547   3.126   0.475   5.662 -0.5697 -0.0785  1.4566
  120MOL0     H16548   3.486   0.718   5.703  0.3614  1.6025  2.8973
  120MOL0     H16549   3.517   0.628   5.844 -0.0725  2.2074  0.1827
  120MOL0     H16550   3.582   0.426   5.690  3.7216 -0.1275  2.0082
  120MOL0     H16551   3.696   0.555   5.693  0.6215 -0.4320 -1.0739
  120MOL0     H16552   3.655   0.505   5.455  1.4894 -0.3357  1.7035
  120MOL0     H16553   3.479   0.525   5.481 -0.6796  2.0833  2.2793
  120MOL0     H16554   3.666   0.764   5.516  0.0742  0.3648 -0.6821
  120MOL0     H16555   3.491   0.762   5.482 -1.0728  0.3211 -3.1972
  120MOL0     H16556   3.763   0.748   5.134  0.5725 -0.1849  0.2964
  120MOL0     H16557   3.325   0.764   5.897 -1.4224 -1.3086  2.0662
  120MOL0     H16558   3.050   0.940   6.007 -1.4504 -0.5017 -1.3967
  120MOL0     H16559   3.225   0.935   5.991 -1.5790  0.6768  3.0217
  120MOL0     H16560   3.135   1.007   5.862  1.5457 -0.3910  0.1134
  121MOL0     O16561   2.612   1.920   3.483 -0.2761 -0.0090 -0.2746
  121MOL0     C16562   2.650   2.033   3.492 -0.9319 -0.1969 -0.3362
  121MOL0     O16563   2.653   2.115   3.603 -0.9411  0.0967 -0.5771
  121MOL0     C16564   2.633   2.042   3.718 -0.5750 -0.0645  0.1297
  121MOL0     C16565   2.734   1.951   3.764  0.0563  0.7674  0.0375
  121MOL0     C16566   2.709   1.888   3.881  0.7296  0.1428 -0.3802
  121MOL0     C16567   2.594   1.905   3.958 -0.1037  0.3330 -0.2473
  121MOL0     O16568   2.568   1.836   4.077 -0.2719 -0.3728  0.0837
  121MOL0     C16569   2.671   1.779   4.149 -0.0525  0.0639  0.2883
  121MOL0     C16570   2.622   1.748   4.291  0.4859  0.2495 -0.3197
  121MOL0     C16571   2.628   1.863   4.391  0.4248  0.5975  0.1326
  121MOL0     C16572   2.509   1.953   4.352  0.2365 -0.8715 -0.4214
  121MOL0     C16573   2.490   2.070   4.453 -0.1687  0.4392  0.4314
  121MOL0     C16574   2.596   2.175   4.458 -0.1062 -0.1932 -0.1361
  121MOL0     C16575   2.618   2.260   4.326 -0.3304  0.8487  0.6245
  121MOL0     C16576   2.491   2.323   4.267 -0.0570  0.3316 -0.9372
  121MOL0     N16577   2.537   2.399   4.148 -0.0515 -0.3924  0.2995
  121MOL0     C16578   2.595   2.337   4.039  0.6503 -0.8656 -0.3837
  121MOL0     C16579   2.629   2.447   3.963 -0.4617  0.2451  0.0246
  121MOL0     C16580   2.695   2.437   3.825 -0.2264  0.5927  0.6152
  121MOL0     C16581   2.810   2.336   3.811  0.3069  0.3291 -0.2144
  121MOL0     C16582   2.921   2.336   3.910  0.7742 -0.0490  0.1705
  121MOL0     C16583   2.906   2.206   3.994  0.2736  0.3266  0.0723
  121MOL0     O16584   3.026   2.194   4.080 -0.9668  0.4370  0.3011
  121MOL0     C16585   3.045   2.275   4.191 -0.6759  0.9928 -0.5595
  121MOL0     C16586   3.175   2.275   4.255 -0.7844 -0.3870  0.3802
  121MOL0     C16587   3.201   2.342   4.373  0.0705 -0.0416 -0.4308
  121MOL0     C16588   3.349   2.333   4.417  0.0130  0.2111 -0.6727
  121MOL0     C16589   3.106   2.433   4.428 -0.6322 -0.7707  0.6361
  121MOL0     C16590   3.139   2.514   4.548  0.4809  0.3831  0.8387
  121MOL0     O16591   3.092   2.646   4.555  0.1829  0.1195 -1.2756
  121MOL0     C16592   3.130   2.717   4.670 -0.0858 -0.0894  0.7890
  121MOL0     C16593   3.254   2.718   4.719  0.5691  0.5677  0.3822
  121MOL0     C16594   3.296   2.789   4.831  0.6214 -0.2771 -0.7317
  121MOL0     C16595   3.206   2.863   4.902  0.0666 -0.4660  0.0355
  121MOL0     O16596   3.248   2.946   5.004 -0.1632  0.1556  0.4210
  121MOL0     C16597   3.306   3.069   4.971 -0.4552  0.4047  0.1031
  121MOL0     C16598   3.431   3.090   5.048 -0.2518 -0.1162 -0.0760
  121MOL0     C16599   3.421   3.239   5.082  0.3313 -1.1626  0.1331
  121MOL0     C16600   3.553   3.281   5.147  0.4935  0.6687 -0.9649
  121MOL0     C16601   3.558   3.430   5.198 -0.2282  0.1827 -0.2269
  121MOL0     C16602   3.693   3.475   5.241 -0.3099  0.4722  0.7166
  121MOL0     C16603   3.753   3.400   5.362  0.3916  0.0408  0.1915
  121MOL0     C16604   3.887   3.330   5.315 -0.2611  0.0310 -0.4937
  121MOL0    Cl16605   3.997   3.442   5.234  0.0447 -0.0361 -0.1022
  121MOL0     C16606   3.068   2.864   4.859  0.1539  0.6803  0.0180
  121MOL0     C16607   3.038   2.799   4.740  0.2317  0.4194 -0.2206
  121MOL0     O16608   3.188   2.452   4.643  0.5574 -0.4932  0.0626
  121MOL0     C16609   2.983   2.445   4.362 -0.3747  0.2901  0.0202
  121MOL0     C16610   2.945   2.359   4.250  0.0690  0.3523 -0.1163
  121MOL0     N16611   2.598   2.565   4.020  1.1583  0.5963 -0.4860
  121MOL0     N16612   2.538   2.531   4.134  0.1895  0.1600  0.5394
  121MOL0     C16613   2.494   1.982   3.909 -0.0970 -0.6416 -0.1473
  121MOL0     C16614   2.519   2.061   3.800  0.0145  0.6537 -0.0097
  121MOL0     C16615   2.702   2.094   3.354 -0.9509  0.9539  0.7965
  121MOL0     C16616   2.808   2.184   3.367 -0.4652 -0.8008 -0.1571
  121MOL0     C16617   2.868   2.252   3.262 -0.1176  0.5894  0.6925
  121MOL0     C16618   2.810   2.232   3.132 -0.6196  0.1940 -0.0515
  121MOL0     O16619   2.858   2.281   3.012 -0.8931 -0.4856  0.0465
  121MOL0     C16620   2.958   2.393   3.027  0.2366 -0.1856  0.5574
  121MOL0     C16621   2.983   2.462   2.896 -1.1224 -0.7976 -0.8811
  121MOL0     C16622   3.120   2.531   2.904 -0.7748  0.0124 -1.0841
  121MOL0     C16623   3.151   2.617   2.781 -0.2401 -0.3421 -0.7164
  121MOL0     C16624   3.290   2.630   2.775 -0.4167 -0.0542  0.6031
  121MOL0     C16625   3.412   2.651   2.776  0.3559 -0.0037  0.6596
  121MOL0     C16626   2.722   2.130   3.120  0.4502  1.1020  0.1424
  121MOL0     C16627   2.655   2.056   3.223 -0.5744 -1.2627  0.1234
  121MOL0     C16628   2.572   1.936   3.195  0.6579  0.3828  0.2005
  121MOL0     H16629   2.824   1.941   3.703  0.1118  3.7444 -0.5142
  121MOL0     H16630   2.777   1.813   3.920 -0.9875 -2.9926 -2.8853
  121MOL0     H16631   2.755   1.844   4.173 -0.9598  1.0403  0.8958
  121MOL0     H16632   2.704   1.684   4.105 -0.5204 -0.1242  0.3369
  121MOL0     H16633   2.519   1.710   4.298  1.1025 -1.8340 -1.4828
  121MOL0     H16634   2.684   1.662   4.317  0.8364  0.6332  0.1235
  121MOL0     H16635   2.608   1.823   4.491  0.6300  0.2238  0.0230
  121MOL0     H16636   2.724   1.914   4.399  0.3969  0.7379 -0.4121
  121MOL0     H16637   2.530   1.993   4.252  2.9466 -1.7553 -0.2929
  121MOL0     H16638   2.414   1.900   4.346 -2.6812  3.5223  1.6075
  121MOL0     H16639   2.475   2.042   4.557  1.0156  1.0553  0.7772
  121MOL0     H16640   2.392   2.112   4.426  0.8418  1.1644 -2.4762
  121MOL0     H16641   2.557   2.248   4.530  0.1388  1.8891 -2.0032
  121MOL0     H16642   2.689   2.124   4.484 -0.4221 -0.1498  1.1267
  121MOL0     H16643   2.646   2.186   4.251 -0.7775  0.0610  1.2212
  121MOL0     H16644   2.699   2.328   4.353 -1.2966  1.9566  0.8452
  121MOL0     H16645   2.421   2.247   4.232 -0.6995 -0.2926  1.5140
  121MOL0     H16646   2.436   2.393   4.331 -1.6520  1.6348 -3.5710
  121MOL0     H16647   2.611   2.232   4.016  1.1392 -1.7491  3.4047
  121MOL0     H16648   2.722   2.536   3.786  2.9787 -0.4150 -0.0261
  121MOL0     H16649   2.623   2.397   3.754 -0.2591 -0.7890  1.3900
  121MOL0     H16650   2.772   2.236   3.787  1.1929 -0.0015 -0.2877
  121MOL0     H16651   2.847   2.343   3.708  1.5740 -0.5618  0.1604
  121MOL0     H16652   3.016   2.331   3.856 -0.2161  0.1743 -1.7068
  121MOL0     H16653   2.933   2.428   3.969  2.9548 -0.2206  0.0634
  121MOL0     H16654   2.808   2.202   4.043 -0.8249 -3.8132 -2.0200
  121MOL0     H16655   2.903   2.110   3.942  0.6898 -0.7025  1.8575
  121MOL0     H16656   3.254   2.223   4.203 -1.4792 -0.1642 -0.9343
  121MOL0     H16657   3.408   2.281   4.341  2.3705 -0.6749  1.6206
  121MOL0     H16658   3.362   2.270   4.506  0.8337 -1.6015 -2.0248
  121MOL0     H16659   3.401   2.425   4.446 -0.4825  0.0595  0.8011
  121MOL0     H16660   3.339   2.678   4.664  1.5310  1.6840  1.0225
  121MOL0     H16661   3.402   2.794   4.853  1.2282  3.0466 -3.4750
  121MOL0     H16662   3.326   3.078   4.864 -3.1208  0.5779 -0.4466
  121MOL0     H16663   3.227   3.144   4.981 -1.8765 -0.5910 -2.5881
  121MOL0     H16664   3.444   3.025   5.135 -0.2416  0.3172  0.2515
  121MOL0     H16665   3.515   3.072   4.981  0.4251 -0.4172  0.8199
  121MOL0     H16666   3.334   3.252   5.147 -0.5628 -1.5596 -0.9447
  121MOL0     H16667   3.399   3.295   4.991 -1.2006 -1.8022  0.0725
  121MOL0     H16668   3.633   3.285   5.073  3.0550  2.8324  1.6612
  121MOL0     H16669   3.589   3.210   5.222  0.7675 -0.6451 -2.2888
  121MOL0     H16670   3.529   3.497   5.116 -0.3494 -0.8801 -1.0700
  121MOL0     H16671   3.489   3.446   5.281  0.6971 -1.7686  0.9702
  121MOL0     H16672   3.693   3.580   5.274  0.3109  0.2083  1.5929
  121MOL0     H16673   3.752   3.468   5.149 -1.0264 -4.0276  0.3558
  121MOL0     H16674   3.684   3.331   5.411  1.1613  1.1811  3.1257
  121MOL0     H16675   3.780   3.473   5.439 -0.1730  0.5399 -0.0764
  121MOL0     H16676   3.869   3.251   5.242  0.4658  0.8709 -1.6002
  121MOL0     H16677   3.952   3.288   5.392 -1.4906 -1.2063 -0.0780
  121MOL0     H16678   3.011   2.934   4.919  1.4487  1.3525  0.5039
  121MOL0     H16679   2.942   2.798   4.690 -0.0502 -2.5186  0.1804
  121MOL0     H16680   2.914   2.520   4.401  1.3299  0.7745  2.3630
  121MOL0     H16681   2.846   2.376   4.209 -0.0566 -1.4473 -0.6223
  121MOL0     H16682   2.396   1.983   3.956  0.1782  1.4948  0.4544
  121MOL0     H16683   2.440   2.121   3.756 -0.1722 -1.2908 -2.5513
  121MOL0     H16684   2.833   2.201   3.472 -2.3474  0.0327  0.2009
  121MOL0     H16685   2.958   2.306   3.290 -1.8291  1.6633  4.8013
  121MOL0     H16686   2.915   2.465   3.098  1.4417  0.2406  0.8760
  121MOL0     H16687   3.057   2.365   3.063  1.7469 -1.2369 -3.7997
  121MOL0     H16688   2.910   2.543   2.886 -1.1281 -0.9326 -2.1096
  121MOL0     H16689   2.962   2.388   2.818 -3.1121 -0.5087 -0.6798
  121MOL0     H16690   3.134   2.589   2.996  2.0953  1.2797 -2.2028
  121MOL0     H16691   3.209   2.468   2.916 -0.2441  0.9634  0.2517
  121MOL0     H16692   3.118   2.721   2.791 -1.4428 -0.8425  0.9231
  121MOL0     H16693   3.123   2.566   2.688  0.9746  0.0402 -1.3128
  121MOL0     H16694   3.518   2.666   2.777  0.4170 -0.0004  3.6667
  121MOL0     H16695   2.682   2.106   3.022 -0.3769  0.6989  0.5746
  121MOL0     H16696   2.608   1.841   3.235 -0.2742 -1.5111 -3.1169
  121MOL0     H16697   2.474   1.955   3.240 -0.3370 -1.4719 -1.0702
  121MOL0     H16698   2.559   1.934   3.087  4.3209 -0.2696 -0.3473
  122MOL0     O16699   9.039   0.789   3.220  0.2930  0.0473  0.0824
  122MOL0     C16700   9.113   0.762   3.125 -0.0835 -0.7818 -0.0742
  122MOL0     O16701   9.167   0.641   3.097  0.0879 -0.3525 -0.4105
  122MOL0     C16702   9.161   0.545   3.193 -0.6599  0.1319 -0.2995
  122MOL0     C16703   9.277   0.525   3.263 -0.3122 -0.6925 -1.0510
  122MOL0     C16704   9.270   0.430   3.372 -0.0701  0.8672 -0.4570
  122MOL0     C16705   9.154   0.361   3.406 -0.4280  0.2338 -0.1600
  122MOL0     O16706   9.148   0.275   3.513 -0.7239  0.4298 -0.2776
  122MOL0     C16707   9.052   0.299   3.615 -0.2187 -0.2700  0.6002
  122MOL0     C16708   9.061   0.194   3.724  0.1313 -0.2086  0.8037
  122MOL0     C16709   8.989   0.249   3.840 -0.1340  0.1405  0.4670
  122MOL0     C16710   8.970   0.136   3.942 -0.5191 -0.1497 -0.4778
  122MOL0     C16711   8.927   0.184   4.082 -0.0962  0.0807 -0.2218
  122MOL0     C16712   8.970   0.090   4.193 -0.4674  0.2215  0.6956
  122MOL0     C16713   9.124   0.054   4.211 -0.0180 -0.9746 -0.3393
  122MOL0     C16714   9.159   0.046   4.363 -0.9458  0.6451  0.0356
  122MOL0     N16715   9.289  -0.020   4.383 -0.2125  0.5530 -0.7010
  122MOL0     C16716   9.325  -0.155   4.390 -0.0195 -0.3718  0.4328
  122MOL0     C16717   9.467  -0.149   4.391 -0.0840  0.0396 -0.4498
  122MOL0     C16718   9.558  -0.265   4.372 -0.3535 -1.0470 -0.1167
  122MOL0     C16719   9.694  -0.270   4.442 -0.2983 -0.2752 -0.2131
  122MOL0     C16720   9.758  -0.407   4.419 -0.1164  0.7597  0.4682
  122MOL0     C16721   9.900  -0.419   4.476  0.3589  0.1538  0.3611
  122MOL0     O16722   9.950  -0.554   4.496  0.5045 -0.5635  0.5219
  122MOL0     C16723  10.029  -0.569   4.599 -0.3169  0.8849 -0.0988
  122MOL0     C16724   9.999  -0.536   4.727 -0.0968 -0.8247 -0.4126
  122MOL0     C16725  10.094  -0.551   4.840  0.4851  0.0457  0.3180
  122MOL0     C16726  10.062  -0.482   4.961 -0.1712  0.9819  0.6817
  122MOL0     C16727  10.206  -0.630   4.816  0.2554 -0.5321 -0.5319
  122MOL0     C16728  10.300  -0.674   4.930 -0.1698  0.5369 -0.0165
  122MOL0     O16729  10.296  -0.616   5.051  0.0911 -0.2264  0.3205
  122MOL0     C16730  10.383  -0.658   5.145 -0.6917  0.2416 -0.4628
  122MOL0     C16731  10.513  -0.595   5.156 -0.0400 -0.8214  0.8144
  122MOL0     C16732  10.599  -0.643   5.257  0.8379  0.9303 -0.1103
  122MOL0     C16733  10.563  -0.741   5.348  0.7903 -0.2330  0.4109
  122MOL0     O16734  10.640  -0.760   5.463  0.7600 -1.1026 -0.8288
  122MOL0     C16735  10.670  -0.898   5.502  0.3129  0.7169  0.0026
  122MOL0     C16736  10.695  -0.898   5.653 -0.4385 -0.0087 -1.0392
  122MOL0     C16737  10.572  -0.852   5.742 -0.2323  0.3215  0.0050
  122MOL0     C16738  10.472  -0.968   5.766 -0.4615  0.1279  0.0623
  122MOL0     C16739  10.531  -1.079   5.865  0.4434 -0.1304 -1.0629
  122MOL0     C16740  10.424  -1.175   5.905 -1.0703  0.5373 -0.2306
  122MOL0     C16741  10.384  -1.265   5.787 -0.3093  1.2651  0.7947
  122MOL0     C16742  10.299  -1.387   5.838 -0.4976  0.2009  0.1746
  122MOL0    Cl16743  10.150  -1.332   5.924 -0.5527 -0.5301 -0.3983
  122MOL0     C16744  10.432  -0.790   5.339  0.1748  0.0210  0.2433
  122MOL0     C16745  10.345  -0.763   5.232 -0.1651 -0.4213 -0.1827
  122MOL0     O16746  10.378  -0.762   4.894 -0.8984  0.3316 -0.4794
  122MOL0     C16747  10.227  -0.683   4.684  0.5073  0.1127 -0.1212
  122MOL0     C16748  10.142  -0.654   4.576  0.2161  0.3458 -0.1980
  122MOL0     N16749   9.510  -0.022   4.405 -0.5911  0.9761 -0.0101
  122MOL0     N16750   9.405   0.051   4.406  0.0409  0.8396 -0.9888
  122MOL0     C16751   9.037   0.388   3.333 -0.8411 -0.5783 -0.3796
  122MOL0     C16752   9.041   0.479   3.219 -0.0811 -0.8733 -0.5061
  122MOL0     C16753   9.119   0.854   3.001 -0.4855 -0.1604  0.3259
  122MOL0     C16754   9.234   0.933   2.987 -1.5245 -0.3850  1.3346
  122MOL0     C16755   9.241   1.015   2.870  0.3485 -0.8379 -0.1322
  122MOL0     C16756   9.148   1.000   2.768  1.4544 -0.6122  0.0683
  122MOL0     O16757   9.153   1.058   2.642 -0.1135  0.0602  0.7236
  122MOL0     C16758   9.251   1.159   2.615 -0.1499  0.2159 -0.9648
  122MOL0     C16759   9.217   1.222   2.486  0.2917 -0.8522 -0.5957
  122MOL0     C16760   9.330   1.316   2.425 -0.5958  0.6582  0.1391
  122MOL0     C16761   9.392   1.418   2.518  0.4216  0.4390 -0.0742
  122MOL0     C16762   9.287   1.512   2.555  0.1068 -0.4645  0.2521
  122MOL0     C16763   9.190   1.573   2.599  0.6978 -1.2236  0.2527
  122MOL0     C16764   9.039   0.928   2.791  0.9068  0.5964  0.1619
  122MOL0     C16765   9.016   0.863   2.906  0.3942 -0.1585 -0.3317
  122MOL0     C16766   8.882   0.803   2.926 -0.5360  0.4442 -0.3280
  122MOL0     H16767   9.363   0.589   3.246 -0.0587 -0.4438  0.9661
  122MOL0     H16768   9.352   0.407   3.440 -1.0682 -0.8867  0.2162
  122MOL0     H16769   8.955   0.282   3.568  0.8150 -1.7665 -1.1132
  122MOL0     H16770   9.053   0.402   3.652 -3.0070  0.4791 -1.0762
  122MOL0     H16771   9.024   0.097   3.691 -2.2155  0.2155  1.9602
  122MOL0     H16772   9.165   0.204   3.753  0.3381  1.5102 -0.3741
  122MOL0     H16773   9.041   0.333   3.888 -0.6229  0.6734  0.0732
  122MOL0     H16774   8.891   0.292   3.819 -0.4939 -1.2167 -0.7613
  122MOL0     H16775   8.910   0.050   3.911 -0.5663  0.4242 -2.0693
  122MOL0     H16776   9.072   0.098   3.943 -0.9043 -1.4046  2.1626
  122MOL0     H16777   8.818   0.200   4.082 -0.2528 -0.5133  2.2530
  122MOL0     H16778   8.974   0.280   4.104  1.7978 -0.4464 -1.7771
  122MOL0     H16779   8.931   0.129   4.288  0.5531  0.8970  0.8466
  122MOL0     H16780   8.916  -0.004   4.179  0.5667 -0.5410  1.6261
  122MOL0     H16781   9.177   0.132   4.155 -1.8925  1.7606  1.4623
  122MOL0     H16782   9.145  -0.042   4.164 -0.9111 -1.0090 -0.6771
  122MOL0     H16783   9.156   0.147   4.403  1.4569 -0.0930  2.3750
  122MOL0     H16784   9.086  -0.016   4.416  2.4496 -0.1384  4.3294
  122MOL0     H16785   9.259  -0.240   4.406  0.1345 -0.4285  0.7780
  122MOL0     H16786   9.569  -0.268   4.263 -3.1382  0.6733 -0.5429
  122MOL0     H16787   9.503  -0.357   4.397  0.0868 -1.5098 -0.8151
  122MOL0     H16788   9.763  -0.197   4.400 -0.5034  0.4675  0.7146
  122MOL0     H16789   9.693  -0.242   4.547 -1.5661  4.7768 -1.3324
  122MOL0     H16790   9.701  -0.487   4.467  0.2368  0.5418  0.5259
  122MOL0     H16791   9.769  -0.428   4.312  0.2895  2.7842  0.0864
  122MOL0     H16792   9.967  -0.382   4.398 -2.0924  0.2693 -1.8201
  122MOL0     H16793   9.904  -0.366   4.572 -0.5422 -4.3179  3.1501
  122MOL0     H16794   9.910  -0.482   4.755 -0.4815 -2.3686  1.5893
  122MOL0     H16795  10.023  -0.562   5.024 -1.3027 -2.5744 -3.9250
  122MOL0     H16796   9.982  -0.407   4.950 -0.5452  0.4212 -0.6966
  122MOL0     H16797  10.149  -0.430   5.001 -0.7361  2.7127 -0.2092
  122MOL0     H16798  10.531  -0.509   5.092  0.2078 -0.2588  1.6227
  122MOL0     H16799  10.692  -0.590   5.275  0.7247  0.8353  0.7973
  122MOL0     H16800  10.602  -0.980   5.475  1.0143 -0.0394  0.4756
  122MOL0     H16801  10.762  -0.925   5.451 -0.0181  0.3113 -0.3911
  122MOL0     H16802  10.734  -0.996   5.684 -2.8119 -0.9637 -0.8481
  122MOL0     H16803  10.773  -0.825   5.673 -1.6023  0.8490  0.6283
  122MOL0     H16804  10.511  -0.777   5.691 -1.2770 -0.1493  0.5394
  122MOL0     H16805  10.601  -0.819   5.842  0.9134  0.9021 -0.4901
  122MOL0     H16806  10.439  -1.024   5.678  0.9261  1.1115 -1.1294
  122MOL0     H16807  10.380  -0.922   5.803 -0.3804  0.8502 -0.6279
  122MOL0     H16808  10.607  -1.134   5.810 -1.7967 -3.4847 -1.0630
  122MOL0     H16809  10.573  -1.032   5.955  0.8424  1.1534 -1.8921
  122MOL0     H16810  10.335  -1.114   5.924 -0.3797  1.3318  0.5677
  122MOL0     H16811  10.457  -1.238   5.988  1.7819  1.5890 -0.4420
  122MOL0     H16812  10.479  -1.303   5.748  0.3552  1.1613  2.4129
  122MOL0     H16813  10.327  -1.221   5.705  0.4319  1.4735  0.3777
  122MOL0     H16814  10.355  -1.441   5.915  1.7913  2.7992  0.4600
  122MOL0     H16815  10.268  -1.450   5.753 -4.8132  0.7228  1.0989
  122MOL0     H16816  10.405  -0.854   5.422 -1.9132 -0.4281 -0.7344
  122MOL0     H16817  10.244  -0.801   5.213 -2.0525  3.4869  1.0212
  122MOL0     H16818  10.313  -0.747   4.666 -0.8522 -1.1208 -2.9034
  122MOL0     H16819  10.161  -0.703   4.481 -0.3925 -0.2689 -0.0152
  122MOL0     H16820   8.935   0.357   3.353 -1.0930  0.9377  0.8759
  122MOL0     H16821   8.944   0.500   3.176  0.0422  3.0641  0.6825
  122MOL0     H16822   9.318   0.920   3.054  0.9068 -4.9670 -2.0715
  122MOL0     H16823   9.334   1.070   2.855  0.4393 -1.1316 -0.6688
  122MOL0     H16824   9.260   1.224   2.703 -5.0229  1.0448 -0.7944
  122MOL0     H16825   9.344   1.107   2.595 -2.0544 -2.9973 -2.1864
  122MOL0     H16826   9.117   1.267   2.491  0.4541 -0.5937  2.7256
  122MOL0     H16827   9.196   1.138   2.419  2.9928  0.8512 -3.9049
  122MOL0     H16828   9.412   1.249   2.397 -1.5571 -0.5505  0.0983
  122MOL0     H16829   9.284   1.364   2.339  0.8945  1.4712 -0.2356
  122MOL0     H16830   9.464   1.485   2.471  1.5169  0.1466  1.1428
  122MOL0     H16831   9.443   1.378   2.606  0.4542  1.2078  0.2631
  122MOL0     H16832   9.096   1.619   2.624  0.0337 -2.6582  0.5285
  122MOL0     H16833   8.972   0.920   2.706  0.1758 -1.3055  0.8525
  122MOL0     H16834   8.887   0.696   2.946 -3.0666 -0.1605 -2.3034
  122MOL0     H16835   8.814   0.849   2.999 -1.2071  1.7620 -1.7109
  122MOL0     H16836   8.829   0.813   2.831  0.3398 -0.9820 -0.9984
  123MOL0     O16837  10.235   8.155   5.184 -0.5562 -0.7139  0.0586
  123MOL0     C16838  10.270   8.119   5.295 -0.0277 -0.2957  0.0347
  123MOL0     O16839  10.401   8.111   5.335 -0.4470 -0.0592 -0.3969
  123MOL0     C16840  10.491   8.144   5.247 -0.5905 -0.5617 -0.2073
  123MOL0     C16841  10.494   8.273   5.192 -0.4307  0.6956  0.2917
  123MOL0     C16842  10.590   8.313   5.106  0.4141  0.7828 -0.0325
  123MOL0     C16843  10.679   8.218   5.051 -0.0424 -0.4777 -0.3207
  123MOL0     O16844  10.780   8.250   4.961  0.5681  0.0340  0.4485
  123MOL0     C16845  10.767   8.376   4.893 -0.0300 -0.6883  0.8493
  123MOL0     C16846  10.871   8.400   4.783 -0.8245  0.2377 -0.9514
  123MOL0     C16847  11.015   8.420   4.848  0.3169  0.1994 -0.0362
  123MOL0     C16848  11.035   8.566   4.905 -0.7407  0.1476 -0.9358
  123MOL0     C16849  11.176   8.580   4.960 -0.0529 -0.0167 -0.1196
  123MOL0     C16850  11.291   8.581   4.864  0.5920  0.9061  0.0552
  123MOL0     C16851  11.418   8.587   4.949 -0.6828 -0.1590 -0.3287
  123MOL0     C16852  11.549   8.585   4.864 -0.3206  0.1216 -0.2723
  123MOL0     N16853  11.613   8.448   4.877  0.7462  0.3937 -0.3608
  123MOL0     C16854  11.729   8.430   4.947 -0.6243 -0.9652  0.2650
  123MOL0     C16855  11.747   8.293   4.955 -0.3631  0.5587 -0.4028
  123MOL0     C16856  11.879   8.238   5.015  1.3959  0.1946  0.2674
  123MOL0     C16857  11.959   8.175   4.900  0.0248  0.2639 -0.2512
  123MOL0     C16858  12.097   8.129   4.955 -0.5197  0.6110  0.8127
  123MOL0     C16859  12.184   8.056   4.844 -0.1496  0.1919 -0.3873
  123MOL0     O16860  12.233   8.160   4.771 -0.4612 -0.8946 -0.0230
  123MOL0     C16861  12.362   8.152   4.726 -0.0619  0.0827  1.4746
  123MOL0     C16862  12.420   8.029   4.687 -0.2949 -0.2745 -0.5243
  123MOL0     C16863  12.551   8.021   4.655 -0.2243  0.6485  0.0060
  123MOL0     C16864  12.588   7.883   4.615  0.7056 -0.4297 -0.0216
  123MOL0     C16865  12.640   8.136   4.668  0.1863 -0.1147  0.6170
  123MOL0     C16866  12.785   8.144   4.632  0.4125 -0.3220  0.0397
  123MOL0     O16867  12.824   8.076   4.517  0.0316  0.0955 -0.2139
  123MOL0     C16868  12.939   8.125   4.458  0.5558  0.1224  0.3494
  123MOL0     C16869  12.939   8.229   4.356  0.6605 -0.8264  0.4931
  123MOL0     C16870  13.068   8.265   4.308 -0.1762 -0.0933  0.0059
  123MOL0     C16871  13.187   8.209   4.349  0.2080 -0.0892  0.1031
  123MOL0     O16872  13.307   8.235   4.299 -0.4078 -1.1942  0.4403
  123MOL0     C16873  13.322   8.275   4.161  1.0350 -0.6284 -0.4436
  123MOL0     C16874  13.456   8.339   4.136  0.2960  0.2470  0.4782
  123MOL0     C16875  13.561   8.246   4.073  0.5765  0.7103 -0.3885
  123MOL0     C16876  13.687   8.318   4.022  0.3070  0.8196  0.0177
  123MOL0     C16877  13.765   8.371   4.140  0.3969 -0.2594 -0.7359
  123MOL0     C16878  13.872   8.476   4.081 -0.2741 -0.8227 -1.1673
  123MOL0     C16879  13.957   8.547   4.195 -0.6861  0.4059  0.6261
  123MOL0     C16880  14.068   8.639   4.137 -0.7679  0.6725 -0.7059
  123MOL0    Cl16881  13.981   8.784   4.062  0.0561  0.0105  0.2403
  123MOL0     C16882  13.188   8.098   4.440  0.4918 -1.2580 -0.8915
  123MOL0     C16883  13.061   8.062   4.491  0.5941  0.2001  0.9841
  123MOL0     O16884  12.854   8.230   4.690 -0.4494 -0.3607  0.4415
  123MOL0     C16885  12.580   8.254   4.700  0.8218 -0.1818  0.3145
  123MOL0     C16886  12.443   8.265   4.726 -0.5015  0.3061  1.0179
  123MOL0     N16887  11.648   8.230   4.889 -0.8876 -0.6095 -0.2521
  123MOL0     N16888  11.565   8.320   4.842 -0.0115 -0.8668 -0.1458
  123MOL0     C16889  10.667   8.090   5.098  0.2585 -0.6631 -1.0858
  123MOL0     C16890  10.583   8.049   5.196 -0.1954  0.5479 -0.1462
  123MOL0     C16891  10.172   8.064   5.395 -0.8322 -0.3333 -0.0985
  123MOL0     C16892  10.229   7.993   5.507 -0.6465  0.4156 -0.0130
  123MOL0     C16893  10.151   7.936   5.603 -0.5398  0.3035  0.8996
  123MOL0     C16894  10.019   7.947   5.597  0.7479 -0.1980 -0.8675
  123MOL0     O16895   9.946   7.910   5.709 -0.2064  0.8398  1.0324
  123MOL0     C16896   9.868   8.008   5.771  0.0610  1.2911 -0.4203
  123MOL0     C16897   9.877   7.972   5.924  1.0507 -0.2490 -0.3354
  123MOL0     C16898  10.026   7.963   5.978  0.7395 -0.3065  0.5593
  123MOL0     C16899  10.022   7.933   6.122 -0.5690 -0.4893 -0.8568
  123MOL0     C16900   9.963   8.047   6.204 -0.2529  1.0278 -0.4062
  123MOL0     C16901   9.903   8.113   6.284  0.6404 -0.4002  0.3452
  123MOL0     C16902   9.968   8.026   5.492 -0.4391  1.3340 -0.1828
  123MOL0     C16903  10.032   8.074   5.382 -0.2378 -1.2319 -0.3981
  123MOL0     C16904   9.952   8.157   5.281 -0.1685  1.1981 -0.2472
  123MOL0     H16905  10.410   8.337   5.218 -0.5934  1.6293 -2.2918
  123MOL0     H16906  10.589   8.419   5.083  3.4164  1.3510  1.9487
  123MOL0     H16907  10.762   8.465   4.957 -2.2899  1.3132 -1.8491
  123MOL0     H16908  10.670   8.391   4.845  0.4869 -0.8288 -0.2566
  123MOL0     H16909  10.877   8.315   4.714 -3.3203 -0.7840 -0.0062
  123MOL0     H16910  10.838   8.487   4.725 -2.7164 -0.4784 -1.0020
  123MOL0     H16911  11.043   8.351   4.928 -0.1887 -0.3944 -0.3642
  123MOL0     H16912  11.083   8.391   4.768  0.9391 -0.0062  0.5624
  123MOL0     H16913  11.025   8.651   4.836 -1.0885  1.6182  0.8395
  123MOL0     H16914  10.962   8.577   4.986  1.3274 -3.9293  1.8452
  123MOL0     H16915  11.204   8.508   5.038  3.0510  2.9569  1.7935
  123MOL0     H16916  11.176   8.682   5.000  0.4806  0.4930 -1.3706
  123MOL0     H16917  11.280   8.484   4.814  0.7173  1.5034 -1.1466
  123MOL0     H16918  11.279   8.668   4.800 -2.7652  0.8693  0.4747
  123MOL0     H16919  11.426   8.517   5.032  2.6875  1.5589  0.9714
  123MOL0     H16920  11.420   8.684   4.998 -4.4397  0.9000 -1.9151
  123MOL0     H16921  11.527   8.607   4.759  0.4567 -1.5808 -0.8304
  123MOL0     H16922  11.611   8.663   4.909 -0.0300 -0.7174  0.8476
  123MOL0     H16923  11.791   8.506   4.993  3.2112 -3.8762  0.3798
  123MOL0     H16924  11.854   8.174   5.100 -2.0227 -1.1983 -1.6113
  123MOL0     H16925  11.937   8.324   5.051  0.5301  1.2438 -0.7424
  123MOL0     H16926  11.905   8.083   4.878  0.8166  0.1374 -1.8290
  123MOL0     H16927  11.967   8.238   4.811 -2.1081 -1.5214 -1.7825
  123MOL0     H16928  12.148   8.215   5.000 -1.7209  2.1525 -0.6419
  123MOL0     H16929  12.078   8.053   5.031 -0.8119 -0.2722 -0.1238
  123MOL0     H16930  12.259   7.989   4.888 -0.3436 -0.6400 -1.2879
  123MOL0     H16931  12.114   7.996   4.785 -1.0693  0.6204  0.2409
  123MOL0     H16932  12.366   7.934   4.694  0.2775 -0.5104  1.1923
  123MOL0     H16933  12.555   7.820   4.698  1.4054 -1.8563 -0.7772
  123MOL0     H16934  12.692   7.869   4.583  0.3407 -2.6554 -0.3871
  123MOL0     H16935  12.543   7.861   4.518 -1.3293 -1.2913  1.0693
  123MOL0     H16936  12.845   8.272   4.323  0.2627 -0.8570  1.5569
  123MOL0     H16937  13.057   8.331   4.222 -0.5419 -1.2102 -0.8354
  123MOL0     H16938  13.314   8.184   4.102  2.8615 -1.0109 -0.1790
  123MOL0     H16939  13.243   8.337   4.118  1.3019 -1.6687 -2.5155
  123MOL0     H16940  13.442   8.432   4.080  0.1375 -1.2767 -2.1894
  123MOL0     H16941  13.489   8.371   4.235  1.5189 -0.1677  0.2218
  123MOL0     H16942  13.531   8.186   3.987  3.2047 -1.8312  0.2948
  123MOL0     H16943  13.583   8.173   4.151 -1.4932  3.6150  3.2499
  123MOL0     H16944  13.652   8.410   3.975 -0.5223  0.0715 -0.8753
  123MOL0     H16945  13.746   8.258   3.951  0.6611 -0.2399  1.1688
  123MOL0     H16946  13.700   8.431   4.204  3.5294  0.6692  1.8698
  123MOL0     H16947  13.821   8.297   4.199  3.5105  0.5830 -2.4092
  123MOL0     H16948  13.819   8.556   4.027  3.0383  0.3969 -2.8951
  123MOL0     H16949  13.954   8.439   4.018  1.6901 -1.5097  1.6099
  123MOL0     H16950  14.017   8.471   4.245  1.0562  0.5935 -1.0674
  123MOL0     H16951  13.899   8.605   4.267 -0.2821 -0.3108  1.5404
  123MOL0     H16952  14.128   8.585   4.064 -1.0479  0.1165 -0.5292
  123MOL0     H16953  14.136   8.672   4.217  0.8384 -3.4480 -0.1509
  123MOL0     H16954  13.285   8.050   4.452  1.4671  1.1243  1.7110
  123MOL0     H16955  13.061   7.968   4.544  2.4178 -0.8620 -0.7484
  123MOL0     H16956  12.640   8.344   4.689  1.5974 -0.9751 -2.7195
  123MOL0     H16957  12.412   8.359   4.770  3.4069  0.2541  4.4828
  123MOL0     H16958  10.739   8.022   5.053 -3.1051 -2.7601 -3.8274
  123MOL0     H16959  10.592   7.943   5.218 -2.8599  0.5731  1.5768
  123MOL0     H16960  10.333   7.976   5.530 -0.8724 -1.6622 -0.3540
  123MOL0     H16961  10.203   7.882   5.681  1.6961 -0.7248 -1.1840
  123MOL0     H16962   9.908   8.109   5.758 -0.2315  1.1391 -3.0141
  123MOL0     H16963   9.764   8.002   5.737  0.8368 -2.0563 -2.6956
  123MOL0     H16964   9.818   7.881   5.940 -1.1171  1.0277 -0.7536
  123MOL0     H16965   9.820   8.047   5.980  1.0876 -1.3098  1.2122
  123MOL0     H16966  10.082   7.882   5.931 -0.3388 -2.2102  2.3996
  123MOL0     H16967  10.071   8.063   5.968 -3.5005  1.8030  0.0878
  123MOL0     H16968  10.120   7.910   6.163 -0.6860  0.8158  0.2480
  123MOL0     H16969   9.954   7.849   6.138  2.4836 -2.9867 -0.1007
  123MOL0     H16970   9.820   8.161   6.331 -0.5353 -1.2595 -0.7565
  123MOL0     H16971   9.864   8.052   5.509 -2.6481 -4.3825 -2.6904
  123MOL0     H16972   9.964   8.266   5.291 -3.7680  1.9138 -2.0610
  123MOL0     H16973   9.980   8.124   5.181  0.5010  2.5424 -0.5277
  123MOL0     H16974   9.845   8.137   5.279 -0.1435  0.6395  1.8674
  124MOL0     O16975   7.103   6.972   7.826 -0.6905  0.2362  0.0408
  124MOL0     C16976   7.181   6.983   7.922  0.5170  0.6247 -0.4602
  124MOL0     O16977   7.302   6.911   7.927  0.8270 -0.1619 -0.6356
  124MOL0     C16978   7.336   6.846   7.813 -0.5650 -0.4938  0.6395
  124MOL0     C16979   7.281   6.723   7.789  0.3898  0.0160  0.1513
  124MOL0     C16980   7.307   6.661   7.663 -0.1115  0.7680 -0.1634
  124MOL0     C16981   7.376   6.721   7.562  0.3655 -0.5125  1.5300
  124MOL0     O16982   7.395   6.668   7.431  0.1789  0.0529  0.0912
  124MOL0     C16983   7.357   6.525   7.415  1.1101 -0.1403 -0.3343
  124MOL0     C16984   7.389   6.477   7.273 -0.3961 -0.3268 -0.2350
  124MOL0     C16985   7.318   6.538   7.154 -0.7438  0.4081 -0.5677
  124MOL0     C16986   7.369   6.462   7.037  0.6862  0.5900  0.3317
  124MOL0     C16987   7.321   6.532   6.906  0.7002  0.7392  0.3117
  124MOL0     C16988   7.419   6.639   6.871 -0.0031 -0.4751 -0.7900
  124MOL0     C16989   7.422   6.675   6.725  0.3741 -0.9872 -1.1396
  124MOL0     C16990   7.474   6.812   6.700  0.5922  1.2165 -0.0758
  124MOL0     N16991   7.444   6.850   6.560  0.3324 -0.4214  0.2885
  124MOL0     C16992   7.333   6.927   6.523 -0.1668 -0.5809  0.0877
  124MOL0     C16993   7.344   6.928   6.390  0.6256  0.0181 -0.2873
  124MOL0     C16994   7.251   6.988   6.282  0.1624  0.2210 -0.9275
  124MOL0     C16995   7.339   7.055   6.176  0.7431 -0.6358  0.2095
  124MOL0     C16996   7.405   7.192   6.224  0.1349 -1.0074  0.7056
  124MOL0     C16997   7.467   7.272   6.106 -0.6284 -0.8629  1.3926
  124MOL0     O16998   7.578   7.350   6.146  0.1530  1.0312 -0.5313
  124MOL0     C16999   7.544   7.475   6.190  0.1327  0.2147  0.6025
  124MOL0     C17000   7.543   7.513   6.321  0.5259 -0.0011  0.5363
  124MOL0     C17001   7.533   7.649   6.365 -0.7797 -0.0065  0.8279
  124MOL0     C17002   7.557   7.666   6.514 -0.0594  0.5425 -0.4390
  124MOL0     C17003   7.494   7.746   6.264 -0.6591  0.4558  0.5174
  124MOL0     C17004   7.472   7.891   6.291 -0.1602  0.2474 -0.4747
  124MOL0     O17005   7.399   7.960   6.197 -0.3984  0.6533  0.3221
  124MOL0     C17006   7.399   8.092   6.187  0.7434 -0.3217  0.5899
  124MOL0     C17007   7.288   8.134   6.120  0.2289  0.5904  0.3016
  124MOL0     C17008   7.261   8.261   6.079  0.0680  0.5373 -0.1781
  124MOL0     C17009   7.354   8.361   6.110 -0.4992  0.0543 -0.2042
  124MOL0     O17010   7.337   8.486   6.054 -0.2605 -0.0544 -0.3552
  124MOL0     C17011   7.283   8.573   6.155  0.3089  1.1297  0.0521
  124MOL0     C17012   7.230   8.692   6.088 -0.4050  0.1075  0.2358
  124MOL0     C17013   7.139   8.773   6.185  0.4739  0.0662  0.2680
  124MOL0     C17014   7.107   8.918   6.135  0.7514 -1.6241  0.4539
  124MOL0     C17015   7.228   9.011   6.132  1.2176  0.2522  0.4692
  124MOL0     C17016   7.181   9.160   6.109  0.7031 -0.9936  0.1124
  124MOL0     C17017   7.293   9.257   6.143  0.1549 -0.9913  0.4827
  124MOL0     C17018   7.387   9.288   6.020 -0.5681 -0.3720 -0.3667
  124MOL0    Cl17019   7.311   9.380   5.888  0.2817 -0.1311  0.5055
  124MOL0     C17020   7.470   8.320   6.182  0.1321 -0.8392  0.7684
  124MOL0     C17021   7.491   8.187   6.223  0.5328  0.3532  0.5982
  124MOL0     O17022   7.527   7.943   6.386  0.0639 -0.3830  0.4558
  124MOL0     C17023   7.481   7.698   6.130 -0.6997 -0.1507  1.0166
  124MOL0     C17024   7.519   7.574   6.095  0.6085 -0.1431 -0.5507
  124MOL0     N17025   7.453   6.857   6.351 -0.0521 -0.8548  0.1463
  124MOL0     N17026   7.510   6.809   6.449  0.5136  0.2172 -0.2439
  124MOL0     C17027   7.429   6.847   7.579 -0.2306 -0.1113 -0.0507
  124MOL0     C17028   7.419   6.902   7.710  1.1653 -0.6354 -0.0768
  124MOL0     C17029   7.141   7.059   8.045 -0.6986 -0.0202  0.0550
  124MOL0     C17030   7.203   7.029   8.165 -0.7037  0.2766  0.2617
  124MOL0     C17031   7.150   7.076   8.284 -0.2197 -0.7109  1.1997
  124MOL0     C17032   7.040   7.165   8.293 -0.2409 -0.3117 -0.7208
  124MOL0     O17033   7.001   7.209   8.415 -0.5560 -0.0905  0.1994
  124MOL0     C17034   6.917   7.321   8.421 -0.6606  0.2684  0.8115
  124MOL0     C17035   6.933   7.388   8.552  0.7286 -0.4056  0.2667
  124MOL0     C17036   6.894   7.295   8.663 -0.3266 -0.1260  0.1284
  124MOL0     C17037   6.961   7.343   8.802 -0.8555 -0.4621 -0.0904
  124MOL0     C17038   6.915   7.253   8.909 -0.2927 -0.7689  0.9348
  124MOL0     C17039   6.876   7.183   9.004  0.5433  0.3033 -0.1871
  124MOL0     C17040   6.985   7.199   8.169 -0.2938 -0.0844  0.0591
  124MOL0     C17041   7.034   7.150   8.041 -0.5292 -1.1412 -0.4561
  124MOL0     C17042   6.964   7.199   7.919  0.3715 -0.8493 -0.2367
  124MOL0     H17043   7.231   6.675   7.873 -3.5947  1.1643 -1.3180
  124MOL0     H17044   7.273   6.560   7.645  1.2178  0.0982  0.8486
  124MOL0     H17045   7.248   6.527   7.407  1.1187  4.3025 -2.7580
  124MOL0     H17046   7.402   6.456   7.487  2.6521  1.7415  0.6215
  124MOL0     H17047   7.498   6.470   7.259 -0.3779 -0.8175  0.1347
  124MOL0     H17048   7.368   6.370   7.270  1.8883 -0.8188 -1.3316
  124MOL0     H17049   7.210   6.518   7.162 -0.7086  0.4453  0.0590
  124MOL0     H17050   7.338   6.645   7.152  0.1712  0.2808  0.4892
  124MOL0     H17051   7.475   6.450   7.062  0.5648  0.1671  0.6514
  124MOL0     H17052   7.319   6.365   7.031 -2.4448  1.8836  2.2976
  124MOL0     H17053   7.218   6.569   6.911  0.0731 -1.0123  1.2498
  124MOL0     H17054   7.328   6.452   6.832 -1.0981 -1.2159  2.1194
  124MOL0     H17055   7.393   6.727   6.930 -1.7424  1.4287 -4.0651
  124MOL0     H17056   7.520   6.610   6.903 -0.9705 -1.7043  1.3772
  124MOL0     H17057   7.321   6.667   6.684 -1.1273 -1.1200  2.2751
  124MOL0     H17058   7.486   6.601   6.676 -1.6221 -3.1082 -0.7387
  124MOL0     H17059   7.443   6.883   6.777  0.4090 -1.6005  2.6350
  124MOL0     H17060   7.584   6.805   6.705  0.4678 -0.5015  1.1770
  124MOL0     H17061   7.264   6.988   6.579 -1.8776 -0.7403 -1.7494
  124MOL0     H17062   7.177   7.056   6.324  1.6488  2.0118 -1.0764
  124MOL0     H17063   7.194   6.904   6.241 -1.1133 -0.2278  1.5812
  124MOL0     H17064   7.414   6.980   6.149 -0.6392 -2.0222  0.0867
  124MOL0     H17065   7.276   7.088   6.093  0.1504  1.4417  1.4137
  124MOL0     H17066   7.325   7.251   6.268 -0.9950 -1.5561 -0.5283
  124MOL0     H17067   7.483   7.174   6.299 -0.2251  0.4516  1.4664
  124MOL0     H17068   7.497   7.200   6.029 -0.6777 -0.9387  1.4442
  124MOL0     H17069   7.392   7.339   6.063  1.5698 -0.5143 -2.4113
  124MOL0     H17070   7.571   7.429   6.383  0.3354 -1.1544 -0.8700
  124MOL0     H17071   7.599   7.583   6.571 -0.6871  2.0652  2.4500
  124MOL0     H17072   7.456   7.672   6.555 -0.5677 -3.2210 -0.7849
  124MOL0     H17073   7.605   7.760   6.544 -0.0797  0.6042 -0.5976
  124MOL0     H17074   7.224   8.056   6.080  2.6521 -1.1816 -0.4286
  124MOL0     H17075   7.177   8.285   6.014  0.8206  2.5111 -0.4855
  124MOL0     H17076   7.205   8.514   6.203 -0.1291  2.2416  0.7357
  124MOL0     H17077   7.371   8.585   6.219  1.3360  0.0059 -1.0854
  124MOL0     H17078   7.310   8.756   6.049 -1.0371 -0.4198 -2.0706
  124MOL0     H17079   7.168   8.663   6.002 -0.3061 -2.6365  0.9805
  124MOL0     H17080   7.179   8.785   6.287  0.2768 -2.2147  0.6544
  124MOL0     H17081   7.050   8.711   6.195  1.7809 -1.6211  2.3573
  124MOL0     H17082   7.047   8.965   6.214 -1.5259  1.6396 -2.9146
  124MOL0     H17083   7.040   8.921   6.049  0.4437  0.3026  0.7299
  124MOL0     H17084   7.277   9.006   6.229 -0.4361 -1.6215  1.2716
  124MOL0     H17085   7.296   8.976   6.054  0.6045  2.4986 -1.2106
  124MOL0     H17086   7.091   9.184   6.166 -0.3550 -1.2809 -1.3615
  124MOL0     H17087   7.167   9.166   6.000  1.2563 -2.9116 -0.1048
  124MOL0     H17088   7.356   9.217   6.223 -0.2333  0.4163  1.5225
  124MOL0     H17089   7.245   9.350   6.174 -2.2358 -1.3576 -1.7065
  124MOL0     H17090   7.427   9.191   5.989  1.7072  0.2895  0.3125
  124MOL0     H17091   7.466   9.357   6.050 -1.3270  0.4817 -0.3125
  124MOL0     H17092   7.551   8.391   6.197  0.1997 -0.7331 -0.0429
  124MOL0     H17093   7.579   8.161   6.281 -0.7973 -2.2220  1.5975
  124MOL0     H17094   7.450   7.755   6.043 -0.6428  0.0650  1.1348
  124MOL0     H17095   7.525   7.562   5.987  4.1160  1.8130 -0.7447
  124MOL0     H17096   7.484   6.891   7.495 -1.6497  3.1646  0.5940
  124MOL0     H17097   7.462   6.999   7.732  0.6433 -0.5059  0.3889
  124MOL0     H17098   7.295   6.972   8.162 -2.4960 -2.8423 -2.3032
  124MOL0     H17099   7.203   7.053   8.375  1.7779  0.4087  0.3879
  124MOL0     H17100   6.938   7.394   8.341 -3.0639 -1.8858 -2.0540
  124MOL0     H17101   6.811   7.293   8.411 -1.1927  1.5456  2.3757
  124MOL0     H17102   6.860   7.470   8.558 -0.2662 -1.2678  0.1794
  124MOL0     H17103   7.028   7.440   8.568 -0.3398  1.3700  1.2549
  124MOL0     H17104   6.787   7.297   8.683 -0.2323  2.3394  0.8029
  124MOL0     H17105   6.930   7.194   8.640 -1.0928 -0.0563 -1.4805
  124MOL0     H17106   6.924   7.443   8.825  1.7095  0.2301  1.3162
  124MOL0     H17107   7.070   7.352   8.802 -0.6192 -1.8207 -3.0670
  124MOL0     H17108   6.835   7.124   9.083  1.4579  1.7392  1.4194
  124MOL0     H17109   6.905   7.272   8.168 -1.0494 -0.7671  2.5764
  124MOL0     H17110   7.040   7.220   7.842 -2.6991  1.5050 -2.8752
  124MOL0     H17111   6.904   7.124   7.867 -1.1612 -0.4898  0.9673
  124MOL0     H17112   6.897   7.283   7.940 -1.0984 -1.6922 -1.4017
  125MOL0     O17113   1.308   0.879   7.321  0.5583 -0.4159  0.4940
  125MOL0     C17114   1.374   0.983   7.329 -0.4298  0.3215  0.0514
  125MOL0     O17115   1.452   1.028   7.225 -1.4396 -0.1182  0.2674
  125MOL0     C17116   1.489   0.950   7.116  0.0352 -0.4202  0.5945
  125MOL0     C17117   1.471   0.812   7.085  0.4993 -0.3730 -0.9183
  125MOL0     C17118   1.495   0.757   6.960  0.7259 -0.5923  0.4090
  125MOL0     C17119   1.550   0.833   6.862 -0.4868 -0.6840 -0.2646
  125MOL0     O17120   1.575   0.769   6.740 -0.1247 -0.6197  0.0131
  125MOL0     C17121   1.627   0.836   6.633 -1.2734  0.1109  0.2637
  125MOL0     C17122   1.633   0.749   6.509 -0.5954  0.8745  0.1247
  125MOL0     C17123   1.511   0.759   6.420 -0.1818 -0.7192  0.8829
  125MOL0     C17124   1.504   0.670   6.297  0.8373  0.2646  0.4716
  125MOL0     C17125   1.499   0.517   6.336 -0.1003 -0.5657 -0.6588
  125MOL0     C17126   1.479   0.427   6.217 -0.3696 -0.5710  0.0479
  125MOL0     C17127   1.473   0.275   6.240 -0.2242  0.0453 -0.1913
  125MOL0     C17128   1.353   0.238   6.331  0.3537 -0.6285 -0.0466
  125MOL0     N17129   1.406   0.190   6.465 -0.2262 -0.4156  0.7318
  125MOL0     C17130   1.435   0.281   6.564 -0.0308 -0.2457  0.0584
  125MOL0     C17131   1.509   0.214   6.653  0.1214 -0.9264 -0.9882
  125MOL0     C17132   1.573   0.263   6.789 -0.5859  0.3514 -0.6696
  125MOL0     C17133   1.704   0.342   6.763 -0.5518 -0.9160  0.1934
  125MOL0     C17134   1.743   0.433   6.879  1.5558  0.3009 -1.1043
  125MOL0     C17135   1.854   0.522   6.846  0.3750 -0.1382  0.3903
  125MOL0     O17136   1.971   0.445   6.845 -1.0102  0.6844 -0.2101
  125MOL0     C17137   2.098   0.500   6.813 -0.2024 -0.5134 -0.3462
  125MOL0     C17138   2.114   0.643   6.810 -0.5576  0.2426  0.1887
  125MOL0     C17139   2.237   0.705   6.797  0.5022  0.8469  0.9693
  125MOL0     C17140   2.240   0.850   6.829  0.4123  0.0760  0.5585
  125MOL0     C17141   2.347   0.622   6.775 -0.1413 -0.1022 -0.4258
  125MOL0     C17142   2.488   0.662   6.766  0.8814  0.3587  0.3079
  125MOL0     O17143   2.584   0.573   6.815 -0.4185 -0.0332  0.1651
  125MOL0     C17144   2.716   0.599   6.805  0.3686 -0.0308 -0.4475
  125MOL0     C17145   2.766   0.686   6.716  0.1743  0.2519  0.1579
  125MOL0     C17146   2.908   0.706   6.715  0.7486 -0.2309  0.2193
  125MOL0     C17147   2.995   0.637   6.803  0.6370 -0.8472 -0.3967
  125MOL0     O17148   3.127   0.668   6.812 -0.4620  0.3983  0.1214
  125MOL0     C17149   3.184   0.781   6.739  0.0942  0.7962 -0.8332
  125MOL0     C17150   3.321   0.806   6.787 -0.9030 -0.1722  0.3086
  125MOL0     C17151   3.420   0.738   6.695 -0.1922 -0.1604  0.1733
  125MOL0     C17152   3.560   0.744   6.759  0.1047 -0.9319  1.0930
  125MOL0     C17153   3.680   0.734   6.663  0.0790  0.1578  0.5490
  125MOL0     C17154   3.805   0.774   6.749 -0.4693 -0.1735  0.6985
  125MOL0     C17155   3.830   0.928   6.775  0.1495 -0.4741  0.3659
  125MOL0     C17156   3.849   1.016   6.647 -0.0575 -0.2647 -0.4374
  125MOL0    Cl17157   3.891   1.193   6.705 -0.3083 -0.0454 -0.4314
  125MOL0     C17158   2.948   0.542   6.891  0.2238  1.0034 -0.0364
  125MOL0     C17159   2.808   0.517   6.888  0.2912 -0.0990 -0.1052
  125MOL0     O17160   2.507   0.782   6.739  0.3596  0.1243  0.9373
  125MOL0     C17161   2.329   0.487   6.758  0.2148 -0.6845  0.1795
  125MOL0     C17162   2.207   0.428   6.769  0.7444  0.8519 -0.3090
  125MOL0     N17163   1.529   0.080   6.603  0.1303 -0.7636  0.6237
  125MOL0     N17164   1.462   0.069   6.490 -0.2767 -0.2669  0.4454
  125MOL0     C17165   1.591   0.959   6.897  0.0060  0.2867 -0.6990
  125MOL0     C17166   1.564   1.019   7.017  0.1355 -0.3984 -0.8735
  125MOL0     C17167   1.349   1.084   7.435 -0.6647  0.2396 -0.3177
  125MOL0     C17168   1.455   1.156   7.489  0.6552 -0.1891 -0.4643
  125MOL0     C17169   1.449   1.242   7.605  0.6916 -0.6243  0.3049
  125MOL0     C17170   1.325   1.259   7.670 -0.0852  0.0948 -0.2088
  125MOL0     O17171   1.299   1.345   7.777  0.1028 -0.3836  0.3239
  125MOL0     C17172   1.397   1.357   7.888 -0.7166 -1.9404  0.4976
  125MOL0     C17173   1.465   1.225   7.914 -0.9433 -0.7776  0.0203
  125MOL0     C17174   1.543   1.243   8.044  0.4101 -0.3621  0.7122
  125MOL0     C17175   1.624   1.117   8.088 -0.3615 -0.8863  0.0031
  125MOL0     C17176   1.711   1.143   8.200  0.8895  0.2352 -0.4194
  125MOL0     C17177   1.770   1.180   8.298 -0.2017  0.7447 -1.0792
  125MOL0     C17178   1.222   1.184   7.618  0.0114 -0.3272 -0.6892
  125MOL0     C17179   1.225   1.097   7.507  0.3803 -1.0948 -0.0065
  125MOL0     C17180   1.109   1.032   7.455 -0.1674  0.3921  0.3719
  125MOL0     H17181   1.411   0.750   7.151  0.0213 -1.0084 -1.9200
  125MOL0     H17182   1.482   0.652   6.934 -0.5690 -0.2229 -0.5002
  125MOL0     H17183   1.732   0.863   6.650 -1.1483  0.7197 -1.3045
  125MOL0     H17184   1.570   0.925   6.606 -1.0561  0.8174  2.0157
  125MOL0     H17185   1.719   0.771   6.445 -0.6921  0.8796 -0.0040
  125MOL0     H17186   1.642   0.647   6.547 -2.0706  0.1506 -1.3444
  125MOL0     H17187   1.431   0.735   6.491 -0.5500  1.5664  1.3329
  125MOL0     H17188   1.489   0.857   6.376 -0.6068  0.4684  3.5393
  125MOL0     H17189   1.420   0.702   6.235  0.8118  0.1884  0.4661
  125MOL0     H17190   1.591   0.683   6.232 -0.1408 -2.3807 -1.5015
  125MOL0     H17191   1.406   0.507   6.394  0.0190 -0.4219 -0.4427
  125MOL0     H17192   1.582   0.485   6.399 -1.3851  0.1574  1.4886
  125MOL0     H17193   1.384   0.451   6.168 -0.9917 -0.4499  1.2948
  125MOL0     H17194   1.565   0.442   6.151  0.9369 -1.0940  1.5770
  125MOL0     H17195   1.567   0.229   6.273  1.3658  0.8305 -3.2285
  125MOL0     H17196   1.471   0.235   6.138  2.7333  3.1638 -1.6591
  125MOL0     H17197   1.287   0.323   6.351 -0.8909 -1.5779  0.0157
  125MOL0     H17198   1.293   0.159   6.286  0.4656  0.5786 -2.4457
  125MOL0     H17199   1.394   0.380   6.575  2.3180  0.8955 -0.6906
  125MOL0     H17200   1.590   0.170   6.844 -1.3990  0.5565 -0.0437
  125MOL0     H17201   1.493   0.318   6.839  0.2361  1.2732 -0.3329
  125MOL0     H17202   1.786   0.274   6.738  1.4370  1.1436  0.7596
  125MOL0     H17203   1.690   0.416   6.684  1.7870  0.7434  1.1986
  125MOL0     H17204   1.657   0.498   6.900  0.4271 -1.3353 -0.4816
  125MOL0     H17205   1.760   0.378   6.972  0.7980  1.9368  0.0513
  125MOL0     H17206   1.852   0.569   6.747  1.7163  0.4873  0.6530
  125MOL0     H17207   1.856   0.600   6.922 -1.8059  0.8095 -0.4451
  125MOL0     H17208   2.032   0.713   6.823  1.8809  3.3399  0.1235
  125MOL0     H17209   2.136   0.883   6.815 -0.2201 -2.8100 -2.9496
  125MOL0     H17210   2.298   0.914   6.762  2.3731  0.0138  2.1291
  125MOL0     H17211   2.275   0.859   6.932  1.8639 -6.7721  1.1234
  125MOL0     H17212   2.704   0.743   6.648  0.1852  0.3687  0.2464
  125MOL0     H17213   2.952   0.776   6.643  0.3186 -0.9557 -0.7672
  125MOL0     H17214   3.183   0.771   6.630  2.1764  0.0391 -0.8176
  125MOL0     H17215   3.130   0.869   6.776 -0.3464  0.0672  0.3162
  125MOL0     H17216   3.343   0.913   6.779  0.3460 -0.5086 -1.1729
  125MOL0     H17217   3.342   0.779   6.891 -1.6030  3.1808  1.4594
  125MOL0     H17218   3.426   0.795   6.602  0.6585 -1.6839 -0.7403
  125MOL0     H17219   3.387   0.634   6.685 -1.8943  0.4177 -0.6208
  125MOL0     H17220   3.583   0.680   6.844  1.2503  0.7992  2.1653
  125MOL0     H17221   3.571   0.842   6.806 -0.7877  0.4468 -1.3650
  125MOL0     H17222   3.687   0.635   6.616 -2.1836  0.8705 -1.5071
  125MOL0     H17223   3.673   0.806   6.580  0.7694  0.0225  0.3634
  125MOL0     H17224   3.898   0.751   6.695  0.1156  0.5351  1.3698
  125MOL0     H17225   3.793   0.708   6.836 -2.4936 -4.1786 -2.2480
  125MOL0     H17226   3.920   0.941   6.835 -1.1104 -3.2658  3.1074
  125MOL0     H17227   3.748   0.977   6.828 -0.1612  1.8815 -2.0166
  125MOL0     H17228   3.760   1.025   6.584 -0.6664  3.6967  0.6792
  125MOL0     H17229   3.939   0.987   6.592  1.2433 -1.5616  2.1913
  125MOL0     H17230   3.022   0.493   6.954  1.0954  2.2810 -0.0224
  125MOL0     H17231   2.749   0.455   6.955 -0.8542  0.8880 -0.1515
  125MOL0     H17232   2.415   0.427   6.731  0.8159 -0.4179  1.4491
  125MOL0     H17233   2.185   0.324   6.744 -0.0103  1.0822 -0.6494
  125MOL0     H17234   1.640   1.009   6.815  2.0757 -3.2160 -1.7886
  125MOL0     H17235   1.601   1.120   7.026  0.0381 -0.4303 -0.0773
  125MOL0     H17236   1.550   1.126   7.445 -0.1226 -2.2913 -0.8453
  125MOL0     H17237   1.529   1.309   7.634 -0.4387  1.5033 -1.1932
  125MOL0     H17238   1.468   1.438   7.867 -2.0289  0.4140  4.1247
  125MOL0     H17239   1.351   1.387   7.983 -0.5720 -0.4141  0.1168
  125MOL0     H17240   1.521   1.201   7.824  0.1128  0.7634  0.2252
  125MOL0     H17241   1.399   1.144   7.945  1.2443 -2.5604  0.2710
  125MOL0     H17242   1.615   1.325   8.041  0.3133 -0.2496  1.2854
  125MOL0     H17243   1.473   1.265   8.125  0.2728 -2.2673  1.1509
  125MOL0     H17244   1.684   1.073   8.008  0.7057 -0.1766  0.3899
  125MOL0     H17245   1.555   1.051   8.142  0.0141 -0.4239  1.0731
  125MOL0     H17246   1.819   1.215   8.387 -0.0426 -2.8049  0.3900
  125MOL0     H17247   1.133   1.217   7.671 -1.8900 -1.4706 -2.9336
  125MOL0     H17248   1.106   1.029   7.345 -1.1932 -0.3961  0.4019
  125MOL0     H17249   1.118   0.929   7.492  2.3624  0.2234 -0.4820
  125MOL0     H17250   1.011   1.073   7.479  0.5222  1.5838  1.2095
  126MOL0     O17251  10.252   6.607   4.425 -0.5975 -0.3419  0.0188
  126MOL0     C17252  10.306   6.531   4.501  0.1191 -0.0348  0.1047
  126MOL0     O17253  10.235   6.446   4.587 -0.8586 -0.3669 -0.3118
  126MOL0     C17254  10.105   6.457   4.569 -0.5555 -0.7142  0.6591
  126MOL0     C17255  10.032   6.519   4.679  0.1510  0.1298 -0.2056
  126MOL0     C17256   9.891   6.524   4.674 -0.2179 -0.3012  0.4417
  126MOL0     C17257   9.818   6.458   4.572 -1.2390 -0.4688  0.1877
  126MOL0     O17258   9.682   6.446   4.584 -0.4109 -0.0822 -0.1544
  126MOL0     C17259   9.600   6.357   4.510  0.6364  0.5374 -0.2377
  126MOL0     C17260   9.483   6.302   4.600 -0.4009 -1.2769  0.1191
  126MOL0     C17261   9.424   6.402   4.702  1.1033  1.0538  0.2357
  126MOL0     C17262   9.323   6.345   4.799 -0.5657 -0.3571  0.2837
  126MOL0     C17263   9.235   6.443   4.871 -0.4411  0.6210  0.4960
  126MOL0     C17264   9.157   6.368   4.984 -0.0385  0.3384 -0.0798
  126MOL0     C17265   9.089   6.480   5.062  0.6712 -0.0938 -0.7871
  126MOL0     C17266   8.974   6.554   4.987 -0.6971  0.2147 -0.3725
  126MOL0     N17267   8.912   6.649   5.084 -0.7901  0.9565  0.4069
  126MOL0     C17268   8.927   6.781   5.079  0.3167 -0.4738 -0.6355
  126MOL0     C17269   8.830   6.814   5.180 -0.6012 -0.1323  0.2567
  126MOL0     C17270   8.790   6.961   5.214 -0.2020  0.8325  0.8167
  126MOL0     C17271   8.760   7.042   5.089  0.2915  0.1541 -1.1162
  126MOL0     C17272   8.720   7.186   5.115 -0.5411  0.2301  0.0966
  126MOL0     C17273   8.574   7.195   5.156  0.5197  0.4966 -0.8457
  126MOL0     O17274   8.512   7.320   5.173  0.4128  0.5973 -0.1438
  126MOL0     C17275   8.457   7.381   5.066  0.5626 -0.6464  0.4461
  126MOL0     C17276   8.422   7.518   5.079 -0.0986  0.0109 -0.3990
  126MOL0     C17277   8.389   7.595   4.968 -0.2359  0.4637 -0.4188
  126MOL0     C17278   8.368   7.741   4.983 -0.2914 -0.2257  0.2374
  126MOL0     C17279   8.358   7.530   4.843  0.5466 -0.4018  0.0202
  126MOL0     C17280   8.295   7.596   4.731  0.7423 -0.4287  0.1589
  126MOL0     O17281   8.216   7.714   4.755  0.0163  0.0429 -0.0449
  126MOL0     C17282   8.165   7.775   4.647  0.3614 -0.2304  0.5161
  126MOL0     C17283   8.235   7.870   4.576 -0.2452  0.1235 -0.1830
  126MOL0     C17284   8.187   7.917   4.454  0.8645  0.8803 -0.4567
  126MOL0     C17285   8.050   7.882   4.406  0.4514  0.9193 -0.5921
  126MOL0     O17286   7.994   7.938   4.291 -0.3211 -0.3354 -1.0004
  126MOL0     C17287   8.029   8.074   4.253 -0.3955  0.5457  0.2099
  126MOL0     C17288   7.960   8.129   4.133 -0.3386 -0.1234  0.0984
  126MOL0     C17289   7.813   8.168   4.163  0.3827  0.1216  0.3465
  126MOL0     C17290   7.744   8.187   4.025  0.0370  0.1281 -0.2442
  126MOL0     C17291   7.650   8.305   4.029 -0.2288 -0.3779  0.3630
  126MOL0     C17292   7.573   8.323   3.900 -0.0279 -0.0527  0.1582
  126MOL0     C17293   7.664   8.337   3.778  0.2144  0.5692 -0.9668
  126MOL0     C17294   7.607   8.405   3.660  0.6897  0.5719 -0.8801
  126MOL0    Cl17295   7.457   8.313   3.597  0.0070 -0.2000  0.3109
  126MOL0     C17296   7.980   7.786   4.483 -0.1931  0.0251  0.0228
  126MOL0     C17297   8.037   7.739   4.605  0.4895  0.2741  0.5101
  126MOL0     O17298   8.286   7.533   4.629  0.0117 -0.3166  0.4278
  126MOL0     C17299   8.389   7.394   4.836  0.3866 -0.0750  0.3951
  126MOL0     C17300   8.441   7.319   4.940  0.4034  0.1918  0.6629
  126MOL0     N17301   8.755   6.706   5.225 -0.1887  0.5243  0.2993
  126MOL0     N17302   8.815   6.610   5.170 -0.0803  0.4677 -0.0622
  126MOL0     C17303   9.896   6.402   4.467  0.3430  0.7460 -0.2760
  126MOL0     C17304  10.035   6.409   4.462  1.8157 -0.8366 -0.5503
  126MOL0     C17305  10.461   6.524   4.514 -0.2724 -0.5058  0.1264
  126MOL0     C17306  10.527   6.434   4.603  0.8453 -0.2985  0.1931
  126MOL0     C17307  10.659   6.417   4.614 -0.3799  0.7992  0.1748
  126MOL0     C17308  10.750   6.493   4.545  0.7173 -0.7196 -0.1831
  126MOL0     O17309  10.887   6.473   4.564  0.1956  0.0555 -0.0658
  126MOL0     C17310  10.987   6.531   4.478 -1.0939 -0.0830 -0.3600
  126MOL0     C17311  11.106   6.439   4.463  0.8987 -0.0717 -0.8260
  126MOL0     C17312  11.212   6.495   4.367  0.8553 -1.1612 -0.1728
  126MOL0     C17313  11.337   6.411   4.375 -0.6188 -0.0357  0.4674
  126MOL0     C17314  11.422   6.423   4.255 -0.3532 -0.5655 -0.0810
  126MOL0     C17315  11.483   6.430   4.152 -0.0537 -1.3165 -0.3173
  126MOL0     C17316  10.698   6.595   4.463 -1.0747  0.4714 -0.1212
  126MOL0     C17317  10.557   6.613   4.440  0.1091 -0.8570 -0.9893
  126MOL0     C17318  10.504   6.731   4.360  0.0593 -0.8439 -0.1825
  126MOL0     H17319  10.085   6.572   4.757 -0.9225  1.0824 -0.0871
  126MOL0     H17320   9.849   6.579   4.758 -0.8306  1.4845 -0.9811
  126MOL0     H17321   9.648   6.264   4.479 -3.6347 -1.9581 -0.0436
  126MOL0     H17322   9.563   6.407   4.421  1.1103 -0.1143 -0.8146
  126MOL0     H17323   9.409   6.261   4.530 -0.0511 -1.1021 -0.3585
  126MOL0     H17324   9.528   6.227   4.665  0.1218 -0.0523  1.2257
  126MOL0     H17325   9.503   6.455   4.756  0.3515  1.7037  0.7381
  126MOL0     H17326   9.376   6.477   4.638  3.9612  0.3567 -2.9948
  126MOL0     H17327   9.264   6.274   4.740 -0.9370  0.1628  0.0182
  126MOL0     H17328   9.361   6.278   4.876  0.5741  0.9368  0.8867
  126MOL0     H17329   9.164   6.483   4.799 -3.0892 -2.0535  1.4404
  126MOL0     H17330   9.299   6.514   4.925  1.4957 -2.1211  2.0370
  126MOL0     H17331   9.091   6.295   4.937  1.6503 -0.5964 -1.0826
  126MOL0     H17332   9.230   6.329   5.055 -0.8844  2.3383  2.0356
  126MOL0     H17333   9.153   6.556   5.107 -0.8414  0.2629  0.8872
  126MOL0     H17334   9.044   6.431   5.149  2.3339 -2.6957 -1.3088
  126MOL0     H17335   9.014   6.602   4.897  1.6915 -2.8646 -1.1108
  126MOL0     H17336   8.897   6.479   4.967 -0.4424 -0.6761  1.7269
  126MOL0     H17337   8.994   6.844   5.022  2.3175 -3.2087 -1.5195
  126MOL0     H17338   8.881   7.000   5.260 -1.5772  2.2530  2.5144
  126MOL0     H17339   8.706   6.956   5.285 -0.5334 -0.9643  0.3471
  126MOL0     H17340   8.852   7.045   5.030  1.8239 -2.0451  0.9708
  126MOL0     H17341   8.684   6.989   5.031  1.9659 -3.3401 -0.3537
  126MOL0     H17342   8.784   7.233   5.191 -2.2586  1.9921  0.5379
  126MOL0     H17343   8.713   7.240   5.020 -3.2596  0.5555  0.3903
  126MOL0     H17344   8.517   7.129   5.090 -2.3062  0.0278  1.8489
  126MOL0     H17345   8.565   7.147   5.254 -2.9008  2.8990  0.2183
  126MOL0     H17346   8.436   7.570   5.173  1.2598 -0.1745 -0.4778
  126MOL0     H17347   8.418   7.777   5.074 -1.8487 -2.1306  1.9549
  126MOL0     H17348   8.264   7.763   5.008 -0.3152 -0.4838  0.3757
  126MOL0     H17349   8.399   7.801   4.897 -3.6352  0.7533 -0.4217
  126MOL0     H17350   8.333   7.898   4.612 -0.4175 -0.8983  1.1348
  126MOL0     H17351   8.241   7.977   4.382 -1.7438  0.4397 -2.9469
  126MOL0     H17352   8.013   8.132   4.344 -0.1374  2.0479 -0.6694
  126MOL0     H17353   8.136   8.067   4.232 -0.6387 -3.0119 -0.4528
  126MOL0     H17354   8.019   8.219   4.116 -0.0850  0.4311  3.2586
  126MOL0     H17355   7.971   8.071   4.041  1.7018 -1.4954  1.1213
  126MOL0     H17356   7.805   8.251   4.234  0.2809 -1.9380  2.8849
  126MOL0     H17357   7.753   8.089   4.208 -1.8772  1.1304 -0.7358
  126MOL0     H17358   7.680   8.103   3.996  0.9821 -0.1185 -1.7280
  126MOL0     H17359   7.823   8.179   3.950  1.0187 -1.0376  0.8665
  126MOL0     H17360   7.579   8.296   4.112 -1.1423  0.7810 -0.2493
  126MOL0     H17361   7.705   8.397   4.052  0.5606 -1.1522  1.6577
  126MOL0     H17362   7.517   8.417   3.900  1.4673  0.8933 -1.1977
  126MOL0     H17363   7.497   8.245   3.902  0.1099 -0.1801  0.6362
  126MOL0     H17364   7.695   8.235   3.751 -2.6538 -0.6448 -0.0701
  126MOL0     H17365   7.753   8.398   3.798  0.0969  0.4500 -0.0111
  126MOL0     H17366   7.687   8.422   3.588  3.1850  2.4847  2.1099
  126MOL0     H17367   7.561   8.499   3.693  1.4903  0.3662  0.9362
  126MOL0     H17368   7.887   7.751   4.440 -0.5543  0.2250  0.6421
  126MOL0     H17369   7.977   7.665   4.657 -1.3336  1.9548  0.9110
  126MOL0     H17370   8.385   7.344   4.739  0.3302  0.3092  0.1983
  126MOL0     H17371   8.476   7.221   4.911 -2.0484 -0.0225 -1.9554
  126MOL0     H17372   9.853   6.359   4.376  0.4070  1.9833 -0.9136
  126MOL0     H17373  10.089   6.385   4.371  0.9362  1.8629 -1.8915
  126MOL0     H17374  10.457   6.378   4.663 -0.9672  0.6998 -0.8890
  126MOL0     H17375  10.692   6.343   4.686 -0.3322 -1.5052 -2.0673
  126MOL0     H17376  10.952   6.532   4.375  0.8371 -1.0047 -1.0819
  126MOL0     H17377  11.006   6.631   4.518  0.0059 -0.0009 -1.0579
  126MOL0     H17378  11.065   6.350   4.416 -1.0322  1.6553 -2.6595
  126MOL0     H17379  11.159   6.433   4.559 -1.9988 -1.1137  0.8143
  126MOL0     H17380  11.175   6.485   4.264 -1.6956 -2.0241  0.7554
  126MOL0     H17381  11.235   6.596   4.403  0.1641 -1.8688  2.4276
  126MOL0     H17382  11.309   6.306   4.385 -2.4718  0.2914 -0.9547
  126MOL0     H17383  11.403   6.434   4.459  1.3530  0.4368 -1.1393
  126MOL0     H17384  11.524   6.422   4.053  0.3199  1.7592 -0.4945
  126MOL0     H17385  10.771   6.668   4.431  1.6028 -1.8953  0.1867
  126MOL0     H17386  10.434   6.796   4.413  0.0930 -0.9772  0.0291
  126MOL0     H17387  10.596   6.778   4.324 -0.8700  1.3954  0.2182
  126MOL0     H17388  10.452   6.700   4.269  0.4693  1.4185 -1.2471
  127MOL0     O17389   3.784  10.314  11.109  0.3664 -0.2618 -0.5000
  127MOL0     C17390   3.874  10.317  11.189 -0.5492  0.2407 -0.0843
  127MOL0     O17391   4.010  10.324  11.161 -0.1512  0.9372 -0.3389
  127MOL0     C17392   4.066  10.283  11.042  0.1978 -0.0224 -1.1454
  127MOL0     C17393   4.186  10.350  11.013  0.6046  0.5444 -0.0576
  127MOL0     C17394   4.264  10.302  10.908  0.6882 -0.7220 -1.0285
  127MOL0     C17395   4.230  10.195  10.830  0.3732  0.4087 -0.3935
  127MOL0     O17396   4.329  10.165  10.737  0.0397 -0.5110  0.5948
  127MOL0     C17397   4.306  10.049  10.651 -0.1309  0.3296  0.1435
  127MOL0     C17398   4.419  10.047  10.551 -0.3699  0.2467 -0.8550
  127MOL0     C17399   4.544   9.976  10.613  1.0873 -0.4152  0.0518
  127MOL0     C17400   4.652   9.930  10.514  0.4406  0.4199 -0.0611
  127MOL0     C17401   4.784   9.880  10.581 -0.1019 -0.2097  0.0179
  127MOL0     C17402   4.874   9.819  10.482 -0.3695 -0.3415  0.1484
  127MOL0     C17403   5.016   9.801  10.545  0.7175  0.5856  0.1925
  127MOL0     C17404   5.019   9.678  10.645  1.2773  0.6701  0.5170
  127MOL0     N17405   5.153   9.646  10.683  0.2261  1.0356 -0.5885
  127MOL0     C17406   5.243   9.734  10.738 -0.6596  0.2574  0.6210
  127MOL0     C17407   5.358   9.662  10.761  0.4379 -0.5546 -0.8731
  127MOL0     C17408   5.490   9.721  10.804  0.4962  0.0573  0.0320
  127MOL0     C17409   5.557   9.785  10.688 -0.3764  0.5761  0.7745
  127MOL0     C17410   5.698   9.817  10.729 -0.1688 -0.8503  0.8571
  127MOL0     C17411   5.750   9.954  10.672 -0.1804 -0.2982  0.3291
  127MOL0     O17412   5.661  10.063  10.723  0.9643  0.0338 -0.1494
  127MOL0     C17413   5.644  10.183  10.650  0.4237 -0.6697 -0.1378
  127MOL0     C17414   5.554  10.279  10.699 -0.1956  0.0233 -0.2777
  127MOL0     C17415   5.514  10.397  10.634 -0.2232  0.4511 -0.1492
  127MOL0     C17416   5.407  10.498  10.693 -0.1439 -0.4686  0.2553
  127MOL0     C17417   5.581  10.433  10.515 -0.4545 -0.1355  0.1422
  127MOL0     C17418   5.556  10.546  10.423  0.3455 -1.3302 -0.2913
  127MOL0     O17419   5.607  10.539  10.299  0.3918 -0.1268  0.7457
  127MOL0     C17420   5.558  10.637  10.205 -0.2031  0.1095 -0.8519
  127MOL0     C17421   5.653  10.699  10.133 -0.0921 -0.2504 -1.0739
  127MOL0     C17422   5.615  10.791  10.027  0.1752  0.0014 -0.4109
  127MOL0     C17423   5.481  10.818   9.997 -0.2925 -0.1359 -0.2110
  127MOL0     O17424   5.447  10.896   9.896 -0.4973 -0.2903 -0.8077
  127MOL0     C17425   5.488  11.030   9.897  0.0572  0.4554 -0.6990
  127MOL0     C17426   5.445  11.086   9.761  0.4539 -0.1177  0.5375
  127MOL0     C17427   5.439  11.237   9.763  0.0227 -0.1257  0.2674
  127MOL0     C17428   5.441  11.291   9.618  0.0441  0.3554  0.6958
  127MOL0     C17429   5.454  11.439   9.623 -0.4822  0.1453 -0.2677
  127MOL0     C17430   5.568  11.492   9.710  0.3921  0.1258  0.2749
  127MOL0     C17431   5.566  11.643   9.707  0.3991 -0.4509  0.4579
  127MOL0     C17432   5.701  11.697   9.747 -0.2270 -0.0593 -0.3854
  127MOL0    Cl17433   5.716  11.658   9.922 -0.0953 -0.0419 -0.3273
  127MOL0     C17434   5.393  10.754  10.076 -0.2067  0.2459 -0.6538
  127MOL0     C17435   5.425  10.664  10.185 -0.2603 -0.2066  1.0630
  127MOL0     O17436   5.504  10.643  10.477 -0.2132  0.4483 -0.7173
  127MOL0     C17437   5.682  10.340  10.475 -0.8752  0.2219  0.0323
  127MOL0     C17438   5.708  10.212  10.527 -0.9986 -0.7548 -0.4030
  127MOL0     N17439   5.339   9.532  10.708  0.3052 -0.2009  0.7244
  127MOL0     N17440   5.222   9.528  10.645  0.6441  0.4257 -0.2540
  127MOL0     C17441   4.113  10.133  10.853  0.3992 -0.2597  0.2848
  127MOL0     C17442   4.029  10.176  10.962  0.3534 -0.2476 -0.3633
  127MOL0     C17443   3.833  10.330  11.327  1.0168 -0.3310 -0.2144
  127MOL0     C17444   3.904  10.411  11.415 -0.5890 -0.0006 -0.0386
  127MOL0     C17445   3.865  10.434  11.544 -0.1840 -0.4621 -1.4450
  127MOL0     C17446   3.742  10.382  11.594  0.1519 -0.7073 -0.5125
  127MOL0     O17447   3.715  10.396  11.720  0.5206 -0.2196 -0.2309
  127MOL0     C17448   3.650  10.526  11.744  0.3888  0.0932  0.6958
  127MOL0     C17449   3.538  10.507  11.851 -0.3021 -0.1613 -0.6076
  127MOL0     C17450   3.414  10.449  11.785  0.3290  0.2193  0.3413
  127MOL0     C17451   3.297  10.413  11.882 -0.1828  0.2812 -0.4493
  127MOL0     C17452   3.253  10.536  11.952  0.4671  0.6926 -0.6135
  127MOL0     C17453   3.202  10.623  12.021  0.4819 -0.1434  0.1372
  127MOL0     C17454   3.671  10.291  11.510 -0.3528  0.4835  0.2255
  127MOL0     C17455   3.716  10.256  11.381 -0.3213  0.3793 -0.0932
  127MOL0     C17456   3.634  10.153  11.300 -0.8529  0.8443  0.6541
  127MOL0     H17457   4.217  10.438  11.067  3.0449  1.0413 -2.0836
  127MOL0     H17458   4.353  10.363  10.894 -0.0224  0.7989  0.5659
  127MOL0     H17459   4.209  10.051  10.601 -1.6269 -2.6464  2.6187
  127MOL0     H17460   4.312   9.960  10.714 -2.7954  0.5554  0.8130
  127MOL0     H17461   4.373   9.995  10.466  0.2221 -2.2463  0.2574
  127MOL0     H17462   4.446  10.150  10.524 -0.3649  0.8339  1.2574
  127MOL0     H17463   4.579  10.044  10.691  0.5507  4.2089 -3.3071
  127MOL0     H17464   4.511   9.887  10.667 -3.8981  0.9552 -0.1892
  127MOL0     H17465   4.604   9.864  10.441 -1.5810  0.7508  0.8985
  127MOL0     H17466   4.684  10.015  10.454  2.9893 -1.2545 -1.2275
  127MOL0     H17467   4.750   9.808  10.656 -2.5961  0.2127 -0.6359
  127MOL0     H17468   4.837   9.967  10.622 -0.6282  0.7732 -1.3315
  127MOL0     H17469   4.838   9.720  10.453 -1.1891 -0.7987  2.4991
  127MOL0     H17470   4.874   9.890  10.398  3.3301  0.4907  0.6582
  127MOL0     H17471   5.045   9.888  10.604 -0.1507  0.8712  0.2187
  127MOL0     H17472   5.084   9.783  10.461 -0.5156 -2.5309 -0.2709
  127MOL0     H17473   4.969   9.713  10.736  1.5826 -0.7905  1.2776
  127MOL0     H17474   4.973   9.591  10.598  2.8835 -0.6754  1.3059
  127MOL0     H17475   5.245   9.842  10.748  4.5002  0.6183 -1.0724
  127MOL0     H17476   5.555   9.641  10.839  1.7780 -0.0650 -2.4067
  127MOL0     H17477   5.478   9.792  10.885 -2.6701  0.0034 -0.2300
  127MOL0     H17478   5.562   9.716  10.604  0.8307 -0.4281  1.6304
  127MOL0     H17479   5.503   9.874  10.654 -0.5553 -0.3015 -1.3392
  127MOL0     H17480   5.705   9.819  10.838 -0.1659 -4.1779  1.0022
  127MOL0     H17481   5.761   9.740  10.683  0.0614 -1.6564  2.4688
  127MOL0     H17482   5.852   9.974  10.706 -0.0285 -0.9595  0.2735
  127MOL0     H17483   5.757   9.948  10.563 -0.1151  2.8410  0.0552
  127MOL0     H17484   5.495  10.245  10.783  0.6782  1.2157  0.8717
  127MOL0     H17485   5.445  10.598  10.713 -0.1055 -0.4725  0.2023
  127MOL0     H17486   5.364  10.444  10.778  0.2575 -3.3656 -1.2258
  127MOL0     H17487   5.322  10.504  10.623  0.6769 -1.5436 -0.8785
  127MOL0     H17488   5.753  10.659  10.143 -0.1418 -0.0500  0.6004
  127MOL0     H17489   5.696  10.829   9.966  1.5074 -1.3245  0.4564
  127MOL0     H17490   5.450  11.090   9.980  1.4678  0.2707  0.1053
  127MOL0     H17491   5.597  11.030   9.898  0.1002 -1.8641  0.0240
  127MOL0     H17492   5.520  11.051   9.690 -0.6233 -0.4894 -0.4512
  127MOL0     H17493   5.354  11.034   9.730  2.4313 -4.2116  1.0277
  127MOL0     H17494   5.521  11.274   9.826 -1.3870  2.2178  0.8360
  127MOL0     H17495   5.349  11.274   9.813  1.7176  1.8574  2.0947
  127MOL0     H17496   5.349  11.254   9.572  0.6335  1.5360 -1.5982
  127MOL0     H17497   5.532  11.258   9.569 -1.3781  0.2848 -2.0866
  127MOL0     H17498   5.465  11.470   9.519  2.6007 -1.9297 -0.7287
  127MOL0     H17499   5.366  11.477   9.675  0.6502  0.9882  1.1240
  127MOL0     H17500   5.670  11.458   9.690 -0.1941 -1.2467 -0.5457
  127MOL0     H17501   5.543  11.463   9.812  1.7933 -2.1785  0.0421
  127MOL0     H17502   5.489  11.673   9.778  2.4791  0.3758  2.4719
  127MOL0     H17503   5.536  11.666   9.604  0.4003 -5.0163 -0.8040
  127MOL0     H17504   5.697  11.802   9.717 -1.2058 -0.2513 -0.9912
  127MOL0     H17505   5.782  11.651   9.690  0.7480  4.7105 -3.3892
  127MOL0     H17506   5.287  10.777  10.066 -0.1481  0.0899 -1.6772
  127MOL0     H17507   5.353  10.619  10.253  1.0077 -2.4377  1.0296
  127MOL0     H17508   5.746  10.364  10.391  1.4608  1.1825  1.9508
  127MOL0     H17509   5.789  10.154  10.484  1.5017 -0.4198  3.3795
  127MOL0     H17510   4.074  10.059  10.783  2.6242  0.8728 -2.3460
  127MOL0     H17511   3.929  10.142  10.987 -0.8757  4.0748  1.5551
  127MOL0     H17512   3.998  10.452  11.379  0.4038 -1.5978  0.6263
  127MOL0     H17513   3.915  10.496  11.617 -2.5599 -1.0593  0.8241
  127MOL0     H17514   3.731  10.593  11.776  1.9661 -1.7017  0.6659
  127MOL0     H17515   3.608  10.551  11.646  0.0229 -1.3290  0.4785
  127MOL0     H17516   3.510  10.607  11.885 -1.2109 -0.1493 -1.3481
  127MOL0     H17517   3.569  10.437  11.929  1.6211  1.6901  0.3795
  127MOL0     H17518   3.378  10.517  11.707  0.3694 -2.8950 -2.6424
  127MOL0     H17519   3.444  10.357  11.735  2.3320  1.0763 -0.1381
  127MOL0     H17520   3.333  10.343  11.958 -1.9398  2.7075  2.8729
  127MOL0     H17521   3.207  10.376  11.832 -2.4722  1.5572  2.4000
  127MOL0     H17522   3.150  10.702  12.071 -2.9123 -0.5638 -2.3853
  127MOL0     H17523   3.580  10.247  11.550 -0.3703  0.9037  0.6496
  127MOL0     H17524   3.621  10.072  11.373  0.4196 -0.1353 -0.1474
  127MOL0     H17525   3.535  10.182  11.264  0.0230  1.3331 -1.5244
  127MOL0     H17526   3.693  10.120  11.214 -2.1687  1.3948 -0.4869
  128MOL0     O17527   1.218   7.494   8.624  0.0935 -0.1129 -0.1024
  128MOL0     C17528   1.285   7.391   8.636  0.2554 -0.1153  0.1942
  128MOL0     O17529   1.395   7.382   8.705 -0.0930 -0.2507  0.0862
  128MOL0     C17530   1.442   7.494   8.752  0.8574  0.5612  0.4171
  128MOL0     C17531   1.394   7.541   8.873 -0.2575  0.8991  0.8200
  128MOL0     C17532   1.447   7.662   8.922  0.0564  0.8007 -0.6911
  128MOL0     C17533   1.551   7.729   8.856  1.1929 -0.1166  0.2199
  128MOL0     O17534   1.582   7.857   8.911  0.2726 -0.3449 -0.3124
  128MOL0     C17535   1.617   7.966   8.821 -0.4856  0.2616 -0.5661
  128MOL0     C17536   1.622   8.085   8.915  0.0071 -0.3218 -0.2445
  128MOL0     C17537   1.631   8.219   8.833  0.3803  0.5313  0.4710
  128MOL0     C17538   1.511   8.315   8.861  0.4738  0.4459  0.4801
  128MOL0     C17539   1.373   8.252   8.810 -0.2007 -0.1154  0.0568
  128MOL0     C17540   1.258   8.315   8.882  0.2364  0.1022  0.6196
  128MOL0     C17541   1.120   8.242   8.876 -0.1322 -0.3692  0.3465
  128MOL0     C17542   1.042   8.276   8.998 -0.4324 -0.2908  0.8198
  128MOL0     N17543   1.000   8.418   9.011 -0.3016 -0.4136  0.0446
  128MOL0     C17544   0.898   8.487   8.947  0.9199  0.0485  0.0976
  128MOL0     C17545   0.904   8.611   8.995  0.4164 -0.7517  0.5672
  128MOL0     C17546   0.827   8.735   8.942 -0.2757 -0.6801 -0.3315
  128MOL0     C17547   0.717   8.773   9.033  0.6976  0.4797 -0.3996
  128MOL0     C17548   0.632   8.897   8.986  1.0317  0.3411  0.1108
  128MOL0     C17549   0.525   8.954   9.082  0.0901  0.5922  0.6680
  128MOL0     O17550   0.426   8.854   9.112 -0.4620 -0.1797  1.1379
  128MOL0     C17551   0.325   8.891   9.197  0.0125  0.0901  0.2943
  128MOL0     C17552   0.308   9.023   9.230  0.2465 -0.5496  0.3967
  128MOL0     C17553   0.203   9.064   9.308  0.3719  0.1829  0.3896
  128MOL0     C17554   0.188   9.213   9.353  0.1519 -0.2220 -0.4628
  128MOL0     C17555   0.101   8.969   9.349  0.7680  1.1646  1.0640
  128MOL0     C17556  -0.004   8.992   9.450  0.4608  0.6730 -0.1944
  128MOL0     O17557  -0.058   8.879   9.503  0.1802 -0.7582 -0.2473
  128MOL0     C17558  -0.170   8.897   9.571  0.5405 -0.8978 -0.7165
  128MOL0     C17559  -0.293   8.860   9.520 -0.1527  0.7162  0.1784
  128MOL0     C17560  -0.409   8.889   9.590 -0.5144  0.4040  0.0405
  128MOL0     C17561  -0.415   8.943   9.716 -0.1180  0.7936 -0.1583
  128MOL0     O17562  -0.522   8.967   9.807 -0.4040 -0.2982  0.3000
  128MOL0     C17563  -0.653   8.931   9.761 -0.2900 -0.0816  0.2618
  128MOL0     C17564  -0.748   8.967   9.866  0.3633  0.2188 -0.0476
  128MOL0     C17565  -0.756   9.120   9.874 -0.9737  0.8104  0.3110
  128MOL0     C17566  -0.866   9.170   9.974 -0.2599  0.0065  0.5575
  128MOL0     C17567  -0.901   9.317   9.948  0.3493  0.1857  0.2685
  128MOL0     C17568  -1.003   9.368  10.053 -0.1252  0.6375 -0.5415
  128MOL0     C17569  -1.056   9.507  10.016  0.2063  0.1625  0.3954
  128MOL0     C17570  -1.192   9.502   9.940 -0.1476  0.3684  0.3363
  128MOL0    Cl17571  -1.235   9.660   9.865 -0.0870 -0.3924 -0.1321
  128MOL0     C17572  -0.289   8.971   9.771 -0.0732  1.0030 -0.0595
  128MOL0     C17573  -0.167   8.948   9.704  0.2806 -0.0383  0.9804
  128MOL0     O17574  -0.024   9.109   9.494  0.6882  0.4447  0.1609
  128MOL0     C17575   0.121   8.831   9.313 -0.1630  0.8537  1.3536
  128MOL0     C17576   0.226   8.800   9.231 -0.7110 -0.4016 -0.4412
  128MOL0     N17577   1.008   8.620   9.080  0.6081 -0.9427  0.6093
  128MOL0     N17578   1.060   8.503   9.094 -0.0975 -0.0380  0.4235
  128MOL0     C17579   1.594   7.680   8.735  0.1975 -0.1581  0.6137
  128MOL0     C17580   1.537   7.561   8.686 -1.0341 -0.0405  0.4987
  128MOL0     C17581   1.247   7.268   8.566  0.0532  0.4166 -0.0470
  128MOL0     C17582   1.360   7.198   8.496  0.0221  0.4470  0.5083
  128MOL0     C17583   1.326   7.097   8.405  1.0227  0.3143  1.1753
  128MOL0     C17584   1.181   7.070   8.384 -0.6138  1.2134  0.1691
  128MOL0     O17585   1.154   6.974   8.281 -0.6579  0.4610 -0.0699
  128MOL0     C17586   1.024   6.927   8.267  0.1381 -0.5277  0.9148
  128MOL0     C17587   1.016   6.824   8.149 -1.1920  0.3532  0.4542
  128MOL0     C17588   1.015   6.895   8.015 -0.4790  0.2746  0.1157
  128MOL0     C17589   0.947   6.815   7.900 -0.5468  0.1850 -0.8020
  128MOL0     C17590   0.908   6.897   7.778  0.0069 -0.6013 -1.0869
  128MOL0     C17591   0.883   6.969   7.682  1.1010 -0.5436 -0.1390
  128MOL0     C17592   1.084   7.143   8.453  0.1396 -0.1500  1.2237
  128MOL0     C17593   1.108   7.239   8.541 -0.7278 -0.8933 -0.5671
  128MOL0     C17594   0.990   7.314   8.608 -0.6088 -0.5222  0.5194
  128MOL0     H17595   1.313   7.484   8.918 -0.9805  0.7850 -0.5718
  128MOL0     H17596   1.417   7.697   9.021 -1.1408  1.5496 -1.2983
  128MOL0     H17597   1.549   7.978   8.736 -1.4296  1.8979  0.3573
  128MOL0     H17598   1.716   7.943   8.780 -0.0553 -1.4353  1.3034
  128MOL0     H17599   1.538   8.088   8.985 -0.3393  1.1755 -0.6804
  128MOL0     H17600   1.704   8.086   8.988 -0.8127 -1.5753  0.7303
  128MOL0     H17601   1.722   8.270   8.867  0.8229  0.2480 -0.2792
  128MOL0     H17602   1.644   8.204   8.726  3.3495 -0.3007  0.8394
  128MOL0     H17603   1.514   8.321   8.970 -0.9948 -2.2188  0.7756
  128MOL0     H17604   1.538   8.410   8.813 -0.0023  1.1625  1.6024
  128MOL0     H17605   1.369   8.148   8.844 -0.9891 -0.1609 -0.1492
  128MOL0     H17606   1.354   8.242   8.703 -1.8116 -2.1086  0.4600
  128MOL0     H17607   1.274   8.337   8.988 -3.8125 -1.8553  1.8719
  128MOL0     H17608   1.250   8.412   8.833  0.6877 -0.0659  0.2105
  128MOL0     H17609   1.134   8.134   8.870 -0.1174 -0.5289  2.6458
  128MOL0     H17610   1.069   8.265   8.782  0.0052 -2.2895 -0.2460
  128MOL0     H17611   0.953   8.213   8.996  0.0402 -0.9733  0.8037
  128MOL0     H17612   1.113   8.234   9.071  0.9009 -0.9821 -0.8087
  128MOL0     H17613   0.839   8.448   8.865 -0.6674 -1.0208  1.6821
  128MOL0     H17614   0.795   8.718   8.838 -1.1581 -0.5609 -0.0881
  128MOL0     H17615   0.886   8.827   8.946 -1.9020  0.3677  0.6972
  128MOL0     H17616   0.649   8.687   9.038  3.4708 -1.8639 -0.5390
  128MOL0     H17617   0.751   8.797   9.134 -0.0924  2.2573 -0.5242
  128MOL0     H17618   0.704   8.976   8.964 -3.1283  4.0174 -1.9818
  128MOL0     H17619   0.597   8.867   8.886  2.9312 -1.0358 -0.1983
  128MOL0     H17620   0.584   8.965   9.174  2.9266  0.5851 -1.0396
  128MOL0     H17621   0.484   9.048   9.043 -0.7720 -1.4518 -4.0394
  128MOL0     H17622   0.383   9.101   9.220 -0.6990  0.8043  2.9410
  128MOL0     H17623   0.209   9.233   9.459 -0.0489  0.6231 -0.5765
  128MOL0     H17624   0.094   9.256   9.319  0.6117  1.0760 -0.1573
  128MOL0     H17625   0.255   9.265   9.283 -2.0816  1.4653 -1.4499
  128MOL0     H17626  -0.300   8.797   9.432 -1.0657  1.4967 -0.3253
  128MOL0     H17627  -0.500   8.868   9.534 -0.4876  1.0022 -0.2305
  128MOL0     H17628  -0.688   8.983   9.671  0.9305  3.6414  1.7568
  128MOL0     H17629  -0.662   8.825   9.735  0.2487  0.1500 -0.9327
  128MOL0     H17630  -0.850   8.933   9.848  0.1013 -0.1891  1.9491
  128MOL0     H17631  -0.718   8.913   9.956 -3.4270 -3.0423 -0.5023
  128MOL0     H17632  -0.766   9.161   9.773  1.0823  1.8789  0.4767
  128MOL0     H17633  -0.656   9.150   9.908 -0.2264 -0.8741 -0.2989
  128MOL0     H17634  -0.843   9.163  10.081 -1.5288 -0.7372  0.7974
  128MOL0     H17635  -0.958   9.117   9.946 -0.3358  1.6954 -2.9425
  128MOL0     H17636  -0.815   9.382   9.966 -1.3272  2.6829 -0.2421
  128MOL0     H17637  -0.942   9.341   9.850  1.3619 -0.5743 -0.3583
  128MOL0     H17638  -0.951   9.369  10.150 -0.0799 -1.8946 -0.4792
  128MOL0     H17639  -1.088   9.299  10.054  0.9458 -0.7169 -0.2990
  128MOL0     H17640  -0.984   9.571   9.963 -0.4412  1.6386  1.2219
  128MOL0     H17641  -1.076   9.568  10.105  1.7468  1.6194 -0.2073
  128MOL0     H17642  -1.271   9.479  10.013 -1.0211 -0.6358 -0.8877
  128MOL0     H17643  -1.178   9.430   9.859  0.8707  1.7365 -0.7526
  128MOL0     H17644  -0.298   9.006   9.873  2.6626 -0.7796  0.8930
  128MOL0     H17645  -0.073   8.981   9.748  0.3878 -1.4567  1.8754
  128MOL0     H17646   0.055   8.748   9.337  1.6243 -0.9811  0.1814
  128MOL0     H17647   0.254   8.705   9.185  0.9941  0.3864 -1.1389
  128MOL0     H17648   1.678   7.724   8.683 -1.3104 -1.8081 -3.6219
  128MOL0     H17649   1.581   7.514   8.599  2.6659  0.8085  1.7318
  128MOL0     H17650   1.464   7.227   8.494  0.5183 -0.9832 -3.7850
  128MOL0     H17651   1.393   7.032   8.350 -0.2738 -0.6978  0.7398
  128MOL0     H17652   1.011   6.871   8.361 -0.0255 -3.9280 -0.9816
  128MOL0     H17653   0.953   7.010   8.261 -1.0339 -1.5778 -0.3410
  128MOL0     H17654   0.922   6.770   8.165 -1.3997  0.9639  1.3956
  128MOL0     H17655   1.101   6.757   8.157 -1.6787 -0.2100  0.9858
  128MOL0     H17656   0.942   6.974   8.037 -0.6802 -0.2579  1.5019
  128MOL0     H17657   1.115   6.935   7.995 -0.0508  1.3147  3.6127
  128MOL0     H17658   0.855   6.780   7.947  0.2456  0.3304  0.9414
  128MOL0     H17659   1.003   6.722   7.883 -0.3838 -0.5349  2.8607
  128MOL0     H17660   0.843   7.029   7.602  0.4291 -3.5607 -2.2546
  128MOL0     H17661   0.981   7.125   8.426  0.1962  1.0921  0.0366
  128MOL0     H17662   0.907   7.243   8.601  0.5380 -1.7334 -2.2077
  128MOL0     H17663   1.008   7.348   8.710 -2.4470  2.2197  0.0165
  128MOL0     H17664   0.970   7.399   8.543 -0.7553 -1.0731 -0.1730
  129MOL0     O17665  10.197   3.961   2.183 -0.3460  0.1656 -0.1544
  129MOL0     C17666  10.135   3.885   2.113  0.6280  0.0773  0.2498
  129MOL0     O17667  10.023   3.824   2.147 -0.9627  0.6824  0.4603
  129MOL0     C17668   9.986   3.826   2.282  0.5908 -0.0540 -0.8832
  129MOL0     C17669   9.866   3.891   2.309  0.2286 -0.0382  0.5875
  129MOL0     C17670   9.827   3.897   2.441  0.0978 -0.1515  0.6235
  129MOL0     C17671   9.901   3.840   2.552 -0.0873 -0.6715  0.4985
  129MOL0     O17672   9.872   3.832   2.690  0.3208 -0.4604  0.2632
  129MOL0     C17673   9.737   3.863   2.730 -0.6254 -0.9294 -0.9597
  129MOL0     C17674   9.750   4.006   2.765 -0.7714 -0.3538  0.3045
  129MOL0     C17675   9.623   4.033   2.847  0.2701 -1.4747  0.6661
  129MOL0     C17676   9.625   4.166   2.917  0.1398 -0.2811 -0.1553
  129MOL0     C17677   9.504   4.188   3.006 -0.0058 -0.0392 -0.7820
  129MOL0     C17678   9.376   4.197   2.928  0.2814  0.0942 -0.5610
  129MOL0     C17679   9.371   4.299   2.809  0.0398 -0.5395  0.0083
  129MOL0     C17680   9.227   4.287   2.741 -1.1084 -0.1378  0.2607
  129MOL0     N17681   9.199   4.154   2.682  0.0806 -0.7351  0.3032
  129MOL0     C17682   9.279   4.072   2.609  0.5560  0.1304  0.3068
  129MOL0     C17683   9.214   3.962   2.598  0.9835  0.5706  0.6893
  129MOL0     C17684   9.274   3.832   2.546 -0.6118  0.0013  0.3261
  129MOL0     C17685   9.352   3.844   2.413 -0.9159 -0.1706 -0.3673
  129MOL0     C17686   9.321   3.737   2.310 -0.5209  0.1796 -0.3266
  129MOL0     C17687   9.184   3.752   2.246 -0.4879  0.2523  0.3404
  129MOL0     O17688   9.163   3.671   2.129  0.3286 -0.4255  0.3921
  129MOL0     C17689   9.156   3.536   2.144  0.7708 -0.1251  0.2662
  129MOL0     C17690   9.185   3.457   2.034 -0.4421 -0.1988  0.5339
  129MOL0     C17691   9.170   3.316   2.026  0.1028  0.2994 -0.3719
  129MOL0     C17692   9.207   3.256   1.892 -0.4650  0.9477 -0.3236
  129MOL0     C17693   9.126   3.250   2.140 -0.7336 -0.2520 -0.1810
  129MOL0     C17694   9.117   3.098   2.141 -0.1464 -0.1295  0.8894
  129MOL0     O17695   9.086   3.030   2.019 -0.3160 -0.3179  0.2083
  129MOL0     C17696   9.134   2.905   2.004 -0.3569 -0.7833 -0.6041
  129MOL0     C17697   9.225   2.829   2.088 -0.2373  0.5388  0.5903
  129MOL0     C17698   9.253   2.694   2.046  1.3240  1.1217  0.3709
  129MOL0     C17699   9.209   2.638   1.932  0.9798 -0.2461 -0.0729
  129MOL0     O17700   9.248   2.508   1.905 -0.3381 -0.2436 -0.3863
  129MOL0     C17701   9.138   2.417   1.915 -0.6880  0.2294  0.6742
  129MOL0     C17702   9.183   2.272   1.951 -0.1144 -0.0543  0.0934
  129MOL0     C17703   9.065   2.171   1.928 -0.1680 -0.2432 -0.2024
  129MOL0     C17704   9.118   2.032   1.899  0.2485  0.0392  0.6693
  129MOL0     C17705   9.016   1.920   1.905  0.7067  0.3468 -0.4086
  129MOL0     C17706   9.029   1.803   1.809  0.6394 -0.5811 -0.0439
  129MOL0     C17707   9.005   1.849   1.663 -0.4931 -0.1316 -0.0915
  129MOL0     C17708   8.904   1.757   1.578 -0.2299 -0.0349 -0.6316
  129MOL0    Cl17709   8.972   1.594   1.535  0.0237 -0.0872  0.3202
  129MOL0     C17710   9.125   2.709   1.845 -0.6735  0.5148  0.7015
  129MOL0     C17711   9.095   2.840   1.890 -0.5956  0.5549  0.4638
  129MOL0     O17712   9.105   3.049   2.252 -0.6157  0.0005 -0.0125
  129MOL0     C17713   9.106   3.319   2.257 -0.4113  0.2136 -0.6244
  129MOL0     C17714   9.112   3.458   2.254  0.3028 -0.2653 -0.3203
  129MOL0     N17715   9.083   3.978   2.645  0.1111  0.1206 -0.6019
  129MOL0     N17716   9.082   4.101   2.699  0.0134 -0.1888 -0.2293
  129MOL0     C17717  10.010   3.764   2.519  0.6817  0.8313  0.8939
  129MOL0     C17718  10.056   3.754   2.384 -0.0645  0.4332  0.3037
  129MOL0     C17719  10.194   3.870   1.977 -0.5715 -0.6100 -0.4981
  129MOL0     C17720  10.308   3.939   1.946  0.4153  0.7319 -0.5815
  129MOL0     C17721  10.362   3.941   1.820  0.5165 -0.4706 -0.3192
  129MOL0     C17722  10.319   3.856   1.720  0.2379 -0.3120  0.0800
  129MOL0     O17723  10.391   3.841   1.608 -0.8318  0.0864 -0.4966
  129MOL0     C17724  10.377   3.942   1.508 -0.2367 -0.9142 -0.1023
  129MOL0     C17725  10.399   3.883   1.363 -0.2075  0.4276 -0.2489
  129MOL0     C17726  10.394   3.987   1.256 -0.0890 -0.4443  0.3156
  129MOL0     C17727  10.517   4.079   1.249  0.1596  0.2105 -1.1421
  129MOL0     C17728  10.556   4.118   1.108  1.0782 -0.2983  0.0393
  129MOL0     C17729  10.589   4.178   1.011  0.1329  0.6159 -0.6870
  129MOL0     C17730  10.201   3.783   1.747  0.3120 -0.4229 -0.6286
  129MOL0     C17731  10.138   3.792   1.874 -0.5103 -1.0262  0.5737
  129MOL0     C17732  10.020   3.699   1.888  0.3787 -0.1482 -0.8372
  129MOL0     H17733   9.804   3.925   2.227  1.4900  1.7332  0.2966
  129MOL0     H17734   9.738   3.954   2.463  1.3264  1.8355  0.6604
  129MOL0     H17735   9.705   3.801   2.815 -4.9783  1.3091 -0.6636
  129MOL0     H17736   9.660   3.839   2.656 -0.8417 -1.3482 -0.6111
  129MOL0     H17737   9.840   4.035   2.820 -1.1866  1.5993  0.0150
  129MOL0     H17738   9.751   4.080   2.684 -1.8062  3.5656  3.5355
  129MOL0     H17739   9.533   4.045   2.786  0.6881 -2.6069 -0.2058
  129MOL0     H17740   9.603   3.949   2.913  0.4863 -2.4561 -0.4851
  129MOL0     H17741   9.713   4.160   2.982 -0.9870 -1.4167  1.3498
  129MOL0     H17742   9.627   4.248   2.846  1.3170 -3.1420 -3.7280
  129MOL0     H17743   9.515   4.282   3.061 -0.0103  0.0505 -0.9354
  129MOL0     H17744   9.485   4.103   3.073  1.9615 -0.1851 -0.3398
  129MOL0     H17745   9.346   4.098   2.894 -4.1686  0.2546  2.1884
  129MOL0     H17746   9.301   4.221   3.004  2.2707 -0.3779  1.6789
  129MOL0     H17747   9.443   4.288   2.727  0.0116  0.1810 -0.1136
  129MOL0     H17748   9.395   4.402   2.834  0.4124 -0.2493 -1.4468
  129MOL0     H17749   9.150   4.319   2.812 -0.7308  0.8830  0.2121
  129MOL0     H17750   9.228   4.356   2.656  0.9226 -0.9996 -0.4664
  129MOL0     H17751   9.369   4.080   2.549 -1.3309  0.1322 -2.7888
  129MOL0     H17752   9.195   3.758   2.533 -0.2684 -0.6294  1.6798
  129MOL0     H17753   9.338   3.789   2.623  0.8006 -2.6088 -2.1636
  129MOL0     H17754   9.342   3.944   2.370 -0.2162  0.6734  1.3604
  129MOL0     H17755   9.458   3.837   2.437 -0.7472 -1.4314 -1.3756
  129MOL0     H17756   9.396   3.743   2.231  1.8614 -0.7311  1.7718
  129MOL0     H17757   9.327   3.640   2.358 -0.6774  0.4049  0.1556
  129MOL0     H17758   9.103   3.737   2.318 -0.0301  0.0737  0.8275
  129MOL0     H17759   9.167   3.853   2.209  0.4526  0.4628  0.4656
  129MOL0     H17760   9.225   3.509   1.947  1.5630 -0.6778  1.1290
  129MOL0     H17761   9.277   3.173   1.902 -1.4940 -0.2518 -2.4500
  129MOL0     H17762   9.252   3.340   1.838  1.4193  0.7021  0.7928
  129MOL0     H17763   9.126   3.203   1.841  1.3285 -0.3768 -1.9192
  129MOL0     H17764   9.266   2.866   2.181  2.5064 -1.4372  0.3074
  129MOL0     H17765   9.325   2.637   2.104 -0.3402 -1.3853  0.1244
  129MOL0     H17766   9.060   2.455   1.982 -2.1859 -1.5760  0.0743
  129MOL0     H17767   9.084   2.413   1.820 -0.4391  0.4085  0.5245
  129MOL0     H17768   9.261   2.248   1.878 -2.3333 -2.5522 -1.6341
  129MOL0     H17769   9.221   2.264   2.054  0.2819 -1.6816 -0.1614
  129MOL0     H17770   9.014   2.204   1.837  0.5193 -1.7757 -1.2064
  129MOL0     H17771   9.002   2.169   2.017  0.0930 -0.4361 -0.0172
  129MOL0     H17772   9.187   2.009   1.981 -2.2124 -1.3760  2.4797
  129MOL0     H17773   9.176   2.045   1.807  3.2351  3.5039  2.7575
  129MOL0     H17774   9.032   1.875   2.003  0.5328 -0.4847 -0.7510
  129MOL0     H17775   8.917   1.965   1.900  0.6328  0.5446  1.9466
  129MOL0     H17776   8.946   1.738   1.839  0.8964  0.0387  2.1724
  129MOL0     H17777   9.121   1.745   1.822  0.9070 -0.1543 -0.0249
  129MOL0     H17778   9.104   1.855   1.617  0.2176 -3.2251  0.7600
  129MOL0     H17779   8.962   1.949   1.674 -1.7549 -0.6408 -0.2212
  129MOL0     H17780   8.878   1.816   1.490 -1.5969  0.0372 -0.2096
  129MOL0     H17781   8.811   1.743   1.634 -0.3689  2.5017 -0.1129
  129MOL0     H17782   9.082   2.673   1.752 -0.1335 -1.6749  1.2359
  129MOL0     H17783   9.034   2.889   1.815 -0.2025 -2.9877 -2.5039
  129MOL0     H17784   9.089   3.258   2.345 -0.0078 -3.1865 -2.7222
  129MOL0     H17785   9.082   3.498   2.350  0.3036 -1.4002  0.1679
  129MOL0     H17786  10.068   3.713   2.596 -0.8308 -2.1351  0.2035
  129MOL0     H17787  10.149   3.701   2.365 -0.2336  1.2580 -3.5828
  129MOL0     H17788  10.340   4.026   2.003  0.4267  0.9012 -0.8443
  129MOL0     H17789  10.447   4.006   1.801 -1.1956  1.4794 -1.7655
  129MOL0     H17790  10.284   3.999   1.512 -0.3072 -1.0791  0.7961
  129MOL0     H17791  10.449   4.022   1.531 -0.5922 -0.3960 -0.7478
  129MOL0     H17792  10.323   3.814   1.325 -0.8609  1.5159 -0.9662
  129MOL0     H17793  10.490   3.822   1.369 -0.8481 -0.4101  3.0733
  129MOL0     H17794  10.389   3.941   1.157  1.1633 -0.0727  0.0581
  129MOL0     H17795  10.300   4.043   1.262  0.1580 -0.0960  1.1003
  129MOL0     H17796  10.600   4.027   1.297  0.2775  1.3776 -0.0363
  129MOL0     H17797  10.512   4.167   1.314  2.0024  1.4439 -2.5675
  129MOL0     H17798  10.629   4.223   0.922  1.4317  0.3599 -0.2518
  129MOL0     H17799  10.148   3.721   1.675 -0.8799  0.0798 -0.2077
  129MOL0     H17800  10.010   3.607   1.829 -0.7697  0.1296 -1.1000
  129MOL0     H17801  10.027   3.644   1.982  0.5671  1.8864  0.3873
  129MOL0     H17802   9.924   3.752   1.893  0.1478 -0.6514  0.5173
  130MOL0     O17803   0.369   1.663   4.296  0.2175 -0.4546  0.2845
  130MOL0     C17804   0.481   1.710   4.273 -0.1904 -0.8716 -0.0216
  130MOL0     O17805   0.502   1.826   4.205 -0.5544 -0.1927  0.3995
  130MOL0     C17806   0.402   1.895   4.135 -0.0085 -0.1251 -0.6050
  130MOL0     C17807   0.265   1.900   4.174  0.1706  0.6662  0.1856
  130MOL0     C17808   0.171   1.956   4.089  0.6563  0.4949 -0.0039
  130MOL0     C17809   0.205   2.010   3.970 -0.4641 -0.1188  0.3483
  130MOL0     O17810   0.108   2.057   3.887 -0.7003 -0.5047 -0.2551
  130MOL0     C17811   0.117   2.189   3.830  0.1907  0.0871 -0.3427
  130MOL0     C17812   0.075   2.287   3.931  0.1674 -0.8069 -0.8410
  130MOL0     C17813   0.095   2.430   3.896 -0.4083 -0.2971  0.1129
  130MOL0     C17814   0.010   2.473   3.770 -0.2242  0.5143 -0.6844
  130MOL0     C17815   0.010   2.622   3.739 -0.3452  0.0287 -0.4701
  130MOL0     C17816  -0.096   2.707   3.803 -0.2627 -0.1055 -0.1944
  130MOL0     C17817  -0.069   2.749   3.949 -0.2129 -0.4987  0.0888
  130MOL0     C17818  -0.179   2.836   3.988 -0.0519 -0.1086 -0.0391
  130MOL0     N17819  -0.150   2.902   4.119 -0.9599 -0.1814  1.3608
  130MOL0     C17820  -0.129   3.042   4.106 -0.0985 -0.1951 -0.2497
  130MOL0     C17821  -0.091   3.076   4.234 -0.8066  0.1350 -0.4039
  130MOL0     C17822  -0.044   3.202   4.299  0.5251 -0.0126 -0.0577
  130MOL0     C17823  -0.049   3.330   4.214 -0.4267  0.6387  0.2341
  130MOL0     C17824  -0.197   3.374   4.223 -0.8608  0.2273  0.1658
  130MOL0     C17825  -0.235   3.487   4.125  0.8308  0.3390 -0.0231
  130MOL0     O17826  -0.227   3.418   4.004  0.1017  0.9663  0.3427
  130MOL0     C17827  -0.352   3.392   3.951 -1.1104 -0.0143  0.0243
  130MOL0     C17828  -0.422   3.508   3.919  0.1839 -0.0140  0.3815
  130MOL0     C17829  -0.556   3.499   3.880 -0.3940 -0.2152  0.5443
  130MOL0     C17830  -0.628   3.627   3.833 -0.6060  0.0584  0.2400
  130MOL0     C17831  -0.603   3.367   3.857  0.7937 -0.1038  0.2624
  130MOL0     C17832  -0.745   3.349   3.804 -0.3794  1.1506  1.0068
  130MOL0     O17833  -0.847   3.399   3.871  0.5401  0.1957  0.4638
  130MOL0     C17834  -0.969   3.380   3.811 -0.2490 -0.1120  0.7434
  130MOL0     C17835  -1.004   3.457   3.697  0.1945 -0.2793  0.8687
  130MOL0     C17836  -1.140   3.458   3.661  0.0359  0.6780 -0.2089
  130MOL0     C17837  -1.237   3.380   3.722 -0.4219 -0.1313 -0.8994
  130MOL0     O17838  -1.360   3.406   3.672  0.6840  0.7011  0.7754
  130MOL0     C17839  -1.462   3.313   3.715  0.6592 -0.1401 -0.2162
  130MOL0     C17840  -1.459   3.177   3.654  0.4760  0.6762  0.2496
  130MOL0     C17841  -1.440   3.194   3.504 -1.3418 -0.5472  0.0455
  130MOL0     C17842  -1.473   3.076   3.430 -0.3358  0.0803 -0.1250
  130MOL0     C17843  -1.419   3.083   3.280  0.0061 -0.4108 -0.3675
  130MOL0     C17844  -1.494   2.975   3.195  0.8101  1.0972  0.5445
  130MOL0     C17845  -1.517   2.842   3.257 -0.5477  0.1999 -0.3529
  130MOL0     C17846  -1.544   2.726   3.161  0.1634  0.0000  0.0923
  130MOL0    Cl17847  -1.557   2.600   3.285  0.2468  0.5182 -0.5491
  130MOL0     C17848  -1.190   3.301   3.830  1.2294  0.9732 -0.1723
  130MOL0     C17849  -1.061   3.295   3.872 -0.0361  0.0164 -0.1594
  130MOL0     O17850  -0.746   3.293   3.692  0.4096  0.1522 -0.3725
  130MOL0     C17851  -0.530   3.252   3.890 -0.3329  0.1731  0.0970
  130MOL0     C17852  -0.402   3.262   3.942  0.9954 -0.2895  0.2093
  130MOL0     N17853  -0.104   2.959   4.311 -0.1792  0.2446 -0.9164
  130MOL0     N17854  -0.144   2.856   4.248 -0.3058 -0.9441  0.4221
  130MOL0     C17855   0.339   2.001   3.930  0.7691 -0.8146 -0.1132
  130MOL0     C17856   0.434   1.949   4.012  0.6163  0.5287  0.1455
  130MOL0     C17857   0.602   1.670   4.344 -0.0290  0.4122  0.1013
  130MOL0     C17858   0.730   1.700   4.283 -0.8442 -0.2755  0.2357
  130MOL0     C17859   0.849   1.653   4.343 -1.0422 -0.1678 -0.0014
  130MOL0     C17860   0.843   1.580   4.470 -0.1137 -0.3058  0.8041
  130MOL0     O17861   0.945   1.532   4.533  0.2741  0.7399  0.5077
  130MOL0     C17862   1.056   1.624   4.524 -1.4613 -0.4440  0.2909
  130MOL0     C17863   1.153   1.585   4.642 -0.1276 -0.6917  0.1195
  130MOL0     C17864   1.078   1.561   4.778  0.1662  0.1062  0.4605
  130MOL0     C17865   0.983   1.673   4.830 -0.1155  0.1351  0.5138
  130MOL0     C17866   0.891   1.621   4.940  0.1342 -0.4903  0.2022
  130MOL0     C17867   0.823   1.572   5.033  0.7158  1.0866 -0.1785
  130MOL0     C17868   0.722   1.550   4.525 -0.2040 -0.4096  0.0030
  130MOL0     C17869   0.596   1.597   4.468 -0.2158  0.4339  0.0212
  130MOL0     C17870   0.472   1.573   4.551  0.4160  0.0953  0.2031
  130MOL0     H17871   0.209   1.845   4.250 -1.2082 -1.7155 -2.3923
  130MOL0     H17872   0.065   1.960   4.115  0.0228 -6.0505 -0.0486
  130MOL0     H17873   0.049   2.202   3.745 -1.5123 -0.0638  0.9407
  130MOL0     H17874   0.215   2.200   3.783 -0.8283  3.8466 -1.9792
  130MOL0     H17875  -0.029   2.267   3.955 -0.6098  1.9719 -1.5805
  130MOL0     H17876   0.134   2.273   4.022  1.9653  3.8815 -1.0174
  130MOL0     H17877   0.073   2.492   3.983 -0.5057 -0.8956  0.5197
  130MOL0     H17878   0.202   2.444   3.876 -1.0720  3.6705 -1.6377
  130MOL0     H17879   0.036   2.403   3.690  0.2648 -0.3160  0.1722
  130MOL0     H17880  -0.092   2.445   3.800 -0.1199  1.0443  0.1961
  130MOL0     H17881  -0.011   2.638   3.633  0.8826  3.5901 -0.3113
  130MOL0     H17882   0.106   2.671   3.757 -1.4899  2.3068 -0.2710
  130MOL0     H17883  -0.098   2.796   3.738  0.0172  0.5346  0.6605
  130MOL0     H17884  -0.198   2.668   3.798 -1.5840  2.8448  1.1136
  130MOL0     H17885   0.025   2.804   3.955  0.1498 -0.6473 -2.6481
  130MOL0     H17886  -0.046   2.659   4.005 -3.1289 -1.1139  0.4993
  130MOL0     H17887  -0.184   2.915   3.913  0.5999  1.6804  1.7263
  130MOL0     H17888  -0.277   2.788   3.987 -0.4457  0.5355 -3.4172
  130MOL0     H17889  -0.142   3.102   4.016 -0.0486 -1.6456 -1.2516
  130MOL0     H17890   0.059   3.191   4.335  0.4580  2.0809  0.9039
  130MOL0     H17891  -0.087   3.209   4.400 -3.2285 -2.2831 -1.2926
  130MOL0     H17892   0.008   3.410   4.261 -0.6370  1.1043 -0.2854
  130MOL0     H17893  -0.009   3.317   4.112 -3.0287  2.4302 -1.1318
  130MOL0     H17894  -0.270   3.295   4.202  0.6509 -1.2160  0.1117
  130MOL0     H17895  -0.214   3.403   4.327  2.0785  1.4426  0.3982
  130MOL0     H17896  -0.334   3.521   4.157  1.6528  0.8156  2.1996
  130MOL0     H17897  -0.167   3.571   4.139 -0.1011  0.9135  1.2324
  130MOL0     H17898  -0.376   3.605   3.936  1.6194 -0.5738 -0.1160
  130MOL0     H17899  -0.562   3.708   3.865  2.9229 -0.9364 -3.6464
  130MOL0     H17900  -0.734   3.644   3.855 -0.0339  2.5478  1.4491
  130MOL0     H17901  -0.617   3.633   3.725 -1.5087 -1.0792  0.0579
  130MOL0     H17902  -0.935   3.521   3.643  0.7459  0.3961  2.3183
  130MOL0     H17903  -1.168   3.506   3.568  0.7686  0.5245 -0.5170
  130MOL0     H17904  -1.461   3.291   3.822 -2.4019 -0.7073 -0.2181
  130MOL0     H17905  -1.564   3.346   3.696  0.1960 -0.9333  0.7976
  130MOL0     H17906  -1.382   3.116   3.702 -1.2778 -1.1283  0.8693
  130MOL0     H17907  -1.558   3.133   3.672  0.1922  1.0618 -0.3280
  130MOL0     H17908  -1.335   3.223   3.495 -1.3566 -0.3475  0.5231
  130MOL0     H17909  -1.489   3.283   3.461 -2.7882 -0.7521  1.1779
  130MOL0     H17910  -1.582   3.061   3.431 -0.8855  3.2908 -0.7583
  130MOL0     H17911  -1.422   2.996   3.485  3.0349  0.2449 -2.7420
  130MOL0     H17912  -1.444   3.185   3.251  0.4012  0.0421  0.8151
  130MOL0     H17913  -1.310   3.069   3.275 -0.0048 -1.0310  0.7574
  130MOL0     H17914  -1.452   2.953   3.096 -0.9032 -1.2133  0.2430
  130MOL0     H17915  -1.596   3.011   3.178  0.8318  1.2609  0.7648
  130MOL0     H17916  -1.594   2.855   3.333  0.1181 -2.2549  0.8457
  130MOL0     H17917  -1.433   2.809   3.318 -3.5801 -2.9568  2.5395
  130MOL0     H17918  -1.462   2.707   3.091 -0.7971 -5.0816 -0.0230
  130MOL0     H17919  -1.632   2.726   3.095  1.7172 -2.1840 -2.1831
  130MOL0     H17920  -1.274   3.257   3.882  0.3158  1.0703 -1.5059
  130MOL0     H17921  -1.033   3.228   3.953 -3.0554 -1.6960 -0.3874
  130MOL0     H17922  -0.571   3.153   3.870 -1.9927  0.6733  0.8427
  130MOL0     H17923  -0.351   3.170   3.969 -1.1252 -1.5453  0.1037
  130MOL0     H17924   0.369   2.035   3.832 -0.4077 -0.9755 -0.5532
  130MOL0     H17925   0.536   1.945   3.977 -0.0946 -1.0482 -1.9597
  130MOL0     H17926   0.739   1.750   4.187  2.7288 -0.8766  0.1397
  130MOL0     H17927   0.946   1.655   4.295 -0.1862  1.7639  1.6600
  130MOL0     H17928   1.119   1.603   4.436 -0.0430 -0.7186  1.3409
  130MOL0     H17929   1.035   1.731   4.520  0.7257  0.1590  2.3689
  130MOL0     H17930   1.221   1.671   4.653  0.5200 -1.1230 -0.4767
  130MOL0     H17931   1.212   1.501   4.605 -0.2561  0.9930 -4.6838
  130MOL0     H17932   1.012   1.476   4.758  0.8439 -0.0074 -1.4050
  130MOL0     H17933   1.148   1.533   4.857  2.0194  0.0110 -1.1498
  130MOL0     H17934   0.915   1.694   4.747  2.6071 -0.6752 -2.0722
  130MOL0     H17935   1.038   1.763   4.859 -3.6763  2.6479  0.1423
  130MOL0     H17936   0.763   1.515   5.101  0.9786  1.6897  0.5824
  130MOL0     H17937   0.715   1.502   4.623  0.4917 -1.9436 -0.6601
  130MOL0     H17938   0.415   1.662   4.575  0.1324 -0.7269  2.8769
  130MOL0     H17939   0.415   1.501   4.491 -0.7672  0.9237  0.3059
  130MOL0     H17940   0.503   1.523   4.643  1.2320  1.1548  0.5270
  131MOL0     O17941   0.849  10.181   9.707 -1.0665 -0.0431  0.6836
  131MOL0     C17942   0.746  10.116   9.723 -0.2095 -0.5705  0.8411
  131MOL0     O17943   0.664  10.087   9.619  0.3512  0.4843  0.1889
  131MOL0     C17944   0.707  10.118   9.488  0.1934  0.2393 -0.5466
  131MOL0     C17945   0.735  10.008   9.398 -0.0902 -0.8118 -0.2814
  131MOL0     C17946   0.769  10.033   9.266 -0.1994 -0.0374 -0.7395
  131MOL0     C17947   0.778  10.167   9.216 -0.7098 -0.4003 -0.6301
  131MOL0     O17948   0.811  10.179   9.084 -0.5596 -0.0122  0.1589
  131MOL0     C17949   0.815  10.316   9.024  0.4778  0.5987 -0.5248
  131MOL0     C17950   0.868  10.318   8.886 -0.5920  1.1710  0.4646
  131MOL0     C17951   1.020  10.274   8.897  0.1114  0.0810  0.1617
  131MOL0     C17952   1.121  10.387   8.909 -0.0515  0.5760  0.9773
  131MOL0     C17953   1.158  10.454   8.774 -0.3307 -0.4909 -0.2128
  131MOL0     C17954   1.252  10.576   8.811 -0.3161 -0.4117  1.4175
  131MOL0     C17955   1.397  10.523   8.841  0.5205  0.0668  0.0110
  131MOL0     C17956   1.505  10.566   8.739 -0.1507  0.5509 -0.5655
  131MOL0     N17957   1.512  10.708   8.728  0.0771 -0.3334 -0.0141
  131MOL0     C17958   1.596  10.784   8.805  0.5459  0.0444  0.0971
  131MOL0     C17959   1.596  10.908   8.747  0.5259 -1.2962  0.1294
  131MOL0     C17960   1.654  11.044   8.794 -0.5633  0.5307  0.0456
  131MOL0     C17961   1.695  11.121   8.667 -0.3577 -0.5306 -0.3371
  131MOL0     C17962   1.761  11.260   8.690  0.2448 -0.0928  0.7252
  131MOL0     C17963   1.669  11.366   8.745  0.4116 -0.8311  0.4556
  131MOL0     O17964   1.717  11.474   8.833  0.0210 -0.1645  1.1130
  131MOL0     C17965   1.786  11.437   8.945  0.6216  0.1922 -0.0791
  131MOL0     C17966   1.852  11.540   9.000  0.4393 -1.1289 -0.6751
  131MOL0     C17967   1.926  11.530   9.119  0.0336 -0.7532  0.4157
  131MOL0     C17968   1.987  11.657   9.169  0.2882 -1.0391 -0.2882
  131MOL0     C17969   1.927  11.405   9.188 -0.0073 -0.3542 -0.2601
  131MOL0     C17970   2.004  11.373   9.308 -0.1326 -0.3720  0.1950
  131MOL0     O17971   2.030  11.239   9.332  0.3829 -0.1642  0.0644
  131MOL0     C17972   2.089  11.191   9.444 -0.5363  0.5749  0.6069
  131MOL0     C17973   2.106  11.260   9.563 -0.4767 -0.7558 -0.4223
  131MOL0     C17974   2.155  11.200   9.681 -0.5501 -0.7245 -0.3804
  131MOL0     C17975   2.163  11.062   9.690  0.1514 -0.0745  0.9872
  131MOL0     O17976   2.176  11.001   9.815 -0.1015  0.7846 -0.2203
  131MOL0     C17977   2.254  11.061   9.916  0.2651 -0.6637 -0.8291
  131MOL0     C17978   2.304  10.945  10.007  0.5797  0.6380  0.5270
  131MOL0     C17979   2.448  10.913   9.962 -1.0345 -0.5173 -0.0316
  131MOL0     C17980   2.526  10.808  10.040  0.0358  1.2554 -0.9163
  131MOL0     C17981   2.576  10.850  10.177 -0.5627 -0.1288 -1.9631
  131MOL0     C17982   2.623  10.720  10.255  0.1145  0.3628  0.2856
  131MOL0     C17983   2.688  10.738  10.394  0.5967 -0.7513 -0.3807
  131MOL0     C17984   2.820  10.810  10.387 -0.0548 -1.0139  0.1677
  131MOL0    Cl17985   2.913  10.814  10.535 -0.1781 -0.0750  0.2583
  131MOL0     C17986   2.155  10.997   9.569 -0.3203  0.2721  0.4113
  131MOL0     C17987   2.127  11.059   9.445  0.3436 -0.0321 -1.1426
  131MOL0     O17988   2.055  11.471   9.374  0.4799  0.0057  0.0253
  131MOL0     C17989   1.864  11.291   9.127  0.6529 -0.4449  0.6177
  131MOL0     C17990   1.793  11.306   9.003  0.7947  0.3504  0.5686
  131MOL0     N17991   1.491  10.914   8.654 -1.0027 -0.4270 -0.2960
  131MOL0     N17992   1.451  10.795   8.632 -0.4169  0.7526  0.1807
  131MOL0     C17993   0.765  10.269   9.306  0.7233 -0.2798 -0.6121
  131MOL0     C17994   0.727  10.249   9.440  1.3803  0.3751 -0.3568
  131MOL0     C17995   0.713  10.070   9.863 -0.1684 -0.7691 -0.1191
  131MOL0     C17996   0.819  10.087   9.959 -0.1528 -0.3787  0.0934
  131MOL0     C17997   0.803  10.030  10.090  0.4593 -0.1273 -0.0089
  131MOL0     C17998   0.678   9.981  10.125 -0.4536 -0.0818 -0.1988
  131MOL0     O17999   0.669   9.940  10.256  0.1802  0.3966  0.1833
  131MOL0     C18000   0.546   9.951  10.324 -0.4378  0.1744  0.0240
  131MOL0     C18001   0.557   9.919  10.480  1.0587  0.0934  0.0710
  131MOL0     C18002   0.567   9.765  10.502 -0.3843 -0.3778 -0.3130
  131MOL0     C18003   0.548   9.727  10.655  0.2286  0.2850  1.5149
  131MOL0     C18004   0.654   9.800  10.726  0.3406  0.9873 -0.5538
  131MOL0     C18005   0.748   9.843  10.781 -0.8734 -1.1609 -0.2242
  131MOL0     C18006   0.572   9.966  10.032  0.1698 -0.7882 -0.0144
  131MOL0     C18007   0.586  10.019   9.905 -0.8270 -0.5647  0.3203
  131MOL0     C18008   0.472   9.996   9.814 -0.0101  0.4056 -0.3098
  131MOL0     H18009   0.734   9.906   9.435 -0.2563  0.1147  2.5055
  131MOL0     H18010   0.806   9.950   9.207 -0.0053 -0.7734  0.3848
  131MOL0     H18011   0.885  10.378   9.081 -1.4026  0.1414  2.5228
  131MOL0     H18012   0.722  10.374   9.018  0.3682  0.3591 -1.3595
  131MOL0     H18013   0.820  10.248   8.818  0.7850  1.4494 -0.8507
  131MOL0     H18014   0.870  10.418   8.840 -1.8685  1.1726  0.3958
  131MOL0     H18015   1.033  10.210   8.985 -2.4639 -0.7240  0.0645
  131MOL0     H18016   1.045  10.211   8.810 -2.6660  0.0539 -0.7380
  131MOL0     H18017   1.081  10.463   8.978 -0.1392  0.6981  0.7939
  131MOL0     H18018   1.217  10.355   8.951  0.8946  2.4548  0.4022
  131MOL0     H18019   1.069  10.478   8.715  1.7426  0.6319 -3.1297
  131MOL0     H18020   1.218  10.381   8.718 -0.1446  0.6274 -1.5296
  131MOL0     H18021   1.258  10.638   8.720 -0.4749 -3.2343 -0.6351
  131MOL0     H18022   1.209  10.639   8.890  0.6602 -0.1254  1.7338
  131MOL0     H18023   1.392  10.414   8.847 -4.2712 -0.0329 -1.5721
  131MOL0     H18024   1.419  10.561   8.941  0.7505 -1.6893  0.6768
  131MOL0     H18025   1.605  10.538   8.773 -0.2406  1.4337  0.4803
  131MOL0     H18026   1.483  10.523   8.641  0.4486 -0.0269 -0.4534
  131MOL0     H18027   1.643  10.760   8.900 -1.9448 -2.6554  0.7933
  131MOL0     H18028   1.740  11.009   8.851  0.9869  0.8516 -2.0051
  131MOL0     H18029   1.582  11.098   8.856 -0.2472  1.4815 -0.3992
  131MOL0     H18030   1.764  11.061   8.608 -1.0271 -1.7365  0.0666
  131MOL0     H18031   1.607  11.147   8.607 -2.8275 -1.0374  2.7801
  131MOL0     H18032   1.846  11.244   8.757 -1.6918 -2.6821  2.7580
  131MOL0     H18033   1.802  11.289   8.593  0.3907  2.4058  1.4618
  131MOL0     H18034   1.615  11.402   8.656  4.3088  0.6357 -1.5757
  131MOL0     H18035   1.589  11.322   8.804  1.2459 -1.5336  1.0902
  131MOL0     H18036   1.852  11.633   8.944 -1.6642 -0.4251  0.3963
  131MOL0     H18037   2.095  11.646   9.182  0.2766 -4.2159 -1.8027
  131MOL0     H18038   1.948  11.672   9.270  0.0373 -2.8477 -0.0755
  131MOL0     H18039   1.950  11.738   9.106 -3.2790 -1.2667  1.2434
  131MOL0     H18040   2.070  11.361   9.577  2.5198  0.4398 -0.5581
  131MOL0     H18041   2.143  11.241   9.781  2.4310 -0.8431  0.1298
  131MOL0     H18042   2.332  11.122   9.871  0.4681  0.0660  0.4684
  131MOL0     H18043   2.197  11.137   9.970 -1.1620 -1.3313 -1.3385
  131MOL0     H18044   2.305  10.991  10.106 -0.3955 -1.7400  1.7307
  131MOL0     H18045   2.245  10.854   9.990  0.4755  0.8859 -0.5349
  131MOL0     H18046   2.508  11.004   9.967 -0.6778 -0.5892 -2.1634
  131MOL0     H18047   2.456  10.883   9.857 -0.4680 -1.6653  0.3270
  131MOL0     H18048   2.608  10.769   9.980 -0.7299  1.5394 -2.1767
  131MOL0     H18049   2.466  10.717  10.055  0.3944  1.1886  0.2757
  131MOL0     H18050   2.659  10.922  10.172 -2.1892  2.1692  0.8285
  131MOL0     H18051   2.489  10.883  10.234  0.4180  0.0724 -0.5133
  131MOL0     H18052   2.703  10.678  10.194 -1.1911 -0.3369 -1.0107
  131MOL0     H18053   2.541  10.649  10.272  0.8624 -0.4738  0.4517
  131MOL0     H18054   2.697  10.636  10.432  2.5283  0.2923  2.2710
  131MOL0     H18055   2.620  10.801  10.453 -0.0468 -1.5031 -0.3075
  131MOL0     H18056   2.801  10.908  10.343  0.6960 -0.8319  0.2384
  131MOL0     H18057   2.878  10.749  10.317 -0.2126 -1.2169  0.2095
  131MOL0     H18058   2.152  10.889   9.571  3.9035 -0.0165  1.3779
  131MOL0     H18059   2.116  11.010   9.349 -0.0170 -0.6825 -0.7736
  131MOL0     H18060   1.867  11.195   9.178  1.4168  0.1193  1.6567
  131MOL0     H18061   1.744  11.218   8.963  1.3871  0.4016 -0.3167
  131MOL0     H18062   0.775  10.367   9.261  1.7467 -0.6312 -1.1693
  131MOL0     H18063   0.710  10.333   9.507  1.1441  1.1207 -1.3223
  131MOL0     H18064   0.915  10.119   9.922  0.6728 -2.0247  0.7217
  131MOL0     H18065   0.891  10.032  10.153  0.8858 -0.9649 -0.5645
  131MOL0     H18066   0.515  10.056  10.310  2.4367  1.1339  0.1934
  131MOL0     H18067   0.467   9.889  10.280 -2.3445  2.7703 -0.4853
  131MOL0     H18068   0.469   9.946  10.539  2.4390  1.1254  1.7309
  131MOL0     H18069   0.635   9.978  10.529 -1.5585  3.3903  0.6289
  131MOL0     H18070   0.482   9.719  10.450  0.5063 -1.1261 -1.1455
  131MOL0     H18071   0.666   9.726  10.475  1.1037  2.3012  0.8849
  131MOL0     H18072   0.561   9.619  10.667  0.7795  0.1486 -0.1028
  131MOL0     H18073   0.445   9.752  10.682 -1.6189 -2.0205 -2.5723
  131MOL0     H18074   0.817   9.902  10.838 -2.9613  2.3754 -1.0821
  131MOL0     H18075   0.478   9.923  10.066  1.0862 -1.4082  1.8162
  131MOL0     H18076   0.456  10.090   9.760  0.0047  1.2066  1.0552
  131MOL0     H18077   0.485   9.912   9.744 -3.1183  0.7491 -1.4848
  131MOL0     H18078   0.382   9.980   9.874  0.8094  1.8465  1.3653
  132MOL0     O18079   7.987   4.109   1.372 -0.0848 -0.1375  1.2191
  132MOL0     C18080   8.012   4.156   1.258 -0.2395  0.1652  0.9173
  132MOL0     O18081   8.117   4.242   1.225 -0.3768  0.5601 -0.0681
  132MOL0     C18082   8.196   4.278   1.330 -0.5108  0.1236 -0.8266
  132MOL0     C18083   8.337   4.282   1.299 -1.4001 -0.0409  0.2174
  132MOL0     C18084   8.427   4.329   1.394 -0.0857 -0.0395  0.5644
  132MOL0     C18085   8.394   4.385   1.513  0.6913  0.7093  0.3517
  132MOL0     O18086   8.495   4.411   1.604  0.0876  0.0015 -0.0902
  132MOL0     C18087   8.468   4.489   1.726 -0.7046 -0.0910  0.2963
  132MOL0     C18088   8.479   4.639   1.688  0.8798  0.1725  0.0538
  132MOL0     C18089   8.622   4.689   1.668 -0.5390  0.6753 -0.3673
  132MOL0     C18090   8.650   4.841   1.633 -0.4583  0.4658 -0.2957
  132MOL0     C18091   8.761   4.847   1.526 -0.1184 -0.4408  0.5528
  132MOL0     C18092   8.782   4.993   1.501 -0.8992  0.4941  0.0598
  132MOL0     C18093   8.835   5.073   1.621 -0.3330 -0.2222 -0.1936
  132MOL0     C18094   8.856   5.228   1.597  0.1890  0.0089 -0.5137
  132MOL0     N18095   8.953   5.278   1.698  0.2864  0.7712  0.5397
  132MOL0     C18096   8.919   5.346   1.814 -0.1350 -0.1720  0.0033
  132MOL0     C18097   9.043   5.385   1.854 -1.0321 -0.4661 -0.2744
  132MOL0     C18098   9.071   5.487   1.967 -0.3227  1.0635 -0.3689
  132MOL0     C18099   9.154   5.601   1.909 -1.2374 -0.2092  0.8325
  132MOL0     C18100   9.157   5.716   2.006 -0.1772  0.5072 -0.3257
  132MOL0     C18101   9.262   5.811   1.945 -0.2488 -0.0483  0.4351
  132MOL0     O18102   9.277   5.940   2.011 -0.6173  0.2210  0.4838
  132MOL0     C18103   9.365   6.035   1.955  0.0016 -0.2141  0.1612
  132MOL0     C18104   9.463   6.016   1.855 -0.4416 -0.4206  0.5746
  132MOL0     C18105   9.545   6.123   1.808 -0.1754  0.6980 -0.6055
  132MOL0     C18106   9.655   6.074   1.711 -0.1011 -0.3716 -0.2066
  132MOL0     C18107   9.543   6.248   1.875  0.3031 -0.8192 -0.5276
  132MOL0     C18108   9.606   6.369   1.832 -0.2712 -0.1044  0.3554
  132MOL0     O18109   9.603   6.479   1.916  0.6918 -0.4507 -0.6953
  132MOL0     C18110   9.626   6.594   1.842 -0.0247  0.6197  0.1298
  132MOL0     C18111   9.522   6.626   1.756  0.2697  0.1547  0.0109
  132MOL0     C18112   9.544   6.748   1.682 -0.5060  0.9601  0.1689
  132MOL0     C18113   9.668   6.816   1.676  0.4341  0.3719  0.5974
  132MOL0     O18114   9.679   6.908   1.571  0.3828 -0.0179 -0.1899
  132MOL0     C18115   9.813   6.953   1.548  0.1951  1.1294  0.3114
  132MOL0     C18116   9.803   7.079   1.458 -0.3497  1.1970 -0.2120
  132MOL0     C18117   9.948   7.106   1.410  0.1110 -0.1422 -0.4082
  132MOL0     C18118  10.013   6.999   1.326  1.0012 -0.3463 -0.0256
  132MOL0     C18119  10.096   7.049   1.206  0.3655  0.2129 -0.5561
  132MOL0     C18120  10.207   7.151   1.237  0.0898 -1.2753  0.8470
  132MOL0     C18121  10.342   7.082   1.283 -0.3773  0.3725  0.5366
  132MOL0     C18122  10.398   7.159   1.399  0.8562 -0.0874 -0.5843
  132MOL0    Cl18123  10.521   7.061   1.456 -0.4439  0.2203 -0.2961
  132MOL0     C18124   9.770   6.778   1.768  0.0825  1.2642  0.2790
  132MOL0     C18125   9.745   6.666   1.844 -0.8914 -0.4932 -0.6538
  132MOL0     O18126   9.656   6.364   1.720 -0.0437  0.7351  0.9899
  132MOL0     C18127   9.459   6.261   1.994  0.0600 -0.3126 -0.2215
  132MOL0     C18128   9.383   6.150   2.033 -0.4514  0.3896  0.4600
  132MOL0     N18129   9.148   5.331   1.773  0.2492  0.4142 -0.5483
  132MOL0     N18130   9.090   5.266   1.679  0.3622 -0.1289 -0.3819
  132MOL0     C18131   8.250   4.406   1.535 -1.3743  1.1034 -0.0663
  132MOL0     C18132   8.154   4.345   1.453 -0.8002 -0.2604 -0.5046
  132MOL0     C18133   7.925   4.111   1.148  0.4460 -0.7112  0.3587
  132MOL0     C18134   7.884   4.205   1.055  0.5347 -0.2687 -0.4730
  132MOL0     C18135   7.800   4.169   0.954  0.5147  0.3050  0.5378
  132MOL0     C18136   7.737   4.042   0.946 -0.7606 -0.5337  0.6996
  132MOL0     O18137   7.650   4.009   0.846 -0.2268  0.3111  0.2642
  132MOL0     C18138   7.707   4.034   0.713  0.9721  1.9106  0.8493
  132MOL0     C18139   7.658   4.161   0.655  0.0729 -0.1547  0.2172
  132MOL0     C18140   7.625   4.157   0.497  0.3454 -0.4498 -0.0144
  132MOL0     C18141   7.597   4.305   0.450 -0.4940 -0.5212  0.0582
  132MOL0     C18142   7.715   4.387   0.405 -0.8492 -0.2930 -0.9115
  132MOL0     C18143   7.808   4.450   0.353  0.2336  1.0270  0.7868
  132MOL0     C18144   7.780   3.947   1.038 -0.1351 -0.2923  0.4812
  132MOL0     C18145   7.868   3.981   1.142 -0.3457 -0.7708 -0.3259
  132MOL0     C18146   7.904   3.864   1.230  1.1327  0.8373 -0.5089
  132MOL0     H18147   8.359   4.255   1.196 -1.7570  3.6515 -0.9926
  132MOL0     H18148   8.533   4.319   1.372 -0.2996  0.9782 -1.0730
  132MOL0     H18149   8.543   4.469   1.804 -0.4952  2.0475  0.7021
  132MOL0     H18150   8.367   4.468   1.761 -1.1980  0.4793 -0.7344
  132MOL0     H18151   8.430   4.660   1.592  0.7181 -0.4147  0.0035
  132MOL0     H18152   8.424   4.698   1.761 -1.5852  0.1641 -1.6867
  132MOL0     H18153   8.679   4.669   1.759 -1.6281  2.7678  0.8548
  132MOL0     H18154   8.652   4.626   1.584 -3.8766  1.9852 -2.7613
  132MOL0     H18155   8.561   4.896   1.600 -1.6858  1.7251  4.4453
  132MOL0     H18156   8.678   4.894   1.724  1.3889  0.4952 -0.8349
  132MOL0     H18157   8.724   4.787   1.443  2.2518 -0.6882 -0.4078
  132MOL0     H18158   8.856   4.804   1.560  0.5289 -0.2496 -0.9156
  132MOL0     H18159   8.845   4.995   1.412 -0.0391  2.7595  0.6413
  132MOL0     H18160   8.689   5.034   1.461 -0.7440  1.0075  0.2167
  132MOL0     H18161   8.924   5.017   1.654 -0.8716 -0.7323  0.4345
  132MOL0     H18162   8.773   5.067   1.711 -0.9596  0.3820 -0.5814
  132MOL0     H18163   8.894   5.251   1.497 -0.2395  0.7674 -0.5088
  132MOL0     H18164   8.764   5.285   1.612  0.0066 -1.1093  4.2964
  132MOL0     H18165   8.820   5.370   1.852 -0.8383 -0.7957 -1.3850
  132MOL0     H18166   9.125   5.437   2.048 -2.7618  0.9640  1.3101
  132MOL0     H18167   8.975   5.521   2.006 -1.0481 -0.8469 -0.4265
  132MOL0     H18168   9.254   5.568   1.881 -1.0843 -0.3334  1.4966
  132MOL0     H18169   9.106   5.628   1.815 -0.6864 -0.2066  0.5489
  132MOL0     H18170   9.057   5.760   2.013 -0.4364 -0.2675  1.1065
  132MOL0     H18171   9.192   5.697   2.108  0.2586  1.4866 -0.2790
  132MOL0     H18172   9.362   5.770   1.962 -0.8171 -0.8908  1.8136
  132MOL0     H18173   9.239   5.831   1.840  1.1395 -0.3783  0.0371
  132MOL0     H18174   9.482   5.921   1.805 -1.1931  0.4805 -1.5746
  132MOL0     H18175   9.752   6.051   1.755  0.6924  0.3022 -1.5477
  132MOL0     H18176   9.673   6.147   1.632 -1.0697 -0.5842 -0.6301
  132MOL0     H18177   9.618   5.988   1.656 -0.2000 -0.9157  0.6871
  132MOL0     H18178   9.432   6.565   1.752  0.8648 -0.7453  0.0378
  132MOL0     H18179   9.468   6.789   1.616 -2.2301 -1.5759  0.4229
  132MOL0     H18180   9.864   6.977   1.641  0.2576  1.6728  0.1377
  132MOL0     H18181   9.870   6.875   1.496 -1.1365  1.5195 -1.8795
  132MOL0     H18182   9.747   7.049   1.369  0.5628 -0.3286 -0.3251
  132MOL0     H18183   9.753   7.166   1.501 -0.9627  0.4673  0.5982
  132MOL0     H18184  10.010   7.145   1.492 -2.3955  1.2072  0.9665
  132MOL0     H18185   9.936   7.193   1.344  0.0303  0.7601  0.7609
  132MOL0     H18186   9.925   6.942   1.294 -0.5784  0.2227  2.9769
  132MOL0     H18187  10.077   6.930   1.381 -0.5988 -1.2119  0.8017
  132MOL0     H18188  10.145   6.965   1.157 -0.6244 -1.1826  0.7565
  132MOL0     H18189  10.035   7.103   1.133  0.7914 -0.8593 -1.7458
  132MOL0     H18190  10.176   7.207   1.326 -0.9540  1.0303 -0.8680
  132MOL0     H18191  10.224   7.213   1.149  2.9975 -2.5332  0.4262
  132MOL0     H18192  10.413   7.073   1.200  0.0663  1.2272  0.8064
  132MOL0     H18193  10.306   6.981   1.303  0.4564  0.1860  1.1556
  132MOL0     H18194  10.319   7.167   1.475 -0.2661 -2.6171 -1.3763
  132MOL0     H18195  10.442   7.250   1.358 -0.9240  1.5803  0.9902
  132MOL0     H18196   9.868   6.825   1.779 -0.2780  2.1894 -0.3825
  132MOL0     H18197   9.826   6.624   1.903 -0.1779  1.7724  0.0870
  132MOL0     H18198   9.463   6.352   2.053  0.6852 -0.5106  0.0419
  132MOL0     H18199   9.323   6.152   2.124  2.5656  0.2316  2.6134
  132MOL0     H18200   8.228   4.462   1.625  1.7291  1.5360  0.5303
  132MOL0     H18201   8.050   4.363   1.478 -0.2905  0.4663  1.2212
  132MOL0     H18202   7.934   4.301   1.065  2.5096 -1.3928  1.1960
  132MOL0     H18203   7.780   4.241   0.875  3.8418  0.1747 -0.6087
  132MOL0     H18204   7.816   4.026   0.705  1.0389  3.9742 -2.4216
  132MOL0     H18205   7.654   3.964   0.648  0.4377 -0.0580  3.2631
  132MOL0     H18206   7.723   4.247   0.677 -0.4096 -0.0771  1.3980
  132MOL0     H18207   7.560   4.184   0.697  0.0297  3.0538 -1.3112
  132MOL0     H18208   7.712   4.114   0.446  0.3754 -3.4255  2.2591
  132MOL0     H18209   7.539   4.090   0.492 -1.0153  1.2176  0.1048
  132MOL0     H18210   7.552   4.367   0.528  2.8645 -1.3570  2.9235
  132MOL0     H18211   7.520   4.310   0.373 -1.3523 -0.6994  0.8794
  132MOL0     H18212   7.888   4.499   0.301  2.2667 -2.1647  0.5656
  132MOL0     H18213   7.733   3.849   1.034  0.3218 -0.6543  2.6436
  132MOL0     H18214   7.923   3.888   1.335  0.1807 -0.7456  0.0619
  132MOL0     H18215   7.828   3.785   1.231 -2.3720  3.9255  0.4825
  132MOL0     H18216   7.998   3.824   1.190  1.2187  1.0583 -0.5305
  133MOL0     O18217   4.232   8.061   2.813  0.1962  0.5033 -0.6513
  133MOL0     C18218   4.320   8.079   2.724  0.6098  0.4369  0.0128
  133MOL0     O18219   4.457   8.064   2.748 -0.4356  0.9739 -0.0379
  133MOL0     C18220   4.520   8.070   2.868  0.2814  0.8590 -0.1820
  133MOL0     C18221   4.643   8.018   2.882 -0.7816 -0.9348  0.2927
  133MOL0     C18222   4.720   8.021   3.000  0.2073  0.5129 -0.6236
  133MOL0     C18223   4.676   8.096   3.114  0.9665 -0.5769  1.3370
  133MOL0     O18224   4.733   8.093   3.232 -0.0143  0.4111 -0.3694
  133MOL0     C18225   4.861   8.025   3.255 -0.0446 -0.6451  1.2770
  133MOL0     C18226   4.918   8.050   3.402  0.8336  0.3107  0.6986
  133MOL0     C18227   4.941   8.192   3.448 -0.2697 -0.0211  0.0430
  133MOL0     C18228   4.997   8.211   3.585 -0.9526 -0.6741  0.1146
  133MOL0     C18229   5.143   8.165   3.601 -0.5062 -0.8424  0.1658
  133MOL0     C18230   5.239   8.258   3.509 -0.3586 -0.1984 -1.2283
  133MOL0     C18231   5.221   8.404   3.552  0.5226  0.2229  0.1402
  133MOL0     C18232   5.334   8.497   3.526 -0.9293 -0.1699 -0.3459
  133MOL0     N18233   5.355   8.505   3.376  0.4757  0.3777  0.0882
  133MOL0     C18234   5.289   8.599   3.295 -0.8700 -0.1320 -0.4428
  133MOL0     C18235   5.355   8.602   3.177  0.1040  0.0045  0.4525
  133MOL0     C18236   5.341   8.709   3.071  0.6764 -0.9567  0.3212
  133MOL0     C18237   5.437   8.826   3.080  0.2952 -0.0750 -0.2255
  133MOL0     C18238   5.390   8.957   3.009  0.2365  0.3040  0.7408
  133MOL0     C18239   5.240   9.004   3.037  0.9606 -0.6409  0.0840
  133MOL0     O18240   5.203   9.029   3.172  0.0536  0.2766  0.2704
  133MOL0     C18241   5.192   9.157   3.210 -0.0352 -0.9446  0.2930
  133MOL0     C18242   5.078   9.200   3.286  0.8248 -0.2715  1.1771
  133MOL0     C18243   5.068   9.330   3.322 -0.1487  0.3069 -0.1940
  133MOL0     C18244   4.941   9.370   3.396  0.2082  0.2954 -0.5210
  133MOL0     C18245   5.174   9.417   3.296 -0.5759  0.1377 -0.1146
  133MOL0     C18246   5.187   9.557   3.345  0.9768 -0.5392  0.0616
  133MOL0     O18247   5.245   9.636   3.252 -0.2421  0.2966 -0.1736
  133MOL0     C18248   5.322   9.744   3.296  0.0177  0.2043 -0.0013
  133MOL0     C18249   5.373   9.769   3.421  0.6849 -0.0991  0.2516
  133MOL0     C18250   5.471   9.872   3.445  0.2838 -0.0693 -0.6924
  133MOL0     C18251   5.529   9.938   3.336  0.8005 -0.4975 -0.1674
  133MOL0     O18252   5.628  10.029   3.360 -1.0243  0.4314  0.3419
  133MOL0     C18253   5.641  10.140   3.273 -0.8214 -0.6123  0.6395
  133MOL0     C18254   5.753  10.229   3.333 -0.1046 -0.0107  0.1383
  133MOL0     C18255   5.790  10.354   3.246 -0.0460 -0.9096  0.0459
  133MOL0     C18256   5.891  10.428   3.326 -0.3531 -0.1422 -0.1047
  133MOL0     C18257   5.895  10.583   3.297 -0.3264  0.8422  0.0415
  133MOL0     C18258   5.944  10.608   3.156 -0.4882  0.3387  1.3818
  133MOL0     C18259   5.963  10.761   3.122 -0.3866  0.2921 -0.8588
  133MOL0     C18260   5.988  10.766   2.972 -0.4414  0.0400  0.5597
  133MOL0    Cl18261   5.831  10.734   2.890 -0.1536  0.1014 -0.3845
  133MOL0     C18262   5.470   9.916   3.213  0.4355  1.1722 -0.8863
  133MOL0     C18263   5.369   9.823   3.187  0.1363  0.5357 -0.2490
  133MOL0     O18264   5.151   9.583   3.456  0.3080 -0.0810 -0.2608
  133MOL0     C18265   5.286   9.378   3.217  1.2405  1.2301 -0.5054
  133MOL0     C18266   5.297   9.246   3.180 -0.4580  0.4420 -0.2792
  133MOL0     N18267   5.441   8.490   3.179  0.3280  1.1985  0.5179
  133MOL0     N18268   5.447   8.440   3.299 -0.3736  0.2765 -0.5149
  133MOL0     C18269   4.554   8.160   3.090 -0.8829 -0.5306  0.1100
  133MOL0     C18270   4.474   8.150   2.974 -0.5440  0.8593  0.3538
  133MOL0     C18271   4.284   8.088   2.582 -0.2904  0.4442  0.3366
  133MOL0     C18272   4.371   8.035   2.482 -0.4132 -1.3254  0.5822
  133MOL0     C18273   4.339   8.044   2.344 -0.7182  0.4430  0.2190
  133MOL0     C18274   4.222   8.118   2.305 -1.5391 -0.4459 -0.1699
  133MOL0     O18275   4.184   8.141   2.177  0.3546 -0.8756  0.2281
  133MOL0     C18276   4.275   8.214   2.094  0.2425 -0.3613 -0.5701
  133MOL0     C18277   4.201   8.293   1.989 -0.0070  0.7313  0.2692
  133MOL0     C18278   4.083   8.367   2.052  0.1573  0.1800  0.2732
  133MOL0     C18279   3.993   8.434   1.954  0.4899 -0.9615  0.6041
  133MOL0     C18280   3.869   8.478   2.028  0.3489 -0.5914  0.2372
  133MOL0     C18281   3.772   8.518   2.094  0.0022  0.7427 -0.3556
  133MOL0     C18282   4.146   8.184   2.404 -0.3097  0.3707 -0.1283
  133MOL0     C18283   4.175   8.179   2.539 -0.3103  0.7514 -0.0149
  133MOL0     C18284   4.079   8.248   2.631  0.9802 -0.1360 -0.3785
  133MOL0     H18285   4.673   7.953   2.801 -3.4836 -0.4954 -1.1634
  133MOL0     H18286   4.813   7.965   3.005  1.3861  2.4669  2.0543
  133MOL0     H18287   4.931   8.064   3.181  0.4754  0.3537  2.2664
  133MOL0     H18288   4.844   7.919   3.238 -0.1420 -0.2203 -1.8743
  133MOL0     H18289   4.844   8.026   3.480 -0.4312 -0.4950 -0.6946
  133MOL0     H18290   5.008   7.988   3.408  0.0107 -1.4023 -2.3635
  133MOL0     H18291   4.991   8.241   3.364 -2.4195  1.5140 -0.4447
  133MOL0     H18292   4.840   8.234   3.445  0.3042  1.4188 -2.6842
  133MOL0     H18293   4.980   8.310   3.627 -0.5563 -0.7962  0.5689
  133MOL0     H18294   4.933   8.154   3.653 -1.1677 -0.3023  0.2216
  133MOL0     H18295   5.158   8.068   3.553 -1.0145 -0.3157 -1.0865
  133MOL0     H18296   5.177   8.161   3.705 -0.2034  3.8908  0.4491
  133MOL0     H18297   5.342   8.234   3.536 -1.4180 -0.7946  2.8822
  133MOL0     H18298   5.220   8.245   3.402 -3.4149 -2.4971 -0.5338
  133MOL0     H18299   5.193   8.403   3.658 -2.2807  0.5229 -0.5250
  133MOL0     H18300   5.135   8.440   3.495 -0.4178  0.1044  1.4457
  133MOL0     H18301   5.321   8.595   3.574 -1.8732 -0.3758 -0.1491
  133MOL0     H18302   5.417   8.452   3.582 -0.5351  1.7666  0.7249
  133MOL0     H18303   5.207   8.654   3.339  0.0104  3.7545 -3.0937
  133MOL0     H18304   5.238   8.746   3.065  1.7793  2.6207  0.7760
  133MOL0     H18305   5.346   8.652   2.977 -3.3621 -0.8560 -0.1415
  133MOL0     H18306   5.473   8.852   3.180  0.5927  1.9693 -0.8223
  133MOL0     H18307   5.529   8.795   3.030 -1.1261  1.3966 -4.1332
  133MOL0     H18308   5.462   9.038   3.026  1.7939 -0.7404 -0.6426
  133MOL0     H18309   5.396   8.933   2.903 -1.9697 -2.5339  1.1330
  133MOL0     H18310   5.228   9.100   2.985 -1.1593  0.1001  1.8101
  133MOL0     H18311   5.169   8.939   2.984 -0.5566  0.0808  1.1482
  133MOL0     H18312   5.002   9.128   3.315  1.0118 -1.3016 -0.7370
  133MOL0     H18313   4.959   9.375   3.504 -4.4161 -3.4135  0.7455
  133MOL0     H18314   4.859   9.299   3.381 -0.6052  0.9971  0.5126
  133MOL0     H18315   4.914   9.465   3.349  1.0507 -0.0689 -1.7947
  133MOL0     H18316   5.333   9.724   3.512  0.7953 -1.5255 -0.3855
  133MOL0     H18317   5.499   9.878   3.549 -3.6287  0.4742  0.4842
  133MOL0     H18318   5.685  10.114   3.177  4.8044  1.4645  2.2571
  133MOL0     H18319   5.550  10.200   3.264 -0.0089  0.6546  0.5530
  133MOL0     H18320   5.739  10.251   3.440  1.3352  0.6529  0.2159
  133MOL0     H18321   5.836  10.158   3.325 -0.8367 -0.9653  0.7640
  133MOL0     H18322   5.699  10.411   3.225  0.2480 -0.7292 -0.8015
  133MOL0     H18323   5.834  10.327   3.149  2.4376  1.0090  0.5353
  133MOL0     H18324   5.994  10.397   3.302  0.6837  0.7433  2.8229
  133MOL0     H18325   5.871  10.413   3.432  2.7650 -1.3157  0.4414
  133MOL0     H18326   5.798  10.626   3.323 -0.9169  1.8181 -3.2303
  133MOL0     H18327   5.971  10.631   3.360  0.0684  0.2495  0.0160
  133MOL0     H18328   5.872  10.561   3.089  2.5901 -2.1923 -0.4340
  133MOL0     H18329   6.035  10.551   3.138 -2.2326 -1.7478 -1.7220
  133MOL0     H18330   6.058  10.789   3.168 -0.9069 -0.8133  0.9649
  133MOL0     H18331   5.899  10.832   3.174 -0.8161 -3.2251  4.0712
  133MOL0     H18332   6.058  10.687   2.941  2.5273  2.5313  0.4909
  133MOL0     H18333   6.036  10.862   2.950 -2.6054  0.2337 -4.6531
  133MOL0     H18334   5.517   9.968   3.130 -0.8352  2.4124 -0.8626
  133MOL0     H18335   5.320   9.814   3.090  3.5333 -0.2552 -2.0429
  133MOL0     H18336   5.364   9.450   3.197  0.8517  1.8852  0.2683
  133MOL0     H18337   5.384   9.204   3.130 -0.5341  1.7488 -1.5705
  133MOL0     H18338   4.524   8.235   3.162 -1.5310  0.5646 -1.2471
  133MOL0     H18339   4.381   8.204   2.959 -2.6368 -1.7335  2.9879
  133MOL0     H18340   4.458   7.971   2.496 -0.5616 -1.4351  1.0478
  133MOL0     H18341   4.402   8.006   2.264  0.9238  2.7539  0.3310
  133MOL0     H18342   4.343   8.275   2.154 -0.7704 -0.1673  0.4287
  133MOL0     H18343   4.333   8.138   2.041 -1.4018 -2.6805  0.7736
  133MOL0     H18344   4.149   8.229   1.918  0.8242  0.9549 -0.5499
  133MOL0     H18345   4.271   8.353   1.930 -0.4973  2.4966  1.3865
  133MOL0     H18346   4.017   8.294   2.100  1.2331 -0.1631  1.2756
  133MOL0     H18347   4.126   8.437   2.125  1.9271 -0.2812 -0.2735
  133MOL0     H18348   3.966   8.365   1.874 -3.4479 -0.7699  1.6033
  133MOL0     H18349   4.037   8.524   1.910  1.6779 -2.0716 -0.5586
  133MOL0     H18350   3.690   8.557   2.152 -0.7423  0.9793 -1.5356
  133MOL0     H18351   4.056   8.233   2.368 -0.3002  0.9458  0.6053
  133MOL0     H18352   4.143   8.306   2.697  0.9258 -4.0367  3.5587
  133MOL0     H18353   4.009   8.316   2.582  0.0090 -1.1795 -0.5051
  133MOL0     H18354   4.027   8.174   2.693  0.7186  1.6190  1.5904
  134MOL0     O18355  10.149  11.068   7.749 -0.1166 -0.7102 -0.3340
  134MOL0     C18356  10.033  11.042   7.713 -1.1601 -0.6770  0.2565
  134MOL0     O18357   9.918  11.084   7.770 -0.3895 -0.6763 -0.1366
  134MOL0     C18358   9.911  11.145   7.897 -0.0469  0.5536  1.6292
  134MOL0     C18359  10.021  11.192   7.966  0.8161  0.1510 -1.1510
  134MOL0     C18360   9.995  11.237   8.096  0.9414  0.0765 -0.4473
  134MOL0     C18361   9.861  11.232   8.153 -0.1791  0.1513 -0.2181
  134MOL0     O18362   9.836  11.286   8.278 -0.2122  0.3146 -0.3108
  134MOL0     C18363   9.865  11.425   8.285  0.8747 -0.1896 -0.3572
  134MOL0     C18364   9.760  11.497   8.374 -1.1898 -0.3299 -0.0351
  134MOL0     C18365   9.674  11.593   8.308  0.5133  0.4892 -0.6383
  134MOL0     C18366   9.580  11.521   8.206 -0.7839  0.2068  0.6757
  134MOL0     C18367   9.471  11.614   8.143  0.4478 -0.2849 -0.3733
  134MOL0     C18368   9.367  11.669   8.238  1.1943 -0.0151 -1.4953
  134MOL0     C18369   9.289  11.778   8.168 -0.8305  1.1414 -0.1001
  134MOL0     C18370   9.202  11.736   8.047 -0.0416  0.7664  0.0645
  134MOL0     N18371   9.092  11.638   8.084  0.0829 -0.7137 -0.0538
  134MOL0     C18372   9.112  11.503   8.111  0.0826 -0.1509  0.3208
  134MOL0     C18373   8.986  11.460   8.152 -0.0650  0.9752  0.3247
  134MOL0     C18374   8.938  11.318   8.177 -0.7135  0.6281 -0.0643
  134MOL0     C18375   8.888  11.245   8.054  0.1935 -0.7611 -1.6169
  134MOL0     C18376   8.997  11.221   7.952  1.0578 -0.3519 -0.3974
  134MOL0     C18377   8.930  11.168   7.818 -0.0921 -0.1533  0.2514
  134MOL0     O18378   8.897  11.027   7.847 -1.0787 -1.0932  1.0665
  134MOL0     C18379   8.763  10.995   7.864 -0.6216 -0.4715  0.7662
  134MOL0     C18380   8.733  10.902   7.967 -0.6735  0.3371 -0.4758
  134MOL0     C18381   8.599  10.873   8.002 -0.4370 -0.4317 -0.3329
  134MOL0     C18382   8.587  10.774   8.115 -0.0763  0.7645  0.5705
  134MOL0     C18383   8.496  10.917   7.913  0.3113  0.7625 -0.3148
  134MOL0     C18384   8.356  10.877   7.936 -0.1602  0.3455  0.1910
  134MOL0     O18385   8.313  10.862   8.067 -0.4309 -0.5808  0.0803
  134MOL0     C18386   8.191  10.800   8.091  0.0224  0.2590 -0.0350
  134MOL0     C18387   8.125  10.854   8.206 -0.6415  0.3598  0.0546
  134MOL0     C18388   7.990  10.816   8.217  0.0537  0.2408 -0.8594
  134MOL0     C18389   7.935  10.725   8.128 -0.4404 -0.2651  0.0030
  134MOL0     O18390   7.804  10.683   8.137 -0.3220  0.2087 -0.7985
  134MOL0     C18391   7.740  10.674   8.272  0.4629  0.1190  0.4923
  134MOL0     C18392   7.666  10.538   8.271  0.0904 -0.5376  0.0435
  134MOL0     C18393   7.595  10.508   8.402 -0.3073  0.2280  0.6962
  134MOL0     C18394   7.526  10.369   8.399  0.1433 -0.6709  0.2927
  134MOL0     C18395   7.481  10.327   8.544  0.2640 -0.9382  0.0749
  134MOL0     C18396   7.413  10.196   8.549  0.4238 -0.7019 -0.6428
  134MOL0     C18397   7.515  10.079   8.563 -0.5723 -0.2278 -0.3887
  134MOL0     C18398   7.442   9.949   8.567 -0.1538 -0.0703  0.0045
  134MOL0    Cl18399   7.547   9.800   8.574 -0.3456  0.0269  0.4302
  134MOL0     C18400   8.000  10.670   8.013  0.8321  0.0989 -0.3897
  134MOL0     C18401   8.124  10.711   7.997 -0.8124 -0.8432 -0.3436
  134MOL0     O18402   8.290  10.864   7.835  0.2186 -0.3239 -0.0033
  134MOL0     C18403   8.528  11.006   7.812  0.5181  0.4831 -0.4265
  134MOL0     C18404   8.659  11.042   7.782 -0.3462 -0.8692 -0.5865
  134MOL0     N18405   8.902  11.573   8.161  0.8093  0.8001  0.2617
  134MOL0     N18406   8.960  11.671   8.102 -0.3924 -0.0211 -0.4271
  134MOL0     C18407   9.750  11.204   8.073  0.1207  0.4514  0.3649
  134MOL0     C18408   9.778  11.155   7.940  0.1823 -0.3914 -0.2358
  134MOL0     C18409  10.014  10.960   7.588  0.2624 -0.4327  0.3656
  134MOL0     C18410  10.114  10.932   7.501 -0.9328 -0.1322  0.8406
  134MOL0     C18411  10.098  10.880   7.373  0.3332  0.1926 -0.6741
  134MOL0     C18412   9.973  10.831   7.325  0.5624 -0.0324  0.9958
  134MOL0     O18413   9.982  10.764   7.197  0.1981 -0.2611 -0.8254
  134MOL0     C18414   9.856  10.736   7.129 -0.5025  0.1149  0.2359
  134MOL0     C18415   9.881  10.709   6.980  0.1593 -0.2692  0.2172
  134MOL0     C18416   9.831  10.571   6.941  0.4919  0.5771  0.0858
  134MOL0     C18417   9.878  10.540   6.799 -0.2987  0.5130  0.6703
  134MOL0     C18418   9.835  10.625   6.689 -0.1424 -0.5069  0.9656
  134MOL0     C18419   9.791  10.686   6.590  0.2710 -0.0829  0.2391
  134MOL0     C18420   9.867  10.845   7.421  0.8875 -0.0677  0.8257
  134MOL0     C18421   9.884  10.907   7.546 -0.5896 -0.3320  0.7136
  134MOL0     C18422   9.754  10.918   7.625 -0.1324  0.3884 -0.7410
  134MOL0     H18423  10.125  11.187   7.937  1.5679 -1.2975  1.4514
  134MOL0     H18424  10.083  11.274   8.148  3.3160 -1.5661 -2.9994
  134MOL0     H18425   9.851  11.484   8.194 -0.1602  4.5886  2.5775
  134MOL0     H18426   9.967  11.440   8.321 -1.1719  1.7709  5.7723
  134MOL0     H18427   9.695  11.420   8.417  0.6468 -0.3548  3.0372
  134MOL0     H18428   9.817  11.553   8.450  0.3761  2.2384 -2.8697
  134MOL0     H18429   9.619  11.650   8.383 -1.4857 -1.4419 -0.5333
  134MOL0     H18430   9.733  11.672   8.261  1.6902  0.9979  1.5300
  134MOL0     H18431   9.640  11.477   8.126 -1.4179 -1.1622  0.9374
  134MOL0     H18432   9.543  11.438   8.266  4.4086 -1.9298  1.3987
  134MOL0     H18433   9.435  11.553   8.060  0.6889 -1.2902  0.2473
  134MOL0     H18434   9.529  11.695   8.098  2.3458 -1.3477  0.0420
  134MOL0     H18435   9.298  11.587   8.260  0.2796  0.5318 -2.2375
  134MOL0     H18436   9.408  11.696   8.336  1.1091 -0.0779 -1.4416
  134MOL0     H18437   9.347  11.866   8.138  0.3188  2.2167  4.4900
  134MOL0     H18438   9.231  11.834   8.242  1.9230  1.9013  1.6109
  134MOL0     H18439   9.160  11.817   7.988 -1.3244 -2.1038 -3.3461
  134MOL0     H18440   9.266  11.677   7.980 -2.1668 -4.5674  2.1485
  134MOL0     H18441   9.199  11.446   8.081 -0.6660 -1.8991  1.3069
  134MOL0     H18442   8.864  11.308   8.256 -1.0771  0.8847 -0.3663
  134MOL0     H18443   9.023  11.261   8.214 -1.0634  0.0302 -0.1705
  134MOL0     H18444   8.856  11.148   8.092  1.7469 -0.8235 -0.3379
  134MOL0     H18445   8.804  11.304   8.018  0.6102  0.1166 -1.1750
  134MOL0     H18446   9.054  11.306   7.914 -0.2577 -0.9561 -4.1149
  134MOL0     H18447   9.069  11.151   7.994  1.7822  0.5335 -0.1295
  134MOL0     H18448   8.837  11.222   7.800  0.4211  0.3842 -0.8795
  134MOL0     H18449   8.989  11.167   7.726 -2.3150  1.0499 -1.2872
  134MOL0     H18450   8.811  10.854   8.025 -2.3859  1.2461  2.7793
  134MOL0     H18451   8.673  10.707   8.115 -1.2364 -0.8036 -0.5970
  134MOL0     H18452   8.505  10.703   8.100 -0.1844  1.2647 -1.4830
  134MOL0     H18453   8.565  10.830   8.207  0.5462  1.2064  0.4597
  134MOL0     H18454   8.158  10.937   8.268 -0.0771 -1.2582  2.0580
  134MOL0     H18455   7.925  10.857   8.294 -1.1958  1.1432 -2.3323
  134MOL0     H18456   7.813  10.675   8.353  2.2842 -0.3690 -1.0603
  134MOL0     H18457   7.675  10.761   8.279 -0.3858 -0.4855  0.2797
  134MOL0     H18458   7.582  10.546   8.201 -1.6039 -0.6392  1.9623
  134MOL0     H18459   7.736  10.459   8.242 -0.2438 -0.2813 -1.5831
  134MOL0     H18460   7.523  10.588   8.424 -1.2680 -0.1083 -1.0108
  134MOL0     H18461   7.671  10.495   8.480  0.6402 -0.9228 -0.3734
  134MOL0     H18462   7.586  10.285   8.362 -0.6653 -0.4602 -1.6030
  134MOL0     H18463   7.444  10.369   8.326  0.2752 -2.4573  0.1029
  134MOL0     H18464   7.563  10.327   8.616  1.3901  0.0486 -1.1550
  134MOL0     H18465   7.409  10.403   8.573  3.0765  0.6921  3.6176
  134MOL0     H18466   7.345  10.184   8.464  0.3400  0.2596 -0.7213
  134MOL0     H18467   7.358  10.194   8.644 -0.0529 -1.0578 -0.9242
  134MOL0     H18468   7.570  10.081   8.657  4.0717 -2.0037 -2.7698
  134MOL0     H18469   7.590  10.073   8.484  2.3347 -2.6395  2.3152
  134MOL0     H18470   7.374   9.937   8.482  2.5823 -0.1610 -2.3055
  134MOL0     H18471   7.387   9.931   8.659 -0.0666 -2.6509 -0.3889
  134MOL0     H18472   7.957  10.599   7.942  0.5034 -1.8937  1.6688
  134MOL0     H18473   8.185  10.667   7.919 -0.0387  0.4017 -0.4727
  134MOL0     H18474   8.450  11.053   7.752 -1.0207  1.1507  1.9360
  134MOL0     H18475   8.663  11.114   7.702  4.0648  0.1071  0.2671
  134MOL0     H18476   9.653  11.203   8.121  0.1843 -1.6097  0.5726
  134MOL0     H18477   9.704  11.123   7.867 -0.4987 -0.2942  0.4036
  134MOL0     H18478  10.211  10.955   7.542 -0.9796  1.2077  0.2651
  134MOL0     H18479  10.186  10.872   7.309  0.3237 -0.3503 -0.6283
  134MOL0     H18480   9.807  10.650   7.177  1.1186 -0.5995  0.6637
  134MOL0     H18481   9.795  10.827   7.134  1.9578  1.8693  0.2473
  134MOL0     H18482   9.989  10.717   6.964  0.0435  1.2981  0.0285
  134MOL0     H18483   9.827  10.782   6.917  1.5804  0.3619 -0.3193
  134MOL0     H18484   9.870  10.493   7.007  0.4365 -1.7129 -2.4194
  134MOL0     H18485   9.722  10.571   6.939  0.4421  2.9044 -1.6288
  134MOL0     H18486   9.850  10.440   6.766 -1.3258  1.4878 -1.6377
  134MOL0     H18487   9.986  10.551   6.805 -0.2991  2.1019 -1.4103
  134MOL0     H18488   9.751  10.749   6.513 -1.9519  0.1734  1.5270
  134MOL0     H18489   9.769  10.813   7.385  0.7770  0.5956  0.5325
  134MOL0     H18490   9.757  10.881   7.727 -1.0215  0.5799 -0.6327
  134MOL0     H18491   9.718  11.022   7.626 -0.0427  0.4631  1.9931
  134MOL0     H18492   9.670  10.866   7.577  1.4893 -1.5168 -1.6349
  135MOL0     O18493   0.113   3.349   1.849 -0.1430  0.4218  0.5750
  135MOL0     C18494   0.007   3.300   1.882  0.2097 -0.6622  0.3491
  135MOL0     O18495  -0.093   3.372   1.933  0.5575  0.4295  0.2699
  135MOL0     C18496  -0.070   3.501   1.967 -0.2134  0.4538  0.0592
  135MOL0     C18497  -0.001   3.534   2.085 -0.5346 -0.1889 -0.0732
  135MOL0     C18498   0.014   3.670   2.117 -0.6486  0.4813 -0.0623
  135MOL0     C18499  -0.054   3.764   2.042 -0.0113  0.3980  0.1977
  135MOL0     O18500  -0.064   3.900   2.073 -0.3673 -0.2166 -0.3310
  135MOL0     C18501  -0.012   3.939   2.198  0.1605 -0.8330 -0.7016
  135MOL0     C18502  -0.084   4.065   2.245  0.2983 -0.8353 -0.3001
  135MOL0     C18503  -0.241   4.064   2.268  0.3170 -0.0068 -0.5890
  135MOL0     C18504  -0.280   4.026   2.412 -1.0190 -0.2838 -0.9582
  135MOL0     C18505  -0.428   4.020   2.449  0.4534  0.0193 -0.1101
  135MOL0     C18506  -0.497   4.157   2.440  0.5638  0.0233  0.3147
  135MOL0     C18507  -0.447   4.267   2.529 -0.2984 -0.3092  0.6984
  135MOL0     C18508  -0.534   4.392   2.555 -0.3559 -0.4749  0.1330
  135MOL0     N18509  -0.671   4.356   2.603  0.1284 -0.2611 -0.1045
  135MOL0     C18510  -0.785   4.380   2.537  0.0721  0.2134  0.7598
  135MOL0     C18511  -0.882   4.309   2.593  0.3167  0.5206  0.1626
  135MOL0     C18512  -1.020   4.287   2.549 -0.0996 -0.1663  0.1584
  135MOL0     C18513  -1.026   4.162   2.457  0.0628 -1.1449 -0.3809
  135MOL0     C18514  -1.166   4.127   2.428  0.7971  0.6409  0.4306
  135MOL0     C18515  -1.245   4.238   2.351 -0.7215  0.3935 -0.7068
  135MOL0     O18516  -1.157   4.301   2.256  0.0917 -0.6372  0.6284
  135MOL0     C18517  -1.213   4.393   2.164 -0.3129  0.0071 -1.1534
  135MOL0     C18518  -1.344   4.431   2.161 -0.0999 -0.0120  0.2108
  135MOL0     C18519  -1.392   4.514   2.063  0.7570 -0.0313 -0.2536
  135MOL0     C18520  -1.532   4.575   2.062 -0.3589  0.1709  0.5494
  135MOL0     C18521  -1.296   4.578   1.972 -0.0174  0.4961 -0.0219
  135MOL0     C18522  -1.340   4.668   1.870 -0.0670  0.7019  0.3570
  135MOL0     O18523  -1.401   4.615   1.758  0.0974  0.0252  0.4622
  135MOL0     C18524  -1.420   4.696   1.644  0.2451  0.5304 -0.3225
  135MOL0     C18525  -1.512   4.802   1.642  0.8405 -0.3084 -0.0609
  135MOL0     C18526  -1.530   4.873   1.524 -0.1488 -0.8595 -0.2267
  135MOL0     C18527  -1.442   4.850   1.411  0.2699  0.5609 -0.2232
  135MOL0     O18528  -1.452   4.924   1.295 -0.3569  0.3700 -0.1837
  135MOL0     C18529  -1.570   4.984   1.256  0.8048 -0.0280  0.0936
  135MOL0     C18530  -1.577   5.130   1.301 -0.3613 -0.5959 -0.5159
  135MOL0     C18531  -1.456   5.212   1.253  0.1388 -0.3235  0.3836
  135MOL0     C18532  -1.456   5.241   1.101  0.0396 -0.6757  0.1499
  135MOL0     C18533  -1.379   5.143   1.022 -0.8095 -0.2416  0.5435
  135MOL0     C18534  -1.317   5.210   0.897 -0.2399  0.2779 -0.2476
  135MOL0     C18535  -1.272   5.115   0.791  0.2902  0.1708 -1.0953
  135MOL0     C18536  -1.220   5.168   0.656  0.6642 -0.0253 -1.1580
  135MOL0    Cl18537  -1.167   5.033   0.556 -0.1036 -0.0957  0.7723
  135MOL0     C18538  -1.349   4.751   1.417  0.5941 -0.7089 -0.5342
  135MOL0     C18539  -1.341   4.673   1.536  0.1115 -0.3697  0.3648
  135MOL0     O18540  -1.299   4.781   1.877  0.3393  0.3033  0.7082
  135MOL0     C18541  -1.158   4.543   1.979  0.2630 -0.1635  0.3057
  135MOL0     C18542  -1.117   4.450   2.071 -0.5408  0.2763  0.2748
  135MOL0     N18543  -0.818   4.233   2.697  0.2360 -1.3951 -0.6194
  135MOL0     N18544  -0.699   4.272   2.702  0.3294 -0.1389 -0.5620
  135MOL0     C18545  -0.112   3.728   1.926  0.5061  0.1752 -0.2437
  135MOL0     C18546  -0.128   3.602   1.891 -0.3968 -0.4008  0.3102
  135MOL0     C18547  -0.039   3.157   1.863 -0.9893 -0.0032  0.5816
  135MOL0     C18548  -0.177   3.125   1.865 -0.4136  0.3692 -0.4075
  135MOL0     C18549  -0.225   2.997   1.839  0.1035  1.0600  1.1230
  135MOL0     C18550  -0.137   2.893   1.824 -0.5487  0.1242 -0.3663
  135MOL0     O18551  -0.190   2.772   1.794 -0.2610  0.2294  0.5268
  135MOL0     C18552  -0.105   2.657   1.807 -0.0388  0.1073 -1.4210
  135MOL0     C18553  -0.191   2.533   1.819 -0.0177 -0.7443 -0.2868
  135MOL0     C18554  -0.245   2.522   1.961 -0.1699  0.0790 -0.3443
  135MOL0     C18555  -0.270   2.374   1.987 -0.0634 -0.4708  0.0805
  135MOL0     C18556  -0.381   2.311   1.908  0.2137  0.2314  0.7086
  135MOL0     C18557  -0.470   2.254   1.855  1.0215 -0.0271 -0.4500
  135MOL0     C18558   0.005   2.918   1.818 -0.7511  0.0800 -0.0201
  135MOL0     C18559   0.052   3.052   1.848  0.2164  0.2892  0.3939
  135MOL0     C18560   0.207   3.068   1.850  0.4025 -0.2550  0.2330
  135MOL0     H18561   0.050   3.455   2.140  1.8494 -0.1437 -2.0579
  135MOL0     H18562   0.065   3.688   2.211  0.9902 -2.9226 -0.1608
  135MOL0     H18563   0.097   3.951   2.197 -0.0614  1.6567 -1.9418
  135MOL0     H18564  -0.044   3.871   2.278  1.4150  1.3091  1.7800
  135MOL0     H18565  -0.039   4.094   2.341 -0.5014  0.5924 -0.3355
  135MOL0     H18566  -0.056   4.149   2.182 -2.0768  1.6680  1.7226
  135MOL0     H18567  -0.268   4.166   2.241  1.1517  0.8848  1.7289
  135MOL0     H18568  -0.300   3.993   2.208  0.4626 -1.8119  1.2797
  135MOL0     H18569  -0.230   3.931   2.431  2.2804  1.5568  0.2710
  135MOL0     H18570  -0.221   4.096   2.471 -0.3386 -1.6824  0.0727
  135MOL0     H18571  -0.449   3.978   2.547 -1.0687 -0.4845 -0.6284
  135MOL0     H18572  -0.468   3.951   2.373  0.4046  0.8428 -0.8465
  135MOL0     H18573  -0.477   4.203   2.343  0.1915  1.5820  0.9410
  135MOL0     H18574  -0.605   4.140   2.449  0.8676 -3.9701 -1.6231
  135MOL0     H18575  -0.345   4.300   2.510  1.4300 -3.2647  3.6251
  135MOL0     H18576  -0.441   4.215   2.625 -2.0708  0.1675  1.1009
  135MOL0     H18577  -0.483   4.435   2.642 -1.3579  1.2281 -0.0663
  135MOL0     H18578  -0.548   4.446   2.461 -0.7644 -1.9316 -0.6767
  135MOL0     H18579  -0.783   4.450   2.454  0.1700  1.1986  1.5751
  135MOL0     H18580  -1.056   4.371   2.489 -1.5022 -0.9412 -0.1282
  135MOL0     H18581  -1.091   4.273   2.631 -1.9005 -0.5166 -1.3797
  135MOL0     H18582  -0.974   4.184   2.363 -0.2702  0.4256 -0.2410
  135MOL0     H18583  -0.978   4.081   2.511 -1.6107 -1.1525  1.2165
  135MOL0     H18584  -1.162   4.035   2.370 -0.8322  1.5249 -1.1920
  135MOL0     H18585  -1.222   4.106   2.519  0.5225 -1.9684 -0.2831
  135MOL0     H18586  -1.324   4.187   2.294  0.6140 -0.2399 -2.0517
  135MOL0     H18587  -1.289   4.298   2.432  0.0540 -0.4646  0.3792
  135MOL0     H18588  -1.429   4.414   2.226 -0.7906  1.0552 -0.3727
  135MOL0     H18589  -1.588   4.541   1.974  0.2530  1.7966 -0.5367
  135MOL0     H18590  -1.514   4.683   2.057 -0.3347  0.2050  1.2544
  135MOL0     H18591  -1.579   4.567   2.160 -0.5754  0.3333  0.4627
  135MOL0     H18592  -1.579   4.813   1.727 -1.3223  1.1464 -1.8338
  135MOL0     H18593  -1.603   4.954   1.525 -0.5830 -1.2031 -1.9486
  135MOL0     H18594  -1.583   4.989   1.148 -3.2694 -0.3496  0.4151
  135MOL0     H18595  -1.653   4.934   1.308  3.1969 -1.5698  2.7257
  135MOL0     H18596  -1.666   5.189   1.279  0.3301  1.1683  1.1768
  135MOL0     H18597  -1.583   5.127   1.410  2.1035  0.2210 -0.3070
  135MOL0     H18598  -1.359   5.178   1.290 -0.6353  0.1579  3.0605
  135MOL0     H18599  -1.466   5.308   1.304 -0.4603 -1.0119  1.5967
  135MOL0     H18600  -1.425   5.345   1.089  1.8940 -1.2518 -0.4848
  135MOL0     H18601  -1.561   5.248   1.070  0.4530  0.6393 -1.0897
  135MOL0     H18602  -1.310   5.099   1.095 -0.4732  3.4611  2.6935
  135MOL0     H18603  -1.438   5.056   0.994  3.2899 -2.6470 -1.6585
  135MOL0     H18604  -1.227   5.265   0.927 -1.5108  2.5289 -0.2855
  135MOL0     H18605  -1.389   5.285   0.861  0.6564  1.5712  0.5829
  135MOL0     H18606  -1.354   5.043   0.781 -1.6442  2.1863 -0.5077
  135MOL0     H18607  -1.185   5.063   0.834  0.2245  0.5123 -0.5446
  135MOL0     H18608  -1.145   5.247   0.646 -1.6011  1.9964 -3.5134
  135MOL0     H18609  -1.299   5.220   0.602  2.3495  1.0727 -2.7094
  135MOL0     H18610  -1.295   4.721   1.328  1.5355  0.0020 -0.2207
  135MOL0     H18611  -1.259   4.603   1.541  1.9916  1.5938 -1.1421
  135MOL0     H18612  -1.082   4.587   1.916  0.5456 -2.1417 -0.8006
  135MOL0     H18613  -1.018   4.408   2.087 -0.3364  1.1409  1.4605
  135MOL0     H18614  -0.176   3.793   1.867  0.8385 -0.3166 -1.1807
  135MOL0     H18615  -0.186   3.567   1.806  3.7729 -3.5844 -1.5552
  135MOL0     H18616  -0.248   3.206   1.882 -1.1210  0.4615 -3.3609
  135MOL0     H18617  -0.328   2.964   1.847  0.4759  0.0651  2.0479
  135MOL0     H18618  -0.044   2.644   1.718  1.0913 -2.5484 -0.3686
  135MOL0     H18619  -0.050   2.668   1.901 -0.3787 -0.3405 -1.1602
  135MOL0     H18620  -0.139   2.446   1.778  1.4289 -0.0478 -0.0124
  135MOL0     H18621  -0.269   2.558   1.748  0.5790  2.6074  0.0637
  135MOL0     H18622  -0.177   2.574   2.029  1.8337 -2.8062  0.0261
  135MOL0     H18623  -0.340   2.570   1.983 -0.0193  0.3368 -0.2482
  135MOL0     H18624  -0.316   2.364   2.086 -1.8920  1.4572 -0.4901
  135MOL0     H18625  -0.170   2.329   1.985  1.5603  2.8702 -0.4172
  135MOL0     H18626  -0.549   2.209   1.798 -0.5243  2.9477 -0.8285
  135MOL0     H18627   0.076   2.839   1.791 -1.4929 -0.4911 -0.3334
  135MOL0     H18628   0.243   3.079   1.953  0.4006  3.6515 -0.0469
  135MOL0     H18629   0.266   2.989   1.802  2.5912  2.2999 -1.5892
  135MOL0     H18630   0.251   3.148   1.790  0.4075 -0.9386 -0.6944
  136MOL0     O18631   7.758   8.923   0.358  0.0099 -0.0543  0.2272
  136MOL0     C18632   7.842   9.007   0.358 -0.5130  0.7437 -0.5035
  136MOL0     O18633   7.840   9.113   0.274  0.2799 -0.5235  0.1492
  136MOL0     C18634   7.747   9.111   0.172 -0.1428 -0.0859 -0.8757
  136MOL0     C18635   7.641   9.199   0.176 -0.3764 -0.5411 -0.0203
  136MOL0     C18636   7.563   9.216   0.059  0.2756  0.4134  0.9868
  136MOL0     C18637   7.567   9.124  -0.041 -1.5611  0.2500 -0.0313
  136MOL0     O18638   7.499   9.124  -0.156  0.2971 -0.5696  0.2884
  136MOL0     C18639   7.376   9.188  -0.165 -0.3486 -0.0064 -0.6021
  136MOL0     C18640   7.385   9.310  -0.245 -0.1983 -0.5046 -0.0214
  136MOL0     C18641   7.457   9.282  -0.380 -0.2231  0.4076  0.2618
  136MOL0     C18642   7.472   9.396  -0.475 -0.4477 -0.1776  0.1187
  136MOL0     C18643   7.552   9.365  -0.601  0.0487  0.3546 -0.4735
  136MOL0     C18644   7.531   9.236  -0.675  0.1119  0.0965 -0.7681
  136MOL0     C18645   7.633   9.230  -0.793  0.2122  0.0158  0.1342
  136MOL0     C18646   7.770   9.176  -0.748  0.1050  0.4769  0.7629
  136MOL0     N18647   7.855   9.158  -0.869  0.0007  0.0284 -0.2158
  136MOL0     C18648   7.814   9.070  -0.973 -0.4940 -1.0093 -0.9459
  136MOL0     C18649   7.921   9.065  -1.063  0.2542  0.1589 -0.0944
  136MOL0     C18650   7.913   9.002  -1.202  0.6015  0.4117 -0.2569
  136MOL0     C18651   7.804   9.072  -1.282 -0.2968 -0.1352 -0.6021
  136MOL0     C18652   7.787   9.016  -1.419  0.2058  0.6094  0.2835
  136MOL0     C18653   7.635   9.032  -1.484 -0.8518  0.1541 -0.0559
  136MOL0     O18654   7.570   9.161  -1.467 -0.2772 -0.3635  0.0145
  136MOL0     C18655   7.617   9.268  -1.536  0.4174 -1.0949  0.2490
  136MOL0     C18656   7.660   9.279  -1.667 -0.0511 -0.3348 -0.1914
  136MOL0     C18657   7.719   9.394  -1.717 -0.5160  0.3449 -0.3902
  136MOL0     C18658   7.773   9.389  -1.856  0.1990 -0.0254  0.3343
  136MOL0     C18659   7.719   9.507  -1.640 -0.6651 -0.5035 -0.7184
  136MOL0     C18660   7.765   9.643  -1.688 -0.0646  0.3753 -0.7567
  136MOL0     O18661   7.818   9.727  -1.594  0.1384 -0.1360  0.4406
  136MOL0     C18662   7.860   9.855  -1.631 -0.4789  0.3021 -1.3172
  136MOL0     C18663   7.803   9.947  -1.722  0.1073  1.1404  0.3001
  136MOL0     C18664   7.868  10.070  -1.747  0.7543 -0.0474  0.6515
  136MOL0     C18665   7.977  10.108  -1.673 -0.6148  0.4309 -0.9150
  136MOL0     O18666   8.056  10.224  -1.695  1.0770  0.4746  0.0958
  136MOL0     C18667   8.053  10.282  -1.837 -0.3879  0.0909 -0.5211
  136MOL0     C18668   8.027  10.439  -1.821 -0.8940 -0.2339 -0.3872
  136MOL0     C18669   7.978  10.500  -1.952 -0.3698  0.7850  0.1190
  136MOL0     C18670   8.097  10.548  -2.036  0.8161 -0.3072 -0.9094
  136MOL0     C18671   8.032  10.613  -2.165 -0.1956 -0.2819 -0.1593
  136MOL0     C18672   8.147  10.681  -2.234 -0.3276  0.2221  0.7190
  136MOL0     C18673   8.114  10.758  -2.358 -0.4768  0.1444 -0.0247
  136MOL0     C18674   8.237  10.802  -2.438 -0.6429  0.0990 -0.3842
  136MOL0    Cl18675   8.303  10.944  -2.353  0.4996  0.4339  0.0387
  136MOL0     C18676   8.031  10.015  -1.591 -1.2491  0.2846 -1.3461
  136MOL0     C18677   7.970   9.893  -1.559 -0.3716  0.7255  0.8320
  136MOL0     O18678   7.732   9.676  -1.802 -0.1569  0.0191  0.2155
  136MOL0     C18679   7.673   9.501  -1.507 -0.5757 -0.1546 -0.0812
  136MOL0     C18680   7.627   9.380  -1.456  0.3134  0.7244  0.2161
  136MOL0     N18681   8.006   9.163  -1.023 -0.2656 -0.0245  1.1359
  136MOL0     N18682   7.967   9.223  -0.923 -0.3236  0.1551 -0.4249
  136MOL0     C18683   7.666   9.029  -0.036  0.4255  0.0106 -0.3339
  136MOL0     C18684   7.761   9.018   0.063  0.6316 -0.3988 -0.4785
  136MOL0     C18685   7.932   9.000   0.476 -0.2452 -0.1239 -0.0564
  136MOL0     C18686   8.046   9.079   0.461  0.1515 -0.6911  0.5682
  136MOL0     C18687   8.155   9.070   0.548 -0.8366 -0.2325 -0.3474
  136MOL0     C18688   8.149   8.996   0.659 -0.3064 -0.2667 -1.2080
  136MOL0     O18689   8.262   9.005   0.742 -0.5202  0.8052  0.4288
  136MOL0     C18690   8.282   8.913   0.853  0.6746  0.4472  1.1111
  136MOL0     C18691   8.421   8.873   0.891 -0.6558 -0.0924  0.2534
  136MOL0     C18692   8.484   8.749   0.813 -0.0637 -0.1597 -0.6530
  136MOL0     C18693   8.511   8.783   0.664 -0.1647 -0.2641 -0.3132
  136MOL0     C18694   8.629   8.859   0.644 -0.1301  0.1009  0.5724
  136MOL0     C18695   8.721   8.924   0.603 -0.4352 -0.7651 -0.5135
  136MOL0     C18696   8.034   8.925   0.685 -0.3296  0.0462 -0.6370
  136MOL0     C18697   7.924   8.928   0.599 -0.4218 -0.9896 -0.4684
  136MOL0     C18698   7.808   8.839   0.648 -1.0374  0.2081 -0.3846
  136MOL0     H18699   7.616   9.263   0.259 -4.2987 -3.2510  1.1852
  136MOL0     H18700   7.498   9.302   0.047 -1.3067 -1.0588 -1.8468
  136MOL0     H18701   7.329   9.212  -0.068  1.3265 -0.5393  0.3818
  136MOL0     H18702   7.308   9.126  -0.224  3.3243 -4.0629 -1.0187
  136MOL0     H18703   7.289   9.361  -0.255  1.0622  1.8649 -0.7761
  136MOL0     H18704   7.437   9.388  -0.188  0.4386 -0.8286 -0.1543
  136MOL0     H18705   7.557   9.243  -0.360 -0.1611  0.1242 -0.5490
  136MOL0     H18706   7.401   9.202  -0.431 -0.1226  0.1430  0.5609
  136MOL0     H18707   7.371   9.426  -0.507 -0.7323 -0.2793  0.8976
  136MOL0     H18708   7.514   9.480  -0.419 -1.3013  0.9783 -0.9074
  136MOL0     H18709   7.657   9.367  -0.572  0.4365 -0.0806 -1.7704
  136MOL0     H18710   7.535   9.451  -0.667  2.7699  1.4029  0.0756
  136MOL0     H18711   7.553   9.152  -0.609  2.8340  1.1768 -0.1709
  136MOL0     H18712   7.426   9.220  -0.703  0.3877 -0.9226 -1.2930
  136MOL0     H18713   7.658   9.331  -0.827  0.2671  0.5663  1.7539
  136MOL0     H18714   7.589   9.171  -0.874  0.6247  2.3046 -1.8735
  136MOL0     H18715   7.826   9.247  -0.687  3.3280 -2.3223  1.3883
  136MOL0     H18716   7.753   9.084  -0.693  0.2821 -0.8856 -1.3261
  136MOL0     H18717   7.724   9.011  -0.981 -0.9647 -0.6488  1.2621
  136MOL0     H18718   7.892   8.895  -1.194 -1.7217  0.7377 -1.2901
  136MOL0     H18719   8.008   9.012  -1.257  1.7686 -1.8687  1.1999
  136MOL0     H18720   7.705   9.055  -1.237 -0.8209  0.3952 -1.5102
  136MOL0     H18721   7.825   9.179  -1.289 -4.4859  1.0404  1.3699
  136MOL0     H18722   7.864   9.055  -1.486 -0.4813 -0.4288 -1.1742
  136MOL0     H18723   7.816   8.910  -1.419 -2.3515 -0.2289 -2.2913
  136MOL0     H18724   7.628   9.007  -1.590 -2.5686 -3.4049  0.7445
  136MOL0     H18725   7.582   8.950  -1.435  3.5793 -2.6563  0.5504
  136MOL0     H18726   7.643   9.191  -1.728 -3.2780  0.4274 -0.5682
  136MOL0     H18727   7.799   9.484  -1.903 -1.1153  1.2593  2.0652
  136MOL0     H18728   7.702   9.346  -1.927 -0.3178 -0.1347  0.9026
  136MOL0     H18729   7.860   9.323  -1.843  0.7946  0.7699  0.4713
  136MOL0     H18730   7.719   9.915  -1.782  0.2606 -1.4373  1.3127
  136MOL0     H18731   7.824  10.141  -1.817  0.1590 -2.1218 -1.2071
  136MOL0     H18732   8.151  10.259  -1.880  0.4726 -1.0433  1.8851
  136MOL0     H18733   7.980  10.232  -1.901 -0.9155 -1.9482  1.5448
  136MOL0     H18734   7.965  10.455  -1.732  0.1272  0.4536  0.2326
  136MOL0     H18735   8.116  10.494  -1.789  1.1452 -2.6365 -1.6098
  136MOL0     H18736   7.914  10.586  -1.929 -2.5474 -0.9994  1.1611
  136MOL0     H18737   7.908  10.427  -1.994 -0.9680  0.9717  0.7741
  136MOL0     H18738   8.153  10.456  -2.057 -0.3419 -1.2516  0.0217
  136MOL0     H18739   8.160  10.626  -1.991  2.7201 -0.3157 -3.2925
  136MOL0     H18740   7.991  10.532  -2.226 -1.1833  0.7182 -0.8635
  136MOL0     H18741   7.945  10.674  -2.139  0.1690 -0.2288  0.9631
  136MOL0     H18742   8.230  10.610  -2.245 -0.2737  0.5043 -1.0481
  136MOL0     H18743   8.178  10.761  -2.167  1.1334  1.4480 -1.3009
  136MOL0     H18744   8.037  10.834  -2.341 -0.3399  0.3315 -0.2296
  136MOL0     H18745   8.056  10.687  -2.416 -1.5748 -1.6038  2.9788
  136MOL0     H18746   8.210  10.830  -2.540  0.1636 -0.6495 -0.8204
  136MOL0     H18747   8.318  10.728  -2.429  1.3656  2.3424  1.0110
  136MOL0     H18748   8.119  10.045  -1.533 -0.1706 -2.6826 -1.2537
  136MOL0     H18749   8.026   9.825  -1.494 -0.9311 -1.1242 -0.5360
  136MOL0     H18750   7.687   9.577  -1.432  0.9516 -0.2300 -0.2595
  136MOL0     H18751   7.604   9.359  -1.353 -1.8512  2.7202  0.2282
  136MOL0     H18752   7.678   8.966  -0.123 -0.5104 -0.4892 -0.1133
  136MOL0     H18753   7.835   8.939   0.055 -0.5885 -1.9203  2.1034
  136MOL0     H18754   8.053   9.136   0.369 -0.0332  0.1728  1.0823
  136MOL0     H18755   8.257   9.105   0.535 -1.8142  2.1249 -2.4580
  136MOL0     H18756   8.232   8.957   0.940 -0.7879  0.9761  0.0235
  136MOL0     H18757   8.236   8.815   0.835  2.6770 -0.2347 -0.7737
  136MOL0     H18758   8.425   8.856   0.999 -1.1262  2.5123  0.7520
  136MOL0     H18759   8.487   8.956   0.865  0.5671 -1.2408 -0.4598
  136MOL0     H18760   8.581   8.739   0.862  1.1040  0.3339 -2.7456
  136MOL0     H18761   8.423   8.659   0.826  2.7946 -1.7711  3.8217
  136MOL0     H18762   8.418   8.832   0.632  0.0478 -0.0179 -0.5675
  136MOL0     H18763   8.525   8.693   0.604  0.4236  0.1507 -0.8098
  136MOL0     H18764   8.815   8.967   0.576  0.1855 -0.1467  2.3136
  136MOL0     H18765   8.029   8.866   0.776 -1.7546  0.4954 -0.3957
  136MOL0     H18766   7.738   8.918   0.678  1.5963  1.6757  2.4860
  136MOL0     H18767   7.766   8.778   0.568  0.8529 -1.6799 -0.0074
  136MOL0     H18768   7.845   8.783   0.734  1.2278  2.1264 -0.0018
  137MOL0     O18769  11.187   9.758   1.796 -0.4205 -0.1113 -0.2259
  137MOL0     C18770  11.072   9.782   1.825  0.4939 -0.4588 -0.5543
  137MOL0     O18771  10.991   9.854   1.752  0.4197  0.1219 -0.0880
  137MOL0     C18772  11.042   9.901   1.629 -0.5574 -0.2260 -0.2321
  137MOL0     C18773  11.134  10.004   1.629  0.2952 -0.4962  0.9881
  137MOL0     C18774  11.170  10.048   1.507 -1.0001  0.2243 -0.7146
  137MOL0     C18775  11.143   9.980   1.390 -1.2582  0.0548  0.5649
  137MOL0     O18776  11.205  10.032   1.283 -0.6612  0.4143  0.4540
  137MOL0     C18777  11.226   9.956   1.159  0.5050  0.2285 -0.1681
  137MOL0     C18778  11.377   9.963   1.107  0.6129  0.0609 -0.3850
  137MOL0     C18779  11.382   9.876   0.978  0.6262  0.5487  0.0665
  137MOL0     C18780  11.522   9.876   0.931 -0.5051  0.2219 -0.7555
  137MOL0     C18781  11.534   9.814   0.788  0.5294  0.2189  0.4144
  137MOL0     C18782  11.678   9.764   0.761 -0.0772 -0.8030  0.1935
  137MOL0     C18783  11.683   9.677   0.635  0.0238  0.4977  0.2268
  137MOL0     C18784  11.813   9.606   0.618 -0.7834 -0.7017  0.3483
  137MOL0     N18785  11.827   9.567   0.476 -0.3350  0.0421  0.2702
  137MOL0     C18786  11.734   9.497   0.398 -0.2392  0.0500  0.1290
  137MOL0     C18787  11.792   9.499   0.275  0.4388  0.2640  0.3867
  137MOL0     C18788  11.737   9.438   0.154 -0.0554 -0.3436 -0.1775
  137MOL0     C18789  11.609   9.520   0.127  0.7279  0.6784  0.5501
  137MOL0     C18790  11.558   9.472  -0.012  0.0051  0.2819 -0.0232
  137MOL0     C18791  11.406   9.482  -0.016 -0.4807  0.2756 -0.3323
  137MOL0     O18792  11.362   9.622   0.004  0.0306 -0.8853  0.2486
  137MOL0     C18793  11.245   9.645  -0.059  0.9859 -0.0757 -0.3621
  137MOL0     C18794  11.148   9.699   0.025  0.9797 -1.0676  0.2866
  137MOL0     C18795  11.016   9.721  -0.028  0.4156 -0.4824  0.1559
  137MOL0     C18796  10.914   9.750   0.075  0.1635 -0.3609  0.0946
  137MOL0     C18797  10.986   9.701  -0.156  1.0737 -0.3594 -0.6518
  137MOL0     C18798  10.858   9.720  -0.226  0.0954 -0.3200  0.4543
  137MOL0     O18799  10.852   9.672  -0.356 -0.5467  0.0612  0.1133
  137MOL0     C18800  10.729   9.639  -0.402  0.9908 -0.9132 -0.2630
  137MOL0     C18801  10.627   9.738  -0.424 -0.6145 -0.1655 -0.0151
  137MOL0     C18802  10.502   9.688  -0.457 -0.7597  0.2532 -0.1422
  137MOL0     C18803  10.481   9.551  -0.468 -0.1439  0.0267 -0.3228
  137MOL0     O18804  10.355   9.531  -0.500  0.4303 -0.1258 -0.4213
  137MOL0     C18805  10.334   9.422  -0.599 -0.3570 -0.8189 -0.7490
  137MOL0     C18806  10.387   9.470  -0.737  0.2448  0.2948 -0.8460
  137MOL0     C18807  10.316   9.597  -0.788 -0.3270 -0.1427 -0.4150
  137MOL0     C18808  10.342   9.619  -0.944 -0.1054 -0.2130  0.1323
  137MOL0     C18809  10.259   9.742  -0.985  0.3896  0.0065 -0.4032
  137MOL0     C18810  10.274   9.775  -1.141 -0.6673  0.7722 -0.6331
  137MOL0     C18811  10.208   9.899  -1.192 -0.0900  0.1929  0.3628
  137MOL0     C18812  10.202   9.891  -1.345  0.3817  0.2362 -0.8517
  137MOL0    Cl18813  10.366   9.921  -1.403 -0.1137 -0.1638  0.0002
  137MOL0     C18814  10.578   9.454  -0.451 -0.4283  0.1494  0.0377
  137MOL0     C18815  10.705   9.505  -0.426 -0.0858  0.3382 -0.0478
  137MOL0     O18816  10.766   9.770  -0.170  0.5485  0.2721  0.6817
  137MOL0     C18817  11.099   9.665  -0.240  0.7095 -0.6453 -0.7078
  137MOL0     C18818  11.223   9.640  -0.190 -0.1726  1.1669  0.2466
  137MOL0     N18819  11.907   9.573   0.273 -0.3390 -0.9585 -0.1663
  137MOL0     N18820  11.923   9.615   0.396  0.5986  0.0331 -0.0934
  137MOL0     C18821  11.051   9.878   1.384 -0.1181  0.8519 -0.5137
  137MOL0     C18822  11.005   9.825   1.507 -0.2832 -0.5732 -0.9983
  137MOL0     C18823  11.030   9.728   1.960  0.0092 -0.1312 -0.9520
  137MOL0     C18824  10.899   9.763   1.999  0.2927 -0.0449 -0.5718
  137MOL0     C18825  10.841   9.694   2.106 -0.5048 -0.0489 -0.9770
  137MOL0     C18826  10.915   9.598   2.183  0.1619 -0.0072  1.3794
  137MOL0     O18827  10.846   9.539   2.279  0.2751 -0.6561 -0.7586
  137MOL0     C18828  10.734   9.460   2.234  0.2401 -0.0172  0.0183
  137MOL0     C18829  10.630   9.459   2.353 -0.6774 -0.1897  0.2677
  137MOL0     C18830  10.692   9.383   2.477 -0.2585 -0.1244 -0.2754
  137MOL0     C18831  10.671   9.441   2.612  2.2121  0.1009 -0.0851
  137MOL0     C18832  10.524   9.479   2.632  0.1307  0.4101 -0.5541
  137MOL0     C18833  10.416   9.515   2.657 -0.7168 -0.1582 -0.1618
  137MOL0     C18834  11.046   9.580   2.160 -0.3916 -1.4184 -0.4483
  137MOL0     C18835  11.103   9.644   2.045 -0.6248  0.0910 -0.2878
  137MOL0     C18836  11.256   9.604   2.024  0.3064  0.8524  0.8986
  137MOL0     H18837  11.165  10.039   1.727 -0.0578 -1.7717  1.5846
  137MOL0     H18838  11.240  10.131   1.500  0.2232 -0.6956  0.1185
  137MOL0     H18839  11.163  10.004   1.084  0.9203  5.2218  2.2548
  137MOL0     H18840  11.192   9.852   1.157  0.9467  0.0867 -1.9704
  137MOL0     H18841  11.390  10.069   1.084 -1.3092  1.1496  2.8581
  137MOL0     H18842  11.456   9.941   1.179 -1.6403 -1.0947  1.8628
  137MOL0     H18843  11.350   9.773   0.993 -0.2280  0.5291 -1.6581
  137MOL0     H18844  11.321   9.921   0.898  0.7994  0.6332 -0.0179
  137MOL0     H18845  11.567   9.976   0.924 -1.4909  0.7035 -0.3673
  137MOL0     H18846  11.584   9.815   0.997 -1.7240 -0.0741  0.1518
  137MOL0     H18847  11.503   9.889   0.715  1.5728  2.6786  2.3443
  137MOL0     H18848  11.472   9.725   0.773  0.6355  0.1648  0.2962
  137MOL0     H18849  11.743   9.849   0.740  0.6303 -2.1896 -4.2876
  137MOL0     H18850  11.713   9.701   0.844 -2.8432  0.2061  2.2969
  137MOL0     H18851  11.654   9.746   0.555 -1.7497 -0.9477 -0.4588
  137MOL0     H18852  11.609   9.597   0.640  0.5374 -0.1182 -1.2841
  137MOL0     H18853  11.895   9.667   0.657 -0.0921 -2.3032  1.4793
  137MOL0     H18854  11.818   9.517   0.681  2.1241 -1.4495 -0.7776
  137MOL0     H18855  11.638   9.462   0.434  1.4190 -2.9321  2.2073
  137MOL0     H18856  11.723   9.330   0.160  2.0555 -0.6229  0.6649
  137MOL0     H18857  11.803   9.458   0.070 -0.3172 -0.7491 -0.4839
  137MOL0     H18858  11.546   9.493   0.213  0.8089 -1.1229  0.0766
  137MOL0     H18859  11.629   9.628   0.123  1.6776  0.4708 -1.4350
  137MOL0     H18860  11.604   9.520  -0.099  0.9472 -1.6072 -0.6090
  137MOL0     H18861  11.576   9.365  -0.015 -0.0148  0.1847  1.9405
  137MOL0     H18862  11.372   9.437  -0.110 -1.1492 -2.8995  1.2861
  137MOL0     H18863  11.370   9.417   0.065 -0.3675 -0.9613 -1.2395
  137MOL0     H18864  11.178   9.714   0.128  0.9398 -0.2464  0.1829
  137MOL0     H18865  10.904   9.858   0.086 -0.7607 -0.3937 -0.3192
  137MOL0     H18866  10.931   9.703   0.173  0.6834  2.0183  1.2139
  137MOL0     H18867  10.817   9.707   0.048  0.2209 -0.7322  0.4587
  137MOL0     H18868  10.646   9.845  -0.417 -1.4705 -0.0228  0.2653
  137MOL0     H18869  10.413   9.750  -0.454 -2.5378 -2.1295  3.7174
  137MOL0     H18870  10.375   9.329  -0.559  1.9338  0.7948  0.9225
  137MOL0     H18871  10.227   9.404  -0.615 -0.6915  1.4363 -1.3813
  137MOL0     H18872  10.495   9.486  -0.746  0.3799  0.1997  0.4048
  137MOL0     H18873  10.366   9.382  -0.797 -0.3003  1.8963 -3.1187
  137MOL0     H18874  10.357   9.682  -0.732  2.6816 -0.6541 -1.6266
  137MOL0     H18875  10.208   9.587  -0.777 -0.1109 -2.2192  0.0734
  137MOL0     H18876  10.297   9.536  -1.000 -1.8658  0.4189  0.5643
  137MOL0     H18877  10.446   9.643  -0.970 -0.1566 -1.7510 -1.7942
  137MOL0     H18878  10.153   9.739  -0.958  0.1910 -0.8324 -1.1945
  137MOL0     H18879  10.310   9.823  -0.933  2.7863 -1.2784 -0.5912
  137MOL0     H18880  10.249   9.683  -1.194  0.7051 -0.8120  1.3014
  137MOL0     H18881  10.382   9.789  -1.151 -0.4150 -0.1165  0.6342
  137MOL0     H18882  10.266   9.986  -1.161  0.3563  0.2268 -0.5526
  137MOL0     H18883  10.110   9.912  -1.145  0.0632  2.1919  0.2152
  137MOL0     H18884  10.128   9.957  -1.391  0.1311 -0.9563 -2.2593
  137MOL0     H18885  10.181   9.786  -1.367  2.7773 -1.4215  3.4206
  137MOL0     H18886  10.561   9.347  -0.462 -0.8781  0.3658 -1.5838
  137MOL0     H18887  10.789   9.438  -0.416 -0.0420  0.7370  4.8044
  137MOL0     H18888  11.084   9.657  -0.347  2.1446  1.5108 -1.1342
  137MOL0     H18889  11.298   9.609  -0.262 -0.3086 -2.1469  1.3854
  137MOL0     H18890  11.015   9.833   1.293 -1.8323  0.6125  0.2377
  137MOL0     H18891  10.917   9.762   1.510 -0.9454  0.3028 -1.4917
  137MOL0     H18892  10.832   9.829   1.945 -3.9991 -1.4911  2.4339
  137MOL0     H18893  10.740   9.708   2.143  0.6024  1.3813  1.7614
  137MOL0     H18894  10.683   9.493   2.142 -0.0583 -1.9407 -0.5567
  137MOL0     H18895  10.782   9.364   2.214 -1.7646 -0.9189 -0.7878
  137MOL0     H18896  10.542   9.411   2.309 -1.6144  2.9440 -1.5493
  137MOL0     H18897  10.611   9.563   2.380 -2.4269 -0.8827  1.9967
  137MOL0     H18898  10.648   9.283   2.477  0.6473 -0.5315 -0.8670
  137MOL0     H18899  10.799   9.368   2.460 -0.1498 -1.2729  1.1866
  137MOL0     H18900  10.727   9.534   2.627 -0.2711  1.3249  2.3757
  137MOL0     H18901  10.704   9.371   2.689  0.9205  2.9844  3.3528
  137MOL0     H18902  10.323   9.568   2.667  0.1853  1.8805 -1.7955
  137MOL0     H18903  11.110   9.528   2.231  0.7611  1.7874  1.0918
  137MOL0     H18904  11.329   9.684   2.007  1.7651 -0.0939  2.4293
  137MOL0     H18905  11.292   9.534   2.100 -1.5385 -1.3545 -0.1452
  137MOL0     H18906  11.255   9.530   1.944  1.6598 -2.0000  3.3002
  138MOL0     O18907   3.394   1.728   4.455  0.3353 -0.2565 -0.6357
  138MOL0     C18908   3.376   1.846   4.479 -0.1920 -0.9629 -0.1397
  138MOL0     O18909   3.272   1.919   4.419  0.3535  0.5629 -0.2122
  138MOL0     C18910   3.188   1.852   4.322  0.0280 -0.4121 -0.5297
  138MOL0     C18911   3.112   1.735   4.362  0.0225  0.7469 -0.4965
  138MOL0     C18912   3.039   1.671   4.267  0.5702 -0.9959  0.1997
  138MOL0     C18913   3.041   1.700   4.129  0.4685  0.1497 -0.0331
  138MOL0     O18914   2.964   1.623   4.043 -0.4277 -0.7333  0.0527
  138MOL0     C18915   3.029   1.590   3.919  0.8313 -0.1873 -0.5390
  138MOL0     C18916   2.969   1.463   3.861 -0.1084 -0.4546 -0.3573
  138MOL0     C18917   2.821   1.488   3.805  0.4866 -0.1741 -0.0382
  138MOL0     C18918   2.790   1.374   3.710 -0.0818  0.6060 -0.2441
  138MOL0     C18919   2.646   1.362   3.654 -0.2618  0.0115 -0.1264
  138MOL0     C18920   2.618   1.488   3.571  0.1790 -0.1646  0.7437
  138MOL0     C18921   2.475   1.488   3.516  1.1252 -0.0573 -0.1533
  138MOL0     C18922   2.450   1.617   3.428  1.1949 -0.7744 -0.1967
  138MOL0     N18923   2.351   1.618   3.322 -0.0635  0.0404 -0.5596
  138MOL0     C18924   2.239   1.529   3.327 -0.6841 -1.3619  0.2650
  138MOL0     C18925   2.187   1.542   3.204 -0.0380 -0.7031  0.5895
  138MOL0     C18926   2.058   1.471   3.149 -0.2580  0.4539 -0.0144
  138MOL0     C18927   1.958   1.559   3.069  0.6372 -0.1641 -0.5780
  138MOL0     C18928   1.945   1.702   3.120  0.0323 -0.6780  0.0741
  138MOL0     C18929   1.996   1.814   3.022  0.2848  0.1375  0.0810
  138MOL0     O18930   2.022   1.933   3.100 -0.3202 -0.2915  0.0656
  138MOL0     C18931   2.117   2.012   3.053 -0.1796  0.5856  0.0041
  138MOL0     C18932   2.202   1.994   2.942  0.0553  0.6272  0.7003
  138MOL0     C18933   2.294   2.089   2.903 -0.1269 -0.0585  0.0095
  138MOL0     C18934   2.386   2.056   2.789 -0.1755 -0.6026 -0.1346
  138MOL0     C18935   2.313   2.200   2.987  0.3723 -0.5624  0.8788
  138MOL0     C18936   2.387   2.318   2.945 -0.2021  0.4884 -0.0883
  138MOL0     O18937   2.350   2.435   3.005 -0.3416  0.7487  0.4849
  138MOL0     C18938   2.412   2.548   2.981  0.7928 -1.1658  0.6617
  138MOL0     C18939   2.319   2.659   2.989  0.1625  0.3571  1.1454
  138MOL0     C18940   2.368   2.785   2.968 -0.1849 -0.4723 -0.6958
  138MOL0     C18941   2.505   2.814   2.932  0.2186 -0.8795  0.4246
  138MOL0     O18942   2.554   2.946   2.930  0.3750 -0.6367 -1.0150
  138MOL0     C18943   2.474   3.049   2.877 -0.5030 -0.3222 -0.1349
  138MOL0     C18944   2.578   3.165   2.854 -0.3941 -0.6806  0.6508
  138MOL0     C18945   2.593   3.220   2.707  0.4094 -0.0949 -0.4342
  138MOL0     C18946   2.700   3.330   2.681 -0.0813 -0.1946 -0.2014
  138MOL0     C18947   2.688   3.405   2.548 -0.1031  0.0703  0.5306
  138MOL0     C18948   2.758   3.545   2.563  0.5354  0.0229  0.6781
  138MOL0     C18949   2.910   3.529   2.561  0.1262  0.3934 -0.0351
  138MOL0     C18950   2.963   3.593   2.686 -0.4945  1.0051 -0.0966
  138MOL0    Cl18951   2.899   3.530   2.846  0.2986 -0.5305  0.6697
  138MOL0     C18952   2.589   2.707   2.943  0.2672  0.7239 -1.0913
  138MOL0     C18953   2.547   2.576   2.966 -0.3183 -0.4008  0.3380
  138MOL0     O18954   2.484   2.307   2.876 -0.3636 -0.4749  1.0901
  138MOL0     C18955   2.236   2.219   3.105  0.5309  0.6328  0.0112
  138MOL0     C18956   2.140   2.116   3.134 -0.3736  1.2340 -0.1624
  138MOL0     N18957   2.244   1.644   3.139  0.6797  0.2533 -0.3950
  138MOL0     N18958   2.347   1.688   3.207 -0.2668 -0.3164 -0.2932
  138MOL0     C18959   3.122   1.811   4.087  0.1490  0.4011 -0.0758
  138MOL0     C18960   3.188   1.884   4.181  0.4996  0.2421 -0.4839
  138MOL0     C18961   3.446   1.894   4.600 -0.6383 -0.0157 -0.8511
  138MOL0     C18962   3.368   1.961   4.688 -0.3720  0.0219  0.0365
  138MOL0     C18963   3.415   2.001   4.816  0.0459 -0.1210  0.9536
  138MOL0     C18964   3.545   1.985   4.854  0.3801 -0.5301 -1.2182
  138MOL0     O18965   3.603   2.012   4.975  0.1839 -0.2777 -0.7194
  138MOL0     C18966   3.531   2.092   5.071 -0.1715 -0.2192  0.5947
  138MOL0     C18967   3.450   2.007   5.172 -0.7106  0.1694  1.1083
  138MOL0     C18968   3.429   2.078   5.312 -0.1302  0.6355  0.2608
  138MOL0     C18969   3.339   2.205   5.314  0.1122  0.6036 -0.3506
  138MOL0     C18970   3.323   2.258   5.452 -1.4594  0.4072 -0.5931
  138MOL0     C18971   3.300   2.313   5.562  1.0940 -0.0821  0.3897
  138MOL0     C18972   3.622   1.911   4.758 -0.5698 -0.1928  0.1952
  138MOL0     C18973   3.577   1.865   4.632  0.3288  0.2874 -0.4362
  138MOL0     C18974   3.671   1.771   4.561  0.6755  0.4096 -0.0412
  138MOL0     H18975   3.089   1.710   4.465 -3.3116 -0.0973 -1.3322
  138MOL0     H18976   2.970   1.593   4.296 -2.1317  2.0961  2.9673
  138MOL0     H18977   3.138   1.584   3.925  1.4539  4.7946 -1.7693
  138MOL0     H18978   3.016   1.672   3.848  2.1614  0.9875  0.5007
  138MOL0     H18979   3.027   1.431   3.774  0.0632  0.1376 -0.4622
  138MOL0     H18980   2.965   1.379   3.931 -4.0357 -1.0114 -0.9733
  138MOL0     H18981   2.747   1.494   3.885 -0.5206 -0.8738 -0.8846
  138MOL0     H18982   2.810   1.580   3.747  0.4413 -0.7304 -0.9256
  138MOL0     H18983   2.853   1.379   3.622  0.3744 -0.9722 -0.0356
  138MOL0     H18984   2.826   1.279   3.752  0.0443  0.0565 -1.5549
  138MOL0     H18985   2.584   1.348   3.743  1.5091 -1.8582  0.8936
  138MOL0     H18986   2.638   1.276   3.587  1.2963 -1.2294  1.1882
  138MOL0     H18987   2.652   1.580   3.618 -0.4945  1.1354 -1.1653
  138MOL0     H18988   2.677   1.487   3.478 -1.1167 -0.6005 -0.1131
  138MOL0     H18989   2.390   1.476   3.584  0.4702 -2.7518 -1.3067
  138MOL0     H18990   2.472   1.397   3.455 -2.7738 -0.3037  0.1410
  138MOL0     H18991   2.431   1.690   3.507  2.8417 -0.3266 -0.1786
  138MOL0     H18992   2.550   1.644   3.394  1.9686 -2.6660  0.3954
  138MOL0     H18993   2.217   1.449   3.396 -0.9126 -2.6675 -1.2729
  138MOL0     H18994   2.015   1.438   3.244  3.1200 -1.5434  1.0143
  138MOL0     H18995   2.082   1.383   3.089 -2.5078  0.1172 -0.4859
  138MOL0     H18996   2.012   1.571   2.974 -0.4681  0.0978 -1.1876
  138MOL0     H18997   1.862   1.512   3.045  1.0816 -0.4563 -1.8347
  138MOL0     H18998   1.846   1.732   3.155  0.3885  0.7502 -0.1096
  138MOL0     H18999   2.004   1.713   3.211  0.9455  0.8967 -0.6787
  138MOL0     H19000   2.081   1.774   2.965  0.2641  1.5342 -0.9616
  138MOL0     H19001   1.921   1.850   2.952 -0.3529  0.4781  0.9236
  138MOL0     H19002   2.208   1.894   2.900  0.8343  0.3860  1.3690
  138MOL0     H19003   2.363   1.958   2.746  0.9489 -1.5277  1.2832
  138MOL0     H19004   2.487   2.050   2.831 -0.8872 -0.5932  1.6764
  138MOL0     H19005   2.388   2.115   2.697 -2.3921  0.0161  0.1723
  138MOL0     H19006   2.212   2.644   2.988 -0.1003  1.7905 -1.0674
  138MOL0     H19007   2.303   2.866   2.997  0.0137 -1.1178  1.7764
  138MOL0     H19008   2.420   3.014   2.789 -0.3308 -2.3935  0.5337
  138MOL0     H19009   2.397   3.079   2.948  0.0065  0.7429 -0.0096
  138MOL0     H19010   2.552   3.248   2.920  1.6907 -0.9517  1.9080
  138MOL0     H19011   2.681   3.141   2.881 -0.4567  0.8498  2.4585
  138MOL0     H19012   2.498   3.260   2.671 -1.2158  0.1834  3.6627
  138MOL0     H19013   2.619   3.135   2.643  1.8637 -1.7395  2.1628
  138MOL0     H19014   2.800   3.285   2.690  0.9816  1.7915 -1.3660
  138MOL0     H19015   2.696   3.397   2.767  0.4655 -0.9032  0.3973
  138MOL0     H19016   2.722   3.349   2.460  1.1794  0.5163  0.7219
  138MOL0     H19017   2.582   3.429   2.543  0.0122  1.1622  2.3630
  138MOL0     H19018   2.726   3.577   2.662  0.3711  0.7726  0.3844
  138MOL0     H19019   2.710   3.607   2.487 -1.5556 -2.9603 -0.6281
  138MOL0     H19020   2.943   3.579   2.469  0.0121 -1.0517 -0.8995
  138MOL0     H19021   2.935   3.423   2.548 -0.5408  0.3649 -1.2283
  138MOL0     H19022   2.930   3.698   2.685 -0.8442  0.9351  1.4029
  138MOL0     H19023   3.072   3.597   2.690 -0.4565 -0.6732  1.4280
  138MOL0     H19024   2.697   2.720   2.947  0.1894  1.1322  0.6973
  138MOL0     H19025   2.620   2.498   2.986 -0.4645 -0.3699  1.0131
  138MOL0     H19026   2.245   2.310   3.164 -1.3181  1.9478 -1.6136
  138MOL0     H19027   2.098   2.126   3.234  0.4341 -0.0180  0.3298
  138MOL0     H19028   3.143   1.834   3.983  1.4891  1.0336  0.3183
  138MOL0     H19029   3.252   1.968   4.157  0.6583  0.1829 -0.2664
  138MOL0     H19030   3.262   1.975   4.671  0.0276  0.5124 -2.4231
  138MOL0     H19031   3.334   2.042   4.876 -0.2375 -0.1221  0.5752
  138MOL0     H19032   3.602   2.158   5.121 -0.2676 -1.3802  2.3691
  138MOL0     H19033   3.462   2.160   5.022 -0.9150  0.1466  2.0905
  138MOL0     H19034   3.504   1.917   5.202 -0.7093  0.5227  2.2219
  138MOL0     H19035   3.356   1.975   5.127  0.2333 -1.6039  0.3262
  138MOL0     H19036   3.377   2.004   5.374 -3.3888  1.3227 -1.4399
  138MOL0     H19037   3.523   2.079   5.367  1.5434  0.6161 -2.4204
  138MOL0     H19038   3.249   2.170   5.263  2.1639 -3.2848 -1.6754
  138MOL0     H19039   3.387   2.285   5.256  1.2253  1.2120  1.3227
  138MOL0     H19040   3.262   2.367   5.647 -0.3582 -0.2832 -0.0949
  138MOL0     H19041   3.725   1.903   4.791  0.7116 -0.4700 -3.3919
  138MOL0     H19042   3.772   1.787   4.600  1.2361 -2.1640 -0.2617
  138MOL0     H19043   3.640   1.668   4.580  0.5041  0.5964  0.7212
  138MOL0     H19044   3.686   1.774   4.453  2.0571 -0.3924  0.1048
  139MOL0     O19045   0.715   1.813   9.813 -0.1381  0.0137 -0.0106
  139MOL0     C19046   0.708   1.874   9.704  0.4451  0.4159  0.2008
  139MOL0     O19047   0.659   1.820   9.587 -0.1568  0.1476 -0.2608
  139MOL0     C19048   0.614   1.696   9.587 -0.3989  0.0998 -0.0792
  139MOL0     C19049   0.639   1.635   9.467  1.2621 -0.1052  1.2079
  139MOL0     C19050   0.586   1.506   9.437  0.0490 -0.7132 -0.8659
  139MOL0     C19051   0.488   1.454   9.523 -1.4427 -0.5062  0.0047
  139MOL0     O19052   0.421   1.344   9.481  0.6133  0.2416 -0.5472
  139MOL0     C19053   0.509   1.233   9.431  0.2826  0.3036  0.6514
  139MOL0     C19054   0.493   1.116   9.532  0.7980 -1.1142  0.1922
  139MOL0     C19055   0.584   1.001   9.489 -0.3149 -0.1610  0.8065
  139MOL0     C19056   0.577   0.886   9.585  0.0341 -0.0584  0.0145
  139MOL0     C19057   0.466   0.779   9.547 -0.1637 -0.1762 -0.9370
  139MOL0     C19058   0.323   0.825   9.591  0.0276 -0.6069 -0.2146
  139MOL0     C19059   0.229   0.703   9.612  0.0810 -0.2726 -0.2528
  139MOL0     C19060   0.094   0.756   9.663 -0.1123 -0.0875 -0.3142
  139MOL0     N19061   0.013   0.825   9.564 -0.1692 -0.0647 -0.3944
  139MOL0     C19062  -0.097   0.770   9.516 -0.6703 -0.5004 -0.0703
  139MOL0     C19063  -0.175   0.866   9.463 -0.2728 -0.5237 -0.5471
  139MOL0     C19064  -0.308   0.833   9.391 -0.1162 -0.0457  0.0037
  139MOL0     C19065  -0.303   0.866   9.244 -0.4726  0.2964 -0.2108
  139MOL0     C19066  -0.251   0.737   9.179 -0.2312 -1.0886  1.1392
  139MOL0     C19067  -0.232   0.774   9.026  0.4317  0.7252  0.2999
  139MOL0     O19068  -0.296   0.683   8.936 -0.1195 -0.1731  0.2062
  139MOL0     C19069  -0.251   0.553   8.917 -0.2041 -0.7179  0.1288
  139MOL0     C19070  -0.333   0.464   8.848  0.4729  0.4131 -0.9687
  139MOL0     C19071  -0.309   0.329   8.830 -0.0187 -0.5952  0.0957
  139MOL0     C19072  -0.404   0.249   8.746  0.5877  0.0763 -0.7583
  139MOL0     C19073  -0.186   0.282   8.883  0.5810  0.4044  0.0411
  139MOL0     C19074  -0.158   0.136   8.888 -0.1652 -0.2467  0.3798
  139MOL0     O19075  -0.023   0.096   8.913 -0.7420  0.1490  0.0726
  139MOL0     C19076   0.007  -0.045   8.894  0.6187  0.1504  0.1169
  139MOL0     C19077   0.127  -0.080   8.833 -0.2463 -0.3286  0.5837
  139MOL0     C19078   0.173  -0.212   8.830 -0.3103 -0.1728  0.2004
  139MOL0     C19079   0.099  -0.314   8.893  0.1477 -0.6488  0.3382
  139MOL0     O19080   0.129  -0.442   8.873  0.0692  0.8647 -0.7913
  139MOL0     C19081   0.265  -0.484   8.849 -0.3733 -0.2211 -0.2943
  139MOL0     C19082   0.267  -0.545   8.707 -0.1323 -0.0266  0.2760
  139MOL0     C19083   0.411  -0.561   8.651  0.0988  0.5528 -1.0242
  139MOL0     C19084   0.389  -0.632   8.519 -0.9785  0.5068 -1.0750
  139MOL0     C19085   0.528  -0.678   8.463 -0.4559  0.6020  0.6464
  139MOL0     C19086   0.501  -0.755   8.325 -0.7774 -0.3328  0.1310
  139MOL0     C19087   0.638  -0.814   8.274 -0.7342 -0.1130  0.0455
  139MOL0     C19088   0.620  -0.926   8.168  0.0602 -0.1175  0.0025
  139MOL0    Cl19089   0.771  -1.026   8.131  0.5841 -0.8786  0.5446
  139MOL0     C19090  -0.009  -0.279   8.977  0.2310 -0.0617 -0.0873
  139MOL0     C19091  -0.049  -0.141   8.981  0.5189  0.3768 -0.3207
  139MOL0     O19092  -0.254   0.056   8.878  0.5056  1.2484  0.2407
  139MOL0     C19093  -0.086   0.374   8.924  0.3516 -1.4158 -0.3474
  139MOL0     C19094  -0.122   0.514   8.949  0.4312  0.2250  0.4020
  139MOL0     N19095  -0.106   0.984   9.469 -0.2743 -0.2520  0.4784
  139MOL0     N19096   0.014   0.957   9.527 -0.3666  0.7756  0.2296
  139MOL0     C19097   0.460   1.521   9.641  0.5144  0.1287  0.7834
  139MOL0     C19098   0.523   1.639   9.666 -1.7578 -1.0905 -0.3049
  139MOL0     C19099   0.778   2.003   9.687 -0.1818  0.9109 -0.1593
  139MOL0     C19100   0.840   2.030   9.561  0.0798 -0.4779 -0.1311
  139MOL0     C19101   0.900   2.144   9.538 -0.9518  1.1919 -0.3287
  139MOL0     C19102   0.913   2.242   9.642 -0.5034 -0.9970 -0.0562
  139MOL0     O19103   0.957   2.372   9.624 -0.1241 -0.1402 -0.5754
  139MOL0     C19104   0.965   2.417   9.487  0.6676  0.4890 -0.3168
  139MOL0     C19105   0.967   2.568   9.495 -0.0184 -0.2627  0.1576
  139MOL0     C19106   1.116   2.610   9.511 -0.3453 -1.0745 -0.6965
  139MOL0     C19107   1.142   2.765   9.496  0.1590  0.1588 -1.0719
  139MOL0     C19108   1.081   2.827   9.376 -0.2553  0.3904 -0.2642
  139MOL0     C19109   1.027   2.879   9.277 -0.4036  0.1304 -0.2228
  139MOL0     C19110   0.846   2.223   9.764  0.1103 -0.2533 -0.9219
  139MOL0     C19111   0.782   2.098   9.788 -1.4332 -0.0128 -0.3182
  139MOL0     C19112   0.719   2.084   9.925  0.4405 -0.0041  0.3481
  139MOL0     H19113   0.704   1.692   9.402  1.1468 -3.3236 -1.9960
  139MOL0     H19114   0.595   1.456   9.341 -3.2036 -2.0728 -0.6013
  139MOL0     H19115   0.613   1.265   9.426  1.1544 -2.4332 -2.9065
  139MOL0     H19116   0.481   1.196   9.332  0.7783  0.2150  0.5417
  139MOL0     H19117   0.526   1.148   9.632 -3.2930  0.2111  1.3195
  139MOL0     H19118   0.388   1.084   9.540  0.9220 -1.9835 -1.3324
  139MOL0     H19119   0.536   0.967   9.397  1.5466  0.3797 -0.4129
  139MOL0     H19120   0.682   1.045   9.469 -0.7255  2.5424  3.8934
  139MOL0     H19121   0.669   0.828   9.592 -0.2360 -1.0971 -3.2817
  139MOL0     H19122   0.555   0.914   9.688 -0.0919 -6.0722  1.9697
  139MOL0     H19123   0.480   0.687   9.604  0.2604  0.9498  0.8608
  139MOL0     H19124   0.475   0.740   9.445  2.9923 -1.2859 -0.3264
  139MOL0     H19125   0.327   0.886   9.682  1.1124  2.3162 -2.0870
  139MOL0     H19126   0.290   0.886   9.507  1.1463 -0.7891 -0.8076
  139MOL0     H19127   0.272   0.639   9.690 -1.1815  3.0494  3.5033
  139MOL0     H19128   0.224   0.634   9.527  1.6669  0.6798 -1.1825
  139MOL0     H19129   0.048   0.668   9.709  2.3219 -1.0836  0.3644
  139MOL0     H19130   0.101   0.838   9.735 -0.3496  1.7405 -2.2710
  139MOL0     H19131  -0.147   0.677   9.537 -3.6957  1.1082  0.3962
  139MOL0     H19132  -0.377   0.893   9.452  0.3276 -0.4271  0.9079
  139MOL0     H19133  -0.337   0.729   9.403 -0.5964 -0.0943 -1.4110
  139MOL0     H19134  -0.408   0.878   9.216  0.1851  0.6468 -2.8804
  139MOL0     H19135  -0.237   0.951   9.224 -2.0714  1.8813  0.9927
  139MOL0     H19136  -0.156   0.702   9.221  0.8729 -1.9705 -1.8350
  139MOL0     H19137  -0.327   0.658   9.185 -0.9480 -0.6511 -1.1519
  139MOL0     H19138  -0.275   0.871   8.999 -4.1565 -1.3737 -0.9066
  139MOL0     H19139  -0.124   0.761   9.015  0.1288 -2.0930  0.0895
  139MOL0     H19140  -0.431   0.498   8.814 -0.2842  2.0474  2.4008
  139MOL0     H19141  -0.360   0.160   8.699  0.0017 -0.3361 -0.5491
  139MOL0     H19142  -0.462   0.299   8.668  2.3921  1.5674 -1.2065
  139MOL0     H19143  -0.480   0.212   8.815  0.4327 -1.5099 -1.7218
  139MOL0     H19144   0.172  -0.004   8.770  2.3132  1.3671  4.0834
  139MOL0     H19145   0.256  -0.230   8.764 -2.0359 -1.1674 -1.8130
  139MOL0     H19146   0.335  -0.400   8.862 -2.6489  1.4759  2.2500
  139MOL0     H19147   0.300  -0.555   8.924 -1.0639  1.5334  1.7927
  139MOL0     H19148   0.223  -0.644   8.714 -4.7351  1.7594 -0.0427
  139MOL0     H19149   0.202  -0.496   8.634 -3.1654 -3.1112  0.6593
  139MOL0     H19150   0.468  -0.631   8.712 -2.5508 -0.4899  0.4528
  139MOL0     H19151   0.453  -0.461   8.638  1.8891 -0.3832 -2.8686
  139MOL0     H19152   0.348  -0.561   8.446  1.8068  3.2775 -0.1724
  139MOL0     H19153   0.331  -0.724   8.523 -0.2412  0.0384  2.9214
  139MOL0     H19154   0.598  -0.595   8.449 -1.4236  1.0680 -1.9819
  139MOL0     H19155   0.581  -0.734   8.541  0.9204  1.6450  0.4907
  139MOL0     H19156   0.462  -0.686   8.250  1.0723  0.9658  0.2856
  139MOL0     H19157   0.436  -0.841   8.344  0.8327 -2.2312 -2.2218
  139MOL0     H19158   0.693  -0.861   8.356  1.2172  0.6707 -0.7584
  139MOL0     H19159   0.698  -0.740   8.221  0.8294 -0.0674  1.8055
  139MOL0     H19160   0.573  -0.885   8.078 -3.1466  1.0159  2.0329
  139MOL0     H19161   0.539  -0.986   8.210 -0.8094  2.3415  2.0773
  139MOL0     H19162  -0.052  -0.362   9.032 -0.8802  0.5825  0.0557
  139MOL0     H19163  -0.123  -0.096   9.045  2.2565  1.1160  1.2622
  139MOL0     H19164   0.013   0.337   8.946  1.1545  0.2550 -0.9867
  139MOL0     H19165  -0.045   0.583   8.983  0.1472  0.9478 -0.3864
  139MOL0     H19166   0.378   1.472   9.692  0.3924 -3.1040 -2.1583
  139MOL0     H19167   0.495   1.689   9.758  0.8582  0.4735 -0.2460
  139MOL0     H19168   0.837   1.949   9.488 -2.5578 -1.0643  0.4975
  139MOL0     H19169   0.941   2.161   9.439 -1.0588  0.4892 -0.4956
  139MOL0     H19170   1.053   2.376   9.438  0.2630 -1.7736  0.6877
  139MOL0     H19171   0.877   2.388   9.428 -0.3427 -1.0742  1.7744
  139MOL0     H19172   0.919   2.605   9.586 -1.3096 -1.2902 -0.0744
  139MOL0     H19173   0.926   2.628   9.414  0.3273 -0.6943 -0.3516
  139MOL0     H19174   1.165   2.580   9.604  0.4262  1.7529 -0.1080
  139MOL0     H19175   1.177   2.551   9.442 -1.2117 -2.3007 -0.4529
  139MOL0     H19176   1.250   2.779   9.483  0.3467  0.7587  0.8071
  139MOL0     H19177   1.097   2.825   9.576  0.6171  2.2573 -2.3195
  139MOL0     H19178   0.995   2.939   9.194 -0.6084  0.2013 -0.0931
  139MOL0     H19179   0.848   2.302   9.839  1.0474  1.1773 -2.3867
  139MOL0     H19180   0.796   2.079  10.003  0.0685  0.9982  0.7964
  139MOL0     H19181   0.660   2.173   9.948  0.9884  0.7019 -0.9129
  139MOL0     H19182   0.656   1.995   9.934 -0.6908  0.5418 -1.5162
  140MOL0     O19183   7.717   2.508   7.747 -1.1276  0.9312  0.1817
  140MOL0     C19184   7.671   2.453   7.851 -0.0401  0.0371  0.1550
  140MOL0     O19185   7.583   2.519   7.936 -0.2340 -0.2131  0.4708
  140MOL0     C19186   7.534   2.640   7.898 -0.6540  0.5937 -0.9444
  140MOL0     C19187   7.529   2.743   7.993  0.9014 -0.1744 -1.0576
  140MOL0     C19188   7.467   2.869   7.974 -0.1472 -0.0472 -0.2381
  140MOL0     C19189   7.421   2.909   7.854  0.7588  0.9105 -0.1650
  140MOL0     O19190   7.366   3.025   7.836 -0.0117 -0.4539  0.2395
  140MOL0     C19191   7.358   3.085   7.702 -0.1011  0.0671  0.3721
  140MOL0     C19192   7.214   3.052   7.659  0.5613  0.0012  0.6492
  140MOL0     C19193   7.096   3.135   7.718  1.5232 -0.4934  0.8035
  140MOL0     C19194   6.956   3.090   7.676 -0.3170  0.2238  0.3778
  140MOL0     C19195   6.931   3.052   7.529 -0.1924 -0.5513  0.1108
  140MOL0     C19196   6.786   3.071   7.479  0.5254  0.7219  0.2763
  140MOL0     C19197   6.746   2.993   7.352  0.2738  0.3537 -1.0967
  140MOL0     C19198   6.625   3.035   7.262  0.8869 -0.3423  0.2770
  140MOL0     N19199   6.660   3.114   7.145  0.1069  0.2418  0.3411
  140MOL0     C19200   6.653   3.078   7.012  0.7882  0.0754  1.1061
  140MOL0     C19201   6.661   3.194   6.946  0.1835  0.1558  0.2203
  140MOL0     C19202   6.638   3.216   6.794  0.1709 -0.1580  0.8544
  140MOL0     C19203   6.497   3.163   6.757  0.1986  0.1374  0.1159
  140MOL0     C19204   6.388   3.270   6.787  0.2338  0.0778 -0.2318
  140MOL0     C19205   6.414   3.414   6.713  0.4248  0.8588  0.5654
  140MOL0     O19206   6.489   3.392   6.587  0.0339 -0.1663  0.0562
  140MOL0     C19207   6.538   3.498   6.526 -0.9220 -0.6207 -0.3891
  140MOL0     C19208   6.591   3.479   6.399  0.1048  0.0293  0.4570
  140MOL0     C19209   6.654   3.581   6.337 -0.6754  0.3191  0.4536
  140MOL0     C19210   6.740   3.565   6.217 -0.0807  0.4907  0.7992
  140MOL0     C19211   6.655   3.715   6.386  0.5125  0.4021 -0.2657
  140MOL0     C19212   6.720   3.826   6.318 -0.2829 -0.1526 -0.1929
  140MOL0     O19213   6.775   3.916   6.399 -0.3739  0.1314  0.1583
  140MOL0     C19214   6.820   4.033   6.346 -0.7567 -0.5563  0.2593
  140MOL0     C19215   6.733   4.122   6.288  0.1781  0.3287 -0.1431
  140MOL0     C19216   6.769   4.245   6.229  0.5776 -0.2957 -0.6146
  140MOL0     C19217   6.902   4.281   6.221 -0.2913 -0.6585 -0.0543
  140MOL0     O19218   6.924   4.407   6.161  0.5805  0.3782 -1.0753
  140MOL0     C19219   7.059   4.447   6.138 -0.9212  0.0897 -0.3676
  140MOL0     C19220   7.056   4.593   6.077  0.5321  0.2199  0.1673
  140MOL0     C19221   7.052   4.697   6.189  0.2273  0.1047  0.3119
  140MOL0     C19222   6.916   4.683   6.261 -0.0093  0.4111 -0.1298
  140MOL0     C19223   6.884   4.806   6.341 -1.0490 -0.1141  0.1467
  140MOL0     C19224   6.995   4.827   6.441 -0.3949  1.0064 -0.6276
  140MOL0     C19225   6.976   4.955   6.519  0.0672 -0.0849  0.7550
  140MOL0     C19226   7.106   5.026   6.576  0.2739 -0.3804  0.9808
  140MOL0    Cl19227   7.055   5.177   6.658 -0.6046 -0.5541  0.3482
  140MOL0     C19228   6.992   4.196   6.294 -0.9733 -0.6461 -0.6543
  140MOL0     C19229   6.958   4.071   6.352  0.3864 -0.2344 -0.3578
  140MOL0     O19230   6.699   3.843   6.201 -0.2645 -0.5600  0.9748
  140MOL0     C19231   6.587   3.736   6.513  0.4305  0.2285  0.3551
  140MOL0     C19232   6.541   3.625   6.586  0.4745  0.6298  0.3780
  140MOL0     N19233   6.669   3.301   7.027 -0.8904  0.5296 -0.2999
  140MOL0     N19234   6.682   3.252   7.148 -0.4324  0.2459  0.5378
  140MOL0     C19235   7.430   2.805   7.755 -0.3227  0.2449  0.6862
  140MOL0     C19236   7.488   2.678   7.781 -0.4121 -0.0808  0.2005
  140MOL0     C19237   7.693   2.310   7.881 -0.0660  0.1628 -0.6409
  140MOL0     C19238   7.591   2.244   7.952 -0.4679 -0.2154  1.2097
  140MOL0     C19239   7.599   2.107   7.982  1.3361 -0.0359 -0.3917
  140MOL0     C19240   7.711   2.037   7.951  0.5052  0.3144  0.5981
  140MOL0     O19241   7.712   1.899   7.976 -0.3549  0.4133 -0.7905
  140MOL0     C19242   7.818   1.819   7.912 -0.1466 -0.3655 -0.1871
  140MOL0     C19243   7.824   1.677   7.958 -0.6265  0.4639 -0.1931
  140MOL0     C19244   7.940   1.603   7.896  0.4890 -0.4971  0.5936
  140MOL0     C19245   7.940   1.449   7.941 -0.4760 -0.5605  0.4290
  140MOL0     C19246   8.028   1.353   7.854 -0.5066  0.1901 -0.2120
  140MOL0     C19247   8.095   1.265   7.803 -0.2296 -0.7797  0.0203
  140MOL0     C19248   7.812   2.093   7.878 -0.4734  0.2690  0.8123
  140MOL0     C19249   7.810   2.227   7.849  0.6541 -0.3033 -1.3307
  140MOL0     C19250   7.922   2.282   7.775  0.6160 -0.7398  0.7103
  140MOL0     H19251   7.567   2.735   8.095 -1.4596  4.7465  0.5018
  140MOL0     H19252   7.458   2.942   8.055 -2.5669 -0.4163 -0.0953
  140MOL0     H19253   7.437   3.040   7.640 -0.6906  1.7749 -1.7625
  140MOL0     H19254   7.372   3.194   7.703  0.5609 -0.0156  1.6023
  140MOL0     H19255   7.208   3.078   7.553 -2.5599  1.1202  0.9871
  140MOL0     H19256   7.193   2.946   7.672  1.9057 -0.2519  0.8720
  140MOL0     H19257   7.106   3.128   7.827  1.2999  1.4548  0.9876
  140MOL0     H19258   7.091   3.240   7.690 -3.2393 -0.3379  1.4777
  140MOL0     H19259   6.922   3.007   7.737  0.0501 -0.6545 -0.5709
  140MOL0     H19260   6.886   3.166   7.712 -1.0733 -1.0469  1.6920
  140MOL0     H19261   6.966   2.950   7.514  2.5713  0.3141 -0.0019
  140MOL0     H19262   6.998   3.121   7.475  1.9927 -0.6221  2.5503
  140MOL0     H19263   6.721   3.031   7.557 -1.2308 -1.6457 -2.2045
  140MOL0     H19264   6.767   3.177   7.461  0.2734  0.3483 -1.9443
  140MOL0     H19265   6.742   2.885   7.371 -3.0535  0.4093 -0.8224
  140MOL0     H19266   6.837   2.993   7.292  0.4347  1.5609 -0.8760
  140MOL0     H19267   6.590   2.934   7.234  1.6928 -1.2565  2.3687
  140MOL0     H19268   6.548   3.091   7.316  0.4227 -1.8851  1.2881
  140MOL0     H19269   6.618   2.986   6.966 -0.3052 -0.5939  3.1281
  140MOL0     H19270   6.711   3.154   6.741 -0.8524 -2.4299  1.9795
  140MOL0     H19271   6.637   3.324   6.777 -3.1065 -0.3796 -1.2478
  140MOL0     H19272   6.483   3.140   6.651 -2.3424 -0.6700  0.5474
  140MOL0     H19273   6.482   3.065   6.804 -1.0485  0.6441  0.8134
  140MOL0     H19274   6.296   3.225   6.751  0.0193  0.0359  0.3627
  140MOL0     H19275   6.375   3.285   6.895  1.2951  0.4053 -0.1315
  140MOL0     H19276   6.321   3.461   6.682  1.7504  3.7260  0.6572
  140MOL0     H19277   6.468   3.482   6.779  0.7510 -0.7837  2.0769
  140MOL0     H19278   6.605   3.387   6.343 -2.0789  0.3474 -0.7332
  140MOL0     H19279   6.833   3.621   6.206  1.3011 -2.2344 -3.8654
  140MOL0     H19280   6.670   3.594   6.138  0.2146  0.3948  0.5064
  140MOL0     H19281   6.778   3.464   6.203  1.0914  1.0499 -0.1970
  140MOL0     H19282   6.630   4.090   6.282  0.1667  0.5896 -1.8643
  140MOL0     H19283   6.695   4.323   6.213 -0.9750 -1.1328  1.8479
  140MOL0     H19284   7.117   4.443   6.231 -0.8795 -0.8588 -0.4188
  140MOL0     H19285   7.110   4.368   6.081  0.3290 -0.4227  1.3729
  140MOL0     H19286   7.151   4.611   6.025 -0.6622 -3.4901 -3.9628
  140MOL0     H19287   6.976   4.607   6.004  0.2059 -2.4628 -0.0775
  140MOL0     H19288   7.061   4.795   6.141 -0.4249 -0.4048 -0.9049
  140MOL0     H19289   7.142   4.690   6.250  0.7815 -1.3284 -0.5968
  140MOL0     H19290   6.923   4.595   6.325 -1.9452  1.0031  0.9978
  140MOL0     H19291   6.833   4.656   6.195  0.5545  1.1327 -1.1625
  140MOL0     H19292   6.868   4.898   6.284 -0.6100  0.0820  0.3362
  140MOL0     H19293   6.788   4.790   6.391  0.1712 -0.8171  2.4287
  140MOL0     H19294   7.088   4.840   6.384  0.4492 -0.8733  0.2387
  140MOL0     H19295   6.997   4.739   6.506  3.1585  2.2019  1.1666
  140MOL0     H19296   6.902   4.934   6.596 -0.8873  1.1691  0.2025
  140MOL0     H19297   6.934   5.030   6.452 -0.3017  1.7606  2.9105
  140MOL0     H19298   7.179   5.052   6.499 -2.6321  2.4890 -1.0632
  140MOL0     H19299   7.150   4.958   6.650 -1.7000 -1.0749  1.5698
  140MOL0     H19300   7.092   4.238   6.290 -0.8608 -0.6180  1.4163
  140MOL0     H19301   7.037   4.018   6.404  0.5349  0.0845 -0.2528
  140MOL0     H19302   6.582   3.836   6.555 -0.6997  0.1911  0.3594
  140MOL0     H19303   6.511   3.645   6.688  3.2174 -2.1897  1.9292
  140MOL0     H19304   7.392   2.806   7.653  0.2546  1.4556  0.4633
  140MOL0     H19305   7.486   2.585   7.724 -0.7533 -1.7673  2.7880
  140MOL0     H19306   7.498   2.298   7.971 -0.3115  0.2810  0.5966
  140MOL0     H19307   7.519   2.066   8.041  1.4642  0.6364  0.2660
  140MOL0     H19308   7.817   1.829   7.803  3.3501 -1.8811 -0.4843
  140MOL0     H19309   7.915   1.862   7.938 -0.0364 -0.4436 -0.4645
  140MOL0     H19310   7.727   1.640   7.925 -1.3609  1.5184  0.7143
  140MOL0     H19311   7.827   1.681   8.067 -1.4014  0.2361 -0.1619
  140MOL0     H19312   7.940   1.621   7.788 -0.7552  0.1492  0.6863
  140MOL0     H19313   8.034   1.649   7.930 -0.4347  1.7260  0.3157
  140MOL0     H19314   7.833   1.430   7.945 -0.7513  1.1400  3.0985
  140MOL0     H19315   7.978   1.453   8.043  0.9697 -0.5911 -0.0821
  140MOL0     H19316   8.154   1.192   7.752  1.8043  0.3096  0.6950
  140MOL0     H19317   7.903   2.036   7.858 -1.4644 -0.9361 -0.4917
  140MOL0     H19318   7.984   2.200   7.739 -0.3914 -0.2867 -2.3085
  140MOL0     H19319   7.873   2.326   7.688  1.0006 -1.1204  0.2982
  140MOL0     H19320   7.989   2.352   7.826 -1.4243  0.1635  2.3049
  141MOL0     O19321   5.706   1.066  11.345 -0.3266  0.1832  0.5036
  141MOL0     C19322   5.810   1.064  11.272 -0.4922  0.3318 -0.4122
  141MOL0     O19323   5.813   1.005  11.149 -0.4457 -0.3747 -0.3922
  141MOL0     C19324   5.700   0.939  11.112  0.7896  0.5389 -0.6123
  141MOL0     C19325   5.690   0.804  11.119 -0.2462 -0.1051  0.1263
  141MOL0     C19326   5.558   0.747  11.086 -0.7851 -0.5587  0.3245
  141MOL0     C19327   5.451   0.819  11.046 -0.4005 -0.9028  0.2596
  141MOL0     O19328   5.342   0.749  11.014  0.2909  0.0250  0.2958
  141MOL0     C19329   5.209   0.807  11.035 -0.1832 -0.1501 -0.1872
  141MOL0     C19330   5.102   0.697  11.052 -0.2015 -0.1937 -1.0685
  141MOL0     C19331   5.124   0.582  10.947 -0.5000 -0.6192  0.5033
  141MOL0     C19332   4.999   0.499  10.927 -0.1807 -0.1043 -0.1689
  141MOL0     C19333   4.998   0.396  10.819 -0.9109  0.1921 -0.2040
  141MOL0     C19334   4.890   0.305  10.830  0.2536  0.0192  0.5057
  141MOL0     C19335   4.903   0.199  10.939 -0.2775  0.1499  0.2411
  141MOL0     C19336   5.034   0.128  10.956  0.8752  0.1961  0.1111
  141MOL0     N19337   5.011   0.054  11.077  0.3960 -0.3865  0.4145
  141MOL0     C19338   5.011   0.102  11.205 -0.3352  0.6588  0.1574
  141MOL0     C19339   4.952   0.005  11.283  0.7954 -0.8954  0.8762
  141MOL0     C19340   4.910   0.018  11.425  0.2110  0.8296 -0.0041
  141MOL0     C19341   5.027   0.044  11.525 -0.0423 -0.0167 -1.0579
  141MOL0     C19342   5.135  -0.072  11.525 -0.3741  0.1685  0.8767
  141MOL0     C19343   5.251  -0.042  11.618 -1.5307 -0.7446  0.0638
  141MOL0     O19344   5.271  -0.123  11.738  0.6295 -0.8807 -0.0210
  141MOL0     C19345   5.160  -0.128  11.812 -0.3958  0.7042  0.1855
  141MOL0     C19346   5.082  -0.244  11.807  0.2707  0.3464  0.3534
  141MOL0     C19347   4.950  -0.255  11.869  0.0485  0.1887 -0.0231
  141MOL0     C19348   4.860  -0.373  11.842 -0.2316 -0.0024  0.2904
  141MOL0     C19349   4.903  -0.139  11.953  0.3073  0.2331  0.3685
  141MOL0     C19350   4.791  -0.142  12.046  0.1319  0.6278  0.7346
  141MOL0     O19351   4.697  -0.037  12.037 -0.0373  0.3360  0.3544
  141MOL0     C19352   4.675   0.040  11.922 -0.5400  0.1809  0.0365
  141MOL0     C19353   4.683   0.184  11.925 -1.1169 -0.4006 -0.6434
  141MOL0     C19354   4.650   0.261  11.810  0.1727 -0.2543 -0.2178
  141MOL0     C19355   4.630   0.205  11.681  0.1258  0.0536  0.1847
  141MOL0     O19356   4.603   0.285  11.572 -0.2162 -0.7618  0.6637
  141MOL0     C19357   4.573   0.223  11.447  0.8555 -0.2580  0.6385
  141MOL0     C19358   4.572   0.327  11.324  0.1334 -1.0013 -0.5633
  141MOL0     C19359   4.487   0.290  11.198  0.0428 -0.6306  0.0841
  141MOL0     C19360   4.549   0.351  11.070 -0.1328 -0.3460  0.6487
  141MOL0     C19361   4.498   0.489  11.036  0.5510  0.9259  0.1901
  141MOL0     C19362   4.615   0.557  10.966  0.2422  0.5306 -0.9861
  141MOL0     C19363   4.585   0.703  10.923 -0.2916  0.7073  0.3110
  141MOL0     C19364   4.486   0.712  10.810  0.8631 -0.0239 -0.1314
  141MOL0    Cl19365   4.470   0.878  10.766  0.0557 -0.2590  0.0956
  141MOL0     C19366   4.624   0.063  11.683 -1.0580  0.1611  0.1136
  141MOL0     C19367   4.656  -0.013  11.800  0.3158 -0.3932  0.5888
  141MOL0     O19368   4.793  -0.225  12.135 -0.0314  0.1860  0.4220
  141MOL0     C19369   4.987  -0.023  11.946 -0.2341  0.3589  0.3348
  141MOL0     C19370   5.102  -0.015  11.871 -0.1699 -0.7014 -0.1845
  141MOL0     N19371   4.927  -0.104  11.203 -0.1581  0.2587 -0.6748
  141MOL0     N19372   4.960  -0.072  11.077  0.1147 -0.2050  0.6364
  141MOL0     C19373   5.470   0.960  11.043  1.0155 -0.2389 -1.0003
  141MOL0     C19374   5.590   1.019  11.071 -1.3002  0.5987 -1.2558
  141MOL0     C19375   5.925   1.150  11.311 -0.0964  0.4099 -0.5026
  141MOL0     C19376   6.017   1.185  11.207 -0.2632 -0.1153  0.5438
  141MOL0     C19377   6.143   1.242  11.240 -0.6495  0.9067 -0.0679
  141MOL0     C19378   6.161   1.273  11.381 -1.4013 -0.9418  1.0433
  141MOL0     O19379   6.267   1.345  11.427  0.2996 -0.0619  0.0375
  141MOL0     C19380   6.332   1.431  11.337 -0.0318 -0.6936 -0.3670
  141MOL0     C19381   6.242   1.544  11.276  0.6392 -0.4591  0.6919
  141MOL0     C19382   6.330   1.656  11.226  0.4517  0.9395  1.0581
  141MOL0     C19383   6.408   1.736  11.339  0.4171  0.1947 -0.1044
  141MOL0     C19384   6.331   1.823  11.429 -0.8359 -0.9177 -0.0012
  141MOL0     C19385   6.265   1.894  11.508 -0.5889 -0.0847 -0.2501
  141MOL0     C19386   6.072   1.251  11.476  0.4041 -0.5863 -0.3491
  141MOL0     C19387   5.952   1.191  11.443 -0.4724  0.0696  0.1804
  141MOL0     C19388   5.873   1.157  11.566 -0.0323 -0.2941  0.7277
  141MOL0     H19389   5.779   0.743  11.121  0.5364  0.9715 -0.7444
  141MOL0     H19390   5.553   0.639  11.078 -4.7208 -0.5447  0.5546
  141MOL0     H19391   5.188   0.851  10.937  0.0452 -1.2180 -0.7344
  141MOL0     H19392   5.209   0.889  11.108  2.5430  0.7581 -1.0765
  141MOL0     H19393   5.105   0.664  11.156 -0.4823 -0.4300 -1.1349
  141MOL0     H19394   5.006   0.742  11.024 -0.5002  0.1581  0.4299
  141MOL0     H19395   5.145   0.618  10.846 -1.3267 -1.0522  0.1635
  141MOL0     H19396   5.202   0.513  10.981 -0.6696 -0.6441  0.8407
  141MOL0     H19397   4.967   0.460  11.024 -2.3708 -1.5464 -1.3636
  141MOL0     H19398   4.916   0.564  10.896 -1.1203 -1.2905 -0.2291
  141MOL0     H19399   5.093   0.340  10.819 -0.4379  0.9691 -0.7888
  141MOL0     H19400   5.004   0.444  10.721 -3.3174  0.5716 -0.2235
  141MOL0     H19401   4.800   0.366  10.841  0.3217 -0.3193  4.5676
  141MOL0     H19402   4.893   0.241  10.741  4.3042 -0.5017  0.8419
  141MOL0     H19403   4.825   0.125  10.916 -0.8440  1.6695 -3.4257
  141MOL0     H19404   4.872   0.234  11.038 -0.4411 -1.5158  0.8111
  141MOL0     H19405   5.052   0.059  10.873 -2.4768 -0.0725 -0.5609
  141MOL0     H19406   5.123   0.191  10.956  0.4307  1.0600 -3.5305
  141MOL0     H19407   5.046   0.198  11.244 -1.0063  0.3785  1.5004
  141MOL0     H19408   4.848  -0.069  11.448  1.6504  0.0834  1.2722
  141MOL0     H19409   4.846   0.106  11.431 -0.9467 -0.0930  3.6163
  141MOL0     H19410   5.086   0.134  11.505  0.3950  0.1125  0.6655
  141MOL0     H19411   4.984   0.052  11.625  1.1638  2.5216 -0.6542
  141MOL0     H19412   5.093  -0.169  11.552 -0.5223  1.0432  4.2979
  141MOL0     H19413   5.166  -0.078  11.421 -0.8900  1.2517  0.6495
  141MOL0     H19414   5.335  -0.066  11.552 -1.0028  3.1472 -0.9469
  141MOL0     H19415   5.248   0.065  11.638 -3.2712  0.4952 -5.2488
  141MOL0     H19416   5.128  -0.326  11.752  1.4360  2.2014 -1.6094
  141MOL0     H19417   4.769  -0.338  11.794  0.0873  0.0136 -0.3162
  141MOL0     H19418   4.856  -0.432  11.934  1.2416  2.1254  1.8314
  141MOL0     H19419   4.896  -0.431  11.757 -3.4215 -0.3658 -0.9377
  141MOL0     H19420   4.682   0.234  12.021  0.4378 -0.5727 -0.5147
  141MOL0     H19421   4.642   0.368  11.819  1.1604 -0.2760  1.1322
  141MOL0     H19422   4.647   0.149  11.418  0.3551  0.1599 -2.0008
  141MOL0     H19423   4.476   0.174  11.453  1.1319 -0.7719  0.9011
  141MOL0     H19424   4.531   0.418  11.368  1.4519 -0.9804  0.6994
  141MOL0     H19425   4.675   0.346  11.295  0.4545  1.4650  1.8261
  141MOL0     H19426   4.383   0.321  11.198  0.5447  1.4513 -2.6351
  141MOL0     H19427   4.480   0.181  11.187  1.3849 -0.5617 -1.9964
  141MOL0     H19428   4.532   0.287  10.983  0.7437  1.4710 -0.9262
  141MOL0     H19429   4.658   0.356  11.079 -0.2554 -0.1301  2.4848
  141MOL0     H19430   4.421   0.495  10.959  1.1622  0.8004 -0.4402
  141MOL0     H19431   4.476   0.546  11.127  3.1626  3.7424 -0.7741
  141MOL0     H19432   4.642   0.500  10.877  1.2369 -2.8756  1.3099
  141MOL0     H19433   4.709   0.559  11.023  0.4675  1.6479 -1.3601
  141MOL0     H19434   4.682   0.735  10.883 -0.2296 -0.3547 -0.4188
  141MOL0     H19435   4.559   0.763  11.011  2.3272  3.1433 -0.4073
  141MOL0     H19436   4.391   0.668  10.843  1.3710  0.1530  1.7286
  141MOL0     H19437   4.520   0.666  10.717 -0.6645 -0.1774 -0.6327
  141MOL0     H19438   4.602   0.008  11.592  0.8269  0.4226 -0.5295
  141MOL0     H19439   4.659  -0.121  11.788  2.8436 -0.4111  0.7806
  141MOL0     H19440   4.960   0.058  12.014  0.9496  0.9188  0.1533
  141MOL0     H19441   5.147   0.083  11.869  0.4601 -0.9044  1.9002
  141MOL0     H19442   5.387   1.024  11.016 -0.1676 -1.7096 -1.0108
  141MOL0     H19443   5.602   1.127  11.071  0.3582  0.5355  1.7946
  141MOL0     H19444   6.008   1.145  11.106  0.5523 -0.5243  0.6208
  141MOL0     H19445   6.215   1.272  11.164  1.0563  1.8289  1.8152
  141MOL0     H19446   6.421   1.473  11.385 -0.9675 -0.2745  1.0549
  141MOL0     H19447   6.374   1.378  11.251  3.0436  0.4170  0.3290
  141MOL0     H19448   6.165   1.574  11.347  1.2446  0.6417  0.9146
  141MOL0     H19449   6.179   1.510  11.193  0.1899  2.3020 -0.2129
  141MOL0     H19450   6.410   1.613  11.166 -0.7981  1.3652 -1.0003
  141MOL0     H19451   6.265   1.723  11.169 -0.4460  0.2476  1.2386
  141MOL0     H19452   6.468   1.812  11.288  0.1532  1.1109  0.9175
  141MOL0     H19453   6.479   1.675  11.395 -0.3098  1.9239  2.8749
  141MOL0     H19454   6.200   1.932  11.584 -1.7528 -2.3599 -0.0480
  141MOL0     H19455   6.109   1.275  11.575 -0.2014  0.7378 -0.4284
  141MOL0     H19456   5.844   1.052  11.561 -1.1360 -0.3443  4.6109
  141MOL0     H19457   5.931   1.173  11.658  1.0130 -0.1050  0.0558
  141MOL0     H19458   5.784   1.221  11.563 -0.6905 -1.2000  0.4958
  142MOL0     O19459   9.973   1.816   8.917 -0.2106  0.4762  0.1117
  142MOL0     C19460   9.912   1.736   8.990  0.0421  0.1886  0.6178
  142MOL0     O19461   9.772   1.739   9.014 -0.0154 -0.5816 -0.5024
  142MOL0     C19462   9.712   1.855   8.964 -0.3793  0.0340  0.0983
  142MOL0     C19463   9.705   1.975   9.030  0.4959 -0.8151  0.4019
  142MOL0     C19464   9.638   2.084   8.982 -0.6115  0.4242 -0.4453
  142MOL0     C19465   9.574   2.078   8.855  0.4603 -0.6815 -0.5153
  142MOL0     O19466   9.502   2.177   8.789  0.2318 -0.3197  0.0941
  142MOL0     C19467   9.534   2.303   8.847 -0.5340  0.3817  0.2166
  142MOL0     C19468   9.476   2.418   8.768  0.3846  0.3267  0.8636
  142MOL0     C19469   9.521   2.415   8.613  0.8153  0.1374  0.2828
  142MOL0     C19470   9.500   2.550   8.538  0.8517 -0.6163 -0.5862
  142MOL0     C19471   9.579   2.573   8.408  0.1175 -0.8714 -0.7662
  142MOL0     C19472   9.543   2.473   8.304 -0.0512 -0.0474 -0.0121
  142MOL0     C19473   9.625   2.494   8.175 -0.0128  1.0211  0.4553
  142MOL0     C19474   9.555   2.413   8.065  0.3847 -0.5130 -0.5159
  142MOL0     N19475   9.631   2.424   7.943 -0.1261  0.0712 -0.1874
  142MOL0     C19476   9.690   2.324   7.863  0.1720 -0.5298 -0.0103
  142MOL0     C19477   9.733   2.385   7.752 -0.3450 -0.4232  0.5403
  142MOL0     C19478   9.808   2.320   7.639  0.5329  0.1214 -0.3706
  142MOL0     C19479   9.697   2.238   7.575  0.1246 -0.5059  0.4918
  142MOL0     C19480   9.732   2.183   7.431  0.7647 -0.1885 -0.5758
  142MOL0     C19481   9.853   2.084   7.433 -0.1779  0.2635  0.5221
  142MOL0     O19482   9.970   2.160   7.444  0.3925 -0.5099 -0.0074
  142MOL0     C19483  10.082   2.089   7.490 -0.0993  0.6958  0.5052
  142MOL0     C19484  10.083   1.967   7.571  0.3799  0.3892  0.0440
  142MOL0     C19485  10.192   1.894   7.612  0.2680  0.0023 -0.0396
  142MOL0     C19486  10.184   1.770   7.700  0.2224 -0.9001  0.0692
  142MOL0     C19487  10.318   1.946   7.568  0.4023  0.7723  0.0764
  142MOL0     C19488  10.448   1.877   7.579 -0.7833  0.7933  0.5315
  142MOL0     O19489  10.447   1.742   7.609 -0.1611 -0.3429  0.4484
  142MOL0     C19490  10.552   1.662   7.580 -0.3390 -0.6680  0.0509
  142MOL0     C19491  10.667   1.687   7.512 -0.6499 -1.1567 -0.6022
  142MOL0     C19492  10.770   1.598   7.480 -0.0172  0.0460 -0.7213
  142MOL0     C19493  10.737   1.457   7.503  0.6545 -0.2175  0.1603
  142MOL0     O19494  10.819   1.353   7.470  0.0432  0.0432  0.6411
  142MOL0     C19495  10.956   1.387   7.435  0.0281 -0.1437  0.1902
  142MOL0     C19496  11.059   1.445   7.533  0.6423  0.0464 -0.7004
  142MOL0     C19497  11.035   1.393   7.673 -0.1993  0.3819  0.1130
  142MOL0     C19498  11.136   1.461   7.772 -0.2201  0.8546  0.7886
  142MOL0     C19499  11.117   1.400   7.915  0.0833  0.1797 -0.2935
  142MOL0     C19500  11.217   1.458   8.014  0.8435 -0.1178  0.0684
  142MOL0     C19501  11.214   1.388   8.148 -0.1364  0.2269 -0.1621
  142MOL0     C19502  11.325   1.435   8.237  0.2658 -1.4879  0.0012
  142MOL0    Cl19503  11.365   1.335   8.380 -0.3815  0.0881 -0.1485
  142MOL0     C19504  10.616   1.428   7.563 -0.1793 -0.3056 -0.8740
  142MOL0     C19505  10.529   1.529   7.604 -0.3283  0.1050  1.0756
  142MOL0     O19506  10.550   1.948   7.567 -0.4114  0.7490 -0.3384
  142MOL0     C19507  10.317   2.075   7.502 -0.2495 -0.5996 -0.4152
  142MOL0     C19508  10.203   2.142   7.460 -0.5796 -0.0734 -0.3595
  142MOL0     N19509   9.702   2.523   7.761 -0.2598 -0.0199  0.2341
  142MOL0     N19510   9.639   2.541   7.865 -0.1844  0.0370 -0.0150
  142MOL0     C19511   9.572   1.955   8.795 -0.3845  0.9043  0.3717
  142MOL0     C19512   9.636   1.844   8.846 -0.9945  0.7812 -0.2369
  142MOL0     C19513   9.980   1.618   9.046  0.1235  0.5123  0.1760
  142MOL0     C19514   9.928   1.586   9.170 -1.0763 -1.0451  0.0469
  142MOL0     C19515   9.984   1.481   9.239 -0.4554  0.0300  0.3807
  142MOL0     C19516  10.071   1.387   9.182  0.1400 -0.4626 -0.0020
  142MOL0     O19517  10.123   1.272   9.230  0.0414 -0.2988  0.1460
  142MOL0     C19518  10.111   1.216   9.362 -0.2317 -0.2268 -0.5265
  142MOL0     C19519   9.973   1.157   9.389 -0.9769  0.2470 -0.4070
  142MOL0     C19520   9.953   1.114   9.530  0.3036  0.1439 -0.2853
  142MOL0     C19521  10.040   0.989   9.571  0.4279 -0.8728  0.3244
  142MOL0     C19522  10.044   0.974   9.716 -1.0034 -0.4095  0.1535
  142MOL0     C19523  10.055   0.978   9.836 -0.5667 -0.2224 -0.0196
  142MOL0     C19524  10.118   1.417   9.061  0.9351  0.2667  0.2341
  142MOL0     C19525  10.077   1.533   8.991  0.4316  0.3166  0.0800
  142MOL0     C19526  10.134   1.549   8.853 -1.3950 -0.0728 -0.6128
  142MOL0     H19527   9.761   1.994   9.121  1.1161 -3.6989  0.7187
  142MOL0     H19528   9.650   2.177   9.039  1.3383  0.6161 -1.0834
  142MOL0     H19529   9.643   2.308   8.851 -0.5675  1.0168  0.4824
  142MOL0     H19530   9.485   2.315   8.944  0.4362  3.2283  0.4610
  142MOL0     H19531   9.368   2.433   8.771  0.2075 -0.2363 -1.2341
  142MOL0     H19532   9.517   2.509   8.813  0.8317 -0.5805  2.3577
  142MOL0     H19533   9.629   2.401   8.605  0.9070  1.6547 -2.3804
  142MOL0     H19534   9.468   2.333   8.564  1.6691  1.2651 -2.7463
  142MOL0     H19535   9.393   2.566   8.521  0.9474  2.7175  1.0529
  142MOL0     H19536   9.536   2.630   8.603 -2.4025  1.4107 -1.0139
  142MOL0     H19537   9.685   2.557   8.430 -0.0362 -1.9455 -0.7351
  142MOL0     H19538   9.558   2.674   8.373 -1.2159 -0.6792  0.4911
  142MOL0     H19539   9.566   2.370   8.332 -0.1679  0.1214  0.7166
  142MOL0     H19540   9.435   2.486   8.294 -0.5529 -1.0726  3.1249
  142MOL0     H19541   9.728   2.456   8.175  0.3216  1.7892 -1.8105
  142MOL0     H19542   9.628   2.598   8.142  1.5279  1.2477  1.2295
  142MOL0     H19543   9.544   2.306   8.086 -3.9041  0.1362  1.6595
  142MOL0     H19544   9.456   2.458   8.054 -0.7947 -2.6802  0.7296
  142MOL0     H19545   9.706   2.218   7.883 -1.6585 -1.7548 -3.9535
  142MOL0     H19546   9.881   2.254   7.687 -0.1960  0.5172  1.3472
  142MOL0     H19547   9.858   2.389   7.570 -1.7623  1.4865 -0.7404
  142MOL0     H19548   9.672   2.155   7.643 -2.2964  1.2595  1.9241
  142MOL0     H19549   9.612   2.305   7.567 -0.7054 -1.5258  0.5666
  142MOL0     H19550   9.656   2.130   7.372  1.0251 -1.6093  0.3049
  142MOL0     H19551   9.756   2.273   7.373 -0.8521  0.3951 -0.3932
  142MOL0     H19552   9.831   2.012   7.512 -2.1080 -1.2462 -1.2661
  142MOL0     H19553   9.836   2.022   7.344 -4.1100  0.1829  1.1562
  142MOL0     H19554   9.992   1.927   7.614  1.5856 -1.6961  0.7604
  142MOL0     H19555  10.234   1.792   7.795  2.0493 -2.9480 -0.3300
  142MOL0     H19556  10.221   1.683   7.645  1.2036  0.7128 -1.9453
  142MOL0     H19557  10.078   1.748   7.719 -0.5935  1.8440 -0.8600
  142MOL0     H19558  10.700   1.787   7.486 -0.3525 -0.8517  0.8544
  142MOL0     H19559  10.854   1.633   7.422  0.3886  0.4313  0.0808
  142MOL0     H19560  10.992   1.295   7.387  1.1353 -1.3876  3.1789
  142MOL0     H19561  10.945   1.458   7.353 -0.2768  1.2481  1.3903
  142MOL0     H19562  11.163   1.438   7.499  0.9099  3.7345 -1.0592
  142MOL0     H19563  11.038   1.552   7.543  0.1646  0.0482 -1.5863
  142MOL0     H19564  11.065   1.288   7.665  1.5446  0.8774 -0.4199
  142MOL0     H19565  10.932   1.394   7.710  0.0493 -2.1820  1.0178
  142MOL0     H19566  11.108   1.566   7.767 -0.6933  0.8862  3.0470
  142MOL0     H19567  11.239   1.444   7.738 -0.6492  2.2812 -1.3989
  142MOL0     H19568  11.018   1.417   7.960 -0.4680 -0.7854 -1.1013
  142MOL0     H19569  11.139   1.293   7.911 -0.9884 -0.0836  0.4128
  142MOL0     H19570  11.197   1.566   8.015  0.2592 -0.2215  0.5792
  142MOL0     H19571  11.317   1.447   7.973  0.2725 -3.1593 -0.7267
  142MOL0     H19572  11.218   1.280   8.128  0.1162  0.3660 -0.8893
  142MOL0     H19573  11.119   1.402   8.201  1.6764 -0.1024  3.4840
  142MOL0     H19574  11.298   1.537   8.264  3.0248 -0.8020  0.4230
  142MOL0     H19575  11.419   1.448   8.182  0.0189  0.6648  0.0003
  142MOL0     H19576  10.599   1.322   7.576  0.7404 -0.9823 -4.2430
  142MOL0     H19577  10.435   1.491   7.645 -0.0610  0.9148  2.5352
  142MOL0     H19578  10.414   2.117   7.478 -0.3660 -1.0015 -1.6646
  142MOL0     H19579  10.215   2.226   7.392  0.7336 -1.7603 -2.3434
  142MOL0     H19580   9.519   1.954   8.701 -1.3672 -0.2405  0.9225
  142MOL0     H19581   9.636   1.753   8.786  4.3312  1.1666 -1.2404
  142MOL0     H19582   9.866   1.659   9.223 -0.0788 -0.8758  1.0261
  142MOL0     H19583   9.944   1.472   9.340 -2.3792 -0.7818 -0.3983
  142MOL0     H19584  10.183   1.134   9.371  0.1888  0.0819 -1.0351
  142MOL0     H19585  10.125   1.295   9.436 -2.3596 -0.8294  0.6339
  142MOL0     H19586   9.945   1.068   9.331  1.0619 -0.1325 -0.8718
  142MOL0     H19587   9.899   1.233   9.362  1.1967  1.0622 -5.1908
  142MOL0     H19588   9.967   1.187   9.611  2.2434  0.6170 -0.9996
  142MOL0     H19589   9.849   1.082   9.545  1.0033 -1.4198  1.5769
  142MOL0     H19590  10.142   1.012   9.541  0.4053 -0.6674  0.4039
  142MOL0     H19591  10.005   0.900   9.517 -0.4602  0.6896 -1.8218
  142MOL0     H19592  10.082   0.989   9.939  0.4861  1.3008 -0.4205
  142MOL0     H19593  10.189   1.348   9.018 -0.0860 -2.0537  2.0869
  142MOL0     H19594  10.056   1.553   8.777  1.3449 -0.3613 -3.6603
  142MOL0     H19595  10.211   1.626   8.845 -0.2881 -1.0915 -0.0210
  142MOL0     H19596  10.188   1.457   8.829 -0.1222  1.5815 -5.0588
  143MOL0     O19597   3.698   7.929   8.837 -0.3071  0.3011 -0.4327
  143MOL0     C19598   3.657   7.921   8.952 -0.0143 -0.8660 -0.2767
  143MOL0     O19599   3.571   7.825   9.003  0.1330  0.5715  0.3340
  143MOL0     C19600   3.516   7.729   8.921  0.5081 -0.0129  0.3531
  143MOL0     C19601   3.477   7.743   8.790  0.0103  0.4375 -0.0172
  143MOL0     C19602   3.404   7.643   8.715  0.7576 -0.3994  0.8434
  143MOL0     C19603   3.361   7.526   8.775 -1.4772  0.3294  0.0137
  143MOL0     O19604   3.281   7.432   8.711  0.4908  0.1936  0.1913
  143MOL0     C19605   3.293   7.415   8.566  0.7230  0.5151 -0.5080
  143MOL0     C19606   3.380   7.292   8.536 -0.2060 -0.5112 -0.2363
  143MOL0     C19607   3.301   7.184   8.464  0.7423 -0.2890  0.0026
  143MOL0     C19608   3.324   7.171   8.310  0.9826  0.4622  0.1157
  143MOL0     C19609   3.254   7.041   8.260  0.8723  0.2293 -0.3203
  143MOL0     C19610   3.252   7.033   8.105  0.1970 -0.5864  0.6744
  143MOL0     C19611   3.187   6.905   8.069 -0.4406 -0.5120 -0.0234
  143MOL0     C19612   3.279   6.783   8.098 -1.0097 -0.5118  0.3217
  143MOL0     N19613   3.394   6.784   8.011  0.7038  0.5079  1.1227
  143MOL0     C19614   3.393   6.716   7.893 -0.5389 -0.5790  0.6992
  143MOL0     C19615   3.536   6.721   7.864 -0.6377  0.0920 -0.3497
  143MOL0     C19616   3.592   6.663   7.733 -0.3750 -1.1198 -0.3016
  143MOL0     C19617   3.747   6.687   7.737  0.0625 -0.1076 -0.5286
  143MOL0     C19618   3.808   6.574   7.647 -0.6059 -0.1328 -0.0109
  143MOL0     C19619   3.790   6.435   7.695  0.6973  0.4478 -0.9692
  143MOL0     O19620   3.827   6.421   7.834 -0.3999  0.4882 -0.0924
  143MOL0     C19621   3.742   6.346   7.913 -0.1824 -0.2856 -0.3292
  143MOL0     C19622   3.690   6.395   8.031  0.0942  0.0369  0.7461
  143MOL0     C19623   3.587   6.332   8.092  0.0257  0.0175 -0.1112
  143MOL0     C19624   3.542   6.413   8.211  0.4569  0.3085  0.0874
  143MOL0     C19625   3.532   6.205   8.054 -0.4666  0.1253  1.0009
  143MOL0     C19626   3.432   6.128   8.120 -0.2559 -0.5024  0.4267
  143MOL0     O19627   3.413   5.998   8.091 -1.0128  0.1242 -1.0751
  143MOL0     C19628   3.302   5.927   8.129  0.1783 -0.1325  0.5787
  143MOL0     C19629   3.306   5.783   8.142  0.0727  0.4485 -0.1069
  143MOL0     C19630   3.189   5.711   8.166 -0.2773 -0.0863 -0.4117
  143MOL0     C19631   3.067   5.769   8.200  0.3510 -0.5842 -0.4408
  143MOL0     O19632   2.951   5.709   8.244 -1.2377 -0.4366  0.1532
  143MOL0     C19633   2.945   5.577   8.293  1.1222 -0.1767  0.7724
  143MOL0     C19634   3.024   5.564   8.421 -0.0945 -0.7366  0.4472
  143MOL0     C19635   2.996   5.440   8.501 -0.2306  0.0958 -0.0074
  143MOL0     C19636   3.020   5.319   8.405  0.2148 -0.1067  0.5849
  143MOL0     C19637   3.002   5.189   8.466  0.5259 -0.8019 -0.6721
  143MOL0     C19638   3.028   5.091   8.347 -0.5850 -0.3310  1.6575
  143MOL0     C19639   2.996   4.957   8.415  0.4419 -0.0202 -0.5638
  143MOL0     C19640   3.048   4.841   8.322  0.1071  0.3873 -0.0561
  143MOL0    Cl19641   2.997   4.692   8.397  0.0295  0.0262 -0.2369
  143MOL0     C19642   3.062   5.907   8.205 -1.1810  0.2290  1.0352
  143MOL0     C19643   3.175   5.983   8.160  0.0794 -0.1832  0.9766
  143MOL0     O19644   3.376   6.184   8.211  0.0786  0.0130  0.2185
  143MOL0     C19645   3.588   6.160   7.933 -0.2213  0.1580  0.1365
  143MOL0     C19646   3.685   6.224   7.858  0.1666  0.3707 -1.1197
  143MOL0     N19647   3.594   6.803   7.959  0.1204 -1.0425  0.1551
  143MOL0     N19648   3.510   6.845   8.049 -0.3129 -0.0508  0.1073
  143MOL0     C19649   3.379   7.513   8.919 -0.0723  0.1493  0.2817
  143MOL0     C19650   3.463   7.612   8.984  0.2185 -0.1801 -0.8780
  143MOL0     C19651   3.712   8.017   9.052  0.4268 -1.6975  1.1138
  143MOL0     C19652   3.788   8.120   9.007  0.4730  0.1426 -0.7420
  143MOL0     C19653   3.857   8.204   9.091 -0.2909 -0.3487 -0.0705
  143MOL0     C19654   3.874   8.179   9.227  1.7469  0.5429  0.9662
  143MOL0     O19655   3.965   8.256   9.289  0.1012 -0.2601 -0.2343
  143MOL0     C19656   4.017   8.196   9.404 -0.8104 -0.6764 -0.2229
  143MOL0     C19657   4.114   8.302   9.455 -0.9146  0.1473  0.4841
  143MOL0     C19658   4.247   8.303   9.375  0.1106  0.3302  0.1176
  143MOL0     C19659   4.345   8.401   9.445  0.4820  0.7058  0.9187
  143MOL0     C19660   4.465   8.416   9.361 -0.1780  0.8901 -1.0135
  143MOL0     C19661   4.558   8.439   9.292  0.7657 -0.2849 -0.4974
  143MOL0     C19662   3.795   8.070   9.277  0.2731  0.1366  0.1152
  143MOL0     C19663   3.708   7.999   9.190  0.5921  0.4273 -0.6998
  143MOL0     C19664   3.619   7.902   9.260  0.6346 -0.7210 -0.8374
  143MOL0     H19665   3.501   7.840   8.747  1.0509  0.0285 -0.3921
  143MOL0     H19666   3.369   7.677   8.617  2.6249  1.6776  0.8208
  143MOL0     H19667   3.323   7.507   8.516  1.9397 -0.4592 -1.6308
  143MOL0     H19668   3.192   7.395   8.529  0.8105  0.3371 -0.6479
  143MOL0     H19669   3.452   7.338   8.468  0.6134 -0.2515  0.7823
  143MOL0     H19670   3.433   7.251   8.622 -2.0438 -1.4563  0.5099
  143MOL0     H19671   3.348   7.091   8.498 -0.6578 -0.6672  1.0321
  143MOL0     H19672   3.196   7.185   8.494  1.2945  0.6566  2.1064
  143MOL0     H19673   3.269   7.257   8.270 -0.2272  0.6586  2.0623
  143MOL0     H19674   3.425   7.161   8.271  0.3334 -0.4799 -1.4113
  143MOL0     H19675   3.153   7.043   8.302  0.6922  0.3335 -0.7551
  143MOL0     H19676   3.303   6.952   8.301  0.5139  1.0296  2.0205
  143MOL0     H19677   3.196   7.121   8.070  0.8897 -0.3598  0.1181
  143MOL0     H19678   3.349   7.035   8.056  0.4858 -1.7199  1.1599
  143MOL0     H19679   3.163   6.897   7.963  2.0958 -0.7391 -0.6526
  143MOL0     H19680   3.097   6.910   8.131 -0.5730  0.5623 -0.2819
  143MOL0     H19681   3.299   6.778   8.205  1.1388  1.4509  0.0716
  143MOL0     H19682   3.217   6.697   8.071 -1.6235 -0.1028  0.4162
  143MOL0     H19683   3.314   6.660   7.844 -1.0684 -0.1052  1.0004
  143MOL0     H19684   3.561   6.704   7.636  3.6538 -2.7853 -2.5558
  143MOL0     H19685   3.567   6.556   7.739 -0.8154 -1.1589 -2.2333
  143MOL0     H19686   3.774   6.787   7.703 -1.6895 -0.7179 -4.2385
  143MOL0     H19687   3.783   6.679   7.840 -0.6154 -0.2222 -0.2966
  143MOL0     H19688   3.767   6.583   7.546  0.2151  3.2276 -0.1775
  143MOL0     H19689   3.916   6.590   7.649 -0.4662 -1.1426  0.8951
  143MOL0     H19690   3.688   6.403   7.675 -0.3434  1.7779  1.6569
  143MOL0     H19691   3.856   6.368   7.639 -0.2457 -0.4294 -1.0642
  143MOL0     H19692   3.723   6.491   8.069  4.7483 -0.3232 -1.7029
  143MOL0     H19693   3.485   6.358   8.287  0.7530 -0.6121 -0.3445
  143MOL0     H19694   3.462   6.484   8.190 -1.8068 -2.5206 -1.5557
  143MOL0     H19695   3.614   6.469   8.271  2.4610  1.0708 -2.8499
  143MOL0     H19696   3.395   5.722   8.144  0.4011  0.9277  1.4472
  143MOL0     H19697   3.193   5.603   8.175 -1.7899  0.0249  3.0786
  143MOL0     H19698   2.839   5.567   8.319  0.4806  1.1046 -1.1826
  143MOL0     H19699   2.984   5.513   8.213  1.4625  2.0948 -0.9769
  143MOL0     H19700   3.131   5.570   8.400  0.7339  0.0242  4.1684
  143MOL0     H19701   2.989   5.650   8.480 -2.3931 -0.6244 -0.9681
  143MOL0     H19702   2.893   5.424   8.532 -0.9464  0.8186 -1.8422
  143MOL0     H19703   3.066   5.443   8.585 -0.7135  0.6323  0.3837
  143MOL0     H19704   3.124   5.331   8.374  0.0472 -1.6610 -0.7159
  143MOL0     H19705   2.963   5.324   8.312  2.4567  0.6446 -0.8379
  143MOL0     H19706   3.080   5.184   8.542  0.1022  1.5382 -0.0209
  143MOL0     H19707   2.901   5.175   8.505  0.7763  1.4594  0.9860
  143MOL0     H19708   3.133   5.090   8.317 -0.3915 -4.5858  1.8523
  143MOL0     H19709   2.967   5.102   8.257  0.2790 -0.2185  1.0783
  143MOL0     H19710   2.890   4.950   8.439 -0.2714 -0.2669 -3.4652
  143MOL0     H19711   3.045   4.940   8.512 -0.3353 -0.2666 -0.2028
  143MOL0     H19712   3.157   4.835   8.326  0.0299 -0.2615  1.3201
  143MOL0     H19713   3.012   4.844   8.218  1.0260  2.7702 -0.3731
  143MOL0     H19714   2.970   5.962   8.220 -0.9422  0.5552  1.3430
  143MOL0     H19715   3.154   6.089   8.169 -1.7589 -0.1840 -2.0061
  143MOL0     H19716   3.544   6.069   7.894  2.1829 -2.0269  2.1359
  143MOL0     H19717   3.721   6.185   7.764  1.2987 -0.2859 -0.4356
  143MOL0     H19718   3.340   7.425   8.969 -0.4186 -1.1227 -2.0657
  143MOL0     H19719   3.474   7.605   9.092 -1.1988  2.3563 -0.4896
  143MOL0     H19720   3.782   8.135   8.900 -4.0417 -0.3222 -0.7504
  143MOL0     H19721   3.898   8.296   9.050 -1.9990  1.3110  1.7160
  143MOL0     H19722   3.931   8.166   9.465 -2.1667 -0.9048 -2.1202
  143MOL0     H19723   4.065   8.103   9.371  0.1602 -0.0556 -0.5761
  143MOL0     H19724   4.142   8.263   9.553 -0.7517 -0.5224  0.1803
  143MOL0     H19725   4.067   8.400   9.465 -0.9670  0.4489 -1.9870
  143MOL0     H19726   4.289   8.202   9.370 -0.6460 -0.2347  3.1467
  143MOL0     H19727   4.232   8.343   9.274  1.1285 -0.7125 -0.4799
  143MOL0     H19728   4.379   8.369   9.544  1.3546  2.2550  1.1524
  143MOL0     H19729   4.292   8.497   9.442 -1.6592 -0.3843  1.3162
  143MOL0     H19730   4.650   8.452   9.239  0.0617  1.4286 -1.3999
  143MOL0     H19731   3.807   8.057   9.384  0.0940  1.7851  0.3629
  143MOL0     H19732   3.644   7.907   9.367 -0.8253  0.5952 -0.5092
  143MOL0     H19733   3.519   7.947   9.253  0.6048 -0.9893 -2.4878
  143MOL0     H19734   3.617   7.801   9.218  1.1947 -0.0565 -2.5500
  144MOL0     O19735   2.673   1.373   9.814 -0.0811  0.3407  0.4645
  144MOL0     C19736   2.626   1.259   9.819  0.1997 -0.5865  0.5411
  144MOL0     O19737   2.679   1.149   9.755  0.3688 -0.5933 -0.0008
  144MOL0     C19738   2.809   1.149   9.709  0.4269  0.1341  0.0601
  144MOL0     C19739   2.827   1.100   9.584  0.0306  0.2991  0.0694
  144MOL0     C19740   2.956   1.100   9.524  0.3854 -0.6757  0.8185
  144MOL0     C19741   3.067   1.148   9.604  0.3194  0.1490 -0.0879
  144MOL0     O19742   3.193   1.153   9.553 -0.3524  0.3150  0.0293
  144MOL0     C19743   3.212   1.219   9.427 -0.0579 -0.2961 -0.6159
  144MOL0     C19744   3.153   1.355   9.415  0.5369  0.2887  0.3005
  144MOL0     C19745   3.229   1.468   9.485 -0.0744 -0.8381 -0.0689
  144MOL0     C19746   3.153   1.595   9.468  0.0817  0.7656 -0.1774
  144MOL0     C19747   3.027   1.611   9.549  0.1466 -0.1903 -0.1234
  144MOL0     C19748   3.043   1.656   9.694 -0.3032 -0.7610 -0.2684
  144MOL0     C19749   2.922   1.633   9.782  0.2853 -0.3093  0.4802
  144MOL0     C19750   2.790   1.654   9.717  0.1407  0.1292  0.1909
  144MOL0     N19751   2.751   1.794   9.694 -0.4651  0.0426 -0.0108
  144MOL0     C19752   2.685   1.873   9.783 -0.3500 -1.0021  0.6266
  144MOL0     C19753   2.648   1.981   9.707 -0.7849 -0.2283 -0.7483
  144MOL0     C19754   2.570   2.093   9.757 -0.7610 -0.6404  0.6448
  144MOL0     C19755   2.425   2.078   9.723 -0.5152 -0.3082  0.4149
  144MOL0     C19756   2.338   2.166   9.811 -0.0143 -0.5653  0.7267
  144MOL0     C19757   2.389   2.311   9.841 -1.7180 -0.1075 -0.0512
  144MOL0     O19758   2.292   2.387   9.917  1.2184 -0.8495  0.2729
  144MOL0     C19759   2.283   2.376  10.049 -0.3593 -0.6052 -0.5464
  144MOL0     C19760   2.192   2.460  10.098  0.2516  1.1522  0.1315
  144MOL0     C19761   2.157   2.468  10.233 -0.0993 -0.0050  0.6900
  144MOL0     C19762   2.064   2.577  10.275 -0.1082 -0.1266  0.1307
  144MOL0     C19763   2.228   2.386  10.326  0.4397  0.6485  1.0292
  144MOL0     C19764   2.206   2.402  10.474 -0.6056  0.2423 -0.3736
  144MOL0     O19765   2.122   2.502  10.521  0.2178  0.6121 -0.0885
  144MOL0     C19766   2.116   2.528  10.654 -0.3455  0.5292 -0.4627
  144MOL0     C19767   2.152   2.658  10.691  0.0217 -0.1504  0.1146
  144MOL0     C19768   2.144   2.695  10.828  0.8027 -0.1913 -0.6824
  144MOL0     C19769   2.088   2.606  10.918 -0.4432  0.2983 -0.2497
  144MOL0     O19770   2.093   2.653  11.044 -0.0962 -1.0342 -0.4227
  144MOL0     C19771   2.092   2.562  11.148 -0.2572  0.0592  0.0067
  144MOL0     C19772   2.105   2.618  11.288 -0.5042  0.4421 -0.2209
  144MOL0     C19773   2.019   2.739  11.315  0.3798  0.0281  0.5442
  144MOL0     C19774   2.036   2.786  11.460 -0.1078 -0.5656  0.2871
  144MOL0     C19775   1.930   2.891  11.495  0.0646 -0.6260 -1.3304
  144MOL0     C19776   1.965   2.936  11.627 -0.5818  0.1635  0.1049
  144MOL0     C19777   1.856   3.036  11.672 -0.7715 -1.0835 -0.2187
  144MOL0     C19778   1.910   3.109  11.794 -0.0808 -0.2285 -1.2120
  144MOL0    Cl19779   1.938   2.995  11.939 -0.0193 -0.1001 -0.2017
  144MOL0     C19780   2.036   2.487  10.874 -0.1725 -0.0324 -0.2583
  144MOL0     C19781   2.050   2.447  10.741 -0.0715  0.4102 -0.1530
  144MOL0     O19782   2.271   2.321  10.544  0.1270 -0.9435 -0.1811
  144MOL0     C19783   2.325   2.300  10.272  0.1622  0.5272 -0.0349
  144MOL0     C19784   2.354   2.292  10.132 -0.0561  0.2707 -0.0125
  144MOL0     N19785   2.698   1.973   9.580 -0.4380 -0.0759  0.1159
  144MOL0     N19786   2.761   1.862   9.577  0.0432  0.7608 -0.7628
  144MOL0     C19787   3.039   1.204   9.731 -0.1133  0.2775  0.7863
  144MOL0     C19788   2.915   1.197   9.785 -0.6287 -0.4128  0.4512
  144MOL0     C19789   2.481   1.258   9.864 -0.7734 -0.3857  1.5726
  144MOL0     C19790   2.391   1.172   9.804  0.1241  0.4592  0.3922
  144MOL0     C19791   2.259   1.166   9.845 -1.0204 -0.0039 -0.0337
  144MOL0     C19792   2.210   1.242   9.950 -0.8699 -0.4647 -0.1621
  144MOL0     O19793   2.082   1.214   9.980 -0.0697  0.4227 -0.1141
  144MOL0     C19794   2.008   1.308  10.058  0.2303  0.6492  0.7233
  144MOL0     C19795   2.005   1.441   9.988  0.0973 -0.3626 -0.5071
  144MOL0     C19796   1.916   1.441   9.854 -0.0594  1.0242 -0.1886
  144MOL0     C19797   1.821   1.562   9.842 -0.2874  0.2697 -0.6423
  144MOL0     C19798   1.734   1.551   9.723 -0.2786  0.6715 -0.3885
  144MOL0     C19799   1.674   1.512   9.624  0.6613 -0.5799 -1.2518
  144MOL0     C19800   2.302   1.328  10.009 -0.3835 -0.4866  0.0929
  144MOL0     C19801   2.436   1.335   9.972  0.6525  0.0608 -0.0732
  144MOL0     C19802   2.536   1.419  10.049 -1.1536 -1.1662  0.4893
  144MOL0     H19803   2.746   1.042   9.541 -0.5535  1.0953  0.0700
  144MOL0     H19804   2.979   1.062   9.425 -1.9917  0.2442 -0.1546
  144MOL0     H19805   3.169   1.156   9.349 -2.8980 -1.0384  1.3921
  144MOL0     H19806   3.318   1.235   9.404  0.1786  0.3595  0.8379
  144MOL0     H19807   3.157   1.367   9.306  1.2810 -3.4042 -0.2127
  144MOL0     H19808   3.046   1.365   9.435 -0.6044 -1.3405 -3.9103
  144MOL0     H19809   3.240   1.442   9.591  0.3059 -1.1325 -0.1802
  144MOL0     H19810   3.329   1.485   9.446  0.1961 -0.9589  0.5597
  144MOL0     H19811   3.216   1.678   9.500 -0.2686  0.3265  1.7737
  144MOL0     H19812   3.130   1.598   9.361  0.3599 -0.2817 -0.2751
  144MOL0     H19813   2.970   1.518   9.544  1.2510 -0.8887 -5.0926
  144MOL0     H19814   2.961   1.683   9.499 -1.2376 -1.1824  0.2256
  144MOL0     H19815   3.124   1.597   9.738  0.6745  0.0450 -0.9536
  144MOL0     H19816   3.078   1.760   9.698  0.2573 -0.9495 -0.0959
  144MOL0     H19817   2.938   1.691   9.874 -0.4821 -2.4436  2.0376
  144MOL0     H19818   2.919   1.529   9.816  1.3003  0.0862  1.8744
  144MOL0     H19819   2.789   1.594   9.626  0.2666 -1.2806  1.1008
  144MOL0     H19820   2.711   1.614   9.780 -2.3109  1.4835 -1.8298
  144MOL0     H19821   2.638   1.855   9.879 -3.8788  1.3560 -0.4620
  144MOL0     H19822   2.609   2.184   9.712 -2.5814 -0.3556 -0.4849
  144MOL0     H19823   2.593   2.106   9.863  0.9790  0.2834  0.1846
  144MOL0     H19824   2.395   2.107   9.622 -1.3455 -0.7801  0.5137
  144MOL0     H19825   2.394   1.974   9.740  0.4636 -0.4198  1.6853
  144MOL0     H19826   2.240   2.179   9.765 -0.2998 -1.6815  0.9850
  144MOL0     H19827   2.307   2.110   9.900 -3.7756  1.7087  1.0646
  144MOL0     H19828   2.482   2.315   9.897 -2.3534  0.3646  1.0005
  144MOL0     H19829   2.415   2.364   9.749 -0.8726  0.4768  0.5187
  144MOL0     H19830   2.139   2.514  10.020  0.7080  0.4901 -0.6574
  144MOL0     H19831   2.007   2.598  10.184 -1.8740  0.0162  1.2244
  144MOL0     H19832   2.119   2.666  10.305 -2.5005  1.5553 -0.1928
  144MOL0     H19833   1.981   2.547  10.339 -0.8741  1.7588  0.0714
  144MOL0     H19834   2.187   2.721  10.609  2.4803 -0.2796  0.9792
  144MOL0     H19835   2.172   2.793  10.864  2.6984 -1.1448  0.6065
  144MOL0     H19836   2.000   2.503  11.152 -0.0743 -0.1657  1.2676
  144MOL0     H19837   2.173   2.491  11.131 -0.0053 -0.2714  2.1876
  144MOL0     H19838   2.087   2.542  11.364 -1.2303  1.5684  0.7678
  144MOL0     H19839   2.208   2.653  11.302  0.4747 -2.1643 -0.4508
  144MOL0     H19840   1.912   2.722  11.295  0.8534  0.1316 -2.6048
  144MOL0     H19841   2.038   2.820  11.244  1.6220 -2.0754 -1.6747
  144MOL0     H19842   2.136   2.827  11.477 -0.1121 -0.6361  0.4834
  144MOL0     H19843   2.024   2.689  11.510  1.0603 -1.5116 -1.1412
  144MOL0     H19844   1.946   2.976  11.428 -1.6826  1.8709  1.1998
  144MOL0     H19845   1.827   2.856  11.487 -0.4069  0.4610 -0.1797
  144MOL0     H19846   2.064   2.983  11.621 -0.1540 -0.2981  2.4560
  144MOL0     H19847   1.982   2.848  11.690 -1.5080  0.5599  0.9304
  144MOL0     H19848   1.759   2.987  11.684 -0.6087 -1.4674 -0.4413
  144MOL0     H19849   1.830   3.112  11.597 -5.1350 -0.5447  1.5723
  144MOL0     H19850   1.855   3.194  11.834  3.0413  0.2503  2.6811
  144MOL0     H19851   2.003   3.163  11.772 -0.0074  0.9795  1.6281
  144MOL0     H19852   1.984   2.425  10.947 -0.1540  0.6596  0.3535
  144MOL0     H19853   2.001   2.353  10.718  0.2710  0.7379 -2.4617
  144MOL0     H19854   2.376   2.229  10.336 -0.8485 -0.3741 -0.1906
  144MOL0     H19855   2.431   2.227  10.092 -2.4289 -3.1395  0.4714
  144MOL0     H19856   3.126   1.239   9.787  2.0772 -0.2913 -2.0383
  144MOL0     H19857   2.895   1.220   9.889  2.1555  0.4382  0.8834
  144MOL0     H19858   2.419   1.104   9.723 -0.9991 -0.1661  0.5076
  144MOL0     H19859   2.188   1.103   9.793 -0.8738  0.1181 -0.3890
  144MOL0     H19860   1.908   1.263  10.059 -0.0136  1.0625 -1.1732
  144MOL0     H19861   2.047   1.316  10.160  2.1813 -0.4147  0.1084
  144MOL0     H19862   2.102   1.473   9.949  0.9418 -1.1961  0.8365
  144MOL0     H19863   1.977   1.522  10.056  2.7920  1.7134 -1.6589
  144MOL0     H19864   1.989   1.441   9.773  1.3584  3.0285  0.9887
  144MOL0     H19865   1.863   1.347   9.837  0.2835  1.0323 -1.3319
  144MOL0     H19866   1.873   1.656   9.823 -0.3011 -0.0852 -2.6947
  144MOL0     H19867   1.767   1.570   9.937  0.8481  3.3185 -0.1398
  144MOL0     H19868   1.634   1.473   9.532  1.5065  0.3665 -2.0416
  144MOL0     H19869   2.263   1.383  10.094 -0.4818  1.9819 -1.4435
  144MOL0     H19870   2.605   1.352  10.102  0.7114  0.1901 -0.1138
  144MOL0     H19871   2.607   1.485   9.998 -1.8682 -0.4339  0.4309
  144MOL0     H19872   2.489   1.481  10.126  2.0162  1.4238  0.5489
  145MOL0     O19873   7.559   9.329   7.012 -1.1036 -0.0370 -0.2648
  145MOL0     C19874   7.637   9.304   7.098 -0.9172  0.2746 -0.7281
  145MOL0     O19875   7.672   9.395   7.193  0.0532 -0.0696 -0.1706
  145MOL0     C19876   7.680   9.526   7.185  0.0943  0.9083  0.3118
  145MOL0     C19877   7.720   9.590   7.309 -0.3181 -0.4975 -0.0270
  145MOL0     C19878   7.765   9.720   7.302 -0.2624  0.4036  0.0123
  145MOL0     C19879   7.768   9.798   7.182  0.4879  0.1806 -0.2213
  145MOL0     O19880   7.789   9.935   7.198  0.4994 -0.1748  0.2283
  145MOL0     C19881   7.739  10.033   7.112  0.2683  0.4781 -0.0620
  145MOL0     C19882   7.738  10.166   7.186 -0.5507 -0.1341 -0.4417
  145MOL0     C19883   7.702  10.154   7.333 -0.2528  0.0647 -0.9304
  145MOL0     C19884   7.675  10.301   7.380  0.0817 -0.3152  0.1414
  145MOL0     C19885   7.659  10.328   7.525  0.2107  0.4555  0.2481
  145MOL0     C19886   7.650  10.473   7.551 -0.8053  0.1665 -0.2515
  145MOL0     C19887   7.682  10.517   7.698 -0.1142 -0.2817  0.1252
  145MOL0     C19888   7.645  10.669   7.717  0.0404 -0.7033 -0.0969
  145MOL0     N19889   7.717  10.754   7.622  0.1967  0.4338 -0.2814
  145MOL0     C19890   7.853  10.788   7.630  0.1761  0.2742 -0.4929
  145MOL0     C19891   7.872  10.844   7.506  0.4960 -0.3349 -1.2527
  145MOL0     C19892   8.007  10.892   7.452  0.3839  0.3460 -0.4989
  145MOL0     C19893   8.133  10.839   7.520  1.1271 -0.1147 -0.0269
  145MOL0     C19894   8.145  10.689   7.522  0.1955 -0.3041  0.1949
  145MOL0     C19895   8.292  10.656   7.561  0.2503 -0.0499  0.1831
  145MOL0     O19896   8.328  10.523   7.581  0.3858  0.6251 -0.8359
  145MOL0     C19897   8.292  10.474   7.698 -0.4097 -0.0719 -0.3645
  145MOL0     C19898   8.382  10.477   7.807  1.0004  0.4926 -0.0113
  145MOL0     C19899   8.366  10.414   7.925 -0.2643 -0.0129 -0.2209
  145MOL0     C19900   8.482  10.408   8.022  0.2072 -0.4023  0.3217
  145MOL0     C19901   8.236  10.362   7.946  0.0115 -0.6141 -0.5577
  145MOL0     C19902   8.196  10.293   8.065 -0.9792 -0.5214  0.5139
  145MOL0     O19903   8.063  10.253   8.067  0.7538  0.6361  0.8443
  145MOL0     C19904   8.007  10.254   8.195 -0.0251 -0.0556  0.7980
  145MOL0     C19905   7.993  10.376   8.270  0.1990 -0.1539 -0.5342
  145MOL0     C19906   7.929  10.385   8.391 -0.4628 -0.4529  0.2723
  145MOL0     C19907   7.901  10.265   8.452 -0.1476 -0.4983  0.6687
  145MOL0     O19908   7.854  10.265   8.581 -0.1665 -0.1992 -0.5255
  145MOL0     C19909   7.901  10.163   8.673  0.5491  0.3434 -0.4396
  145MOL0     C19910   7.841  10.189   8.808  1.0525 -0.6287  0.1663
  145MOL0     C19911   7.905  10.110   8.920  0.8221  0.4008  0.9771
  145MOL0     C19912   7.842   9.971   8.929  0.1309  0.4725  0.2535
  145MOL0     C19913   7.683   9.945   8.939  0.1496  1.0383  0.1320
  145MOL0     C19914   7.635   9.795   8.940  0.8680 -0.8094  0.5944
  145MOL0     C19915   7.478   9.795   8.938  0.3085  0.6907  0.2097
  145MOL0     C19916   7.417   9.651   8.915  0.4256 -0.6473 -0.4578
  145MOL0    Cl19917   7.467   9.526   9.023 -0.3028  0.4526  0.1078
  145MOL0     C19918   7.927  10.145   8.383 -0.2283 -0.9822  0.1335
  145MOL0     C19919   7.987  10.139   8.261  0.3628  0.4717  0.0581
  145MOL0     O19920   8.271  10.280   8.158 -0.9495  0.4404 -0.6512
  145MOL0     C19921   8.143  10.365   7.840 -0.0134 -0.0885  0.5041
  145MOL0     C19922   8.172  10.417   7.717  0.8653 -1.2413  0.3760
  145MOL0     N19923   7.761  10.849   7.432  0.4826  0.2629  0.1414
  145MOL0     N19924   7.666  10.798   7.505  1.0602  0.1720 -0.0754
  145MOL0     C19925   7.719   9.732   7.065 -0.1752 -1.3129  0.2678
  145MOL0     C19926   7.679   9.600   7.067 -0.8333 -0.3286  0.5132
  145MOL0     C19927   7.694   9.163   7.100 -0.2868  0.0116  0.0182
  145MOL0     C19928   7.773   9.138   7.220 -0.0338  0.4745  0.2217
  145MOL0     C19929   7.842   9.017   7.229 -0.0047  0.4395 -0.3152
  145MOL0     C19930   7.821   8.919   7.133  0.7376 -0.6132 -0.1922
  145MOL0     O19931   7.889   8.811   7.162  1.0754 -0.0021  0.2151
  145MOL0     C19932   7.843   8.688   7.101  0.1784 -0.0318  0.7408
  145MOL0     C19933   7.936   8.568   7.158 -0.3691  0.4943  0.3426
  145MOL0     C19934   7.942   8.573   7.318 -0.2216 -0.1650  1.3429
  145MOL0     C19935   7.811   8.551   7.393  0.5604 -0.5944 -0.7318
  145MOL0     C19936   7.806   8.644   7.505  0.6220 -0.6812  0.1869
  145MOL0     C19937   7.800   8.727   7.589 -0.4334 -0.0064 -0.0939
  145MOL0     C19938   7.745   8.947   7.022  0.5712 -0.0453  0.9231
  145MOL0     C19939   7.671   9.059   7.003  0.2582  0.3191  0.5259
  145MOL0     C19940   7.602   9.078   6.861  0.0466  0.7390  0.1235
  145MOL0     H19941   7.736   9.533   7.400 -0.3918  1.7883  1.5111
  145MOL0     H19942   7.781   9.782   7.390 -2.5003  1.6026 -0.3507
  145MOL0     H19943   7.632  10.014   7.095  0.4013 -0.6601  0.3055
  145MOL0     H19944   7.798  10.035   7.020  2.3364 -0.8212  1.1663
  145MOL0     H19945   7.832  10.219   7.173 -0.2546 -0.5904 -0.2260
  145MOL0     H19946   7.671  10.223   7.122  1.5987  1.7930 -1.0915
  145MOL0     H19947   7.617  10.088   7.354  1.2595 -1.9313 -0.7483
  145MOL0     H19948   7.783  10.110   7.392 -0.8483 -1.6511 -1.3351
  145MOL0     H19949   7.758  10.361   7.343 -0.4527 -0.2678 -1.0171
  145MOL0     H19950   7.583  10.340   7.337  0.7100  3.7132  1.9947
  145MOL0     H19951   7.745  10.289   7.581 -0.9681  0.1695  1.9504
  145MOL0     H19952   7.565  10.278   7.553 -0.2691  0.8131 -0.6844
  145MOL0     H19953   7.717  10.520   7.478 -1.2467 -1.7898 -2.0218
  145MOL0     H19954   7.551  10.508   7.521  0.2211  4.9283  1.1484
  145MOL0     H19955   7.787  10.505   7.728  0.4352  1.3428 -1.0367
  145MOL0     H19956   7.627  10.457   7.771 -2.0910  1.3585  0.0857
  145MOL0     H19957   7.538  10.688   7.702  0.7605  2.5566 -2.1379
  145MOL0     H19958   7.672  10.704   7.817 -1.9142 -3.4886  1.5496
  145MOL0     H19959   7.926  10.771   7.709 -0.6975  1.5578  0.6520
  145MOL0     H19960   8.002  11.002   7.460  0.9840  0.3040  0.7784
  145MOL0     H19961   8.012  10.862   7.347 -2.7807 -0.9171 -0.3993
  145MOL0     H19962   8.216  10.871   7.456  0.6754  1.3366  0.0906
  145MOL0     H19963   8.142  10.891   7.615  0.4237  0.8265 -0.4574
  145MOL0     H19964   8.068  10.641   7.583  0.1035 -1.0429 -0.4871
  145MOL0     H19965   8.138  10.653   7.419  1.0285  0.5208 -0.1589
  145MOL0     H19966   8.357  10.692   7.481 -0.7940  1.6497  0.0559
  145MOL0     H19967   8.312  10.715   7.651  0.3704  0.8985 -0.4571
  145MOL0     H19968   8.468  10.538   7.779 -0.7336  2.9636 -0.2696
  145MOL0     H19969   8.509  10.302   8.034 -1.1344 -0.6628  1.2788
  145MOL0     H19970   8.453  10.454   8.116 -2.2343 -1.5142  0.2045
  145MOL0     H19971   8.571  10.462   7.990  1.8544 -2.1947  1.6405
  145MOL0     H19972   8.030  10.471   8.234  1.4013 -0.4707 -0.1729
  145MOL0     H19973   7.915  10.481   8.439 -3.3362 -0.4934 -0.3183
  145MOL0     H19974   7.884  10.061   8.639 -1.1129  1.1872 -2.3363
  145MOL0     H19975   8.009  10.169   8.685  0.4567  0.9116  0.1840
  145MOL0     H19976   7.848  10.297   8.825 -2.4991  0.2089 -2.4887
  145MOL0     H19977   7.734  10.168   8.798  1.2414 -1.4011 -0.3247
  145MOL0     H19978   7.872  10.161   9.011  0.5733 -0.0420  1.1431
  145MOL0     H19979   8.013  10.118   8.926  1.4036 -3.7708 -0.3180
  145MOL0     H19980   7.872   9.930   9.026  0.8991  0.4237  0.0006
  145MOL0     H19981   7.888   9.910   8.850 -0.6394 -2.0295  1.6094
  145MOL0     H19982   7.646  10.004   9.023 -2.2346 -1.9756  1.3674
  145MOL0     H19983   7.638   9.984   8.847 -2.9297 -2.2045  0.0546
  145MOL0     H19984   7.683   9.747   9.025 -1.4045 -2.3323  1.0962
  145MOL0     H19985   7.673   9.754   8.846  2.7825  0.5307  0.7213
  145MOL0     H19986   7.439   9.855   8.855  1.2703 -0.1525 -0.8964
  145MOL0     H19987   7.425   9.833   9.026  0.3123  1.4752 -0.1175
  145MOL0     H19988   7.439   9.611   8.815 -0.8417  3.0762 -2.4594
  145MOL0     H19989   7.309   9.669   8.918  0.6877  1.6298 -1.7335
  145MOL0     H19990   7.894  10.053   8.431  0.0987 -0.5185  1.2687
  145MOL0     H19991   8.002  10.042   8.214 -0.0500 -1.0140  2.7880
  145MOL0     H19992   8.053  10.304   7.839 -0.0648 -0.1005 -2.5713
  145MOL0     H19993   8.101  10.419   7.636  0.3456  2.4571  0.7239
  145MOL0     H19994   7.725   9.790   6.974  3.6656 -1.0089  0.5582
  145MOL0     H19995   7.660   9.549   6.973  0.1361  0.8770 -0.3634
  145MOL0     H19996   7.806   9.215   7.289  0.4237  2.5955 -2.2181
  145MOL0     H19997   7.900   8.986   7.315  0.1594  2.3268  0.3057
  145MOL0     H19998   7.742   8.671   7.137  0.4480  1.3996  2.3110
  145MOL0     H19999   7.844   8.696   6.992 -1.4818  1.0159  0.7668
  145MOL0     H20000   8.036   8.587   7.118  0.3695  0.7814  2.1912
  145MOL0     H20001   7.906   8.469   7.124  1.9083  0.1373 -0.8267
  145MOL0     H20002   8.012   8.497   7.352  2.0674  0.1180 -2.2167
  145MOL0     H20003   7.999   8.663   7.339  1.5179 -0.9845  0.3162
  145MOL0     H20004   7.816   8.448   7.428 -0.7293  0.1629  1.9307
  145MOL0     H20005   7.717   8.557   7.336  0.7802  0.7540 -1.0085
  145MOL0     H20006   7.782   8.794   7.671  2.4825  0.9783 -0.1465
  145MOL0     H20007   7.742   8.884   6.933  3.6279  1.1994 -0.2007
  145MOL0     H20008   7.616   8.984   6.805  2.1676  0.4557  1.0296
  145MOL0     H20009   7.499   9.112   6.867  0.8126  3.4079 -0.4289
  145MOL0     H20010   7.657   9.151   6.800  3.3154 -1.0682  0.6361
  146MOL0     O20011  11.416  10.809  10.459 -0.4228  0.1644 -0.3953
  146MOL0     C20012  11.304  10.846  10.439 -0.3427 -0.1724  0.7293
  146MOL0     O20013  11.225  10.916  10.526 -0.1193  0.1171 -0.1844
  146MOL0     C20014  11.296  10.981  10.627  0.8824 -0.5570  0.1742
  146MOL0     C20015  11.326  10.918  10.749  0.3847 -0.6280  0.7459
  146MOL0     C20016  11.388  10.988  10.850 -0.7789 -0.0162 -0.4779
  146MOL0     C20017  11.423  11.122  10.834 -0.2925 -0.3330  0.3762
  146MOL0     O20018  11.510  11.181  10.933 -0.1773 -0.3500  0.0586
  146MOL0     C20019  11.598  11.278  10.880 -1.1202 -0.4670  0.1758
  146MOL0     C20020  11.679  11.356  10.983 -0.2688  0.2127 -0.1284
  146MOL0     C20021  11.802  11.432  10.906  0.8169  1.5278  0.7897
  146MOL0     C20022  11.901  11.486  10.999  0.4435  0.4961 -0.7465
  146MOL0     C20023  11.850  11.591  11.095  0.4721  0.7541 -0.9648
  146MOL0     C20024  11.971  11.645  11.175  0.7414  0.2127  0.3463
  146MOL0     C20025  11.948  11.729  11.299  0.1915  0.2831 -0.8560
  146MOL0     C20026  11.955  11.651  11.430 -0.5109  0.8867  0.4483
  146MOL0     N20027  11.862  11.537  11.436 -0.4187 -0.2980  0.0841
  146MOL0     C20028  11.723  11.550  11.462 -0.2296 -0.1439 -0.2484
  146MOL0     C20029  11.674  11.429  11.416  0.5988 -0.2260  0.2125
  146MOL0     C20030  11.524  11.382  11.420  0.1792 -1.0618 -0.0836
  146MOL0     C20031  11.484  11.282  11.310 -0.1243  0.1976  0.6025
  146MOL0     C20032  11.332  11.263  11.323  0.7444 -0.2518  0.2924
  146MOL0     C20033  11.281  11.201  11.196 -0.0497 -0.7209 -0.9680
  146MOL0     O20034  11.140  11.228  11.209 -0.8869  0.0736 -0.3756
  146MOL0     C20035  11.049  11.184  11.122  0.0300  0.1847 -0.0650
  146MOL0     C20036  10.927  11.249  11.113 -0.3913  0.3009 -0.3849
  146MOL0     C20037  10.823  11.209  11.029  0.4501 -0.3424  0.1879
  146MOL0     C20038  10.697  11.283  11.058 -0.5148 -1.2237 -0.0536
  146MOL0     C20039  10.838  11.102  10.954  0.0262  0.8909  0.2562
  146MOL0     C20040  10.729  11.051  10.866 -0.0533  0.7053  0.0827
  146MOL0     O20041  10.601  11.105  10.876  0.5026  0.1425  0.1941
  146MOL0     C20042  10.496  11.063  10.794 -0.6222  0.4987  0.7359
  146MOL0     C20043  10.438  11.142  10.696 -0.1562 -0.1488 -0.9068
  146MOL0     C20044  10.329  11.112  10.623 -0.4328 -0.2912 -0.5643
  146MOL0     C20045  10.260  10.995  10.644  0.3101  0.7375  0.2770
  146MOL0     O20046  10.137  10.960  10.589 -0.1284  0.4501 -0.4961
  146MOL0     C20047  10.047  11.060  10.525 -0.1150  0.2783 -0.3511
  146MOL0     C20048   9.913  10.996  10.515  0.1243 -0.4533 -0.1392
  146MOL0     C20049   9.821  11.073  10.417 -1.2108  0.0008 -0.1913
  146MOL0     C20050   9.768  11.198  10.471 -0.0015 -0.6771 -0.0139
  146MOL0     C20051   9.649  11.251  10.387 -0.5139  0.4672  1.0853
  146MOL0     C20052   9.682  11.277  10.238 -0.4156  0.2152 -0.6824
  146MOL0     C20053   9.565  11.341  10.171 -0.0606 -0.2965 -0.1340
  146MOL0     C20054   9.607  11.416  10.046  0.7034  0.6533 -0.2849
  146MOL0    Cl20055   9.682  11.290   9.946  0.0343  0.3206  0.1186
  146MOL0     C20056  10.320  10.900  10.732  0.8126  0.1292  0.5041
  146MOL0     C20057  10.436  10.930  10.806 -1.3663 -0.5862 -0.6300
  146MOL0     O20058  10.761  10.963  10.789  0.1185  0.0219 -0.4319
  146MOL0     C20059  10.970  11.041  10.945 -0.2257  0.0526  1.1954
  146MOL0     C20060  11.070  11.081  11.029  0.3259  0.9535  1.5848
  146MOL0     N20061  11.781  11.345  11.393 -0.1853 -0.9202 -0.3409
  146MOL0     N20062  11.891  11.409  11.410 -0.5217  1.2617  1.2459
  146MOL0     C20063  11.379  11.193  10.716  0.0748 -0.0054 -0.6227
  146MOL0     C20064  11.310  11.122  10.612  0.1168 -0.6072  0.5236
  146MOL0     C20065  11.254  10.843  10.297 -0.6234  0.3753  0.2627
  146MOL0     C20066  11.345  10.801  10.197 -0.1023 -1.1385  1.0370
  146MOL0     C20067  11.307  10.781  10.065  0.0544 -0.7584  0.4668
  146MOL0     C20068  11.178  10.812  10.028  0.3440  0.7417  0.6555
  146MOL0     O20069  11.161  10.774   9.897  0.7693  0.2547 -0.2660
  146MOL0     C20070  11.031  10.780   9.845 -0.4732 -0.2996 -1.3381
  146MOL0     C20071  11.039  10.720   9.710  0.2100 -0.0433  0.5605
  146MOL0     C20072  10.915  10.747   9.622 -0.2455 -0.3919  0.4767
  146MOL0     C20073  10.956  10.696   9.483 -0.3829  0.3927 -0.1586
  146MOL0     C20074  11.013  10.813   9.406 -0.5260  0.2117  0.1954
  146MOL0     C20075  11.059  10.908   9.350  0.0207  0.8455  0.1835
  146MOL0     C20076  11.089  10.846  10.122 -0.5589 -0.0140  0.2258
  146MOL0     C20077  11.121  10.867  10.256 -0.1682  0.2033 -0.4416
  146MOL0     C20078  11.007  10.914  10.347 -0.0371 -0.3189  0.8295
  146MOL0     H20079  11.300  10.813  10.761  2.5502 -1.4616 -1.2069
  146MOL0     H20080  11.424  10.948  10.944  1.7731 -1.2136 -1.8604
  146MOL0     H20081  11.547  11.357  10.825 -0.4599 -1.0569 -1.3234
  146MOL0     H20082  11.664  11.219  10.816 -0.9070 -0.2936  0.2373
  146MOL0     H20083  11.610  11.415  11.044 -0.8085 -2.4059  1.9938
  146MOL0     H20084  11.724  11.279  11.046  0.5951  0.8340  0.0431
  146MOL0     H20085  11.849  11.350  10.850  0.8583  0.1913  2.6746
  146MOL0     H20086  11.749  11.503  10.843 -1.6093 -1.5695 -0.9979
  146MOL0     H20087  11.959  11.413  11.056  0.8187  0.3674 -1.2852
  146MOL0     H20088  11.967  11.529  10.924  0.3886 -2.1091 -2.4260
  146MOL0     H20089  11.778  11.543  11.163 -1.6563  0.5718 -3.2022
  146MOL0     H20090  11.815  11.676  11.036  1.0935  2.2697  0.7557
  146MOL0     H20091  12.028  11.556  11.203 -1.7277 -1.9478 -0.9574
  146MOL0     H20092  12.014  11.712  11.100  1.2651 -0.0575  0.4031
  146MOL0     H20093  11.850  11.777  11.295  0.3317  0.7553  0.8385
  146MOL0     H20094  12.023  11.808  11.306 -0.1972  0.8428 -2.5457
  146MOL0     H20095  12.058  11.623  11.451  0.1149  0.6584 -2.4963
  146MOL0     H20096  11.916  11.719  11.507  0.2599  0.4482  1.2513
  146MOL0     H20097  11.671  11.641  11.490  2.9140  1.0585  2.4476
  146MOL0     H20098  11.470  11.476  11.407  1.7591 -0.4806 -3.4994
  146MOL0     H20099  11.493  11.351  11.521 -1.8254 -0.0623 -0.3523
  146MOL0     H20100  11.496  11.318  11.208 -4.3117  0.2042 -0.0425
  146MOL0     H20101  11.539  11.188  11.324  1.3383  0.1498 -3.7910
  146MOL0     H20102  11.296  11.211  11.412 -4.3776  1.0185 -0.7381
  146MOL0     H20103  11.288  11.363  11.330  0.0806 -0.4066 -1.2864
  146MOL0     H20104  11.319  11.242  11.102 -0.9062  4.4917  0.6410
  146MOL0     H20105  11.301  11.094  11.210 -1.0625 -0.7744  0.2145
  146MOL0     H20106  10.921  11.328  11.186 -0.9769 -0.5966  0.5604
  146MOL0     H20107  10.701  11.367  11.129 -0.6087 -0.2060 -1.2257
  146MOL0     H20108  10.629  11.210  11.101 -0.6837  0.6529  3.2259
  146MOL0     H20109  10.669  11.334  10.966  2.9846 -3.1563 -2.4391
  146MOL0     H20110  10.475  11.244  10.685 -1.7039  0.7591  1.3783
  146MOL0     H20111  10.304  11.199  10.563  1.2071  0.2090 -0.5620
  146MOL0     H20112  10.046  11.158  10.573 -1.5938 -0.4140  1.1434
  146MOL0     H20113  10.095  11.075  10.428  4.7621  2.4671  2.0495
  146MOL0     H20114   9.920  10.892  10.484  1.6630 -0.7095  0.9127
  146MOL0     H20115   9.873  10.995  10.617  1.9015 -0.3948  0.6008
  146MOL0     H20116   9.745  11.005  10.379 -1.7026 -0.0148  0.7881
  146MOL0     H20117   9.885  11.080  10.328 -2.6874 -1.4131 -1.4186
  146MOL0     H20118   9.849  11.270  10.462 -0.0588  0.2690  4.4993
  146MOL0     H20119   9.748  11.204  10.578  1.4551  0.8517  0.2082
  146MOL0     H20120   9.567  11.179  10.389  1.4634 -2.1720 -1.9858
  146MOL0     H20121   9.607  11.342  10.430 -1.7021  0.1123  0.7146
  146MOL0     H20122   9.689  11.175  10.199 -0.5826  0.1489 -0.5408
  146MOL0     H20123   9.774  11.336  10.229  0.9366 -0.6034  4.2922
  146MOL0     H20124   9.506  11.404  10.238  2.0385  0.0950  1.4653
  146MOL0     H20125   9.499  11.264  10.130  0.4742  0.5977 -2.9094
  146MOL0     H20126   9.684  11.489  10.074  1.1522  0.7235 -1.6129
  146MOL0     H20127   9.518  11.462  10.001 -0.0107  0.4376  0.8792
  146MOL0     H20128  10.270  10.805  10.748 -1.1383  1.3373  2.0608
  146MOL0     H20129  10.472  10.861  10.882  2.0772 -0.2222 -1.7937
  146MOL0     H20130  10.974  10.954  10.879 -1.1600  0.7739  0.1367
  146MOL0     H20131  11.159  11.019  11.034 -1.9481 -2.6183  1.4382
  146MOL0     H20132  11.384  11.301  10.715 -4.7262  0.4468  0.3184
  146MOL0     H20133  11.279  11.168  10.519  0.4381 -1.7038 -0.1452
  146MOL0     H20134  11.445  10.772  10.226 -0.2514  1.3531  4.5699
  146MOL0     H20135  11.374  10.728   9.998 -1.9863 -0.8725 -1.5895
  146MOL0     H20136  10.958  10.718   9.897 -1.6312  0.9431 -1.3979
  146MOL0     H20137  10.999  10.884   9.861  0.6900  0.0595 -1.2335
  146MOL0     H20138  11.044  10.610   9.716  0.0249 -0.3014 -2.3861
  146MOL0     H20139  11.123  10.760   9.654 -0.7876  1.4749  0.1006
  146MOL0     H20140  10.828  10.687   9.650 -0.2458 -0.3109  0.6550
  146MOL0     H20141  10.886  10.853   9.618  2.4443  0.4411  0.9127
  146MOL0     H20142  10.862  10.670   9.434 -0.4834  1.5158 -0.5845
  146MOL0     H20143  11.024  10.610   9.487 -0.9172 -0.1816 -2.1798
  146MOL0     H20144  11.094  10.996   9.300 -1.0280  1.9566  1.3680
  146MOL0     H20145  10.987  10.867  10.091  0.4314  2.6161 -1.6517
  146MOL0     H20146  11.035  11.012  10.385 -0.1222  0.3482 -0.7712
  146MOL0     H20147  10.914  10.915  10.289  2.0663 -0.8687 -2.8781
  146MOL0     H20148  10.991  10.849  10.434 -1.3252 -0.8636  0.2193
  147MOL0     O20149   9.247   8.648   9.904 -0.3124  0.6607  0.7562
  147MOL0     C20150   9.280   8.582   9.798  0.2840  0.1078  0.7575
  147MOL0     O20151   9.245   8.606   9.667  0.2119 -0.2052 -0.2043
  147MOL0     C20152   9.187   8.728   9.641  0.1443 -0.4288 -0.0419
  147MOL0     C20153   9.255   8.848   9.654  0.6328  0.0146 -0.1473
  147MOL0     C20154   9.194   8.965   9.629 -0.0260 -0.6631 -1.0541
  147MOL0     C20155   9.062   8.967   9.582 -0.5968  0.2152  0.3627
  147MOL0     O20156   9.002   9.091   9.567  0.1114  0.6929 -0.3505
  147MOL0     C20157   8.938   9.115   9.444  0.6737  0.8276  0.5612
  147MOL0     C20158   8.955   9.269   9.422 -0.8876  0.0888  0.5982
  147MOL0     C20159   8.895   9.347   9.543  0.0026  0.2530  0.4733
  147MOL0     C20160   8.884   9.492   9.503 -0.5354  0.5514  0.0719
  147MOL0     C20161   8.785   9.547   9.609  0.7479 -0.0017 -0.1473
  147MOL0     C20162   8.754   9.697   9.591 -0.5096 -0.3605  0.6108
  147MOL0     C20163   8.694   9.738   9.457 -0.5869 -0.5359  0.6087
  147MOL0     C20164   8.660   9.885   9.455 -0.7334  0.0250 -0.1902
  147MOL0     N20165   8.592   9.916   9.325  0.2513  0.6848 -0.2150
  147MOL0     C20166   8.453   9.910   9.312 -0.0285 -0.2891  0.2959
  147MOL0     C20167   8.446   9.893   9.172 -0.1649  0.4020 -0.0550
  147MOL0     C20168   8.328   9.871   9.085  0.0738 -0.6424  0.0145
  147MOL0     C20169   8.345   9.745   9.001  0.1720 -0.3204 -0.6561
  147MOL0     C20170   8.229   9.713   8.899 -0.3357  0.1744 -0.8175
  147MOL0     C20171   8.214   9.816   8.791  0.5301 -0.8141  0.8127
  147MOL0     O20172   8.091   9.794   8.722 -0.5413  0.2108 -0.6436
  147MOL0     C20173   8.085   9.783   8.587 -0.3191 -0.3083 -0.4331
  147MOL0     C20174   8.153   9.868   8.499  1.0995 -0.6741  0.5108
  147MOL0     C20175   8.139   9.844   8.360 -0.3924  0.4285 -1.1061
  147MOL0     C20176   8.247   9.902   8.270  0.8063 -0.1947  0.3946
  147MOL0     C20177   8.051   9.752   8.309  0.1020  0.3293  0.1199
  147MOL0     C20178   8.038   9.731   8.159  0.0903 -0.1731  0.7689
  147MOL0     O20179   8.000   9.602   8.126 -0.0205 -0.6373  0.1522
  147MOL0     C20180   8.007   9.561   8.000 -1.0258  0.0569  0.3453
  147MOL0     C20181   7.904   9.580   7.915 -0.1105 -0.0809  0.0990
  147MOL0     C20182   7.915   9.557   7.774 -0.3025  0.5600 -1.2691
  147MOL0     C20183   8.027   9.505   7.717  0.5269 -0.1591 -0.0923
  147MOL0     O20184   8.037   9.489   7.584  0.4711  0.0079 -0.4529
  147MOL0     C20185   8.074   9.604   7.520  0.3322 -0.6329  1.3777
  147MOL0     C20186   8.172   9.565   7.407  0.1439 -1.2718  0.0118
  147MOL0     C20187   8.254   9.688   7.371 -1.5064 -0.8889  0.2924
  147MOL0     C20188   8.166   9.808   7.322 -0.6181  0.3079  0.5238
  147MOL0     C20189   8.270   9.922   7.310  0.1160 -0.9599 -0.6381
  147MOL0     C20190   8.208  10.057   7.287 -0.2958 -0.1340 -0.6638
  147MOL0     C20191   8.272  10.161   7.374  0.1677  0.0916 -0.1665
  147MOL0     C20192   8.222  10.298   7.334 -1.2763  0.2688 -0.1437
  147MOL0    Cl20193   8.051  10.304   7.384  0.0909  0.3052  0.2745
  147MOL0     C20194   8.132   9.476   7.804 -0.7425  1.0050  0.3647
  147MOL0     C20195   8.127   9.508   7.941  0.5778 -0.9292  0.6391
  147MOL0     O20196   8.038   9.825   8.079 -1.1671  0.6271 -0.1835
  147MOL0     C20197   7.972   9.677   8.395  0.4603  0.5104  0.4300
  147MOL0     C20198   7.988   9.693   8.538 -0.7581  0.2396  0.3856
  147MOL0     N20199   8.575   9.903   9.113 -0.5863 -0.0759  0.0997
  147MOL0     N20200   8.653   9.905   9.203  0.1974  0.5202 -0.5430
  147MOL0     C20201   9.002   8.846   9.543  1.6465 -0.2265 -0.3723
  147MOL0     C20202   9.057   8.726   9.596  0.1360 -0.1868  0.4710
  147MOL0     C20203   9.348   8.460   9.827 -0.8764  0.8260  0.9319
  147MOL0     C20204   9.314   8.351   9.749  0.3461 -0.3784  0.0264
  147MOL0     C20205   9.374   8.227   9.762  0.9249 -0.9600 -1.1060
  147MOL0     C20206   9.473   8.213   9.865 -0.1660  0.5854 -1.1491
  147MOL0     O20207   9.524   8.082   9.889  0.6498 -0.6313  0.1200
  147MOL0     C20208   9.619   8.051   9.992  0.0636  0.2482  0.1915
  147MOL0     C20209   9.766   8.064   9.946 -0.2763  0.6257  0.3737
  147MOL0     C20210   9.835   8.201   9.967 -0.3910  0.0871  0.2284
  147MOL0     C20211   9.883   8.229  10.112  0.4062  0.1210  0.3140
  147MOL0     C20212   9.918   8.375  10.115  0.1292  0.0461  1.0807
  147MOL0     C20213   9.935   8.491  10.114  0.0464 -0.6239  0.2809
  147MOL0     C20214   9.507   8.314   9.953  0.6253 -0.7597 -1.1605
  147MOL0     C20215   9.446   8.435   9.934 -0.8348 -0.0835  0.5291
  147MOL0     C20216   9.484   8.552  10.032  0.7456  0.1826 -0.0127
  147MOL0     H20217   9.361   8.853   9.680  2.0565 -1.8494 -4.5175
  147MOL0     H20218   9.231   9.064   9.651 -3.2879  0.0358  2.2874
  147MOL0     H20219   8.832   9.098   9.467  1.2830 -1.2656  2.0700
  147MOL0     H20220   8.973   9.058   9.357  0.4756 -1.8049  2.1045
  147MOL0     H20221   9.064   9.280   9.430 -1.2205  3.2785  2.5549
  147MOL0     H20222   8.910   9.300   9.327  1.5052 -0.4523 -0.7964
  147MOL0     H20223   8.797   9.305   9.568  0.1875 -0.5090 -0.0484
  147MOL0     H20224   8.959   9.341   9.631  1.1943 -0.2845 -0.4104
  147MOL0     H20225   8.978   9.543   9.478 -2.1714  1.7540 -4.4234
  147MOL0     H20226   8.836   9.499   9.405 -0.8889 -0.0074  0.2045
  147MOL0     H20227   8.806   9.532   9.716  1.5934 -3.1323 -0.6666
  147MOL0     H20228   8.689   9.495   9.608  2.0642 -2.5713 -0.8790
  147MOL0     H20229   8.692   9.723   9.677 -0.4980  1.2094  0.1665
  147MOL0     H20230   8.850   9.742   9.619 -1.7873 -0.4194  6.3038
  147MOL0     H20231   8.606   9.678   9.432 -1.1420 -0.0570  1.3439
  147MOL0     H20232   8.770   9.727   9.380  0.2618  1.8822  1.0119
  147MOL0     H20233   8.602   9.903   9.546 -1.1745 -2.4953  0.0917
  147MOL0     H20234   8.745   9.954   9.453 -2.8209  2.8146 -3.3269
  147MOL0     H20235   8.372   9.921   9.384  1.1139  2.8631  1.2649
  147MOL0     H20236   8.313   9.955   9.016 -2.0586 -0.1793  0.9554
  147MOL0     H20237   8.254   9.872   9.166  1.0415 -1.9174  0.9650
  147MOL0     H20238   8.432   9.756   8.935 -0.3870 -0.2264 -1.4008
  147MOL0     H20239   8.368   9.656   9.059 -1.9825 -0.4448  0.0879
  147MOL0     H20240   8.261   9.622   8.848  0.2439  0.5836 -1.1844
  147MOL0     H20241   8.133   9.699   8.950 -1.6327  3.1448 -2.1921
  147MOL0     H20242   8.223   9.919   8.828  0.6567  0.6252 -2.8714
  147MOL0     H20243   8.304   9.804   8.730 -0.5542  0.1701 -1.0777
  147MOL0     H20244   8.217   9.952   8.526 -4.3156  4.1804  0.1425
  147MOL0     H20245   8.205   9.993   8.227  1.9338 -0.8362 -2.2719
  147MOL0     H20246   8.276   9.830   8.192 -0.0795  0.2345 -0.3529
  147MOL0     H20247   8.335   9.932   8.328 -0.9034  0.3773  2.8408
  147MOL0     H20248   7.816   9.629   7.956  0.3118  1.2734 -0.5289
  147MOL0     H20249   7.835   9.583   7.705  0.8258  2.6444 -1.8823
  147MOL0     H20250   7.995   9.657   7.465  1.8646  1.4568  1.0285
  147MOL0     H20251   8.114   9.683   7.585 -0.9806 -0.3590  1.8801
  147MOL0     H20252   8.242   9.485   7.436 -0.8330 -2.7636 -1.5687
  147MOL0     H20253   8.116   9.531   7.320 -0.9136 -1.8089  0.8682
  147MOL0     H20254   8.320   9.666   7.286  0.0439  0.6986  1.0180
  147MOL0     H20255   8.318   9.715   7.455 -2.0308 -0.7985  0.6632
  147MOL0     H20256   8.091   9.844   7.393 -3.1832 -0.7496 -1.4868
  147MOL0     H20257   8.117   9.785   7.227 -1.0481  0.6305  0.6634
  147MOL0     H20258   8.335   9.932   7.398  1.4657  3.0088 -1.9007
  147MOL0     H20259   8.331   9.905   7.221 -0.2896  1.2796 -1.4156
  147MOL0     H20260   8.099  10.061   7.295 -0.2366 -0.2998  0.3830
  147MOL0     H20261   8.224  10.097   7.187 -2.1588  2.7095  0.0499
  147MOL0     H20262   8.381  10.156   7.363  0.2898  1.4644  0.2408
  147MOL0     H20263   8.239  10.143   7.477 -3.1433 -1.1273 -1.2917
  147MOL0     H20264   8.213  10.314   7.227  1.1094 -1.5568 -0.7102
  147MOL0     H20265   8.291  10.368   7.381 -0.1160 -0.8624 -0.1040
  147MOL0     H20266   8.229   9.436   7.779 -1.6716  0.8321 -3.5887
  147MOL0     H20267   8.213   9.467   7.992  0.6226 -2.7615 -0.7751
  147MOL0     H20268   7.895   9.608   8.364 -1.7918  2.1872  1.9543
  147MOL0     H20269   7.928   9.634   8.606  0.9336 -4.4313 -1.7633
  147MOL0     H20270   8.912   8.853   9.482  1.5716 -2.3150 -0.5738
  147MOL0     H20271   9.016   8.626   9.581 -0.8494  0.1149  1.0638
  147MOL0     H20272   9.238   8.353   9.672 -0.7405  0.1438  1.0839
  147MOL0     H20273   9.356   8.144   9.695  0.8391 -1.4090 -0.5410
  147MOL0     H20274   9.606   8.115  10.080  0.4614 -1.8131  1.8209
  147MOL0     H20275   9.608   7.944  10.013  2.6579 -0.7279 -2.7319
  147MOL0     H20276   9.767   8.019   9.846 -0.1883  0.2795  0.5299
  147MOL0     H20277   9.819   7.996  10.012 -1.1188 -0.8269 -0.3991
  147MOL0     H20278   9.930   8.190   9.913  0.2993 -2.8365  1.8619
  147MOL0     H20279   9.778   8.280   9.917  0.1411  1.9132  2.3589
  147MOL0     H20280   9.958   8.166  10.159  0.2458  0.1781  0.6507
  147MOL0     H20281   9.795   8.214  10.175 -0.1622  0.8845 -0.2771
  147MOL0     H20282   9.931   8.594  10.087 -1.9113 -0.7583 -0.1090
  147MOL0     H20283   9.566   8.318  10.044 -2.5312  0.0187  1.0146
  147MOL0     H20284   9.412   8.574  10.111 -0.0195  2.7961 -1.3337
  147MOL0     H20285   9.582   8.533  10.077  0.8613 -0.3341 -0.4697
  147MOL0     H20286   9.505   8.638   9.968  1.0169 -1.2062 -1.9046
  148MOL0     O20287   7.400   4.245   3.936  0.4842  1.0141  0.3883
  148MOL0     C20288   7.366   4.356   3.972 -0.4427 -0.0938  0.8513
  148MOL0     O20289   7.351   4.460   3.894 -0.3801 -0.9297  0.0744
  148MOL0     C20290   7.380   4.455   3.759 -0.1195  0.2683  0.0298
  148MOL0     C20291   7.512   4.420   3.715  0.6890  0.4410 -0.0806
  148MOL0     C20292   7.536   4.408   3.581  0.8590 -0.2895  1.2897
  148MOL0     C20293   7.436   4.442   3.489 -1.2901 -0.7788  0.4059
  148MOL0     O20294   7.469   4.452   3.357  0.3230 -0.2106 -0.0593
  148MOL0     C20295   7.492   4.326   3.294 -0.1550  0.9497 -0.1507
  148MOL0     C20296   7.447   4.352   3.156  0.5340  0.6950  0.6028
  148MOL0     C20297   7.456   4.231   3.064  0.9767  0.1902 -0.4301
  148MOL0     C20298   7.458   4.275   2.921  0.6251 -0.2790  0.2730
  148MOL0     C20299   7.455   4.156   2.824  1.0142 -0.4772 -0.1872
  148MOL0     C20300   7.445   4.214   2.685 -0.2494  0.0810  0.7655
  148MOL0     C20301   7.470   4.102   2.582  0.4548  0.7151  0.8772
  148MOL0     C20302   7.420   4.146   2.442 -0.7254  0.2649 -0.4594
  148MOL0     N20303   7.494   4.251   2.382  0.0278  0.2041  0.7607
  148MOL0     C20304   7.568   4.244   2.263 -0.7379  0.6866 -0.9836
  148MOL0     C20305   7.584   4.371   2.222  0.2585 -0.9317 -0.1046
  148MOL0     C20306   7.664   4.424   2.101 -0.1728 -0.6522 -0.3934
  148MOL0     C20307   7.712   4.577   2.105 -0.0629 -1.0678 -0.0341
  148MOL0     C20308   7.590   4.666   2.062 -0.3589  0.8464 -0.7698
  148MOL0     C20309   7.619   4.786   1.971 -0.0656 -1.5180 -0.8074
  148MOL0     O20310   7.711   4.875   2.047  1.1060  0.8279  0.6235
  148MOL0     C20311   7.772   4.962   1.970 -0.4697  0.0406 -0.0949
  148MOL0     C20312   7.734   5.008   1.845  0.1466 -0.3365  0.6833
  148MOL0     C20313   7.796   5.118   1.778 -0.0339 -0.7317 -0.1020
  148MOL0     C20314   7.747   5.176   1.653 -0.7882 -0.0784 -0.0983
  148MOL0     C20315   7.897   5.181   1.843 -0.3363 -0.3477  0.2340
  148MOL0     C20316   7.970   5.305   1.797 -0.1910 -0.2795 -1.0491
  148MOL0     O20317   7.897   5.427   1.792 -0.2077  0.1724  0.4600
  148MOL0     C20318   7.953   5.549   1.758  0.5605  0.1553  0.0683
  148MOL0     C20319   7.944   5.671   1.833 -0.1097  0.7010 -0.4004
  148MOL0     C20320   8.009   5.783   1.788 -0.2869 -0.4782  0.1306
  148MOL0     C20321   8.080   5.788   1.678 -0.5368 -0.3913 -0.0875
  148MOL0     O20322   8.147   5.904   1.636  0.0237  0.2936  0.5937
  148MOL0     C20323   8.068   6.015   1.599 -0.3924 -0.0045  0.4829
  148MOL0     C20324   8.146   6.131   1.665  0.4183 -0.3842 -0.5879
  148MOL0     C20325   8.099   6.265   1.600 -0.1527 -1.0611 -0.5381
  148MOL0     C20326   7.957   6.301   1.633 -1.0351  0.0605  0.8939
  148MOL0     C20327   7.893   6.393   1.534  0.0024 -0.3796 -0.9735
  148MOL0     C20328   7.756   6.426   1.575  0.0531 -1.1799  0.6400
  148MOL0     C20329   7.681   6.491   1.467  0.2168  0.0450 -0.0983
  148MOL0     C20330   7.537   6.494   1.515 -0.6782 -0.7834  0.1995
  148MOL0    Cl20331   7.519   6.573   1.685 -0.1051  0.2122 -0.4456
  148MOL0     C20332   8.094   5.668   1.604 -0.0269 -0.0161  0.5770
  148MOL0     C20333   8.037   5.552   1.649  0.4009 -0.2070  0.3112
  148MOL0     O20334   8.090   5.296   1.794 -0.9687  0.3673 -0.1496
  148MOL0     C20335   7.942   5.129   1.966 -0.1151  0.3873  0.1025
  148MOL0     C20336   7.879   5.030   2.032 -0.6715  1.0125 -0.5865
  148MOL0     N20337   7.529   4.455   2.311  0.3306 -0.4079 -0.6077
  148MOL0     N20338   7.478   4.381   2.404 -0.2551 -0.1723 -0.5366
  148MOL0     C20339   7.314   4.479   3.534  0.7620 -0.3414  0.4433
  148MOL0     C20340   7.279   4.483   3.670  0.3527  0.9117  0.5465
  148MOL0     C20341   7.342   4.380   4.119 -0.6759  0.2240 -1.3795
  148MOL0     C20342   7.406   4.295   4.220 -0.5177 -0.2737  0.0961
  148MOL0     C20343   7.386   4.315   4.359 -0.2016 -0.4978 -0.1908
  148MOL0     C20344   7.290   4.404   4.402  0.0246 -0.4865  0.3308
  148MOL0     O20345   7.253   4.390   4.531  0.8451  0.1486  0.4846
  148MOL0     C20346   7.340   4.449   4.636 -0.6663 -0.4704 -0.3071
  148MOL0     C20347   7.330   4.604   4.630 -0.6504 -0.0555 -0.1300
  148MOL0     C20348   7.440   4.688   4.697 -0.4920  0.8504  0.0868
  148MOL0     C20349   7.444   4.663   4.842 -0.4961 -0.7384  0.3400
  148MOL0     C20350   7.578   4.712   4.889  0.7978 -0.8557  0.5822
  148MOL0     C20351   7.692   4.740   4.932  1.4852  0.2109 -0.1047
  148MOL0     C20352   7.222   4.486   4.311 -0.1029 -0.4519 -0.6433
  148MOL0     C20353   7.244   4.474   4.175 -0.2342  0.2772 -0.1865
  148MOL0     C20354   7.192   4.579   4.089 -0.1083  0.5228  0.3306
  148MOL0     H20355   7.578   4.402   3.799  0.4914  0.8040  0.1552
  148MOL0     H20356   7.624   4.383   3.522  0.8625  1.5880  0.4017
  148MOL0     H20357   7.429   4.254   3.346  0.4307 -1.8689 -3.0525
  148MOL0     H20358   7.591   4.280   3.289 -1.1029 -1.0775 -1.7511
  148MOL0     H20359   7.339   4.365   3.151  0.2112 -0.0172  3.6517
  148MOL0     H20360   7.498   4.441   3.117 -2.1650  2.0351 -0.0539
  148MOL0     H20361   7.540   4.170   3.099 -1.6359 -1.9285  2.7974
  148MOL0     H20362   7.365   4.170   3.057  0.4477  0.7258  1.2472
  148MOL0     H20363   7.365   4.328   2.899 -1.2182 -4.0076 -2.0423
  148MOL0     H20364   7.545   4.341   2.913 -0.1893  0.9722  1.3923
  148MOL0     H20365   7.375   4.083   2.842 -0.2484  1.5317  3.2553
  148MOL0     H20366   7.545   4.096   2.844  1.6456  0.8478  1.2554
  148MOL0     H20367   7.345   4.247   2.656 -0.0000 -1.2556 -1.8480
  148MOL0     H20368   7.510   4.301   2.674 -0.3995  0.5092  2.8491
  148MOL0     H20369   7.410   4.016   2.614 -1.6684  0.5466 -2.8964
  148MOL0     H20370   7.568   4.055   2.572 -0.1617 -0.3311 -0.5725
  148MOL0     H20371   7.429   4.056   2.380 -1.1093 -0.2584  0.2216
  148MOL0     H20372   7.315   4.174   2.456 -0.0511  2.6753  0.2551
  148MOL0     H20373   7.609   4.153   2.220 -3.1849 -2.5848  2.8972
  148MOL0     H20374   7.617   4.388   2.009  0.3251 -0.5275 -0.7012
  148MOL0     H20375   7.750   4.356   2.100 -0.1276 -0.8955  3.7864
  148MOL0     H20376   7.753   4.608   2.202 -1.4615  2.6711 -0.4938
  148MOL0     H20377   7.783   4.585   2.022 -1.9856  3.7558 -1.5359
  148MOL0     H20378   7.511   4.599   2.025  1.4059  0.7550 -4.8725
  148MOL0     H20379   7.559   4.707   2.158  0.6032 -2.5402  1.1390
  148MOL0     H20380   7.656   4.736   1.881 -0.7518 -2.1890 -0.7281
  148MOL0     H20381   7.518   4.827   1.959 -0.2712 -1.9030 -0.4021
  148MOL0     H20382   7.658   4.944   1.801  1.8924 -1.7094 -0.5044
  148MOL0     H20383   7.656   5.130   1.612 -0.6656 -3.3526  2.8092
  148MOL0     H20384   7.819   5.183   1.571 -2.5353  2.1978 -1.5891
  148MOL0     H20385   7.729   5.283   1.671  0.3547  0.5177 -2.1836
  148MOL0     H20386   7.900   5.669   1.932  1.0163 -2.1458  0.1239
  148MOL0     H20387   8.022   5.873   1.847 -0.4609 -1.2021  1.2964
  148MOL0     H20388   8.076   6.032   1.492  0.8359  2.8314  0.9371
  148MOL0     H20389   7.962   6.005   1.621 -0.4744  0.3005  0.2202
  148MOL0     H20390   8.127   6.139   1.772  2.9333 -0.9912 -0.0224
  148MOL0     H20391   8.254   6.120   1.647  0.4659  0.8220 -1.1323
  148MOL0     H20392   8.098   6.261   1.490 -2.2788 -0.6256 -0.5717
  148MOL0     H20393   8.169   6.339   1.638 -0.0063 -1.4709  0.0066
  148MOL0     H20394   7.966   6.356   1.727  3.7028 -0.2830  0.8925
  148MOL0     H20395   7.894   6.215   1.657 -1.5372 -0.0801 -0.8184
  148MOL0     H20396   7.959   6.479   1.522  0.2444 -0.5670 -0.9913
  148MOL0     H20397   7.886   6.345   1.436 -0.5558 -2.3535 -0.0158
  148MOL0     H20398   7.769   6.487   1.664 -2.7278  0.1035  0.2756
  148MOL0     H20399   7.710   6.331   1.603 -0.1562 -2.4601 -3.3607
  148MOL0     H20400   7.694   6.431   1.377  1.7210  1.1159 -0.6443
  148MOL0     H20401   7.719   6.592   1.447  2.0301 -0.7070 -0.6075
  148MOL0     H20402   7.508   6.388   1.510  2.1566 -1.5694 -3.4361
  148MOL0     H20403   7.485   6.565   1.450 -1.9146 -0.8576  1.0630
  148MOL0     H20404   8.151   5.659   1.511 -1.5351 -2.9982 -0.1903
  148MOL0     H20405   8.049   5.460   1.594  0.9961 -1.4864  2.4524
  148MOL0     H20406   8.009   5.183   2.031 -0.0181  3.2525 -2.1776
  148MOL0     H20407   7.907   5.017   2.136  0.0526  1.0631 -0.7663
  148MOL0     H20408   7.236   4.489   3.460 -1.3303  0.1381  2.6244
  148MOL0     H20409   7.174   4.496   3.694  0.0089 -1.5547  0.6648
  148MOL0     H20410   7.488   4.233   4.186  0.6281 -0.1951  2.4846
  148MOL0     H20411   7.427   4.263   4.445 -3.1803 -0.8106  1.1721
  148MOL0     H20412   7.322   4.405   4.734 -2.0380  0.2794 -0.1982
  148MOL0     H20413   7.447   4.434   4.622 -0.3220  1.0298  0.5806
  148MOL0     H20414   7.239   4.632   4.685 -1.2898 -0.0290 -1.1779
  148MOL0     H20415   7.330   4.637   4.526 -0.4661 -0.4956 -0.2683
  148MOL0     H20416   7.531   4.651   4.649 -1.2898  1.6973 -2.1813
  148MOL0     H20417   7.428   4.792   4.666 -1.7647  0.8791  0.6297
  148MOL0     H20418   7.437   4.555   4.859  0.2525 -0.8074  0.2334
  148MOL0     H20419   7.364   4.716   4.894 -0.9163 -0.4880 -0.5352
  148MOL0     H20420   7.779   4.766   4.988  0.4933  2.1601  0.6536
  148MOL0     H20421   7.143   4.548   4.350  1.2633  0.9053  0.0640
  148MOL0     H20422   7.099   4.611   4.137 -1.0731 -1.4710 -0.0935
  148MOL0     H20423   7.259   4.665   4.085 -0.8508  1.4150  3.9404
  148MOL0     H20424   7.164   4.541   3.990  0.5738  0.3325  0.2051
  149MOL0     O20425   9.868   6.047  11.306  0.4516 -0.0515  0.5732
  149MOL0     C20426   9.852   6.169  11.306  0.1427 -0.6256  0.4089
  149MOL0     O20427   9.954   6.262  11.321  0.5743 -0.6755 -0.6175
  149MOL0     C20428  10.069   6.226  11.382  0.0809 -0.5253 -0.9662
  149MOL0     C20429  10.174   6.326  11.380  0.5657 -0.4231 -0.5566
  149MOL0     C20430  10.291   6.297  11.452 -0.3771  0.4547 -0.4201
  149MOL0     C20431  10.327   6.177  11.512 -0.6514 -0.0215 -0.2963
  149MOL0     O20432  10.447   6.145  11.573 -1.0032  0.5316  0.4639
  149MOL0     C20433  10.558   6.134  11.476  0.0373  0.7964 -0.6579
  149MOL0     C20434  10.628   6.009  11.531 -0.4166 -1.0286 -0.4939
  149MOL0     C20435  10.560   5.875  11.500 -0.0147 -0.3413  0.4223
  149MOL0     C20436  10.652   5.780  11.426 -0.3959  0.2705 -0.4284
  149MOL0     C20437  10.650   5.817  11.284 -0.4053  1.1703 -0.2788
  149MOL0     C20438  10.764   5.733  11.229 -0.2095  0.1241 -0.5370
  149MOL0     C20439  10.752   5.724  11.076  0.7796  0.2830 -0.7769
  149MOL0     C20440  10.843   5.813  11.000  0.4842  0.2290 -0.0332
  149MOL0     N20441  10.800   5.821  10.854  0.9006  0.3681 -1.2516
  149MOL0     C20442  10.713   5.900  10.789  0.6404  0.4358 -0.1016
  149MOL0     C20443  10.722   5.866  10.660 -0.5505  0.7415  1.0021
  149MOL0     C20444  10.651   5.926  10.545 -0.3948  0.3544 -0.0797
  149MOL0     C20445  10.685   6.067  10.522 -0.0568  0.0301  0.9100
  149MOL0     C20446  10.643   6.128  10.395 -0.1969 -0.4486  0.3963
  149MOL0     C20447  10.506   6.103  10.327  0.1366  0.3757 -0.0989
  149MOL0     O20448  10.387   6.141  10.408 -0.0583  0.3578  0.6456
  149MOL0     C20449  10.334   6.268  10.406 -0.0257 -0.2673 -0.0084
  149MOL0     C20450  10.218   6.287  10.481  0.3943 -0.3694 -1.0979
  149MOL0     C20451  10.136   6.399  10.483 -0.8661  0.1833  0.5863
  149MOL0     C20452  10.005   6.393  10.559  0.0717  0.1412 -0.5481
  149MOL0     C20453  10.183   6.506  10.413  0.3027  0.1087 -0.1304
  149MOL0     C20454  10.095   6.624  10.394 -0.6882 -0.6898 -0.5261
  149MOL0     O20455  10.145   6.746  10.435 -0.6329  0.1182 -0.2623
  149MOL0     C20456  10.078   6.867  10.437 -0.8009  0.5257  0.1648
  149MOL0     C20457   9.945   6.895  10.392 -0.3672  0.9674 -0.1178
  149MOL0     C20458   9.893   7.025  10.392  1.0650 -0.5324 -0.4740
  149MOL0     C20459   9.960   7.132  10.450 -0.2067 -0.0538  0.1139
  149MOL0     O20460   9.917   7.257  10.483  1.2250 -0.1017 -0.1934
  149MOL0     C20461   9.787   7.265  10.556 -0.2706  0.1735 -0.6673
  149MOL0     C20462   9.770   7.384  10.658  0.3121 -0.6664 -0.9849
  149MOL0     C20463   9.882   7.377  10.768 -0.8573 -0.5091  0.2343
  149MOL0     C20464   9.886   7.498  10.868  0.1209 -0.3918 -0.9069
  149MOL0     C20465   9.749   7.526  10.948  0.0474 -0.1420 -0.4054
  149MOL0     C20466   9.739   7.433  11.076 -0.6966  1.0162 -0.2043
  149MOL0     C20467   9.627   7.478  11.171 -0.2900  0.7368  0.0935
  149MOL0     C20468   9.582   7.366  11.268  0.1864  0.0804  0.2540
  149MOL0    Cl20469   9.495   7.245  11.169 -0.0319  0.5814  0.7439
  149MOL0     C20470  10.084   7.108  10.492 -0.4126 -0.4048 -0.1879
  149MOL0     C20471  10.149   6.984  10.476 -0.0457  0.8769  0.7542
  149MOL0     O20472   9.984   6.608  10.351  0.1634  0.3249 -1.3437
  149MOL0     C20473  10.294   6.492  10.336 -0.9333  0.8075 -0.0775
  149MOL0     C20474  10.372   6.374  10.332  0.2041  0.4822  0.9579
  149MOL0     N20475  10.811   5.758  10.648 -0.1678 -0.6772 -0.4534
  149MOL0     N20476  10.856   5.739  10.768  0.3609 -0.0784 -0.5522
  149MOL0     C20477  10.230   6.079  11.512  0.3911  0.4503  0.0201
  149MOL0     C20478  10.101   6.107  11.450  0.3652  0.2713 -0.2104
  149MOL0     C20479   9.713   6.222  11.289  0.6376 -0.0471  0.4498
  149MOL0     C20480   9.702   6.359  11.272  0.0823  0.1594  0.1898
  149MOL0     C20481   9.579   6.421  11.275 -0.0834  0.8826 -0.5718
  149MOL0     C20482   9.459   6.355  11.279 -0.8786  0.7508 -0.2265
  149MOL0     O20483   9.342   6.425  11.274  0.3346 -0.9453  0.8281
  149MOL0     C20484   9.231   6.384  11.360  0.3437  0.0156  0.3709
  149MOL0     C20485   9.090   6.423  11.308 -0.6464  0.5076  0.5483
  149MOL0     C20486   9.044   6.364  11.178 -0.1589  1.1844  0.0833
  149MOL0     C20487   9.054   6.207  11.173  0.3321  0.5545  0.1046
  149MOL0     C20488   9.003   6.148  11.292  0.0355  0.8235  0.0736
  149MOL0     C20489   8.961   6.106  11.404  0.3511 -0.2807  1.1238
  149MOL0     C20490   9.468   6.213  11.279 -0.8482 -0.6965 -1.4191
  149MOL0     C20491   9.594   6.144  11.291  0.0507  0.6817 -0.7575
  149MOL0     C20492   9.581   5.998  11.287  0.1124  0.0341 -0.0571
  149MOL0     H20493  10.167   6.423  11.332 -3.7840 -0.2020  0.0983
  149MOL0     H20494  10.365   6.377  11.452 -0.1646  0.2649  0.1507
  149MOL0     H20495  10.635   6.211  11.485  2.2912 -1.6138  2.7674
  149MOL0     H20496  10.528   6.127  11.371  1.3498  0.2500 -1.0125
  149MOL0     H20497  10.725   6.013  11.481  0.4952 -2.2069  1.1001
  149MOL0     H20498  10.636   6.018  11.639 -2.0912  2.3352 -0.5298
  149MOL0     H20499  10.525   5.839  11.596 -2.0100 -1.3604 -0.6222
  149MOL0     H20500  10.464   5.878  11.447 -0.6264 -2.0823  1.3695
  149MOL0     H20501  10.751   5.771  11.474  0.3462  2.3699 -1.4593
  149MOL0     H20502  10.603   5.682  11.436  3.2686 -1.5471  2.2419
  149MOL0     H20503  10.644   5.925  11.268 -1.1261  0.9600 -1.5298
  149MOL0     H20504  10.553   5.778  11.255  0.2221 -0.3571 -0.4155
  149MOL0     H20505  10.861   5.775  11.256 -1.4416  1.2854  2.5145
  149MOL0     H20506  10.763   5.628  11.257 -1.5069  0.0191 -0.8963
  149MOL0     H20507  10.649   5.740  11.046 -0.2631 -2.2324  1.0703
  149MOL0     H20508  10.780   5.623  11.042  4.2989  0.6891  0.4704
  149MOL0     H20509  10.813   5.908  11.043 -1.1836 -0.2557 -0.0619
  149MOL0     H20510  10.949   5.787  11.005  0.0962 -1.3955  0.5199
  149MOL0     H20511  10.645   5.973  10.831 -5.1980 -2.1872 -3.6250
  149MOL0     H20512  10.549   5.925  10.586  0.7384 -0.7441  3.0904
  149MOL0     H20513  10.648   5.866  10.454 -0.9711  0.4496 -0.1300
  149MOL0     H20514  10.648   6.136  10.599  2.9844  2.1386  0.6520
  149MOL0     H20515  10.794   6.076  10.529  0.1941  2.2670 -3.0878
  149MOL0     H20516  10.654   6.237  10.397  3.3359 -0.6807 -0.0514
  149MOL0     H20517  10.716   6.105  10.317 -1.5269  0.5871 -1.2368
  149MOL0     H20518  10.502   6.148  10.228 -2.5491 -0.3606 -0.4163
  149MOL0     H20519  10.495   5.995  10.311  1.1673  0.8002 -5.2155
  149MOL0     H20520  10.184   6.198  10.534 -0.6288 -0.0237 -1.1514
  149MOL0     H20521   9.972   6.493  10.588  1.0772  0.2998  0.1085
  149MOL0     H20522  10.032   6.333  10.647  2.1766  0.1746 -1.1221
  149MOL0     H20523   9.934   6.340  10.494 -0.3331 -1.9601  1.4708
  149MOL0     H20524   9.881   6.815  10.356  0.6608  0.6374 -1.2564
  149MOL0     H20525   9.794   7.045  10.352 -0.4600 -3.4837  1.4923
  149MOL0     H20526   9.716   7.270  10.472 -1.1933 -1.5432 -0.0384
  149MOL0     H20527   9.768   7.172  10.611  2.0339  1.6049  2.8558
  149MOL0     H20528   9.778   7.483  10.613 -0.8948  0.8054  1.8099
  149MOL0     H20529   9.675   7.372  10.710  1.6885 -4.5813  1.1287
  149MOL0     H20530   9.981   7.385  10.723  0.2765  0.1958  2.6537
  149MOL0     H20531   9.877   7.280  10.818  0.6999 -0.6067  0.2590
  149MOL0     H20532   9.912   7.589  10.812 -1.0148  0.9440  0.6388
  149MOL0     H20533   9.974   7.485  10.931 -1.3525 -1.3783  1.0331
  149MOL0     H20534   9.772   7.628  10.979  0.8662 -0.2403 -0.6545
  149MOL0     H20535   9.657   7.525  10.889  1.8331  0.3220 -3.4381
  149MOL0     H20536   9.838   7.438  11.122 -1.3009  1.0759  1.1074
  149MOL0     H20537   9.717   7.334  11.036  0.3719  0.9493 -0.6673
  149MOL0     H20538   9.543   7.505  11.106 -0.5243  0.2034  0.1750
  149MOL0     H20539   9.648   7.566  11.232 -0.2260  2.2396 -1.9610
  149MOL0     H20540   9.510   7.407  11.339 -0.9379 -1.3342 -0.0121
  149MOL0     H20541   9.668   7.324  11.320 -0.4004  0.5203  1.6265
  149MOL0     H20542  10.147   7.191  10.525  0.5520 -0.5667 -1.5362
  149MOL0     H20543  10.248   6.957  10.511  0.5859 -2.5084 -2.9378
  149MOL0     H20544  10.321   6.561  10.256  0.3027  0.2256 -0.1926
  149MOL0     H20545  10.456   6.363  10.264  0.0729 -2.4100  1.1418
  149MOL0     H20546  10.254   5.987  11.564  1.9395 -0.0253 -1.4617
  149MOL0     H20547  10.025   6.034  11.477 -1.0224  1.6081 -0.4321
  149MOL0     H20548   9.787   6.424  11.256 -0.5698  0.2175 -4.5554
  149MOL0     H20549   9.573   6.529  11.275  0.0508  0.8905 -0.8518
  149MOL0     H20550   9.238   6.279  11.392 -2.2801 -0.8193 -1.4800
  149MOL0     H20551   9.236   6.445  11.450 -2.1699  0.7325  0.1133
  149MOL0     H20552   9.088   6.532  11.302  1.4302  0.5127 -1.3863
  149MOL0     H20553   9.016   6.400  11.385  1.5562 -0.8843  2.3876
  149MOL0     H20554   8.935   6.371  11.177 -0.3903 -1.3805  0.1117
  149MOL0     H20555   9.096   6.404  11.091 -0.0284  0.8886  0.0249
  149MOL0     H20556   9.161   6.183  11.174 -0.0488 -1.6371  3.4914
  149MOL0     H20557   9.008   6.154  11.089  0.3065  0.1363  0.3759
  149MOL0     H20558   8.942   6.073  11.504 -0.1917 -0.9359  0.8086
  149MOL0     H20559   9.377   6.154  11.278  0.8577 -3.6236  0.7039
  149MOL0     H20560   9.623   5.956  11.379 -1.4699 -0.5280  0.4288
  149MOL0     H20561   9.481   5.957  11.275  0.3983  0.0047 -2.8539
  149MOL0     H20562   9.637   5.972  11.197 -1.0888 -4.1406  0.1868
  150MOL0     O20563   8.728   0.860   5.015 -0.1019  0.5585  0.2332
  150MOL0     C20564   8.795   0.791   4.932  1.0696  0.3994  0.0254
  150MOL0     O20565   8.751   0.760   4.802 -0.2085 -0.2401 -0.4319
  150MOL0     C20566   8.628   0.817   4.775 -0.1114 -0.2537  0.0460
  150MOL0     C20567   8.623   0.958   4.751  0.1958  0.8762  0.2754
  150MOL0     C20568   8.502   1.014   4.720  1.8086  0.9577 -0.7428
  150MOL0     C20569   8.378   0.940   4.718 -0.0127  0.6749  0.0500
  150MOL0     O20570   8.256   0.998   4.688 -0.5460  0.6424 -0.6053
  150MOL0     C20571   8.234   1.139   4.717 -0.0741 -0.2561 -0.0589
  150MOL0     C20572   8.074   1.159   4.721  0.1670  0.1532 -0.4034
  150MOL0     C20573   8.000   1.292   4.688 -0.5898  0.3477 -0.8446
  150MOL0     C20574   8.026   1.398   4.796  0.3222  0.3355 -0.6424
  150MOL0     C20575   7.938   1.512   4.757 -0.5564 -0.1690  0.3636
  150MOL0     C20576   7.951   1.631   4.860  0.4967  0.2847  0.7475
  150MOL0     C20577   7.862   1.746   4.797 -0.5302  0.6317  0.0798
  150MOL0     C20578   7.851   1.879   4.880 -0.8756  0.0879 -0.2870
  150MOL0     N20579   7.787   1.983   4.803 -0.2558 -0.3708  0.0796
  150MOL0     C20580   7.653   2.002   4.790 -0.4400 -0.1514  0.1945
  150MOL0     C20581   7.636   2.120   4.719 -0.0521 -0.8475 -0.0923
  150MOL0     C20582   7.498   2.182   4.687  0.2977  0.0123 -0.3318
  150MOL0     C20583   7.438   2.257   4.814  0.0822  0.7811  0.1827
  150MOL0     C20584   7.512   2.389   4.844 -0.4806 -0.2105  0.8281
  150MOL0     C20585   7.638   2.374   4.930 -0.3378 -0.0193 -0.0738
  150MOL0     O20586   7.612   2.317   5.054  0.1099 -0.7425  0.9331
  150MOL0     C20587   7.717   2.282   5.138 -0.1450 -0.2269  1.2155
  150MOL0     C20588   7.700   2.183   5.230  1.0757  0.1063  0.6992
  150MOL0     C20589   7.794   2.134   5.324 -0.2019 -0.9840 -1.1911
  150MOL0     C20590   7.753   2.031   5.428 -0.5200 -0.2664 -0.3433
  150MOL0     C20591   7.924   2.186   5.317  0.9646  0.0169  0.0247
  150MOL0     C20592   8.030   2.153   5.413 -0.6709 -0.3833  0.0969
  150MOL0     O20593   8.064   2.025   5.440  0.7320  0.8189  0.1492
  150MOL0     C20594   8.150   2.004   5.544 -0.6537  0.1779  1.2152
  150MOL0     C20595   8.123   2.052   5.672  0.6091  0.6929  0.5222
  150MOL0     C20596   8.209   2.019   5.777 -0.9422 -0.1501  0.6696
  150MOL0     C20597   8.315   1.934   5.758 -0.5650  0.2091  1.4323
  150MOL0     O20598   8.380   1.917   5.873 -0.1004 -0.2050 -0.9168
  150MOL0     C20599   8.496   1.834   5.875  0.4565  0.3830  0.6860
  150MOL0     C20600   8.561   1.846   6.018 -0.3477 -0.4202  0.1315
  150MOL0     C20601   8.522   1.745   6.116  0.1919  0.3616 -0.7418
  150MOL0     C20602   8.554   1.775   6.266 -0.5808  0.7792  0.7879
  150MOL0     C20603   8.478   1.905   6.311  0.9798 -0.8256 -0.0619
  150MOL0     C20604   8.521   1.950   6.445 -0.7648  0.9219 -0.9286
  150MOL0     C20605   8.424   2.053   6.511 -0.4655 -1.0465 -0.0201
  150MOL0     C20606   8.400   2.166   6.420  0.9058  0.4789  0.3722
  150MOL0    Cl20607   8.552   2.257   6.408  0.7664  0.5430 -0.0775
  150MOL0     C20608   8.352   1.889   5.622 -0.0255  0.1591 -0.1855
  150MOL0     C20609   8.265   1.923   5.524 -0.0527  0.4767 -0.2057
  150MOL0     O20610   8.097   2.255   5.444 -1.0171  0.0537  0.3612
  150MOL0     C20611   7.956   2.274   5.207  0.0333 -1.1568 -0.0981
  150MOL0     C20612   7.853   2.324   5.116  0.0007  0.5764 -0.3902
  150MOL0     N20613   7.760   2.165   4.683  0.0398  0.4611 -0.1557
  150MOL0     N20614   7.848   2.082   4.731  0.1818 -0.7396  0.6740
  150MOL0     C20615   8.390   0.802   4.744  0.3122  0.8976 -0.6141
  150MOL0     C20616   8.514   0.740   4.758  0.1728 -0.2935  0.1443
  150MOL0     C20617   8.934   0.755   4.966  0.1934  0.2949 -0.6057
  150MOL0     C20618   9.016   0.839   5.037  0.2405  0.5223 -0.2004
  150MOL0     C20619   9.151   0.807   5.062 -0.5106 -0.4829  1.4176
  150MOL0     C20620   9.203   0.688   5.033 -0.6230 -0.3453 -0.1741
  150MOL0     O20621   9.339   0.679   5.054 -0.2181 -0.3655 -0.8253
  150MOL0     C20622   9.412   0.554   5.011  0.6691  0.4274  0.0104
  150MOL0     C20623   9.559   0.562   5.030 -0.4244  0.7558  1.1135
  150MOL0     C20624   9.634   0.447   4.952 -0.3982 -0.4413  0.2138
  150MOL0     C20625   9.786   0.441   4.974 -0.4148  0.5773  0.7739
  150MOL0     C20626   9.853   0.507   4.861 -0.3019 -0.7145  0.9742
  150MOL0     C20627   9.895   0.575   4.771 -0.3131 -0.7167  0.2099
  150MOL0     C20628   9.118   0.597   4.971  0.4008 -0.9438 -0.0583
  150MOL0     C20629   8.987   0.630   4.934  0.1173 -0.0308 -0.0625
  150MOL0     C20630   8.903   0.516   4.876 -0.4364  1.0820 -0.0034
  150MOL0     H20631   8.713   1.018   4.761 -1.4042  3.1952  2.0010
  150MOL0     H20632   8.488   1.122   4.712 -1.3559  0.6413 -0.6763
  150MOL0     H20633   8.278   1.198   4.637  0.4747 -1.4315 -0.6499
  150MOL0     H20634   8.282   1.159   4.813  0.8219 -0.5791 -0.4280
  150MOL0     H20635   8.023   1.092   4.651 -0.8426  1.3053 -0.7952
  150MOL0     H20636   8.054   1.134   4.825  1.1002 -1.3094 -0.5424
  150MOL0     H20637   8.036   1.344   4.599 -1.2488  4.5624  1.0836
  150MOL0     H20638   7.894   1.268   4.670 -1.0773  1.8937 -0.2127
  150MOL0     H20639   8.007   1.342   4.888  0.5387 -0.9563 -1.3454
  150MOL0     H20640   8.129   1.434   4.787  1.1307 -1.6934 -0.0790
  150MOL0     H20641   7.834   1.476   4.756 -0.2964 -0.9379  0.3891
  150MOL0     H20642   7.957   1.546   4.655 -0.8675 -1.1749 -0.0441
  150MOL0     H20643   7.908   1.601   4.956  2.9781 -2.0323  1.2471
  150MOL0     H20644   8.059   1.647   4.867  0.7488  0.1398 -1.8292
  150MOL0     H20645   7.758   1.713   4.788 -0.9331  1.2182  2.0658
  150MOL0     H20646   7.896   1.780   4.699 -0.0198  3.0910  1.0301
  150MOL0     H20647   7.786   1.863   4.967 -0.1088  1.2716  0.5344
  150MOL0     H20648   7.944   1.921   4.918 -2.9940  3.5884  1.6670
  150MOL0     H20649   7.576   1.944   4.839  1.4371  0.6092  4.5750
  150MOL0     H20650   7.421   2.108   4.660  0.1169 -1.2500  3.0845
  150MOL0     H20651   7.506   2.253   4.605 -0.5666 -0.7545 -1.1028
  150MOL0     H20652   7.331   2.274   4.798 -0.6185 -1.3528  2.1143
  150MOL0     H20653   7.451   2.192   4.901  4.2788 -0.4264 -1.1191
  150MOL0     H20654   7.527   2.444   4.751 -2.7167  1.0227  1.1364
  150MOL0     H20655   7.437   2.447   4.899 -1.9449  1.1485 -2.3404
  150MOL0     H20656   7.715   2.317   4.877  0.7422 -0.4650  1.8678
  150MOL0     H20657   7.677   2.475   4.950  1.9074 -0.7114 -0.6885
  150MOL0     H20658   7.600   2.142   5.239  0.8831  0.4728  0.1847
  150MOL0     H20659   7.790   2.058   5.527 -3.9344 -1.0127  1.2654
  150MOL0     H20660   7.807   1.937   5.412 -1.1828 -0.8606  0.7999
  150MOL0     H20661   7.647   2.006   5.441 -1.2900  2.7043 -0.0583
  150MOL0     H20662   8.030   2.108   5.679  2.7439  4.6226  0.1463
  150MOL0     H20663   8.170   2.042   5.875 -0.8695 -2.1282  1.2123
  150MOL0     H20664   8.464   1.732   5.853 -0.0221  0.6731  0.0180
  150MOL0     H20665   8.572   1.869   5.804  1.3151  1.6453  2.1461
  150MOL0     H20666   8.668   1.821   6.014  0.4803  2.2610  2.3429
  150MOL0     H20667   8.573   1.952   6.044  1.8859 -0.6879  0.4265
  150MOL0     H20668   8.556   1.644   6.091 -0.4921 -0.4361  1.3262
  150MOL0     H20669   8.414   1.733   6.111 -0.3716  2.9139  2.2288
  150MOL0     H20670   8.659   1.804   6.268  0.1999 -1.7840  1.6075
  150MOL0     H20671   8.545   1.693   6.339  1.7454  1.2101  1.6327
  150MOL0     H20672   8.501   1.983   6.237 -0.1487 -0.1676  0.2688
  150MOL0     H20673   8.373   1.878   6.316  0.1763  2.0286  4.1226
  150MOL0     H20674   8.620   1.996   6.440 -1.3076  2.3525  0.5413
  150MOL0     H20675   8.536   1.868   6.515  1.0855  4.5483  3.4273
  150MOL0     H20676   8.476   2.092   6.599 -0.6599 -1.7065  0.3894
  150MOL0     H20677   8.340   1.992   6.546  0.1285 -2.2280 -0.5786
  150MOL0     H20678   8.319   2.232   6.454 -1.1659 -1.1468 -1.0924
  150MOL0     H20679   8.356   2.123   6.329 -3.9256  1.1958  2.0771
  150MOL0     H20680   8.443   1.834   5.602 -0.1979 -0.7977  1.4418
  150MOL0     H20681   8.286   1.887   5.424  2.4620  2.3931 -0.4592
  150MOL0     H20682   8.059   2.308   5.204  0.0796 -0.8997  2.1666
  150MOL0     H20683   7.888   2.384   5.033  1.5231  0.9930  0.5173
  150MOL0     H20684   8.305   0.735   4.751  0.5364  0.4668 -1.8224
  150MOL0     H20685   8.524   0.632   4.762  0.0220 -0.3365 -0.5137
  150MOL0     H20686   8.967   0.928   5.075 -1.2470  1.5462 -3.9958
  150MOL0     H20687   9.213   0.872   5.124  2.0780 -0.9039 -0.5581
  150MOL0     H20688   9.373   0.479   5.080 -0.8902  0.8459 -0.3600
  150MOL0     H20689   9.389   0.534   4.906  1.5319 -1.0809  0.0875
  150MOL0     H20690   9.590   0.556   5.135  0.8000 -2.4978  0.6954
  150MOL0     H20691   9.589   0.656   4.983 -2.1562 -0.3187 -2.5193
  150MOL0     H20692   9.586   0.352   4.977 -1.0993 -0.3859 -0.8794
  150MOL0     H20693   9.625   0.463   4.844  5.2356  0.9743 -0.3765
  150MOL0     H20694   9.818   0.337   4.986 -0.9917  0.3257  0.1759
  150MOL0     H20695   9.829   0.496   5.058  0.1493  1.1871  0.0973
  150MOL0     H20696   9.940   0.648   4.707 -0.9693  0.9536  1.5713
  150MOL0     H20697   9.151   0.497   4.946  0.8953 -1.3683  2.0855
  150MOL0     H20698   8.925   0.512   4.769  0.9822  2.0721  0.2297
  150MOL0     H20699   8.947   0.424   4.916  0.9429  2.0090  0.6802
  150MOL0     H20700   8.794   0.524   4.890 -0.6482 -1.1018 -0.0634
  151MOL0     O20701   7.254   6.989   5.797  1.0441 -0.0720  0.7281
  151MOL0     C20702   7.356   6.940   5.749  0.5332 -0.2955  0.0007
  151MOL0     O20703   7.416   6.971   5.627  0.2459  0.3845  0.2650
  151MOL0     C20704   7.374   7.086   5.568  1.1965  0.2621 -0.0881
  151MOL0     C20705   7.465   7.193   5.570  0.2610 -0.1733  0.2315
  151MOL0     C20706   7.429   7.323   5.506 -0.0180  0.1528  0.9751
  151MOL0     C20707   7.300   7.323   5.439 -0.0729 -0.5001  0.7326
  151MOL0     O20708   7.238   7.446   5.396 -0.8412 -0.1008 -0.0520
  151MOL0     C20709   7.261   7.554   5.496 -0.5189 -0.9968 -0.2782
  151MOL0     C20710   7.229   7.699   5.435  0.2943  0.1921 -0.9198
  151MOL0     C20711   7.195   7.799   5.540 -0.4695 -0.0234 -1.0193
  151MOL0     C20712   7.324   7.884   5.575  0.4528 -0.7021 -0.3938
  151MOL0     C20713   7.282   8.024   5.623 -0.4898  0.7833 -0.3893
  151MOL0     C20714   7.400   8.115   5.650  0.0910  0.3805 -0.5206
  151MOL0     C20715   7.482   8.082   5.772  0.4938  1.6943  0.2773
  151MOL0     C20716   7.606   8.165   5.766  0.4362 -0.3910 -0.4644
  151MOL0     N20717   7.592   8.308   5.776 -0.6223  0.2112 -0.4289
  151MOL0     C20718   7.550   8.393   5.677 -0.6883 -0.3212 -0.4785
  151MOL0     C20719   7.580   8.516   5.733 -0.2019 -1.3350  0.0216
  151MOL0     C20720   7.544   8.651   5.667 -1.6632 -0.1551  0.2019
  151MOL0     C20721   7.633   8.679   5.549 -0.7549  0.5893  0.0075
  151MOL0     C20722   7.780   8.693   5.578 -0.6785  0.1284 -0.1309
  151MOL0     C20723   7.829   8.841   5.599 -1.0124 -0.0563 -0.5203
  151MOL0     O20724   7.971   8.848   5.637 -0.6960  0.0620  0.2534
  151MOL0     C20725   8.017   8.928   5.732 -0.0386  0.2376 -0.9095
  151MOL0     C20726   8.072   8.876   5.854 -0.3678  0.0779  0.6531
  151MOL0     C20727   8.119   8.957   5.963  0.5320 -0.0530  0.5799
  151MOL0     C20728   8.187   8.887   6.071 -0.9768 -0.0591  0.1773
  151MOL0     C20729   8.108   9.096   5.949  0.2036 -0.5522  0.0427
  151MOL0     C20730   8.152   9.195   6.044  0.2757 -0.8340  0.3106
  151MOL0     O20731   8.252   9.164   6.131 -0.8353 -0.1684 -0.5005
  151MOL0     C20732   8.288   9.264   6.229 -0.9608  0.7493 -1.0345
  151MOL0     C20733   8.198   9.363   6.274 -0.7880  0.6552 -2.2116
  151MOL0     C20734   8.241   9.463   6.367 -0.1834 -0.1749  0.6628
  151MOL0     C20735   8.373   9.463   6.407 -0.3749 -0.1441  0.4405
  151MOL0     O20736   8.417   9.564   6.485 -0.3558 -0.5555  0.3206
  151MOL0     C20737   8.345   9.605   6.606  0.7346 -0.0955  0.1431
  151MOL0     C20738   8.380   9.748   6.642 -0.1909  0.0202 -0.4032
  151MOL0     C20739   8.336   9.840   6.529  0.1948 -0.8052 -1.1374
  151MOL0     C20740   8.189   9.889   6.550  0.0252  0.5657  0.3995
  151MOL0     C20741   8.165  10.021   6.469 -0.2906 -0.1964 -0.7288
  151MOL0     C20742   8.039  10.087   6.522 -0.1072  0.8735  0.1750
  151MOL0     C20743   7.902  10.017   6.476  0.0331  0.1746  0.7064
  151MOL0     C20744   7.776  10.086   6.524  0.1980  0.3917  0.5672
  151MOL0    Cl20745   7.770  10.109   6.712  0.0961 -0.1983 -0.2885
  151MOL0     C20746   8.468   9.371   6.355  0.0727  0.0501  0.1562
  151MOL0     C20747   8.426   9.273   6.275 -0.0608  1.0224  0.5935
  151MOL0     O20748   8.115   9.310   6.016 -0.2741  0.5029 -0.4229
  151MOL0     C20749   8.044   9.148   5.830 -1.0052 -0.4081  0.1854
  151MOL0     C20750   7.997   9.066   5.727 -0.5041  0.4511  0.1731
  151MOL0     N20751   7.634   8.503   5.857 -0.1361  0.5599 -0.5598
  151MOL0     N20752   7.635   8.378   5.886  0.4201 -1.2343 -0.1251
  151MOL0     C20753   7.225   7.201   5.413 -0.0679 -1.3881 -0.1737
  151MOL0     C20754   7.270   7.082   5.472  0.9726  0.1790 -0.2507
  151MOL0     C20755   7.427   6.838   5.832  0.1417 -0.1068 -0.1157
  151MOL0     C20756   7.563   6.816   5.829 -0.3241  0.0109  0.3951
  151MOL0     C20757   7.633   6.733   5.905 -0.1703 -0.1424  0.2419
  151MOL0     C20758   7.579   6.649   5.999 -0.6109 -0.8091  0.4378
  151MOL0     O20759   7.668   6.586   6.086 -0.3483 -0.3154 -0.5530
  151MOL0     C20760   7.612   6.507   6.184  0.1158 -0.3290 -0.4326
  151MOL0     C20761   7.731   6.429   6.237  0.7406  0.0937 -0.2193
  151MOL0     C20762   7.851   6.512   6.288 -0.0537  0.7329 -0.7531
  151MOL0     C20763   7.820   6.582   6.421  0.4349 -0.3345 -0.4017
  151MOL0     C20764   7.944   6.661   6.472 -0.0339 -0.2727 -0.8197
  151MOL0     C20765   8.058   6.716   6.487  0.5033  0.3589 -0.6037
  151MOL0     C20766   7.440   6.663   6.013  0.1020  0.1887  0.5665
  151MOL0     C20767   7.365   6.752   5.929  0.5095 -0.5530  0.1474
  151MOL0     C20768   7.219   6.751   5.954 -0.9912 -0.0888  0.3247
  151MOL0     H20769   7.555   7.197   5.631 -1.7362  3.4688  3.3947
  151MOL0     H20770   7.503   7.402   5.517  2.2364 -1.8687  1.2204
  151MOL0     H20771   7.366   7.570   5.520 -0.9301 -0.5514  1.3633
  151MOL0     H20772   7.211   7.541   5.593 -0.4432  1.0414  0.0990
  151MOL0     H20773   7.308   7.744   5.374  3.6779  1.0180  3.5814
  151MOL0     H20774   7.143   7.683   5.369 -1.3541 -4.8450  1.9098
  151MOL0     H20775   7.122   7.866   5.494  0.6634  0.7530 -1.7194
  151MOL0     H20776   7.134   7.763   5.624 -0.9339  2.5051 -0.2073
  151MOL0     H20777   7.389   7.832   5.646  0.4911  0.4662  0.4553
  151MOL0     H20778   7.385   7.889   5.485 -0.0727 -3.9667 -1.0661
  151MOL0     H20779   7.218   8.005   5.710 -1.8113 -1.1022 -1.7001
  151MOL0     H20780   7.221   8.069   5.545 -1.6167 -0.7480 -0.4419
  151MOL0     H20781   7.459   8.118   5.557  1.6072  1.9384  0.4206
  151MOL0     H20782   7.355   8.214   5.660 -0.0866  0.6084 -2.8829
  151MOL0     H20783   7.505   7.976   5.777 -2.6859  0.9071  0.5205
  151MOL0     H20784   7.419   8.086   5.862 -0.7308 -3.9482  0.0506
  151MOL0     H20785   7.659   8.132   5.856  1.2222  0.4594 -0.5970
  151MOL0     H20786   7.676   8.143   5.685  1.8162 -4.4158  1.5488
  151MOL0     H20787   7.521   8.366   5.576 -1.1197  0.5304 -0.5927
  151MOL0     H20788   7.546   8.738   5.733 -0.1693  0.7726 -1.0117
  151MOL0     H20789   7.441   8.639   5.630 -1.5717 -1.6358  0.3654
  151MOL0     H20790   7.602   8.592   5.490  1.2074 -0.1422 -0.0215
  151MOL0     H20791   7.604   8.763   5.486 -1.5388 -0.9551 -1.7837
  151MOL0     H20792   7.798   8.626   5.662 -0.5953 -1.6272 -1.5080
  151MOL0     H20793   7.843   8.649   5.501  1.7276 -1.2156  2.4419
  151MOL0     H20794   7.802   8.907   5.516  0.3625  0.8143 -0.3167
  151MOL0     H20795   7.780   8.880   5.689  2.3410 -0.8570  1.8816
  151MOL0     H20796   8.070   8.768   5.862  0.2567 -0.2409 -2.4713
  151MOL0     H20797   8.178   8.779   6.058  1.5935 -0.3960  0.6499
  151MOL0     H20798   8.151   8.931   6.164 -0.6192  4.1618 -1.4602
  151MOL0     H20799   8.292   8.907   6.047 -1.6434 -0.7964 -4.3704
  151MOL0     H20800   8.092   9.363   6.252 -1.0302  0.7397 -1.1158
  151MOL0     H20801   8.168   9.531   6.412  0.3587  1.9038 -1.3917
  151MOL0     H20802   8.236   9.599   6.600  0.7481  0.7734 -3.7293
  151MOL0     H20803   8.363   9.540   6.691 -2.9672  1.8447  2.6689
  151MOL0     H20804   8.343   9.779   6.740  1.7102 -1.5529  0.8910
  151MOL0     H20805   8.489   9.751   6.648 -0.0325 -1.7639 -1.6418
  151MOL0     H20806   8.339   9.787   6.434  0.0043 -1.6749 -0.6658
  151MOL0     H20807   8.404   9.926   6.526  0.0293 -0.6692 -1.0649
  151MOL0     H20808   8.179   9.909   6.657  2.2932  1.4878  0.4842
  151MOL0     H20809   8.117   9.816   6.512 -2.5008  2.3211  1.4900
  151MOL0     H20810   8.255  10.080   6.492 -1.0634  0.7719 -0.1365
  151MOL0     H20811   8.160   9.996   6.363  3.3234 -2.2525 -0.5948
  151MOL0     H20812   8.035  10.191   6.487  2.1254  1.0814  0.3758
  151MOL0     H20813   8.052  10.094   6.631  0.2202  1.8033  0.0893
  151MOL0     H20814   7.887   9.909   6.491 -0.1435  0.1054  0.0541
  151MOL0     H20815   7.902  10.010   6.367 -2.0367 -1.6070  0.7463
  151MOL0     H20816   7.690  10.022   6.500 -0.3077  1.1842  0.2523
  151MOL0     H20817   7.765  10.185   6.480 -3.4671  0.1821  0.6751
  151MOL0     H20818   8.571   9.374   6.390 -0.7573  1.3554  2.7793
  151MOL0     H20819   8.487   9.195   6.231 -0.5966  2.2601 -2.6343
  151MOL0     H20820   8.029   9.255   5.822 -2.0796 -0.4177  1.6788
  151MOL0     H20821   7.962   9.113   5.636  0.7532 -0.4492 -0.8215
  151MOL0     H20822   7.134   7.191   5.354 -0.1251 -2.8143  0.1056
  151MOL0     H20823   7.206   6.995   5.467  2.6451 -1.0683 -0.9086
  151MOL0     H20824   7.622   6.887   5.771 -3.3860 -1.0085 -4.4999
  151MOL0     H20825   7.741   6.740   5.913 -0.0985 -1.1199  0.2515
  151MOL0     H20826   7.576   6.574   6.262  0.1781  1.0099 -1.5308
  151MOL0     H20827   7.535   6.450   6.129  2.0676 -0.0482 -3.7502
  151MOL0     H20828   7.758   6.355   6.161 -1.5295 -0.6284 -0.3830
  151MOL0     H20829   7.691   6.374   6.324  3.3265 -2.3756 -0.4145
  151MOL0     H20830   7.939   6.454   6.316 -1.1688 -0.1726  1.1084
  151MOL0     H20831   7.884   6.573   6.204  1.2254  1.4428  0.2196
  151MOL0     H20832   7.788   6.517   6.502 -0.5917 -0.5836 -0.9960
  151MOL0     H20833   7.753   6.663   6.388  0.4784 -0.3877 -0.6255
  151MOL0     H20834   8.150   6.769   6.471  2.1515 -2.3006 -0.7105
  151MOL0     H20835   7.383   6.618   6.094 -1.1799  1.6253  0.5107
  151MOL0     H20836   7.184   6.843   6.001  0.3075  0.4884  0.2014
  151MOL0     H20837   7.160   6.723   5.866 -0.8473 -0.4854  0.3505
  151MOL0     H20838   7.200   6.668   6.022  2.3498 -1.2580  0.0237
  152MOL0     O20839   8.872   8.193   1.108  0.1742  0.5361 -0.0259
  152MOL0     C20840   8.924   8.257   1.010 -0.9394  1.1411 -0.1997
  152MOL0     O20841   8.898   8.382   0.972  0.7313 -0.8414  0.7281
  152MOL0     C20842   8.823   8.458   1.059 -0.4742 -0.2390  0.4655
  152MOL0     C20843   8.692   8.491   1.029 -0.2723 -0.1339  0.5332
  152MOL0     C20844   8.612   8.550   1.127  0.4786  0.1796 -0.7982
  152MOL0     C20845   8.655   8.593   1.255  0.4072 -0.6878  0.2322
  152MOL0     O20846   8.575   8.668   1.343  0.1401  0.8757 -0.0739
  152MOL0     C20847   8.589   8.669   1.484 -0.2989  0.6195  0.2075
  152MOL0     C20848   8.539   8.530   1.540  0.0416  0.3971  0.3703
  152MOL0     C20849   8.389   8.521   1.502 -0.1890 -0.2356  0.5444
  152MOL0     C20850   8.317   8.420   1.601  0.0031 -0.6725  0.2382
  152MOL0     C20851   8.357   8.282   1.563  0.1478  0.4374  0.5585
  152MOL0     C20852   8.301   8.192   1.668  0.0969 -0.0771 -0.4895
  152MOL0     C20853   8.316   8.041   1.608  0.3075  0.0622  0.2712
  152MOL0     C20854   8.287   7.942   1.725  0.5072 -0.4588  0.0585
  152MOL0     N20855   8.340   7.802   1.709 -0.2213  0.5911  0.1928
  152MOL0     C20856   8.461   7.775   1.661  0.5568  0.2756  0.3846
  152MOL0     C20857   8.467   7.638   1.648  0.1942  0.2313  0.4996
  152MOL0     C20858   8.578   7.556   1.588  0.5114 -0.2257 -0.4954
  152MOL0     C20859   8.712   7.562   1.665  0.9669 -0.1507 -0.9727
  152MOL0     C20860   8.701   7.464   1.779 -0.3730 -0.0399  0.5543
  152MOL0     C20861   8.846   7.458   1.842  0.1564  0.5361  0.6447
  152MOL0     O20862   8.835   7.369   1.952  0.0046  0.3309  0.6688
  152MOL0     C20863   8.935   7.389   2.037 -0.0647 -0.4485  0.6190
  152MOL0     C20864   8.922   7.468   2.149 -0.5536 -0.6353  0.6647
  152MOL0     C20865   9.028   7.488   2.241  0.6278  0.5812 -0.3802
  152MOL0     C20866   9.008   7.583   2.358  0.3231 -0.9254  0.4281
  152MOL0     C20867   9.140   7.400   2.228 -0.3006  0.6247 -0.3728
  152MOL0     C20868   9.256   7.389   2.325  0.5472  0.3584  0.0731
  152MOL0     O20869   9.377   7.329   2.276  0.5896  0.3234  0.5485
  152MOL0     C20870   9.498   7.323   2.342  1.0521  0.0475 -0.4603
  152MOL0     C20871   9.513   7.320   2.477 -0.2049  0.2324 -0.9829
  152MOL0     C20872   9.645   7.308   2.528  0.3364 -1.0450 -0.7175
  152MOL0     C20873   9.757   7.300   2.452  0.1273 -0.0092  0.1138
  152MOL0     O20874   9.883   7.276   2.500  0.0815 -0.2249 -0.3282
  152MOL0     C20875   9.937   7.393   2.570 -0.2906 -0.1466  0.3614
  152MOL0     C20876  10.041   7.447   2.473 -0.0238 -0.2798  0.8007
  152MOL0     C20877  10.143   7.347   2.410  0.2175  0.9418 -0.2886
  152MOL0     C20878  10.213   7.257   2.508  0.4500 -0.1599  0.1488
  152MOL0     C20879  10.320   7.163   2.444 -0.6731 -0.0828 -0.4474
  152MOL0     C20880  10.454   7.240   2.417  1.3734 -0.1891  0.8439
  152MOL0     C20881  10.573   7.154   2.386  0.0075 -0.5367 -0.4124
  152MOL0     C20882  10.560   7.058   2.270  0.3394 -0.0356 -0.6161
  152MOL0    Cl20883  10.575   7.150   2.126  0.2854  0.3345 -0.2909
  152MOL0     C20884   9.742   7.312   2.313 -1.0333  0.6048  0.2237
  152MOL0     C20885   9.611   7.321   2.263  1.0459  0.3284  0.1493
  152MOL0     O20886   9.245   7.438   2.436  0.2151 -0.0595  0.4135
  152MOL0     C20887   9.144   7.318   2.113  0.1851  0.2820 -0.5281
  152MOL0     C20888   9.045   7.307   2.019  0.8351 -0.6374 -0.1520
  152MOL0     N20889   8.349   7.585   1.687  0.2966 -0.4574  0.0467
  152MOL0     N20890   8.272   7.679   1.722 -0.2209 -0.2682 -0.6944
  152MOL0     C20891   8.787   8.556   1.284 -0.3246 -0.1395 -1.2652
  152MOL0     C20892   8.869   8.481   1.192 -0.8348  0.0950 -0.7140
  152MOL0     C20893   9.030   8.190   0.928 -0.3941  0.2937  0.0368
  152MOL0     C20894   9.115   8.269   0.852 -0.0693 -0.7630  0.4387
  152MOL0     C20895   9.219   8.218   0.765  0.7820 -0.5756 -0.6863
  152MOL0     C20896   9.223   8.081   0.750 -0.4976  0.7008 -0.1664
  152MOL0     O20897   9.310   8.014   0.674 -0.1022  0.1043 -0.2333
  152MOL0     C20898   9.369   8.084   0.564  0.0127 -0.1703 -0.6045
  152MOL0     C20899   9.470   7.991   0.500 -0.0643 -0.5607 -0.1441
  152MOL0     C20900   9.539   8.060   0.381  0.1510 -0.2137 -0.0313
  152MOL0     C20901   9.625   7.965   0.304 -0.0227 -0.5746 -1.3012
  152MOL0     C20902   9.676   8.036   0.189  0.1687  0.4965  0.5128
  152MOL0     C20903   9.737   8.086   0.104 -0.8353 -0.9216  0.4815
  152MOL0     C20904   9.132   7.998   0.821  0.0144 -0.4982 -0.4793
  152MOL0     C20905   9.039   8.045   0.915  0.2006  0.2372  0.0120
  152MOL0     C20906   8.961   7.949   0.999  0.0323  0.0213 -0.0473
  152MOL0     H20907   8.654   8.463   0.931  1.8846 -1.9624  0.1418
  152MOL0     H20908   8.510   8.581   1.106  1.1681  1.9082 -1.7947
  152MOL0     H20909   8.523   8.746   1.524 -1.8664  0.6430 -2.2371
  152MOL0     H20910   8.692   8.688   1.517  0.1810 -2.6182  0.8752
  152MOL0     H20911   8.593   8.448   1.491 -1.8459 -0.5718 -0.1965
  152MOL0     H20912   8.552   8.515   1.647 -2.3951 -0.7081  0.5875
  152MOL0     H20913   8.350   8.623   1.497 -0.5372 -0.3176  1.3484
  152MOL0     H20914   8.375   8.484   1.400  1.0841 -0.0104  0.2740
  152MOL0     H20915   8.339   8.436   1.706  1.4082 -0.4065 -0.0824
  152MOL0     H20916   8.208   8.427   1.593  0.0756  0.3992 -0.0373
  152MOL0     H20917   8.465   8.270   1.550  0.0381 -0.1731  0.1532
  152MOL0     H20918   8.304   8.260   1.470  1.0056  1.2075 -0.1369
  152MOL0     H20919   8.348   8.206   1.766 -2.1328  0.5096  0.5552
  152MOL0     H20920   8.197   8.208   1.699  0.5032  0.9489  0.4035
  152MOL0     H20921   8.423   8.028   1.590 -0.3300 -2.2825 -2.8128
  152MOL0     H20922   8.246   8.019   1.527  0.7264 -0.1898 -0.0214
  152MOL0     H20923   8.349   7.979   1.807  0.0286 -2.5692  1.4533
  152MOL0     H20924   8.180   7.942   1.750 -0.0799  1.6189 -2.1157
  152MOL0     H20925   8.546   7.840   1.640  0.8949  0.4998  2.2728
  152MOL0     H20926   8.602   7.601   1.491 -1.3411  0.0524 -0.8664
  152MOL0     H20927   8.555   7.452   1.562  1.1153 -0.2716 -0.8792
  152MOL0     H20928   8.805   7.543   1.609  3.2157  1.6589  1.9102
  152MOL0     H20929   8.728   7.657   1.715 -4.2127  0.0966  0.8088
  152MOL0     H20930   8.616   7.490   1.843  0.2663 -0.6990  1.7119
  152MOL0     H20931   8.678   7.363   1.743  0.8461 -1.4760  3.4217
  152MOL0     H20932   8.906   7.411   1.763 -1.6042 -1.1466  0.2225
  152MOL0     H20933   8.871   7.558   1.877 -1.1796  1.6269 -1.2924
  152MOL0     H20934   8.830   7.526   2.159 -1.7183 -1.5951 -2.9672
  152MOL0     H20935   9.095   7.643   2.386  1.2881  0.3544 -4.3564
  152MOL0     H20936   8.969   7.528   2.443 -0.9875 -1.3097 -0.3891
  152MOL0     H20937   8.926   7.653   2.339 -0.2275 -1.4514  0.8310
  152MOL0     H20938   9.437   7.331   2.554  0.7455  0.1213  0.0089
  152MOL0     H20939   9.663   7.318   2.635  1.0793 -2.0115 -0.7459
  152MOL0     H20940   9.868   7.476   2.589  2.8171  2.0223  3.5413
  152MOL0     H20941   9.988   7.372   2.665 -0.8542 -3.4418  0.0628
  152MOL0     H20942   9.988   7.498   2.392 -1.1022 -1.5944  0.6460
  152MOL0     H20943  10.112   7.515   2.521 -3.0515  1.9955  2.4919
  152MOL0     H20944  10.218   7.399   2.349  2.3209 -0.8578  0.6028
  152MOL0     H20945  10.088   7.276   2.347 -2.8282  2.7722  0.1186
  152MOL0     H20946  10.130   7.196   2.543  0.0576 -0.0747 -0.5995
  152MOL0     H20947  10.247   7.314   2.595 -2.5955  4.1969 -1.1642
  152MOL0     H20948  10.349   7.080   2.508 -1.3280 -0.5329 -0.7246
  152MOL0     H20949  10.279   7.112   2.356 -3.0350  2.4579 -0.9613
  152MOL0     H20950  10.468   7.300   2.507 -0.5616 -0.0188  1.0730
  152MOL0     H20951  10.437   7.319   2.343 -0.0458 -0.4621  0.8443
  152MOL0     H20952  10.597   7.101   2.478  1.0290  0.6237  0.0315
  152MOL0     H20953  10.657   7.221   2.365  1.5314 -1.8747  1.1414
  152MOL0     H20954  10.468   6.999   2.279  0.5017 -0.6839 -2.6622
  152MOL0     H20955  10.638   6.983   2.286  0.2027 -0.0389  0.0901
  152MOL0     H20956   9.834   7.304   2.257  0.6078  0.8115  2.7784
  152MOL0     H20957   9.588   7.327   2.157  0.2998  2.3566  0.3827
  152MOL0     H20958   9.226   7.258   2.074 -1.2735  0.5855 -4.5741
  152MOL0     H20959   9.045   7.242   1.932 -0.6938 -2.7781  1.3514
  152MOL0     H20960   8.826   8.580   1.382 -0.1133  0.8706 -1.5956
  152MOL0     H20961   8.971   8.446   1.210 -1.6228 -1.6748  0.5864
  152MOL0     H20962   9.127   8.369   0.894  2.8758 -0.9043  0.1801
  152MOL0     H20963   9.294   8.278   0.715  3.3477 -2.8676  0.1822
  152MOL0     H20964   9.294   8.114   0.490 -0.8934 -0.7180  0.0699
  152MOL0     H20965   9.418   8.178   0.591 -1.0377 -0.0500  1.0380
  152MOL0     H20966   9.415   7.904   0.462 -1.5977 -0.8603  2.5300
  152MOL0     H20967   9.536   7.946   0.574 -1.4354 -0.2989  1.2902
  152MOL0     H20968   9.459   8.098   0.317 -0.0840 -3.0365 -1.5717
  152MOL0     H20969   9.601   8.144   0.414 -2.1634  1.8479 -0.6701
  152MOL0     H20970   9.565   7.883   0.262  0.1925 -1.3265 -0.1668
  152MOL0     H20971   9.705   7.936   0.372 -0.4030  0.0372 -0.5887
  152MOL0     H20972   9.788   8.146   0.031 -0.7348 -0.9337  0.5415
  152MOL0     H20973   9.138   7.890   0.809  2.1467 -0.4240 -0.4804
  152MOL0     H20974   8.955   7.850   0.952 -0.4656 -1.0884  2.2234
  152MOL0     H20975   9.001   7.932   1.099 -0.9498  0.1849  0.3770
  152MOL0     H20976   8.861   7.993   1.000  0.6081  1.6721 -3.1347
  153MOL0     O20977  10.931  10.635   2.118  0.1331  0.1789  0.0863
  153MOL0     C20978  11.020  10.617   2.036 -0.2342  0.2343 -0.0064
  153MOL0     O20979  11.083  10.494   2.014 -0.1226  0.5044  0.6183
  153MOL0     C20980  11.055  10.379   2.083  0.1276  0.1029  0.1384
  153MOL0     C20981  11.068  10.258   2.005  0.1663 -0.2520  0.1519
  153MOL0     C20982  11.048  10.134   2.066  0.3777 -0.5344  0.1478
  153MOL0     C20983  11.019  10.127   2.209 -0.2343  0.3432  0.3825
  153MOL0     O20984  10.987  10.005   2.260 -0.1548 -0.6527 -0.1209
  153MOL0     C20985  10.919   9.998   2.390  0.5455 -0.7741  0.4114
  153MOL0     C20986  10.863   9.858   2.399 -0.8754 -0.0340 -0.0438
  153MOL0     C20987  10.791   9.850   2.533  0.4893  0.4009  0.4407
  153MOL0     C20988  10.640   9.898   2.522 -0.7602 -0.5372 -0.5208
  153MOL0     C20989  10.579   9.907   2.665  0.0255  0.3153  0.1296
  153MOL0     C20990  10.610  10.031   2.741 -0.4938  0.9383  0.0498
  153MOL0     C20991  10.535  10.039   2.881  0.4975 -0.9143  0.0007
  153MOL0     C20992  10.583  10.144   2.973  0.9394 -0.5956  0.0549
  153MOL0     N20993  10.700  10.108   3.052 -0.2659  0.1364  0.0408
  153MOL0     C20994  10.827  10.119   3.018 -0.9275 -0.3600  0.8645
  153MOL0     C20995  10.902  10.062   3.115 -0.2705  0.6287 -0.3026
  153MOL0     C20996  11.049  10.026   3.124  0.7181 -0.1125  0.3287
  153MOL0     C20997  11.110  10.114   3.230  0.7476 -0.6199 -0.7855
  153MOL0     C20998  11.216  10.033   3.298 -0.6302 -0.0806  0.5671
  153MOL0     C20999  11.336  10.009   3.202  0.8412  0.3166 -0.4553
  153MOL0     O21000  11.423   9.914   3.262 -0.5814  0.5524 -0.3977
  153MOL0     C21001  11.389   9.784   3.278  0.1870 -0.8165  0.5290
  153MOL0     C21002  11.295   9.722   3.190  1.1295  0.3475 -0.0185
  153MOL0     C21003  11.273   9.583   3.204  0.9758  0.9284  1.1786
  153MOL0     C21004  11.177   9.508   3.107 -0.3298  0.3232  0.0581
  153MOL0     C21005  11.336   9.510   3.303 -0.8964 -0.2774  0.3927
  153MOL0     C21006  11.301   9.369   3.325 -0.3490  0.2127  0.0280
  153MOL0     O21007  11.173   9.343   3.351  0.1710  0.1833  0.4126
  153MOL0     C21008  11.110   9.215   3.360  0.6247  0.3451 -1.0306
  153MOL0     C21009  10.970   9.204   3.361 -0.1286 -0.7633 -0.5885
  153MOL0     C21010  10.904   9.083   3.333 -0.8870  0.3142  0.1148
  153MOL0     C21011  10.977   8.965   3.332 -1.0073 -0.0088 -0.2795
  153MOL0     O21012  10.911   8.847   3.318  0.6791  0.1129  0.3119
  153MOL0     C21013  10.968   8.724   3.347 -0.3648  0.0819 -0.3978
  153MOL0     C21014  10.863   8.617   3.346 -0.1889 -0.5412 -0.6153
  153MOL0     C21015  10.762   8.609   3.471 -0.1087 -0.1925 -0.5514
  153MOL0     C21016  10.808   8.689   3.590 -0.7675  0.0767 -0.4396
  153MOL0     C21017  10.708   8.692   3.699  0.4599 -0.4287 -0.1871
  153MOL0     C21018  10.634   8.817   3.675 -0.1524 -0.0230  1.4623
  153MOL0     C21019  10.519   8.842   3.772  0.1019  0.3596 -0.0112
  153MOL0     C21020  10.415   8.930   3.712 -0.0097 -0.6119  0.2808
  153MOL0    Cl21021  10.335   8.830   3.594 -0.0684 -0.0087  0.0875
  153MOL0     C21022  11.117   8.972   3.340  0.4392 -0.4959 -0.2274
  153MOL0     C21023  11.181   9.096   3.340 -0.2045  0.1425 -0.3463
  153MOL0     O21024  11.401   9.297   3.338  0.3608  0.4344 -0.6712
  153MOL0     C21025  11.429   9.572   3.388 -0.5858 -0.0464 -0.9744
  153MOL0     C21026  11.461   9.706   3.367 -0.1390 -0.5103 -0.3304
  153MOL0     N21027  10.814  10.030   3.220 -0.3133 -0.1108 -0.5516
  153MOL0     N21028  10.693  10.056   3.174 -0.0455  0.1704 -0.0568
  153MOL0     C21029  11.007  10.250   2.272 -0.1190  0.1381 -0.1723
  153MOL0     C21030  11.021  10.373   2.212  0.4092 -0.2936  0.2145
  153MOL0     C21031  11.076  10.727   1.958  0.4883  0.0017  0.3076
  153MOL0     C21032  11.172  10.687   1.860  0.0769 -0.5029 -0.1575
  153MOL0     C21033  11.250  10.791   1.803  0.3717 -0.3271  0.1570
  153MOL0     C21034  11.232  10.926   1.822 -0.5927 -0.8721 -0.3778
  153MOL0     O21035  11.309  11.020   1.757 -0.4225 -0.3799  0.7261
  153MOL0     C21036  11.435  11.040   1.827 -0.0237 -0.2142  0.1072
  153MOL0     C21037  11.548  11.065   1.730 -0.1359  0.1153  0.5517
  153MOL0     C21038  11.594  10.934   1.660 -0.1923  0.1305 -0.6201
  153MOL0     C21039  11.540  10.920   1.515 -0.4905  0.4057  0.7724
  153MOL0     C21040  11.568  10.784   1.459 -0.0094 -0.5331 -0.0817
  153MOL0     C21041  11.573  10.678   1.414  0.1304 -0.7007 -0.2236
  153MOL0     C21042  11.143  10.967   1.915 -0.5185 -0.1924  1.0179
  153MOL0     C21043  11.055  10.869   1.975  0.3138 -1.2422  0.1381
  153MOL0     C21044  10.947  10.917   2.069  0.6778  0.4900 -0.9328
  153MOL0     H21045  11.097  10.265   1.900  3.9831 -0.3471  1.0765
  153MOL0     H21046  11.053  10.045   2.004 -3.1152 -0.2949 -0.6764
  153MOL0     H21047  10.837  10.068   2.406  1.8969  1.1830 -0.7672
  153MOL0     H21048  10.992  10.014   2.470 -0.3273 -1.6382  1.4085
  153MOL0     H21049  10.786   9.845   2.323 -1.1360  2.8275 -0.3699
  153MOL0     H21050  10.943   9.784   2.403  0.1362  0.9853 -0.7071
  153MOL0     H21051  10.795   9.743   2.556 -0.3647 -0.2353 -2.0585
  153MOL0     H21052  10.845   9.904   2.611  2.1905 -2.1503  1.1568
  153MOL0     H21053  10.640   9.990   2.462  0.8986  1.2952  2.0585
  153MOL0     H21054  10.582   9.832   2.457 -1.7878  2.5958 -3.0493
  153MOL0     H21055  10.601   9.812   2.714 -0.0474  0.0878 -0.2699
  153MOL0     H21056  10.470   9.914   2.660  0.0691  0.5056 -0.7660
  153MOL0     H21057  10.719  10.030   2.753 -0.6072 -1.7233  1.8446
  153MOL0     H21058  10.582  10.118   2.680 -0.5734  1.4199  0.7548
  153MOL0     H21059  10.534   9.946   2.940  1.7184 -1.1974 -0.3858
  153MOL0     H21060  10.429  10.060   2.862  0.8655  1.1715  0.0383
  153MOL0     H21061  10.611  10.232   2.915 -0.9132  0.4265  0.6328
  153MOL0     H21062  10.501  10.165   3.043  0.9775 -1.7538  0.4640
  153MOL0     H21063  10.865  10.153   2.922  1.3466  0.6657  2.0386
  153MOL0     H21064  11.097  10.045   3.028 -0.8031  0.8338 -0.2801
  153MOL0     H21065  11.066   9.921   3.152  1.1665 -0.8591 -2.4624
  153MOL0     H21066  11.154  10.208   3.196 -1.0949  0.5967  0.0383
  153MOL0     H21067  11.045  10.144   3.312  2.9400 -2.3062  1.7663
  153MOL0     H21068  11.260  10.105   3.369  0.9315  0.0946 -0.5391
  153MOL0     H21069  11.178   9.938   3.336 -2.1833  0.1690 -0.2651
  153MOL0     H21070  11.297   9.967   3.109  0.1368 -2.5727  1.0130
  153MOL0     H21071  11.393  10.103   3.199  0.6238  0.6528  2.5949
  153MOL0     H21072  11.251   9.770   3.104  1.3587  1.0941  0.2693
  153MOL0     H21073  11.203   9.403   3.098  2.0394  0.8563 -0.0171
  153MOL0     H21074  11.196   9.555   3.010  1.3578  0.8342  0.6070
  153MOL0     H21075  11.072   9.509   3.137 -0.8064 -0.6576 -1.4668
  153MOL0     H21076  10.900   9.286   3.368  2.9254  2.0876 -1.0515
  153MOL0     H21077  10.796   9.087   3.319 -0.9211 -2.4616 -0.9037
  153MOL0     H21078  11.035   8.697   3.265 -0.7585  0.9866 -1.0343
  153MOL0     H21079  11.030   8.736   3.437 -0.1298  0.0596 -0.5572
  153MOL0     H21080  10.808   8.641   3.254  0.2568  1.7686 -0.3316
  153MOL0     H21081  10.913   8.522   3.321 -0.3056 -0.5226 -0.9265
  153MOL0     H21082  10.743   8.504   3.493  0.4106 -0.6920 -2.2822
  153MOL0     H21083  10.666   8.649   3.438 -1.6943 -1.5278  2.1943
  153MOL0     H21084  10.854   8.783   3.560 -0.2010 -0.3918 -1.0529
  153MOL0     H21085  10.888   8.633   3.639  0.7577  3.0500  0.6862
  153MOL0     H21086  10.643   8.605   3.690 -0.3156  0.0353  0.7843
  153MOL0     H21087  10.752   8.697   3.800 -0.9037  0.9799  0.3728
  153MOL0     H21088  10.601   8.827   3.571  0.8726  1.2697  1.2259
  153MOL0     H21089  10.705   8.898   3.696 -1.1079  1.3421 -0.2381
  153MOL0     H21090  10.559   8.892   3.861 -1.3644  0.9843  0.3266
  153MOL0     H21091  10.471   8.751   3.811 -0.8261  0.9029  0.1371
  153MOL0     H21092  10.455   9.027   3.679 -0.4119  0.2927  2.3286
  153MOL0     H21093  10.337   8.966   3.780 -1.1763 -1.1464 -0.7315
  153MOL0     H21094  11.171   8.878   3.347  2.0044  0.1571 -2.4565
  153MOL0     H21095  11.289   9.085   3.343 -0.0280  1.5666 -0.4679
  153MOL0     H21096  11.479   9.502   3.453 -0.7957  0.5354 -0.1666
  153MOL0     H21097  11.526   9.756   3.437  0.3042 -1.6682  0.1171
  153MOL0     H21098  10.960  10.244   2.370 -4.2414 -0.1014 -1.9592
  153MOL0     H21099  11.000  10.465   2.266  2.7680  0.4910 -0.0720
  153MOL0     H21100  11.195  10.587   1.827 -2.9693 -0.8112 -1.7019
  153MOL0     H21101  11.329  10.760   1.736 -1.5292 -0.9926 -1.8891
  153MOL0     H21102  11.431  11.132   1.887 -1.1582  1.2527 -2.0907
  153MOL0     H21103  11.453  10.946   1.880 -2.6670 -2.1820 -2.1845
  153MOL0     H21104  11.636  11.101   1.784  0.3781  0.3753 -0.4206
  153MOL0     H21105  11.522  11.146   1.660 -2.5594 -0.1604  1.0290
  153MOL0     H21106  11.701  10.914   1.655 -0.0770  0.4341  0.4342
  153MOL0     H21107  11.560  10.843   1.710  2.2716 -0.7217 -0.3820
  153MOL0     H21108  11.595  10.992   1.454 -0.5278  0.9386  1.3589
  153MOL0     H21109  11.434  10.944   1.509 -0.6780 -0.6921 -1.1222
  153MOL0     H21110  11.575  10.586   1.358 -1.3434 -1.3557  0.7424
  153MOL0     H21111  11.144  11.071   1.947 -1.4214  0.4890 -0.9929
  153MOL0     H21112  10.977  10.904   2.174  4.8565 -1.3515 -2.1511
  153MOL0     H21113  10.937  11.025   2.056  1.2431  0.4291 -1.9296
  153MOL0     H21114  10.855  10.864   2.041 -0.4261  2.4446 -1.1443
  154MOL0     O21115   5.147   3.750   9.457  0.9156  0.2033  0.0541
  154MOL0     C21116   5.164   3.637   9.403 -0.0554 -0.8030  0.4791
  154MOL0     O21117   5.227   3.529   9.459  0.3600 -0.2423 -0.3678
  154MOL0     C21118   5.294   3.546   9.577 -0.6643  0.9026 -0.5997
  154MOL0     C21119   5.421   3.482   9.599  0.2320  0.4239  0.2904
  154MOL0     C21120   5.476   3.478   9.724  0.5422 -0.1481 -0.5438
  154MOL0     C21121   5.416   3.531   9.829  0.4403 -0.3245 -0.3271
  154MOL0     O21122   5.473   3.534   9.946  0.1194 -0.6251 -0.4255
  154MOL0     C21123   5.527   3.412  10.002 -0.3033 -0.2320  0.0679
  154MOL0     C21124   5.463   3.269   9.986  0.4692 -0.5063  0.1404
  154MOL0     C21125   5.353   3.241  10.087 -0.4836 -0.3636  0.4227
  154MOL0     C21126   5.383   3.277  10.236  0.0943  1.0866  0.0573
  154MOL0     C21127   5.285   3.206  10.335 -0.7869 -0.1972  0.1694
  154MOL0     C21128   5.302   3.246  10.476  0.4747  0.3435 -0.3207
  154MOL0     C21129   5.185   3.172  10.552  0.3059  0.2880  0.0451
  154MOL0     C21130   5.201   3.183  10.704 -0.2794  0.1453 -0.5359
  154MOL0     N21131   5.132   3.298  10.766  1.1939 -0.2804  0.0069
  154MOL0     C21132   5.004   3.346  10.737 -0.0718  0.2353  0.4603
  154MOL0     C21133   4.973   3.429  10.842 -0.1544  0.3205  0.2922
  154MOL0     C21134   4.845   3.502  10.865  0.8695 -0.5842  0.8545
  154MOL0     C21135   4.741   3.424  10.956 -0.2421  0.1780 -0.1352
  154MOL0     C21136   4.591   3.456  10.909 -0.4656  0.5050 -0.1484
  154MOL0     C21137   4.492   3.377  10.988 -0.3848 -0.5573  0.3574
  154MOL0     O21138   4.358   3.404  10.939 -0.3847  0.1404 -0.3266
  154MOL0     C21139   4.250   3.398  11.030 -0.4787  0.0790 -1.5090
  154MOL0     C21140   4.135   3.470  11.002 -0.7941 -0.4024 -0.4733
  154MOL0     C21141   4.018   3.460  11.074 -0.3922 -0.1343  0.6658
  154MOL0     C21142   3.903   3.547  11.015 -0.7316 -0.0681 -0.4522
  154MOL0     C21143   4.015   3.376  11.183 -0.3077  0.2896 -0.0645
  154MOL0     C21144   3.890   3.361  11.264  0.9294  0.3547  0.4358
  154MOL0     O21145   3.893   3.250  11.356  0.4967  0.4304  0.0472
  154MOL0     C21146   3.785   3.205  11.428  0.7917 -0.2599  0.2464
  154MOL0     C21147   3.812   3.149  11.551 -0.2002 -0.4233 -0.0927
  154MOL0     C21148   3.705   3.099  11.627 -0.6243  0.7172  0.2450
  154MOL0     C21149   3.575   3.086  11.570  0.8125  0.1409  0.6763
  154MOL0     O21150   3.470   3.032  11.642 -0.1614 -0.4236 -0.2234
  154MOL0     C21151   3.471   3.030  11.785  0.5731 -0.5111  0.6895
  154MOL0     C21152   3.327   2.988  11.836 -0.2821  0.1969 -0.0591
  154MOL0     C21153   3.337   2.982  11.984 -0.3333  0.0902 -0.1879
  154MOL0     C21154   3.204   3.022  12.047 -0.2476 -0.0364  0.4544
  154MOL0     C21155   3.202   2.991  12.188  0.6491 -0.5622  0.5182
  154MOL0     C21156   3.299   3.072  12.280  0.4756 -0.0215 -1.0748
  154MOL0     C21157   3.325   2.982  12.403  0.6565 -0.5359  0.4529
  154MOL0     C21158   3.407   3.063  12.506  1.0359 -0.0303  0.9439
  154MOL0    Cl21159   3.316   3.200  12.574 -0.2709  0.2784 -0.3485
  154MOL0     C21160   3.556   3.127  11.437  1.4949  0.5983  0.0328
  154MOL0     C21161   3.656   3.188  11.365  0.6493  0.0741 -0.3660
  154MOL0     O21162   3.789   3.431  11.239 -0.6267  0.3417  0.4465
  154MOL0     C21163   4.134   3.303  11.219 -0.0968  0.0691  0.2404
  154MOL0     C21164   4.251   3.307  11.137 -0.5146  0.0405 -0.5852
  154MOL0     N21165   5.087   3.448  10.917 -0.3933  0.2491  0.3334
  154MOL0     N21166   5.183   3.365  10.867 -0.4299 -0.4086  0.3053
  154MOL0     C21167   5.290   3.588   9.820  0.2920 -0.1870  0.6021
  154MOL0     C21168   5.223   3.588   9.695 -0.4599  1.0736 -0.4032
  154MOL0     C21169   5.131   3.630   9.259  0.6642 -0.5542  0.7236
  154MOL0     C21170   5.047   3.733   9.205  1.2471  0.4741 -0.1112
  154MOL0     C21171   5.020   3.739   9.069 -0.0503 -0.1214  0.1703
  154MOL0     C21172   5.092   3.651   8.980  0.2717  0.3144 -0.4180
  154MOL0     O21173   5.091   3.662   8.843  0.2455  0.3632 -0.5248
  154MOL0     C21174   5.015   3.768   8.780 -0.5499  0.2283 -0.3212
  154MOL0     C21175   5.039   3.772   8.630 -0.8437 -0.3802 -0.7185
  154MOL0     C21176   5.001   3.904   8.573  0.0787  0.5166 -0.3329
  154MOL0     C21177   5.039   3.903   8.420 -0.8253  1.5633  0.2339
  154MOL0     C21178   4.985   4.010   8.332  0.5406  0.6861 -0.3368
  154MOL0     C21179   4.944   4.096   8.256  0.4712 -0.7364 -0.5460
  154MOL0     C21180   5.156   3.543   9.036 -0.6581  0.1492 -0.3710
  154MOL0     C21181   5.178   3.527   9.172 -0.0679 -0.1121 -0.2576
  154MOL0     C21182   5.243   3.392   9.208  0.3315  0.4662  0.5164
  154MOL0     H21183   5.471   3.434   9.516  1.2032  0.8962  0.5945
  154MOL0     H21184   5.577   3.440   9.739  0.9521  0.6594 -1.1954
  154MOL0     H21185   5.543   3.432  10.108  1.0802  1.8323 -0.4691
  154MOL0     H21186   5.623   3.401   9.952  1.2174  2.0941  2.2272
  154MOL0     H21187   5.425   3.248   9.885  0.1976 -0.6917  0.2792
  154MOL0     H21188   5.541   3.192   9.989  1.1689  0.1885  0.1975
  154MOL0     H21189   5.264   3.299  10.058  1.3021  2.8022  0.8436
  154MOL0     H21190   5.327   3.136  10.072  0.6506 -0.3933 -1.7476
  154MOL0     H21191   5.485   3.241  10.254 -0.3315 -0.8596 -1.1356
  154MOL0     H21192   5.382   3.384  10.258 -1.7547  1.4913 -1.7158
  154MOL0     H21193   5.300   3.098  10.324 -1.0214 -0.3987  1.6459
  154MOL0     H21194   5.185   3.238  10.308 -0.0771  1.1009 -1.0247
  154MOL0     H21195   5.395   3.210  10.521 -0.3780 -1.4497  0.0876
  154MOL0     H21196   5.283   3.353  10.495 -1.5386 -0.3303  2.0323
  154MOL0     H21197   5.191   3.067  10.521  2.4006  0.4026 -0.0393
  154MOL0     H21198   5.087   3.201  10.513  0.4112 -2.8888 -3.1745
  154MOL0     H21199   5.176   3.098  10.768  0.6438  0.9164  0.8930
  154MOL0     H21200   5.308   3.198  10.724  0.1004 -2.6598 -0.0561
  154MOL0     H21201   4.936   3.315  10.658 -0.0854  0.4925  0.3686
  154MOL0     H21202   4.800   3.511  10.766  1.0135 -0.3938  0.8063
  154MOL0     H21203   4.857   3.600  10.911 -2.5502 -0.9710  2.9322
  154MOL0     H21204   4.769   3.318  10.956  2.1730  0.7585  0.0687
  154MOL0     H21205   4.747   3.469  11.056  0.0254  1.0057 -0.5169
  154MOL0     H21206   4.582   3.564  10.926 -0.0767  0.5302 -0.0906
  154MOL0     H21207   4.571   3.422  10.807 -0.9240  0.4489 -0.0409
  154MOL0     H21208   4.519   3.271  10.980 -0.3613 -0.6077  1.0320
  154MOL0     H21209   4.497   3.405  11.094 -1.1340  0.8030  0.0589
  154MOL0     H21210   4.155   3.532  10.915  1.5647  0.7632  0.7877
  154MOL0     H21211   3.870   3.623  11.086 -0.7440 -1.3849  1.0133
  154MOL0     H21212   3.819   3.492  10.971 -2.3826  3.0254 -1.4582
  154MOL0     H21213   3.945   3.599  10.929 -1.1774 -1.5289 -1.5964
  154MOL0     H21214   3.907   3.147  11.604 -2.4212 -1.1071  4.3620
  154MOL0     H21215   3.742   3.066  11.724  2.3941  0.7401 -0.8021
  154MOL0     H21216   3.556   2.963  11.805  0.4141 -1.4835 -1.5607
  154MOL0     H21217   3.499   3.128  11.826  1.7249 -0.8979  0.8751
  154MOL0     H21218   3.248   3.059  11.809  1.1163  2.4067  1.3519
  154MOL0     H21219   3.297   2.888  11.803 -1.0387 -0.7820  3.1612
  154MOL0     H21220   3.416   3.051  12.016 -0.4716  0.0613  0.2336
  154MOL0     H21221   3.357   2.877  12.007 -2.3939 -0.3378 -0.1516
  154MOL0     H21222   3.121   2.976  11.993 -0.7371  1.7813 -0.4204
  154MOL0     H21223   3.195   3.130  12.028  2.4243 -0.0216 -1.2378
  154MOL0     H21224   3.099   3.016  12.216 -0.0641  0.4713 -2.6535
  154MOL0     H21225   3.218   2.883  12.197 -0.0904 -0.6011  1.5889
  154MOL0     H21226   3.261   3.172  12.304 -0.6879 -0.8412  0.8057
  154MOL0     H21227   3.389   3.082  12.220  0.8931 -3.6578 -1.2893
  154MOL0     H21228   3.383   2.895  12.369  3.2628  1.4128 -0.3669
  154MOL0     H21229   3.232   2.952  12.451 -0.0380  0.3394 -0.3032
  154MOL0     H21230   3.504   3.095  12.468 -0.3725  1.2868 -1.8951
  154MOL0     H21231   3.425   2.990  12.584  3.1640 -0.1401  0.3924
  154MOL0     H21232   3.459   3.092  11.404  1.2645  1.6473 -0.4355
  154MOL0     H21233   3.630   3.218  11.264  0.3771 -2.1316 -1.0010
  154MOL0     H21234   4.151   3.239  11.305  2.6921  0.4111  0.0253
  154MOL0     H21235   4.343   3.263  11.174  0.4342  0.5371 -2.2832
  154MOL0     H21236   5.253   3.627   9.914  3.9195 -1.5710  2.8286
  154MOL0     H21237   5.131   3.645   9.700 -0.6488  0.6411  2.7798
  154MOL0     H21238   5.015   3.812   9.271 -0.2556 -2.0689  2.4093
  154MOL0     H21239   4.958   3.819   9.030  2.2531  1.2586 -0.8902
  154MOL0     H21240   4.907   3.750   8.790 -0.1741 -1.4689  1.3634
  154MOL0     H21241   5.040   3.868   8.818  0.6805 -0.0037 -0.4806
  154MOL0     H21242   4.981   3.697   8.576 -0.1638 -4.1550  3.2074
  154MOL0     H21243   5.145   3.747   8.626 -0.6216 -0.5370  2.8401
  154MOL0     H21244   4.892   3.909   8.585  0.1186 -2.1573  2.2020
  154MOL0     H21245   5.047   3.988   8.626 -1.6601 -0.1676  2.4432
  154MOL0     H21246   5.002   3.812   8.373  0.1557  0.7687  0.9577
  154MOL0     H21247   5.148   3.916   8.412 -0.2766 -1.7321  0.8138
  154MOL0     H21248   4.902   4.166   8.186 -1.1896 -1.1214  0.0071
  154MOL0     H21249   5.207   3.475   8.968  2.5278  1.8456  0.1327
  154MOL0     H21250   5.332   3.405   9.270  3.2061 -3.5513 -2.2321
  154MOL0     H21251   5.172   3.337   9.269  0.8108 -2.3077 -1.2349
  154MOL0     H21252   5.270   3.330   9.122  2.5372 -1.2582  2.3055
  155MOL0     O21253  10.149   5.365   6.320  0.3155 -0.2111  0.7806
  155MOL0     C21254  10.241   5.438   6.344 -0.4912  0.0597 -0.1258
  155MOL0     O21255  10.229   5.568   6.359  0.1255  0.6727  0.3470
  155MOL0     C21256  10.106   5.625   6.347 -0.0404  0.9991  0.3932
  155MOL0     C21257  10.049   5.683   6.463  0.2185  0.0384 -0.4251
  155MOL0     C21258   9.925   5.752   6.447  0.2183 -0.3823  0.7422
  155MOL0     C21259   9.861   5.761   6.316 -0.1416  1.6460  0.5948
  155MOL0     O21260   9.744   5.819   6.290 -0.1863  1.2505  0.2966
  155MOL0     C21261   9.646   5.798   6.393 -0.0751  0.1712  0.1322
  155MOL0     C21262   9.501   5.817   6.343 -0.6267 -0.3130  0.5317
  155MOL0     C21263   9.471   5.707   6.234 -0.0531 -0.5716 -0.1849
  155MOL0     C21264   9.430   5.571   6.297  0.0293 -0.4061 -0.3620
  155MOL0     C21265   9.376   5.473   6.202 -0.3260  1.1458 -0.2974
  155MOL0     C21266   9.326   5.343   6.267  0.2834  1.2136  0.0403
  155MOL0     C21267   9.297   5.235   6.153 -0.3105  0.2166  0.8973
  155MOL0     C21268   9.220   5.117   6.218 -0.0077  0.3227 -0.3166
  155MOL0     N21269   9.075   5.133   6.235 -0.1622  0.7279  0.7604
  155MOL0     C21270   9.011   5.145   6.347  0.0536  0.9576 -0.0367
  155MOL0     C21271   8.881   5.143   6.319 -0.7374 -0.1787 -0.3117
  155MOL0     C21272   8.781   5.165   6.420  0.0540 -0.8114 -0.3601
  155MOL0     C21273   8.741   5.027   6.489  0.4731 -0.3796  0.6930
  155MOL0     C21274   8.647   5.058   6.598 -0.3058 -0.1800  0.2404
  155MOL0     C21275   8.516   5.141   6.559 -0.0138 -0.0217 -0.1316
  155MOL0     O21276   8.423   5.139   6.671 -0.5014  0.2952  0.6352
  155MOL0     C21277   8.352   5.025   6.683  0.1460 -0.3618 -0.5621
  155MOL0     C21278   8.360   4.901   6.609 -0.7288 -0.4437  0.4293
  155MOL0     C21279   8.266   4.794   6.635  0.3197 -0.0362  0.7237
  155MOL0     C21280   8.254   4.680   6.542  0.1085  0.1496  0.6027
  155MOL0     C21281   8.175   4.803   6.741  0.2734 -1.1724  0.8403
  155MOL0     C21282   8.088   4.693   6.775  0.1656 -0.3814 -0.6039
  155MOL0     O21283   7.956   4.728   6.800 -0.1858  0.8327  0.0037
  155MOL0     C21284   7.859   4.629   6.827  0.7572  0.9122 -0.7363
  155MOL0     C21285   7.842   4.525   6.738 -0.2170 -0.1834 -0.3484
  155MOL0     C21286   7.743   4.427   6.759 -0.5826  0.3015  0.4709
  155MOL0     C21287   7.641   4.443   6.853 -0.2541  0.1399  0.0985
  155MOL0     O21288   7.559   4.337   6.874 -0.8278 -0.1091 -0.1609
  155MOL0     C21289   7.438   4.368   6.937 -0.6777 -0.4287 -0.2227
  155MOL0     C21290   7.322   4.265   6.907 -0.5601  0.2262  1.2167
  155MOL0     C21291   7.199   4.285   6.998  0.1899 -0.0955  0.0787
  155MOL0     C21292   7.220   4.240   7.148  0.5553  0.0694  0.4794
  155MOL0     C21293   7.092   4.236   7.225  1.1004 -0.0544 -0.2806
  155MOL0     C21294   6.981   4.149   7.166  0.2069  0.0296 -0.8178
  155MOL0     C21295   7.026   3.999   7.145  0.6444  0.1236 -0.7149
  155MOL0     C21296   6.991   3.915   7.280 -0.4566  0.3642  0.4261
  155MOL0    Cl21297   6.820   3.885   7.316  0.0064 -0.1581 -0.0087
  155MOL0     C21298   7.655   4.555   6.934  0.5665 -0.2327  0.1188
  155MOL0     C21299   7.759   4.641   6.917 -0.5190  0.2486  0.4333
  155MOL0     O21300   8.140   4.586   6.794 -0.0645  0.4367  0.6142
  155MOL0     C21301   8.172   4.922   6.818 -1.2710  0.6072  1.6226
  155MOL0     C21302   8.252   5.031   6.780  0.1504 -1.5016 -0.6980
  155MOL0     N21303   8.874   5.128   6.187 -0.1956  0.0189  0.4539
  155MOL0     N21304   8.987   5.138   6.136 -0.3066  0.6136  0.6003
  155MOL0     C21305   9.939   5.716   6.206  0.3805 -0.5861 -0.2022
  155MOL0     C21306  10.058   5.646   6.219  0.0940  0.2737 -0.4960
  155MOL0     C21307  10.377   5.386   6.342 -0.1959 -0.1031 -0.9256
  155MOL0     C21308  10.476   5.475   6.297  1.3440 -1.1061  0.2136
  155MOL0     C21309  10.606   5.431   6.280 -0.4994 -0.0192 -0.0023
  155MOL0     C21310  10.641   5.304   6.320  0.3124 -0.7047 -0.8262
  155MOL0     O21311  10.766   5.261   6.306 -0.1235 -1.5696 -0.3463
  155MOL0     C21312  10.835   5.310   6.194  0.1784  0.1549  0.5464
  155MOL0     C21313  10.968   5.227   6.177  0.3933  0.0531 -0.9082
  155MOL0     C21314  11.062   5.234   6.301  0.9035 -0.3493  0.9713
  155MOL0     C21315  11.148   5.109   6.305  0.1819  0.2444 -0.5278
  155MOL0     C21316  11.260   5.107   6.207 -0.1287  0.9406  0.2740
  155MOL0     C21317  11.362   5.123   6.137  1.0955  0.5685 -1.1359
  155MOL0     C21318  10.551   5.216   6.382 -0.6636 -0.4092 -0.5167
  155MOL0     C21319  10.419   5.256   6.385 -1.0433 -1.2032  0.6111
  155MOL0     C21320  10.324   5.167   6.456  0.7074 -0.1959 -0.9425
  155MOL0     H21321  10.084   5.666   6.564 -0.0505  1.3925 -0.0928
  155MOL0     H21322   9.877   5.807   6.527 -1.6546  0.4285 -0.8593
  155MOL0     H21323   9.650   5.860   6.483 -1.1108 -1.0775  1.0836
  155MOL0     H21324   9.648   5.696   6.431 -1.0807 -0.1225 -0.5392
  155MOL0     H21325   9.425   5.819   6.422 -0.0011 -1.4368  1.1822
  155MOL0     H21326   9.508   5.920   6.307  4.1681 -0.3896  0.6241
  155MOL0     H21327   9.384   5.742   6.178 -1.5114 -1.8261  1.1940
  155MOL0     H21328   9.554   5.696   6.163  0.2645 -3.3426  0.4976
  155MOL0     H21329   9.514   5.518   6.343 -0.5967 -0.9854  0.1373
  155MOL0     H21330   9.359   5.608   6.371 -1.4959  1.4883 -2.6107
  155MOL0     H21331   9.459   5.438   6.140  0.9598 -1.6582  2.6569
  155MOL0     H21332   9.299   5.512   6.135  1.5501  1.3600 -2.4439
  155MOL0     H21333   9.391   5.297   6.342  0.5195  0.4360 -0.6255
  155MOL0     H21334   9.229   5.366   6.313  1.3145 -0.2899  3.2610
  155MOL0     H21335   9.386   5.204   6.098 -1.1214  0.9334 -0.9018
  155MOL0     H21336   9.245   5.281   6.068  3.3319  0.5070 -1.3862
  155MOL0     H21337   9.232   5.033   6.150  1.0520  0.4378 -0.2794
  155MOL0     H21338   9.262   5.077   6.311 -2.4077 -2.1907 -0.1631
  155MOL0     H21339   9.057   5.167   6.442  0.9748 -0.2594 -0.1791
  155MOL0     H21340   8.694   5.200   6.364  0.7854 -2.2777 -2.5646
  155MOL0     H21341   8.815   5.240   6.492 -0.7650  0.6055 -1.4052
  155MOL0     H21342   8.688   4.955   6.427 -2.5350  0.6010  1.9583
  155MOL0     H21343   8.829   4.983   6.537  0.1437 -1.0255  0.7040
  155MOL0     H21344   8.622   4.961   6.641  0.2162 -0.9006 -1.0443
  155MOL0     H21345   8.702   5.114   6.675  1.6523 -2.1046  0.3356
  155MOL0     H21346   8.554   5.244   6.558 -0.6179  0.2024 -0.0914
  155MOL0     H21347   8.476   5.112   6.461 -1.2352  0.3153  0.2591
  155MOL0     H21348   8.428   4.887   6.526  1.4812  0.4350  2.0105
  155MOL0     H21349   8.310   4.693   6.448  0.9365  1.4892  1.2453
  155MOL0     H21350   8.150   4.659   6.518  0.4686 -1.4457  0.3546
  155MOL0     H21351   8.310   4.602   6.595  1.4329  0.3231 -0.4943
  155MOL0     H21352   7.921   4.508   6.665 -0.0241  0.0083 -0.1885
  155MOL0     H21353   7.763   4.341   6.697  2.8360  0.5551  1.0141
  155MOL0     H21354   7.449   4.372   7.046  2.1331 -3.0520 -0.2729
  155MOL0     H21355   7.414   4.469   6.902  2.5322  1.8251  3.2854
  155MOL0     H21356   7.313   4.278   6.799  1.5920  1.6145  1.1337
  155MOL0     H21357   7.367   4.166   6.922  1.5820  1.1958  1.5400
  155MOL0     H21358   7.126   4.230   6.938 -2.8642  3.4203  0.1845
  155MOL0     H21359   7.170   4.391   6.995  0.1954 -0.1017 -0.2631
  155MOL0     H21360   7.297   4.305   7.192  1.8390 -0.6546 -0.6493
  155MOL0     H21361   7.257   4.140   7.169  2.4204  0.8617  1.1759
  155MOL0     H21362   7.125   4.196   7.321  0.9671 -1.8385 -0.9265
  155MOL0     H21363   7.059   4.340   7.235  2.6684  0.3608  0.9815
  155MOL0     H21364   6.957   4.194   7.069  2.0950  1.2321 -0.7903
  155MOL0     H21365   6.893   4.157   7.230  0.7373 -0.8459  0.0399
  155MOL0     H21366   7.130   3.985   7.115  2.1690  2.4757  2.7483
  155MOL0     H21367   6.966   3.966   7.060 -0.2187 -1.5006  0.4720
  155MOL0     H21368   7.036   3.968   7.365 -0.4478 -0.7456  1.1248
  155MOL0     H21369   7.033   3.815   7.266 -2.7368 -0.8858  1.8672
  155MOL0     H21370   7.597   4.573   7.024  0.6840 -0.0836  0.1630
  155MOL0     H21371   7.771   4.726   6.983 -0.3846  1.7901 -1.4705
  155MOL0     H21372   8.094   4.928   6.893 -1.3766  0.1581  1.5581
  155MOL0     H21373   8.243   5.125   6.833 -2.4751 -2.9229  1.6304
  155MOL0     H21374   9.901   5.729   6.105  0.6271  1.5808 -0.0630
  155MOL0     H21375  10.100   5.593   6.134  0.9897 -0.8563  0.6160
  155MOL0     H21376  10.447   5.579   6.295 -2.5149 -2.0389 -0.1621
  155MOL0     H21377  10.677   5.504   6.241 -1.7047  0.9761 -0.4107
  155MOL0     H21378  10.776   5.291   6.104 -1.7075 -0.6169  1.8823
  155MOL0     H21379  10.868   5.414   6.186  3.9594 -0.8760  0.4377
  155MOL0     H21380  11.028   5.251   6.089  1.0977  1.3938 -0.1015
  155MOL0     H21381  10.944   5.121   6.168  1.1358 -0.1773 -0.2980
  155MOL0     H21382  11.111   5.331   6.298 -1.0152  0.7260 -3.7174
  155MOL0     H21383  11.006   5.235   6.395 -0.2077 -1.3083  0.3448
  155MOL0     H21384  11.097   5.014   6.320 -0.6253  1.0753  2.5599
  155MOL0     H21385  11.200   5.127   6.399 -1.9652  2.4075  0.3669
  155MOL0     H21386  11.440   5.111   6.065 -0.6118  0.5378 -3.0914
  155MOL0     H21387  10.597   5.122   6.412  1.9122  1.2377  1.0654
  155MOL0     H21388  10.253   5.118   6.389  1.3347 -0.9820 -1.0479
  155MOL0     H21389  10.389   5.110   6.522  1.0648  1.4889  0.2234
  155MOL0     H21390  10.260   5.231   6.517  3.4942  1.1802  0.7307
  156MOL0     O21391   8.162  10.630   6.705  0.1891 -0.3917  0.1490
  156MOL0     C21392   8.110  10.524   6.690  0.4902  1.1796  0.6110
  156MOL0     O21393   7.977  10.498   6.674 -0.2240  0.5526  0.1740
  156MOL0     C21394   7.882  10.593   6.654  0.6561  0.4863 -0.6125
  156MOL0     C21395   7.876  10.729   6.695 -0.5514  0.5795 -0.2721
  156MOL0     C21396   7.772  10.808   6.665  0.0086  0.3244 -0.1293
  156MOL0     C21397   7.659  10.761   6.609 -0.2730  1.3780 -0.0876
  156MOL0     O21398   7.546  10.831   6.576  0.0062  0.1624  1.3134
  156MOL0     C21399   7.552  10.974   6.544  0.3289 -0.2602 -1.0404
  156MOL0     C21400   7.411  11.024   6.525  1.2102  0.4541 -0.6777
  156MOL0     C21401   7.402  11.172   6.498  0.5229 -0.8023 -0.8027
  156MOL0     C21402   7.466  11.208   6.364 -0.1069  1.0249 -1.0111
  156MOL0     C21403   7.463  11.357   6.341 -0.7092 -0.2212 -0.4302
  156MOL0     C21404   7.580  11.438   6.416  0.9393  0.1695 -0.5328
  156MOL0     C21405   7.618  11.584   6.361 -0.6339  0.8011 -0.7965
  156MOL0     C21406   7.500  11.686   6.359  0.1900 -0.4749 -0.6410
  156MOL0     N21407   7.402  11.659   6.253 -0.8632 -0.2117 -0.2111
  156MOL0     C21408   7.435  11.688   6.122 -0.1939  0.3122 -0.4783
  156MOL0     C21409   7.319  11.692   6.059  0.3096 -0.1869  0.7720
  156MOL0     C21410   7.291  11.724   5.909 -0.5404 -0.2893  0.0963
  156MOL0     C21411   7.349  11.613   5.809  0.4917  0.1359 -0.8819
  156MOL0     C21412   7.373  11.663   5.668  0.2719 -1.0410 -0.3629
  156MOL0     C21413   7.250  11.690   5.582 -1.0375  0.1350 -0.4059
  156MOL0     O21414   7.150  11.593   5.612  0.2137  0.0319 -0.1214
  156MOL0     C21415   7.098  11.520   5.510 -0.2352  0.9137 -0.8959
  156MOL0     C21416   7.138  11.386   5.487  0.4106 -0.0030  0.1882
  156MOL0     C21417   7.102  11.322   5.363  0.0744  0.3981 -0.5360
  156MOL0     C21418   7.139  11.172   5.366 -0.9647 -1.0026  0.4116
  156MOL0     C21419   7.020  11.397   5.278  0.9002 -0.5071 -0.0303
  156MOL0     C21420   6.975  11.347   5.149  0.2444 -0.2732  0.0408
  156MOL0     O21421   7.009  11.225   5.107  0.0762 -0.1545 -0.2088
  156MOL0     C21422   6.963  11.173   4.983  0.1412  0.3292  0.3182
  156MOL0     C21423   6.837  11.117   4.990  1.1753 -0.6059 -0.5530
  156MOL0     C21424   6.780  11.073   4.873  0.3214 -0.1991 -0.2221
  156MOL0     C21425   6.854  11.066   4.755  0.1056 -0.2249  0.6166
  156MOL0     O21426   6.807  11.011   4.637 -0.5075  0.2862  0.3514
  156MOL0     C21427   6.663  11.031   4.612 -0.5454 -0.2993 -0.5295
  156MOL0     C21428   6.627  10.984   4.472 -0.0341 -0.4091  0.0679
  156MOL0     C21429   6.683  11.080   4.355  0.5769 -1.2468 -0.0640
  156MOL0     C21430   6.604  11.027   4.230 -1.0626  0.0533 -0.5961
  156MOL0     C21431   6.613  11.123   4.115  0.1367 -0.3084  0.1219
  156MOL0     C21432   6.597  11.039   3.981 -0.3098 -0.2281  0.7002
  156MOL0     C21433   6.602  11.141   3.855 -0.3305  0.4527  0.0046
  156MOL0     C21434   6.567  11.067   3.724  0.3817 -0.3035  0.4158
  156MOL0    Cl21435   6.641  11.144   3.583  0.1855 -0.3193  0.3247
  156MOL0     C21436   6.991  11.123   4.747 -0.2221 -0.4231 -0.5575
  156MOL0     C21437   7.034  11.185   4.866 -0.6106  0.7806 -0.8043
  156MOL0     O21438   6.903  11.418   5.081 -0.1370  0.1076 -0.6268
  156MOL0     C21439   6.970  11.523   5.316  0.6715 -0.7653 -1.0342
  156MOL0     C21440   7.011  11.592   5.435 -0.4115  0.2485  0.1626
  156MOL0     N21441   7.218  11.642   6.147  0.1953  0.2405  0.2473
  156MOL0     N21442   7.269  11.652   6.266  0.6185  0.2858  0.5008
  156MOL0     C21443   7.654  10.624   6.580  0.3929  0.7639 -0.1276
  156MOL0     C21444   7.764  10.537   6.599  1.1732 -0.5050 -0.2863
  156MOL0     C21445   8.187  10.397   6.709 -0.6020 -0.8487  0.3200
  156MOL0     C21446   8.317  10.385   6.641  0.4101 -0.7937  0.0190
  156MOL0     C21447   8.400  10.267   6.643  0.4489 -0.5596  0.2526
  156MOL0     C21448   8.376  10.163   6.735 -0.4060 -0.3978 -0.0409
  156MOL0     O21449   8.465  10.055   6.753  0.7963  0.5691  0.5723
  156MOL0     C21450   8.611  10.086   6.743  0.4344  0.0664  0.0892
  156MOL0     C21451   8.651  10.128   6.887 -0.0283 -0.2578  0.1203
  156MOL0     C21452   8.632  10.004   6.988  0.0700 -0.0793 -0.7537
  156MOL0     C21453   8.691   9.875   6.943 -1.1143  0.5470  0.4962
  156MOL0     C21454   8.748   9.800   7.061 -0.2600 -0.2894 -0.0056
  156MOL0     C21455   8.775   9.730   7.151  0.1028 -0.0229  0.1068
  156MOL0     C21456   8.248  10.173   6.797 -1.1141 -0.0076 -0.0377
  156MOL0     C21457   8.165  10.291   6.788  0.0956  0.4165 -0.5612
  156MOL0     C21458   8.034  10.270   6.860 -0.2106 -0.0859  0.2379
  156MOL0     H21459   7.957  10.780   6.746  0.3429  1.5957 -2.5497
  156MOL0     H21460   7.777  10.913   6.692  1.0183  0.0335  0.9405
  156MOL0     H21461   7.612  10.986   6.453 -0.7868 -0.4883 -1.8305
  156MOL0     H21462   7.601  11.021   6.630 -1.3347 -3.9656  2.2596
  156MOL0     H21463   7.367  10.982   6.435  2.2569 -1.2848 -0.4266
  156MOL0     H21464   7.343  10.991   6.603 -0.6825  2.1327 -1.5300
  156MOL0     H21465   7.295  11.193   6.496  0.1433 -2.4326  0.4591
  156MOL0     H21466   7.442  11.234   6.579  0.1645 -1.6895  0.0733
  156MOL0     H21467   7.569  11.175   6.348 -0.9259 -1.2709 -2.0997
  156MOL0     H21468   7.408  11.153   6.290  0.2162  1.7867 -1.8518
  156MOL0     H21469   7.373  11.410   6.376  0.7532  1.1564  1.5134
  156MOL0     H21470   7.487  11.363   6.235 -0.2467 -0.3149 -0.3308
  156MOL0     H21471   7.551  11.450   6.520 -1.1236  1.9581 -1.2201
  156MOL0     H21472   7.672  11.380   6.413  2.1805  1.4687  4.3240
  156MOL0     H21473   7.671  11.570   6.266  1.2181  1.0345  0.1800
  156MOL0     H21474   7.692  11.612   6.435 -0.1915  0.5554 -1.1396
  156MOL0     H21475   7.452  11.674   6.457 -1.1402 -2.5228 -1.4698
  156MOL0     H21476   7.529  11.791   6.360 -1.7341  0.1032 -0.1537
  156MOL0     H21477   7.533  11.712   6.083 -0.3763 -0.5378 -1.5222
  156MOL0     H21478   7.336  11.823   5.899  2.2011 -1.4683 -0.1703
  156MOL0     H21479   7.186  11.743   5.885  0.0211  2.1099 -0.7525
  156MOL0     H21480   7.439  11.589   5.867 -0.1355 -0.8665 -0.2930
  156MOL0     H21481   7.289  11.522   5.813  0.1497  0.3804 -0.1789
  156MOL0     H21482   7.431  11.755   5.670  2.9862 -2.6558 -0.4532
  156MOL0     H21483   7.428  11.587   5.610  2.7423 -1.2265  2.0210
  156MOL0     H21484   7.215  11.787   5.618  0.3061 -0.9050  4.4372
  156MOL0     H21485   7.280  11.696   5.478  1.7537 -0.0856  0.3052
  156MOL0     H21486   7.206  11.344   5.560 -0.6486  1.9783  2.4257
  156MOL0     H21487   7.229  11.154   5.426 -0.3932  0.0229 -0.1026
  156MOL0     H21488   7.148  11.123   5.269 -4.2186 -1.6880  0.3561
  156MOL0     H21489   7.052  11.125   5.412 -1.3061 -0.3658  0.4330
  156MOL0     H21490   6.797  11.102   5.090  1.7249  2.6658  0.2695
  156MOL0     H21491   6.686  11.018   4.872 -0.4586  0.6635  4.0906
  156MOL0     H21492   6.597  10.975   4.679 -0.7157  0.0103 -0.4386
  156MOL0     H21493   6.641  11.137   4.624 -0.2352 -0.4516  1.8408
  156MOL0     H21494   6.644  10.878   4.453 -2.7942 -0.5547 -2.4719
  156MOL0     H21495   6.518  10.982   4.468 -0.0339 -0.6173  0.1741
  156MOL0     H21496   6.790  11.090   4.337  0.6084  0.7303  1.0853
  156MOL0     H21497   6.664  11.186   4.372 -0.1353 -1.4288  0.3152
  156MOL0     H21498   6.496  11.023   4.249 -0.7060  0.3250  1.8723
  156MOL0     H21499   6.651  10.931   4.206  2.2403  1.8285 -1.8242
  156MOL0     H21500   6.529  11.191   4.131 -1.7507 -2.0246 -1.8266
  156MOL0     H21501   6.706  11.181   4.118  0.2217 -0.2111 -2.3321
  156MOL0     H21502   6.514  10.969   3.975 -0.0930 -0.3888 -2.3199
  156MOL0     H21503   6.678  10.966   3.975  0.0557  0.2184 -0.0835
  156MOL0     H21504   6.694  11.198   3.849 -1.8056  3.4334  2.8625
  156MOL0     H21505   6.518  11.205   3.881 -0.0501  0.2180  1.5418
  156MOL0     H21506   6.458  11.060   3.719  0.4318 -0.8682 -0.1431
  156MOL0     H21507   6.599  10.963   3.738  0.8140 -0.2071  0.1568
  156MOL0     H21508   7.043  11.139   4.653 -1.4481  3.9563 -0.7430
  156MOL0     H21509   7.125  11.244   4.872 -0.5375  0.5746  0.2916
  156MOL0     H21510   6.892  11.574   5.260  4.2132  5.3245 -1.3638
  156MOL0     H21511   6.986  11.695   5.459  2.8651  1.7908 -2.1621
  156MOL0     H21512   7.560  10.589   6.537  0.3540  1.0238 -0.2586
  156MOL0     H21513   7.740  10.435   6.570 -6.4311  0.7106 -0.3200
  156MOL0     H21514   8.333  10.470   6.576 -1.8806 -1.7958 -1.9912
  156MOL0     H21515   8.484  10.268   6.575 -0.0146 -0.6216 -0.3324
  156MOL0     H21516   8.659  10.002   6.692  4.6692  2.5531 -0.4775
  156MOL0     H21517   8.628  10.169   6.673  0.6238  0.1267  0.2056
  156MOL0     H21518   8.593  10.216   6.917  0.4834  0.7886 -1.8062
  156MOL0     H21519   8.755  10.156   6.909  0.3485 -1.9390  0.6477
  156MOL0     H21520   8.671  10.033   7.086 -0.1819 -1.1359 -0.3268
  156MOL0     H21521   8.525   9.984   6.997 -0.3922  2.8646  1.5131
  156MOL0     H21522   8.776   9.891   6.876 -1.8876 -2.8107 -1.5280
  156MOL0     H21523   8.618   9.821   6.882  1.5679  0.9070 -3.4169
  156MOL0     H21524   8.783   9.663   7.234 -0.0436 -1.1023 -0.7348
  156MOL0     H21525   8.198  10.092   6.849  0.0010 -1.6813 -1.4308
  156MOL0     H21526   8.032  10.336   6.947  2.5270 -0.4697  0.6989
  156MOL0     H21527   7.943  10.291   6.804 -1.3496 -1.0318  1.6620
  156MOL0     H21528   8.022  10.171   6.905 -0.3985  0.9372  2.5370
  157MOL0     O21529  10.029   6.488   7.929  0.7978 -1.1015  0.3591
  157MOL0     C21530   9.935   6.509   7.843  0.4852  0.9515  0.0183
  157MOL0     O21531   9.902   6.626   7.786 -0.1911 -0.0057 -0.4081
  157MOL0     C21532   9.970   6.741   7.821  0.0802  0.5656 -0.3478
  157MOL0     C21533   9.891   6.853   7.848 -0.0956 -0.3188  0.1782
  157MOL0     C21534   9.948   6.987   7.869  0.8952  0.6514  1.0543
  157MOL0     C21535  10.085   6.994   7.847 -0.1845 -0.3276 -0.0992
  157MOL0     O21536  10.163   7.104   7.861 -0.2998 -0.5519 -0.4562
  157MOL0     C21537  10.093   7.232   7.867  0.1550 -0.3044 -0.2835
  157MOL0     C21538  10.200   7.350   7.846 -0.3922  0.0554  0.4779
  157MOL0     C21539  10.324   7.345   7.939 -0.6508 -0.5615  0.2489
  157MOL0     C21540  10.434   7.447   7.907 -0.8426  0.5838  0.0970
  157MOL0     C21541  10.437   7.582   7.983  0.7836 -0.6601  0.0934
  157MOL0     C21542  10.519   7.698   7.910 -0.1813 -0.9759  0.2507
  157MOL0     C21543  10.432   7.845   7.908 -1.1660 -0.0444  0.2538
  157MOL0     C21544  10.514   7.973   7.896  0.2241  0.2142  0.3645
  157MOL0     N21545  10.588   7.977   7.776  0.4186  0.1520 -0.0042
  157MOL0     C21546  10.696   7.899   7.749  0.7887  0.0597 -0.3643
  157MOL0     C21547  10.706   7.904   7.615 -0.4340  0.2698 -0.2080
  157MOL0     C21548  10.828   7.841   7.542 -0.0540  0.1446 -0.2371
  157MOL0     C21549  10.861   7.697   7.595 -0.6992  1.1333  0.0764
  157MOL0     C21550  10.923   7.609   7.484  0.1730 -0.4345 -0.2831
  157MOL0     C21551  11.066   7.658   7.438 -0.3177  0.3057  0.5387
  157MOL0     O21552  11.162   7.625   7.534 -0.6065 -0.1838  0.3742
  157MOL0     C21553  11.214   7.496   7.546  0.1776 -0.5114  0.3619
  157MOL0     C21554  11.311   7.480   7.644 -0.3132  0.1720  0.7725
  157MOL0     C21555  11.373   7.359   7.671  0.1813 -0.3323  1.0317
  157MOL0     C21556  11.460   7.342   7.787 -0.0284 -0.4950 -0.3349
  157MOL0     C21557  11.343   7.254   7.580  0.7019 -0.7530  0.4518
  157MOL0     C21558  11.399   7.120   7.565  0.5089 -0.2130 -0.6509
  157MOL0     O21559  11.333   7.017   7.495  0.2517 -0.0938  0.3523
  157MOL0     C21560  11.375   6.882   7.478  0.1550 -1.0156  0.0971
  157MOL0     C21561  11.457   6.817   7.576 -0.2455 -0.8344  0.4625
  157MOL0     C21562  11.462   6.673   7.574 -0.4683 -0.7827  0.3119
  157MOL0     C21563  11.410   6.601   7.461  0.3874  0.8641 -1.0828
  157MOL0     O21564  11.413   6.462   7.462  0.5008  0.5648  0.8446
  157MOL0     C21565  11.523   6.405   7.385  0.3339 -0.0837  0.7713
  157MOL0     C21566  11.660   6.416   7.460  0.7520 -0.4186 -0.8875
  157MOL0     C21567  11.651   6.358   7.604 -0.5978  0.5819 -0.7022
  157MOL0     C21568  11.792   6.354   7.659  0.2789  0.8026 -0.2661
  157MOL0     C21569  11.788   6.338   7.811  0.6002  0.2794  0.2391
  157MOL0     C21570  11.914   6.335   7.884 -0.2390  0.6446  0.2357
  157MOL0     C21571  11.991   6.469   7.877 -0.0391 -0.1495  0.1834
  157MOL0     C21572  12.085   6.477   7.998 -0.7808 -0.3676 -0.8116
  157MOL0    Cl21573  12.227   6.370   8.009 -0.0050 -0.0545 -0.5912
  157MOL0     C21574  11.350   6.667   7.352  0.2226  0.4570  0.4652
  157MOL0     C21575  11.330   6.810   7.368 -0.2474 -0.2943  0.4199
  157MOL0     O21576  11.494   7.096   7.635  0.2076  0.4358  0.5056
  157MOL0     C21577  11.248   7.269   7.474  0.1110 -1.1193  0.0130
  157MOL0     C21578  11.177   7.387   7.460 -0.2047  0.1213  0.0873
  157MOL0     N21579  10.607   7.978   7.560 -0.2476  0.6933 -0.1036
  157MOL0     N21580  10.529   8.010   7.662  0.3766  0.5176  0.2561
  157MOL0     C21581  10.166   6.883   7.807 -0.4934  0.5988  0.6666
  157MOL0     C21582  10.111   6.751   7.804  1.0282  0.0368 -1.0562
  157MOL0     C21583   9.866   6.378   7.806  0.5218 -0.2783  0.0993
  157MOL0     C21584   9.865   6.282   7.904 -0.4141  0.5157  0.5411
  157MOL0     C21585   9.823   6.154   7.881  1.3019  0.3595  0.3505
  157MOL0     C21586   9.762   6.118   7.755  0.0047 -0.1329 -0.1304
  157MOL0     O21587   9.692   5.993   7.741 -0.4727 -1.1230  0.6478
  157MOL0     C21588   9.627   5.957   7.619 -0.3873  0.2698  1.1497
  157MOL0     C21589   9.547   5.824   7.605 -0.6181 -0.7314 -0.5971
  157MOL0     C21590   9.620   5.700   7.663 -0.2618 -0.3799 -0.9483
  157MOL0     C21591   9.616   5.583   7.559  0.0813 -0.9406 -0.5541
  157MOL0     C21592   9.483   5.528   7.560 -0.3623  0.1140 -0.8432
  157MOL0     C21593   9.371   5.479   7.556 -0.1660  0.1640 -0.4244
  157MOL0     C21594   9.776   6.215   7.654 -0.0334  0.5719  0.3022
  157MOL0     C21595   9.830   6.345   7.674  0.6503 -0.1983  0.4889
  157MOL0     C21596   9.836   6.434   7.552  0.1177 -0.6776  0.0033
  157MOL0     H21597   9.783   6.841   7.837  0.1617 -2.8364 -0.0727
  157MOL0     H21598   9.875   7.067   7.876 -0.1596 -0.1378 -0.1845
  157MOL0     H21599  10.032   7.243   7.957 -1.6153  0.9988 -1.5840
  157MOL0     H21600  10.025   7.241   7.781 -1.2537 -1.7297  0.6090
  157MOL0     H21601  10.221   7.353   7.739  0.7541 -2.4347  0.5671
  157MOL0     H21602  10.147   7.445   7.859 -2.6392 -0.8802 -1.1345
  157MOL0     H21603  10.297   7.358   8.044  0.3117  2.2785  0.2370
  157MOL0     H21604  10.378   7.252   7.922 -1.7738 -1.2205  0.1782
  157MOL0     H21605  10.529   7.396   7.927  0.0696  1.6618 -1.2708
  157MOL0     H21606  10.441   7.466   7.799  0.4850  0.7584  0.1938
  157MOL0     H21607  10.471   7.560   8.084  0.4216 -0.4688  0.2573
  157MOL0     H21608  10.331   7.604   7.999  1.3416 -0.0006  3.5331
  157MOL0     H21609  10.618   7.703   7.955  0.8082  0.3512 -1.9038
  157MOL0     H21610  10.535   7.676   7.804  0.7170  1.3545 -0.1474
  157MOL0     H21611  10.384   7.847   8.007  1.2632  1.4713  1.4979
  157MOL0     H21612  10.368   7.837   7.819 -0.2715 -0.1368 -0.3891
  157MOL0     H21613  10.449   8.061   7.893  1.3351  1.0202 -0.8913
  157MOL0     H21614  10.580   7.988   7.982 -0.2760 -0.5600  0.8897
  157MOL0     H21615  10.747   7.840   7.824  0.1837  0.0490  0.0500
  157MOL0     H21616  10.917   7.900   7.563  0.1613 -1.1636  3.0898
  157MOL0     H21617  10.805   7.840   7.435  0.1132  1.8794 -0.3289
  157MOL0     H21618  10.937   7.710   7.672 -0.5150 -2.4558  0.6804
  157MOL0     H21619  10.771   7.649   7.634  0.3279 -0.0879  1.0346
  157MOL0     H21620  10.944   7.516   7.538  1.5717 -0.8613 -1.4756
  157MOL0     H21621  10.856   7.587   7.400 -2.7718  4.5852  0.3399
  157MOL0     H21622  11.095   7.621   7.339  0.4264  1.2317  0.3984
  157MOL0     H21623  11.079   7.767   7.441 -0.6882  0.3361  3.7494
  157MOL0     H21624  11.324   7.567   7.709 -0.8848  0.9426 -0.1194
  157MOL0     H21625  11.552   7.296   7.749  0.1896  0.4091 -0.9302
  157MOL0     H21626  11.423   7.277   7.867 -0.4893  0.0581 -0.0909
  157MOL0     H21627  11.479   7.437   7.837  1.2790 -0.5211 -0.7554
  157MOL0     H21628  11.493   6.866   7.666  1.1020 -1.2482  0.1782
  157MOL0     H21629  11.509   6.607   7.646  1.1365 -2.1371 -1.8377
  157MOL0     H21630  11.504   6.300   7.364  2.6026 -0.7918  1.9113
  157MOL0     H21631  11.534   6.458   7.290 -0.1980 -1.4221 -0.0702
  157MOL0     H21632  11.729   6.358   7.397  0.9336  1.4185 -2.4597
  157MOL0     H21633  11.708   6.514   7.460 -1.4165  0.7336  0.8722
  157MOL0     H21634  11.596   6.264   7.611 -1.0949  0.8237 -1.2684
  157MOL0     H21635  11.595   6.429   7.664  0.0914  1.8186 -1.4698
  157MOL0     H21636  11.842   6.450   7.640 -0.8568  1.5617  0.4617
  157MOL0     H21637  11.845   6.268   7.617 -0.1393 -0.7763  2.2353
  157MOL0     H21638  11.720   6.414   7.850  0.0184  1.0083 -2.0863
  157MOL0     H21639  11.748   6.239   7.836  1.2210  0.3428  1.5495
  157MOL0     H21640  11.977   6.252   7.851 -1.5327  0.4107 -1.8467
  157MOL0     H21641  11.887   6.321   7.989 -1.9690 -0.9412 -0.3603
  157MOL0     H21642  11.917   6.548   7.861 -0.8179 -0.8942  0.0283
  157MOL0     H21643  12.057   6.471   7.789 -0.5424  0.8923 -0.1794
  157MOL0     H21644  12.029   6.466   8.091  0.4983 -0.2149 -0.0083
  157MOL0     H21645  12.123   6.579   7.988  1.3263 -1.1395 -1.1690
  157MOL0     H21646  11.316   6.602   7.273 -0.0278 -0.3846  1.2425
  157MOL0     H21647  11.284   6.873   7.292 -3.1236 -2.3259  0.3306
  157MOL0     H21648  11.227   7.204   7.389 -0.6874 -0.2063 -0.5072
  157MOL0     H21649  11.115   7.401   7.373  2.8598 -1.3113 -2.5261
  157MOL0     H21650  10.271   6.894   7.784 -0.5529  0.4482  0.3183
  157MOL0     H21651  10.161   6.656   7.791 -0.7392 -0.6825 -3.3537
  157MOL0     H21652   9.908   6.294   8.003  0.9459 -0.2914  0.0804
  157MOL0     H21653   9.803   6.088   7.964 -1.9620  0.5031 -0.1769
  157MOL0     H21654   9.556   6.035   7.591 -2.1005 -2.4534 -3.3088
  157MOL0     H21655   9.689   5.947   7.529 -0.7302 -0.7497  1.0021
  157MOL0     H21656   9.516   5.815   7.500 -0.5340  0.8371 -0.7729
  157MOL0     H21657   9.461   5.832   7.672  0.2592 -1.7593  0.7065
  157MOL0     H21658   9.725   5.727   7.678 -0.4634 -0.5343  1.0392
  157MOL0     H21659   9.588   5.677   7.765 -0.2562  0.8083 -0.6680
  157MOL0     H21660   9.684   5.501   7.586 -1.6803 -2.2832 -0.0506
  157MOL0     H21661   9.653   5.614   7.460 -1.0402  3.3484  0.1904
  157MOL0     H21662   9.278   5.429   7.539 -0.6677  0.3877  1.3715
  157MOL0     H21663   9.768   6.185   7.550  0.5212  3.9490 -0.8511
  157MOL0     H21664   9.863   6.534   7.587 -1.9228 -0.0471 -0.0986
  157MOL0     H21665   9.914   6.397   7.485  0.0337 -1.6166  0.4195
  157MOL0     H21666   9.739   6.443   7.501 -0.6290  1.3275  1.6176
  158MOL0     O21667   5.740   1.214   7.768 -0.0676  0.2787 -0.3275
  158MOL0     C21668   5.692   1.129   7.696 -0.6791  0.0209  0.2620
  158MOL0     O21669   5.557   1.095   7.693  0.2391  0.3532 -0.5073
  158MOL0     C21670   5.470   1.161   7.778 -0.5775  0.0290 -0.3290
  158MOL0     C21671   5.361   1.221   7.723 -0.5881 -0.4847 -0.2657
  158MOL0     C21672   5.292   1.316   7.789  0.6132 -0.1029 -0.6370
  158MOL0     C21673   5.315   1.329   7.929 -0.3546  0.8194 -0.4475
  158MOL0     O21674   5.238   1.417   8.000  0.1716 -0.1432 -0.6204
  158MOL0     C21675   5.254   1.428   8.142  0.8144 -0.1565  0.7706
  158MOL0     C21676   5.164   1.546   8.195  0.7021 -0.4126 -0.8149
  158MOL0     C21677   5.013   1.525   8.195 -0.1405 -0.7895 -0.5963
  158MOL0     C21678   4.959   1.383   8.204 -0.5740  0.4719  0.7290
  158MOL0     C21679   4.810   1.397   8.220 -0.8099 -0.4128  0.7754
  158MOL0     C21680   4.729   1.267   8.187  0.4722 -0.1503  0.8438
  158MOL0     C21681   4.601   1.273   8.257  0.3369  0.1609  0.0805
  158MOL0     C21682   4.509   1.152   8.229  0.4499  0.3171  0.2524
  158MOL0     N21683   4.565   1.036   8.302 -0.3027 -0.3368  0.3243
  158MOL0     C21684   4.560   1.027   8.440  0.4070 -1.5007 -0.1113
  158MOL0     C21685   4.622   0.908   8.460 -0.2578  0.1315  0.0037
  158MOL0     C21686   4.609   0.837   8.587 -0.6698 -0.3881  0.7883
  158MOL0     C21687   4.672   0.695   8.573  1.5852  0.1188  0.1899
  158MOL0     C21688   4.664   0.606   8.695 -0.5846 -0.9974  0.3959
  158MOL0     C21689   4.747   0.481   8.684  0.9639  0.2002  0.1631
  158MOL0     O21690   4.879   0.532   8.703 -0.2062  0.0003  0.6312
  158MOL0     C21691   4.966   0.442   8.650  0.2768 -0.7544  0.7268
  158MOL0     C21692   4.997   0.324   8.724 -0.0082 -0.6830  0.7215
  158MOL0     C21693   5.099   0.237   8.681 -0.0397 -0.2353  0.2648
  158MOL0     C21694   5.127   0.107   8.752  0.4928  0.2427  0.8024
  158MOL0     C21695   5.180   0.268   8.564 -0.0965 -0.4929  0.6328
  158MOL0     C21696   5.285   0.182   8.521  0.9678  0.2564 -0.4068
  158MOL0     O21697   5.390   0.257   8.474 -0.2818  0.9701  0.4026
  158MOL0     C21698   5.515   0.201   8.441 -0.8895 -0.6346 -0.0972
  158MOL0     C21699   5.618   0.175   8.543 -0.0389  0.5350  0.2687
  158MOL0     C21700   5.741   0.124   8.493 -0.8705  0.3842  0.0088
  158MOL0     C21701   5.771   0.100   8.359  0.2392  0.5065 -0.8363
  158MOL0     O21702   5.898   0.061   8.326 -0.5996  0.3163 -0.4380
  158MOL0     C21703   5.918  -0.013   8.204 -0.1322  0.5134  0.2565
  158MOL0     C21704   6.068  -0.020   8.155 -0.2525  0.3848  1.3734
  158MOL0     C21705   6.160  -0.100   8.246  0.0719  0.3382  0.6713
  158MOL0     C21706   6.159  -0.254   8.225  0.0207 -1.3361 -0.3211
  158MOL0     C21707   6.210  -0.319   8.352  0.4175  0.5299 -0.3594
  158MOL0     C21708   6.364  -0.297   8.393 -0.3701  0.3421  0.6918
  158MOL0     C21709   6.385  -0.349   8.537 -0.1144 -0.3935 -0.8216
  158MOL0     C21710   6.537  -0.346   8.576 -1.1684  0.3155  0.0725
  158MOL0    Cl21711   6.561  -0.365   8.748  0.1070 -0.3525  0.3512
  158MOL0     C21712   5.672   0.118   8.271  0.8940  0.4832 -0.3342
  158MOL0     C21713   5.543   0.165   8.307 -0.6472 -0.2954  0.7178
  158MOL0     O21714   5.284   0.058   8.533  0.0215 -0.4338  0.8610
  158MOL0     C21715   5.159   0.390   8.500  0.9527 -0.5863  0.1620
  158MOL0     C21716   5.058   0.476   8.552 -0.8560  0.7036  0.2317
  158MOL0     N21717   4.671   0.852   8.346 -0.9016 -0.3443  0.2193
  158MOL0     N21718   4.635   0.934   8.256  0.8608  0.5451 -0.5951
  158MOL0     C21719   5.417   1.257   7.991  0.0896 -0.4471 -1.3510
  158MOL0     C21720   5.494   1.174   7.913 -0.0688  0.1784 -1.2368
  158MOL0     C21721   5.770   1.084   7.579  0.7574 -0.1168 -0.5286
  158MOL0     C21722   5.906   1.045   7.598  0.2485  0.7503  0.4533
  158MOL0     C21723   5.984   1.006   7.488 -0.4088 -0.9193  1.0260
  158MOL0     C21724   5.934   1.007   7.360 -0.0103 -0.2124  0.2079
  158MOL0     O21725   5.999   0.960   7.243 -0.4435  0.2092  0.3904
  158MOL0     C21726   6.103   0.869   7.259 -1.0561 -0.7803  0.0801
  158MOL0     C21727   6.130   0.804   7.129 -0.6731  0.0099 -0.4296
  158MOL0     C21728   6.262   0.722   7.127 -0.0428 -0.4679  0.5452
  158MOL0     C21729   6.358   0.768   7.022 -0.4751 -0.3493 -0.4413
  158MOL0     C21730   6.319   0.724   6.894  0.0217 -0.3676  0.0012
  158MOL0     C21731   6.287   0.665   6.791 -0.0224 -0.6211  0.7326
  158MOL0     C21732   5.801   1.046   7.342  0.0051 -0.1741  0.2728
  158MOL0     C21733   5.723   1.086   7.446 -0.3284  0.0548  0.9077
  158MOL0     C21734   5.581   1.123   7.407  0.6922 -0.4363 -0.7574
  158MOL0     H21735   5.356   1.205   7.615  0.4143 -1.5512 -0.1727
  158MOL0     H21736   5.205   1.366   7.746 -1.5293 -0.2972  3.0544
  158MOL0     H21737   5.357   1.452   8.172  0.0689  0.0401  3.5252
  158MOL0     H21738   5.219   1.338   8.193 -1.4950 -1.6181 -2.9939
  158MOL0     H21739   5.194   1.581   8.294  0.7228  1.1441 -1.3466
  158MOL0     H21740   5.180   1.634   8.133 -1.1831  0.6444  0.1246
  158MOL0     H21741   4.983   1.578   8.286  0.8492  0.9328 -1.2206
  158MOL0     H21742   4.969   1.575   8.109 -2.6811 -0.2634  0.8790
  158MOL0     H21743   4.968   1.333   8.107 -0.3785  0.6088  0.6758
  158MOL0     H21744   5.007   1.319   8.279  1.7755 -0.0475 -1.1094
  158MOL0     H21745   4.780   1.478   8.153 -3.4153 -0.6463  1.5644
  158MOL0     H21746   4.790   1.444   8.317 -1.9989 -1.0057  0.8268
  158MOL0     H21747   4.714   1.262   8.079 -0.0883 -2.5862  0.9781
  158MOL0     H21748   4.781   1.177   8.220 -1.0613 -0.4114  2.7519
  158MOL0     H21749   4.552   1.364   8.221 -2.0606 -1.3036 -0.5987
  158MOL0     H21750   4.611   1.290   8.365 -1.4252  0.0628  0.2881
  158MOL0     H21751   4.406   1.166   8.265  0.7218  2.1148  0.3905
  158MOL0     H21752   4.503   1.132   8.121 -1.1644 -1.5833  0.6264
  158MOL0     H21753   4.515   1.102   8.504  1.0257  0.2428 -1.6144
  158MOL0     H21754   4.504   0.834   8.618 -1.0336  1.7316 -0.1000
  158MOL0     H21755   4.657   0.883   8.674 -0.8584 -0.7010  1.0612
  158MOL0     H21756   4.610   0.651   8.494 -1.2587  0.7574  1.9261
  158MOL0     H21757   4.777   0.704   8.542  1.2874 -0.5234 -1.1038
  158MOL0     H21758   4.711   0.669   8.771 -0.9924  3.0743 -2.4277
  158MOL0     H21759   4.567   0.573   8.733 -0.2741 -0.2178  1.9638
  158MOL0     H21760   4.713   0.402   8.752 -0.4400  0.7787  0.1643
  158MOL0     H21761   4.728   0.450   8.581 -1.1809  1.7976  0.0164
  158MOL0     H21762   4.935   0.287   8.805 -1.9595 -2.9554 -1.6395
  158MOL0     H21763   5.104   0.098   8.859 -0.2892 -4.1541  0.4321
  158MOL0     H21764   5.234   0.089   8.748  0.8765  1.4336  3.5433
  158MOL0     H21765   5.089   0.021   8.697  1.6595 -1.5332  2.6501
  158MOL0     H21766   5.612   0.197   8.649  1.3167 -1.7867  0.8992
  158MOL0     H21767   5.825   0.093   8.555 -0.3741 -1.7901 -1.6272
  158MOL0     H21768   5.887  -0.117   8.213 -2.0015  1.1782  2.3802
  158MOL0     H21769   5.871   0.035   8.117  1.0366  0.0314 -0.6828
  158MOL0     H21770   6.060  -0.068   8.057 -1.4352 -2.1026  2.5853
  158MOL0     H21771   6.098   0.085   8.151 -2.9921  1.2184 -0.7267
  158MOL0     H21772   6.131  -0.074   8.348  1.9122  1.9849  0.8460
  158MOL0     H21773   6.258  -0.054   8.230 -1.1986  2.2993 -2.6574
  158MOL0     H21774   6.203  -0.281   8.128 -1.0081 -1.0110 -0.9016
  158MOL0     H21775   6.054  -0.285   8.220  0.2599 -2.0750 -1.0447
  158MOL0     H21776   6.150  -0.281   8.435  1.8897  1.0380  0.5274
  158MOL0     H21777   6.187  -0.426   8.348 -0.3003  0.6683 -0.0280
  158MOL0     H21778   6.382  -0.191   8.375 -0.0016 -0.1599 -2.4477
  158MOL0     H21779   6.431  -0.350   8.325  1.0836  0.6760  1.8251
  158MOL0     H21780   6.342  -0.448   8.549 -3.7671  0.5752 -3.8901
  158MOL0     H21781   6.340  -0.276   8.605  1.6479 -1.2275  1.3756
  158MOL0     H21782   6.582  -0.251   8.544 -3.6335  2.1402  1.6124
  158MOL0     H21783   6.590  -0.428   8.527  1.7362  1.6478  0.7426
  158MOL0     H21784   5.668   0.092   8.166  0.6401  0.7862 -0.3999
  158MOL0     H21785   5.466   0.159   8.231 -0.0501 -1.9034  0.2070
  158MOL0     H21786   5.218   0.417   8.414  2.6547  0.1688  1.5075
  158MOL0     H21787   5.044   0.580   8.522  0.6980  1.2813  1.4011
  158MOL0     H21788   5.439   1.252   8.097  0.3778 -0.3748 -1.4076
  158MOL0     H21789   5.585   1.142   7.962  1.5619  4.2221 -1.2252
  158MOL0     H21790   5.953   1.051   7.695 -0.4184 -3.2597  1.2004
  158MOL0     H21791   6.086   0.972   7.501 -0.7071 -1.1350  3.0364
  158MOL0     H21792   6.191   0.926   7.289  0.2004 -0.1711 -4.1224
  158MOL0     H21793   6.083   0.795   7.337 -1.0194 -1.6408 -0.7034
  158MOL0     H21794   6.132   0.873   7.044  1.8005 -2.0011 -2.1647
  158MOL0     H21795   6.049   0.736   7.102  0.6564 -1.0597 -1.8924
  158MOL0     H21796   6.307   0.724   7.227 -0.9432 -1.8553  1.0063
  158MOL0     H21797   6.239   0.615   7.119  5.9520 -2.3848  2.8188
  158MOL0     H21798   6.458   0.729   7.042  1.2427  3.4982 -0.7188
  158MOL0     H21799   6.387   0.873   7.022 -4.2022  0.8883 -2.8865
  158MOL0     H21800   6.271   0.620   6.695 -2.8764  1.0338  0.3058
  158MOL0     H21801   5.758   1.062   7.244 -2.2994  4.7876  1.7471
  158MOL0     H21802   5.583   1.158   7.303  2.3460 -1.7523 -1.2156
  158MOL0     H21803   5.512   1.041   7.431  0.1473  1.0438  3.6379
  158MOL0     H21804   5.539   1.207   7.463 -2.4964 -0.7957 -2.3779
  159MOL0     O21805   6.265   6.359   8.713 -0.7209  0.5347  0.9481
  159MOL0     C21806   6.384   6.386   8.713 -0.5302 -0.9538 -0.6658
  159MOL0     O21807   6.451   6.452   8.815 -0.1696 -0.0835 -0.2338
  159MOL0     C21808   6.393   6.439   8.938 -0.2396  0.4629 -0.2175
  159MOL0     C21809   6.445   6.327   9.011  0.6074 -0.2117 -0.3403
  159MOL0     C21810   6.390   6.308   9.141  0.4766  0.3144 -0.5906
  159MOL0     C21811   6.285   6.395   9.179  0.3767  0.7607 -0.2049
  159MOL0     O21812   6.226   6.357   9.298 -0.6254 -0.0730  0.2397
  159MOL0     C21813   6.164   6.236   9.300 -0.7031 -0.1567  1.0065
  159MOL0     C21814   6.224   6.164   9.424 -0.6623  0.5523 -0.0842
  159MOL0     C21815   6.162   6.027   9.445  0.0264 -0.1580 -1.0929
  159MOL0     C21816   6.177   5.973   9.588 -0.3837  0.7689  0.2712
  159MOL0     C21817   6.055   6.003   9.671 -0.0458  0.7093  1.1354
  159MOL0     C21818   6.071   5.929   9.809  0.1222 -0.2260 -0.0062
  159MOL0     C21819   5.966   5.970   9.905  0.5028 -0.5200 -1.1786
  159MOL0     C21820   5.834   5.922   9.869 -0.4555  0.3282 -0.4830
  159MOL0     N21821   5.752   5.949   9.982  0.2138  0.2730 -0.0560
  159MOL0     C21822   5.702   5.856  10.072 -0.1619 -0.6684  0.6510
  159MOL0     C21823   5.624   5.934  10.150  0.1701  1.0053 -0.5052
  159MOL0     C21824   5.554   5.908  10.284  0.3682 -0.1059  0.6096
  159MOL0     C21825   5.587   6.005  10.391  0.0092 -0.4734 -0.1849
  159MOL0     C21826   5.728   6.041  10.390 -0.2063 -0.6560 -0.3296
  159MOL0     C21827   5.748   6.180  10.456  0.2865  0.4121 -0.9719
  159MOL0     O21828   5.712   6.167  10.597  0.7389 -0.2595  0.5087
  159MOL0     C21829   5.713   6.275  10.675 -0.8801 -0.5872  0.3550
  159MOL0     C21830   5.753   6.404  10.643 -0.7064  0.1537 -0.5749
  159MOL0     C21831   5.777   6.505  10.737  0.4304  0.1560  0.0349
  159MOL0     C21832   5.839   6.628  10.683 -0.7029  0.2286 -0.9420
  159MOL0     C21833   5.752   6.473  10.872 -0.3566 -0.2125 -0.4983
  159MOL0     C21834   5.765   6.563  10.994  0.3063 -0.2991  0.6477
  159MOL0     O21835   5.748   6.506  11.108 -0.0842  0.1157  0.5092
  159MOL0     C21836   5.734   6.570  11.223 -1.4853 -0.1873 -0.4538
  159MOL0     C21837   5.761   6.497  11.346  0.0885  0.7537  0.5053
  159MOL0     C21838   5.739   6.554  11.469 -0.5211 -0.1458  0.8399
  159MOL0     C21839   5.689   6.684  11.480  0.1236 -0.4832 -0.3205
  159MOL0     O21840   5.660   6.736  11.602  0.1353  0.8733 -0.6085
  159MOL0     C21841   5.762   6.814  11.658  0.1839 -0.0094 -0.7140
  159MOL0     C21842   5.798   6.939  11.589 -0.2964 -0.0540 -0.4639
  159MOL0     C21843   5.873   7.035  11.682  1.0608 -0.1231 -0.1046
  159MOL0     C21844   5.862   7.187  11.633 -0.8226 -0.0205 -0.2300
  159MOL0     C21845   5.973   7.263  11.714  0.3396  0.3346  0.7673
  159MOL0     C21846   5.988   7.404  11.649 -0.4566 -0.9919 -0.2206
  159MOL0     C21847   6.072   7.487  11.748 -0.5332  0.3253  0.5705
  159MOL0     C21848   6.098   7.629  11.708 -0.2693 -1.0651 -0.4187
  159MOL0    Cl21849   5.944   7.722  11.713 -0.0326  0.1798  0.0843
  159MOL0     C21850   5.673   6.757  11.365  0.5868 -0.2862 -0.4375
  159MOL0     C21851   5.689   6.706  11.237  0.0269  0.0574 -0.4418
  159MOL0     O21852   5.792   6.683  10.974  0.0011  0.2449  0.0969
  159MOL0     C21853   5.699   6.341  10.905  0.4759 -1.0405 -0.3373
  159MOL0     C21854   5.679   6.252  10.808 -0.5169  1.0002  0.0123
  159MOL0     N21855   5.611   6.054  10.095  0.2722 -0.0053  0.2409
  159MOL0     N21856   5.695   6.072  10.001 -0.0896  0.4165  0.2763
  159MOL0     C21857   6.235   6.500   9.109 -0.9057 -0.6707 -1.0431
  159MOL0     C21858   6.290   6.524   8.983 -0.7796  0.6724  0.6610
  159MOL0     C21859   6.456   6.391   8.589  0.1610 -0.2932 -0.5362
  159MOL0     C21860   6.514   6.513   8.543  0.7310 -0.8803 -0.3961
  159MOL0     C21861   6.563   6.515   8.413 -0.1737 -0.0566  0.0160
  159MOL0     C21862   6.568   6.401   8.333 -0.4807 -0.2363  0.0369
  159MOL0     O21863   6.630   6.422   8.206  0.3246  0.2336 -1.3865
  159MOL0     C21864   6.663   6.316   8.120 -1.2992  0.2957  0.2454
  159MOL0     C21865   6.538   6.306   8.034  1.2191 -0.6985  0.5735
  159MOL0     C21866   6.515   6.163   7.977  0.6243 -0.5202 -0.7118
  159MOL0     C21867   6.471   6.058   8.077 -0.2537  0.7883 -0.2005
  159MOL0     C21868   6.450   5.926   8.005 -0.2750 -0.5709  0.4172
  159MOL0     C21869   6.440   5.818   7.950  0.1019 -0.7317  0.0324
  159MOL0     C21870   6.520   6.281   8.382  0.6418 -0.4901 -0.2701
  159MOL0     C21871   6.454   6.273   8.508 -0.0328 -0.2612  0.5166
  159MOL0     C21872   6.380   6.143   8.545  0.5630 -0.1239 -0.0818
  159MOL0     H21873   6.529   6.263   8.987  1.8340  0.0764  2.6972
  159MOL0     H21874   6.428   6.229   9.205  0.5778  0.2353 -0.7478
  159MOL0     H21875   6.197   6.178   9.213  1.8854  1.8214  0.5553
  159MOL0     H21876   6.055   6.245   9.301 -0.9721 -2.0438 -1.5253
  159MOL0     H21877   6.333   6.170   9.417 -0.3036  5.6209  3.8889
  159MOL0     H21878   6.210   6.227   9.512  1.9556  3.0109 -1.2295
  159MOL0     H21879   6.054   6.027   9.430 -0.4937  0.9780  1.8722
  159MOL0     H21880   6.202   5.955   9.373 -1.1113 -0.7641 -1.1433
  159MOL0     H21881   6.180   5.863   9.589 -1.0015  0.7271  2.1610
  159MOL0     H21882   6.267   5.999   9.644 -2.5644  2.3282  3.3805
  159MOL0     H21883   5.965   5.971   9.618 -0.8134  3.0221  0.9521
  159MOL0     H21884   6.049   6.112   9.680  0.6449  0.9257 -0.5691
  159MOL0     H21885   6.056   5.822   9.791 -0.2473  0.0871 -1.7548
  159MOL0     H21886   6.170   5.950   9.850 -0.0788  4.2011 -1.1922
  159MOL0     H21887   5.958   6.078   9.920 -1.9393 -0.7743 -0.1163
  159MOL0     H21888   5.995   5.913   9.993  0.3475  0.3112 -0.5744
  159MOL0     H21889   5.800   5.969   9.776  0.5090 -0.8112 -1.4530
  159MOL0     H21890   5.849   5.815   9.849  3.3690  0.1650  2.2577
  159MOL0     H21891   5.727   5.752  10.094 -2.5032 -1.0687  1.8188
  159MOL0     H21892   5.555   5.803  10.317 -3.4740 -0.2762  0.6799
  159MOL0     H21893   5.447   5.918  10.263  0.0997  0.7835  2.2275
  159MOL0     H21894   5.529   6.095  10.371  2.0749  0.5973 -1.7008
  159MOL0     H21895   5.558   5.958  10.486  0.0734 -2.0528 -0.9195
  159MOL0     H21896   5.790   5.973  10.450  1.4717  1.1509  0.1044
  159MOL0     H21897   5.756   6.073  10.289 -0.1930  0.8159  0.1144
  159MOL0     H21898   5.840   6.233  10.434  1.2626 -1.4293 -1.5408
  159MOL0     H21899   5.674   6.247  10.411  0.2236 -0.0193 -1.5274
  159MOL0     H21900   5.781   6.430  10.541 -0.2546 -0.7979 -0.7060
  159MOL0     H21901   5.923   6.666  10.742 -1.4663  1.1535 -0.4179
  159MOL0     H21902   5.762   6.706  10.682 -0.2672  0.7747  1.2457
  159MOL0     H21903   5.888   6.622  10.585  0.2966  3.1359 -0.7094
  159MOL0     H21904   5.781   6.392  11.332 -0.0321  1.0000 -1.8520
  159MOL0     H21905   5.755   6.500  11.562 -1.2608  0.2826  1.2302
  159MOL0     H21906   5.726   6.841  11.758  3.1742 -1.3649  0.8724
  159MOL0     H21907   5.850   6.750  11.673 -0.7675 -1.1835  0.0385
  159MOL0     H21908   5.853   6.916  11.497 -2.2529 -4.5931 -0.7719
  159MOL0     H21909   5.708   6.990  11.553  0.1423  1.5813  0.6860
  159MOL0     H21910   5.973   6.992  11.690  0.6144 -0.7565  3.6558
  159MOL0     H21911   5.816   7.021  11.774 -0.9764 -1.8590 -1.5115
  159MOL0     H21912   5.764   7.221  11.667 -2.9536 -6.3472  1.4642
  159MOL0     H21913   5.870   7.194  11.524  0.5487 -2.3531 -0.3588
  159MOL0     H21914   5.939   7.279  11.816  2.6483  0.7010  1.5371
  159MOL0     H21915   6.075   7.224  11.710  0.6967  1.1546  1.6038
  159MOL0     H21916   5.893   7.457  11.636  0.6425  0.9068 -0.9608
  159MOL0     H21917   6.035   7.401  11.550  2.0991 -0.0311  0.9033
  159MOL0     H21918   6.170   7.439  11.740  0.1221  1.8493 -1.3593
  159MOL0     H21919   6.024   7.480  11.846 -3.4362 -0.5386 -0.7908
  159MOL0     H21920   6.150   7.637  11.612  0.3278  0.1744 -0.0112
  159MOL0     H21921   6.165   7.670  11.784 -1.5108 -1.2293  0.8077
  159MOL0     H21922   5.621   6.851  11.382  1.0421 -0.1440  0.1944
  159MOL0     H21923   5.668   6.777  11.158  0.9352  1.2979  0.3904
  159MOL0     H21924   5.676   6.314  11.007 -0.4913  2.3876  0.4830
  159MOL0     H21925   5.650   6.153  10.842  1.3078  1.5281  3.5511
  159MOL0     H21926   6.149   6.550   9.151 -1.4746  0.1616 -3.0517
  159MOL0     H21927   6.245   6.608   8.933 -1.7643 -0.3883 -0.2795
  159MOL0     H21928   6.518   6.608   8.596 -1.0965 -1.0200  0.0612
  159MOL0     H21929   6.610   6.607   8.378 -0.5404  0.2638  0.3421
  159MOL0     H21930   6.743   6.338   8.048  0.8891 -3.3715  1.2699
  159MOL0     H21931   6.694   6.225   8.173 -1.4977 -1.9561 -3.1604
  159MOL0     H21932   6.549   6.386   7.960 -0.0616 -1.6434 -0.6968
  159MOL0     H21933   6.449   6.323   8.096  0.2944 -2.6698 -0.1477
  159MOL0     H21934   6.437   6.174   7.901  0.6477 -1.0359 -0.8168
  159MOL0     H21935   6.605   6.129   7.925 -0.1172  1.1948 -3.3002
  159MOL0     H21936   6.380   6.083   8.133 -0.3890  0.3532 -0.2216
  159MOL0     H21937   6.542   6.034   8.156  0.4403 -0.0923 -1.0718
  159MOL0     H21938   6.441   5.726   7.894 -1.2034 -0.2217 -0.8699
  159MOL0     H21939   6.529   6.203   8.308  1.7629 -1.1252  0.4896
  159MOL0     H21940   6.393   6.110   8.648  1.3607 -2.5713 -0.8857
  159MOL0     H21941   6.271   6.146   8.534  0.5979  0.1811 -0.3551
  159MOL0     H21942   6.408   6.067   8.472 -0.5209 -0.0056 -0.6376
  160MOL0     O21943   6.558   5.983   9.053 -0.0258  0.3835 -0.1599
  160MOL0     C21944   6.547   6.001   8.932  1.0149  0.0307  0.4352
  160MOL0     O21945   6.439   5.976   8.846  0.1556 -0.4498 -0.5991
  160MOL0     C21946   6.317   5.935   8.895  0.1494 -0.2773  0.5510
  160MOL0     C21947   6.302   5.835   8.998 -0.0022  0.2501  0.2555
  160MOL0     C21948   6.176   5.790   9.026 -0.0164  0.3724 -0.3934
  160MOL0     C21949   6.060   5.850   8.975  0.9710 -1.1737 -0.3218
  160MOL0     O21950   5.933   5.823   9.021 -0.2438  0.7508  0.5132
  160MOL0     C21951   5.888   5.682   9.034  0.4230 -0.3399 -0.6417
  160MOL0     C21952   5.825   5.685   9.177  0.6928  0.3363 -0.8044
  160MOL0     C21953   5.912   5.592   9.277 -0.2175 -0.3236 -0.5761
  160MOL0     C21954   5.839   5.594   9.414 -0.0756 -0.7685 -0.5887
  160MOL0     C21955   5.899   5.482   9.494  0.1901  0.0279 -0.1793
  160MOL0     C21956   5.879   5.488   9.647 -0.1125 -0.1186  0.1845
  160MOL0     C21957   5.747   5.540   9.701  0.0041 -0.6672  0.9959
  160MOL0     C21958   5.739   5.543   9.861  0.5201 -1.0779  0.7753
  160MOL0     N21959   5.682   5.423   9.918  1.0981  0.3478 -0.0612
  160MOL0     C21960   5.764   5.319   9.948 -0.3870  0.8465  0.4797
  160MOL0     C21961   5.682   5.219   9.991  0.4366  0.2511 -0.6250
  160MOL0     C21962   5.715   5.074  10.008  0.1924 -1.0136 -0.2427
  160MOL0     C21963   5.754   5.015   9.878 -0.8969 -0.6839 -0.1498
  160MOL0     C21964   5.753   4.865   9.890 -0.3911 -0.0684  0.8824
  160MOL0     C21965   5.825   4.789   9.774 -0.5131 -0.1268 -0.8121
  160MOL0     O21966   5.960   4.847   9.737 -0.1671  0.4291  0.6665
  160MOL0     C21967   5.978   4.909   9.612  0.0597  0.0973  0.1419
  160MOL0     C21968   5.867   4.977   9.540  0.5239 -0.0056 -0.6952
  160MOL0     C21969   5.890   5.047   9.417 -0.9417 -0.0116 -0.8595
  160MOL0     C21970   5.773   5.090   9.337 -0.1625 -0.5537 -0.3734
  160MOL0     C21971   6.024   5.061   9.363  0.8580  0.0289 -0.6206
  160MOL0     C21972   6.055   5.136   9.246 -0.1626 -0.7386 -0.4748
  160MOL0     O21973   6.184   5.154   9.223  0.5667  0.3320 -0.4455
  160MOL0     C21974   6.229   5.209   9.103 -0.4659  0.7986  0.4433
  160MOL0     C21975   6.219   5.344   9.070 -0.4015  0.1890  0.0087
  160MOL0     C21976   6.288   5.393   8.964  0.4481 -0.3631 -0.4533
  160MOL0     C21977   6.368   5.311   8.888 -0.1093  0.4531 -0.0815
  160MOL0     O21978   6.426   5.371   8.783  0.3839 -0.3523  0.2661
  160MOL0     C21979   6.388   5.339   8.653  1.2386  0.8798 -0.2501
  160MOL0     C21980   6.495   5.368   8.553  0.2893  0.2953  0.0530
  160MOL0     C21981   6.439   5.318   8.412 -0.0713  1.0909 -0.4567
  160MOL0     C21982   6.500   5.385   8.298  0.3251 -0.4744 -0.7842
  160MOL0     C21983   6.444   5.357   8.160 -0.8482  1.4733  0.0985
  160MOL0     C21984   6.449   5.214   8.123 -0.2931  0.3368  0.3409
  160MOL0     C21985   6.581   5.168   8.069  0.3150 -0.9970  0.7287
  160MOL0     C21986   6.595   5.018   8.057  0.3955 -0.2037  0.1095
  160MOL0    Cl21987   6.487   4.938   7.949  0.3868  0.1518 -0.0228
  160MOL0     C21988   6.381   5.175   8.910 -0.2613  0.7916  0.4056
  160MOL0     C21989   6.312   5.128   9.024  0.1453  0.1168  0.3559
  160MOL0     O21990   5.967   5.183   9.177  0.5410  0.5281  0.0361
  160MOL0     C21991   6.118   4.977   9.426  0.6604  0.2640  0.3772
  160MOL0     C21992   6.097   4.904   9.550 -0.4803 -0.2480  0.6478
  160MOL0     N21993   5.553   5.266  10.004  0.6784  0.2771 -0.2292
  160MOL0     N21994   5.555   5.389   9.967 -0.8732 -0.0846 -1.0308
  160MOL0     C21995   6.079   5.960   8.887  1.4061  0.2456 -0.2382
  160MOL0     C21996   6.203   5.993   8.844 -0.6467 -0.5251  0.4553
  160MOL0     C21997   6.671   6.046   8.864  0.3356  0.1846 -0.0790
  160MOL0     C21998   6.674   6.019   8.726  0.9872  0.4501 -0.1204
  160MOL0     C21999   6.782   6.055   8.646 -0.7348  0.9323 -0.2715
  160MOL0     C22000   6.889   6.116   8.702 -0.4162  0.7660  0.1690
  160MOL0     O22001   6.993   6.151   8.623 -0.4065  0.3137  0.2246
  160MOL0     C22002   6.951   6.257   8.536 -0.4736 -0.0132  0.1189
  160MOL0     C22003   6.928   6.385   8.620  0.6259 -0.1053  0.1153
  160MOL0     C22004   7.051   6.415   8.708  0.0530 -0.9553 -0.3663
  160MOL0     C22005   7.016   6.550   8.783 -0.1804  0.2411 -0.0088
  160MOL0     C22006   6.896   6.525   8.872 -0.6979  0.6758 -0.4660
  160MOL0     C22007   6.794   6.507   8.936 -0.7101  0.9860 -0.1590
  160MOL0     C22008   6.895   6.136   8.839  0.5274  0.3209 -0.6266
  160MOL0     C22009   6.787   6.102   8.923 -0.4054  0.6098  0.2167
  160MOL0     C22010   6.804   6.132   9.068  0.2648 -0.4814 -0.2311
  160MOL0     H22011   6.382   5.779   9.046  0.8275  1.1618 -0.0390
  160MOL0     H22012   6.157   5.709   9.096 -1.7994  1.8428  0.9070
  160MOL0     H22013   5.962   5.602   9.023  1.1962  0.6527 -3.8089
  160MOL0     H22014   5.809   5.652   8.965 -1.4501  1.4878  0.6100
  160MOL0     H22015   5.826   5.781   9.230  0.2422 -0.0015 -0.1825
  160MOL0     H22016   5.720   5.656   9.171  1.0788 -1.1903 -0.6234
  160MOL0     H22017   5.916   5.486   9.248  0.1945 -1.8213  4.1486
  160MOL0     H22018   6.012   5.633   9.291 -0.8331  0.5104  1.8658
  160MOL0     H22019   5.873   5.686   9.465  0.3724  0.0830 -2.3443
  160MOL0     H22020   5.731   5.582   9.403  0.3640 -3.1309 -3.3799
  160MOL0     H22021   6.007   5.492   9.476 -0.0693 -0.0819 -1.9750
  160MOL0     H22022   5.861   5.384   9.464 -0.9725  0.4776 -0.1940
  160MOL0     H22023   5.905   5.404   9.711  1.4980  1.5327  1.8260
  160MOL0     H22024   5.961   5.546   9.691  0.8993 -0.5458 -1.0957
  160MOL0     H22025   5.661   5.490   9.655 -0.1032 -1.4259  1.9765
  160MOL0     H22026   5.743   5.645   9.671 -1.4741 -0.2506  2.4657
  160MOL0     H22027   5.841   5.556   9.898  0.4265 -2.0071  1.3967
  160MOL0     H22028   5.674   5.623   9.897  0.0970 -0.8872 -0.3646
  160MOL0     H22029   5.863   5.299   9.910 -2.1762  0.3832 -4.7416
  160MOL0     H22030   5.635   5.023  10.063  0.4636 -1.5879 -0.3747
  160MOL0     H22031   5.797   5.065  10.080 -0.6414  4.0215  1.7055
  160MOL0     H22032   5.676   5.048   9.808  0.7912  1.6429 -1.0936
  160MOL0     H22033   5.850   5.051   9.838 -0.0299 -0.8301  1.6855
  160MOL0     H22034   5.790   4.849   9.992  1.5947  1.9445  0.5727
  160MOL0     H22035   5.646   4.846   9.880 -0.5742  1.3798 -0.4201
  160MOL0     H22036   5.840   4.684   9.802 -0.1572 -0.9750 -3.8771
  160MOL0     H22037   5.750   4.788   9.694 -3.3980 -0.3952  1.7054
  160MOL0     H22038   5.764   4.974   9.573  1.2862 -1.3748  1.8544
  160MOL0     H22039   5.676   5.056   9.375 -0.0353 -1.2781 -0.6897
  160MOL0     H22040   5.776   5.041   9.239 -2.6841 -1.4132 -0.0876
  160MOL0     H22041   5.766   5.200   9.335 -1.9103 -0.6088  0.7795
  160MOL0     H22042   6.174   5.416   9.138  0.6277  2.7462 -1.8633
  160MOL0     H22043   6.291   5.498   8.934  1.1940 -0.2369  0.0427
  160MOL0     H22044   6.361   5.233   8.642 -0.6696  1.3721 -0.7891
  160MOL0     H22045   6.299   5.397   8.626  1.1165  0.1644 -1.4472
  160MOL0     H22046   6.511   5.476   8.559 -1.5938  0.6772 -1.1140
  160MOL0     H22047   6.586   5.314   8.579 -0.1844 -0.3109  0.4910
  160MOL0     H22048   6.331   5.332   8.397 -0.7332 -1.0095  1.7086
  160MOL0     H22049   6.457   5.211   8.400 -2.1663  0.7184 -0.6891
  160MOL0     H22050   6.605   5.354   8.302  0.8214  0.7207 -2.8634
  160MOL0     H22051   6.491   5.493   8.312  1.2549 -0.5753  0.7890
  160MOL0     H22052   6.339   5.386   8.157 -0.5076  2.8312  0.6907
  160MOL0     H22053   6.498   5.420   8.089 -1.1648  0.6523 -0.8989
  160MOL0     H22054   6.373   5.193   8.047 -1.1325  1.3004  0.8981
  160MOL0     H22055   6.428   5.146   8.206  0.8947 -1.5911 -0.8356
  160MOL0     H22056   6.658   5.208   8.135  0.2284  0.4837  0.0009
  160MOL0     H22057   6.608   5.219   7.975  0.2651  0.6444  1.5669
  160MOL0     H22058   6.577   4.984   8.159  3.2834 -5.5413 -0.8081
  160MOL0     H22059   6.698   4.999   8.027 -0.3319 -2.2697 -1.2613
  160MOL0     H22060   6.450   5.120   8.847  0.3769  2.6530 -0.5895
  160MOL0     H22061   6.301   5.025   9.055  0.2139  1.0430  3.9841
  160MOL0     H22062   6.219   4.969   9.389  1.1665  0.1273  1.7191
  160MOL0     H22063   6.184   4.860   9.596  0.7389  1.5299  0.1392
  160MOL0     H22064   5.991   6.002   8.839  0.9409 -0.0486  0.3422
  160MOL0     H22065   6.211   6.066   8.764  1.1280 -2.5922 -1.3871
  160MOL0     H22066   6.598   5.958   8.678  2.1048 -0.2769 -1.0224
  160MOL0     H22067   6.777   6.012   8.547 -0.4357 -2.7234  1.1207
  160MOL0     H22068   7.023   6.271   8.455  1.5625  0.8617  2.0007
  160MOL0     H22069   6.859   6.229   8.484  0.9970 -0.6359 -2.3367
  160MOL0     H22070   6.838   6.368   8.680  1.4798 -0.7532  1.2495
  160MOL0     H22071   6.910   6.472   8.556 -2.0306 -1.6459 -1.4520
  160MOL0     H22072   7.082   6.334   8.774  2.6914 -0.5749 -1.0263
  160MOL0     H22073   7.132   6.442   8.638  0.1557 -1.1191 -0.3107
  160MOL0     H22074   6.986   6.628   8.712 -0.5999 -0.6937 -0.8783
  160MOL0     H22075   7.102   6.575   8.845 -0.5234  0.1142  0.5216
  160MOL0     H22076   6.711   6.487   9.000 -0.6465 -0.1873 -0.4147
  160MOL0     H22077   6.997   6.156   8.869  0.9424 -1.0700 -1.0240
  160MOL0     H22078   6.709   6.161   9.112 -0.9093 -1.4886 -1.9649
  160MOL0     H22079   6.840   6.054   9.136  3.0361 -0.9741 -2.0785
  160MOL0     H22080   6.879   6.210   9.082  1.8109 -2.2260  1.8018
  161MOL0     O22081  10.783   6.436  10.581  0.4398 -0.4050 -0.0484
  161MOL0     C22082  10.779   6.491  10.691 -0.2015 -0.6403 -0.1598
  161MOL0     O22083  10.862   6.473  10.796  0.4960 -1.1083 -0.3716
  161MOL0     C22084  10.949   6.368  10.788  0.4216 -0.1871  0.9962
  161MOL0     C22085  11.087   6.392  10.814  0.2476 -0.5213  0.4992
  161MOL0     C22086  11.182   6.283  10.822  0.1346 -0.2883 -0.1056
  161MOL0     C22087  11.138   6.150  10.804  0.7015 -0.5593  0.2875
  161MOL0     O22088  11.236   6.058  10.803 -0.2651 -0.5300 -0.3578
  161MOL0     C22089  11.196   5.928  10.816  0.5767 -0.0486  0.1283
  161MOL0     C22090  11.329   5.849  10.823  0.3294 -0.0494  0.1441
  161MOL0     C22091  11.320   5.698  10.844  0.0248 -1.0703 -0.2043
  161MOL0     C22092  11.208   5.619  10.768 -1.4987 -0.7409  0.8968
  161MOL0     C22093  11.196   5.470  10.802  0.4101  0.4076 -0.3628
  161MOL0     C22094  11.090   5.399  10.711 -0.6984  1.7225  0.1575
  161MOL0     C22095  11.049   5.275  10.792 -0.3335 -0.7989  0.4455
  161MOL0     C22096  10.983   5.162  10.705  0.3852  0.8018  0.3405
  161MOL0     N22097  10.914   5.058  10.790  0.0151  0.3573  0.4695
  161MOL0     C22098  10.946   4.915  10.782  0.5289 -0.6222 -0.3306
  161MOL0     C22099  10.845   4.865  10.858 -0.4934 -0.6218  0.7164
  161MOL0     C22100  10.849   4.719  10.878 -0.5691 -0.2736  0.4934
  161MOL0     C22101  10.963   4.667  10.981  0.3025 -0.3233  0.4063
  161MOL0     C22102  10.942   4.728  11.120 -0.0744  0.5216  0.4461
  161MOL0     C22103  11.065   4.694  11.200  0.8620  0.3315 -0.1213
  161MOL0     O22104  11.036   4.743  11.343  0.3397  0.2292 -0.1236
  161MOL0     C22105  11.126   4.702  11.442 -0.2335  0.3164  0.6712
  161MOL0     C22106  11.258   4.664  11.405 -0.0559 -0.9530  0.1630
  161MOL0     C22107  11.343   4.645  11.510 -0.0641  1.2676  0.9281
  161MOL0     C22108  11.492   4.619  11.483  0.5058  0.3874  0.5601
  161MOL0     C22109  11.296   4.655  11.643 -0.0788  0.0880 -0.8036
  161MOL0     C22110  11.378   4.623  11.765 -0.5402  0.4436 -0.1161
  161MOL0     O22111  11.300   4.593  11.878 -0.3150  0.1975 -0.8513
  161MOL0     C22112  11.357   4.539  11.994  0.8325 -0.6948  0.9957
  161MOL0     C22113  11.302   4.424  12.050  0.2141 -0.0738 -0.1285
  161MOL0     C22114  11.330   4.369  12.173  0.1478  0.1522 -0.1139
  161MOL0     C22115  11.433   4.425  12.250  0.1764  0.7275 -0.1369
  161MOL0     O22116  11.465   4.378  12.371 -0.1114  0.1335 -0.2120
  161MOL0     C22117  11.433   4.248  12.427 -0.3389 -1.0945  1.1016
  161MOL0     C22118  11.507   4.248  12.557  0.3220  0.1657  0.5395
  161MOL0     C22119  11.555   4.107  12.586 -0.3270  0.3662 -0.4764
  161MOL0     C22120  11.431   4.038  12.644 -1.2739  0.2461 -0.8699
  161MOL0     C22121  11.471   3.898  12.700 -0.0911  0.0889  0.6849
  161MOL0     C22122  11.353   3.825  12.758  0.2116  0.4682 -0.4323
  161MOL0     C22123  11.263   3.900  12.857 -0.2223 -0.8634  0.1600
  161MOL0     C22124  11.351   3.944  12.971 -0.1360  0.0715 -0.3816
  161MOL0    Cl22125  11.364   3.798  13.077  0.0565  0.3866 -0.3403
  161MOL0     C22126  11.482   4.556  12.208  0.0249 -0.4763 -0.4952
  161MOL0     C22127  11.449   4.614  12.078  0.6600 -0.4138 -0.0792
  161MOL0     O22128  11.497   4.629  11.767 -0.6552  0.1299  0.4564
  161MOL0     C22129  11.161   4.680  11.669  0.2179  0.3462 -0.3614
  161MOL0     C22130  11.076   4.700  11.572  0.8446  0.0001 -0.4315
  161MOL0     N22131  10.755   4.961  10.907  0.1685 -0.2916  0.8202
  161MOL0     N22132  10.788   5.072  10.846  0.2458  0.5576 -0.4638
  161MOL0     C22133  10.996   6.131  10.764  0.1694  0.1679 -0.6937
  161MOL0     C22134  10.911   6.238  10.772  0.0762  0.5526  0.3167
  161MOL0     C22135  10.690   6.605  10.709  0.6643 -0.3726 -0.4431
  161MOL0     C22136  10.571   6.599  10.635  0.9530  0.0820  0.3296
  161MOL0     C22137  10.473   6.702  10.638 -0.3405 -0.4603  0.6111
  161MOL0     C22138  10.489   6.812  10.729  0.1744 -0.1007  0.5070
  161MOL0     O22139  10.397   6.913  10.714  0.5072  0.4007 -0.2801
  161MOL0     C22140  10.372   6.994  10.825  0.5850  0.1024 -0.4582
  161MOL0     C22141  10.228   7.057  10.826  0.3170  0.6936 -0.5667
  161MOL0     C22142  10.123   6.945  10.826  0.0618 -0.2892 -0.4501
  161MOL0     C22143   9.987   7.006  10.823 -0.1196 -0.5252  0.0718
  161MOL0     C22144   9.951   7.066  10.947 -0.2774 -0.5247  0.0382
  161MOL0     C22145   9.942   7.141  11.040 -0.8300 -0.0035  0.4372
  161MOL0     C22146  10.601   6.812  10.814 -0.6168 -0.3951  0.2408
  161MOL0     C22147  10.705   6.715  10.801 -0.6742 -0.0835 -0.3967
  161MOL0     C22148  10.841   6.751  10.878 -1.1031 -0.2565  0.0966
  161MOL0     H22149  11.116   6.496  10.824  1.1097 -0.4537 -1.9242
  161MOL0     H22150  11.287   6.306  10.835 -0.0328  0.1790  0.4989
  161MOL0     H22151  11.132   5.900  10.732 -0.1123  2.9118 -0.4219
  161MOL0     H22152  11.128   5.910  10.900  2.1403  3.1147  2.2753
  161MOL0     H22153  11.381   5.868  10.728  1.6934 -3.8044 -0.0677
  161MOL0     H22154  11.392   5.897  10.898 -0.3566 -0.5069  1.0341
  161MOL0     H22155  11.422   5.669  10.818 -0.5624 -1.9151 -1.7330
  161MOL0     H22156  11.310   5.683  10.952  0.8530  1.7578  0.3383
  161MOL0     H22157  11.116   5.669  10.801 -1.2591  0.2616  0.0996
  161MOL0     H22158  11.217   5.626  10.659 -0.2058  1.4010  1.0726
  161MOL0     H22159  11.164   5.462  10.907  0.6730 -0.2170 -0.3248
  161MOL0     H22160  11.293   5.420  10.794 -0.1791 -0.9135  0.3039
  161MOL0     H22161  10.995   5.453  10.697 -2.1071 -0.6157  0.2778
  161MOL0     H22162  11.126   5.364  10.614 -3.3530  0.0341 -0.3270
  161MOL0     H22163  10.984   5.314  10.871 -1.1660 -3.3689  1.1385
  161MOL0     H22164  11.140   5.229  10.833  0.7142 -0.5410 -1.5035
  161MOL0     H22165  10.909   5.208  10.640 -0.0869  1.3361  1.2312
  161MOL0     H22166  11.055   5.112  10.640 -2.0359 -1.7235 -0.6184
  161MOL0     H22167  11.027   4.857  10.741  2.1652  1.2925  0.0492
  161MOL0     H22168  10.861   4.668  10.781  1.2249 -1.5488  1.3137
  161MOL0     H22169  10.757   4.689  10.929  0.3035  1.6333  3.4084
  161MOL0     H22170  10.962   4.558  10.988  0.1073 -0.8437 -4.4094
  161MOL0     H22171  11.059   4.710  10.951  0.1873 -0.4373 -0.1405
  161MOL0     H22172  10.934   4.837  11.118  2.7285  0.8453 -2.8933
  161MOL0     H22173  10.853   4.685  11.167  0.1061 -0.7970 -0.3716
  161MOL0     H22174  11.083   4.587  11.191 -0.7288 -0.2396  2.3537
  161MOL0     H22175  11.153   4.750  11.167  2.5462  0.6912  4.2572
  161MOL0     H22176  11.290   4.676  11.302 -0.8266 -0.0573  0.0197
  161MOL0     H22177  11.524   4.634  11.379 -0.2676 -0.6488  0.1569
  161MOL0     H22178  11.525   4.517  11.506  1.6466  0.6692  0.2457
  161MOL0     H22179  11.557   4.675  11.551  0.6427 -1.5510  2.1154
  161MOL0     H22180  11.223   4.377  11.993  1.3390 -1.3516 -0.6862
  161MOL0     H22181  11.280   4.277  12.203 -1.1862  0.9637  0.2586
  161MOL0     H22182  11.325   4.245  12.448 -0.9002  1.6795 -0.8195
  161MOL0     H22183  11.467   4.163  12.367  2.5181 -0.5316  1.7806
  161MOL0     H22184  11.593   4.316  12.561  1.3956 -1.0330 -1.0397
  161MOL0     H22185  11.433   4.282  12.630 -1.4236 -5.1281  1.6734
  161MOL0     H22186  11.637   4.115  12.658  0.3881  0.4812 -1.2990
  161MOL0     H22187  11.600   4.057  12.500  1.6225  0.5253  0.3977
  161MOL0     H22188  11.354   4.032  12.567 -2.1760 -0.4993  0.0785
  161MOL0     H22189  11.394   4.100  12.726 -0.5331  2.8344 -2.3533
  161MOL0     H22190  11.517   3.823  12.635 -1.9215 -3.0303  2.7434
  161MOL0     H22191  11.549   3.916  12.775 -0.3894  0.0817  1.0032
  161MOL0     H22192  11.390   3.728  12.792 -2.5673 -1.1408 -1.6653
  161MOL0     H22193  11.282   3.808  12.677 -0.9616 -2.0078  0.9828
  161MOL0     H22194  11.179   3.837  12.887 -1.0665  0.2898  0.2994
  161MOL0     H22195  11.214   3.987  12.814 -0.6900 -1.7416 -1.1460
  161MOL0     H22196  11.292   4.018  13.025  0.5088  0.9141 -0.7982
  161MOL0     H22197  11.448   3.993  12.954 -1.1997  2.3328 -0.2453
  161MOL0     H22198  11.553   4.618  12.262 -0.1229 -0.2991 -0.5044
  161MOL0     H22199  11.491   4.709  12.045 -0.3717  0.8387  1.9828
  161MOL0     H22200  11.122   4.685  11.770 -2.0014  0.9049 -1.1811
  161MOL0     H22201  10.976   4.734  11.595  0.5757  0.4766 -2.1869
  161MOL0     H22202  10.949   6.039  10.731 -1.5897 -0.3785  2.9010
  161MOL0     H22203  10.804   6.222  10.764  0.5399 -3.3456  0.0892
  161MOL0     H22204  10.558   6.518  10.564  4.6049  0.8978 -1.5046
  161MOL0     H22205  10.388   6.698  10.571 -0.8327  0.3604  1.1701
  161MOL0     H22206  10.380   6.940  10.920  2.7433 -2.2210 -1.8481
  161MOL0     H22207  10.442   7.078  10.816  0.3757  0.4349  0.8091
  161MOL0     H22208  10.217   7.119  10.736  0.3076  0.1287 -0.9606
  161MOL0     H22209  10.211   7.126  10.910 -1.9725  1.7849 -1.8321
  161MOL0     H22210  10.127   6.870  10.746 -0.9462  0.9729 -1.7517
  161MOL0     H22211  10.134   6.891  10.920 -0.3528  0.1500 -0.1423
  161MOL0     H22212   9.916   6.923  10.815  0.0808 -0.7009  0.1190
  161MOL0     H22213   9.974   7.076  10.740 -0.7589 -2.1531 -1.2367
  161MOL0     H22214   9.923   7.199  11.129 -2.1599  1.9164 -1.0147
  161MOL0     H22215  10.628   6.905  10.864  1.5035  0.1598 -1.7462
  161MOL0     H22216  10.923   6.769  10.808 -0.2956 -0.7541  0.8888
  161MOL0     H22217  10.812   6.841  10.933 -0.6166  0.9593 -1.5696
  161MOL0     H22218  10.873   6.674  10.949 -1.4334 -2.0640 -1.6400
  162MOL0     O22219   2.806   0.444   2.713 -0.0278 -0.1011 -0.3155
  162MOL0     C22220   2.881   0.345   2.707 -0.0819  0.0217  0.2106
  162MOL0     O22221   2.997   0.335   2.635  0.4978 -0.5957  1.0553
  162MOL0     C22222   3.047   0.444   2.565  0.5946 -0.5962 -0.3666
  162MOL0     C22223   3.042   0.583   2.597 -1.0348  0.1164 -0.5760
  162MOL0     C22224   3.114   0.685   2.524  0.3102  0.8506  0.1018
  162MOL0     C22225   3.191   0.652   2.402 -0.1688  0.2719  0.6622
  162MOL0     O22226   3.247   0.754   2.327  0.0361 -0.2863  0.0915
  162MOL0     C22227   3.307   0.718   2.206  0.1371  0.1430  0.0071
  162MOL0     C22228   3.349   0.857   2.152 -0.8534 -0.3877  0.4924
  162MOL0     C22229   3.453   0.855   2.041 -0.5433  0.2254 -0.1838
  162MOL0     C22230   3.441   0.968   1.937  0.3026  0.2281  0.8760
  162MOL0     C22231   3.527   0.931   1.817 -0.1928  0.1817 -0.0534
  162MOL0     C22232   3.516   1.034   1.707  0.0107 -0.5388  0.3180
  162MOL0     C22233   3.551   1.167   1.758  0.4337 -1.1606  0.5064
  162MOL0     C22234   3.588   1.262   1.643 -0.2527  0.7033 -0.9454
  162MOL0     N22235   3.713   1.215   1.579  0.0823 -0.2236  0.0292
  162MOL0     C22236   3.732   1.188   1.442  0.5659  0.6243 -1.3212
  162MOL0     C22237   3.865   1.202   1.425 -0.0317  1.0862  0.0272
  162MOL0     C22238   3.939   1.181   1.291  0.1803  0.1415 -0.1311
  162MOL0     C22239   3.875   1.270   1.185 -0.0397 -0.5386 -0.2400
  162MOL0     C22240   3.932   1.228   1.056 -0.3912 -0.2812 -0.6359
  162MOL0     C22241   3.864   1.303   0.940 -0.2883 -0.1089 -0.4519
  162MOL0     O22242   3.889   1.236   0.817 -0.3113  0.3051  0.1143
  162MOL0     C22243   4.026   1.216   0.799  0.0168 -0.7864  0.1994
  162MOL0     C22244   4.123   1.320   0.815 -0.1557  1.1725  0.2707
  162MOL0     C22245   4.255   1.299   0.772 -0.3510  0.3154 -0.3521
  162MOL0     C22246   4.342   1.419   0.781  0.1109 -0.6242  0.0971
  162MOL0     C22247   4.292   1.175   0.711  0.4775  0.7812  0.6358
  162MOL0     C22248   4.438   1.134   0.684 -1.0427  0.7167  0.2248
  162MOL0     O22249   4.465   1.018   0.611  0.3088  0.1066 -0.5216
  162MOL0     C22250   4.590   1.002   0.559 -0.1462 -0.3201  0.2400
  162MOL0     C22251   4.605   1.006   0.421 -0.7548  0.4118  0.4308
  162MOL0     C22252   4.734   0.994   0.358  0.1672  0.8692  0.0100
  162MOL0     C22253   4.847   0.967   0.447  0.0799 -0.1312  0.6942
  162MOL0     O22254   4.976   0.946   0.414  1.1900 -0.1495  0.8632
  162MOL0     C22255   4.990   0.895   0.280 -0.9201  0.5366 -0.3742
  162MOL0     C22256   5.120   0.815   0.279 -0.8453 -0.1698 -0.1230
  162MOL0     C22257   5.241   0.907   0.314 -0.3074  0.1135  0.0503
  162MOL0     C22258   5.383   0.858   0.321 -0.0597 -0.2314 -0.0658
  162MOL0     C22259   5.474   0.980   0.337 -0.0950  0.1845 -0.0164
  162MOL0     C22260   5.623   0.935   0.322  0.6242 -0.4073  0.2550
  162MOL0     C22261   5.700   1.063   0.349  0.6331 -0.7726  0.6320
  162MOL0     C22262   5.848   1.016   0.385  0.2254  0.0329 -0.1848
  162MOL0    Cl22263   5.903   0.883   0.274 -0.1453  0.4419  0.1708
  162MOL0     C22264   4.824   0.965   0.583  0.3531  1.1951 -0.7122
  162MOL0     C22265   4.695   0.957   0.640  0.1912  0.1480 -0.4902
  162MOL0     O22266   4.528   1.212   0.717  0.0100  0.0411 -0.4732
  162MOL0     C22267   4.192   1.078   0.684  0.7596 -0.7211 -0.4935
  162MOL0     C22268   4.066   1.096   0.743  0.0668 -0.0420 -0.0543
  162MOL0     N22269   3.921   1.236   1.550 -0.1913 -0.0124 -0.3652
  162MOL0     N22270   3.827   1.251   1.633 -0.1217 -0.6989 -0.2374
  162MOL0     C22271   3.193   0.512   2.370  0.2734 -0.5341  0.5528
  162MOL0     C22272   3.121   0.419   2.448 -0.5041  0.6597 -0.3663
  162MOL0     C22273   2.835   0.222   2.757  0.4959  0.2667 -0.0403
  162MOL0     C22274   2.857   0.115   2.669 -0.1031  0.1850 -0.8660
  162MOL0     C22275   2.804  -0.015   2.701 -0.6151 -0.3540 -0.4108
  162MOL0     C22276   2.720  -0.031   2.815  0.0058 -0.9912 -0.0580
  162MOL0     O22277   2.663  -0.157   2.829 -0.0346 -0.5045 -0.8775
  162MOL0     C22278   2.623  -0.193   2.958  0.8015  1.0211  1.1169
  162MOL0     C22279   2.580  -0.338   2.964  0.6439 -0.3113 -0.6444
  162MOL0     C22280   2.444  -0.371   2.892  0.2365 -0.0499  0.9048
  162MOL0     C22281   2.449  -0.528   2.870 -0.2538 -0.1002  0.7979
  162MOL0     C22282   2.401  -0.587   2.995  0.6880 -0.3247  1.0356
  162MOL0     C22283   2.364  -0.656   3.088  0.5574 -0.9219 -0.2557
  162MOL0     C22284   2.701   0.078   2.900  0.0394  0.9565 -0.3233
  162MOL0     C22285   2.760   0.203   2.869 -0.6430 -0.1692 -0.0798
  162MOL0     C22286   2.726   0.320   2.965 -0.3655 -0.2559  0.1872
  162MOL0     H22287   2.980   0.615   2.681 -1.8519  2.1341 -1.8724
  162MOL0     H22288   3.113   0.783   2.570 -1.5047  1.4241 -1.0478
  162MOL0     H22289   3.234   0.661   2.147 -1.1874  0.0577  1.6556
  162MOL0     H22290   3.399   0.664   2.231  1.4973  3.2513  2.3478
  162MOL0     H22291   3.252   0.895   2.117 -0.7731 -0.4174  0.2374
  162MOL0     H22292   3.395   0.914   2.233  0.8723 -1.8890  0.6129
  162MOL0     H22293   3.553   0.864   2.083 -1.2734  2.4366  1.2967
  162MOL0     H22294   3.446   0.759   1.989  1.1578  0.0202 -0.0803
  162MOL0     H22295   3.340   0.988   1.900  0.2195  0.4478  1.2129
  162MOL0     H22296   3.478   1.058   1.986  0.7091  1.4467 -1.5506
  162MOL0     H22297   3.506   0.832   1.775 -4.3886  0.8026  0.1421
  162MOL0     H22298   3.623   0.927   1.869 -0.2256 -2.9034 -0.0646
  162MOL0     H22299   3.589   1.003   1.632  1.3383 -1.8571  2.0699
  162MOL0     H22300   3.418   1.019   1.659  1.0799 -5.0179 -0.9438
  162MOL0     H22301   3.638   1.154   1.823  0.8191 -2.2745 -0.1922
  162MOL0     H22302   3.457   1.203   1.801  0.9602 -1.1025  1.6514
  162MOL0     H22303   3.507   1.277   1.571 -1.4386  0.7404  0.3525
  162MOL0     H22304   3.600   1.360   1.689 -0.3797  0.6448 -0.7885
  162MOL0     H22305   3.653   1.158   1.374 -1.6059  1.3700  0.7003
  162MOL0     H22306   3.936   1.076   1.260 -1.2279  0.7628 -2.3320
  162MOL0     H22307   4.045   1.205   1.307  0.4943  0.1288 -1.9982
  162MOL0     H22308   3.767   1.255   1.190  0.0388 -1.1177 -0.1483
  162MOL0     H22309   3.890   1.371   1.223  1.4288 -0.8932  0.1966
  162MOL0     H22310   4.040   1.235   1.050 -0.2490 -2.6288 -2.2041
  162MOL0     H22311   3.906   1.123   1.039 -0.9390 -0.1724 -0.5145
  162MOL0     H22312   3.755   1.297   0.949 -0.4913 -2.5822 -3.0463
  162MOL0     H22313   3.878   1.411   0.945 -1.2003 -0.0230  3.4062
  162MOL0     H22314   4.083   1.411   0.859 -0.7897  2.1454 -2.1804
  162MOL0     H22315   4.361   1.453   0.679  0.5705  0.3481  0.4953
  162MOL0     H22316   4.419   1.395   0.856 -0.3578  0.4702  0.9523
  162MOL0     H22317   4.292   1.501   0.833 -0.6993  0.3988 -2.2107
  162MOL0     H22318   4.512   1.017   0.366 -1.4369 -1.0504  1.1985
  162MOL0     H22319   4.748   0.997   0.250  1.4485 -1.9053  0.0020
  162MOL0     H22320   4.914   0.827   0.241  0.4410 -1.0667 -0.3318
  162MOL0     H22321   5.001   0.983   0.215 -0.5358  2.2014  1.8127
  162MOL0     H22322   5.114   0.730   0.348 -0.6215  1.4128  1.9291
  162MOL0     H22323   5.130   0.765   0.183 -0.5240 -2.1857  0.9082
  162MOL0     H22324   5.221   0.952   0.411 -4.3571  1.0686 -1.0218
  162MOL0     H22325   5.246   0.986   0.238 -2.4695 -1.5511 -1.9672
  162MOL0     H22326   5.400   0.806   0.226 -0.0666  2.3451 -1.5497
  162MOL0     H22327   5.409   0.782   0.395  0.2101 -0.5034 -0.4349
  162MOL0     H22328   5.444   1.055   0.263 -1.0536  0.1781  0.3445
  162MOL0     H22329   5.452   1.030   0.432 -4.4847  1.5502 -1.4939
  162MOL0     H22330   5.642   0.912   0.217 -0.8779  0.0898 -0.1522
  162MOL0     H22331   5.647   0.855   0.393 -1.6210 -1.6980 -0.3476
  162MOL0     H22332   5.650   1.110   0.435 -3.4539 -1.7735 -0.9679
  162MOL0     H22333   5.707   1.121   0.257  0.2528 -1.9385 -0.1461
  162MOL0     H22334   5.859   0.988   0.490 -3.4022  1.8640  0.8376
  162MOL0     H22335   5.907   1.107   0.365  1.1194 -0.2884  0.8943
  162MOL0     H22336   4.908   0.947   0.649 -0.6841 -0.9384  0.1351
  162MOL0     H22337   4.670   0.946   0.745 -1.4973  2.0207 -0.6229
  162MOL0     H22338   4.206   0.978   0.644  1.4062 -0.8879  0.1348
  162MOL0     H22339   4.007   1.009   0.720 -1.2975  1.4425 -2.7226
  162MOL0     H22340   3.242   0.478   2.279 -1.5055 -1.5100 -0.0850
  162MOL0     H22341   3.129   0.315   2.418  0.2628 -0.4492  3.2114
  162MOL0     H22342   2.905   0.124   2.572 -2.6527 -1.7068 -2.4197
  162MOL0     H22343   2.825  -0.102   2.641  0.1939  0.3802 -1.2140
  162MOL0     H22344   2.700  -0.175   3.033  1.8226  2.3354 -0.1767
  162MOL0     H22345   2.537  -0.129   2.981  0.6079  1.3968 -0.4934
  162MOL0     H22346   2.564  -0.363   3.069 -1.2183  0.0782 -0.7924
  162MOL0     H22347   2.666  -0.396   2.929 -0.2484 -1.2152 -1.3952
  162MOL0     H22348   2.369  -0.334   2.962  2.4250  0.8252  2.9268
  162MOL0     H22349   2.431  -0.318   2.797 -0.1974 -0.2265  0.8618
  162MOL0     H22350   2.552  -0.561   2.850 -0.4380  0.4009 -1.1789
  162MOL0     H22351   2.380  -0.554   2.790 -1.4779 -0.7679  2.0253
  162MOL0     H22352   2.331  -0.719   3.168  1.7935 -3.9978 -2.0261
  162MOL0     H22353   2.646   0.065   2.993  0.0167  1.6747 -0.2326
  162MOL0     H22354   2.814   0.364   3.014  1.6902  0.4288 -3.7000
  162MOL0     H22355   2.673   0.402   2.915 -0.7777  1.3775  3.0769
  162MOL0     H22356   2.663   0.287   3.048 -0.9117  0.1982 -0.0346
  163MOL0     O22357   6.272   3.518   5.744 -0.1171  0.4381  0.1464
  163MOL0     C22358   6.257   3.469   5.629 -0.5414  0.5931 -0.0196
  163MOL0     O22359   6.183   3.359   5.616  0.9490 -0.1840  0.3621
  163MOL0     C22360   6.078   3.334   5.704 -0.0223 -0.4271 -0.4200
  163MOL0     C22361   5.943   3.342   5.654  0.0651 -0.2136 -1.6537
  163MOL0     C22362   5.832   3.320   5.733  0.4049 -0.3591  0.0037
  163MOL0     C22363   5.853   3.267   5.863 -0.4030 -1.5197 -0.3025
  163MOL0     O22364   5.749   3.233   5.933 -0.3042 -0.0034 -0.4134
  163MOL0     C22365   5.761   3.235   6.084 -0.1050 -0.4701 -0.2664
  163MOL0     C22366   5.631   3.178   6.147  0.2477  0.9340  0.3393
  163MOL0     C22367   5.510   3.267   6.138 -0.4386 -0.8513 -0.0110
  163MOL0     C22368   5.400   3.234   6.241  0.5437  0.3319 -0.4114
  163MOL0     C22369   5.295   3.342   6.213  0.2643  0.4133 -0.0831
  163MOL0     C22370   5.188   3.340   6.334  0.0412 -0.0214 -0.2195
  163MOL0     C22371   5.105   3.213   6.329 -0.2706  0.2429  0.6804
  163MOL0     C22372   5.011   3.210   6.448 -0.0183  0.6563  0.6581
  163MOL0     N22373   5.075   3.219   6.585 -0.1487 -0.4612  0.1864
  163MOL0     C22374   5.157   3.124   6.646  0.4485 -0.4973  0.4450
  163MOL0     C22375   5.126   3.134   6.781 -0.2527  0.6837 -0.2160
  163MOL0     C22376   5.196   3.048   6.881  0.6091  0.3069  1.3952
  163MOL0     C22377   5.330   3.098   6.929  0.2282  0.1447  0.2632
  163MOL0     C22378   5.413   2.986   7.008  0.1067  0.1155  0.3946
  163MOL0     C22379   5.557   3.020   7.017  0.1954  0.0520 -1.1060
  163MOL0     O22380   5.627   2.959   7.129  0.3432 -0.3325 -0.6451
  163MOL0     C22381   5.753   3.014   7.156 -0.0789 -0.0880  0.0326
  163MOL0     C22382   5.844   3.065   7.063  0.1770  0.1587  0.2581
  163MOL0     C22383   5.984   3.082   7.108 -0.2640 -0.7759  0.9464
  163MOL0     C22384   6.083   3.118   6.998  0.3795  0.3476 -0.2024
  163MOL0     C22385   6.027   3.071   7.237 -0.1094  0.5517 -0.3968
  163MOL0     C22386   6.164   3.114   7.291  0.8019 -0.4311  1.1886
  163MOL0     O22387   6.175   3.157   7.415 -0.7379 -0.4915  0.4591
  163MOL0     C22388   6.278   3.249   7.432 -1.0986  0.8448 -0.4893
  163MOL0     C22389   6.348   3.315   7.332 -0.2577 -0.3846  0.0678
  163MOL0     C22390   6.462   3.403   7.350  0.2552 -0.1095  0.1820
  163MOL0     C22391   6.514   3.420   7.479 -0.6193 -0.4872 -0.4635
  163MOL0     O22392   6.621   3.495   7.522 -0.2616 -0.0173 -0.0688
  163MOL0     C22393   6.713   3.523   7.418  0.0778 -0.1539 -0.5705
  163MOL0     C22394   6.840   3.568   7.481  0.4799  0.5590 -0.0242
  163MOL0     C22395   6.883   3.462   7.594 -0.1501 -1.1881 -0.0875
  163MOL0     C22396   6.996   3.520   7.681  0.9937  0.0452  0.1599
  163MOL0     C22397   7.137   3.509   7.622  0.5248 -0.3447  0.1870
  163MOL0     C22398   7.238   3.551   7.723 -0.0818 -0.7847 -0.8151
  163MOL0     C22399   7.241   3.700   7.752 -0.0293 -0.1564  0.7601
  163MOL0     C22400   7.341   3.740   7.868  0.4009 -0.6163 -0.1517
  163MOL0    Cl22401   7.266   3.747   8.041  0.1755  0.1931 -0.7388
  163MOL0     C22402   6.447   3.366   7.588 -0.0698  0.2175  0.5268
  163MOL0     C22403   6.335   3.282   7.566  0.4013  0.1127  0.1341
  163MOL0     O22404   6.260   3.075   7.218 -0.7910 -0.5226 -0.4018
  163MOL0     C22405   5.932   3.031   7.328  0.4031  0.1617 -0.5569
  163MOL0     C22406   5.800   3.001   7.290  0.7186  0.4011  0.9895
  163MOL0     N22407   5.048   3.248   6.793  0.2142 -1.0779 -0.1820
  163MOL0     N22408   5.009   3.288   6.678  0.1094  0.5914 -0.5949
  163MOL0     C22409   5.985   3.253   5.914  0.0254 -0.4166  0.3629
  163MOL0     C22410   6.095   3.294   5.835  0.1458  0.4903 -0.7280
  163MOL0     C22411   6.344   3.523   5.524  0.7928  0.7497 -0.1731
  163MOL0     C22412   6.404   3.428   5.441 -0.7328  0.4778  0.3819
  163MOL0     C22413   6.519   3.466   5.358  0.5010  0.4588 -1.3507
  163MOL0     C22414   6.563   3.592   5.343  0.5149 -0.9174 -0.6963
  163MOL0     O22415   6.668   3.627   5.259  0.6621  0.1822  0.1805
  163MOL0     C22416   6.661   3.748   5.178  0.5494 -0.0047  1.2696
  163MOL0     C22417   6.548   3.729   5.073  0.3425  1.3164 -0.9298
  163MOL0     C22418   6.514   3.855   4.981 -0.3674  0.0587 -0.8641
  163MOL0     C22419   6.565   3.838   4.840  0.4084 -0.6940  0.7308
  163MOL0     C22420   6.488   3.735   4.766 -0.9787 -0.8475 -0.5492
  163MOL0     C22421   6.420   3.655   4.712  0.3520 -0.3517  0.9655
  163MOL0     C22422   6.493   3.687   5.428  0.9194 -0.7627  1.1917
  163MOL0     C22423   6.382   3.659   5.513  0.0603  0.0226  0.0059
  163MOL0     C22424   6.336   3.770   5.602  0.4886 -0.0822  0.3060
  163MOL0     H22425   5.924   3.371   5.551  0.2281 -1.4613 -2.0540
  163MOL0     H22426   5.735   3.344   5.690  1.4969  0.7925 -1.9621
  163MOL0     H22427   5.778   3.339   6.112 -0.4620 -0.8778  1.5795
  163MOL0     H22428   5.839   3.168   6.120 -1.4669 -1.3258  1.2142
  163MOL0     H22429   5.604   3.076   6.116 -0.2219  0.2834  2.6664
  163MOL0     H22430   5.648   3.160   6.254  1.4897  0.5677  0.0931
  163MOL0     H22431   5.536   3.372   6.153  1.2247 -0.6890 -3.2440
  163MOL0     H22432   5.476   3.274   6.034  1.8688  2.3027 -0.7061
  163MOL0     H22433   5.355   3.136   6.219 -2.4262  1.2740  0.9378
  163MOL0     H22434   5.433   3.251   6.344  0.0831  0.3415 -0.2640
  163MOL0     H22435   5.247   3.311   6.120  1.5497 -0.1903 -0.5703
  163MOL0     H22436   5.336   3.442   6.199  2.6348 -0.6917 -1.5222
  163MOL0     H22437   5.254   3.343   6.421 -2.1895 -0.1423  1.5659
  163MOL0     H22438   5.127   3.431   6.337 -0.4042 -0.1949 -2.3316
  163MOL0     H22439   5.172   3.127   6.330 -0.5569  0.0111  2.5863
  163MOL0     H22440   5.041   3.204   6.240  0.5865  0.2092  0.0562
  163MOL0     H22441   4.932   3.286   6.440  0.3337  1.3318  2.9838
  163MOL0     H22442   4.965   3.111   6.444  1.4403 -0.0134 -1.2833
  163MOL0     H22443   5.223   3.056   6.591  0.9790 -1.6157  2.3655
  163MOL0     H22444   5.211   2.960   6.818  0.7251  0.1787  1.6030
  163MOL0     H22445   5.117   3.023   6.952 -3.5284 -1.0962 -3.0901
  163MOL0     H22446   5.393   3.125   6.844  0.8700 -3.8370 -0.7742
  163MOL0     H22447   5.322   3.188   6.991  1.7218  0.1458  0.5039
  163MOL0     H22448   5.361   2.979   7.104  1.1525  0.7777  1.0239
  163MOL0     H22449   5.395   2.902   6.940 -0.8218 -0.2799  1.1047
  163MOL0     H22450   5.602   2.975   6.928  0.9132 -3.1818  0.7423
  163MOL0     H22451   5.574   3.128   7.019 -0.4599  0.1936  1.6019
  163MOL0     H22452   5.826   3.072   6.956  0.8524  1.0256  0.1863
  163MOL0     H22453   6.126   3.217   7.016  0.8089  0.3102 -1.0019
  163MOL0     H22454   6.034   3.120   6.901 -0.8945 -0.4367  0.3827
  163MOL0     H22455   6.163   3.044   6.987  0.3138  0.5612 -2.4454
  163MOL0     H22456   6.308   3.311   7.231  1.1610 -0.3645 -0.5199
  163MOL0     H22457   6.518   3.439   7.264 -0.9378  0.0330 -0.5635
  163MOL0     H22458   6.733   3.438   7.351  1.3094  1.1319 -1.8997
  163MOL0     H22459   6.676   3.604   7.354  0.6297 -0.5717 -1.4368
  163MOL0     H22460   6.913   3.578   7.400  0.3534  0.9930 -0.0872
  163MOL0     H22461   6.814   3.660   7.533 -3.2522 -0.6655  0.5570
  163MOL0     H22462   6.915   3.369   7.545  1.5063 -0.2202 -0.9242
  163MOL0     H22463   6.802   3.444   7.665 -1.7298 -1.3524 -1.8477
  163MOL0     H22464   6.988   3.451   7.766 -0.9365  1.1868  0.9614
  163MOL0     H22465   6.966   3.619   7.715 -5.3386 -1.9292  1.8177
  163MOL0     H22466   7.150   3.408   7.581  0.0747 -0.8594  1.2796
  163MOL0     H22467   7.125   3.572   7.533 -0.5661  0.7753  1.0861
  163MOL0     H22468   7.336   3.517   7.688  0.6817  0.9693 -0.5177
  163MOL0     H22469   7.229   3.514   7.825 -0.2969  2.2371  0.3567
  163MOL0     H22470   7.143   3.733   7.785  0.4185  0.1699  1.7812
  163MOL0     H22471   7.270   3.753   7.660 -1.3032 -0.4634  0.1581
  163MOL0     H22472   7.380   3.838   7.841 -2.9708  1.0675  0.6732
  163MOL0     H22473   7.431   3.676   7.872  1.8252  1.3727  1.2134
  163MOL0     H22474   6.475   3.383   7.691 -1.4826  2.4000  0.6193
  163MOL0     H22475   6.281   3.250   7.654 -2.6149  3.0013 -0.5083
  163MOL0     H22476   5.957   3.048   7.433 -0.4682  0.5646 -0.4054
  163MOL0     H22477   5.725   2.976   7.365 -3.1689  0.4148 -2.5230
  163MOL0     H22478   5.999   3.214   6.015 -0.1914  1.9692  1.3887
  163MOL0     H22479   6.193   3.292   5.882 -0.1053  1.9120 -0.0927
  163MOL0     H22480   6.369   3.326   5.444 -2.1907  0.8429 -1.6392
  163MOL0     H22481   6.580   3.396   5.301  0.2597 -1.3850  0.5436
  163MOL0     H22482   6.641   3.837   5.238 -0.7751 -1.1542  2.6143
  163MOL0     H22483   6.754   3.771   5.125 -0.3689 -0.9811 -0.9289
  163MOL0     H22484   6.460   3.697   5.131  1.9597  0.9473  1.4520
  163MOL0     H22485   6.562   3.638   5.013 -2.9896  1.5202 -2.2275
  163MOL0     H22486   6.407   3.869   4.997 -0.4345 -3.4600  3.8400
  163MOL0     H22487   6.565   3.939   5.030  0.9222 -2.1271  1.8296
  163MOL0     H22488   6.670   3.809   4.855  0.6251  1.6836  5.7351
  163MOL0     H22489   6.562   3.936   4.792 -1.4202 -2.3569 -2.9785
  163MOL0     H22490   6.343   3.601   4.661  0.0328  1.2177 -0.2906
  163MOL0     H22491   6.527   3.790   5.418 -1.8681 -0.0216 -4.3935
  163MOL0     H22492   6.383   3.868   5.586 -0.6438  0.5074  0.4754
  163MOL0     H22493   6.229   3.783   5.584  0.6116 -1.5528 -1.8453
  163MOL0     H22494   6.373   3.742   5.701  2.5911  1.0002 -0.0938
  164MOL0     O22495   7.559   0.523   3.917 -0.0627  0.7605 -0.2563
  164MOL0     C22496   7.572   0.635   3.870 -0.1994 -0.1893  0.3261
  164MOL0     O22497   7.547   0.753   3.940  0.4581 -0.2673  0.5636
  164MOL0     C22498   7.504   0.749   4.070 -0.2105  0.5253  0.0687
  164MOL0     C22499   7.523   0.870   4.136  0.9132 -0.8742 -0.1751
  164MOL0     C22500   7.488   0.898   4.267  0.1230 -0.1515 -0.4897
  164MOL0     C22501   7.416   0.794   4.337  0.2571  0.0660 -0.4122
  164MOL0     O22502   7.374   0.807   4.466  0.5552 -0.3862 -0.7338
  164MOL0     C22503   7.315   0.932   4.502  1.1498 -0.5332 -0.3327
  164MOL0     C22504   7.266   0.928   4.652  1.0833 -0.7744  0.0955
  164MOL0     C22505   7.255   0.784   4.713  0.1768 -0.3859  0.5446
  164MOL0     C22506   7.139   0.712   4.654  1.2134 -0.2172  0.2972
  164MOL0     C22507   7.046   0.649   4.756 -0.1462  0.5477  0.5572
  164MOL0     C22508   6.942   0.548   4.697  0.4882  0.1444 -0.1914
  164MOL0     C22509   6.845   0.612   4.590 -0.6235  0.8572 -0.1637
  164MOL0     C22510   6.716   0.546   4.556  0.8168  0.8707  0.3397
  164MOL0     N22511   6.617   0.590   4.652 -0.3487 -0.4400  0.2197
  164MOL0     C22512   6.617   0.548   4.785  0.7484 -0.9112  0.0826
  164MOL0     C22513   6.528   0.637   4.839 -0.4992 -0.1188 -0.7616
  164MOL0     C22514   6.499   0.622   4.986  1.2087  0.2351 -0.1626
  164MOL0     C22515   6.531   0.739   5.079 -0.2864 -0.3632  0.0994
  164MOL0     C22516   6.681   0.760   5.099  0.2553 -0.0767 -0.2884
  164MOL0     C22517   6.721   0.885   5.182  0.8283 -0.1577 -0.2231
  164MOL0     O22518   6.866   0.903   5.203  0.6852 -0.5265 -0.6733
  164MOL0     C22519   6.933   0.833   5.299 -0.0832  0.7408 -0.6158
  164MOL0     C22520   6.877   0.740   5.393 -0.3849 -1.0608 -0.1478
  164MOL0     C22521   6.955   0.685   5.496  0.6631  0.4594 -0.1171
  164MOL0     C22522   6.889   0.579   5.582 -0.2752  0.3824 -0.0400
  164MOL0     C22523   7.091   0.719   5.501  0.3927 -0.2221 -0.9321
  164MOL0     C22524   7.186   0.676   5.613  1.0359  0.4108 -0.7398
  164MOL0     O22525   7.319   0.724   5.610  0.0342  0.5981 -0.0304
  164MOL0     C22526   7.423   0.696   5.685 -0.6283  0.5358  0.1729
  164MOL0     C22527   7.452   0.563   5.730 -0.0437 -1.1763  0.2161
  164MOL0     C22528   7.561   0.544   5.820  0.4470 -0.1972  0.2657
  164MOL0     C22529   7.656   0.639   5.840 -0.3204  0.2155  0.4823
  164MOL0     O22530   7.775   0.608   5.889 -0.6443 -0.3129 -0.7162
  164MOL0     C22531   7.810   0.693   5.993 -0.9764 -0.3967 -0.1487
  164MOL0     C22532   7.931   0.638   6.072  0.1469 -0.1673 -0.6477
  164MOL0     C22533   8.067   0.675   6.028 -0.4188  1.0546  0.3219
  164MOL0     C22534   8.086   0.825   6.013  0.0324 -0.0686  0.2384
  164MOL0     C22535   8.228   0.878   6.032  0.1727  0.7270  0.1172
  164MOL0     C22536   8.324   0.814   5.935  0.5765 -0.1269  0.6769
  164MOL0     C22537   8.452   0.877   5.967 -0.0583 -0.2131  0.5759
  164MOL0     C22538   8.502   0.838   6.109 -0.3241  0.0735 -0.0354
  164MOL0    Cl22539   8.672   0.847   6.111 -0.3273  0.3777 -0.0302
  164MOL0     C22540   7.638   0.760   5.778  0.2592 -0.0871  0.3188
  164MOL0     C22541   7.524   0.793   5.696  0.2152  0.1507 -0.0550
  164MOL0     O22542   7.134   0.623   5.716  0.1381  0.4467 -0.3815
  164MOL0     C22543   7.140   0.807   5.414  0.6289  0.1357  0.2742
  164MOL0     C22544   7.065   0.857   5.305 -0.0469  0.0864  1.0838
  164MOL0     N22545   6.470   0.716   4.744 -0.1221  0.8611 -0.0461
  164MOL0     N22546   6.519   0.679   4.627  0.3957  0.2913 -0.0997
  164MOL0     C22547   7.395   0.670   4.274 -0.1536 -0.3521  0.0770
  164MOL0     C22548   7.433   0.651   4.140  0.1358 -0.0376  0.2938
  164MOL0     C22549   7.617   0.630   3.731  0.3778 -0.5560 -0.2457
  164MOL0     C22550   7.743   0.673   3.708  0.0958 -0.1419 -0.2474
  164MOL0     C22551   7.817   0.650   3.596  0.2048 -0.6246 -0.0915
  164MOL0     C22552   7.766   0.565   3.492 -0.2607  1.0140 -1.3373
  164MOL0     O22553   7.836   0.521   3.379  0.5801  0.3121  0.1733
  164MOL0     C22554   7.942   0.609   3.333 -0.5927  0.2895  0.8792
  164MOL0     C22555   7.878   0.734   3.254  0.7792  0.9663  0.2928
  164MOL0     C22556   7.794   0.693   3.129 -0.4420 -0.1664  0.5895
  164MOL0     C22557   7.656   0.625   3.152 -0.2351 -0.0227 -0.0752
  164MOL0     C22558   7.559   0.707   3.235 -1.3378 -0.7813  0.3685
  164MOL0     C22559   7.499   0.774   3.314  0.5565 -0.2909 -0.4086
  164MOL0     C22560   7.635   0.522   3.514  0.6982 -0.5314  0.1025
  164MOL0     C22561   7.564   0.557   3.628 -0.3131  0.5531  0.0981
  164MOL0     C22562   7.414   0.502   3.632 -0.4384  0.0645 -0.9353
  164MOL0     H22563   7.567   0.949   4.077 -0.0705 -1.6359 -2.0026
  164MOL0     H22564   7.518   0.989   4.318  1.7044 -1.3621  0.8416
  164MOL0     H22565   7.227   0.952   4.440 -0.1390 -0.9264  1.2888
  164MOL0     H22566   7.391   1.009   4.489 -0.3538  0.6885 -2.7085
  164MOL0     H22567   7.340   0.987   4.707  1.2648  1.0280 -1.9488
  164MOL0     H22568   7.173   0.985   4.664  1.5729  0.7709 -2.6290
  164MOL0     H22569   7.353   0.736   4.705  0.8116  0.9394  0.0879
  164MOL0     H22570   7.235   0.797   4.820 -4.0499  1.7182 -0.2674
  164MOL0     H22571   7.078   0.784   4.598 -2.4865 -0.8678  3.0837
  164MOL0     H22572   7.181   0.638   4.585  2.5347  0.0667  0.7699
  164MOL0     H22573   6.988   0.727   4.808  0.7695  2.1468 -0.7150
  164MOL0     H22574   7.102   0.592   4.830  1.2622 -0.9955 -1.5877
  164MOL0     H22575   6.997   0.468   4.647 -1.2630 -0.6908 -0.8915
  164MOL0     H22576   6.882   0.492   4.770  1.0134 -2.0149 -1.3174
  164MOL0     H22577   6.902   0.606   4.497 -1.6623 -2.0157 -0.6780
  164MOL0     H22578   6.824   0.716   4.620 -3.4615 -0.1920  1.8990
  164MOL0     H22579   6.680   0.570   4.455  0.3391  2.6924  0.9105
  164MOL0     H22580   6.719   0.439   4.575  2.7237  1.2426  2.5181
  164MOL0     H22581   6.680   0.472   4.831  1.7879 -0.9408 -1.3089
  164MOL0     H22582   6.538   0.532   5.034  0.5744  0.6608  1.2133
  164MOL0     H22583   6.390   0.610   4.987  0.9964  0.7487 -3.8894
  164MOL0     H22584   6.492   0.834   5.042  0.7008  0.6767  1.5966
  164MOL0     H22585   6.494   0.701   5.174 -0.0214  0.4571  0.5483
  164MOL0     H22586   6.731   0.677   5.150  4.7865  3.4292  1.6619
  164MOL0     H22587   6.724   0.768   4.998  1.1339  0.0752  0.0830
  164MOL0     H22588   6.681   0.973   5.131  0.3620  0.5668  1.3287
  164MOL0     H22589   6.664   0.878   5.275 -0.2366  0.6947 -0.7845
  164MOL0     H22590   6.769   0.731   5.402 -0.4825  0.3467  0.4398
  164MOL0     H22591   6.804   0.527   5.535 -1.4788  0.9131  1.4981
  164MOL0     H22592   6.858   0.617   5.679  2.1746 -1.1780  1.4526
  164MOL0     H22593   6.964   0.502   5.604 -2.2369 -1.8981 -0.8745
  164MOL0     H22594   7.373   0.491   5.710 -0.6070 -0.4346 -0.2784
  164MOL0     H22595   7.564   0.449   5.872 -2.4579 -2.4658 -3.2344
  164MOL0     H22596   7.835   0.791   5.951 -5.0369  1.6122  1.5663
  164MOL0     H22597   7.727   0.696   6.065 -2.0949  0.3590 -1.4360
  164MOL0     H22598   7.923   0.674   6.175  0.8309 -4.3173  1.0373
  164MOL0     H22599   7.915   0.530   6.068  0.0430 -0.2721  1.5168
  164MOL0     H22600   8.088   0.629   5.931  2.2077 -2.5865  2.3505
  164MOL0     H22601   8.142   0.641   6.100 -3.5556 -1.8686  2.5824
  164MOL0     H22602   8.015   0.873   6.082  0.2209  0.6346 -0.0524
  164MOL0     H22603   8.053   0.860   5.915  1.2482  0.9848  0.1790
  164MOL0     H22604   8.226   0.987   6.033 -2.2901  0.8093  3.5325
  164MOL0     H22605   8.258   0.847   6.133  2.4784  1.7935 -0.1823
  164MOL0     H22606   8.295   0.848   5.835 -1.1215  1.2543  1.6072
  164MOL0     H22607   8.331   0.705   5.933  4.4561 -0.0410 -1.7896
  164MOL0     H22608   8.458   0.983   5.940 -2.1421 -0.4744 -1.1883
  164MOL0     H22609   8.526   0.838   5.896  1.3064  0.4665  1.5795
  164MOL0     H22610   8.480   0.734   6.138  0.6639 -0.7341 -2.0117
  164MOL0     H22611   8.461   0.913   6.177 -0.8284 -1.7529  1.8058
  164MOL0     H22612   7.722   0.829   5.785  0.2587  0.0001 -0.4418
  164MOL0     H22613   7.500   0.890   5.654 -0.9404 -1.3027 -3.0270
  164MOL0     H22614   7.243   0.840   5.407 -0.0490  2.0493 -1.5752
  164MOL0     H22615   7.108   0.917   5.226  1.3083 -1.0906  0.8924
  164MOL0     H22616   7.336   0.594   4.325 -2.9152  0.5421 -1.5576
  164MOL0     H22617   7.389   0.571   4.081  0.3275  0.7026 -0.8898
  164MOL0     H22618   7.787   0.733   3.787 -1.5594 -1.3166  1.6546
  164MOL0     H22619   7.916   0.692   3.583 -1.3037  3.8284  1.1176
  164MOL0     H22620   8.009   0.653   3.407  0.8790  0.4742 -0.5197
  164MOL0     H22621   7.999   0.554   3.257 -2.8196 -0.3266 -0.4254
  164MOL0     H22622   7.953   0.799   3.208 -0.1264  1.1866 -0.9104
  164MOL0     H22623   7.827   0.802   3.323  0.5832  0.3523  0.7649
  164MOL0     H22624   7.781   0.779   3.062 -0.6775 -0.5941  0.0746
  164MOL0     H22625   7.857   0.618   3.080  1.4751 -0.2500  3.0108
  164MOL0     H22626   7.663   0.527   3.199 -1.6379 -0.8793 -1.5624
  164MOL0     H22627   7.617   0.615   3.050 -0.4896  1.5725 -0.1738
  164MOL0     H22628   7.452   0.837   3.387 -0.3392  0.2707 -1.4482
  164MOL0     H22629   7.579   0.478   3.432 -0.4669  2.0829 -0.6135
  164MOL0     H22630   7.408   0.398   3.601 -0.5602 -0.3659  0.4478
  164MOL0     H22631   7.372   0.514   3.733 -1.2195 -4.2263 -0.5687
  164MOL0     H22632   7.351   0.558   3.563 -0.6747  1.9180  0.6825
  165MOL0     O22633   7.605   3.447   4.912 -0.1632 -1.0445 -0.0808
  165MOL0     C22634   7.667   3.361   4.848  0.0519 -0.5519  0.8534
  165MOL0     O22635   7.616   3.244   4.804  0.5009 -0.3447 -0.0082
  165MOL0     C22636   7.486   3.225   4.824  0.2021 -0.3144  0.7648
  165MOL0     C22637   7.389   3.298   4.741 -1.3225  0.5279 -1.1343
  165MOL0     C22638   7.257   3.286   4.783 -0.3648 -1.1059  0.7770
  165MOL0     C22639   7.203   3.213   4.891 -0.1943 -0.5720  0.0353
  165MOL0     O22640   7.077   3.223   4.943  0.3031 -0.3557  0.1677
  165MOL0     C22641   6.970   3.173   4.854 -0.1649  0.8421  0.3997
  165MOL0     C22642   6.837   3.214   4.914  0.6697 -0.5090 -0.6339
  165MOL0     C22643   6.714   3.144   4.852  0.8517  0.3058 -0.5480
  165MOL0     C22644   6.588   3.213   4.907 -0.3536 -0.6844 -0.3205
  165MOL0     C22645   6.529   3.142   5.030  0.0469  0.2941  0.0588
  165MOL0     C22646   6.611   3.137   5.154 -0.3307  0.3258  0.1775
  165MOL0     C22647   6.546   3.042   5.265 -0.7692 -1.0285 -0.3632
  165MOL0     C22648   6.619   3.033   5.400 -0.3224  1.0233 -0.4314
  165MOL0     N22649   6.525   2.967   5.498 -0.3136  0.4398 -0.5828
  165MOL0     C22650   6.436   3.031   5.583  1.4565  0.2942 -1.0106
  165MOL0     C22651   6.374   2.924   5.650 -0.5219 -1.0886  0.1349
  165MOL0     C22652   6.248   2.932   5.737  0.5589 -0.1569 -0.3272
  165MOL0     C22653   6.247   2.813   5.835 -0.1375  0.2638  0.1128
  165MOL0     C22654   6.355   2.815   5.946  0.1728  0.2890  0.1336
  165MOL0     C22655   6.368   2.937   6.029  1.0682  0.0631 -0.4756
  165MOL0     O22656   6.454   2.926   6.147 -0.6289  0.0967  0.2474
  165MOL0     C22657   6.398   2.928   6.273  0.5753 -0.4599  0.3259
  165MOL0     C22658   6.262   2.940   6.303  0.3196  0.1709 -0.7334
  165MOL0     C22659   6.219   2.906   6.433  0.4086  0.2368 -0.2361
  165MOL0     C22660   6.066   2.904   6.439  0.2152 -0.8804 -0.4461
  165MOL0     C22661   6.307   2.878   6.540 -0.3531 -0.0963  0.2493
  165MOL0     C22662   6.275   2.865   6.687 -0.4127 -1.0905 -0.1533
  165MOL0     O22663   6.376   2.795   6.756  0.1102  0.0378  0.2730
  165MOL0     C22664   6.340   2.755   6.880  0.3742  0.6048 -0.4832
  165MOL0     C22665   6.288   2.630   6.889 -0.5237  0.6822 -0.1395
  165MOL0     C22666   6.250   2.571   7.005  0.6151 -0.8046 -0.1556
  165MOL0     C22667   6.276   2.635   7.126  0.6786 -0.6947 -0.1819
  165MOL0     O22668   6.247   2.572   7.242  0.0358 -0.8421 -0.1968
  165MOL0     C22669   6.209   2.655   7.359 -0.4047 -0.3293  1.0437
  165MOL0     C22670   6.229   2.568   7.486 -0.2841 -0.2506  0.3481
  165MOL0     C22671   6.136   2.446   7.489 -0.0304  0.1367 -1.0532
  165MOL0     C22672   6.014   2.448   7.588  0.8571 -0.1051  0.2686
  165MOL0     C22673   5.964   2.304   7.632 -0.0005 -0.5356  0.2575
  165MOL0     C22674   5.834   2.322   7.715 -0.7538 -0.9803  0.5218
  165MOL0     C22675   5.750   2.195   7.736 -0.1668  0.3826  0.1034
  165MOL0     C22676   5.661   2.150   7.618  0.3904 -0.2204 -0.1715
  165MOL0    Cl22677   5.725   1.993   7.579 -0.2386 -0.1921  0.5277
  165MOL0     C22678   6.344   2.757   7.123  0.3814  0.4995  0.6653
  165MOL0     C22679   6.364   2.818   6.997  0.7097  0.8271  0.6090
  165MOL0     O22680   6.170   2.910   6.734 -0.2858 -0.2295 -0.6941
  165MOL0     C22681   6.447   2.866   6.502  0.0518  0.2067  0.3094
  165MOL0     C22682   6.490   2.888   6.371  0.4974  0.4681  0.2301
  165MOL0     N22683   6.428   2.807   5.597 -0.0525  0.2629 -0.2125
  165MOL0     N22684   6.520   2.832   5.507 -0.4942 -0.9992  0.6521
  165MOL0     C22685   7.305   3.137   4.956  1.0066  0.2464  0.6112
  165MOL0     C22686   7.438   3.139   4.922 -0.0910  0.0043 -0.3124
  165MOL0     C22687   7.814   3.379   4.818  1.7337 -0.3600  0.1175
  165MOL0     C22688   7.889   3.268   4.792 -0.2526  0.1184  0.1311
  165MOL0     C22689   8.022   3.283   4.751 -0.6068  0.5528 -0.4497
  165MOL0     C22690   8.083   3.404   4.748 -0.0110  0.1095 -0.1707
  165MOL0     O22691   8.219   3.429   4.718 -0.7098 -0.3270 -1.0764
  165MOL0     C22692   8.316   3.323   4.710 -0.0166  0.2653  0.3492
  165MOL0     C22693   8.449   3.382   4.753  0.5065  0.1198 -0.5807
  165MOL0     C22694   8.534   3.459   4.654 -0.0691  1.0604  0.4363
  165MOL0     C22695   8.503   3.607   4.654 -0.3822  0.0171 -0.4150
  165MOL0     C22696   8.601   3.660   4.568 -1.5357  0.5277 -0.2182
  165MOL0     C22697   8.686   3.710   4.492  1.0209 -0.2817 -0.0252
  165MOL0     C22698   7.999   3.512   4.777 -0.1821 -0.5504  0.2700
  165MOL0     C22699   7.864   3.506   4.816  0.0269  1.0763 -0.7362
  165MOL0     C22700   7.799   3.630   4.864  0.4920 -0.1330 -0.3368
  165MOL0     H22701   7.427   3.360   4.661 -0.1791 -0.8615 -1.7213
  165MOL0     H22702   7.189   3.357   4.739  0.6712 -1.3263 -1.3260
  165MOL0     H22703   6.968   3.065   4.869  2.4047  0.0161 -3.8037
  165MOL0     H22704   6.974   3.195   4.747 -0.2315  2.4876  0.7089
  165MOL0     H22705   6.837   3.189   5.020  1.5247 -0.5812 -0.6455
  165MOL0     H22706   6.823   3.321   4.896 -1.8939 -0.5139  0.9399
  165MOL0     H22707   6.703   3.153   4.744 -0.5453  2.0723 -0.2927
  165MOL0     H22708   6.710   3.037   4.874 -1.0199  0.5493  0.4675
  165MOL0     H22709   6.614   3.318   4.918 -0.9896 -0.4872 -0.6221
  165MOL0     H22710   6.498   3.219   4.844 -0.2697  3.6102 -0.3077
  165MOL0     H22711   6.495   3.043   4.997 -1.5849  1.0458 -0.6214
  165MOL0     H22712   6.432   3.185   5.055 -0.1994 -1.5196  2.7030
  165MOL0     H22713   6.708   3.089   5.140 -1.9014 -2.6325 -1.7958
  165MOL0     H22714   6.617   3.241   5.186  1.7815  1.0021 -2.1433
  165MOL0     H22715   6.541   2.939   5.229 -1.7666 -1.3430  0.6033
  165MOL0     H22716   6.445   3.080   5.281  0.0618  0.4319  1.9661
  165MOL0     H22717   6.705   2.967   5.388 -0.2426  1.4832 -2.8269
  165MOL0     H22718   6.649   3.129   5.443  0.1764  0.7020 -0.0540
  165MOL0     H22719   6.405   3.134   5.590  0.6802 -0.0135  0.4025
  165MOL0     H22720   6.159   2.920   5.675  0.9271 -0.2498 -0.8489
  165MOL0     H22721   6.239   3.032   5.781 -4.0366  0.6162 -2.4564
  165MOL0     H22722   6.148   2.796   5.881 -0.5643 -0.0064 -0.8756
  165MOL0     H22723   6.255   2.716   5.785  0.0912 -0.9109  2.2736
  165MOL0     H22724   6.324   2.731   6.010  0.6685  0.8325  1.1032
  165MOL0     H22725   6.448   2.785   5.897 -0.0572 -1.3240  0.6266
  165MOL0     H22726   6.402   3.012   5.957 -0.6163  2.0989  0.7099
  165MOL0     H22727   6.270   2.978   6.056  0.3394 -2.7128  1.4962
  165MOL0     H22728   6.188   2.986   6.238 -1.3194 -1.1994  0.0877
  165MOL0     H22729   6.026   2.992   6.387 -1.5185 -1.6509 -0.5142
  165MOL0     H22730   6.032   2.906   6.543  2.1750  0.9481  0.2249
  165MOL0     H22731   6.007   2.829   6.386 -3.0524  2.1188 -1.4777
  165MOL0     H22732   6.252   2.586   6.796  1.0342 -1.6393  0.2583
  165MOL0     H22733   6.210   2.470   7.001  1.6489 -1.2133 -0.3419
  165MOL0     H22734   6.270   2.745   7.373 -0.4930 -0.4688  2.4952
  165MOL0     H22735   6.104   2.682   7.350 -0.4991 -0.6822  1.0746
  165MOL0     H22736   6.333   2.534   7.476  0.4329  2.1448 -0.9242
  165MOL0     H22737   6.218   2.616   7.584 -0.2974  0.8167 -0.1742
  165MOL0     H22738   6.196   2.355   7.500  0.6385  0.7868  1.2413
  165MOL0     H22739   6.094   2.429   7.390  1.0420 -1.0986 -1.3297
  165MOL0     H22740   5.932   2.506   7.544  0.2097  0.6681  2.3359
  165MOL0     H22741   6.049   2.501   7.677  1.4545  1.8878 -1.0971
  165MOL0     H22742   5.950   2.239   7.545  1.2822 -2.1436  1.1853
  165MOL0     H22743   6.037   2.259   7.701  0.3098 -1.4042 -0.6082
  165MOL0     H22744   5.775   2.388   7.651  1.5368 -0.6416 -1.3402
  165MOL0     H22745   5.866   2.363   7.812  0.3933 -0.6567  0.0141
  165MOL0     H22746   5.690   2.209   7.826  2.5903 -3.9410  3.0212
  165MOL0     H22747   5.811   2.108   7.763 -1.5039 -0.3004  1.0550
  165MOL0     H22748   5.685   2.206   7.527 -0.7392 -1.1639 -1.0798
  165MOL0     H22749   5.552   2.144   7.632  0.4096 -0.0103  0.0830
  165MOL0     H22750   6.378   2.805   7.214  0.1736 -0.0054  1.0104
  165MOL0     H22751   6.407   2.917   6.997  0.8921  0.7535  1.5061
  165MOL0     H22752   6.529   2.864   6.573 -0.1218 -0.3781  0.4967
  165MOL0     H22753   6.599   2.884   6.372  0.5271  1.1740  0.9048
  165MOL0     H22754   7.270   3.072   5.036  0.9008 -0.7082 -0.1802
  165MOL0     H22755   7.509   3.080   4.979  1.6809  0.8091 -1.6090
  165MOL0     H22756   7.857   3.165   4.779  0.7645 -0.1512 -0.3304
  165MOL0     H22757   8.078   3.199   4.712 -0.4857  0.7216 -0.6464
  165MOL0     H22758   8.295   3.234   4.769 -0.7200 -1.0232 -1.7428
  165MOL0     H22759   8.327   3.281   4.609 -0.0172 -0.6265  0.7148
  165MOL0     H22760   8.507   3.289   4.759 -0.7739 -0.6098  1.8166
  165MOL0     H22761   8.443   3.424   4.853  4.3983 -0.1847 -0.0698
  165MOL0     H22762   8.640   3.446   4.675  1.0677  2.8929 -3.2819
  165MOL0     H22763   8.529   3.410   4.556 -0.6192  3.8534 -1.0529
  165MOL0     H22764   8.516   3.647   4.755 -1.6749 -2.4089  0.7843
  165MOL0     H22765   8.403   3.623   4.613  0.9897  0.8004 -3.8296
  165MOL0     H22766   8.760   3.754   4.428 -0.7718  2.2810 -0.4883
  165MOL0     H22767   8.037   3.612   4.757  0.8210 -0.8021  0.8638
  165MOL0     H22768   7.782   3.634   4.972  0.9931  2.2908 -0.3076
  165MOL0     H22769   7.864   3.715   4.841  0.7126  0.2242  1.4144
  165MOL0     H22770   7.703   3.642   4.814  0.6972 -0.9846 -0.9661
  166MOL0     O22771   0.078   9.946  11.295 -0.6354  0.0758  0.6255
  166MOL0     C22772  -0.038   9.969  11.336  0.1465 -0.7750 -0.5083
  166MOL0     O22773  -0.062   9.969  11.469 -0.8364 -0.2659  0.3622
  166MOL0     C22774   0.037   9.982  11.557  0.8197 -0.3902 -0.5869
  166MOL0     C22775   0.037  10.089  11.649 -0.8615 -0.4628  0.6388
  166MOL0     C22776   0.131  10.103  11.757 -0.0142  0.3529  0.0040
  166MOL0     C22777   0.221   9.994  11.776  0.1134 -0.6651  0.2952
  166MOL0     O22778   0.300   9.999  11.893 -0.8615 -0.0565 -0.4722
  166MOL0     C22779   0.435   9.966  11.864  0.1441 -0.4787  0.0405
  166MOL0     C22780   0.515  10.070  11.764  0.0225 -0.2870  0.3197
  166MOL0     C22781   0.530  10.216  11.818 -0.5737  0.9189  0.0612
  166MOL0     C22782   0.508  10.322  11.708  0.3479  0.1749  0.6504
  166MOL0     C22783   0.373  10.316  11.634 -0.4696  0.1861 -0.2910
  166MOL0     C22784   0.357  10.420  11.523  0.6907  0.1869 -0.7879
  166MOL0     C22785   0.225  10.424  11.444  0.3463  0.4861  0.4409
  166MOL0     C22786   0.187  10.293  11.368 -0.2638 -0.0538 -0.1883
  166MOL0     N22787   0.231  10.296  11.226 -1.4414  0.6636  0.4962
  166MOL0     C22788   0.258  10.179  11.152  0.1514 -0.2437 -0.0372
  166MOL0     C22789   0.264  10.222  11.022  0.3204  0.8456 -0.4257
  166MOL0     C22790   0.302  10.139  10.905  0.0161  0.6147 -0.2392
  166MOL0     C22791   0.453  10.126  10.897  0.9669 -0.5041  0.3276
  166MOL0     C22792   0.527  10.260  10.886 -0.4882  0.2187 -0.1570
  166MOL0     C22793   0.667  10.253  10.821 -0.1246 -0.2866  1.3347
  166MOL0     O22794   0.672  10.173  10.698 -0.2250  0.0077 -0.2952
  166MOL0     C22795   0.620  10.221  10.587 -0.4291 -0.3330 -0.3068
  166MOL0     C22796   0.716  10.268  10.497 -0.6619  1.0501 -0.1369
  166MOL0     C22797   0.682  10.333  10.380 -0.5973  0.5629  0.8977
  166MOL0     C22798   0.790  10.387  10.292 -0.2635 -0.4019  0.0388
  166MOL0     C22799   0.541  10.351  10.350  0.2332 -0.3935 -0.3317
  166MOL0     C22800   0.494  10.425  10.230 -0.5356 -0.2967  0.1024
  166MOL0     O22801   0.378  10.481  10.237  0.5602 -0.7086  0.3372
  166MOL0     C22802   0.284  10.496  10.124 -1.3372 -0.7482 -0.2691
  166MOL0     C22803   0.263  10.402  10.025 -0.7366  0.0619  0.4578
  166MOL0     C22804   0.166  10.410   9.924  0.1272 -0.4585  0.1997
  166MOL0     C22805   0.097  10.531   9.907 -0.7032 -0.1284  0.6293
  166MOL0     O22806   0.010  10.558   9.798 -0.5422  0.7166  0.1284
  166MOL0     C22807  -0.032  10.448   9.706 -0.5616 -0.3526  1.1695
  166MOL0     C22808  -0.139  10.516   9.614 -0.1478 -0.5677  1.2964
  166MOL0     C22809  -0.060  10.640   9.547  0.0346  0.1596 -0.3767
  166MOL0     C22810  -0.137  10.712   9.441  0.1706  0.0148 -0.1583
  166MOL0     C22811  -0.083  10.848   9.414 -0.6770 -0.0472  0.6710
  166MOL0     C22812   0.053  10.838   9.341 -0.5787 -0.1880  0.0305
  166MOL0     C22813   0.103  10.972   9.294  0.3102  0.3502  0.0250
  166MOL0     C22814   0.209  10.952   9.196 -0.1093  0.7095 -0.1372
  166MOL0    Cl22815   0.297  11.104   9.169 -0.0647 -0.3645  0.3465
  166MOL0     C22816   0.128  10.631   9.995 -0.4334 -0.0710  0.3161
  166MOL0     C22817   0.219  10.616  10.100  0.2945 -0.7470  0.3654
  166MOL0     O22818   0.562  10.420  10.131 -0.6741  0.8035 -0.0113
  166MOL0     C22819   0.455  10.307  10.448  0.5688  0.1940 -0.5649
  166MOL0     C22820   0.487  10.241  10.568  0.9332  0.1634 -0.1157
  166MOL0     N22821   0.223  10.357  11.013 -0.6506  0.1472  0.0769
  166MOL0     N22822   0.200  10.395  11.139  0.7161  0.1956  0.4295
  166MOL0     C22823   0.218   9.883  11.690 -0.6272 -0.2533 -0.1138
  166MOL0     C22824   0.127   9.881  11.585 -0.3199  0.6753  0.0953
  166MOL0     C22825  -0.154   9.965  11.246 -0.3594  0.1643  0.9663
  166MOL0     C22826  -0.276   9.990  11.290  0.0548  0.4194 -1.4136
  166MOL0     C22827  -0.386  10.009  11.205 -0.6597  0.4511  0.0943
  166MOL0     C22828  -0.373  10.016  11.064 -0.0830 -0.2615  0.1765
  166MOL0     O22829  -0.465  10.037  10.965 -0.1419 -0.1223 -0.1776
  166MOL0     C22830  -0.609  10.024  10.999  0.8694  0.0359 -0.2986
  166MOL0     C22831  -0.667  10.165  11.001 -0.4678  0.4973 -0.5150
  166MOL0     C22832  -0.791  10.173  11.090  0.4902  0.1867  0.5224
  166MOL0     C22833  -0.792  10.128  11.239  0.3819  0.0510  0.4006
  166MOL0     C22834  -0.682  10.177  11.314 -0.5936 -0.2198 -0.1541
  166MOL0     C22835  -0.606  10.233  11.390  0.8234 -0.0412  0.4897
  166MOL0     C22836  -0.249   9.993  11.021  0.3855 -0.8318  0.9508
  166MOL0     C22837  -0.141   9.970  11.099 -0.7694  1.3419 -0.0677
  166MOL0     C22838  -0.010   9.965  11.018 -0.6963 -0.1805  0.3494
  166MOL0     H22839  -0.049  10.155  11.639  1.6007  2.9636  0.2354
  166MOL0     H22840   0.122  10.176  11.837  0.1316 -0.7344  1.0443
  166MOL0     H22841   0.437   9.863  11.829 -2.0093 -0.3927 -0.5126
  166MOL0     H22842   0.494   9.965  11.956 -0.8123  0.8236  0.7083
  166MOL0     H22843   0.618  10.032  11.772  0.7241  1.8446  2.9618
  166MOL0     H22844   0.480  10.061  11.661 -1.4681  0.3048  0.7581
  166MOL0     H22845   0.463  10.232  11.903  1.3686 -0.1859  1.8935
  166MOL0     H22846   0.633  10.230  11.852 -0.4394  2.0116 -0.7273
  166MOL0     H22847   0.514  10.418  11.761 -2.5386  1.3873 -0.9542
  166MOL0     H22848   0.587  10.314  11.633 -0.1493  1.5182 -0.0634
  166MOL0     H22849   0.291  10.321  11.706 -0.0423 -4.0579  0.7713
  166MOL0     H22850   0.367  10.217  11.588  2.2663  0.2694 -1.0554
  166MOL0     H22851   0.361  10.513  11.581 -4.8810 -0.3309  1.0193
  166MOL0     H22852   0.444  10.416  11.456  1.3525 -1.3335  0.1126
  166MOL0     H22853   0.242  10.498  11.365 -0.9151  3.7716  3.0164
  166MOL0     H22854   0.142  10.455  11.508 -0.8766 -0.6082 -0.5382
  166MOL0     H22855   0.227  10.203  11.417  0.6974  0.2560 -0.3866
  166MOL0     H22856   0.079  10.283  11.354 -0.4462 -1.5134  1.7906
  166MOL0     H22857   0.292  10.081  11.185  2.0675  1.4433  3.6322
  166MOL0     H22858   0.264  10.198  10.821  0.6350  3.3920  1.3088
  166MOL0     H22859   0.261  10.038  10.916 -2.2999  1.6370  1.2693
  166MOL0     H22860   0.480  10.074  10.989  1.1956  0.6547  0.9247
  166MOL0     H22861   0.491  10.062  10.816 -1.5098  0.3207 -1.6063
  166MOL0     H22862   0.468  10.324  10.820  0.5164  1.4909  0.1339
  166MOL0     H22863   0.539  10.319  10.978 -1.9419  1.8133 -0.9150
  166MOL0     H22864   0.683  10.358  10.793 -2.7722  0.3384  1.8928
  166MOL0     H22865   0.748  10.217  10.885  1.4046  1.0623  0.2556
  166MOL0     H22866   0.818  10.257  10.534  0.0193 -3.2858 -2.6784
  166MOL0     H22867   0.881  10.353  10.341  1.4212  2.8640 -0.5808
  166MOL0     H22868   0.796  10.496  10.287  1.7134 -0.4463  0.5581
  166MOL0     H22869   0.783  10.348  10.190 -2.4048 -0.5159  0.1943
  166MOL0     H22870   0.330  10.317  10.031  0.0240  0.7229  1.8162
  166MOL0     H22871   0.153  10.326   9.857 -1.9809  0.2985 -0.4137
  166MOL0     H22872   0.054  10.414   9.648 -2.1989  0.3431 -1.8504
  166MOL0     H22873  -0.075  10.361   9.756 -2.0891 -1.2471 -1.5291
  166MOL0     H22874  -0.182  10.452   9.537  1.8213 -1.0541  0.5444
  166MOL0     H22875  -0.219  10.557   9.676 -0.0339 -1.9175  2.3835
  166MOL0     H22876   0.031  10.614   9.492  0.9307  1.8882  0.2271
  166MOL0     H22877  -0.019  10.709   9.620  1.4371  0.3658 -1.3109
  166MOL0     H22878  -0.239  10.716   9.481 -0.6772  0.2902 -2.1831
  166MOL0     H22879  -0.154  10.653   9.350  0.5987 -1.5406  0.7283
  166MOL0     H22880  -0.154  10.906   9.355 -0.0739  1.6901  1.5689
  166MOL0     H22881  -0.066  10.903   9.507 -0.2467 -2.8213  2.3277
  166MOL0     H22882   0.046  10.782   9.247 -2.0333 -0.0353  0.0254
  166MOL0     H22883   0.124  10.778   9.399 -0.1316 -1.0604 -1.3713
  166MOL0     H22884   0.134  11.043   9.372 -0.6020  0.8477 -0.0589
  166MOL0     H22885   0.028  11.031   9.242  1.0105 -0.7775 -2.3796
  166MOL0     H22886   0.163  10.919   9.102 -1.2928  1.1989  0.2505
  166MOL0     H22887   0.280  10.876   9.230  0.2495 -0.5129 -3.2678
  166MOL0     H22888   0.081  10.728   9.978  4.1405  1.9081 -3.2287
  166MOL0     H22889   0.239  10.704  10.161 -1.7992 -0.3004  0.5028
  166MOL0     H22890   0.350  10.334  10.439 -0.2626 -2.3583  0.4264
  166MOL0     H22891   0.408  10.194  10.626 -0.8927  1.3454 -1.5490
  166MOL0     H22892   0.295   9.807  11.703 -1.8097 -1.1777  1.9739
  166MOL0     H22893   0.129   9.793  11.522 -1.0563  1.8140 -1.5959
  166MOL0     H22894  -0.287  10.014  11.396  0.8149  0.5592 -1.3627
  166MOL0     H22895  -0.479  10.028  11.258 -0.0479 -0.6407  1.6310
  166MOL0     H22896  -0.656   9.965  10.920  0.6393  2.4631 -2.0660
  166MOL0     H22897  -0.632   9.973  11.093 -0.5047  0.9751 -0.0964
  166MOL0     H22898  -0.682  10.202  10.899  2.7894  0.1283 -1.2213
  166MOL0     H22899  -0.597  10.238  11.043 -1.7439  1.7260 -0.4569
  166MOL0     H22900  -0.830  10.275  11.082  0.6215  0.6576  3.9646
  166MOL0     H22901  -0.876  10.122  11.046 -2.0907  4.0351  0.5892
  166MOL0     H22902  -0.800  10.019  11.241  2.3082 -0.2692 -2.4612
  166MOL0     H22903  -0.888  10.159  11.280 -0.5508 -0.2795 -1.4277
  166MOL0     H22904  -0.549  10.294  11.458 -0.4588  1.1785  0.5148
  166MOL0     H22905  -0.241   9.996  10.912 -2.0853  0.4082  0.7406
  166MOL0     H22906   0.039  10.061  11.003  0.5924 -0.4735  2.2577
  166MOL0     H22907   0.069   9.901  11.060 -0.9736 -0.7951 -0.0465
  166MOL0     H22908  -0.033   9.923  10.920 -0.9979 -0.4628  0.5366
  167MOL0     O22909   3.323   7.656   3.732  0.0334 -0.6161  0.2785
  167MOL0     C22910   3.318   7.605   3.838 -0.0872  0.3519  0.6626
  167MOL0     O22911   3.339   7.473   3.865 -0.5219 -0.3058  0.4118
  167MOL0     C22912   3.334   7.390   3.757 -1.4511 -0.6946 -0.1634
  167MOL0     C22913   3.234   7.397   3.664 -0.7831 -0.2066 -0.0413
  167MOL0     C22914   3.218   7.304   3.567  0.1401 -0.1768  0.7574
  167MOL0     C22915   3.299   7.190   3.546 -1.3809 -0.1746  0.1867
  167MOL0     O22916   3.249   7.101   3.455  0.4534  0.0840  0.2900
  167MOL0     C22917   3.337   7.037   3.368  0.4211  0.2327 -0.3108
  167MOL0     C22918   3.256   6.958   3.257  0.4078  1.5926 -1.1006
  167MOL0     C22919   3.219   6.819   3.302  0.3697 -0.1612  0.3829
  167MOL0     C22920   3.158   6.804   3.437 -0.0401 -1.2027 -1.3352
  167MOL0     C22921   3.120   6.651   3.457  0.3525  0.0417 -0.1073
  167MOL0     C22922   3.250   6.563   3.457  0.2879 -0.6794 -0.2785
  167MOL0     C22923   3.211   6.444   3.546 -0.0086 -0.4267 -0.1841
  167MOL0     C22924   3.345   6.361   3.561 -0.9015 -0.1548  0.7367
  167MOL0     N22925   3.348   6.243   3.648 -0.4804  0.5791  0.3916
  167MOL0     C22926   3.460   6.189   3.695  0.6079  0.4926  0.3147
  167MOL0     C22927   3.416   6.060   3.738  0.4786 -0.0607  0.1122
  167MOL0     C22928   3.527   5.968   3.782 -0.1424  0.3301 -0.0678
  167MOL0     C22929   3.491   5.865   3.881 -0.3024 -0.2779  0.6003
  167MOL0     C22930   3.386   5.778   3.820  1.2600  0.3464 -0.3426
  167MOL0     C22931   3.356   5.680   3.931  0.8359  1.2437  0.2882
  167MOL0     O22932   3.470   5.619   3.988  0.0047  0.4563 -0.5388
  167MOL0     C22933   3.463   5.519   4.085  0.8853  0.0359  0.2067
  167MOL0     C22934   3.579   5.463   4.127  0.4319 -0.1165 -0.0476
  167MOL0     C22935   3.582   5.366   4.231  1.3454  0.7008 -0.0873
  167MOL0     C22936   3.717   5.306   4.253  0.2292 -0.2834 -0.4387
  167MOL0     C22937   3.463   5.314   4.282  0.8919 -0.6943 -0.8228
  167MOL0     C22938   3.466   5.227   4.396 -0.7273 -0.3306 -0.3537
  167MOL0     O22939   3.579   5.228   4.467  0.1005 -0.3556 -0.7037
  167MOL0     C22940   3.598   5.155   4.585 -0.1090 -0.1073  0.1883
  167MOL0     C22941   3.517   5.053   4.644 -0.2190  0.4121  0.2634
  167MOL0     C22942   3.557   5.001   4.766  0.8542 -0.5981  0.0440
  167MOL0     C22943   3.664   5.053   4.838 -0.5599  0.0887 -0.8628
  167MOL0     O22944   3.680   5.007   4.972  0.1219  0.2166 -0.0326
  167MOL0     C22945   3.801   4.949   5.011 -0.2783 -0.1762 -0.9800
  167MOL0     C22946   3.846   5.012   5.144 -0.4152  0.8063 -0.5497
  167MOL0     C22947   3.928   5.140   5.152 -0.7373 -0.6441 -0.8735
  167MOL0     C22948   3.951   5.198   5.294 -0.3306  0.3781 -0.5892
  167MOL0     C22949   4.058   5.115   5.381 -0.2967 -0.3657 -0.9057
  167MOL0     C22950   4.072   5.155   5.529  0.4319  0.4012 -0.4080
  167MOL0     C22951   3.948   5.120   5.610  0.9979  0.4228  0.0257
  167MOL0     C22952   3.946   5.108   5.761  0.6476 -0.5639 -0.1882
  167MOL0    Cl22953   3.950   5.278   5.821 -0.0517 -0.1562  0.3173
  167MOL0     C22954   3.748   5.149   4.777  0.1623  0.2985  0.6136
  167MOL0     C22955   3.707   5.199   4.650 -1.0823  0.1423 -0.1221
  167MOL0     O22956   3.362   5.182   4.426  0.2405  1.0980 -0.7713
  167MOL0     C22957   3.342   5.368   4.229 -0.0447  0.7290  0.4139
  167MOL0     C22958   3.338   5.469   4.136  0.4683 -0.6576  0.8345
  167MOL0     N22959   3.276   6.054   3.729  1.1728 -0.1864 -0.3235
  167MOL0     N22960   3.238   6.165   3.664  0.9566 -0.6395  0.6639
  167MOL0     C22961   3.402   7.181   3.646 -0.2315 -0.0929 -0.5149
  167MOL0     C22962   3.413   7.272   3.751  0.4135 -0.5305 -0.1170
  167MOL0     C22963   3.294   7.689   3.949 -0.0153 -0.3737  0.2945
  167MOL0     C22964   3.390   7.674   4.056 -0.5854 -0.1364  0.1231
  167MOL0     C22965   3.386   7.752   4.179  0.1201  1.4148  0.0890
  167MOL0     C22966   3.283   7.841   4.192  0.0588  0.2194  0.3341
  167MOL0     O22967   3.286   7.907   4.310 -0.4150  0.1923  0.0456
  167MOL0     C22968   3.188   8.012   4.343  0.4184 -0.3676  0.8345
  167MOL0     C22969   3.265   8.137   4.394 -0.5456  0.0934  0.3707
  167MOL0     C22970   3.371   8.169   4.283  0.1844 -0.0259  0.1125
  167MOL0     C22971   3.417   8.307   4.312  0.7365  0.1446 -0.2292
  167MOL0     C22972   3.355   8.408   4.225  0.1975  0.0514 -0.0113
  167MOL0     C22973   3.302   8.477   4.144  0.3727 -0.1994  0.1191
  167MOL0     C22974   3.189   7.860   4.075 -0.2909  0.1479 -0.6742
  167MOL0     C22975   3.191   7.789   3.960 -0.3285  0.5443  0.4573
  167MOL0     C22976   3.088   7.790   3.851 -0.7190  0.0130  0.5059
  167MOL0     H22977   3.163   7.479   3.670 -1.1038 -0.5474  1.0650
  167MOL0     H22978   3.133   7.306   3.500  2.2642 -2.1808 -2.2144
  167MOL0     H22979   3.409   6.971   3.417 -0.1628 -0.2067 -0.0304
  167MOL0     H22980   3.380   7.124   3.319 -3.5475  1.8100 -1.4035
  167MOL0     H22981   3.162   7.011   3.236 -1.7029  0.3722  3.8027
  167MOL0     H22982   3.300   6.957   3.157  1.2636  1.0652 -0.7227
  167MOL0     H22983   3.143   6.796   3.227  1.1810  0.0876 -0.5367
  167MOL0     H22984   3.311   6.763   3.281  2.5649  2.5847  2.0382
  167MOL0     H22985   3.230   6.832   3.515  0.1604 -0.6562 -1.7113
  167MOL0     H22986   3.072   6.871   3.436  0.0597 -1.0751 -1.2403
  167MOL0     H22987   3.058   6.622   3.372  0.4414  0.8401 -0.4519
  167MOL0     H22988   3.067   6.648   3.552  1.0955  2.3349  0.4507
  167MOL0     H22989   3.282   6.530   3.358 -0.1194 -0.7396 -0.3950
  167MOL0     H22990   3.331   6.620   3.503  1.7812 -0.0193 -3.4670
  167MOL0     H22991   3.128   6.392   3.497 -1.0846 -1.7745  2.8164
  167MOL0     H22992   3.185   6.477   3.647  0.6108 -1.7289  0.4320
  167MOL0     H22993   3.392   6.332   3.467 -0.7623 -2.0299  1.3534
  167MOL0     H22994   3.414   6.431   3.608  2.0299 -2.1891 -0.2437
  167MOL0     H22995   3.561   6.228   3.688  1.5445 -1.9704 -1.2262
  167MOL0     H22996   3.607   6.029   3.824 -0.9394  0.9973  0.4992
  167MOL0     H22997   3.571   5.913   3.697  1.7726  1.2530  0.2816
  167MOL0     H22998   3.585   5.817   3.911  2.4082  1.1760 -4.4293
  167MOL0     H22999   3.439   5.913   3.964 -1.6643 -0.5089 -0.0926
  167MOL0     H23000   3.286   5.810   3.789  0.3431 -1.9532  0.0114
  167MOL0     H23001   3.428   5.718   3.739  0.1832 -1.1738  0.1779
  167MOL0     H23002   3.294   5.739   3.999  0.8741 -0.5216  1.9041
  167MOL0     H23003   3.294   5.595   3.900  1.5008  0.9009 -0.1085
  167MOL0     H23004   3.673   5.472   4.073  0.2129 -3.1969 -1.1038
  167MOL0     H23005   3.781   5.375   4.309 -2.1698  0.6760  1.2385
  167MOL0     H23006   3.777   5.289   4.163  1.0416  2.0653 -0.3973
  167MOL0     H23007   3.721   5.211   4.308 -1.3306 -0.2548 -0.2551
  167MOL0     H23008   3.432   5.004   4.599 -1.4969  0.7256  2.2262
  167MOL0     H23009   3.496   4.921   4.809  2.2539 -0.5644  2.2444
  167MOL0     H23010   3.783   4.843   5.029 -2.4269  0.5433  1.8069
  167MOL0     H23011   3.879   4.971   4.936  2.2482 -0.3213  1.4407
  167MOL0     H23012   3.760   5.029   5.210  0.7418  2.3920  0.6435
  167MOL0     H23013   3.890   4.927   5.197  0.5020  0.8035 -1.2905
  167MOL0     H23014   3.889   5.224   5.093  0.5392 -0.9121 -2.1696
  167MOL0     H23015   4.025   5.119   5.105 -0.0569  2.3284 -0.9781
  167MOL0     H23016   3.860   5.184   5.353 -0.1016 -2.2554 -0.7597
  167MOL0     H23017   3.988   5.300   5.301 -0.1729  0.4624 -2.3064
  167MOL0     H23018   4.038   5.009   5.399  0.5354 -0.2306  1.2053
  167MOL0     H23019   4.155   5.118   5.332 -0.6511  2.0225 -1.5983
  167MOL0     H23020   4.083   5.263   5.539  3.2229 -0.0449  3.3576
  167MOL0     H23021   4.155   5.107   5.582 -1.3983 -0.4246  1.9244
  167MOL0     H23022   3.912   5.023   5.574 -2.1497  0.8125  1.7548
  167MOL0     H23023   3.864   5.182   5.578  1.8726  1.5846 -0.0856
  167MOL0     H23024   4.028   5.054   5.809  1.4412 -0.1550 -1.0468
  167MOL0     H23025   3.855   5.059   5.795 -1.6819  2.5126 -1.5334
  167MOL0     H23026   3.843   5.176   4.824 -0.9145  3.3754  1.2870
  167MOL0     H23027   3.773   5.271   4.602  0.4911  0.2863  2.0808
  167MOL0     H23028   3.246   5.342   4.273 -1.7654  1.8656 -2.3927
  167MOL0     H23029   3.245   5.517   4.106  3.5258  6.0353  0.3935
  167MOL0     H23030   3.463   7.092   3.659 -4.7620 -3.2128  1.9455
  167MOL0     H23031   3.497   7.277   3.819  0.3817  1.7951 -0.1584
  167MOL0     H23032   3.465   7.596   4.055  1.4535  1.7232  0.1141
  167MOL0     H23033   3.450   7.738   4.265 -0.3277 -1.8548  0.0068
  167MOL0     H23034   3.126   8.026   4.254  0.4047 -3.5544  0.2384
  167MOL0     H23035   3.111   7.979   4.413  0.1309 -0.7362  0.3504
  167MOL0     H23036   3.302   8.142   4.496  3.1875  3.7232 -0.8890
  167MOL0     H23037   3.188   8.214   4.384 -0.9369 -0.1873  1.1461
  167MOL0     H23038   3.460   8.105   4.296 -1.2986 -1.8890  1.9360
  167MOL0     H23039   3.329   8.154   4.183 -0.5114  0.0562  0.3903
  167MOL0     H23040   3.522   8.313   4.281  1.4615 -1.4092  1.6518
  167MOL0     H23041   3.423   8.334   4.418 -0.9252 -2.8784  0.7565
  167MOL0     H23042   3.277   8.533   4.056 -0.6299  3.1541  2.3221
  167MOL0     H23043   3.108   7.933   4.077  0.8820  1.7302 -4.1854
  167MOL0     H23044   2.992   7.824   3.893 -1.0173 -2.5858  2.1614
  167MOL0     H23045   3.120   7.866   3.779 -0.6798  0.7397  1.2791
  167MOL0     H23046   3.066   7.694   3.803  1.1698  1.1909 -3.1056
  168MOL0     O23047   1.111   7.663   4.934  0.0635 -0.2077 -0.2810
  168MOL0     C23048   1.194   7.638   5.027  0.0645  0.8100  0.1270
  168MOL0     O23049   1.242   7.739   5.109 -0.4351  0.6422  0.2603
  168MOL0     C23050   1.155   7.846   5.141 -1.0474 -0.2479  1.0330
  168MOL0     C23051   1.134   7.859   5.274  0.0964 -0.4770  0.0034
  168MOL0     C23052   1.058   7.965   5.322  0.1822  0.0396  0.4702
  168MOL0     C23053   0.998   8.066   5.236  0.2546  1.0285  0.1150
  168MOL0     O23054   0.923   8.172   5.265  0.4318  0.1343 -0.4289
  168MOL0     C23055   0.929   8.230   5.394 -0.2851  0.6797 -0.9398
  168MOL0     C23056   0.799   8.316   5.420 -0.1585  0.0275  0.0238
  168MOL0     C23057   0.675   8.218   5.449 -0.9857 -0.0740  0.2812
  168MOL0     C23058   0.558   8.312   5.458  0.0278 -0.0439 -0.2515
  168MOL0     C23059   0.423   8.244   5.424  0.0545  0.3182  0.2136
  168MOL0     C23060   0.318   8.354   5.399 -0.0720 -0.4666 -0.4222
  168MOL0     C23061   0.176   8.287   5.390 -0.4029 -1.0544  0.4008
  168MOL0     C23062   0.064   8.399   5.383  0.1471  0.4936  0.2083
  168MOL0     N23063  -0.065   8.359   5.329  0.3935 -0.6748 -0.0154
  168MOL0     C23064  -0.085   8.306   5.206  0.4730 -0.6124 -0.4051
  168MOL0     C23065  -0.207   8.248   5.207  1.3766 -0.7839  0.3147
  168MOL0     C23066  -0.278   8.181   5.089 -0.4667 -0.4870  0.1851
  168MOL0     C23067  -0.321   8.044   5.139 -0.2701  0.0704  0.6591
  168MOL0     C23068  -0.424   8.002   5.035  0.4865 -0.2594 -0.3019
  168MOL0     C23069  -0.379   8.014   4.890 -0.4837 -0.1052  0.1589
  168MOL0     O23070  -0.453   7.922   4.817 -0.1266 -0.1412  0.8805
  168MOL0     C23071  -0.452   7.934   4.678  0.2212 -0.0750  0.4130
  168MOL0     C23072  -0.503   7.827   4.602 -0.4742 -0.3313  0.2444
  168MOL0     C23073  -0.519   7.832   4.461 -0.2721 -0.4222 -0.2353
  168MOL0     C23074  -0.599   7.724   4.391  0.1302  0.3192  0.2700
  168MOL0     C23075  -0.473   7.943   4.383  0.1939 -0.2472 -1.3546
  168MOL0     C23076  -0.468   7.958   4.238  0.2951  0.3409 -0.2306
  168MOL0     O23077  -0.449   8.079   4.187  0.4001 -1.1342 -0.1551
  168MOL0     C23078  -0.461   8.111   4.052 -0.2032  0.0373  0.4476
  168MOL0     C23079  -0.564   8.062   3.965  0.0830  0.3236 -0.2799
  168MOL0     C23080  -0.565   8.095   3.830 -0.0883 -0.0193  1.2927
  168MOL0     C23081  -0.466   8.177   3.772  0.8507 -0.5106 -0.3699
  168MOL0     O23082  -0.456   8.213   3.644 -0.1267  0.0906 -0.4971
  168MOL0     C23083  -0.536   8.139   3.549  0.0689 -0.3762  0.3060
  168MOL0     C23084  -0.501   7.996   3.534  0.7868  0.5610  0.4326
  168MOL0     C23085  -0.625   7.922   3.483 -0.0201  0.8437 -1.6012
  168MOL0     C23086  -0.604   7.777   3.481 -0.6536 -0.3363 -0.2388
  168MOL0     C23087  -0.705   7.715   3.385 -0.8012 -0.3635 -0.1079
  168MOL0     C23088  -0.693   7.558   3.388  0.8050  0.2398  0.0167
  168MOL0     C23089  -0.569   7.488   3.326  0.0243 -0.3162  0.3447
  168MOL0     C23090  -0.573   7.334   3.344 -0.0382  0.3284  0.3570
  168MOL0    Cl23091  -0.432   7.253   3.267  0.2790  0.5696  0.3075
  168MOL0     C23092  -0.375   8.229   3.861  0.1434 -0.4445  0.5716
  168MOL0     C23093  -0.366   8.194   3.992  0.4625 -0.5935  0.6851
  168MOL0     O23094  -0.489   7.856   4.169  0.4575 -0.4727  0.2415
  168MOL0     C23095  -0.422   8.051   4.462 -0.4619 -0.3509 -0.8486
  168MOL0     C23096  -0.409   8.044   4.604  0.0240  0.5249  0.7834
  168MOL0     N23097  -0.267   8.279   5.332 -0.7311  2.1239  0.1478
  168MOL0     N23098  -0.176   8.343   5.402  0.8873  0.3066 -0.2039
  168MOL0     C23099   1.020   8.041   5.096 -0.4528  0.1261  0.4401
  168MOL0     C23100   1.099   7.939   5.045  0.5183 -0.2553  0.8095
  168MOL0     C23101   1.277   7.511   5.012 -0.1657  0.0279 -0.1814
  168MOL0     C23102   1.267   7.434   4.892 -1.1741 -0.5767 -0.6938
  168MOL0     C23103   1.348   7.318   4.875  0.2216 -0.1467  0.5622
  168MOL0     C23104   1.440   7.278   4.969 -1.3129 -0.3043  0.1698
  168MOL0     O23105   1.528   7.180   4.958 -0.0350 -0.1062 -0.3201
  168MOL0     C23106   1.521   7.082   4.856  0.0533  0.2092 -0.3408
  168MOL0     C23107   1.630   6.971   4.884  0.4759 -0.0026 -0.0309
  168MOL0     C23108   1.743   6.967   4.784 -0.9623 -0.0699  0.4476
  168MOL0     C23109   1.849   6.859   4.822  0.1779  0.0856 -0.5350
  168MOL0     C23110   1.807   6.731   4.775 -1.1941  0.8618  0.7547
  168MOL0     C23111   1.750   6.621   4.753 -0.4892  0.6011  1.0521
  168MOL0     C23112   1.446   7.350   5.088  0.0804 -0.7713  0.5219
  168MOL0     C23113   1.366   7.464   5.107 -0.5853  0.0508 -0.2136
  168MOL0     C23114   1.385   7.529   5.241 -0.2855 -1.0108 -1.1563
  168MOL0     H23115   1.184   7.787   5.337  1.3260  0.3699  0.0204
  168MOL0     H23116   1.053   7.987   5.428  1.5870 -0.7723  0.7291
  168MOL0     H23117   1.017   8.294   5.407 -0.2893  0.2466  1.6922
  168MOL0     H23118   0.937   8.156   5.475  1.4977  0.8743 -0.8840
  168MOL0     H23119   0.827   8.385   5.499  1.1875 -1.4581  0.9090
  168MOL0     H23120   0.763   8.375   5.335  2.5346  3.2319  0.9215
  168MOL0     H23121   0.652   8.151   5.366  0.9006  1.6253 -1.7201
  168MOL0     H23122   0.704   8.165   5.541 -0.5125 -1.1446 -0.4642
  168MOL0     H23123   0.562   8.350   5.561  3.9750 -0.3732 -0.1337
  168MOL0     H23124   0.567   8.399   5.394  4.6768 -0.5362 -0.6195
  168MOL0     H23125   0.383   8.185   5.506 -0.0226  2.6779  1.9831
  168MOL0     H23126   0.426   8.179   5.336 -1.0046  1.7317 -0.9143
  168MOL0     H23127   0.309   8.414   5.491 -0.5774  0.7541 -1.2366
  168MOL0     H23128   0.360   8.408   5.314  5.1135  0.8314  2.5213
  168MOL0     H23129   0.167   8.229   5.482  1.5023 -3.0671 -0.5980
  168MOL0     H23130   0.175   8.216   5.306  4.1471 -1.4977  0.4821
  168MOL0     H23131   0.048   8.431   5.486 -2.9506  2.0720 -0.6489
  168MOL0     H23132   0.112   8.471   5.315  1.5067 -1.9497 -1.5576
  168MOL0     H23133  -0.018   8.298   5.121  2.4640 -1.5383  1.1827
  168MOL0     H23134  -0.216   8.175   5.000 -0.2261 -3.1493  0.4518
  168MOL0     H23135  -0.366   8.236   5.054 -0.3378 -0.9124 -0.8402
  168MOL0     H23136  -0.240   7.970   5.130 -1.4075 -1.1017 -0.3029
  168MOL0     H23137  -0.364   8.043   5.240  0.8363  3.2712  1.2907
  168MOL0     H23138  -0.462   7.902   5.057  0.0522 -0.2187 -0.8327
  168MOL0     H23139  -0.504   8.075   5.051  1.6980  0.9682  0.3837
  168MOL0     H23140  -0.382   8.119   4.858 -1.2106 -0.8356 -2.4612
  168MOL0     H23141  -0.276   7.978   4.899  0.2026  1.9064  0.8388
  168MOL0     H23142  -0.545   7.744   4.658  0.3567 -0.5030  0.6332
  168MOL0     H23143  -0.676   7.763   4.324  0.0088  0.8702  0.7230
  168MOL0     H23144  -0.654   7.668   4.467  1.2911  1.3921  1.9798
  168MOL0     H23145  -0.542   7.655   4.328 -1.0452  0.0035 -0.4779
  168MOL0     H23146  -0.638   7.999   4.014 -0.6089 -0.1556 -1.8493
  168MOL0     H23147  -0.637   8.044   3.768 -0.2234  0.3226  1.1630
  168MOL0     H23148  -0.642   8.165   3.553  0.3014  0.4160  1.9442
  168MOL0     H23149  -0.518   8.182   3.449 -1.7998  0.6902  0.3838
  168MOL0     H23150  -0.428   7.995   3.452 -0.2900  0.1097 -0.5554
  168MOL0     H23151  -0.471   7.949   3.627  1.0851 -1.6930 -0.7439
  168MOL0     H23152  -0.629   7.946   3.376  0.3007  0.0768 -1.7918
  168MOL0     H23153  -0.719   7.956   3.527 -0.7692 -0.8945 -1.7745
  168MOL0     H23154  -0.592   7.731   3.579 -1.8260  2.5230  1.3752
  168MOL0     H23155  -0.508   7.756   3.434 -1.6176 -1.0359 -1.9872
  168MOL0     H23156  -0.801   7.752   3.423  0.5302  3.6933 -0.2049
  168MOL0     H23157  -0.694   7.753   3.283  1.1723  0.0903  0.2441
  168MOL0     H23158  -0.782   7.524   3.334  0.3040  3.2663 -1.3067
  168MOL0     H23159  -0.699   7.512   3.487  0.7086 -2.8096 -1.2938
  168MOL0     H23160  -0.480   7.524   3.378  1.7343  2.0321 -3.7181
  168MOL0     H23161  -0.558   7.517   3.221 -0.5466 -1.5991 -0.0952
  168MOL0     H23162  -0.662   7.286   3.303  1.9358 -2.1220 -1.3652
  168MOL0     H23163  -0.574   7.324   3.453 -2.1294 -2.0685  0.2015
  168MOL0     H23164  -0.315   8.311   3.822 -1.4675  0.7297  0.4486
  168MOL0     H23165  -0.293   8.252   4.047  0.7518  2.7216 -2.7731
  168MOL0     H23166  -0.382   8.138   4.410  0.2611  1.4980  2.5449
  168MOL0     H23167  -0.365   8.129   4.654  0.6004  0.4914  0.3451
  168MOL0     H23168   0.974   8.105   5.022  0.2691  1.5321  1.1690
  168MOL0     H23169   1.101   7.925   4.937  1.9754  3.1110  0.2785
  168MOL0     H23170   1.209   7.465   4.805  2.1368  0.8829 -2.6066
  168MOL0     H23171   1.321   7.258   4.788  0.9321  3.0388 -2.0663
  168MOL0     H23172   1.423   7.033   4.852 -0.2921  0.7420  1.0142
  168MOL0     H23173   1.540   7.135   4.762  4.2286 -0.9045 -0.3025
  168MOL0     H23174   1.570   6.880   4.873 -2.3506  1.4950  1.6578
  168MOL0     H23175   1.669   6.971   4.987  0.0692  0.7329  0.1300
  168MOL0     H23176   1.708   6.956   4.681  2.4940  0.4462 -0.8944
  168MOL0     H23177   1.794   7.063   4.786  0.0448 -0.5790 -0.2560
  168MOL0     H23178   1.874   6.858   4.929 -3.0638 -1.0930  0.3189
  168MOL0     H23179   1.936   6.881   4.759 -0.7280  1.7546 -1.2770
  168MOL0     H23180   1.699   6.528   4.740  0.8976 -0.0648  0.0818
  168MOL0     H23181   1.517   7.321   5.165 -3.1096 -1.4704  3.4486
  168MOL0     H23182   1.297   7.562   5.297  0.9871 -0.4188  0.6135
  168MOL0     H23183   1.436   7.456   5.305 -1.4256 -0.8194  0.0196
  168MOL0     H23184   1.440   7.624   5.244 -1.6956 -0.1860 -0.6984
  169MOL0     O23185   2.821   6.647   7.613 -0.3140  0.6820  0.1671
  169MOL0     C23186   2.780   6.759   7.586 -0.9823  0.1220  1.3292
  169MOL0     O23187   2.868   6.867   7.567 -0.6667  0.3982  0.3912
  169MOL0     C23188   2.999   6.837   7.520  0.3696  0.2478 -0.6016
  169MOL0     C23189   3.025   6.754   7.415 -0.5175  0.7453 -0.7329
  169MOL0     C23190   3.152   6.726   7.370  0.3244 -0.1290 -1.0557
  169MOL0     C23191   3.271   6.771   7.441 -0.0524  0.0560 -0.2346
  169MOL0     O23192   3.407   6.759   7.403  0.7879  0.7654  0.8671
  169MOL0     C23193   3.437   6.717   7.266 -0.0159  0.2593 -0.5107
  169MOL0     C23194   3.582   6.673   7.253  0.5824  0.3502  0.8198
  169MOL0     C23195   3.685   6.785   7.233 -0.1440  0.6517  0.2079
  169MOL0     C23196   3.822   6.747   7.288 -0.0131  0.3595  1.0557
  169MOL0     C23197   3.922   6.844   7.224  0.0931 -0.2984 -0.4753
  169MOL0     C23198   3.910   7.002   7.251  0.4429  0.4294 -0.3969
  169MOL0     C23199   3.860   7.028   7.394  0.2685  0.2762  0.1355
  169MOL0     C23200   3.956   6.987   7.504  0.5098  0.5234  0.3848
  169MOL0     N23201   4.075   7.080   7.496 -0.2471  0.4533 -0.5039
  169MOL0     C23202   4.091   7.203   7.560 -0.1229 -0.6012  0.2779
  169MOL0     C23203   4.220   7.236   7.554  0.1689 -0.9473  1.7630
  169MOL0     C23204   4.270   7.367   7.601 -0.7018  0.2114 -0.4927
  169MOL0     C23205   4.423   7.380   7.606 -0.4931  1.2508  0.4539
  169MOL0     C23206   4.455   7.505   7.690  0.2253  0.1560  0.6993
  169MOL0     C23207   4.592   7.495   7.758  0.2940 -0.1132  0.3470
  169MOL0     O23208   4.637   7.620   7.812  0.0239  0.2386  0.3556
  169MOL0     C23209   4.746   7.683   7.757 -0.6284 -0.0802 -0.1655
  169MOL0     C23210   4.872   7.637   7.727  0.1395  1.3695 -0.6056
  169MOL0     C23211   4.974   7.712   7.677  0.8322 -0.8057 -0.3844
  169MOL0     C23212   5.107   7.659   7.668  0.4826  1.3721 -0.9458
  169MOL0     C23213   4.945   7.847   7.639  0.0357  1.2349 -0.0943
  169MOL0     C23214   5.031   7.925   7.558  0.2131  0.9821  0.2163
  169MOL0     O23215   5.061   8.052   7.590  0.8121 -0.7745 -0.1875
  169MOL0     C23216   5.168   8.111   7.526 -0.5460 -0.0931 -0.4586
  169MOL0     C23217   5.172   8.138   7.389 -0.3241  0.4459 -0.1245
  169MOL0     C23218   5.282   8.193   7.330 -0.0968 -0.1438 -0.0594
  169MOL0     C23219   5.401   8.200   7.396 -0.0194 -1.3001 -0.8128
  169MOL0     O23220   5.525   8.234   7.344 -0.2426 -0.4158 -0.3362
  169MOL0     C23221   5.534   8.288   7.211 -0.1145 -0.4571  0.2491
  169MOL0     C23222   5.679   8.341   7.179 -0.7297  0.6216  0.4343
  169MOL0     C23223   5.750   8.221   7.117 -0.4808  0.5980  0.3622
  169MOL0     C23224   5.904   8.243   7.117  0.0348  0.3540 -0.3484
  169MOL0     C23225   5.987   8.113   7.084 -0.3393 -0.1882 -1.1262
  169MOL0     C23226   6.138   8.144   7.063 -0.3247 -0.3060  0.5309
  169MOL0     C23227   6.218   8.025   7.012  0.5047  0.4609 -1.2197
  169MOL0     C23228   6.360   8.048   6.983  0.4463 -0.2906  0.4845
  169MOL0    Cl23229   6.375   8.163   6.846  0.0469  0.2004  0.0377
  169MOL0     C23230   5.403   8.182   7.531  0.1662  0.2960 -0.6674
  169MOL0     C23231   5.284   8.140   7.605 -0.5885  0.4056  0.5029
  169MOL0     O23232   5.082   7.865   7.459  0.2483 -0.4667 -0.4980
  169MOL0     C23233   4.826   7.898   7.685  0.6866 -0.4542  0.3492
  169MOL0     C23234   4.730   7.824   7.754  0.4580  0.2758 -0.3702
  169MOL0     N23235   4.277   7.136   7.491 -0.4001  0.0945  0.1352
  169MOL0     N23236   4.199   7.042   7.463 -0.0590 -0.0362  0.5150
  169MOL0     C23237   3.241   6.853   7.554 -0.1715 -0.0084  0.0537
  169MOL0     C23238   3.112   6.885   7.596 -0.4811  0.1281 -0.3207
  169MOL0     C23239   2.628   6.786   7.566 -0.8232  0.5000  0.9559
  169MOL0     C23240   2.560   6.666   7.523 -0.3434 -0.3145  0.0066
  169MOL0     C23241   2.416   6.683   7.500 -0.8899  0.1240 -1.0572
  169MOL0     C23242   2.343   6.796   7.511  0.6222  0.2916 -0.7876
  169MOL0     O23243   2.211   6.805   7.471 -0.0076 -0.1584 -0.3977
  169MOL0     C23244   2.150   6.695   7.412  0.5278 -0.1717  0.0497
  169MOL0     C23245   2.002   6.719   7.377 -0.2215 -0.5495  1.7299
  169MOL0     C23246   1.917   6.593   7.354 -0.1606  0.1848 -0.1226
  169MOL0     C23247   1.858   6.513   7.477  0.1243  0.1647 -0.7744
  169MOL0     C23248   1.765   6.593   7.554 -0.4938  0.4411  0.2754
  169MOL0     C23249   1.680   6.658   7.605 -0.3571  0.0113  0.2605
  169MOL0     C23250   2.415   6.920   7.548  0.0562 -0.0313  0.4752
  169MOL0     C23251   2.561   6.914   7.564  1.3540 -1.0616 -0.3616
  169MOL0     C23252   2.624   7.042   7.607 -1.0695  0.1492 -0.7095
  169MOL0     H23253   2.941   6.716   7.358  1.0984 -2.3432 -1.3017
  169MOL0     H23254   3.167   6.665   7.282  3.6898  1.2581 -1.6054
  169MOL0     H23255   3.420   6.794   7.190  0.6691  1.4359  0.5094
  169MOL0     H23256   3.364   6.639   7.241 -0.1051  0.5513 -1.1803
  169MOL0     H23257   3.599   6.608   7.339 -0.0083  1.9553  2.2128
  169MOL0     H23258   3.589   6.599   7.173 -1.0066  0.0475  0.9474
  169MOL0     H23259   3.704   6.813   7.129  1.5980  0.5622  0.4770
  169MOL0     H23260   3.645   6.869   7.291 -1.5261 -0.1011  0.3868
  169MOL0     H23261   3.835   6.748   7.396 -0.1501 -3.6495  1.2424
  169MOL0     H23262   3.854   6.653   7.243  3.6442  3.1355 -2.9930
  169MOL0     H23263   3.936   6.832   7.116  1.3365 -3.1516 -0.0904
  169MOL0     H23264   4.019   6.810   7.263 -0.6260 -2.0773 -0.1718
  169MOL0     H23265   4.007   7.048   7.228  0.8411 -1.2017 -2.1351
  169MOL0     H23266   3.831   7.035   7.184 -0.5882 -2.5481 -0.7612
  169MOL0     H23267   3.767   6.975   7.419  0.3843  0.6532  1.4236
  169MOL0     H23268   3.841   7.136   7.398 -0.2783  0.4071 -3.1628
  169MOL0     H23269   3.915   7.010   7.603  1.8802  0.3166  1.0388
  169MOL0     H23270   3.987   6.882   7.503 -0.6141  0.1896 -0.2013
  169MOL0     H23271   4.023   7.261   7.622 -2.2491 -2.2413 -0.3822
  169MOL0     H23272   4.247   7.362   7.708  1.9722 -1.2680  0.1130
  169MOL0     H23273   4.218   7.454   7.562  1.7048  1.9133 -0.1021
  169MOL0     H23274   4.467   7.288   7.646  0.3454 -0.6493 -4.2773
  169MOL0     H23275   4.460   7.384   7.504 -1.1668  0.6037  0.1759
  169MOL0     H23276   4.467   7.597   7.633  1.8719 -1.1943 -1.2884
  169MOL0     H23277   4.393   7.519   7.780  0.0411 -0.0415  0.6028
  169MOL0     H23278   4.597   7.420   7.838  2.8882  0.5459  0.9220
  169MOL0     H23279   4.659   7.462   7.678  0.1057  2.3518 -0.9419
  169MOL0     H23280   4.878   7.531   7.748 -2.8784  1.4442  1.3141
  169MOL0     H23281   5.131   7.599   7.756 -0.4529  1.1775 -0.8208
  169MOL0     H23282   5.177   7.743   7.668  1.0362  0.9819  1.5968
  169MOL0     H23283   5.135   7.601   7.579  1.1554  0.0531  0.0860
  169MOL0     H23284   5.081   8.107   7.339  0.7841 -2.7274 -0.4492
  169MOL0     H23285   5.268   8.229   7.228 -0.9043  0.6901  0.3247
  169MOL0     H23286   5.496   8.223   7.131  2.5626 -0.7503 -0.8933
  169MOL0     H23287   5.477   8.382   7.212  3.0029  1.5897  1.4978
  169MOL0     H23288   5.659   8.424   7.111 -1.5909  2.4152  2.7263
  169MOL0     H23289   5.725   8.377   7.272 -2.1447 -1.8615  2.2234
  169MOL0     H23290   5.712   8.197   7.017  0.2916 -1.5439  0.5331
  169MOL0     H23291   5.750   8.135   7.183  1.8185  1.3196  1.4128
  169MOL0     H23292   5.926   8.265   7.222 -1.6963 -1.1430  0.3855
  169MOL0     H23293   5.944   8.321   7.053 -1.6785  1.9651  0.4318
  169MOL0     H23294   5.983   8.041   7.165  3.5769 -0.3752 -0.9259
  169MOL0     H23295   5.955   8.080   6.984  0.3955 -1.2206 -1.0288
  169MOL0     H23296   6.184   8.181   7.155  3.6829  1.7438 -1.9872
  169MOL0     H23297   6.151   8.224   6.989  0.2355  0.7598  1.7329
  169MOL0     H23298   6.174   7.998   6.915  0.8123 -0.1756 -1.1928
  169MOL0     H23299   6.216   7.938   7.079  0.0189  1.6148  0.3015
  169MOL0     H23300   6.406   7.952   6.960 -0.5784 -0.0143 -3.4703
  169MOL0     H23301   6.412   8.093   7.068 -0.2943 -0.2705  0.9345
  169MOL0     H23302   5.495   8.199   7.585  1.3552 -0.7691 -2.2746
  169MOL0     H23303   5.300   8.116   7.709  4.6324  0.7093  0.0147
  169MOL0     H23304   4.804   8.004   7.674  0.5191 -0.5055  0.1919
  169MOL0     H23305   4.641   7.878   7.782  1.7401  0.9231  2.8720
  169MOL0     H23306   3.320   6.898   7.613  1.0332 -0.3201 -1.2628
  169MOL0     H23307   3.089   6.952   7.678  1.9121  0.8919 -0.2099
  169MOL0     H23308   2.608   6.570   7.507  3.0488  0.8064  2.2648
  169MOL0     H23309   2.376   6.584   7.483  1.6438 -0.4343 -5.4308
  169MOL0     H23310   2.187   6.652   7.319 -1.7220 -1.1684 -0.4522
  169MOL0     H23311   2.147   6.609   7.480  0.0937  0.7619  1.2672
  169MOL0     H23312   2.008   6.765   7.278 -0.1058 -0.6145  1.7076
  169MOL0     H23313   1.959   6.785   7.454  1.5821 -1.8911  4.0143
  169MOL0     H23314   1.836   6.633   7.292  1.9900 -0.4749 -3.6095
  169MOL0     H23315   1.978   6.522   7.299  1.0675 -1.2960  2.9283
  169MOL0     H23316   1.940   6.484   7.544  1.0007  1.0903 -1.4129
  169MOL0     H23317   1.805   6.427   7.435 -0.4618  0.3590 -0.4475
  169MOL0     H23318   1.597   6.714   7.643 -4.3056 -0.1849 -6.4753
  169MOL0     H23319   2.361   7.014   7.547 -0.6064 -0.2672 -3.3250
  169MOL0     H23320   2.568   7.131   7.578 -0.6848 -0.0578 -2.1941
  169MOL0     H23321   2.618   7.044   7.716  1.6336  1.1067 -0.5087
  169MOL0     H23322   2.727   7.044   7.570  0.3688  2.5116  2.8909
  170MOL0     O23323   3.446   2.911   6.459  0.2221  0.1555  0.1548
  170MOL0     C23324   3.340   2.939   6.403 -0.4401  0.3450  0.8351
  170MOL0     O23325   3.282   3.055   6.410 -0.6861 -0.1487 -0.1251
  170MOL0     C23326   3.342   3.150   6.489  0.7322  0.2517 -1.1277
  170MOL0     C23327   3.397   3.263   6.425  0.1693  0.9186  0.5825
  170MOL0     C23328   3.440   3.376   6.501  1.0028 -0.0870 -0.7318
  170MOL0     C23329   3.431   3.372   6.647  0.2277  0.1935  0.0057
  170MOL0     O23330   3.474   3.476   6.730 -0.4197 -0.0383 -0.5443
  170MOL0     C23331   3.564   3.571   6.666  0.1623  1.0522  0.5890
  170MOL0     C23332   3.632   3.658   6.766  0.0917 -0.4276 -0.0344
  170MOL0     C23333   3.708   3.770   6.696  0.7610  0.6698 -0.5659
  170MOL0     C23334   3.760   3.876   6.798 -0.9682  0.1373  0.2430
  170MOL0     C23335   3.879   3.944   6.735 -0.4370 -0.1333  0.6345
  170MOL0     C23336   3.934   4.073   6.801 -0.2694 -0.0089 -0.6715
  170MOL0     C23337   3.817   4.178   6.829 -0.1152  0.0644  0.7754
  170MOL0     C23338   3.874   4.315   6.864  0.4330  0.0006  0.1704
  170MOL0     N23339   3.956   4.323   6.983  1.2567  0.7755  0.7608
  170MOL0     C23340   4.088   4.328   6.986  1.3290  0.3668 -0.1367
  170MOL0     C23341   4.111   4.358   7.118 -0.5699  0.4330 -0.7271
  170MOL0     C23342   4.250   4.393   7.180  0.7635 -0.4143  0.1045
  170MOL0     C23343   4.280   4.304   7.300 -0.0793 -0.0375  0.6880
  170MOL0     C23344   4.420   4.306   7.353  0.3937  1.1274  0.2004
  170MOL0     C23345   4.525   4.234   7.266 -0.3398 -0.7096  0.5057
  170MOL0     O23346   4.471   4.107   7.224  0.4362  1.0215 -0.1890
  170MOL0     C23347   4.508   4.056   7.101  0.1519 -1.6413  0.3877
  170MOL0     C23348   4.411   3.991   7.027 -0.6970  0.4024 -0.2043
  170MOL0     C23349   4.445   3.922   6.911  0.6344  0.0258 -0.7969
  170MOL0     C23350   4.340   3.841   6.841  1.1316  0.1983 -0.1594
  170MOL0     C23351   4.579   3.930   6.862  0.1717 -0.0616  0.7343
  170MOL0     C23352   4.635   3.858   6.740  0.5304 -0.0376  0.0045
  170MOL0     O23353   4.758   3.813   6.750  0.2886 -0.0644  0.7496
  170MOL0     C23354   4.834   3.784   6.639  0.3435  0.6068 -0.7550
  170MOL0     C23355   4.885   3.661   6.627 -0.0912  0.8498 -0.2549
  170MOL0     C23356   4.975   3.643   6.520 -0.2220  0.2630  0.4601
  170MOL0     C23357   5.006   3.744   6.426 -0.5242 -0.9889  0.3220
  170MOL0     O23358   5.109   3.719   6.341  0.0438 -0.2176  0.5403
  170MOL0     C23359   5.169   3.828   6.275 -0.3388  0.1387  0.1603
  170MOL0     C23360   5.290   3.766   6.192 -0.7841 -0.9077  0.0576
  170MOL0     C23361   5.245   3.706   6.053 -0.9467  0.4614  0.6889
  170MOL0     C23362   5.375   3.657   5.992 -0.3309 -0.7237 -0.0925
  170MOL0     C23363   5.362   3.610   5.845 -0.9364 -0.2703 -0.3539
  170MOL0     C23364   5.502   3.581   5.789 -0.6838  0.0796 -0.2797
  170MOL0     C23365   5.506   3.564   5.641  0.4071  0.0654  0.1388
  170MOL0     C23366   5.429   3.446   5.599 -0.5164  1.0406  0.0472
  170MOL0    Cl23367   5.440   3.305   5.703  0.5032 -0.2960 -0.4212
  170MOL0     C23368   4.953   3.870   6.455 -1.3014  0.5741  0.0182
  170MOL0     C23369   4.862   3.888   6.555  0.1274  0.4044 -0.2193
  170MOL0     O23370   4.564   3.862   6.637 -0.1360  0.5956  0.5213
  170MOL0     C23371   4.671   4.004   6.939  0.2258  0.6417 -0.3171
  170MOL0     C23372   4.637   4.065   7.061  0.5115 -0.4055  0.1496
  170MOL0     N23373   4.003   4.346   7.195  0.5699  0.9582  0.7737
  170MOL0     N23374   3.904   4.345   7.109 -0.1631 -0.0514 -0.4786
  170MOL0     C23375   3.377   3.263   6.703 -0.2227  0.2759  0.7271
  170MOL0     C23376   3.339   3.149   6.628 -0.4102 -0.1472 -0.3360
  170MOL0     C23377   3.282   2.834   6.319  0.0587 -1.6484 -0.1683
  170MOL0     C23378   3.150   2.824   6.326  0.9375  0.3359  0.1928
  170MOL0     C23379   3.090   2.725   6.249 -0.3879  0.0802 -0.3931
  170MOL0     C23380   3.159   2.615   6.186 -0.3006 -0.3029  0.0196
  170MOL0     O23381   3.089   2.534   6.098 -0.2676 -0.3053  0.0508
  170MOL0     C23382   3.148   2.413   6.059 -0.0396  0.7363  0.3861
  170MOL0     C23383   3.165   2.320   6.182  0.0225 -0.9909 -0.2798
  170MOL0     C23384   3.034   2.312   6.261 -0.3280  0.2225 -0.4057
  170MOL0     C23385   3.019   2.202   6.367 -0.1532 -0.1291  0.2498
  170MOL0     C23386   3.051   2.071   6.311  0.8192  0.5868  0.0700
  170MOL0     C23387   3.079   1.960   6.274 -0.2561 -0.1222 -0.2673
  170MOL0     C23388   3.296   2.621   6.199 -0.9401  0.5939 -1.6170
  170MOL0     C23389   3.356   2.735   6.249  0.3509 -0.2198  0.3042
  170MOL0     C23390   3.509   2.731   6.252 -0.0561  0.0654  0.0237
  170MOL0     H23391   3.399   3.268   6.316 -0.6449  2.0098  0.5905
  170MOL0     H23392   3.480   3.463   6.449  0.0676 -0.2605 -1.7841
  170MOL0     H23393   3.502   3.637   6.604  2.3846  3.8233  1.1364
  170MOL0     H23394   3.641   3.518   6.609 -1.0776 -0.3602  0.1453
  170MOL0     H23395   3.560   3.703   6.836 -0.9639  0.5953 -1.7128
  170MOL0     H23396   3.704   3.595   6.818  0.7699  1.0314  0.8583
  170MOL0     H23397   3.795   3.732   6.642  0.4039 -1.2004  0.1091
  170MOL0     H23398   3.639   3.809   6.621  1.1829 -1.1504 -1.9567
  170MOL0     H23399   3.698   3.963   6.821  0.6166  1.8216 -1.5591
  170MOL0     H23400   3.791   3.825   6.890 -2.1840  0.8447  1.0756
  170MOL0     H23401   3.852   3.975   6.633  4.5803 -0.1651 -0.9883
  170MOL0     H23402   3.955   3.866   6.727  0.0347  0.5048 -3.2453
  170MOL0     H23403   3.999   4.050   6.886 -0.5628  3.3408  0.5813
  170MOL0     H23404   3.995   4.124   6.726  0.8412  1.3182  1.0730
  170MOL0     H23405   3.757   4.139   6.912 -0.9577 -2.9750 -1.0789
  170MOL0     H23406   3.754   4.183   6.740 -1.0558  1.7771  1.5025
  170MOL0     H23407   3.931   4.347   6.777 -1.5551 -1.6833 -1.8966
  170MOL0     H23408   3.785   4.376   6.882 -1.7328 -2.8801  0.0301
  170MOL0     H23409   4.147   4.322   6.895  1.7664  2.5640 -0.0461
  170MOL0     H23410   4.248   4.498   7.210 -1.4453 -0.8087  1.6031
  170MOL0     H23411   4.320   4.374   7.098  1.1332 -0.7151  0.4903
  170MOL0     H23412   4.213   4.341   7.379  0.1604  0.8662  0.4864
  170MOL0     H23413   4.250   4.203   7.271  0.4294  0.5445 -2.1961
  170MOL0     H23414   4.447   4.408   7.379 -5.6131  2.5458  2.5653
  170MOL0     H23415   4.421   4.247   7.445  1.5357  0.4114 -0.2475
  170MOL0     H23416   4.549   4.296   7.179  4.0985 -1.3782  1.0262
  170MOL0     H23417   4.622   4.225   7.314 -0.4957 -1.0528  0.7646
  170MOL0     H23418   4.313   3.976   7.072 -1.7212  2.4295 -1.6104
  170MOL0     H23419   4.386   3.765   6.776  2.3180 -0.6801  1.6190
  170MOL0     H23420   4.266   3.896   6.782 -1.8739 -4.0356 -0.7541
  170MOL0     H23421   4.288   3.777   6.912  2.6988 -2.2019 -1.0313
  170MOL0     H23422   4.856   3.576   6.689  0.2365  2.1538  1.7576
  170MOL0     H23423   5.031   3.550   6.513  0.2788  0.4681  1.5418
  170MOL0     H23424   5.089   3.873   6.215 -0.8153 -0.8130  0.0612
  170MOL0     H23425   5.222   3.896   6.342 -1.9714  2.9517 -1.2111
  170MOL0     H23426   5.363   3.846   6.172  0.3260 -1.4435  1.7064
  170MOL0     H23427   5.339   3.693   6.257 -0.0667 -0.7511 -0.2979
  170MOL0     H23428   5.211   3.791   5.993 -0.3884  1.0195  1.1548
  170MOL0     H23429   5.175   3.622   6.054  0.6141 -1.1268  5.5353
  170MOL0     H23430   5.430   3.581   6.048 -0.3447 -1.2034 -0.7277
  170MOL0     H23431   5.445   3.741   5.991 -2.1311  0.8437 -0.8582
  170MOL0     H23432   5.298   3.522   5.847 -1.3679 -0.0290  3.0340
  170MOL0     H23433   5.321   3.686   5.778  4.1208  1.1614 -2.2972
  170MOL0     H23434   5.561   3.505   5.841  0.4973 -0.0144 -1.6880
  170MOL0     H23435   5.568   3.665   5.812  1.6105 -1.6935  0.0657
  170MOL0     H23436   5.609   3.541   5.611 -0.5629 -1.7459 -2.2139
  170MOL0     H23437   5.466   3.651   5.589 -0.4986 -0.3332  0.1439
  170MOL0     H23438   5.482   3.415   5.508 -0.2593 -3.2533  1.4564
  170MOL0     H23439   5.323   3.467   5.585 -1.3289 -2.9566 -0.9613
  170MOL0     H23440   4.978   3.962   6.404 -0.0168  0.7317  0.8850
  170MOL0     H23441   4.840   3.991   6.582  2.6121  0.4918  1.8576
  170MOL0     H23442   4.773   4.000   6.901  0.3403 -2.2676  0.0526
  170MOL0     H23443   4.706   4.114   7.129 -3.8438  1.8233  3.4356
  170MOL0     H23444   3.370   3.257   6.811 -4.8716 -0.3179  0.5891
  170MOL0     H23445   3.304   3.060   6.679  0.4084  0.5664  1.5921
  170MOL0     H23446   3.078   2.888   6.376 -0.4429 -2.8311  2.5649
  170MOL0     H23447   2.981   2.730   6.241 -0.4282 -1.6782 -1.4020
  170MOL0     H23448   3.078   2.355   5.999  1.4696 -0.4967 -0.2709
  170MOL0     H23449   3.237   2.413   5.995 -0.7748  2.2113 -0.6825
  170MOL0     H23450   3.249   2.354   6.243  0.9839 -1.8886 -1.0842
  170MOL0     H23451   3.203   2.222   6.152 -0.4234 -1.3522  0.3097
  170MOL0     H23452   3.020   2.406   6.314  3.2799  0.3127  0.6449
  170MOL0     H23453   2.947   2.298   6.195 -0.4536  0.2545 -0.2477
  170MOL0     H23454   2.914   2.200   6.398  0.0008  2.5449  1.2566
  170MOL0     H23455   3.088   2.235   6.446  1.2141 -0.5949 -0.7092
  170MOL0     H23456   3.103   1.861   6.243  1.1011  0.3228 -0.7257
  170MOL0     H23457   3.360   2.543   6.157  2.6959  2.7542 -0.5674
  170MOL0     H23458   3.560   2.828   6.259  0.9706 -0.5899  2.5543
  170MOL0     H23459   3.543   2.666   6.333  2.7398  1.7642  0.3617
  170MOL0     H23460   3.541   2.704   6.150 -2.2599  1.1077 -1.0036
  171MOL0     O23461   1.657   0.802  10.872  0.5058 -0.6809  0.7429
  171MOL0     C23462   1.751   0.807  10.802  0.1399  0.2321 -0.3151
  171MOL0     O23463   1.743   0.837  10.666 -0.1896  0.0232 -0.4567
  171MOL0     C23464   1.624   0.895  10.624  0.9821  0.3950 -0.1381
  171MOL0     C23465   1.510   0.818  10.603 -0.6972  0.1497  0.5327
  171MOL0     C23466   1.391   0.873  10.570  0.0039 -0.1822  0.0982
  171MOL0     C23467   1.389   1.005  10.525  0.0805  0.2313 -0.6806
  171MOL0     O23468   1.274   1.042  10.458 -1.5275  1.1024 -0.4225
  171MOL0     C23469   1.289   1.141  10.349 -0.1876  0.5263 -1.3341
  171MOL0     C23470   1.153   1.144  10.286 -0.4071 -1.0932  0.5082
  171MOL0     C23471   1.143   1.057  10.157  0.2798  0.6719  0.8000
  171MOL0     C23472   1.034   1.105  10.072 -0.3747  0.3146  0.2700
  171MOL0     C23473   0.993   1.007   9.961  0.5120 -0.1491  0.1992
  171MOL0     C23474   0.873   0.914   9.983 -0.1561 -0.3071 -0.1163
  171MOL0     C23475   0.880   0.803   9.878  0.4549  0.0517 -0.7029
  171MOL0     C23476   0.787   0.688   9.907 -0.1524 -0.9743  0.2205
  171MOL0     N23477   0.850   0.596  10.002  0.0568 -0.6768 -0.2509
  171MOL0     C23478   0.942   0.503   9.959  1.2354 -0.0487 -0.1330
  171MOL0     C23479   1.008   0.467  10.074  0.7733 -0.6766 -0.3911
  171MOL0     C23480   1.126   0.385  10.075  1.8413  0.3236  0.6572
  171MOL0     C23481   1.111   0.297  10.208 -0.0299  0.4922  0.5899
  171MOL0     C23482   1.219   0.187  10.203 -0.2835  0.7913  0.0912
  171MOL0     C23483   1.210   0.084  10.313 -0.0765 -0.3897  0.9469
  171MOL0     O23484   1.212   0.141  10.438 -0.2125 -0.1341 -0.7054
  171MOL0     C23485   1.178   0.054  10.541  0.4940 -0.6216  0.2662
  171MOL0     C23486   1.201  -0.081  10.536 -0.6666 -0.2309 -0.0698
  171MOL0     C23487   1.149  -0.165  10.637  0.3202  0.6123 -0.7535
  171MOL0     C23488   1.176  -0.312  10.632 -0.1715  0.0972  0.6972
  171MOL0     C23489   1.069  -0.111  10.748 -0.1921 -0.3042  0.7145
  171MOL0     C23490   1.029  -0.193  10.878 -0.6649  0.2145  0.8037
  171MOL0     O23491   0.994  -0.111  10.981  0.0606  0.3905 -0.3168
  171MOL0     C23492   0.929  -0.162  11.094  0.2361  0.4710  0.0593
  171MOL0     C23493   0.798  -0.130  11.118 -0.7332  0.2292 -0.1607
  171MOL0     C23494   0.725  -0.203  11.220  1.0353  0.1084  0.1537
  171MOL0     C23495   0.799  -0.288  11.300 -0.5402 -0.0139  0.5116
  171MOL0     O23496   0.732  -0.350  11.396 -0.2563 -0.4902 -1.4388
  171MOL0     C23497   0.752  -0.486  11.427  0.4003  0.5682  0.0975
  171MOL0     C23498   0.665  -0.584  11.352 -0.4507  0.2189  0.5221
  171MOL0     C23499   0.515  -0.549  11.359 -0.3132  0.1630 -0.3609
  171MOL0     C23500   0.424  -0.661  11.314 -0.2703  0.5326 -0.5420
  171MOL0     C23501   0.281  -0.614  11.298  0.0396 -1.2025  0.2551
  171MOL0     C23502   0.185  -0.727  11.289  0.0518  0.4240  0.2819
  171MOL0     C23503   0.043  -0.681  11.259 -0.2301  0.7723  0.3958
  171MOL0     C23504  -0.039  -0.803  11.222  0.0233 -0.3455  0.8039
  171MOL0    Cl23505  -0.198  -0.772  11.158  0.3901 -0.1211  0.1861
  171MOL0     C23506   0.934  -0.310  11.287 -0.2930 -0.4195 -0.3767
  171MOL0     C23507   1.000  -0.254  11.177 -0.3788 -0.0309  0.0788
  171MOL0     O23508   1.017  -0.310  10.880  1.0920 -0.0330 -0.1564
  171MOL0     C23509   1.042   0.026  10.746 -0.0806  0.4025  0.8350
  171MOL0     C23510   1.093   0.101  10.645  0.2997  0.0767  0.2211
  171MOL0     N23511   0.959   0.548  10.178 -0.3598  0.1596  0.1499
  171MOL0     N23512   0.862   0.622  10.132  0.9065 -0.1042 -0.2432
  171MOL0     C23513   1.498   1.088  10.548 -0.4713 -0.2347 -1.0216
  171MOL0     C23514   1.612   1.031  10.604 -0.4628 -0.3634 -0.6508
  171MOL0     C23515   1.890   0.771  10.855  1.2268  0.0218 -0.0824
  171MOL0     C23516   1.992   0.774  10.758 -0.6805  0.3596 -0.3134
  171MOL0     C23517   2.124   0.745  10.799  0.3069  0.4059 -0.4927
  171MOL0     C23518   2.169   0.704  10.926  0.2642  0.6017  1.2988
  171MOL0     O23519   2.302   0.669  10.958  0.4589 -0.0352  0.4411
  171MOL0     C23520   2.413   0.743  10.907  0.5132  0.0869 -0.6332
  171MOL0     C23521   2.541   0.662  10.931 -1.2204 -0.3473  0.5812
  171MOL0     C23522   2.538   0.523  10.848 -0.3383  1.0069 -0.2338
  171MOL0     C23523   2.675   0.448  10.861 -0.0332  0.2513  0.2662
  171MOL0     C23524   2.703   0.394  11.000  0.1319  0.1971  0.0817
  171MOL0     C23525   2.718   0.349  11.109  0.8921 -0.6039  0.6682
  171MOL0     C23526   2.063   0.692  11.015 -0.3405  1.5233  0.5696
  171MOL0     C23527   1.924   0.730  10.985  1.1133  0.1142  0.6631
  171MOL0     C23528   1.829   0.722  11.091 -0.1673  0.4649 -0.1620
  171MOL0     H23529   1.518   0.711  10.618  0.9716  0.4005  1.8200
  171MOL0     H23530   1.300   0.820  10.544  0.7000 -1.0287 -0.6979
  171MOL0     H23531   1.370   1.123  10.277 -0.2130  2.7619 -1.9752
  171MOL0     H23532   1.299   1.242  10.390  1.5734  0.9087 -2.5661
  171MOL0     H23533   1.073   1.120  10.356 -0.3876 -1.6602  0.3410
  171MOL0     H23534   1.136   1.249  10.259  2.1823 -0.1836  2.0078
  171MOL0     H23535   1.242   1.057  10.111  0.5721  0.4490  1.4326
  171MOL0     H23536   1.125   0.954  10.189 -1.3892  1.2997  2.0495
  171MOL0     H23537   0.947   1.126  10.136 -0.9116  1.3473 -0.7523
  171MOL0     H23538   1.066   1.197  10.023 -0.4271  1.1187  1.6790
  171MOL0     H23539   1.076   0.948   9.920 -1.3478 -1.4974 -1.9147
  171MOL0     H23540   0.962   1.070   9.877 -1.2415 -1.6418 -0.3577
  171MOL0     H23541   0.888   0.876  10.085  0.0764 -1.3739 -0.5319
  171MOL0     H23542   0.771   0.955   9.980 -0.4560 -1.0538 -0.2687
  171MOL0     H23543   0.978   0.756   9.867 -0.3735 -2.1221  0.6131
  171MOL0     H23544   0.833   0.845   9.789 -2.6216 -0.7460  0.4393
  171MOL0     H23545   0.695   0.731   9.948 -0.0401 -2.4596  2.1884
  171MOL0     H23546   0.760   0.633   9.817 -0.0065  0.3570 -0.6591
  171MOL0     H23547   0.964   0.470   9.858 -0.0945 -0.1874 -0.3979
  171MOL0     H23548   1.220   0.441  10.078  0.3685  2.9812 -0.2342
  171MOL0     H23549   1.126   0.318   9.988  0.4818 -0.6947  1.4070
  171MOL0     H23550   1.124   0.364  10.293 -1.2198 -0.2190  1.3568
  171MOL0     H23551   1.012   0.251  10.218  0.2953 -0.8201 -1.5540
  171MOL0     H23552   1.205   0.133  10.108  2.3751  0.3732 -0.1258
  171MOL0     H23553   1.323   0.218  10.191 -0.7291  1.9069 -1.2169
  171MOL0     H23554   1.119   0.025  10.305  1.3539 -2.4479 -3.1812
  171MOL0     H23555   1.291   0.013  10.292 -1.4486 -2.1469  1.3714
  171MOL0     H23556   1.260  -0.122  10.455  0.1094  0.1181  0.3027
  171MOL0     H23557   1.240  -0.342  10.715  0.8979 -2.6279 -0.9800
  171MOL0     H23558   1.225  -0.341  10.539  1.5289 -1.1632  1.9322
  171MOL0     H23559   1.075  -0.354  10.641 -2.3394  4.8054  1.9056
  171MOL0     H23560   0.747  -0.060  11.053  0.1187 -0.4856 -1.6419
  171MOL0     H23561   0.618  -0.194  11.238 -0.3009 -6.2896 -1.9527
  171MOL0     H23562   0.859  -0.507  11.418  0.6616  1.8748 -0.0204
  171MOL0     H23563   0.721  -0.510  11.529 -1.4754 -0.0948 -0.5953
  171MOL0     H23564   0.692  -0.588  11.246 -3.5429  3.5036 -0.5836
  171MOL0     H23565   0.684  -0.682  11.396  2.1762 -0.2689 -1.4575
  171MOL0     H23566   0.490  -0.471  11.287 -0.6361  3.1115  2.6891
  171MOL0     H23567   0.493  -0.526  11.464 -0.8642 -3.8063  0.5914
  171MOL0     H23568   0.424  -0.739  11.391 -1.2629  0.7095 -0.3581
  171MOL0     H23569   0.452  -0.697  11.215 -1.4274  2.4145 -1.6308
  171MOL0     H23570   0.256  -0.552  11.386 -0.9742  2.4377 -2.3500
  171MOL0     H23571   0.275  -0.550  11.210 -0.7401 -0.2380  0.9801
  171MOL0     H23572   0.199  -0.787  11.379  2.6049  1.8052  0.9123
  171MOL0     H23573   0.221  -0.789  11.207 -2.5295 -1.2609  0.3197
  171MOL0     H23574   0.051  -0.617  11.171 -4.0430  0.7821 -0.1036
  171MOL0     H23575   0.001  -0.621  11.340 -0.3242 -0.3553  1.2146
  171MOL0     H23576  -0.034  -0.867  11.311 -1.4689 -0.5636  0.7541
  171MOL0     H23577   0.010  -0.856  11.140 -0.2802  0.1660  0.2872
  171MOL0     H23578   0.988  -0.375  11.355 -1.7154 -1.0743  0.1673
  171MOL0     H23579   1.103  -0.281  11.155  0.2513  2.2054  0.1285
  171MOL0     H23580   0.979   0.067  10.823  0.9506 -1.0255  2.4991
  171MOL0     H23581   1.076   0.209  10.643 -2.0306 -0.2486 -1.2744
  171MOL0     H23582   1.480   1.189  10.512 -0.5377  0.4829  0.9194
  171MOL0     H23583   1.703   1.085  10.630  0.3220 -1.4193 -1.1544
  171MOL0     H23584   1.974   0.776  10.651 -1.8019 -2.9527 -0.2925
  171MOL0     H23585   2.202   0.749  10.723  1.2804  1.9609  0.5276
  171MOL0     H23586   2.404   0.761  10.800 -1.0443  3.9301 -0.0465
  171MOL0     H23587   2.417   0.839  10.960 -1.7402  0.3373 -0.8221
  171MOL0     H23588   2.563   0.646  11.037 -2.5649 -0.2878  0.8905
  171MOL0     H23589   2.627   0.724  10.908  1.4825 -3.7346  0.6603
  171MOL0     H23590   2.453   0.467  10.889 -2.0231  2.6434 -1.3300
  171MOL0     H23591   2.514   0.548  10.745 -1.1229  2.2160  0.2143
  171MOL0     H23592   2.751   0.509  10.810 -0.0925 -1.0270 -1.4091
  171MOL0     H23593   2.660   0.363  10.794 -0.3994  0.1198  0.5142
  171MOL0     H23594   2.731   0.308  11.207  2.8666 -3.1333 -0.5210
  171MOL0     H23595   2.083   0.654  11.115 -2.1823 -2.0195 -0.2214
  171MOL0     H23596   1.737   0.679  11.052 -0.2598  0.1273  0.4202
  171MOL0     H23597   1.865   0.643  11.159 -0.8820 -0.0553 -0.3786
  171MOL0     H23598   1.804   0.810  11.150  0.8334 -0.7713  2.2595
  172MOL0     O23599  10.951  10.331   9.898 -0.2432  0.6410  0.8444
  172MOL0     C23600  11.041  10.312   9.817  1.0706 -0.6372  0.5460
  172MOL0     O23601  11.177  10.304   9.848 -0.0106  0.2134 -0.6607
  172MOL0     C23602  11.220  10.320   9.979  0.0226  0.0393 -0.6123
  172MOL0     C23603  11.279  10.432  10.029 -0.1487  0.5919  0.0286
  172MOL0     C23604  11.313  10.447  10.167  0.3248  0.2158  0.8695
  172MOL0     C23605  11.296  10.339  10.259 -0.0210 -0.8547 -0.3604
  172MOL0     O23606  11.326  10.351  10.394  0.8002  0.0361 -0.2421
  172MOL0     C23607  11.428  10.445  10.418  0.1247  0.3722 -0.9836
  172MOL0     C23608  11.483  10.413  10.559 -0.1586 -0.9669 -1.0647
  172MOL0     C23609  11.388  10.454  10.677 -0.4126 -0.2384  0.3459
  172MOL0     C23610  11.458  10.413  10.804 -0.4591  0.3921  0.3236
  172MOL0     C23611  11.395  10.465  10.929 -0.0442  0.3570 -0.4172
  172MOL0     C23612  11.278  10.373  10.980 -0.1964  0.1883 -0.2501
  172MOL0     C23613  11.229  10.391  11.119 -0.3702 -0.4878  0.3145
  172MOL0     C23614  11.334  10.346  11.221  0.7124  0.0116 -0.6906
  172MOL0     N23615  11.298  10.372  11.359 -0.5744 -0.3526 -1.0667
  172MOL0     C23616  11.229  10.482  11.404  0.2542  1.1546 -0.4922
  172MOL0     C23617  11.234  10.470  11.543 -0.6749 -0.3333  0.7366
  172MOL0     C23618  11.160  10.556  11.631  0.5218  0.8688 -0.2714
  172MOL0     C23619  11.234  10.665  11.716 -0.3514 -0.2268  1.3583
  172MOL0     C23620  11.298  10.766  11.614 -0.9233  0.1636 -0.0301
  172MOL0     C23621  11.353  10.887  11.690 -0.2677 -0.6476 -0.1818
  172MOL0     O23622  11.230  10.947  11.742 -0.0585 -0.4986  0.7110
  172MOL0     C23623  11.229  10.996  11.869  0.5923 -0.2050 -0.2237
  172MOL0     C23624  11.339  11.013  11.954 -0.2044 -0.0985  0.3517
  172MOL0     C23625  11.323  11.067  12.083 -0.2131 -0.2684  0.2484
  172MOL0     C23626  11.442  11.103  12.173 -0.3282 -0.0604 -0.0827
  172MOL0     C23627  11.190  11.089  12.130 -0.1928 -0.8971 -0.2165
  172MOL0     C23628  11.140  11.131  12.265  0.4509  0.3079 -0.1510
  172MOL0     O23629  11.006  11.165  12.283 -0.0658 -0.4476  0.3981
  172MOL0     C23630  10.954  11.180  12.403  0.2317 -0.5906  0.1010
  172MOL0     C23631  10.836  11.243  12.392 -1.0147 -0.6537  0.4024
  172MOL0     C23632  10.748  11.265  12.497 -0.8022 -0.5708 -0.2389
  172MOL0     C23633  10.787  11.224  12.617 -0.1464  0.5725 -0.3733
  172MOL0     O23634  10.695  11.241  12.709 -0.4287  0.0917 -0.2432
  172MOL0     C23635  10.748  11.295  12.831 -0.7331 -0.0139 -0.1410
  172MOL0     C23636  10.802  11.437  12.805  0.4601  0.2709 -0.0700
  172MOL0     C23637  10.875  11.488  12.930  1.5034  0.2871 -0.1709
  172MOL0     C23638  10.784  11.487  13.054 -0.4298  0.0731  0.4764
  172MOL0     C23639  10.833  11.578  13.161  0.0629 -0.6370 -0.4216
  172MOL0     C23640  10.822  11.720  13.129  0.5982  0.3409 -0.0217
  172MOL0     C23641  10.878  11.806  13.239  0.5537  0.3554  0.4982
  172MOL0     C23642  10.864  11.946  13.180 -0.5610  0.4162  0.6570
  172MOL0    Cl23643  10.868  12.080  13.307 -0.0052 -0.5091  0.3343
  172MOL0     C23644  10.907  11.155  12.627 -0.7231 -0.2842 -0.6846
  172MOL0     C23645  10.991  11.133  12.521  0.1943  0.6382 -0.7636
  172MOL0     O23646  11.224  11.135  12.353  0.0242 -0.0705  0.7268
  172MOL0     C23647  11.083  11.071  12.041 -0.6945  0.2359 -0.2900
  172MOL0     C23648  11.097  11.029  11.914 -0.7851 -0.8843  0.5678
  172MOL0     N23649  11.287  10.342  11.577  0.0858  0.3542  0.4961
  172MOL0     N23650  11.322  10.292  11.468 -1.0741  0.0471 -0.5915
  172MOL0     C23651  11.238  10.222  10.206 -0.5632  0.6073  0.0697
  172MOL0     C23652  11.204  10.209  10.066 -0.1019 -0.2175 -0.2452
  172MOL0     C23653  11.001  10.307   9.669  1.1271 -0.8178 -0.1714
  172MOL0     C23654  11.109  10.297   9.577  0.1539 -0.4212 -0.1395
  172MOL0     C23655  11.087  10.311   9.441 -1.1298  0.0842 -0.5809
  172MOL0     C23656  10.957  10.330   9.392 -0.5277  0.8023  0.6690
  172MOL0     O23657  10.910  10.357   9.262 -0.9395 -0.3602  0.6096
  172MOL0     C23658  11.007  10.411   9.173 -0.3976  0.3256  0.9386
  172MOL0     C23659  11.058  10.300   9.077 -0.3024 -0.0472  1.1200
  172MOL0     C23660  10.939  10.266   8.988 -0.3785 -0.2174  0.5871
  172MOL0     C23661  10.973  10.152   8.896 -0.3864  0.0027 -0.4315
  172MOL0     C23662  11.087  10.190   8.801  1.0665  0.1120 -0.6688
  172MOL0     C23663  11.178  10.226   8.731  0.5078  0.1298 -0.4107
  172MOL0     C23664  10.850  10.313   9.480 -0.5349  0.2711  0.0578
  172MOL0     C23665  10.872  10.315   9.615  0.9011 -0.2024 -1.1253
  172MOL0     C23666  10.752  10.302   9.703  0.6611  0.2212 -0.2028
  172MOL0     H23667  11.303  10.511   9.958  0.5408 -2.6800 -3.7006
  172MOL0     H23668  11.363  10.540  10.194  2.3499 -0.8054  0.8339
  172MOL0     H23669  11.400  10.550  10.423  0.1294  0.3771 -1.0556
  172MOL0     H23670  11.506  10.425  10.344 -1.2250  0.7075 -2.5428
  172MOL0     H23671  11.519  10.310  10.563  2.8076 -0.0377 -1.6107
  172MOL0     H23672  11.568  10.481  10.548 -0.8481 -0.2872 -2.4917
  172MOL0     H23673  11.368  10.562  10.675  0.3014 -0.1052  0.3358
  172MOL0     H23674  11.304  10.386  10.659  1.4520 -2.7017  0.4814
  172MOL0     H23675  11.463  10.304  10.798  1.7567  0.5077 -3.4964
  172MOL0     H23676  11.561  10.452  10.802  0.3070 -1.5240 -0.1656
  172MOL0     H23677  11.365  10.569  10.921  3.6457  1.6314  0.3844
  172MOL0     H23678  11.474  10.460  11.004 -1.1245 -0.7297  0.6977
  172MOL0     H23679  11.184  10.387  10.926 -1.1729  1.4722  1.6713
  172MOL0     H23680  11.302  10.266  10.975 -1.2520 -0.0284 -1.0985
  172MOL0     H23681  11.135  10.337  11.134 -0.5076  0.0546  1.4856
  172MOL0     H23682  11.207  10.498  11.124 -0.3980 -0.4686 -0.1504
  172MOL0     H23683  11.340  10.238  11.204 -0.8663 -0.2737  0.3734
  172MOL0     H23684  11.437  10.379  11.203  1.6127 -0.2876  2.9463
  172MOL0     H23685  11.160  10.541  11.344 -0.2823 -0.7199 -1.8043
  172MOL0     H23686  11.104  10.497  11.705  1.6417 -1.7241 -1.3715
  172MOL0     H23687  11.085  10.599  11.564  0.4288  1.9355  0.4963
  172MOL0     H23688  11.153  10.715  11.771  0.1540  1.6104  0.4907
  172MOL0     H23689  11.315  10.617  11.771  2.2342  0.8620 -1.2450
  172MOL0     H23690  11.380  10.712  11.565  0.8131  2.3465  0.2578
  172MOL0     H23691  11.222  10.806  11.547 -1.8698  0.9650  1.4795
  172MOL0     H23692  11.428  10.857  11.763  1.0623  0.1973 -1.1719
  172MOL0     H23693  11.410  10.956  11.628 -1.4265 -0.5340 -1.1581
  172MOL0     H23694  11.440  10.999  11.918  0.0957  1.4302  0.5468
  172MOL0     H23695  11.535  11.099  12.114  0.5889  1.6970  1.1703
  172MOL0     H23696  11.450  11.026  12.250 -3.2038 -2.7293 -2.1888
  172MOL0     H23697  11.440  11.205  12.212 -0.4404 -0.4037  0.8284
  172MOL0     H23698  10.805  11.269  12.291 -0.9175  1.4130  0.8599
  172MOL0     H23699  10.656  11.321  12.484 -0.6896  1.2079  4.5339
  172MOL0     H23700  10.661  11.301  12.898 -1.0722  0.1169 -0.5885
  172MOL0     H23701  10.827  11.230  12.870 -1.2800 -1.5462 -1.4599
  172MOL0     H23702  10.883  11.423  12.733 -0.9249 -1.0472 -1.4483
  172MOL0     H23703  10.713  11.497  12.784  0.8819  0.8018 -0.3904
  172MOL0     H23704  10.915  11.588  12.909  3.0048  0.1472  1.7921
  172MOL0     H23705  10.970  11.437  12.948  0.5326 -0.4243  3.6765
  172MOL0     H23706  10.788  11.381  13.077 -1.1894  0.0427  0.4999
  172MOL0     H23707  10.684  11.518  13.021  1.3318  2.8293 -3.0926
  172MOL0     H23708  10.784  11.559  13.257 -1.8869 -3.2410 -1.8044
  172MOL0     H23709  10.938  11.553  13.179 -0.3627 -2.2960 -0.0280
  172MOL0     H23710  10.714  11.737  13.121  0.6369  1.1041  0.9400
  172MOL0     H23711  10.876  11.740  13.035  1.8598 -1.1197  0.3443
  172MOL0     H23712  10.983  11.784  13.261  0.3171 -1.7326 -0.2385
  172MOL0     H23713  10.818  11.784  13.328 -2.5724 -0.8513 -1.7165
  172MOL0     H23714  10.769  11.966  13.131  0.4365 -1.1735 -2.1464
  172MOL0     H23715  10.944  11.970  13.109  0.7939  1.2345  2.3494
  172MOL0     H23716  10.936  11.126  12.727 -0.7071 -0.3829 -0.7182
  172MOL0     H23717  11.082  11.075  12.530  1.3829  2.5949  0.7024
  172MOL0     H23718  10.983  11.085  12.079 -0.2038  3.2123  0.2112
  172MOL0     H23719  11.012  11.012  11.849 -0.1871  1.4812 -1.0020
  172MOL0     H23720  11.211  10.140  10.272 -1.0060  1.1649  0.5905
  172MOL0     H23721  11.179  10.113  10.022  1.2634 -0.4646 -0.5281
  172MOL0     H23722  11.214  10.284   9.600  0.8555  2.4949 -1.2992
  172MOL0     H23723  11.168  10.325   9.370 -2.2153  0.1896 -1.8269
  172MOL0     H23724  10.964  10.493   9.114  0.5987  0.3088  0.1472
  172MOL0     H23725  11.086  10.465   9.226  0.5567  0.1256 -0.2116
  172MOL0     H23726  11.087  10.209   9.130 -1.7450 -0.5917  1.0389
  172MOL0     H23727  11.146  10.325   9.018  0.1904 -1.4280  1.2256
  172MOL0     H23728  10.855  10.241   9.053  0.4284  1.9879  2.6232
  172MOL0     H23729  10.911  10.351   8.926  1.8715 -1.5282 -2.5281
  172MOL0     H23730  10.886  10.128   8.834 -0.4908 -0.2949 -0.1729
  172MOL0     H23731  11.009  10.061   8.945  0.3344 -0.6225 -2.0114
  172MOL0     H23732  11.253  10.279   8.676  1.7251 -1.0986  0.0159
  172MOL0     H23733  10.751  10.305   9.438  0.0157  0.0395 -1.2391
  172MOL0     H23734  10.772  10.209   9.757 -4.0072 -2.5358 -2.5432
  172MOL0     H23735  10.722  10.387   9.765 -0.6978 -0.0984 -0.3837
  172MOL0     H23736  10.667  10.287   9.636  1.9263  0.8933 -2.0417
  173MOL0     O23737   0.419   1.280   6.795  0.1678  0.9709  0.5534
  173MOL0     C23738   0.344   1.359   6.746  0.4707  0.2241  0.7795
  173MOL0     O23739   0.333   1.385   6.616 -0.6463 -0.1738 -0.2589
  173MOL0     C23740   0.389   1.294   6.525  0.1241  0.8478 -0.2165
  173MOL0     C23741   0.322   1.171   6.495  0.1305 -0.4389  0.5375
  173MOL0     C23742   0.383   1.083   6.408 -0.1744  0.3021 -0.0101
  173MOL0     C23743   0.504   1.106   6.341  0.3620 -0.1499  0.2384
  173MOL0     O23744   0.564   1.029   6.248  0.7829  0.0126  0.2096
  173MOL0     C23745   0.485   0.937   6.169 -0.0696 -0.4198  0.4068
  173MOL0     C23746   0.594   0.854   6.096 -0.2939 -0.3224 -0.8033
  173MOL0     C23747   0.543   0.732   6.022 -0.9328  0.7684  0.1950
  173MOL0     C23748   0.665   0.651   5.981  0.3260  0.1735 -0.6896
  173MOL0     C23749   0.632   0.508   5.955 -0.0244 -0.7728  0.1031
  173MOL0     C23750   0.590   0.481   5.804  0.0160  0.4172  0.0825
  173MOL0     C23751   0.693   0.506   5.694  0.5836  0.4492  0.0495
  173MOL0     C23752   0.628   0.478   5.554  0.0305 -0.6418 -0.0558
  173MOL0     N23753   0.719   0.532   5.459 -0.6116  0.2046  0.6213
  173MOL0     C23754   0.843   0.486   5.441  0.6518 -0.3284  0.3456
  173MOL0     C23755   0.904   0.591   5.371 -0.1433  0.5799 -0.4895
  173MOL0     C23756   1.058   0.598   5.347  0.7869  0.6424  0.0129
  173MOL0     C23757   1.073   0.648   5.207 -0.1615 -0.1912  0.2659
  173MOL0     C23758   1.017   0.554   5.093  0.5834  0.4978 -0.2946
  173MOL0     C23759   1.065   0.602   4.948  0.0771 -0.0923  0.3410
  173MOL0     O23760   1.065   0.751   4.945  0.1775 -0.0949 -0.2145
  173MOL0     C23761   1.130   0.819   4.850  0.4660  0.6379  0.2117
  173MOL0     C23762   1.143   0.954   4.868  0.5381 -0.5452  0.3524
  173MOL0     C23763   1.207   1.042   4.780  0.1056 -1.4656 -1.2501
  173MOL0     C23764   1.204   1.191   4.824 -0.1114  0.3015  0.6457
  173MOL0     C23765   1.279   0.984   4.680  0.1303  0.0673 -0.6595
  173MOL0     C23766   1.374   1.062   4.583 -0.7412  0.8172  0.7428
  173MOL0     O23767   1.391   1.199   4.616 -0.0784  0.4374  0.0540
  173MOL0     C23768   1.443   1.277   4.515 -0.4239 -0.4002 -0.3754
  173MOL0     C23769   1.577   1.293   4.506 -0.7276 -0.0394 -0.1329
  173MOL0     C23770   1.631   1.374   4.405  0.1830 -0.4495  0.3705
  173MOL0     C23771   1.545   1.452   4.322 -0.9431 -0.1656  0.2471
  173MOL0     O23772   1.606   1.527   4.223  0.7445  0.3273  1.2042
  173MOL0     C23773   1.699   1.628   4.264  0.0522  0.6789 -0.4759
  173MOL0     C23774   1.789   1.653   4.144 -0.4971 -0.5968 -0.5107
  173MOL0     C23775   1.866   1.526   4.114  0.5707  0.1362  0.5524
  173MOL0     C23776   1.888   1.494   3.965  0.0434 -0.4216  0.8911
  173MOL0     C23777   1.985   1.600   3.907  0.0333 -0.0915  0.0064
  173MOL0     C23778   2.133   1.557   3.921 -0.2665  0.6161  0.3444
  173MOL0     C23779   2.226   1.667   3.869 -0.9172  0.7405 -0.2930
  173MOL0     C23780   2.376   1.625   3.872 -0.2509  0.0931 -0.2929
  173MOL0    Cl23781   2.429   1.573   4.030 -0.1159  0.3081  0.5624
  173MOL0     C23782   1.406   1.449   4.331  0.3444  0.2277 -0.4771
  173MOL0     C23783   1.354   1.355   4.426  0.4141  0.5710 -0.2637
  173MOL0     O23784   1.419   1.011   4.481 -0.1993  0.2764  0.5030
  173MOL0     C23785   1.253   0.848   4.646 -0.2052 -0.3450  0.1027
  173MOL0     C23786   1.180   0.762   4.734 -1.1096 -0.2139 -1.2131
  173MOL0     N23787   0.813   0.700   5.354 -0.1869  0.4493 -0.1668
  173MOL0     N23788   0.705   0.660   5.408 -0.0150  0.5435 -0.3663
  173MOL0     C23789   0.572   1.224   6.376  0.6764 -0.8974  0.0336
  173MOL0     C23790   0.521   1.312   6.467  0.5190  0.3027 -0.6218
  173MOL0     C23791   0.277   1.444   6.843  0.8883  1.1088 -0.9331
  173MOL0     C23792   0.208   1.563   6.797  0.8991 -0.3804 -0.0368
  173MOL0     C23793   0.152   1.663   6.890  0.1272 -0.2738 -0.7067
  173MOL0     C23794   0.156   1.629   7.029  0.5937  0.4516  1.2341
  173MOL0     O23795   0.104   1.710   7.123  0.2829 -0.0556 -0.2934
  173MOL0     C23796   0.127   1.859   7.125 -0.5662  0.0945  0.2535
  173MOL0     C23797   0.002   1.921   7.194 -0.5733 -0.6556  0.1281
  173MOL0     C23798   0.030   2.072   7.215 -1.4077 -0.3301 -0.6096
  173MOL0     C23799  -0.077   2.150   7.277  0.5866 -0.7860 -0.0838
  173MOL0     C23800  -0.177   2.184   7.169  0.0230 -0.0793 -0.7838
  173MOL0     C23801  -0.248   2.202   7.070 -0.3454 -0.4380 -0.0030
  173MOL0     C23802   0.205   1.511   7.072 -0.1216 -0.4085 -0.5296
  173MOL0     C23803   0.270   1.421   6.985  0.9587 -0.1518  0.6774
  173MOL0     C23804   0.337   1.307   7.053 -0.1335 -0.1087 -0.2240
  173MOL0     H23805   0.219   1.164   6.527 -1.4990  2.0240 -3.3631
  173MOL0     H23806   0.338   0.986   6.389  1.3639 -0.3153 -0.7083
  173MOL0     H23807   0.419   0.993   6.103 -0.5608 -0.9836  0.4161
  173MOL0     H23808   0.422   0.877   6.235 -3.7215  1.7960 -0.7670
  173MOL0     H23809   0.637   0.927   6.027 -1.4625  1.2164  0.0356
  173MOL0     H23810   0.662   0.815   6.172 -0.6546  1.7821  0.7045
  173MOL0     H23811   0.477   0.671   6.086  0.6829 -0.8118  0.4504
  173MOL0     H23812   0.490   0.763   5.932 -1.6877 -1.0503 -0.0320
  173MOL0     H23813   0.713   0.699   5.896  4.7811 -3.8250 -0.8361
  173MOL0     H23814   0.744   0.644   6.057  1.0910  0.8964 -1.3966
  173MOL0     H23815   0.560   0.473   6.031 -1.7104  1.9870 -0.0877
  173MOL0     H23816   0.723   0.447   5.962  0.6927  0.4778  4.1278
  173MOL0     H23817   0.547   0.380   5.802 -0.4328  0.6021 -1.2833
  173MOL0     H23818   0.505   0.545   5.778 -0.2490 -0.3310 -1.0154
  173MOL0     H23819   0.789   0.455   5.710  0.4004  0.5440  1.5445
  173MOL0     H23820   0.718   0.613   5.698  0.3272  0.4723  1.4233
  173MOL0     H23821   0.621   0.372   5.530 -0.4333 -0.8474  0.9172
  173MOL0     H23822   0.537   0.538   5.542  0.5110 -0.0342 -0.7488
  173MOL0     H23823   0.882   0.397   5.489  0.3582  0.3212  1.8342
  173MOL0     H23824   1.109   0.505   5.370 -2.0252 -0.2211  3.5544
  173MOL0     H23825   1.102   0.664   5.422  2.1925 -1.0945  0.7766
  173MOL0     H23826   1.017   0.741   5.208 -1.4032 -0.9127  1.6586
  173MOL0     H23827   1.178   0.668   5.188  0.2982  0.6125  3.2893
  173MOL0     H23828   1.040   0.449   5.114  1.3651  0.6005 -0.6265
  173MOL0     H23829   0.910   0.569   5.110  0.5001  1.1839 -1.3584
  173MOL0     H23830   1.167   0.573   4.924 -0.5921  0.5467 -3.9260
  173MOL0     H23831   1.002   0.553   4.873 -1.8764 -1.3821  2.6527
  173MOL0     H23832   1.103   1.003   4.956  0.8313 -1.4351  0.9938
  173MOL0     H23833   1.130   1.206   4.903 -0.9931 -1.6903  0.2572
  173MOL0     H23834   1.177   1.249   4.736  0.1444 -1.6254 -0.7657
  173MOL0     H23835   1.300   1.221   4.868 -0.7570 -1.4350  3.5202
  173MOL0     H23836   1.645   1.232   4.565  0.2746 -0.2293 -1.4346
  173MOL0     H23837   1.736   1.379   4.378  0.4014  0.2513  1.2759
  173MOL0     H23838   1.647   1.718   4.295  1.5465  1.5758 -0.4531
  173MOL0     H23839   1.757   1.603   4.354 -0.1200 -0.8889 -0.7715
  173MOL0     H23840   1.719   1.677   4.064 -0.5137 -2.1655 -1.0097
  173MOL0     H23841   1.844   1.745   4.161 -2.0358 -0.0290  2.0624
  173MOL0     H23842   1.812   1.441   4.157  0.3303  0.8241  1.6323
  173MOL0     H23843   1.960   1.538   4.170  0.7241  3.2752 -0.1945
  173MOL0     H23844   1.799   1.494   3.900 -0.2664 -2.2011  1.2426
  173MOL0     H23845   1.921   1.393   3.940 -1.3960 -1.0403  1.3680
  173MOL0     H23846   1.958   1.610   3.802 -0.4137  0.5564  0.1764
  173MOL0     H23847   1.963   1.694   3.959  3.1256  0.2306  0.9200
  173MOL0     H23848   2.146   1.467   3.859 -0.5220  0.5351  0.4069
  173MOL0     H23849   2.157   1.551   4.027 -1.4954 -1.3083  0.5519
  173MOL0     H23850   2.217   1.757   3.930 -2.8344 -0.8458  1.9747
  173MOL0     H23851   2.199   1.690   3.766 -0.3652  1.3703 -0.2987
  173MOL0     H23852   2.435   1.711   3.838  4.4638 -2.1264  1.3739
  173MOL0     H23853   2.387   1.551   3.792  1.4947  0.6170 -0.5907
  173MOL0     H23854   1.351   1.517   4.267 -0.9225 -0.5357 -0.2620
  173MOL0     H23855   1.246   1.344   4.436  0.3934  1.0019  0.0296
  173MOL0     H23856   1.302   0.794   4.565 -0.5774  0.2096 -0.4949
  173MOL0     H23857   1.173   0.655   4.716 -0.5677 -0.0838 -2.2633
  173MOL0     H23858   0.671   1.249   6.340  0.4764  1.9621  1.1797
  173MOL0     H23859   0.582   1.399   6.487 -0.4606  1.1760 -1.3539
  173MOL0     H23860   0.185   1.589   6.694  0.7199  1.7834  0.5022
  173MOL0     H23861   0.101   1.757   6.869  1.0640  0.9085  1.8745
  173MOL0     H23862   0.211   1.878   7.193 -0.3656 -0.5327  0.1937
  173MOL0     H23863   0.159   1.902   7.029  0.7771 -0.0250  0.6193
  173MOL0     H23864  -0.018   1.868   7.287  1.6912 -1.0585  0.4496
  173MOL0     H23865  -0.080   1.905   7.123  1.0469 -0.3715 -1.9212
  173MOL0     H23866   0.126   2.077   7.267 -2.4353  2.2689  1.2302
  173MOL0     H23867   0.039   2.116   7.116 -2.7557 -1.4697 -1.2759
  173MOL0     H23868  -0.040   2.246   7.314 -0.7973 -0.2088 -0.1693
  173MOL0     H23869  -0.126   2.100   7.360  1.1595  2.4713  2.4055
  173MOL0     H23870  -0.305   2.206   6.979 -0.1705 -0.0930 -0.0965
  173MOL0     H23871   0.196   1.493   7.179  2.3217  3.8044  0.6104
  173MOL0     H23872   0.299   1.215   7.007 -3.0738  0.3141  1.1314
  173MOL0     H23873   0.445   1.311   7.034 -0.2625 -0.0438 -1.0027
  173MOL0     H23874   0.316   1.301   7.160 -0.2679 -0.8583 -0.2838
  174MOL0     O23875   6.600   9.319   3.392 -0.2650  0.3100 -0.1497
  174MOL0     C23876   6.486   9.290   3.445 -0.6800  0.8453  0.2870
  174MOL0     O23877   6.461   9.292   3.579 -0.5132  0.0529 -0.5062
  174MOL0     C23878   6.547   9.313   3.687 -0.1239 -0.4612  0.6292
  174MOL0     C23879   6.513   9.415   3.776 -0.2627  0.7621 -0.1623
  174MOL0     C23880   6.595   9.431   3.888  0.1643  0.9103  0.0626
  174MOL0     C23881   6.698   9.339   3.929  0.3745 -0.5841 -0.5345
  174MOL0     O23882   6.776   9.360   4.044 -0.3698 -0.1540  0.1986
  174MOL0     C23883   6.909   9.302   4.056 -0.4172 -0.2297  0.5070
  174MOL0     C23884   6.976   9.331   4.197 -0.5809  0.6672 -0.8777
  174MOL0     C23885   7.006   9.485   4.229 -0.7214  0.9171 -1.2556
  174MOL0     C23886   7.103   9.557   4.131  0.0845 -0.5049  0.7016
  174MOL0     C23887   7.123   9.699   4.189  1.0361 -0.5073 -0.5935
  174MOL0     C23888   7.184   9.804   4.095 -0.2320  0.4434 -0.1099
  174MOL0     C23889   7.096   9.821   3.972 -0.0588 -0.3132  0.3904
  174MOL0     C23890   6.943   9.835   3.998  0.9159 -0.0929 -0.4738
  174MOL0     N23891   6.868   9.848   3.874  0.4557  0.4644  1.0966
  174MOL0     C23892   6.742   9.802   3.867  0.2459  0.6494 -0.8849
  174MOL0     C23893   6.690   9.862   3.761 -0.2766 -1.0053 -0.2350
  174MOL0     C23894   6.548   9.857   3.726 -0.0360  0.3640 -0.6471
  174MOL0     C23895   6.525   9.779   3.598 -1.2560  0.2133  0.8764
  174MOL0     C23896   6.377   9.758   3.573 -0.0325 -0.0999 -0.1581
  174MOL0     C23897   6.349   9.699   3.425  0.2823  0.7223  0.2813
  174MOL0     O23898   6.253   9.594   3.429  0.3552  0.1644  0.5507
  174MOL0     C23899   6.198   9.539   3.311  0.1651 -0.7220 -0.5309
  174MOL0     C23900   6.207   9.582   3.177  0.4302 -1.1385 -0.7514
  174MOL0     C23901   6.134   9.530   3.071  0.9072  0.2848  0.0080
  174MOL0     C23902   6.144   9.600   2.937 -0.0266 -1.0053 -0.3004
  174MOL0     C23903   6.053   9.420   3.098  0.2956  0.6849  0.2606
  174MOL0     C23904   5.962   9.344   2.991 -0.5050 -0.3762 -0.7311
  174MOL0     O23905   5.872   9.258   3.045 -1.0004 -0.7848  0.5572
  174MOL0     C23906   5.776   9.227   2.956 -0.5464 -0.1731  0.9361
  174MOL0     C23907   5.671   9.315   2.934  0.5928  0.3110  0.5994
  174MOL0     C23908   5.568   9.281   2.841 -0.0249  0.1445  0.1442
  174MOL0     C23909   5.563   9.158   2.770 -0.3060  1.0375  1.1034
  174MOL0     O23910   5.444   9.119   2.690 -0.1070 -1.1955  0.3680
  174MOL0     C23911   5.459   9.006   2.610  0.2384 -0.4097 -0.4195
  174MOL0     C23912   5.356   9.015   2.492  0.4899  0.4589  0.2033
  174MOL0     C23913   5.401   9.103   2.375 -0.0773  0.7468  0.1739
  174MOL0     C23914   5.329   9.066   2.244  0.7838  0.1217 -0.3420
  174MOL0     C23915   5.369   9.177   2.151  0.2810  0.6577  0.2296
  174MOL0     C23916   5.379   9.127   2.006  0.5058 -0.2627 -0.0923
  174MOL0     C23917   5.238   9.098   1.952 -0.3941  0.0935 -0.4970
  174MOL0     C23918   5.234   9.123   1.805 -0.4120  0.2190 -0.4260
  174MOL0    Cl23919   5.270   9.294   1.755  0.1570 -0.1175 -0.0709
  174MOL0     C23920   5.668   9.068   2.804 -0.2277 -0.8052 -0.2524
  174MOL0     C23921   5.774   9.104   2.887 -0.1616  0.2444  0.7193
  174MOL0     O23922   5.987   9.368   2.871  0.3660 -0.2271 -0.7093
  174MOL0     C23923   6.049   9.375   3.232  0.1774  0.8698  0.7021
  174MOL0     C23924   6.115   9.428   3.338 -0.3878  0.0933  0.2022
  174MOL0     N23925   6.787   9.933   3.697 -1.4426  0.2673  0.4000
  174MOL0     N23926   6.896   9.921   3.763 -0.0710 -0.0779 -0.1884
  174MOL0     C23927   6.737   9.251   3.836  0.3182 -0.9755 -0.1006
  174MOL0     C23928   6.668   9.232   3.707  0.3270  0.1029 -0.4157
  174MOL0     C23929   6.388   9.237   3.355  0.4050  0.5054 -0.4020
  174MOL0     C23930   6.297   9.153   3.409 -0.4006 -1.0239 -0.3905
  174MOL0     C23931   6.212   9.083   3.337  0.2961 -0.5162 -0.3647
  174MOL0     C23932   6.214   9.087   3.199 -0.1368 -0.0243  0.7773
  174MOL0     O23933   6.128   9.014   3.131  0.3445  0.5136 -0.2528
  174MOL0     C23934   6.143   8.991   2.994 -0.3505  1.0555  0.1151
  174MOL0     C23935   6.077   8.856   2.970 -0.9552  0.4058 -0.0740
  174MOL0     C23936   6.052   8.824   2.819 -0.0717 -0.0326 -0.3410
  174MOL0     C23937   5.991   8.694   2.783  0.5096 -0.3691  1.0528
  174MOL0     C23938   5.873   8.662   2.866 -0.5295 -0.6913 -0.2850
  174MOL0     C23939   5.790   8.622   2.944 -0.2922 -0.2121 -0.1909
  174MOL0     C23940   6.306   9.168   3.137  0.0949 -0.0991 -0.5083
  174MOL0     C23941   6.387   9.251   3.214  0.7420  0.0682  1.7615
  174MOL0     C23942   6.489   9.331   3.135  0.4852 -0.8719  0.4442
  174MOL0     H23943   6.420   9.469   3.769 -0.4909  0.3762 -0.1607
  174MOL0     H23944   6.569   9.512   3.955  0.8516  1.3501 -0.1819
  174MOL0     H23945   6.960   9.354   3.975 -0.8941 -0.3773  0.1126
  174MOL0     H23946   6.914   9.195   4.035 -2.6086 -0.3407  0.3472
  174MOL0     H23947   6.916   9.281   4.273  0.0271  1.8709  0.4349
  174MOL0     H23948   7.065   9.268   4.194 -1.9373 -1.4540  0.3015
  174MOL0     H23949   6.907   9.531   4.223 -0.7115  0.8910 -1.6996
  174MOL0     H23950   7.040   9.502   4.331 -0.2985  2.6475 -1.6615
  174MOL0     H23951   7.190   9.491   4.128  0.0486 -0.5274  0.0636
  174MOL0     H23952   7.064   9.562   4.029 -4.0353 -1.5355  2.0114
  174MOL0     H23953   7.197   9.684   4.269  0.4353 -3.1890 -0.4383
  174MOL0     H23954   7.026   9.736   4.223 -0.2157 -4.0894  0.2035
  174MOL0     H23955   7.186   9.895   4.155  0.1971  1.9139 -2.2582
  174MOL0     H23956   7.286   9.773   4.071 -0.0752 -0.2541  1.3213
  174MOL0     H23957   7.126   9.743   3.901  0.3794  1.7596 -1.8598
  174MOL0     H23958   7.126   9.913   3.922  0.0167  0.5794  2.0125
  174MOL0     H23959   6.908   9.750   4.058 -0.1640  0.8646  0.2825
  174MOL0     H23960   6.941   9.930   4.052  0.6141 -0.8520  0.9059
  174MOL0     H23961   6.689   9.744   3.942  0.5654  2.0480  0.4674
  174MOL0     H23962   6.509   9.958   3.708 -1.9529 -0.1650  0.2805
  174MOL0     H23963   6.494   9.812   3.810  2.7363  0.5364  1.3937
  174MOL0     H23964   6.569   9.833   3.514 -2.7893  0.5248  0.2499
  174MOL0     H23965   6.579   9.684   3.598 -1.7753 -0.0952 -0.4663
  174MOL0     H23966   6.336   9.701   3.657  2.5263  0.5381  1.6481
  174MOL0     H23967   6.331   9.856   3.592  0.2189 -0.5249  3.3738
  174MOL0     H23968   6.320   9.780   3.358  2.5821  1.2559 -0.1776
  174MOL0     H23969   6.436   9.649   3.382 -0.5310  1.1610 -1.9926
  174MOL0     H23970   6.262   9.673   3.154 -1.8816  0.2218 -1.2443
  174MOL0     H23971   6.184   9.702   2.943 -2.3898 -0.0253 -0.0368
  174MOL0     H23972   6.042   9.615   2.900 -0.4827 -0.7696  1.0006
  174MOL0     H23973   6.195   9.548   2.855  1.7027  0.6428 -0.3462
  174MOL0     H23974   5.653   9.398   3.003 -2.6296 -1.5221  2.1777
  174MOL0     H23975   5.485   9.346   2.813 -3.3713 -3.1714  1.5681
  174MOL0     H23976   5.557   9.005   2.561  0.8933 -1.2279  0.8784
  174MOL0     H23977   5.438   8.910   2.657 -1.9557 -0.5609 -1.5905
  174MOL0     H23978   5.333   8.909   2.477  0.7543  0.4227  0.0389
  174MOL0     H23979   5.261   9.050   2.534  2.1015  1.2992  3.5564
  174MOL0     H23980   5.507   9.079   2.363 -0.2749 -0.5115  0.7166
  174MOL0     H23981   5.377   9.206   2.402 -0.0202  0.8057 -0.0027
  174MOL0     H23982   5.220   9.060   2.257  0.7482 -1.3597 -1.1040
  174MOL0     H23983   5.361   8.968   2.207  1.1425 -0.4554  1.3959
  174MOL0     H23984   5.295   9.256   2.168 -0.9617 -0.8884  2.5095
  174MOL0     H23985   5.468   9.212   2.181 -0.3062 -0.9321  4.7103
  174MOL0     H23986   5.451   9.045   1.995 -0.0398 -0.6476 -0.9036
  174MOL0     H23987   5.415   9.202   1.935 -0.8165 -1.7811 -2.5184
  174MOL0     H23988   5.158   9.154   2.002 -0.5302  0.9671 -1.6500
  174MOL0     H23989   5.217   8.991   1.953  0.6790 -0.1312 -0.4459
  174MOL0     H23990   5.137   9.088   1.770 -1.1436 -3.0781  3.9946
  174MOL0     H23991   5.310   9.064   1.753 -0.0960  1.4446 -1.4096
  174MOL0     H23992   5.663   8.971   2.756 -1.1866 -0.4057 -1.0047
  174MOL0     H23993   5.854   9.035   2.910 -0.5457 -0.1360  0.9293
  174MOL0     H23994   5.992   9.286   3.253 -0.1470  1.1330  0.9461
  174MOL0     H23995   6.099   9.391   3.438  0.7612  1.6807  1.0154
  174MOL0     H23996   6.831   9.198   3.843  0.6888 -0.0676  3.4670
  174MOL0     H23997   6.703   9.157   3.637  3.7686  1.0930  0.0621
  174MOL0     H23998   6.304   9.144   3.517  1.3971  0.2403 -0.3505
  174MOL0     H23999   6.147   9.011   3.386  2.6367 -0.2554  3.5344
  174MOL0     H24000   6.091   9.075   2.947 -0.6369  1.2403  0.7355
  174MOL0     H24001   6.247   8.996   2.960  0.2210  1.8888  1.8735
  174MOL0     H24002   5.981   8.878   3.018 -0.8867  0.7605 -0.0970
  174MOL0     H24003   6.141   8.784   3.021  0.4575  2.4403  1.1755
  174MOL0     H24004   5.993   8.901   2.769 -1.4521 -1.7634 -1.5121
  174MOL0     H24005   6.154   8.823   2.780  0.5891 -1.5040  1.2570
  174MOL0     H24006   6.067   8.618   2.803  2.7424  1.1640 -1.0650
  174MOL0     H24007   5.968   8.698   2.676  1.4673  2.9544  0.8460
  174MOL0     H24008   5.703   8.600   3.003  0.1802  1.8614  1.3845
  174MOL0     H24009   6.331   9.171   3.031  1.6199  0.7619 -0.1626
  174MOL0     H24010   6.509   9.431   3.174  5.1506 -1.5281  0.3149
  174MOL0     H24011   6.587   9.285   3.126 -0.0164 -2.1440  1.1888
  174MOL0     H24012   6.450   9.334   3.033 -1.6323 -0.2748  1.2040
  175MOL0     O24013   2.873   1.684   6.618  0.4434  0.3809 -0.8966
  175MOL0     C24014   2.766   1.641   6.648  0.7347 -0.6424  0.7571
  175MOL0     O24015   2.722   1.515   6.621  0.3826  0.3549 -0.5317
  175MOL0     C24016   2.810   1.425   6.576 -0.4968  0.7272  0.2544
  175MOL0     C24017   2.869   1.338   6.671  0.6323 -1.1731  0.6840
  175MOL0     C24018   2.947   1.227   6.629 -0.5496  0.1216  1.2916
  175MOL0     C24019   2.977   1.208   6.493 -0.2098  0.0877 -0.4415
  175MOL0     O24020   3.071   1.115   6.465 -0.1337  0.4636 -0.9618
  175MOL0     C24021   3.088   1.073   6.332  0.0240 -0.5687  0.7178
  175MOL0     C24022   3.184   0.955   6.331 -0.7157  0.2170 -1.1541
  175MOL0     C24023   3.123   0.812   6.347 -0.6134 -0.1493 -0.1154
  175MOL0     C24024   3.230   0.711   6.364  0.1765  0.1684 -0.3177
  175MOL0     C24025   3.311   0.694   6.236  0.1529 -0.3865  0.0875
  175MOL0     C24026   3.432   0.597   6.243  0.4060 -0.0630  0.9157
  175MOL0     C24027   3.491   0.598   6.095  1.0675  0.1848 -0.1734
  175MOL0     C24028   3.632   0.538   6.100  0.5139 -0.1170  0.0456
  175MOL0     N24029   3.730   0.612   6.185  0.0478 -0.2539  0.1995
  175MOL0     C24030   3.826   0.697   6.126 -0.3663  0.3897  0.0987
  175MOL0     C24031   3.899   0.740   6.232 -0.0386 -0.0795 -0.1550
  175MOL0     C24032   4.012   0.838   6.209  0.6303 -0.1585 -0.8286
  175MOL0     C24033   4.146   0.785   6.233 -0.0705 -0.0307 -0.4498
  175MOL0     C24034   4.176   0.655   6.158 -0.3576  0.3715 -0.0364
  175MOL0     C24035   4.313   0.606   6.175 -0.1533 -0.1835 -0.0457
  175MOL0     O24036   4.358   0.528   6.061 -0.1287 -0.5989 -0.5188
  175MOL0     C24037   4.470   0.448   6.076  0.2923 -0.6163 -0.6979
  175MOL0     C24038   4.462   0.319   6.023  0.1233  0.2192  1.2633
  175MOL0     C24039   4.559   0.225   6.041  0.1752 -0.4577  0.6312
  175MOL0     C24040   4.530   0.090   5.986  0.4714  0.0610 -0.4150
  175MOL0     C24041   4.673   0.256   6.120 -0.6984  0.3855 -0.5340
  175MOL0     C24042   4.777   0.159   6.153 -0.4854  0.3566 -0.0582
  175MOL0     O24043   4.903   0.209   6.194  0.0056  0.3213  0.1458
  175MOL0     C24044   5.027   0.142   6.196  0.5242 -0.2011 -0.2398
  175MOL0     C24045   5.140   0.206   6.242 -0.5203 -0.0889  0.3407
  175MOL0     C24046   5.269   0.151   6.236  0.4417 -0.0283  0.2614
  175MOL0     C24047   5.282   0.019   6.184 -0.1979 -0.3711  0.3697
  175MOL0     O24048   5.398  -0.049   6.182 -0.2680 -0.4970  0.4349
  175MOL0     C24049   5.493  -0.035   6.287 -0.6189  0.2864  0.0904
  175MOL0     C24050   5.635  -0.085   6.251 -1.1940 -0.2073 -0.5644
  175MOL0     C24051   5.717   0.011   6.162  0.7374 -0.0710  0.2075
  175MOL0     C24052   5.862  -0.026   6.145  0.6479  0.4703  0.1387
  175MOL0     C24053   5.903  -0.037   5.996  0.2241  0.7579  0.1058
  175MOL0     C24054   6.059  -0.044   6.006  0.0476 -0.4127  1.4298
  175MOL0     C24055   6.117  -0.090   5.874  0.0780  0.1112  0.0398
  175MOL0     C24056   6.263  -0.061   5.888 -0.2822 -0.0453  0.3861
  175MOL0    Cl24057   6.376  -0.151   5.772 -0.0379 -0.2716  0.7928
  175MOL0     C24058   5.163  -0.042   6.144 -0.5888  1.0396  0.3458
  175MOL0     C24059   5.044   0.010   6.147 -0.0024 -0.4048  0.0758
  175MOL0     O24060   4.749   0.043   6.134 -0.3432 -0.0869 -0.3103
  175MOL0     C24061   4.677   0.385   6.178  0.8447  0.3033  0.1453
  175MOL0     C24062   4.579   0.478   6.158 -0.1807  0.8406 -1.0825
  175MOL0     N24063   3.859   0.674   6.342  0.5820 -0.0965  0.0046
  175MOL0     N24064   3.754   0.598   6.314 -0.0152 -0.3656  0.2636
  175MOL0     C24065   2.917   1.297   6.401  0.8114  0.5858 -0.1025
  175MOL0     C24066   2.834   1.403   6.437  0.5249  1.0534 -0.2292
  175MOL0     C24067   2.661   1.729   6.714 -0.4442 -0.2158  0.0998
  175MOL0     C24068   2.541   1.666   6.762  1.0341  0.3057  1.1198
  175MOL0     C24069   2.440   1.742   6.838  0.0317 -0.9083  0.3272
  175MOL0     C24070   2.462   1.880   6.875  0.1966  0.9420  0.2305
  175MOL0     O24071   2.357   1.938   6.948  0.0601 -0.3769  0.3925
  175MOL0     C24072   2.355   2.073   6.987  0.6580 -0.1148  0.2790
  175MOL0     C24073   2.366   2.107   7.143 -0.1606  0.0901 -0.7877
  175MOL0     C24074   2.477   2.040   7.222  0.2379  0.5713 -0.5988
  175MOL0     C24075   2.614   2.097   7.177 -0.4444  0.5365 -0.3664
  175MOL0     C24076   2.623   2.244   7.178 -0.3196 -0.0856 -0.4928
  175MOL0     C24077   2.620   2.363   7.180  0.3107  0.1725 -0.3066
  175MOL0     C24078   2.585   1.936   6.836  0.1397 -0.5466  0.5456
  175MOL0     C24079   2.681   1.860   6.765  0.6726 -0.5313  0.2793
  175MOL0     C24080   2.796   1.942   6.710 -0.1500  0.0544 -0.9480
  175MOL0     H24081   2.854   1.359   6.776  2.4789  0.8577  0.6069
  175MOL0     H24082   2.997   1.165   6.703  3.2353  0.0404 -1.0327
  175MOL0     H24083   3.135   1.148   6.268  1.2828  0.4152  2.6882
  175MOL0     H24084   2.990   1.054   6.288  0.2622  3.1080 -1.8355
  175MOL0     H24085   3.236   0.971   6.235  0.1832  6.3806 -0.0790
  175MOL0     H24086   3.253   0.973   6.414 -1.6176  1.2802 -0.6080
  175MOL0     H24087   3.068   0.817   6.442 -2.3855 -0.6811 -1.0691
  175MOL0     H24088   3.059   0.779   6.265  0.5247 -1.6536 -0.4492
  175MOL0     H24089   3.301   0.738   6.443  0.7007 -1.5024 -0.1884
  175MOL0     H24090   3.187   0.611   6.378  1.7695 -0.2637  2.1076
  175MOL0     H24091   3.352   0.788   6.199  2.1021 -0.1511  2.5324
  175MOL0     H24092   3.240   0.649   6.166 -0.4206 -1.0974  1.0889
  175MOL0     H24093   3.502   0.640   6.315  1.2242  0.4780 -0.1862
  175MOL0     H24094   3.409   0.492   6.264  1.7877 -0.1099  2.3543
  175MOL0     H24095   3.502   0.699   6.055 -0.4006  0.7276  0.7172
  175MOL0     H24096   3.432   0.540   6.023  1.3484  1.0841 -1.1445
  175MOL0     H24097   3.638   0.437   6.141  1.0308  0.8461  2.4824
  175MOL0     H24098   3.667   0.532   5.996 -2.9383 -3.6532 -1.1288
  175MOL0     H24099   3.851   0.717   6.023 -1.7390 -3.1434 -1.0635
  175MOL0     H24100   4.002   0.925   6.275 -2.6116 -0.3882 -0.8768
  175MOL0     H24101   4.007   0.872   6.105 -1.2439  0.9926 -0.4157
  175MOL0     H24102   4.221   0.861   6.206 -0.1013  0.7440  1.4776
  175MOL0     H24103   4.152   0.768   6.341 -0.8269 -0.2684 -0.4398
  175MOL0     H24104   4.111   0.572   6.188  0.7033 -0.9170 -1.2041
  175MOL0     H24105   4.149   0.674   6.054  0.0208  0.1552 -0.1754
  175MOL0     H24106   4.372   0.698   6.176  1.7595 -1.3470 -0.9335
  175MOL0     H24107   4.324   0.544   6.264 -0.6812 -2.7803 -1.6837
  175MOL0     H24108   4.380   0.304   5.955  0.1236 -0.0037  1.3124
  175MOL0     H24109   4.603   0.063   5.909  0.0925  0.4129 -0.9016
  175MOL0     H24110   4.435   0.096   5.932  1.7304 -3.1044 -3.3865
  175MOL0     H24111   4.517   0.015   6.066  1.3103  0.2690 -0.0763
  175MOL0     H24112   5.130   0.309   6.275 -1.9918  0.7378 -2.3772
  175MOL0     H24113   5.357   0.200   6.276 -0.0176  0.2936  0.9000
  175MOL0     H24114   5.505   0.066   6.326 -1.1630  0.8564 -1.1623
  175MOL0     H24115   5.454  -0.097   6.368  0.3506 -1.8003 -0.9541
  175MOL0     H24116   5.689  -0.098   6.345 -0.1526  1.9011 -0.7971
  175MOL0     H24117   5.634  -0.189   6.217  0.7136 -0.6522  0.6159
  175MOL0     H24118   5.705   0.111   6.205  0.3234  0.9349 -2.1090
  175MOL0     H24119   5.668   0.014   6.064  0.4949 -0.7731  0.3013
  175MOL0     H24120   5.883  -0.127   6.181  2.6193  1.1925  1.1573
  175MOL0     H24121   5.928   0.047   6.192  0.0604  0.5092  0.9109
  175MOL0     H24122   5.868  -0.136   5.967  1.6100  0.6925 -1.4978
  175MOL0     H24123   5.864   0.041   5.930 -3.0176 -0.1487  0.8243
  175MOL0     H24124   6.087  -0.115   6.084 -2.0616 -3.2690 -0.1944
  175MOL0     H24125   6.088   0.057   6.036  0.4952  0.0619 -0.4510
  175MOL0     H24126   6.070  -0.054   5.782 -0.4851 -0.0095  0.2727
  175MOL0     H24127   6.089  -0.195   5.863 -4.4989  1.1546 -0.5911
  175MOL0     H24128   6.291  -0.102   5.985  3.5527  2.7847  0.6853
  175MOL0     H24129   6.284   0.046   5.891  2.4376 -0.4764 -0.6111
  175MOL0     H24130   5.175  -0.147   6.119  0.5756  1.2111  0.1340
  175MOL0     H24131   4.960  -0.052   6.117  1.6235 -2.2415 -0.8939
  175MOL0     H24132   4.754   0.412   6.249  0.3000 -0.5117  1.0573
  175MOL0     H24133   4.586   0.572   6.211  1.1322 -0.1332  0.5702
  175MOL0     H24134   2.953   1.297   6.299 -0.0067 -1.6314 -0.4460
  175MOL0     H24135   2.778   1.466   6.369 -2.1412  0.3728  1.1838
  175MOL0     H24136   2.517   1.563   6.742 -0.6644  0.8032  0.4193
  175MOL0     H24137   2.346   1.692   6.860 -1.7182 -0.2687 -4.4561
  175MOL0     H24138   2.435   2.127   6.936  1.3637  0.9480  2.3807
  175MOL0     H24139   2.260   2.114   6.954  1.6242  1.5499 -0.5827
  175MOL0     H24140   2.271   2.080   7.190 -1.3642  1.8224 -2.0981
  175MOL0     H24141   2.356   2.212   7.172  3.3872 -0.0289  1.4027
  175MOL0     H24142   2.466   2.053   7.330 -1.8118  1.9177 -0.9178
  175MOL0     H24143   2.482   1.931   7.211  3.6546 -0.0078  3.8742
  175MOL0     H24144   2.631   2.047   7.081  0.8203 -3.8041  1.8647
  175MOL0     H24145   2.692   2.051   7.238 -0.1785  2.3603  0.7623
  175MOL0     H24146   2.611   2.470   7.186  2.6093  0.3784  0.3854
  175MOL0     H24147   2.605   2.042   6.840 -2.2077 -0.0420  0.3292
  175MOL0     H24148   2.757   2.043   6.693  1.9198  1.0400 -0.1783
  175MOL0     H24149   2.870   1.940   6.792  0.5725 -0.0127 -1.5898
  175MOL0     H24150   2.850   1.910   6.620 -1.2954  0.9445 -1.9752
  176MOL0     O24151   6.137   3.906   1.560  0.3114  0.4823 -0.3905
  176MOL0     C24152   6.076   3.803   1.579  0.6146  0.4551  0.4175
  176MOL0     O24153   5.947   3.792   1.619 -0.1211  0.4570 -0.8541
  176MOL0     C24154   5.886   3.908   1.666 -0.2878  1.0088 -0.0424
  176MOL0     C24155   5.942   3.989   1.757  0.0729 -0.4211 -0.5352
  176MOL0     C24156   5.884   4.111   1.799 -0.4329  0.0884 -0.9241
  176MOL0     C24157   5.754   4.141   1.752  0.8180 -0.4295 -0.3862
  176MOL0     O24158   5.680   4.244   1.812  0.1576  0.3125  0.0292
  176MOL0     C24159   5.714   4.294   1.949 -0.2488  0.3742  0.6716
  176MOL0     C24160   5.592   4.380   1.989  0.5110  0.4252  0.2767
  176MOL0     C24161   5.630   4.471   2.108  0.9240  1.2050  0.1332
  176MOL0     C24162   5.501   4.553   2.141 -0.2546  0.0485 -0.2037
  176MOL0     C24163   5.550   4.659   2.240  0.0398  0.6955  0.1630
  176MOL0     C24164   5.445   4.767   2.261 -0.1631 -0.1729  0.1768
  176MOL0     C24165   5.500   4.907   2.290  0.1022  0.1086  0.0434
  176MOL0     C24166   5.537   4.984   2.164 -0.4799 -0.5395 -0.1218
  176MOL0     N24167   5.434   4.993   2.070  0.4943 -0.0237  0.2988
  176MOL0     C24168   5.429   4.933   1.948 -0.6456  1.1357  0.0883
  176MOL0     C24169   5.327   4.983   1.880  0.5694 -0.0079 -0.1693
  176MOL0     C24170   5.311   4.956   1.731  0.1031 -0.0890  0.7113
  176MOL0     C24171   5.414   5.042   1.647  0.0207  0.5599  0.2816
  176MOL0     C24172   5.400   5.009   1.492 -0.6643 -0.7259  0.4062
  176MOL0     C24173   5.435   5.120   1.401 -0.1888  0.1582  0.2558
  176MOL0     O24174   5.431   5.073   1.260 -0.1942  0.8727  0.4866
  176MOL0     C24175   5.414   5.160   1.160 -0.1224 -0.1056 -0.4446
  176MOL0     C24176   5.407   5.101   1.034  0.3238  0.3647  0.9923
  176MOL0     C24177   5.380   5.177   0.918  0.3861  0.1040  0.3285
  176MOL0     C24178   5.374   5.090   0.789 -1.3018 -0.1233  0.0757
  176MOL0     C24179   5.382   5.318   0.934 -0.8342 -0.3631  0.5644
  176MOL0     C24180   5.361   5.409   0.824 -0.4041  0.0117 -0.0989
  176MOL0     O24181   5.448   5.514   0.816 -0.6440 -0.0257 -0.3436
  176MOL0     C24182   5.447   5.579   0.694  0.2625 -0.1245  0.2531
  176MOL0     C24183   5.512   5.512   0.585  0.5193 -0.6774 -0.9025
  176MOL0     C24184   5.510   5.579   0.457 -0.3708  0.2932  0.1330
  176MOL0     C24185   5.448   5.702   0.438 -0.4048  0.0370  0.4016
  176MOL0     O24186   5.464   5.762   0.321 -0.8728 -0.6981  0.2924
  176MOL0     C24187   5.490   5.900   0.307 -0.6953 -0.8678  0.1263
  176MOL0     C24188   5.417   5.966   0.192 -0.7390  0.6794  0.0489
  176MOL0     C24189   5.266   5.936   0.190  0.2231  0.1565 -0.7200
  176MOL0     C24190   5.195   6.022   0.093  0.0259  0.7094  0.2244
  176MOL0     C24191   5.048   5.984   0.078 -0.1847  0.1603  0.4391
  176MOL0     C24192   4.993   6.077  -0.039  0.0923  0.1934 -0.0513
  176MOL0     C24193   4.842   6.073  -0.048  0.0973  0.0594  0.0511
  176MOL0     C24194   4.775   6.194  -0.120  0.3458 -0.3742 -0.0073
  176MOL0    Cl24195   4.829   6.360  -0.043 -0.2176  0.0360  0.1938
  176MOL0     C24196   5.374   5.761   0.548  0.8329 -0.4372  0.1336
  176MOL0     C24197   5.377   5.701   0.674  0.4891 -0.2572 -0.0441
  176MOL0     O24198   5.275   5.378   0.738 -0.2560  0.6283  0.2984
  176MOL0     C24199   5.386   5.382   1.053 -0.2594  0.5517 -0.7234
  176MOL0     C24200   5.408   5.304   1.171  0.5307  0.2726 -0.0506
  176MOL0     N24201   5.259   5.070   1.957 -0.0928 -0.7258  0.6104
  176MOL0     N24202   5.329   5.075   2.066  0.2670  0.0103  0.2547
  176MOL0     C24203   5.699   4.059   1.660 -0.3553 -0.5056 -0.5901
  176MOL0     C24204   5.759   3.935   1.617  0.1086  0.8910  0.1374
  176MOL0     C24205   6.148   3.678   1.548  1.1560 -1.0962  0.5274
  176MOL0     C24206   6.184   3.655   1.416 -0.3867  0.4465  0.6869
  176MOL0     C24207   6.276   3.550   1.388 -0.3948  0.6369  0.2488
  176MOL0     C24208   6.333   3.477   1.496  0.9465  0.4528 -0.8268
  176MOL0     O24209   6.418   3.377   1.483  0.2420 -0.9753 -0.0953
  176MOL0     C24210   6.380   3.260   1.406  0.3831 -0.5890  0.0714
  176MOL0     C24211   6.248   3.187   1.464 -0.3948  0.8945  0.7639
  176MOL0     C24212   6.275   3.117   1.604  0.4829 -0.7949  0.1240
  176MOL0     C24213   6.140   3.065   1.674  0.2964  0.1111  0.2073
  176MOL0     C24214   6.080   2.938   1.612 -0.0328 -1.0272 -0.2225
  176MOL0     C24215   6.046   2.837   1.553  0.5860 -0.4545  0.2408
  176MOL0     C24216   6.299   3.513   1.626 -0.5185  0.3077  0.5418
  176MOL0     C24217   6.199   3.610   1.658 -0.3821  0.6992  0.4128
  176MOL0     C24218   6.148   3.623   1.792 -0.2448 -0.1540 -0.6220
  176MOL0     H24219   6.026   3.952   1.815  0.2250 -3.9496 -2.6976
  176MOL0     H24220   5.940   4.175   1.867 -1.3076 -1.6117  1.5525
  176MOL0     H24221   5.808   4.349   1.939  0.4378 -0.4808  2.1328
  176MOL0     H24222   5.735   4.202   2.004 -2.6073 -1.0327 -0.5870
  176MOL0     H24223   5.551   4.435   1.904  1.0386  0.3620 -0.0223
  176MOL0     H24224   5.517   4.310   2.028  0.9027  1.6101  3.4922
  176MOL0     H24225   5.654   4.405   2.191  1.6974 -0.6931 -1.5082
  176MOL0     H24226   5.722   4.530   2.095 -0.2732  2.7786 -1.7318
  176MOL0     H24227   5.471   4.603   2.049  0.3701 -1.5401 -1.3110
  176MOL0     H24228   5.419   4.490   2.176 -0.7798  0.0160 -1.4538
  176MOL0     H24229   5.649   4.695   2.211  1.4547 -2.3496  0.7872
  176MOL0     H24230   5.567   4.611   2.337 -0.1037 -1.6326 -0.8962
  176MOL0     H24231   5.374   4.766   2.178  0.6587 -0.1089 -0.5405
  176MOL0     H24232   5.393   4.747   2.355 -1.5370 -2.0885 -0.9288
  176MOL0     H24233   5.587   4.901   2.357 -0.5770  0.4551  0.9760
  176MOL0     H24234   5.421   4.959   2.345 -0.3786 -1.5129  0.9917
  176MOL0     H24235   5.565   5.086   2.192 -0.6744 -0.7200  0.7484
  176MOL0     H24236   5.621   4.933   2.116  0.4113 -0.0145  0.8313
  176MOL0     H24237   5.502   4.859   1.916 -0.1619  0.4116  2.6271
  176MOL0     H24238   5.211   4.988   1.701 -0.0472 -0.4112  0.8604
  176MOL0     H24239   5.335   4.850   1.721  0.0017  0.0605 -2.2464
  176MOL0     H24240   5.398   5.150   1.662 -1.0817  0.1642  2.4799
  176MOL0     H24241   5.511   5.008   1.684 -0.1047 -0.8803 -0.6503
  176MOL0     H24242   5.477   4.931   1.489  2.2766  1.7357  3.6689
  176MOL0     H24243   5.301   4.967   1.473 -1.4749  1.6112 -0.9039
  176MOL0     H24244   5.367   5.205   1.414  1.4799  1.5580  0.1617
  176MOL0     H24245   5.536   5.154   1.427  0.3181 -0.0559 -1.3208
  176MOL0     H24246   5.405   4.993   1.032  2.2123  0.2979  0.9190
  176MOL0     H24247   5.270   5.072   0.760 -1.9623  3.0143  0.1927
  176MOL0     H24248   5.429   4.996   0.799  1.5991  1.1796 -2.2239
  176MOL0     H24249   5.413   5.131   0.696  0.0401 -0.6879  0.3746
  176MOL0     H24250   5.569   5.422   0.606  0.1137 -1.1420 -1.7554
  176MOL0     H24251   5.565   5.550   0.367 -2.1274  2.3218 -1.7270
  176MOL0     H24252   5.474   5.955   0.401 -2.6938 -2.6722  0.9090
  176MOL0     H24253   5.595   5.914   0.277 -1.2189 -1.1478 -1.9370
  176MOL0     H24254   5.422   6.075   0.189 -0.8874  0.6813 -2.0355
  176MOL0     H24255   5.463   5.943   0.095  2.6259  3.5867  0.7359
  176MOL0     H24256   5.222   5.944   0.290  1.8500 -1.8256  0.2213
  176MOL0     H24257   5.254   5.836   0.147  1.0143 -0.7477  1.0719
  176MOL0     H24258   5.246   6.005  -0.002  2.3607  0.2406  1.4774
  176MOL0     H24259   5.208   6.127   0.118 -0.2436  1.0525 -1.0416
  176MOL0     H24260   5.033   5.881   0.045 -0.4094  0.5828 -0.8337
  176MOL0     H24261   5.000   6.013   0.171  1.5212  1.0643  1.0798
  176MOL0     H24262   5.043   6.048  -0.132  3.0066  2.0283  0.8276
  176MOL0     H24263   5.019   6.181  -0.016 -1.9673  0.8269 -0.4230
  176MOL0     H24264   4.802   6.083   0.053 -0.5156 -2.2483  0.0904
  176MOL0     H24265   4.815   5.974  -0.087  1.3462 -0.3049  0.0808
  176MOL0     H24266   4.669   6.176  -0.100  0.8860 -2.2871  1.5040
  176MOL0     H24267   4.788   6.202  -0.228  4.7559  2.1083  0.4536
  176MOL0     H24268   5.312   5.845   0.518  1.6086 -0.3963 -1.4326
  176MOL0     H24269   5.325   5.757   0.750 -1.5665 -2.4389  0.2777
  176MOL0     H24270   5.382   5.491   1.056 -0.8836  0.5450  2.9523
  176MOL0     H24271   5.396   5.359   1.264 -2.4083 -1.7594  0.9094
  176MOL0     H24272   5.601   4.093   1.628 -0.8571 -2.0309 -0.7607
  176MOL0     H24273   5.716   3.861   1.550 -1.2339  0.9943  0.8411
  176MOL0     H24274   6.154   3.715   1.331  1.4339 -2.3082 -2.0956
  176MOL0     H24275   6.305   3.520   1.287  0.4569 -2.3430  1.2674
  176MOL0     H24276   6.365   3.295   1.303  2.4446 -1.8504 -0.7351
  176MOL0     H24277   6.457   3.183   1.391  0.0922 -0.3249 -4.3698
  176MOL0     H24278   6.215   3.120   1.384 -0.3983 -0.5996  1.9751
  176MOL0     H24279   6.160   3.251   1.474 -1.2820  0.0585 -1.1820
  176MOL0     H24280   6.342   3.031   1.608  2.7834  0.9275  1.8304
  176MOL0     H24281   6.335   3.176   1.675  3.1546 -3.8588  0.6169
  176MOL0     H24282   6.061   3.141   1.668 -0.2568 -0.5301 -1.8141
  176MOL0     H24283   6.156   3.055   1.781  2.5317  0.1022 -0.0907
  176MOL0     H24284   6.014   2.757   1.489 -0.3847  2.4739 -3.2739
  176MOL0     H24285   6.349   3.458   1.705 -0.4360  0.4172  0.5652
  176MOL0     H24286   6.071   3.545   1.797 -0.9109  0.4959 -0.7442
  176MOL0     H24287   6.226   3.615   1.869 -0.4434  1.4955 -0.2166
  176MOL0     H24288   6.101   3.719   1.811 -0.5700 -0.3043 -0.6591
  177MOL0     O24289   9.036   0.800   0.036  0.0421 -0.2837  0.3237
  177MOL0     C24290   9.019   0.701   0.109  0.3171  0.3985 -0.7220
  177MOL0     O24291   9.071   0.573   0.082  0.1365 -0.1691 -0.2307
  177MOL0     C24292   9.139   0.554  -0.034 -0.1382  0.0718 -0.6957
  177MOL0     C24293   9.256   0.480  -0.017 -0.7776  0.2158 -0.3508
  177MOL0     C24294   9.340   0.452  -0.125  0.3897  0.9737 -0.4167
  177MOL0     C24295   9.302   0.498  -0.248 -0.4772 -0.4067  0.5989
  177MOL0     O24296   9.387   0.457  -0.347 -0.6154 -0.8972  0.0017
  177MOL0     C24297   9.432   0.567  -0.421 -0.0263  0.0037 -0.4899
  177MOL0     C24298   9.554   0.524  -0.502  0.1630 -0.1317 -0.6817
  177MOL0     C24299   9.533   0.416  -0.603 -0.6557 -1.0500  0.5123
  177MOL0     C24300   9.450   0.474  -0.723 -0.0351  0.5471  0.2787
  177MOL0     C24301   9.398   0.357  -0.806  0.3856 -0.2991 -0.0854
  177MOL0     C24302   9.349   0.417  -0.940  0.6173  0.5402  0.6438
  177MOL0     C24303   9.294   0.306  -1.025  0.1469  0.7937 -0.5752
  177MOL0     C24304   9.368   0.280  -1.157  0.5600 -0.0669  0.6227
  177MOL0     N24305   9.509   0.228  -1.145 -0.5282  0.6700 -0.7060
  177MOL0     C24306   9.596   0.224  -1.242 -0.2143 -0.1175 -0.1944
  177MOL0     C24307   9.704   0.145  -1.199  0.3396  0.3052  0.8311
  177MOL0     C24308   9.837   0.117  -1.259 -0.0646 -1.0423 -0.3850
  177MOL0     C24309   9.877   0.212  -1.373 -0.2589 -0.9696  0.6780
  177MOL0     C24310  10.017   0.201  -1.427 -0.2463 -0.7056  0.0843
  177MOL0     C24311  10.044   0.320  -1.521  0.6435  1.0332  0.0805
  177MOL0     O24312  10.050   0.440  -1.443  1.1827 -1.1004 -0.3207
  177MOL0     C24313  10.129   0.545  -1.480 -0.6305  0.0159 -0.7950
  177MOL0     C24314  10.132   0.637  -1.378 -0.2349 -0.1526  0.4562
  177MOL0     C24315  10.210   0.758  -1.403  0.0510  0.5740  1.1063
  177MOL0     C24316  10.223   0.845  -1.285  0.2502 -0.9125 -0.3370
  177MOL0     C24317  10.270   0.786  -1.527  0.7355 -0.0334 -0.1993
  177MOL0     C24318  10.365   0.890  -1.558 -0.7791 -0.5108  0.1337
  177MOL0     O24319  10.366   0.922  -1.685  0.5160 -1.1239  0.6162
  177MOL0     C24320  10.478   0.979  -1.728 -0.3079  0.5834  0.1853
  177MOL0     C24321  10.606   0.918  -1.727  0.1205  0.4347  0.7677
  177MOL0     C24322  10.720   0.994  -1.752  0.4120  0.6600  0.8229
  177MOL0     C24323  10.712   1.114  -1.803  0.4990 -0.9637  0.6275
  177MOL0     O24324  10.815   1.197  -1.843 -0.6253  0.0614  0.1474
  177MOL0     C24325  10.945   1.148  -1.871 -0.5099  0.2168  0.7036
  177MOL0     C24326  11.021   1.263  -1.928  0.4348 -0.5042 -0.4741
  177MOL0     C24327  11.171   1.249  -1.898 -0.1370  0.6269  0.1700
  177MOL0     C24328  11.248   1.378  -1.906 -0.3093 -0.2640 -0.7610
  177MOL0     C24329  11.399   1.360  -1.920  0.3900 -0.0259  0.2834
  177MOL0     C24330  11.456   1.298  -1.795 -1.1496 -0.6937  0.3099
  177MOL0     C24331  11.610   1.293  -1.804  0.3099  0.4935 -0.2342
  177MOL0     C24332  11.689   1.241  -1.680 -0.2925  0.7372 -0.6368
  177MOL0    Cl24333  11.719   1.376  -1.566  0.0825  0.0239 -0.2011
  177MOL0     C24334  10.589   1.179  -1.820 -0.6720  0.4759  0.2802
  177MOL0     C24335  10.468   1.107  -1.784 -0.8259 -0.8524 -0.4153
  177MOL0     O24336  10.439   0.941  -1.467 -0.0861  0.9411  0.6264
  177MOL0     C24337  10.261   0.683  -1.630 -0.9046 -0.6542  0.4860
  177MOL0     C24338  10.190   0.567  -1.607  0.1523 -0.9341 -0.1604
  177MOL0     N24339   9.662   0.087  -1.079 -0.1738 -0.1800  1.1759
  177MOL0     N24340   9.547   0.135  -1.056  0.6381  0.5696 -0.0775
  177MOL0     C24341   9.177   0.562  -0.275 -0.6780 -0.2870  0.0092
  177MOL0     C24342   9.097   0.597  -0.166  0.1347  0.5362 -1.0419
  177MOL0     C24343   8.972   0.710   0.248 -0.2178  0.0445  0.0304
  177MOL0     C24344   9.021   0.624   0.346  0.0785  0.2465 -0.5049
  177MOL0     C24345   8.955   0.620   0.467 -0.6775  0.4888  0.2309
  177MOL0     C24346   8.846   0.692   0.499  0.0226 -0.2115  0.6850
  177MOL0     O24347   8.787   0.680   0.619 -0.1456 -0.0137  0.0862
  177MOL0     C24348   8.814   0.572   0.707 -0.0233 -0.8016 -0.1685
  177MOL0     C24349   8.710   0.565   0.817 -0.1384  0.1914 -0.7009
  177MOL0     C24350   8.746   0.460   0.920  0.7607  0.0429 -0.0352
  177MOL0     C24351   8.622   0.400   0.990  0.2563  0.4990 -0.3521
  177MOL0     C24352   8.535   0.501   1.044 -1.6726 -0.9677  0.6802
  177MOL0     C24353   8.474   0.593   1.086 -0.1609  0.0278 -0.3464
  177MOL0     C24354   8.805   0.790   0.407  0.6332 -0.9124  0.1180
  177MOL0     C24355   8.855   0.795   0.280 -0.4651  0.0702  0.1789
  177MOL0     C24356   8.800   0.899   0.191 -0.3935 -0.6592  1.0079
  177MOL0     H24357   9.281   0.441   0.081  0.7177 -0.0956 -0.8196
  177MOL0     H24358   9.426   0.389  -0.106 -0.5646  0.0087  0.8893
  177MOL0     H24359   9.461   0.643  -0.348  0.9980 -1.6421  0.8776
  177MOL0     H24360   9.351   0.599  -0.488  2.0129  1.9058 -2.2124
  177MOL0     H24361   9.596   0.610  -0.555  0.2044  0.1768 -0.1579
  177MOL0     H24362   9.628   0.492  -0.428  0.5063 -1.8958 -1.7152
  177MOL0     H24363   9.630   0.380  -0.641 -0.3859  1.3772 -1.3751
  177MOL0     H24364   9.484   0.332  -0.554  1.2230 -2.8211 -0.4955
  177MOL0     H24365   9.361   0.528  -0.690 -2.6459 -3.8379  1.1096
  177MOL0     H24366   9.514   0.540  -0.783  3.0822 -2.5073 -0.0336
  177MOL0     H24367   9.314   0.312  -0.751 -0.0449  2.5692  1.8395
  177MOL0     H24368   9.475   0.280  -0.814  0.5268 -0.2958  1.0959
  177MOL0     H24369   9.268   0.488  -0.922 -1.2305 -1.0889 -0.9385
  177MOL0     H24370   9.418   0.482  -0.995  1.1610  0.1790  0.8901
  177MOL0     H24371   9.199   0.349  -1.059 -1.1654  1.9484  3.9066
  177MOL0     H24372   9.282   0.212  -0.970  2.3393 -0.8136 -2.6306
  177MOL0     H24373   9.322   0.214  -1.231 -0.4581 -1.5500  2.4884
  177MOL0     H24374   9.367   0.378  -1.206  1.1624  0.4049  1.5437
  177MOL0     H24375   9.597   0.287  -1.331 -3.2477 -1.4063 -1.2656
  177MOL0     H24376   9.859   0.014  -1.290  0.3658 -0.6728 -1.3515
  177MOL0     H24377   9.908   0.136  -1.178  0.3969  0.9006 -1.1884
  177MOL0     H24378   9.807   0.198  -1.456 -1.2138  3.8514  0.3720
  177MOL0     H24379   9.876   0.313  -1.332 -0.7405 -1.2933  1.5069
  177MOL0     H24380  10.085   0.213  -1.342 -0.4519 -0.5297  0.2268
  177MOL0     H24381  10.051   0.106  -1.470 -4.1035 -2.6872  0.9625
  177MOL0     H24382  10.136   0.315  -1.581  1.2802  2.5724  0.8483
  177MOL0     H24383   9.968   0.319  -1.599  3.2432 -3.8974 -2.8880
  177MOL0     H24384  10.076   0.615  -1.288  1.5198 -2.1723  1.1651
  177MOL0     H24385  10.174   0.942  -1.296  0.6134 -0.5184  1.3666
  177MOL0     H24386  10.327   0.877  -1.282 -0.6191  2.6873 -2.3536
  177MOL0     H24387  10.195   0.793  -1.193 -0.1901 -0.8369 -0.4238
  177MOL0     H24388  10.632   0.818  -1.691  0.4543  0.1967 -0.1151
  177MOL0     H24389  10.821   0.955  -1.744  0.4055 -0.4961 -3.0432
  177MOL0     H24390  10.989   1.121  -1.775  2.3114  1.8568 -0.0050
  177MOL0     H24391  10.946   1.070  -1.947  0.5931  2.7815 -2.1422
  177MOL0     H24392  11.002   1.270  -2.035  2.2504  2.8551 -0.7036
  177MOL0     H24393  10.997   1.354  -1.873  2.6752 -0.0682 -0.1326
  177MOL0     H24394  11.212   1.179  -1.972  0.7525  0.7209  0.5686
  177MOL0     H24395  11.189   1.208  -1.799 -2.7210 -2.2620 -0.3573
  177MOL0     H24396  11.222   1.443  -1.822 -1.5490  0.8169 -1.9369
  177MOL0     H24397  11.200   1.423  -1.993 -0.9570 -3.3184 -2.1406
  177MOL0     H24398  11.423   1.300  -2.007 -0.4011 -0.6911  0.5143
  177MOL0     H24399  11.444   1.459  -1.932 -1.7382  0.8332 -1.1859
  177MOL0     H24400  11.424   1.194  -1.790  0.5862 -1.3653 -1.4359
  177MOL0     H24401  11.423   1.352  -1.705 -1.9718  1.7918 -1.3841
  177MOL0     H24402  11.641   1.391  -1.843 -2.1370  0.9579 -1.1881
  177MOL0     H24403  11.636   1.235  -1.893  1.6387 -1.5330  1.3827
  177MOL0     H24404  11.789   1.213  -1.715 -0.4547 -1.1513  0.2490
  177MOL0     H24405  11.640   1.159  -1.625  1.7397 -0.1765 -0.0865
  177MOL0     H24406  10.597   1.279  -1.862  2.9412  0.9238  1.6969
  177MOL0     H24407  10.379   1.168  -1.791  0.6046  2.2807  4.0997
  177MOL0     H24408  10.296   0.697  -1.732  0.8840 -0.9923  1.0149
  177MOL0     H24409  10.182   0.498  -1.690 -0.7245  0.3925 -1.2048
  177MOL0     H24410   9.137   0.574  -0.376 -3.1414  0.0195  0.9483
  177MOL0     H24411   9.003   0.649  -0.182 -0.1323  0.1875 -0.6361
  177MOL0     H24412   9.107   0.562   0.325  0.1050 -1.0370  2.7576
  177MOL0     H24413   8.993   0.558   0.548  0.1561  0.9886  0.2380
  177MOL0     H24414   8.811   0.481   0.648  2.3370  0.0445 -1.7617
  177MOL0     H24415   8.918   0.579   0.743 -0.1454  0.5194 -0.0275
  177MOL0     H24416   8.618   0.539   0.764  0.6082 -1.7264 -1.1546
  177MOL0     H24417   8.698   0.662   0.866 -1.0858  1.2077 -2.8261
  177MOL0     H24418   8.801   0.380   0.870 -3.0780 -1.4918 -2.1970
  177MOL0     H24419   8.813   0.502   0.997  3.1262  0.3480 -2.1201
  177MOL0     H24420   8.650   0.332   1.071  1.4774 -0.0743 -1.2202
  177MOL0     H24421   8.566   0.343   0.916  0.9013 -0.4615 -0.1229
  177MOL0     H24422   8.412   0.672   1.123 -1.9992 -0.7173 -1.6591
  177MOL0     H24423   8.723   0.854   0.438  0.2320 -0.1810 -2.2513
  177MOL0     H24424   8.777   0.873   0.088  2.6239  0.9561 -0.1852
  177MOL0     H24425   8.713   0.955   0.227 -1.0632 -1.9662  1.4818
  177MOL0     H24426   8.877   0.977   0.189  0.6801 -1.5965  2.8687
  178MOL0     O24427   1.171  10.535  11.401 -0.4502  0.1500  0.0856
  178MOL0     C24428   1.142  10.637  11.463  0.0853  0.6868  0.5252
  178MOL0     O24429   1.184  10.767  11.425  0.0715  0.4309  0.4907
  178MOL0     C24430   1.239  10.772  11.296  0.7070 -0.9726  0.4046
  178MOL0     C24431   1.186  10.862  11.206 -0.5212 -0.0975  0.5015
  178MOL0     C24432   1.224  10.871  11.072  0.2122  0.2445 -0.4288
  178MOL0     C24433   1.351  10.810  11.028 -0.3538  0.9650  0.0013
  178MOL0     O24434   1.399  10.843  10.907  0.9402 -0.0873 -0.2148
  178MOL0     C24435   1.412  10.732  10.814  0.2328 -0.9351 -0.0470
  178MOL0     C24436   1.558  10.710  10.771 -0.0172  0.3054 -0.5822
  178MOL0     C24437   1.633  10.813  10.694  0.1596 -0.1099  0.2284
  178MOL0     C24438   1.784  10.781  10.681  0.2447 -0.5335  0.0677
  178MOL0     C24439   1.863  10.898  10.624 -0.2139  0.1075 -0.3625
  178MOL0     C24440   1.831  10.935  10.477  0.0098 -0.2792 -0.1076
  178MOL0     C24441   1.938  10.996  10.390 -1.1550  0.0944  0.5372
  178MOL0     C24442   2.047  10.882  10.363 -0.4205 -0.5208 -0.7364
  178MOL0     N24443   2.014  10.781  10.263  0.4225  0.1950 -0.1183
  178MOL0     C24444   1.918  10.682  10.268 -0.3555 -0.4767  0.5445
  178MOL0     C24445   1.914  10.639  10.142  0.6893  0.0261  0.5164
  178MOL0     C24446   1.826  10.527  10.106  0.6131 -0.2317 -0.7310
  178MOL0     C24447   1.712  10.593  10.022 -0.4860 -0.5075 -0.2313
  178MOL0     C24448   1.590  10.509  10.011 -0.0303  0.3124 -0.0289
  178MOL0     C24449   1.613  10.363   9.965 -0.5413  0.1187 -0.1559
  178MOL0     O24450   1.489  10.294   9.983  0.1528  0.1010  0.0822
  178MOL0     C24451   1.477  10.160   9.959 -0.5356 -0.0963  0.4907
  178MOL0     C24452   1.357  10.097   9.987  0.1480 -0.5872 -0.3038
  178MOL0     C24453   1.328   9.961   9.981 -0.3061  1.1092  0.4614
  178MOL0     C24454   1.184   9.913  10.010 -0.2425  0.0291  0.6757
  178MOL0     C24455   1.431   9.876   9.945  0.2653 -1.5857  0.8503
  178MOL0     C24456   1.418   9.729   9.941  1.0885  0.6528  0.2576
  178MOL0     O24457   1.298   9.675   9.911  1.5858  0.4361  0.9774
  178MOL0     C24458   1.261   9.538   9.921 -0.0726 -0.3169 -0.5203
  178MOL0     C24459   1.196   9.480   9.812  0.4491 -0.2789 -0.5149
  178MOL0     C24460   1.150   9.344   9.812 -0.3532 -0.6531 -0.4535
  178MOL0     C24461   1.193   9.265   9.932 -0.4741 -0.1938 -0.3427
  178MOL0     O24462   1.176   9.132   9.947 -0.1559 -0.2112 -0.8233
  178MOL0     C24463   1.177   9.043   9.839 -0.6263  0.1103  0.2114
  178MOL0     C24464   1.244   8.912   9.890 -0.7251 -0.8703 -0.8422
  178MOL0     C24465   1.218   8.778   9.813  0.3625 -0.5395 -0.4170
  178MOL0     C24466   1.062   8.753   9.805 -0.4742 -0.5206 -0.6499
  178MOL0     C24467   1.040   8.602   9.770 -0.1600  0.2105 -1.2540
  178MOL0     C24468   0.885   8.572   9.787 -0.1358  0.0912 -0.5107
  178MOL0     C24469   0.868   8.424   9.754 -0.5790  0.0338 -0.5027
  178MOL0     C24470   0.724   8.371   9.765  0.2337 -0.9678 -1.8169
  178MOL0    Cl24471   0.687   8.338   9.938  0.0738 -0.3144 -0.1421
  178MOL0     C24472   1.263   9.330  10.039  0.2514 -0.6721  1.2460
  178MOL0     C24473   1.296   9.463  10.031 -0.8447  0.1780 -0.1370
  178MOL0     O24474   1.511   9.665   9.959 -0.2364 -0.3880  0.3087
  178MOL0     C24475   1.560   9.930   9.937  0.2415 -1.0399  1.5779
  178MOL0     C24476   1.583  10.069   9.944  0.1857 -0.9875 -0.3622
  178MOL0     N24477   2.006  10.704  10.069  0.6572 -0.5999  0.8556
  178MOL0     N24478   2.065  10.790  10.140  0.5356  0.2067 -0.1345
  178MOL0     C24479   1.408  10.726  11.123 -1.1620  0.0077 -0.5585
  178MOL0     C24480   1.350  10.691  11.252  0.3079 -0.9627  0.0532
  178MOL0     C24481   1.045  10.623  11.569 -0.6653 -0.0046 -0.8210
  178MOL0     C24482   0.941  10.724  11.576 -0.0361  0.1989 -0.1556
  178MOL0     C24483   0.838  10.708  11.669 -1.0065  0.1325  0.3610
  178MOL0     C24484   0.825  10.601  11.754 -0.5132 -0.0505 -0.0524
  178MOL0     O24485   0.743  10.588  11.862  0.0596  0.1081 -0.8422
  178MOL0     C24486   0.668  10.711  11.889  1.3901 -0.1159 -0.4178
  178MOL0     C24487   0.596  10.702  12.027  0.1812 -0.8894  0.0998
  178MOL0     C24488   0.512  10.579  12.053  0.0688 -1.2307 -0.1976
  178MOL0     C24489   0.460  10.600  12.198 -0.1380 -0.2796  0.2635
  178MOL0     C24490   0.406  10.472  12.256  0.5958  0.2533  0.1731
  178MOL0     C24491   0.356  10.368  12.303  0.1774 -0.3562  1.3493
  178MOL0     C24492   0.928  10.504  11.749 -0.4137 -0.1962 -0.0461
  178MOL0     C24493   1.040  10.513  11.658 -0.0533  0.9004  0.0779
  178MOL0     C24494   1.146  10.400  11.662  0.4488 -0.5088 -0.4071
  178MOL0     H24495   1.109  10.935  11.226  0.9127  1.7407 -0.4197
  178MOL0     H24496   1.188  10.944  11.000  2.0510  1.7155  0.0806
  178MOL0     H24497   1.362  10.761  10.720 -2.4020  0.5162  1.6709
  178MOL0     H24498   1.367  10.635  10.839  0.8252 -1.5501 -1.2399
  178MOL0     H24499   1.615  10.688  10.861 -1.5661  1.3950  0.7188
  178MOL0     H24500   1.555  10.629  10.697  0.4449 -0.2809  0.0320
  178MOL0     H24501   1.589  10.821  10.594 -1.1388 -1.7732  0.6300
  178MOL0     H24502   1.620  10.913  10.734 -2.0452  0.0446 -0.7088
  178MOL0     H24503   1.821  10.770  10.783  1.9087  1.4918 -0.2591
  178MOL0     H24504   1.796  10.695  10.615 -3.7982 -1.1427 -0.1505
  178MOL0     H24505   1.969  10.873  10.636 -0.4397 -1.5612 -1.5207
  178MOL0     H24506   1.853  10.987  10.686 -0.7966  1.8420 -2.8038
  178MOL0     H24507   1.800  10.844  10.425  1.6503 -0.3515 -1.0404
  178MOL0     H24508   1.736  10.988  10.480 -0.4373 -0.8963 -1.9424
  178MOL0     H24509   1.985  11.080  10.442  1.0808  0.4674 -1.8337
  178MOL0     H24510   1.894  11.038  10.299 -2.1427  2.8457  2.1670
  178MOL0     H24511   2.135  10.931  10.319 -0.9584 -0.7958 -2.1466
  178MOL0     H24512   2.077  10.833  10.456  1.7523  1.6492 -0.1769
  178MOL0     H24513   1.856  10.639  10.345 -3.2190  1.6400 -0.4114
  178MOL0     H24514   1.775  10.489  10.195 -1.3044  2.7472 -0.4021
  178MOL0     H24515   1.871  10.454  10.038  1.3370 -0.5931  0.1196
  178MOL0     H24516   1.695  10.689  10.073  0.0650 -0.8771  0.6698
  178MOL0     H24517   1.749  10.609   9.921  2.0133  2.7085  1.0022
  178MOL0     H24518   1.537  10.525  10.106 -0.8393  5.7387 -1.0671
  178MOL0     H24519   1.520  10.557   9.942 -2.3345 -0.2283  1.7654
  178MOL0     H24520   1.646  10.343   9.862  0.6764 -2.0889  0.6008
  178MOL0     H24521   1.692  10.328  10.031  1.1696  1.0086 -1.6508
  178MOL0     H24522   1.270  10.159  10.005  0.2563 -0.4501 -0.2427
  178MOL0     H24523   1.134   9.987  10.072  1.2093  0.6761  1.1275
  178MOL0     H24524   1.188   9.830  10.082  0.0695 -1.0286 -0.5283
  178MOL0     H24525   1.111   9.885   9.934 -3.5192  0.1210  3.5633
  178MOL0     H24526   1.147   9.546   9.741 -4.4699 -1.5685  1.2060
  178MOL0     H24527   1.080   9.307   9.739  0.1055 -0.1221 -1.1780
  178MOL0     H24528   1.072   9.015   9.824 -0.6178  0.1276  0.1221
  178MOL0     H24529   1.237   9.073   9.753  3.0229  0.6934  2.7715
  178MOL0     H24530   1.347   8.947   9.890 -1.1868  0.5776 -1.9116
  178MOL0     H24531   1.213   8.897   9.994 -2.4095  1.0779 -0.9835
  178MOL0     H24532   1.265   8.700   9.874  0.3595 -0.3556 -0.1766
  178MOL0     H24533   1.264   8.789   9.714 -1.0760  1.3567 -0.9304
  178MOL0     H24534   1.012   8.813   9.729 -2.2035 -0.6889  0.2885
  178MOL0     H24535   1.014   8.782   9.899 -1.6501 -0.7979 -1.1423
  178MOL0     H24536   1.067   8.577   9.667 -1.5990  0.0137 -1.6085
  178MOL0     H24537   1.090   8.544   9.848 -1.1251  2.5862  1.2956
  178MOL0     H24538   0.828   8.634   9.718  0.8764  0.8801 -0.6557
  178MOL0     H24539   0.856   8.586   9.892  0.9599 -2.3659  0.1886
  178MOL0     H24540   0.934   8.359   9.812 -2.0938 -0.4300  0.7520
  178MOL0     H24541   0.895   8.421   9.648 -0.5279 -2.1021 -0.4551
  178MOL0     H24542   0.709   8.279   9.708 -1.4377  0.4304 -3.8042
  178MOL0     H24543   0.644   8.440   9.736  0.5520 -0.5351 -1.6879
  178MOL0     H24544   1.305   9.265  10.115 -0.4789 -4.6005 -1.4315
  178MOL0     H24545   1.362   9.501  10.108  1.9742 -2.6113 -0.9772
  178MOL0     H24546   1.652   9.881   9.906  0.5975  0.9850 -0.9016
  178MOL0     H24547   1.679  10.117   9.928 -0.8700  1.5580  0.4832
  178MOL0     H24548   1.492  10.669  11.085  1.9135  1.8249  2.7921
  178MOL0     H24549   1.398  10.617  11.315  1.8359  2.2424  2.9650
  178MOL0     H24550   0.944  10.811  11.511  3.2559  1.1182  1.0497
  178MOL0     H24551   0.765  10.789  11.669  1.2195  2.2541  0.3098
  178MOL0     H24552   0.736  10.796  11.886 -0.4462  1.4230 -0.6567
  178MOL0     H24553   0.587  10.723  11.816  1.1526 -1.6887 -0.4398
  178MOL0     H24554   0.532  10.791  12.035  0.0207 -1.0937  1.1552
  178MOL0     H24555   0.683  10.698  12.092  0.2388 -0.0953  0.0891
  178MOL0     H24556   0.430  10.582  11.980 -0.1452  4.1743 -0.1609
  178MOL0     H24557   0.573  10.488  12.051  0.6470 -0.8407 -1.1591
  178MOL0     H24558   0.390  10.682  12.181 -1.1810 -1.6176 -2.5349
  178MOL0     H24559   0.543  10.636  12.260  0.4694  0.0078 -0.6895
  178MOL0     H24560   0.320  10.270  12.328  1.0632 -1.4699 -1.3249
  178MOL0     H24561   0.911  10.422  11.818  2.2177 -1.9156 -1.2873
  178MOL0     H24562   1.247  10.441  11.649  0.0640  1.3824  1.9193
  178MOL0     H24563   1.153  10.363  11.765  0.7595  1.6622  0.4222
  178MOL0     H24564   1.111  10.332  11.584  0.5142 -0.2786 -0.6396
  179MOL0     O24565  11.337   8.803   4.467 -0.2363  0.2283  0.0564
  179MOL0     C24566  11.273   8.850   4.558  0.5401  0.6532 -0.3578
  179MOL0     O24567  11.328   8.929   4.654 -0.1993 -0.0840 -0.6562
  179MOL0     C24568  11.460   8.945   4.677 -1.3500  0.4615 -0.4268
  179MOL0     C24569  11.582   8.898   4.619  0.1405 -0.0219 -0.3603
  179MOL0     C24570  11.712   8.935   4.679  1.0006  0.2067  0.4208
  179MOL0     C24571  11.721   9.006   4.793  0.0838  0.4003 -0.1875
  179MOL0     O24572  11.844   9.044   4.837  0.4363 -0.0726  0.3366
  179MOL0     C24573  11.875   9.179   4.808  0.0764  0.2628 -0.5265
  179MOL0     C24574  12.020   9.206   4.814 -0.1433  0.9118 -0.1929
  179MOL0     C24575  12.099   9.179   4.947  0.5009 -0.2609 -0.1341
  179MOL0     C24576  12.251   9.215   4.926 -0.2126  0.0668  0.5071
  179MOL0     C24577  12.300   9.211   5.071  0.4671 -0.2703  0.4783
  179MOL0     C24578  12.449   9.209   5.070 -0.1367  0.0017  0.5485
  179MOL0     C24579  12.515   9.063   5.036  0.2767 -0.6533 -0.3755
  179MOL0     C24580  12.517   8.967   5.149 -0.3981  0.8642 -0.0258
  179MOL0     N24581  12.615   9.006   5.245 -0.0133  0.3105  0.4337
  179MOL0     C24582  12.749   8.985   5.219 -0.2392  0.3844  0.3308
  179MOL0     C24583  12.807   9.038   5.331 -0.3204  0.4861 -0.3419
  179MOL0     C24584  12.956   9.044   5.378 -0.1133 -0.6027  0.3167
  179MOL0     C24585  13.037   8.936   5.298  0.3593 -0.1215  0.1013
  179MOL0     C24586  13.195   8.947   5.311 -0.5197 -0.0488  0.3922
  179MOL0     C24587  13.261   9.081   5.255 -0.1355 -0.3290 -0.2977
  179MOL0     O24588  13.410   9.087   5.274  0.3755 -1.0230 -0.1464
  179MOL0     C24589  13.488   9.183   5.206  0.0792  0.1768  0.0179
  179MOL0     C24590  13.450   9.270   5.110 -0.4227 -0.8608 -0.6808
  179MOL0     C24591  13.538   9.357   5.048 -0.1139 -0.1047  0.3342
  179MOL0     C24592  13.494   9.440   4.931  0.2430  0.2161  0.2676
  179MOL0     C24593  13.668   9.376   5.109 -0.9296 -0.6891 -0.1849
  179MOL0     C24594  13.767   9.478   5.081 -0.4993  0.1062  0.3760
  179MOL0     O24595  13.857   9.501   5.177 -0.5570 -0.0635 -0.3334
  179MOL0     C24596  13.962   9.591   5.177 -0.2256  0.7094  0.4264
  179MOL0     C24597  14.045   9.613   5.063 -0.0256 -0.5340  0.3327
  179MOL0     C24598  14.148   9.710   5.066 -0.6107 -0.0065  1.4338
  179MOL0     C24599  14.170   9.783   5.184  0.3436  0.3004 -0.6921
  179MOL0     O24600  14.269   9.874   5.205  0.2377 -0.4561 -0.3538
  179MOL0     C24601  14.395   9.849   5.142  0.3430 -0.3992  0.6353
  179MOL0     C24602  14.489   9.820   5.243  0.2521  0.0328  0.5897
  179MOL0     C24603  14.598   9.729   5.190 -0.1340  0.5896 -0.9842
  179MOL0     C24604  14.713   9.711   5.304 -0.2214 -0.9427  0.3663
  179MOL0     C24605  14.824   9.630   5.242 -0.5772  0.1943  0.1903
  179MOL0     C24606  14.935   9.585   5.343 -0.2129 -0.1008 -0.1170
  179MOL0     C24607  15.017   9.712   5.406  0.5427  0.7298  0.1293
  179MOL0     C24608  15.072   9.676   5.539 -0.2940 -0.0303 -1.0032
  179MOL0    Cl24609  14.924   9.671   5.640 -0.3817 -0.2121  0.0599
  179MOL0     C24610  14.082   9.766   5.297 -0.5930  0.4219 -0.0149
  179MOL0     C24611  13.984   9.665   5.286  0.7263 -0.4234 -0.4234
  179MOL0     O24612  13.768   9.543   4.981 -0.9256 -0.3419 -0.3055
  179MOL0     C24613  13.713   9.280   5.212  0.0399 -0.6293  0.0899
  179MOL0     C24614  13.622   9.193   5.257  0.0412  0.3727  0.5540
  179MOL0     N24615  12.699   9.099   5.412  0.0636 -0.6443  0.3102
  179MOL0     N24616  12.587   9.072   5.363  0.8243  0.6375 -0.0556
  179MOL0     C24617  11.605   9.051   4.847  0.0108 -0.0404  0.5810
  179MOL0     C24618  11.482   9.024   4.790  0.3066  0.0342  0.6940
  179MOL0     C24619  11.128   8.829   4.583  0.2101 -0.0841 -1.5162
  179MOL0     C24620  11.056   8.927   4.655  0.1840 -0.0330 -0.1371
  179MOL0     C24621  10.923   8.917   4.680  0.4559 -0.9206  0.3983
  179MOL0     C24622  10.848   8.812   4.626  0.2564  0.1310 -0.3446
  179MOL0     O24623  10.714   8.849   4.642 -0.2832  0.1640  0.5024
  179MOL0     C24624  10.624   8.762   4.576  0.3577  0.1812  0.7326
  179MOL0     C24625  10.503   8.847   4.549 -0.5073  0.4168 -0.5246
  179MOL0     C24626  10.440   8.924   4.667 -0.8552 -0.1670 -0.0409
  179MOL0     C24627  10.301   8.970   4.624  0.4626 -0.1738  0.1403
  179MOL0     C24628  10.203   8.860   4.634 -0.8165 -0.3437  0.0255
  179MOL0     C24629  10.121   8.768   4.650 -0.0863  0.4742 -0.5419
  179MOL0     C24630  10.914   8.708   4.553  1.1263 -0.4740  0.7243
  179MOL0     C24631  11.056   8.716   4.537  0.3816  0.0094 -0.6210
  179MOL0     C24632  11.120   8.592   4.464  0.6533  0.1607 -0.0201
  179MOL0     H24633  11.586   8.835   4.530 -1.5982 -2.3778  1.0918
  179MOL0     H24634  11.796   8.900   4.619 -0.0822  1.3957 -1.9381
  179MOL0     H24635  11.809   9.242   4.869 -1.8374  0.3139 -2.5099
  179MOL0     H24636  11.846   9.203   4.705 -1.8776 -1.9918 -0.5938
  179MOL0     H24637  12.056   9.153   4.726 -0.3627 -0.1953  0.3694
  179MOL0     H24638  12.033   9.313   4.793  0.3002  0.7160 -0.9666
  179MOL0     H24639  12.063   9.241   5.029 -0.9875 -1.1793 -0.0607
  179MOL0     H24640  12.103   9.072   4.965  3.3518 -0.1728  0.2471
  179MOL0     H24641  12.289   9.138   4.859 -1.9791  0.4515 -1.0151
  179MOL0     H24642  12.260   9.314   4.882 -0.8680 -0.8933 -1.9315
  179MOL0     H24643  12.260   9.131   5.134 -0.6838  0.6840  0.9937
  179MOL0     H24644  12.253   9.289   5.131 -2.4936 -1.9915  0.5962
  179MOL0     H24645  12.477   9.279   4.992 -0.5983 -3.0680 -2.6312
  179MOL0     H24646  12.495   9.252   5.159  0.0455  0.2755  0.3222
  179MOL0     H24647  12.619   9.088   5.015 -0.1306  2.0493  0.4058
  179MOL0     H24648  12.468   9.015   4.949  0.0303 -1.5701  0.2477
  179MOL0     H24649  12.417   8.962   5.192 -0.4167  1.0012 -0.0552
  179MOL0     H24650  12.548   8.866   5.119  3.8774  0.9110  3.2066
  179MOL0     H24651  12.797   8.939   5.133 -1.9331  0.0525 -0.5032
  179MOL0     H24652  12.957   9.029   5.486 -1.2929  0.2479  0.4697
  179MOL0     H24653  13.004   9.142   5.375  1.8297 -1.5027  0.9647
  179MOL0     H24654  13.012   8.831   5.319  1.1525 -0.5309 -0.8951
  179MOL0     H24655  13.026   8.946   5.190 -0.4671 -0.3119  0.1673
  179MOL0     H24656  13.223   8.932   5.416  0.9325 -0.4627 -0.0204
  179MOL0     H24657  13.243   8.856   5.274  1.5341  0.2301  2.1308
  179MOL0     H24658  13.245   9.093   5.147 -1.1265 -0.1304 -0.1344
  179MOL0     H24659  13.210   9.166   5.301 -1.1055  0.0855 -2.0479
  179MOL0     H24660  13.349   9.273   5.072  0.6907  2.6645 -4.0179
  179MOL0     H24661  13.449   9.533   4.966 -1.7591  0.1568 -1.9585
  179MOL0     H24662  13.411   9.394   4.877 -3.1504 -1.2760  5.9260
  179MOL0     H24663  13.578   9.466   4.866  0.9397 -0.3082  0.9402
  179MOL0     H24664  14.021   9.562   4.970  2.9333 -1.5314  0.0224
  179MOL0     H24665  14.212   9.718   4.979 -1.1737 -0.9168  0.9184
  179MOL0     H24666  14.394   9.776   5.061  2.0057  0.1758  0.0583
  179MOL0     H24667  14.423   9.942   5.092 -2.2802  0.4232  0.5278
  179MOL0     H24668  14.529   9.916   5.279 -1.2471  1.3264 -1.0224
  179MOL0     H24669  14.441   9.773   5.329  1.1225  1.7298  2.0765
  179MOL0     H24670  14.640   9.775   5.100  1.2512 -2.7973 -2.2476
  179MOL0     H24671  14.547   9.639   5.156  0.3799  0.7036 -2.1020
  179MOL0     H24672  14.675   9.677   5.401  2.1026 -1.2213  1.2414
  179MOL0     H24673  14.741   9.816   5.315 -2.0407 -0.6324  2.6952
  179MOL0     H24674  14.786   9.533   5.208  4.3646 -3.1487  3.0346
  179MOL0     H24675  14.856   9.688   5.155 -4.0349  4.8805  1.6568
  179MOL0     H24676  15.010   9.529   5.286 -0.6897 -0.9471  0.0597
  179MOL0     H24677  14.892   9.522   5.422 -0.6752  1.6943  1.1183
  179MOL0     H24678  14.940   9.787   5.428 -0.0740 -0.1781  1.1097
  179MOL0     H24679  15.094   9.744   5.335 -1.1258  0.1187 -2.0878
  179MOL0     H24680  15.137   9.755   5.578 -0.8273  0.2582 -0.6995
  179MOL0     H24681  15.124   9.581   5.529  1.8495  1.2176 -2.7286
  179MOL0     H24682  14.096   9.823   5.389  3.5871 -0.4452  0.0877
  179MOL0     H24683  13.926   9.649   5.376 -3.4071 -1.5019 -3.0197
  179MOL0     H24684  13.814   9.279   5.253  1.1858  1.9903 -2.2959
  179MOL0     H24685  13.653   9.137   5.345  1.9084  1.7422  0.8315
  179MOL0     H24686  11.612   9.111   4.937  1.4415 -0.8050  1.0052
  179MOL0     H24687  11.390   9.059   4.836  0.5942  1.7958 -0.0014
  179MOL0     H24688  11.103   9.020   4.683 -0.3128  0.5162 -1.1029
  179MOL0     H24689  10.872   8.995   4.736 -2.0147 -2.7487  0.8886
  179MOL0     H24690  10.665   8.727   4.480 -1.8777  0.8281 -0.5434
  179MOL0     H24691  10.603   8.675   4.639  0.7689 -0.4896 -0.0420
  179MOL0     H24692  10.432   8.782   4.498  0.7040 -0.6362 -0.9065
  179MOL0     H24693  10.529   8.918   4.470 -2.1180  0.9846 -0.5832
  179MOL0     H24694  10.447   8.872   4.763  0.3105  0.0906  0.0300
  179MOL0     H24695  10.495   9.017   4.681 -1.5341  0.6443 -2.3933
  179MOL0     H24696  10.303   9.003   4.520 -0.4614 -1.0398 -0.1607
  179MOL0     H24697  10.280   9.059   4.685  0.4980  1.9324 -2.7348
  179MOL0     H24698  10.054   8.686   4.668 -1.6242  2.0927  1.6968
  179MOL0     H24699  10.860   8.628   4.504  1.2384  0.6329 -1.2779
  179MOL0     H24700  11.050   8.512   4.438  1.4246  0.0586 -1.9745
  179MOL0     H24701  11.181   8.611   4.375  1.4360  1.3485  0.7440
  179MOL0     H24702  11.189   8.552   4.539  2.3094 -1.4634 -2.2659
  180MOL0     O24703   9.177  10.946  10.622 -0.3370 -0.4274 -0.0341
  180MOL0     C24704   9.283  10.948  10.564 -0.3801  0.4320  0.6123
  180MOL0     O24705   9.339  11.056  10.485  0.2144  0.1617  0.1629
  180MOL0     C24706   9.241  11.136  10.432  0.4154  0.0203  0.2198
  180MOL0     C24707   9.262  11.270  10.420 -0.2299 -0.3433 -0.2563
  180MOL0     C24708   9.177  11.356  10.354 -0.4734 -0.3587 -0.0573
  180MOL0     C24709   9.065  11.307  10.292  0.1540  0.3410  0.8593
  180MOL0     O24710   8.976  11.384  10.211 -0.7395  0.3244  0.5068
  180MOL0     C24711   8.970  11.348  10.072  0.3156  0.0932  0.2296
  180MOL0     C24712   8.818  11.357  10.040  0.2561  1.1819 -0.5149
  180MOL0     C24713   8.786  11.325   9.889  0.3209  0.2514 -0.4344
  180MOL0     C24714   8.874  11.212   9.821  0.1269  0.1320 -0.4404
  180MOL0     C24715   8.816  11.174   9.684  0.3843  0.2390  0.1437
  180MOL0     C24716   8.885  11.052   9.617  0.0313 -0.3707 -0.0242
  180MOL0     C24717   9.015  11.075   9.536 -0.9745  0.7959  0.7326
  180MOL0     C24718   9.061  10.936   9.468  0.1984 -0.3059  0.4963
  180MOL0     N24719   9.100  10.832   9.571  0.3567 -0.8578  0.1057
  180MOL0     C24720   9.074  10.701   9.544  0.1351 -0.4606  0.6819
  180MOL0     C24721   9.131  10.632   9.638 -0.4419  0.1938 -0.5631
  180MOL0     C24722   9.126  10.487   9.653 -0.6625  0.8157 -0.1248
  180MOL0     C24723   9.007  10.408   9.621  0.9031  0.0978  0.7753
  180MOL0     C24724   8.877  10.465   9.696  0.0582  0.3446  0.7809
  180MOL0     C24725   8.864  10.400   9.833 -0.5216  0.5817  0.6313
  180MOL0     O24726   8.843  10.259   9.813  0.2441 -0.9144 -0.3837
  180MOL0     C24727   8.836  10.179   9.927 -1.1611 -0.4640  0.5628
  180MOL0     C24728   8.816  10.046   9.912 -0.0178  0.0752  0.3315
  180MOL0     C24729   8.802   9.956  10.028  0.4654  0.2443  1.1290
  180MOL0     C24730   8.789   9.800  10.006  0.5375 -1.0144  0.0967
  180MOL0     C24731   8.807  10.012  10.161 -0.5182 -0.0759  0.7905
  180MOL0     C24732   8.783   9.928  10.285 -0.5320 -0.1993  0.4939
  180MOL0     O24733   8.672   9.853  10.274 -0.2105  0.4133  0.5746
  180MOL0     C24734   8.650   9.759  10.376  1.0489 -0.3544 -0.6503
  180MOL0     C24735   8.604   9.786  10.507 -0.3514  0.9336 -0.3672
  180MOL0     C24736   8.592   9.675  10.603  0.2632  0.1766  0.6129
  180MOL0     C24737   8.637   9.540  10.570  0.4519 -0.2135 -0.0581
  180MOL0     O24738   8.624   9.436  10.669 -0.3241 -0.3592  0.1615
  180MOL0     C24739   8.590   9.307  10.609  0.4989  0.2455 -0.2890
  180MOL0     C24740   8.534   9.200  10.709  0.7369  0.5046 -0.4334
  180MOL0     C24741   8.608   9.202  10.834 -0.2190  0.4050 -0.9411
  180MOL0     C24742   8.581   9.076  10.913 -0.6704 -0.3896 -0.0225
  180MOL0     C24743   8.654   9.068  11.050 -0.0262 -0.9339  0.3555
  180MOL0     C24744   8.553   9.080  11.157 -0.3281  0.5298  0.5943
  180MOL0     C24745   8.607   9.091  11.295  0.0787 -0.1264 -0.1585
  180MOL0     C24746   8.673   9.234  11.330 -0.3551  0.1879  0.3972
  180MOL0    Cl24747   8.693   9.253  11.505  0.1317  0.3457  0.1147
  180MOL0     C24748   8.676   9.518  10.439 -1.3624 -0.7521  0.3343
  180MOL0     C24749   8.681   9.622  10.344  0.5265 -0.5534  0.1732
  180MOL0     O24750   8.851   9.955  10.383 -0.4732  0.5513  0.1009
  180MOL0     C24751   8.829  10.149  10.169 -0.1705 -1.5396  0.1811
  180MOL0     C24752   8.845  10.233  10.056 -0.1223 -0.6206  0.3103
  180MOL0     N24753   9.169  10.726   9.735  0.0777 -1.5676 -0.2397
  180MOL0     N24754   9.169  10.849   9.685  0.8543  0.1777  0.3678
  180MOL0     C24755   9.047  11.169  10.293 -0.3650  0.3223 -0.8992
  180MOL0     C24756   9.129  11.079  10.364 -0.4212 -0.2583  0.0806
  180MOL0     C24757   9.362  10.816  10.568 -0.0458 -0.8644  0.0259
  180MOL0     C24758   9.460  10.793  10.463  1.0313 -0.0930  0.0911
  180MOL0     C24759   9.519  10.675  10.441  0.0988 -0.9386  0.1156
  180MOL0     C24760   9.506  10.575  10.537  0.1852 -1.3585  0.3312
  180MOL0     O24761   9.583  10.469  10.516 -0.3071  0.0908  0.3986
  180MOL0     C24762   9.600  10.358  10.601 -0.3527 -0.5370 -0.4487
  180MOL0     C24763   9.701  10.271  10.527  0.4594 -0.6098  0.7974
  180MOL0     C24764   9.843  10.315  10.547  0.2175 -0.2454  0.6403
  180MOL0     C24765   9.942  10.229  10.456 -0.4268 -0.8066 -0.3504
  180MOL0     C24766  10.077  10.230  10.520  0.4225  0.4448  0.3157
  180MOL0     C24767  10.191  10.221  10.559  0.3028 -0.2748 -0.0421
  180MOL0     C24768   9.429  10.602  10.648 -1.0226 -0.6901 -0.9296
  180MOL0     C24769   9.352  10.722  10.672  0.5234 -0.1430 -0.2202
  180MOL0     C24770   9.265  10.725  10.788  0.5683  0.0733  0.5223
  180MOL0     H24771   9.337  11.308  10.488  0.1255  0.3308 -1.0048
  180MOL0     H24772   9.186  11.461  10.378  0.6139 -0.0374 -1.7135
  180MOL0     H24773   9.013  11.248  10.057  0.8612 -0.1433  2.9410
  180MOL0     H24774   9.029  11.413  10.007  0.5418  0.2766  0.6169
  180MOL0     H24775   8.767  11.286  10.107  1.3272  0.0124 -0.9116
  180MOL0     H24776   8.776  11.457  10.055  2.5455  2.1327 -0.0169
  180MOL0     H24777   8.679  11.309   9.873  0.0557  2.9201 -2.1075
  180MOL0     H24778   8.804  11.414   9.828 -2.6481 -0.3242 -2.3384
  180MOL0     H24779   8.974  11.256   9.813 -1.0101  2.9925 -0.1286
  180MOL0     H24780   8.882  11.126   9.889 -1.8194  0.2432 -0.0212
  180MOL0     H24781   8.835  11.259   9.618  0.7448  0.6645  0.7774
  180MOL0     H24782   8.708  11.158   9.691  0.2173  0.2748 -1.8508
  180MOL0     H24783   8.905  10.984   9.700  3.3920  0.6226  0.1576
  180MOL0     H24784   8.810  11.011   9.550  0.7595  0.4714 -1.3977
  180MOL0     H24785   9.099  11.114   9.594 -0.3305 -0.2847  0.5537
  180MOL0     H24786   9.010  11.145   9.452  2.3349 -0.7647 -0.9635
  180MOL0     H24787   8.990  10.905   9.391  0.9438  0.9597 -0.7467
  180MOL0     H24788   9.156  10.952   9.416 -1.0147  4.0126 -0.8003
  180MOL0     H24789   9.013  10.645   9.473  0.8900 -1.7401  1.0148
  180MOL0     H24790   9.153  10.452   9.753 -0.1345  0.1885 -0.4751
  180MOL0     H24791   9.211  10.445   9.597 -0.7080  1.6775 -0.8645
  180MOL0     H24792   9.000  10.426   9.514  1.0735  2.2141  1.0754
  180MOL0     H24793   9.021  10.303   9.651 -1.7569  0.0368  2.1012
  180MOL0     H24794   8.886  10.574   9.700  0.9874  0.2939  0.1198
  180MOL0     H24795   8.785  10.456   9.638 -1.3320 -0.4490  2.9677
  180MOL0     H24796   8.960  10.425   9.880 -0.1095 -1.8679  1.2215
  180MOL0     H24797   8.781  10.443   9.890 -0.2063 -0.4193  1.8759
  180MOL0     H24798   8.800  10.006   9.812 -2.0903 -0.4578  0.8304
  180MOL0     H24799   8.861   9.777   9.926 -0.8936  1.3379 -2.0045
  180MOL0     H24800   8.686   9.786   9.972  0.1606  3.1995 -1.0462
  180MOL0     H24801   8.806   9.724  10.083  0.0584  1.1779  2.5262
  180MOL0     H24802   8.573   9.887  10.532 -1.0658  0.6647 -0.1176
  180MOL0     H24803   8.549   9.704  10.698 -0.8660  3.3888 -0.7140
  180MOL0     H24804   8.524   9.321  10.522  2.3805 -0.5305 -1.9174
  180MOL0     H24805   8.681   9.262  10.569  0.1989  0.7059 -1.5392
  180MOL0     H24806   8.433   9.230  10.735  1.3365  2.8293 -0.5352
  180MOL0     H24807   8.521   9.102  10.662 -1.5507 -0.3471  1.7697
  180MOL0     H24808   8.574   9.287  10.894  1.3382 -0.2375  0.9850
  180MOL0     H24809   8.715   9.211  10.814 -0.7071  1.3155 -3.4821
  180MOL0     H24810   8.611   8.988  10.855  3.5440  1.8842 -1.8190
  180MOL0     H24811   8.474   9.079  10.935 -0.2575 -0.9573  2.3785
  180MOL0     H24812   8.695   8.967  11.058 -0.5557 -1.2215 -0.3947
  180MOL0     H24813   8.737   9.138  11.064 -0.4659 -0.4917  0.7983
  180MOL0     H24814   8.488   8.993  11.144  1.5385 -0.9818  0.7504
  180MOL0     H24815   8.505   9.175  11.134  1.2308  1.6039  1.5544
  180MOL0     H24816   8.681   9.012  11.312  0.5994  0.4384  0.2503
  180MOL0     H24817   8.530   9.073  11.371 -0.6872  0.8651 -0.6653
  180MOL0     H24818   8.614   9.319  11.295 -1.8146 -0.5112  1.0638
  180MOL0     H24819   8.766   9.242  11.273 -0.0346  1.5478  1.0490
  180MOL0     H24820   8.715   9.422  10.405 -1.6719  0.6214 -4.6058
  180MOL0     H24821   8.704   9.604  10.240  1.2272  3.1125 -0.4441
  180MOL0     H24822   8.846  10.192  10.268 -0.7928 -0.3731 -0.1997
  180MOL0     H24823   8.865  10.338  10.073  5.8862 -1.7565  2.8341
  180MOL0     H24824   8.963  11.124  10.240 -1.1061  0.4655  0.1248
  180MOL0     H24825   9.119  10.971  10.362  0.1847 -0.3030 -1.0708
  180MOL0     H24826   9.474  10.876  10.395 -2.6585  3.0227  2.6672
  180MOL0     H24827   9.571  10.661  10.346 -2.2788  0.7369 -1.5395
  180MOL0     H24828   9.650  10.396  10.690 -0.4184 -0.2274 -0.5428
  180MOL0     H24829   9.503  10.312  10.625 -0.9728  0.9228 -0.0606
  180MOL0     H24830   9.667  10.260  10.424  0.2081 -2.7608  1.0465
  180MOL0     H24831   9.709  10.167  10.561  0.6978 -1.5692 -1.9420
  180MOL0     H24832   9.853  10.423  10.537 -1.0976 -0.2742 -1.6727
  180MOL0     H24833   9.880  10.290  10.647  0.0101 -3.2841  0.0653
  180MOL0     H24834   9.948  10.270  10.354 -1.7454  1.6417  0.4523
  180MOL0     H24835   9.914  10.125  10.437 -0.9853 -0.6388 -0.4966
  180MOL0     H24836  10.291  10.214  10.599 -0.4462 -0.8623  1.8046
  180MOL0     H24837   9.428  10.521  10.721 -0.3522 -0.5295 -0.7381
  180MOL0     H24838   9.165  10.742  10.746 -0.0455  1.2114  2.3392
  180MOL0     H24839   9.263  10.629  10.841 -0.6242  0.3072  0.9373
  180MOL0     H24840   9.295  10.812  10.846  2.4074 -0.5257  0.5083
  181MOL0     O24841   6.554   4.956   9.225  0.4693 -0.4873  0.1592
  181MOL0     C24842   6.557   5.022   9.328  0.2004 -0.5556 -0.0203
  181MOL0     O24843   6.557   5.165   9.334 -0.6041 -0.0902  0.1097
  181MOL0     C24844   6.635   5.236   9.241  0.9849  0.0332 -0.3806
  181MOL0     C24845   6.724   5.177   9.145  0.7807  0.5578 -0.6462
  181MOL0     C24846   6.777   5.266   9.045 -0.1909  0.0519  0.0625
  181MOL0     C24847   6.745   5.408   9.038 -0.5805  0.1430 -0.4787
  181MOL0     O24848   6.812   5.480   8.942 -0.6276  0.8462  0.0750
  181MOL0     C24849   6.724   5.567   8.868 -1.0131 -0.2974  0.1547
  181MOL0     C24850   6.754   5.718   8.895  0.6236  1.0954  0.1697
  181MOL0     C24851   6.877   5.761   8.814 -0.2685 -0.2660  0.3384
  181MOL0     C24852   7.006   5.700   8.865  0.6381  1.2441  0.3638
  181MOL0     C24853   7.134   5.788   8.842  0.8436 -0.3317  0.8482
  181MOL0     C24854   7.135   5.826   8.686 -0.0391 -0.2242  0.6549
  181MOL0     C24855   7.251   5.917   8.645 -0.3376 -0.2792  0.2967
  181MOL0     C24856   7.231   5.935   8.491  0.4019 -0.3041 -0.0314
  181MOL0     N24857   7.326   6.011   8.419  0.0236 -0.5138 -0.6003
  181MOL0     C24858   7.463   6.005   8.447 -0.3392 -0.2147  0.3144
  181MOL0     C24859   7.523   6.089   8.359  0.3282  0.5020  0.5535
  181MOL0     C24860   7.670   6.109   8.343  0.3632 -0.0522 -0.0478
  181MOL0     C24861   7.754   5.977   8.340  0.3470 -0.2921  0.0120
  181MOL0     C24862   7.905   6.002   8.327  1.0849  0.5791 -0.2556
  181MOL0     C24863   7.979   5.883   8.280 -0.0226  0.8926  0.2753
  181MOL0     O24864   8.123   5.870   8.311  0.4534 -0.2160  0.3378
  181MOL0     C24865   8.189   5.967   8.254 -0.5069 -0.2004  0.6673
  181MOL0     C24866   8.235   5.972   8.121 -0.1405 -0.0652  0.1975
  181MOL0     C24867   8.342   6.059   8.088  0.1174 -0.5268  0.2086
  181MOL0     C24868   8.388   6.053   7.934  0.6569 -0.3544 -0.9382
  181MOL0     C24869   8.388   6.158   8.179 -0.1863 -0.0308  0.0595
  181MOL0     C24870   8.498   6.243   8.154 -0.2125 -0.7822  1.1384
  181MOL0     O24871   8.528   6.278   8.024  0.0877 -0.6382  0.4393
  181MOL0     C24872   8.569   6.402   7.988  0.1007 -0.2666 -0.1276
  181MOL0     C24873   8.608   6.505   8.067 -0.3356 -0.1831 -0.9417
  181MOL0     C24874   8.635   6.630   8.026  0.1060  0.1040 -0.0059
  181MOL0     C24875   8.641   6.653   7.890 -0.2377 -0.1284 -0.4984
  181MOL0     O24876   8.674   6.768   7.822  0.3718 -0.4633 -0.3190
  181MOL0     C24877   8.764   6.858   7.880 -0.3872  0.3379 -0.5910
  181MOL0     C24878   8.747   6.995   7.815  0.7068  0.9671  0.1217
  181MOL0     C24879   8.612   7.061   7.823 -0.1675  0.8693  0.3289
  181MOL0     C24880   8.530   7.042   7.947  0.0256 -0.4559  0.1050
  181MOL0     C24881   8.381   7.077   7.930  0.0376  0.5736  0.3253
  181MOL0     C24882   8.333   7.223   7.944 -0.7711 -0.5200  0.5570
  181MOL0     C24883   8.184   7.229   7.891 -0.4784 -0.3618 -0.6221
  181MOL0     C24884   8.143   7.371   7.933 -0.0307  0.6501  0.4360
  181MOL0    Cl24885   8.167   7.483   7.792  0.6539  0.3233  0.3247
  181MOL0     C24886   8.621   6.544   7.804 -0.4559 -0.5754  0.0939
  181MOL0     C24887   8.582   6.423   7.852 -0.1815  0.0009 -0.4360
  181MOL0     O24888   8.568   6.274   8.251 -0.3268 -0.3260 -0.1389
  181MOL0     C24889   8.331   6.156   8.308 -0.2159 -0.7766  0.1070
  181MOL0     C24890   8.240   6.059   8.349 -0.5229  0.2288  0.3203
  181MOL0     N24891   7.423   6.136   8.275  0.1478 -0.6175  0.1109
  181MOL0     N24892   7.308   6.113   8.327  0.9922 -0.2442  0.1744
  181MOL0     C24893   6.662   5.457   9.141  0.1849 -1.1987  0.9232
  181MOL0     C24894   6.602   5.373   9.231  0.7732 -0.0309 -0.8368
  181MOL0     C24895   6.537   4.953   9.457 -0.3185  0.9508 -0.0347
  181MOL0     C24896   6.541   5.025   9.577 -0.4283 -0.5147 -0.4739
  181MOL0     C24897   6.524   4.978   9.704  0.4504  0.5848  0.0430
  181MOL0     C24898   6.505   4.840   9.718 -0.2996 -0.3603  1.0547
  181MOL0     O24899   6.506   4.773   9.836 -0.5427  1.0885 -0.6975
  181MOL0     C24900   6.519   4.850   9.963  1.0815  0.4023 -0.9367
  181MOL0     C24901   6.509   4.771  10.096  0.1621  0.7512  0.8029
  181MOL0     C24902   6.509   4.870  10.209  0.3004  0.6208  0.8324
  181MOL0     C24903   6.539   4.811  10.347  0.2031 -0.7513  0.5679
  181MOL0     C24904   6.681   4.779  10.360  0.0923 -0.6062  0.2003
  181MOL0     C24905   6.798   4.770  10.390  0.4024  1.2161  0.2874
  181MOL0     C24906   6.511   4.757   9.604 -0.3351  0.1396 -1.0404
  181MOL0     C24907   6.528   4.809   9.471  0.6136 -1.2460  0.1790
  181MOL0     C24908   6.513   4.713   9.360 -0.8060 -0.4179  0.0390
  181MOL0     H24909   6.758   5.074   9.151 -1.4406 -0.2374 -0.6824
  181MOL0     H24910   6.842   5.223   8.969  1.1508  0.7221  0.8010
  181MOL0     H24911   6.617   5.554   8.889 -1.7014  2.1000 -1.4196
  181MOL0     H24912   6.737   5.563   8.760  0.8465  3.3710  0.0988
  181MOL0     H24913   6.663   5.769   8.864 -1.0474 -1.6763  0.1348
  181MOL0     H24914   6.754   5.727   9.004 -2.4157 -1.6772  0.5652
  181MOL0     H24915   6.882   5.730   8.709  1.4580  0.9265  0.0212
  181MOL0     H24916   6.880   5.870   8.816 -1.9555 -0.1545 -1.0605
  181MOL0     H24917   7.003   5.683   8.973  1.8127  3.2855  0.7764
  181MOL0     H24918   7.026   5.606   8.814 -1.2594  1.1891 -0.3354
  181MOL0     H24919   7.227   5.735   8.866 -0.4372 -3.9805 -1.4148
  181MOL0     H24920   7.125   5.883   8.896 -0.2179  0.6518 -0.9547
  181MOL0     H24921   7.141   5.735   8.624  2.5478  0.8084 -0.7688
  181MOL0     H24922   7.044   5.878   8.657  0.3424 -1.5559 -3.6244
  181MOL0     H24923   7.343   5.861   8.663 -1.2895 -2.2539 -0.6895
  181MOL0     H24924   7.249   6.018   8.687 -4.5980  1.2318 -2.8046
  181MOL0     H24925   7.239   5.838   8.442  1.0055 -0.6208  0.6765
  181MOL0     H24926   7.135   5.982   8.469  2.5860  4.8791  0.0490
  181MOL0     H24927   7.517   5.959   8.529 -1.4876 -2.1610  0.0413
  181MOL0     H24928   7.698   6.171   8.429 -1.1672 -0.2889  0.6573
  181MOL0     H24929   7.688   6.164   8.249  3.0418 -0.7204 -0.0214
  181MOL0     H24930   7.725   5.907   8.419 -0.0301  0.1585  0.2724
  181MOL0     H24931   7.721   5.928   8.247 -0.3253 -0.9595  0.5859
  181MOL0     H24932   7.928   6.094   8.273 -0.5624  0.3330 -1.4346
  181MOL0     H24933   7.929   6.021   8.432  4.1902  0.8284 -0.9025
  181MOL0     H24934   7.928   5.790   8.308  0.1611 -0.3603 -3.0844
  181MOL0     H24935   7.972   5.875   8.171  0.1578 -0.0731  0.3300
  181MOL0     H24936   8.200   5.904   8.044  0.1009 -0.1132  0.1282
  181MOL0     H24937   8.494   6.029   7.921  0.2090 -2.7289 -0.6870
  181MOL0     H24938   8.370   6.144   7.876  1.1042 -1.1506 -2.3644
  181MOL0     H24939   8.341   5.975   7.873 -1.2166 -0.1923  0.2083
  181MOL0     H24940   8.590   6.503   8.174 -0.2376  1.2342 -0.8784
  181MOL0     H24941   8.649   6.709   8.100  0.2093 -2.3646  2.8075
  181MOL0     H24942   8.736   6.873   7.985 -0.1127  1.2828 -0.6385
  181MOL0     H24943   8.862   6.812   7.870 -0.8071 -0.6422 -0.3265
  181MOL0     H24944   8.804   7.070   7.870  2.3144 -0.7351  0.8890
  181MOL0     H24945   8.779   6.979   7.711  2.4103 -0.4321  0.7993
  181MOL0     H24946   8.552   7.026   7.738  2.8149 -0.8139 -1.2221
  181MOL0     H24947   8.626   7.166   7.793 -1.8574  1.2425  0.7023
  181MOL0     H24948   8.571   7.102   8.029  1.6900 -0.9202 -0.3342
  181MOL0     H24949   8.536   6.934   7.963  2.7299 -1.2736 -4.4125
  181MOL0     H24950   8.348   7.031   7.837 -0.5861  1.3017  0.1774
  181MOL0     H24951   8.324   7.028   8.010 -1.8984  0.0337 -1.3187
  181MOL0     H24952   8.395   7.297   7.894 -1.5253 -1.0697 -1.2598
  181MOL0     H24953   8.333   7.238   8.053  0.7088 -2.9728  0.9757
  181MOL0     H24954   8.120   7.157   7.943  3.2418 -0.7263  4.1806
  181MOL0     H24955   8.177   7.199   7.786 -1.3112 -3.0521  0.1186
  181MOL0     H24956   8.179   7.417   8.025 -1.2420  2.0196  0.2695
  181MOL0     H24957   8.035   7.373   7.953 -0.4117 -0.7328 -1.2930
  181MOL0     H24958   8.621   6.555   7.696 -0.0384 -0.8455  0.0631
  181MOL0     H24959   8.551   6.347   7.782  0.5077  1.0525 -1.9264
  181MOL0     H24960   8.356   6.233   8.380  1.7895 -0.7664 -0.5244
  181MOL0     H24961   8.204   6.059   8.451  1.1680 -0.5640  0.9549
  181MOL0     H24962   6.644   5.564   9.138 -0.9735 -1.3933 -1.3295
  181MOL0     H24963   6.535   5.407   9.309 -2.8076 -3.6729 -2.0348
  181MOL0     H24964   6.547   5.129   9.546 -0.1365 -0.2087  0.5796
  181MOL0     H24965   6.528   5.053   9.782  0.2994  2.9596 -2.1394
  181MOL0     H24966   6.617   4.900   9.961  2.1294 -1.5524 -0.4584
  181MOL0     H24967   6.442   4.927   9.962  1.3121  0.6529 -0.1891
  181MOL0     H24968   6.583   4.690  10.100  0.9059  1.1775 -2.0747
  181MOL0     H24969   6.416   4.713  10.100 -0.0332  1.0307  0.3889
  181MOL0     H24970   6.592   4.939  10.193  1.1560 -0.2467  1.4343
  181MOL0     H24971   6.408   4.910  10.224  0.6732  0.8324  3.1395
  181MOL0     H24972   6.477   4.728  10.384 -0.6849 -1.5816 -2.5136
  181MOL0     H24973   6.522   4.900  10.408 -0.4899  1.1022 -2.1455
  181MOL0     H24974   6.898   4.742  10.414 -0.0985 -1.3601 -0.3302
  181MOL0     H24975   6.514   4.649   9.614 -1.1388 -0.0486 -2.5425
  181MOL0     H24976   6.596   4.714   9.290 -1.5213 -1.2740 -0.8510
  181MOL0     H24977   6.510   4.608   9.389  0.9407 -1.4475 -3.0298
  181MOL0     H24978   6.412   4.720   9.318 -1.2200 -1.6357  0.7931
  182MOL0     O24979   7.001   1.637   7.709 -0.2107  0.4633 -0.2892
  182MOL0     C24980   7.010   1.674   7.591  0.9689 -0.5742  0.4481
  182MOL0     O24981   7.028   1.597   7.476 -0.2122  0.0930  1.0271
  182MOL0     C24982   7.040   1.462   7.487  0.7920  0.4577  0.0518
  182MOL0     C24983   6.929   1.373   7.489 -0.2020 -0.2000 -0.7059
  182MOL0     C24984   6.944   1.236   7.473  0.3077 -0.1303  0.3984
  182MOL0     C24985   7.075   1.176   7.460 -0.6843  0.2416 -0.3490
  182MOL0     O24986   7.102   1.040   7.440  0.3124 -0.0221 -0.4407
  182MOL0     C24987   6.985   0.968   7.385 -0.6613  0.7574 -0.2304
  182MOL0     C24988   7.035   0.850   7.304  0.2128 -0.3478 -0.5144
  182MOL0     C24989   7.126   0.760   7.403  0.3220  0.8142  1.0617
  182MOL0     C24990   7.094   0.695   7.540 -0.3932  0.7666  0.4403
  182MOL0     C24991   7.060   0.788   7.651 -0.6085  0.4829 -0.4141
  182MOL0     C24992   7.075   0.726   7.786  0.1970  0.7883  0.9052
  182MOL0     C24993   6.982   0.604   7.815 -0.2212 -0.2220 -0.2127
  182MOL0     C24994   7.031   0.471   7.760  0.2051  0.3029  0.1268
  182MOL0     N24995   7.165   0.439   7.806 -0.7165  0.2195 -0.2456
  182MOL0     C24996   7.230   0.457   7.931  0.0286 -0.5552  0.2208
  182MOL0     C24997   7.334   0.376   7.926 -0.2378  0.5811  0.0737
  182MOL0     C24998   7.442   0.390   8.027 -0.4075 -0.1071 -0.1896
  182MOL0     C24999   7.525   0.512   7.996  1.4581  0.3222 -0.0093
  182MOL0     C25000   7.583   0.532   7.855 -0.0202  0.3836  0.1107
  182MOL0     C25001   7.685   0.413   7.824  0.3161 -0.4388 -0.1681
  182MOL0     O25002   7.769   0.476   7.730  0.4184  0.2102 -0.0076
  182MOL0     C25003   7.859   0.575   7.765 -0.0240  0.1844 -0.2142
  182MOL0     C25004   7.918   0.644   7.659  0.0849  1.0388 -0.0884
  182MOL0     C25005   8.006   0.749   7.683 -0.6933  0.3591 -0.3794
  182MOL0     C25006   8.043   0.827   7.561 -0.7670  0.3305 -0.1064
  182MOL0     C25007   8.050   0.784   7.819  0.5448 -1.0796 -0.0764
  182MOL0     C25008   8.161   0.882   7.851  0.4206  0.6681 -0.6756
  182MOL0     O25009   8.198   0.906   7.982 -0.2240  0.8865  0.0694
  182MOL0     C25010   8.294   1.003   8.007 -0.4178 -0.1262  0.5038
  182MOL0     C25011   8.423   0.964   7.993 -0.7347 -0.5670  1.3879
  182MOL0     C25012   8.533   1.049   8.039  0.5195 -0.9106  0.1358
  182MOL0     C25013   8.508   1.177   8.098 -0.1595 -0.4932  1.2575
  182MOL0     O25014   8.613   1.259   8.150  0.1537 -0.1665  0.6909
  182MOL0     C25015   8.636   1.388   8.092 -0.0781  0.6711 -0.0413
  182MOL0     C25016   8.776   1.416   8.061 -0.6516  0.0495 -0.4334
  182MOL0     C25017   8.797   1.559   8.001  0.4918  0.5855 -0.2443
  182MOL0     C25018   8.950   1.559   7.951  1.0252 -0.0135 -1.2440
  182MOL0     C25019   8.987   1.713   7.915 -0.4658  0.1470 -1.1709
  182MOL0     C25020   9.014   1.779   8.055 -0.2696  0.7759  0.2720
  182MOL0     C25021   9.047   1.924   8.026 -0.7016 -0.4291 -0.4664
  182MOL0     C25022   9.127   1.973   8.148  0.3534  0.1934 -0.5556
  182MOL0    Cl25023   9.202   2.140   8.122 -0.1374 -0.0512 -0.1232
  182MOL0     C25024   8.369   1.222   8.094  0.4384  0.2601 -0.2917
  182MOL0     C25025   8.267   1.139   8.051  0.1825  0.4197  0.1567
  182MOL0     O25026   8.231   0.921   7.757 -0.1224 -0.6346  0.4958
  182MOL0     C25027   7.993   0.702   7.917 -0.0723  0.0597 -0.5861
  182MOL0     C25028   7.908   0.596   7.893 -0.5667  1.1860 -0.3184
  182MOL0     N25029   7.335   0.314   7.803 -0.0499 -0.3497  0.7900
  182MOL0     N25030   7.238   0.343   7.734 -0.1651  0.1260 -0.2581
  182MOL0     C25031   7.181   1.268   7.459  0.6777 -1.2009 -0.6822
  182MOL0     C25032   7.166   1.406   7.480 -0.6286  0.3645  0.6897
  182MOL0     C25033   6.996   1.817   7.562 -0.1047  0.1134  0.2343
  182MOL0     C25034   7.067   1.905   7.647  0.7650  0.1390 -0.2682
  182MOL0     C25035   7.050   2.047   7.630 -1.4700  0.4391  0.6712
  182MOL0     C25036   6.959   2.096   7.540  0.3575 -0.2222  0.2794
  182MOL0     O25037   6.952   2.234   7.523 -0.0221 -0.2981  0.3171
  182MOL0     C25038   6.934   2.289   7.390  0.4725  0.6892 -0.7560
  182MOL0     C25039   6.943   2.443   7.404 -0.1333  0.2685 -0.1687
  182MOL0     C25040   6.944   2.517   7.274 -0.0186 -0.4327 -0.2135
  182MOL0     C25041   6.809   2.520   7.191  0.0173  0.3327 -0.3653
  182MOL0     C25042   6.700   2.571   7.273 -0.2384  0.6637  0.3896
  182MOL0     C25043   6.609   2.603   7.351  0.7282  0.3356  0.3354
  182MOL0     C25044   6.884   2.009   7.458  0.6307  1.0991 -0.3282
  182MOL0     C25045   6.907   1.870   7.470  0.8028 -0.6643  0.8057
  182MOL0     C25046   6.822   1.787   7.370  0.2440 -0.0783 -0.3965
  182MOL0     H25047   6.826   1.405   7.477 -0.2786 -0.6406 -1.3202
  182MOL0     H25048   6.852   1.179   7.469 -0.5278  1.1882  0.0982
  182MOL0     H25049   6.935   1.023   7.305  1.0316  1.3322 -0.9334
  182MOL0     H25050   6.921   0.935   7.468  0.1038  1.2784  0.5796
  182MOL0     H25051   6.942   0.806   7.267  1.3905 -0.7620 -3.2025
  182MOL0     H25052   7.087   0.885   7.214  2.3408 -0.3005  0.6713
  182MOL0     H25053   7.159   0.687   7.328 -1.1652  2.0101 -0.8377
  182MOL0     H25054   7.221   0.814   7.410  0.5485  1.1703 -2.6833
  182MOL0     H25055   7.008   0.633   7.514 -1.5621  2.0229  1.1695
  182MOL0     H25056   7.168   0.619   7.566 -1.5030 -1.2441 -1.8274
  182MOL0     H25057   6.964   0.833   7.627  0.6077  3.3772 -0.2536
  182MOL0     H25058   7.135   0.868   7.648  1.9013 -1.6055  1.4866
  182MOL0     H25059   7.179   0.694   7.794  0.1388 -0.6484 -2.3732
  182MOL0     H25060   7.062   0.804   7.862  0.4370  2.1414 -0.3990
  182MOL0     H25061   6.883   0.631   7.776 -0.0092  0.6242 -0.1890
  182MOL0     H25062   6.963   0.605   7.923  0.0535 -0.7369 -0.1558
  182MOL0     H25063   6.965   0.397   7.806 -3.6611  2.9925 -0.5648
  182MOL0     H25064   7.026   0.463   7.651  0.4426 -0.7186  0.1805
  182MOL0     H25065   7.205   0.529   8.007 -2.2361  1.4701 -2.2617
  182MOL0     H25066   7.511   0.305   8.024  0.2519  0.4077  0.1465
  182MOL0     H25067   7.408   0.383   8.131 -0.2049 -2.8305 -0.2390
  182MOL0     H25068   7.467   0.599   8.028  0.0472  0.6357 -3.0376
  182MOL0     H25069   7.612   0.510   8.062  3.0335 -0.7214 -1.9845
  182MOL0     H25070   7.500   0.534   7.783  0.8927 -0.6888 -1.0065
  182MOL0     H25071   7.631   0.630   7.855 -4.2702  2.7416  1.5769
  182MOL0     H25072   7.741   0.378   7.912  1.4287 -2.0811 -1.4660
  182MOL0     H25073   7.624   0.336   7.775 -3.0545  3.1129 -2.0523
  182MOL0     H25074   7.887   0.612   7.560 -4.0406  2.6989  0.4565
  182MOL0     H25075   7.992   0.796   7.470  5.6350 -1.7304 -3.6880
  182MOL0     H25076   8.147   0.804   7.534 -0.2994  2.6530 -0.4596
  182MOL0     H25077   8.046   0.934   7.580 -0.2329  0.0123  1.8681
  182MOL0     H25078   8.442   0.870   7.942 -0.6001 -1.0846  2.3798
  182MOL0     H25079   8.637   1.021   8.023  1.7441  2.0852  2.0582
  182MOL0     H25080   8.580   1.396   7.998 -0.7121  1.9674  0.4187
  182MOL0     H25081   8.598   1.457   8.168 -0.2657  0.7552 -0.2110
  182MOL0     H25082   8.844   1.401   8.145  1.4532  3.1515 -1.4090
  182MOL0     H25083   8.816   1.346   7.986  0.2231  1.5614 -1.4398
  182MOL0     H25084   8.768   1.625   8.084 -0.5538 -0.5462  0.3239
  182MOL0     H25085   8.732   1.576   7.915  0.3205  1.1427 -0.0074
  182MOL0     H25086   8.957   1.503   7.857  0.4567 -2.7430  0.2155
  182MOL0     H25087   9.020   1.518   8.025 -0.3506 -0.3176 -0.0561
  182MOL0     H25088   9.085   1.719   7.866 -0.5766 -0.6440 -1.4912
  182MOL0     H25089   8.904   1.761   7.863 -2.9470 -2.6219 -0.0398
  182MOL0     H25090   9.092   1.722   8.106  0.8113  1.3331 -0.6915
  182MOL0     H25091   8.928   1.777   8.123  0.0269  2.0854  0.7152
  182MOL0     H25092   8.959   1.986   8.013  0.5787  0.9226 -3.9949
  182MOL0     H25093   9.100   1.942   7.932  1.2360  1.7478  0.9399
  182MOL0     H25094   9.196   1.896   8.182 -1.4093 -2.1403 -1.9878
  182MOL0     H25095   9.049   1.987   8.223 -0.6255  3.8370 -2.0333
  182MOL0     H25096   8.356   1.324   8.130 -0.4551 -1.4334  5.1792
  182MOL0     H25097   8.163   1.171   8.046 -0.6747 -1.7818  2.1526
  182MOL0     H25098   8.007   0.712   8.025 -0.7954 -3.1370 -0.0763
  182MOL0     H25099   7.879   0.535   7.978  1.4893  0.6447  0.0452
  182MOL0     H25100   7.282   1.239   7.431  0.8330 -0.0299 -1.4187
  182MOL0     H25101   7.249   1.475   7.461 -0.5107  0.1076  0.2556
  182MOL0     H25102   7.136   1.867   7.722  2.0105  1.9536 -0.4232
  182MOL0     H25103   7.121   2.104   7.688 -1.1501 -0.7923  1.5351
  182MOL0     H25104   7.010   2.252   7.320  1.0260  2.1839 -0.9901
  182MOL0     H25105   6.831   2.277   7.356 -1.3488  1.8382  3.7007
  182MOL0     H25106   7.038   2.475   7.448  0.7937 -1.1997 -1.0136
  182MOL0     H25107   6.861   2.489   7.459 -0.8316 -1.3957  0.2343
  182MOL0     H25108   6.972   2.621   7.295 -0.5370 -0.2030 -0.6118
  182MOL0     H25109   7.027   2.477   7.215  1.6273  1.3463  0.7558
  182MOL0     H25110   6.778   2.419   7.163  0.8795  0.3873 -1.6221
  182MOL0     H25111   6.827   2.576   7.099  2.5800  0.3321  0.0561
  182MOL0     H25112   6.530   2.643   7.411 -0.3847  1.0515 -1.5287
  182MOL0     H25113   6.814   2.049   7.385 -1.6644  1.7679  2.1029
  182MOL0     H25114   6.878   1.792   7.276  1.1910  4.4703  0.1739
  182MOL0     H25115   6.802   1.686   7.405  0.5728  0.1351  0.4457
  182MOL0     H25116   6.725   1.832   7.347 -1.4319 -3.7924 -1.1944
  183MOL0     O25117   9.734   2.554   7.058  0.4694 -0.0355  0.1891
  183MOL0     C25118   9.673   2.453   7.087  0.6005  0.2787 -0.3680
  183MOL0     O25119   9.677   2.328   7.011  0.0004  0.3273 -0.5061
  183MOL0     C25120   9.759   2.321   6.902 -0.8853  0.3521  0.3760
  183MOL0     C25121   9.889   2.362   6.905  0.0947  0.3711  0.3245
  183MOL0     C25122   9.973   2.334   6.794  0.0037 -0.1066 -0.4163
  183MOL0     C25123   9.920   2.280   6.673  0.4464 -0.5044  0.1066
  183MOL0     O25124   9.992   2.265   6.559 -1.1043 -0.4070  0.3182
  183MOL0     C25125  10.137   2.299   6.557 -0.2972 -0.7845 -0.0463
  183MOL0     C25126  10.218   2.187   6.619 -0.0277  0.2015  0.1217
  183MOL0     C25127  10.263   2.067   6.534 -0.5376 -0.4510 -0.0035
  183MOL0     C25128  10.321   2.083   6.392 -0.5632  0.4527 -0.0685
  183MOL0     C25129  10.368   1.946   6.344 -0.8459  0.4177  0.7709
  183MOL0     C25130  10.240   1.861   6.311  0.7330 -0.0456 -0.6062
  183MOL0     C25131  10.287   1.764   6.197 -0.5229  0.2760  0.1000
  183MOL0     C25132  10.196   1.651   6.151  0.2310 -0.0330 -0.6782
  183MOL0     N25133  10.170   1.550   6.259 -0.7776 -0.7000 -1.1882
  183MOL0     C25134  10.070   1.559   6.356 -0.1702  0.0641  0.8736
  183MOL0     C25135  10.079   1.442   6.428  0.2796 -0.5468 -0.5549
  183MOL0     C25136   9.999   1.385   6.536  1.1803 -0.4545  0.1211
  183MOL0     C25137   9.870   1.333   6.476  0.3017 -0.6090 -0.2057
  183MOL0     C25138   9.769   1.249   6.562  0.1299  0.2454 -0.5320
  183MOL0     C25139   9.666   1.176   6.474  0.1936 -0.8115 -0.0532
  183MOL0     O25140   9.577   1.102   6.562  0.1952 -0.2887 -0.4675
  183MOL0     C25141   9.449   1.154   6.577 -0.1535  0.1857 -0.1254
  183MOL0     C25142   9.399   1.168   6.711 -0.1667 -0.7612  0.4222
  183MOL0     C25143   9.270   1.213   6.729  0.6797 -0.6890 -0.1916
  183MOL0     C25144   9.216   1.242   6.869 -0.5702  0.3038  0.4320
  183MOL0     C25145   9.188   1.234   6.615 -0.2197 -0.1831 -0.0221
  183MOL0     C25146   9.046   1.278   6.619  0.2758 -0.4569 -1.0027
  183MOL0     O25147   9.012   1.386   6.698 -0.3536 -0.9577 -0.0585
  183MOL0     C25148   8.874   1.396   6.721 -0.6466  0.2930 -0.4458
  183MOL0     C25149   8.821   1.316   6.825 -0.4437 -0.0806  0.9119
  183MOL0     C25150   8.680   1.326   6.841 -0.1920 -0.1715  0.4365
  183MOL0     C25151   8.597   1.426   6.767 -0.2851  1.4360 -0.1812
  183MOL0     O25152   8.461   1.425   6.763 -0.3443 -0.3671 -0.0551
  183MOL0     C25153   8.400   1.323   6.852  0.3244  0.8666 -0.4732
  183MOL0     C25154   8.246   1.301   6.828 -0.9744  0.1039 -0.7736
  183MOL0     C25155   8.162   1.432   6.845 -0.1990  0.3842 -0.4383
  183MOL0     C25156   8.011   1.406   6.830 -0.4713  0.8541  1.0142
  183MOL0     C25157   7.977   1.340   6.693  0.9218  0.0445  0.1296
  183MOL0     C25158   7.822   1.326   6.683  0.3603 -0.2867 -0.3616
  183MOL0     C25159   7.772   1.244   6.562 -0.7096 -0.3931 -0.0685
  183MOL0     C25160   7.623   1.234   6.564 -0.2655 -0.5951  0.2146
  183MOL0    Cl25161   7.574   1.111   6.677 -0.6446 -0.1294 -0.2029
  183MOL0     C25162   8.662   1.499   6.679 -0.2931 -0.2111 -0.3652
  183MOL0     C25163   8.799   1.485   6.654  1.0923  0.8595  0.8881
  183MOL0     O25164   8.969   1.208   6.555 -0.1103 -0.0902  0.0360
  183MOL0     C25165   9.234   1.201   6.485  0.3482 -0.0955  0.1243
  183MOL0     C25166   9.366   1.175   6.467 -0.2097  0.1829 -0.2247
  183MOL0     N25167  10.194   1.372   6.386  0.6328 -0.2882  0.2319
  183MOL0     N25168  10.245   1.440   6.288 -0.5059 -0.8419 -1.0254
  183MOL0     C25169   9.785   2.243   6.674  0.1295 -0.0396  0.1096
  183MOL0     C25170   9.709   2.258   6.786 -0.3113  0.1744  0.0402
  183MOL0     C25171   9.576   2.458   7.209 -0.3352 -0.7753  0.5247
  183MOL0     C25172   9.459   2.381   7.205 -0.3920 -0.2671 -0.5486
  183MOL0     C25173   9.368   2.395   7.308 -1.1667 -0.5987  0.4132
  183MOL0     C25174   9.395   2.475   7.418  0.4317  0.0833 -1.0435
  183MOL0     O25175   9.307   2.466   7.522  0.2409  0.1205 -0.7071
  183MOL0     C25176   9.353   2.491   7.648 -0.4090  0.1562 -0.1739
  183MOL0     C25177   9.265   2.419   7.756  0.2748  0.2527  0.8846
  183MOL0     C25178   9.292   2.265   7.766 -0.1637 -0.0549  0.8274
  183MOL0     C25179   9.262   2.181   7.638  0.0255 -0.2478 -0.1608
  183MOL0     C25180   9.285   2.041   7.666 -0.2514  0.0345  0.6407
  183MOL0     C25181   9.317   1.919   7.682  0.4504  0.5037 -0.7556
  183MOL0     C25182   9.519   2.542   7.425 -0.1103 -0.2830  0.2692
  183MOL0     C25183   9.614   2.536   7.326 -0.5956  0.2966  0.8878
  183MOL0     C25184   9.753   2.589   7.341  0.1921 -0.1107 -0.6099
  183MOL0     H25185   9.935   2.415   6.987 -0.0470  1.5549 -0.3421
  183MOL0     H25186  10.077   2.364   6.801  0.5406 -1.7844 -0.7687
  183MOL0     H25187  10.165   2.394   6.603 -0.3224 -0.4368 -0.7274
  183MOL0     H25188  10.164   2.300   6.451  0.4066 -2.7811  0.0840
  183MOL0     H25189  10.307   2.229   6.667 -1.0794 -0.6170  2.9896
  183MOL0     H25190  10.177   2.152   6.714  1.7847 -2.4454  0.0089
  183MOL0     H25191  10.336   2.005   6.588 -1.6237 -1.1437  0.7157
  183MOL0     H25192  10.180   1.999   6.513  0.3607 -1.2574 -1.1274
  183MOL0     H25193  10.249   2.120   6.319  1.1972 -0.5956 -2.4435
  183MOL0     H25194  10.405   2.150   6.412 -0.2922 -0.5848  2.7054
  183MOL0     H25195  10.436   1.895   6.413  0.4734 -2.2820 -2.2598
  183MOL0     H25196  10.420   1.968   6.250 -2.8852  0.6944 -0.3781
  183MOL0     H25197  10.205   1.820   6.406 -0.0001  0.3713 -0.6938
  183MOL0     H25198  10.168   1.931   6.267 -0.3281 -0.2491  0.7373
  183MOL0     H25199  10.385   1.723   6.223 -1.4836 -1.6474  0.9749
  183MOL0     H25200  10.288   1.820   6.104 -0.7646 -3.1707 -2.1501
  183MOL0     H25201  10.098   1.679   6.111  0.4297 -1.8251 -2.6071
  183MOL0     H25202  10.249   1.600   6.070 -0.2652 -0.8997 -0.4771
  183MOL0     H25203   9.999   1.639   6.374  1.8739  3.0838 -2.9097
  183MOL0     H25204   9.985   1.468   6.607 -2.9609  1.0947 -2.1319
  183MOL0     H25205  10.062   1.303   6.571  1.0640 -0.2806  0.7565
  183MOL0     H25206   9.822   1.426   6.443 -0.0436 -0.8377 -0.3548
  183MOL0     H25207   9.891   1.292   6.377 -3.3284  0.5261 -1.6224
  183MOL0     H25208   9.827   1.177   6.622  1.6793  0.6461 -1.4885
  183MOL0     H25209   9.714   1.311   6.633 -1.4214 -2.5094  0.8641
  183MOL0     H25210   9.604   1.252   6.426  0.5143 -0.9176 -0.6460
  183MOL0     H25211   9.722   1.121   6.398  0.1423  0.9588 -1.4457
  183MOL0     H25212   9.447   1.152   6.807 -1.6279 -3.5649  0.7960
  183MOL0     H25213   9.114   1.203   6.861  0.2852 -1.7039 -4.2082
  183MOL0     H25214   9.220   1.351   6.876  0.4122  0.3391 -0.3583
  183MOL0     H25215   9.261   1.179   6.946 -1.6141 -4.0171 -2.1436
  183MOL0     H25216   8.894   1.247   6.866 -2.6143 -4.0334 -1.1599
  183MOL0     H25217   8.652   1.243   6.905 -0.5422  0.5530  1.2396
  183MOL0     H25218   8.442   1.224   6.833 -3.4214 -0.8204 -0.9708
  183MOL0     H25219   8.409   1.353   6.957  0.1512  0.3977 -0.3199
  183MOL0     H25220   8.236   1.267   6.725 -0.7376  0.2149 -0.8337
  183MOL0     H25221   8.218   1.222   6.898  0.4265  1.3050  1.2552
  183MOL0     H25222   8.195   1.500   6.766 -0.1834  0.7098 -0.1568
  183MOL0     H25223   8.188   1.485   6.937  0.5290 -0.4764 -0.1322
  183MOL0     H25224   7.970   1.507   6.823  1.9918  1.7966 -2.4780
  183MOL0     H25225   7.968   1.344   6.909 -2.0586 -3.1825 -2.6170
  183MOL0     H25226   8.020   1.395   6.608  1.1767 -2.4197 -1.4550
  183MOL0     H25227   8.021   1.240   6.698  2.2235  0.6362  5.0567
  183MOL0     H25228   7.774   1.424   6.686  1.8018  0.4581 -0.7323
  183MOL0     H25229   7.784   1.264   6.765 -0.7268 -0.0807 -0.6833
  183MOL0     H25230   7.817   1.146   6.576  3.6720  1.6925  2.6889
  183MOL0     H25231   7.798   1.283   6.463 -1.4481 -0.9970 -0.5116
  183MOL0     H25232   7.584   1.224   6.462  2.9884  0.6883 -1.3152
  183MOL0     H25233   7.582   1.331   6.593  1.0783  0.8315 -2.2856
  183MOL0     H25234   8.602   1.576   6.630 -2.4973 -2.1892 -0.9602
  183MOL0     H25235   8.841   1.541   6.571 -0.7774  0.8495 -0.1210
  183MOL0     H25236   9.170   1.224   6.400  0.0122  1.0313  0.6647
  183MOL0     H25237   9.396   1.167   6.363 -0.8825  1.0876 -0.4982
  183MOL0     H25238   9.747   2.206   6.579  0.7080 -0.7557  0.1536
  183MOL0     H25239   9.612   2.209   6.786  1.0588 -2.7956  0.3421
  183MOL0     H25240   9.441   2.307   7.128  1.3878 -0.7147 -0.5728
  183MOL0     H25241   9.277   2.335   7.313 -1.2114 -0.4595  1.4380
  183MOL0     H25242   9.457   2.454   7.651 -0.8355 -1.3393 -1.8426
  183MOL0     H25243   9.366   2.599   7.659  0.0183 -0.0394  1.5556
  183MOL0     H25244   9.159   2.432   7.736 -0.0241  1.0053  2.7574
  183MOL0     H25245   9.289   2.466   7.852  2.8796 -0.4935  0.6885
  183MOL0     H25246   9.397   2.245   7.791 -0.0056 -2.2875 -1.1736
  183MOL0     H25247   9.224   2.231   7.844 -2.0896 -0.4237 -0.9149
  183MOL0     H25248   9.321   2.202   7.549 -1.1771 -4.0071 -2.0703
  183MOL0     H25249   9.157   2.204   7.618  0.7234  1.3972 -2.2741
  183MOL0     H25250   9.335   1.817   7.708 -1.9476 -0.0839 -1.2230
  183MOL0     H25251   9.538   2.608   7.510  1.7489 -0.5560  0.1186
  183MOL0     H25252   9.765   2.672   7.271 -3.6035  2.2853  1.2251
  183MOL0     H25253   9.759   2.629   7.443 -2.9845 -1.8118  0.3824
  183MOL0     H25254   9.827   2.510   7.326  0.4193 -0.4675  1.8995
  184MOL0     O25255   9.029   1.567  10.199 -0.2587 -0.1409 -0.0233
  184MOL0     C25256   9.026   1.694  10.213 -0.8378  0.2555 -0.6667
  184MOL0     O25257   8.958   1.765  10.304 -0.4350  0.2082 -1.0580
  184MOL0     C25258   8.887   1.705  10.408 -0.0254  0.2951  0.7340
  184MOL0     C25259   8.919   1.579  10.470  0.4967 -1.3632 -0.0149
  184MOL0     C25260   8.837   1.532  10.576 -0.0325 -0.1659  0.7009
  184MOL0     C25261   8.732   1.612  10.615  0.7275  0.9168 -0.6442
  184MOL0     O25262   8.672   1.558  10.730  0.1674  0.3550 -0.6917
  184MOL0     C25263   8.530   1.566  10.736 -0.1569 -1.0334 -0.7124
  184MOL0     C25264   8.476   1.454  10.639  0.1097  0.5288 -0.4103
  184MOL0     C25265   8.533   1.312  10.671  0.7875 -0.3052  0.2874
  184MOL0     C25266   8.510   1.276  10.824 -0.7437  0.7563 -0.5005
  184MOL0     C25267   8.538   1.129  10.852 -0.3757 -0.3917 -0.2578
  184MOL0     C25268   8.514   1.019  10.746 -0.1757  0.5154 -0.3982
  184MOL0     C25269   8.525   0.877  10.807 -0.3472  0.4877 -0.0970
  184MOL0     C25270   8.412   0.852  10.898 -0.3364 -0.3781  0.3185
  184MOL0     N25271   8.279   0.887  10.840  0.0574 -0.0323  0.4874
  184MOL0     C25272   8.246   0.834  10.716  0.4174 -0.3219 -0.0324
  184MOL0     C25273   8.127   0.900  10.693  0.7255 -0.9461  0.5785
  184MOL0     C25274   8.030   0.890  10.586 -0.3758  0.0014  0.2692
  184MOL0     C25275   7.983   0.747  10.554 -0.3475 -0.1201  0.5212
  184MOL0     C25276   7.856   0.736  10.466  0.4753 -0.7496  0.3752
  184MOL0     C25277   7.845   0.619  10.382  0.5045  0.4095 -0.1775
  184MOL0     O25278   7.821   0.496  10.459  0.1957 -0.2093 -0.5466
  184MOL0     C25279   7.781   0.380  10.396  0.1949 -0.4436 -0.2260
  184MOL0     C25280   7.702   0.371  10.288  0.0696 -0.4079  1.0047
  184MOL0     C25281   7.691   0.244  10.227  0.2895 -0.1106  0.9386
  184MOL0     C25282   7.630   0.245  10.088  0.2854 -0.0421  0.6724
  184MOL0     C25283   7.730   0.122  10.289 -0.2441  0.6940 -0.0659
  184MOL0     C25284   7.724  -0.018  10.234  0.2411  0.5258  0.3684
  184MOL0     O25285   7.774  -0.113  10.315 -0.0545  0.0543 -0.4877
  184MOL0     C25286   7.739  -0.241  10.292  0.3808 -0.8173 -0.3022
  184MOL0     C25287   7.606  -0.281  10.308 -0.6160 -1.1447 -0.0277
  184MOL0     C25288   7.571  -0.414  10.273 -0.1141  0.6479  0.0495
  184MOL0     C25289   7.664  -0.505  10.212  0.5664  0.1733  0.1710
  184MOL0     O25290   7.642  -0.641  10.188  0.2665  0.5439  0.5138
  184MOL0     C25291   7.527  -0.699  10.255 -0.2381 -0.1290  0.3560
  184MOL0     C25292   7.551  -0.851  10.268  0.6389 -0.3371 -0.2801
  184MOL0     C25293   7.438  -0.910  10.355  0.5737  0.3399  0.2610
  184MOL0     C25294   7.462  -1.054  10.394  1.4710  1.3696 -0.5585
  184MOL0     C25295   7.369  -1.103  10.507 -0.0956  0.0368  0.2844
  184MOL0     C25296   7.408  -1.240  10.559 -0.6689 -0.3728  0.3431
  184MOL0     C25297   7.547  -1.232  10.634  0.3295  0.7426  0.7196
  184MOL0     C25298   7.574  -1.374  10.709 -0.9580  0.3001 -0.1840
  184MOL0    Cl25299   7.568  -1.516  10.603  0.1152 -0.0803  0.0708
  184MOL0     C25300   7.784  -0.462  10.187 -0.1884 -0.0278 -0.3941
  184MOL0     C25301   7.825  -0.334  10.233  0.1902 -1.2763 -0.9049
  184MOL0     O25302   7.646  -0.039  10.135  0.7432 -0.4197 -0.1899
  184MOL0     C25303   7.780   0.143  10.416 -0.3356 -0.0549 -0.4825
  184MOL0     C25304   7.806   0.265  10.474  0.3387 -0.5304  0.9281
  184MOL0     N25305   8.105   0.990  10.801 -0.2388  0.1976  0.4861
  184MOL0     N25306   8.185   0.974  10.895  0.5300  0.4632  0.9332
  184MOL0     C25307   8.695   1.730  10.551  0.2391  0.3794  0.1948
  184MOL0     C25308   8.766   1.769  10.446  0.4173 -0.1116  0.9384
  184MOL0     C25309   9.097   1.769  10.104  0.0046 -0.3881  0.8304
  184MOL0     C25310   9.149   1.893  10.133 -0.6612 -0.8076 -0.1780
  184MOL0     C25311   9.206   1.979  10.034  0.1674  0.8371  0.3929
  184MOL0     C25312   9.221   1.929   9.903  1.1402  0.0876 -0.0985
  184MOL0     O25313   9.283   2.008   9.812 -1.1517 -0.4043  0.1114
  184MOL0     C25314   9.280   2.149   9.817 -0.0820 -0.2866  0.2192
  184MOL0     C25315   9.324   2.214   9.681  0.1428 -0.8380 -0.2033
  184MOL0     C25316   9.344   2.366   9.685  0.2306  0.7339 -1.3493
  184MOL0     C25317   9.415   2.434   9.565  0.1525  0.5907 -0.3616
  184MOL0     C25318   9.453   2.563   9.596  0.3055  0.2511  0.1535
  184MOL0     C25319   9.490   2.680   9.605 -0.4395 -0.4017 -0.6625
  184MOL0     C25320   9.183   1.795   9.878 -0.4892 -0.7593  0.0181
  184MOL0     C25321   9.111   1.720   9.976 -0.1550 -0.2535 -0.2110
  184MOL0     C25322   9.028   1.611   9.926 -0.4456  0.9712 -0.0464
  184MOL0     H25323   9.014   1.533  10.448  1.1223 -0.3091  0.4132
  184MOL0     H25324   8.865   1.438  10.622 -2.5027 -1.1779  0.3013
  184MOL0     H25325   8.488   1.665  10.714 -0.2880 -1.2519 -1.4674
  184MOL0     H25326   8.508   1.561  10.843  2.9478 -0.0501  0.0750
  184MOL0     H25327   8.368   1.436  10.651  0.2438 -1.4689 -1.6952
  184MOL0     H25328   8.495   1.467  10.532  0.6808 -0.3628 -0.4313
  184MOL0     H25329   8.484   1.236  10.610 -0.2033 -0.3869  1.1441
  184MOL0     H25330   8.641   1.305  10.654  0.7935  0.8816 -0.3066
  184MOL0     H25331   8.562   1.346  10.890 -1.7677  0.7081  0.3915
  184MOL0     H25332   8.405   1.291  10.850 -1.0802 -2.4493  0.3450
  184MOL0     H25333   8.483   1.098  10.940  0.3567 -0.3234  0.2334
  184MOL0     H25334   8.644   1.127  10.881 -0.2182  4.8669  0.5628
  184MOL0     H25335   8.417   1.039  10.699  1.1120  0.6042 -3.2492
  184MOL0     H25336   8.585   1.040  10.665  0.6696  0.6608  0.3604
  184MOL0     H25337   8.625   0.861  10.848  1.1996  2.8430 -2.6035
  184MOL0     H25338   8.512   0.796  10.734  0.9575  1.4126 -1.4249
  184MOL0     H25339   8.403   0.745  10.923  1.0114 -0.4880  0.4320
  184MOL0     H25340   8.426   0.896  10.997 -2.0923 -2.1012  1.3956
  184MOL0     H25341   8.301   0.766  10.652  1.2709  2.6394 -2.7267
  184MOL0     H25342   8.075   0.928  10.494  0.8612  0.6448  1.1205
  184MOL0     H25343   7.947   0.953  10.618  0.3718  0.3253  1.6166
  184MOL0     H25344   8.072   0.702  10.509 -0.2060 -0.6135  1.2902
  184MOL0     H25345   7.956   0.697  10.647  2.4003 -0.9581  0.9616
  184MOL0     H25346   7.754   0.753  10.503  0.3582  1.7524 -0.8793
  184MOL0     H25347   7.883   0.815  10.395  1.1701  1.0288  2.5190
  184MOL0     H25348   7.767   0.642  10.309 -0.2166  0.6417  0.6396
  184MOL0     H25349   7.940   0.612  10.329  1.9883  0.5696  2.2881
  184MOL0     H25350   7.657   0.453  10.232 -1.5128 -1.8844  0.0184
  184MOL0     H25351   7.698   0.205  10.013 -0.8023  0.3489 -0.5576
  184MOL0     H25352   7.598   0.344  10.052  0.1567 -0.7876 -1.3803
  184MOL0     H25353   7.536   0.190  10.088 -2.0072  3.4306  2.7051
  184MOL0     H25354   7.526  -0.218  10.346 -0.9821 -2.0231  0.7085
  184MOL0     H25355   7.467  -0.440  10.293  0.5691  0.3309  3.8726
  184MOL0     H25356   7.519  -0.658  10.356  1.7946 -0.2012  0.5878
  184MOL0     H25357   7.434  -0.686  10.199 -0.1787 -0.4973  0.1715
  184MOL0     H25358   7.544  -0.899  10.170  2.6055 -0.3045 -0.4751
  184MOL0     H25359   7.653  -0.868  10.303  2.7493  1.2906 -4.7815
  184MOL0     H25360   7.341  -0.896  10.308  0.0553 -0.5889  1.0038
  184MOL0     H25361   7.441  -0.847  10.444 -2.5983  1.4444 -0.2948
  184MOL0     H25362   7.569  -1.060  10.419  1.7497 -2.2694 -2.0357
  184MOL0     H25363   7.445  -1.123  10.311 -1.9362 -0.7927  1.7030
  184MOL0     H25364   7.357  -1.022  10.580 -1.0006  3.5942 -3.4140
  184MOL0     H25365   7.271  -1.119  10.462  0.4412 -3.6784  0.1293
  184MOL0     H25366   7.418  -1.309  10.475  3.4235 -0.5675  0.8132
  184MOL0     H25367   7.335  -1.288  10.625 -1.8319  1.1027  0.1721
  184MOL0     H25368   7.552  -1.141  10.695  0.7525  1.6073 -0.5586
  184MOL0     H25369   7.630  -1.221  10.563 -0.2550  0.1231 -0.0707
  184MOL0     H25370   7.498  -1.388  10.786  0.2572 -0.0789  0.9959
  184MOL0     H25371   7.671  -1.383  10.759 -0.7430 -0.6292 -0.7335
  184MOL0     H25372   7.861  -0.512  10.127 -0.9922 -1.1317 -0.5366
  184MOL0     H25373   7.928  -0.301  10.218  0.0729 -1.2459 -1.7007
  184MOL0     H25374   7.803   0.063  10.486 -2.5429  1.6443  2.3722
  184MOL0     H25375   7.834   0.284  10.577  1.6386 -0.4183  0.5815
  184MOL0     H25376   8.611   1.792  10.581  1.3139  1.2881  1.4273
  184MOL0     H25377   8.727   1.861  10.404 -2.1327 -1.3022  0.5346
  184MOL0     H25378   9.135   1.922  10.236 -0.4074  2.2483 -0.8836
  184MOL0     H25379   9.248   2.074  10.067  0.1340  0.9866  0.0170
  184MOL0     H25380   9.183   2.189   9.846  0.7558  0.5974  1.9968
  184MOL0     H25381   9.349   2.182   9.896 -0.8404 -1.0373  1.2274
  184MOL0     H25382   9.240   2.192   9.614 -0.6251 -4.1654  1.6456
  184MOL0     H25383   9.413   2.159   9.649 -0.3637 -0.9413 -1.5266
  184MOL0     H25384   9.245   2.408   9.705  1.3032  3.4414 -1.2014
  184MOL0     H25385   9.405   2.400   9.769  0.1399 -0.7336 -0.6685
  184MOL0     H25386   9.354   2.430   9.475 -0.5952  2.9336 -0.0191
  184MOL0     H25387   9.512   2.385   9.552 -0.3720 -1.3507  2.2290
  184MOL0     H25388   9.503   2.785   9.617 -4.7285 -0.0455  5.4086
  184MOL0     H25389   9.188   1.764   9.774 -0.2908 -1.1276  0.1365
  184MOL0     H25390   9.038   1.612   9.817  0.8174 -2.1648 -0.0562
  184MOL0     H25391   9.046   1.509   9.961  0.6112 -0.1941 -3.5536
  184MOL0     H25392   8.921   1.626   9.943 -0.2145  0.7552  1.7786
  185MOL0     O25393   6.800   9.690  11.261  0.1763 -0.1977 -0.4560
  185MOL0     C25394   6.844   9.624  11.166 -0.2755  0.3472 -0.9016
  185MOL0     O25395   6.862   9.668  11.037  0.5303  0.1642 -0.2125
  185MOL0     C25396   6.839   9.796  10.988  0.5602 -0.1052  0.4239
  185MOL0     C25397   6.876   9.813  10.856  0.8492  0.0499  0.9752
  185MOL0     C25398   6.824   9.932  10.793  0.5744  0.2759  0.5771
  185MOL0     C25399   6.756  10.031  10.858  0.2528 -0.2005 -0.2014
  185MOL0     O25400   6.728  10.139  10.780  0.1402  0.0468 -0.5475
  185MOL0     C25401   6.653  10.249  10.836  0.2720 -0.9058  0.5758
  185MOL0     C25402   6.618  10.353  10.723  0.3229  0.1331 -0.6887
  185MOL0     C25403   6.554  10.482  10.773  0.1590 -0.8070  0.1116
  185MOL0     C25404   6.583  10.526  10.920  0.6040 -0.7894 -0.3391
  185MOL0     C25405   6.527  10.676  10.943  0.1498  0.0957 -0.1302
  185MOL0     C25406   6.620  10.783  10.883  0.1182  0.1656  0.7832
  185MOL0     C25407   6.590  10.917  10.958 -0.2621  1.1254 -0.5010
  185MOL0     C25408   6.636  11.042  10.890 -0.9279 -0.0513 -0.7409
  185MOL0     N25409   6.772  11.074  10.927  0.6588  0.0382 -1.3743
  185MOL0     C25410   6.813  11.162  11.021  0.4215 -0.1515  0.6558
  185MOL0     C25411   6.948  11.172  11.008  0.5734 -0.6316 -1.8931
  185MOL0     C25412   7.019  11.288  11.084 -0.3273  0.1729  0.4065
  185MOL0     C25413   7.159  11.234  11.120 -0.1005 -0.1839 -0.6696
  185MOL0     C25414   7.241  11.311  11.221  0.6059  0.0406  0.5224
  185MOL0     C25415   7.390  11.276  11.216  0.0114  0.4226  1.1904
  185MOL0     O25416   7.385  11.142  11.249 -0.6641  0.0186  0.6569
  185MOL0     C25417   7.506  11.083  11.253  0.2597  0.5766 -1.1789
  185MOL0     C25418   7.611  11.106  11.164  0.3402 -1.8612  0.2594
  185MOL0     C25419   7.725  11.027  11.170 -0.2215 -0.7737 -0.1643
  185MOL0     C25420   7.857  11.066  11.086  0.2594 -0.9118 -0.5286
  185MOL0     C25421   7.747  10.931  11.267 -0.1508  0.1893  0.2248
  185MOL0     C25422   7.865  10.843  11.262  0.3848  0.1901 -0.1033
  185MOL0     O25423   7.923  10.800  11.151 -0.2125  0.9765  0.1051
  185MOL0     C25424   8.061  10.781  11.136  0.3670  0.2879  0.3537
  185MOL0     C25425   8.166  10.758  11.229  0.4653 -0.2023  0.1657
  185MOL0     C25426   8.298  10.730  11.186 -1.0648 -0.6487 -0.2724
  185MOL0     C25427   8.330  10.730  11.049  0.0579  0.2865 -0.3835
  185MOL0     O25428   8.464  10.721  11.011  0.2353 -0.4097  0.1780
  185MOL0     C25429   8.505  10.688  10.875 -0.3318  0.1928 -0.2417
  185MOL0     C25430   8.633  10.604  10.889 -0.6671 -0.7625  0.6577
  185MOL0     C25431   8.744  10.695  10.934  0.2913 -0.5299  0.1489
  185MOL0     C25432   8.877  10.631  10.922  0.2711 -0.6070 -0.1594
  185MOL0     C25433   8.998  10.713  10.967  0.6600 -1.0472 -0.1071
  185MOL0     C25434   8.987  10.788  11.102 -0.8068 -0.8566 -0.1541
  185MOL0     C25435   9.099  10.894  11.133 -0.5699 -0.0948  0.5176
  185MOL0     C25436   9.128  10.896  11.284  0.0993 -0.5537  0.5405
  185MOL0    Cl25437   9.240  10.757  11.325  0.4651  0.0328 -0.3689
  185MOL0     C25438   8.226  10.751  10.957 -0.1306 -0.0731  0.0355
  185MOL0     C25439   8.095  10.772  11.002  0.4395 -0.4731 -0.1114
  185MOL0     O25440   7.907  10.814  11.371  0.0510  0.1378  0.2907
  185MOL0     C25441   7.649  10.908  11.362  0.5020  0.6951 -0.1975
  185MOL0     C25442   7.528  10.987  11.356 -0.3830  0.0461  0.4118
  185MOL0     N25443   6.997  11.078  10.924  0.6275  0.1583 -0.0100
  185MOL0     N25444   6.885  11.026  10.871  0.1132  0.1497  0.3250
  185MOL0     C25445   6.730  10.016  10.990 -0.2783  0.0890 -0.9142
  185MOL0     C25446   6.763   9.897  11.051 -0.3187  0.4134 -0.7906
  185MOL0     C25447   6.865   9.477  11.192  0.7254 -0.1915 -0.1495
  185MOL0     C25448   6.868   9.389  11.081 -0.1262  0.6475 -0.3875
  185MOL0     C25449   6.860   9.249  11.100 -0.2295  0.0317 -0.6802
  185MOL0     C25450   6.851   9.188  11.231 -0.1023 -0.1343 -0.1499
  185MOL0     O25451   6.850   9.052  11.222 -0.0216 -0.0530  0.5716
  185MOL0     C25452   6.931   8.982  11.317  1.0633 -0.1996 -0.0229
  185MOL0     C25453   6.946   8.838  11.257 -0.1864 -0.3682  0.6364
  185MOL0     C25454   7.064   8.826  11.168 -0.6621 -0.9088 -0.2962
  185MOL0     C25455   7.102   8.680  11.135 -0.5793 -0.1980  0.4178
  185MOL0     C25456   7.220   8.685  11.050 -0.4156  1.5583  0.9563
  185MOL0     C25457   7.315   8.671  10.971 -0.1852 -0.1803 -0.5318
  185MOL0     C25458   6.880   9.271  11.341  0.2550 -0.1348  1.2078
  185MOL0     C25459   6.887   9.412  11.316 -1.3190 -0.5396  0.8502
  185MOL0     C25460   6.919   9.489  11.437 -0.0392 -0.0796 -0.5239
  185MOL0     H25461   6.929   9.734  10.803  0.3022  0.4988 -0.2902
  185MOL0     H25462   6.853   9.952  10.690  0.5346  2.1711  0.9051
  185MOL0     H25463   6.705  10.296  10.920  2.7221 -0.6307 -1.0039
  185MOL0     H25464   6.556  10.213  10.870  0.0472 -0.8948 -0.0396
  185MOL0     H25465   6.709  10.375  10.667 -0.4738  0.4670 -1.8844
  185MOL0     H25466   6.544  10.306  10.658 -1.0895  0.9518  0.2734
  185MOL0     H25467   6.588  10.566  10.711 -0.7222  2.9603  4.1988
  185MOL0     H25468   6.447  10.474  10.751  0.0766 -0.9532  0.5574
  185MOL0     H25469   6.521  10.467  10.987  0.2693 -0.3834 -0.2862
  185MOL0     H25470   6.691  10.512  10.935  0.6141 -3.3431 -2.2557
  185MOL0     H25471   6.530  10.684  11.052 -1.0342 -1.9851  0.1032
  185MOL0     H25472   6.425  10.688  10.904  1.0994  1.2147 -2.4658
  185MOL0     H25473   6.727  10.760  10.891  0.3099  0.9797  0.6185
  185MOL0     H25474   6.598  10.785  10.776 -0.7533 -1.5551  0.8913
  185MOL0     H25475   6.635  10.907  11.057  2.1968 -2.2470 -1.7835
  185MOL0     H25476   6.482  10.930  10.967 -0.3742  0.3070 -0.6103
  185MOL0     H25477   6.637  11.036  10.781  0.9832 -1.3047 -0.7132
  185MOL0     H25478   6.556  11.109  10.921 -2.0317 -2.5947  2.5708
  185MOL0     H25479   6.745  11.229  11.074  1.3049  0.0546  1.5464
  185MOL0     H25480   6.968  11.308  11.179  2.3843 -1.4327  2.3323
  185MOL0     H25481   7.036  11.370  11.015  1.4154  0.0800  0.6706
  185MOL0     H25482   7.155  11.127  11.141  2.9765 -0.8618 -2.8859
  185MOL0     H25483   7.221  11.240  11.030  2.0900 -0.2315  0.7746
  185MOL0     H25484   7.223  11.418  11.211 -1.4017 -0.2617  0.5010
  185MOL0     H25485   7.192  11.290  11.317 -2.6656 -0.0761 -1.0415
  185MOL0     H25486   7.421  11.311  11.118 -1.1845 -0.2000  0.5583
  185MOL0     H25487   7.442  11.331  11.295  2.4568  1.1524 -0.7974
  185MOL0     H25488   7.595  11.181  11.088 -1.2582 -1.3004  1.1021
  185MOL0     H25489   7.883  10.985  11.017  1.4152  0.3032 -1.5791
  185MOL0     H25490   7.941  11.106  11.143 -1.8338  0.5685  1.6896
  185MOL0     H25491   7.818  11.150  11.027 -0.6898  0.0579  1.4159
  185MOL0     H25492   8.140  10.755  11.334 -0.2620  2.2494  0.1197
  185MOL0     H25493   8.370  10.712  11.265 -0.9271  1.9871  0.2880
  185MOL0     H25494   8.427  10.627  10.829 -0.4891  0.4444 -0.3108
  185MOL0     H25495   8.515  10.774  10.808 -0.3795  1.1472  0.9397
  185MOL0     H25496   8.623  10.530  10.968 -0.5167 -0.8793  0.5663
  185MOL0     H25497   8.655  10.563  10.790 -0.7190  0.1873  0.2427
  185MOL0     H25498   8.715  10.718  11.036 -2.1638 -0.1909 -0.5612
  185MOL0     H25499   8.754  10.782  10.868  0.3128 -2.3869 -2.4655
  185MOL0     H25500   8.895  10.608  10.817  1.1006  3.3568 -1.0385
  185MOL0     H25501   8.880  10.549  10.995 -2.0726  1.6668  2.7654
  185MOL0     H25502   9.083  10.643  10.971  1.5316 -0.0231 -0.3247
  185MOL0     H25503   9.009  10.786  10.886 -0.8729 -0.2987  0.3241
  185MOL0     H25504   8.974  10.711  11.180 -1.4565  0.0263  0.6217
  185MOL0     H25505   8.894  10.845  11.096 -0.9894 -1.3134 -2.9028
  185MOL0     H25506   9.059  10.992  11.106 -1.4172  0.1050  2.3401
  185MOL0     H25507   9.185  10.898  11.066 -0.4731 -0.9023  0.5850
  185MOL0     H25508   9.035  10.900  11.343 -0.0511  4.4009  0.4163
  185MOL0     H25509   9.179  10.990  11.306  0.7226 -0.5524 -0.8347
  185MOL0     H25510   8.254  10.769  10.854 -0.9461 -0.7352 -0.3079
  185MOL0     H25511   8.025  10.780  10.920 -0.2313 -1.9439  0.2869
  185MOL0     H25512   7.654  10.841  11.447 -7.0361  0.7424  0.9571
  185MOL0     H25513   7.449  10.973  11.429  2.3423 -1.7255  3.2419
  185MOL0     H25514   6.681  10.093  11.050  1.7515 -1.1519  2.6078
  185MOL0     H25515   6.718   9.880  11.148 -0.3557 -2.8215 -1.2662
  185MOL0     H25516   6.871   9.428  10.980  0.1569 -2.0344 -1.4875
  185MOL0     H25517   6.843   9.194  11.008 -1.9012 -0.1312 -0.3013
  185MOL0     H25518   7.026   9.031  11.340  0.8545 -0.5009  1.5959
  185MOL0     H25519   6.883   8.975  11.415  1.8187 -0.6948  0.3096
  185MOL0     H25520   6.850   8.810  11.213  0.5252 -1.6471 -0.1741
  185MOL0     H25521   6.963   8.770  11.341  2.0867 -1.0580 -0.3142
  185MOL0     H25522   7.030   8.866  11.072 -3.4696 -0.2027  0.8851
  185MOL0     H25523   7.148   8.880  11.215 -1.4837 -0.3011  0.5105
  185MOL0     H25524   7.025   8.628  11.077  0.1586 -1.1231  0.2395
  185MOL0     H25525   7.125   8.615  11.220 -0.0311 -2.2518 -1.2160
  185MOL0     H25526   7.378   8.644  10.889  1.0890  0.7631  0.1048
  185MOL0     H25527   6.887   9.220  11.437 -2.7112  0.5061  1.8496
  185MOL0     H25528   6.973   9.421  11.503 -1.4983 -0.2767  0.5236
  185MOL0     H25529   6.978   9.580  11.417 -0.7099  0.8299  1.3389
  185MOL0     H25530   6.820   9.505  11.480  0.2979  0.4430  0.0851
  186MOL0     O25531   6.195   7.681  10.631  0.1338  0.2929 -0.0592
  186MOL0     C25532   6.222   7.792  10.670  0.1041 -0.0773  0.3299
  186MOL0     O25533   6.354   7.846  10.653  0.2345  0.2030  0.5602
  186MOL0     C25534   6.428   7.763  10.576 -0.0467  0.1353  0.0391
  186MOL0     C25535   6.483   7.653  10.630 -0.6529 -0.3529 -0.7403
  186MOL0     C25536   6.558   7.571  10.544 -0.4529 -0.0395  0.1629
  186MOL0     C25537   6.581   7.604  10.410 -0.3189  1.0095  1.0769
  186MOL0     O25538   6.661   7.527  10.336 -0.0576 -0.1972 -0.3845
  186MOL0     C25539   6.801   7.573  10.340 -0.1066 -0.1169  0.1293
  186MOL0     C25540   6.864   7.556  10.198  0.5157 -0.7630 -0.5639
  186MOL0     C25541   6.988   7.654  10.174  0.9171 -0.0195 -0.2134
  186MOL0     C25542   6.974   7.801  10.200  0.7573  0.7079 -0.0371
  186MOL0     C25543   6.871   7.881  10.123 -0.2959  0.0754 -0.3610
  186MOL0     C25544   6.913   7.897   9.973  0.5960  0.4290  0.4325
  186MOL0     C25545   6.856   8.012   9.892 -0.0938 -0.0776  0.8843
  186MOL0     C25546   6.706   8.023   9.914 -1.2094  0.6885 -0.0862
  186MOL0     N25547   6.637   8.098   9.810  0.4125 -0.6319  0.0870
  186MOL0     C25548   6.670   8.102   9.678  0.6824  0.1601 -0.1162
  186MOL0     C25549   6.567   8.168   9.613  0.7806 -1.3248  0.0425
  186MOL0     C25550   6.551   8.212   9.476 -0.0525 -0.2320  0.3717
  186MOL0     C25551   6.446   8.125   9.413 -0.5243  0.0966  0.2241
  186MOL0     C25552   6.452   7.975   9.442  0.7907 -0.0434  0.3537
  186MOL0     C25553   6.343   7.888   9.376  0.3985  0.7419 -0.2563
  186MOL0     O25554   6.296   7.793   9.476 -0.4626 -0.2353  0.3998
  186MOL0     C25555   6.235   7.685   9.417  1.0049 -0.1651  0.4885
  186MOL0     C25556   6.221   7.567   9.495  0.7734 -0.8712 -0.6770
  186MOL0     C25557   6.158   7.456   9.445 -0.5224 -0.7060  0.4330
  186MOL0     C25558   6.173   7.324   9.514  0.2122 -0.2244 -0.3195
  186MOL0     C25559   6.096   7.471   9.312 -0.4494  0.8757 -0.2926
  186MOL0     C25560   6.056   7.358   9.234  0.2960  0.3370 -0.3105
  186MOL0     O25561   6.103   7.347   9.103 -0.1958  0.6812 -0.1854
  186MOL0     C25562   6.069   7.244   9.026  0.0302 -0.4436  0.3438
  186MOL0     C25563   6.008   7.275   8.896 -0.1927 -0.9242 -0.6613
  186MOL0     C25564   5.964   7.163   8.822 -0.1506  0.0050 -0.2237
  186MOL0     C25565   5.986   7.031   8.866 -0.6321  0.6387 -0.7136
  186MOL0     O25566   5.931   6.925   8.797 -1.0590  0.5632  0.3678
  186MOL0     C25567   6.030   6.828   8.761 -0.4808 -0.7927 -0.5845
  186MOL0     C25568   5.947   6.718   8.702 -0.4476  0.2740  0.1233
  186MOL0     C25569   6.022   6.622   8.596 -0.1480 -0.3564 -1.6178
  186MOL0     C25570   5.929   6.490   8.580  0.4095  0.0687  0.2632
  186MOL0     C25571   5.995   6.387   8.491  0.2057 -0.0001 -0.0926
  186MOL0     C25572   5.883   6.293   8.443 -0.6753 -0.1688  0.0533
  186MOL0     C25573   5.945   6.156   8.415  0.0636  0.4929 -0.9315
  186MOL0     C25574   6.063   6.149   8.309  0.7115  0.2838  0.1632
  186MOL0    Cl25575   5.993   6.175   8.145 -0.3989  0.0693 -0.0032
  186MOL0     C25576   6.054   7.006   8.985 -0.7664 -0.8003  0.2131
  186MOL0     C25577   6.082   7.109   9.067 -0.3984 -0.4052 -0.4099
  186MOL0     O25578   5.970   7.284   9.283 -0.2811 -0.1140 -0.3034
  186MOL0     C25579   6.112   7.591   9.236  0.2769  0.3352  0.6819
  186MOL0     C25580   6.177   7.700   9.296  0.2859  0.0041 -0.0126
  186MOL0     N25581   6.473   8.203   9.714  0.2213  0.1224  0.3540
  186MOL0     N25582   6.524   8.173   9.827  0.3589 -0.4298  1.1091
  186MOL0     C25583   6.526   7.722  10.366  0.2201  0.3696  0.5322
  186MOL0     C25584   6.442   7.797  10.451 -0.8560 -0.5772 -0.3550
  186MOL0     C25585   6.113   7.884  10.705 -0.2637  0.1466 -0.1631
  186MOL0     C25586   6.151   8.023  10.714 -0.2894  0.5062 -0.2351
  186MOL0     C25587   6.059   8.116  10.759 -0.0623  0.8908  0.1704
  186MOL0     C25588   5.931   8.085  10.790 -1.1625  0.7239  0.3686
  186MOL0     O25589   5.847   8.181  10.818  0.4290 -0.0079 -0.5770
  186MOL0     C25590   5.766   8.246  10.713 -0.8202  0.1011  0.3667
  186MOL0     C25591   5.651   8.314  10.784 -0.5867  0.7832  0.2647
  186MOL0     C25592   5.688   8.451  10.839 -0.1302  0.3590  0.8856
  186MOL0     C25593   5.582   8.504  10.939  0.1219 -0.1307  0.0208
  186MOL0     C25594   5.462   8.548  10.868 -0.0429  0.2401 -0.2687
  186MOL0     C25595   5.353   8.557  10.822  0.7301  0.1228 -0.2315
  186MOL0     C25596   5.895   7.950  10.791  0.3964 -0.9018  0.4181
  186MOL0     C25597   5.987   7.852  10.749 -0.4593  0.3809 -0.7135
  186MOL0     C25598   5.946   7.706  10.751  0.1438  0.0641  0.4552
  186MOL0     H25599   6.464   7.619  10.731  2.3736  0.2480  0.1287
  186MOL0     H25600   6.595   7.481  10.591 -3.3905  0.0453  2.9795
  186MOL0     H25601   6.844   7.505  10.414  0.2524  2.6970  2.6877
  186MOL0     H25602   6.807   7.671  10.388  1.2617  0.2135 -0.6603
  186MOL0     H25603   6.904   7.456  10.183  0.3901 -0.4987 -3.2231
  186MOL0     H25604   6.783   7.568  10.125  1.5907 -2.8280 -2.1949
  186MOL0     H25605   7.070   7.617  10.237 -0.4822 -1.5963  0.7740
  186MOL0     H25606   7.030   7.642  10.074 -1.9913 -0.8340 -1.4466
  186MOL0     H25607   6.965   7.821  10.307  2.2270  0.9274  0.0728
  186MOL0     H25608   7.077   7.831  10.178  1.9936 -1.8942  1.7360
  186MOL0     H25609   6.886   7.979  10.168  2.3057 -0.2185 -0.4305
  186MOL0     H25610   6.773   7.833  10.130  1.0270 -3.2420 -2.0149
  186MOL0     H25611   7.021   7.907   9.962  0.3365  1.2869 -1.9106
  186MOL0     H25612   6.886   7.803   9.924 -3.4001  2.0371 -0.8785
  186MOL0     H25613   6.877   8.002   9.785 -5.5826  1.2868 -0.6667
  186MOL0     H25614   6.907   8.104   9.923  1.1405 -1.5030  3.4179
  186MOL0     H25615   6.666   7.921   9.906  0.4348  0.0620 -0.9112
  186MOL0     H25616   6.685   8.062  10.014 -3.4962  0.4862 -0.4337
  186MOL0     H25617   6.755   8.061   9.624  1.3800  1.5519 -0.1021
  186MOL0     H25618   6.642   8.197   9.418 -0.0532 -1.9220  0.7644
  186MOL0     H25619   6.521   8.318   9.478 -2.2278 -0.7733  3.3365
  186MOL0     H25620   6.346   8.162   9.438 -0.2940  0.9429 -0.0508
  186MOL0     H25621   6.460   8.128   9.304  0.0643  1.8879  0.3194
  186MOL0     H25622   6.557   7.955   9.421  0.7484  2.3133 -2.8368
  186MOL0     H25623   6.435   7.976   9.551  1.0169  3.3184  0.4772
  186MOL0     H25624   6.254   7.946   9.349  0.1203 -0.4148 -1.9341
  186MOL0     H25625   6.390   7.843   9.288  0.8106 -0.6279  0.6421
  186MOL0     H25626   6.270   7.565   9.592  0.1244 -0.2569 -0.3238
  186MOL0     H25627   6.213   7.347   9.613 -1.1853 -0.4357  0.3267
  186MOL0     H25628   6.243   7.261   9.459  0.7564  0.9295 -0.9706
  186MOL0     H25629   6.076   7.274   9.524  0.6154 -0.6078  2.9811
  186MOL0     H25630   5.996   7.375   8.855 -2.4691 -0.9956 -0.2858
  186MOL0     H25631   5.919   7.180   8.725 -2.5582  0.7732  0.9475
  186MOL0     H25632   6.093   6.865   8.679  0.0168  1.5802  0.7628
  186MOL0     H25633   6.097   6.790   8.839 -0.1311 -2.4728 -1.6646
  186MOL0     H25634   5.904   6.661   8.785  0.5481  0.0521  0.5037
  186MOL0     H25635   5.871   6.766   8.640  0.9110  0.8614 -1.1386
  186MOL0     H25636   6.111   6.588   8.649 -0.6815  1.1424  0.3255
  186MOL0     H25637   6.036   6.675   8.502 -2.3806 -0.8765 -2.3085
  186MOL0     H25638   5.832   6.520   8.540  0.6277  1.6094  0.8087
  186MOL0     H25639   5.910   6.445   8.678  4.8548 -0.9408  0.8529
  186MOL0     H25640   6.052   6.419   8.403 -1.1693  0.0733 -0.9991
  186MOL0     H25641   6.063   6.324   8.549 -3.7366 -3.9752  0.8480
  186MOL0     H25642   5.837   6.335   8.353 -2.2114  2.1269  1.7909
  186MOL0     H25643   5.808   6.285   8.523 -0.0636 -0.9952  0.5659
  186MOL0     H25644   5.865   6.092   8.376 -0.7966  0.1006  1.3649
  186MOL0     H25645   5.978   6.116   8.511  0.1548  3.6018  0.4531
  186MOL0     H25646   6.122   6.058   8.320  0.7796 -0.0771 -2.5253
  186MOL0     H25647   6.133   6.232   8.328  1.2181 -0.0243 -0.3293
  186MOL0     H25648   6.069   6.904   9.020  0.5870 -0.1919  1.5043
  186MOL0     H25649   6.134   7.090   9.160 -1.6906  1.5425  0.7795
  186MOL0     H25650   6.080   7.596   9.132  0.3153  0.1703  0.6628
  186MOL0     H25651   6.180   7.788   9.232 -0.3401 -1.1815 -1.7503
  186MOL0     H25652   6.551   7.758  10.267  0.8221 -0.8759  0.2081
  186MOL0     H25653   6.393   7.883  10.406  0.1453  1.1510  1.6652
  186MOL0     H25654   6.247   8.062  10.683  0.3770 -0.5673  0.4081
  186MOL0     H25655   6.085   8.222  10.751 -1.1999  1.1682 -0.0204
  186MOL0     H25656   5.834   8.315  10.661  1.8710 -1.2354  1.8562
  186MOL0     H25657   5.730   8.181  10.633  3.3998 -1.0725 -0.8293
  186MOL0     H25658   5.626   8.253  10.871  4.2928 -0.0097  1.4456
  186MOL0     H25659   5.562   8.323  10.721 -0.0143  1.4207 -0.4828
  186MOL0     H25660   5.784   8.443  10.890  1.5101 -0.2642 -2.0373
  186MOL0     H25661   5.696   8.498  10.740  0.4650 -2.2753 -0.4034
  186MOL0     H25662   5.619   8.595  10.987 -0.1292  2.1276 -3.6916
  186MOL0     H25663   5.547   8.431  11.014  1.3752  1.1370  1.9439
  186MOL0     H25664   5.252   8.559  10.787  1.3037 -1.3572 -2.1135
  186MOL0     H25665   5.797   7.908  10.813  2.1364 -3.7930  3.3833
  186MOL0     H25666   5.850   7.695  10.802 -0.0743 -0.9847 -0.1504
  186MOL0     H25667   5.928   7.671  10.649 -1.6412 -0.5003  0.9302
  186MOL0     H25668   6.010   7.638  10.808 -0.6864 -0.0225  1.3223
  187MOL0     O25669   4.493   1.677   1.758 -0.6301 -0.0120 -0.0092
  187MOL0     C25670   4.551   1.627   1.662  0.2074 -0.2188 -0.3104
  187MOL0     O25671   4.688   1.627   1.644 -0.2703 -0.3523  0.2909
  187MOL0     C25672   4.753   1.645   1.763 -0.3217 -0.3775  0.0027
  187MOL0     C25673   4.782   1.769   1.815 -0.2215 -1.6558 -0.4074
  187MOL0     C25674   4.837   1.789   1.937 -0.4284 -0.3541 -0.1385
  187MOL0     C25675   4.855   1.670   2.019  0.4259 -0.8651  0.3542
  187MOL0     O25676   4.901   1.690   2.148 -0.0454 -0.3382  0.4593
  187MOL0     C25677   4.993   1.591   2.200 -0.9312  0.1316  0.2697
  187MOL0     C25678   5.026   1.644   2.338 -0.1129  0.3360  0.2212
  187MOL0     C25679   5.109   1.776   2.326  0.3820 -0.1421  0.9230
  187MOL0     C25680   5.170   1.829   2.457  0.1377 -0.3449 -0.1412
  187MOL0     C25681   5.218   1.977   2.443 -0.6784 -0.2750  0.5372
  187MOL0     C25682   5.357   1.978   2.388  0.1699 -0.4285  0.1814
  187MOL0     C25683   5.395   2.119   2.330 -0.0026  0.7334 -0.1483
  187MOL0     C25684   5.521   2.109   2.245 -0.3729  0.7806 -0.5373
  187MOL0     N25685   5.610   2.222   2.235 -0.2513 -0.1889 -0.2471
  187MOL0     C25686   5.587   2.336   2.164  0.5828  1.2604  0.2059
  187MOL0     C25687   5.697   2.404   2.152 -0.1471  0.6295 -0.2922
  187MOL0     C25688   5.721   2.504   2.043 -0.0136  0.4026 -0.6125
  187MOL0     C25689   5.855   2.581   2.076 -0.3056 -0.0387 -0.4199
  187MOL0     C25690   5.906   2.668   1.962  0.3782  0.3242  0.6641
  187MOL0     C25691   5.988   2.788   2.005  0.5393  0.0699  0.7456
  187MOL0     O25692   6.080   2.753   2.111  0.5863 -0.1970  0.3788
  187MOL0     C25693   6.192   2.838   2.127 -0.1400 -0.0391 -0.1085
  187MOL0     C25694   6.196   2.984   2.089  0.7644  0.7374  0.0138
  187MOL0     C25695   6.305   3.058   2.104 -0.1812 -0.1382 -0.5168
  187MOL0     C25696   6.293   3.199   2.061 -0.2549  0.1072  0.4173
  187MOL0     C25697   6.417   2.997   2.180  0.4516  0.7133  0.8622
  187MOL0     C25698   6.543   3.074   2.202 -0.6076 -0.8036  0.2392
  187MOL0     O25699   6.636   3.005   2.269 -0.7545  0.5167 -0.4147
  187MOL0     C25700   6.740   3.071   2.327  0.0829  0.0408 -0.0383
  187MOL0     C25701   6.750   3.048   2.466 -0.3053  0.1676 -0.2340
  187MOL0     C25702   6.864   3.099   2.523  0.0536  1.0621  0.0581
  187MOL0     C25703   6.965   3.165   2.444 -0.2204  0.4376 -0.4947
  187MOL0     O25704   7.081   3.211   2.509  0.0094 -0.0126 -0.3994
  187MOL0     C25705   7.207   3.256   2.458 -0.4212  1.4850 -0.3038
  187MOL0     C25706   7.320   3.244   2.566 -0.0175  0.3278  1.1710
  187MOL0     C25707   7.458   3.262   2.498  0.0398  0.1670  0.9211
  187MOL0     C25708   7.575   3.194   2.571 -0.2513 -0.0428 -0.8702
  187MOL0     C25709   7.696   3.210   2.485 -0.6404  0.0629  0.2821
  187MOL0     C25710   7.834   3.177   2.544  0.7295 -0.1682 -0.7648
  187MOL0     C25711   7.868   3.278   2.656  0.2904  0.3201 -0.0943
  187MOL0     C25712   8.002   3.260   2.722  0.7769  0.4971 -0.9815
  187MOL0    Cl25713   8.136   3.279   2.603  0.1354 -0.6295  0.0343
  187MOL0     C25714   6.952   3.179   2.308  0.4966 -0.1388  0.2616
  187MOL0     C25715   6.838   3.122   2.249 -0.2245 -1.0276  0.3276
  187MOL0     O25716   6.550   3.195   2.172  0.4776 -0.6161  0.2771
  187MOL0     C25717   6.415   2.862   2.213 -0.0678  1.1984 -0.7214
  187MOL0     C25718   6.304   2.783   2.185  0.0447 -0.7362 -0.2157
  187MOL0     N25719   5.791   2.341   2.237 -0.3479  0.2464 -0.2229
  187MOL0     N25720   5.736   2.232   2.290  0.7121 -1.2017  0.3049
  187MOL0     C25721   4.832   1.543   1.960 -0.8647 -0.7405  0.7405
  187MOL0     C25722   4.778   1.531   1.830 -0.7135 -0.8950 -0.2668
  187MOL0     C25723   4.464   1.577   1.551  0.1051  0.1612  0.9974
  187MOL0     C25724   4.527   1.590   1.421  0.2211  0.5106  0.1187
  187MOL0     C25725   4.441   1.570   1.308 -0.9830 -0.4249  0.6048
  187MOL0     C25726   4.313   1.518   1.316  0.4989  0.0261 -0.2104
  187MOL0     O25727   4.239   1.492   1.199 -0.1603 -0.8325  0.4563
  187MOL0     C25728   4.135   1.589   1.176 -0.4770 -0.4341 -0.1207
  187MOL0     C25729   4.170   1.690   1.069 -0.4468 -0.1708 -0.1771
  187MOL0     C25730   4.050   1.792   1.075 -0.5527 -0.8579  0.6111
  187MOL0     C25731   3.989   1.824   0.940  0.1835  0.7119 -0.1800
  187MOL0     C25732   3.872   1.917   0.953  1.3243 -1.0382  0.1356
  187MOL0     C25733   3.782   1.999   0.962  0.8633  0.1840 -0.2663
  187MOL0     C25734   4.267   1.477   1.446  0.3198  0.5949  0.8894
  187MOL0     C25735   4.340   1.512   1.561  0.5754  0.7763  0.0122
  187MOL0     C25736   4.293   1.438   1.689 -0.1744  0.7001  0.3079
  187MOL0     H25737   4.759   1.860   1.762 -0.9120 -1.1012  0.7971
  187MOL0     H25738   4.863   1.885   1.981  1.0326 -0.3982 -0.8602
  187MOL0     H25739   5.084   1.595   2.139 -1.6344 -0.8599 -0.8682
  187MOL0     H25740   4.948   1.492   2.204 -0.1150 -0.3633 -1.5296
  187MOL0     H25741   4.938   1.667   2.399 -2.1602  1.5293 -2.9429
  187MOL0     H25742   5.084   1.572   2.396  0.0984  2.4920  2.9046
  187MOL0     H25743   5.193   1.752   2.260  0.7581  3.7470 -0.3101
  187MOL0     H25744   5.048   1.847   2.269  2.9283 -0.9624 -3.2955
  187MOL0     H25745   5.096   1.830   2.538  0.9268 -2.0149  0.6394
  187MOL0     H25746   5.255   1.773   2.495  0.5799  0.9665  0.8993
  187MOL0     H25747   5.217   2.017   2.545 -2.4899 -0.2551  0.5512
  187MOL0     H25748   5.154   2.044   2.384  0.0917  1.3185  1.4428
  187MOL0     H25749   5.422   1.943   2.468 -0.6568  2.7918  2.4963
  187MOL0     H25750   5.362   1.906   2.305 -0.1084 -1.0760  0.7153
  187MOL0     H25751   5.412   2.185   2.416 -1.5190 -1.4767  1.9749
  187MOL0     H25752   5.309   2.151   2.271 -0.5780  1.3769  1.0082
  187MOL0     H25753   5.580   2.022   2.275 -0.5123  0.6577 -0.6193
  187MOL0     H25754   5.493   2.085   2.142  2.0572  2.5535 -1.7176
  187MOL0     H25755   5.494   2.378   2.129  0.7605  1.8429  0.4174
  187MOL0     H25756   5.645   2.581   2.027  0.2396  0.6337 -0.7191
  187MOL0     H25757   5.739   2.451   1.949  0.6048 -1.1858  0.3579
  187MOL0     H25758   5.840   2.645   2.164 -0.1363 -1.7763  0.9229
  187MOL0     H25759   5.942   2.518   2.100  0.3493  0.8500 -0.3797
  187MOL0     H25760   5.961   2.603   1.892 -0.7865 -2.6789  2.3310
  187MOL0     H25761   5.816   2.710   1.916  0.3574  1.8960  2.0917
  187MOL0     H25762   6.048   2.817   1.918 -1.5074  3.0889  0.2238
  187MOL0     H25763   5.924   2.876   2.015 -1.2650 -0.9877 -0.8540
  187MOL0     H25764   6.109   3.035   2.048  0.6770 -0.3018 -1.1564
  187MOL0     H25765   6.357   3.204   1.973  0.6106  0.1820  1.0397
  187MOL0     H25766   6.321   3.276   2.133 -4.3258 -0.1188  2.6012
  187MOL0     H25767   6.186   3.211   2.041 -0.4996  0.5157  1.8272
  187MOL0     H25768   6.664   3.006   2.518 -0.6995  1.9464  0.6447
  187MOL0     H25769   6.890   3.077   2.626  1.6564 -3.1143 -1.0304
  187MOL0     H25770   7.236   3.195   2.373 -3.2365  0.0171 -0.3262
  187MOL0     H25771   7.185   3.355   2.417 -0.9591  1.3274 -0.4085
  187MOL0     H25772   7.306   3.325   2.638 -1.7242 -0.3419  1.6595
  187MOL0     H25773   7.316   3.143   2.609  0.4806  0.7224  2.1730
  187MOL0     H25774   7.464   3.372   2.496 -2.8553  0.3814 -0.1634
  187MOL0     H25775   7.447   3.210   2.402  0.9550 -0.6565  1.2541
  187MOL0     H25776   7.564   3.085   2.576 -2.2668  0.0706 -1.7530
  187MOL0     H25777   7.594   3.252   2.662  2.8482  1.9792 -2.6154
  187MOL0     H25778   7.674   3.142   2.402 -2.7575 -1.3782  1.9070
  187MOL0     H25779   7.699   3.311   2.441  0.0191 -0.4384 -0.8767
  187MOL0     H25780   7.911   3.195   2.468  0.0323  2.4919 -0.9493
  187MOL0     H25781   7.833   3.074   2.579  3.5205  0.3363  1.1419
  187MOL0     H25782   7.786   3.291   2.727 -0.0020 -1.9518  0.0378
  187MOL0     H25783   7.883   3.374   2.606  0.8635 -1.2704 -3.2181
  187MOL0     H25784   8.018   3.167   2.776  0.3644  0.1859 -1.3871
  187MOL0     H25785   8.014   3.331   2.804 -1.1149  1.7252 -1.6737
  187MOL0     H25786   7.030   3.221   2.246 -0.3324 -1.9008 -2.1233
  187MOL0     H25787   6.825   3.123   2.141 -0.0769  0.4308  0.3062
  187MOL0     H25788   6.502   2.806   2.248 -0.3388  1.2879  0.1266
  187MOL0     H25789   6.314   2.679   2.211  1.9896 -0.3908  0.5906
  187MOL0     H25790   4.838   1.458   2.026 -0.5814 -1.6017 -0.3630
  187MOL0     H25791   4.743   1.438   1.785  2.9889 -2.0581 -1.0967
  187MOL0     H25792   4.626   1.633   1.411  0.9068 -0.2418  3.0086
  187MOL0     H25793   4.469   1.595   1.207  2.0267  1.7682  1.8395
  187MOL0     H25794   4.039   1.540   1.154 -1.2795  0.1695  1.8040
  187MOL0     H25795   4.113   1.648   1.265 -1.0344 -2.0630  0.8520
  187MOL0     H25796   4.165   1.644   0.970 -1.5039 -1.2053  0.3341
  187MOL0     H25797   4.271   1.727   1.089  0.7986 -2.7700 -1.3103
  187MOL0     H25798   3.961   1.754   1.126 -1.2675 -0.6644 -0.4750
  187MOL0     H25799   4.087   1.882   1.126  4.1881 -0.4033 -2.9057
  187MOL0     H25800   3.952   1.730   0.899 -1.0295  0.3227  1.6699
  187MOL0     H25801   4.060   1.869   0.870 -2.5159 -2.1051 -5.3485
  187MOL0     H25802   3.705   2.068   0.985  0.0960 -1.3761  2.2375
  187MOL0     H25803   4.176   1.419   1.456  1.4361 -1.3339  0.4232
  187MOL0     H25804   4.283   1.331   1.664 -3.4417  1.0638 -0.4679
  187MOL0     H25805   4.367   1.444   1.769  2.5210 -2.5368 -1.6455
  187MOL0     H25806   4.194   1.471   1.722 -0.6070  0.0453 -0.2773
  188MOL0     O25807   0.555   6.276   1.587 -0.5334 -0.5616  0.4589
  188MOL0     C25808   0.501   6.272   1.474  0.8425  0.7057 -1.1172
  188MOL0     O25809   0.554   6.218   1.362 -1.0155  0.6603 -0.5823
  188MOL0     C25810   0.688   6.175   1.345 -0.0999 -0.2019  0.3158
  188MOL0     C25811   0.721   6.114   1.220 -0.3630 -0.7855  0.0929
  188MOL0     C25812   0.849   6.061   1.194 -0.0183  0.5747  0.9197
  188MOL0     C25813   0.943   6.057   1.293 -0.2322 -0.1884  0.2595
  188MOL0     O25814   1.071   6.000   1.276 -0.3525 -0.2538  0.6253
  188MOL0     C25815   1.106   5.919   1.156 -0.1102 -0.7336  0.2564
  188MOL0     C25816   1.229   5.834   1.200 -1.1148  0.3761  0.5403
  188MOL0     C25817   1.311   5.812   1.068  0.4520  0.5664 -0.4705
  188MOL0     C25818   1.226   5.718   0.971 -0.4867 -0.9054 -0.3672
  188MOL0     C25819   1.322   5.666   0.856 -0.1781 -0.1485 -0.5202
  188MOL0     C25820   1.242   5.595   0.751 -1.2659  0.1774  0.0314
  188MOL0     C25821   1.341   5.553   0.644 -0.5787 -1.0271 -0.7429
  188MOL0     C25822   1.266   5.472   0.545  0.0269 -0.4767  0.7753
  188MOL0     N25823   1.368   5.411   0.458  0.1056  0.6101  0.5045
  188MOL0     C25824   1.410   5.277   0.476  0.1000  0.5508 -0.0047
  188MOL0     C25825   1.462   5.240   0.359  1.1756 -0.3462  0.6341
  188MOL0     C25826   1.523   5.102   0.334  1.2255 -0.4131 -0.2667
  188MOL0     C25827   1.670   5.094   0.358 -0.1283  0.2604  0.1844
  188MOL0     C25828   1.727   4.950   0.371 -0.1778  0.3738 -0.4268
  188MOL0     C25829   1.881   4.964   0.357  0.3544  0.0567 -0.5945
  188MOL0     O25830   1.937   5.006   0.484  0.3423 -0.2740  0.1789
  188MOL0     C25831   2.079   5.039   0.495  0.2184 -0.0805 -0.0438
  188MOL0     C25832   2.114   5.126   0.595  0.6001 -0.1159  0.7724
  188MOL0     C25833   2.252   5.156   0.612  0.7277 -0.2337 -0.0042
  188MOL0     C25834   2.282   5.242   0.730  0.5260 -0.3924  1.2988
  188MOL0     C25835   2.351   5.118   0.524  0.0157 -0.6126 -0.5012
  188MOL0     C25836   2.488   5.163   0.539 -1.6870 -0.4991 -0.5841
  188MOL0     O25837   2.516   5.289   0.596  0.2195 -0.2201 -0.2581
  188MOL0     C25838   2.635   5.331   0.638  0.1939 -0.3870  1.1807
  188MOL0     C25839   2.728   5.261   0.708 -0.4724  0.0870  0.9896
  188MOL0     C25840   2.848   5.328   0.746 -0.2870 -0.0069 -0.5451
  188MOL0     C25841   2.863   5.462   0.726  0.6785  0.6057 -0.2189
  188MOL0     O25842   2.972   5.522   0.770 -0.9209  0.1239  0.4358
  188MOL0     C25843   2.959   5.634   0.851  0.6503 -0.4264 -0.4668
  188MOL0     C25844   3.096   5.659   0.906  0.1085 -0.6619  0.2733
  188MOL0     C25845   3.108   5.792   0.970  0.1423  0.8756  0.0876
  188MOL0     C25846   3.004   5.793   1.090 -1.0262 -0.3483 -0.1708
  188MOL0     C25847   2.986   5.937   1.153  0.2341  0.7649  0.5021
  188MOL0     C25848   3.102   5.962   1.246  0.7754  0.0587  0.7686
  188MOL0     C25849   3.051   6.012   1.379  0.7577  0.1793 -0.6613
  188MOL0     C25850   2.972   5.906   1.476 -0.5344 -0.2915 -0.5542
  188MOL0    Cl25851   3.105   5.862   1.579 -0.4481  0.0516  0.1388
  188MOL0     C25852   2.771   5.534   0.658  0.1322  0.4474  0.3141
  188MOL0     C25853   2.651   5.469   0.605  0.0136  0.3852  0.0721
  188MOL0     O25854   2.577   5.088   0.497 -0.5893  0.9935 -0.8117
  188MOL0     C25855   2.315   5.030   0.428  0.6074  0.2113  0.4471
  188MOL0     C25856   2.179   4.992   0.408 -0.3611  0.0499 -0.3113
  188MOL0     N25857   1.428   5.335   0.259  0.1435  0.2143 -0.5480
  188MOL0     N25858   1.390   5.437   0.328  0.3303 -0.5848  1.1964
  188MOL0     C25859   0.908   6.106   1.419  0.3358 -0.6149 -0.3191
  188MOL0     C25860   0.784   6.169   1.443 -0.3456 -0.1618  0.2712
  188MOL0     C25861   0.357   6.327   1.477 -0.0126  0.3596 -0.2879
  188MOL0     C25862   0.290   6.337   1.599  0.3812  0.7901  0.4582
  188MOL0     C25863   0.159   6.368   1.608  0.7674  0.2339  1.2215
  188MOL0     C25864   0.092   6.391   1.490 -0.6902 -0.6738  0.0402
  188MOL0     O25865  -0.032   6.445   1.504 -0.1804  0.4155 -0.1000
  188MOL0     C25866  -0.140   6.343   1.490  0.1732 -0.2101 -0.6372
  188MOL0     C25867  -0.202   6.295   1.622  0.0842 -0.3713  0.6941
  188MOL0     C25868  -0.291   6.397   1.695 -0.5637  0.1454 -0.7414
  188MOL0     C25869  -0.427   6.429   1.617  0.3194 -0.5633  0.1554
  188MOL0     C25870  -0.499   6.317   1.565 -0.4012 -0.4323  1.4113
  188MOL0     C25871  -0.573   6.230   1.515 -0.2001  0.2540 -0.4943
  188MOL0     C25872   0.148   6.395   1.365  0.3447 -0.7427  0.1799
  188MOL0     C25873   0.279   6.347   1.359 -0.6219  0.7590  0.0717
  188MOL0     C25874   0.341   6.331   1.217  0.9605  0.9854  0.0445
  188MOL0     H25875   0.635   6.112   1.154  0.2256 -1.0326 -0.6715
  188MOL0     H25876   0.860   6.028   1.091 -0.7098  2.8538  0.0562
  188MOL0     H25877   1.125   5.993   1.077 -1.6158 -0.8545 -0.2705
  188MOL0     H25878   1.023   5.855   1.124 -1.5190  0.5152  1.2807
  188MOL0     H25879   1.295   5.890   1.266  0.3666 -1.8968  1.1084
  188MOL0     H25880   1.218   5.736   1.248  2.0411  1.1908  3.2127
  188MOL0     H25881   1.346   5.909   1.030 -2.3270  2.6822  1.8596
  188MOL0     H25882   1.406   5.760   1.083  2.0834  3.4090 -0.1666
  188MOL0     H25883   1.189   5.627   1.019 -0.1501  0.3443  2.4876
  188MOL0     H25884   1.146   5.773   0.920  0.7208  2.4011  0.9838
  188MOL0     H25885   1.401   5.601   0.896 -0.3821  0.1929  0.4756
  188MOL0     H25886   1.372   5.751   0.809  0.8881 -0.8101 -0.6162
  188MOL0     H25887   1.195   5.508   0.798 -1.9647  1.3677  1.6368
  188MOL0     H25888   1.174   5.670   0.708 -1.3692  0.5206  0.7717
  188MOL0     H25889   1.410   5.481   0.690  1.3673  0.4061 -1.3033
  188MOL0     H25890   1.397   5.643   0.616 -2.8573  0.3910 -0.9878
  188MOL0     H25891   1.198   5.393   0.580 -1.0704  0.3963  0.6907
  188MOL0     H25892   1.211   5.548   0.488 -0.0616  1.7934  3.6121
  188MOL0     H25893   1.410   5.216   0.565  1.6416 -1.0479 -1.0427
  188MOL0     H25894   1.504   5.064   0.233  3.3020 -0.0632 -0.8441
  188MOL0     H25895   1.470   5.029   0.395  2.0568 -0.6720  0.1579
  188MOL0     H25896   1.717   5.149   0.277  4.6668  2.7078  4.0868
  188MOL0     H25897   1.706   5.141   0.450  0.6048 -0.8537  0.4974
  188MOL0     H25898   1.712   4.913   0.472 -1.6370  1.2899 -0.2748
  188MOL0     H25899   1.694   4.887   0.288  1.7038 -0.5653 -0.5071
  188MOL0     H25900   1.916   4.864   0.329 -2.6215 -0.7876 -1.6911
  188MOL0     H25901   1.917   5.031   0.278  2.1399 -1.7383 -1.3990
  188MOL0     H25902   2.040   5.170   0.661  2.4133  1.4416  1.8881
  188MOL0     H25903   2.322   5.341   0.706 -5.0276  1.9286  0.0639
  188MOL0     H25904   2.360   5.191   0.787 -0.2689 -1.6345  1.3191
  188MOL0     H25905   2.200   5.268   0.797 -1.2222  0.5276 -1.0711
  188MOL0     H25906   2.710   5.159   0.738 -1.0860  0.3593  1.5805
  188MOL0     H25907   2.922   5.272   0.802  0.4070 -0.3643 -1.7692
  188MOL0     H25908   2.921   5.717   0.789 -0.8889 -1.3926 -0.8943
  188MOL0     H25909   2.890   5.611   0.933  3.4988  0.5783  2.4083
  188MOL0     H25910   3.112   5.572   0.971 -3.0391  0.4821  2.8141
  188MOL0     H25911   3.166   5.651   0.822 -0.6096  1.3587 -0.5977
  188MOL0     H25912   3.082   5.869   0.897 -0.6051 -0.1798 -0.7806
  188MOL0     H25913   3.214   5.797   0.997 -0.2006  0.7224  1.5617
  188MOL0     H25914   3.045   5.719   1.159  2.1365  0.6252 -0.8259
  188MOL0     H25915   2.902   5.765   1.062 -0.9095 -0.1337 -0.8292
  188MOL0     H25916   2.988   6.020   1.081 -3.4129  0.3366 -0.2683
  188MOL0     H25917   2.885   5.926   1.193 -0.3704 -0.2771 -1.1968
  188MOL0     H25918   3.167   6.042   1.209  1.1683  0.3482  2.0640
  188MOL0     H25919   3.163   5.877   1.276  1.7677  1.1127  1.8347
  188MOL0     H25920   2.972   6.085   1.358 -1.0392 -2.0291 -2.0186
  188MOL0     H25921   3.134   6.055   1.435  0.5229 -0.6658  0.3673
  188MOL0     H25922   2.925   5.826   1.417  0.1793 -0.1294 -1.3581
  188MOL0     H25923   2.894   5.963   1.528  1.7191 -0.2774  3.1301
  188MOL0     H25924   2.785   5.641   0.651  0.4897  0.2836 -3.3218
  188MOL0     H25925   2.570   5.525   0.560  0.5585  1.6435  0.5927
  188MOL0     H25926   2.395   4.999   0.361 -0.3460 -0.8758 -0.2475
  188MOL0     H25927   2.158   4.924   0.326  0.2134 -0.0490 -0.3823
  188MOL0     H25928   0.967   6.087   1.508  1.2102 -0.3969 -0.8423
  188MOL0     H25929   0.779   6.218   1.539  3.5275 -1.1000  1.1156
  188MOL0     H25930   0.353   6.322   1.686 -0.5798  1.1329  1.2232
  188MOL0     H25931   0.112   6.377   1.706 -1.5913 -0.4470  0.2342
  188MOL0     H25932  -0.223   6.389   1.436 -2.1772 -2.2278  1.0276
  188MOL0     H25933  -0.114   6.263   1.421  0.1225 -0.4906 -0.3356
  188MOL0     H25934  -0.125   6.267   1.694 -0.4602 -2.1627  0.6382
  188MOL0     H25935  -0.259   6.206   1.593  0.3350 -0.5291  0.6791
  188MOL0     H25936  -0.320   6.354   1.792 -0.2328 -1.1426 -1.1947
  188MOL0     H25937  -0.239   6.488   1.726  2.1435 -1.1861 -1.0802
  188MOL0     H25938  -0.413   6.508   1.544 -2.8294  2.7962  2.8035
  188MOL0     H25939  -0.502   6.479   1.680 -0.6800  0.6867 -1.9357
  188MOL0     H25940  -0.623   6.141   1.484 -0.9666  1.3618 -2.5928
  188MOL0     H25941   0.108   6.436   1.273  0.1490 -0.5417  0.3541
  188MOL0     H25942   0.312   6.228   1.195 -1.3783  1.2532  1.5445
  188MOL0     H25943   0.293   6.393   1.140 -0.9238  0.7043  0.9587
  188MOL0     H25944   0.449   6.350   1.212  1.5318 -2.0307 -1.3922
  189MOL0     O25945  11.213   0.816   6.808 -1.4624 -0.0859 -1.1628
  189MOL0     C25946  11.114   0.824   6.880 -0.4018 -0.9384  0.6718
  189MOL0     O25947  11.117   0.864   7.013  0.5040 -0.2851  0.1041
  189MOL0     C25948  11.239   0.897   7.063 -0.1055 -0.0716 -0.4070
  189MOL0     C25949  11.265   0.851   7.197 -0.0410  0.3253  0.1002
  189MOL0     C25950  11.385   0.895   7.260  0.2864  0.0850  0.0664
  189MOL0     C25951  11.467   0.990   7.197 -0.4576 -0.4811 -0.5080
  189MOL0     O25952  11.591   1.026   7.252  0.5256  0.6614  0.1729
  189MOL0     C25953  11.668   0.923   7.310 -0.5372 -0.3067 -0.0549
  189MOL0     C25954  11.812   0.965   7.324  0.2587  0.1687 -0.0745
  189MOL0     C25955  11.826   1.090   7.412 -0.4574  0.4379  0.2288
  189MOL0     C25956  11.853   1.038   7.560 -0.0857 -0.7999 -0.6773
  189MOL0     C25957  11.873   1.155   7.658 -0.2178 -0.3257 -0.0762
  189MOL0     C25958  11.934   1.106   7.786  0.4354 -0.2571 -1.1657
  189MOL0     C25959  11.934   1.220   7.887 -0.1927 -0.1006  0.9303
  189MOL0     C25960  12.001   1.171   8.017  1.1993  0.2706  0.8720
  189MOL0     N25961  11.902   1.087   8.092  0.3954 -0.5355  0.7284
  189MOL0     C25962  11.775   1.127   8.135 -0.3157 -0.4971  0.1647
  189MOL0     C25963  11.745   1.041   8.236  0.1659  0.2752  0.3259
  189MOL0     C25964  11.616   1.043   8.307 -0.7913  0.6747 -0.1379
  189MOL0     C25965  11.501   1.061   8.217 -0.1396 -1.0678  0.2251
  189MOL0     C25966  11.366   1.006   8.254 -0.3225  0.1218 -0.0323
  189MOL0     C25967  11.337   0.868   8.179  0.3613  0.6025  0.4161
  189MOL0     O25968  11.445   0.773   8.186 -0.0250 -0.1254 -0.6948
  189MOL0     C25969  11.441   0.661   8.105 -0.3252  0.3594  0.1388
  189MOL0     C25970  11.565   0.597   8.088 -0.4732  0.6561 -0.2394
  189MOL0     C25971  11.574   0.490   8.000  0.0363 -0.0040  0.5403
  189MOL0     C25972  11.711   0.431   7.994 -0.7666 -0.0036 -0.8377
  189MOL0     C25973  11.457   0.438   7.938  0.5055  0.5324  0.5848
  189MOL0     C25974  11.457   0.309   7.844  0.4606 -0.1917 -0.7309
  189MOL0     O25975  11.338   0.243   7.842  0.3761 -0.0089 -0.0691
  189MOL0     C25976  11.329   0.118   7.789 -0.4035 -0.1319  0.0278
  189MOL0     C25977  11.243   0.092   7.686 -0.7698 -0.6837  0.3275
  189MOL0     C25978  11.217  -0.038   7.640  0.2669 -0.2737 -0.5524
  189MOL0     C25979  11.290  -0.146   7.684 -0.2694  0.2632 -0.0202
  189MOL0     O25980  11.277  -0.269   7.630 -0.4560 -0.1979 -0.4487
  189MOL0     C25981  11.397  -0.320   7.566  0.2308 -0.6628 -0.5987
  189MOL0     C25982  11.360  -0.432   7.470  0.8197 -0.2944 -0.0902
  189MOL0     C25983  11.479  -0.456   7.368  0.2845 -0.9746 -0.4953
  189MOL0     C25984  11.454  -0.593   7.302 -0.0101 -0.0180 -0.5209
  189MOL0     C25985  11.547  -0.610   7.180 -0.0568  0.2504 -0.7542
  189MOL0     C25986  11.685  -0.664   7.232 -0.4301  1.3833  0.1055
  189MOL0     C25987  11.769  -0.715   7.115 -0.4132  0.6698  0.2800
  189MOL0     C25988  11.873  -0.820   7.160 -0.4862 -0.1625 -0.3290
  189MOL0    Cl25989  11.991  -0.830   7.031  0.1462  0.2713  0.3534
  189MOL0     C25990  11.382  -0.118   7.786 -0.0368  0.1422  1.2487
  189MOL0     C25991  11.405   0.009   7.832  0.1824 -0.6051 -0.6519
  189MOL0     O25992  11.554   0.276   7.783  0.6929  1.0805  0.2890
  189MOL0     C25993  11.333   0.500   7.964 -0.0389 -1.4649 -0.1837
  189MOL0     C25994  11.329   0.618   8.037 -0.2755 -0.6479  0.1173
  189MOL0     N25995  11.854   0.956   8.254 -1.0781  0.3475  0.3915
  189MOL0     N25996  11.940   0.979   8.155 -0.9375  0.3921 -1.1240
  189MOL0     C25997  11.434   1.039   7.074 -0.6238  0.6393  0.4475
  189MOL0     C25998  11.319   0.996   7.007 -0.5084 -0.0563 -0.2834
  189MOL0     C25999  10.978   0.804   6.814 -0.5101  0.0138 -0.9034
  189MOL0     C26000  10.868   0.840   6.889  0.6771  0.4692  0.3607
  189MOL0     C26001  10.744   0.838   6.824  0.6941  0.1341  1.1594
  189MOL0     C26002  10.719   0.784   6.699 -0.5279  0.1019  0.2353
  189MOL0     O26003  10.602   0.748   6.640  0.2337  0.3354  0.3368
  189MOL0     C26004  10.487   0.713   6.720  0.5802  0.1907  0.1630
  189MOL0     C26005  10.356   0.702   6.626  0.5524  0.6064  0.1412
  189MOL0     C26006  10.377   0.581   6.534  0.3117  0.6032 -0.3734
  189MOL0     C26007  10.457   0.586   6.407 -0.9279  0.2614  0.0863
  189MOL0     C26008  10.446   0.459   6.333  0.0532 -0.7875  0.1736
  189MOL0     C26009  10.437   0.349   6.273  0.0101 -0.3737  0.1532
  189MOL0     C26010  10.829   0.748   6.628 -0.3763 -0.0842  0.5139
  189MOL0     C26011  10.960   0.768   6.678  0.4338  0.1424 -0.1092
  189MOL0     C26012  11.081   0.744   6.585 -0.5113  0.1803  0.7500
  189MOL0     H26013  11.200   0.781   7.247  0.9281  0.1989  1.2332
  189MOL0     H26014  11.410   0.877   7.364 -2.2332  5.0290  1.8723
  189MOL0     H26015  11.677   0.836   7.244  4.6108  1.1019 -1.6239
  189MOL0     H26016  11.621   0.892   7.404 -2.5871 -1.2690 -1.3111
  189MOL0     H26017  11.860   0.878   7.369 -0.4591 -1.1262 -1.6876
  189MOL0     H26018  11.857   0.982   7.225  0.7601  0.3591  0.1840
  189MOL0     H26019  11.907   1.151   7.372 -0.2186  0.5662  0.8853
  189MOL0     H26020  11.737   1.150   7.395  0.0088  0.7880 -1.0440
  189MOL0     H26021  11.764   0.984   7.593 -0.7817  0.3090 -0.6874
  189MOL0     H26022  11.955   0.998   7.564  0.5701  0.5722 -2.3819
  189MOL0     H26023  11.780   1.211   7.675  0.5478  1.2917 -0.9652
  189MOL0     H26024  11.941   1.225   7.608 -0.0607  1.7461  2.7951
  189MOL0     H26025  11.881   1.023   7.834 -1.0442  2.5260  2.5264
  189MOL0     H26026  12.034   1.063   7.772  0.0147 -2.3822  1.5586
  189MOL0     H26027  11.834   1.258   7.910 -0.8718 -0.8745 -0.5494
  189MOL0     H26028  11.990   1.304   7.844  0.7129  0.9175  3.9149
  189MOL0     H26029  12.096   1.117   8.011 -0.7540 -3.5254  1.2306
  189MOL0     H26030  12.029   1.266   8.063  2.0999 -0.3986  1.7423
  189MOL0     H26031  11.714   1.209   8.099 -0.3133  0.0891  1.4480
  189MOL0     H26032  11.615   1.108   8.395 -0.9060 -0.9696  1.1470
  189MOL0     H26033  11.616   0.945   8.357  0.5871  2.1823  3.1181
  189MOL0     H26034  11.498   1.170   8.221  2.2674 -0.9817  1.1956
  189MOL0     H26035  11.528   1.056   8.111  0.8719  4.0030 -0.0134
  189MOL0     H26036  11.356   0.989   8.361  3.2633 -1.7245  0.1477
  189MOL0     H26037  11.287   1.077   8.225  0.1592  1.3464  1.5050
  189MOL0     H26038  11.250   0.821   8.227  1.0993 -1.8751 -0.5165
  189MOL0     H26039  11.313   0.881   8.073  1.1061  0.7304  0.2588
  189MOL0     H26040  11.657   0.640   8.127  0.6521 -1.1810 -0.7636
  189MOL0     H26041  11.730   0.348   8.061  0.3257 -0.6270 -1.8852
  189MOL0     H26042  11.789   0.502   8.022  0.4296 -0.7350 -2.1871
  189MOL0     H26043  11.724   0.402   7.889 -4.5788 -1.3734 -1.0937
  189MOL0     H26044  11.184   0.175   7.648  0.5413 -0.2481 -0.8753
  189MOL0     H26045  11.146  -0.065   7.563 -1.0105 -0.5512  0.6689
  189MOL0     H26046  11.443  -0.239   7.509  1.8045 -0.9827  0.1582
  189MOL0     H26047  11.473  -0.349   7.639  1.6297 -0.7592 -2.0398
  189MOL0     H26048  11.339  -0.524   7.526  0.8378 -1.4276 -1.8646
  189MOL0     H26049  11.274  -0.398   7.412  1.0486 -0.0278 -0.2765
  189MOL0     H26050  11.568  -0.453   7.431  0.0976 -1.2709 -0.2131
  189MOL0     H26051  11.470  -0.376   7.294  2.8933 -0.1165 -0.0016
  189MOL0     H26052  11.349  -0.590   7.271 -0.5205 -0.0066  1.1605
  189MOL0     H26053  11.473  -0.672   7.374  1.8651  0.2958 -0.6340
  189MOL0     H26054  11.511  -0.680   7.104  1.1508  0.8823 -1.9552
  189MOL0     H26055  11.573  -0.520   7.123 -0.2332 -0.5733 -2.1827
  189MOL0     H26056  11.673  -0.750   7.299  2.0171 -0.8254 -2.0409
  189MOL0     H26057  11.739  -0.597   7.299  1.4935 -0.7637  0.8221
  189MOL0     H26058  11.806  -0.623   7.070 -3.8029  0.9667 -2.2652
  189MOL0     H26059  11.709  -0.768   7.041  2.6894 -2.9130  0.0109
  189MOL0     H26060  11.821  -0.914   7.178  3.1926 -2.2789  0.4176
  189MOL0     H26061  11.922  -0.787   7.253 -0.4709 -0.0511 -0.3763
  189MOL0     H26062  11.440  -0.200   7.826  1.9820  1.0661  0.3612
  189MOL0     H26063  11.474   0.031   7.913 -0.8859 -1.4826  0.5333
  189MOL0     H26064  11.244   0.465   7.912 -0.2588  1.3137 -1.9452
  189MOL0     H26065  11.230   0.661   8.054 -0.1323 -1.2765  3.2217
  189MOL0     H26066  11.496   1.117   7.030 -1.5059  0.4444 -1.2406
  189MOL0     H26067  11.297   1.043   6.911 -2.6610  0.2723  0.3207
  189MOL0     H26068  10.871   0.870   6.993  1.6989 -0.1191  0.5224
  189MOL0     H26069  10.656   0.869   6.880  0.9000 -0.0322  1.5846
  189MOL0     H26070  10.505   0.625   6.782  2.8422  0.6600  0.2417
  189MOL0     H26071  10.471   0.789   6.797  1.2066  0.4196  0.0708
  189MOL0     H26072  10.323   0.796   6.581 -1.4497  0.8281  1.8993
  189MOL0     H26073  10.271   0.676   6.689  1.6011 -2.4864  0.4785
  189MOL0     H26074  10.423   0.494   6.583  1.8092  2.2983  1.3995
  189MOL0     H26075  10.277   0.546   6.506  1.8154 -0.8968 -4.6905
  189MOL0     H26076  10.560   0.602   6.439 -0.8028  0.0012 -0.1784
  189MOL0     H26077  10.420   0.668   6.344 -1.1750  0.3721  0.3718
  189MOL0     H26078  10.432   0.260   6.213 -0.5706 -0.0893 -0.2245
  189MOL0     H26079  10.813   0.711   6.527  1.1378  1.3832 -0.3009
  189MOL0     H26080  11.129   0.838   6.558 -0.4152 -0.3903 -1.2232
  189MOL0     H26081  11.152   0.678   6.636  0.1325  1.0269  0.9742
  189MOL0     H26082  11.058   0.699   6.488  0.7905 -0.5946  0.7734
  190MOL0     O26083   4.178   2.505   3.657 -0.4586 -1.0111  0.2194
  190MOL0     C26084   4.276   2.496   3.734 -0.7670 -0.2546  0.0350
  190MOL0     O26085   4.291   2.543   3.871  0.3482 -0.3274  0.0164
  190MOL0     C26086   4.188   2.613   3.927  0.3505 -0.2199  0.3504
  190MOL0     C26087   4.200   2.749   3.943  0.6720 -0.2558 -0.3409
  190MOL0     C26088   4.099   2.815   4.011 -0.5989  0.7350  0.1386
  190MOL0     C26089   3.982   2.753   4.046 -0.1899  0.2446 -0.0267
  190MOL0     O26090   3.885   2.831   4.094  1.1586  0.2942  1.0104
  190MOL0     C26091   3.832   2.943   4.013 -0.3291  0.5584  0.5386
  190MOL0     C26092   3.769   3.053   4.096  0.1592 -0.1882  0.0068
  190MOL0     C26093   3.751   3.181   4.009 -0.0378  0.2250 -0.4612
  190MOL0     C26094   3.698   3.304   4.085 -0.3430  0.2113  0.2754
  190MOL0     C26095   3.678   3.422   4.001  1.0073  0.0642 -0.0761
  190MOL0     C26096   3.610   3.524   4.086 -0.3410 -0.2804 -1.5147
  190MOL0     C26097   3.482   3.493   4.167 -0.7024  0.7244 -1.0147
  190MOL0     C26098   3.385   3.615   4.189  0.0974 -0.1472  0.3031
  190MOL0     N26099   3.445   3.679   4.299 -0.4685 -0.8242  0.0799
  190MOL0     C26100   3.513   3.796   4.283 -0.5112 -0.4543  1.3782
  190MOL0     C26101   3.494   3.869   4.393  0.1621 -1.2389 -1.4051
  190MOL0     C26102   3.552   4.011   4.420  0.5735 -0.0232  0.0234
  190MOL0     C26103   3.434   4.107   4.419 -0.4424 -0.3812 -0.1336
  190MOL0     C26104   3.486   4.249   4.428 -0.6230 -0.1406 -0.1104
  190MOL0     C26105   3.381   4.348   4.399  0.4548 -0.3944 -0.8389
  190MOL0     O26106   3.434   4.481   4.415  0.0373  0.3227  0.2926
  190MOL0     C26107   3.473   4.556   4.311  0.2806  0.0007  0.4456
  190MOL0     C26108   3.489   4.693   4.343  0.2911  0.4480 -0.0459
  190MOL0     C26109   3.512   4.777   4.240  0.0020  0.6586  0.2751
  190MOL0     C26110   3.544   4.924   4.272 -0.5988  0.9126  0.1970
  190MOL0     C26111   3.496   4.737   4.102 -0.0031 -0.2345  0.2534
  190MOL0     C26112   3.490   4.824   3.985 -0.6705  0.0709 -0.4296
  190MOL0     O26113   3.405   4.931   3.984  0.6268 -0.0268 -0.3931
  190MOL0     C26114   3.357   4.984   3.866  0.2513  0.2667 -0.0019
  190MOL0     C26115   3.323   4.908   3.753  0.7177 -0.4490  0.1466
  190MOL0     C26116   3.266   4.963   3.637  0.0818 -0.7181  0.1779
  190MOL0     C26117   3.236   5.104   3.637 -0.2280 -0.1029  0.7023
  190MOL0     O26118   3.180   5.156   3.523 -0.3350 -0.4643  0.5149
  190MOL0     C26119   3.140   5.078   3.405 -0.2941 -0.1429 -0.4942
  190MOL0     C26120   2.990   5.063   3.395 -0.5752 -0.1031 -0.4938
  190MOL0     C26121   2.931   5.031   3.535  0.7984  0.6737  0.9884
  190MOL0     C26122   2.777   5.014   3.520  1.0807 -0.2308 -0.1772
  190MOL0     C26123   2.713   4.994   3.657 -0.3023  0.4818 -0.0259
  190MOL0     C26124   2.755   5.101   3.754 -0.1103  0.4050 -1.4554
  190MOL0     C26125   2.654   5.128   3.869  0.1583 -0.3225 -0.0833
  190MOL0     C26126   2.627   4.993   3.928  1.1390 -0.6864 -0.6817
  190MOL0    Cl26127   2.776   4.929   4.007  0.0270 -0.0120 -0.1041
  190MOL0     C26128   3.258   5.178   3.751  0.0160 -0.6858  0.1988
  190MOL0     C26129   3.324   5.119   3.862  0.1168 -0.3235  0.0472
  190MOL0     O26130   3.558   4.791   3.889 -0.2920 -0.0258 -0.0266
  190MOL0     C26131   3.495   4.598   4.070  0.5725  0.0609  1.1021
  190MOL0     C26132   3.474   4.509   4.174 -0.9514 -0.0423 -0.0230
  190MOL0     N26133   3.424   3.788   4.485 -0.1753 -0.6054  0.6687
  190MOL0     N26134   3.385   3.683   4.428  0.4624  0.0939 -0.1476
  190MOL0     C26135   3.969   2.610   4.041 -0.6181 -0.0746 -0.1175
  190MOL0     C26136   4.074   2.545   3.975 -0.2408  1.0018 -1.0387
  190MOL0     C26137   4.411   2.435   3.688  0.2482 -1.6610  1.2733
  190MOL0     C26138   4.526   2.480   3.745 -0.6980  1.0984  0.2658
  190MOL0     C26139   4.651   2.429   3.724 -0.4703 -0.7235  0.5399
  190MOL0     C26140   4.671   2.323   3.624  0.3341 -0.5218  0.7179
  190MOL0     O26141   4.791   2.274   3.571 -0.7230  0.2343  0.9367
  190MOL0     C26142   4.915   2.296   3.642 -0.4622 -0.5226 -0.6683
  190MOL0     C26143   5.042   2.232   3.575 -0.4216 -0.2994  0.0320
  190MOL0     C26144   5.030   2.079   3.564 -0.0761 -0.3044  0.4073
  190MOL0     C26145   5.011   2.034   3.416 -0.1105  1.1030  0.6804
  190MOL0     C26146   5.136   2.008   3.360  0.2030 -0.9131 -1.0706
  190MOL0     C26147   5.234   1.992   3.290 -0.1400 -0.1563 -0.2966
  190MOL0     C26148   4.552   2.280   3.564 -0.2800  0.8101  0.0238
  190MOL0     C26149   4.429   2.333   3.583  1.1861  0.9867 -0.2540
  190MOL0     C26150   4.311   2.260   3.523  0.2505  0.6127  0.8161
  190MOL0     H26151   4.297   2.791   3.917  0.7596  0.0924  0.5199
  190MOL0     H26152   4.119   2.921   4.030 -1.3143  0.8242  0.4134
  190MOL0     H26153   3.762   2.895   3.945  2.1487 -3.4054  0.4886
  190MOL0     H26154   3.905   2.980   3.940 -2.4013  2.8904 -0.4866
  190MOL0     H26155   3.670   3.027   4.135 -0.8402  0.8299 -1.7146
  190MOL0     H26156   3.832   3.067   4.184  2.4638  1.7166 -1.8237
  190MOL0     H26157   3.846   3.213   3.966  1.8256 -1.6525  1.9723
  190MOL0     H26158   3.682   3.168   3.925 -0.3307 -0.2771 -0.1506
  190MOL0     H26159   3.609   3.265   4.136 -0.0509 -1.2465 -0.2611
  190MOL0     H26160   3.771   3.333   4.161 -0.0140  0.6602 -0.2135
  190MOL0     H26161   3.610   3.385   3.923 -1.7597  1.4272  1.5116
  190MOL0     H26162   3.767   3.468   3.956  1.0071 -0.5693 -0.7457
  190MOL0     H26163   3.681   3.558   4.163 -0.6077  0.0023 -1.3908
  190MOL0     H26164   3.598   3.606   4.015 -0.7377  0.3575 -0.7287
  190MOL0     H26165   3.510   3.442   4.259 -0.3217  1.3938 -0.7510
  190MOL0     H26166   3.427   3.435   4.092  1.0950 -1.1206 -0.9930
  190MOL0     H26167   3.383   3.672   4.095  3.3685 -1.6557 -0.8586
  190MOL0     H26168   3.283   3.600   4.226  0.1066  0.5585  0.6220
  190MOL0     H26169   3.576   3.810   4.195 -1.0878 -0.9913  0.8687
  190MOL0     H26170   3.621   4.032   4.338 -2.6884 -1.5518 -3.4135
  190MOL0     H26171   3.606   4.027   4.514 -3.2772 -2.2264  2.9334
  190MOL0     H26172   3.370   4.093   4.331 -1.4849 -0.2925  0.5810
  190MOL0     H26173   3.363   4.102   4.502  0.3737  0.0088  0.5964
  190MOL0     H26174   3.531   4.261   4.527 -0.7070 -2.5459  0.2670
  190MOL0     H26175   3.561   4.266   4.351 -3.2982  2.9757 -2.2987
  190MOL0     H26176   3.337   4.345   4.299  0.4348  0.7576 -0.8766
  190MOL0     H26177   3.303   4.327   4.473  0.2275 -1.4630 -1.3624
  190MOL0     H26178   3.480   4.737   4.442 -1.5792  0.6428 -0.2762
  190MOL0     H26179   3.496   4.993   4.203 -0.3914  0.8442 -0.0167
  190MOL0     H26180   3.653   4.931   4.265 -0.4031 -0.2940  1.5009
  190MOL0     H26181   3.513   4.955   4.372 -1.1443  3.0790 -0.5930
  190MOL0     H26182   3.349   4.803   3.742  0.4293 -0.7307  1.8241
  190MOL0     H26183   3.248   4.897   3.553  3.6546 -0.7604 -0.6868
  190MOL0     H26184   3.179   5.138   3.322 -1.2881  0.6438 -0.4124
  190MOL0     H26185   3.182   4.978   3.408  0.3236  0.1257  0.3218
  190MOL0     H26186   2.952   5.157   3.354  1.1824  1.1555  0.6074
  190MOL0     H26187   2.979   4.979   3.326  0.9840 -0.5325 -0.2722
  190MOL0     H26188   2.956   5.117   3.597  1.3422  1.0641  0.2557
  190MOL0     H26189   2.975   4.942   3.581 -3.7651 -2.5144 -0.2053
  190MOL0     H26190   2.743   4.939   3.448 -2.3263 -0.0232  1.0217
  190MOL0     H26191   2.722   5.103   3.489 -2.5200 -0.4589  4.4501
  190MOL0     H26192   2.606   5.015   3.644 -0.5157 -0.6919 -0.2884
  190MOL0     H26193   2.738   4.896   3.699 -2.9182 -0.5482 -0.6290
  190MOL0     H26194   2.764   5.199   3.706 -0.0359 -0.2288 -2.7803
  190MOL0     H26195   2.849   5.075   3.803 -0.1057  1.9201 -0.6208
  190MOL0     H26196   2.558   5.166   3.834 -0.8886 -2.0927  0.7424
  190MOL0     H26197   2.693   5.191   3.950  2.1235 -1.1865 -0.3004
  190MOL0     H26198   2.585   4.926   3.851  0.6159  2.9043 -3.8461
  190MOL0     H26199   2.548   5.006   4.002  0.5850 -1.1049 -1.1802
  190MOL0     H26200   3.237   5.285   3.761 -1.1380 -0.8828  0.0477
  190MOL0     H26201   3.350   5.174   3.952 -0.9884  1.7939 -0.8575
  190MOL0     H26202   3.488   4.557   3.970 -1.6340 -0.6482  1.4921
  190MOL0     H26203   3.468   4.402   4.156  0.6519 -0.5808  2.2197
  190MOL0     H26204   3.878   2.571   4.085 -0.1655 -0.5544  0.4324
  190MOL0     H26205   4.065   2.438   3.961  0.7500  1.0735 -2.2959
  190MOL0     H26206   4.513   2.545   3.831 -1.9289 -0.3369  1.2220
  190MOL0     H26207   4.740   2.472   3.767 -1.1163  3.1454 -1.5039
  190MOL0     H26208   4.927   2.402   3.665  0.0177 -0.3140 -1.8044
  190MOL0     H26209   4.906   2.251   3.741  1.9668 -0.8547 -0.5439
  190MOL0     H26210   5.132   2.256   3.632 -2.0191  0.7971  2.2233
  190MOL0     H26211   5.060   2.277   3.476  1.8845  1.5905  1.2092
  190MOL0     H26212   5.108   2.030   3.622  0.6271  0.9908  0.5811
  190MOL0     H26213   4.950   2.035   3.625 -0.6105 -0.0062 -0.0665
  190MOL0     H26214   4.948   2.094   3.349 -1.6355  1.1831  2.1256
  190MOL0     H26215   4.962   1.937   3.427  0.5464  0.6126 -0.5298
  190MOL0     H26216   5.323   1.971   3.235 -0.7128 -0.0777 -1.2738
  190MOL0     H26217   4.565   2.203   3.488 -3.5108  0.5694 -0.4477
  190MOL0     H26218   4.241   2.227   3.600 -0.1033 -0.6209 -0.0069
  190MOL0     H26219   4.274   2.332   3.448  3.3756  0.6424 -0.8736
  190MOL0     H26220   4.334   2.174   3.460  0.1885  1.4013 -0.3211
  191MOL0     O26221   8.336   7.568   8.178 -0.5509  1.0434  0.3233
  191MOL0     C26222   8.380   7.650   8.260 -0.5413  0.9894  0.3559
  191MOL0     O26223   8.427   7.611   8.381 -0.0110  0.3691 -0.4371
  191MOL0     C26224   8.387   7.496   8.444  0.0942  0.3390  0.4337
  191MOL0     C26225   8.292   7.401   8.407 -0.2584  0.3601  0.7533
  191MOL0     C26226   8.268   7.289   8.481 -0.4270 -0.4184 -0.8163
  191MOL0     C26227   8.321   7.268   8.604 -0.0270 -0.3052 -0.6846
  191MOL0     O26228   8.279   7.165   8.688 -0.3241  0.6888 -0.4842
  191MOL0     C26229   8.143   7.160   8.726  0.2945  0.0861 -0.2550
  191MOL0     C26230   8.069   7.033   8.680  0.3955 -0.0224  0.6931
  191MOL0     C26231   8.032   6.942   8.797 -0.4564  0.1901 -0.5093
  191MOL0     C26232   8.152   6.879   8.864 -1.1393  0.4058  0.1012
  191MOL0     C26233   8.133   6.826   9.002 -0.1523 -0.1366  0.6111
  191MOL0     C26234   8.096   6.678   8.998 -0.7211 -0.1680  0.2981
  191MOL0     C26235   8.039   6.619   9.129 -0.4648 -0.1456  0.6518
  191MOL0     C26236   8.143   6.608   9.228 -0.4406 -0.4506 -0.4270
  191MOL0     N26237   8.258   6.520   9.188  0.7638  0.3973 -0.2243
  191MOL0     C26238   8.380   6.567   9.158 -1.1282 -1.4248  0.0544
  191MOL0     C26239   8.458   6.467   9.113 -0.2751 -0.2072 -0.6923
  191MOL0     C26240   8.590   6.475   9.050 -0.0828 -0.3550 -0.3126
  191MOL0     C26241   8.593   6.435   8.902 -0.2439 -0.6699 -0.6585
  191MOL0     C26242   8.733   6.456   8.846 -0.0364 -0.4887  0.8859
  191MOL0     C26243   8.741   6.460   8.691 -0.0642  0.1066 -0.1861
  191MOL0     O26244   8.653   6.373   8.619  0.0441 -0.8217 -0.3605
  191MOL0     C26245   8.673   6.235   8.653 -0.1492  0.3658  0.6609
  191MOL0     C26246   8.788   6.171   8.704 -0.2367  0.7279  0.9184
  191MOL0     C26247   8.802   6.031   8.705 -0.2765  0.3996  0.5717
  191MOL0     C26248   8.932   5.968   8.733  0.3402 -0.3432 -0.0354
  191MOL0     C26249   8.688   5.946   8.667 -0.3283 -0.2769 -0.3917
  191MOL0     C26250   8.673   5.794   8.678  0.1605  0.8272 -0.2967
  191MOL0     O26251   8.733   5.741   8.786  0.2525  0.5560 -0.8444
  191MOL0     C26252   8.742   5.606   8.801  0.1057  0.0357 -0.1187
  191MOL0     C26253   8.633   5.521   8.787 -0.6094  0.0827 -0.0917
  191MOL0     C26254   8.648   5.381   8.819 -0.1048  0.3764 -0.4736
  191MOL0     C26255   8.773   5.332   8.863  1.5129 -0.3424  0.5264
  191MOL0     O26256   8.815   5.200   8.864 -0.3794  0.4241  0.1879
  191MOL0     C26257   8.728   5.107   8.929 -0.7114  1.1550 -0.2115
  191MOL0     C26258   8.809   5.014   9.014 -0.0001  0.1801 -0.4120
  191MOL0     C26259   8.815   4.875   8.960 -0.3896 -1.0479 -0.4283
  191MOL0     C26260   8.914   4.876   8.844  0.5057  0.7915  0.0316
  191MOL0     C26261   8.911   4.731   8.786  0.5644 -0.0478  0.1140
  191MOL0     C26262   8.997   4.733   8.662 -0.6258  0.4582  0.8048
  191MOL0     C26263   9.146   4.722   8.696  0.4286  0.0465 -0.7964
  191MOL0     C26264   9.233   4.785   8.586 -0.0254 -0.0686  0.3894
  191MOL0    Cl26265   9.248   4.657   8.461  0.0416  0.0283 -0.0106
  191MOL0     C26266   8.876   5.417   8.886 -1.1155  0.1357 -0.1029
  191MOL0     C26267   8.860   5.555   8.857  0.1235 -0.0798 -0.6328
  191MOL0     O26268   8.643   5.731   8.574 -0.1991 -0.0750  0.0804
  191MOL0     C26269   8.581   6.004   8.607  0.1949 -0.1673  0.3253
  191MOL0     C26270   8.576   6.142   8.599 -0.8826 -0.0532  0.2243
  191MOL0     N26271   8.382   6.357   9.114 -0.4350  0.5047 -0.2567
  191MOL0     N26272   8.268   6.389   9.157  0.0136  0.6052 -0.0812
  191MOL0     C26273   8.418   7.359   8.654 -0.6487 -0.5283 -0.8439
  191MOL0     C26274   8.451   7.468   8.567 -0.6266  0.6644 -0.3636
  191MOL0     C26275   8.397   7.795   8.223  0.0544  0.0534 -0.2233
  191MOL0     C26276   8.462   7.873   8.318 -0.1694  0.5345 -0.5427
  191MOL0     C26277   8.494   8.007   8.281  0.2588 -0.2121  0.1558
  191MOL0     C26278   8.461   8.066   8.158  0.4671  0.7367 -0.6049
  191MOL0     O26279   8.507   8.194   8.137 -0.0574  0.4115 -0.9872
  191MOL0     C26280   8.461   8.269   8.029 -0.7830  0.7067 -0.7494
  191MOL0     C26281   8.369   8.384   8.086  0.8839  0.7565 -0.7143
  191MOL0     C26282   8.255   8.324   8.176 -0.3995  1.4271 -0.3922
  191MOL0     C26283   8.152   8.420   8.241 -0.1217  0.5492  1.0864
  191MOL0     C26284   8.073   8.357   8.343  0.5410  0.0371  0.1624
  191MOL0     C26285   7.997   8.299   8.417 -0.3244  1.3380  0.4678
  191MOL0     C26286   8.394   7.981   8.062 -0.3722  0.2826  0.3048
  191MOL0     C26287   8.353   7.848   8.099 -0.5958 -0.2922 -0.9566
  191MOL0     C26288   8.271   7.773   7.994 -0.3849 -0.0611 -0.2763
  191MOL0     H26289   8.228   7.402   8.319 -0.1988 -0.2434  0.7009
  191MOL0     H26290   8.213   7.202   8.447  2.3272 -2.5211 -0.3472
  191MOL0     H26291   8.095   7.254   8.696 -1.5302 -0.0009  2.0740
  191MOL0     H26292   8.135   7.165   8.835  1.2048  0.2679 -0.1911
  191MOL0     H26293   7.974   7.053   8.630 -0.2767 -4.7024 -0.3461
  191MOL0     H26294   8.134   6.974   8.614  1.9225 -0.6721  2.6725
  191MOL0     H26295   7.960   6.999   8.857 -3.1030 -0.7094 -2.6583
  191MOL0     H26296   7.974   6.863   8.749 -2.3592  0.8528  0.6178
  191MOL0     H26297   8.182   6.801   8.792 -2.0016  1.1899 -1.1519
  191MOL0     H26298   8.231   6.954   8.870 -1.2358  0.4438  1.0248
  191MOL0     H26299   8.050   6.877   9.052 -2.7932 -2.3690 -1.1826
  191MOL0     H26300   8.227   6.844   9.054  0.2931 -0.9672  0.1064
  191MOL0     H26301   8.022   6.664   8.918 -0.2093  2.0904 -0.6525
  191MOL0     H26302   8.177   6.614   8.963 -1.4055 -2.2228  2.2481
  191MOL0     H26303   8.010   6.516   9.106  1.4560 -0.6719  0.3739
  191MOL0     H26304   7.950   6.664   9.173 -0.6493  1.9158 -1.6520
  191MOL0     H26305   8.169   6.712   9.252 -1.6802 -0.1280 -0.4133
  191MOL0     H26306   8.097   6.552   9.310 -0.0722  0.2330  0.2627
  191MOL0     H26307   8.406   6.671   9.143  0.3354 -1.6936  0.4809
  191MOL0     H26308   8.654   6.401   9.098  0.2428  1.0029  1.4310
  191MOL0     H26309   8.638   6.570   9.072  0.3731 -0.9102  1.1715
  191MOL0     H26310   8.572   6.329   8.888 -2.0437 -0.1512 -2.2436
  191MOL0     H26311   8.523   6.491   8.840  1.1656 -3.1532 -4.8504
  191MOL0     H26312   8.773   6.548   8.889  0.2122  0.0744 -0.5030
  191MOL0     H26313   8.795   6.370   8.876 -1.3662 -1.5269  0.7777
  191MOL0     H26314   8.699   6.557   8.664 -1.6842 -0.4387  0.2983
  191MOL0     H26315   8.847   6.459   8.663 -0.2231 -2.7460 -1.0818
  191MOL0     H26316   8.870   6.227   8.747  1.4612 -1.1051  0.2442
  191MOL0     H26317   8.918   5.913   8.827 -0.9060 -4.3581 -2.3501
  191MOL0     H26318   9.009   6.045   8.740 -1.9277  1.9843  1.1871
  191MOL0     H26319   8.951   5.888   8.662 -0.8776  1.5376 -2.6512
  191MOL0     H26320   8.535   5.555   8.754 -1.2665 -1.1139  0.5424
  191MOL0     H26321   8.559   5.322   8.801 -2.5347  3.5426  0.2220
  191MOL0     H26322   8.655   5.158   8.992  0.4333  3.2897 -0.5077
  191MOL0     H26323   8.692   5.038   8.852  0.8190  1.6547 -1.4064
  191MOL0     H26324   8.912   5.042   9.037  0.5701 -0.9955 -1.4504
  191MOL0     H26325   8.753   4.999   9.107 -0.8609  1.5698 -0.6706
  191MOL0     H26326   8.716   4.835   8.936 -0.0184 -2.0895 -0.2738
  191MOL0     H26327   8.853   4.806   9.036  0.1963  0.2616  0.4945
  191MOL0     H26328   9.012   4.890   8.890  0.8921  0.3656 -0.6418
  191MOL0     H26329   8.905   4.955   8.769  0.0853  1.4054  0.7171
  191MOL0     H26330   8.967   4.672   8.859  2.7526 -0.7495 -1.9869
  191MOL0     H26331   8.815   4.683   8.767  2.3859 -3.2485 -1.9974
  191MOL0     H26332   8.971   4.818   8.598 -4.2563 -0.4535  0.8642
  191MOL0     H26333   8.983   4.640   8.605  0.1149  0.3560  0.7850
  191MOL0     H26334   9.166   4.618   8.723  0.9952  0.6139  1.1909
  191MOL0     H26335   9.166   4.777   8.789  0.2101  1.4546 -1.5441
  191MOL0     H26336   9.329   4.817   8.627  1.2450 -1.1899 -1.5626
  191MOL0     H26337   9.191   4.870   8.532  1.3787  1.3127  1.3824
  191MOL0     H26338   8.970   5.380   8.926 -2.3622 -1.9070  1.1047
  191MOL0     H26339   8.933   5.630   8.887 -0.5342  0.8700 -1.3300
  191MOL0     H26340   8.497   5.948   8.568  0.8291 -1.2979  0.5462
  191MOL0     H26341   8.490   6.186   8.550  0.7960  2.1784 -0.9258
  191MOL0     H26342   8.465   7.354   8.752 -3.2085  0.3395  0.5149
  191MOL0     H26343   8.531   7.537   8.591  0.5044  0.1360 -2.3673
  191MOL0     H26344   8.488   7.853   8.422  0.7198  0.6645 -0.7348
  191MOL0     H26345   8.548   8.072   8.348 -0.6318  1.6627 -0.8849
  191MOL0     H26346   8.536   8.325   7.972  0.7407 -0.9350 -0.4408
  191MOL0     H26347   8.409   8.211   7.952  1.7692 -0.7064 -1.5407
  191MOL0     H26348   8.324   8.431   7.998 -2.8028 -0.7599  0.1570
  191MOL0     H26349   8.426   8.452   8.151 -1.5768  3.6525 -1.3297
  191MOL0     H26350   8.222   8.233   8.126  4.1264 -1.3358  1.0321
  191MOL0     H26351   8.302   8.273   8.261 -1.1688  0.5446 -0.4811
  191MOL0     H26352   8.084   8.474   8.173 -1.0730  3.1600  3.8576
  191MOL0     H26353   8.215   8.499   8.283  0.4717  1.6060 -1.5608
  191MOL0     H26354   7.935   8.231   8.472 -1.9573  2.1806 -0.2794
  191MOL0     H26355   8.371   8.012   7.961  0.1752 -1.9553 -0.5622
  191MOL0     H26356   8.237   7.834   7.910 -1.1895  0.9610  0.7844
  191MOL0     H26357   8.329   7.684   7.964  0.0108 -0.3634  1.3118
  191MOL0     H26358   8.179   7.735   8.038 -2.3182  1.6262 -2.5900
  192MOL0     O26359   0.783   2.080   3.236 -0.3814  0.1710  0.5983
  192MOL0     C26360   0.700   2.022   3.301  0.3699  0.5437 -0.0700
  192MOL0     O26361   0.580   2.004   3.251 -0.7595 -0.3125  0.0509
  192MOL0     C26362   0.545   2.076   3.138 -1.6503  0.3009  0.3156
  192MOL0     C26363   0.500   2.212   3.136  0.8687  0.0620 -0.3866
  192MOL0     C26364   0.485   2.280   3.018 -0.5158 -0.0955  0.5595
  192MOL0     C26365   0.511   2.207   2.893  0.2435  0.4687 -0.2736
  192MOL0     O26366   0.461   2.277   2.776 -0.4146  0.4029 -0.7011
  192MOL0     C26367   0.427   2.205   2.662  0.0037 -0.6229 -0.4617
  192MOL0     C26368   0.343   2.304   2.581  0.5181 -0.5911  0.5716
  192MOL0     C26369   0.296   2.241   2.451 -0.6061  1.1613 -0.2200
  192MOL0     C26370   0.407   2.194   2.354 -0.4010 -0.2031 -0.4788
  192MOL0     C26371   0.363   2.086   2.255 -0.1577 -0.2788  0.2605
  192MOL0     C26372   0.236   2.117   2.177  0.3290  0.7627 -0.5266
  192MOL0     C26373   0.261   2.211   2.066 -0.3923 -0.4013  0.2672
  192MOL0     C26374   0.139   2.282   2.008 -1.0454 -0.0901 -0.8514
  192MOL0     N26375   0.120   2.413   2.083  0.6744  0.8761 -0.8211
  192MOL0     C26376   0.065   2.428   2.205  0.0172  0.6337 -0.7417
  192MOL0     C26377   0.056   2.567   2.218 -0.2365 -0.9018 -0.1477
  192MOL0     C26378  -0.016   2.643   2.332 -0.3772  0.5451 -1.0003
  192MOL0     C26379   0.037   2.601   2.474 -0.3775  0.3689 -0.5496
  192MOL0     C26380   0.133   2.690   2.543 -0.1042  0.0357  0.2343
  192MOL0     C26381   0.270   2.692   2.474 -0.7096 -0.1715 -0.0984
  192MOL0     O26382   0.355   2.799   2.526 -0.0330  0.4876 -0.3092
  192MOL0     C26383   0.474   2.815   2.460 -1.8129 -1.4352  1.0120
  192MOL0     C26384   0.504   2.754   2.335 -0.6266 -0.8926 -0.5154
  192MOL0     C26385   0.631   2.784   2.277  0.9695  0.1236 -0.2934
  192MOL0     C26386   0.665   2.706   2.151 -0.5037  0.3516  0.3079
  192MOL0     C26387   0.720   2.879   2.335 -0.2930  0.0676  0.0982
  192MOL0     C26388   0.854   2.917   2.280  0.0443  0.4350  0.4870
  192MOL0     O26389   0.933   2.826   2.213 -0.8374 -0.6875 -0.4463
  192MOL0     C26390   1.061   2.869   2.195 -0.2265 -0.4907  0.1020
  192MOL0     C26391   1.160   2.872   2.297 -1.1321  0.0302  0.3769
  192MOL0     C26392   1.292   2.914   2.259  0.3017  0.5316  0.7622
  192MOL0     C26393   1.318   2.961   2.129 -0.6657 -0.1752 -0.1278
  192MOL0     O26394   1.446   3.002   2.091 -0.9598 -0.1867 -0.5948
  192MOL0     C26395   1.546   3.007   2.195  0.1708 -0.0162  1.0731
  192MOL0     C26396   1.670   3.093   2.141  0.6399  1.0660 -0.2855
  192MOL0     C26397   1.749   3.029   2.026 -0.4437 -0.7234 -0.7902
  192MOL0     C26398   1.860   3.115   1.979 -0.0023 -0.2360  0.7246
  192MOL0     C26399   1.944   3.041   1.869  0.4754 -0.1457  0.1636
  192MOL0     C26400   2.083   3.100   1.846 -0.0989  0.1212  0.2250
  192MOL0     C26401   2.149   3.016   1.742 -0.0704  0.1356 -0.1378
  192MOL0     C26402   2.291   3.057   1.722  0.1623  0.1296  0.1682
  192MOL0    Cl26403   2.387   2.961   1.617 -0.2381 -0.0220  0.0336
  192MOL0     C26404   1.225   2.957   2.031  1.3639  0.6853  0.1737
  192MOL0     C26405   1.095   2.912   2.058 -0.0363  0.0676 -1.0712
  192MOL0     O26406   0.878   3.038   2.291  0.3631 -0.6198  0.8564
  192MOL0     C26407   0.678   2.941   2.452  0.4560  0.6641 -0.5340
  192MOL0     C26408   0.561   2.901   2.522 -0.4998 -0.2727  0.0829
  192MOL0     N26409   0.116   2.635   2.114  0.1313 -0.2234  0.3542
  192MOL0     N26410   0.142   2.539   2.030  0.0545  0.3778 -0.9003
  192MOL0     C26411   0.542   2.074   2.897 -0.1351  0.4800 -0.3855
  192MOL0     C26412   0.564   2.011   3.019 -0.0163  0.2873  0.1779
  192MOL0     C26413   0.730   1.959   3.435  0.2364 -0.0459  0.1894
  192MOL0     C26414   0.624   1.909   3.513 -0.5580  0.3280  0.0263
  192MOL0     C26415   0.648   1.854   3.637  0.1889  0.2706 -0.1178
  192MOL0     C26416   0.775   1.856   3.691  0.4011 -0.7800 -0.3337
  192MOL0     O26417   0.798   1.810   3.818 -0.9875  0.1548  0.2618
  192MOL0     C26418   0.777   1.676   3.838 -0.1363  0.4136 -0.1616
  192MOL0     C26419   0.902   1.595   3.821  0.2133 -0.1120 -0.3968
  192MOL0     C26420   0.993   1.634   3.935 -0.0857  0.8136  0.1138
  192MOL0     C26421   1.109   1.528   3.920 -0.4719  0.0144 -0.1565
  192MOL0     C26422   1.227   1.586   3.994 -0.6240 -0.2011 -1.1261
  192MOL0     C26423   1.333   1.640   4.039 -1.3955 -0.0808  0.5344
  192MOL0     C26424   0.882   1.902   3.616 -0.0621 -0.1373  0.6162
  192MOL0     C26425   0.863   1.960   3.486  0.1736 -0.3305  0.3131
  192MOL0     C26426   0.982   2.022   3.423 -0.4088  0.2438  0.0779
  192MOL0     H26427   0.477   2.251   3.235  0.3611  2.6073 -1.4228
  192MOL0     H26428   0.435   2.376   3.008 -0.4716 -0.0168  1.0597
  192MOL0     H26429   0.360   2.122   2.687 -1.1415  0.0677 -1.1060
  192MOL0     H26430   0.519   2.171   2.614  0.0788 -0.7242 -0.2432
  192MOL0     H26431   0.251   2.318   2.638  0.4897 -0.7267  0.5586
  192MOL0     H26432   0.387   2.403   2.564 -4.1154  1.6445  0.1406
  192MOL0     H26433   0.248   2.150   2.487  4.8760 -1.0067  2.6574
  192MOL0     H26434   0.233   2.308   2.392 -0.9049  1.2568  0.2052
  192MOL0     H26435   0.432   2.283   2.296 -0.7488  0.7728  0.8300
  192MOL0     H26436   0.496   2.160   2.408  0.0102  1.9530  0.2808
  192MOL0     H26437   0.357   1.991   2.309  4.4615  0.5863  2.8274
  192MOL0     H26438   0.444   2.070   2.183 -1.7955 -0.5524 -1.5959
  192MOL0     H26439   0.191   2.026   2.135  0.3547  0.0713  0.8848
  192MOL0     H26440   0.159   2.155   2.245  2.9476  1.1185  2.4931
  192MOL0     H26441   0.302   2.154   1.982  2.6273 -1.1640  2.1051
  192MOL0     H26442   0.333   2.287   2.098 -0.7899 -0.0082  0.2351
  192MOL0     H26443   0.134   2.305   1.901  1.3705  1.6012 -0.6924
  192MOL0     H26444   0.045   2.235   2.036 -2.7524  2.0696 -2.6100
  192MOL0     H26445   0.030   2.355   2.278  0.8243  0.5778 -0.3964
  192MOL0     H26446  -0.124   2.638   2.321 -0.8496  1.5191  2.1664
  192MOL0     H26447   0.013   2.748   2.318  2.0347 -0.1551 -1.8550
  192MOL0     H26448  -0.051   2.579   2.535  2.2916 -0.5415  3.3151
  192MOL0     H26449   0.085   2.503   2.481 -1.9477 -0.3152  2.4996
  192MOL0     H26450   0.088   2.789   2.532  0.6812  0.3524 -0.2691
  192MOL0     H26451   0.148   2.653   2.644  1.7481  0.3190  0.1079
  192MOL0     H26452   0.318   2.595   2.491 -1.1368 -0.6562 -1.5178
  192MOL0     H26453   0.263   2.701   2.365 -1.1641 -0.8271 -0.1274
  192MOL0     H26454   0.437   2.679   2.295 -1.7673  0.5998 -1.4938
  192MOL0     H26455   0.704   2.765   2.067 -0.8442 -0.0437 -0.1298
  192MOL0     H26456   0.577   2.655   2.111  0.6738 -1.1207 -0.5344
  192MOL0     H26457   0.738   2.631   2.181 -2.8027 -0.7736  3.6545
  192MOL0     H26458   1.140   2.853   2.402 -0.3617  0.9586  0.7029
  192MOL0     H26459   1.366   2.918   2.339  0.5370 -2.8843  0.8595
  192MOL0     H26460   1.511   3.063   2.283  2.1716  3.9233 -0.3892
  192MOL0     H26461   1.575   2.908   2.233  0.0069  0.6948  3.1996
  192MOL0     H26462   1.626   3.185   2.100 -1.3029 -0.2772 -1.3782
  192MOL0     H26463   1.736   3.126   2.221  0.6130  2.0523 -0.6474
  192MOL0     H26464   1.681   3.024   1.940 -2.6480  0.9805  0.7402
  192MOL0     H26465   1.774   2.924   2.044 -1.4756 -0.6561  1.2905
  192MOL0     H26466   1.934   3.148   2.053  1.4552  1.9730 -1.5584
  192MOL0     H26467   1.822   3.208   1.936  1.7719 -0.3832 -1.3075
  192MOL0     H26468   1.969   2.937   1.893  0.4272 -1.0870 -3.2518
  192MOL0     H26469   1.886   3.044   1.776  1.7552 -0.3081 -0.6649
  192MOL0     H26470   2.138   3.111   1.939  2.1933  4.1383 -1.3655
  192MOL0     H26471   2.079   3.200   1.802  1.9109 -0.0120 -0.3543
  192MOL0     H26472   2.089   3.019   1.650 -2.3075  0.3249  1.2491
  192MOL0     H26473   2.151   2.913   1.779 -1.3246  0.5118  1.0618
  192MOL0     H26474   2.343   3.058   1.819 -1.7452  1.9423  1.2455
  192MOL0     H26475   2.293   3.161   1.688  2.2588  0.2485  0.4973
  192MOL0     H26476   1.242   2.998   1.931  1.3747  0.1983 -0.0248
  192MOL0     H26477   1.026   2.887   1.978  1.1146 -0.9221 -1.7914
  192MOL0     H26478   0.737   3.001   2.520 -0.7760 -0.7135  1.9205
  192MOL0     H26479   0.538   2.945   2.619 -1.9622  1.8673 -1.1603
  192MOL0     H26480   0.552   2.019   2.805  3.0901 -0.3478  0.3356
  192MOL0     H26481   0.594   1.908   3.030  0.3915  0.5536  1.7374
  192MOL0     H26482   0.525   1.891   3.471 -0.8653  2.8314 -0.4446
  192MOL0     H26483   0.563   1.819   3.695 -1.2145 -0.7372 -2.6126
  192MOL0     H26484   0.743   1.666   3.941  1.4466 -0.6041  0.3117
  192MOL0     H26485   0.703   1.622   3.777 -1.5033 -1.5346  2.9858
  192MOL0     H26486   0.946   1.618   3.723  2.3674  1.5776  0.8934
  192MOL0     H26487   0.876   1.489   3.830  1.6121 -0.5768 -1.4023
  192MOL0     H26488   1.021   1.738   3.914 -0.7732  1.4407  2.1316
  192MOL0     H26489   0.949   1.624   4.034 -0.4325  4.3316  0.4528
  192MOL0     H26490   1.141   1.528   3.816  2.4451  2.5348  0.6011
  192MOL0     H26491   1.073   1.431   3.955 -0.0687  0.4184  1.4612
  192MOL0     H26492   1.417   1.682   4.091  1.7021 -3.7780 -1.0553
  192MOL0     H26493   0.972   1.916   3.675 -0.0501 -2.4058  1.2424
  192MOL0     H26494   0.970   2.120   3.376  2.9174  0.4417 -0.6182
  192MOL0     H26495   1.068   2.033   3.490 -0.0110  0.6350 -0.4893
  192MOL0     H26496   1.018   1.954   3.345 -1.3260 -0.9409  0.6547
  193MOL0     O26497   6.794   4.433   2.756 -0.1862  0.2308 -0.8298
  193MOL0     C26498   6.693   4.366   2.779  0.3283 -0.6503  0.0367
  193MOL0     O26499   6.693   4.230   2.802  0.0689  0.7831 -0.5816
  193MOL0     C26500   6.797   4.159   2.747  0.7926  0.2956 -0.3124
  193MOL0     C26501   6.774   4.099   2.625 -0.4330 -0.0398  0.7074
  193MOL0     C26502   6.868   4.012   2.562 -0.1780 -0.0911  0.0152
  193MOL0     C26503   6.988   3.987   2.631 -0.3449  0.4888  1.0671
  193MOL0     O26504   7.080   3.889   2.597  0.4579 -0.0879 -0.3984
  193MOL0     C26505   7.029   3.773   2.536 -0.0024  0.0100  0.1532
  193MOL0     C26506   7.139   3.668   2.539 -0.5959 -0.2874 -1.0474
  193MOL0     C26507   7.253   3.710   2.450 -0.5062  0.1690 -0.4348
  193MOL0     C26508   7.376   3.613   2.455 -0.3716  0.4238 -0.6753
  193MOL0     C26509   7.501   3.683   2.428 -0.8266  0.3758 -0.2819
  193MOL0     C26510   7.491   3.763   2.294  0.3677  0.0855  0.5608
  193MOL0     C26511   7.626   3.829   2.248 -0.8318  0.4184 -0.4186
  193MOL0     C26512   7.749   3.741   2.208  0.6239  0.1919  0.3350
  193MOL0     N26513   7.873   3.828   2.187  1.1602  1.0395 -0.6422
  193MOL0     C26514   7.987   3.813   2.265 -0.9398  0.7443  0.9409
  193MOL0     C26515   8.054   3.921   2.225 -0.1068  0.2854  0.0198
  193MOL0     C26516   8.185   3.971   2.276 -0.7111  0.3299  0.1210
  193MOL0     C26517   8.175   4.000   2.426 -0.2867  0.8184 -0.7036
  193MOL0     C26518   8.314   4.022   2.484 -0.1081 -0.5128  0.5961
  193MOL0     C26519   8.390   4.151   2.434 -0.2535 -0.4270  0.1545
  193MOL0     O26520   8.521   4.144   2.501  0.3591  0.5849  0.5004
  193MOL0     C26521   8.596   4.256   2.482  1.0124  0.2455 -1.0235
  193MOL0     C26522   8.564   4.362   2.406  0.0140 -1.0068  1.6290
  193MOL0     C26523   8.663   4.461   2.384 -0.8116 -0.7299 -0.0325
  193MOL0     C26524   8.625   4.571   2.289  0.0935  0.4219 -0.6132
  193MOL0     C26525   8.787   4.459   2.447 -0.6075 -1.0364 -0.7379
  193MOL0     C26526   8.904   4.559   2.431 -0.4347  0.4418  0.8320
  193MOL0     O26527   9.010   4.548   2.515 -0.3212 -0.3114 -0.1402
  193MOL0     C26528   9.117   4.630   2.494 -0.0560  0.5819 -0.0752
  193MOL0     C26529   9.226   4.589   2.416  0.0170 -0.5438 -0.3386
  193MOL0     C26530   9.342   4.673   2.416 -0.0286 -0.1865  1.4165
  193MOL0     C26531   9.348   4.784   2.497  0.0891  0.8883 -0.1652
  193MOL0     O26532   9.472   4.860   2.494 -0.3148  0.1877 -0.0676
  193MOL0     C26533   9.469   4.948   2.382 -0.1014  0.6599 -0.0317
  193MOL0     C26534   9.602   5.018   2.366  0.5338 -1.1262  0.0243
  193MOL0     C26535   9.666   5.068   2.503  0.3465 -0.6007  0.4512
  193MOL0     C26536   9.691   5.220   2.489 -1.0640 -0.0969  0.3057
  193MOL0     C26537   9.722   5.268   2.633 -0.0410  0.3778  0.5838
  193MOL0     C26538   9.767   5.410   2.643  0.3098  0.5696 -0.8483
  193MOL0     C26539   9.818   5.446   2.786  0.2920  0.5280  0.9709
  193MOL0     C26540   9.708   5.420   2.898 -0.2249 -0.4918  0.1509
  193MOL0    Cl26541   9.559   5.514   2.861 -0.0386  0.2456 -0.7345
  193MOL0     C26542   9.239   4.822   2.567 -0.2001 -0.1685 -0.2123
  193MOL0     C26543   9.121   4.747   2.564 -0.6225  0.2945 -0.3520
  193MOL0     O26544   8.902   4.631   2.324 -0.3342  0.0511  0.3603
  193MOL0     C26545   8.811   4.352   2.536 -0.6331 -0.5941  0.4403
  193MOL0     C26546   8.717   4.256   2.553  1.2679  0.2837  0.4800
  193MOL0     N26547   7.980   4.000   2.142 -0.3590 -0.0900  0.0355
  193MOL0     N26548   7.872   3.938   2.121  0.0031 -1.0330  0.2147
  193MOL0     C26549   7.005   4.051   2.755 -0.0132 -1.1817  1.0187
  193MOL0     C26550   6.916   4.143   2.810 -0.6975 -0.2715 -0.5153
  193MOL0     C26551   6.571   4.443   2.830  0.0181  0.9990 -1.3204
  193MOL0     C26552   6.583   4.545   2.920  0.4696 -0.2236  0.3172
  193MOL0     C26553   6.474   4.622   2.973 -0.1910  0.5361 -0.4072
  193MOL0     C26554   6.343   4.582   2.944 -0.2869 -1.4068 -0.0326
  193MOL0     O26555   6.223   4.648   2.990 -0.8202 -0.2539 -0.2414
  193MOL0     C26556   6.227   4.696   3.125  0.1499 -0.2224  0.6089
  193MOL0     C26557   6.110   4.787   3.156 -0.2166 -0.4999 -0.2804
  193MOL0     C26558   6.098   4.913   3.073  0.0616  1.2324 -0.3491
  193MOL0     C26559   5.990   5.017   3.122  0.0525 -0.3625  0.3382
  193MOL0     C26560   5.963   5.115   3.020  0.9944 -0.6463  0.0977
  193MOL0     C26561   5.936   5.182   2.922 -0.4251 -0.0552 -0.4729
  193MOL0     C26562   6.335   4.487   2.849 -0.0298  0.0725  0.4675
  193MOL0     C26563   6.436   4.410   2.793  0.3441  0.7158  1.0323
  193MOL0     C26564   6.396   4.290   2.695 -0.0752  0.1195 -0.1889
  193MOL0     H26565   6.675   4.105   2.581  0.3122  3.6455 -0.8507
  193MOL0     H26566   6.848   3.960   2.468  0.3898 -1.5038  0.6532
  193MOL0     H26567   7.004   3.793   2.431  0.3362 -1.0042 -0.1366
  193MOL0     H26568   6.939   3.739   2.588 -0.6553 -1.4114 -1.7587
  193MOL0     H26569   7.161   3.662   2.646 -0.5031 -1.5451 -1.1291
  193MOL0     H26570   7.093   3.574   2.508 -1.1424 -0.3418 -0.1198
  193MOL0     H26571   7.212   3.708   2.349 -0.2158  1.2834 -0.5906
  193MOL0     H26572   7.281   3.815   2.458 -1.1264  0.5613 -2.7438
  193MOL0     H26573   7.387   3.580   2.559  2.5927 -0.7727 -1.2745
  193MOL0     H26574   7.364   3.522   2.395  1.1472  0.1792 -0.6527
  193MOL0     H26575   7.573   3.602   2.416 -0.7102  0.3931  0.2797
  193MOL0     H26576   7.533   3.749   2.509  1.8671 -0.2203 -0.7646
  193MOL0     H26577   7.437   3.707   2.217 -0.6890 -0.1476  1.4581
  193MOL0     H26578   7.428   3.852   2.299 -0.8585 -0.5315 -2.1127
  193MOL0     H26579   7.662   3.899   2.325 -0.6010  0.4207 -0.5292
  193MOL0     H26580   7.601   3.881   2.155 -2.3936  0.4519 -0.0144
  193MOL0     H26581   7.770   3.662   2.281 -1.0019  0.2134  0.8579
  193MOL0     H26582   7.721   3.684   2.120  0.8543 -0.3649  0.6130
  193MOL0     H26583   8.016   3.729   2.327 -0.7668 -2.2576 -2.8338
  193MOL0     H26584   8.216   4.055   2.214 -1.7739  0.9516  0.4089
  193MOL0     H26585   8.262   3.898   2.250 -1.3424  0.7695 -3.5682
  193MOL0     H26586   8.107   4.085   2.432 -2.3855 -0.7918 -0.2814
  193MOL0     H26587   8.121   3.917   2.473 -0.0603  0.2741 -1.3790
  193MOL0     H26588   8.288   4.045   2.587 -2.5292  0.4188 -0.1576
  193MOL0     H26589   8.383   3.937   2.477 -0.2943 -0.5859 -0.7746
  193MOL0     H26590   8.409   4.146   2.326 -0.4404  0.3774  0.0771
  193MOL0     H26591   8.338   4.247   2.444  0.7595  0.0246  1.2679
  193MOL0     H26592   8.474   4.374   2.348  2.8203  1.1548 -2.7991
  193MOL0     H26593   8.518   4.570   2.268  0.2132 -1.5573 -1.3134
  193MOL0     H26594   8.696   4.549   2.209  2.0858 -1.2601  1.4840
  193MOL0     H26595   8.645   4.669   2.333 -0.3846 -0.2231  1.0997
  193MOL0     H26596   9.230   4.493   2.367  0.0858  1.1073 -3.9188
  193MOL0     H26597   9.432   4.633   2.370  0.4666 -0.0403  2.2338
  193MOL0     H26598   9.443   4.886   2.296 -0.6260  3.0065 -1.6526
  193MOL0     H26599   9.386   5.016   2.404 -0.5862  0.5934 -1.5592
  193MOL0     H26600   9.685   4.965   2.319  0.8671  0.6810 -1.5414
  193MOL0     H26601   9.573   5.102   2.303 -1.5213 -2.0282 -0.3404
  193MOL0     H26602   9.756   5.011   2.529 -1.4970 -2.7309  2.5490
  193MOL0     H26603   9.596   5.059   2.587 -0.8889  0.1364 -0.4635
  193MOL0     H26604   9.609   5.280   2.448  0.0398  0.4592 -1.1689
  193MOL0     H26605   9.782   5.239   2.431 -0.2514 -0.2665  1.4869
  193MOL0     H26606   9.633   5.262   2.697  1.2672  0.0261  2.4353
  193MOL0     H26607   9.801   5.198   2.661  2.1891  2.2928 -0.6389
  193MOL0     H26608   9.672   5.448   2.604 -1.1261 -2.1679 -0.2846
  193MOL0     H26609   9.843   5.423   2.565 -2.4480  1.3723 -3.6168
  193MOL0     H26610   9.850   5.551   2.784  1.8628  0.0707 -0.6526
  193MOL0     H26611   9.910   5.390   2.807  0.6931  1.1899  1.0082
  193MOL0     H26612   9.755   5.456   2.991 -3.3799 -3.7876  3.3223
  193MOL0     H26613   9.690   5.315   2.921 -0.1931 -0.5323 -0.0059
  193MOL0     H26614   9.241   4.910   2.630 -1.0469  1.1374 -1.9036
  193MOL0     H26615   9.033   4.764   2.625 -0.7886 -0.0628 -0.4897
  193MOL0     H26616   8.910   4.335   2.578 -0.1243  0.9727 -0.0331
  193MOL0     H26617   8.734   4.164   2.609 -4.8773 -1.2343  0.5852
  193MOL0     H26618   7.097   4.047   2.813  0.6449 -1.2702  0.0027
  193MOL0     H26619   6.937   4.206   2.896 -0.1569 -1.6750  0.4149
  193MOL0     H26620   6.682   4.562   2.962  0.4665  2.2830 -0.5460
  193MOL0     H26621   6.490   4.695   3.051 -0.3614 -0.5400  0.6797
  193MOL0     H26622   6.212   4.618   3.201 -1.2594 -0.1621  0.4186
  193MOL0     H26623   6.320   4.745   3.154  0.9822 -1.8476  0.7763
  193MOL0     H26624   6.131   4.822   3.257  2.2560  3.1659 -1.8349
  193MOL0     H26625   6.013   4.736   3.151 -0.6759  0.4474 -1.5481
  193MOL0     H26626   6.198   4.954   3.060 -0.1717  1.6359 -0.9686
  193MOL0     H26627   6.062   4.883   2.974 -2.5159 -1.6726  1.2822
  193MOL0     H26628   6.031   5.067   3.210  0.2176  0.1687 -0.0391
  193MOL0     H26629   5.898   4.961   3.143  0.3153 -0.1114  2.3360
  193MOL0     H26630   5.915   5.255   2.847 -0.4142 -1.0389 -1.4563
  193MOL0     H26631   6.233   4.460   2.823 -0.5487  0.3476  2.0844
  193MOL0     H26632   6.386   4.198   2.754 -2.2421 -0.0686 -0.7741
  193MOL0     H26633   6.307   4.306   2.634  0.1215 -0.8163 -0.7376
  193MOL0     H26634   6.479   4.273   2.626  0.5794 -0.4418  0.7076
  194MOL0     O26635   8.090   3.179   8.145  0.1612 -0.5302  0.5766
  194MOL0     C26636   7.992   3.234   8.184  0.6672 -0.0173 -0.0487
  194MOL0     O26637   7.894   3.168   8.249  0.3702  0.4446 -0.2274
  194MOL0     C26638   7.888   3.031   8.238  0.2222 -0.4833  0.1779
  194MOL0     C26639   7.851   2.971   8.114 -0.4267 -0.1503  0.2464
  194MOL0     C26640   7.846   2.831   8.110  0.4024 -0.2733 -0.6285
  194MOL0     C26641   7.856   2.753   8.228  0.1014  0.1944 -0.0645
  194MOL0     O26642   7.846   2.611   8.212 -0.2492 -0.8326  0.0364
  194MOL0     C26643   7.920   2.524   8.301 -0.9606  0.3018  0.3252
  194MOL0     C26644   7.917   2.375   8.236 -0.2865 -0.3118  0.0304
  194MOL0     C26645   7.997   2.263   8.289 -0.3316 -0.3009  0.2114
  194MOL0     C26646   7.981   2.130   8.214 -0.4156 -0.3694  0.0848
  194MOL0     C26647   8.041   2.012   8.287 -0.2041  0.4731 -0.2564
  194MOL0     C26648   8.045   1.890   8.192  0.2998  0.1666 -0.3760
  194MOL0     C26649   8.122   1.785   8.267  0.5053 -0.5474 -0.3299
  194MOL0     C26650   8.057   1.735   8.396  0.3526  0.0029 -0.0473
  194MOL0     N26651   8.101   1.603   8.443 -0.6440  0.4595 -0.1470
  194MOL0     C26652   8.076   1.488   8.374 -0.7729 -0.1573 -1.0376
  194MOL0     C26653   8.155   1.389   8.430  0.1235  0.0533  0.2351
  194MOL0     C26654   8.155   1.245   8.383  0.6447  0.4986 -0.9239
  194MOL0     C26655   8.156   1.125   8.485 -0.0052 -0.5551  1.5973
  194MOL0     C26656   8.211   0.996   8.414 -0.0519  0.2959 -0.3685
  194MOL0     C26657   8.170   0.868   8.498  0.0627  0.5402  0.3238
  194MOL0     O26658   8.245   0.757   8.443 -0.4972  0.2996 -0.1655
  194MOL0     C26659   8.185   0.655   8.372  1.7438  0.7032 -0.0666
  194MOL0     C26660   8.049   0.621   8.365 -0.1407 -0.2834 -0.3798
  194MOL0     C26661   7.999   0.528   8.267  0.4640 -0.2567  0.0281
  194MOL0     C26662   7.845   0.498   8.267  0.1560  0.2453 -0.1425
  194MOL0     C26663   8.089   0.453   8.185  0.0421  0.2870 -1.1307
  194MOL0     C26664   8.067   0.361   8.072 -0.5583  0.5118  0.3520
  194MOL0     O26665   8.164   0.345   7.973  0.8364  0.1832  0.0968
  194MOL0     C26666   8.129   0.272   7.859  0.0608 -0.8517 -0.2522
  194MOL0     C26667   8.173   0.321   7.742 -0.5871  0.8604 -0.6782
  194MOL0     C26668   8.150   0.250   7.629  0.5056 -0.6185 -0.3000
  194MOL0     C26669   8.101   0.131   7.620  0.4912 -1.2656 -0.4280
  194MOL0     O26670   8.084   0.072   7.501 -0.3849  0.1458 -0.1507
  194MOL0     C26671   7.964   0.004   7.476 -0.4581  0.1866 -0.4534
  194MOL0     C26672   7.922   0.037   7.330  0.0886  0.7654 -0.8380
  194MOL0     C26673   8.038   0.023   7.226  0.3479  1.1877  0.2799
  194MOL0     C26674   7.980   0.075   7.102  0.0987 -0.2450 -0.1944
  194MOL0     C26675   7.968  -0.053   7.004 -0.3451 -0.7766 -0.1655
  194MOL0     C26676   7.882  -0.005   6.877  0.9914 -0.2305  0.6379
  194MOL0     C26677   7.735   0.029   6.925  1.0566 -0.1951  0.1406
  194MOL0     C26678   7.642   0.028   6.794 -0.3396 -0.3772 -0.8847
  194MOL0    Cl26679   7.479   0.032   6.852  0.4289 -0.2744 -0.2873
  194MOL0     C26680   8.050   0.076   7.741  0.2740 -0.1116  0.3731
  194MOL0     C26681   8.068   0.145   7.862  0.0636 -0.6439 -0.1141
  194MOL0     O26682   7.956   0.312   8.062  0.8937 -1.0632  0.4534
  194MOL0     C26683   8.218   0.490   8.209  0.0307 -0.4646  0.0592
  194MOL0     C26684   8.265   0.590   8.290 -0.0370 -0.6154  0.7336
  194MOL0     N26685   8.217   1.445   8.541  0.2726 -0.6223  0.8533
  194MOL0     N26686   8.171   1.568   8.552 -0.2233 -0.0283 -0.3830
  194MOL0     C26687   7.886   2.820   8.351  0.1300  1.2617 -0.4296
  194MOL0     C26688   7.890   2.957   8.353 -0.0477 -0.8076 -0.4172
  194MOL0     C26689   7.963   3.380   8.152  0.1516  0.3811 -0.2211
  194MOL0     C26690   7.875   3.450   8.240 -0.9760  0.8355  1.6433
  194MOL0     C26691   7.841   3.575   8.210  0.2677  0.1184 -0.5274
  194MOL0     C26692   7.888   3.650   8.116 -0.4341  0.8620 -0.4831
  194MOL0     O26693   7.856   3.782   8.105 -0.1644  0.9059 -0.4564
  194MOL0     C26694   7.793   3.854   8.218  0.5648 -0.0073  0.4337
  194MOL0     C26695   7.653   3.890   8.177  0.6427 -0.5712 -0.2644
  194MOL0     C26696   7.585   3.978   8.284 -0.8711  0.7049  0.4522
  194MOL0     C26697   7.438   3.975   8.258  0.1168 -0.6173  0.8018
  194MOL0     C26698   7.359   4.055   8.349  0.3388 -0.9594  0.0120
  194MOL0     C26699   7.279   4.127   8.405 -1.0435  0.0243  0.3520
  194MOL0     C26700   7.975   3.587   8.025  0.0335 -0.3737 -0.3992
  194MOL0     C26701   8.022   3.459   8.048  0.2355  0.6797 -0.5171
  194MOL0     C26702   8.116   3.402   7.947  0.4597 -0.6013 -0.2879
  194MOL0     H26703   7.841   3.029   8.023  0.9528 -1.6821 -0.9553
  194MOL0     H26704   7.822   2.793   8.011  2.1684 -1.1657 -0.7462
  194MOL0     H26705   7.876   2.524   8.401 -2.1659 -2.9622 -0.0871
  194MOL0     H26706   8.026   2.551   8.304 -1.4044  2.7071 -2.1656
  194MOL0     H26707   7.811   2.350   8.242 -0.7189  1.3009 -0.4006
  194MOL0     H26708   7.932   2.382   8.128 -1.3455 -1.4442 -0.2142
  194MOL0     H26709   8.102   2.291   8.275  0.2299 -1.6895  1.4208
  194MOL0     H26710   7.956   2.245   8.389  0.0962  1.1071  0.6628
  194MOL0     H26711   7.875   2.112   8.195  0.0757 -5.2048  0.7859
  194MOL0     H26712   8.027   2.155   8.118 -2.8895 -1.0831 -1.3678
  194MOL0     H26713   7.982   1.980   8.373  1.4350 -1.2814  0.2931
  194MOL0     H26714   8.143   2.040   8.317 -0.4671  1.1279  0.0415
  194MOL0     H26715   7.941   1.860   8.175  0.6298 -0.0283 -2.2128
  194MOL0     H26716   8.090   1.918   8.096  1.2695 -0.4780 -0.1304
  194MOL0     H26717   8.226   1.815   8.279 -0.0365  2.4073 -2.0266
  194MOL0     H26718   8.127   1.705   8.193 -2.7119 -1.0877 -0.1373
  194MOL0     H26719   8.071   1.810   8.474 -1.5954  2.1457 -1.6016
  194MOL0     H26720   7.948   1.741   8.383  0.1809  5.5690  1.5820
  194MOL0     H26721   8.009   1.472   8.290 -2.3962  2.5409 -0.3647
  194MOL0     H26722   8.235   1.226   8.311  0.2837  1.1538 -1.5218
  194MOL0     H26723   8.065   1.236   8.320  1.2587 -1.8197 -1.5604
  194MOL0     H26724   8.205   1.146   8.580  1.5720 -1.0402  0.9234
  194MOL0     H26725   8.051   1.105   8.506 -0.0862 -3.1359 -0.6996
  194MOL0     H26726   8.158   0.975   8.320 -3.8964 -0.7011  1.7960
  194MOL0     H26727   8.320   1.001   8.405 -0.1501  2.6014 -0.8576
  194MOL0     H26728   8.201   0.887   8.601  2.9039  0.4013 -0.4188
  194MOL0     H26729   8.062   0.862   8.487  0.1517  0.6043 -0.6318
  194MOL0     H26730   7.984   0.676   8.433  0.5322  1.4186 -1.0504
  194MOL0     H26731   7.834   0.389   8.271  2.2170 -0.0408 -1.0570
  194MOL0     H26732   7.786   0.540   8.185  0.5617  2.3526  0.5762
  194MOL0     H26733   7.801   0.540   8.358 -0.1261 -0.8822  0.2577
  194MOL0     H26734   8.223   0.417   7.742  0.4298  0.4529 -3.7882
  194MOL0     H26735   8.169   0.288   7.529 -2.0121 -0.5385 -0.7992
  194MOL0     H26736   7.983  -0.103   7.489  3.0476  0.7481  0.1004
  194MOL0     H26737   7.886   0.035   7.547  0.8577 -0.4126  1.3487
  194MOL0     H26738   7.844  -0.037   7.309  1.0004 -0.5929  0.3474
  194MOL0     H26739   7.876   0.135   7.342 -2.2959 -0.5876  3.6249
  194MOL0     H26740   8.066  -0.083   7.225  0.6969  1.2824 -0.7316
  194MOL0     H26741   8.126   0.084   7.244  1.8276  0.5712 -3.8552
  194MOL0     H26742   8.041   0.146   7.046 -0.9874  0.2301 -0.8097
  194MOL0     H26743   7.888   0.131   7.122  0.4201 -0.3749  1.8608
  194MOL0     H26744   8.065  -0.081   6.964 -0.5199 -0.0930 -1.1063
  194MOL0     H26745   7.920  -0.139   7.052 -0.1846  0.0153  1.4963
  194MOL0     H26746   7.879  -0.089   6.807  1.7394 -0.7765  1.2458
  194MOL0     H26747   7.939   0.073   6.826  1.9679 -0.6282  1.0942
  194MOL0     H26748   7.728   0.124   6.977  4.5292 -0.5247  1.5225
  194MOL0     H26749   7.710  -0.053   6.993  5.3191 -1.2029  0.8100
  194MOL0     H26750   7.665  -0.053   6.725 -0.2914  0.7609 -2.2587
  194MOL0     H26751   7.669   0.121   6.742 -0.0015 -0.3660 -0.6960
  194MOL0     H26752   8.012  -0.025   7.751 -0.2391  0.2870  4.5734
  194MOL0     H26753   8.041   0.104   7.959 -0.7290  0.5343  0.1929
  194MOL0     H26754   8.297   0.451   8.146 -1.5815 -0.8596 -1.8084
  194MOL0     H26755   8.368   0.623   8.300  0.0163 -0.0988 -1.2238
  194MOL0     H26756   7.889   2.761   8.442  0.3410  1.5436 -0.2531
  194MOL0     H26757   7.890   3.004   8.451  2.6277 -0.2279 -0.6348
  194MOL0     H26758   7.834   3.392   8.322 -1.5783 -0.1832  0.6718
  194MOL0     H26759   7.755   3.604   8.270  0.1894  0.9180 -1.0038
  194MOL0     H26760   7.800   3.784   8.301  3.4329 -1.7967 -1.1519
  194MOL0     H26761   7.842   3.949   8.239  1.0851  0.0543 -0.9359
  194MOL0     H26762   7.587   3.805   8.157  1.4978 -0.8615 -2.1362
  194MOL0     H26763   7.643   3.935   8.077  1.7752  1.6337  0.5652
  194MOL0     H26764   7.612   3.929   8.378 -2.4593 -1.5807 -0.1913
  194MOL0     H26765   7.628   4.078   8.278  0.5473  0.1576  0.8313
  194MOL0     H26766   7.389   3.877   8.262 -0.6629 -0.1888  2.4916
  194MOL0     H26767   7.424   4.017   8.158  1.2056 -1.5068  0.2548
  194MOL0     H26768   7.210   4.204   8.433 -1.4175  0.7601 -2.3493
  194MOL0     H26769   8.020   3.645   7.946 -1.1975  1.1198 -0.0373
  194MOL0     H26770   8.222   3.395   7.975  1.3242 -0.6892 -3.2746
  194MOL0     H26771   8.104   3.299   7.914  2.8482 -0.3285 -2.3005
  194MOL0     H26772   8.114   3.457   7.853 -0.9354 -0.4028 -0.1746
  195MOL0     O26773   5.678   2.396   0.108 -0.3219  0.5902 -0.9245
  195MOL0     C26774   5.757   2.332   0.175 -0.2687 -0.5348 -0.3198
  195MOL0     O26775   5.881   2.284   0.137  0.5190 -0.0723  0.4517
  195MOL0     C26776   5.901   2.255   0.009 -0.6113  0.3541  1.2483
  195MOL0     C26777   5.801   2.222  -0.084  1.1412 -0.2664 -0.1821
  195MOL0     C26778   5.833   2.186  -0.210  0.0732 -0.3412 -0.5959
  195MOL0     C26779   5.967   2.185  -0.254  0.3887 -0.0876  0.2845
  195MOL0     O26780   5.991   2.145  -0.379  0.4644 -0.4817  0.2159
  195MOL0     C26781   5.981   2.010  -0.419 -0.3938  0.7104  0.3103
  195MOL0     C26782   6.124   1.962  -0.460 -0.3990  0.0866  0.4978
  195MOL0     C26783   6.182   2.031  -0.576  0.3503  0.7015  0.0370
  195MOL0     C26784   6.329   2.007  -0.599 -0.8866  0.7898 -0.4082
  195MOL0     C26785   6.382   2.091  -0.714  0.2378  0.9728 -0.7686
  195MOL0     C26786   6.306   2.066  -0.853 -0.6158 -0.0238 -0.7909
  195MOL0     C26787   6.346   2.169  -0.955 -0.2296  0.0046 -0.0133
  195MOL0     C26788   6.295   2.307  -0.922  0.7518  0.6944 -0.4267
  195MOL0     N26789   6.302   2.407  -1.037 -0.7254 -0.7131  0.6114
  195MOL0     C26790   6.408   2.442  -1.116  0.6474  0.1126  0.2130
  195MOL0     C26791   6.352   2.521  -1.210  0.0364  0.7334 -0.0266
  195MOL0     C26792   6.416   2.600  -1.318  0.9751  0.0179 -0.0815
  195MOL0     C26793   6.311   2.637  -1.433 -0.7005  0.1894  0.5019
  195MOL0     C26794   6.369   2.743  -1.529 -0.9261  0.5894  0.8388
  195MOL0     C26795   6.262   2.800  -1.621 -0.0237  0.4301  0.1228
  195MOL0     O26796   6.235   2.933  -1.570 -0.5899  0.0520  0.3138
  195MOL0     C26797   6.163   3.021  -1.646  0.5561  0.6259 -0.4503
  195MOL0     C26798   6.157   3.144  -1.587  0.5213  0.7066 -0.7992
  195MOL0     C26799   6.074   3.246  -1.647  0.1414  0.3745  0.4696
  195MOL0     C26800   6.062   3.373  -1.569  0.3084  0.5260 -0.9507
  195MOL0     C26801   6.020   3.225  -1.777  0.3388 -1.3120  1.0482
  195MOL0     C26802   5.941   3.332  -1.856  0.9197  0.8002 -0.6291
  195MOL0     O26803   5.930   3.318  -1.986 -0.6615 -0.3653  0.6498
  195MOL0     C26804   5.871   3.406  -2.068 -0.3257  0.4581  0.8544
  195MOL0     C26805   5.736   3.387  -2.119 -0.9223 -0.5211  0.3433
  195MOL0     C26806   5.686   3.477  -2.213  0.3200 -0.3072 -0.3504
  195MOL0     C26807   5.763   3.587  -2.259 -0.0743  0.0465  0.3501
  195MOL0     O26808   5.712   3.683  -2.348 -0.0105  0.4814 -0.7217
  195MOL0     C26809   5.570   3.697  -2.369  0.3361  0.0944 -0.0241
  195MOL0     C26810   5.539   3.776  -2.503  0.4020  0.7780  0.3941
  195MOL0     C26811   5.606   3.702  -2.624  0.3377  0.2200 -0.3915
  195MOL0     C26812   5.590   3.779  -2.758  0.3752 -0.9695 -0.6633
  195MOL0     C26813   5.471   3.740  -2.838  1.6711 -0.4564 -0.0245
  195MOL0     C26814   5.463   3.812  -2.974 -0.8784 -0.9195  0.7382
  195MOL0     C26815   5.449   3.967  -2.966 -0.3528  0.0869 -0.0537
  195MOL0     C26816   5.425   4.043  -3.085 -0.2320 -0.1575  0.4250
  195MOL0    Cl26817   5.344   4.196  -3.046 -0.4990 -0.2507 -0.1016
  195MOL0     C26818   5.888   3.609  -2.200 -0.1625 -0.0593 -0.2493
  195MOL0     C26819   5.941   3.521  -2.109 -0.4251  0.4301  0.2251
  195MOL0     O26820   5.875   3.419  -1.791  0.2678  0.0519 -0.7571
  195MOL0     C26821   6.049   3.101  -1.842  0.2208 -0.1776 -0.3941
  195MOL0     C26822   6.113   2.997  -1.772 -0.1009  0.1750  0.9890
  195MOL0     N26823   6.216   2.550  -1.171 -1.2827 -0.3664 -0.2469
  195MOL0     N26824   6.181   2.477  -1.071  0.0670  0.9524  0.4320
  195MOL0     C26825   6.076   2.210  -0.166  0.0558  0.1589  0.5642
  195MOL0     C26826   6.037   2.258  -0.036  0.8273 -0.0185 -0.4080
  195MOL0     C26827   5.743   2.307   0.317  0.3974 -0.6276  0.0965
  195MOL0     C26828   5.861   2.262   0.392 -0.3923 -0.7195  0.2195
  195MOL0     C26829   5.862   2.250   0.529  0.6632 -0.3252  0.7476
  195MOL0     C26830   5.756   2.297   0.605  0.1624  0.8357 -0.6104
  195MOL0     O26831   5.759   2.320   0.740 -0.0059  0.2046  0.9880
  195MOL0     C26832   5.786   2.209   0.819 -0.0562 -0.0361 -0.2629
  195MOL0     C26833   5.661   2.162   0.887  0.4780 -1.2941  0.0481
  195MOL0     C26834   5.695   2.109   1.028 -0.4687  0.0807 -0.0504
  195MOL0     C26835   5.806   2.010   1.037 -0.0642  0.6025  1.2621
  195MOL0     C26836   5.792   1.913   1.150  0.4429  0.8427  0.0640
  195MOL0     C26837   5.775   1.842   1.246 -0.8485 -0.6184  0.3972
  195MOL0     C26838   5.638   2.335   0.539 -0.0259 -0.0477 -0.2064
  195MOL0     C26839   5.620   2.340   0.399 -0.2126  0.5233 -0.6653
  195MOL0     C26840   5.492   2.370   0.330  0.2379  0.3178 -0.8497
  195MOL0     H26841   5.695   2.229  -0.062  1.8879 -0.8770  4.4963
  195MOL0     H26842   5.747   2.148  -0.265 -0.0166  1.5871 -1.8615
  195MOL0     H26843   5.902   2.011  -0.494  1.4656  0.4522 -1.7333
  195MOL0     H26844   5.959   1.942  -0.335  0.1079  1.3758  0.9955
  195MOL0     H26845   6.194   1.975  -0.377  3.2015 -3.1980 -1.6877
  195MOL0     H26846   6.118   1.855  -0.481 -1.3602  0.5108 -1.6666
  195MOL0     H26847   6.129   1.992  -0.664  2.0995 -3.1645  0.4939
  195MOL0     H26848   6.175   2.140  -0.571  4.6221  1.2688 -1.8379
  195MOL0     H26849   6.389   2.042  -0.515  1.0342 -0.0964 -1.3637
  195MOL0     H26850   6.352   1.900  -0.609  0.4836  1.1462 -1.3061
  195MOL0     H26851   6.489   2.071  -0.724  0.6952  1.3308  2.3768
  195MOL0     H26852   6.367   2.191  -0.672  0.1570  0.4440  0.5252
  195MOL0     H26853   6.332   1.964  -0.884  0.0067  0.2219 -1.1056
  195MOL0     H26854   6.197   2.068  -0.844 -0.4929 -0.6862  1.5650
  195MOL0     H26855   6.315   2.133  -1.054 -0.2299  0.1886 -0.0815
  195MOL0     H26856   6.455   2.177  -0.960 -0.1994 -0.4664 -0.1585
  195MOL0     H26857   6.192   2.302  -0.886  0.8431  0.5744 -0.1836
  195MOL0     H26858   6.359   2.347  -0.843  0.1999  1.4280 -0.3360
  195MOL0     H26859   6.511   2.408  -1.111  1.2222  1.6799 -0.3769
  195MOL0     H26860   6.499   2.543  -1.359  0.2905 -1.0706  0.0073
  195MOL0     H26861   6.463   2.684  -1.266  0.2568 -0.7504  1.9047
  195MOL0     H26862   6.291   2.554  -1.501 -0.3303  0.4026  0.1204
  195MOL0     H26863   6.210   2.667  -1.404 -2.1689 -0.9204 -2.9288
  195MOL0     H26864   6.432   2.820  -1.485 -1.1847  0.1958  1.9243
  195MOL0     H26865   6.441   2.693  -1.595 -2.1020  0.0741 -0.1051
  195MOL0     H26866   6.304   2.810  -1.721  0.2806  0.8582  0.2933
  195MOL0     H26867   6.176   2.736  -1.644 -0.1106  1.1908 -1.8542
  195MOL0     H26868   6.206   3.172  -1.494 -2.6327  0.1081  1.2313
  195MOL0     H26869   5.962   3.385  -1.527  1.4704  3.3532  1.3132
  195MOL0     H26870   6.078   3.460  -1.633 -0.9484  1.0047 -0.6302
  195MOL0     H26871   6.127   3.368  -1.481 -1.9562 -4.6288  0.8087
  195MOL0     H26872   5.668   3.312  -2.079 -1.6791  1.5989  3.3892
  195MOL0     H26873   5.583   3.464  -2.244  0.3828 -1.9722  0.0617
  195MOL0     H26874   5.522   3.599  -2.369  0.3088  0.0918  0.9984
  195MOL0     H26875   5.524   3.745  -2.282  3.6574  2.7464  0.4837
  195MOL0     H26876   5.431   3.784  -2.515  0.2634  3.5496  2.5545
  195MOL0     H26877   5.556   3.883  -2.490 -1.6438  1.5705 -2.3740
  195MOL0     H26878   5.562   3.603  -2.633 -0.6004  0.3156  2.1788
  195MOL0     H26879   5.713   3.689  -2.601  0.2568 -0.3866 -0.3577
  195MOL0     H26880   5.673   3.754  -2.825  0.4426 -1.0946 -0.5324
  195MOL0     H26881   5.589   3.886  -2.734  0.0434 -1.2681  0.7106
  195MOL0     H26882   5.479   3.632  -2.853  0.3001 -0.7376  1.0342
  195MOL0     H26883   5.386   3.765  -2.775  1.6145  1.3040 -0.7273
  195MOL0     H26884   5.380   3.774  -3.033 -0.5349 -3.0718  1.5702
  195MOL0     H26885   5.560   3.802  -3.024  1.3365  0.9795  4.1750
  195MOL0     H26886   5.538   4.000  -2.912  3.0056 -0.4802 -4.5993
  195MOL0     H26887   5.357   3.986  -2.911  0.1801 -2.6552  2.0165
  195MOL0     H26888   5.352   3.986  -3.142 -0.6548  0.9935 -0.2042
  195MOL0     H26889   5.513   4.051  -3.150 -1.3655 -0.7391 -1.2135
  195MOL0     H26890   5.937   3.705  -2.212  3.4063 -1.9390 -2.6953
  195MOL0     H26891   6.042   3.539  -2.073 -0.3454 -0.1700  0.3112
  195MOL0     H26892   6.012   3.075  -1.942 -3.0428  2.3731 -0.0302
  195MOL0     H26893   6.134   2.902  -1.819  0.5530  1.4545 -1.5158
  195MOL0     H26894   6.180   2.197  -0.195  0.1353  0.1632  0.8480
  195MOL0     H26895   6.097   2.296   0.047 -1.0493  0.4466  0.7882
  195MOL0     H26896   5.955   2.234   0.346 -0.1525 -2.4532  1.6488
  195MOL0     H26897   5.952   2.218   0.580  1.1080  1.9686  1.4962
  195MOL0     H26898   5.843   2.129   0.771 -0.3007 -1.5633  1.8203
  195MOL0     H26899   5.855   2.240   0.898 -0.7674  0.2123  0.2731
  195MOL0     H26900   5.620   2.073   0.838 -1.3733 -0.1982 -0.5303
  195MOL0     H26901   5.580   2.234   0.902  1.2423 -0.6225  1.1233
  195MOL0     H26902   5.715   2.183   1.105  2.3495  0.0981 -0.7011
  195MOL0     H26903   5.609   2.057   1.072  0.2691 -1.0805  0.0748
  195MOL0     H26904   5.893   2.072   1.060 -0.9550  1.7736  1.6242
  195MOL0     H26905   5.805   1.944   0.950  0.0052  1.0085  0.9475
  195MOL0     H26906   5.770   1.770   1.325 -3.2356 -3.3079 -1.9673
  195MOL0     H26907   5.555   2.373   0.597 -0.6201 -0.2191 -0.9293
  195MOL0     H26908   5.469   2.282   0.269  1.4807 -2.3685  2.2451
  195MOL0     H26909   5.422   2.373   0.414  4.1286 -1.7944  2.8407
  195MOL0     H26910   5.498   2.460   0.268 -0.4880 -0.3336 -1.8824
  196MOL0     O26911   6.593   7.752   8.656  0.1775 -0.6711  0.5559
  196MOL0     C26912   6.543   7.731   8.764  0.5246  0.3414 -1.1375
  196MOL0     O26913   6.455   7.636   8.800 -0.0337  0.0213 -0.3351
  196MOL0     C26914   6.447   7.517   8.740  0.5194  0.0690  0.6110
  196MOL0     C26915   6.327   7.441   8.770 -1.5397 -0.5920 -0.6105
  196MOL0     C26916   6.314   7.317   8.713 -0.5810  0.0203 -0.1097
  196MOL0     C26917   6.405   7.267   8.613 -0.2883  0.7941 -0.3972
  196MOL0     O26918   6.391   7.150   8.549  0.2337  0.4922 -0.1956
  196MOL0     C26919   6.298   7.062   8.615 -0.8583 -0.0215  0.2513
  196MOL0     C26920   6.337   6.929   8.554  0.0731 -0.6599 -0.5530
  196MOL0     C26921   6.258   6.914   8.421  0.3858  0.2641  0.5689
  196MOL0     C26922   6.298   6.787   8.352 -1.0740  0.2312  0.2306
  196MOL0     C26923   6.215   6.765   8.222  0.1158 -0.0688 -0.4418
  196MOL0     C26924   6.269   6.640   8.159  0.3966  0.0255 -0.1466
  196MOL0     C26925   6.209   6.608   8.026  0.3733  0.1580 -0.6467
  196MOL0     C26926   6.081   6.526   8.025 -0.2742  0.6714  0.0655
  196MOL0     N26927   6.068   6.450   7.898 -0.9230 -0.4044  0.1349
  196MOL0     C26928   6.111   6.319   7.881  0.0101 -0.0700  0.1539
  196MOL0     C26929   6.102   6.286   7.747 -0.6565 -0.0888 -0.2828
  196MOL0     C26930   6.124   6.153   7.682  0.9682  0.7678 -0.6352
  196MOL0     C26931   6.041   6.045   7.762 -0.1893 -0.2768  0.5448
  196MOL0     C26932   6.031   5.911   7.694  0.3931 -0.2694 -0.3215
  196MOL0     C26933   5.925   5.810   7.736 -0.1686 -0.1421  0.1621
  196MOL0     O26934   5.905   5.724   7.622 -0.2701  0.6997 -0.4054
  196MOL0     C26935   6.014   5.648   7.594  0.4763  0.7127  0.3018
  196MOL0     C26936   6.069   5.554   7.675 -0.2146 -0.1044 -0.6198
  196MOL0     C26937   6.193   5.497   7.656  0.3949 -0.0450 -0.1752
  196MOL0     C26938   6.257   5.416   7.775  0.7277 -0.0660  0.5357
  196MOL0     C26939   6.260   5.526   7.534  0.8523 -0.0593  0.5271
  196MOL0     C26940   6.392   5.476   7.519  0.8294  0.6820 -0.2277
  196MOL0     O26941   6.396   5.342   7.494  0.0648  0.2971  0.1470
  196MOL0     C26942   6.522   5.292   7.467 -0.0430 -0.6231 -0.9803
  196MOL0     C26943   6.597   5.332   7.355 -0.1565 -0.3333  0.3341
  196MOL0     C26944   6.726   5.272   7.328 -0.0704 -0.0283  0.4839
  196MOL0     C26945   6.778   5.177   7.415 -0.0392 -0.0277 -1.0007
  196MOL0     O26946   6.906   5.125   7.391 -0.1131 -0.2095 -0.0897
  196MOL0     C26947   7.020   5.219   7.405 -0.1672 -1.0915 -0.9484
  196MOL0     C26948   7.152   5.157   7.433 -0.3688  0.8478  0.0557
  196MOL0     C26949   7.274   5.256   7.417 -0.7117  0.0368 -0.5312
  196MOL0     C26950   7.378   5.220   7.532  0.3697 -0.1911 -0.0476
  196MOL0     C26951   7.527   5.227   7.495  0.4740  0.3761  0.7682
  196MOL0     C26952   7.564   5.367   7.445  0.2908 -0.5696 -0.3950
  196MOL0     C26953   7.551   5.481   7.551 -1.0443 -0.1076  0.0977
  196MOL0     C26954   7.659   5.584   7.541  0.8031 -0.3948  0.6190
  196MOL0    Cl26955   7.806   5.504   7.593 -0.0757  0.4517 -0.3780
  196MOL0     C26956   6.694   5.129   7.518  0.1639  0.9664  0.2436
  196MOL0     C26957   6.572   5.192   7.551  0.0908  0.2336 -0.1699
  196MOL0     O26958   6.477   5.555   7.541 -0.8712  0.7673 -0.1984
  196MOL0     C26959   6.193   5.607   7.432 -0.9675  0.4677  0.7344
  196MOL0     C26960   6.075   5.669   7.469 -0.4798 -0.3708  0.4234
  196MOL0     N26961   6.064   6.397   7.678  0.2280 -0.0292 -0.3706
  196MOL0     N26962   6.048   6.496   7.765  0.7745 -0.6355  0.0582
  196MOL0     C26963   6.521   7.335   8.583  0.3160 -0.4059  0.2378
  196MOL0     C26964   6.543   7.463   8.645  0.8901  0.1678  0.8729
  196MOL0     C26965   6.560   7.842   8.865  0.4505 -0.5575 -0.2167
  196MOL0     C26966   6.673   7.922   8.856 -0.7116 -0.5655  0.2199
  196MOL0     C26967   6.690   8.040   8.931 -0.4678  0.3814  0.3005
  196MOL0     C26968   6.571   8.088   8.996  0.2069  0.5841 -0.7789
  196MOL0     O26969   6.558   8.211   9.059 -0.7253 -0.8948 -0.4468
  196MOL0     C26970   6.661   8.309   9.024  0.5846 -0.6585  0.7405
  196MOL0     C26971   6.625   8.446   9.078 -0.4568 -0.1968  0.1130
  196MOL0     C26972   6.524   8.515   8.987 -1.0741 -0.2997 -1.3761
  196MOL0     C26973   6.507   8.671   9.027 -0.2725  0.3819  0.6827
  196MOL0     C26974   6.426   8.677   9.150  0.9249  0.6638  0.1263
  196MOL0     C26975   6.368   8.698   9.254 -0.1919  0.7074  0.3251
  196MOL0     C26976   6.461   8.006   9.014  0.1030 -0.4859  0.5775
  196MOL0     C26977   6.451   7.882   8.953  0.3048 -0.4511  0.2275
  196MOL0     C26978   6.328   7.796   8.985  0.7689 -0.0629  0.3560
  196MOL0     H26979   6.257   7.481   8.842  0.2441  1.6394  0.0175
  196MOL0     H26980   6.222   7.265   8.740 -1.3250  1.8823  1.1190
  196MOL0     H26981   6.192   7.088   8.603 -0.5154  2.4812  1.7960
  196MOL0     H26982   6.318   7.060   8.722  1.1002  1.4021 -0.0347
  196MOL0     H26983   6.444   6.922   8.531 -0.1185 -4.6523 -0.9728
  196MOL0     H26984   6.304   6.856   8.628  0.2308 -2.1483 -1.8968
  196MOL0     H26985   6.153   6.902   8.449 -0.5313 -0.0402 -2.5663
  196MOL0     H26986   6.263   7.005   8.360  0.4672  0.9797  1.6316
  196MOL0     H26987   6.407   6.791   8.340 -1.0200  2.9433  0.9728
  196MOL0     H26988   6.272   6.709   8.424 -2.6270  0.0119 -0.5234
  196MOL0     H26989   6.237   6.854   8.163  1.3390  0.5585  0.8980
  196MOL0     H26990   6.108   6.755   8.244  0.2977 -2.4109 -0.2862
  196MOL0     H26991   6.378   6.647   8.151  0.4942 -1.8425 -1.0235
  196MOL0     H26992   6.251   6.555   8.225 -1.7457  0.8981  0.4708
  196MOL0     H26993   6.273   6.535   7.973 -1.1184 -1.3192 -0.5022
  196MOL0     H26994   6.214   6.698   7.964  0.2340  2.0386  1.9122
  196MOL0     H26995   6.078   6.452   8.105  0.7442  1.2752  0.6933
  196MOL0     H26996   5.990   6.585   8.039 -1.8374 -1.7239  0.4319
  196MOL0     H26997   6.149   6.249   7.954 -1.7823 -1.3315 -0.0688
  196MOL0     H26998   6.231   6.128   7.688  1.2965  1.5029 -2.7524
  196MOL0     H26999   6.096   6.169   7.578  0.9265  1.3748 -0.5318
  196MOL0     H27000   6.084   6.044   7.863  1.6969  1.9123 -0.1367
  196MOL0     H27001   5.941   6.085   7.781 -2.6000 -4.3988 -2.0750
  196MOL0     H27002   6.007   5.926   7.588 -1.2692 -0.9032 -0.0552
  196MOL0     H27003   6.129   5.864   7.707  0.6050 -0.3163 -1.8320
  196MOL0     H27004   5.955   5.745   7.819  0.8324 -1.3198 -1.0917
  196MOL0     H27005   5.829   5.855   7.765  0.0986  1.5086 -1.3539
  196MOL0     H27006   6.022   5.534   7.770  0.0102  2.6018  0.1433
  196MOL0     H27007   6.327   5.337   7.744  2.0160  1.0344  0.5624
  196MOL0     H27008   6.178   5.366   7.833 -1.5567 -2.0774 -3.7880
  196MOL0     H27009   6.322   5.482   7.833  0.7192  1.4312 -1.0947
  196MOL0     H27010   6.557   5.409   7.290  0.6429  1.1839  1.5762
  196MOL0     H27011   6.763   5.290   7.228  0.6812 -0.1150  0.7383
  196MOL0     H27012   7.025   5.278   7.313 -1.9326 -1.1906 -1.1438
  196MOL0     H27013   7.005   5.288   7.489  1.6850 -1.1861 -0.5003
  196MOL0     H27014   7.155   5.114   7.534  2.7635  4.0570  1.5682
  196MOL0     H27015   7.165   5.079   7.358 -1.3683 -1.3880  2.0857
  196MOL0     H27016   7.247   5.361   7.430  0.0749  0.1442  0.3489
  196MOL0     H27017   7.322   5.247   7.319  2.2908 -1.6452  0.9601
  196MOL0     H27018   7.354   5.120   7.570  2.7989 -1.3216 -1.2668
  196MOL0     H27019   7.359   5.278   7.623 -4.6092 -1.7364  0.1855
  196MOL0     H27020   7.591   5.190   7.575 -0.2891 -0.2006  1.1105
  196MOL0     H27021   7.530   5.156   7.411 -1.6090  0.4447  0.5873
  196MOL0     H27022   7.507   5.380   7.353 -4.5290 -2.0964  2.0330
  196MOL0     H27023   7.667   5.365   7.409 -0.5098  0.8149 -3.0032
  196MOL0     H27024   7.564   5.438   7.650  3.6579 -1.0070 -0.6802
  196MOL0     H27025   7.458   5.539   7.538 -1.4300 -0.9663 -1.2001
  196MOL0     H27026   7.634   5.672   7.601  1.7818  0.0912  0.3287
  196MOL0     H27027   7.676   5.609   7.435  1.2422 -2.7826  0.0667
  196MOL0     H27028   6.730   5.040   7.569  0.0386  0.5330 -0.4071
  196MOL0     H27029   6.520   5.158   7.640  2.6070 -1.2132  0.8603
  196MOL0     H27030   6.240   5.604   7.334  3.3169  1.5849  2.5590
  196MOL0     H27031   6.018   5.716   7.390 -0.3986 -0.8205  0.0916
  196MOL0     H27032   6.599   7.291   8.522  2.2183 -0.6732  2.6841
  196MOL0     H27033   6.631   7.521   8.617 -0.9755  1.4415 -2.9491
  196MOL0     H27034   6.754   7.886   8.793  1.5043 -0.0878  2.6337
  196MOL0     H27035   6.782   8.096   8.923  0.3667 -0.8077  1.1151
  196MOL0     H27036   6.757   8.283   9.068  0.5385 -1.0231  0.6291
  196MOL0     H27037   6.677   8.311   8.915  0.9155  2.2001  0.7601
  196MOL0     H27038   6.717   8.505   9.080 -0.4627 -0.0727  3.3112
  196MOL0     H27039   6.575   8.442   9.175 -2.6310 -1.6352 -1.0041
  196MOL0     H27040   6.574   8.520   8.890 -2.2379  0.1501 -1.9705
  196MOL0     H27041   6.430   8.459   8.982 -0.5704 -1.1831 -1.2677
  196MOL0     H27042   6.456   8.717   8.942  1.3072  2.3820  0.7160
  196MOL0     H27043   6.607   8.713   9.044 -0.3091  0.4616  0.7016
  196MOL0     H27044   6.318   8.716   9.347 -0.9076 -1.2727  0.3626
  196MOL0     H27045   6.381   8.053   9.069  1.3384  2.0062  0.4046
  196MOL0     H27046   6.264   7.849   9.055  1.1828 -1.1306  1.5818
  196MOL0     H27047   6.262   7.766   8.903 -0.1739  4.1470 -0.6637
  196MOL0     H27048   6.357   7.706   9.041 -0.6881  1.0827  3.1152
  197MOL0     O27049   5.863   4.279   2.276  0.1947 -0.7693  1.0805
  197MOL0     C27050   5.964   4.347   2.253  0.1462 -0.0052  0.1196
  197MOL0     O27051   6.096   4.294   2.242 -0.3128 -0.8872 -0.0038
  197MOL0     C27052   6.114   4.157   2.260 -0.1173 -1.0391 -0.1593
  197MOL0     C27053   6.116   4.096   2.384 -0.0384  0.0065 -0.0349
  197MOL0     C27054   6.121   3.956   2.399 -0.2785  0.1085  0.5162
  197MOL0     C27055   6.132   3.870   2.290 -0.3595 -0.3791 -0.6577
  197MOL0     O27056   6.143   3.738   2.288  0.7927  0.6083  0.2978
  197MOL0     C27057   6.185   3.675   2.406 -0.8727  0.6791 -0.2677
  197MOL0     C27058   6.189   3.522   2.375  0.0485  0.2729 -0.6336
  197MOL0     C27059   6.230   3.431   2.499 -0.1505 -1.0101 -0.3066
  197MOL0     C27060   6.206   3.289   2.464  0.5124 -0.3753 -0.5752
  197MOL0     C27061   6.174   3.189   2.579  0.1498  0.2901  0.4816
  197MOL0     C27062   6.274   3.169   2.695 -0.5454 -0.7098 -0.1028
  197MOL0     C27063   6.240   3.048   2.780  0.5458 -0.4456 -1.3266
  197MOL0     C27064   6.363   3.025   2.863 -0.2740  0.2445  0.3866
  197MOL0     N27065   6.363   2.919   2.960  0.3742 -0.6821 -0.5389
  197MOL0     C27066   6.289   2.916   3.075 -0.0957 -0.0597 -0.3072
  197MOL0     C27067   6.364   2.860   3.173  0.4875  0.1553  0.8281
  197MOL0     C27068   6.321   2.836   3.321  0.3818 -0.0577  1.2763
  197MOL0     C27069   6.444   2.818   3.420  0.4613 -0.2510 -0.2910
  197MOL0     C27070   6.535   2.946   3.425  0.4004  0.4403 -0.2741
  197MOL0     C27071   6.555   2.982   3.566  0.1934  0.5825 -0.8672
  197MOL0     O27072   6.436   3.053   3.604  0.5888  0.2615 -0.5341
  197MOL0     C27073   6.439   3.186   3.629 -0.4476 -1.3171 -0.5397
  197MOL0     C27074   6.337   3.240   3.707 -0.2074  0.1496 -0.0567
  197MOL0     C27075   6.323   3.369   3.726 -0.4684 -0.3130 -0.2749
  197MOL0     C27076   6.197   3.400   3.802  0.1041 -0.3639 -0.0764
  197MOL0     C27077   6.421   3.466   3.679 -0.3866 -0.2086 -0.8592
  197MOL0     C27078   6.438   3.615   3.702 -0.2401 -0.6773  1.1576
  197MOL0     O27079   6.338   3.668   3.771  0.7613  0.4140 -1.0395
  197MOL0     C27080   6.337   3.804   3.792 -0.6044  0.0521  0.8781
  197MOL0     C27081   6.367   3.863   3.913  0.5351 -1.1358 -0.0434
  197MOL0     C27082   6.369   4.006   3.927  0.2629 -0.0747  0.1639
  197MOL0     C27083   6.323   4.078   3.819  0.1152 -0.0063 -0.0180
  197MOL0     O27084   6.340   4.209   3.829  0.1564  0.1675 -0.2892
  197MOL0     C27085   6.237   4.299   3.787 -1.2924 -0.2304 -0.4703
  197MOL0     C27086   6.293   4.439   3.820  0.0176  0.1558  0.2307
  197MOL0     C27087   6.202   4.567   3.812  0.0753 -0.4934 -0.8042
  197MOL0     C27088   6.262   4.687   3.894 -0.1068 -0.8722  0.1077
  197MOL0     C27089   6.179   4.816   3.888  0.4486  0.1428 -0.0103
  197MOL0     C27090   6.205   4.895   3.758  0.4055  0.4826 -0.5258
  197MOL0     C27091   6.080   4.970   3.722  0.3165 -0.6439 -0.2750
  197MOL0     C27092   6.081   5.036   3.585  0.3938 -0.2405  0.2827
  197MOL0    Cl27093   5.936   5.150   3.584  0.4285  0.0850 -0.4330
  197MOL0     C27094   6.289   4.017   3.696  0.3584  0.3074  0.1569
  197MOL0     C27095   6.301   3.880   3.688  0.4054  0.2556 -0.7453
  197MOL0     O27096   6.528   3.680   3.644  0.3305  0.4788 -0.8853
  197MOL0     C27097   6.524   3.416   3.604  0.4881 -0.1119  1.1070
  197MOL0     C27098   6.532   3.277   3.576 -0.6249 -0.0863  0.2869
  197MOL0     N27099   6.483   2.824   3.115  0.4420  0.6923  0.0696
  197MOL0     N27100   6.472   2.852   2.986  0.1440 -0.6245 -1.0362
  197MOL0     C27101   6.122   3.933   2.165 -1.5162  0.3989 -0.9568
  197MOL0     C27102   6.121   4.073   2.147 -0.1218  0.1827 -0.0636
  197MOL0     C27103   5.951   4.492   2.247  0.3310 -0.8494 -0.6616
  197MOL0     C27104   5.888   4.574   2.344 -0.1707 -0.4115  0.1254
  197MOL0     C27105   5.907   4.712   2.348 -0.4646  0.2007 -0.5120
  197MOL0     C27106   5.985   4.775   2.256  0.3180 -0.0176  0.1785
  197MOL0     O27107   6.016   4.909   2.292  0.2844  0.8103 -0.1063
  197MOL0     C27108   6.127   4.977   2.232  0.0618  0.8131 -0.6355
  197MOL0     C27109   6.157   5.106   2.308  0.2819  0.6345 -0.0236
  197MOL0     C27110   6.074   5.205   2.247  0.7700  0.0383 -0.5347
  197MOL0     C27111   5.928   5.209   2.277  0.2354 -0.0047 -0.0028
  197MOL0     C27112   5.882   5.347   2.280  0.0881  0.7923  0.6899
  197MOL0     C27113   5.860   5.466   2.288  0.3758  0.2305  0.9196
  197MOL0     C27114   6.022   4.702   2.139 -0.2393  1.3083  0.1405
  197MOL0     C27115   6.005   4.558   2.134 -0.9200  0.6960 -0.7254
  197MOL0     C27116   6.050   4.479   2.016 -0.3140 -0.0963  0.7142
  197MOL0     H27117   6.105   4.151   2.477  0.7072 -0.3419  0.2697
  197MOL0     H27118   6.124   3.910   2.497  1.9907  1.6768  1.2617
  197MOL0     H27119   6.129   3.691   2.498 -1.8036  1.1114 -0.8868
  197MOL0     H27120   6.291   3.699   2.424 -0.3152 -0.1876 -2.1460
  197MOL0     H27121   6.087   3.495   2.345  0.4438  0.2923 -2.0591
  197MOL0     H27122   6.258   3.498   2.293  0.8053 -1.3414  0.4288
  197MOL0     H27123   6.336   3.438   2.524 -0.4841 -0.3682  1.0397
  197MOL0     H27124   6.177   3.473   2.585  2.8932 -2.6605  2.6205
  197MOL0     H27125   6.123   3.285   2.393  0.4802  0.4291 -0.5897
  197MOL0     H27126   6.289   3.256   2.400  0.0314  0.4787 -1.6864
  197MOL0     H27127   6.150   3.093   2.532  0.6787  1.3388 -2.0509
  197MOL0     H27128   6.075   3.221   2.613 -0.5069 -0.5686 -0.5466
  197MOL0     H27129   6.377   3.161   2.659 -1.2539  1.1327 -2.9120
  197MOL0     H27130   6.266   3.255   2.763 -3.7020 -1.1036  0.1725
  197MOL0     H27131   6.201   2.968   2.717 -1.4224  0.7962 -1.8009
  197MOL0     H27132   6.153   3.070   2.844  0.5766  0.0409 -1.4500
  197MOL0     H27133   6.441   2.988   2.796 -2.2943 -2.1639 -0.8049
  197MOL0     H27134   6.395   3.119   2.910 -3.1560  1.3227  0.3610
  197MOL0     H27135   6.190   2.957   3.090  0.2395  0.5455  0.3317
  197MOL0     H27136   6.265   2.742   3.316  1.8508 -1.0044  1.8759
  197MOL0     H27137   6.262   2.919   3.362  0.3271  0.1710  0.7380
  197MOL0     H27138   6.396   2.816   3.517  0.9043  1.4803 -0.0098
  197MOL0     H27139   6.494   2.721   3.406 -1.3751 -1.0430 -1.7752
  197MOL0     H27140   6.632   2.928   3.378 -0.6556 -0.7677 -2.1196
  197MOL0     H27141   6.486   3.031   3.376  2.9713  2.1308 -0.0765
  197MOL0     H27142   6.576   2.901   3.636 -0.7303 -0.9177 -2.2687
  197MOL0     H27143   6.642   3.047   3.580 -0.6981  1.1948  3.0734
  197MOL0     H27144   6.270   3.166   3.749 -2.6903  2.4045  0.2162
  197MOL0     H27145   6.132   3.315   3.822 -2.2257  1.6520  1.4147
  197MOL0     H27146   6.138   3.467   3.739 -1.2403 -0.7358  0.7707
  197MOL0     H27147   6.222   3.442   3.900 -1.7963 -0.7783  0.6122
  197MOL0     H27148   6.396   3.789   3.988 -0.1507 -2.4801 -1.0687
  197MOL0     H27149   6.407   4.056   4.015 -2.6247  0.0945  1.4173
  197MOL0     H27150   6.218   4.288   3.680 -1.1537 -0.4498 -0.4745
  197MOL0     H27151   6.151   4.267   3.847 -1.5087  2.2727  0.6658
  197MOL0     H27152   6.340   4.436   3.918  5.3151 -0.1615 -1.9802
  197MOL0     H27153   6.374   4.460   3.749  0.6352  2.2823  1.4895
  197MOL0     H27154   6.099   4.547   3.843  1.0405 -0.2629  3.1091
  197MOL0     H27155   6.202   4.599   3.707 -2.1612  1.8831 -0.1656
  197MOL0     H27156   6.357   4.718   3.848 -0.4017 -1.9872 -1.3238
  197MOL0     H27157   6.280   4.664   3.999  2.4805  0.1859 -0.0269
  197MOL0     H27158   6.076   4.780   3.903  0.1782  1.5037  1.7834
  197MOL0     H27159   6.203   4.882   3.973 -1.5594  1.5473 -0.4533
  197MOL0     H27160   6.229   4.825   3.677  0.6137 -1.5272  1.1780
  197MOL0     H27161   6.288   4.966   3.760 -0.0551  1.0194  0.3849
  197MOL0     H27162   6.075   5.059   3.786 -1.2256 -0.6987 -0.2768
  197MOL0     H27163   5.986   4.914   3.728 -0.0707 -0.0175 -0.4269
  197MOL0     H27164   6.084   4.971   3.497  0.6763  1.9167 -1.3852
  197MOL0     H27165   6.178   5.087   3.579  1.8221 -2.6194  1.3120
  197MOL0     H27166   6.254   4.070   3.608  3.2989  0.9828 -0.7439
  197MOL0     H27167   6.272   3.836   3.593 -0.4722 -3.0559  0.9269
  197MOL0     H27168   6.611   3.472   3.570  0.9087 -1.2987  0.1521
  197MOL0     H27169   6.597   3.253   3.492 -0.9411 -1.3273  0.3751
  197MOL0     H27170   6.112   3.871   2.076 -0.5978  0.2394 -0.9651
  197MOL0     H27171   6.105   4.105   2.045  1.1197  0.7450 -0.0930
  197MOL0     H27172   5.852   4.537   2.440  2.1005  0.6118  1.4731
  197MOL0     H27173   5.875   4.772   2.433 -1.0541 -0.7075 -0.0811
  197MOL0     H27174   6.209   4.909   2.257  0.0815  1.3189  0.7325
  197MOL0     H27175   6.121   4.998   2.125  3.4856  2.6120 -0.6148
  197MOL0     H27176   6.263   5.128   2.294  0.1364  0.6430 -1.2098
  197MOL0     H27177   6.129   5.073   2.409  0.4916 -1.7111 -0.6672
  197MOL0     H27178   6.112   5.297   2.292 -2.0563  0.7452  0.5894
  197MOL0     H27179   6.106   5.209   2.143  2.2132 -0.6376 -0.1514
  197MOL0     H27180   5.895   5.152   2.365 -1.1243  0.3057 -0.2940
  197MOL0     H27181   5.885   5.158   2.191 -1.6913 -2.4307  2.2400
  197MOL0     H27182   5.853   5.572   2.275 -2.3604 -0.0656 -0.8562
  197MOL0     H27183   6.076   4.747   2.056 -0.1020  1.7731  0.4810
  197MOL0     H27184   6.020   4.379   1.986  1.5807 -0.9255  1.4650
  197MOL0     H27185   6.043   4.531   1.920 -0.6873 -2.1623 -0.4316
  197MOL0     H27186   6.157   4.468   2.034 -0.5296 -0.6994  1.6633
  198MOL0     O27187   6.907   6.632   9.605 -0.0164 -0.1044  0.1795
  198MOL0     C27188   6.965   6.735   9.581 -0.2906  0.2002 -1.3448
  198MOL0     O27189   7.019   6.820   9.680 -0.1228 -0.7358 -0.1444
  198MOL0     C27190   6.978   6.801   9.811  0.0302  0.1596  1.0447
  198MOL0     C27191   6.855   6.853   9.842  1.4404  0.2750  0.0960
  198MOL0     C27192   6.799   6.834   9.971 -0.2915 -0.1707 -0.9763
  198MOL0     C27193   6.881   6.783  10.076  0.8080  0.4174 -0.1149
  198MOL0     O27194   6.841   6.752  10.206 -1.1576 -0.7104  0.4992
  198MOL0     C27195   6.710   6.788  10.246 -0.1069  0.6046  0.7391
  198MOL0     C27196   6.693   6.775  10.394 -1.1377  0.0642 -0.2940
  198MOL0     C27197   6.558   6.809  10.449  0.5915  0.4364  0.9365
  198MOL0     C27198   6.537   6.719  10.577  0.9696 -0.6407  0.2714
  198MOL0     C27199   6.405   6.753  10.650 -0.2604 -0.3396 -0.5391
  198MOL0     C27200   6.401   6.679  10.783 -0.5459  0.4256 -0.0446
  198MOL0     C27201   6.347   6.535  10.769  0.8560  0.4219 -0.8892
  198MOL0     C27202   6.359   6.467  10.908  0.0607 -0.8771  0.1903
  198MOL0     N27203   6.286   6.339  10.910  0.3159  0.5118  0.3421
  198MOL0     C27204   6.166   6.310  10.846 -0.9332  0.8786 -0.0775
  198MOL0     C27205   6.166   6.180  10.835 -0.7352  0.6734  0.9789
  198MOL0     C27206   6.059   6.111  10.768  1.2281 -0.5050  0.3579
  198MOL0     C27207   6.065   5.961  10.765 -0.0677 -0.2422  0.1785
  198MOL0     C27208   5.977   5.906  10.658 -0.6040 -0.5010  0.7538
  198MOL0     C27209   5.975   5.753  10.646  0.0660 -1.1776 -0.1495
  198MOL0     O27210   6.100   5.695  10.631 -0.0505 -0.8172  0.3472
  198MOL0     C27211   6.115   5.560  10.627  1.1452  0.3935 -0.2417
  198MOL0     C27212   6.233   5.523  10.567  0.4505  0.8966 -0.0131
  198MOL0     C27213   6.263   5.390  10.544  0.2873 -1.0550 -0.7399
  198MOL0     C27214   6.387   5.374  10.466 -0.0204 -0.5041  0.6031
  198MOL0     C27215   6.182   5.290  10.595  0.9211 -0.3641  0.5249
  198MOL0     C27216   6.202   5.138  10.571 -0.5044 -1.0960 -0.4580
  198MOL0     O27217   6.174   5.064  10.685 -0.7172 -0.3416  0.1701
  198MOL0     C27218   6.152   4.927  10.671 -0.3682 -0.3995 -0.0509
  198MOL0     C27219   6.230   4.844  10.599  0.0988  0.1679 -0.0083
  198MOL0     C27220   6.189   4.714  10.576  0.4869 -0.6127  0.3999
  198MOL0     C27221   6.057   4.671  10.615 -0.0857  0.0693  1.0071
  198MOL0     O27222   6.015   4.543  10.573 -0.4324 -0.5038  0.0380
  198MOL0     C27223   5.884   4.516  10.548 -0.4019  0.5185  0.0664
  198MOL0     C27224   5.833   4.422  10.666  0.1471 -0.2701  0.2089
  198MOL0     C27225   5.905   4.286  10.691 -0.0925 -0.7535  0.8464
  198MOL0     C27226   6.031   4.316  10.773 -0.6456  1.2650  0.5536
  198MOL0     C27227   6.011   4.372  10.920  0.2845  0.1673 -0.2600
  198MOL0     C27228   6.127   4.359  11.011 -0.5389  0.2448  0.3604
  198MOL0     C27229   6.108   4.453  11.131 -0.7850 -0.2814 -0.8949
  198MOL0     C27230   6.220   4.566  11.144 -0.9970  0.0333 -0.2902
  198MOL0    Cl27231   6.204   4.651  11.312 -0.4323  0.0445  0.2470
  198MOL0     C27232   5.994   4.743  10.700 -0.0761 -0.0820 -0.6566
  198MOL0     C27233   6.033   4.879  10.724 -0.2557  0.1190 -0.0774
  198MOL0     O27234   6.225   5.098  10.461 -0.1174  0.3505  0.5137
  198MOL0     C27235   6.075   5.332  10.679 -0.3151 -0.9921 -0.7457
  198MOL0     C27236   6.039   5.468  10.698  0.3246 -0.3289 -0.3033
  198MOL0     N27237   6.264   6.127  10.911 -0.9224 -0.3609 -0.2706
  198MOL0     N27238   6.345   6.222  10.951  0.3022 -0.0754 -0.3895
  198MOL0     C27239   7.015   6.756  10.034 -0.7398  0.6620 -0.4981
  198MOL0     C27240   7.064   6.756   9.906 -0.9048  0.9764  0.5719
  198MOL0     C27241   6.966   6.784   9.447 -0.1798 -0.1495  0.5213
  198MOL0     C27242   7.001   6.921   9.428  0.1232  0.3068 -0.7029
  198MOL0     C27243   7.039   6.969   9.306  0.8233 -0.1193 -0.6190
  198MOL0     C27244   7.053   6.890   9.200  0.8813  0.4288  0.0366
  198MOL0     O27245   7.119   6.933   9.084  0.0641  0.0968  0.3834
  198MOL0     C27246   7.075   6.877   8.963 -0.5987 -0.0603  0.2730
  198MOL0     C27247   7.110   6.963   8.840 -0.1382  0.3450  0.6991
  198MOL0     C27248   7.232   7.047   8.856 -0.8760 -0.4181 -0.5074
  198MOL0     C27249   7.286   7.105   8.724  0.5121  0.3364 -0.3490
  198MOL0     C27250   7.367   7.024   8.637  0.3220 -0.2359  0.7687
  198MOL0     C27251   7.443   6.958   8.568  0.6094 -1.3061  0.7532
  198MOL0     C27252   7.001   6.759   9.215  0.2903  0.1430 -0.1011
  198MOL0     C27253   6.952   6.702   9.329 -0.3206 -0.5093  0.1234
  198MOL0     C27254   6.936   6.556   9.319  0.4398  0.5407  0.6204
  198MOL0     H27255   6.808   6.914   9.765 -1.0893 -2.2231 -0.5089
  198MOL0     H27256   6.691   6.850   9.975 -0.6626 -2.4720  0.3804
  198MOL0     H27257   6.642   6.725  10.188 -1.2312  1.9380  0.5548
  198MOL0     H27258   6.690   6.890  10.211 -0.0923  0.5972  0.7100
  198MOL0     H27259   6.721   6.673  10.423 -1.9729  0.8008  3.6299
  198MOL0     H27260   6.766   6.844  10.436 -0.8085  0.3470 -1.2981
  198MOL0     H27261   6.552   6.912  10.485  2.6588  1.1094 -0.4327
  198MOL0     H27262   6.484   6.781  10.373  1.0426  1.7577 -0.0189
  198MOL0     H27263   6.542   6.613  10.549 -0.5051 -0.8683  0.7614
  198MOL0     H27264   6.619   6.729  10.650  1.0604  0.4640  0.0342
  198MOL0     H27265   6.318   6.739  10.586 -0.4730  1.8402 -0.8135
  198MOL0     H27266   6.419   6.858  10.680 -0.8169 -0.8337  1.6586
  198MOL0     H27267   6.504   6.677  10.822 -0.7765 -0.9422  0.5193
  198MOL0     H27268   6.340   6.726  10.861  1.7910 -0.9857  2.8669
  198MOL0     H27269   6.414   6.487  10.697  3.7459  3.2692 -0.3177
  198MOL0     H27270   6.243   6.538  10.736  0.4385 -0.1712  0.2948
  198MOL0     H27271   6.465   6.451  10.931  0.5867  0.5145 -1.1417
  198MOL0     H27272   6.317   6.542  10.975  0.3172  0.9913 -1.6332
  198MOL0     H27273   6.099   6.382  10.799 -0.5578  3.7835  3.3938
  198MOL0     H27274   6.058   6.145  10.664  1.9760  0.3529  0.6230
  198MOL0     H27275   5.964   6.131  10.820  1.0475 -2.8609  1.0983
  198MOL0     H27276   6.171   5.938  10.750  0.2090  2.4613 -3.4384
  198MOL0     H27277   6.028   5.931  10.863  1.6954  1.5255  1.4550
  198MOL0     H27278   5.874   5.928  10.688 -0.8560  1.5819 -1.3046
  198MOL0     H27279   5.996   5.948  10.559  0.3216 -0.0462  1.1124
  198MOL0     H27280   5.908   5.719  10.725 -1.4426  0.6421 -0.5593
  198MOL0     H27281   5.906   5.737  10.563 -0.7930  0.0193  0.3015
  198MOL0     H27282   6.289   5.603  10.519 -1.5754  3.7687  2.1268
  198MOL0     H27283   6.370   5.387  10.359 -0.7448  0.3271  0.8086
  198MOL0     H27284   6.432   5.275  10.472 -2.4911 -1.7021  0.5279
  198MOL0     H27285   6.472   5.440  10.485  0.4540  0.0292 -2.6823
  198MOL0     H27286   6.326   4.883  10.566  0.6455  0.8322  2.2188
  198MOL0     H27287   6.241   4.645  10.509  0.6660  0.4886 -0.6270
  198MOL0     H27288   5.825   4.604  10.517  0.9165  1.7237  0.8725
  198MOL0     H27289   5.876   4.445  10.465  1.4550 -0.6778  0.8705
  198MOL0     H27290   5.812   4.488  10.751 -2.0992 -2.3611  1.4149
  198MOL0     H27291   5.732   4.392  10.637  0.2014  1.3082 -1.8377
  198MOL0     H27292   5.921   4.259  10.586 -0.5253 -0.7561  0.7767
  198MOL0     H27293   5.844   4.210  10.740 -1.6525 -0.4881 -0.5877
  198MOL0     H27294   6.108   4.380  10.729  1.2518 -0.3243  1.4142
  198MOL0     H27295   6.075   4.216  10.784 -0.2121  1.0844 -2.0048
  198MOL0     H27296   5.978   4.476  10.914 -2.4468 -0.6282 -0.5322
  198MOL0     H27297   5.932   4.309  10.963 -1.0425  1.7924 -0.2240
  198MOL0     H27298   6.223   4.379  10.962 -2.3307 -0.6876 -4.0093
  198MOL0     H27299   6.129   4.260  11.059 -1.1439 -0.4116 -0.8905
  198MOL0     H27300   6.116   4.398  11.225  1.4437 -1.1549 -1.5494
  198MOL0     H27301   6.016   4.513  11.135 -0.3771  0.3303  3.3750
  198MOL0     H27302   6.212   4.634  11.058  2.0551 -0.0216 -0.6993
  198MOL0     H27303   6.318   4.522  11.126 -0.9636 -0.4361  0.9276
  198MOL0     H27304   5.899   4.717  10.745 -1.1978 -0.0936 -2.9313
  198MOL0     H27305   5.980   4.940  10.796 -0.4559  1.3633 -1.2516
  198MOL0     H27306   6.026   5.245  10.722 -1.4366  1.1947  2.8322
  198MOL0     H27307   5.952   5.492  10.758  1.0952 -0.2877  0.8327
  198MOL0     H27308   7.079   6.720  10.115  2.8591 -0.2070 -3.4473
  198MOL0     H27309   7.162   6.715   9.886 -1.3060  0.9874 -1.6121
  198MOL0     H27310   7.007   6.992   9.510  0.3774  2.1507 -2.2411
  198MOL0     H27311   7.062   7.075   9.296 -1.5355  0.6861  1.2769
  198MOL0     H27312   7.117   6.777   8.947 -2.4789 -0.8082 -0.1868
  198MOL0     H27313   6.967   6.865   8.967 -0.6145 -2.2520 -2.8782
  198MOL0     H27314   7.018   7.021   8.826 -0.5157 -0.7270 -1.7989
  198MOL0     H27315   7.129   6.888   8.763  2.5779 -0.2611  1.8431
  198MOL0     H27316   7.209   7.118   8.936  1.1758 -1.1415  0.8096
  198MOL0     H27317   7.317   6.990   8.894  1.2547  2.5446 -0.5352
  198MOL0     H27318   7.351   7.189   8.750 -0.5611  1.6845 -1.7920
  198MOL0     H27319   7.198   7.148   8.674 -0.3900 -0.2340  0.7243
  198MOL0     H27320   7.515   6.911   8.504  2.1789 -1.0260  2.2315
  198MOL0     H27321   7.023   6.695   9.131 -0.0491 -2.1655  1.4662
  198MOL0     H27322   6.869   6.537   9.235  2.2793  0.6968 -0.9446
  198MOL0     H27323   7.035   6.511   9.310 -0.7042 -2.0252 -0.2375
  198MOL0     H27324   6.887   6.511   9.407  1.5530 -0.9483  0.5135
  199MOL0     O27325  11.001   9.905   2.801  0.8713 -0.5678  0.5978
  199MOL0     C27326  11.028   9.785   2.815  0.3131  0.4845  0.2018
  199MOL0     O27327  11.144   9.716   2.784  1.3119 -1.5156  0.2046
  199MOL0     C27328  11.213   9.784   2.695 -0.3022 -0.2381 -0.4962
  199MOL0     C27329  11.306   9.876   2.729 -0.2963 -0.4281  0.0513
  199MOL0     C27330  11.388   9.938   2.637  0.4563  0.1809  0.1572
  199MOL0     C27331  11.359   9.915   2.503 -0.5271 -1.9122 -0.1982
  199MOL0     O27332  11.435   9.983   2.418  0.0526 -0.3323 -0.4417
  199MOL0     C27333  11.374  10.042   2.301 -0.1339  0.1481  1.0321
  199MOL0     C27334  11.478  10.118   2.216 -0.4682 -0.1264 -0.1275
  199MOL0     C27335  11.551  10.227   2.298 -0.3393 -0.4345 -0.7100
  199MOL0     C27336  11.667  10.284   2.217 -0.3125 -0.0727  0.3228
  199MOL0     C27337  11.752  10.390   2.302 -0.2306 -0.3207 -0.7791
  199MOL0     C27338  11.845  10.477   2.214  0.3458 -0.1504  1.3412
  199MOL0     C27339  11.915  10.594   2.276  0.0447 -0.2152 -0.9300
  199MOL0     C27340  12.039  10.566   2.356 -0.2287  0.3762  0.4610
  199MOL0     N27341  12.100  10.690   2.403  1.4309 -0.1018 -0.1291
  199MOL0     C27342  12.036  10.804   2.461 -0.4421 -0.1691 -0.0726
  199MOL0     C27343  12.141  10.882   2.498  0.0890  0.5682  0.3212
  199MOL0     C27344  12.118  11.006   2.579  1.0425  0.7876  0.0195
  199MOL0     C27345  12.075  10.953   2.713  0.3349 -0.9072 -0.3243
  199MOL0     C27346  12.091  11.069   2.815  0.0216 -0.3107 -0.2405
  199MOL0     C27347  12.079  11.013   2.957  0.5471  0.0888 -0.7290
  199MOL0     O27348  12.081  11.109   3.063  0.1761 -0.0060  0.3754
  199MOL0     C27349  12.092  11.059   3.188  0.8531 -0.5703  0.6542
  199MOL0     C27350  12.114  10.927   3.222 -0.2261 -0.3861  0.0999
  199MOL0     C27351  12.148  10.891   3.354 -0.1397  0.7004  0.0867
  199MOL0     C27352  12.154  10.737   3.385  0.6070 -0.1404 -0.6974
  199MOL0     C27353  12.173  10.996   3.451 -0.3031  0.1993  0.5675
  199MOL0     C27354  12.238  10.974   3.582 -0.2015  0.8157  0.0592
  199MOL0     O27355  12.204  11.064   3.675 -0.3049  0.1028  0.1067
  199MOL0     C27356  12.226  11.062   3.812 -0.4189  0.6356  0.5469
  199MOL0     C27357  12.257  11.175   3.882  0.7179 -0.1978 -0.7690
  199MOL0     C27358  12.252  11.183   4.022 -0.8777 -0.2400  0.9173
  199MOL0     C27359  12.247  11.064   4.092  0.3552  0.3077  0.2158
  199MOL0     O27360  12.291  11.093   4.217 -0.3623  1.0056 -0.4265
  199MOL0     C27361  12.322  10.983   4.307 -0.1937  0.6836 -0.8052
  199MOL0     C27362  12.402  11.040   4.426  0.0950 -0.4817 -0.0845
  199MOL0     C27363  12.475  10.946   4.516  0.6235  0.1646  0.1133
  199MOL0     C27364  12.561  11.030   4.612 -0.3130  0.5905 -0.3478
  199MOL0     C27365  12.633  10.937   4.707  0.2074  1.4679 -0.4361
  199MOL0     C27366  12.717  11.026   4.801 -1.0270 -0.3891 -0.4350
  199MOL0     C27367  12.636  11.124   4.890 -0.7542  0.8276 -0.1789
  199MOL0     C27368  12.722  11.206   4.995  0.5388 -0.9244  0.1024
  199MOL0    Cl27369  12.844  11.308   4.903 -0.1423 -0.0106 -0.2157
  199MOL0     C27370  12.240  10.943   4.021 -0.6638 -0.2079  0.0104
  199MOL0     C27371  12.226  10.940   3.883 -0.1268  0.5836  0.2374
  199MOL0     O27372  12.304  10.871   3.602 -0.1995  0.7399 -0.0830
  199MOL0     C27373  12.136  11.135   3.415 -0.4939 -0.9772  0.7937
  199MOL0     C27374  12.087  11.163   3.286  0.5717  0.4882  0.7003
  199MOL0     N27375  12.258  10.819   2.467  0.2048  0.4657  0.5585
  199MOL0     N27376  12.237  10.708   2.400  0.6145 -0.3296  0.1285
  199MOL0     C27377  11.271   9.814   2.469 -0.4893  0.3681  0.0361
  199MOL0     C27378  11.214   9.740   2.567  0.5132  0.5888  0.3464
  199MOL0     C27379  10.917   9.708   2.872  0.6025 -0.7273 -0.4995
  199MOL0     C27380  10.818   9.767   2.953 -1.0499 -1.2839 -0.8890
  199MOL0     C27381  10.725   9.689   3.015 -0.2868 -0.1261  0.2137
  199MOL0     C27382  10.712   9.552   3.001  0.6146 -0.7137 -0.0983
  199MOL0     O27383  10.613   9.499   3.081 -0.2175  0.6857 -0.1988
  199MOL0     C27384  10.568   9.365   3.040  0.1740 -0.2013  0.7277
  199MOL0     C27385  10.474   9.314   3.152  0.0366  0.8572  0.1824
  199MOL0     C27386  10.557   9.296   3.283 -0.1054 -0.0440 -0.2965
  199MOL0     C27387  10.487   9.181   3.363  2.3600  0.7094 -0.4686
  199MOL0     C27388  10.509   9.047   3.294  1.1444  0.1369 -0.2871
  199MOL0     C27389  10.530   8.937   3.247 -0.1773 -0.7423 -0.4143
  199MOL0     C27390  10.798   9.493   2.908 -0.2976  1.4012 -0.2928
  199MOL0     C27391  10.900   9.567   2.851 -0.7311 -0.3279  0.4289
  199MOL0     C27392  10.983   9.486   2.746  0.2662 -0.6761 -0.3868
  199MOL0     H27393  11.322   9.885   2.836 -0.7072  1.4069 -0.0141
  199MOL0     H27394  11.456  10.022   2.651 -0.6836  1.1153  0.2008
  199MOL0     H27395  11.304  10.122   2.326  0.2896  0.4588  1.2356
  199MOL0     H27396  11.320   9.978   2.231 -1.2633  4.0092 -2.0538
  199MOL0     H27397  11.537  10.041   2.165 -0.2536  1.2152 -1.9998
  199MOL0     H27398  11.424  10.173   2.138 -0.5921 -1.2477 -0.8499
  199MOL0     H27399  11.483  10.311   2.308 -0.3222 -0.1288 -2.7814
  199MOL0     H27400  11.581  10.182   2.393  0.0188  1.4396  0.1010
  199MOL0     H27401  11.734  10.207   2.180 -0.5911 -1.7595  3.0563
  199MOL0     H27402  11.621  10.334   2.131  0.0333 -0.1771  0.0779
  199MOL0     H27403  11.806  10.335   2.379 -4.0592 -2.0866  0.8871
  199MOL0     H27404  11.688  10.453   2.364  1.4601 -0.8388  1.6624
  199MOL0     H27405  11.915  10.418   2.154  0.6563  0.9198  0.6206
  199MOL0     H27406  11.779  10.522   2.139  4.7722  0.2690 -2.8858
  199MOL0     H27407  11.843  10.647   2.339 -0.4500 -0.4938 -1.2526
  199MOL0     H27408  11.935  10.664   2.195  1.5044  0.5299  0.0365
  199MOL0     H27409  12.013  10.511   2.447  2.3629 -0.2554  0.8880
  199MOL0     H27410  12.108  10.515   2.289  0.4704  1.8751 -0.0105
  199MOL0     H27411  11.938  10.811   2.506 -0.4525  0.2781 -0.1649
  199MOL0     H27412  12.037  11.058   2.526  1.0502  2.9742  1.9710
  199MOL0     H27413  12.192  11.083   2.603  0.7799 -0.1584  5.0737
  199MOL0     H27414  11.970  10.924   2.704  0.9369 -3.3920 -0.0554
  199MOL0     H27415  12.135  10.866   2.739  0.4464 -1.2169 -1.5437
  199MOL0     H27416  12.193  11.108   2.801  0.4943 -1.3408  0.2090
  199MOL0     H27417  12.026  11.156   2.804 -1.2572 -1.3479 -1.1209
  199MOL0     H27418  11.987  10.955   2.971  1.6817 -2.1378 -1.9124
  199MOL0     H27419  12.158  10.939   2.976  0.4160 -0.6524 -2.8638
  199MOL0     H27420  12.110  10.844   3.153 -2.6948 -0.4140  0.1670
  199MOL0     H27421  12.259  10.708   3.381  0.4031 -2.4295  3.7424
  199MOL0     H27422  12.104  10.674   3.311  2.5265 -3.2870  0.4630
  199MOL0     H27423  12.118  10.722   3.488 -2.6497  0.1405 -1.6796
  199MOL0     H27424  12.258  11.267   3.825  1.1378  0.0427 -0.3813
  199MOL0     H27425  12.276  11.279   4.067  2.7939 -0.8602  0.5552
  199MOL0     H27426  12.235  10.921   4.325  0.4226 -0.1351 -0.6037
  199MOL0     H27427  12.406  10.927   4.264 -0.4539 -2.1711  2.0691
  199MOL0     H27428  12.461  11.120   4.381 -2.4454  1.0269 -0.9605
  199MOL0     H27429  12.342  11.102   4.493  1.8373  0.3371  0.7929
  199MOL0     H27430  12.540  10.889   4.449  0.5238 -0.3910  0.4832
  199MOL0     H27431  12.403  10.887   4.572 -0.5058  0.1543 -1.2905
  199MOL0     H27432  12.508  11.113   4.661 -1.8332 -1.9028  2.6195
  199MOL0     H27433  12.640  11.082   4.558  1.0845  2.0485  2.7931
  199MOL0     H27434  12.562  10.882   4.771 -0.8503  1.5160 -1.5426
  199MOL0     H27435  12.691  10.867   4.646  2.4582  1.6003  1.3805
  199MOL0     H27436  12.786  11.082   4.738 -0.6758 -1.7271 -1.2817
  199MOL0     H27437  12.791  10.972   4.860  0.5331 -1.6255 -3.3142
  199MOL0     H27438  12.552  11.073   4.939  0.5246  0.3119  1.6036
  199MOL0     H27439  12.593  11.204   4.830  2.8887  0.6626 -3.4530
  199MOL0     H27440  12.761  11.133   5.066 -2.2094  0.1347  2.9486
  199MOL0     H27441  12.663  11.265   5.065  1.0345 -2.0340  1.5081
  199MOL0     H27442  12.268  10.854   4.077  2.5767  0.6786  0.0423
  199MOL0     H27443  12.214  10.840   3.841 -2.1198  0.7501  0.3376
  199MOL0     H27444  12.133  11.215   3.487  0.9371  1.1679 -1.3798
  199MOL0     H27445  12.036  11.254   3.257 -3.6848 -1.9762 -0.4200
  199MOL0     H27446  11.251   9.788   2.365  1.4282 -0.4952 -0.1579
  199MOL0     H27447  11.148   9.665   2.525  0.8405  1.5325 -1.9792
  199MOL0     H27448  10.815   9.875   2.955 -0.5122 -1.2591 -1.3871
  199MOL0     H27449  10.659   9.748   3.077 -0.0814  0.1213  0.1998
  199MOL0     H27450  10.525   9.386   2.941 -2.1169  0.2392  1.7556
  199MOL0     H27451  10.651   9.295   3.026  0.5391  0.2111  0.7907
  199MOL0     H27452  10.450   9.216   3.109  3.5980  0.7479 -2.0043
  199MOL0     H27453  10.385   9.376   3.163 -2.4581 -2.6943  2.1201
  199MOL0     H27454  10.662   9.273   3.264  0.4007  1.6731  0.2560
  199MOL0     H27455  10.559   9.393   3.334 -0.2822 -0.0904 -0.2027
  199MOL0     H27456  10.378   9.191   3.371  2.3419 -0.9743  3.4269
  199MOL0     H27457  10.525   9.182   3.465  1.2605 -0.2704 -0.0228
  199MOL0     H27458  10.579   8.853   3.203  1.8858  1.8713 -3.5961
  199MOL0     H27459  10.798   9.390   2.876  0.5530  1.5701 -0.8533
  199MOL0     H27460  11.014   9.537   2.654  2.5415 -0.1848  0.5988
  199MOL0     H27461  11.075   9.458   2.798  1.6829  0.3388 -2.2055
  199MOL0     H27462  10.927   9.394   2.725  0.8186 -1.5740  1.8016
  200MOL0     O27463  10.340   6.186  10.024 -0.7046 -0.2271 -0.0482
  200MOL0     C27464  10.426   6.133   9.957 -0.7172 -0.4307  0.9238
  200MOL0     O27465  10.537   6.203   9.908 -0.0221 -0.0966 -0.4551
  200MOL0     C27466  10.543   6.338   9.941  0.7387  0.0085  0.9689
  200MOL0     C27467  10.628   6.378  10.051  0.4525  0.5892  0.0311
  200MOL0     C27468  10.647   6.509  10.089  0.0515 -0.0804  0.7998
  200MOL0     C27469  10.568   6.606  10.019 -0.1693  0.1519 -0.7817
  200MOL0     O27470  10.568   6.731  10.051 -0.4707 -0.0787  0.0333
  200MOL0     C27471  10.587   6.757  10.192 -0.0516  0.0906  0.5707
  200MOL0     C27472  10.532   6.894  10.231  0.4658  0.6542 -0.3127
  200MOL0     C27473  10.603   6.973  10.338 -0.1493 -1.1147  0.2866
  200MOL0     C27474  10.559   7.114  10.368  0.1838  0.7429 -0.5484
  200MOL0     C27475  10.641   7.191  10.488 -0.0770 -0.3725  0.3068
  200MOL0     C27476  10.615   7.343  10.490  0.0330 -0.2778 -0.4833
  200MOL0     C27477  10.699   7.428  10.594 -0.2256  0.1911 -0.1135
  200MOL0     C27478  10.647   7.426  10.733 -0.5366  0.3551 -1.1440
  200MOL0     N27479  10.710   7.314  10.799 -0.7966 -0.1116 -0.2862
  200MOL0     C27480  10.838   7.331  10.860 -0.4812 -0.4056  0.4018
  200MOL0     C27481  10.838   7.241  10.970  0.3331 -0.3138  0.2249
  200MOL0     C27482  10.939   7.250  11.079  0.3966 -0.0913 -0.4821
  200MOL0     C27483  10.994   7.109  11.110 -1.2942 -0.0574 -0.0941
  200MOL0     C27484  11.102   7.102  11.221 -0.3945  0.5782 -0.0086
  200MOL0     C27485  11.044   7.167  11.347  0.8210  1.2025 -0.1680
  200MOL0     O27486  11.144   7.145  11.456  0.2170 -0.1249 -0.4860
  200MOL0     C27487  11.271   7.203  11.443 -0.2427  0.3585 -0.2180
  200MOL0     C27488  11.369   7.122  11.401 -0.3552 -0.5241  0.9243
  200MOL0     C27489  11.506   7.164  11.377  1.1758 -0.9582  0.4632
  200MOL0     C27490  11.601   7.066  11.319 -0.0341  0.1843 -0.8988
  200MOL0     C27491  11.531   7.303  11.391  0.1755 -0.3613 -0.7649
  200MOL0     C27492  11.661   7.378  11.364 -0.3906  0.8173  0.0935
  200MOL0     O27493  11.772   7.299  11.375  0.0271  0.4487  0.4021
  200MOL0     C27494  11.906   7.338  11.351  0.4589 -0.2884  0.0068
  200MOL0     C27495  11.937   7.429  11.253 -0.4892 -0.3823  0.2704
  200MOL0     C27496  12.074   7.467  11.232 -0.4192 -1.0847 -0.7992
  200MOL0     C27497  12.182   7.400  11.305  0.9503  0.1514  0.7804
  200MOL0     O27498  12.311   7.442  11.271  0.1889 -0.3693 -0.1116
  200MOL0     C27499  12.398   7.441  11.383 -0.3835 -0.8412 -0.0273
  200MOL0     C27500  12.534   7.489  11.338 -0.1587  0.3880  0.0614
  200MOL0     C27501  12.650   7.415  11.399 -0.4648 -0.5541 -0.0048
  200MOL0     C27502  12.790   7.467  11.340  0.7916  0.6516  0.3260
  200MOL0     C27503  12.908   7.389  11.395  0.0658  0.0809  0.5647
  200MOL0     C27504  13.034   7.419  11.309 -1.2876 -0.1454  0.5103
  200MOL0     C27505  13.148   7.312  11.329  0.3518 -0.7750 -0.2835
  200MOL0     C27506  13.180   7.293  11.478 -0.1073 -0.7645 -0.1623
  200MOL0    Cl27507  13.297   7.159  11.497 -0.1517 -0.2865 -0.1610
  200MOL0     C27508  12.143   7.304  11.401 -0.3974  0.2774  0.7117
  200MOL0     C27509  12.012   7.271  11.417 -0.4978 -0.2374 -0.3355
  200MOL0     O27510  11.666   7.499  11.336 -0.0655  0.3822  0.1390
  200MOL0     C27511  11.429   7.387  11.440 -0.2287 -0.2330  0.1968
  200MOL0     C27512  11.309   7.329  11.470  0.2448  0.0191 -0.2695
  200MOL0     N27513  10.719   7.161  10.968  0.1076 -0.1993 -0.5815
  200MOL0     N27514  10.643   7.209  10.874 -0.3579 -0.7713 -0.0433
  200MOL0     C27515  10.483   6.566   9.920 -0.4891  0.1179  0.4128
  200MOL0     C27516  10.468   6.440   9.886  0.5343  0.5466 -0.8210
  200MOL0     C27517  10.408   5.989   9.922 -0.2006  0.2657 -0.4712
  200MOL0     C27518  10.482   5.935   9.814  0.8182 -0.6343 -0.7620
  200MOL0     C27519  10.493   5.793   9.798  0.0809 -0.0280  0.4105
  200MOL0     C27520  10.418   5.702   9.864  0.8240  0.6306  0.3798
  200MOL0     O27521  10.405   5.566   9.854  0.4631  0.3644  0.0420
  200MOL0     C27522  10.471   5.503   9.745  0.4090 -0.1824 -0.0125
  200MOL0     C27523  10.489   5.353   9.774  0.2515 -0.0415  1.2160
  200MOL0     C27524  10.588   5.321   9.890  0.5451 -0.4402  0.2107
  200MOL0     C27525  10.740   5.344   9.853  1.0828  0.6486  0.7075
  200MOL0     C27526  10.789   5.267   9.736 -0.0892  0.1859  0.6809
  200MOL0     C27527  10.837   5.197   9.652  0.1074  0.1358 -0.2891
  200MOL0     C27528  10.337   5.761   9.960  0.8634 -0.0417 -0.5734
  200MOL0     C27529  10.330   5.895   9.990  0.3739 -0.6048 -0.7272
  200MOL0     C27530  10.225   5.918  10.101 -0.4999 -0.0060  0.1737
  200MOL0     H27531  10.698   6.299  10.076  1.3922  1.2814 -0.3503
  200MOL0     H27532  10.720   6.527  10.167 -0.0329  1.7233  0.5078
  200MOL0     H27533  10.695   6.760  10.209 -0.2184 -1.7638  2.3597
  200MOL0     H27534  10.543   6.679  10.255 -1.2717 -1.3946 -1.9559
  200MOL0     H27535  10.539   6.946  10.135 -2.8794 -0.7618 -1.4652
  200MOL0     H27536  10.426   6.877  10.252  0.5441 -2.6684 -1.8967
  200MOL0     H27537  10.597   6.913  10.428 -1.7304 -1.0442  0.2674
  200MOL0     H27538  10.708   6.985  10.312 -0.0842 -1.8999  0.1566
  200MOL0     H27539  10.559   7.178  10.279  0.9728  3.0823  1.0579
  200MOL0     H27540  10.456   7.105  10.401 -0.6199  1.6491 -2.6121
  200MOL0     H27541  10.748   7.181  10.467 -0.3267  0.0540 -1.3157
  200MOL0     H27542  10.620   7.150  10.588 -1.3837  0.2042  0.2940
  200MOL0     H27543  10.623   7.390  10.391  0.0544  0.9548  0.0792
  200MOL0     H27544  10.509   7.347  10.517  0.7645  1.1103  2.6281
  200MOL0     H27545  10.699   7.531  10.559  3.4348  0.9670  1.6249
  200MOL0     H27546  10.804   7.397  10.585 -0.5385 -0.5678 -1.5926
  200MOL0     H27547  10.677   7.513  10.792  2.9217 -1.5187  0.1295
  200MOL0     H27548  10.540   7.404  10.745  0.1939 -2.8186  0.9225
  200MOL0     H27549  10.905   7.414  10.840 -0.2414 -0.6127  0.3459
  200MOL0     H27550  10.882   7.285  11.166 -0.8328 -4.3173  0.6638
  200MOL0     H27551  11.013   7.327  11.057 -1.7488  2.3651  0.3232
  200MOL0     H27552  10.909   7.047  11.139 -0.8961  0.0418  1.4034
  200MOL0     H27553  11.042   7.065  11.022 -2.5792  1.7357 -1.7784
  200MOL0     H27554  11.132   6.997  11.231  1.3412  1.0860  0.3570
  200MOL0     H27555  11.189   7.160  11.188 -0.1478 -0.3327 -1.0196
  200MOL0     H27556  11.034   7.276  11.343 -0.1151  1.1617  0.5716
  200MOL0     H27557  10.949   7.116  11.365  1.7912 -0.5468  0.2392
  200MOL0     H27558  11.336   7.021  11.377 -0.9367 -0.8813  3.0082
  200MOL0     H27559  11.657   7.028  11.404  1.4100  2.6409 -0.6735
  200MOL0     H27560  11.665   7.109  11.241  0.5602 -2.3995 -1.9486
  200MOL0     H27561  11.545   6.988  11.266 -0.9274  1.5351 -2.0171
  200MOL0     H27562  11.875   7.484  11.183 -0.2758 -0.5770 -0.0726
  200MOL0     H27563  12.110   7.546  11.167  3.3702 -0.4744  1.7324
  200MOL0     H27564  12.364   7.515  11.456 -0.8531  0.2881 -1.3423
  200MOL0     H27565  12.407   7.346  11.436 -0.2800 -0.5114  0.5561
  200MOL0     H27566  12.536   7.463  11.231  0.6027 -0.9773  0.3821
  200MOL0     H27567  12.532   7.598  11.343 -0.0255  0.3331  1.6998
  200MOL0     H27568  12.632   7.307  11.398  1.1897 -1.0199 -4.4474
  200MOL0     H27569  12.650   7.436  11.506 -0.4200  1.6314 -0.3972
  200MOL0     H27570  12.786   7.573  11.364 -0.4110  1.0953 -1.6123
  200MOL0     H27571  12.792   7.447  11.233  1.4248 -4.7131  1.0478
  200MOL0     H27572  12.928   7.423  11.497 -0.2410 -0.9260  0.9814
  200MOL0     H27573  12.884   7.282  11.400 -0.0260  0.0577 -0.1878
  200MOL0     H27574  13.079   7.515  11.338  1.7383 -1.0705 -0.6800
  200MOL0     H27575  13.015   7.417  11.202  5.5291  0.8095 -1.2198
  200MOL0     H27576  13.237   7.345  11.274 -0.7621  2.3489 -0.4355
  200MOL0     H27577  13.104   7.223  11.284  0.0689  0.0388 -1.7091
  200MOL0     H27578  13.093   7.276  11.542  0.4064  2.5184  1.6225
  200MOL0     H27579  13.229   7.385  11.512  0.5173 -1.3120  0.4542
  200MOL0     H27580  12.216   7.251  11.461 -0.0656 -0.1224 -0.0402
  200MOL0     H27581  12.004   7.176  11.468  2.3659 -1.1010 -1.2953
  200MOL0     H27582  11.431   7.487  11.484  0.3725 -0.2046  0.1091
  200MOL0     H27583  11.240   7.397  11.520 -1.7221 -0.4240 -2.2138
  200MOL0     H27584  10.427   6.643   9.867  0.5681  0.9167  0.4152
  200MOL0     H27585  10.403   6.409   9.804  1.2467 -0.6805 -0.9460
  200MOL0     H27586  10.551   5.997   9.758  1.0802  1.4939  1.7254
  200MOL0     H27587  10.568   5.763   9.725  0.7283  1.0583  0.6053
  200MOL0     H27588  10.408   5.513   9.656 -1.0820  3.1289  1.2419
  200MOL0     H27589  10.568   5.550   9.723  2.2159 -3.4015  0.4790
  200MOL0     H27590  10.531   5.298   9.689 -0.6954 -1.3842  1.5824
  200MOL0     H27591  10.391   5.311   9.799 -0.1615  0.9378  1.2864
  200MOL0     H27592  10.569   5.380   9.980 -0.0138 -2.2344  1.3091
  200MOL0     H27593  10.566   5.217   9.917  0.7747 -0.6519 -0.3922
  200MOL0     H27594  10.810   5.321   9.934 -1.5001  1.0765  3.2161
  200MOL0     H27595  10.742   5.453   9.839 -0.9406  0.7243  0.7973
  200MOL0     H27596  10.853   5.146   9.559  2.1040  4.2121 -2.4338
  200MOL0     H27597  10.273   5.687  10.008  0.0664  1.7725  1.3017
  200MOL0     H27598  10.152   5.996  10.077 -1.1935 -1.4901 -3.0558
  200MOL0     H27599  10.170   5.825  10.120  1.2731 -2.2084 -4.0831
  200MOL0     H27600  10.289   5.944  10.186  1.7861 -3.3859 -0.3068
  201MOL0     O27601   8.796  10.591   5.579 -0.1591  0.3810  0.7110
  201MOL0     C27602   8.854  10.674   5.652 -0.9982  0.2064 -0.3949
  201MOL0     O27603   8.878  10.793   5.631 -0.1167  0.2584 -0.1136
  201MOL0     C27604   8.836  10.859   5.516 -0.3425  0.9060 -1.3051
  201MOL0     C27605   8.891  10.826   5.392 -0.6415 -0.5252  0.6562
  201MOL0     C27606   8.850  10.896   5.275 -0.5517  1.1218 -0.2120
  201MOL0     C27607   8.779  11.020   5.284  1.1556  0.3841 -0.1562
  201MOL0     O27608   8.757  11.100   5.177 -0.0219  0.8040 -0.4432
  201MOL0     C27609   8.663  11.042   5.084 -0.4885 -0.5349  1.2129
  201MOL0     C27610   8.574  11.158   5.024 -0.7147 -0.0476 -0.3800
  201MOL0     C27611   8.642  11.207   4.891 -0.1858  0.1713  0.2479
  201MOL0     C27612   8.602  11.339   4.838 -0.2406 -0.1478 -0.4708
  201MOL0     C27613   8.452  11.345   4.822  0.0946 -1.0937  0.2627
  201MOL0     C27614   8.399  11.262   4.719  0.0060  0.2551  0.2313
  201MOL0     C27615   8.260  11.311   4.672  0.7279  0.1928  0.3859
  201MOL0     C27616   8.159  11.348   4.790  0.4011  0.6843 -0.6470
  201MOL0     N27617   8.094  11.230   4.840 -0.3570 -0.1334 -0.0141
  201MOL0     C27618   7.974  11.178   4.799 -0.5628 -0.2475 -0.1873
  201MOL0     C27619   7.955  11.085   4.889  0.0063  0.3707 -0.2067
  201MOL0     C27620   7.837  11.006   4.881  0.1289 -0.2105 -0.1714
  201MOL0     C27621   7.857  10.857   4.852  0.2042  0.3155  0.8078
  201MOL0     C27622   7.717  10.811   4.794  0.6799 -0.3433 -0.1745
  201MOL0     C27623   7.689  10.660   4.806  0.5485  0.3935 -0.1953
  201MOL0     O27624   7.713  10.594   4.931 -0.3970  0.2210 -0.5534
  201MOL0     C27625   7.668  10.639   5.053  0.4992 -0.1123 -0.0300
  201MOL0     C27626   7.737  10.582   5.159  0.0306  0.5298  0.1823
  201MOL0     C27627   7.713  10.619   5.291 -0.2979  0.1960  0.4614
  201MOL0     C27628   7.804  10.560   5.392 -0.1533  0.6831  0.5169
  201MOL0     C27629   7.609  10.706   5.320  0.2916  0.3455 -0.4624
  201MOL0     C27630   7.567  10.752   5.462 -0.6981 -0.1934 -0.6007
  201MOL0     O27631   7.472  10.849   5.455 -0.7459 -0.1893  0.0208
  201MOL0     C27632   7.409  10.902   5.569 -0.0258  0.2558  0.1478
  201MOL0     C27633   7.406  11.040   5.595 -0.2708  0.5416 -0.7320
  201MOL0     C27634   7.336  11.093   5.707  0.3780  0.3952  0.5507
  201MOL0     C27635   7.265  10.996   5.792 -0.4667 -0.6111 -0.5447
  201MOL0     O27636   7.201  11.023   5.915 -0.1148 -0.5993 -0.0623
  201MOL0     C27637   7.203  11.163   5.951  0.1784  1.0829  0.0370
  201MOL0     C27638   7.152  11.177   6.100 -0.2822 -0.5945  0.1332
  201MOL0     C27639   7.070  11.308   6.099 -0.8120  0.5918 -0.5087
  201MOL0     C27640   7.030  11.344   6.239  0.7613  0.0822  0.4471
  201MOL0     C27641   6.936  11.469   6.245 -0.4722 -0.1303 -0.0396
  201MOL0     C27642   6.791  11.446   6.216  0.3774  1.1446  0.1035
  201MOL0     C27643   6.729  11.592   6.205  0.2908 -0.1011 -1.2613
  201MOL0     C27644   6.583  11.573   6.147  0.2503 -0.9222 -0.8798
  201MOL0    Cl27645   6.474  11.704   6.181 -0.3032 -0.4804 -0.2791
  201MOL0     C27646   7.261  10.856   5.758 -0.4025 -0.6146  0.4342
  201MOL0     C27647   7.334  10.810   5.643  0.0842 -0.5624  0.3276
  201MOL0     O27648   7.619  10.708   5.562 -0.6681  0.4911 -0.2257
  201MOL0     C27649   7.548  10.767   5.210  0.2150 -0.6494 -0.0116
  201MOL0     C27650   7.573  10.734   5.080  1.7273  0.5877 -0.2566
  201MOL0     N27651   8.046  11.083   4.991 -0.6129  0.6661  0.5644
  201MOL0     N27652   8.138  11.162   4.954 -0.0837 -0.4101 -0.1318
  201MOL0     C27653   8.739  11.063   5.410 -0.7097 -0.0609  0.5507
  201MOL0     C27654   8.756  10.974   5.520  0.0162 -0.1751 -0.2861
  201MOL0     C27655   8.912  10.606   5.771  0.1076  0.4277  1.1169
  201MOL0     C27656   8.970  10.471   5.753 -0.1631 -1.4576 -0.1913
  201MOL0     C27657   9.016  10.397   5.854  0.0090 -0.4738 -0.0962
  201MOL0     C27658   9.018  10.458   5.981  0.0824  0.5766  0.9537
  201MOL0     O27659   9.051  10.393   6.096  0.2924 -0.2375  0.3262
  201MOL0     C27660   9.136  10.276   6.090 -0.1434 -0.9947 -0.1168
  201MOL0     C27661   9.199  10.259   6.226 -0.4129  0.4692  0.9103
  201MOL0     C27662   9.217  10.109   6.257  0.0153 -1.1743  0.0014
  201MOL0     C27663   9.230  10.077   6.404 -0.1239 -0.3249  0.5979
  201MOL0     C27664   9.368  10.041   6.449  0.3093 -0.3594  0.7276
  201MOL0     C27665   9.477  10.014   6.494  0.1824  0.6697 -0.8823
  201MOL0     C27666   8.971  10.581   5.995  0.3781  1.2769  0.3233
  201MOL0     C27667   8.909  10.661   5.897 -0.2214 -0.1694  0.4451
  201MOL0     C27668   8.860  10.801   5.935  1.1629  0.3254 -0.4949
  201MOL0     H27669   8.958  10.740   5.386  1.0465  0.7983 -0.4905
  201MOL0     H27670   8.881  10.850   5.181 -0.5782  0.5581  0.0548
  201MOL0     H27671   8.606  10.961   5.128  2.1520 -1.3538  3.3954
  201MOL0     H27672   8.723  10.991   5.008  1.7043  1.0617  1.7758
  201MOL0     H27673   8.469  11.130   5.008 -0.5525 -0.3204 -0.9848
  201MOL0     H27674   8.562  11.241   5.095 -0.7348 -0.2536 -0.1417
  201MOL0     H27675   8.751  11.208   4.906 -0.2105  1.7626  0.4364
  201MOL0     H27676   8.626  11.132   4.812  0.3164  0.8536 -0.5163
  201MOL0     H27677   8.617  11.416   4.914 -4.9073  1.6292 -0.9934
  201MOL0     H27678   8.655  11.346   4.743  1.4318  0.4449  0.4709
  201MOL0     H27679   8.421  11.447   4.800  1.0262 -0.0612  3.2831
  201MOL0     H27680   8.411  11.319   4.921  1.9205 -0.8668  1.1103
  201MOL0     H27681   8.468  11.279   4.636 -1.2251 -0.5135 -0.9845
  201MOL0     H27682   8.396  11.157   4.750 -0.5768  0.4569  0.9010
  201MOL0     H27683   8.223  11.225   4.617  1.2330  0.1031  0.1759
  201MOL0     H27684   8.269  11.401   4.610  3.4671 -0.3634 -0.1566
  201MOL0     H27685   8.202  11.399   4.876  0.1914  0.4201 -0.3792
  201MOL0     H27686   8.084  11.417   4.750 -1.7699 -0.1181  1.7855
  201MOL0     H27687   7.921  11.211   4.710 -0.4790  2.6199  0.7223
  201MOL0     H27688   7.764  11.057   4.816 -0.4011  1.8640  1.9024
  201MOL0     H27689   7.796  11.001   4.982  0.7339 -0.7197  0.0533
  201MOL0     H27690   7.937  10.846   4.777  0.4771 -2.8808  1.4121
  201MOL0     H27691   7.889  10.805   4.943  3.9110  2.8852  1.2028
  201MOL0     H27692   7.642  10.865   4.852  0.0115  2.2912 -3.2291
  201MOL0     H27693   7.712  10.848   4.691  3.3449  1.1223  0.1286
  201MOL0     H27694   7.584  10.645   4.779 -0.0146 -0.6621  2.2510
  201MOL0     H27695   7.753  10.607   4.735  1.1574 -1.2828  1.5226
  201MOL0     H27696   7.813  10.512   5.126 -0.3570  0.5290 -0.7365
  201MOL0     H27697   7.845  10.641   5.454 -1.3155  1.5850  0.1572
  201MOL0     H27698   7.888  10.520   5.336 -1.0067  1.4973 -1.4433
  201MOL0     H27699   7.748  10.484   5.448  0.9075 -1.2631 -0.9600
  201MOL0     H27700   7.441  11.110   5.520 -3.1391  2.8123 -0.1145
  201MOL0     H27701   7.343  11.199   5.729  3.0341  0.6867 -1.3223
  201MOL0     H27702   7.301  11.212   5.954  0.1140  1.2655 -0.6726
  201MOL0     H27703   7.121  11.208   5.895 -1.3069 -1.2941  0.1528
  201MOL0     H27704   7.089  11.092   6.131 -1.0036  0.7160  2.5513
  201MOL0     H27705   7.234  11.185   6.172 -1.1870 -0.0151  1.1255
  201MOL0     H27706   6.985  11.303   6.031 -0.2410  0.2702 -1.2023
  201MOL0     H27707   7.134  11.394   6.079 -1.1120  0.9616  0.0763
  201MOL0     H27708   7.117  11.361   6.303 -2.0660  1.6358  4.2708
  201MOL0     H27709   6.980  11.258   6.284 -2.3507  0.6928 -1.5203
  201MOL0     H27710   6.951  11.495   6.350  4.3053 -3.5611  0.4914
  201MOL0     H27711   6.978  11.547   6.181  0.4451 -1.9762 -1.8076
  201MOL0     H27712   6.743  11.384   6.291 -0.4100  0.2221 -1.1122
  201MOL0     H27713   6.768  11.390   6.125 -0.9396  1.3870  0.2668
  201MOL0     H27714   6.784  11.659   6.139  4.0674 -0.5453  1.1176
  201MOL0     H27715   6.717  11.639   6.303  0.5313  1.0438 -1.7676
  201MOL0     H27716   6.536  11.496   6.208 -3.3547  2.1841  0.6591
  201MOL0     H27717   6.581  11.532   6.046 -1.5628 -0.2409 -1.1614
  201MOL0     H27718   7.202  10.788   5.818  0.3685 -2.3035 -0.6394
  201MOL0     H27719   7.325  10.705   5.618 -0.2920 -0.4461 -0.0197
  201MOL0     H27720   7.480  10.846   5.239  0.4975 -0.8260  1.2284
  201MOL0     H27721   7.509  10.785   5.009  2.3207 -0.7693 -1.8157
  201MOL0     H27722   8.697  11.162   5.427 -1.6107 -0.8110  3.1245
  201MOL0     H27723   8.711  10.997   5.616 -1.5042 -1.7379 -0.5708
  201MOL0     H27724   8.981  10.422   5.657 -1.9099 -0.0081 -1.1894
  201MOL0     H27725   9.048  10.296   5.831 -1.0530 -1.5716  2.6968
  201MOL0     H27726   9.067  10.193   6.071  0.5668 -0.8668 -4.1154
  201MOL0     H27727   9.220  10.277   6.020  0.8938  1.0828  1.0695
  201MOL0     H27728   9.127  10.306   6.293 -0.0463  3.2867 -0.5184
  201MOL0     H27729   9.292  10.317   6.226 -0.9578  1.3678  0.3682
  201MOL0     H27730   9.136  10.052   6.209 -0.0772 -1.3804  0.3994
  201MOL0     H27731   9.315  10.079   6.217  1.3793 -1.0419  2.9664
  201MOL0     H27732   9.167   9.988   6.414  0.6193 -1.0034 -0.5731
  201MOL0     H27733   9.185  10.157   6.464  0.2344 -0.0931  0.5597
  201MOL0     H27734   9.558   9.961   6.540 -0.5718 -0.7146 -1.0657
  201MOL0     H27735   8.972  10.640   6.086 -4.9608  1.6315  0.5043
  201MOL0     H27736   8.858  10.819   6.043  0.4995  2.4864 -0.8206
  201MOL0     H27737   8.923  10.881   5.895 -0.0190  0.5075 -2.1018
  201MOL0     H27738   8.760  10.821   5.896  1.7233  3.1544 -0.6904
  202MOL0     O27739   6.715  10.830   5.169  0.0741 -0.8083  0.7316
  202MOL0     C27740   6.625  10.891   5.235 -0.0923  0.3629 -0.0883
  202MOL0     O27741   6.612  10.896   5.371 -0.1395 -0.1484  0.4479
  202MOL0     C27742   6.708  10.832   5.431 -0.3121  0.1788 -0.0253
  202MOL0     C27743   6.677  10.710   5.482  0.5609 -0.3263 -0.5562
  202MOL0     C27744   6.779  10.644   5.552  0.7944 -0.2073 -0.7648
  202MOL0     C27745   6.899  10.698   5.572  0.6449 -0.6656 -0.7308
  202MOL0     O27746   6.994  10.668   5.673 -0.5663 -0.7315 -0.8625
  202MOL0     C27747   6.971  10.549   5.750 -0.0725 -0.4075  0.2649
  202MOL0     C27748   7.089  10.520   5.846 -0.1091  0.1219  0.5398
  202MOL0     C27749   7.056  10.606   5.974 -0.8156 -0.0332 -0.3023
  202MOL0     C27750   7.193  10.617   6.047 -0.2547  0.2451 -0.7953
  202MOL0     C27751   7.198  10.717   6.162 -0.0951 -0.2281 -0.4090
  202MOL0     C27752   7.072  10.719   6.251  0.5806  0.4088 -1.0420
  202MOL0     C27753   7.096  10.825   6.361  0.5116 -0.4716 -0.1275
  202MOL0     C27754   6.970  10.821   6.457 -0.5709 -0.1762 -0.7061
  202MOL0     N27755   6.992  10.885   6.586  0.1969 -0.0094 -0.0457
  202MOL0     C27756   7.050  11.004   6.605  0.3180 -0.0961  0.2646
  202MOL0     C27757   7.043  11.034   6.735 -0.2116 -0.5443  0.8176
  202MOL0     C27758   7.094  11.165   6.804 -0.1617  1.3575  0.8394
  202MOL0     C27759   7.250  11.178   6.826 -0.2269  0.7203  0.1389
  202MOL0     C27760   7.304  11.058   6.916 -1.6367 -0.2722  0.3813
  202MOL0     C27761   7.445  11.092   6.972 -0.9455  0.1830  0.0449
  202MOL0     O27762   7.533  11.139   6.864  0.0267 -0.5465 -0.1268
  202MOL0     C27763   7.669  11.140   6.892  0.3153 -0.3190  0.1531
  202MOL0     C27764   7.725  11.088   7.008 -0.2508 -0.5561  0.5047
  202MOL0     C27765   7.868  11.071   7.022  0.0143 -0.9186  0.2504
  202MOL0     C27766   7.904  11.025   7.153  0.2959  0.0891  0.0043
  202MOL0     C27767   7.947  11.106   6.914  0.4152 -0.0319  0.7284
  202MOL0     C27768   8.093  11.087   6.911 -1.2465  0.0887  0.8016
  202MOL0     O27769   8.145  11.069   6.792  0.0148 -0.5668 -0.1398
  202MOL0     C27770   8.282  11.089   6.777 -0.7986 -0.2117  0.8339
  202MOL0     C27771   8.359  11.209   6.814 -0.5111  0.8832 -0.5734
  202MOL0     C27772   8.498  11.206   6.806  0.0829 -0.9883  0.1720
  202MOL0     C27773   8.559  11.091   6.763  0.4029  0.2079 -0.0696
  202MOL0     O27774   8.698  11.097   6.773  0.5997 -0.4828 -0.3808
  202MOL0     C27775   8.758  10.985   6.841 -0.7694 -0.0747  0.3287
  202MOL0     C27776   8.848  10.899   6.746  1.0944 -0.3190  0.4905
  202MOL0     C27777   8.942  10.802   6.809  0.3050  0.0265  0.1551
  202MOL0     C27778   9.056  10.774   6.710  0.6225  0.5275  0.3243
  202MOL0     C27779   9.027  10.669   6.608  0.7597 -0.0797 -0.0842
  202MOL0     C27780   9.024  10.539   6.680 -0.8370  0.7514 -0.5853
  202MOL0     C27781   8.971  10.428   6.597 -1.2557 -0.0600  0.2890
  202MOL0     C27782   8.995  10.287   6.661 -0.4574 -0.3122 -0.8798
  202MOL0    Cl27783   8.915  10.171   6.565 -0.1066  0.2437 -0.1303
  202MOL0     C27784   8.480  10.985   6.708 -0.8826 -1.0722 -0.2673
  202MOL0     C27785   8.344  10.983   6.713  0.6176 -0.1194 -0.6080
  202MOL0     O27786   8.160  11.094   7.016  0.1962 -0.2358 -0.9044
  202MOL0     C27787   7.887  11.174   6.801  0.4451  0.0491 -0.6711
  202MOL0     C27788   7.750  11.179   6.786  0.6527  0.2555 -0.1108
  202MOL0     N27789   6.986  10.922   6.794  0.5087  0.5454  1.0095
  202MOL0     N27790   6.952  10.838   6.706  0.4490  0.6268  0.0789
  202MOL0     C27791   6.930  10.820   5.505 -0.0369  0.6372  0.7673
  202MOL0     C27792   6.836  10.889   5.440 -0.1083 -0.3350 -0.5624
  202MOL0     C27793   6.538  10.975   5.154 -0.3668 -0.3612  0.5458
  202MOL0     C27794   6.511  11.106   5.200  0.4722 -0.2392  0.7769
  202MOL0     C27795   6.417  11.194   5.128  0.0316  0.4754 -0.4339
  202MOL0     C27796   6.359  11.143   5.009 -0.1171 -0.3048  0.2773
  202MOL0     O27797   6.257  11.202   4.946  0.1830 -0.2569  0.1685
  202MOL0     C27798   6.278  11.344   4.930  1.0763 -0.1909  0.2546
  202MOL0     C27799   6.361  11.369   4.809 -0.2121  0.6713  0.5774
  202MOL0     C27800   6.331  11.279   4.689 -0.4213 -0.2771 -0.0950
  202MOL0     C27801   6.401  11.325   4.563 -0.0862 -0.2267 -0.0185
  202MOL0     C27802   6.346  11.243   4.451  0.5002 -0.4672  0.8103
  202MOL0     C27803   6.294  11.167   4.374 -0.7829 -0.9659  0.3673
  202MOL0     C27804   6.387  11.011   4.969 -0.5196  0.8040  0.0936
  202MOL0     C27805   6.480  10.929   5.036  0.3019  0.4555  0.5218
  202MOL0     C27806   6.502  10.795   4.982  0.3743  0.3046 -0.3051
  202MOL0     H27807   6.575  10.675   5.470  0.7482 -0.7471 -0.9777
  202MOL0     H27808   6.751  10.556   5.608 -0.3993 -0.9214 -2.3885
  202MOL0     H27809   6.964  10.466   5.680  1.2150 -0.1033 -0.2522
  202MOL0     H27810   6.890  10.543   5.824  1.9777  0.2500  2.7175
  202MOL0     H27811   7.072  10.414   5.865 -1.5430 -0.4551 -3.0942
  202MOL0     H27812   7.190  10.541   5.811 -0.5139  3.1634  0.8887
  202MOL0     H27813   7.024  10.706   5.942 -0.4778 -0.5713 -2.5139
  202MOL0     H27814   6.977  10.565   6.037 -0.9275 -0.2841 -0.5997
  202MOL0     H27815   7.226  10.526   6.096  5.4440  2.6519  0.6245
  202MOL0     H27816   7.278  10.626   5.979  1.4576 -4.4650  0.3737
  202MOL0     H27817   7.217  10.812   6.112  0.6601 -0.2575 -0.1912
  202MOL0     H27818   7.282  10.692   6.228  0.6098 -2.2914 -1.9998
  202MOL0     H27819   6.978  10.743   6.201 -1.6732 -1.2716  2.1211
  202MOL0     H27820   7.066  10.619   6.294 -0.6087  0.3198 -1.3936
  202MOL0     H27821   7.118  10.925   6.322 -0.1187  0.0810  0.9011
  202MOL0     H27822   7.186  10.815   6.422  1.4970  5.3856 -0.0427
  202MOL0     H27823   6.885  10.881   6.424 -1.9627 -1.1832  0.8653
  202MOL0     H27824   6.939  10.717   6.470 -1.1741  0.3841  5.4277
  202MOL0     H27825   7.073  11.076   6.527 -1.9159 -0.4991 -0.8411
  202MOL0     H27826   7.035  11.188   6.893  1.2306  0.4085  2.0386
  202MOL0     H27827   7.053  11.246   6.742 -2.4253  0.2903  0.8393
  202MOL0     H27828   7.309  11.194   6.735  0.7292  0.2306  0.6567
  202MOL0     H27829   7.263  11.272   6.880 -0.4172  0.0195  1.4411
  202MOL0     H27830   7.236  11.063   7.001 -2.7984  2.2520 -0.5677
  202MOL0     H27831   7.307  10.964   6.861  2.8860  0.2374 -0.6269
  202MOL0     H27832   7.447  11.161   7.057  0.7933 -0.5510  0.6511
  202MOL0     H27833   7.473  10.990   7.001 -3.5008 -1.1188 -1.6708
  202MOL0     H27834   7.668  11.061   7.096  0.3420 -0.9798  0.7701
  202MOL0     H27835   7.964  10.935   7.134 -0.3881 -0.0693 -1.5909
  202MOL0     H27836   7.818  11.004   7.216  0.5045  3.4428  1.6334
  202MOL0     H27837   7.968  11.097   7.206 -0.4457  0.8761 -0.1539
  202MOL0     H27838   8.304  11.297   6.845 -0.6264 -0.1045  2.2995
  202MOL0     H27839   8.546  11.296   6.843  0.1817 -0.9256 -0.0989
  202MOL0     H27840   8.822  11.043   6.908 -0.1427  2.4883 -2.2426
  202MOL0     H27841   8.685  10.920   6.890  0.6910 -1.9068  0.2122
  202MOL0     H27842   8.778  10.846   6.679  0.9471 -2.9822  2.5651
  202MOL0     H27843   8.905  10.973   6.689  1.7413 -1.1605  0.0094
  202MOL0     H27844   8.895  10.716   6.858  1.4942  0.7511  2.7221
  202MOL0     H27845   8.993  10.840   6.898  2.9753 -0.2517 -1.1631
  202MOL0     H27846   9.127  10.728   6.779  2.7778 -2.1741 -3.3336
  202MOL0     H27847   9.092  10.869   6.669 -0.2165  0.3509 -0.8912
  202MOL0     H27848   8.927  10.678   6.564  0.2457  0.3073  1.1222
  202MOL0     H27849   9.100  10.659   6.527 -1.8928  2.8009 -3.1569
  202MOL0     H27850   8.975  10.537   6.777 -2.1736 -4.2407 -1.1146
  202MOL0     H27851   9.128  10.509   6.695  0.2653  4.7136  1.0977
  202MOL0     H27852   9.025  10.438   6.502  1.4398  2.4686  1.9265
  202MOL0     H27853   8.863  10.435   6.583 -0.7949  1.5210 -4.4899
  202MOL0     H27854   8.985  10.272   6.769 -0.1113 -0.1636 -0.8258
  202MOL0     H27855   9.103  10.275   6.658  0.1026  2.7054  1.7328
  202MOL0     H27856   8.524  10.898   6.661  0.7855  0.3229 -1.4284
  202MOL0     H27857   8.293  10.891   6.687 -3.5625  0.9777  2.6461
  202MOL0     H27858   7.946  11.215   6.719  0.1794  0.4491 -0.6649
  202MOL0     H27859   7.694  11.220   6.703  1.5645  0.6886 -0.5233
  202MOL0     H27860   7.032  10.856   5.513  1.0511 -1.7641 -1.3121
  202MOL0     H27861   6.852  10.991   5.405  2.0951  0.6463  2.7715
  202MOL0     H27862   6.545  11.127   5.301 -1.2280  1.5429  1.0275
  202MOL0     H27863   6.370  11.283   5.169  0.5701  1.3671 -1.6883
  202MOL0     H27864   6.180  11.390   4.915  0.6758 -0.6211  1.4640
  202MOL0     H27865   6.315  11.402   5.014 -1.5940  0.6740  0.9261
  202MOL0     H27866   6.461  11.336   4.837 -0.0769 -0.6712 -1.2982
  202MOL0     H27867   6.359  11.472   4.770 -2.6096  0.3092 -0.4373
  202MOL0     H27868   6.346  11.174   4.715  1.9825 -0.2789 -1.1978
  202MOL0     H27869   6.228  11.305   4.665  0.4929  1.6747 -2.3222
  202MOL0     H27870   6.510  11.320   4.574 -0.2179  0.4840  2.2179
  202MOL0     H27871   6.370  11.429   4.552  1.5107  0.2647 -0.2239
  202MOL0     H27872   6.273  11.104   4.290 -0.3363  0.0026 -0.5045
  202MOL0     H27873   6.323  10.958   4.899  0.2250  3.0252 -2.4060
  202MOL0     H27874   6.463  10.775   4.882 -0.8531  1.0319  0.0149
  202MOL0     H27875   6.606  10.777   4.952 -0.3104 -1.6828 -1.6908
  202MOL0     H27876   6.480  10.710   5.046  3.4661 -0.4791 -0.0973
  203MOL0     O27877  10.816   7.028   3.107  1.2050 -0.5364 -0.1453
  203MOL0     C27878  10.862   6.952   3.195  1.5955 -0.3092 -0.6347
  203MOL0     O27879  10.981   6.899   3.191 -0.3782 -0.2745  0.0565
  203MOL0     C27880  11.063   6.910   3.075  0.2479 -1.3811 -0.2977
  203MOL0     C27881  11.027   6.869   2.943  0.2880 -0.0245 -0.5854
  203MOL0     C27882  11.128   6.875   2.844 -0.0887 -0.2239 -0.2763
  203MOL0     C27883  11.255   6.908   2.875  0.0313 -0.5554  0.5807
  203MOL0     O27884  11.359   6.943   2.786  0.0766 -0.4477 -0.5500
  203MOL0     C27885  11.360   6.891   2.656 -0.5622 -0.7458  0.2930
  203MOL0     C27886  11.390   6.747   2.654 -1.0164 -0.2028  0.9456
  203MOL0     C27887  11.530   6.712   2.697 -0.6761  0.1957 -0.5150
  203MOL0     C27888  11.563   6.569   2.681 -0.5735 -0.1202 -0.1470
  203MOL0     C27889  11.620   6.549   2.536 -0.1092  1.2848 -0.5491
  203MOL0     C27890  11.619   6.398   2.491  0.1411 -0.4261  0.3995
  203MOL0     C27891  11.675   6.384   2.355 -0.6550  0.0242  0.3786
  203MOL0     C27892  11.619   6.248   2.300  0.4144 -0.5309 -0.1487
  203MOL0     N27893  11.686   6.220   2.174  0.2614 -0.1354  0.1913
  203MOL0     C27894  11.747   6.101   2.151 -0.7680  0.3933  0.3887
  203MOL0     C27895  11.752   6.097   2.012  0.3968 -0.4671 -0.1230
  203MOL0     C27896  11.804   5.983   1.938 -0.4089  0.5126  0.0784
  203MOL0     C27897  11.954   5.967   1.954  0.2665  0.8789  0.8144
  203MOL0     C27898  12.035   6.049   1.853  0.9235 -0.4391 -0.1063
  203MOL0     C27899  12.183   6.046   1.892  0.2686 -0.5635 -0.6056
  203MOL0     O27900  12.230   5.913   1.893  0.2615  0.1417  0.0638
  203MOL0     C27901  12.255   5.850   1.770  0.3273  0.9709  0.3051
  203MOL0     C27902  12.293   5.716   1.775 -0.3879 -0.8123 -0.8291
  203MOL0     C27903  12.341   5.636   1.663 -1.0359 -0.3036 -1.2028
  203MOL0     C27904  12.379   5.499   1.689  0.2648 -0.0525  0.1880
  203MOL0     C27905  12.335   5.695   1.537 -0.2177 -0.3337  0.1568
  203MOL0     C27906  12.378   5.627   1.407  0.4400  0.6579  0.6116
  203MOL0     O27907  12.418   5.490   1.405  0.0395 -0.2291 -0.1163
  203MOL0     C27908  12.459   5.427   1.290  0.6549  0.4553  0.2849
  203MOL0     C27909  12.461   5.479   1.158 -0.4070 -0.1888 -0.2556
  203MOL0     C27910  12.524   5.400   1.059 -0.5497 -0.6123 -0.2142
  203MOL0     C27911  12.572   5.270   1.086  0.5405  0.3647 -0.4726
  203MOL0     O27912  12.613   5.202   0.982 -0.8650  0.0332  0.5423
  203MOL0     C27913  12.594   5.057   0.973 -0.4999 -0.3272 -0.6804
  203MOL0     C27914  12.457   5.016   0.917  0.8109 -0.7446  0.7388
  203MOL0     C27915  12.446   4.864   0.934 -0.8632  0.3326  0.1295
  203MOL0     C27916  12.344   4.815   0.837  0.8900  0.3485  1.3925
  203MOL0     C27917  12.202   4.840   0.902 -0.4707 -0.7618 -1.0238
  203MOL0     C27918  12.084   4.816   0.808  0.4269  0.0991 -0.1260
  203MOL0     C27919  12.070   4.926   0.700  0.0882  0.4357  0.2830
  203MOL0     C27920  11.971   4.880   0.589  0.3620 -0.2759 -0.6199
  203MOL0    Cl27921  11.814   4.822   0.662  0.2988 -0.2390 -0.2741
  203MOL0     C27922  12.569   5.216   1.215 -0.4628  1.4192  0.3798
  203MOL0     C27923  12.514   5.297   1.318  0.1348 -0.5902 -0.0436
  203MOL0     O27924  12.373   5.702   1.312 -0.8038 -0.2773  0.0286
  203MOL0     C27925  12.287   5.834   1.528  0.7352 -0.2077 -0.0426
  203MOL0     C27926  12.251   5.912   1.647  0.2984 -0.1446 -1.0029
  203MOL0     N27927  11.711   6.220   1.962 -0.1435 -0.8474 -0.2343
  203MOL0     N27928  11.672   6.289   2.065 -0.6224 -0.4694 -0.3879
  203MOL0     C27929  11.292   6.944   3.000 -0.2393 -0.0203  0.3235
  203MOL0     C27930  11.199   6.938   3.103 -0.2892  0.3541  0.1307
  203MOL0     C27931  10.766   6.889   3.296 -0.0847 -0.4262 -0.3916
  203MOL0     C27932  10.840   6.814   3.406 -0.6478  0.4758  0.0332
  203MOL0     C27933  10.768   6.759   3.509 -0.6654 -0.4440 -1.0695
  203MOL0     C27934  10.633   6.775   3.521  0.0626  0.2986 -0.3381
  203MOL0     O27935  10.587   6.737   3.644  0.5570  0.2889  0.2657
  203MOL0     C27936  10.442   6.703   3.658  0.7321 -0.5804 -0.4775
  203MOL0     C27937  10.391   6.733   3.806 -0.2086 -0.9486  0.6806
  203MOL0     C27938  10.436   6.877   3.842  0.7114  0.3628 -0.0721
  203MOL0     C27939  10.378   6.910   3.991  0.1067 -0.9689 -0.6137
  203MOL0     C27940  10.443   7.040   4.033 -0.3965 -0.4791 -0.2740
  203MOL0     C27941  10.508   7.121   4.092 -0.0257  0.4388 -0.2523
  203MOL0     C27942  10.562   6.828   3.416  1.2471  0.8956  0.2685
  203MOL0     C27943  10.627   6.893   3.312  0.1555 -1.9870 -0.7773
  203MOL0     C27944  10.531   6.987   3.236  0.1539  0.1078 -0.9361
  203MOL0     H27945  10.930   6.823   2.926  0.1116  1.0554 -2.6800
  203MOL0     H27946  11.095   6.850   2.743 -3.8461  3.1225 -0.1566
  203MOL0     H27947  11.428   6.953   2.598 -0.5743 -0.8502  0.1681
  203MOL0     H27948  11.263   6.912   2.610 -1.0977 -0.5473  1.4489
  203MOL0     H27949  11.318   6.683   2.705 -0.0849 -1.5493  0.6357
  203MOL0     H27950  11.383   6.721   2.548  4.0499 -1.4628  0.6631
  203MOL0     H27951  11.599   6.771   2.636  1.1054  0.6911  1.8370
  203MOL0     H27952  11.542   6.733   2.804  1.7083 -1.8442 -0.2936
  203MOL0     H27953  11.641   6.531   2.748  1.8475  3.7045 -0.5052
  203MOL0     H27954  11.488   6.491   2.693  2.3549 -3.3729 -1.4191
  203MOL0     H27955  11.726   6.576   2.538 -0.2796  1.9671 -0.3614
  203MOL0     H27956  11.568   6.611   2.462 -1.6757  1.3724  0.5805
  203MOL0     H27957  11.684   6.338   2.556 -0.5564  0.8392  2.3739
  203MOL0     H27958  11.518   6.360   2.503  0.2028 -0.7001  0.0403
  203MOL0     H27959  11.784   6.390   2.362 -0.6069 -2.4141  3.4576
  203MOL0     H27960  11.648   6.455   2.276  1.2842 -1.6667 -1.9831
  203MOL0     H27961  11.644   6.163   2.363  2.8373 -0.1799 -0.5422
  203MOL0     H27962  11.512   6.262   2.285  0.2535 -0.3699  1.0482
  203MOL0     H27963  11.777   6.030   2.227  0.1136  2.7167  2.3394
  203MOL0     H27964  11.799   6.005   1.831  0.1951  1.6715  0.2722
  203MOL0     H27965  11.744   5.894   1.956 -3.0454  1.8218 -1.5306
  203MOL0     H27966  11.992   5.987   2.054  1.3447 -1.7596  1.0329
  203MOL0     H27967  11.985   5.863   1.935  0.4477  1.2456 -1.1134
  203MOL0     H27968  12.017   5.999   1.757  0.9293 -3.3188  1.2807
  203MOL0     H27969  11.996   6.151   1.847 -0.2914 -0.9490 -2.0636
  203MOL0     H27970  12.253   6.103   1.832 -1.0007  1.6925 -0.0479
  203MOL0     H27971  12.193   6.089   1.992 -0.4019  2.0023 -1.5567
  203MOL0     H27972  12.312   5.682   1.876 -1.7852  1.6088  0.3307
  203MOL0     H27973  12.305   5.429   1.650 -1.2642  0.5191  1.9046
  203MOL0     H27974  12.384   5.480   1.797 -1.7576 -0.7168  0.2058
  203MOL0     H27975  12.479   5.482   1.650  0.6945 -0.3198  1.3757
  203MOL0     H27976  12.404   5.567   1.127  0.0612 -0.2979 -1.5083
  203MOL0     H27977  12.526   5.434   0.956 -1.7773  1.5220  0.3964
  203MOL0     H27978  12.678   5.019   0.914  2.3671  0.6396  2.4553
  203MOL0     H27979  12.613   5.019   1.074 -1.1446  2.7787  0.7367
  203MOL0     H27980  12.376   5.064   0.973  0.1282 -1.5611  0.4730
  203MOL0     H27981  12.455   5.055   0.815 -1.7187 -2.9603 -0.1773
  203MOL0     H27982  12.417   4.844   1.038  1.9131  2.4120  1.4515
  203MOL0     H27983  12.536   4.804   0.924 -0.6284  0.6123  0.5120
  203MOL0     H27984  12.350   4.708   0.819  0.8810 -0.0777  3.6752
  203MOL0     H27985  12.365   4.860   0.739  0.1750  2.6892  2.2344
  203MOL0     H27986  12.209   4.768   0.985 -0.2993 -2.2143 -2.2440
  203MOL0     H27987  12.184   4.938   0.946 -1.2587 -1.0620 -0.6485
  203MOL0     H27988  11.992   4.813   0.868 -0.8978 -2.0608 -2.0799
  203MOL0     H27989  12.090   4.714   0.771  0.3378  0.6352 -1.7165
  203MOL0     H27990  12.163   4.953   0.650 -0.1014  1.2489  0.3525
  203MOL0     H27991  12.032   5.018   0.747  0.6118 -0.1823  1.9961
  203MOL0     H27992  12.010   4.793   0.535 -1.6318 -1.8468  0.3159
  203MOL0     H27993  11.944   4.972   0.537  1.7053 -1.1411 -2.9872
  203MOL0     H27994  12.605   5.120   1.251 -0.8749  1.6093  1.3376
  203MOL0     H27995  12.528   5.270   1.422  0.5613  1.5655  0.5139
  203MOL0     H27996  12.280   5.876   1.428  0.1979 -2.2713 -0.9233
  203MOL0     H27997  12.213   6.011   1.623 -2.2119 -1.0959 -1.1989
  203MOL0     H27998  11.397   6.963   3.020 -0.2731 -0.5486  1.0288
  203MOL0     H27999  11.230   6.963   3.205  0.6251 -0.0296 -0.0429
  203MOL0     H28000  10.947   6.793   3.405 -1.2916 -3.7378 -2.2184
  203MOL0     H28001  10.828   6.720   3.591 -0.9814  1.4739  0.1479
  203MOL0     H28002  10.377   6.759   3.590  2.8272  2.6102 -0.0988
  203MOL0     H28003  10.433   6.595   3.645 -0.3921 -0.8231  1.8535
  203MOL0     H28004  10.451   6.670   3.873  1.1969 -0.0773  0.2902
  203MOL0     H28005  10.284   6.711   3.814 -0.3778  0.2805  2.5220
  203MOL0     H28006  10.544   6.887   3.854  0.8484 -2.1149  1.4377
  203MOL0     H28007  10.400   6.946   3.765  2.2415  0.2317 -0.9283
  203MOL0     H28008  10.412   6.831   4.058  3.0648  1.5190  1.0603
  203MOL0     H28009  10.269   6.918   3.983  0.1196  0.9873  0.5153
  203MOL0     H28010  10.556   7.191   4.156  3.5606 -2.7169  0.9073
  203MOL0     H28011  10.458   6.851   3.435  1.3159  0.0880  1.7344
  203MOL0     H28012  10.429   6.946   3.235  0.5812 -0.9711 -0.8206
  203MOL0     H28013  10.546   7.086   3.281  0.8465 -0.4023 -0.0301
  203MOL0     H28014  10.558   6.989   3.130 -0.1890 -1.6829 -1.0878
  204MOL0     O28015   2.388   4.239   5.630  0.1878  0.7568 -0.7273
  204MOL0     C28016   2.472   4.243   5.716 -0.1158 -0.3838 -0.6556
  204MOL0     O28017   2.509   4.130   5.788  0.2896  0.2109  0.1986
  204MOL0     C28018   2.415   4.026   5.811 -0.0962 -0.0504  0.6165
  204MOL0     C28019   2.277   4.042   5.806 -0.2152  1.0805 -0.2272
  204MOL0     C28020   2.193   3.936   5.850 -0.2556 -0.1004 -0.7956
  204MOL0     C28021   2.254   3.805   5.874 -0.5088 -0.2621 -0.4173
  204MOL0     O28022   2.184   3.685   5.882 -0.1583 -0.0948  0.1491
  204MOL0     C28023   2.035   3.693   5.897 -0.1203 -0.1253  0.0112
  204MOL0     C28024   1.996   3.549   5.881  0.3710  0.1650 -0.1278
  204MOL0     C28025   1.847   3.515   5.913 -0.6393 -0.2256  1.1383
  204MOL0     C28026   1.807   3.488   6.056  0.0721 -0.4108 -0.1758
  204MOL0     C28027   1.658   3.440   6.067  0.1373  0.8386  0.3274
  204MOL0     C28028   1.594   3.441   6.201 -0.4828 -0.0327  0.5219
  204MOL0     C28029   1.456   3.378   6.201 -0.6719 -0.0142  0.1320
  204MOL0     C28030   1.378   3.421   6.327  0.6907 -0.8927  0.3412
  204MOL0     N28031   1.239   3.383   6.331  0.5293 -0.2940  0.2580
  204MOL0     C28032   1.176   3.306   6.426  0.1534  1.2090 -0.5116
  204MOL0     C28033   1.044   3.322   6.410 -0.3156  1.3436  0.3279
  204MOL0     C28034   0.933   3.266   6.487 -0.1254  0.9370  0.5693
  204MOL0     C28035   0.888   3.370   6.590  1.1067 -0.2400  0.5516
  204MOL0     C28036   0.803   3.490   6.534 -0.4114  0.2664 -0.3380
  204MOL0     C28037   0.664   3.452   6.488  0.0352  0.2134  0.4966
  204MOL0     O28038   0.579   3.557   6.441  0.3645  0.6373  0.4535
  204MOL0     C28039   0.451   3.529   6.400  0.2371 -0.8482  0.0475
  204MOL0     C28040   0.412   3.430   6.313 -0.3794  0.2254  0.0018
  204MOL0     C28041   0.278   3.400   6.284  0.7369 -0.2171 -0.8290
  204MOL0     C28042   0.253   3.292   6.177 -0.1630  0.4717 -0.2696
  204MOL0     C28043   0.175   3.480   6.330 -0.7341 -0.4558  0.4362
  204MOL0     C28044   0.035   3.465   6.282 -0.5109  0.2779 -1.0562
  204MOL0     O28045  -0.035   3.344   6.291 -0.4082 -0.1424 -0.9229
  204MOL0     C28046  -0.173   3.356   6.275  0.6434 -0.0709 -0.7922
  204MOL0     C28047  -0.260   3.427   6.358  0.2646 -0.3017 -0.4868
  204MOL0     C28048  -0.395   3.419   6.330  0.1305 -0.0675 -0.6704
  204MOL0     C28049  -0.446   3.329   6.237 -0.5869  0.0405 -0.8049
  204MOL0     O28050  -0.577   3.314   6.214  0.6760 -0.0993 -0.5046
  204MOL0     C28051  -0.656   3.341   6.334 -0.2163 -0.3982 -0.0901
  204MOL0     C28052  -0.791   3.272   6.320  0.3685 -0.3058 -0.0259
  204MOL0     C28053  -0.879   3.362   6.230 -0.1639  1.0214  1.5281
  204MOL0     C28054  -1.022   3.289   6.209 -0.2391 -1.2669  0.9492
  204MOL0     C28055  -1.124   3.362   6.114  0.8462 -0.8047  0.7090
  204MOL0     C28056  -1.170   3.498   6.163  0.3041  0.5323  0.1126
  204MOL0     C28057  -1.289   3.554   6.089  0.2336  0.2080 -0.0069
  204MOL0     C28058  -1.280   3.550   5.932  0.8786 -0.7648  0.3927
  204MOL0    Cl28059  -1.415   3.656   5.874 -0.0806 -0.4613  0.4416
  204MOL0     C28060  -0.360   3.250   6.162 -0.4618  0.5505 -0.2139
  204MOL0     C28061  -0.224   3.269   6.182 -0.7656  0.7427 -0.1434
  204MOL0     O28062  -0.009   3.568   6.230 -0.1884 -0.1472  0.8858
  204MOL0     C28063   0.209   3.590   6.410  0.1260 -0.3123 -0.9216
  204MOL0     C28064   0.348   3.621   6.442 -0.1537  0.1473  0.0425
  204MOL0     N28065   1.026   3.404   6.303 -0.1194  0.4375 -0.6008
  204MOL0     N28066   1.137   3.449   6.257  0.4369  0.8297 -0.3123
  204MOL0     C28067   2.392   3.795   5.873  0.1192  0.0242 -0.1070
  204MOL0     C28068   2.472   3.897   5.850 -0.0223  0.2012  0.6783
  204MOL0     C28069   2.534   4.366   5.754  1.2197 -0.1725  0.4783
  204MOL0     C28070   2.639   4.360   5.842 -0.3153  1.0451 -0.0194
  204MOL0     C28071   2.706   4.474   5.888 -0.6210  0.2540  0.0231
  204MOL0     C28072   2.661   4.606   5.853  0.9338 -0.1877  0.9457
  204MOL0     O28073   2.729   4.719   5.899  1.2341  0.2124 -0.1187
  204MOL0     C28074   2.770   4.703   6.036  0.0556 -0.7076  0.2876
  204MOL0     C28075   2.920   4.688   6.048 -0.6116 -0.8703 -0.0906
  204MOL0     C28076   2.967   4.670   6.192 -0.3693  0.2548 -1.0851
  204MOL0     C28077   3.119   4.696   6.205 -0.7022 -0.2831  0.7761
  204MOL0     C28078   3.164   4.821   6.176  0.9151 -0.8967 -0.9162
  204MOL0     C28079   3.200   4.922   6.137 -1.2384 -0.7760  0.0628
  204MOL0     C28080   2.544   4.609   5.775 -0.4051 -0.7329  0.3519
  204MOL0     C28081   2.485   4.497   5.720  0.1886  0.2393 -0.8147
  204MOL0     C28082   2.370   4.529   5.628 -1.4074  0.7539  0.6462
  204MOL0     H28083   2.239   4.135   5.766  1.4110  0.7205 -2.8707
  204MOL0     H28084   2.086   3.951   5.856 -0.3129 -0.3224 -1.1993
  204MOL0     H28085   1.991   3.760   5.822  1.4175  0.5250 -0.3466
  204MOL0     H28086   2.016   3.733   5.997 -0.3449  1.0548 -0.4835
  204MOL0     H28087   2.025   3.523   5.779  1.9535 -1.0986  0.6116
  204MOL0     H28088   2.070   3.498   5.943  0.2173  1.5039  1.2322
  204MOL0     H28089   1.799   3.608   5.884 -0.4997 -0.6763 -0.6377
  204MOL0     H28090   1.811   3.429   5.856 -1.5555  0.7352  0.2476
  204MOL0     H28091   1.879   3.422   6.106  4.3581  2.1109 -2.3628
  204MOL0     H28092   1.818   3.587   6.100  0.2973 -0.0413 -1.0407
  204MOL0     H28093   1.652   3.336   6.031 -0.9523  0.2049  2.1893
  204MOL0     H28094   1.596   3.499   5.999  0.6935  0.1252 -0.8385
  204MOL0     H28095   1.651   3.367   6.258 -3.3259 -1.7367  1.3703
  204MOL0     H28096   1.602   3.543   6.239  0.0622  1.3878 -3.0633
  204MOL0     H28097   1.461   3.269   6.199 -1.4949 -0.0662  0.5041
  204MOL0     H28098   1.408   3.422   6.113  1.2758  0.3083 -0.8270
  204MOL0     H28099   1.423   3.374   6.414 -0.2108 -3.4333 -0.4621
  204MOL0     H28100   1.373   3.530   6.337 -3.0598 -0.4567 -3.2181
  204MOL0     H28101   1.225   3.236   6.493  1.0691 -0.1436 -2.4968
  204MOL0     H28102   0.963   3.179   6.546 -2.7770  0.7848  1.8250
  204MOL0     H28103   0.853   3.230   6.422 -1.0159 -1.1612  2.6844
  204MOL0     H28104   0.825   3.325   6.667  1.6610  3.1220  3.2461
  204MOL0     H28105   0.971   3.413   6.647  0.1580  2.8156 -0.1951
  204MOL0     H28106   0.785   3.556   6.619 -2.3552  1.8909 -1.9075
  204MOL0     H28107   0.866   3.548   6.465  0.9901 -2.9288 -1.9728
  204MOL0     H28108   0.665   3.377   6.409 -1.3756 -0.1936  0.8355
  204MOL0     H28109   0.603   3.399   6.562 -2.3699  0.0665 -1.4539
  204MOL0     H28110   0.486   3.367   6.264 -0.0325 -0.6552  1.5766
  204MOL0     H28111   0.258   3.341   6.080 -0.5823  1.7125  0.3140
  204MOL0     H28112   0.160   3.233   6.179 -0.3696  0.7856 -0.5307
  204MOL0     H28113   0.331   3.216   6.185 -0.1121  0.2094 -2.5430
  204MOL0     H28114  -0.225   3.491   6.438 -0.1781 -2.4064  1.4874
  204MOL0     H28115  -0.458   3.484   6.390 -0.3752 -0.5644 -0.6623
  204MOL0     H28116  -0.605   3.300   6.421  1.0155  0.4858 -0.3827
  204MOL0     H28117  -0.667   3.449   6.342 -1.7432 -0.5531  0.3712
  204MOL0     H28118  -0.775   3.175   6.272 -0.1045  0.4563 -1.8178
  204MOL0     H28119  -0.827   3.245   6.420  0.6689 -2.8211 -0.5197
  204MOL0     H28120  -0.827   3.376   6.135  0.0271  2.3895  1.8151
  204MOL0     H28121  -0.894   3.464   6.264  1.4294  2.3519 -1.3733
  204MOL0     H28122  -1.067   3.301   6.307 -2.6109  2.5858 -0.3628
  204MOL0     H28123  -1.007   3.183   6.186 -2.2815 -1.3461 -0.2623
  204MOL0     H28124  -1.060   3.388   6.029  1.6788 -1.0316  1.2515
  204MOL0     H28125  -1.216   3.305   6.098 -0.4960  1.6705 -1.0084
  204MOL0     H28126  -1.092   3.574   6.156 -0.5849  1.6104  1.4087
  204MOL0     H28127  -1.193   3.507   6.269  1.5567  2.3880  0.2882
  204MOL0     H28128  -1.312   3.655   6.125  0.1600 -0.4681  1.9967
  204MOL0     H28129  -1.381   3.499   6.109  0.4817  0.0266  0.6630
  204MOL0     H28130  -1.267   3.449   5.891  1.5734  0.2166 -1.9080
  204MOL0     H28131  -1.185   3.599   5.909 -1.0899  4.2862  1.7329
  204MOL0     H28132  -0.389   3.178   6.087 -0.3275 -0.9564  1.1317
  204MOL0     H28133  -0.155   3.199   6.137 -1.6015 -0.6544  0.7023
  204MOL0     H28134   0.127   3.646   6.452 -1.0649 -0.3347 -3.0728
  204MOL0     H28135   0.359   3.708   6.506 -0.8534  1.0545 -1.0406
  204MOL0     H28136   2.448   3.705   5.897  3.2480  1.5669 -1.1118
  204MOL0     H28137   2.580   3.884   5.846  0.2630  0.6842  4.2889
  204MOL0     H28138   2.663   4.259   5.873 -1.3717  0.7889 -0.0101
  204MOL0     H28139   2.809   4.477   5.920 -1.0545  3.1021  1.4411
  204MOL0     H28140   2.716   4.783   6.088 -1.8402 -0.8089 -1.4165
  204MOL0     H28141   2.722   4.616   6.083 -0.4272 -1.8241 -2.1406
  204MOL0     H28142   2.966   4.778   6.007  0.0108 -0.8882  0.5479
  204MOL0     H28143   2.954   4.606   5.985  0.6589 -0.8031  0.4686
  204MOL0     H28144   2.928   4.730   6.275  1.9388  4.4778 -2.7072
  204MOL0     H28145   2.947   4.566   6.220 -0.1426  0.9554  2.0426
  204MOL0     H28146   3.160   4.628   6.130 -2.5691  0.3841 -0.9480
  204MOL0     H28147   3.161   4.676   6.304  0.7521  2.3960  0.8019
  204MOL0     H28148   3.251   5.016   6.124 -1.4554 -0.4255  1.5747
  204MOL0     H28149   2.499   4.707   5.759  1.0029 -0.1428 -0.1175
  204MOL0     H28150   2.388   4.626   5.580  0.1927 -0.6131 -1.6799
  204MOL0     H28151   2.370   4.450   5.553  4.0097  0.3538  0.6802
  204MOL0     H28152   2.280   4.543   5.689 -0.4877  3.1661  1.5929
  205MOL0     O28153   2.227   8.441   0.470  0.1685  0.7761 -0.7537
  205MOL0     C28154   2.270   8.444   0.359  0.4018 -0.6456 -0.4204
  205MOL0     O28155   2.399   8.457   0.319  0.3661  0.1984  0.3454
  205MOL0     C28156   2.497   8.498   0.409  0.5506  0.9146 -0.0845
  205MOL0     C28157   2.627   8.458   0.394 -0.5005  0.2448  0.2462
  205MOL0     C28158   2.739   8.510   0.467  0.0481  0.1847  0.0683
  205MOL0     C28159   2.713   8.598   0.565  0.3467 -0.6118  0.4452
  205MOL0     O28160   2.818   8.656   0.632 -0.2226 -0.1744 -0.6932
  205MOL0     C28161   2.809   8.635   0.777 -0.9555 -0.1843 -0.2120
  205MOL0     C28162   2.944   8.675   0.839 -0.6085  0.4372 -0.3514
  205MOL0     C28163   2.943   8.704   0.991 -0.1264  0.2772  0.8705
  205MOL0     C28164   2.901   8.580   1.069 -0.5302 -0.9647 -0.4676
  205MOL0     C28165   2.957   8.598   1.222 -0.6606  0.4625  0.8563
  205MOL0     C28166   3.105   8.541   1.218  0.5653 -0.0931 -0.2710
  205MOL0     C28167   3.118   8.386   1.198  0.2417 -1.3364 -0.4062
  205MOL0     C28168   3.267   8.346   1.207  0.0885  0.3899 -0.9672
  205MOL0     N28169   3.341   8.411   1.097 -0.5081  0.2165  0.7113
  205MOL0     C28170   3.427   8.511   1.117  0.6795  0.5776 -0.2779
  205MOL0     C28171   3.511   8.509   1.012 -0.3978 -1.0516 -0.2761
  205MOL0     C28172   3.617   8.611   0.988  0.3029 -0.0655  0.9727
  205MOL0     C28173   3.681   8.670   1.116 -0.2607 -0.4002  0.2083
  205MOL0     C28174   3.787   8.768   1.077  0.5019 -0.3161  0.1829
  205MOL0     C28175   3.908   8.698   1.019 -0.9505 -0.2928 -0.6486
  205MOL0     O28176   3.936   8.577   1.094 -0.5134  0.0260  0.7805
  205MOL0     C28177   4.056   8.545   1.152  0.5474  0.3360 -0.6685
  205MOL0     C28178   4.062   8.427   1.227  0.4981  0.0359 -0.1552
  205MOL0     C28179   4.178   8.372   1.280 -0.9373 -0.9615 -0.2984
  205MOL0     C28180   4.169   8.233   1.351  0.5568  0.0686 -0.5803
  205MOL0     C28181   4.299   8.449   1.256  0.6533 -0.3098 -0.3451
  205MOL0     C28182   4.418   8.405   1.316 -0.1899  0.1957 -0.7137
  205MOL0     O28183   4.533   8.399   1.245  1.1210 -0.0700  0.4568
  205MOL0     C28184   4.651   8.342   1.278  0.6935  0.6563  0.2625
  205MOL0     C28185   4.679   8.254   1.387  0.8090  0.9345 -1.4042
  205MOL0     C28186   4.810   8.216   1.411  0.3632  0.6399  0.2867
  205MOL0     C28187   4.911   8.228   1.314 -0.0650  0.0995 -0.6371
  205MOL0     O28188   5.034   8.169   1.331  0.3635 -0.7542  0.5477
  205MOL0     C28189   5.132   8.260   1.372 -0.4964 -0.5914  0.3911
  205MOL0     C28190   5.260   8.180   1.405 -0.1062  0.2484 -0.9887
  205MOL0     C28191   5.263   8.110   1.544  0.1702  0.6033  0.0876
  205MOL0     C28192   5.382   8.157   1.631 -0.2934 -0.5459 -0.6813
  205MOL0     C28193   5.403   8.075   1.763  0.2320 -0.0910  0.2410
  205MOL0     C28194   5.288   8.072   1.865  0.7277  0.4220  1.0168
  205MOL0     C28195   5.248   8.216   1.901 -0.3780 -0.6193 -0.7451
  205MOL0     C28196   5.126   8.214   1.994  0.3056 -0.0634 -0.3242
  205MOL0    Cl28197   5.104   8.367   2.082  0.3506 -0.3013  0.2045
  205MOL0     C28198   4.881   8.289   1.193 -0.2955  0.0933 -0.1872
  205MOL0     C28199   4.751   8.355   1.179  0.0868  1.1329 -1.1371
  205MOL0     O28200   4.406   8.404   1.438  0.4402 -0.0910 -0.0855
  205MOL0     C28201   4.299   8.568   1.178 -0.2422  0.2161  0.0735
  205MOL0     C28202   4.175   8.613   1.126 -1.4653  0.4311 -0.0859
  205MOL0     N28203   3.476   8.419   0.926 -0.0484  0.2791 -0.5764
  205MOL0     N28204   3.379   8.354   0.978 -0.9672 -0.2466 -0.1345
  205MOL0     C28205   2.579   8.630   0.601  0.6956  0.2818  0.2718
  205MOL0     C28206   2.479   8.581   0.522  0.5807 -0.3388  0.4506
  205MOL0     C28207   2.163   8.419   0.259  0.1158  0.0176 -0.4125
  205MOL0     C28208   2.165   8.299   0.177  1.1519 -0.3299 -0.3841
  205MOL0     C28209   2.060   8.285   0.090  0.7188  0.9934  0.7630
  205MOL0     C28210   1.954   8.374   0.077 -0.1047  0.1144  0.4712
  205MOL0     O28211   1.843   8.367  -0.003  0.0578 -0.3635 -0.2709
  205MOL0     C28212   1.825   8.243  -0.083 -0.8571 -0.4001  0.4895
  205MOL0     C28213   1.704   8.276  -0.179  0.4658  0.5916 -0.1952
  205MOL0     C28214   1.731   8.355  -0.307  0.3319  0.3603  1.2720
  205MOL0     C28215   1.738   8.510  -0.281  1.3429 -0.3909  0.1274
  205MOL0     C28216   1.763   8.596  -0.408  0.3407 -0.4363  0.2886
  205MOL0     C28217   1.785   8.660  -0.505 -0.3087  0.1970 -0.7575
  205MOL0     C28218   1.952   8.485   0.159 -0.5194 -1.2011 -0.1572
  205MOL0     C28219   2.062   8.515   0.250 -0.5665  0.3386 -0.5251
  205MOL0     C28220   2.053   8.630   0.347  0.8832 -0.4730 -1.0034
  205MOL0     H28221   2.640   8.387   0.313  0.6921  1.5259 -0.7337
  205MOL0     H28222   2.843   8.486   0.447 -0.2271 -2.3219  1.2901
  205MOL0     H28223   2.787   8.532   0.804 -1.3408  0.2912  1.4139
  205MOL0     H28224   2.729   8.697   0.819 -0.8341 -1.2629  1.7067
  205MOL0     H28225   3.030   8.612   0.817 -0.0505  1.5173 -1.3721
  205MOL0     H28226   2.973   8.769   0.792  1.1482  0.9159  1.5500
  205MOL0     H28227   3.041   8.741   1.021  0.7410 -0.3472 -0.9970
  205MOL0     H28228   2.865   8.774   1.021 -1.7263 -1.8960  2.1032
  205MOL0     H28229   2.792   8.569   1.064 -0.8576  1.5373 -0.1844
  205MOL0     H28230   2.932   8.482   1.033 -0.6394 -2.2557  2.6129
  205MOL0     H28231   2.897   8.546   1.297 -1.0049 -0.8630 -0.2825
  205MOL0     H28232   2.963   8.704   1.248 -0.8269  1.1229 -1.5541
  205MOL0     H28233   3.156   8.588   1.132  0.6016 -0.3003 -0.3623
  205MOL0     H28234   3.152   8.566   1.313 -1.8091 -0.7297  1.1368
  205MOL0     H28235   3.075   8.352   1.103 -0.3062 -0.1086 -0.6133
  205MOL0     H28236   3.068   8.340   1.283 -2.1279  2.1592  0.3099
  205MOL0     H28237   3.311   8.374   1.303  0.2437  0.8378 -1.1660
  205MOL0     H28238   3.284   8.239   1.193  4.2442  0.9745 -1.6459
  205MOL0     H28239   3.430   8.578   1.202 -1.0147 -0.3093  0.5198
  205MOL0     H28240   3.572   8.695   0.933  0.7640 -1.5047 -1.7682
  205MOL0     H28241   3.694   8.561   0.928  0.2758 -0.7968  1.5335
  205MOL0     H28242   3.608   8.730   1.171 -0.1214 -1.1865  1.2628
  205MOL0     H28243   3.721   8.587   1.175  2.8229  1.9790  1.7161
  205MOL0     H28244   3.752   8.841   1.004 -2.6505 -1.1835  0.6945
  205MOL0     H28245   3.806   8.827   1.167 -2.1306  0.2112  0.4776
  205MOL0     H28246   3.896   8.671   0.913  2.0678 -4.5716 -0.1579
  205MOL0     H28247   3.993   8.767   1.020 -0.0731 -1.3494 -0.1121
  205MOL0     H28248   3.964   8.387   1.252 -1.3789  2.7288 -2.5498
  205MOL0     H28249   4.094   8.168   1.305 -1.2413  0.6698  1.3768
  205MOL0     H28250   4.154   8.242   1.459  3.4261  2.1133 -0.2342
  205MOL0     H28251   4.268   8.186   1.349  0.5127 -0.0448 -0.2127
  205MOL0     H28252   4.602   8.215   1.452 -0.6898  0.6148 -3.2804
  205MOL0     H28253   4.833   8.149   1.493  1.5659  1.5030  0.6879
  205MOL0     H28254   5.162   8.332   1.296 -0.8860 -1.5592 -0.7167
  205MOL0     H28255   5.102   8.316   1.461  0.4373  1.1721 -0.3624
  205MOL0     H28256   5.277   8.102   1.330  1.9956  1.2635 -1.6560
  205MOL0     H28257   5.341   8.252   1.393 -0.2080  0.6003  0.2868
  205MOL0     H28258   5.275   8.007   1.511  1.2369  0.8063 -0.1856
  205MOL0     H28259   5.166   8.116   1.594 -1.3760 -1.3211 -2.4415
  205MOL0     H28260   5.374   8.261   1.663  0.9992 -0.2943 -1.1284
  205MOL0     H28261   5.474   8.140   1.575  1.1823  0.8376  1.1795
  205MOL0     H28262   5.404   7.972   1.724  1.3075  0.3477 -0.9570
  205MOL0     H28263   5.502   8.104   1.798  0.3414  0.0661 -0.1924
  205MOL0     H28264   5.298   8.001   1.948 -0.6962 -3.0925 -1.5672
  205MOL0     H28265   5.199   8.029   1.817  0.5378  3.1421 -1.3613
  205MOL0     H28266   5.218   8.276   1.814  0.7732 -0.0093 -0.7392
  205MOL0     H28267   5.329   8.264   1.957 -3.1827 -0.3215  3.4801
  205MOL0     H28268   5.121   8.130   2.064 -1.7544  1.7140  1.8266
  205MOL0     H28269   5.044   8.195   1.924  1.2063  0.4233 -1.5513
  205MOL0     H28270   4.963   8.293   1.122  1.2607 -3.4236  1.1876
  205MOL0     H28271   4.729   8.421   1.096 -1.4253  2.0840 -0.0407
  205MOL0     H28272   4.386   8.630   1.159  0.4234 -1.1099 -1.5373
  205MOL0     H28273   4.183   8.701   1.062 -3.4309 -1.0977 -2.6603
  205MOL0     H28274   2.559   8.703   0.679  0.8223 -1.0184  1.5495
  205MOL0     H28275   2.376   8.604   0.543  0.1592 -0.7012 -1.0790
  205MOL0     H28276   2.233   8.216   0.188  0.0964 -1.1202  0.3770
  205MOL0     H28277   2.046   8.204   0.019 -0.7099  3.5227 -2.1033
  205MOL0     H28278   1.915   8.216  -0.138 -0.3129  0.4741  0.9277
  205MOL0     H28279   1.807   8.160  -0.015 -0.6854 -0.3351  0.6136
  205MOL0     H28280   1.621   8.315  -0.120 -1.5618  0.9151 -3.0274
  205MOL0     H28281   1.670   8.176  -0.209  2.6886 -0.5797  0.9392
  205MOL0     H28282   1.818   8.323  -0.365 -1.0314  2.7576 -2.4114
  205MOL0     H28283   1.654   8.348  -0.383  2.6083  3.1788 -1.6010
  205MOL0     H28284   1.825   8.531  -0.218  2.8625 -0.6448 -1.8152
  205MOL0     H28285   1.648   8.539  -0.225  2.9000  1.4486  1.8334
  205MOL0     H28286   1.799   8.710  -0.599 -2.9272  1.6223 -0.4925
  205MOL0     H28287   1.866   8.551   0.152  0.2136  0.2012  2.6443
  205MOL0     H28288   2.149   8.681   0.350  1.0223 -0.5759 -2.6635
  205MOL0     H28289   1.979   8.708   0.327 -0.0665 -1.0088  0.2485
  205MOL0     H28290   2.013   8.586   0.439  0.6953 -2.3676 -1.9502
  206MOL0     O28291   4.715   7.407   6.154 -0.1975  0.6324  0.4149
  206MOL0     C28292   4.829   7.362   6.164  0.4427  0.2007 -0.3333
  206MOL0     O28293   4.936   7.440   6.195 -0.7048 -0.5184 -0.4630
  206MOL0     C28294   4.897   7.569   6.235  0.1045 -0.6989  0.0577
  206MOL0     C28295   4.847   7.660   6.139  0.1433 -0.8059  0.0375
  206MOL0     C28296   4.828   7.793   6.184  0.3533 -0.4522  0.1140
  206MOL0     C28297   4.865   7.841   6.307 -0.5232  0.1553 -0.3348
  206MOL0     O28298   4.832   7.961   6.357  0.4019 -1.0117  0.1108
  206MOL0     C28299   4.836   8.073   6.267  0.0308 -0.1314  0.4781
  206MOL0     C28300   4.882   8.197   6.342 -0.5112 -0.3385  0.0696
  206MOL0     C28301   4.889   8.322   6.257 -0.8541  1.0692 -0.5556
  206MOL0     C28302   4.937   8.438   6.341 -0.2734 -0.9762 -0.9020
  206MOL0     C28303   4.964   8.567   6.256  0.5429 -0.2066  0.4420
  206MOL0     C28304   4.941   8.696   6.334  0.3777  0.0343 -0.7746
  206MOL0     C28305   4.958   8.821   6.251 -0.7552 -0.4595  0.5446
  206MOL0     C28306   4.938   8.953   6.328  0.8347  0.2325  0.8136
  206MOL0     N28307   5.008   9.055   6.254  0.0272  0.0685 -0.2684
  206MOL0     C28308   5.144   9.065   6.239  0.2345 -0.1670  0.6123
  206MOL0     C28309   5.176   9.193   6.207 -0.0444  0.2215 -0.5908
  206MOL0     C28310   5.303   9.247   6.171 -0.1870  0.1114 -0.6686
  206MOL0     C28311   5.377   9.322   6.288  0.3642  0.0920  0.5566
  206MOL0     C28312   5.537   9.322   6.286  0.0111  0.2402 -0.4987
  206MOL0     C28313   5.592   9.411   6.396  0.0227  0.0199  0.1591
  206MOL0     O28314   5.533   9.546   6.389  0.1694 -0.3127  0.9766
  206MOL0     C28315   5.565   9.619   6.283  0.0998 -0.3949 -0.6372
  206MOL0     C28316   5.504   9.740   6.273  1.3526 -0.8020  0.4525
  206MOL0     C28317   5.540   9.848   6.181  0.3991 -0.8946  0.3149
  206MOL0     C28318   5.466   9.981   6.200 -0.2501  0.3592 -0.0224
  206MOL0     C28319   5.640   9.826   6.080  0.6415  0.6095 -0.7328
  206MOL0     C28320   5.685   9.926   5.971  0.4000  0.6899 -0.4172
  206MOL0     O28321   5.692  10.055   6.010  0.3253 -0.3444  0.9360
  206MOL0     C28322   5.691  10.162   5.917 -0.0687 -0.6373 -0.9910
  206MOL0     C28323   5.649  10.157   5.779 -1.1969  0.3226  0.6125
  206MOL0     C28324   5.647  10.272   5.695  0.1477  0.6339 -0.2962
  206MOL0     C28325   5.701  10.390   5.740 -0.5200  0.0114  0.3053
  206MOL0     O28326   5.721  10.484   5.642 -0.3316  0.7092  0.1767
  206MOL0     C28327   5.628  10.586   5.653  0.1789 -0.0183  0.1019
  206MOL0     C28328   5.695  10.711   5.719  0.0641 -0.1199  0.5384
  206MOL0     C28329   5.620  10.849   5.686  0.7414  0.3199  0.1978
  206MOL0     C28330   5.486  10.858   5.768  0.3243 -0.7779  0.1016
  206MOL0     C28331   5.410  10.994   5.746  0.0066  0.7921  0.0264
  206MOL0     C28332   5.261  10.968   5.760  0.1935 -0.2878 -0.1627
  206MOL0     C28333   5.207  10.932   5.900 -0.0959  0.6063  0.1690
  206MOL0     C28334   5.104  10.829   5.890 -0.0737  1.0196  0.3073
  206MOL0    Cl28335   4.954  10.890   5.806 -0.0244  0.3811  0.0061
  206MOL0     C28336   5.755  10.390   5.872 -0.5759  0.1056 -0.0704
  206MOL0     C28337   5.751  10.280   5.960  0.2660 -0.6935 -0.3529
  206MOL0     O28338   5.722   9.882   5.863 -0.3779 -0.2828 -0.2448
  206MOL0     C28339   5.698   9.705   6.085  0.3175 -0.2026  1.3182
  206MOL0     C28340   5.659   9.603   6.178  0.2362  0.2162  0.0513
  206MOL0     N28341   5.051   9.261   6.199  0.6687  0.9583  0.3599
  206MOL0     N28342   4.956   9.174   6.231  0.4127  0.2404  0.0698
  206MOL0     C28343   4.913   7.748   6.399 -0.6228 -0.8718 -0.0957
  206MOL0     C28344   4.933   7.612   6.362 -0.1692 -0.1040  0.1806
  206MOL0     C28345   4.848   7.217   6.137 -0.1762 -0.1976  0.4948
  206MOL0     C28346   4.979   7.163   6.165 -0.1127 -0.5495  0.4663
  206MOL0     C28347   5.003   7.029   6.141  0.4101 -0.1906  0.4014
  206MOL0     C28348   4.908   6.940   6.102  0.7355  0.1467  1.1032
  206MOL0     O28349   4.956   6.807   6.076  0.3482 -1.1122  0.4692
  206MOL0     C28350   4.864   6.709   6.036 -0.3951  0.5196 -0.1366
  206MOL0     C28351   4.915   6.570   6.070  0.0086 -0.0245  0.5965
  206MOL0     C28352   4.915   6.535   6.223  0.0838  0.4650  0.8279
  206MOL0     C28353   5.008   6.630   6.295 -0.1715  0.2648  0.5453
  206MOL0     C28354   5.083   6.569   6.408 -0.0092  0.3925 -0.3826
  206MOL0     C28355   5.152   6.530   6.497 -0.5457  0.5972 -0.2151
  206MOL0     C28356   4.776   6.989   6.083  0.0981 -0.4620 -0.6899
  206MOL0     C28357   4.744   7.123   6.093 -0.0970 -0.0268 -1.0506
  206MOL0     C28358   4.594   7.160   6.088  0.9890 -1.4262  0.0156
  206MOL0     H28359   4.827   7.635   6.036  3.4223  3.8313 -2.1085
  206MOL0     H28360   4.787   7.869   6.119  2.0258  1.1806  0.8809
  206MOL0     H28361   4.740   8.084   6.215  0.7747 -1.9896 -1.4514
  206MOL0     H28362   4.916   8.062   6.193  0.3285  1.1409  0.5883
  206MOL0     H28363   4.806   8.218   6.418  0.2197 -0.5534  0.8699
  206MOL0     H28364   4.973   8.171   6.396  1.7442 -1.5667 -3.8769
  206MOL0     H28365   4.968   8.304   6.184 -0.1250 -2.0206  0.8344
  206MOL0     H28366   4.793   8.352   6.213 -1.3157  2.6937  1.3820
  206MOL0     H28367   4.870   8.449   6.426 -2.3057 -1.9138 -2.3170
  206MOL0     H28368   5.032   8.413   6.390  1.0867  0.5834 -2.5780
  206MOL0     H28369   4.900   8.577   6.167  3.5833  0.8990 -1.8217
  206MOL0     H28370   5.068   8.567   6.221  0.5458  0.1296  0.4417
  206MOL0     H28371   4.838   8.701   6.369 -0.5978 -0.9653 -3.2002
  206MOL0     H28372   5.001   8.692   6.425 -2.0806 -3.1075  0.9109
  206MOL0     H28373   4.891   8.827   6.165  0.5492 -1.9595 -0.6652
  206MOL0     H28374   5.055   8.814   6.199  0.6543  1.6450  2.7034
  206MOL0     H28375   4.833   8.985   6.331  0.6065 -0.3902 -0.2373
  206MOL0     H28376   4.963   8.952   6.435  0.5540 -1.8960  0.9063
  206MOL0     H28377   5.218   8.986   6.249  0.2539 -0.0800  1.1613
  206MOL0     H28378   5.284   9.313   6.086  0.5785  0.1592 -0.8088
  206MOL0     H28379   5.369   9.169   6.131  1.6936  2.1379 -1.7570
  206MOL0     H28380   5.347   9.425   6.264 -0.5942 -0.9605 -3.6093
  206MOL0     H28381   5.345   9.292   6.388  1.8690 -1.8233  0.5242
  206MOL0     H28382   5.569   9.220   6.312 -0.2042  0.2232 -0.2963
  206MOL0     H28383   5.577   9.352   6.189  0.6441  0.2512 -0.2331
  206MOL0     H28384   5.560   9.372   6.493  1.4303 -0.9301  0.2831
  206MOL0     H28385   5.701   9.418   6.398  0.1510 -1.0778 -1.2867
  206MOL0     H28386   5.414   9.745   6.334  1.4471 -0.3173  0.5548
  206MOL0     H28387   5.488  10.020   6.299  0.2975  0.6862 -0.2676
  206MOL0     H28388   5.361   9.961   6.176 -0.0459 -1.5803  0.5386
  206MOL0     H28389   5.506  10.064   6.141  3.7352 -1.0188  0.4275
  206MOL0     H28390   5.621  10.060   5.739  0.2981 -0.6047  1.6954
  206MOL0     H28391   5.626  10.279   5.589 -0.9077  2.1844 -0.0107
  206MOL0     H28392   5.604  10.598   5.547  0.0880 -0.3418  0.0824
  206MOL0     H28393   5.537  10.555   5.704  0.5594 -1.2353  0.0830
  206MOL0     H28394   5.706  10.705   5.828  0.0886 -4.6526  0.4847
  206MOL0     H28395   5.796  10.728   5.681 -0.6777  1.9221 -0.6686
  206MOL0     H28396   5.594  10.862   5.581 -1.8121 -4.0707  0.0599
  206MOL0     H28397   5.671  10.940   5.719  1.6381 -1.1874  3.3915
  206MOL0     H28398   5.510  10.849   5.874  1.6187  1.6909  0.0852
  206MOL0     H28399   5.418  10.776   5.741  0.3481 -0.4044 -1.1852
  206MOL0     H28400   5.451  11.066   5.818  0.1353 -1.2795  2.1543
  206MOL0     H28401   5.437  11.043   5.652  2.1360  0.0822  0.2223
  206MOL0     H28402   5.238  10.888   5.689 -0.4707  1.0256 -1.4940
  206MOL0     H28403   5.215  11.064   5.733  1.7061  0.1553 -1.2981
  206MOL0     H28404   5.162  11.021   5.945 -0.3974  0.8480 -0.5764
  206MOL0     H28405   5.290  10.885   5.953 -0.6890 -2.4693 -1.3751
  206MOL0     H28406   5.067  10.778   5.979 -0.7692  1.2823  0.1724
  206MOL0     H28407   5.143  10.743   5.835  1.9642  3.1089 -1.7595
  206MOL0     H28408   5.787  10.484   5.916 -0.2482 -0.9425  2.0500
  206MOL0     H28409   5.785  10.310   6.059 -1.4278  1.3988 -0.3402
  206MOL0     H28410   5.774   9.683   6.011 -0.9146 -0.4439  0.0607
  206MOL0     H28411   5.712   9.510   6.167  1.1760  0.3383  2.7197
  206MOL0     H28412   4.957   7.784   6.491  0.0303 -1.8996  0.0071
  206MOL0     H28413   4.975   7.547   6.438 -0.0401 -3.6588 -2.6198
  206MOL0     H28414   5.062   7.218   6.209 -0.6326  0.1660  0.5655
  206MOL0     H28415   5.105   6.996   6.132  0.6538  0.6311  0.0026
  206MOL0     H28416   4.768   6.706   6.087 -0.4856 -2.2408 -0.2773
  206MOL0     H28417   4.857   6.721   5.927  5.1150  0.7553 -0.7828
  206MOL0     H28418   5.013   6.554   6.023  0.4364  2.9070  0.3185
  206MOL0     H28419   4.857   6.495   6.016  0.6897 -1.2307  1.4776
  206MOL0     H28420   4.811   6.552   6.254  0.8657  1.3421  3.1270
  206MOL0     H28421   4.935   6.430   6.243 -1.8089 -0.3085 -0.9010
  206MOL0     H28422   4.946   6.711   6.335 -2.1555 -1.1144  0.4698
  206MOL0     H28423   5.080   6.654   6.217 -0.0451 -0.8067  0.3198
  206MOL0     H28424   5.226   6.494   6.566 -1.3528 -0.8257 -0.0449
  206MOL0     H28425   4.697   6.923   6.049 -0.5487  0.6902 -1.5101
  206MOL0     H28426   4.526   7.076   6.073 -0.6433  0.0423 -1.2066
  206MOL0     H28427   4.575   7.212   6.182 -2.1279  0.1258 -1.3422
  206MOL0     H28428   4.561   7.234   6.014  0.6487 -0.6083  0.9737
  207MOL0     O28429   2.813   8.061   4.381 -0.8022 -0.2341  1.0567
  207MOL0     C28430   2.690   8.076   4.382 -0.3889 -0.0204 -0.0993
  207MOL0     O28431   2.629   8.175   4.452  0.2263 -0.0233  0.2682
  207MOL0     C28432   2.669   8.216   4.572  0.0803  0.0290  0.2374
  207MOL0     C28433   2.606   8.331   4.623  0.2416 -0.5075 -0.3272
  207MOL0     C28434   2.651   8.394   4.743 -0.7133 -0.1272 -0.1919
  207MOL0     C28435   2.753   8.329   4.822  0.5089  0.0458  0.0232
  207MOL0     O28436   2.818   8.372   4.934  0.3565 -0.2061 -0.1075
  207MOL0     C28437   2.783   8.506   4.992  0.4427  0.3129 -0.3445
  207MOL0     C28438   2.815   8.489   5.136  0.0039  0.2187  0.0836
  207MOL0     C28439   2.967   8.454   5.167 -0.1751  0.4183 -1.0637
  207MOL0     C28440   3.013   8.459   5.311  0.2395 -0.0198 -0.2881
  207MOL0     C28441   3.154   8.515   5.330  0.1559 -0.3381 -0.9555
  207MOL0     C28442   3.182   8.547   5.474  0.2838 -0.1267 -0.5506
  207MOL0     C28443   3.136   8.689   5.509 -0.2609  0.0423  0.1415
  207MOL0     C28444   3.135   8.722   5.666  0.2476  0.2430  0.3973
  207MOL0     N28445   3.101   8.862   5.701  0.2265 -0.1119  0.0326
  207MOL0     C28446   2.976   8.921   5.692 -0.3995  0.1254 -0.6530
  207MOL0     C28447   2.996   9.049   5.730 -0.7324 -0.1363  0.1255
  207MOL0     C28448   2.899   9.160   5.741 -0.8579 -0.2149  0.2487
  207MOL0     C28449   2.942   9.281   5.662 -1.1919  0.3041  0.2178
  207MOL0     C28450   2.824   9.376   5.628  0.9947  0.9617 -0.1817
  207MOL0     C28451   2.869   9.500   5.542  0.6023 -0.0206 -0.1904
  207MOL0     O28452   2.964   9.451   5.446  0.8603 -0.0422 -0.0046
  207MOL0     C28453   2.929   9.385   5.333 -0.1590  0.9867  0.8286
  207MOL0     C28454   2.812   9.366   5.260 -0.3942 -0.0415 -0.5557
  207MOL0     C28455   2.802   9.310   5.132 -0.0118 -0.6136  0.7712
  207MOL0     C28456   2.670   9.300   5.066  1.1610 -0.1733  0.9488
  207MOL0     C28457   2.920   9.274   5.068 -0.1801  0.5634  0.5794
  207MOL0     C28458   2.942   9.236   4.926 -0.3991  0.4651  0.4239
  207MOL0     O28459   3.066   9.211   4.885 -0.8608  0.3123  0.0695
  207MOL0     C28460   3.106   9.179   4.759  0.0048 -0.4017 -0.0038
  207MOL0     C28461   3.040   9.206   4.636  0.1966 -0.0719  0.1182
  207MOL0     C28462   3.088   9.154   4.512  0.5905 -0.2155  0.2754
  207MOL0     C28463   3.211   9.083   4.511  0.1109  0.5474 -0.9318
  207MOL0     O28464   3.233   9.040   4.385  0.4183 -0.2969 -0.1264
  207MOL0     C28465   3.359   8.976   4.364  0.0119  0.2062 -0.0719
  207MOL0     C28466   3.401   9.003   4.220  0.4622  0.0065  0.0856
  207MOL0     C28467   3.515   8.915   4.178  0.6061 -0.1820  0.1934
  207MOL0     C28468   3.569   8.941   4.034 -0.2189 -0.2600 -0.8390
  207MOL0     C28469   3.717   8.901   4.029  0.3238 -0.1044  0.4472
  207MOL0     C28470   3.764   8.766   4.077  0.0013 -0.0037 -1.1515
  207MOL0     C28471   3.685   8.655   4.009  0.1821  0.5275  0.8994
  207MOL0     C28472   3.729   8.514   4.045 -0.0999 -1.0953 -0.9928
  207MOL0    Cl28473   3.643   8.390   3.940 -0.1637 -0.0498  0.1085
  207MOL0     C28474   3.283   9.063   4.634 -0.2123  0.0163  0.5203
  207MOL0     C28475   3.226   9.108   4.750  1.2364  0.1293  0.0487
  207MOL0     O28476   2.839   9.252   4.856  0.1935 -0.0872  0.1359
  207MOL0     C28477   3.042   9.277   5.141 -0.1258 -0.5766 -0.2929
  207MOL0     C28478   3.036   9.339   5.267  0.7887  0.6765 -0.2905
  207MOL0     N28479   3.134   9.060   5.764  0.3530  0.3899  0.1963
  207MOL0     N28480   3.196   8.952   5.744  0.6943  0.2484  0.5011
  207MOL0     C28481   2.818   8.225   4.758  0.3063 -0.0963 -0.5574
  207MOL0     C28482   2.782   8.167   4.638 -0.0728  0.3498 -0.6810
  207MOL0     C28483   2.611   8.002   4.288  0.0798 -0.0745  0.7059
  207MOL0     C28484   2.476   8.046   4.271 -0.6532 -0.7405  1.1369
  207MOL0     C28485   2.391   7.996   4.174  0.5309 -0.1478  0.0345
  207MOL0     C28486   2.436   7.891   4.090 -0.5112 -0.2054 -0.1594
  207MOL0     O28487   2.358   7.822   4.004  0.1608  0.3181 -0.5167
  207MOL0     C28488   2.218   7.857   4.005 -0.1300  0.3985 -0.5540
  207MOL0     C28489   2.188   7.972   3.903  0.8273 -0.2963  1.0129
  207MOL0     C28490   2.214   7.929   3.751  0.2075 -0.1527  0.0672
  207MOL0     C28491   2.121   8.003   3.643  0.1911  0.4803 -0.0660
  207MOL0     C28492   2.140   8.150   3.678  0.2725 -0.4471 -0.5913
  207MOL0     C28493   2.153   8.262   3.695  0.3724 -0.7795  0.1388
  207MOL0     C28494   2.568   7.847   4.102 -0.3366 -0.3493 -0.6881
  207MOL0     C28495   2.659   7.901   4.194  0.5817 -0.1690  0.6032
  207MOL0     C28496   2.806   7.847   4.184 -1.2822  0.8817 -0.7234
  207MOL0     H28497   2.534   8.377   4.556  2.7240  2.1246 -1.3758
  207MOL0     H28498   2.624   8.490   4.786  2.2625  0.4791  0.5270
  207MOL0     H28499   2.674   8.519   4.998 -0.2833 -4.1048 -0.8919
  207MOL0     H28500   2.830   8.593   4.945  4.5408 -1.2234  0.4774
  207MOL0     H28501   2.800   8.586   5.185 -0.2105 -0.2129  0.8715
  207MOL0     H28502   2.756   8.417   5.192  0.6945 -1.3048 -1.0686
  207MOL0     H28503   3.004   8.358   5.129  0.4919  0.0244  0.4836
  207MOL0     H28504   3.019   8.530   5.107 -1.4019  1.1347 -1.2471
  207MOL0     H28505   2.936   8.515   5.365 -1.4526 -1.1321 -1.4470
  207MOL0     H28506   3.008   8.358   5.355 -0.7400 -0.4534 -1.3616
  207MOL0     H28507   3.167   8.610   5.278 -2.0915  0.5369 -0.0718
  207MOL0     H28508   3.220   8.436   5.293  1.8382 -1.4455  3.7582
  207MOL0     H28509   3.134   8.468   5.532  0.7713 -0.1749 -0.2137
  207MOL0     H28510   3.288   8.534   5.493 -0.2030 -1.9408  1.2459
  207MOL0     H28511   3.038   8.700   5.463  1.0466 -0.2475 -3.0157
  207MOL0     H28512   3.216   8.750   5.465  0.7551 -0.9487  0.5709
  207MOL0     H28513   3.069   8.651   5.717  2.1172 -2.3522 -0.5800
  207MOL0     H28514   3.237   8.694   5.694  0.3688 -2.3422 -2.1894
  207MOL0     H28515   2.890   8.871   5.650  0.8556 -1.5233 -1.3960
  207MOL0     H28516   2.875   9.178   5.846 -0.2088  0.3718  0.3056
  207MOL0     H28517   2.809   9.121   5.694 -1.1349 -0.8466  1.2817
  207MOL0     H28518   3.022   9.341   5.708  0.2457 -1.4276  0.0803
  207MOL0     H28519   2.988   9.235   5.574  0.5919  0.8002  0.8327
  207MOL0     H28520   2.746   9.325   5.571 -1.6703  0.5837  3.4293
  207MOL0     H28521   2.789   9.408   5.726  2.4972 -2.7164  1.7288
  207MOL0     H28522   2.780   9.540   5.491 -1.2054 -0.9314  2.0872
  207MOL0     H28523   2.902   9.572   5.617  2.1706 -0.7846 -0.1270
  207MOL0     H28524   2.720   9.383   5.316 -0.3026 -1.6126  0.1040
  207MOL0     H28525   2.582   9.328   5.125  0.4666  0.0069 -0.1289
  207MOL0     H28526   2.658   9.197   5.029 -0.2619  0.3260 -0.0586
  207MOL0     H28527   2.670   9.370   4.982 -0.6604  1.9457  2.5897
  207MOL0     H28528   2.949   9.265   4.629 -0.4110 -0.9719  0.3217
  207MOL0     H28529   3.029   9.174   4.423 -0.2849  2.5115  1.3738
  207MOL0     H28530   3.434   9.013   4.435 -0.6017  1.5137 -0.0555
  207MOL0     H28531   3.334   8.871   4.380  0.1270  0.1563 -0.2205
  207MOL0     H28532   3.314   8.977   4.159  1.8388 -3.5163 -0.6713
  207MOL0     H28533   3.418   9.108   4.193 -2.0557  0.3727 -0.3152
  207MOL0     H28534   3.477   8.814   4.197  1.2352 -0.0129  2.8328
  207MOL0     H28535   3.599   8.927   4.247  1.6415  2.2162 -1.3472
  207MOL0     H28536   3.566   9.050   4.024  0.5812  0.0962  1.9609
  207MOL0     H28537   3.497   8.889   3.970 -3.0444 -0.7261  2.4381
  207MOL0     H28538   3.751   8.915   3.926 -2.4663 -3.3253 -1.1244
  207MOL0     H28539   3.765   8.982   4.085  1.9466 -1.1165  0.5938
  207MOL0     H28540   3.740   8.759   4.183  2.5698  1.9230 -0.3389
  207MOL0     H28541   3.873   8.755   4.067 -0.0373 -0.2631 -1.3235
  207MOL0     H28542   3.679   8.667   3.901  0.7212  0.0558  0.8085
  207MOL0     H28543   3.583   8.659   4.048 -0.9650 -5.0688 -0.7045
  207MOL0     H28544   3.702   8.500   4.150 -3.5922  1.6475 -1.3294
  207MOL0     H28545   3.837   8.505   4.030 -0.3463 -2.2204 -2.2923
  207MOL0     H28546   3.369   8.996   4.641  0.5092  0.1236 -3.8656
  207MOL0     H28547   3.269   9.086   4.847  0.0566 -2.1490  0.1225
  207MOL0     H28548   3.130   9.229   5.100 -0.1947  0.3422 -1.5560
  207MOL0     H28549   3.134   9.352   5.314  1.3730  1.4797 -1.6756
  207MOL0     H28550   2.901   8.185   4.816  0.6528  0.0953 -0.9172
  207MOL0     H28551   2.833   8.076   4.610  1.7239  0.9100  0.5751
  207MOL0     H28552   2.444   8.111   4.352 -3.7808 -2.5048  1.4942
  207MOL0     H28553   2.291   8.037   4.184  0.7609  0.7275 -1.0992
  207MOL0     H28554   2.164   7.771   3.964 -2.8849  2.3664 -1.3703
  207MOL0     H28555   2.170   7.864   4.103 -0.2708 -1.1341 -0.4901
  207MOL0     H28556   2.253   8.057   3.928  1.0732 -0.0645 -0.3235
  207MOL0     H28557   2.082   7.996   3.916  0.6144 -0.3951 -0.3944
  207MOL0     H28558   2.317   7.962   3.731 -0.3399 -0.0631 -3.1037
  207MOL0     H28559   2.217   7.820   3.747  0.2129 -0.2144  1.4891
  207MOL0     H28560   2.020   7.967   3.664  0.2112 -1.2751 -2.5692
  207MOL0     H28561   2.145   7.976   3.540 -2.0957  0.4009 -0.6363
  207MOL0     H28562   2.157   8.367   3.714  0.0532 -0.5722 -0.8942
  207MOL0     H28563   2.615   7.767   4.047  3.0260  0.1534  1.1644
  207MOL0     H28564   2.802   7.768   4.109 -0.9197 -1.0846  1.2115
  207MOL0     H28565   2.877   7.920   4.145 -0.6511  2.0536  2.2957
  207MOL0     H28566   2.844   7.806   4.278 -0.9107  2.4138 -0.1708
  208MOL0     O28567   4.520   9.505   1.210 -0.7144 -0.0121 -0.6878
  208MOL0     C28568   4.480   9.617   1.250 -0.0213  0.8370  0.7443
  208MOL0     O28569   4.503   9.661   1.375  0.2616  0.0190 -1.2376
  208MOL0     C28570   4.563   9.556   1.463 -0.1118 -0.8694  0.1981
  208MOL0     C28571   4.477   9.488   1.553  0.0665 -0.4178 -0.6907
  208MOL0     C28572   4.520   9.382   1.627 -0.3495  0.0160  0.4788
  208MOL0     C28573   4.650   9.340   1.633 -0.6220 -0.5669  0.0389
  208MOL0     O28574   4.688   9.243   1.725  0.0335  0.6999 -0.1464
  208MOL0     C28575   4.706   9.295   1.853  0.6150  0.8617 -1.0631
  208MOL0     C28576   4.674   9.181   1.951  0.0079  0.2773  0.0049
  208MOL0     C28577   4.770   9.052   1.921  0.5424 -0.2132 -0.9773
  208MOL0     C28578   4.746   8.957   2.038 -0.1755 -0.3963 -0.2028
  208MOL0     C28579   4.859   8.859   2.059 -0.2739  0.2863 -0.4466
  208MOL0     C28580   4.885   8.753   1.955  0.6234 -0.1801  0.1216
  208MOL0     C28581   5.023   8.762   1.896 -0.6051  0.0804 -0.4107
  208MOL0     C28582   5.134   8.708   1.993 -0.7521  0.1383  0.2794
  208MOL0     N28583   5.268   8.692   1.934 -0.0422 -0.0798  0.0918
  208MOL0     C28584   5.309   8.580   1.855 -0.0214 -0.2964  0.4771
  208MOL0     C28585   5.440   8.613   1.828  0.0212  0.7016 -0.0257
  208MOL0     C28586   5.519   8.523   1.736 -0.6974 -0.2540  0.0189
  208MOL0     C28587   5.486   8.549   1.581  0.1141 -0.2122  0.6276
  208MOL0     C28588   5.595   8.476   1.496  0.2095 -0.3995  0.2787
  208MOL0     C28589   5.575   8.494   1.347  0.4340  0.2997 -0.2132
  208MOL0     O28590   5.591   8.629   1.291  0.0440  0.1996 -0.4920
  208MOL0     C28591   5.724   8.668   1.270 -0.6925  0.4644  0.0440
  208MOL0     C28592   5.737   8.789   1.211 -0.0811 -0.1123  0.0399
  208MOL0     C28593   5.855   8.858   1.181 -0.3298  0.0559 -0.1054
  208MOL0     C28594   5.854   8.993   1.102  0.0718  0.0647  0.4270
  208MOL0     C28595   5.976   8.780   1.200  0.5973 -0.7003 -0.4213
  208MOL0     C28596   6.100   8.825   1.136  1.1364 -0.5400 -0.0959
  208MOL0     O28597   6.123   8.791   1.008 -0.3473 -0.2732  0.1327
  208MOL0     C28598   6.228   8.853   0.943 -0.3352 -0.1693  0.0801
  208MOL0     C28599   6.352   8.786   0.946  0.9298  0.3154 -0.1579
  208MOL0     C28600   6.451   8.834   0.859 -0.0257  0.1145 -0.7077
  208MOL0     C28601   6.426   8.944   0.766  0.2570  1.2225  0.4355
  208MOL0     O28602   6.526   9.007   0.698  0.3960  1.5037  0.3663
  208MOL0     C28603   6.661   8.996   0.745 -0.4686 -0.4290 -0.4529
  208MOL0     C28604   6.743   8.904   0.669 -0.5879 -0.3334  0.6051
  208MOL0     C28605   6.902   8.908   0.703  0.3871 -0.4719  0.0479
  208MOL0     C28606   6.938   8.811   0.816 -0.9717  0.3617  0.1926
  208MOL0     C28607   7.088   8.795   0.831  0.4459  0.0910  1.1324
  208MOL0     C28608   7.110   8.663   0.898  0.6659 -0.1415 -0.4494
  208MOL0     C28609   7.256   8.649   0.938  0.5072 -1.0625 -0.9225
  208MOL0     C28610   7.302   8.511   0.969 -0.3120 -0.4479  0.7533
  208MOL0    Cl28611   7.274   8.401   0.822  0.6729  0.0562  0.0878
  208MOL0     C28612   6.298   8.999   0.764 -0.5083  0.0177 -0.2083
  208MOL0     C28613   6.208   8.965   0.860  0.2859 -0.9438 -1.0175
  208MOL0     O28614   6.158   8.914   1.200  0.4231 -0.2469 -0.2696
  208MOL0     C28615   5.973   8.652   1.260 -0.5270 -0.3888  0.5975
  208MOL0     C28616   5.843   8.603   1.298  0.3277 -0.4013  0.5761
  208MOL0     N28617   5.468   8.741   1.879  0.1105 -0.1504  0.0622
  208MOL0     N28618   5.366   8.787   1.940 -0.1017 -0.6051  0.0898
  208MOL0     C28619   4.739   9.408   1.543  0.2343  0.2100 -1.1497
  208MOL0     C28620   4.702   9.526   1.471  0.1419  0.6270  0.0446
  208MOL0     C28621   4.398   9.701   1.166  0.2770  0.3001  1.2275
  208MOL0     C28622   4.322   9.802   1.226 -0.4249 -0.1791  0.0946
  208MOL0     C28623   4.228   9.881   1.150 -0.7339  0.1669  0.2990
  208MOL0     C28624   4.210   9.856   1.012 -0.3102 -0.2426 -0.8922
  208MOL0     O28625   4.124   9.934   0.944  0.1212 -0.7482  0.3839
  208MOL0     C28626   4.008   9.858   0.902 -0.3494 -0.0202  0.2416
  208MOL0     C28627   4.012   9.848   0.752 -0.1331 -0.0804  0.2894
  208MOL0     C28628   3.976   9.982   0.686 -0.8006 -0.2270 -0.0629
  208MOL0     C28629   3.957   9.978   0.535 -0.1162  0.5535  0.5881
  208MOL0     C28630   3.894  10.095   0.483 -0.4575 -0.9741  0.8884
  208MOL0     C28631   3.842  10.193   0.433 -0.4939 -0.2116 -0.0605
  208MOL0     C28632   4.303   9.770   0.954  0.3350 -0.3803 -0.1502
  208MOL0     C28633   4.398   9.690   1.021  0.3731 -1.1329 -0.2708
  208MOL0     C28634   4.481   9.606   0.928  0.9659  0.1095 -0.0768
  208MOL0     H28635   4.371   9.505   1.538  0.3950  3.5529  0.3814
  208MOL0     H28636   4.455   9.305   1.668 -0.4465 -0.1977 -0.0715
  208MOL0     H28637   4.633   9.372   1.879 -0.1346  0.1962 -1.1471
  208MOL0     H28638   4.801   9.347   1.866  2.2903 -1.7984 -1.7248
  208MOL0     H28639   4.701   9.221   2.049 -0.4986  2.6839 -0.7722
  208MOL0     H28640   4.570   9.148   1.955 -0.6861  2.2811 -0.7337
  208MOL0     H28641   4.753   8.998   1.828 -0.0824 -0.8765 -0.4916
  208MOL0     H28642   4.877   9.073   1.932  0.2350  1.1437 -0.4010
  208MOL0     H28643   4.745   9.016   2.130  1.9641  1.9566 -1.5254
  208MOL0     H28644   4.647   8.914   2.021 -0.0973  0.4089 -3.3368
  208MOL0     H28645   4.820   8.808   2.148 -0.9009 -2.5361 -2.2349
  208MOL0     H28646   4.956   8.906   2.082 -0.4158  0.3004  0.1587
  208MOL0     H28647   4.877   8.656   2.004  3.5036  0.1857  1.5856
  208MOL0     H28648   4.821   8.761   1.867  0.1988  2.9033  0.5731
  208MOL0     H28649   5.038   8.866   1.867  1.0885  1.0668  3.3585
  208MOL0     H28650   5.026   8.694   1.811  0.4430 -0.8648  0.3355
  208MOL0     H28651   5.139   8.781   2.074 -0.4024 -0.8793  1.1886
  208MOL0     H28652   5.104   8.608   2.025 -1.7593 -0.3004 -1.8492
  208MOL0     H28653   5.255   8.489   1.833 -0.0168 -1.0687  3.2197
  208MOL0     H28654   5.495   8.419   1.763  0.9398 -1.1504 -1.7117
  208MOL0     H28655   5.627   8.533   1.753 -0.3595 -0.9011 -1.6038
  208MOL0     H28656   5.393   8.503   1.549  0.5009 -0.5273 -0.0646
  208MOL0     H28657   5.496   8.656   1.561  1.9058 -0.1184  1.7224
  208MOL0     H28658   5.696   8.514   1.516 -1.1164  3.4419  0.6415
  208MOL0     H28659   5.597   8.369   1.517 -0.7438 -0.5259 -0.2491
  208MOL0     H28660   5.654   8.426   1.311 -2.0543 -3.8620  1.4792
  208MOL0     H28661   5.476   8.453   1.324  2.0429 -3.9164 -0.5324
  208MOL0     H28662   5.643   8.841   1.191 -0.9267 -1.8289 -0.6280
  208MOL0     H28663   5.922   8.991   1.017  0.2960 -4.6002  0.4871
  208MOL0     H28664   5.860   9.077   1.173 -2.6817  2.3655 -1.8271
  208MOL0     H28665   5.754   8.999   1.058  0.8183 -2.5269 -1.9112
  208MOL0     H28666   6.339   8.698   1.007  1.0387 -0.5144 -1.2919
  208MOL0     H28667   6.551   8.793   0.854  0.3019  1.0095 -2.6128
  208MOL0     H28668   6.700   9.097   0.738 -2.5915  0.4769 -0.1842
  208MOL0     H28669   6.669   8.968   0.851 -0.7446  0.2070 -0.2549
  208MOL0     H28670   6.712   8.800   0.683  0.6913 -0.7789  0.2651
  208MOL0     H28671   6.730   8.941   0.567 -3.2240 -0.2696  0.9162
  208MOL0     H28672   6.937   9.006   0.736  3.6761 -0.8102 -1.9995
  208MOL0     H28673   6.960   8.867   0.620 -1.0025 -1.8051 -0.3116
  208MOL0     H28674   6.897   8.711   0.800 -0.3423 -0.1233  1.4834
  208MOL0     H28675   6.884   8.852   0.902  1.6752  1.0532  1.6227
  208MOL0     H28676   7.127   8.792   0.729 -0.4819 -4.1560  0.6952
  208MOL0     H28677   7.144   8.871   0.887  3.8463 -0.8703 -0.6812
  208MOL0     H28678   7.071   8.585   0.831 -1.4712  1.4972 -1.2196
  208MOL0     H28679   7.043   8.651   0.984 -0.2540 -1.1760 -1.2760
  208MOL0     H28680   7.267   8.724   1.016 -3.1555 -2.2300  0.9519
  208MOL0     H28681   7.316   8.675   0.850  2.2635 -1.0496  0.2202
  208MOL0     H28682   7.248   8.478   1.058  0.1236  1.8936  1.9579
  208MOL0     H28683   7.407   8.504   1.001 -0.7824 -0.0427  2.5030
  208MOL0     H28684   6.268   9.079   0.697 -2.1328  0.0656  0.5378
  208MOL0     H28685   6.112   9.014   0.849 -0.0889 -1.6774 -1.0947
  208MOL0     H28686   6.054   8.580   1.264 -0.7693 -0.8084 -1.1889
  208MOL0     H28687   5.856   8.510   1.352 -1.4916  0.6750  3.0649
  208MOL0     H28688   4.845   9.389   1.561 -0.3143 -0.1698  2.4681
  208MOL0     H28689   4.778   9.565   1.404 -0.3303  1.1074 -0.2220
  208MOL0     H28690   4.349   9.832   1.327  0.7180 -1.8169  0.3160
  208MOL0     H28691   4.168   9.960   1.195  2.2776  2.2433  0.9379
  208MOL0     H28692   4.005   9.758   0.944 -0.7680  0.1976  0.7383
  208MOL0     H28693   3.924   9.920   0.935 -0.4966  1.3109 -2.3356
  208MOL0     H28694   3.957   9.764   0.709  0.0707 -0.8614  1.4947
  208MOL0     H28695   4.117   9.827   0.728 -0.2128  0.3840 -0.4703
  208MOL0     H28696   3.891  10.032   0.734 -0.9024  1.0120 -1.4843
  208MOL0     H28697   4.051  10.058   0.709 -1.1222  0.1204 -0.1500
  208MOL0     H28698   3.884   9.904   0.501 -0.0527  1.8449 -2.6942
  208MOL0     H28699   4.055   9.956   0.491  0.6601 -0.3824  2.6395
  208MOL0     H28700   3.796  10.284   0.398 -2.7907 -1.3946 -0.3131
  208MOL0     H28701   4.300   9.769   0.846 -0.8462  1.2310 -0.1738
  208MOL0     H28702   4.432   9.612   0.831 -0.4925  4.5745  0.7146
  208MOL0     H28703   4.581   9.651   0.931  0.4488  1.2611  1.3172
  208MOL0     H28704   4.493   9.502   0.960  4.3394  0.3394 -0.2679
  209MOL0     O28705   8.948  10.575   8.333 -0.3663 -0.3410  0.1114
  209MOL0     C28706   8.838  10.553   8.288  0.3661 -0.2942  0.4284
  209MOL0     O28707   8.821  10.477   8.173 -0.6115  0.2768 -0.3435
  209MOL0     C28708   8.922  10.414   8.105 -0.2699 -0.2969 -0.2701
  209MOL0     C28709   8.908  10.412   7.970 -0.2718  0.6394 -1.0081
  209MOL0     C28710   8.995  10.338   7.892  0.1973 -0.5397 -0.2819
  209MOL0     C28711   9.086  10.250   7.955  0.2701 -0.7512 -0.6811
  209MOL0     O28712   9.171  10.194   7.870  0.4160  1.2198  0.2402
  209MOL0     C28713   9.303  10.240   7.871  0.4020 -0.3670 -0.8378
  209MOL0     C28714   9.393  10.138   7.807 -0.7313 -0.5576  0.7622
  209MOL0     C28715   9.329  10.068   7.681 -0.2399  0.3573 -0.0764
  209MOL0     C28716   9.332  10.153   7.559  0.0890  0.3787  0.7952
  209MOL0     C28717   9.390  10.073   7.438 -0.0475  0.3611  0.5292
  209MOL0     C28718   9.299  10.064   7.304 -1.0171 -0.3628  0.1209
  209MOL0     C28719   9.178   9.981   7.327  0.4922  0.2148 -0.2408
  209MOL0     C28720   9.065  10.020   7.234  0.4074  1.3741  0.9894
  209MOL0     N28721   9.106   9.997   7.094  0.2015 -0.2659  0.3196
  209MOL0     C28722   9.060   9.897   7.020  0.5305 -0.4263  0.3403
  209MOL0     C28723   9.066   9.937   6.894  0.0550 -0.0015 -0.4744
  209MOL0     C28724   9.060   9.853   6.771  0.1599 -0.2808  0.0836
  209MOL0     C28725   9.196   9.839   6.711 -0.0181  0.0236  0.1394
  209MOL0     C28726   9.302   9.801   6.822 -0.1307  0.6123  0.4520
  209MOL0     C28727   9.433   9.754   6.765 -0.2221 -0.3578  0.3524
  209MOL0     O28728   9.416   9.621   6.711 -0.0889  0.2278 -0.1652
  209MOL0     C28729   9.512   9.561   6.633 -0.3716 -0.9616  0.1242
  209MOL0     C28730   9.506   9.434   6.581  0.5352  0.7647  0.3299
  209MOL0     C28731   9.595   9.377   6.494 -0.8381 -0.1846 -0.1261
  209MOL0     C28732   9.546   9.254   6.420 -0.8713 -0.1687 -0.2772
  209MOL0     C28733   9.702   9.458   6.454 -0.5912 -0.0852 -0.8095
  209MOL0     C28734   9.805   9.417   6.346  1.4461  0.8508 -0.1882
  209MOL0     O28735   9.926   9.470   6.365 -0.5060  0.4653  0.4331
  209MOL0     C28736  10.014   9.438   6.265  0.0323 -0.4211 -0.4733
  209MOL0     C28737  10.112   9.335   6.285  0.6757  0.1219  0.5908
  209MOL0     C28738  10.197   9.302   6.175  1.0531 -0.4130 -0.0116
  209MOL0     C28739  10.184   9.360   6.048  0.4164 -0.1190  0.3438
  209MOL0     O28740  10.279   9.322   5.948 -0.4154  1.0203 -0.1421
  209MOL0     C28741  10.232   9.306   5.810 -0.3130  0.8471 -0.8924
  209MOL0     C28742  10.141   9.182   5.795 -0.1405  0.9337 -0.2873
  209MOL0     C28743  10.204   9.053   5.858  0.7795 -0.5995  0.6636
  209MOL0     C28744  10.136   8.935   5.795  0.7641  0.1119 -0.4530
  209MOL0     C28745  10.158   8.818   5.898  0.6493  0.2087  0.7362
  209MOL0     C28746  10.295   8.739   5.900 -0.4782  0.0240  0.2900
  209MOL0     C28747  10.349   8.680   5.761  0.6464 -0.9300 -0.3097
  209MOL0     C28748  10.476   8.601   5.775 -0.1599  0.6704  0.3567
  209MOL0    Cl28749  10.529   8.558   5.608 -0.3456  0.5747 -0.0170
  209MOL0     C28750  10.092   9.456   6.027  0.1290 -0.0528 -0.4475
  209MOL0     C28751  10.012   9.502   6.136 -0.0879  0.2880  0.2537
  209MOL0     O28752   9.766   9.349   6.250  0.5126 -0.4666  0.3067
  209MOL0     C28753   9.718   9.581   6.510  0.2978  0.1852 -0.3483
  209MOL0     C28754   9.627   9.629   6.597 -0.7647  0.7328  1.5325
  209MOL0     N28755   9.120  10.066   6.893  0.3127 -0.0284  0.1187
  209MOL0     N28756   9.142  10.099   7.012  0.0132  0.2238 -0.2805
  209MOL0     C28757   9.100  10.261   8.095 -0.1964 -0.4446  0.1876
  209MOL0     C28758   9.026  10.345   8.166  0.2345 -0.7129 -0.3837
  209MOL0     C28759   8.719  10.594   8.364  0.1672  0.0139 -0.5119
  209MOL0     C28760   8.613  10.498   8.360  0.5534 -0.1348  0.0498
  209MOL0     C28761   8.500  10.516   8.434  0.3067 -0.1088 -0.6006
  209MOL0     C28762   8.479  10.636   8.516 -0.1761  0.0115  0.3482
  209MOL0     O28763   8.371  10.663   8.605 -0.0329  0.1511  0.1017
  209MOL0     C28764   8.306  10.546   8.647 -0.0918 -1.0207  0.4128
  209MOL0     C28765   8.206  10.559   8.763 -0.3864  0.6019  0.5119
  209MOL0     C28766   8.055  10.569   8.718  0.0922 -0.2584  0.3716
  209MOL0     C28767   8.025  10.693   8.622 -0.1835 -0.0218  0.5068
  209MOL0     C28768   7.884  10.721   8.625 -0.6426  0.1776  0.5355
  209MOL0     C28769   7.768  10.752   8.626 -0.1521 -0.9412  0.1815
  209MOL0     C28770   8.582  10.732   8.517  0.7515  0.5813  0.6332
  209MOL0     C28771   8.700  10.709   8.441  0.2239 -0.5545 -0.1655
  209MOL0     C28772   8.788  10.830   8.454  0.4463 -0.2904 -0.3133
  209MOL0     H28773   8.813  10.453   7.935 -0.0760  2.7343  0.6925
  209MOL0     H28774   8.984  10.348   7.784  0.0028  2.9651 -0.0425
  209MOL0     H28775   9.342  10.267   7.970  1.2069 -3.5103 -0.2115
  209MOL0     H28776   9.297  10.333   7.812 -0.4734 -0.7058 -1.2977
  209MOL0     H28777   9.487  10.191   7.788 -0.6216 -1.6148 -2.2457
  209MOL0     H28778   9.407  10.060   7.882 -1.6314 -2.5334 -1.0336
  209MOL0     H28779   9.401   9.985   7.677  2.0732  1.7283  5.0791
  209MOL0     H28780   9.232  10.024   7.706  0.7418 -1.5485  0.6069
  209MOL0     H28781   9.234  10.196   7.535  1.6670  1.4444 -5.3353
  209MOL0     H28782   9.400  10.235   7.583  0.0286 -0.1052  2.8244
  209MOL0     H28783   9.409   9.972   7.476  0.2323  0.6964  1.3032
  209MOL0     H28784   9.483  10.125   7.414 -0.3008  0.2958 -0.6664
  209MOL0     H28785   9.270  10.169   7.291  2.2859  0.6534 -0.1532
  209MOL0     H28786   9.354  10.025   7.218  1.7998 -2.6777  2.7426
  209MOL0     H28787   9.135   9.999   7.426  0.8422 -0.2920  0.0099
  209MOL0     H28788   9.204   9.875   7.325  1.9998  0.5528  0.1051
  209MOL0     H28789   8.979   9.954   7.244  0.3355  0.3731 -3.8209
  209MOL0     H28790   9.031  10.123   7.241 -3.6054  0.4407 -1.6509
  209MOL0     H28791   9.026   9.799   7.052 -1.5584 -1.5064 -4.3253
  209MOL0     H28792   9.006   9.904   6.691  0.6014 -1.7384 -1.2054
  209MOL0     H28793   9.003   9.760   6.779 -0.8256 -0.1271 -3.4437
  209MOL0     H28794   9.195   9.768   6.628 -1.0127 -2.6033  2.2834
  209MOL0     H28795   9.229   9.930   6.660  0.4230 -0.7013 -0.8998
  209MOL0     H28796   9.313   9.900   6.866 -2.5410  0.4475  1.5802
  209MOL0     H28797   9.256   9.726   6.887 -2.0909 -1.3587 -2.9322
  209MOL0     H28798   9.473   9.826   6.693  0.9154  0.3580  1.6616
  209MOL0     H28799   9.504   9.761   6.848 -1.3441 -0.9311  1.4002
  209MOL0     H28800   9.415   9.380   6.605  2.6523 -2.4592  1.7960
  209MOL0     H28801   9.623   9.187   6.382  0.3828 -0.0006  1.8014
  209MOL0     H28802   9.496   9.273   6.325  3.2008  1.9534 -2.2535
  209MOL0     H28803   9.475   9.200   6.484 -1.1333  0.5599  0.0610
  209MOL0     H28804  10.128   9.296   6.385 -1.9334  2.3201  2.0026
  209MOL0     H28805  10.271   9.225   6.193  0.8137 -0.9106 -1.0440
  209MOL0     H28806  10.182   9.398   5.779 -1.7346  0.6838  0.7756
  209MOL0     H28807  10.318   9.290   5.744  2.2758 -0.2728  2.4334
  209MOL0     H28808  10.050   9.206   5.850 -0.2588  2.0578 -0.9472
  209MOL0     H28809  10.131   9.165   5.687  3.7779 -0.6786 -0.5822
  209MOL0     H28810  10.191   9.062   5.966  1.8670 -1.8638  0.9229
  209MOL0     H28811  10.311   9.049   5.840  0.8012  1.8726 -0.0952
  209MOL0     H28812  10.180   8.917   5.697  0.4314  1.6342 -0.9040
  209MOL0     H28813  10.030   8.950   5.771  0.2524 -0.3987  1.2947
  209MOL0     H28814  10.141   8.847   6.002 -3.6438 -1.1516  0.6335
  209MOL0     H28815  10.078   8.745   5.878 -2.8542  3.9813 -0.2933
  209MOL0     H28816  10.296   8.652   5.966  1.3623 -2.1954 -2.4255
  209MOL0     H28817  10.364   8.811   5.945 -2.0081  2.1633 -0.6332
  209MOL0     H28818  10.367   8.756   5.683 -2.1304 -1.2188 -1.3467
  209MOL0     H28819  10.273   8.611   5.723 -0.1338  0.1357 -0.7671
  209MOL0     H28820  10.463   8.504   5.822  1.0593  1.4316  2.4216
  209MOL0     H28821  10.559   8.653   5.825  2.0878 -1.9396 -0.3948
  209MOL0     H28822  10.088   9.511   5.934 -0.4042  0.9554  0.1441
  209MOL0     H28823   9.928   9.565   6.109 -0.4707 -0.2167  0.2709
  209MOL0     H28824   9.798   9.652   6.492  0.1224  0.2908 -0.7096
  209MOL0     H28825   9.653   9.732   6.621  2.1741  0.8500 -1.4791
  209MOL0     H28826   9.172  10.190   8.134 -1.6439 -2.2028 -0.2176
  209MOL0     H28827   9.042  10.338   8.273 -1.5010 -1.0259 -0.1197
  209MOL0     H28828   8.620  10.400   8.314 -0.2684 -1.7712  3.1131
  209MOL0     H28829   8.428  10.437   8.418  0.7219 -0.3649 -1.2609
  209MOL0     H28830   8.260  10.492   8.564  2.1164 -1.0661 -0.8559
  209MOL0     H28831   8.382  10.483   8.696  1.1423 -0.7345 -1.0668
  209MOL0     H28832   8.221  10.656   8.811 -0.8543  1.6672 -1.3998
  209MOL0     H28833   8.218  10.472   8.829 -0.2726 -1.2781 -1.8265
  209MOL0     H28834   8.025  10.480   8.662  1.5912 -1.5759  1.5728
  209MOL0     H28835   7.996  10.579   8.810  1.5189 -1.8012  1.5048
  209MOL0     H28836   8.044  10.668   8.517 -2.7932 -0.6709  0.1377
  209MOL0     H28837   8.078  10.785   8.649 -1.8298  1.8621 -2.1874
  209MOL0     H28838   7.669  10.788   8.641  0.4294  1.4470 -1.2597
  209MOL0     H28839   8.562  10.826   8.567 -0.9704  1.2163 -1.1161
  209MOL0     H28840   8.811  10.852   8.558  0.3976  1.6001 -0.6622
  209MOL0     H28841   8.881  10.816   8.398  1.1621  1.0993  0.4793
  209MOL0     H28842   8.737  10.911   8.401 -0.8567  1.0078  2.7410
  210MOL0     O28843   0.590  10.325   6.679  0.1149  0.6647  0.0926
  210MOL0     C28844   0.671  10.247   6.730 -0.9839  0.0941  0.4958
  210MOL0     O28845   0.655  10.171   6.844 -0.3763 -0.0698  0.0378
  210MOL0     C28846   0.527  10.162   6.900 -0.1942 -0.0215 -0.1932
  210MOL0     C28847   0.412  10.162   6.833  1.1073  0.8503  0.6860
  210MOL0     C28848   0.288  10.161   6.897  0.3133 -0.3710 -0.1643
  210MOL0     C28849   0.292  10.167   7.030  0.5365  1.2435 -0.3658
  210MOL0     O28850   0.177  10.171   7.105 -0.5416  0.2437  0.7680
  210MOL0     C28851   0.102  10.052   7.104  0.2171 -0.2934  0.2276
  210MOL0     C28852  -0.045  10.079   7.155  0.0974 -1.1707 -0.1640
  210MOL0     C28853  -0.108   9.971   7.248  1.1093 -0.1096  0.1368
  210MOL0     C28854  -0.244  10.000   7.303  0.4968 -0.0215 -0.2761
  210MOL0     C28855  -0.230  10.100   7.419  0.2173  0.4523  0.4946
  210MOL0     C28856  -0.366  10.152   7.471  0.0699  0.0745  0.0849
  210MOL0     C28857  -0.458  10.208   7.363  0.2133  0.0706  0.5506
  210MOL0     C28858  -0.581  10.261   7.423 -0.6116 -0.1894  0.0836
  210MOL0     N28859  -0.675  10.320   7.325  0.1519 -0.0110 -0.3279
  210MOL0     C28860  -0.693  10.450   7.275 -0.2421  0.4468  0.0203
  210MOL0     C28861  -0.808  10.449   7.213 -0.5831  0.1598 -0.0899
  210MOL0     C28862  -0.874  10.563   7.146 -0.0569 -0.3155 -0.6276
  210MOL0     C28863  -0.885  10.527   6.992  0.1368 -0.2133  0.8161
  210MOL0     C28864  -0.945  10.647   6.912  0.3307 -0.4799 -0.3279
  210MOL0     C28865  -0.952  10.604   6.771 -0.0226  0.6057  0.1002
  210MOL0     O28866  -0.827  10.550   6.730  0.1042  0.3213  0.7091
  210MOL0     C28867  -0.724  10.623   6.704 -0.6072 -0.1853  0.1152
  210MOL0     C28868  -0.605  10.564   6.674  0.0457  0.5755 -0.8185
  210MOL0     C28869  -0.484  10.634   6.646  0.2044 -0.1513  0.0140
  210MOL0     C28870  -0.358  10.567   6.587 -0.1306  0.3538  0.5711
  210MOL0     C28871  -0.480  10.775   6.658 -0.0954  0.1714 -0.4077
  210MOL0     C28872  -0.357  10.857   6.665 -0.4139 -0.9333 -0.6818
  210MOL0     O28873  -0.250  10.809   6.731 -0.3718 -0.1856 -0.7211
  210MOL0     C28874  -0.142  10.892   6.736 -0.3467 -0.4431  0.6508
  210MOL0     C28875  -0.128  10.996   6.829 -1.0424  0.1919 -0.1109
  210MOL0     C28876  -0.004  11.056   6.845 -0.3508  0.1525 -0.4109
  210MOL0     C28877   0.111  11.008   6.783 -0.3327  0.1325 -0.6592
  210MOL0     O28878   0.232  11.075   6.815 -0.4785  0.3337  0.8058
  210MOL0     C28879   0.362  11.048   6.748 -0.0666  0.4324  0.8353
  210MOL0     C28880   0.475  11.054   6.853 -0.0043  0.5814 -0.3311
  210MOL0     C28881   0.509  11.196   6.893 -0.3095 -0.2868 -0.5434
  210MOL0     C28882   0.581  11.219   7.031  0.3257  0.0154  0.5592
  210MOL0     C28883   0.579  11.357   7.080 -0.7464  0.1326 -0.6512
  210MOL0     C28884   0.706  11.434   7.035 -0.1943 -0.1225 -0.3865
  210MOL0     C28885   0.702  11.584   7.089  0.3625 -1.2666 -0.4019
  210MOL0     C28886   0.848  11.635   7.111 -0.4053  0.2100 -0.1354
  210MOL0    Cl28887   0.848  11.807   7.162 -0.0784  0.1263  0.0000
  210MOL0     C28888   0.101  10.899   6.699 -0.6796 -0.0839  0.3990
  210MOL0     C28889  -0.018  10.845   6.676  0.1821 -0.2456  0.1540
  210MOL0     O28890  -0.359  10.974   6.618 -0.3750  0.4166  0.7843
  210MOL0     C28891  -0.598  10.840   6.696 -1.2300  0.8307  0.4472
  210MOL0     C28892  -0.717  10.766   6.717 -0.4779  1.0350  0.1337
  210MOL0     N28893  -0.851  10.324   7.212 -0.0553  0.6674 -0.1228
  210MOL0     N28894  -0.775  10.244   7.281 -0.1717  0.0392  0.4850
  210MOL0     C28895   0.412  10.155   7.105 -0.3999 -0.5516  0.3754
  210MOL0     C28896   0.530  10.149   7.036  0.4000  0.3282 -0.1966
  210MOL0     C28897   0.799  10.262   6.672  0.8661  0.6216  0.7024
  210MOL0     C28898   0.811  10.263   6.527 -0.0221  0.0754 -0.9957
  210MOL0     C28899   0.941  10.242   6.479 -0.0039 -0.2956  0.5062
  210MOL0     C28900   1.056  10.217   6.557 -0.0918 -0.6196  0.2345
  210MOL0     O28901   1.177  10.213   6.492 -0.1641  0.3772 -0.2020
  210MOL0     C28902   1.300  10.191   6.562  0.8827 -0.4603 -0.2688
  210MOL0     C28903   1.405  10.243   6.462 -0.7041 -1.5632  0.4439
  210MOL0     C28904   1.553  10.200   6.474 -0.2700 -1.1326  0.0182
  210MOL0     C28905   1.583  10.078   6.559 -0.1468  0.0380 -0.1007
  210MOL0     C28906   1.728  10.057   6.547 -0.0407 -0.1870  0.0174
  210MOL0     C28907   1.845  10.033   6.553 -0.4982  1.4075  0.6585
  210MOL0     C28908   1.040  10.221   6.695 -0.3031  0.1588  0.1813
  210MOL0     C28909   0.911  10.233   6.752 -0.7250 -0.2259  0.4007
  210MOL0     C28910   0.915  10.250   6.901 -0.3413  0.4004  0.3796
  210MOL0     H28911   0.419  10.140   6.727  0.0167 -1.0090  0.9385
  210MOL0     H28912   0.193  10.136   6.851 -0.9300  0.4011  1.8698
  210MOL0     H28913   0.153   9.969   7.152  3.7176  0.5054 -1.7447
  210MOL0     H28914   0.083  10.025   7.000  0.1066 -2.9061  0.8762
  210MOL0     H28915  -0.044  10.173   7.211  1.6003 -0.9046 -0.5887
  210MOL0     H28916  -0.118  10.102   7.077 -2.7176 -1.3600  2.2096
  210MOL0     H28917  -0.126   9.887   7.181  1.2117  1.8193 -2.4631
  210MOL0     H28918  -0.052   9.933   7.334  2.5438 -0.3222 -0.8538
  210MOL0     H28919  -0.300  10.042   7.219 -0.1021 -0.1918  0.0253
  210MOL0     H28920  -0.304   9.913   7.331  0.4877  0.4727  1.3744
  210MOL0     H28921  -0.169  10.181   7.379 -1.5840  0.8632 -1.5820
  210MOL0     H28922  -0.172  10.053   7.499 -1.3087 -3.3218 -0.3950
  210MOL0     H28923  -0.410  10.072   7.531 -1.2900 -0.2676 -1.3137
  210MOL0     H28924  -0.336  10.229   7.543  3.1463  0.0010 -0.9494
  210MOL0     H28925  -0.487  10.136   7.286  1.3125 -0.9153  1.0351
  210MOL0     H28926  -0.399  10.284   7.311  1.2881 -0.1244  1.4462
  210MOL0     H28927  -0.633  10.190   7.487  0.0088  0.6600  1.5705
  210MOL0     H28928  -0.551  10.349   7.480 -0.7296 -1.3992  2.0825
  210MOL0     H28929  -0.620  10.531   7.275  3.4501 -2.5925 -0.3539
  210MOL0     H28930  -0.812  10.652   7.164 -0.1794 -0.0229 -1.5916
  210MOL0     H28931  -0.979  10.567   7.176 -0.1630 -0.7344 -0.9339
  210MOL0     H28932  -0.787  10.493   6.958 -0.7626  0.4112 -2.7081
  210MOL0     H28933  -0.948  10.439   6.983  0.4540 -0.2894 -1.0421
  210MOL0     H28934  -1.047  10.660   6.949 -0.4946 -0.8287 -2.3520
  210MOL0     H28935  -0.895  10.744   6.919 -0.5018 -0.1454  2.7519
  210MOL0     H28936  -1.036  10.535   6.755 -1.5588  2.5389 -0.6680
  210MOL0     H28937  -0.968  10.690   6.705 -5.1709  0.9349  1.3453
  210MOL0     H28938  -0.599  10.456   6.679  2.1951  0.5627 -2.1194
  210MOL0     H28939  -0.292  10.635   6.532  0.3721 -1.3403 -1.0019
  210MOL0     H28940  -0.400  10.496   6.515  0.1379 -0.0980  0.8533
  210MOL0     H28941  -0.306  10.505   6.661 -3.5563 -1.9635  1.2806
  210MOL0     H28942  -0.208  11.022   6.897  0.0217  3.2850  0.1238
  210MOL0     H28943  -0.010  11.140   6.914 -0.4031 -0.3534  0.2197
  210MOL0     H28944   0.352  10.950   6.699  0.1892  1.1560 -0.7104
  210MOL0     H28945   0.373  11.116   6.663 -0.9536 -0.4639 -0.0334
  210MOL0     H28946   0.439  10.997   6.939  1.4887 -1.5174 -1.0200
  210MOL0     H28947   0.558  10.996   6.812 -2.0565 -1.0885 -2.3921
  210MOL0     H28948   0.415  11.252   6.899  0.0720  0.6145 -2.3321
  210MOL0     H28949   0.560  11.253   6.816 -3.1410  0.8704 -1.7075
  210MOL0     H28950   0.686  11.190   7.021  0.9407  1.7859  1.3637
  210MOL0     H28951   0.531  11.160   7.109  0.3270 -0.1869  0.4078
  210MOL0     H28952   0.485  11.403   7.050 -1.5219  1.4393  3.2249
  210MOL0     H28953   0.565  11.357   7.189 -3.6997 -0.0419 -0.9530
  210MOL0     H28954   0.716  11.449   6.927  2.4291  2.4133  0.0855
  210MOL0     H28955   0.797  11.389   7.074  1.6179  1.1847 -2.8093
  210MOL0     H28956   0.650  11.584   7.185  0.0531  1.3615 -0.4938
  210MOL0     H28957   0.650  11.648   7.017 -0.9742 -1.4750  0.3400
  210MOL0     H28958   0.898  11.619   7.015 -2.2714 -0.9594 -0.9898
  210MOL0     H28959   0.885  11.572   7.192  1.5378 -1.7629 -2.4233
  210MOL0     H28960   0.186  10.862   6.643  0.8581  2.0375  1.1858
  210MOL0     H28961  -0.011  10.755   6.615  2.2457 -0.8340  1.1386
  210MOL0     H28962  -0.592  10.945   6.720  1.6472  0.0775  3.6925
  210MOL0     H28963  -0.806  10.823   6.744 -2.0898 -0.1380 -2.2480
  210MOL0     H28964   0.407  10.151   7.213  2.5859  0.4779  0.6540
  210MOL0     H28965   0.630  10.142   7.077  0.8743 -0.6164 -1.4318
  210MOL0     H28966   0.724  10.263   6.462  0.0879  1.5841 -1.1596
  210MOL0     H28967   0.952  10.239   6.371  1.5794 -0.1092  0.6405
  210MOL0     H28968   1.314  10.250   6.653  2.1423 -2.9371  1.2379
  210MOL0     H28969   1.327  10.088   6.587  2.0080 -0.1962 -0.3344
  210MOL0     H28970   1.412  10.351   6.480  2.3857 -2.0797  3.1334
  210MOL0     H28971   1.366  10.223   6.361  0.5170 -1.7540 -0.0051
  210MOL0     H28972   1.577  10.178   6.369 -3.1932  2.5052 -1.6563
  210MOL0     H28973   1.631  10.275   6.487 -1.7180  1.1068 -2.9691
  210MOL0     H28974   1.538   9.992   6.509  0.3429  0.4205 -1.2233
  210MOL0     H28975   1.548  10.107   6.658  3.0441  0.1586  1.1053
  210MOL0     H28976   1.942   9.990   6.537 -1.6639 -1.7019  1.2322
  210MOL0     H28977   1.124  10.206   6.763  0.5470  3.8243  0.1544
  210MOL0     H28978   1.017  10.258   6.940 -1.0067  0.2018  2.2702
  210MOL0     H28979   0.870  10.341   6.942 -3.0458 -0.8961  0.4503
  210MOL0     H28980   0.869  10.168   6.955 -0.2444  0.1164  0.0311
  211MOL0     O28981   9.598  11.077   1.186  0.7412  0.1833 -0.2999
  211MOL0     C28982   9.706  11.048   1.226  0.2461 -0.4534  0.2905
  211MOL0     O28983   9.808  10.993   1.156 -0.1178  0.1945  0.0487
  211MOL0     C28984   9.799  11.016   1.020 -0.0161 -0.5313  1.2994
  211MOL0     C28985   9.856  11.134   0.970 -0.4902  0.6360 -0.5327
  211MOL0     C28986   9.846  11.161   0.838 -0.5246  0.1762  0.2544
  211MOL0     C28987   9.775  11.085   0.749  0.6344  0.4101  0.5695
  211MOL0     O28988   9.763  11.121   0.620  0.2528  0.6740  0.0783
  211MOL0     C28989   9.878  11.095   0.544 -0.3804 -0.0505 -0.1448
  211MOL0     C28990   9.893  11.231   0.464 -1.1539  0.3880  0.1367
  211MOL0     C28991  10.019  11.224   0.376 -0.0362  0.2188  0.2965
  211MOL0     C28992  10.045  11.358   0.310 -0.3399 -0.1376  0.8139
  211MOL0     C28993  10.143  11.335   0.185  0.6069  0.2817  0.2911
  211MOL0     C28994  10.090  11.261   0.058  0.3043  0.7151 -0.3952
  211MOL0     C28995   9.963  11.316   0.007 -0.4683 -0.1404  0.1965
  211MOL0     C28996   9.890  11.240  -0.096  0.3065  0.5343  0.1628
  211MOL0     N28997   9.874  11.097  -0.071 -0.0809  0.0743 -0.2477
  211MOL0     C28998   9.788  11.044   0.032  0.0698 -0.7598  0.2948
  211MOL0     C28999   9.814  10.911   0.029 -0.0916  0.1266  0.2104
  211MOL0     C29000   9.749  10.812   0.124  1.1105  0.0750  0.3703
  211MOL0     C29001   9.686  10.696   0.042 -0.1918  0.7465 -0.8080
  211MOL0     C29002   9.605  10.602   0.126  0.0903  0.0813 -0.3820
  211MOL0     C29003   9.541  10.483   0.053  0.2005 -0.5629  0.3114
  211MOL0     O29004   9.623  10.404  -0.032  0.2738 -0.0275 -0.0864
  211MOL0     C29005   9.571  10.289  -0.079  0.6423  0.5894  0.1850
  211MOL0     C29006   9.660  10.195  -0.151  0.5475 -0.9377 -0.4954
  211MOL0     C29007   9.607  10.083  -0.211 -1.0894 -0.3594  0.0542
  211MOL0     C29008   9.713   9.976  -0.255  0.3631 -0.9890  0.7786
  211MOL0     C29009   9.469  10.056  -0.200 -0.3728 -0.5102  0.1845
  211MOL0     C29010   9.418   9.932  -0.274 -0.8504 -0.3594 -0.6845
  211MOL0     O29011   9.432   9.926  -0.407  0.1857 -0.3892  0.4261
  211MOL0     C29012   9.402   9.810  -0.469 -0.1219  0.0448  0.3596
  211MOL0     C29013   9.356   9.823  -0.603 -0.7902 -0.5110 -0.3980
  211MOL0     C29014   9.340   9.718  -0.688  0.9139  0.3483 -0.5479
  211MOL0     C29015   9.375   9.591  -0.645 -0.7968 -0.2829 -0.9698
  211MOL0     O29016   9.371   9.486  -0.730  0.8235  0.4262 -0.1487
  211MOL0     C29017   9.475   9.479  -0.827  0.8752 -0.6626 -1.1835
  211MOL0     C29018   9.432   9.391  -0.952  1.1766 -0.3672 -0.1161
  211MOL0     C29019   9.376   9.475  -1.078  0.4267  0.4560 -1.3763
  211MOL0     C29020   9.486   9.548  -1.149  0.6697 -0.6826 -0.4128
  211MOL0     C29021   9.455   9.609  -1.298  0.1996 -1.1232 -0.4143
  211MOL0     C29022   9.570   9.599  -1.388 -0.2442  0.3341  0.6138
  211MOL0     C29023   9.537   9.674  -1.518 -0.5439  0.7822  0.2953
  211MOL0     C29024   9.627   9.620  -1.633  0.1544 -0.3914  0.4944
  211MOL0    Cl29025   9.609   9.735  -1.764 -0.3099  0.0885  0.1081
  211MOL0     C29026   9.407   9.573  -0.509  0.0449 -0.0542  0.1773
  211MOL0     C29027   9.422   9.683  -0.421 -0.9134 -0.3192 -0.0399
  211MOL0     O29028   9.354   9.856  -0.199 -0.0335 -0.2710 -0.4382
  211MOL0     C29029   9.387  10.132  -0.132  1.2379 -0.1503  0.0190
  211MOL0     C29030   9.433  10.246  -0.064 -0.4935  0.2544  0.7546
  211MOL0     N29031   9.914  10.888  -0.063 -0.6458  0.2570  0.3621
  211MOL0     N29032   9.961  10.999  -0.121  0.8652 -0.0042  0.3225
  211MOL0     C29033   9.725  10.957   0.795  0.1997  0.3347  0.5642
  211MOL0     C29034   9.743  10.920   0.933 -0.5135 -1.0257  0.3879
  211MOL0     C29035   9.719  11.042   1.375 -0.0612 -0.2172 -1.0223
  211MOL0     C29036   9.812  10.953   1.428  0.6092  0.6776  0.0219
  211MOL0     C29037   9.829  10.956   1.568  0.8171 -0.1101  0.9456
  211MOL0     C29038   9.748  11.033   1.649  0.4681  0.1849  0.9082
  211MOL0     O29039   9.779  11.017   1.786  0.4644  0.1589  0.3015
  211MOL0     C29040   9.685  11.082   1.874  0.0689  0.8686  0.3003
  211MOL0     C29041   9.721  11.052   2.017 -0.0585 -0.1986 -0.2712
  211MOL0     C29042   9.857  11.128   2.062  0.0957 -0.0803  1.0788
  211MOL0     C29043   9.863  11.131   2.216  0.3458 -0.1925  0.4391
  211MOL0     C29044   9.855  10.989   2.276  1.6950  0.5087  0.2623
  211MOL0     C29045   9.849  10.869   2.302 -0.6901 -0.0327 -0.6079
  211MOL0     C29046   9.644  11.113   1.589  0.0061  0.2742  0.0015
  211MOL0     C29047   9.638  11.136   1.460  0.0379  0.2729 -0.2863
  211MOL0     C29048   9.531  11.237   1.397 -0.3508  0.1195 -0.2302
  211MOL0     H29049   9.899  11.199   1.045 -1.1335 -0.8993  1.2460
  211MOL0     H29050   9.904  11.247   0.806  1.6673 -1.0680  0.6824
  211MOL0     H29051   9.842  11.016   0.478 -1.8358  1.9362 -1.8724
  211MOL0     H29052   9.968  11.061   0.596 -0.9264 -3.0981 -0.9927
  211MOL0     H29053   9.799  11.243   0.408 -1.8284 -0.4208  1.0571
  211MOL0     H29054   9.910  11.317   0.530  0.4662  0.3253 -0.1685
  211MOL0     H29055  10.108  11.187   0.427 -2.3767 -1.9901  3.1948
  211MOL0     H29056   9.997  11.146   0.302 -0.0896  1.9332 -1.5589
  211MOL0     H29057   9.954  11.411   0.280  0.1279  1.6483  2.3827
  211MOL0     H29058  10.084  11.437   0.375 -4.2003  0.9692  2.0228
  211MOL0     H29059  10.226  11.274   0.222 -0.0233 -0.9601 -0.2834
  211MOL0     H29060  10.173  11.430   0.137  0.2040 -0.2178 -0.9917
  211MOL0     H29061  10.171  11.251  -0.016  1.1315 -1.7753  0.7601
  211MOL0     H29062  10.080  11.156   0.087  2.5310  0.8833  1.2508
  211MOL0     H29063   9.958  11.422  -0.023  0.8546 -0.1737 -0.2089
  211MOL0     H29064   9.895  11.301   0.091 -0.8972 -1.3963 -0.3672
  211MOL0     H29065   9.792  11.282  -0.120 -0.5755 -0.8124  1.2414
  211MOL0     H29066   9.949  11.248  -0.188  2.6531  0.9692  1.6138
  211MOL0     H29067   9.716  11.093   0.096  0.4469  1.0253 -0.5845
  211MOL0     H29068   9.661  10.843   0.182  0.6788  0.2724 -0.3776
  211MOL0     H29069   9.819  10.781   0.203  3.2352  1.3336 -0.9179
  211MOL0     H29070   9.610  10.745  -0.020 -1.8567 -0.2487  0.3971
  211MOL0     H29071   9.764  10.643  -0.014 -1.9153 -1.4674 -1.2546
  211MOL0     H29072   9.670  10.555   0.201 -1.4547  2.3388  2.5950
  211MOL0     H29073   9.529  10.661   0.178 -1.2748 -2.2153  0.4117
  211MOL0     H29074   9.494  10.416   0.126 -0.1927  0.6898  1.2262
  211MOL0     H29075   9.462  10.519  -0.014  0.2653 -5.3520 -2.8736
  211MOL0     H29076   9.766  10.213  -0.164 -0.1215  2.5646 -2.3485
  211MOL0     H29077   9.803  10.020  -0.297  1.1786 -3.2087  0.0523
  211MOL0     H29078   9.699   9.904  -0.337 -0.4148 -1.1216  1.0127
  211MOL0     H29079   9.724   9.901  -0.176  0.4757 -0.5142  1.2181
  211MOL0     H29080   9.324   9.914  -0.653  0.6638 -0.4196 -1.2372
  211MOL0     H29081   9.289   9.738  -0.782  1.6537 -1.4903 -1.3914
  211MOL0     H29082   9.500   9.577  -0.869 -0.5814  0.2869  0.0425
  211MOL0     H29083   9.566   9.438  -0.784  1.0123  3.6603  3.6446
  211MOL0     H29084   9.516   9.326  -0.978 -0.8284 -3.3186  0.1514
  211MOL0     H29085   9.356   9.325  -0.908  3.9326 -2.9310  1.1919
  211MOL0     H29086   9.292   9.536  -1.043  1.3313  0.1699  1.6391
  211MOL0     H29087   9.344   9.397  -1.147  1.7774 -0.1235 -1.3905
  211MOL0     H29088   9.571   9.480  -1.160  2.3981  1.4458 -0.9063
  211MOL0     H29089   9.511   9.633  -1.084  0.8462  0.9964 -2.5809
  211MOL0     H29090   9.368   9.560  -1.344 -0.4998 -0.5552  0.2719
  211MOL0     H29091   9.420   9.713  -1.291 -1.6050 -1.6351 -1.2075
  211MOL0     H29092   9.582   9.491  -1.400  0.7540  0.6899 -2.4041
  211MOL0     H29093   9.667   9.635  -1.353 -0.3546 -0.5618  1.9053
  211MOL0     H29094   9.560   9.780  -1.512  2.3282  0.5387 -3.2075
  211MOL0     H29095   9.434   9.660  -1.553 -0.2839  1.0163 -0.6016
  211MOL0     H29096   9.602   9.520  -1.670 -2.4160  1.3593 -3.0996
  211MOL0     H29097   9.732   9.604  -1.607  0.6715 -2.8269 -2.4848
  211MOL0     H29098   9.438   9.472  -0.489 -0.7213  0.1091  2.4819
  211MOL0     H29099   9.451   9.669  -0.317  1.5665  4.0270  0.0949
  211MOL0     H29100   9.282  10.108  -0.121  0.8907 -1.5740 -4.5288
  211MOL0     H29101   9.362  10.308  -0.010  0.2471  0.6710  1.2662
  211MOL0     H29102   9.685  10.903   0.710 -2.0979  4.0214 -0.9383
  211MOL0     H29103   9.714  10.822   0.970 -3.0327 -0.5722 -0.1766
  211MOL0     H29104   9.872  10.889   1.364  1.6242 -0.9766  2.4556
  211MOL0     H29105   9.905  10.903   1.625 -0.5258 -1.1182  1.8404
  211MOL0     H29106   9.677  11.188   1.849 -2.2193  1.1792  2.0038
  211MOL0     H29107   9.585  11.040   1.855  0.6942 -0.8585  0.6873
  211MOL0     H29108   9.727  10.945   2.035 -0.4644 -0.4103 -1.3141
  211MOL0     H29109   9.631  11.094   2.064 -1.9922 -1.0525 -2.9521
  211MOL0     H29110   9.954  11.095   2.025  0.8224  0.4051  2.4744
  211MOL0     H29111   9.841  11.233   2.034 -0.0286 -0.1157  1.0147
  211MOL0     H29112   9.785  11.190   2.264 -0.1083  0.4208 -1.0044
  211MOL0     H29113   9.951  11.188   2.247  0.3580 -1.2935  2.6734
  211MOL0     H29114   9.835  10.765   2.319  0.8521  0.0736  1.8253
  211MOL0     H29115   9.585  11.168   1.661  1.1544  0.4649  0.8429
  211MOL0     H29116   9.435  11.185   1.390  0.2162 -0.8812 -0.7603
  211MOL0     H29117   9.528  11.317   1.471  1.2855  0.6081 -0.6552
  211MOL0     H29118   9.551  11.270   1.295 -0.8910  0.4198 -0.2413
  212MOL0     O29119   3.194   3.946   7.598 -0.3185 -0.5975 -0.2336
  212MOL0     C29120   3.223   3.921   7.718 -0.5620 -0.3278  1.6328
  212MOL0     O29121   3.346   3.929   7.769 -0.6039  0.0025  0.2006
  212MOL0     C29122   3.448   4.010   7.712 -0.0699  0.0486  0.7052
  212MOL0     C29123   3.571   4.010   7.779 -0.3128 -0.4193 -1.2343
  212MOL0     C29124   3.681   4.085   7.737  0.0528 -0.1954 -0.2447
  212MOL0     C29125   3.668   4.176   7.631 -0.4295 -0.0354 -0.7412
  212MOL0     O29126   3.775   4.259   7.609 -0.3023 -0.5018  0.2004
  212MOL0     C29127   3.756   4.377   7.520 -0.4704  0.8723 -0.7816
  212MOL0     C29128   3.887   4.459   7.529 -0.0564  0.0386  0.4457
  212MOL0     C29129   3.924   4.490   7.677  0.3950  0.8455  0.0089
  212MOL0     C29130   4.082   4.490   7.680 -0.2574 -0.9530 -0.3579
  212MOL0     C29131   4.131   4.520   7.823 -0.4723  0.1049  0.4004
  212MOL0     C29132   4.288   4.548   7.823  0.1598 -0.1214  0.2370
  212MOL0     C29133   4.361   4.430   7.774  0.2650  0.5740 -0.4523
  212MOL0     C29134   4.513   4.415   7.823  1.6848 -0.1759 -0.0198
  212MOL0     N29135   4.577   4.295   7.789 -0.2117 -0.0219  0.0876
  212MOL0     C29136   4.602   4.192   7.870  0.2907 -0.9526  0.4165
  212MOL0     C29137   4.623   4.078   7.788  0.5706 -0.0340 -0.6201
  212MOL0     C29138   4.656   3.936   7.820 -0.5598  1.4831 -0.1367
  212MOL0     C29139   4.706   3.896   7.958 -0.8953  0.9379 -0.5507
  212MOL0     C29140   4.739   3.743   7.953 -0.3678  0.0602 -1.2175
  212MOL0     C29141   4.614   3.668   7.987  0.2022 -0.0481 -0.1356
  212MOL0     O29142   4.531   3.724   8.100 -0.8656  0.8863  0.4199
  212MOL0     C29143   4.591   3.706   8.226 -0.3540 -0.0045  0.3854
  212MOL0     C29144   4.525   3.756   8.338 -0.3717  0.1753  0.1952
  212MOL0     C29145   4.561   3.727   8.468 -0.6213  0.7869  0.5636
  212MOL0     C29146   4.480   3.789   8.572  0.2955  0.7059 -0.4757
  212MOL0     C29147   4.672   3.635   8.498  1.0340 -0.4796  0.0801
  212MOL0     C29148   4.725   3.605   8.638 -0.1048  0.5384 -0.1394
  212MOL0     O29149   4.825   3.515   8.633 -0.3806  0.4659 -0.4519
  212MOL0     C29150   4.855   3.443   8.737 -0.0896  1.1022 -0.0148
  212MOL0     C29151   4.984   3.400   8.736  1.1932  0.8719 -0.1492
  212MOL0     C29152   5.019   3.292   8.820  0.1734  0.6032 -0.3387
  212MOL0     C29153   4.926   3.232   8.910  0.4916 -1.1403 -0.5190
  212MOL0     O29154   4.949   3.116   8.977  0.2178 -0.5339  0.0206
  212MOL0     C29155   5.028   3.010   8.923 -0.5831  0.1842  0.0666
  212MOL0     C29156   4.975   2.881   8.972 -0.2984 -0.4971 -0.2985
  212MOL0     C29157   4.830   2.861   8.945 -0.4526  0.1884 -0.2635
  212MOL0     C29158   4.775   2.712   8.962 -0.6803  0.0554  0.1192
  212MOL0     C29159   4.640   2.687   8.886  0.3344  0.3880 -0.5579
  212MOL0     C29160   4.566   2.546   8.926  0.4494  0.4123  0.6895
  212MOL0     C29161   4.430   2.523   8.845 -0.4556  0.4296 -0.2262
  212MOL0     C29162   4.398   2.371   8.834 -0.9601  0.2237  0.2226
  212MOL0    Cl29163   4.403   2.293   8.995 -0.4928  0.5352  0.0864
  212MOL0     C29164   4.806   3.294   8.923  0.6607  0.0531 -0.1625
  212MOL0     C29165   4.774   3.400   8.839 -0.9595 -1.2370 -1.7030
  212MOL0     O29166   4.694   3.660   8.738  0.0878  0.1423 -0.0482
  212MOL0     C29167   4.732   3.569   8.387  1.5292  0.8590  0.3936
  212MOL0     C29168   4.704   3.622   8.258 -1.3895  0.3129  0.1905
  212MOL0     N29169   4.611   4.129   7.657 -0.0675  0.2700  0.2827
  212MOL0     N29170   4.603   4.255   7.662  0.2830 -0.9246  0.6541
  212MOL0     C29171   3.543   4.192   7.569  0.1931 -0.1824  0.0460
  212MOL0     C29172   3.441   4.106   7.607  0.4626 -0.1407  0.0448
  212MOL0     C29173   3.114   3.862   7.806 -0.4494 -0.0918  0.0770
  212MOL0     C29174   3.147   3.832   7.942  0.1274  0.2331 -0.2529
  212MOL0     C29175   3.046   3.789   8.028 -0.1965 -0.9796  0.3849
  212MOL0     C29176   2.915   3.752   7.990 -0.8925 -1.6845  0.7739
  212MOL0     O29177   2.824   3.726   8.092  0.9158 -0.4150  0.5361
  212MOL0     C29178   2.688   3.698   8.057  1.2423 -0.3591 -0.6680
  212MOL0     C29179   2.608   3.700   8.189  0.4222 -0.3594 -0.6513
  212MOL0     C29180   2.591   3.842   8.251 -0.9759  0.9365 -0.8924
  212MOL0     C29181   2.521   3.828   8.380  0.0896  0.8741 -0.0476
  212MOL0     C29182   2.510   3.953   8.458 -0.0521 -0.3664 -0.2606
  212MOL0     C29183   2.492   4.051   8.529 -0.3723  0.2297  0.3876
  212MOL0     C29184   2.891   3.775   7.854 -0.1028  1.2150  0.4509
  212MOL0     C29185   2.983   3.825   7.763 -0.0094 -0.7598  0.3042
  212MOL0     C29186   2.919   3.855   7.625 -0.1484  0.5394  0.2394
  212MOL0     H29187   3.590   3.932   7.852  1.4581 -0.2421 -1.4449
  212MOL0     H29188   3.780   4.064   7.777 -0.6122  1.5800  2.6284
  212MOL0     H29189   3.678   4.448   7.550  0.3946  1.1892  0.7971
  212MOL0     H29190   3.747   4.348   7.415  0.1412 -0.0469 -0.5828
  212MOL0     H29191   3.971   4.404   7.485  0.3775 -0.4712  1.8671
  212MOL0     H29192   3.876   4.551   7.471  2.5936 -1.1409 -2.2300
  212MOL0     H29193   3.884   4.589   7.702  0.5391  0.6444  1.0959
  212MOL0     H29194   3.876   4.424   7.750 -0.1006  2.7731  1.5165
  212MOL0     H29195   4.120   4.398   7.636  1.1012  0.6436 -2.6965
  212MOL0     H29196   4.117   4.572   7.618 -2.0217  0.8512  0.8840
  212MOL0     H29197   4.111   4.429   7.881  0.1810  0.7091  1.6093
  212MOL0     H29198   4.084   4.606   7.871  2.5352  1.7046  0.7359
  212MOL0     H29199   4.329   4.633   7.768  0.8579 -0.6036  0.0031
  212MOL0     H29200   4.318   4.581   7.923 -0.5011  3.9975 -0.7525
  212MOL0     H29201   4.377   4.428   7.666  2.3113  0.8608 -0.1991
  212MOL0     H29202   4.300   4.346   7.809  0.1632  0.0674 -1.7922
  212MOL0     H29203   4.576   4.501   7.798  0.5392  0.6785 -0.0474
  212MOL0     H29204   4.497   4.418   7.931 -0.2359  4.0610 -0.2071
  212MOL0     H29205   4.608   4.195   7.978  0.7273  0.5737  0.3737
  212MOL0     H29206   4.731   3.896   7.751 -1.9382 -1.1441 -0.2284
  212MOL0     H29207   4.561   3.888   7.795 -0.4965 -1.0280  3.6272
  212MOL0     H29208   4.801   3.946   7.981 -0.4826 -0.0454 -0.0076
  212MOL0     H29209   4.628   3.917   8.031 -1.3355 -2.1175  0.0094
  212MOL0     H29210   4.772   3.722   7.851  0.9272 -1.4769 -0.5086
  212MOL0     H29211   4.822   3.716   8.019  0.0989  1.2769 -1.2713
  212MOL0     H29212   4.548   3.679   7.901  3.7118 -0.7430 -3.1765
  212MOL0     H29213   4.639   3.561   7.996 -0.3597 -0.0432  2.0967
  212MOL0     H29214   4.445   3.829   8.327 -1.7175 -1.0847  1.2755
  212MOL0     H29215   4.543   3.853   8.633  1.8285 -0.2052 -1.0364
  212MOL0     H29216   4.439   3.706   8.631 -0.3007  1.7475  0.6071
  212MOL0     H29217   4.400   3.852   8.531 -0.4526 -0.4697 -0.8799
  212MOL0     H29218   5.064   3.430   8.669  1.7751 -0.8315 -0.2774
  212MOL0     H29219   5.120   3.255   8.808 -0.6677 -1.3465 -1.8601
  212MOL0     H29220   5.019   3.001   8.814 -2.2189 -1.0064  0.2604
  212MOL0     H29221   5.132   3.035   8.944 -1.3992  4.6358 -0.2251
  212MOL0     H29222   5.032   2.797   8.930  1.7257  0.9678 -0.6052
  212MOL0     H29223   5.000   2.872   9.078  1.0150 -0.9556 -0.6290
  212MOL0     H29224   4.820   2.905   8.845  1.1755  2.2422  0.4289
  212MOL0     H29225   4.783   2.924   9.021  0.7093  2.1446 -1.1072
  212MOL0     H29226   4.764   2.696   9.069  0.9845  0.9846  0.4643
  212MOL0     H29227   4.853   2.643   8.928  0.1700 -0.1970  2.4105
  212MOL0     H29228   4.565   2.763   8.909 -0.2541 -0.2662 -0.2903
  212MOL0     H29229   4.664   2.681   8.780 -0.0286 -4.0935 -0.5752
  212MOL0     H29230   4.549   2.548   9.034  0.9176 -1.7862  0.8563
  212MOL0     H29231   4.635   2.464   8.901  0.4193  0.4737  0.4065
  212MOL0     H29232   4.426   2.572   8.747 -1.6346  2.9815  0.9911
  212MOL0     H29233   4.344   2.564   8.900 -0.5944 -1.5036  1.0948
  212MOL0     H29234   4.478   2.325   8.775 -1.5392 -1.2784  0.5571
  212MOL0     H29235   4.311   2.350   8.772  0.6495 -1.3879 -1.6348
  212MOL0     H29236   4.738   3.258   9.000  1.3621 -0.4199  0.2555
  212MOL0     H29237   4.683   3.455   8.860 -0.1688 -0.0747 -1.1664
  212MOL0     H29238   4.811   3.495   8.399  0.5764 -0.3985 -0.6994
  212MOL0     H29239   4.762   3.573   8.180 -2.0630  1.3320 -0.9867
  212MOL0     H29240   3.513   4.271   7.500 -1.1747  0.6348  1.5093
  212MOL0     H29241   3.348   4.115   7.553  1.6878  2.5299 -1.8410
  212MOL0     H29242   3.246   3.835   7.986 -0.2375 -0.3153  0.6466
  212MOL0     H29243   3.070   3.764   8.131  0.4998 -0.0891  0.4455
  212MOL0     H29244   2.655   3.765   7.977 -0.6753 -0.7368 -0.2513
  212MOL0     H29245   2.670   3.603   8.005  1.1039 -0.5198 -0.3297
  212MOL0     H29246   2.651   3.628   8.259  0.8078 -1.1246 -1.6574
  212MOL0     H29247   2.509   3.659   8.165  0.4267 -3.0801  3.0727
  212MOL0     H29248   2.692   3.882   8.263 -0.8907  1.0690 -1.9609
  212MOL0     H29249   2.528   3.899   8.182 -4.5378 -0.2183  1.1439
  212MOL0     H29250   2.582   3.763   8.443 -1.7203  0.8146  1.7752
  212MOL0     H29251   2.420   3.788   8.366  0.2312 -0.6129  2.5144
  212MOL0     H29252   2.473   4.131   8.598 -0.6975  1.2903 -0.8949
  212MOL0     H29253   2.790   3.765   7.816 -1.8467  2.2077  4.4122
  212MOL0     H29254   2.928   3.952   7.574 -1.6036  1.0281  0.8641
  212MOL0     H29255   2.956   3.768   7.569 -3.8194 -0.4360 -1.0066
  212MOL0     H29256   2.810   3.840   7.620 -0.0187 -0.0616 -2.3557
  213MOL0     O29257   9.303   5.154   9.448  0.0985  0.3037 -0.8629
  213MOL0     C29258   9.294   5.266   9.402 -0.2992  0.0445  0.1181
  213MOL0     O29259   9.395   5.358   9.404 -0.0983  0.4416  0.6545
  213MOL0     C29260   9.513   5.340   9.466  0.3477  0.5818  0.3427
  213MOL0     C29261   9.593   5.220   9.429 -0.0735 -0.1995 -0.1404
  213MOL0     C29262   9.723   5.202   9.464  0.7330  0.0158 -0.3352
  213MOL0     C29263   9.782   5.290   9.547  0.1836 -0.0444 -0.8708
  213MOL0     O29264   9.912   5.283   9.583 -0.0277  0.2797 -0.0562
  213MOL0     C29265   9.949   5.157   9.639 -0.0346 -0.4659  0.4443
  213MOL0     C29266  10.056   5.179   9.750  0.0507  0.2384 -0.3827
  213MOL0     C29267  10.098   5.045   9.811  0.0720 -0.3340 -0.0209
  213MOL0     C29268   9.979   4.993   9.909  0.5969  0.0092  0.8060
  213MOL0     C29269  10.019   4.862   9.973 -0.4940  1.2376  0.0508
  213MOL0     C29270  10.064   4.750   9.881 -0.4196  0.1099  0.2087
  213MOL0     C29271   9.959   4.683   9.790 -0.1438  0.2977 -0.5980
  213MOL0     C29272  10.032   4.613   9.669  0.3259  0.0047  0.3815
  213MOL0     N29273   9.952   4.496   9.627  0.7876 -0.0595  0.1070
  213MOL0     C29274   9.816   4.480   9.616 -0.0319 -0.2301 -0.3215
  213MOL0     C29275   9.785   4.355   9.579 -0.0207 -0.0434  0.2565
  213MOL0     C29276   9.640   4.302   9.582  0.3429  0.6681  0.9218
  213MOL0     C29277   9.577   4.273   9.448 -1.0295 -0.5606 -0.4777
  213MOL0     C29278   9.656   4.169   9.371  1.2987  1.0434  0.5412
  213MOL0     C29279   9.663   4.035   9.436 -0.4352  0.4599 -0.1728
  213MOL0     O29280   9.723   3.935   9.354 -0.7250 -0.4383 -0.2049
  213MOL0     C29281   9.647   3.869   9.262 -0.1225 -0.1584 -0.3622
  213MOL0     C29282   9.535   3.802   9.294 -0.4606  0.1264 -0.7499
  213MOL0     C29283   9.460   3.729   9.203  0.3702  0.4911 -0.0574
  213MOL0     C29284   9.335   3.661   9.261 -0.0799 -1.1364  0.4383
  213MOL0     C29285   9.496   3.742   9.063  0.5307 -0.4145  0.0274
  213MOL0     C29286   9.407   3.696   8.963 -0.2525  0.0355 -0.0448
  213MOL0     O29287   9.408   3.767   8.850 -0.4834 -0.1966 -0.9002
  213MOL0     C29288   9.341   3.725   8.732  0.5082  0.1126  0.2399
  213MOL0     C29289   9.210   3.686   8.732  0.4553  0.8856  0.4678
  213MOL0     C29290   9.143   3.646   8.615  0.0806 -0.1181 -0.4186
  213MOL0     C29291   9.214   3.638   8.491 -0.0384 -0.9148  0.0230
  213MOL0     O29292   9.149   3.608   8.370 -0.4429 -0.5857  0.2116
  213MOL0     C29293   9.053   3.505   8.380  1.1261  0.7430  0.2948
  213MOL0     C29294   9.111   3.376   8.400  0.3263  0.1371  0.0691
  213MOL0     C29295   9.216   3.326   8.296 -0.4719  0.3324  0.8433
  213MOL0     C29296   9.243   3.178   8.326  0.3779 -0.5059  0.1794
  213MOL0     C29297   9.376   3.124   8.294 -0.6626  0.1873 -0.4109
  213MOL0     C29298   9.388   3.101   8.133  0.0207  0.0748  0.1899
  213MOL0     C29299   9.530   3.069   8.082  0.4229  0.2622 -0.0938
  213MOL0     C29300   9.556   2.919   8.104  0.1814 -0.7924  0.7651
  213MOL0    Cl29301   9.709   2.860   8.045  0.3922  0.1638  0.1574
  213MOL0     C29302   9.351   3.663   8.499 -0.3166 -0.1546  0.8335
  213MOL0     C29303   9.417   3.701   8.616 -0.6952 -0.2446  0.5827
  213MOL0     O29304   9.365   3.582   8.978 -0.0939 -0.1706 -0.0208
  213MOL0     C29305   9.614   3.807   9.027  0.0876 -0.2963  0.5240
  213MOL0     C29306   9.685   3.877   9.133  0.1042 -0.5199  0.8463
  213MOL0     N29307   9.913   4.298   9.560  0.8768  0.3359  0.6654
  213MOL0     N29308  10.004   4.378   9.586 -0.1438 -0.1818 -0.1262
  213MOL0     C29309   9.707   5.401   9.598  0.1538  0.9282 -0.7500
  213MOL0     C29310   9.578   5.436   9.541 -1.0119 -0.7626 -0.0243
  213MOL0     C29311   9.163   5.298   9.364  0.6386 -0.0644 -0.2081
  213MOL0     C29312   9.055   5.241   9.424 -0.4160  0.6412 -0.8370
  213MOL0     C29313   8.926   5.270   9.385  0.7066  0.0110 -0.6951
  213MOL0     C29314   8.900   5.361   9.282 -0.5637 -0.9624  0.0297
  213MOL0     O29315   8.783   5.388   9.214  0.5956 -0.3717  0.2545
  213MOL0     C29316   8.655   5.352   9.270 -0.2743 -0.1727  0.2423
  213MOL0     C29317   8.548   5.435   9.196  0.9095 -0.3948  0.2555
  213MOL0     C29318   8.523   5.578   9.247 -0.2956 -0.4419  0.0297
  213MOL0     C29319   8.414   5.584   9.346  0.9963  0.2036  0.8176
  213MOL0     C29320   8.365   5.716   9.372 -0.9004 -0.9802  0.2987
  213MOL0     C29321   8.314   5.821   9.412 -0.0180  0.3662  0.3456
  213MOL0     C29322   9.007   5.427   9.230  0.1507 -0.0069 -0.6222
  213MOL0     C29323   9.131   5.411   9.290 -0.0687 -0.0542  1.0732
  213MOL0     C29324   9.235   5.504   9.222  0.5799 -0.1977  0.7754
  213MOL0     H29325   9.549   5.148   9.361 -2.0264  1.3978 -0.6567
  213MOL0     H29326   9.775   5.112   9.432  1.1981 -0.3533  1.3587
  213MOL0     H29327   9.994   5.095   9.561  2.1390 -0.0631  1.2795
  213MOL0     H29328   9.867   5.102   9.687 -1.3865 -2.7299 -3.9605
  213MOL0     H29329  10.147   5.223   9.706 -0.3029  2.2723  0.7819
  213MOL0     H29330  10.016   5.245   9.827 -3.7819 -3.0878  0.7743
  213MOL0     H29331  10.144   4.969   9.748  2.2006 -0.0886  1.1346
  213MOL0     H29332  10.180   5.071   9.879  0.7174  2.3616 -1.6837
  213MOL0     H29333   9.962   5.060   9.993  2.3556 -0.0627  1.2753
  213MOL0     H29334   9.884   4.995   9.856 -1.2129 -0.5110  3.8068
  213MOL0     H29335   9.932   4.826  10.027 -0.0269 -1.9199 -1.0847
  213MOL0     H29336  10.095   4.906  10.039 -0.9613 -0.1659  1.5922
  213MOL0     H29337  10.150   4.784   9.823  1.7596  1.7951  4.0632
  213MOL0     H29338  10.110   4.672   9.941 -2.2803  0.1500  1.7723
  213MOL0     H29339   9.893   4.761   9.750 -0.6295  0.2982  0.1763
  213MOL0     H29340   9.881   4.627   9.844 -2.1190  1.5739 -1.9651
  213MOL0     H29341  10.048   4.679   9.583 -5.6782 -0.8005 -1.7964
  213MOL0     H29342  10.130   4.573   9.695  0.4916  0.5497  0.6195
  213MOL0     H29343   9.746   4.561   9.633 -1.0643 -0.5500 -2.6493
  213MOL0     H29344   9.595   4.391   9.628 -0.3430 -0.2350  2.0515
  213MOL0     H29345   9.643   4.223   9.658 -0.8941 -0.0654  0.2425
  213MOL0     H29346   9.473   4.247   9.468 -0.2194 -2.0899  2.2188
  213MOL0     H29347   9.582   4.367   9.392 -0.2942 -1.3410 -1.8013
  213MOL0     H29348   9.598   4.162   9.278 -1.0494  1.7135  1.8583
  213MOL0     H29349   9.759   4.188   9.341  0.2343  2.2831 -2.7562
  213MOL0     H29350   9.725   4.043   9.526  0.7398 -0.2673 -0.8870
  213MOL0     H29351   9.564   3.997   9.465  0.8484 -0.8234  3.0188
  213MOL0     H29352   9.514   3.794   9.400 -1.3238 -0.4828 -0.9532
  213MOL0     H29353   9.242   3.688   9.208  1.6125  0.0531 -2.1259
  213MOL0     H29354   9.324   3.692   9.365 -2.3711  0.0747 -0.0853
  213MOL0     H29355   9.349   3.554   9.248 -2.5595 -1.2927 -1.9935
  213MOL0     H29356   9.144   3.686   8.819 -1.1604 -0.1339 -0.6910
  213MOL0     H29357   9.038   3.620   8.624  0.9070 -3.1699  3.3751
  213MOL0     H29358   8.984   3.518   8.464  0.4836 -0.8678  0.0575
  213MOL0     H29359   8.987   3.504   8.293  3.0048  0.6362 -1.2037
  213MOL0     H29360   9.144   3.370   8.504  0.7918 -0.6486 -0.1158
  213MOL0     H29361   9.028   3.306   8.390 -0.2157  1.0670 -4.4312
  213MOL0     H29362   9.302   3.383   8.330 -0.2156  0.1442  0.5151
  213MOL0     H29363   9.199   3.349   8.191  2.4909 -1.1967 -0.0741
  213MOL0     H29364   9.172   3.112   8.274 -3.0025  3.5961 -1.0198
  213MOL0     H29365   9.216   3.160   8.430 -1.4975 -0.0713 -0.1815
  213MOL0     H29366   9.454   3.185   8.340 -1.7227 -0.7971  2.9429
  213MOL0     H29367   9.387   3.028   8.345 -3.1689  0.2310  0.3370
  213MOL0     H29368   9.348   3.190   8.083  0.1637  1.4823  2.4203
  213MOL0     H29369   9.330   3.014   8.102  0.9705 -0.0396 -1.3458
  213MOL0     H29370   9.596   3.125   8.148 -0.7069  1.1548  0.3110
  213MOL0     H29371   9.553   3.113   7.984  0.1092 -0.0795 -0.3264
  213MOL0     H29372   9.475   2.859   8.060  1.1008 -4.4643  3.5850
  213MOL0     H29373   9.541   2.906   8.211 -0.2484  0.6739  0.8921
  213MOL0     H29374   9.409   3.652   8.408 -1.2149  0.2402  0.2054
  213MOL0     H29375   9.524   3.716   8.614 -0.7897  1.3303 -3.4210
  213MOL0     H29376   9.646   3.823   8.925  0.4457  0.7340  0.7866
  213MOL0     H29377   9.771   3.941   9.114 -1.5241  2.3099  2.3242
  213MOL0     H29378   9.740   5.469   9.675  0.0724 -2.0708  2.1504
  213MOL0     H29379   9.540   5.535   9.560  0.1745 -0.5162  1.1903
  213MOL0     H29380   9.076   5.158   9.490  0.7382  1.7874  0.2834
  213MOL0     H29381   8.840   5.211   9.416 -0.6612  1.9544 -0.6124
  213MOL0     H29382   8.630   5.247   9.254  2.1435 -0.4651 -2.4569
  213MOL0     H29383   8.658   5.373   9.378 -2.9164  1.6752  0.0288
  213MOL0     H29384   8.457   5.373   9.195 -0.5367  1.5884  1.3663
  213MOL0     H29385   8.582   5.451   9.093 -0.5927  0.4671 -0.1540
  213MOL0     H29386   8.617   5.612   9.292  0.6857 -1.7488 -0.9205
  213MOL0     H29387   8.499   5.643   9.162 -1.2209 -0.2204  0.4538
  213MOL0     H29388   8.444   5.536   9.439  1.5838 -2.7700 -0.7738
  213MOL0     H29389   8.322   5.533   9.313 -0.1306  2.2054  0.7158
  213MOL0     H29390   8.272   5.907   9.459 -1.8164 -0.4171  0.2359
  213MOL0     H29391   8.989   5.484   9.139 -0.9415  3.1888  1.3949
  213MOL0     H29392   9.288   5.558   9.301 -0.0827 -0.1264  1.1848
  213MOL0     H29393   9.304   5.447   9.159 -0.6739  2.4494 -3.3227
  213MOL0     H29394   9.186   5.574   9.155  1.6083 -1.6565 -1.6156
  214MOL0     O29395   1.806   5.336  10.024  0.0773  0.7986  0.8509
  214MOL0     C29396   1.883   5.249  10.060 -0.6301  0.1178  0.3670
  214MOL0     O29397   1.892   5.195  10.186  0.1975 -0.1277 -0.5712
  214MOL0     C29398   1.830   5.276  10.287 -0.1986 -0.6425  0.1989
  214MOL0     C29399   1.714   5.235  10.362  0.7736  0.1470 -0.8838
  214MOL0     C29400   1.650   5.334  10.444  0.9439 -0.1236  0.6083
  214MOL0     C29401   1.712   5.458  10.464  0.6057  0.0726  0.1427
  214MOL0     O29402   1.661   5.556  10.547  0.3489  0.4787  0.4810
  214MOL0     C29403   1.521   5.571  10.566 -0.1520  0.0431  0.4463
  214MOL0     C29404   1.524   5.682  10.678 -0.5854 -0.0448 -0.2341
  214MOL0     C29405   1.377   5.692  10.740 -0.0930 -0.6705 -0.2781
  214MOL0     C29406   1.376   5.782  10.864 -0.7666  0.2755  0.0082
  214MOL0     C29407   1.236   5.788  10.920 -0.1723 -0.2823  0.7681
  214MOL0     C29408   1.236   5.872  11.046 -0.7495  0.4141  0.4485
  214MOL0     C29409   1.103   5.850  11.119 -0.3456  0.9029  0.0278
  214MOL0     C29410   1.097   5.923  11.250 -0.6016  0.5625 -0.1392
  214MOL0     N29411   0.967   5.980  11.295  0.3131  0.3016  0.2175
  214MOL0     C29412   0.893   5.946  11.412 -0.3362 -0.7708 -0.0299
  214MOL0     C29413   0.787   6.030  11.395 -1.1080  0.6836 -0.3748
  214MOL0     C29414   0.666   6.044  11.480  1.3373 -1.1036 -0.2109
  214MOL0     C29415   0.555   5.964  11.423  0.1307  0.4335 -1.2232
  214MOL0     C29416   0.445   5.898  11.503  0.6979 -0.2822  0.7567
  214MOL0     C29417   0.344   5.989  11.568 -0.1797  0.2139 -0.6666
  214MOL0     O29418   0.233   5.920  11.620  0.4007 -1.0779  0.0893
  214MOL0     C29419   0.248   5.847  11.735 -0.4994  0.3678  0.8075
  214MOL0     C29420   0.359   5.863  11.821  1.2088 -0.1435  0.1599
  214MOL0     C29421   0.363   5.795  11.942  0.5959 -0.2701  0.0404
  214MOL0     C29422   0.482   5.822  12.026  0.0322  0.3092  0.8853
  214MOL0     C29423   0.258   5.708  11.972 -0.5668 -0.1271 -0.4831
  214MOL0     C29424   0.247   5.627  12.106  0.4207 -0.5966  0.7612
  214MOL0     O29425   0.125   5.583  12.141 -0.2521 -0.5960 -0.2688
  214MOL0     C29426   0.132   5.499  12.246 -0.7469 -1.7390  0.5656
  214MOL0     C29427   0.140   5.553  12.369 -0.4112  0.7774  0.5022
  214MOL0     C29428   0.179   5.462  12.471  0.2823  0.0152  0.5504
  214MOL0     C29429   0.201   5.326  12.445  0.8506  0.4563  1.0395
  214MOL0     O29430   0.250   5.261  12.548 -0.6698  0.0509 -0.5951
  214MOL0     C29431   0.289   5.126  12.527 -0.9747  0.5056 -0.5903
  214MOL0     C29432   0.180   5.035  12.604  0.1731  1.0060 -0.3515
  214MOL0     C29433   0.187   4.881  12.565  0.7513 -0.4077  0.0230
  214MOL0     C29434   0.293   4.800  12.653  0.0935 -0.0884  1.0146
  214MOL0     C29435   0.282   4.646  12.628 -0.3112 -0.8812 -0.0290
  214MOL0     C29436   0.391   4.567  12.701  0.2503  0.4126 -0.9899
  214MOL0     C29437   0.361   4.408  12.731 -0.0603  0.2136 -0.2043
  214MOL0     C29438   0.233   4.379  12.820  0.3252 -0.3726  0.9066
  214MOL0    Cl29439   0.280   4.396  12.990 -0.0986 -0.4136 -0.2091
  214MOL0     C29440   0.169   5.275  12.317 -0.5494 -0.1213  0.4737
  214MOL0     C29441   0.139   5.360  12.218  0.5105  0.7488 -0.1918
  214MOL0     O29442   0.347   5.625  12.175  0.4120 -0.4631 -0.6042
  214MOL0     C29443   0.142   5.714  11.896 -0.4559 -0.4937 -0.8514
  214MOL0     C29444   0.138   5.778  11.779 -0.6577  0.2435 -0.2659
  214MOL0     N29445   0.807   6.120  11.294 -0.1485 -0.2027 -0.7897
  214MOL0     N29446   0.906   6.084  11.222 -0.4292 -0.0730  0.0739
  214MOL0     C29447   1.828   5.487  10.395  0.4078  0.0626  0.3108
  214MOL0     C29448   1.885   5.400  10.308  0.1103 -0.1940 -1.0021
  214MOL0     C29449   1.943   5.160   9.952 -0.6172 -0.6032 -0.9277
  214MOL0     C29450   2.006   5.046   9.997  0.2520  0.5942 -1.4491
  214MOL0     C29451   2.042   4.945   9.914 -0.0947 -0.0767 -0.6383
  214MOL0     C29452   2.052   4.965   9.790  0.1005 -0.3572 -0.3484
  214MOL0     O29453   2.109   4.860   9.718 -0.3846 -0.5825  0.4532
  214MOL0     C29454   2.238   4.889   9.682 -0.3096  0.4159 -0.1397
  214MOL0     C29455   2.301   4.757   9.624 -0.6276 -0.2257 -0.3301
  214MOL0     C29456   2.306   4.643   9.728  0.7750 -0.2861 -0.2409
  214MOL0     C29457   2.323   4.503   9.667  0.1698 -0.9199  0.2359
  214MOL0     C29458   2.444   4.491   9.587 -0.6192  0.3268  0.3404
  214MOL0     C29459   2.553   4.462   9.532 -0.0352  0.0229  0.4604
  214MOL0     C29460   2.008   5.088   9.732  0.8365 -1.2283 -0.7118
  214MOL0     C29461   1.938   5.182   9.812  0.1223 -0.9175 -0.0577
  214MOL0     C29462   1.877   5.308   9.741 -0.6997  0.0604  0.9260
  214MOL0     H29463   1.669   5.136  10.354  0.6347  0.0851  0.4555
  214MOL0     H29464   1.568   5.294  10.502 -0.3951  0.3359 -0.8977
  214MOL0     H29465   1.476   5.480  10.606  1.0524  0.1785  2.2276
  214MOL0     H29466   1.464   5.595  10.476 -1.6367  0.5082  1.4702
  214MOL0     H29467   1.601   5.664  10.754  0.1911 -1.3306 -1.2859
  214MOL0     H29468   1.553   5.781  10.641  1.4986  0.3087  2.0591
  214MOL0     H29469   1.297   5.706  10.667 -2.9059 -0.1887  2.6986
  214MOL0     H29470   1.365   5.590  10.777  0.6551 -2.7900 -5.1009
  214MOL0     H29471   1.448   5.744  10.936 -2.8067 -2.0344  0.9752
  214MOL0     H29472   1.407   5.886  10.856  0.1047  0.4274  3.8506
  214MOL0     H29473   1.202   5.686  10.934  0.1076 -0.6247 -0.8496
  214MOL0     H29474   1.168   5.834  10.848  1.6140  1.5954  0.1704
  214MOL0     H29475   1.315   5.824  11.104 -0.4336 -0.8727 -0.9879
  214MOL0     H29476   1.254   5.980  11.046 -3.2025  0.9037  1.8280
  214MOL0     H29477   1.100   5.742  11.136  0.5207  0.4000 -2.5798
  214MOL0     H29478   1.021   5.881  11.054  0.4049 -0.2040 -1.5207
  214MOL0     H29479   1.119   5.855  11.333 -1.7287  2.3809  1.7617
  214MOL0     H29480   1.171   6.004  11.257  2.5939 -2.2164  1.2104
  214MOL0     H29481   0.897   5.862  11.481  0.0917 -1.0939 -0.4403
  214MOL0     H29482   0.642   6.151  11.475  1.5484 -1.0700 -0.5451
  214MOL0     H29483   0.692   6.015  11.582  0.5506 -1.3702 -0.0783
  214MOL0     H29484   0.502   6.029  11.354 -3.3626 -0.1192  0.6993
  214MOL0     H29485   0.606   5.881  11.372 -2.6617 -1.6874 -0.8257
  214MOL0     H29486   0.388   5.843  11.429  1.9483 -2.6696  1.4808
  214MOL0     H29487   0.486   5.831  11.579  1.4271  1.7516  2.2611
  214MOL0     H29488   0.395   6.056  11.638  0.7332  0.7940 -1.8519
  214MOL0     H29489   0.309   6.053  11.487 -2.0015  1.3802  0.9331
  214MOL0     H29490   0.435   5.938  11.801 -2.2498  3.7961  0.5004
  214MOL0     H29491   0.439   5.854  12.122 -4.8222  0.0911 -0.9641
  214MOL0     H29492   0.538   5.905  11.982 -0.6502 -0.4599 -1.5317
  214MOL0     H29493   0.553   5.738  12.032  0.8696  1.0469  1.7883
  214MOL0     H29494   0.139   5.660  12.385 -1.0844  0.9774 -0.7327
  214MOL0     H29495   0.185   5.503  12.571  0.2223  0.0617  0.5349
  214MOL0     H29496   0.310   5.093  12.425 -2.0263  0.4382 -0.7950
  214MOL0     H29497   0.385   5.108  12.577 -1.7433  3.0992  2.1279
  214MOL0     H29498   0.193   5.055  12.711 -2.2283 -2.0371  0.6584
  214MOL0     H29499   0.080   5.069  12.579 -0.8706 -0.9015  0.9741
  214MOL0     H29500   0.211   4.878  12.459  2.6262  2.0880  0.2976
  214MOL0     H29501   0.092   4.831  12.585  2.0601 -2.6075  1.1716
  214MOL0     H29502   0.269   4.821  12.758  1.9051  0.2411  1.3944
  214MOL0     H29503   0.392   4.842  12.633 -1.1019  2.2996 -0.3058
  214MOL0     H29504   0.181   4.609  12.649 -0.8057 -0.5126 -1.6451
  214MOL0     H29505   0.300   4.647  12.520 -0.3034 -0.4418 -0.0268
  214MOL0     H29506   0.413   4.621  12.794 -0.8925 -0.5545 -0.1285
  214MOL0     H29507   0.485   4.577  12.645 -0.4019  1.4470 -1.9194
  214MOL0     H29508   0.452   4.371  12.780  1.8393 -0.6007 -3.9999
  214MOL0     H29509   0.354   4.356  12.635  2.2227  0.6281 -0.6664
  214MOL0     H29510   0.200   4.275  12.812 -0.9518 -0.0366  1.6113
  214MOL0     H29511   0.147   4.440  12.792  0.8496 -0.8424 -2.0216
  214MOL0     H29512   0.173   5.175  12.277  1.8168  1.9401 -5.7132
  214MOL0     H29513   0.146   5.317  12.119  0.8268 -0.0848  0.1860
  214MOL0     H29514   0.060   5.654  11.933  0.0816 -1.2040 -0.7764
  214MOL0     H29515   0.045   5.787  11.725 -2.5715  0.1087  2.7925
  214MOL0     H29516   1.883   5.579  10.415 -1.3257  0.7467  2.2860
  214MOL0     H29517   1.978   5.430  10.262 -0.5786  2.2422 -0.9335
  214MOL0     H29518   2.037   5.034  10.101 -1.6234 -3.7636 -1.1647
  214MOL0     H29519   2.078   4.848   9.948  2.5636  0.2607 -2.2048
  214MOL0     H29520   2.228   4.974   9.613  1.2862  0.6001 -0.1774
  214MOL0     H29521   2.299   4.927   9.765  0.0393 -0.2134 -0.1052
  214MOL0     H29522   2.407   4.774   9.604 -0.2125  3.2473  3.4715
  214MOL0     H29523   2.250   4.743   9.528  1.0201 -0.7082 -1.1645
  214MOL0     H29524   2.377   4.662   9.808  0.1040  0.2301  0.2456
  214MOL0     H29525   2.210   4.645   9.781  0.5380  1.5709 -0.6707
  214MOL0     H29526   2.236   4.485   9.603 -1.2007  2.3175  0.9952
  214MOL0     H29527   2.321   4.422   9.740 -0.8400 -0.1645  1.0699
  214MOL0     H29528   2.640   4.429   9.479  0.2668 -2.0720  2.0865
  214MOL0     H29529   2.011   5.116   9.627 -0.7211  1.2451 -0.1829
  214MOL0     H29530   1.903   5.312   9.634  0.1763  0.7766  1.1592
  214MOL0     H29531   1.770   5.289   9.752 -0.6341 -0.3885  0.8339
  214MOL0     H29532   1.901   5.403   9.789  0.6794  0.4871 -0.5108
  215MOL0     O29533   7.376   5.758   9.373  0.0188  0.0151 -0.1933
  215MOL0     C29534   7.442   5.658   9.406  0.3953  0.6105  0.7280
  215MOL0     O29535   7.473   5.620   9.527  0.0115 -1.0521 -1.3464
  215MOL0     C29536   7.447   5.711   9.634 -0.1362  0.0020 -0.4717
  215MOL0     C29537   7.505   5.840   9.652  0.3843 -0.3173 -0.0876
  215MOL0     C29538   7.474   5.919   9.757 -0.4103  0.2203  0.5182
  215MOL0     C29539   7.391   5.883   9.859  0.7375 -0.0547 -0.2609
  215MOL0     O29540   7.353   5.956   9.966  0.3251 -0.4778  1.1725
  215MOL0     C29541   7.432   6.074   9.978  0.2328 -0.3549 -0.0136
  215MOL0     C29542   7.382   6.172  10.087  0.3146  0.1300 -0.2004
  215MOL0     C29543   7.235   6.208  10.075  0.2000 -0.1027  0.0941
  215MOL0     C29544   7.222   6.322   9.963 -0.1401  0.1310 -0.6095
  215MOL0     C29545   7.081   6.363   9.919  0.1762  0.2270 -0.3092
  215MOL0     C29546   6.998   6.254   9.860  0.0127  1.1378 -0.9190
  215MOL0     C29547   7.070   6.197   9.731 -0.2793  0.1767 -0.0826
  215MOL0     C29548   6.983   6.098   9.660  0.2578 -0.1670 -0.1822
  215MOL0     N29549   7.033   6.080   9.516 -0.9913 -0.5413 -0.1376
  215MOL0     C29550   7.152   6.038   9.475  0.5356 -0.1782 -0.6064
  215MOL0     C29551   7.144   6.065   9.343  0.7898  0.9613  0.0507
  215MOL0     C29552   7.251   6.019   9.245  0.0909 -0.0212 -0.6331
  215MOL0     C29553   7.250   6.083   9.110 -0.6909 -1.4478  0.5401
  215MOL0     C29554   7.326   6.223   9.101  0.3779 -0.1003 -0.7353
  215MOL0     C29555   7.278   6.331   9.201 -0.2851 -0.0637 -0.4037
  215MOL0     O29556   7.314   6.306   9.337 -0.5133  0.3656  0.2052
  215MOL0     C29557   7.441   6.330   9.385 -0.0941 -0.9698 -0.0314
  215MOL0     C29558   7.545   6.406   9.326 -0.6313 -0.0998  0.1416
  215MOL0     C29559   7.673   6.407   9.379 -0.4154 -0.3286 -0.7093
  215MOL0     C29560   7.784   6.483   9.299  0.6092 -0.0052  0.2320
  215MOL0     C29561   7.708   6.337   9.504  0.1615  0.1132 -0.3840
  215MOL0     C29562   7.846   6.330   9.568 -0.2137 -0.3186  0.5421
  215MOL0     O29563   7.858   6.291   9.699 -0.7811  0.8501 -0.3936
  215MOL0     C29564   7.983   6.241   9.738  0.2846  0.4769 -0.5347
  215MOL0     C29565   8.048   6.136   9.677 -0.2353  0.3910 -0.7364
  215MOL0     C29566   8.159   6.071   9.746 -0.6808  0.1570  0.2143
  215MOL0     C29567   8.203   6.128   9.863  0.0898  0.2208  0.2667
  215MOL0     O29568   8.319   6.064   9.915  0.3079 -0.5613 -0.3642
  215MOL0     C29569   8.328   6.060  10.064  0.2036  0.2175  0.4051
  215MOL0     C29570   8.246   5.932  10.121 -0.1094  0.4625 -0.3508
  215MOL0     C29571   8.195   5.959  10.258  0.2963 -0.6403 -0.1232
  215MOL0     C29572   8.136   5.831  10.310  0.0661  0.3072  0.0354
  215MOL0     C29573   8.068   5.854  10.452 -0.2258  0.8515  0.4253
  215MOL0     C29574   7.988   5.738  10.503 -1.4391  0.2120 -0.7402
  215MOL0     C29575   7.907   5.769  10.642  0.0498 -0.2981  0.6664
  215MOL0     C29576   7.986   5.727  10.760 -0.6951  0.8905 -0.0906
  215MOL0    Cl29577   8.100   5.841  10.839  0.1374 -0.2128 -0.1242
  215MOL0     C29578   8.141   6.241   9.919  0.2496  0.2414 -0.1334
  215MOL0     C29579   8.032   6.296   9.853  0.6391  0.0072  0.6219
  215MOL0     O29580   7.948   6.331   9.494 -0.0053  0.2626 -0.1866
  215MOL0     C29581   7.600   6.282   9.567 -0.3301  0.1376 -1.0144
  215MOL0     C29582   7.474   6.260   9.511 -0.9339 -1.0077  0.6239
  215MOL0     N29583   7.016   6.115   9.311  0.4165  0.4611  0.2673
  215MOL0     N29584   6.955   6.125   9.420  0.4919 -0.1148 -0.1551
  215MOL0     C29585   7.338   5.753   9.846 -0.3166 -0.0876 -0.3523
  215MOL0     C29586   7.374   5.664   9.747 -0.6764  0.3314 -0.1284
  215MOL0     C29587   7.484   5.571   9.300  0.6655 -0.2636  0.4125
  215MOL0     C29588   7.537   5.446   9.329  0.4809  0.4620  0.4613
  215MOL0     C29589   7.587   5.361   9.236  0.0472  0.4224 -0.1600
  215MOL0     C29590   7.583   5.382   9.102  0.3058  0.3898 -0.9114
  215MOL0     O29591   7.634   5.311   8.996 -0.4575  0.0505  0.5828
  215MOL0     C29592   7.655   5.169   9.007 -0.4083  0.4321 -0.7808
  215MOL0     C29593   7.726   5.111   8.871 -0.4178 -0.1696  0.0052
  215MOL0     C29594   7.761   4.959   8.901 -0.7965 -1.2270 -0.0714
  215MOL0     C29595   7.830   4.894   8.775  0.6197  0.6922  0.3690
  215MOL0     C29596   7.971   4.932   8.768 -0.1039  0.1410 -0.2342
  215MOL0     C29597   8.085   4.963   8.779 -0.8957  0.3613  0.2967
  215MOL0     C29598   7.510   5.493   9.057 -0.5061 -1.1007 -0.3712
  215MOL0     C29599   7.468   5.589   9.154  0.1733 -0.3106  0.3330
  215MOL0     C29600   7.419   5.718   9.093  0.8271 -0.0781 -0.1527
  215MOL0     H29601   7.580   5.877   9.583  1.0566 -1.3679  0.0525
  215MOL0     H29602   7.533   6.010   9.753  2.1780 -1.3877 -2.4938
  215MOL0     H29603   7.444   6.131   9.885  1.5199 -0.0513  0.3278
  215MOL0     H29604   7.535   6.040   9.992 -0.7647 -2.3670  4.1534
  215MOL0     H29605   7.384   6.117  10.182  0.8534  2.0664  0.9543
  215MOL0     H29606   7.447   6.260  10.088  0.2836  0.1485  0.4374
  215MOL0     H29607   7.163   6.129  10.052  2.7435 -2.4984 -0.1726
  215MOL0     H29608   7.198   6.239  10.173  0.6864  0.3439  0.1464
  215MOL0     H29609   7.271   6.410  10.007 -0.5653 -0.9181  2.1875
  215MOL0     H29610   7.271   6.287   9.872 -2.6217  0.7407 -2.2861
  215MOL0     H29611   7.089   6.443   9.844 -2.1335  0.6558 -0.1734
  215MOL0     H29612   7.033   6.394  10.012 -0.0527  2.8872 -1.2242
  215MOL0     H29613   6.990   6.170   9.931 -1.2223  1.5853 -0.5034
  215MOL0     H29614   6.894   6.280   9.838 -0.2829  0.6106 -0.2006
  215MOL0     H29615   7.167   6.149   9.743 -1.0660 -2.2602 -2.4104
  215MOL0     H29616   7.089   6.289   9.675 -1.0207  1.1665  1.2443
  215MOL0     H29617   6.983   5.997   9.702 -0.5467 -0.2221 -0.3031
  215MOL0     H29618   6.882   6.138   9.665  0.7464  1.1499 -0.2920
  215MOL0     H29619   7.226   5.983   9.532  0.0715 -0.8869 -0.6736
  215MOL0     H29620   7.247   5.911   9.223  1.7980 -0.3187  0.3360
  215MOL0     H29621   7.341   6.033   9.305  0.5318 -2.6966 -0.5369
  215MOL0     H29622   7.296   6.012   9.040  0.1341 -0.4265  0.0071
  215MOL0     H29623   7.152   6.085   9.063 -0.9440 -1.9678  1.0403
  215MOL0     H29624   7.435   6.215   9.114  0.3246  2.1525  2.4569
  215MOL0     H29625   7.308   6.263   9.001  0.1017  2.3540  0.2134
  215MOL0     H29626   7.325   6.427   9.179  3.2526 -1.9519 -1.9352
  215MOL0     H29627   7.170   6.344   9.193 -0.5570 -0.2112  2.1452
  215MOL0     H29628   7.533   6.459   9.232 -1.9137  1.2015  0.9904
  215MOL0     H29629   7.744   6.545   9.218 -0.7563 -1.2603 -0.1009
  215MOL0     H29630   7.838   6.410   9.238  2.3423  1.3921  0.0272
  215MOL0     H29631   7.852   6.541   9.361  0.7604 -1.9388  1.9792
  215MOL0     H29632   8.017   6.089   9.584 -2.4856  0.0525  0.1331
  215MOL0     H29633   8.230   5.993   9.718  0.5126  1.9719 -2.1618
  215MOL0     H29634   8.433   6.051  10.093  0.4510  1.5431 -0.0381
  215MOL0     H29635   8.276   6.146  10.108  0.5812  2.9158 -3.8479
  215MOL0     H29636   8.164   5.909  10.053 -0.3830  0.9558 -0.1944
  215MOL0     H29637   8.317   5.849  10.116  1.6010  1.8013  0.5919
  215MOL0     H29638   8.120   6.039  10.258 -0.5418 -1.3840 -1.0811
  215MOL0     H29639   8.278   5.986  10.323  1.9255  0.8259 -2.6443
  215MOL0     H29640   8.221   5.762  10.307  1.0059  1.4406  0.1109
  215MOL0     H29641   8.061   5.801  10.236 -0.1902 -1.9095  1.0950
  215MOL0     H29642   8.153   5.871  10.520 -0.0851 -0.6443  0.6789
  215MOL0     H29643   8.006   5.944  10.451 -3.3985 -1.1704  1.0797
  215MOL0     H29644   8.055   5.652  10.516 -2.9637 -1.3425 -2.4739
  215MOL0     H29645   7.914   5.716  10.424  0.4315  0.9024 -2.7867
  215MOL0     H29646   7.814   5.713  10.635 -1.5756  2.2045  0.8268
  215MOL0     H29647   7.881   5.876  10.638 -1.9569 -0.7664 -0.0150
  215MOL0     H29648   8.061   5.651  10.732 -0.0895  1.0199  1.1220
  215MOL0     H29649   7.919   5.677  10.830 -1.0983  0.2670 -0.9088
  215MOL0     H29650   8.165   6.290  10.012  2.6202 -0.4165 -0.3249
  215MOL0     H29651   7.996   6.395   9.881 -1.7468 -1.2528  2.3897
  215MOL0     H29652   7.613   6.244   9.667 -1.0288 -3.0495 -2.0027
  215MOL0     H29653   7.386   6.219   9.560 -2.3460  0.2011 -0.7978
  215MOL0     H29654   7.264   5.723   9.920  0.6812  1.9720  1.5985
  215MOL0     H29655   7.340   5.560   9.749  0.6550 -0.1208 -0.0436
  215MOL0     H29656   7.544   5.407   9.430 -4.2776 -3.2818 -0.3226
  215MOL0     H29657   7.625   5.267   9.273 -1.1879 -0.4537 -1.0332
  215MOL0     H29658   7.718   5.152   9.095  1.6990 -1.0226 -2.4459
  215MOL0     H29659   7.559   5.119   9.020  0.6898 -1.7700 -0.6802
  215MOL0     H29660   7.818   5.169   8.854 -1.0490  0.1582 -2.7099
  215MOL0     H29661   7.658   5.122   8.786  0.0477  1.0553 -0.2384
  215MOL0     H29662   7.827   4.957   8.988 -2.4821  1.4028  1.4175
  215MOL0     H29663   7.679   4.901   8.944  1.0829 -1.1592  4.0785
  215MOL0     H29664   7.785   4.915   8.678 -2.6006 -1.3872  1.2614
  215MOL0     H29665   7.826   4.785   8.779  0.2141  0.7135  0.6305
  215MOL0     H29666   8.186   4.991   8.801 -1.1375  0.5149  1.2399
  215MOL0     H29667   7.486   5.504   8.952 -3.4408 -1.3240  0.1999
  215MOL0     H29668   7.443   5.714   8.987  0.0540  0.3794 -0.3520
  215MOL0     H29669   7.311   5.718   9.108  1.0286  2.1158  2.1169
  215MOL0     H29670   7.467   5.812   9.125  1.0093  0.0144 -0.6845
  216MOL0     O29671   0.424  10.721   1.051  0.2138  0.5764 -0.0609
  216MOL0     C29672   0.318  10.759   0.999  0.1210  0.2452  0.1019
  216MOL0     O29673   0.200  10.692   1.013 -0.8640  0.5095  1.0397
  216MOL0     C29674   0.198  10.555   1.056  0.5719 -0.5562  0.9972
  216MOL0     C29675   0.108  10.478   0.997 -0.1022 -0.4192  0.2232
  216MOL0     C29676   0.088  10.344   1.033 -0.0962 -0.3922  0.2721
  216MOL0     C29677   0.166  10.289   1.144 -0.2525 -0.2071  0.4692
  216MOL0     O29678   0.143  10.158   1.170  0.1917 -0.1855 -0.0913
  216MOL0     C29679   0.254  10.085   1.228 -0.0832  0.2057 -0.0563
  216MOL0     C29680   0.347  10.037   1.115  0.0502  0.3849  0.0250
  216MOL0     C29681   0.479   9.971   1.163 -0.2361  0.3387 -0.8026
  216MOL0     C29682   0.537   9.861   1.083  0.7582 -0.1547  0.2023
  216MOL0     C29683   0.633   9.892   0.972  0.2605 -0.0196  0.0400
  216MOL0     C29684   0.564   9.925   0.845  0.8243 -0.6155  0.6811
  216MOL0     C29685   0.651   9.995   0.741 -0.0447 -0.1548 -0.8258
  216MOL0     C29686   0.760   9.909   0.667  0.6701  0.3802 -0.8782
  216MOL0     N29687   0.836   9.991   0.573 -0.2578  0.5429  0.6902
  216MOL0     C29688   0.955  10.040   0.593 -0.5242 -0.5798  0.2289
  216MOL0     C29689   0.999  10.091   0.477  0.2893 -0.0426 -0.7833
  216MOL0     C29690   1.119  10.141   0.428  0.1653  0.2218  0.3424
  216MOL0     C29691   1.233  10.041   0.426  0.0004  0.1262  0.7994
  216MOL0     C29692   1.238   9.948   0.299  0.3324  0.0909 -0.7934
  216MOL0     C29693   1.251  10.017   0.165  0.1868  0.1180  0.8355
  216MOL0     O29694   1.385  10.074   0.160 -0.0353 -0.0966 -0.4401
  216MOL0     C29695   1.418  10.130   0.045 -0.7200  0.4223  0.4993
  216MOL0     C29696   1.331  10.168  -0.059 -0.2165 -0.0451  0.0313
  216MOL0     C29697   1.377  10.222  -0.178 -0.2193  0.5418  0.5873
  216MOL0     C29698   1.269  10.244  -0.280 -0.5410  0.0991  0.1429
  216MOL0     C29699   1.513  10.250  -0.198 -0.1203  1.0051  0.3631
  216MOL0     C29700   1.559  10.308  -0.329 -0.1702 -0.6155  0.0548
  216MOL0     O29701   1.676  10.255  -0.365 -0.1326  0.5352 -1.1300
  216MOL0     C29702   1.771  10.326  -0.439 -0.2951 -0.1995 -0.3261
  216MOL0     C29703   1.781  10.464  -0.431 -0.5804  0.0265  0.6368
  216MOL0     C29704   1.878  10.532  -0.516  0.2802  0.5351 -0.7015
  216MOL0     C29705   1.974  10.457  -0.586 -0.8575 -0.4234 -1.4626
  216MOL0     O29706   2.069  10.521  -0.654  0.6695 -0.8555  0.1196
  216MOL0     C29707   2.178  10.447  -0.708  0.3382  0.1103 -0.2549
  216MOL0     C29708   2.293  10.549  -0.725  0.1204 -0.2573 -0.0991
  216MOL0     C29709   2.267  10.657  -0.829 -0.4554  0.7538 -0.2890
  216MOL0     C29710   2.387  10.757  -0.838 -1.1480  0.2688  0.0177
  216MOL0     C29711   2.371  10.900  -0.881  0.0356 -0.8464  0.0206
  216MOL0     C29712   2.273  10.970  -0.781  0.6442 -0.9227 -0.0304
  216MOL0     C29713   2.281  11.120  -0.796 -0.4143 -0.1550  0.3759
  216MOL0     C29714   2.195  11.197  -0.693  0.9367  1.0639  0.0284
  216MOL0    Cl29715   2.286  11.194  -0.533 -0.0397 -0.7952 -0.3635
  216MOL0     C29716   1.965  10.312  -0.584  0.2746  0.1615 -0.5590
  216MOL0     C29717   1.860  10.248  -0.517 -0.0159  0.5927  0.5843
  216MOL0     O29718   1.499  10.398  -0.381 -0.5929  0.1760 -0.0117
  216MOL0     C29719   1.602  10.212  -0.095 -0.2916 -0.1904 -0.8132
  216MOL0     C29720   1.560  10.156   0.025  0.4637 -0.1234  1.0057
  216MOL0     N29721   0.895  10.065   0.391  0.0071 -0.9941 -0.0537
  216MOL0     N29722   0.795  10.018   0.448  0.2018 -0.8189 -0.9026
  216MOL0     C29723   0.257  10.374   1.206 -0.5154  0.2940 -0.1206
  216MOL0     C29724   0.266  10.506   1.170 -0.5143 -0.3352 -0.4456
  216MOL0     C29725   0.306  10.898   0.959 -0.1255 -0.5655 -0.4166
  216MOL0     C29726   0.180  10.964   0.980  0.1605 -0.1168  0.2069
  216MOL0     C29727   0.165  11.095   0.939 -0.3995 -0.2814  0.3434
  216MOL0     C29728   0.270  11.168   0.876  0.5070  0.8458 -0.1709
  216MOL0     O29729   0.244  11.303   0.866  0.5903 -0.5337  0.2488
  216MOL0     C29730   0.360  11.384   0.825  0.5197 -0.4516  0.1739
  216MOL0     C29731   0.330  11.536   0.834 -0.0114 -0.1208 -0.9587
  216MOL0     C29732   0.336  11.586   0.984 -0.5087  0.0575  0.9021
  216MOL0     C29733   0.229  11.699   1.009 -0.7629  0.2852  1.1147
  216MOL0     C29734   0.205  11.728   1.149 -1.3073  0.7897 -0.6674
  216MOL0     C29735   0.183  11.738   1.273 -0.3532  0.1823  0.1353
  216MOL0     C29736   0.394  11.101   0.848  0.8426  0.2385 -0.3386
  216MOL0     C29737   0.412  10.967   0.902  0.6281 -0.7902  1.2820
  216MOL0     C29738   0.554  10.915   0.883 -0.7694 -1.0060 -0.0644
  216MOL0     H29739   0.057  10.525   0.914 -0.2954  2.8941  2.0578
  216MOL0     H29740   0.019  10.278   0.982 -3.0413  1.5541  1.4903
  216MOL0     H29741   0.219  10.000   1.287 -0.4176  0.5972  0.3100
  216MOL0     H29742   0.318  10.141   1.295  0.2693 -1.6066  1.1751
  216MOL0     H29743   0.295   9.959   1.058  0.3608  2.0893 -2.7691
  216MOL0     H29744   0.371  10.126   1.057 -0.4916 -0.4336 -1.5079
  216MOL0     H29745   0.555  10.045   1.188  0.1620 -0.5084  0.5616
  216MOL0     H29746   0.449   9.926   1.258 -0.8486 -0.2090 -1.2354
  216MOL0     H29747   0.599   9.797   1.148 -2.1706 -2.4216  1.0165
  216MOL0     H29748   0.453   9.800   1.049 -1.8119  2.1675  1.9585
  216MOL0     H29749   0.688   9.800   0.950  2.6067  1.2422  0.2201
  216MOL0     H29750   0.701   9.974   0.999  0.7256  1.1655 -4.0949
  216MOL0     H29751   0.524   9.830   0.810  0.9378 -0.3874 -0.0715
  216MOL0     H29752   0.484   9.996   0.869  1.8497  0.2580  1.6641
  216MOL0     H29753   0.709  10.078   0.783  1.5965 -1.4908 -0.3332
  216MOL0     H29754   0.595  10.049   0.664  1.1526  0.7096 -1.1169
  216MOL0     H29755   0.824   9.862   0.743  0.0638  0.9772  0.0261
  216MOL0     H29756   0.706   9.829   0.617  2.6219 -1.2203 -0.5564
  216MOL0     H29757   1.010  10.051   0.686 -1.5555 -3.6337  1.2897
  216MOL0     H29758   1.151  10.231   0.482  4.6948 -0.9831  0.0815
  216MOL0     H29759   1.108  10.166   0.322 -0.7606 -0.5102  0.2477
  216MOL0     H29760   1.324  10.101   0.443 -0.0837  0.3285  0.5414
  216MOL0     H29761   1.205   9.979   0.512 -3.8976 -1.0974 -1.1393
  216MOL0     H29762   1.320   9.876   0.308 -0.8756 -1.7915 -3.4125
  216MOL0     H29763   1.145   9.890   0.293  1.3404 -1.6202 -0.4785
  216MOL0     H29764   1.242   9.946   0.083 -0.9535  2.8995 -1.6195
  216MOL0     H29765   1.182  10.099   0.142 -0.4631 -0.7922 -0.6192
  216MOL0     H29766   1.224  10.162  -0.046 -0.2079 -2.3361 -0.6207
  216MOL0     H29767   1.236  10.347  -0.288 -0.5778  0.2988  2.3547
  216MOL0     H29768   1.177  10.187  -0.264 -0.3084  0.2748  2.2865
  216MOL0     H29769   1.321  10.221  -0.374  0.6973  1.0340  0.5638
  216MOL0     H29770   1.717  10.523  -0.368  0.0847  0.5462  0.8406
  216MOL0     H29771   1.890  10.639  -0.502 -1.4247  0.5307  1.4711
  216MOL0     H29772   2.211  10.363  -0.645  1.1927 -1.3653 -2.5230
  216MOL0     H29773   2.143  10.419  -0.808  1.6191  2.0767 -1.3189
  216MOL0     H29774   2.312  10.598  -0.629  1.2961  1.7182 -1.2636
  216MOL0     H29775   2.382  10.492  -0.752  0.4207 -0.3157  0.9842
  216MOL0     H29776   2.171  10.706  -0.810 -3.6003 -3.9818 -2.0331
  216MOL0     H29777   2.251  10.608  -0.925 -2.1961  0.6317  0.0306
  216MOL0     H29778   2.458  10.716  -0.911 -0.5460 -0.0191  0.7421
  216MOL0     H29779   2.443  10.752  -0.744 -0.3492 -0.6757 -0.4929
  216MOL0     H29780   2.473  10.936  -0.895 -0.0896 -0.3792  0.2976
  216MOL0     H29781   2.329  10.902  -0.982  0.6359  1.8960 -0.2323
  216MOL0     H29782   2.295  10.947  -0.676  1.6782  2.6425  0.6718
  216MOL0     H29783   2.174  10.930  -0.803  1.1994 -2.5607  0.3273
  216MOL0     H29784   2.253  11.151  -0.897 -1.0550 -0.9709  0.2955
  216MOL0     H29785   2.387  11.145  -0.782 -0.4440  0.8210 -0.9138
  216MOL0     H29786   2.097  11.150  -0.686 -0.0398  2.3824 -3.0126
  216MOL0     H29787   2.172  11.302  -0.714  1.9978  1.5255  1.0742
  216MOL0     H29788   2.027  10.244  -0.642  2.1510  0.4618  1.0068
  216MOL0     H29789   1.835  10.142  -0.510 -2.0539  0.9965  0.0470
  216MOL0     H29790   1.707  10.237  -0.102  0.1327 -2.1729 -2.7871
  216MOL0     H29791   1.627  10.134   0.108  1.7327 -1.4123 -0.2969
  216MOL0     H29792   0.315  10.342   1.292 -0.1203  0.6674 -0.2495
  216MOL0     H29793   0.345  10.556   1.224  0.4671 -1.4308 -0.8288
  216MOL0     H29794   0.086  10.926   1.018 -0.2704  1.6363  0.9906
  216MOL0     H29795   0.071  11.141   0.969  1.0697  3.2201 -0.0168
  216MOL0     H29796   0.448  11.376   0.889 -0.1871  1.1663  1.4292
  216MOL0     H29797   0.375  11.369   0.717 -1.0560 -0.6503 -0.0459
  216MOL0     H29798   0.231  11.542   0.787 -0.8929 -2.0663  0.5197
  216MOL0     H29799   0.399  11.592   0.769  2.1756 -2.7683 -1.1172
  216MOL0     H29800   0.313  11.497   1.043  0.0754 -0.8228 -0.1807
  216MOL0     H29801   0.432  11.626   1.019 -1.1088  1.3723  1.1340
  216MOL0     H29802   0.130  11.684   0.965 -0.9858 -0.0391  1.7207
  216MOL0     H29803   0.274  11.788   0.964  1.4970 -1.5405 -0.5441
  216MOL0     H29804   0.164  11.775   1.372 -2.5849  1.7736 -0.7957
  216MOL0     H29805   0.472  11.147   0.788 -2.1891  3.0047 -2.4697
  216MOL0     H29806   0.613  10.982   0.820 -2.5083 -0.3243 -1.0052
  216MOL0     H29807   0.596  10.902   0.984 -1.5954 -0.4483  0.3619
  216MOL0     H29808   0.545  10.817   0.835  0.1156 -0.1275 -2.1339
  217MOL0     O29809   2.703   9.357   8.426  0.4075  0.3963 -0.4399
  217MOL0     C29810   2.612   9.320   8.495 -0.0838  0.2270  0.4686
  217MOL0     O29811   2.594   9.200   8.548  0.5135 -0.1749  1.3385
  217MOL0     C29812   2.700   9.116   8.559  0.1628  0.1589  0.8312
  217MOL0     C29813   2.740   9.096   8.688 -0.3299 -0.1949 -0.4567
  217MOL0     C29814   2.831   9.007   8.725 -0.0607  0.5079 -0.0046
  217MOL0     C29815   2.906   8.940   8.627 -0.4261 -0.5904 -0.2488
  217MOL0     O29816   3.017   8.862   8.662 -0.4114 -0.4091 -0.8044
  217MOL0     C29817   2.989   8.724   8.661 -0.3039 -1.3139 -0.3054
  217MOL0     C29818   3.122   8.664   8.719  0.0323 -0.8962  0.1349
  217MOL0     C29819   3.118   8.671   8.869 -0.3598  0.3696  0.3039
  217MOL0     C29820   3.219   8.595   8.943  0.3373  0.3562  0.4995
  217MOL0     C29821   3.216   8.603   9.100 -1.0059 -0.5959 -0.0675
  217MOL0     C29822   3.308   8.713   9.157 -0.2829 -0.1323  0.0627
  217MOL0     C29823   3.331   8.729   9.305 -0.0259  0.1136 -0.6211
  217MOL0     C29824   3.234   8.820   9.384 -0.6856  0.4008  0.3369
  217MOL0     N29825   3.111   8.746   9.423  0.3916  0.1314 -0.5041
  217MOL0     C29826   2.987   8.764   9.365 -0.6934 -0.3427 -0.1524
  217MOL0     C29827   2.911   8.663   9.402  0.4546 -1.3204  0.2134
  217MOL0     C29828   2.777   8.636   9.347 -0.4954 -0.1248 -0.6943
  217MOL0     C29829   2.763   8.501   9.281 -0.8651 -0.6137  0.2512
  217MOL0     C29830   2.852   8.492   9.157 -0.1570  0.6329 -0.1987
  217MOL0     C29831   2.798   8.394   9.062 -0.3405  0.1436  0.0481
  217MOL0     O29832   2.802   8.269   9.133  0.1024  0.7511  0.2731
  217MOL0     C29833   2.727   8.165   9.084  0.1937  0.0586 -0.2373
  217MOL0     C29834   2.634   8.173   8.978  0.0409 -0.2962  0.8850
  217MOL0     C29835   2.561   8.062   8.940 -0.3735 -0.0032  0.9751
  217MOL0     C29836   2.449   8.091   8.845 -0.2008  0.3194 -0.4156
  217MOL0     C29837   2.594   7.934   8.989  0.7661  0.9631  0.0960
  217MOL0     C29838   2.513   7.818   8.958 -0.4502 -0.2435 -0.5296
  217MOL0     O29839   2.564   7.696   9.005 -0.0371  0.0521 -0.3862
  217MOL0     C29840   2.477   7.594   9.030  0.7893  0.2298 -0.5787
  217MOL0     C29841   2.360   7.598   9.100  0.1780 -0.6998  0.1421
  217MOL0     C29842   2.274   7.487   9.122  0.2490 -0.1348  0.2602
  217MOL0     C29843   2.305   7.368   9.061  1.1335  0.4374  1.3683
  217MOL0     O29844   2.223   7.260   9.068  0.4347  0.5000 -0.6402
  217MOL0     C29845   2.141   7.236   9.190 -0.1329  0.6841  0.4329
  217MOL0     C29846   2.035   7.131   9.166 -0.4690 -0.2462 -0.3862
  217MOL0     C29847   2.065   6.981   9.174  0.0525  0.7814  1.1330
  217MOL0     C29848   1.949   6.890   9.123 -0.5153  0.4243  0.0340
  217MOL0     C29849   1.937   6.750   9.182 -0.0878 -0.4505  0.0066
  217MOL0     C29850   2.040   6.650   9.146 -0.5305 -0.4743 -0.0390
  217MOL0     C29851   2.005   6.524   9.197  0.8500  0.4659 -0.0729
  217MOL0     C29852   2.118   6.427   9.170 -0.0275  0.4154  0.8878
  217MOL0    Cl29853   2.088   6.283   9.272  0.3973 -0.2116  0.2697
  217MOL0     C29854   2.418   7.365   8.981  1.1134 -0.6792 -0.0946
  217MOL0     C29855   2.508   7.470   8.971  0.1315  0.0453 -0.4252
  217MOL0     O29856   2.406   7.831   8.898  0.3021 -0.3180  0.3643
  217MOL0     C29857   2.678   7.921   9.099  0.4161 -0.2189  0.7837
  217MOL0     C29858   2.743   8.040   9.142  0.1707  0.2659  0.6635
  217MOL0     N29859   2.981   8.579   9.481 -0.2499  0.0845  0.2503
  217MOL0     N29860   3.099   8.620   9.494 -0.3010  0.1128 -0.0888
  217MOL0     C29861   2.869   8.957   8.492 -0.6153 -0.7628  0.5124
  217MOL0     C29862   2.767   9.040   8.452 -0.0422 -0.2510  0.4726
  217MOL0     C29863   2.501   9.405   8.499 -1.1663 -0.3854 -0.3149
  217MOL0     C29864   2.427   9.434   8.385  0.9164  0.1790 -1.2625
  217MOL0     C29865   2.326   9.526   8.388  0.0540  0.0893  0.0451
  217MOL0     C29866   2.268   9.574   8.509 -0.4017 -0.1583  0.4636
  217MOL0     O29867   2.157   9.640   8.531  0.4994  0.3780  0.3777
  217MOL0     C29868   2.080   9.687   8.420  0.2631  0.1607 -0.1837
  217MOL0     C29869   1.946   9.743   8.499 -0.0580 -0.1580  0.1291
  217MOL0     C29870   1.886   9.866   8.428 -0.5247  0.5031 -0.3825
  217MOL0     C29871   1.741   9.895   8.475 -0.0078 -0.0059 -0.5962
  217MOL0     C29872   1.718   9.905   8.614 -0.1169  0.2857 -0.2405
  217MOL0     C29873   1.696   9.894   8.732  0.5076 -0.2208 -0.1216
  217MOL0     C29874   2.334   9.537   8.629  0.4905 -0.6732 -0.1051
  217MOL0     C29875   2.453   9.453   8.626 -0.3769 -0.4996  0.1375
  217MOL0     C29876   2.515   9.413   8.764 -0.1522 -0.8651  0.9486
  217MOL0     H29877   2.699   9.151   8.772 -1.9457 -1.0497 -0.6550
  217MOL0     H29878   2.852   8.988   8.830 -1.7301  1.6634  0.5787
  217MOL0     H29879   2.956   8.687   8.564 -1.7301  1.3419 -0.9599
  217MOL0     H29880   2.909   8.689   8.727  1.3705  0.3377  2.8603
  217MOL0     H29881   3.111   8.559   8.692 -0.9881 -1.0816  1.1899
  217MOL0     H29882   3.209   8.719   8.682 -1.3473  1.3125 -0.0220
  217MOL0     H29883   3.145   8.773   8.899  1.2555 -0.3588  1.4477
  217MOL0     H29884   3.016   8.650   8.903 -0.9900  1.7032 -0.6410
  217MOL0     H29885   3.214   8.488   8.923  0.7004  0.6803 -1.4474
  217MOL0     H29886   3.319   8.622   8.910  0.1075  2.2534  1.1832
  217MOL0     H29887   3.264   8.507   9.123  1.7133  0.8161  0.6000
  217MOL0     H29888   3.113   8.607   9.136 -0.5234  2.7770  1.3095
  217MOL0     H29889   3.408   8.690   9.119 -0.1032  2.2232 -1.1105
  217MOL0     H29890   3.275   8.807   9.111 -0.0488  0.0098  0.1830
  217MOL0     H29891   3.432   8.771   9.312  0.4420 -0.7399 -1.8241
  217MOL0     H29892   3.341   8.632   9.355 -2.5031 -0.1251 -0.5020
  217MOL0     H29893   3.283   8.848   9.477  1.5757  1.1849 -1.0183
  217MOL0     H29894   3.206   8.912   9.332 -1.0467  0.7694  1.1692
  217MOL0     H29895   2.950   8.842   9.300  2.6924  2.2431  0.7254
  217MOL0     H29896   2.733   8.712   9.281  2.6223  2.2593 -0.2934
  217MOL0     H29897   2.701   8.646   9.425 -2.7079 -3.5671 -2.1987
  217MOL0     H29898   2.795   8.428   9.355  2.3684  1.0253  0.6273
  217MOL0     H29899   2.660   8.479   9.252 -0.8789  0.5531 -0.7094
  217MOL0     H29900   2.849   8.588   9.103 -0.1843  0.2758 -0.8467
  217MOL0     H29901   2.953   8.467   9.190 -0.3464  0.3316  0.1523
  217MOL0     H29902   2.697   8.422   9.031  0.1396  1.2885 -0.5552
  217MOL0     H29903   2.850   8.370   8.969 -1.2672 -2.0593  0.0631
  217MOL0     H29904   2.616   8.262   8.920 -1.5365  1.4420  3.7863
  217MOL0     H29905   2.453   8.030   8.754  1.5416 -0.3634  0.0812
  217MOL0     H29906   2.451   8.192   8.804 -1.8789 -0.9420 -4.0268
  217MOL0     H29907   2.351   8.085   8.893 -0.6932  1.9329 -1.1707
  217MOL0     H29908   2.314   7.690   9.135  0.8240 -1.2438  2.5842
  217MOL0     H29909   2.179   7.505   9.172 -1.2757 -0.3038 -2.4439
  217MOL0     H29910   2.196   7.213   9.282 -0.8483  1.1813  1.0049
  217MOL0     H29911   2.093   7.333   9.211  0.7007  1.5797 -1.5263
  217MOL0     H29912   1.950   7.162   9.228  1.1595  2.9681  0.4368
  217MOL0     H29913   1.999   7.149   9.064  1.0515 -1.2689 -1.1468
  217MOL0     H29914   2.073   6.941   9.275 -0.8783  0.1580  0.9718
  217MOL0     H29915   2.154   6.963   9.113 -2.1426  0.4743 -2.3059
  217MOL0     H29916   1.943   6.874   9.015  0.1285 -2.3332  0.3173
  217MOL0     H29917   1.853   6.935   9.150 -0.2329 -0.7485  3.4920
  217MOL0     H29918   1.928   6.757   9.291  0.0151  1.1633 -0.0627
  217MOL0     H29919   1.843   6.713   9.139  0.0247  1.0897 -1.6843
  217MOL0     H29920   2.125   6.692   9.200 -2.1849 -0.3326  2.6329
  217MOL0     H29921   2.064   6.652   9.039 -0.7221 -0.4673 -0.0826
  217MOL0     H29922   1.918   6.483   9.145 -0.2573  0.7674  1.4885
  217MOL0     H29923   1.970   6.525   9.300 -0.8953  0.2170 -0.6397
  217MOL0     H29924   2.214   6.475   9.192 -0.1033  1.5648 -1.0058
  217MOL0     H29925   2.134   6.386   9.069  1.1429 -0.0405  1.2341
  217MOL0     H29926   2.437   7.271   8.930 -2.1254  0.7518 -4.5707
  217MOL0     H29927   2.590   7.452   8.903  0.2548 -1.2424  0.0357
  217MOL0     H29928   2.696   7.827   9.151  0.5572 -2.7722 -3.4475
  217MOL0     H29929   2.801   8.023   9.232 -0.7855  0.8812  1.4081
  217MOL0     H29930   2.935   8.922   8.414  0.2959  0.6839  0.5970
  217MOL0     H29931   2.733   9.064   8.352 -1.3518  1.3081  1.2356
  217MOL0     H29932   2.469   9.401   8.290  1.3720 -1.2662 -0.6001
  217MOL0     H29933   2.278   9.553   8.295  0.5755  0.9278  0.0112
  217MOL0     H29934   2.133   9.767   8.367 -0.7908  1.6913  0.9722
  217MOL0     H29935   2.057   9.599   8.359 -2.1440 -2.9421  4.5692
  217MOL0     H29936   1.966   9.771   8.603  1.1477 -0.2420 -0.0701
  217MOL0     H29937   1.872   9.662   8.490  2.4953 -2.5017 -1.5852
  217MOL0     H29938   1.948   9.949   8.464  0.3359 -0.3496  0.1418
  217MOL0     H29939   1.890   9.857   8.319  0.9267 -1.5423 -0.2084
  217MOL0     H29940   1.670   9.824   8.432  0.0289 -0.9267  0.7970
  217MOL0     H29941   1.710   9.993   8.436 -3.6147 -1.9917 -3.2716
  217MOL0     H29942   1.663   9.895   8.834 -1.7049  3.1059 -0.7294
  217MOL0     H29943   2.287   9.565   8.723 -2.4976  0.3626 -1.7708
  217MOL0     H29944   2.487   9.312   8.793  0.5752 -1.0761  0.9159
  217MOL0     H29945   2.624   9.419   8.764 -0.1958  0.8999 -0.4825
  217MOL0     H29946   2.483   9.476   8.847  0.9973 -1.8865  2.2061
  218MOL0     O29947   4.653   4.357   2.496 -0.4489 -0.6144  0.0926
  218MOL0     C29948   4.680   4.243   2.527  1.0433  0.0571  0.5216
  218MOL0     O29949   4.643   4.182   2.646  0.1021  0.3505  0.0592
  218MOL0     C29950   4.601   4.252   2.752 -0.6105 -0.1289  0.0856
  218MOL0     C29951   4.476   4.245   2.806 -0.3467 -0.5511  0.8478
  218MOL0     C29952   4.446   4.305   2.935 -0.1273  0.3844 -0.1374
  218MOL0     C29953   4.539   4.389   3.003  0.0970 -0.8784 -0.2814
  218MOL0     O29954   4.526   4.445   3.126  0.3755 -0.1209  0.4415
  218MOL0     C29955   4.393   4.422   3.190  0.0509  0.3251  0.8823
  218MOL0     C29956   4.360   4.502   3.311  0.2358 -0.6479 -0.5087
  218MOL0     C29957   4.214   4.479   3.348 -0.6078 -0.1010 -0.4948
  218MOL0     C29958   4.196   4.348   3.419 -0.1142  0.0045  0.5151
  218MOL0     C29959   4.051   4.343   3.481  0.0057 -0.7291  0.7119
  218MOL0     C29960   4.039   4.209   3.563 -0.1383 -0.1867 -0.2817
  218MOL0     C29961   4.112   4.213   3.700  0.0105  0.5218 -0.0677
  218MOL0     C29962   4.054   4.319   3.802 -0.1657 -0.9655 -0.1889
  218MOL0     N29963   4.160   4.340   3.906  0.3353  0.0482 -0.3220
  218MOL0     C29964   4.127   4.302   4.030  0.8051  0.0458 -0.6634
  218MOL0     C29965   4.235   4.341   4.097 -0.3182 -0.4722 -0.9140
  218MOL0     C29966   4.246   4.319   4.248  0.4244  0.2665  0.5933
  218MOL0     C29967   4.397   4.322   4.286 -0.3237  0.8683 -0.0499
  218MOL0     C29968   4.399   4.326   4.439  0.0832  0.0221 -0.5262
  218MOL0     C29969   4.533   4.298   4.507  0.2221  0.1811 -0.1611
  218MOL0     O29970   4.562   4.151   4.503  0.5385 -0.0868 -0.1458
  218MOL0     C29971   4.567   4.089   4.627 -1.0655  0.3593  0.0225
  218MOL0     C29972   4.475   4.106   4.730  0.4971 -0.9345 -0.1627
  218MOL0     C29973   4.492   4.045   4.856  0.3925 -0.0848  1.3289
  218MOL0     C29974   4.412   4.087   4.964  0.6227 -0.1724  0.2125
  218MOL0     C29975   4.579   3.932   4.867 -0.5884 -0.2471  0.9882
  218MOL0     C29976   4.608   3.840   4.983  0.3765  0.2646 -1.1798
  218MOL0     O29977   4.726   3.785   4.999 -0.2334  0.6625  0.1771
  218MOL0     C29978   4.744   3.679   5.076 -0.1660  1.0858  0.5214
  218MOL0     C29979   4.722   3.689   5.206 -0.4820  0.1407  0.2610
  218MOL0     C29980   4.745   3.581   5.301 -0.0111  0.1558 -0.5582
  218MOL0     C29981   4.820   3.467   5.257  0.0805  0.4306  0.4366
  218MOL0     O29982   4.855   3.357   5.338 -0.2539  0.1675 -1.1457
  218MOL0     C29983   4.736   3.287   5.385  0.1625  0.4017  0.0089
  218MOL0     C29984   4.766   3.189   5.507  0.2814 -0.7982  0.2942
  218MOL0     C29985   4.647   3.109   5.555  0.6503  0.1891  1.0914
  218MOL0     C29986   4.685   2.989   5.644  0.3594 -0.3289 -0.4636
  218MOL0     C29987   4.551   2.919   5.682 -0.0189 -0.7063 -0.7823
  218MOL0     C29988   4.564   2.784   5.756  1.4635 -0.2970  0.5460
  218MOL0     C29989   4.652   2.795   5.877  0.1764 -0.5003  0.3853
  218MOL0     C29990   4.658   2.674   5.965  0.2116  1.0256 -0.7216
  218MOL0    Cl29991   4.771   2.558   5.886  0.0056  0.3526  0.3011
  218MOL0     C29992   4.866   3.466   5.120 -0.0613  0.7143  0.0499
  218MOL0     C29993   4.818   3.562   5.032  0.5679 -0.5739 -0.0647
  218MOL0     O29994   4.512   3.809   5.053 -0.2458  0.2586  0.4701
  218MOL0     C29995   4.678   3.915   4.758 -0.1939  0.5524 -0.6635
  218MOL0     C29996   4.660   3.994   4.651 -0.6064 -1.0588  0.0917
  218MOL0     N29997   4.334   4.395   4.016  0.7025  0.2045 -0.3142
  218MOL0     N29998   4.287   4.389   3.894  0.6315  0.0098 -0.6610
  218MOL0     C29999   4.666   4.404   2.946 -0.2156 -0.2759 -0.1171
  218MOL0     C30000   4.697   4.338   2.824  0.3219  0.1709 -0.1097
  218MOL0     C30001   4.751   4.159   2.428 -0.9388  0.7968  0.1763
  218MOL0     C30002   4.796   4.038   2.483  1.3479  0.6198 -0.5370
  218MOL0     C30003   4.842   3.939   2.399  0.2899 -0.4997 -0.5564
  218MOL0     C30004   4.840   3.958   2.265  1.0260  0.1777  0.4094
  218MOL0     O30005   4.882   3.849   2.199  0.5158  0.5662 -0.2325
  218MOL0     C30006   4.865   3.850   2.054  0.6228 -0.1508 -0.6939
  218MOL0     C30007   4.914   3.721   1.987  0.7673 -0.3154 -0.6976
  218MOL0     C30008   4.808   3.605   2.006 -0.4300 -0.4854  0.2226
  218MOL0     C30009   4.867   3.458   2.029 -1.7081 -0.0650  0.0837
  218MOL0     C30010   4.952   3.421   1.912 -0.0733  0.7060  0.1426
  218MOL0     C30011   5.030   3.379   1.821  0.3893 -0.3356  0.7545
  218MOL0     C30012   4.797   4.073   2.204 -0.7887  0.0698 -0.0214
  218MOL0     C30013   4.758   4.185   2.287  1.0206 -0.3391  0.9982
  218MOL0     C30014   4.719   4.308   2.211  0.1996 -0.8579  0.0217
  218MOL0     H30015   4.398   4.191   2.754  1.2150  0.4923 -2.9473
  218MOL0     H30016   4.345   4.283   2.967 -0.6084  2.5814  0.0465
  218MOL0     H30017   4.392   4.316   3.215  1.8654  0.0881  0.1269
  218MOL0     H30018   4.318   4.460   3.120 -1.0067  1.6876  2.6804
  218MOL0     H30019   4.420   4.471   3.397 -2.1825 -1.3025  1.0613
  218MOL0     H30020   4.365   4.609   3.288 -3.7930  0.6286  3.2075
  218MOL0     H30021   4.193   4.555   3.425  0.7156 -1.4871  1.3339
  218MOL0     H30022   4.142   4.488   3.267  0.8810 -0.5611 -1.9294
  218MOL0     H30023   4.214   4.266   3.350  0.8956 -1.6674  2.6349
  218MOL0     H30024   4.273   4.334   3.496  1.0832  2.3474 -0.1700
  218MOL0     H30025   3.986   4.335   3.394  1.3768 -4.2011 -0.1449
  218MOL0     H30026   4.029   4.430   3.545 -0.7978  0.3579 -0.9686
  218MOL0     H30027   3.932   4.190   3.576 -0.6337  0.2301 -3.1177
  218MOL0     H30028   4.073   4.120   3.508 -0.6157 -1.6041  1.6189
  218MOL0     H30029   4.215   4.245   3.685 -0.2189  0.5759 -1.7180
  218MOL0     H30030   4.094   4.114   3.743 -2.2869  0.1796 -1.5979
  218MOL0     H30031   4.029   4.416   3.758  1.9726 -0.4812 -0.4411
  218MOL0     H30032   3.962   4.291   3.855 -0.7034 -1.3768 -1.2855
  218MOL0     H30033   4.040   4.247   4.063  1.9908 -0.1380  2.5294
  218MOL0     H30034   4.201   4.220   4.264  0.3818 -0.6258 -3.9019
  218MOL0     H30035   4.194   4.397   4.305 -2.0788  0.3490 -1.6057
  218MOL0     H30036   4.453   4.238   4.244 -0.2078  0.8247  0.1933
  218MOL0     H30037   4.446   4.416   4.257 -0.6261  0.9697 -0.2362
  218MOL0     H30038   4.357   4.418   4.478  1.2245  1.3985 -2.3343
  218MOL0     H30039   4.340   4.242   4.477  0.5168 -1.0683 -2.1297
  218MOL0     H30040   4.610   4.355   4.455 -1.5508  2.8378 -0.0603
  218MOL0     H30041   4.514   4.328   4.611 -4.9040 -0.5056 -0.6093
  218MOL0     H30042   4.386   4.167   4.716  0.2225 -1.9592 -3.7174
  218MOL0     H30043   4.381   4.191   4.958  1.4322  0.0263 -0.9891
  218MOL0     H30044   4.459   4.062   5.060  1.5269 -1.8653 -0.6249
  218MOL0     H30045   4.320   4.030   4.947  0.9495 -0.2690 -1.3927
  218MOL0     H30046   4.678   3.782   5.242 -1.5296  0.0748 -0.7847
  218MOL0     H30047   4.702   3.592   5.400  2.7685 -0.4398  0.8220
  218MOL0     H30048   4.657   3.352   5.422 -0.7029 -0.5049 -0.2036
  218MOL0     H30049   4.696   3.239   5.295  1.2433  2.4549 -1.6469
  218MOL0     H30050   4.864   3.140   5.496  0.4501 -0.6040  0.8995
  218MOL0     H30051   4.774   3.257   5.592  2.3236  0.7907 -1.0738
  218MOL0     H30052   4.600   3.070   5.464  0.8715  0.5074  0.8402
  218MOL0     H30053   4.580   3.174   5.612  0.6181  1.7895 -0.6777
  218MOL0     H30054   4.740   3.028   5.730 -1.0488 -0.2638  0.4416
  218MOL0     H30055   4.738   2.913   5.587  0.3158 -0.2648 -0.5902
  218MOL0     H30056   4.514   2.985   5.761 -1.2221 -1.4469 -0.6995
  218MOL0     H30057   4.490   2.915   5.592 -0.5485  1.0320 -0.5495
  218MOL0     H30058   4.601   2.708   5.686  1.2936 -0.2042  0.3547
  218MOL0     H30059   4.461   2.759   5.781  1.5909 -0.6087  0.7647
  218MOL0     H30060   4.615   2.880   5.935  0.3570  0.0059 -0.2363
  218MOL0     H30061   4.752   2.824   5.842 -0.0591 -1.2969 -1.0247
  218MOL0     H30062   4.556   2.633   5.970  0.6094  0.0251 -0.6919
  218MOL0     H30063   4.695   2.697   6.065 -2.2826 -0.1802  0.5756
  218MOL0     H30064   4.925   3.381   5.086  0.5217  0.8345  0.7434
  218MOL0     H30065   4.843   3.556   4.926 -2.2526 -0.3648 -0.8108
  218MOL0     H30066   4.741   3.827   4.759  0.1429  0.7896 -0.1692
  218MOL0     H30067   4.714   3.969   4.560  0.3890 -0.0054  0.3604
  218MOL0     H30068   4.735   4.471   2.996  1.8561  0.3941 -3.6088
  218MOL0     H30069   4.802   4.333   2.799  0.2743 -1.3467 -0.1060
  218MOL0     H30070   4.797   4.015   2.589  2.7017  2.5905 -0.0697
  218MOL0     H30071   4.869   3.841   2.439  0.6324  0.7460  2.6170
  218MOL0     H30072   4.758   3.856   2.033  0.4453  1.0710  0.3941
  218MOL0     H30073   4.918   3.937   2.013  0.7439 -0.3091 -0.8712
  218MOL0     H30074   5.016   3.705   2.022  0.6059  1.5835  0.7518
  218MOL0     H30075   4.916   3.736   1.878 -1.9197  0.8182 -0.6693
  218MOL0     H30076   4.736   3.628   2.085 -0.9268 -2.2320  0.3111
  218MOL0     H30077   4.746   3.601   1.917 -0.4161 -0.1443  0.1954
  218MOL0     H30078   4.786   3.387   2.046 -0.2755 -2.2244 -1.6378
  218MOL0     H30079   4.937   3.463   2.114 -2.0488  4.2708  0.3490
  218MOL0     H30080   5.085   3.352   1.733 -0.8242 -0.5733  0.0389
  218MOL0     H30081   4.802   4.087   2.096  1.7510 -3.9791 -0.6312
  218MOL0     H30082   4.724   4.288   2.104  1.9932 -0.0918 -0.0700
  218MOL0     H30083   4.614   4.336   2.226  0.3018 -0.3506 -0.1786
  218MOL0     H30084   4.790   4.391   2.218 -1.5352  0.6736  0.0478
  219MOL0     O30085   4.538   9.981   2.963 -0.1010  0.2300 -0.2634
  219MOL0     C30086   4.615   9.973   3.058 -0.3502  0.1838  0.2329
  219MOL0     O30087   4.581  10.002   3.190 -0.0618  0.3141  0.1400
  219MOL0     C30088   4.446  10.022   3.219 -0.1149  0.3813 -0.3867
  219MOL0     C30089   4.335   9.965   3.164 -0.8060  1.1490  0.4979
  219MOL0     C30090   4.208  10.008   3.196 -1.1524 -0.2987  0.4845
  219MOL0     C30091   4.194  10.108   3.286  0.9421  0.3191 -0.3119
  219MOL0     O30092   4.077  10.159   3.343  0.1434  0.1037 -0.2670
  219MOL0     C30093   3.949  10.088   3.324 -0.4550  0.3112 -0.8298
  219MOL0     C30094   3.879  10.127   3.197  0.1044 -0.4273  0.3871
  219MOL0     C30095   3.768  10.034   3.168  0.3862 -0.8666 -0.4786
  219MOL0     C30096   3.709  10.075   3.026 -0.7956 -1.1489 -0.7437
  219MOL0     C30097   3.612   9.977   2.971 -0.4581 -0.2470 -0.9677
  219MOL0     C30098   3.474   9.980   3.042  0.0129 -0.0521 -0.7059
  219MOL0     C30099   3.364  10.053   2.966 -0.8306 -0.3804 -0.0910
  219MOL0     C30100   3.228  10.035   3.051  0.2181 -0.2990  0.1700
  219MOL0     N30101   3.125  10.124   2.996 -0.4508  0.4198 -0.1356
  219MOL0     C30102   3.044  10.087   2.892  0.0423 -0.6444  0.6602
  219MOL0     C30103   2.960  10.199   2.872 -0.2348  0.2123 -0.1394
  219MOL0     C30104   2.856  10.231   2.772 -0.6825  1.5034  0.4570
  219MOL0     C30105   2.713  10.201   2.826  0.0320  0.1309 -0.2481
  219MOL0     C30106   2.693  10.056   2.881 -0.1123 -0.1648 -0.2965
  219MOL0     C30107   2.704   9.954   2.780  0.6290 -0.9476  0.5005
  219MOL0     O30108   2.585   9.962   2.691 -0.0722 -0.3985  0.8794
  219MOL0     C30109   2.605   9.877   2.585  1.1271  0.9974  0.3908
  219MOL0     C30110   2.494   9.874   2.497 -0.8061 -0.4300 -0.4091
  219MOL0     C30111   2.476   9.781   2.391 -0.6783 -0.0213  0.0870
  219MOL0     C30112   2.354   9.782   2.314 -0.3448  0.0709 -0.0672
  219MOL0     C30113   2.581   9.682   2.369 -0.0089 -0.6350  0.9821
  219MOL0     C30114   2.591   9.594   2.244  0.1552 -0.3786  0.5597
  219MOL0     O30115   2.716   9.543   2.222  0.0700  0.2301 -0.3634
  219MOL0     C30116   2.760   9.460   2.123  0.3987 -0.1810  0.2565
  219MOL0     C30117   2.898   9.462   2.111 -0.0431  0.6416 -0.6885
  219MOL0     C30118   2.967   9.391   2.018 -0.5218 -0.9383  0.2963
  219MOL0     C30119   2.892   9.321   1.931  0.0573 -0.9500 -0.2152
  219MOL0     O30120   2.964   9.253   1.830  0.0850  0.0294 -0.0686
  219MOL0     C30121   2.922   9.292   1.701 -0.3072  0.1498 -0.3785
  219MOL0     C30122   2.997   9.218   1.588 -0.7919  0.2584 -0.1047
  219MOL0     C30123   3.007   9.298   1.450  0.2547 -0.1032 -0.3127
  219MOL0     C30124   2.860   9.328   1.391 -0.7757 -0.3740  0.7038
  219MOL0     C30125   2.859   9.437   1.277 -0.2131  0.1227  0.2401
  219MOL0     C30126   2.754   9.409   1.171  1.0321 -1.1192  0.5051
  219MOL0     C30127   2.614   9.399   1.219  0.1387  0.2356 -0.2603
  219MOL0     C30128   2.512   9.464   1.119 -0.2914  0.5051  0.5584
  219MOL0    Cl30129   2.494   9.372   0.969 -0.0107  0.2291 -0.2187
  219MOL0     C30130   2.748   9.321   1.931 -0.4040  0.4492  0.6355
  219MOL0     C30131   2.683   9.394   2.025  0.2223  0.0296  0.2784
  219MOL0     O30132   2.489   9.566   2.180 -0.9031 -0.1694  0.7861
  219MOL0     C30133   2.688   9.688   2.453 -0.4283  0.2937 -0.3792
  219MOL0     C30134   2.706   9.776   2.560  0.1172 -0.5426  0.3779
  219MOL0     N30135   3.007  10.311   2.953 -0.2289  0.2299 -0.4052
  219MOL0     N30136   3.097  10.253   3.026  0.3076  0.3808 -0.4009
  219MOL0     C30137   4.307  10.174   3.336 -0.1480 -0.2577  0.4015
  219MOL0     C30138   4.428  10.122   3.305  0.3241 -0.1829  0.1757
  219MOL0     C30139   4.751   9.909   3.029 -0.3383 -0.0405  0.2753
  219MOL0     C30140   4.794   9.823   3.135 -1.1662  0.4286 -0.7667
  219MOL0     C30141   4.913   9.759   3.107 -0.3281 -0.5058 -0.2616
  219MOL0     C30142   4.988   9.767   2.993 -0.4001  0.5364  0.6359
  219MOL0     O30143   5.108   9.693   2.985  0.6452 -0.7989  0.1045
  219MOL0     C30144   5.184   9.694   2.866  0.3772  0.4107 -0.2527
  219MOL0     C30145   5.290   9.582   2.873 -0.4691 -0.2155 -0.7151
  219MOL0     C30146   5.416   9.615   2.796 -0.9032 -0.0521 -0.1601
  219MOL0     C30147   5.515   9.663   2.892 -1.0496  0.9567 -0.6737
  219MOL0     C30148   5.645   9.670   2.824 -0.4902  0.2087 -0.0973
  219MOL0     C30149   5.753   9.672   2.779  0.7276 -0.3616 -0.2775
  219MOL0     C30150   4.949   9.856   2.899  0.6562 -0.1880  0.9553
  219MOL0     C30151   4.827   9.920   2.905  0.0178 -0.0817  0.2397
  219MOL0     C30152   4.772   9.998   2.790  0.1360 -1.0779  1.2546
  219MOL0     H30153   4.362   9.885   3.096 -2.4094  0.8769  0.1442
  219MOL0     H30154   4.117   9.970   3.150 -0.6378 -2.8892  1.4165
  219MOL0     H30155   3.896  10.102   3.418  1.6683  3.5029  0.0396
  219MOL0     H30156   3.967   9.980   3.318  0.9344  0.4622  0.0768
  219MOL0     H30157   3.849  10.231   3.216  1.7666  0.2655 -0.5691
  219MOL0     H30158   3.951  10.129   3.116 -1.8482  3.1140 -1.5227
  219MOL0     H30159   3.799   9.930   3.158 -0.7254 -1.0752 -2.0856
  219MOL0     H30160   3.685  10.030   3.240 -1.0180  0.0658 -1.9758
  219MOL0     H30161   3.655  10.169   3.040 -1.4816 -1.8007  1.2686
  219MOL0     H30162   3.791  10.098   2.957  0.9708 -0.1408  1.5510
  219MOL0     H30163   3.664   9.881   2.982 -1.6475 -1.0158 -1.7068
  219MOL0     H30164   3.600   9.993   2.863  3.0504 -0.3155 -1.4798
  219MOL0     H30165   3.440   9.877   3.053  1.5805 -0.4770  0.5536
  219MOL0     H30166   3.478  10.020   3.143 -2.1377 -0.5518 -0.3798
  219MOL0     H30167   3.351  10.019   2.863 -1.2287  0.0253 -0.1794
  219MOL0     H30168   3.378  10.162   2.965 -1.5873 -0.2802 -0.5899
  219MOL0     H30169   3.205   9.929   3.066  2.6409 -0.7915  0.8443
  219MOL0     H30170   3.236  10.075   3.152 -1.9209 -0.7150  0.5472
  219MOL0     H30171   3.048  10.004   2.821  2.9621 -0.4030  0.3981
  219MOL0     H30172   2.866  10.167   2.683  0.2109 -0.1214  1.6638
  219MOL0     H30173   2.862  10.332   2.730 -1.5634  1.9631  1.4197
  219MOL0     H30174   2.689  10.290   2.886 -0.9581  1.5406 -2.6166
  219MOL0     H30175   2.649  10.216   2.738 -0.9280 -1.8364  0.0694
  219MOL0     H30176   2.762  10.029   2.962 -0.2645  1.9958  0.6400
  219MOL0     H30177   2.591  10.052   2.920 -1.1179  0.2879 -2.7232
  219MOL0     H30178   2.801   9.970   2.731 -0.1576  4.6745  0.0809
  219MOL0     H30179   2.690   9.857   2.828  0.8406 -1.0580  0.3389
  219MOL0     H30180   2.424   9.952   2.526 -1.9717 -1.0150 -1.5412
  219MOL0     H30181   2.318   9.680   2.299 -0.4099  0.5720 -4.7163
  219MOL0     H30182   2.396   9.812   2.217  0.0775  2.8891  0.8897
  219MOL0     H30183   2.269   9.842   2.350  0.0718 -1.4313  3.9771
  219MOL0     H30184   2.954   9.528   2.177 -1.3779 -1.8097  3.2345
  219MOL0     H30185   3.074   9.374   2.013 -0.5526 -2.3145  2.7760
  219MOL0     H30186   2.814   9.280   1.690 -0.4462  0.5958  0.4080
  219MOL0     H30187   2.954   9.394   1.678  1.6078 -0.6244 -1.4151
  219MOL0     H30188   3.099   9.201   1.621 -0.7096 -0.4260 -0.6835
  219MOL0     H30189   2.947   9.123   1.564 -0.0397  0.6403 -3.6823
  219MOL0     H30190   3.062   9.238   1.378  2.0516  2.3423 -1.1131
  219MOL0     H30191   3.054   9.396   1.463 -2.7542  1.6256 -1.3707
  219MOL0     H30192   2.785   9.355   1.466 -0.7820  0.4258  0.4218
  219MOL0     H30193   2.828   9.241   1.333  0.9651 -1.1237  0.8200
  219MOL0     H30194   2.844   9.528   1.334 -2.2930 -0.2221  0.3110
  219MOL0     H30195   2.958   9.443   1.230 -0.0732 -0.3548  0.4603
  219MOL0     H30196   2.784   9.320   1.114 -1.0627 -1.2673 -0.4435
  219MOL0     H30197   2.756   9.482   1.090  2.0817 -2.7466 -1.0310
  219MOL0     H30198   2.610   9.453   1.314  0.9696 -2.7276  1.5947
  219MOL0     H30199   2.582   9.296   1.236 -0.0529 -0.1933 -2.8193
  219MOL0     H30200   2.535   9.570   1.111  1.9671 -0.0473 -1.2408
  219MOL0     H30201   2.418   9.461   1.175 -0.2431 -1.5816  0.6161
  219MOL0     H30202   2.700   9.253   1.861  0.1061 -0.3094  1.0083
  219MOL0     H30203   2.575   9.393   2.021  0.0921  3.3616 -0.1107
  219MOL0     H30204   2.770   9.616   2.446  1.2074  2.1914 -1.7566
  219MOL0     H30205   2.799   9.771   2.616 -0.7764 -1.4325  1.8550
  219MOL0     H30206   4.300  10.264   3.396  0.1552  0.0012  0.0428
  219MOL0     H30207   4.511  10.179   3.345  1.5716 -0.8030 -1.3771
  219MOL0     H30208   4.745   9.806   3.230  2.9279 -0.2319  1.4508
  219MOL0     H30209   4.963   9.701   3.184 -0.4134 -0.7949 -0.4205
  219MOL0     H30210   5.129   9.690   2.772  0.1828  0.0526 -0.1245
  219MOL0     H30211   5.246   9.784   2.873  5.0346 -2.2032 -2.8009
  219MOL0     H30212   5.237   9.495   2.834  2.2974 -1.6336 -1.5272
  219MOL0     H30213   5.307   9.575   2.981 -0.9440 -1.2374 -0.7019
  219MOL0     H30214   5.454   9.526   2.745 -0.4771  0.7027 -1.2190
  219MOL0     H30215   5.413   9.695   2.721  3.5699  0.3198 -0.1848
  219MOL0     H30216   5.519   9.597   2.979 -1.1734 -0.1407 -1.4746
  219MOL0     H30217   5.490   9.766   2.916 -1.8971  1.0910 -2.0078
  219MOL0     H30218   5.841   9.679   2.719  1.5495  0.2072  0.9443
  219MOL0     H30219   5.008   9.870   2.808  0.2847 -3.6774  0.0448
  219MOL0     H30220   4.856  10.034   2.729 -2.3470 -1.6762 -2.9508
  219MOL0     H30221   4.713   9.937   2.720  2.5171 -0.1875 -1.7756
  219MOL0     H30222   4.705  10.073   2.833 -1.7336 -1.2414 -1.1387
  220MOL0     O30223   4.834   7.691  10.390 -0.0332  0.0306 -0.1206
  220MOL0     C30224   4.781   7.596  10.452 -0.7209 -0.3583  0.2048
  220MOL0     O30225   4.681   7.520  10.400  0.5112  0.2574 -0.3368
  220MOL0     C30226   4.667   7.515  10.263 -0.0490 -0.0497 -0.2527
  220MOL0     C30227   4.765   7.480  10.179 -0.3336  0.5767  0.3144
  220MOL0     C30228   4.751   7.474  10.042  0.5359  0.2256  0.0219
  220MOL0     C30229   4.627   7.480   9.985 -0.3973 -1.0085  1.1125
  220MOL0     O30230   4.615   7.467   9.843  0.1790  0.2397 -0.7057
  220MOL0     C30231   4.502   7.401   9.812 -0.3177  0.2340 -0.5629
  220MOL0     C30232   4.502   7.399   9.652  0.2771 -0.2988 -0.1477
  220MOL0     C30233   4.428   7.273   9.601  0.1565 -0.0137 -0.9014
  220MOL0     C30234   4.415   7.272   9.450 -0.4489  0.1890 -0.1599
  220MOL0     C30235   4.344   7.144   9.411 -0.4231  0.7736  0.3357
  220MOL0     C30236   4.195   7.154   9.443  0.4201 -0.0773 -0.2729
  220MOL0     C30237   4.095   7.056   9.374 -0.9602 -0.1822 -0.2750
  220MOL0     C30238   4.136   6.906   9.378  0.4275 -0.2658 -0.0857
  220MOL0     N30239   4.011   6.823   9.397  0.2205 -0.3932 -0.4115
  220MOL0     C30240   3.921   6.823   9.502  0.0570 -0.0595 -0.3255
  220MOL0     C30241   3.827   6.735   9.470 -1.4946  1.2651 -0.1377
  220MOL0     C30242   3.711   6.699   9.558  0.3892  0.3858  0.7188
  220MOL0     C30243   3.769   6.594   9.652  1.0867 -0.0328  0.3807
  220MOL0     C30244   3.648   6.520   9.724  0.0013 -0.0613 -0.2423
  220MOL0     C30245   3.702   6.445   9.843 -0.4920 -0.9874 -0.8777
  220MOL0     O30246   3.602   6.365   9.919  1.2064 -0.3269 -0.2008
  220MOL0     C30247   3.565   6.240   9.875 -0.1889 -0.6485  0.4168
  220MOL0     C30248   3.472   6.172   9.957 -0.8274  0.9470  0.1211
  220MOL0     C30249   3.433   6.044   9.912 -0.5704  0.2822 -0.0421
  220MOL0     C30250   3.325   5.976   9.989 -0.2723  0.2138  0.3702
  220MOL0     C30251   3.491   5.991   9.792  0.2723  0.6330 -0.3269
  220MOL0     C30252   3.444   5.860   9.755 -0.2740 -1.0447  0.2815
  220MOL0     O30253   3.454   5.763   9.849  0.6506  0.6259 -0.1973
  220MOL0     C30254   3.407   5.635   9.837  0.4603 -0.0555 -0.1120
  220MOL0     C30255   3.357   5.577   9.725 -0.8391 -0.4253 -0.2935
  220MOL0     C30256   3.310   5.450   9.726  1.0316  0.6015 -0.7812
  220MOL0     C30257   3.299   5.383   9.844 -0.2268 -0.6715  0.0140
  220MOL0     O30258   3.262   5.251   9.836 -0.1603  0.1823 -0.3045
  220MOL0     C30259   3.370   5.162   9.883 -0.4207 -0.2216 -1.0992
  220MOL0     C30260   3.311   5.019   9.883 -0.3505  0.2899  0.0393
  220MOL0     C30261   3.282   4.970   9.740 -0.2329 -0.0733  0.4180
  220MOL0     C30262   3.386   4.861   9.695 -0.0357 -0.0276  1.3343
  220MOL0     C30263   3.303   4.794   9.586 -0.6038  0.0069  0.3812
  220MOL0     C30264   3.389   4.702   9.511  0.4625 -0.3513 -0.1512
  220MOL0     C30265   3.299   4.624   9.413  0.4232 -0.2765 -0.0352
  220MOL0     C30266   3.378   4.511   9.327  0.4764  0.2658  0.1172
  220MOL0    Cl30267   3.494   4.427   9.429  0.2889 -0.1402  0.0725
  220MOL0     C30268   3.325   5.447   9.965 -0.6809  0.2993  0.4236
  220MOL0     C30269   3.378   5.577   9.963 -0.5773  0.5110 -0.3605
  220MOL0     O30270   3.411   5.845   9.641 -0.3869  0.2371  0.6680
  220MOL0     C30271   3.580   6.063   9.722  0.1047  0.0384 -0.1875
  220MOL0     C30272   3.621   6.189   9.761 -0.2326  0.3314  1.3344
  220MOL0     N30273   3.851   6.680   9.348 -0.3554 -0.4586  0.4167
  220MOL0     N30274   3.959   6.736   9.305 -0.1074 -0.1098  0.6108
  220MOL0     C30275   4.521   7.526  10.069  0.3692  0.3527 -0.5913
  220MOL0     C30276   4.547   7.537  10.211 -0.0715 -0.0719  0.7254
  220MOL0     C30277   4.830   7.564  10.587 -0.4568  0.8900 -0.0540
  220MOL0     C30278   4.745   7.503  10.685 -0.5949  0.0401  0.3912
  220MOL0     C30279   4.792   7.487  10.816 -0.6740 -0.1749  0.5738
  220MOL0     C30280   4.923   7.516  10.852 -1.2195 -0.6426  0.4293
  220MOL0     O30281   4.965   7.493  10.982  1.0493  0.5547  0.1109
  220MOL0     C30282   4.954   7.606  11.069  0.8110  0.0444  0.3755
  220MOL0     C30283   5.026   7.569  11.203 -0.2551  0.1399  0.5200
  220MOL0     C30284   5.177   7.591  11.199  0.8056 -0.3032  0.6932
  220MOL0     C30285   5.256   7.511  11.092  0.1813 -0.5645 -0.4236
  220MOL0     C30286   5.399   7.546  11.104 -1.0996 -1.0197  0.1728
  220MOL0     C30287   5.517   7.571  11.113  0.7791  0.3602  1.3179
  220MOL0     C30288   5.009   7.559  10.749  0.3964  0.3307 -0.8105
  220MOL0     C30289   4.968   7.584  10.622  0.0453  0.5218  1.0634
  220MOL0     C30290   5.071   7.626  10.522  0.0447 -0.3968 -0.4785
  220MOL0     H30291   4.856   7.448  10.229 -0.2681 -2.4726 -1.4659
  220MOL0     H30292   4.828   7.443   9.972 -0.4511  3.0919 -2.5723
  220MOL0     H30293   4.417   7.461   9.848 -1.1847 -0.5270 -1.2761
  220MOL0     H30294   4.500   7.300   9.855 -0.1770  1.5592  2.8763
  220MOL0     H30295   4.450   7.491   9.624  0.1419 -0.5450 -0.7297
  220MOL0     H30296   4.604   7.413   9.617  0.0391  2.9085  0.0985
  220MOL0     H30297   4.474   7.184   9.646 -2.0439 -0.2411  1.1545
  220MOL0     H30298   4.331   7.276   9.651  0.0662  0.9377 -1.1166
  220MOL0     H30299   4.360   7.360   9.415  1.8329  1.4072 -0.8614
  220MOL0     H30300   4.515   7.296   9.415 -1.1484  1.9202 -1.0954
  220MOL0     H30301   4.381   7.053   9.458  0.1539  0.4095 -0.7661
  220MOL0     H30302   4.351   7.125   9.303  0.3694  0.8299  0.3711
  220MOL0     H30303   4.178   7.145   9.551 -0.1072 -0.9576 -0.4272
  220MOL0     H30304   4.150   7.253   9.427 -1.0956 -0.3958  1.6997
  220MOL0     H30305   4.073   7.084   9.271 -2.4563 -1.7607 -0.4372
  220MOL0     H30306   4.004   7.065   9.434  0.2819  3.8562  1.2874
  220MOL0     H30307   4.188   6.872   9.288 -1.6626  0.7488 -1.7591
  220MOL0     H30308   4.203   6.893   9.464  3.0790  2.0379 -1.6433
  220MOL0     H30309   3.920   6.885   9.591 -0.3980  0.0442 -0.4024
  220MOL0     H30310   3.622   6.670   9.501  2.9358  0.9486 -3.9909
  220MOL0     H30311   3.681   6.786   9.618 -2.5935  0.4762 -0.7342
  220MOL0     H30312   3.832   6.520   9.600  2.0792  0.8681  0.2579
  220MOL0     H30313   3.833   6.643   9.726  0.3893 -1.6299  2.1232
  220MOL0     H30314   3.571   6.593   9.752  0.2148 -0.2529  0.8886
  220MOL0     H30315   3.601   6.451   9.653 -0.2597 -0.1987  0.0605
  220MOL0     H30316   3.787   6.378   9.824  1.1519 -0.1664  2.8220
  220MOL0     H30317   3.737   6.521   9.913  0.7542 -2.2617 -0.0523
  220MOL0     H30318   3.433   6.222  10.045  1.5836 -0.6197  2.2190
  220MOL0     H30319   3.254   6.042  10.039  0.0071  1.4037 -0.7243
  220MOL0     H30320   3.371   5.906  10.059 -1.1936  1.9071  2.8014
  220MOL0     H30321   3.271   5.914   9.917  2.4133 -2.0072  0.0987
  220MOL0     H30322   3.354   5.627   9.629 -1.4521 -3.1420 -1.7863
  220MOL0     H30323   3.289   5.397   9.634  1.9343 -0.2123 -0.5372
  220MOL0     H30324   3.460   5.169   9.821  0.8958 -2.1335  0.4558
  220MOL0     H30325   3.400   5.194   9.984 -0.3930 -2.1902 -0.4499
  220MOL0     H30326   3.378   4.950   9.935 -0.1672  1.4670  1.4214
  220MOL0     H30327   3.214   5.017   9.933 -0.8422 -1.1027 -0.8935
  220MOL0     H30328   3.274   5.048   9.664 -1.6327 -1.0921 -0.5314
  220MOL0     H30329   3.182   4.926   9.737 -0.0814 -0.3946 -0.2026
  220MOL0     H30330   3.413   4.788   9.771  0.0073 -0.0820  1.2659
  220MOL0     H30331   3.469   4.915   9.648 -3.0565  2.9946 -1.0641
  220MOL0     H30332   3.215   4.742   9.627 -0.8086  1.0004  1.2399
  220MOL0     H30333   3.278   4.878   9.521  2.1294  0.0259 -0.7673
  220MOL0     H30334   3.425   4.629   9.584  0.7550 -1.4727 -1.3769
  220MOL0     H30335   3.476   4.758   9.475 -0.1451  1.1836  0.6590
  220MOL0     H30336   3.264   4.694   9.336 -1.9955 -2.9267 -1.5188
  220MOL0     H30337   3.214   4.573   9.458  1.2591 -2.6924 -1.0345
  220MOL0     H30338   3.435   4.550   9.242  0.5220 -2.3123 -1.1217
  220MOL0     H30339   3.300   4.445   9.288  1.2203 -0.8340  0.4445
  220MOL0     H30340   3.311   5.405  10.064  0.4715  2.7109  1.7119
  220MOL0     H30341   3.426   5.626  10.048 -2.2796  0.3755  0.7258
  220MOL0     H30342   3.608   6.021   9.625  1.3787  0.5283 -0.0417
  220MOL0     H30343   3.686   6.252   9.702 -0.4649  0.5613  1.3197
  220MOL0     H30344   4.421   7.555  10.037  0.5320  1.2575 -0.2950
  220MOL0     H30345   4.458   7.546  10.272 -1.8401 -0.6460 -1.6080
  220MOL0     H30346   4.649   7.467  10.648  1.2579 -3.3058 -1.6797
  220MOL0     H30347   4.717   7.455  10.887 -0.0135  0.4495  1.5638
  220MOL0     H30348   4.990   7.698  11.021 -0.8331  0.1446 -0.7329
  220MOL0     H30349   4.849   7.629  11.088 -0.2631 -2.4057 -1.9675
  220MOL0     H30350   4.994   7.469  11.232 -4.3240  1.2011  0.2064
  220MOL0     H30351   4.994   7.636  11.283  0.3834  0.5772  0.4251
  220MOL0     H30352   5.182   7.699  11.183  0.9687 -0.2880  0.8496
  220MOL0     H30353   5.212   7.576  11.301 -0.1331  1.8093  1.3968
  220MOL0     H30354   5.221   7.549  10.995 -0.3085 -1.1002 -0.4663
  220MOL0     H30355   5.235   7.404  11.098 -0.2101 -0.4139  1.3086
  220MOL0     H30356   5.623   7.573  11.128  1.0549 -3.8959  1.2743
  220MOL0     H30357   5.114   7.568  10.777 -0.2334 -0.2825  2.0936
  220MOL0     H30358   5.173   7.626  10.562  0.2270  0.3921 -0.9244
  220MOL0     H30359   5.073   7.563  10.433 -2.1305 -2.2785  0.6980
  220MOL0     H30360   5.047   7.732  10.504  1.3250  0.1446  0.7958
  221MOL0     O30361   7.571   0.127   2.941  0.5505  0.3540 -0.1239
  221MOL0     C30362   7.481   0.077   2.869  0.2473 -0.6428 -0.2906
  221MOL0     O30363   7.345   0.072   2.907 -0.8372  0.0958  0.3631
  221MOL0     C30364   7.301   0.128   3.025 -0.4486 -0.3053  0.6194
  221MOL0     C30365   7.161   0.109   3.035 -1.1225 -0.8361 -1.2319
  221MOL0     C30366   7.083   0.180   3.132 -0.4769  0.0245  0.2544
  221MOL0     C30367   7.145   0.260   3.229 -0.3140  0.3629 -1.1614
  221MOL0     O30368   7.061   0.334   3.319  0.0550  0.4196  0.2047
  221MOL0     C30369   7.126   0.412   3.423 -1.4538 -0.3170  0.1709
  221MOL0     C30370   7.014   0.473   3.518 -0.2422 -0.3756 -0.5002
  221MOL0     C30371   6.952   0.359   3.593 -0.5548  0.2240 -0.5294
  221MOL0     C30372   6.866   0.430   3.698  0.1174  0.1775 -0.1923
  221MOL0     C30373   6.742   0.479   3.631 -0.0805 -0.4124 -0.6641
  221MOL0     C30374   6.619   0.477   3.718  0.2690 -0.3732  0.1272
  221MOL0     C30375   6.605   0.607   3.800 -0.3836  0.3937 -0.6331
  221MOL0     C30376   6.473   0.599   3.873 -0.0227  1.0412  0.6960
  221MOL0     N30377   6.486   0.576   4.011  0.2841  0.0893  0.5575
  221MOL0     C30378   6.481   0.445   4.062  0.3929 -1.3739  0.0770
  221MOL0     C30379   6.462   0.455   4.196 -0.9165 -0.1640 -0.0679
  221MOL0     C30380   6.462   0.332   4.287  0.1942 -1.1190 -0.0804
  221MOL0     C30381   6.409   0.359   4.430  0.2796 -0.1023  0.4279
  221MOL0     C30382   6.258   0.414   4.435  0.1817  0.1214 -0.1035
  221MOL0     C30383   6.198   0.413   4.575  0.8420 -0.1639 -0.1611
  221MOL0     O30384   6.197   0.286   4.623 -1.7928  0.1978 -0.0861
  221MOL0     C30385   6.099   0.264   4.718 -0.1998  0.7762 -0.2420
  221MOL0     C30386   6.029   0.354   4.801 -1.0692 -0.5696 -0.6413
  221MOL0     C30387   5.913   0.317   4.874 -0.2869  0.1436 -0.5947
  221MOL0     C30388   5.835   0.430   4.939  0.1721  0.1311  0.0502
  221MOL0     C30389   5.887   0.171   4.887 -1.3865  0.0366  0.2362
  221MOL0     C30390   5.781   0.115   4.975 -0.1096 -0.1142  0.1752
  221MOL0     O30391   5.764  -0.020   4.958  0.3284  0.5219 -0.1023
  221MOL0     C30392   5.631  -0.055   4.986  0.0204  0.0508 -0.4974
  221MOL0     C30393   5.529  -0.068   4.892  0.2702  0.0428  0.2649
  221MOL0     C30394   5.399  -0.103   4.922  1.0383 -0.8407 -0.4491
  221MOL0     C30395   5.374  -0.120   5.061  1.0764 -0.8379  0.7583
  221MOL0     O30396   5.241  -0.160   5.090 -0.5011 -0.3059  0.1661
  221MOL0     C30397   5.229  -0.276   5.174 -0.4383 -1.3261  0.1925
  221MOL0     C30398   5.092  -0.312   5.227  1.1139 -0.2903  0.4352
  221MOL0     C30399   5.093  -0.423   5.330 -0.0763 -0.6005  0.1775
  221MOL0     C30400   4.965  -0.456   5.390  0.7363  0.4677 -0.8662
  221MOL0     C30401   4.872  -0.520   5.282  0.2689 -0.1278 -0.0141
  221MOL0     C30402   4.762  -0.612   5.343 -0.1538 -0.1268  0.0637
  221MOL0     C30403   4.649  -0.534   5.414 -0.3123  0.2214 -0.5525
  221MOL0     C30404   4.550  -0.637   5.480 -1.0961 -0.1039  0.2290
  221MOL0    Cl30405   4.425  -0.545   5.578 -0.4968  0.0046 -0.0316
  221MOL0     C30406   5.476  -0.113   5.158 -0.3054  0.1731 -0.0731
  221MOL0     C30407   5.607  -0.090   5.119  0.2897 -0.2472 -0.0714
  221MOL0     O30408   5.717   0.181   5.054 -0.4484  0.0632 -0.8557
  221MOL0     C30409   5.983   0.087   4.828 -0.1865  0.8170  0.0769
  221MOL0     C30410   6.076   0.133   4.740  0.7128  0.4415 -0.8579
  221MOL0     N30411   6.447   0.595   4.220  0.1540 -1.1575  0.1328
  221MOL0     N30412   6.463   0.667   4.117  0.0724  0.1853 -0.2532
  221MOL0     C30413   7.282   0.290   3.201 -0.0608 -0.1913 -1.1391
  221MOL0     C30414   7.360   0.246   3.094 -0.0472 -0.1956 -0.8163
  221MOL0     C30415   7.532   0.002   2.752 -0.2178 -0.0051  0.7125
  221MOL0     C30416   7.666  -0.021   2.738 -0.2469 -0.3379 -0.0863
  221MOL0     C30417   7.727  -0.076   2.628 -0.3212 -0.8019 -0.4477
  221MOL0     C30418   7.655  -0.128   2.524  1.0222 -0.4089  0.0442
  221MOL0     O30419   7.701  -0.167   2.402  0.5394 -0.4361 -0.8891
  221MOL0     C30420   7.839  -0.164   2.373 -0.4792  0.5335 -0.4620
  221MOL0     C30421   7.927  -0.283   2.424  0.0514  0.0492 -0.4043
  221MOL0     C30422   8.068  -0.256   2.379 -0.5116 -0.2606  0.1248
  221MOL0     C30423   8.155  -0.387   2.433 -0.0552 -0.0960  0.4358
  221MOL0     C30424   8.291  -0.368   2.379 -0.8194  0.3603  0.6201
  221MOL0     C30425   8.402  -0.362   2.325 -0.6013  0.7883 -0.1258
  221MOL0     C30426   7.517  -0.105   2.542 -0.4991  1.2030 -0.1970
  221MOL0     C30427   7.453  -0.052   2.656  0.4746  0.5851  0.9034
  221MOL0     C30428   7.303  -0.072   2.670  0.3963  0.2861 -0.4012
  221MOL0     H30429   7.108   0.047   2.963 -1.7319 -0.9609 -0.6840
  221MOL0     H30430   6.977   0.162   3.120 -0.8502 -2.4314  4.8590
  221MOL0     H30431   7.178   0.498   3.379 -0.0947  0.1304  2.5013
  221MOL0     H30432   7.204   0.359   3.478 -1.7910 -1.8323 -0.7268
  221MOL0     H30433   7.054   0.553   3.581 -0.5336 -2.9389  3.2100
  221MOL0     H30434   6.938   0.522   3.457 -2.1329  0.3316  2.2283
  221MOL0     H30435   6.890   0.301   3.524 -1.7249  1.4911 -0.5822
  221MOL0     H30436   7.027   0.294   3.639  0.1131  1.5913  0.4013
  221MOL0     H30437   6.841   0.363   3.781  1.8802  1.2017  1.2228
  221MOL0     H30438   6.918   0.518   3.738  0.7652 -0.3874  0.2275
  221MOL0     H30439   6.707   0.412   3.553 -2.1518  2.2130 -2.1333
  221MOL0     H30440   6.748   0.580   3.589 -0.3779 -0.1976 -0.2035
  221MOL0     H30441   6.531   0.472   3.652 -0.0620  1.3297  0.3783
  221MOL0     H30442   6.623   0.387   3.780  1.0505  0.4608  1.3301
  221MOL0     H30443   6.609   0.691   3.730 -1.2397  1.0582  0.0750
  221MOL0     H30444   6.688   0.609   3.871 -0.0037 -0.5941 -1.0335
  221MOL0     H30445   6.414   0.686   3.846 -2.6953 -0.8890 -0.0655
  221MOL0     H30446   6.409   0.517   3.839  0.6075  0.9486 -0.3162
  221MOL0     H30447   6.485   0.349   4.010  1.6640 -0.7569 -1.0364
  221MOL0     H30448   6.568   0.305   4.295  1.0530  1.4699 -1.5775
  221MOL0     H30449   6.409   0.253   4.233 -2.1283  0.0045  0.4097
  221MOL0     H30450   6.418   0.258   4.470  0.5443  0.1005  0.8821
  221MOL0     H30451   6.471   0.426   4.490 -2.6619 -2.4316  6.9313
  221MOL0     H30452   6.259   0.520   4.408  1.8583  1.3556  4.1047
  221MOL0     H30453   6.200   0.361   4.358 -0.3505  1.2689 -0.5210
  221MOL0     H30454   6.263   0.484   4.626 -1.7482  3.3187 -1.2792
  221MOL0     H30455   6.095   0.450   4.573  0.6858 -0.6069 -0.9376
  221MOL0     H30456   6.056   0.459   4.813  1.9490 -1.4457  1.0701
  221MOL0     H30457   5.867   0.531   4.910 -1.3431  0.9557  1.1522
  221MOL0     H30458   5.833   0.432   5.048  0.9988  0.8951  0.0695
  221MOL0     H30459   5.728   0.415   4.919 -0.5049  0.8058  2.7588
  221MOL0     H30460   5.550  -0.060   4.785  5.0751  1.6978  1.0873
  221MOL0     H30461   5.321  -0.113   4.847  0.4185 -3.6394  0.4417
  221MOL0     H30462   5.271  -0.358   5.115  0.8527  1.2553 -2.7516
  221MOL0     H30463   5.300  -0.263   5.256 -2.4898 -1.3149  2.0825
  221MOL0     H30464   5.050  -0.221   5.270  1.2424 -0.4839  0.9704
  221MOL0     H30465   5.042  -0.351   5.137  1.3150  0.3670  0.0280
  221MOL0     H30466   5.166  -0.407   5.409 -2.0309 -0.2846  1.9958
  221MOL0     H30467   5.128  -0.513   5.278 -1.5705 -1.0443 -0.1400
  221MOL0     H30468   4.909  -0.369   5.426 -1.1122 -1.0160  0.0528
  221MOL0     H30469   4.979  -0.512   5.482  2.2990  0.7970 -0.8902
  221MOL0     H30470   4.817  -0.440   5.230  0.3242  0.2481  0.4918
  221MOL0     H30471   4.927  -0.569   5.202  0.9296  4.5734 -2.8359
  221MOL0     H30472   4.805  -0.675   5.421 -4.4848 -2.2324  1.0172
  221MOL0     H30473   4.715  -0.685   5.276  1.9732 -0.5771 -1.0327
  221MOL0     H30474   4.603  -0.465   5.342  0.5163  0.4459 -0.8877
  221MOL0     H30475   4.704  -0.490   5.498  0.6768 -2.5531  0.3413
  221MOL0     H30476   4.598  -0.713   5.544  2.0171 -1.2870 -3.1478
  221MOL0     H30477   4.508  -0.694   5.397 -0.9846 -0.9170  0.7125
  221MOL0     H30478   5.457  -0.129   5.263  3.2317  1.2712  0.8507
  221MOL0     H30479   5.677  -0.070   5.200 -2.6895  0.8779  2.4278
  221MOL0     H30480   5.981  -0.020   4.843 -0.2836  0.6851 -0.8557
  221MOL0     H30481   6.129   0.064   4.675  2.0033  1.7644 -1.2338
  221MOL0     H30482   7.328   0.371   3.256 -2.6518  1.7095 -1.5631
  221MOL0     H30483   7.455   0.291   3.066  0.3044 -0.3934  0.0201
  221MOL0     H30484   7.737   0.027   2.805 -1.0705  0.9021 -0.0584
  221MOL0     H30485   7.835  -0.079   2.630 -0.1039  2.7743  0.9348
  221MOL0     H30486   7.845  -0.179   2.265 -1.6841 -1.5578 -0.2880
  221MOL0     H30487   7.879  -0.074   2.420  1.5390 -0.9526  0.8413
  221MOL0     H30488   7.884  -0.379   2.394 -1.2526 -0.0474  1.5532
  221MOL0     H30489   7.930  -0.268   2.533  1.2155  4.3209 -0.8391
  221MOL0     H30490   8.076  -0.246   2.271 -2.9548  4.4319  0.0993
  221MOL0     H30491   8.117  -0.166   2.418  0.0389  0.5221 -2.1950
  221MOL0     H30492   8.107  -0.480   2.399  0.4215  0.3016 -1.4383
  221MOL0     H30493   8.160  -0.390   2.542  0.6483  2.0602  0.5104
  221MOL0     H30494   8.496  -0.341   2.279  0.2570  1.6603  1.9156
  221MOL0     H30495   7.456  -0.152   2.466 -0.5460  1.2334 -0.1777
  221MOL0     H30496   7.256  -0.137   2.596 -0.3228  1.4015 -0.9557
  221MOL0     H30497   7.292  -0.137   2.758 -0.5544  0.7953 -0.1251
  221MOL0     H30498   7.244   0.020   2.670 -1.3767 -0.7773 -2.0397
  222MOL0     O30499   8.110   3.538   0.764 -0.3025  0.9545 -1.0171
  222MOL0     C30500   8.024   3.594   0.835 -0.5364 -0.6040 -0.9141
  222MOL0     O30501   8.042   3.691   0.925  0.6626 -0.1168  0.4561
  222MOL0     C30502   8.164   3.724   0.974  0.6225 -0.2382  0.1753
  222MOL0     C30503   8.260   3.629   1.028 -0.1490 -0.1094  0.6512
  222MOL0     C30504   8.378   3.684   1.069 -0.0590 -0.1391 -0.3006
  222MOL0     C30505   8.408   3.823   1.068  0.2099  0.6053 -0.1956
  222MOL0     O30506   8.524   3.853   1.134  0.0400  0.0839 -0.1406
  222MOL0     C30507   8.594   3.965   1.076 -0.0415 -0.5337 -0.1279
  222MOL0     C30508   8.729   3.988   1.142 -1.5598  0.4269 -0.5894
  222MOL0     C30509   8.727   4.092   1.252 -0.3295 -0.1331  0.7020
  222MOL0     C30510   8.706   4.032   1.388 -0.5093  0.0475  0.0682
  222MOL0     C30511   8.754   4.118   1.499 -0.1360  0.4095 -1.1238
  222MOL0     C30512   8.716   4.050   1.627  0.5782  1.1359  0.1042
  222MOL0     C30513   8.767   4.137   1.745 -0.3650 -0.9123 -0.4620
  222MOL0     C30514   8.703   4.103   1.879 -0.2226 -0.5901  0.4453
  222MOL0     N30515   8.567   4.159   1.898 -0.7570 -0.4734 -0.2127
  222MOL0     C30516   8.461   4.084   1.885  0.5425 -0.9980  0.4967
  222MOL0     C30517   8.356   4.139   1.943 -0.2008 -0.6994  0.7031
  222MOL0     C30518   8.221   4.093   1.926  0.5556  0.2826 -0.1660
  222MOL0     C30519   8.184   4.073   1.781  0.2397 -0.6696  0.1771
  222MOL0     C30520   8.060   3.980   1.749  0.2823  0.8219 -0.9612
  222MOL0     C30521   8.069   3.844   1.812  0.7636 -0.0382  0.6790
  222MOL0     O30522   8.009   3.719   1.760  0.1237 -0.2589 -0.1356
  222MOL0     C30523   7.873   3.706   1.758  0.1003 -0.4939 -0.0824
  222MOL0     C30524   7.824   3.600   1.687 -0.4720 -0.3290  0.5848
  222MOL0     C30525   7.688   3.569   1.685 -0.3672 -0.0876  0.1279
  222MOL0     C30526   7.643   3.458   1.601  0.2069 -0.7494 -0.6617
  222MOL0     C30527   7.597   3.656   1.748 -0.5067 -0.1373  0.5659
  222MOL0     C30528   7.460   3.625   1.751  0.5165 -0.6855  0.6311
  222MOL0     O30529   7.368   3.709   1.697  0.0931  0.8366 -0.0529
  222MOL0     C30530   7.232   3.677   1.712  0.2779 -0.7236 -0.1200
  222MOL0     C30531   7.165   3.625   1.597 -0.0225  0.6259 -0.1153
  222MOL0     C30532   7.047   3.562   1.617  0.1479  0.4421 -0.3653
  222MOL0     C30533   6.977   3.565   1.744  0.2457  0.2528  0.4415
  222MOL0     O30534   6.849   3.526   1.765 -0.2777 -0.3475  0.6724
  222MOL0     C30535   6.808   3.419   1.681  0.1779 -0.3543 -0.9316
  222MOL0     C30536   6.654   3.377   1.710  0.1809 -0.5469 -0.2481
  222MOL0     C30537   6.629   3.283   1.826  0.4098  0.6472  0.0396
  222MOL0     C30538   6.651   3.139   1.773 -0.8820 -1.0572 -0.4982
  222MOL0     C30539   6.734   3.057   1.867  0.1939 -0.3245  1.3948
  222MOL0     C30540   6.761   2.916   1.815  0.8766  0.6445 -0.1526
  222MOL0     C30541   6.641   2.844   1.747  1.1699  0.0427  0.0509
  222MOL0     C30542   6.519   2.830   1.839  0.1637 -0.1953 -0.0789
  222MOL0    Cl30543   6.417   2.707   1.744 -0.2554  0.3406 -0.0113
  222MOL0     C30544   7.040   3.627   1.855 -0.7603 -0.3023 -0.8780
  222MOL0     C30545   7.167   3.685   1.832  0.2342 -0.3976 -0.0469
  222MOL0     O30546   7.440   3.518   1.811  0.1584 -0.2385 -0.3317
  222MOL0     C30547   7.643   3.767   1.815 -0.0985 -0.4907 -0.2147
  222MOL0     C30548   7.784   3.793   1.822  0.1689 -0.1465  0.6154
  222MOL0     N30549   8.391   4.257   1.999  0.6964  0.3111 -0.5742
  222MOL0     N30550   8.525   4.266   1.976  0.2991  0.6270 -0.6666
  222MOL0     C30551   8.309   3.915   1.029 -0.7630 -0.8045  0.2941
  222MOL0     C30552   8.190   3.862   0.977  0.8523  0.5202  0.7528
  222MOL0     C30553   7.871   3.573   0.802  0.2155  0.3329 -0.2078
  222MOL0     C30554   7.803   3.682   0.787  0.4146 -1.0366  0.0835
  222MOL0     C30555   7.662   3.672   0.781  0.2950 -0.1691  1.5884
  222MOL0     C30556   7.596   3.554   0.762 -0.1601 -0.9001  0.1470
  222MOL0     O30557   7.461   3.555   0.739 -1.2845 -0.1937 -0.0843
  222MOL0     C30558   7.388   3.435   0.763  0.3233  0.2702 -0.3392
  222MOL0     C30559   7.308   3.390   0.636  0.0593 -0.8374  0.1659
  222MOL0     C30560   7.169   3.465   0.615 -0.3365  0.9815  0.4651
  222MOL0     C30561   7.095   3.425   0.488 -0.3316  0.0111  0.4836
  222MOL0     C30562   7.076   3.284   0.470 -0.3621  0.3281  0.1396
  222MOL0     C30563   7.060   3.166   0.438  0.3341 -1.0172 -0.5492
  222MOL0     C30564   7.671   3.437   0.765  0.2202  0.0651 -0.0095
  222MOL0     C30565   7.807   3.440   0.783  0.0928 -0.0756 -0.1271
  222MOL0     C30566   7.869   3.303   0.802 -0.3127 -0.0043  0.2305
  222MOL0     H30567   8.240   3.524   1.015 -3.1969  0.3306  0.9954
  222MOL0     H30568   8.448   3.616   1.116  0.6039  1.5539  1.2866
  222MOL0     H30569   8.539   4.059   1.084  1.1293  0.4429 -2.4503
  222MOL0     H30570   8.606   3.937   0.971 -0.5710 -0.7315 -0.1392
  222MOL0     H30571   8.769   3.893   1.181  0.9370  0.5185 -2.6743
  222MOL0     H30572   8.802   4.026   1.069 -0.2774 -0.4833  0.1629
  222MOL0     H30573   8.828   4.134   1.254 -1.1658  2.7270 -3.4558
  222MOL0     H30574   8.656   4.166   1.215 -1.2957 -2.4009 -2.4709
  222MOL0     H30575   8.599   4.007   1.395 -1.0046  1.3416 -2.0790
  222MOL0     H30576   8.767   3.941   1.392 -2.0973 -1.0606 -0.0790
  222MOL0     H30577   8.712   4.219   1.498 -1.2471  0.0294  1.4104
  222MOL0     H30578   8.864   4.120   1.496 -0.0095 -0.6616  1.2052
  222MOL0     H30579   8.608   4.032   1.632  0.2126  1.1386 -4.2005
  222MOL0     H30580   8.772   3.957   1.631  1.0933  1.3745 -1.1103
  222MOL0     H30581   8.751   4.241   1.715  0.2860 -0.1570  1.6235
  222MOL0     H30582   8.875   4.118   1.748 -0.6749 -3.0169 -0.8983
  222MOL0     H30583   8.688   3.995   1.878 -0.9909 -0.4856  0.3320
  222MOL0     H30584   8.771   4.130   1.961  1.4416 -0.0022 -1.0447
  222MOL0     H30585   8.460   3.991   1.828 -0.0247 -0.3892 -0.5171
  222MOL0     H30586   8.153   4.160   1.980  0.0920  0.1506 -0.5790
  222MOL0     H30587   8.214   3.996   1.976 -1.3133  1.5118  2.2200
  222MOL0     H30588   8.174   4.167   1.725  0.0851 -0.3371  0.7619
  222MOL0     H30589   8.272   4.035   1.727  1.1168 -1.8708  2.3285
  222MOL0     H30590   7.965   4.025   1.777 -1.3744 -1.4320 -2.5961
  222MOL0     H30591   8.060   3.963   1.640  1.2928  2.0813 -1.1819
  222MOL0     H30592   8.177   3.826   1.808  1.3792  3.2757 -1.6714
  222MOL0     H30593   8.028   3.863   1.912  0.1241 -0.5227  0.5135
  222MOL0     H30594   7.882   3.526   1.633  0.0641  0.1947  0.4259
  222MOL0     H30595   7.728   3.397   1.570 -1.0189 -3.1666  0.4674
  222MOL0     H30596   7.603   3.515   1.517  0.5927  1.1670  0.3976
  222MOL0     H30597   7.567   3.389   1.637 -0.7002  0.0203 -1.0539
  222MOL0     H30598   7.208   3.629   1.497 -0.2516 -1.7902 -0.3578
  222MOL0     H30599   7.007   3.519   1.525 -1.8591 -3.2263  1.9521
  222MOL0     H30600   6.803   3.458   1.579  2.1204  0.5366 -0.7337
  222MOL0     H30601   6.869   3.330   1.697  2.2105  1.0284 -0.5587
  222MOL0     H30602   6.609   3.475   1.720  0.1963 -0.5534 -0.1171
  222MOL0     H30603   6.613   3.334   1.618  0.4183 -0.9574 -0.1668
  222MOL0     H30604   6.522   3.284   1.848  0.4481 -0.7632  0.3558
  222MOL0     H30605   6.686   3.314   1.914 -0.4432  3.2013 -0.2380
  222MOL0     H30606   6.723   3.144   1.691 -0.6313 -2.9361 -0.4390
  222MOL0     H30607   6.555   3.099   1.737 -1.6541 -1.7494  2.0849
  222MOL0     H30608   6.828   3.111   1.876 -0.5281  1.7035 -1.7656
  222MOL0     H30609   6.684   3.055   1.964 -0.5493  1.4361  1.0810
  222MOL0     H30610   6.800   2.857   1.898  0.9783  1.2705  0.2498
  222MOL0     H30611   6.843   2.926   1.743 -0.1281  1.5483 -1.2199
  222MOL0     H30612   6.677   2.749   1.706  1.6337  0.7581 -1.2719
  222MOL0     H30613   6.618   2.893   1.652 -0.0207 -0.5845 -0.0093
  222MOL0     H30614   6.460   2.920   1.853 -0.5226 -1.0206  3.1967
  222MOL0     H30615   6.541   2.789   1.938 -2.0944 -0.1533  0.4787
  222MOL0     H30616   6.987   3.633   1.949 -1.0481 -0.9214 -0.9968
  222MOL0     H30617   7.212   3.739   1.915 -1.1683  1.0635 -0.1717
  222MOL0     H30618   7.557   3.818   1.856 -1.7420 -0.8284 -3.0063
  222MOL0     H30619   7.802   3.883   1.880 -2.3356  1.1931 -0.5497
  222MOL0     H30620   8.328   4.022   1.035  0.7722 -1.0509  0.2444
  222MOL0     H30621   8.112   3.927   0.937 -0.5784 -0.6270  1.5660
  222MOL0     H30622   7.848   3.781   0.793 -0.3647 -0.6836  0.1747
  222MOL0     H30623   7.604   3.764   0.787  0.4350 -0.0923  1.7891
  222MOL0     H30624   7.445   3.345   0.788  0.9391  0.7908  0.1824
  222MOL0     H30625   7.321   3.449   0.849  0.6936 -0.1401  0.0219
  222MOL0     H30626   7.278   3.286   0.651 -1.8398 -0.7599 -2.4698
  222MOL0     H30627   7.379   3.402   0.554 -1.5531  0.0655 -1.1452
  222MOL0     H30628   7.108   3.422   0.695  2.8364 -0.1701  2.4384
  222MOL0     H30629   7.190   3.571   0.628  0.5082  0.5633  3.1600
  222MOL0     H30630   7.140   3.461   0.396  0.3101 -0.3016  0.6659
  222MOL0     H30631   6.997   3.471   0.502 -1.1057  0.1839 -4.1985
  222MOL0     H30632   7.058   3.062   0.414 -0.7056 -1.3049  0.6635
  222MOL0     H30633   7.629   3.341   0.734  0.4312 -0.0977  0.2056
  222MOL0     H30634   7.834   3.251   0.892  0.5422  1.2083  1.3217
  222MOL0     H30635   7.851   3.245   0.712  0.4157 -1.7438  1.1476
  222MOL0     H30636   7.977   3.304   0.824 -0.2474 -3.4126  0.5004
  223MOL0     O30637   0.714   6.844   0.506 -0.5606  0.5783 -0.2688
  223MOL0     C30638   0.739   6.960   0.471 -0.3310 -0.4349  0.1221
  223MOL0     O30639   0.666   7.073   0.509  0.2937  0.7732 -0.3411
  223MOL0     C30640   0.557   7.053   0.594  0.5774 -0.2195  0.1662
  223MOL0     C30641   0.429   7.075   0.544  0.8881 -0.0234 -0.4278
  223MOL0     C30642   0.313   7.052   0.625 -0.0296  0.2636  0.6035
  223MOL0     C30643   0.330   7.013   0.757 -0.9521  0.0129 -0.2661
  223MOL0     O30644   0.231   6.992   0.847 -0.7669 -0.3767 -0.6224
  223MOL0     C30645   0.091   6.978   0.811  1.0386 -0.7642  0.8266
  223MOL0     C30646   0.030   7.122   0.805 -0.1035  0.3609 -0.7402
  223MOL0     C30647  -0.105   7.121   0.735  0.5992  0.0229 -0.7006
  223MOL0     C30648  -0.179   7.250   0.710  0.2329  0.6019  0.5263
  223MOL0     C30649  -0.297   7.228   0.617 -0.0496  1.2270 -0.2646
  223MOL0     C30650  -0.381   7.348   0.597 -0.0755 -0.1198 -0.2495
  223MOL0     C30651  -0.323   7.436   0.481 -0.6143  0.0236 -0.6045
  223MOL0     C30652  -0.369   7.584   0.475 -0.5876 -0.1893 -0.4663
  223MOL0     N30653  -0.514   7.596   0.484  0.2701  0.3964 -1.4754
  223MOL0     C30654  -0.593   7.623   0.592  0.0555 -0.4263 -1.0464
  223MOL0     C30655  -0.727   7.614   0.555 -0.8651 -1.6309  0.5073
  223MOL0     C30656  -0.852   7.630   0.642 -0.7961  0.4387  0.3369
  223MOL0     C30657  -0.896   7.779   0.629  0.2655 -0.3191  0.5095
  223MOL0     C30658  -1.031   7.818   0.700  0.4122  0.3823  0.2706
  223MOL0     C30659  -1.156   7.734   0.638  1.2995 -0.2100 -0.9974
  223MOL0     O30660  -1.278   7.796   0.675 -0.3941 -0.5796  0.7902
  223MOL0     C30661  -1.306   7.916   0.603 -0.9320  0.1848 -0.5367
  223MOL0     C30662  -1.333   7.917   0.466 -0.0428  0.1800  0.3113
  223MOL0     C30663  -1.400   8.024   0.403 -0.3207  0.6110  0.0639
  223MOL0     C30664  -1.444   8.006   0.254 -0.2807 -0.2584 -0.3387
  223MOL0     C30665  -1.428   8.138   0.473 -0.2018  0.4619 -0.5068
  223MOL0     C30666  -1.486   8.244   0.407  0.1123  0.3339  0.5338
  223MOL0     O30667  -1.405   8.328   0.332 -0.6291  0.5125  0.8138
  223MOL0     C30668  -1.455   8.429   0.261 -0.1290  0.4154  0.1902
  223MOL0     C30669  -1.534   8.410   0.149 -0.7536  0.2240  0.2747
  223MOL0     C30670  -1.565   8.519   0.060  0.2594  0.0445 -1.2141
  223MOL0     C30671  -1.536   8.656   0.093  0.1323  0.4675 -0.0369
  223MOL0     O30672  -1.560   8.754   0.001 -0.1953  0.1873 -0.8684
  223MOL0     C30673  -1.694   8.753  -0.054 -0.0188  0.2695  0.7494
  223MOL0     C30674  -1.779   8.844   0.043 -0.5318 -0.4317 -1.0718
  223MOL0     C30675  -1.700   8.972   0.094  0.5846  0.5331  0.1426
  223MOL0     C30676  -1.663   9.057  -0.029 -0.0728 -0.7701 -0.3128
  223MOL0     C30677  -1.636   9.197   0.008 -0.1768  1.0425 -1.0762
  223MOL0     C30678  -1.750   9.282   0.055  0.4802 -0.0681 -0.0780
  223MOL0     C30679  -1.883   9.274  -0.022  0.5419  0.2314  0.0867
  223MOL0     C30680  -1.862   9.309  -0.167 -0.0804  0.0991 -0.2333
  223MOL0    Cl30681  -1.997   9.279  -0.271 -0.4789  0.5602 -0.5973
  223MOL0     C30682  -1.451   8.678   0.210  0.2098  0.6607 -0.5939
  223MOL0     C30683  -1.417   8.562   0.290 -0.0626 -1.1613  0.0484
  223MOL0     O30684  -1.605   8.264   0.425 -0.6283  0.3246 -0.0153
  223MOL0     C30685  -1.400   8.145   0.608  0.7676 -0.6632 -0.0799
  223MOL0     C30686  -1.334   8.034   0.667 -0.5430  1.0763  0.5668
  223MOL0     N30687  -0.723   7.594   0.414 -0.1930 -0.2875 -0.3060
  223MOL0     N30688  -0.598   7.577   0.384 -0.3302 -0.4786  0.2778
  223MOL0     C30689   0.461   6.999   0.815 -0.1890  0.2094 -0.2692
  223MOL0     C30690   0.572   7.021   0.729  0.2463  0.0555  0.2547
  223MOL0     C30691   0.851   6.987   0.384 -0.1352  0.1777 -0.9349
  223MOL0     C30692   0.956   6.898   0.396 -0.1299 -0.2855 -0.2580
  223MOL0     C30693   1.073   6.906   0.319  0.0809  0.1393  0.2867
  223MOL0     C30694   1.081   7.008   0.224  0.6762  0.2896 -1.1284
  223MOL0     O30695   1.186   7.029   0.147 -0.6308 -0.1464  0.3451
  223MOL0     C30696   1.298   6.939   0.133  0.5056 -0.1502 -0.1442
  223MOL0     C30697   1.420   7.004   0.209  0.2657  0.0909  0.6028
  223MOL0     C30698   1.555   6.936   0.192  0.3603  0.0297 -0.1945
  223MOL0     C30699   1.607   6.889   0.049  0.3214 -0.3485 -0.1256
  223MOL0     C30700   1.552   6.756   0.010  0.0044 -0.5587  0.0008
  223MOL0     C30701   1.509   6.652  -0.013  0.2130  0.1875 -0.0374
  223MOL0     C30702   0.980   7.099   0.200 -0.5666 -0.8717 -0.2868
  223MOL0     C30703   0.868   7.091   0.285  0.1566  0.8460  0.2479
  223MOL0     C30704   0.760   7.185   0.259  0.5729  0.1285  0.5496
  223MOL0     H30705   0.418   7.110   0.442  0.8446 -0.7752 -0.6888
  223MOL0     H30706   0.221   7.072   0.572  0.6284  0.2037 -0.6214
  223MOL0     H30707   0.042   6.916   0.888  0.2729  1.9167  2.6375
  223MOL0     H30708   0.078   6.922   0.718 -4.3303  0.0174  0.7908
  223MOL0     H30709   0.021   7.162   0.906 -0.1765  2.4134 -1.5081
  223MOL0     H30710   0.097   7.190   0.751  0.4879  0.5057  0.1499
  223MOL0     H30711  -0.089   7.090   0.631  0.5725 -0.5059 -0.5519
  223MOL0     H30712  -0.169   7.048   0.786  0.2874  0.1838 -0.8602
  223MOL0     H30713  -0.202   7.278   0.813  1.1667 -0.4652  1.0540
  223MOL0     H30714  -0.106   7.318   0.665  2.1752 -1.8335 -0.2225
  223MOL0     H30715  -0.354   7.144   0.657  3.0517 -0.8192  0.2547
  223MOL0     H30716  -0.260   7.190   0.521 -1.7829  0.8929 -0.8370
  223MOL0     H30717  -0.485   7.320   0.576 -0.8052 -0.0917  2.8218
  223MOL0     H30718  -0.379   7.409   0.687 -0.8229 -2.4166  1.4226
  223MOL0     H30719  -0.353   7.379   0.393 -3.5260  2.0027 -1.0369
  223MOL0     H30720  -0.214   7.438   0.480 -0.5912 -0.8360 -1.6888
  223MOL0     H30721  -0.339   7.646   0.560 -0.1449  0.4635 -1.0819
  223MOL0     H30722  -0.331   7.637   0.386 -1.9137  3.4020  0.9239
  223MOL0     H30723  -0.577   7.649   0.696  0.4609 -0.8840 -0.9926
  223MOL0     H30724  -0.835   7.603   0.746  1.9241 -0.8720 -0.3405
  223MOL0     H30725  -0.930   7.567   0.599 -0.5511  0.3307  0.0445
  223MOL0     H30726  -0.816   7.851   0.645  0.1410  0.8309 -2.9929
  223MOL0     H30727  -0.907   7.797   0.521  2.1386  0.0206  0.3518
  223MOL0     H30728  -1.011   7.801   0.806  2.0303 -2.3654 -0.3597
  223MOL0     H30729  -1.051   7.922   0.675 -0.1083 -0.1897 -1.8761
  223MOL0     H30730  -1.157   7.741   0.528 -2.0678  0.3059 -1.0526
  223MOL0     H30731  -1.157   7.632   0.675  0.8566  1.0228  2.7645
  223MOL0     H30732  -1.306   7.838   0.397  0.2951  0.2716  0.3370
  223MOL0     H30733  -1.376   8.073   0.200  1.1612 -1.2520  0.1789
  223MOL0     H30734  -1.549   8.025   0.234 -0.6256 -3.2418 -1.8785
  223MOL0     H30735  -1.434   7.900   0.232 -3.2748 -0.7733  0.3377
  223MOL0     H30736  -1.550   8.303   0.135  4.7154 -0.8187 -0.2469
  223MOL0     H30737  -1.626   8.496  -0.027  0.0261  1.8455 -1.5624
  223MOL0     H30738  -1.691   8.797  -0.154  0.1943 -1.2397  0.0683
  223MOL0     H30739  -1.736   8.654  -0.073  2.2406 -1.1696  2.6340
  223MOL0     H30740  -1.872   8.864  -0.010 -0.9736 -0.7265 -0.4215
  223MOL0     H30741  -1.809   8.785   0.130  2.6455 -0.0323  0.4342
  223MOL0     H30742  -1.612   8.936   0.150  0.2614 -1.6460 -0.6569
  223MOL0     H30743  -1.765   9.013   0.172 -1.9137 -3.1804  0.2357
  223MOL0     H30744  -1.738   9.054  -0.108 -1.0978 -2.7148  0.6513
  223MOL0     H30745  -1.568   9.018  -0.065  0.0309 -1.5000  0.6880
  223MOL0     H30746  -1.557   9.197   0.084 -1.0458  3.1435 -0.0991
  223MOL0     H30747  -1.590   9.254  -0.073  1.1556  1.0330 -0.3518
  223MOL0     H30748  -1.721   9.384   0.079  0.6802 -0.5117  1.6710
  223MOL0     H30749  -1.785   9.238   0.149  1.4147 -0.0880  0.2718
  223MOL0     H30750  -1.959   9.344   0.014 -1.8794 -2.1433 -0.1241
  223MOL0     H30751  -1.933   9.178  -0.029  3.1432 -1.2083 -0.0995
  223MOL0     H30752  -1.778   9.247  -0.201  2.1325  1.7812  1.7715
  223MOL0     H30753  -1.833   9.414  -0.164 -2.6743  0.8985 -0.5172
  223MOL0     H30754  -1.415   8.775   0.241  2.0813  0.6995 -2.6241
  223MOL0     H30755  -1.347   8.568   0.373 -0.7886 -1.6978  0.7217
  223MOL0     H30756  -1.442   8.220   0.674 -3.0316 -1.8058 -0.9809
  223MOL0     H30757  -1.317   8.018   0.773  0.4850 -1.2657  0.1174
  223MOL0     H30758   0.484   6.984   0.920 -0.4980  3.3560  0.3413
  223MOL0     H30759   0.677   7.009   0.752  0.3360  1.5695  0.7193
  223MOL0     H30760   0.961   6.821   0.472 -2.8462 -0.3253 -0.0381
  223MOL0     H30761   1.153   6.834   0.330 -1.8024 -1.9704  0.7394
  223MOL0     H30762   1.279   6.835   0.163  1.0559  0.1798  1.4904
  223MOL0     H30763   1.329   6.935   0.029 -0.5871 -3.2957 -0.4557
  223MOL0     H30764   1.393   7.022   0.313 -2.7172 -0.2203 -0.0307
  223MOL0     H30765   1.432   7.103   0.162 -0.5398 -0.9938 -2.0708
  223MOL0     H30766   1.620   7.017   0.229 -0.6577  1.3230 -1.1412
  223MOL0     H30767   1.561   6.853   0.263 -1.9245  0.3145  0.4337
  223MOL0     H30768   1.714   6.867   0.044  0.0642 -1.4880 -1.1102
  223MOL0     H30769   1.578   6.967  -0.022 -1.3178 -0.5913  0.2385
  223MOL0     H30770   1.459   6.564  -0.047 -1.8788  0.8098  1.2318
  223MOL0     H30771   0.986   7.181   0.129 -2.1911 -0.3227  0.1768
  223MOL0     H30772   0.759   7.217   0.155  0.5051  1.1990  0.8734
  223MOL0     H30773   0.669   7.125   0.264  1.0290 -0.7065 -0.6730
  223MOL0     H30774   0.742   7.270   0.325 -2.5443  0.9110 -1.1115
  224MOL0     O30775   7.738  11.480   3.612  0.3444  0.2927  0.0498
  224MOL0     C30776   7.715  11.539   3.507  0.2720 -0.2697 -0.9143
  224MOL0     O30777   7.613  11.642   3.491  0.3328 -0.3261 -0.6259
  224MOL0     C30778   7.509  11.652   3.575 -0.2088  0.6930 -0.0439
  224MOL0     C30779   7.547  11.685   3.705 -0.3332  0.2390  0.8865
  224MOL0     C30780   7.453  11.681   3.815 -0.1407 -0.1603  0.2574
  224MOL0     C30781   7.320  11.661   3.782  0.8502  0.4793  0.2085
  224MOL0     O30782   7.225  11.624   3.872  1.0372 -0.3663  0.7810
  224MOL0     C30783   7.226  11.695   3.993 -0.7445  0.2166  0.6595
  224MOL0     C30784   7.089  11.691   4.052  1.1651 -0.8465 -0.1659
  224MOL0     C30785   6.996  11.790   3.984 -0.6097  0.3518  0.2139
  224MOL0     C30786   6.998  11.938   4.034  0.4917  0.4582  0.1530
  224MOL0     C30787   7.121  12.024   4.000  0.8625 -0.0099 -0.0261
  224MOL0     C30788   7.095  12.176   3.966 -0.3173  1.5865  0.1888
  224MOL0     C30789   6.999  12.255   4.053 -0.1078 -0.3798  0.1459
  224MOL0     C30790   7.033  12.278   4.200 -0.1722 -0.0090  0.4896
  224MOL0     N30791   6.936  12.367   4.269  0.0483 -0.4899 -0.4671
  224MOL0     C30792   6.804  12.339   4.287 -0.7025  0.7111 -0.4346
  224MOL0     C30793   6.752  12.447   4.349 -0.3561  0.3904  0.3605
  224MOL0     C30794   6.606  12.461   4.376  0.2323  0.3044 -0.2392
  224MOL0     C30795   6.585  12.615   4.343  0.9749 -0.2222  1.2422
  224MOL0     C30796   6.438  12.650   4.317 -0.5231 -0.0411 -0.3712
  224MOL0     C30797   6.354  12.619   4.446  0.0643  0.4312  0.3064
  224MOL0     O30798   6.247  12.710   4.449 -0.6028 -0.5275 -0.5688
  224MOL0     C30799   6.205  12.747   4.573 -0.4225 -0.0409 -0.4026
  224MOL0     C30800   6.279  12.808   4.679  0.1476  0.3939 -0.8553
  224MOL0     C30801   6.226  12.855   4.801  0.4303  0.1134  0.0132
  224MOL0     C30802   6.310  12.915   4.902 -0.5270  0.4412  0.3171
  224MOL0     C30803   6.083  12.849   4.822  0.0658 -1.1204 -1.0662
  224MOL0     C30804   6.009  12.898   4.951 -0.0464  0.3022  0.7278
  224MOL0     O30805   6.083  12.930   5.060 -0.1238 -0.8340 -0.0060
  224MOL0     C30806   6.027  12.977   5.169 -0.1255 -0.5417  0.5883
  224MOL0     C30807   6.054  13.110   5.198  0.0254 -0.5157  0.0032
  224MOL0     C30808   6.000  13.171   5.307 -0.7269 -0.0583 -1.2435
  224MOL0     C30809   5.910  13.096   5.395 -0.0511  0.8936 -0.0283
  224MOL0     O30810   5.862  13.150   5.504 -0.2053  0.2909 -0.2610
  224MOL0     C30811   5.749  13.236   5.474 -0.4536  0.6778 -0.2578
  224MOL0     C30812   5.633  13.166   5.545 -0.0927 -0.5468  0.0412
  224MOL0     C30813   5.607  13.209   5.686 -0.0556  0.2175 -0.4842
  224MOL0     C30814   5.474  13.172   5.743  0.1236  0.3295 -0.4006
  224MOL0     C30815   5.459  13.224   5.892 -0.4186  0.2455  0.2809
  224MOL0     C30816   5.315  13.217   5.942 -0.0053  0.0292 -0.2948
  224MOL0     C30817   5.257  13.068   5.945  0.4339  0.1033 -0.1729
  224MOL0     C30818   5.120  13.072   6.015  0.1295  0.3295 -0.3563
  224MOL0    Cl30819   5.040  12.913   6.009 -0.0635  0.6486  0.1484
  224MOL0     C30820   5.880  12.962   5.362  1.0177  0.6183 -0.0566
  224MOL0     C30821   5.938  12.902   5.250 -0.3370  0.5281 -0.1195
  224MOL0     O30822   5.890  12.897   4.935 -0.0949 -0.3249 -0.7701
  224MOL0     C30823   6.011  12.783   4.715  0.0839 -0.2463  0.1246
  224MOL0     C30824   6.068  12.729   4.602  0.3265 -0.7172  0.9306
  224MOL0     N30825   6.863  12.535   4.376  0.3806 -0.6699 -1.3030
  224MOL0     N30826   6.968  12.491   4.317 -0.9338  0.2097  0.5309
  224MOL0     C30827   7.281  11.638   3.643  0.1173  0.0625  0.4485
  224MOL0     C30828   7.375  11.629   3.548 -1.0758 -0.9046  0.2054
  224MOL0     C30829   7.775  11.494   3.385 -1.4206  0.3259  0.6622
  224MOL0     C30830   7.791  11.356   3.366 -0.4111 -0.2919  0.2825
  224MOL0     C30831   7.818  11.312   3.238 -0.7773  0.2548 -0.6573
  224MOL0     C30832   7.852  11.399   3.134  0.4719  0.6142  0.1727
  224MOL0     O30833   7.869  11.337   3.012  0.9990 -0.4026  0.1476
  224MOL0     C30834   7.965  11.389   2.916 -0.8940  0.9346 -0.1795
  224MOL0     C30835   8.107  11.329   2.920  0.1715 -0.3678  0.0195
  224MOL0     C30836   8.184  11.333   2.782 -0.2697 -0.1081  0.5117
  224MOL0     C30837   8.246  11.464   2.720 -0.5297  0.3394 -0.1645
  224MOL0     C30838   8.139  11.566   2.711 -0.2267  0.2478 -0.1639
  224MOL0     C30839   8.044  11.642   2.699 -0.6812  0.1337 -0.4323
  224MOL0     C30840   7.856  11.527   3.154  0.8769 -0.7635  0.3331
  224MOL0     C30841   7.810  11.579   3.277  0.5955 -0.5983 -0.3439
  224MOL0     C30842   7.823  11.728   3.285 -0.1489 -0.1850 -0.5807
  224MOL0     H30843   7.648  11.715   3.730 -0.8218  1.4395  1.5167
  224MOL0     H30844   7.499  11.685   3.913  0.9467 -3.1207 -0.0151
  224MOL0     H30845   7.262  11.798   3.985 -0.9131  0.3707  1.7590
  224MOL0     H30846   7.294  11.642   4.060 -0.3989 -0.6778 -0.3506
  224MOL0     H30847   7.053  11.588   4.049  0.5318 -0.6748  1.0287
  224MOL0     H30848   7.093  11.728   4.155  2.7285 -1.8560  0.1649
  224MOL0     H30849   7.026  11.791   3.879  2.2213  2.0072  0.9138
  224MOL0     H30850   6.895  11.749   3.987  0.4770 -2.8940 -2.1798
  224MOL0     H30851   6.910  11.987   3.993  0.2288  0.9143  1.2302
  224MOL0     H30852   6.975  11.940   4.141 -2.0820  1.5147 -0.3313
  224MOL0     H30853   7.162  11.988   3.905 -2.2040  0.6394 -1.7246
  224MOL0     H30854   7.192  12.017   4.083  0.9445 -5.2693 -0.2376
  224MOL0     H30855   7.189  12.232   3.964  1.4277 -1.1688  0.1701
  224MOL0     H30856   7.063  12.186   3.862  0.3301  1.2823 -0.0482
  224MOL0     H30857   6.902  12.204   4.055 -1.2250  1.5999  2.4986
  224MOL0     H30858   6.998  12.354   4.007 -1.2003 -2.0785 -3.8876
  224MOL0     H30859   7.039  12.185   4.257  2.3324 -0.0771  0.2010
  224MOL0     H30860   7.128  12.332   4.197 -1.6435  2.7181 -0.8983
  224MOL0     H30861   6.758  12.248   4.249  0.8784 -1.0132  1.4995
  224MOL0     H30862   6.590  12.423   4.477 -0.6685  2.3339  0.4198
  224MOL0     H30863   6.552  12.397   4.305  1.7732 -2.3024  0.8108
  224MOL0     H30864   6.626  12.666   4.430  1.7240 -0.7027  1.1760
  224MOL0     H30865   6.645  12.642   4.255  1.4782 -0.2205  1.5850
  224MOL0     H30866   6.437  12.756   4.291 -0.1588  0.2165  0.6081
  224MOL0     H30867   6.398  12.595   4.231 -0.0741  2.1857 -2.0906
  224MOL0     H30868   6.320  12.516   4.455  0.4619  0.1070 -1.5885
  224MOL0     H30869   6.415  12.638   4.536  4.5908  2.9814 -2.8777
  224MOL0     H30870   6.385  12.826   4.662 -0.0010  3.3409  0.5949
  224MOL0     H30871   6.311  12.856   4.995  2.7184  0.1888  0.2375
  224MOL0     H30872   6.280  13.018   4.925 -1.7456 -0.1452  1.4771
  224MOL0     H30873   6.415  12.910   4.871 -0.8822  2.7803 -1.5445
  224MOL0     H30874   6.129  13.158   5.137  0.8556 -2.7165 -0.8074
  224MOL0     H30875   6.009  13.278   5.324  2.0327 -0.0290 -2.4668
  224MOL0     H30876   5.752  13.336   5.518 -2.3129  0.1578  1.1715
  224MOL0     H30877   5.733  13.254   5.367  1.3988 -1.8896 -1.0759
  224MOL0     H30878   5.543  13.188   5.487 -0.2423 -0.3622  0.3422
  224MOL0     H30879   5.647  13.059   5.558  1.1210 -0.1618  2.5761
  224MOL0     H30880   5.621  13.315   5.706  3.0228 -0.6691  3.4316
  224MOL0     H30881   5.694  13.168   5.739  0.3882  2.0405  0.2824
  224MOL0     H30882   5.475  13.063   5.730 -0.6743  0.5620 -2.8929
  224MOL0     H30883   5.389  13.215   5.688 -2.8210  0.7283  3.9349
  224MOL0     H30884   5.519  13.155   5.952 -0.0185  0.5861  0.2797
  224MOL0     H30885   5.502  13.324   5.906  1.3752 -0.4371 -0.0586
  224MOL0     H30886   5.258  13.288   5.882 -1.6615 -2.6150 -2.0499
  224MOL0     H30887   5.319  13.254   6.045  0.2081 -1.7872  0.3865
  224MOL0     H30888   5.331  13.014   6.005  0.1129  0.3454  0.4532
  224MOL0     H30889   5.256  13.013   5.850  0.7208 -2.2344  1.0892
  224MOL0     H30890   5.059  13.147   5.962 -0.3164 -0.0157 -0.3423
  224MOL0     H30891   5.123  13.108   6.118 -0.4300 -1.5187  0.3369
  224MOL0     H30892   5.815  12.900   5.424 -0.9637 -0.5834 -3.1041
  224MOL0     H30893   5.920  12.800   5.220  0.5282  0.7741 -1.5942
  224MOL0     H30894   5.903  12.786   4.721  0.0535 -1.2302  0.2776
  224MOL0     H30895   6.009  12.680   4.525  2.8863 -0.7806 -1.1266
  224MOL0     H30896   7.181  11.610   3.609  0.6718 -0.2766 -0.9461
  224MOL0     H30897   7.348  11.603   3.446  0.6530 -1.3528 -0.1662
  224MOL0     H30898   7.773  11.273   3.433  0.2165 -0.3157  0.4257
  224MOL0     H30899   7.826  11.207   3.213  0.9978  0.3083 -0.3872
  224MOL0     H30900   7.923  11.368   2.817  0.5649 -0.5230 -0.5229
  224MOL0     H30901   7.977  11.496   2.936 -2.4731  0.6747  2.7632
  224MOL0     H30902   8.083  11.224   2.942  0.1538 -0.4761 -0.5027
  224MOL0     H30903   8.166  11.369   3.003  2.3140 -2.6588 -0.2785
  224MOL0     H30904   8.277  11.278   2.795  0.6938  1.1639 -0.7357
  224MOL0     H30905   8.126  11.286   2.702  1.1154  1.4304 -1.5083
  224MOL0     H30906   8.283  11.446   2.619  1.7538 -0.4857  0.7362
  224MOL0     H30907   8.320  11.508   2.788 -2.8388  1.3353  1.8650
  224MOL0     H30908   7.958  11.706   2.690 -0.6780  0.4110  1.1938
  224MOL0     H30909   7.882  11.596   3.074  0.1537 -0.3078  0.4762
  224MOL0     H30910   7.724  11.774   3.287 -0.3230 -0.5684  1.0322
  224MOL0     H30911   7.871  11.749   3.381  1.6195  0.0320 -1.4741
  224MOL0     H30912   7.880  11.777   3.206 -0.6004  0.1067 -0.7305
  225MOL0     O30913  10.970   4.045   0.302 -0.2707  0.2784 -0.5712
  225MOL0     C30914  10.951   4.136   0.383 -0.0405  0.1638  0.2879
  225MOL0     O30915  10.912   4.264   0.352 -0.5027  0.3751 -0.3384
  225MOL0     C30916  10.895   4.285   0.222  0.1931  0.0768  0.5039
  225MOL0     C30917  10.791   4.219   0.149  0.7611 -0.9609 -0.4296
  225MOL0     C30918  10.767   4.250   0.019  0.2130 -0.6017  0.8351
  225MOL0     C30919  10.849   4.340  -0.053  0.1008 -0.5434 -0.6603
  225MOL0     O30920  10.819   4.377  -0.185 -0.5194 -0.0958  0.0437
  225MOL0     C30921  10.703   4.313  -0.248 -0.3923  0.1387 -1.2324
  225MOL0     C30922  10.702   4.337  -0.401 -0.0392 -0.0052 -0.1918
  225MOL0     C30923  10.831   4.270  -0.465  1.1472 -0.9980 -0.7777
  225MOL0     C30924  10.834   4.309  -0.607  0.2017  0.5982 -0.0322
  225MOL0     C30925  10.955   4.269  -0.692  0.2930  0.4354  0.2884
  225MOL0     C30926  11.004   4.125  -0.680 -0.2351  0.5735 -0.2837
  225MOL0     C30927  10.903   4.020  -0.727  0.6492  0.1006 -0.4497
  225MOL0     C30928  10.877   4.038  -0.879 -0.3089 -0.0759  0.2016
  225MOL0     N30929  10.806   3.927  -0.944 -0.8870 -0.0826 -0.0513
  225MOL0     C30930  10.874   3.803  -0.968  0.6383  0.2199 -0.4314
  225MOL0     C30931  10.773   3.731  -1.030  0.3911  0.2652  0.2749
  225MOL0     C30932  10.775   3.593  -1.086 -0.5472 -0.0041 -1.3113
  225MOL0     C30933  10.796   3.600  -1.235  0.5987 -1.5037  0.3844
  225MOL0     C30934  10.864   3.473  -1.285 -0.4568 -0.6559  0.5194
  225MOL0     C30935  10.865   3.468  -1.440  0.1386  0.0422  0.0916
  225MOL0     O30936  10.969   3.386  -1.479  0.1091 -0.0905 -0.0538
  225MOL0     C30937  10.940   3.251  -1.506  0.0896  0.7422  0.5016
  225MOL0     C30938  10.823   3.183  -1.473  0.5838 -0.1959  0.2661
  225MOL0     C30939  10.802   3.044  -1.479 -0.2728  0.0760  0.4102
  225MOL0     C30940  10.657   2.994  -1.452 -0.1962 -0.9087 -0.4979
  225MOL0     C30941  10.914   2.966  -1.513  0.7573  0.0575 -0.3127
  225MOL0     C30942  10.923   2.812  -1.499  0.5855 -0.8051 -0.6960
  225MOL0     O30943  10.829   2.741  -1.575  0.6496  0.5020 -0.7349
  225MOL0     C30944  10.846   2.604  -1.559 -0.6894  0.2596 -0.5808
  225MOL0     C30945  10.776   2.543  -1.452  0.6956  0.1925  0.0084
  225MOL0     C30946  10.807   2.407  -1.420  0.3153 -1.6682  0.2840
  225MOL0     C30947  10.903   2.334  -1.490  0.1155 -0.5505 -1.3000
  225MOL0     O30948  10.924   2.212  -1.430 -0.4934 -0.9197 -0.2199
  225MOL0     C30949  10.994   2.108  -1.510  0.7894  0.1847 -0.3983
  225MOL0     C30950  11.082   2.022  -1.409  0.0128 -0.5328  0.2523
  225MOL0     C30951  11.209   2.094  -1.395 -0.7136 -0.2580  0.1260
  225MOL0     C30952  11.298   2.047  -1.268  0.6229  0.0784  0.6816
  225MOL0     C30953  11.388   2.152  -1.203  0.1463  0.7021  0.6646
  225MOL0     C30954  11.321   2.210  -1.077 -0.3609  0.1013 -0.3389
  225MOL0     C30955  11.423   2.294  -0.989  0.7813 -0.3663 -1.2723
  225MOL0     C30956  11.343   2.386  -0.897  0.2390  1.1238 -0.7761
  225MOL0    Cl30957  11.288   2.288  -0.749 -0.1323  0.3710 -0.0261
  225MOL0     C30958  10.969   2.395  -1.601 -0.4900 -0.0694 -1.0204
  225MOL0     C30959  10.927   2.524  -1.638 -0.2375 -0.0459 -0.3065
  225MOL0     O30960  10.997   2.766  -1.411 -0.3618  0.4453  0.0921
  225MOL0     C30961  11.036   3.031  -1.544  0.0640  0.5150 -0.0451
  225MOL0     C30962  11.045   3.170  -1.548 -0.5389 -0.0670 -0.0705
  225MOL0     N30963  10.663   3.817  -1.049  0.8524  0.2141  0.3763
  225MOL0     N30964  10.687   3.929  -1.003  0.5320 -0.2760  0.5720
  225MOL0     C30965  10.969   4.384   0.008  0.5556 -0.6106 -1.6125
  225MOL0     C30966  10.988   4.346   0.142 -0.1410 -0.2578  0.2038
  225MOL0     C30967  10.976   4.119   0.533 -0.9178  0.1299 -0.2943
  225MOL0     C30968  10.933   4.224   0.619  0.6195  0.4273  0.2356
  225MOL0     C30969  10.940   4.211   0.754  0.5661 -0.5923 -0.0314
  225MOL0     C30970  10.996   4.095   0.815  0.5820  0.7360 -0.8954
  225MOL0     O30971  11.014   4.060   0.947  0.2997 -0.7027  0.5651
  225MOL0     C30972  10.988   4.160   1.047 -0.3526 -0.8644 -0.6431
  225MOL0     C30973  10.955   4.080   1.164  0.2309  0.4576  0.6252
  225MOL0     C30974  10.963   4.152   1.294 -0.6062 -1.2234  0.2801
  225MOL0     C30975  10.870   4.269   1.308 -0.3160 -0.3665 -0.0237
  225MOL0     C30976  10.855   4.301   1.447  0.1818  0.6607  0.1200
  225MOL0     C30977  10.875   4.323   1.562  0.2408 -0.2898  0.5103
  225MOL0     C30978  11.041   3.992   0.737 -0.7522 -0.2146  0.4633
  225MOL0     C30979  11.036   4.013   0.595 -0.2821 -0.8557  0.0533
  225MOL0     C30980  11.078   3.883   0.533  1.1714 -0.9471 -0.1448
  225MOL0     H30981  10.712   4.152   0.182  1.1652 -2.7704 -2.9212
  225MOL0     H30982  10.685   4.197  -0.026 -0.3237 -2.2409  3.5229
  225MOL0     H30983  10.611   4.357  -0.210 -0.8412 -1.7702  0.0241
  225MOL0     H30984  10.694   4.205  -0.237  1.6354 -0.1090 -1.6102
  225MOL0     H30985  10.615   4.300  -0.456 -0.1536 -1.8622  1.1113
  225MOL0     H30986  10.717   4.445  -0.402 -0.4870  0.1908  3.0392
  225MOL0     H30987  10.921   4.304  -0.412  0.5842  0.7596 -0.8920
  225MOL0     H30988  10.828   4.160  -0.465 -1.0724 -0.9878 -0.1469
  225MOL0     H30989  10.740   4.272  -0.649  0.6032  2.7142 -3.0965
  225MOL0     H30990  10.816   4.416  -0.620  0.7196  0.5157 -1.6647
  225MOL0     H30991  11.038   4.325  -0.648  2.5257 -2.6387  0.3511
  225MOL0     H30992  10.941   4.312  -0.791 -1.1395  3.3347  1.6331
  225MOL0     H30993  11.099   4.108  -0.732 -0.4416 -3.5005  0.3865
  225MOL0     H30994  11.026   4.106  -0.574  0.7297  2.3122 -0.1263
  225MOL0     H30995  10.810   4.025  -0.670  0.4097  1.2698 -0.9390
  225MOL0     H30996  10.957   3.926  -0.713  0.5362  0.1116  0.0793
  225MOL0     H30997  10.810   4.121  -0.902  1.8939  1.8828  0.4863
  225MOL0     H30998  10.981   4.048  -0.912 -0.4852  0.0161 -0.3256
  225MOL0     H30999  10.973   3.771  -0.935  0.2760  1.4961  2.0931
  225MOL0     H31000  10.684   3.535  -1.066 -1.7109  2.1308  0.0211
  225MOL0     H31001  10.864   3.545  -1.044 -1.0073 -1.0537 -1.5227
  225MOL0     H31002  10.701   3.614  -1.287  1.3384 -0.2970 -0.7098
  225MOL0     H31003  10.856   3.685  -1.269 -0.5890 -1.1678 -0.9640
  225MOL0     H31004  10.968   3.480  -1.254 -0.6141  4.0990  0.6900
  225MOL0     H31005  10.814   3.386  -1.241 -3.5195  2.2475  3.2751
  225MOL0     H31006  10.765   3.438  -1.476  0.7708 -2.3598  0.1839
  225MOL0     H31007  10.886   3.565  -1.485  0.7182  0.5489  1.4156
  225MOL0     H31008  10.743   3.239  -1.428  0.0209 -1.5067  0.9504
  225MOL0     H31009  10.620   2.973  -1.553 -0.9033  1.3700 -0.7764
  225MOL0     H31010  10.587   3.069  -1.415 -2.0321 -1.4434 -2.6299
  225MOL0     H31011  10.653   2.901  -1.394  1.6471 -1.4213 -1.1280
  225MOL0     H31012  10.716   2.602  -1.383 -1.2084  0.8466 -2.0717
  225MOL0     H31013  10.752   2.367  -1.336 -5.3257  0.8520 -1.7318
  225MOL0     H31014  10.928   2.040  -1.563 -1.3004  2.0830 -0.4075
  225MOL0     H31015  11.043   2.159  -1.593 -2.1904  0.2255 -2.2881
  225MOL0     H31016  11.048   2.010  -1.306  4.2163 -0.2306  1.8692
  225MOL0     H31017  11.113   1.919  -1.430  0.1633 -1.3734  3.8896
  225MOL0     H31018  11.194   2.202  -1.388  1.3876  0.1135 -0.3313
  225MOL0     H31019  11.261   2.075  -1.489 -1.0263  0.9796 -0.3109
  225MOL0     H31020  11.365   1.971  -1.311  0.5264  0.4161 -0.0869
  225MOL0     H31021  11.240   1.989  -1.197  0.0991  0.1844  0.3432
  225MOL0     H31022  11.484   2.101  -1.185 -0.7301 -1.8750 -1.2910
  225MOL0     H31023  11.408   2.236  -1.270 -1.8365  0.5011 -0.2565
  225MOL0     H31024  11.270   2.130  -1.024 -0.8713  0.1394 -0.7577
  225MOL0     H31025  11.242   2.273  -1.120  0.9834  0.0169 -3.2114
  225MOL0     H31026  11.487   2.359  -1.049  0.4609 -0.2186 -1.4570
  225MOL0     H31027  11.488   2.229  -0.930  0.8782 -1.9807 -3.0528
  225MOL0     H31028  11.254   2.426  -0.947 -0.5627  1.5501  0.9207
  225MOL0     H31029  11.402   2.471  -0.861  0.4312  0.4710  0.4971
  225MOL0     H31030  11.055   2.361  -1.657  1.5489  1.9114  0.7261
  225MOL0     H31031  10.976   2.570  -1.723 -1.7756 -0.1529 -1.2929
  225MOL0     H31032  11.117   2.966  -1.577 -1.3717 -0.8251 -1.1077
  225MOL0     H31033  11.131   3.232  -1.570 -0.4386 -0.0898  0.2569
  225MOL0     H31034  11.055   4.435  -0.036  1.9691 -1.8869 -0.4541
  225MOL0     H31035  11.079   4.376   0.193  1.2539 -1.0126 -1.7313
  225MOL0     H31036  10.891   4.319   0.589 -0.6944 -0.4467 -0.8186
  225MOL0     H31037  10.914   4.293   0.819  1.4363 -1.6040  1.6544
  225MOL0     H31038  11.072   4.228   1.060 -1.4132  0.4881 -0.7115
  225MOL0     H31039  10.911   4.234   1.025  0.8166  0.0765 -1.6966
  225MOL0     H31040  11.016   3.989   1.165  0.9289  0.9127  2.1180
  225MOL0     H31041  10.852   4.043   1.157  0.4795 -0.0088 -0.9048
  225MOL0     H31042  10.958   4.092   1.385 -2.1143  1.7183  2.3243
  225MOL0     H31043  11.066   4.188   1.288 -1.4544  1.2798 -0.6587
  225MOL0     H31044  10.774   4.251   1.258  2.0848 -2.1579 -4.4676
  225MOL0     H31045  10.910   4.356   1.255  4.0414 -1.6924  0.7412
  225MOL0     H31046  10.885   4.336   1.668  0.4250  2.1518  0.2519
  225MOL0     H31047  11.072   3.896   0.776 -2.1734 -1.9223 -2.3024
  225MOL0     H31048  10.982   3.833   0.519 -0.1498  0.5368  2.8209
  225MOL0     H31049  11.120   3.892   0.433 -0.2929 -1.8482 -0.8784
  225MOL0     H31050  11.138   3.813   0.594  1.0199  0.3161  1.5161
  226MOL0     O31051   4.545   5.610   8.223 -0.1401 -0.1287  0.5260
  226MOL0     C31052   4.518   5.624   8.338  1.4298 -0.1228 -0.1346
  226MOL0     O31053   4.581   5.552   8.439 -0.1255  0.0550 -0.7500
  226MOL0     C31054   4.619   5.428   8.405 -0.4008 -0.7072  0.2287
  226MOL0     C31055   4.532   5.338   8.348 -0.1950  0.0532  1.4187
  226MOL0     C31056   4.574   5.208   8.342 -0.1319 -0.3478 -0.7294
  226MOL0     C31057   4.687   5.158   8.396 -0.9634 -0.1662 -0.7783
  226MOL0     O31058   4.714   5.018   8.396  0.1812 -0.3217  0.6821
  226MOL0     C31059   4.792   4.975   8.275 -0.3860  0.2268 -0.2122
  226MOL0     C31060   4.889   4.868   8.323 -0.6151 -0.5799  0.1589
  226MOL0     C31061   4.994   4.929   8.425 -0.2692  0.1514  0.9017
  226MOL0     C31062   5.080   4.836   8.496 -0.0631 -0.0107 -0.4982
  226MOL0     C31063   5.158   4.905   8.609  0.4133  0.0806 -0.3997
  226MOL0     C31064   5.069   4.961   8.724  0.2307  0.6424 -0.5385
  226MOL0     C31065   5.139   5.038   8.836  0.6671 -0.0184  0.4118
  226MOL0     C31066   5.194   5.177   8.795 -0.0233 -0.2083  0.7601
  226MOL0     N31067   5.340   5.171   8.743  0.3276  0.1514  0.1065
  226MOL0     C31068   5.445   5.192   8.833  0.6892 -0.4041 -0.0836
  226MOL0     C31069   5.555   5.177   8.753  0.2717 -0.6641 -0.8612
  226MOL0     C31070   5.697   5.178   8.808 -0.5967  0.5491 -0.3916
  226MOL0     C31071   5.723   5.087   8.931  0.1272 -0.2927 -0.0371
  226MOL0     C31072   5.747   4.941   8.897  0.1366 -0.0686  0.1115
  226MOL0     C31073   5.667   4.845   8.991  0.1909 -0.5441  0.1409
  226MOL0     O31074   5.733   4.844   9.115  0.5657  1.1324 -0.0938
  226MOL0     C31075   5.712   4.741   9.206 -0.9526 -0.0501  0.4991
  226MOL0     C31076   5.594   4.662   9.202 -0.6954 -0.2561 -0.6191
  226MOL0     C31077   5.566   4.571   9.299 -0.1456  1.1239  0.4456
  226MOL0     C31078   5.436   4.503   9.277  0.4639 -0.6423  0.0672
  226MOL0     C31079   5.661   4.556   9.406  0.1258 -0.0914 -0.3196
  226MOL0     C31080   5.632   4.472   9.533 -0.7991  0.4936  0.5359
  226MOL0     O31081   5.704   4.503   9.645  0.0351  0.5445  0.2396
  226MOL0     C31082   5.675   4.421   9.751 -0.8069 -0.0493 -0.3700
  226MOL0     C31083   5.574   4.461   9.841  0.2796  1.1666  0.5569
  226MOL0     C31084   5.533   4.388   9.953 -0.7956 -0.0740  0.9969
  226MOL0     C31085   5.593   4.259   9.975  0.4638 -0.6108  0.1226
  226MOL0     O31086   5.532   4.187  10.077 -1.0734 -0.5437 -0.2192
  226MOL0     C31087   5.548   4.046  10.072 -0.0938 -0.4908 -0.6222
  226MOL0     C31088   5.458   3.977  10.165 -0.1203  1.5831 -0.6317
  226MOL0     C31089   5.487   3.821  10.152 -0.5067  0.5583 -0.2356
  226MOL0     C31090   5.384   3.739  10.232 -0.2975 -0.1732  0.0839
  226MOL0     C31091   5.401   3.727  10.388  0.8125 -0.0146 -0.1269
  226MOL0     C31092   5.542   3.669  10.435 -0.2951 -0.1725 -0.3497
  226MOL0     C31093   5.538   3.658  10.588 -0.1302  0.0610  0.9957
  226MOL0     C31094   5.677   3.623  10.642  0.5489  0.0640  0.3340
  226MOL0    Cl31095   5.692   3.450  10.606  0.3026 -0.4374 -0.2359
  226MOL0     C31096   5.698   4.219   9.892 -1.3896 -0.2170 -0.8738
  226MOL0     C31097   5.744   4.303   9.785 -0.1289 -0.0128 -0.4882
  226MOL0     O31098   5.555   4.372   9.510 -0.8421  0.0853 -0.4714
  226MOL0     C31099   5.779   4.633   9.400  0.0966 -0.0436  0.7722
  226MOL0     C31100   5.804   4.721   9.301 -0.0775 -1.0369 -0.4702
  226MOL0     N31101   5.509   5.141   8.624 -1.3458  0.1934  0.2525
  226MOL0     N31102   5.385   5.147   8.616  0.4429 -0.3957  0.1163
  226MOL0     C31103   4.772   5.250   8.460 -0.3780  0.0757  0.4043
  226MOL0     C31104   4.739   5.386   8.459  0.5332 -0.5619  1.1577
  226MOL0     C31105   4.411   5.717   8.395 -0.0302 -0.4809  0.2002
  226MOL0     C31106   4.356   5.702   8.526 -0.7045  0.4804 -0.0424
  226MOL0     C31107   4.243   5.762   8.571  0.6113  0.4098  1.2074
  226MOL0     C31108   4.185   5.857   8.492  1.0096  0.5896 -0.4599
  226MOL0     O31109   4.070   5.903   8.542 -0.1531 -0.1769  0.3267
  226MOL0     C31110   3.993   5.995   8.469  0.8505 -0.3923  0.4512
  226MOL0     C31111   3.853   6.013   8.543 -0.7269 -0.1903 -0.1346
  226MOL0     C31112   3.745   6.053   8.457  0.8777  0.1484  0.1912
  226MOL0     C31113   3.778   6.182   8.379 -0.4288 -0.2403  0.0708
  226MOL0     C31114   3.867   6.165   8.266  0.1019  0.1742  0.1234
  226MOL0     C31115   3.950   6.147   8.182  0.5748  0.5336  0.3003
  226MOL0     C31116   4.232   5.890   8.361  0.1722 -0.4363  0.0323
  226MOL0     C31117   4.345   5.818   8.309  0.5840  0.4256 -0.1169
  226MOL0     C31118   4.381   5.837   8.162 -0.4635 -0.4716  0.1857
  226MOL0     H31119   4.442   5.370   8.297  0.7690 -1.6077 -1.5802
  226MOL0     H31120   4.519   5.132   8.287  2.3169 -0.6105 -3.0309
  226MOL0     H31121   4.855   5.059   8.247 -2.0441  1.4382 -0.4455
  226MOL0     H31122   4.733   4.936   8.191 -1.3464 -0.6393  0.8270
  226MOL0     H31123   4.839   4.780   8.364 -0.8488  0.3788  2.0598
  226MOL0     H31124   4.940   4.826   8.236 -0.5238 -3.1621  1.3725
  226MOL0     H31125   5.059   5.012   8.395 -0.3478 -0.0321  0.2318
  226MOL0     H31126   4.934   4.972   8.506  0.5081  2.7223  0.2183
  226MOL0     H31127   5.020   4.754   8.537 -1.3899  0.6250 -1.0818
  226MOL0     H31128   5.141   4.789   8.419 -1.0548 -1.0076 -0.7039
  226MOL0     H31129   5.240   4.965   8.568  0.1239 -0.3223 -1.5925
  226MOL0     H31130   5.220   4.829   8.658  2.0407  1.4538 -0.1959
  226MOL0     H31131   4.993   5.028   8.682 -0.4294 -1.6076 -3.1636
  226MOL0     H31132   5.018   4.871   8.759 -1.5245  1.4850 -0.7760
  226MOL0     H31133   5.218   4.976   8.880 -1.7966 -1.4100  3.1503
  226MOL0     H31134   5.078   5.059   8.924 -0.1943 -1.3430  0.1609
  226MOL0     H31135   5.132   5.227   8.720  3.9367  1.8784 -1.4740
  226MOL0     H31136   5.182   5.239   8.883  1.1274 -2.2956  2.4931
  226MOL0     H31137   5.442   5.212   8.940 -0.0226  0.6556 -0.2747
  226MOL0     H31138   5.718   5.278   8.847 -0.4429  0.0211  0.9401
  226MOL0     H31139   5.763   5.150   8.726  0.0063  0.0126  0.2740
  226MOL0     H31140   5.812   5.122   8.984  0.9826 -1.3451 -0.7333
  226MOL0     H31141   5.638   5.086   9.000 -0.2985 -1.2890 -0.5642
  226MOL0     H31142   5.721   4.920   8.793 -0.1547  4.4019 -0.8956
  226MOL0     H31143   5.854   4.919   8.906  0.0404  0.0972  2.5978
  226MOL0     H31144   5.562   4.874   9.003  1.2758  4.0763  0.2776
  226MOL0     H31145   5.678   4.751   8.936 -2.1645  0.8205 -2.9984
  226MOL0     H31146   5.525   4.658   9.119  0.9907 -2.3880 -2.0286
  226MOL0     H31147   5.392   4.506   9.177 -0.6083  0.0405  0.5389
  226MOL0     H31148   5.362   4.521   9.356  2.3390 -0.8892  1.9900
  226MOL0     H31149   5.453   4.395   9.283 -0.5883 -0.9151 -1.2508
  226MOL0     H31150   5.512   4.547   9.814 -1.2089  0.6254  2.0764
  226MOL0     H31151   5.455   4.432  10.013 -1.1294  0.7891 -0.0310
  226MOL0     H31152   5.510   4.009   9.976 -2.3893 -0.0702  0.0634
  226MOL0     H31153   5.652   4.027  10.098  0.3128  0.2087 -1.6509
  226MOL0     H31154   5.474   4.015  10.266 -0.9059 -1.9504  0.9800
  226MOL0     H31155   5.352   3.997  10.144 -0.2294  0.5905 -1.0724
  226MOL0     H31156   5.588   3.792  10.183 -0.9611  0.1957  0.9680
  226MOL0     H31157   5.471   3.794  10.047  0.1133 -1.5766  0.1715
  226MOL0     H31158   5.384   3.638  10.190  2.2490 -0.3675  0.3625
  226MOL0     H31159   5.287   3.782  10.209  0.4609  1.7262  0.2281
  226MOL0     H31160   5.379   3.824  10.432 -0.4121 -0.9208  1.3526
  226MOL0     H31161   5.333   3.660  10.442 -0.8652  1.4424 -0.3318
  226MOL0     H31162   5.625   3.736  10.408 -0.6162  0.3864  0.0448
  226MOL0     H31163   5.561   3.576  10.381 -1.3793 -1.0690  0.7713
  226MOL0     H31164   5.454   3.598  10.625 -0.9311 -0.2397 -1.2047
  226MOL0     H31165   5.513   3.755  10.634 -0.2588 -0.5532  2.2881
  226MOL0     H31166   5.686   3.654  10.747  2.8837  1.5308 -0.2058
  226MOL0     H31167   5.764   3.665  10.591  0.3824  0.3932  0.3215
  226MOL0     H31168   5.764   4.138   9.924  1.6505  2.3250 -0.1744
  226MOL0     H31169   5.836   4.279   9.732 -0.3714 -0.9530 -0.5080
  226MOL0     H31170   5.855   4.619   9.476  1.7978  0.4571 -0.7836
  226MOL0     H31171   5.902   4.767   9.294  0.0314 -0.3848  3.1339
  226MOL0     H31172   4.866   5.216   8.503  0.2260 -0.9519 -1.5852
  226MOL0     H31173   4.805   5.450   8.515  1.1672 -0.3012  0.1390
  226MOL0     H31174   4.406   5.629   8.587  2.0034  2.1394 -0.1388
  226MOL0     H31175   4.202   5.742   8.669  0.7988 -0.3435  1.1422
  226MOL0     H31176   4.047   6.088   8.450  2.8365 -1.4560  0.6920
  226MOL0     H31177   3.956   5.949   8.376  1.0089  1.2641 -0.4666
  226MOL0     H31178   3.874   6.086   8.621 -1.4343  0.1193 -0.2304
  226MOL0     H31179   3.825   5.912   8.576 -0.4130 -0.6972 -1.3588
  226MOL0     H31180   3.715   5.979   8.381 -0.4819 -0.1200  0.9495
  226MOL0     H31181   3.660   6.073   8.523  0.7575 -0.2948  0.1750
  226MOL0     H31182   3.804   6.248   8.462 -3.5678  1.3645 -0.0724
  226MOL0     H31183   3.686   6.221   8.336  0.6999 -0.3459 -2.6329
  226MOL0     H31184   4.017   6.109   8.107  0.6346 -1.8744  1.4673
  226MOL0     H31185   4.177   5.962   8.302  1.5171  2.1690  1.7611
  226MOL0     H31186   4.306   5.899   8.112 -0.4375  0.8328  1.6970
  226MOL0     H31187   4.484   5.870   8.143 -1.1098  0.0375 -3.0023
  226MOL0     H31188   4.366   5.738   8.117  1.8996 -1.6707  1.8141
  227MOL0     O31189   0.131  11.006   9.668  0.5136  0.0137  0.8715
  227MOL0     C31190   0.095  11.055   9.774  0.3698  0.5502 -0.1731
  227MOL0     O31191  -0.030  11.101   9.796 -0.6725 -0.3118  0.5571
  227MOL0     C31192  -0.099  11.141   9.678  1.0486  0.2352 -0.7508
  227MOL0     C31193  -0.228  11.086   9.668  0.1781 -0.6871  0.3580
  227MOL0     C31194  -0.302  11.121   9.554  0.2770  0.3462 -0.3143
  227MOL0     C31195  -0.261  11.215   9.458  0.0782  0.5869 -0.3944
  227MOL0     O31196  -0.354  11.255   9.361 -0.1914  0.4451  0.3150
  227MOL0     C31197  -0.328  11.379   9.293  0.7435  0.8505  0.4377
  227MOL0     C31198  -0.465  11.442   9.266  0.0255 -0.0309 -1.1110
  227MOL0     C31199  -0.516  11.534   9.371  0.1872  0.6660 -0.6088
  227MOL0     C31200  -0.654  11.584   9.358 -0.1220 -0.2696  0.7682
  227MOL0     C31201  -0.698  11.642   9.213 -0.3408  0.3280 -0.8507
  227MOL0     C31202  -0.767  11.525   9.144  0.6535 -0.1192  0.4559
  227MOL0     C31203  -0.788  11.552   9.007 -0.0003 -0.5395  0.8819
  227MOL0     C31204  -0.673  11.524   8.917 -0.1767 -0.1136  0.0521
  227MOL0     N31205  -0.635  11.383   8.886 -0.2311  0.6788  0.7740
  227MOL0     C31206  -0.510  11.335   8.853  0.4031  0.1937  1.1677
  227MOL0     C31207  -0.531  11.208   8.829 -1.5086 -0.2653  0.3346
  227MOL0     C31208  -0.414  11.126   8.772  0.1140 -0.5235  0.4459
  227MOL0     C31209  -0.294  11.122   8.872 -0.5977 -0.3167  0.4835
  227MOL0     C31210  -0.335  11.024   8.989 -0.1251  0.8888  0.0244
  227MOL0     C31211  -0.301  10.877   8.965  0.5261  0.1696  0.6691
  227MOL0     O31212  -0.157  10.861   8.949  0.2685  1.0391  0.4888
  227MOL0     C31213  -0.097  10.737   8.940  0.2533 -0.2359  0.5757
  227MOL0     C31214   0.039  10.736   8.912 -0.1400  0.7109 -0.5835
  227MOL0     C31215   0.118  10.624   8.941 -0.1474  0.1575  0.0223
  227MOL0     C31216   0.266  10.638   8.953 -0.5621  0.1225  0.1222
  227MOL0     C31217   0.048  10.499   8.969 -0.0624  0.3740 -0.0150
  227MOL0     C31218   0.119  10.365   8.986  0.5236  0.2041  0.6019
  227MOL0     O31219   0.231  10.338   8.903  0.9287 -0.6506 -0.2499
  227MOL0     C31220   0.303  10.220   8.905  0.9684  0.0147  0.6391
  227MOL0     C31221   0.431  10.214   8.855  0.0555 -0.4302 -0.4999
  227MOL0     C31222   0.509  10.103   8.837 -0.3783  0.5137 -0.7791
  227MOL0     C31223   0.447   9.979   8.864  0.0284 -0.0631 -0.0003
  227MOL0     O31224   0.513   9.863   8.849  0.3232 -0.0970  0.4303
  227MOL0     C31225   0.658   9.870   8.805  0.1545 -0.3842  0.2184
  227MOL0     C31226   0.759   9.904   8.910  0.1496  0.2446 -0.2257
  227MOL0     C31227   0.900   9.909   8.860 -0.6727 -0.0357 -0.5984
  227MOL0     C31228   1.005   9.903   8.976 -0.0967 -0.6099 -0.8469
  227MOL0     C31229   1.149   9.936   8.926 -0.3020 -1.8090  0.8711
  227MOL0     C31230   1.201   9.826   8.835 -1.1093 -0.9138  0.0541
  227MOL0     C31231   1.331   9.869   8.764  0.9757 -0.7103  0.1873
  227MOL0     C31232   1.353  10.022   8.732  0.2791  0.6246 -0.6257
  227MOL0    Cl31233   1.225  10.089   8.619 -0.4634  0.0133 -0.0809
  227MOL0     C31234   0.316   9.975   8.907 -0.3637 -0.0044 -0.6465
  227MOL0     C31235   0.248  10.101   8.928 -0.5606  0.3507  0.0952
  227MOL0     O31236   0.063  10.284   9.067 -0.3659  0.0085  0.1868
  227MOL0     C31237  -0.090  10.502   8.972 -0.5355 -0.2484 -0.3228
  227MOL0     C31238  -0.164  10.620   8.970  0.4447  0.5254  0.6216
  227MOL0     N31239  -0.657  11.168   8.871 -0.0191 -0.6764 -0.2555
  227MOL0     N31240  -0.714  11.276   8.911 -0.1644 -0.0847 -0.1713
  227MOL0     C31241  -0.126  11.245   9.461 -0.8120  0.2185  1.0926
  227MOL0     C31242  -0.043  11.210   9.572 -0.3516  0.3232 -0.6772
  227MOL0     C31243   0.178  11.043   9.905  0.6595  0.1082 -0.2483
  227MOL0     C31244   0.118  11.090  10.020 -0.2609 -0.5686 -0.4021
  227MOL0     C31245   0.163  11.083  10.152 -0.4617  0.6561 -0.0584
  227MOL0     C31246   0.292  11.021  10.170  0.4003 -1.0240 -1.2210
  227MOL0     O31247   0.340  11.016  10.300  0.2448 -0.0244 -0.0391
  227MOL0     C31248   0.281  11.072  10.422 -0.6051  0.2320  0.5106
  227MOL0     C31249   0.184  10.978  10.498  0.6237 -0.1011  0.4385
  227MOL0     C31250   0.208  10.963  10.645 -1.0817 -0.5075 -0.3103
  227MOL0     C31251   0.168  10.828  10.694 -0.2558 -0.4697 -0.2782
  227MOL0     C31252   0.250  10.773  10.811  0.7366 -0.8785 -0.1403
  227MOL0     C31253   0.307  10.723  10.901  0.4210 -0.5861  0.3243
  227MOL0     C31254   0.363  10.977  10.056 -0.0880  0.1031  0.4814
  227MOL0     C31255   0.308  10.982   9.928  0.3580  0.0031  0.1936
  227MOL0     C31256   0.386  10.904   9.823 -0.2862  0.0210 -0.5335
  227MOL0     H31257  -0.257  11.013   9.742  0.3137  0.0044  1.1065
  227MOL0     H31258  -0.400  11.079   9.533  0.3122 -0.0720  0.3197
  227MOL0     H31259  -0.281  11.358   9.197 -1.9199  0.0759 -0.7971
  227MOL0     H31260  -0.263  11.444   9.352  0.7513  1.3107 -0.0663
  227MOL0     H31261  -0.459  11.508   9.179 -6.2410 -0.5435 -2.4366
  227MOL0     H31262  -0.544  11.368   9.254 -1.3651  0.5065  3.0044
  227MOL0     H31263  -0.488  11.495   9.469  1.4019 -0.5157 -1.3836
  227MOL0     H31264  -0.458  11.625   9.351  1.4680 -0.0674 -0.3266
  227MOL0     H31265  -0.722  11.505   9.393  0.1675  0.7767  4.0659
  227MOL0     H31266  -0.669  11.664   9.431 -0.9308 -0.5051  0.8725
  227MOL0     H31267  -0.613  11.682   9.156 -0.4662 -0.5179 -1.6479
  227MOL0     H31268  -0.773  11.721   9.226 -2.3487 -1.6513  0.2315
  227MOL0     H31269  -0.716  11.428   9.152 -0.1293 -0.7477 -1.6191
  227MOL0     H31270  -0.869  11.512   9.181  0.5137  1.7423  0.8112
  227MOL0     H31271  -0.814  11.657   8.986 -3.2139 -0.8360  2.7465
  227MOL0     H31272  -0.878  11.502   8.972 -0.3642  0.6747 -0.0192
  227MOL0     H31273  -0.686  11.580   8.824  0.4499  0.3078  0.2064
  227MOL0     H31274  -0.589  11.569   8.972  0.1196  1.2646 -1.4444
  227MOL0     H31275  -0.431  11.408   8.840  0.1391  0.8097  2.8317
  227MOL0     H31276  -0.372  11.189   8.693  2.6909 -0.6092  1.6681
  227MOL0     H31277  -0.439  11.028   8.731 -2.3695  0.8605 -1.6513
  227MOL0     H31278  -0.203  11.087   8.821 -2.5561 -0.7530 -2.9912
  227MOL0     H31279  -0.279  11.227   8.900  1.1214 -0.4839  0.2894
  227MOL0     H31280  -0.297  11.053   9.087  1.9813 -1.6570  0.0821
  227MOL0     H31281  -0.443  11.030   9.000 -0.2331  0.9312 -0.9866
  227MOL0     H31282  -0.351  10.817   9.042 -2.8626  3.2446  1.1245
  227MOL0     H31283  -0.347  10.849   8.869  3.7121 -2.1371 -0.3646
  227MOL0     H31284   0.087  10.828   8.880 -1.5355  0.6818 -3.0232
  227MOL0     H31285   0.304  10.547   9.000 -0.2295  1.6779  3.0811
  227MOL0     H31286   0.302  10.726   9.006  0.4303  2.2707 -3.7543
  227MOL0     H31287   0.324  10.648   8.861  0.3786 -0.4851  0.6261
  227MOL0     H31288   0.470  10.310   8.823 -0.5948 -0.1247 -0.3806
  227MOL0     H31289   0.604  10.115   8.786 -0.1360 -0.1261 -0.4929
  227MOL0     H31290   0.677   9.767   8.772 -0.4557 -0.4204 -0.0440
  227MOL0     H31291   0.659   9.934   8.717 -2.2370 -0.5118  0.0260
  227MOL0     H31292   0.728   9.994   8.962  1.6915  1.8717 -1.9717
  227MOL0     H31293   0.757   9.831   8.991 -1.2853  0.3181 -0.1625
  227MOL0     H31294   0.904  10.006   8.810 -0.5130 -0.2175 -0.9403
  227MOL0     H31295   0.919   9.835   8.782 -0.2895 -0.2656 -0.2881
  227MOL0     H31296   1.003   9.806   9.026 -0.0102  1.7759  4.5260
  227MOL0     H31297   0.992   9.980   9.054  2.4702 -1.1007  0.1631
  227MOL0     H31298   1.143  10.029   8.870 -0.1162 -0.2077  3.3877
  227MOL0     H31299   1.213   9.956   9.012  0.6465  3.7290 -0.7742
  227MOL0     H31300   1.129   9.795   8.759  1.4959 -0.4863 -2.8348
  227MOL0     H31301   1.225   9.741   8.900 -0.7499 -1.6792 -1.0553
  227MOL0     H31302   1.341   9.818   8.668 -2.0864  1.5355 -1.4921
  227MOL0     H31303   1.411   9.834   8.830  1.5852 -1.6540 -0.9994
  227MOL0     H31304   1.445  10.033   8.675 -1.4242  0.8734 -3.4898
  227MOL0     H31305   1.370  10.066   8.831  3.6415 -4.2167  1.3524
  227MOL0     H31306   0.273   9.879   8.935 -1.3283  0.3654 -0.8167
  227MOL0     H31307   0.145  10.090   8.959 -0.4554  3.0246  1.6360
  227MOL0     H31308  -0.155  10.415   8.979 -0.1783 -0.6310 -1.5552
  227MOL0     H31309  -0.273  10.620   8.965  0.4547  2.8614 -2.0977
  227MOL0     H31310  -0.080  11.314   9.391  3.0519 -0.0613  3.0543
  227MOL0     H31311   0.061  11.236   9.553 -0.0695  0.4093  0.8910
  227MOL0     H31312   0.024  11.141  10.000 -1.4399 -2.4753  0.0622
  227MOL0     H31313   0.090  11.116  10.224 -1.5694  0.3913 -1.0175
  227MOL0     H31314   0.365  11.105  10.485 -1.8500  4.7319  0.1729
  227MOL0     H31315   0.245  11.172  10.394  3.5744  1.6854 -0.5085
  227MOL0     H31316   0.168  10.887  10.439 -2.9418  1.6931 -1.7162
  227MOL0     H31317   0.086  11.026  10.497 -0.9498 -2.9226  2.7038
  227MOL0     H31318   0.315  10.983  10.653 -0.9814 -0.0116 -2.2425
  227MOL0     H31319   0.154  11.039  10.701 -4.9322 -3.0964 -0.1543
  227MOL0     H31320   0.178  10.746  10.623  1.6163 -1.6049  1.1953
  227MOL0     H31321   0.062  10.835  10.721  0.2404 -0.0324  1.7404
  227MOL0     H31322   0.364  10.672  10.975  0.0761  0.6618  1.4879
  227MOL0     H31323   0.453  10.918  10.072 -0.8354 -1.0145  0.6667
  227MOL0     H31324   0.383  10.956   9.727 -2.0077  1.6747  0.3405
  227MOL0     H31325   0.490  10.903   9.857 -1.1724  1.0779  2.5100
  227MOL0     H31326   0.358  10.799   9.809 -0.9636 -0.1040  1.3985
  228MOL0     O31327   0.737   6.421   9.059 -0.4569  0.4307  0.4621
  228MOL0     C31328   0.805   6.521   9.035 -0.0619  0.0352  0.0486
  228MOL0     O31329   0.902   6.525   8.933 -0.0388 -0.6608 -0.2538
  228MOL0     C31330   0.902   6.426   8.839  0.2186  0.0926 -0.2845
  228MOL0     C31331   1.023   6.398   8.782  0.1978  0.6029 -0.5396
  228MOL0     C31332   1.048   6.307   8.678 -0.2984  1.0534 -0.1191
  228MOL0     C31333   0.934   6.231   8.635 -0.6292  0.2892  0.2158
  228MOL0     O31334   0.972   6.131   8.550  0.1392 -0.1042 -0.0661
  228MOL0     C31335   0.895   6.130   8.425  0.3406 -0.2261  0.8574
  228MOL0     C31336   0.950   6.036   8.322 -0.7590 -1.0165  0.1412
  228MOL0     C31337   0.937   5.887   8.365 -0.4334  0.1964 -0.3554
  228MOL0     C31338   0.791   5.836   8.392 -0.3421  0.5921  0.5464
  228MOL0     C31339   0.782   5.678   8.409  0.3649 -0.4831 -0.0373
  228MOL0     C31340   0.647   5.639   8.445  0.5768 -0.3389  0.2002
  228MOL0     C31341   0.573   5.602   8.318 -0.0017  0.4919 -0.7804
  228MOL0     C31342   0.423   5.560   8.347  0.9732  0.2510 -0.5827
  228MOL0     N31343   0.361   5.486   8.237  0.4185 -0.2866 -1.1198
  228MOL0     C31344   0.411   5.376   8.171  0.4206 -0.0941 -0.5142
  228MOL0     C31345   0.345   5.374   8.056 -0.3627  0.0007  0.3990
  228MOL0     C31346   0.351   5.274   7.947  0.2820 -0.0571  0.7050
  228MOL0     C31347   0.423   5.325   7.816  0.0100 -1.2253  0.2897
  228MOL0     C31348   0.328   5.426   7.729  0.6041 -0.1384 -0.5769
  228MOL0     C31349   0.400   5.456   7.594  0.5229 -0.0135  0.2203
  228MOL0     O31350   0.330   5.535   7.493  0.1892  0.4154  0.1597
  228MOL0     C31351   0.398   5.553   7.377  0.3633 -0.4693  0.4234
  228MOL0     C31352   0.453   5.671   7.351 -0.1980 -0.3412  0.1664
  228MOL0     C31353   0.528   5.691   7.232 -0.1626  0.1949  0.0141
  228MOL0     C31354   0.600   5.824   7.219  0.7572 -0.2679 -0.2018
  228MOL0     C31355   0.541   5.582   7.138  0.1736  0.3651 -0.3324
  228MOL0     C31356   0.622   5.587   7.012  0.0068 -0.2674  1.3560
  228MOL0     O31357   0.634   5.708   6.943  0.2489 -0.0598  0.1682
  228MOL0     C31358   0.737   5.733   6.855  0.7930  0.2745  0.2911
  228MOL0     C31359   0.718   5.797   6.730 -0.0173  1.0334  0.0512
  228MOL0     C31360   0.824   5.807   6.639  0.2439  1.0499  0.2104
  228MOL0     C31361   0.956   5.765   6.678  0.4387 -0.0438  0.7129
  228MOL0     O31362   1.052   5.751   6.584 -0.5946 -0.5460  0.0878
  228MOL0     C31363   1.086   5.867   6.505 -0.4752  0.6034  0.3759
  228MOL0     C31364   1.240   5.880   6.485  0.6946 -0.3380 -1.1890
  228MOL0     C31365   1.293   5.938   6.356  0.4308  0.7228 -0.6266
  228MOL0     C31366   1.230   6.072   6.310  0.3857  0.6131  0.6096
  228MOL0     C31367   1.285   6.108   6.172 -0.4309 -0.1662 -0.7285
  228MOL0     C31368   1.232   6.244   6.128 -0.2874 -0.7215 -0.0500
  228MOL0     C31369   1.256   6.275   5.980 -0.4246 -0.6773 -0.3439
  228MOL0     C31370   1.413   6.279   5.965  0.6727  0.9449 -0.1747
  228MOL0    Cl31371   1.453   6.338   5.805  0.0137 -0.6693  0.0587
  228MOL0     C31372   0.979   5.732   6.805  0.0861  0.4038 -1.1624
  228MOL0     C31373   0.867   5.707   6.890  0.8971 -0.2351 -0.4770
  228MOL0     O31374   0.662   5.475   6.966 -0.1225 -0.2920 -0.0802
  228MOL0     C31375   0.472   5.462   7.165  0.1022 -0.5840 -0.3849
  228MOL0     C31376   0.390   5.451   7.279 -0.5676  0.0819  0.1842
  228MOL0     N31377   0.247   5.473   8.053  0.1942  0.0861  0.2152
  228MOL0     N31378   0.260   5.537   8.159 -0.2340 -0.0574 -0.9718
  228MOL0     C31379   0.804   6.260   8.692 -0.5619  0.5740 -0.2677
  228MOL0     C31380   0.791   6.361   8.785 -0.3664  0.8437 -0.0014
  228MOL0     C31381   0.763   6.659   9.089 -0.0879 -0.4918  0.4396
  228MOL0     C31382   0.827   6.779   9.056  0.3949 -0.1404 -0.1283
  228MOL0     C31383   0.810   6.905   9.117  0.5157 -0.1631  0.2638
  228MOL0     C31384   0.700   6.927   9.198 -0.5282 -0.0380  0.4736
  228MOL0     O31385   0.697   7.053   9.263 -0.3699 -0.5362  0.1247
  228MOL0     C31386   0.678   7.059   9.405  0.0105  0.5587 -0.6413
  228MOL0     C31387   0.681   7.214   9.451  1.3048  0.2478 -0.1210
  228MOL0     C31388   0.816   7.277   9.427  0.2577 -0.3687  0.3926
  228MOL0     C31389   0.925   7.226   9.524  0.6468 -0.2511  0.1028
  228MOL0     C31390   1.006   7.124   9.450 -0.0292  0.6559  0.0172
  228MOL0     C31391   1.089   7.030   9.416 -0.3663  0.1802 -0.2818
  228MOL0     C31392   0.631   6.810   9.238  0.6498  0.1629  0.1335
  228MOL0     C31393   0.654   6.681   9.176  0.4066  0.0687 -0.4012
  228MOL0     C31394   0.567   6.575   9.231 -0.1859 -0.5834  0.4675
  228MOL0     H31395   1.109   6.451   8.822 -0.6730 -0.0077  2.3696
  228MOL0     H31396   1.147   6.297   8.635 -0.5767  0.7603 -0.7164
  228MOL0     H31397   0.906   6.229   8.380  2.5169 -0.5036  0.6446
  228MOL0     H31398   0.788   6.107   8.436  0.1091 -1.3734 -2.5495
  228MOL0     H31399   0.901   6.050   8.226 -2.4285 -1.8432  0.8344
  228MOL0     H31400   1.054   6.070   8.316 -0.2231 -2.7821 -4.0464
  228MOL0     H31401   0.990   5.821   8.296  1.0035 -2.2692  2.8030
  228MOL0     H31402   1.000   5.863   8.452  0.6177  0.5621 -0.9941
  228MOL0     H31403   0.747   5.875   8.485  1.3792 -3.6939  3.5355
  228MOL0     H31404   0.739   5.871   8.303  2.6056  2.3466 -0.5978
  228MOL0     H31405   0.855   5.641   8.481 -0.5639 -2.5156 -0.0799
  228MOL0     H31406   0.820   5.637   8.315 -0.7410 -0.9238 -0.3022
  228MOL0     H31407   0.653   5.556   8.516  4.0349  0.3126  0.8523
  228MOL0     H31408   0.605   5.727   8.495  3.0081  0.4313  1.0531
  228MOL0     H31409   0.626   5.517   8.275 -0.9625 -0.7305  0.3647
  228MOL0     H31410   0.571   5.678   8.239  0.1467 -0.5108 -1.7719
  228MOL0     H31411   0.430   5.501   8.439  0.8627 -0.8311 -1.2531
  228MOL0     H31412   0.363   5.649   8.366 -0.2725 -0.5283 -0.7639
  228MOL0     H31413   0.492   5.306   8.192  1.6733  1.9338  1.9388
  228MOL0     H31414   0.248   5.239   7.933  0.5504 -0.4897 -0.2094
  228MOL0     H31415   0.402   5.189   7.992 -0.2236 -1.6422 -1.5731
  228MOL0     H31416   0.520   5.370   7.839 -1.0182  1.7663 -0.7109
  228MOL0     H31417   0.451   5.244   7.748 -0.8562  2.1882 -4.7078
  228MOL0     H31418   0.246   5.365   7.689  0.9091 -0.7959 -0.2115
  228MOL0     H31419   0.290   5.508   7.791 -0.0317 -2.8847  3.0149
  228MOL0     H31420   0.493   5.511   7.608  1.5491 -1.0397 -2.0245
  228MOL0     H31421   0.429   5.359   7.554  0.3976 -0.3676  0.9602
  228MOL0     H31422   0.451   5.749   7.427 -2.7602 -2.4990  2.5426
  228MOL0     H31423   0.600   5.859   7.116  1.6360 -2.1852 -0.9028
  228MOL0     H31424   0.703   5.817   7.256  1.9567 -2.0466 -3.5156
  228MOL0     H31425   0.554   5.900   7.283  1.8827  1.0453 -0.9060
  228MOL0     H31426   0.617   5.824   6.701 -0.3612 -0.9943 -0.7733
  228MOL0     H31427   0.809   5.834   6.535  3.1402  0.7363 -0.3612
  228MOL0     H31428   1.029   5.845   6.415 -0.1455 -1.2996  0.6068
  228MOL0     H31429   1.064   5.966   6.547 -0.5387  0.4679  0.6680
  228MOL0     H31430   1.278   5.932   6.573 -3.2836  0.7559  0.1139
  228MOL0     H31431   1.277   5.779   6.505 -0.6255 -0.3531  1.7552
  228MOL0     H31432   1.291   5.868   6.272  0.3414 -0.2131  0.1404
  228MOL0     H31433   1.399   5.954   6.376  0.4597 -0.4365  0.2701
  228MOL0     H31434   1.266   6.145   6.383  3.1661  0.2473 -0.2768
  228MOL0     H31435   1.122   6.089   6.312  0.4253  1.2624 -1.0654
  228MOL0     H31436   1.395   6.108   6.180 -0.5171  0.9806  0.9678
  228MOL0     H31437   1.269   6.028   6.099  1.0204 -0.7552 -0.4400
  228MOL0     H31438   1.283   6.312   6.197 -0.9162  0.2626 -0.5268
  228MOL0     H31439   1.124   6.248   6.144 -1.0371 -2.0657 -3.7299
  228MOL0     H31440   1.211   6.375   5.983  4.8093  1.9506  1.6971
  228MOL0     H31441   1.216   6.199   5.912  0.0691  0.5077 -2.0253
  228MOL0     H31442   1.450   6.176   5.961 -1.2972  0.1295  0.9231
  228MOL0     H31443   1.462   6.331   6.047 -1.5263  2.6268  0.1599
  228MOL0     H31444   1.076   5.690   6.832 -0.4596  0.8344  1.7883
  228MOL0     H31445   0.883   5.669   6.991  3.1236 -1.7864 -1.3417
  228MOL0     H31446   0.458   5.382   7.093  2.3981  0.2492 -1.8533
  228MOL0     H31447   0.329   5.362   7.291 -0.7007  0.3212  1.3519
  228MOL0     H31448   0.717   6.203   8.662  1.3118 -2.4217 -0.4109
  228MOL0     H31449   0.692   6.380   8.824 -0.1756  1.9310  0.0094
  228MOL0     H31450   0.896   6.780   8.972  0.4706 -0.9524 -0.0841
  228MOL0     H31451   0.865   6.992   9.081 -2.8249  2.2755  0.5636
  228MOL0     H31452   0.589   7.011   9.445 -1.0368  2.0219 -1.1363
  228MOL0     H31453   0.768   7.007   9.440 -0.2175  0.3664 -0.3439
  228MOL0     H31454   0.652   7.219   9.556  2.3840 -0.8767  0.2482
  228MOL0     H31455   0.598   7.258   9.394  0.2793  0.4231  1.4395
  228MOL0     H31456   0.849   7.262   9.324  0.0583  0.5717  0.1843
  228MOL0     H31457   0.799   7.384   9.440  0.3799 -0.4088  0.8834
  228MOL0     H31458   0.885   7.184   9.617  2.6713 -2.8064 -0.0556
  228MOL0     H31459   0.994   7.308   9.543 -1.2142  1.5676 -0.5955
  228MOL0     H31460   1.153   6.949   9.389  0.2985  1.2423 -2.1057
  228MOL0     H31461   0.553   6.830   9.311  2.4987  0.1450  2.2038
  228MOL0     H31462   0.626   6.513   9.299  1.3075  3.1661  2.9018
  228MOL0     H31463   0.476   6.608   9.283 -0.5218 -2.0983  0.8811
  228MOL0     H31464   0.515   6.532   9.145 -0.6204  0.2137  0.3269
  229MOL0     O31465   5.928  11.457   6.878  0.4176  1.0213 -0.4933
  229MOL0     C31466   5.917  11.339   6.874 -0.5404 -0.7504  0.1725
  229MOL0     O31467   6.003  11.246   6.935  0.9702 -0.3271 -0.5616
  229MOL0     C31468   6.129  11.298   6.963 -0.5149 -0.5049  0.5246
  229MOL0     C31469   6.218  11.326   6.850 -0.0234  0.0478  0.3222
  229MOL0     C31470   6.349  11.330   6.879 -0.0698 -0.5546 -0.3431
  229MOL0     C31471   6.401  11.323   7.008  0.2421 -0.0982  0.8727
  229MOL0     O31472   6.537  11.355   7.015 -0.3368  0.3366  0.3547
  229MOL0     C31473   6.599  11.328   7.147 -0.2524  0.2240  0.2856
  229MOL0     C31474   6.752  11.351   7.131 -0.0667  0.1205  1.0129
  229MOL0     C31475   6.795  11.501   7.084  0.0124  0.2815  0.3904
  229MOL0     C31476   6.943  11.520   7.061 -0.2958  0.1768  0.1890
  229MOL0     C31477   6.991  11.661   7.021  0.0900  0.4885  0.1226
  229MOL0     C31478   7.135  11.686   7.032 -0.0207 -0.3442  0.1347
  229MOL0     C31479   7.178  11.832   7.007  0.9576  0.7109  0.0913
  229MOL0     C31480   7.159  11.907   7.135 -0.6244  0.3139  0.0974
  229MOL0     N31481   7.188  12.047   7.110  0.0691  0.8824  0.4176
  229MOL0     C31482   7.306  12.115   7.084 -0.4171  0.0235 -0.0140
  229MOL0     C31483   7.269  12.229   7.033 -0.4291 -0.6725  0.1489
  229MOL0     C31484   7.373  12.323   6.987 -0.8300 -0.0903  0.1245
  229MOL0     C31485   7.385  12.437   7.088 -0.1436  0.5107 -0.5213
  229MOL0     C31486   7.376  12.575   7.008 -0.3144  0.5266 -0.2568
  229MOL0     C31487   7.409  12.700   7.084 -0.3254  0.6682 -1.1422
  229MOL0     O31488   7.540  12.687   7.143 -0.0304 -0.6689 -0.1182
  229MOL0     C31489   7.555  12.760   7.266  0.2047  0.5940  0.2811
  229MOL0     C31490   7.627  12.699   7.369  0.8173  0.3765  1.0035
  229MOL0     C31491   7.683  12.780   7.466  1.0684 -0.0291  0.7521
  229MOL0     C31492   7.779  12.712   7.561 -0.3188  0.3827 -0.8370
  229MOL0     C31493   7.642  12.915   7.482  0.1768  0.7876 -0.1739
  229MOL0     C31494   7.672  13.013   7.596 -0.4694  0.6600 -1.5048
  229MOL0     O31495   7.729  13.126   7.585  0.7491  0.0405 -1.2027
  229MOL0     C31496   7.799  13.163   7.473 -0.1818 -0.7169 -0.4685
  229MOL0     C31497   7.928  13.118   7.446  0.4690 -1.3765 -0.2139
  229MOL0     C31498   7.999  13.164   7.335  0.1934  0.0823  0.7402
  229MOL0     C31499   7.931  13.246   7.248 -0.3024 -0.2597  0.4376
  229MOL0     O31500   8.006  13.296   7.145  0.1537  1.1821 -0.6853
  229MOL0     C31501   7.942  13.358   7.036 -0.1764  0.4367  1.1237
  229MOL0     C31502   8.041  13.370   6.925  0.0979 -0.6057  0.2364
  229MOL0     C31503   7.971  13.414   6.793  0.0135 -0.2310 -0.1393
  229MOL0     C31504   8.071  13.428   6.681 -0.9031 -0.6685  0.5951
  229MOL0     C31505   8.023  13.448   6.532 -0.4833 -0.5802  0.0904
  229MOL0     C31506   7.945  13.323   6.485 -1.2527  0.5172 -0.8676
  229MOL0     C31507   7.856  13.356   6.368  0.6312  0.5594  0.2173
  229MOL0     C31508   7.778  13.233   6.309 -0.8102 -0.5391  0.3201
  229MOL0    Cl31509   7.651  13.181   6.417 -0.0850  0.3113 -0.0603
  229MOL0     C31510   7.792  13.279   7.269 -0.1111  1.4325  0.4643
  229MOL0     C31511   7.722  13.235   7.380 -0.1449  0.6582 -0.6540
  229MOL0     O31512   7.649  12.965   7.708 -0.4285 -0.3925 -0.2593
  229MOL0     C31513   7.544  12.954   7.395 -0.1131 -0.5579  0.4083
  229MOL0     C31514   7.501  12.884   7.283 -0.3171  0.4270 -0.3253
  229MOL0     N31515   7.136  12.237   7.016 -0.9353  0.0608  0.0249
  229MOL0     N31516   7.093  12.129   7.061  0.1598 -0.5090 -0.3174
  229MOL0     C31517   6.317  11.304   7.115  0.6223 -0.9346  0.4630
  229MOL0     C31518   6.175  11.301   7.094  0.1116 -0.3804  0.6216
  229MOL0     C31519   5.792  11.292   6.813  0.2983 -0.9243  0.2184
  229MOL0     C31520   5.727  11.198   6.877  0.6147 -0.0578 -0.5996
  229MOL0     C31521   5.605  11.145   6.845  0.2385 -0.0326 -0.1339
  229MOL0     C31522   5.554  11.181   6.718  0.0831  0.6236 -0.4809
  229MOL0     O31523   5.435  11.142   6.675  1.0339  0.0881  0.3841
  229MOL0     C31524   5.397  11.006   6.694 -0.5393  0.4430 -0.0070
  229MOL0     C31525   5.287  10.992   6.791  0.4629  0.1573  0.4987
  229MOL0     C31526   5.157  11.044   6.722  0.9310 -0.6126  0.1927
  229MOL0     C31527   5.034  11.046   6.813 -0.1354  0.5511  0.1046
  229MOL0     C31528   4.913  11.064   6.736 -0.0841  0.8047  0.1946
  229MOL0     C31529   4.813  11.070   6.665 -0.7269  0.1740  0.2964
  229MOL0     C31530   5.621  11.282   6.650 -0.5453  0.1852 -0.5314
  229MOL0     C31531   5.745  11.336   6.688 -1.2865  0.5832 -0.6390
  229MOL0     C31532   5.811  11.426   6.597 -0.9089 -0.0673  0.3712
  229MOL0     H31533   6.190  11.321   6.745 -1.5781  0.6034  0.6786
  229MOL0     H31534   6.419  11.328   6.796 -1.6967 -2.2114 -1.7670
  229MOL0     H31535   6.587  11.225   7.182  0.7266 -0.1679 -0.4923
  229MOL0     H31536   6.570  11.394   7.229 -0.4506  2.0586 -1.2057
  229MOL0     H31537   6.806  11.330   7.223 -4.0680  0.1974  3.5922
  229MOL0     H31538   6.789  11.293   7.045 -2.3455  3.9189 -2.9795
  229MOL0     H31539   6.734  11.527   6.997 -1.3905  0.2185  1.3232
  229MOL0     H31540   6.767  11.565   7.169  2.5192 -2.6244  3.7411
  229MOL0     H31541   6.994  11.496   7.155 -1.6027 -0.6498  0.7138
  229MOL0     H31542   6.970  11.439   6.993 -1.0583 -1.6926  2.0036
  229MOL0     H31543   6.934  11.727   7.087 -0.9408  0.0946 -0.3489
  229MOL0     H31544   6.971  11.678   6.915  1.2717  0.0721 -0.1919
  229MOL0     H31545   7.177  11.652   7.127 -2.0612 -1.2777  0.7590
  229MOL0     H31546   7.188  11.622   6.961  1.3841 -0.2897  1.0967
  229MOL0     H31547   7.118  11.882   6.930  0.6679 -0.6351 -0.5895
  229MOL0     H31548   7.283  11.840   6.978  0.8537  0.1981 -0.4573
  229MOL0     H31549   7.059  11.884   7.175 -0.5217 -0.4185 -0.0458
  229MOL0     H31550   7.220  11.867   7.217 -1.1999  2.6788  1.7769
  229MOL0     H31551   7.410  12.095   7.110  0.4047  0.7039 -2.4948
  229MOL0     H31552   7.337  12.365   6.892 -1.3746  0.3087  0.5027
  229MOL0     H31553   7.474  12.283   6.975 -1.7989 -2.8388  0.2812
  229MOL0     H31554   7.304  12.423   7.160 -1.3410 -1.6584 -2.1619
  229MOL0     H31555   7.479  12.431   7.144 -0.0934  0.5009 -0.6062
  229MOL0     H31556   7.456  12.571   6.933 -0.6103  2.7651 -0.7584
  229MOL0     H31557   7.282  12.577   6.953 -0.1710 -0.4483 -0.5722
  229MOL0     H31558   7.402  12.784   7.014  0.2395  1.7737  0.0947
  229MOL0     H31559   7.328  12.712   7.156 -1.4369 -0.4720 -2.1576
  229MOL0     H31560   7.653  12.595   7.356  1.1907  0.2511  2.4839
  229MOL0     H31561   7.800  12.769   7.651  3.4274 -4.5598  1.9027
  229MOL0     H31562   7.875  12.685   7.515 -0.6500 -0.8826 -0.8342
  229MOL0     H31563   7.735  12.619   7.598 -1.5247  2.2606  2.8758
  229MOL0     H31564   7.968  13.051   7.522  0.7539  0.3360  1.2149
  229MOL0     H31565   8.107  13.162   7.325  0.3199 -2.1713  2.0807
  229MOL0     H31566   7.874  13.279   7.003  2.4709 -1.9708  1.0152
  229MOL0     H31567   7.904  13.460   7.051 -0.3668  0.5320  0.0568
  229MOL0     H31568   8.116  13.442   6.958  0.2453  0.3003 -1.8767
  229MOL0     H31569   8.097  13.275   6.923  1.4921  0.1790  0.6029
  229MOL0     H31570   7.913  13.505   6.812 -1.2872 -1.2637  1.1586
  229MOL0     H31571   7.895  13.340   6.765 -0.3957 -0.5337  1.6327
  229MOL0     H31572   8.144  13.347   6.689 -0.8482 -0.6350  0.4500
  229MOL0     H31573   8.131  13.517   6.703 -0.1914 -1.2970  1.2623
  229MOL0     H31574   7.972  13.543   6.511 -0.0953 -0.3123  0.3582
  229MOL0     H31575   8.119  13.451   6.479  0.5505 -1.3923  1.8588
  229MOL0     H31576   7.893  13.283   6.573 -1.0168  1.4456 -0.2928
  229MOL0     H31577   8.016  13.242   6.464  0.5536  0.6115  3.6101
  229MOL0     H31578   7.934  13.391   6.299  0.2505 -2.1955 -1.7777
  229MOL0     H31579   7.787  13.439   6.385  3.2390  2.4354  2.4709
  229MOL0     H31580   7.839  13.142   6.302  3.0301  1.7311  0.9354
  229MOL0     H31581   7.736  13.254   6.211  0.5505  0.5190 -0.0682
  229MOL0     H31582   7.739  13.334   7.192 -0.2312 -0.0713 -0.5711
  229MOL0     H31583   7.624  13.277   7.397  0.5320  1.8643  0.4635
  229MOL0     H31584   7.488  13.047   7.403 -1.0485 -0.9876 -0.8665
  229MOL0     H31585   7.455  12.941   7.203  2.7309  0.2690 -2.3440
  229MOL0     H31586   6.348  11.300   7.219 -2.2005  0.7258  1.4954
  229MOL0     H31587   6.101  11.299   7.173  2.5485 -1.4315  3.0168
  229MOL0     H31588   5.753  11.147   6.969 -3.9191  1.1529  1.6793
  229MOL0     H31589   5.558  11.073   6.911  1.7886  0.4467  1.5539
  229MOL0     H31590   5.374  10.965   6.596  0.5102 -1.3042  0.4357
  229MOL0     H31591   5.479  10.942   6.728 -1.7713 -1.5436 -0.6169
  229MOL0     H31592   5.298  11.054   6.880  0.5209 -0.3561  0.8508
  229MOL0     H31593   5.261  10.891   6.823 -1.7944 -0.8982 -3.9094
  229MOL0     H31594   5.173  11.148   6.691  2.7316 -0.7992  0.3712
  229MOL0     H31595   5.133  10.992   6.629 -0.3760  1.7508 -0.8806
  229MOL0     H31596   5.046  11.134   6.877  3.0390 -1.3774  2.4723
  229MOL0     H31597   5.028  10.953   6.872  2.6362  0.6752  0.7333
  229MOL0     H31598   4.729  11.064   6.597 -1.5062  2.9235  0.8887
  229MOL0     H31599   5.579  11.319   6.558 -2.4987 -0.1478  0.1716
  229MOL0     H31600   5.742  11.494   6.547 -2.6241 -1.6131  0.5347
  229MOL0     H31601   5.887  11.487   6.646  2.7734 -4.1401  0.3304
  229MOL0     H31602   5.856  11.360   6.522  1.2299 -0.4278  1.8980
  230MOL0     O31603   2.752   8.848   5.110 -0.2298 -0.1225  0.7904
  230MOL0     C31604   2.808   8.893   5.207  0.1557 -0.3115  0.7160
  230MOL0     O31605   2.742   8.938   5.313 -0.2034 -0.7676 -0.2141
  230MOL0     C31606   2.616   8.888   5.325 -0.5447 -0.0241  0.5598
  230MOL0     C31607   2.505   8.957   5.280 -0.8002  0.3090  0.0594
  230MOL0     C31608   2.376   8.921   5.318  0.6555 -1.3683  0.4611
  230MOL0     C31609   2.362   8.813   5.403  0.3674 -0.6869  0.3406
  230MOL0     O31610   2.244   8.774   5.454 -0.4342  0.1399 -0.3572
  230MOL0     C31611   2.129   8.857   5.434 -0.2888 -0.8000 -0.1164
  230MOL0     C31612   2.020   8.805   5.526  0.5145  0.6378 -1.2173
  230MOL0     C31613   1.974   8.662   5.473 -0.9654  0.1366 -0.5693
  230MOL0     C31614   1.826   8.645   5.503 -0.7980  0.1692  0.3619
  230MOL0     C31615   1.769   8.501   5.487 -0.7937  0.0181  1.1532
  230MOL0     C31616   1.805   8.438   5.354  0.2642 -0.0507 -0.4253
  230MOL0     C31617   1.767   8.523   5.228 -0.5042  0.2673 -0.5255
  230MOL0     C31618   1.765   8.450   5.095  0.3835 -0.6059  0.4268
  230MOL0     N31619   1.749   8.547   4.981 -0.3194 -0.3262  0.3151
  230MOL0     C31620   1.738   8.504   4.856  0.3442 -0.1082  0.0007
  230MOL0     C31621   1.699   8.616   4.782  0.0814 -0.2708 -0.2598
  230MOL0     C31622   1.689   8.603   4.630 -0.4270 -0.2104 -0.9892
  230MOL0     C31623   1.551   8.657   4.575  0.5182 -0.3308 -0.2072
  230MOL0     C31624   1.442   8.545   4.594 -1.3009  0.2561  1.0628
  230MOL0     C31625   1.307   8.558   4.527 -0.7867 -0.3442 -0.6690
  230MOL0     O31626   1.323   8.602   4.389 -0.0742  1.0721 -0.1073
  230MOL0     C31627   1.236   8.689   4.338 -1.0197  0.1368  0.0669
  230MOL0     C31628   1.272   8.771   4.228  0.5910 -0.2355 -0.3880
  230MOL0     C31629   1.192   8.871   4.171  0.3180 -0.2980 -0.2486
  230MOL0     C31630   1.256   8.934   4.056  0.3204 -0.1898 -0.2711
  230MOL0     C31631   1.056   8.889   4.219 -0.6009 -0.2515  0.1206
  230MOL0     C31632   0.966   8.995   4.173 -0.2551 -0.5721 -0.2530
  230MOL0     O31633   0.850   9.004   4.247 -0.9068  0.5402 -0.0412
  230MOL0     C31634   0.737   9.076   4.221 -0.9611  0.8059  0.6263
  230MOL0     C31635   0.640   9.081   4.320 -0.4584  0.5228 -0.3974
  230MOL0     C31636   0.515   9.144   4.294  0.0542 -0.2239 -0.2877
  230MOL0     C31637   0.489   9.212   4.175 -0.1096 -0.0313 -0.7040
  230MOL0     O31638   0.366   9.276   4.167 -0.0211  0.3054 -0.3805
  230MOL0     C31639   0.320   9.349   4.050  0.4908  0.8187 -0.4595
  230MOL0     C31640   0.188   9.409   4.100 -0.4600  0.2783  0.8174
  230MOL0     C31641   0.091   9.450   3.988 -0.4412 -0.0749 -0.4334
  230MOL0     C31642   0.134   9.575   3.918 -0.0792  0.2510 -0.0936
  230MOL0     C31643   0.151   9.695   4.005  0.3677 -0.5709 -0.7616
  230MOL0     C31644   0.189   9.832   3.930 -0.5292 -0.1427 -0.5851
  230MOL0     C31645   0.070   9.879   3.845 -0.6857 -0.9902 -0.7475
  230MOL0     C31646   0.088  10.023   3.784  0.2140 -0.5210  0.0012
  230MOL0    Cl31647  -0.021  10.043   3.649  0.2529 -0.1476  0.3268
  230MOL0     C31648   0.593   9.221   4.082 -0.3069 -0.5643  0.0912
  230MOL0     C31649   0.715   9.150   4.103  0.1560 -0.2164 -1.7533
  230MOL0     O31650   1.012   9.087   4.105  0.3149 -0.6916 -0.0194
  230MOL0     C31651   1.018   8.787   4.312 -0.3144 -0.4057  0.0689
  230MOL0     C31652   1.102   8.699   4.374 -1.0676 -0.5610 -0.7487
  230MOL0     N31653   1.698   8.723   4.864 -0.1602  0.3999  0.3296
  230MOL0     N31654   1.715   8.675   4.984  0.5374 -0.3679  0.7206
  230MOL0     C31655   2.474   8.742   5.450  0.1131  1.1057  0.6540
  230MOL0     C31656   2.600   8.773   5.405  0.6299  0.3076  0.0110
  230MOL0     C31657   2.958   8.915   5.206  0.2109  0.1667  0.7979
  230MOL0     C31658   3.005   8.981   5.321  0.3758 -0.6186  0.3060
  230MOL0     C31659   3.131   9.010   5.360 -0.1690  0.1929  0.4714
  230MOL0     C31660   3.227   8.980   5.267 -0.3426 -0.5614 -0.0459
  230MOL0     O31661   3.363   9.016   5.273  0.3899 -0.1595  0.1353
  230MOL0     C31662   3.394   9.113   5.370 -1.7793 -1.2371 -0.0049
  230MOL0     C31663   3.436   9.044   5.492 -0.5915  0.1983 -0.8453
  230MOL0     C31664   3.505   9.105   5.605 -0.2799  0.1759 -0.6028
  230MOL0     C31665   3.490   9.264   5.629  0.0324  0.4512  0.1472
  230MOL0     C31666   3.598   9.329   5.710  0.1620 -0.7789  0.2918
  230MOL0     C31667   3.686   9.392   5.767  1.0027  0.7760 -0.4528
  230MOL0     C31668   3.189   8.922   5.142 -0.8980  0.4758 -1.0274
  230MOL0     C31669   3.058   8.888   5.105 -0.2581 -0.3614  1.1119
  230MOL0     C31670   3.033   8.819   4.975 -0.9164  0.1260  0.0507
  230MOL0     H31671   2.527   9.043   5.217  2.4764 -1.6626 -1.7523
  230MOL0     H31672   2.296   8.980   5.276  2.6147  2.2571  1.4093
  230MOL0     H31673   2.082   8.855   5.334 -0.3963  1.3025 -0.1517
  230MOL0     H31674   2.147   8.961   5.461  0.9929 -1.0889  0.2049
  230MOL0     H31675   2.047   8.784   5.630 -2.1288 -4.3000 -1.2664
  230MOL0     H31676   1.937   8.876   5.516  1.2674  1.2958 -3.2277
  230MOL0     H31677   1.998   8.657   5.366  3.2158 -2.2737  0.2647
  230MOL0     H31678   2.034   8.586   5.524 -1.8851 -0.3551 -0.1962
  230MOL0     H31679   1.810   8.690   5.601  0.6821 -0.6963  1.0408
  230MOL0     H31680   1.771   8.708   5.433  0.1693  0.9056  0.2389
  230MOL0     H31681   1.662   8.504   5.507 -0.8084  0.6428  1.0144
  230MOL0     H31682   1.818   8.430   5.555 -0.3659  0.4470  1.3031
  230MOL0     H31683   1.912   8.415   5.349  0.7547  1.6140  1.1057
  230MOL0     H31684   1.747   8.346   5.359 -2.0495  1.2667 -1.3025
  230MOL0     H31685   1.840   8.603   5.210  0.0770  0.5790  2.6976
  230MOL0     H31686   1.673   8.574   5.250 -1.5577 -0.9373 -1.9627
  230MOL0     H31687   1.856   8.391   5.078 -0.4067 -2.2782  1.6831
  230MOL0     H31688   1.684   8.376   5.093 -1.6843  1.5397 -0.6033
  230MOL0     H31689   1.749   8.399   4.830  1.1396 -0.4394  1.5862
  230MOL0     H31690   1.713   8.501   4.598 -0.5934 -1.0080  1.2257
  230MOL0     H31691   1.776   8.663   4.601  0.7973 -0.9192  1.0071
  230MOL0     H31692   1.519   8.749   4.625 -2.1590 -1.7660  0.9626
  230MOL0     H31693   1.566   8.678   4.469 -1.2284 -1.8110 -0.7915
  230MOL0     H31694   1.485   8.456   4.548 -2.3687  1.1724 -1.9844
  230MOL0     H31695   1.422   8.541   4.701 -0.5229 -0.4320  1.1896
  230MOL0     H31696   1.249   8.465   4.529 -1.4320  0.0403 -1.0383
  230MOL0     H31697   1.245   8.627   4.585  2.2932  2.1552 -0.1137
  230MOL0     H31698   1.375   8.761   4.195  1.1448  0.1626  1.1117
  230MOL0     H31699   1.283   9.030   4.101 -3.4223  1.4198 -1.1158
  230MOL0     H31700   1.183   8.956   3.977  1.7407  0.5407 -1.4445
  230MOL0     H31701   1.334   8.875   4.007  0.6198 -1.1711  1.3439
  230MOL0     H31702   0.648   9.041   4.421  0.1216 -0.5516 -0.8493
  230MOL0     H31703   0.438   9.142   4.370  1.1357  0.9109  0.8897
  230MOL0     H31704   0.398   9.418   4.017  1.6902  0.0947  0.7142
  230MOL0     H31705   0.297   9.290   3.961 -4.0710  3.4167 -1.2801
  230MOL0     H31706   0.133   9.336   4.160 -0.6167  0.2871  0.6822
  230MOL0     H31707   0.215   9.489   4.171  1.7999 -2.4956  3.3804
  230MOL0     H31708  -0.008   9.476   4.028 -0.6997  1.0197 -1.7320
  230MOL0     H31709   0.072   9.378   3.908 -1.5227 -0.4516  0.1316
  230MOL0     H31710   0.049   9.589   3.851  0.1260 -0.2292 -0.4613
  230MOL0     H31711   0.229   9.564   3.866  0.6804 -2.3356  1.6399
  230MOL0     H31712   0.065   9.710   4.071  2.5519 -0.2264  2.1932
  230MOL0     H31713   0.229   9.686   4.080 -2.5049  1.4757  2.7975
  230MOL0     H31714   0.279   9.810   3.873 -1.1309 -1.0454 -1.2073
  230MOL0     H31715   0.202   9.914   4.002 -0.9701 -2.3771  2.2262
  230MOL0     H31716  -0.018   9.874   3.909 -0.4378 -0.6707 -0.3778
  230MOL0     H31717   0.072   9.802   3.768  2.8743 -1.0289 -0.8089
  230MOL0     H31718   0.188  10.030   3.741 -0.5675  0.4936 -1.7243
  230MOL0     H31719   0.065  10.102   3.856  2.6779  1.7250 -1.4698
  230MOL0     H31720   0.568   9.277   3.992  0.4816 -1.1303 -0.4907
  230MOL0     H31721   0.796   9.163   4.032  1.1411  3.3604 -0.2455
  230MOL0     H31722   0.913   8.782   4.338 -0.2758 -0.5087  0.2053
  230MOL0     H31723   1.045   8.651   4.453 -2.2496  0.7928 -0.7177
  230MOL0     H31724   2.475   8.653   5.512 -2.5221  0.6946  0.2331
  230MOL0     H31725   2.684   8.707   5.423  1.0791  0.4422 -1.4479
  230MOL0     H31726   2.935   9.006   5.401 -0.5698 -0.4369 -0.5537
  230MOL0     H31727   3.149   9.054   5.457  0.4517  1.8361 -0.3571
  230MOL0     H31728   3.481   9.161   5.324 -3.5203  0.7511 -1.4398
  230MOL0     H31729   3.323   9.194   5.392  0.0521  0.8002 -1.1156
  230MOL0     H31730   3.490   8.953   5.463 -3.5259 -1.5037 -1.3458
  230MOL0     H31731   3.345   8.996   5.530 -0.9059 -0.8396 -2.7701
  230MOL0     H31732   3.480   9.051   5.696 -1.0940  0.3793 -0.6938
  230MOL0     H31733   3.612   9.082   5.599 -0.4105 -0.1509 -2.8218
  230MOL0     H31734   3.388   9.288   5.662 -1.1773 -1.8655 -1.5860
  230MOL0     H31735   3.484   9.309   5.529 -0.0316 -1.7702 -0.8946
  230MOL0     H31736   3.753   9.449   5.828  0.3383 -0.1563  1.1903
  230MOL0     H31737   3.271   8.898   5.074 -0.6817 -2.5886  0.1283
  230MOL0     H31738   2.928   8.816   4.945 -0.2182 -1.3121 -2.5324
  230MOL0     H31739   3.093   8.859   4.893 -1.2700 -1.3914 -0.9767
  230MOL0     H31740   3.080   8.723   4.998 -1.8126  0.1069  2.0057
  231MOL0     O31741   5.473   9.253   0.190  0.0310  0.3577  0.0357
  231MOL0     C31742   5.510   9.283   0.305 -0.1904  0.9134  0.2880
  231MOL0     O31743   5.439   9.254   0.421  0.4477 -0.1160 -0.0558
  231MOL0     C31744   5.302   9.264   0.428 -0.0763 -0.9591  0.6005
  231MOL0     C31745   5.202   9.270   0.326  0.3592 -0.6190  0.5924
  231MOL0     C31746   5.071   9.275   0.360  0.3429  0.2382  0.0895
  231MOL0     C31747   5.028   9.291   0.491 -0.6909 -0.6312  0.7123
  231MOL0     O31748   4.895   9.311   0.514  0.4564 -0.0946 -0.5363
  231MOL0     C31749   4.860   9.327   0.653 -0.4565 -0.4237 -0.7081
  231MOL0     C31750   4.705   9.347   0.657  0.4781  0.1249 -0.4144
  231MOL0     C31751   4.616   9.222   0.662  0.1581 -0.3762 -0.4569
  231MOL0     C31752   4.468   9.269   0.651 -0.2058 -0.0413 -0.3086
  231MOL0     C31753   4.363   9.174   0.594  0.0839 -0.3120 -0.9184
  231MOL0     C31754   4.394   9.113   0.463 -0.5142 -0.3401 -0.5706
  231MOL0     C31755   4.265   9.048   0.392  0.3458 -0.4339  0.2086
  231MOL0     C31756   4.223   8.910   0.449 -0.3773 -0.0842 -0.7284
  231MOL0     N31757   4.319   8.806   0.434  0.3584  0.4413 -0.3220
  231MOL0     C31758   4.327   8.706   0.339  0.5605 -0.3230  0.5535
  231MOL0     C31759   4.452   8.652   0.350  0.5570 -0.5734  0.6901
  231MOL0     C31760   4.500   8.549   0.257  0.3694  0.3294 -0.0395
  231MOL0     C31761   4.631   8.466   0.303  0.6912 -1.1128 -0.0902
  231MOL0     C31762   4.678   8.375   0.180  0.0843  0.3442 -0.2210
  231MOL0     C31763   4.804   8.295   0.219 -0.1307 -0.6078  0.3693
  231MOL0     O31764   4.905   8.361   0.285 -0.2483  0.1697 -0.5591
  231MOL0     C31765   5.001   8.287   0.348  0.7207  1.1618 -0.0606
  231MOL0     C31766   5.087   8.352   0.431 -0.7461 -0.0715  0.4032
  231MOL0     C31767   5.176   8.288   0.512  0.1617  0.8275 -0.0536
  231MOL0     C31768   5.276   8.387   0.572  0.1335  0.2295 -0.5589
  231MOL0     C31769   5.199   8.153   0.511 -0.0689  0.9513  0.8084
  231MOL0     C31770   5.316   8.086   0.571 -0.4291  0.1114 -0.0434
  231MOL0     O31771   5.328   7.953   0.530  0.0746 -0.0241  0.3506
  231MOL0     C31772   5.445   7.892   0.566  0.1486  0.1981  0.4877
  231MOL0     C31773   5.554   7.895   0.482 -0.1764  0.5307  0.0136
  231MOL0     C31774   5.671   7.825   0.513  0.0391 -0.9024  0.7390
  231MOL0     C31775   5.677   7.753   0.633 -0.9606  0.0860  0.5452
  231MOL0     O31776   5.789   7.686   0.672 -0.4776  0.8544  0.7945
  231MOL0     C31777   5.810   7.583   0.566  0.0952 -0.2171 -0.2232
  231MOL0     C31778   5.925   7.491   0.601  0.1831 -0.1484  0.1470
  231MOL0     C31779   5.893   7.418   0.740 -0.4110 -0.2548  0.0313
  231MOL0     C31780   5.998   7.312   0.779 -0.4173  0.0057  0.1421
  231MOL0     C31781   5.970   7.269   0.930  0.7253 -0.2947 -0.6499
  231MOL0     C31782   6.061   7.149   0.952 -0.0814 -0.1873 -0.3074
  231MOL0     C31783   6.110   7.142   1.093 -0.9602 -0.4158  0.1797
  231MOL0     C31784   6.006   7.134   1.201 -0.0458  0.1006 -0.4770
  231MOL0    Cl31785   6.106   7.098   1.353  0.6760 -0.2347 -0.3837
  231MOL0     C31786   5.573   7.745   0.713  0.1599  0.9153  0.6660
  231MOL0     C31787   5.449   7.814   0.683  0.3713  0.7598  1.0019
  231MOL0     O31788   5.396   8.146   0.645 -0.5893 -0.1499  0.1170
  231MOL0     C31789   5.125   8.084   0.404  0.3475 -0.1904  0.0708
  231MOL0     C31790   5.017   8.150   0.338 -0.3356 -0.1760  0.5655
  231MOL0     N31791   4.502   8.699   0.469  0.2223  0.7428 -0.0967
  231MOL0     N31792   4.425   8.789   0.523  0.4428 -0.2682 -0.3681
  231MOL0     C31793   5.122   9.298   0.592 -0.8202 -0.2681 -0.2332
  231MOL0     C31794   5.263   9.278   0.560 -0.0268  0.1909 -0.3144
  231MOL0     C31795   5.645   9.353   0.293  0.1363 -0.3332 -0.3628
  231MOL0     C31796   5.722   9.353   0.173  0.3169 -0.1744  0.2195
  231MOL0     C31797   5.858   9.405   0.178 -0.3367 -0.3610  0.0461
  231MOL0     C31798   5.901   9.481   0.286  0.0891 -0.2138 -0.3789
  231MOL0     O31799   6.032   9.529   0.280 -0.1951  0.6334  0.0525
  231MOL0     C31800   6.070   9.617   0.384  0.0451  0.1217 -0.3043
  231MOL0     C31801   6.193   9.709   0.347  0.9227  0.3249  0.0613
  231MOL0     C31802   6.327   9.629   0.330 -0.5142  0.8063 -0.1614
  231MOL0     C31803   6.373   9.589   0.472  0.2613  0.1598  1.2053
  231MOL0     C31804   6.411   9.709   0.543  0.6094  0.4825 -0.1056
  231MOL0     C31805   6.439   9.811   0.594 -0.2606  0.8803 -0.1255
  231MOL0     C31806   5.824   9.486   0.402 -0.2391  0.1520  0.7975
  231MOL0     C31807   5.698   9.424   0.410  0.5157 -0.8776  0.0389
  231MOL0     C31808   5.623   9.441   0.541  0.0590  0.4990  0.8926
  231MOL0     H31809   5.231   9.277   0.222  0.1025 -1.0455  0.4886
  231MOL0     H31810   4.997   9.273   0.281  0.2491 -0.4780  0.1919
  231MOL0     H31811   4.899   9.420   0.696 -1.1947 -1.4308  2.4289
  231MOL0     H31812   4.904   9.243   0.707  1.9433 -0.0812 -1.9910
  231MOL0     H31813   4.685   9.402   0.750  2.9324  0.0123  0.2574
  231MOL0     H31814   4.676   9.406   0.569 -0.3172 -0.5734 -0.6312
  231MOL0     H31815   4.628   9.154   0.576 -2.6750 -0.9419 -0.5064
  231MOL0     H31816   4.639   9.170   0.755  1.0717 -0.9638 -0.9940
  231MOL0     H31817   4.438   9.307   0.749  0.0887  1.8313 -0.8910
  231MOL0     H31818   4.465   9.355   0.583  0.2809 -0.8622 -1.3853
  231MOL0     H31819   4.273   9.236   0.586  0.8031  0.8635 -0.1336
  231MOL0     H31820   4.339   9.092   0.662  1.0950 -0.1441 -0.3471
  231MOL0     H31821   4.439   9.189   0.398  0.8880 -0.6271  0.0273
  231MOL0     H31822   4.473   9.042   0.490  0.5410 -0.5036 -3.6714
  231MOL0     H31823   4.289   9.039   0.286 -1.3629 -1.0096 -0.1691
  231MOL0     H31824   4.183   9.121   0.396  2.9349  2.7738 -0.6401
  231MOL0     H31825   4.213   8.918   0.557  0.4422 -0.4790 -0.6193
  231MOL0     H31826   4.125   8.882   0.407 -0.8383  3.1030 -2.0942
  231MOL0     H31827   4.256   8.701   0.258  1.6553  3.6922 -0.9187
  231MOL0     H31828   4.497   8.593   0.157  3.2384  2.8579  0.8594
  231MOL0     H31829   4.415   8.480   0.256  0.1167  0.5950 -2.1344
  231MOL0     H31830   4.721   8.525   0.326  0.0361  2.2549 -4.5514
  231MOL0     H31831   4.612   8.397   0.385  1.9696 -2.8608 -1.2031
  231MOL0     H31832   4.602   8.299   0.158  1.6341 -1.5645  0.6284
  231MOL0     H31833   4.690   8.431   0.087  0.3509 -0.5216 -0.7215
  231MOL0     H31834   4.767   8.212   0.280 -1.5773 -0.2873 -0.0134
  231MOL0     H31835   4.850   8.257   0.128 -0.9310  0.4852 -0.5267
  231MOL0     H31836   5.065   8.458   0.439 -1.4344 -0.3037  2.1115
  231MOL0     H31837   5.251   8.494   0.573 -1.3024  0.0577  3.7942
  231MOL0     H31838   5.364   8.384   0.507  1.6274  3.0824  1.1237
  231MOL0     H31839   5.290   8.363   0.678 -0.2734 -3.1443 -1.1817
  231MOL0     H31840   5.553   7.963   0.398 -0.9227 -0.6143 -0.9240
  231MOL0     H31841   5.760   7.838   0.453 -0.2344 -1.0828  0.2867
  231MOL0     H31842   5.722   7.521   0.550  0.7799 -1.0769 -0.7645
  231MOL0     H31843   5.827   7.623   0.465 -1.0085 -1.3646 -0.8950
  231MOL0     H31844   5.948   7.418   0.523 -1.8977 -0.2151 -0.4876
  231MOL0     H31845   6.012   7.557   0.595  1.7157 -2.1520 -0.6798
  231MOL0     H31846   5.797   7.367   0.725  0.0214 -1.1507  0.2938
  231MOL0     H31847   5.887   7.497   0.815  0.3385  0.9094 -1.0862
  231MOL0     H31848   6.097   7.358   0.772 -0.8023  1.2218  1.9657
  231MOL0     H31849   6.000   7.225   0.712  0.3043  0.8318 -0.9505
  231MOL0     H31850   6.001   7.350   0.996  1.1771 -2.0404  1.3935
  231MOL0     H31851   5.866   7.249   0.957  0.4724 -2.5590 -2.9216
  231MOL0     H31852   6.146   7.157   0.883 -0.0396  0.1021 -0.2229
  231MOL0     H31853   6.006   7.057   0.929  2.0632 -1.4343 -0.6503
  231MOL0     H31854   6.175   7.228   1.109 -1.1933 -0.0601 -0.7581
  231MOL0     H31855   6.175   7.055   1.108 -0.4947 -0.2474 -0.7908
  231MOL0     H31856   5.924   7.061   1.195 -0.6315  0.8966 -3.7629
  231MOL0     H31857   5.959   7.231   1.216 -1.6205 -0.7821  0.6600
  231MOL0     H31858   5.577   7.685   0.803  1.7646  0.6259  0.4312
  231MOL0     H31859   5.367   7.794   0.752 -0.1255 -0.1029  0.1912
  231MOL0     H31860   5.131   7.977   0.383  1.7447  0.0358 -0.8095
  231MOL0     H31861   4.965   8.090   0.264  1.4901  1.7729 -2.5531
  231MOL0     H31862   5.097   9.310   0.697 -0.8128 -2.2168  0.0291
  231MOL0     H31863   5.338   9.276   0.638  0.9838  1.3450 -1.2171
  231MOL0     H31864   5.693   9.289   0.090 -3.9620  1.0062  0.5683
  231MOL0     H31865   5.921   9.398   0.090 -2.1600 -1.8318 -1.2167
  231MOL0     H31866   5.983   9.681   0.403  1.0548  0.8058  2.5961
  231MOL0     H31867   6.094   9.563   0.476 -0.6708 -3.2668 -1.9705
  231MOL0     H31868   6.198   9.791   0.419  0.4446 -1.4515  2.2335
  231MOL0     H31869   6.172   9.762   0.254 -1.6262 -0.9724 -0.2107
  231MOL0     H31870   6.318   9.534   0.276  0.1065 -0.6637  2.1569
  231MOL0     H31871   6.402   9.683   0.273  1.0729 -1.5753 -0.4760
  231MOL0     H31872   6.466   9.531   0.471  0.6287  0.7018 -0.8728
  231MOL0     H31873   6.297   9.532   0.525 -0.9643  1.5527  0.9988
  231MOL0     H31874   6.464   9.905   0.641 -0.7644  0.5236  0.8989
  231MOL0     H31875   5.868   9.534   0.489  1.7470  2.2080 -1.1938
  231MOL0     H31876   5.684   9.495   0.614 -1.1732  0.1706  2.2076
  231MOL0     H31877   5.521   9.480   0.536  0.0683  0.4401  0.1022
  231MOL0     H31878   5.611   9.339   0.579 -1.1957  0.4628  0.4211
  232MOL0     O31879   0.809   2.905   1.713 -0.3353 -0.2328  0.9185
  232MOL0     C31880   0.866   3.008   1.676 -0.5761 -0.3750 -0.4477
  232MOL0     O31881   0.902   3.037   1.549 -0.8602  0.5617  0.1641
  232MOL0     C31882   0.847   2.976   1.439  0.1121 -0.6039  0.0045
  232MOL0     C31883   0.943   2.949   1.335  0.1034 -0.5090  0.6040
  232MOL0     C31884   0.907   2.862   1.233 -0.1366  0.2791 -1.1912
  232MOL0     C31885   0.784   2.797   1.228 -0.5373  0.4389 -0.3335
  232MOL0     O31886   0.742   2.710   1.130  0.6771  0.6684 -0.8739
  232MOL0     C31887   0.838   2.658   1.031  0.1474 -0.2856  0.1346
  232MOL0     C31888   0.779   2.533   0.976  0.5302  0.3246 -0.6072
  232MOL0     C31889   0.749   2.432   1.084 -0.5484 -0.8090 -0.5248
  232MOL0     C31890   0.680   2.307   1.032  0.6666  0.5754 -0.0199
  232MOL0     C31891   0.649   2.210   1.156  0.6728 -0.7052  1.0367
  232MOL0     C31892   0.565   2.086   1.115 -0.6848 -0.5141  0.2575
  232MOL0     C31893   0.502   2.028   1.242 -0.0812  0.6913  0.9267
  232MOL0     C31894   0.401   1.922   1.198  0.5425  0.6861 -0.2629
  232MOL0     N31895   0.331   1.873   1.318 -0.2050 -0.3951  0.1838
  232MOL0     C31896   0.325   1.738   1.344 -0.0428  0.2292 -0.5327
  232MOL0     C31897   0.228   1.733   1.436  0.2697 -0.0761  0.1013
  232MOL0     C31898   0.198   1.602   1.516  0.6808 -0.4927  0.5141
  232MOL0     C31899   0.053   1.598   1.561  0.4626 -0.1666 -0.1181
  232MOL0     C31900  -0.003   1.461   1.608 -0.4466 -1.1841  0.5111
  232MOL0     C31901  -0.156   1.479   1.619 -0.2946 -0.4455 -0.3338
  232MOL0     O31902  -0.218   1.489   1.493 -0.2671 -0.1679 -0.5257
  232MOL0     C31903  -0.209   1.392   1.396  0.5124  0.4722 -0.1418
  232MOL0     C31904  -0.196   1.251   1.412 -0.1038 -0.3523  0.1938
  232MOL0     C31905  -0.205   1.154   1.316  0.2989 -0.7962  0.2659
  232MOL0     C31906  -0.186   1.014   1.359  0.0680 -0.3346 -0.9117
  232MOL0     C31907  -0.237   1.192   1.189 -0.3098  0.0952  0.5377
  232MOL0     C31908  -0.237   1.098   1.072 -0.1556  0.8405  0.2265
  232MOL0     O31909  -0.218   1.153   0.951 -0.6037 -0.7518 -0.6401
  232MOL0     C31910  -0.225   1.076   0.836 -0.6315 -0.5058 -0.2958
  232MOL0     C31911  -0.138   0.972   0.812  0.4929  0.3192 -0.2188
  232MOL0     C31912  -0.151   0.897   0.696 -0.3318  0.1719 -0.0779
  232MOL0     C31913  -0.223   0.945   0.579  0.9231  0.1891  0.4275
  232MOL0     O31914  -0.224   0.869   0.469  0.5167 -0.6256  0.5357
  232MOL0     C31915  -0.225   0.946   0.341  0.3576  0.2145  0.0275
  232MOL0     C31916  -0.271   0.852   0.216 -0.4766 -0.6448 -0.2752
  232MOL0     C31917  -0.416   0.821   0.215 -0.4471  0.4451  0.2911
  232MOL0     C31918  -0.445   0.721   0.112  0.4036 -0.0099 -0.0120
  232MOL0     C31919  -0.446   0.787  -0.028  0.4623  0.4311  0.5902
  232MOL0     C31920  -0.524   0.705  -0.145  0.2478 -0.1165  0.0967
  232MOL0     C31921  -0.467   0.563  -0.156  1.0997 -0.2236 -0.7228
  232MOL0     C31922  -0.558   0.464  -0.212  0.0985  0.0954  0.9221
  232MOL0    Cl31923  -0.697   0.441  -0.097 -0.1670  0.0587  0.3258
  232MOL0     C31924  -0.305   1.057   0.602  0.3055  0.0766 -0.7265
  232MOL0     C31925  -0.308   1.124   0.733  0.1589  0.0971  0.5358
  232MOL0     O31926  -0.261   0.981   1.088 -0.1020  1.0182  0.1252
  232MOL0     C31927  -0.261   1.330   1.169  0.2328 -0.2056 -0.1794
  232MOL0     C31928  -0.247   1.425   1.271  0.6507  0.6490 -0.3125
  232MOL0     N31929   0.177   1.859   1.462 -0.6853  0.0600 -0.3344
  232MOL0     N31930   0.227   1.934   1.380  0.2883 -0.1614  0.4957
  232MOL0     C31931   0.696   2.837   1.324 -0.1798  0.2969 -0.3867
  232MOL0     C31932   0.726   2.918   1.435  0.0223  0.6140  0.1090
  232MOL0     C31933   0.913   3.100   1.784 -0.4969  0.4031  0.1430
  232MOL0     C31934   1.037   3.166   1.768  0.0907  0.1031  0.5337
  232MOL0     C31935   1.094   3.237   1.868  0.1841  0.1517 -0.2687
  232MOL0     C31936   1.027   3.255   1.987 -0.5751  0.5490 -0.3168
  232MOL0     O31937   1.095   3.327   2.082  0.4325 -0.0831 -0.0390
  232MOL0     C31938   1.080   3.279   2.219 -0.0668  0.6063  0.2169
  232MOL0     C31939   1.187   3.322   2.324 -0.1007  0.0834  0.5363
  232MOL0     C31940   1.185   3.233   2.445  0.4452 -0.2806  0.5266
  232MOL0     C31941   1.321   3.264   2.520  0.1704 -0.7538 -0.3544
  232MOL0     C31942   1.309   3.224   2.662  0.2493 -0.3666  0.2463
  232MOL0     C31943   1.277   3.180   2.773 -0.0701 -0.6120  0.3120
  232MOL0     C31944   0.894   3.196   2.001  0.6268  0.2765  0.3540
  232MOL0     C31945   0.838   3.119   1.897 -0.6881 -0.3836 -0.6705
  232MOL0     C31946   0.690   3.070   1.909 -0.3630  0.9390 -0.1780
  232MOL0     H31947   1.044   2.987   1.344  0.7925 -2.0283 -0.4250
  232MOL0     H31948   0.982   2.836   1.159 -0.2536 -0.5336 -1.0291
  232MOL0     H31949   0.937   2.634   1.071  0.3137 -0.8587 -0.5841
  232MOL0     H31950   0.846   2.729   0.948  1.7406  2.3079  2.3771
  232MOL0     H31951   0.680   2.560   0.938 -0.9868 -1.4149  1.8369
  232MOL0     H31952   0.837   2.484   0.897  1.5213  0.4088  0.0558
  232MOL0     H31953   0.846   2.413   1.130 -1.3384  0.7710  1.9943
  232MOL0     H31954   0.688   2.489   1.155  2.2377  3.1036 -0.9810
  232MOL0     H31955   0.587   2.335   0.981  1.0564  1.3032 -0.3649
  232MOL0     H31956   0.733   2.249   0.956 -0.8956 -1.8793  0.6866
  232MOL0     H31957   0.586   2.266   1.225  0.1141 -0.4102  0.2978
  232MOL0     H31958   0.742   2.179   1.204  0.1735 -0.3558  2.2578
  232MOL0     H31959   0.487   2.114   1.044 -2.3907 -0.0272  2.2197
  232MOL0     H31960   0.620   2.005   1.066  1.8464  0.6132  1.0730
  232MOL0     H31961   0.448   2.095   1.309 -0.9673  0.2523  0.6636
  232MOL0     H31962   0.580   1.974   1.297 -1.0470 -1.5651  0.1960
  232MOL0     H31963   0.329   1.968   1.130  0.6900 -2.0558 -2.4386
  232MOL0     H31964   0.452   1.851   1.133 -1.6008 -0.5134 -0.6847
  232MOL0     H31965   0.374   1.650   1.302 -1.1242  0.0077 -1.3717
  232MOL0     H31966   0.266   1.612   1.602  1.3552  1.4969 -0.1929
  232MOL0     H31967   0.217   1.517   1.451  0.1875 -0.7343  0.6776
  232MOL0     H31968   0.029   1.666   1.644 -2.6119 -1.4062  0.1499
  232MOL0     H31969  -0.007   1.617   1.471  1.8431 -3.5086 -1.8949
  232MOL0     H31970   0.014   1.384   1.532 -1.4481 -1.6183  0.7096
  232MOL0     H31971   0.037   1.424   1.703  0.1225 -0.0593  0.7226
  232MOL0     H31972  -0.195   1.391   1.670  2.7866 -0.1975  2.8349
  232MOL0     H31973  -0.179   1.564   1.684  0.1451  3.2431 -4.4983
  232MOL0     H31974  -0.174   1.223   1.515  3.2708 -1.5622 -0.7159
  232MOL0     H31975  -0.179   1.004   1.468  4.6030 -1.4346 -1.1202
  232MOL0     H31976  -0.099   0.965   1.315  0.8113 -2.6368  2.6826
  232MOL0     H31977  -0.274   0.951   1.341 -1.2489  1.0636  0.3591
  232MOL0     H31978  -0.064   0.938   0.884 -2.8033  2.0703  4.5183
  232MOL0     H31979  -0.077   0.818   0.694  4.5361  4.2170 -2.7150
  232MOL0     H31980  -0.303   1.022   0.348 -1.0460 -1.3072  2.0026
  232MOL0     H31981  -0.132   0.995   0.310 -2.2838  3.5494 -3.5798
  232MOL0     H31982  -0.252   0.908   0.124 -2.4418 -0.1029 -0.4106
  232MOL0     H31983  -0.207   0.764   0.221  1.4290  0.6378 -0.8383
  232MOL0     H31984  -0.475   0.912   0.197 -3.1458 -0.3981  3.6911
  232MOL0     H31985  -0.438   0.781   0.315 -1.3591 -0.4156 -0.2394
  232MOL0     H31986  -0.541   0.671   0.123  0.6965 -0.8543 -1.1974
  232MOL0     H31987  -0.387   0.628   0.118 -2.9197 -2.1327  4.5104
  232MOL0     H31988  -0.490   0.886  -0.020  2.0697  1.0772  2.3333
  232MOL0     H31989  -0.339   0.789  -0.052  0.7734 -2.0244  1.4651
  232MOL0     H31990  -0.513   0.749  -0.245  0.5797 -1.9641 -0.7217
  232MOL0     H31991  -0.630   0.707  -0.117  0.3353 -3.5717  1.2185
  232MOL0     H31992  -0.445   0.522  -0.058  1.5256 -2.0313 -1.5250
  232MOL0     H31993  -0.377   0.565  -0.218  0.0170 -0.3854 -2.3958
  232MOL0     H31994  -0.501   0.371  -0.218  0.5156  0.4378 -1.3305
  232MOL0     H31995  -0.577   0.497  -0.315 -0.5028  2.3546  1.6972
  232MOL0     H31996  -0.375   1.084   0.523  0.0163 -1.5396 -1.0667
  232MOL0     H31997  -0.382   1.196   0.765 -1.6067 -0.9152 -1.0439
  232MOL0     H31998  -0.290   1.357   1.068 -0.8033 -3.2499 -0.7861
  232MOL0     H31999  -0.257   1.532   1.256 -3.5256  0.4219 -0.5011
  232MOL0     H32000   0.594   2.806   1.310 -0.2372  0.4250 -0.2649
  232MOL0     H32001   0.654   2.927   1.515  1.9776 -1.2978  2.2323
  232MOL0     H32002   1.101   3.150   1.681  0.9077 -4.8205  1.7534
  232MOL0     H32003   1.193   3.281   1.862  0.0683  0.4088 -0.3010
  232MOL0     H32004   0.983   3.320   2.249 -0.0487  1.5597 -0.9490
  232MOL0     H32005   1.078   3.169   2.219 -0.4411  0.6094 -0.3210
  232MOL0     H32006   1.185   3.430   2.339  4.3436  0.8462 -2.3894
  232MOL0     H32007   1.280   3.316   2.266 -0.3710  3.2787 -0.4137
  232MOL0     H32008   1.094   3.253   2.501 -0.4904  0.5668 -1.2099
  232MOL0     H32009   1.179   3.128   2.416 -2.6343 -0.9010  2.9493
  232MOL0     H32010   1.339   3.371   2.527  3.9674 -1.2839  0.4519
  232MOL0     H32011   1.407   3.216   2.473  2.3746  0.5740  2.0700
  232MOL0     H32012   1.242   3.135   2.864  0.5260 -1.5975  0.0757
  232MOL0     H32013   0.825   3.234   2.075 -1.0188 -0.1801 -0.8758
  232MOL0     H32014   0.634   3.078   2.002  1.2334  1.6151  0.7536
  232MOL0     H32015   0.633   3.115   1.827  1.2842  3.5712  0.0003
  232MOL0     H32016   0.691   2.961   1.899 -0.9865  1.1257 -3.3565
  233MOL0     O32017   3.944   6.285   6.045  0.1002 -0.1260 -0.5680
  233MOL0     C32018   3.968   6.400   6.094  0.5469 -0.3379  0.5791
  233MOL0     O32019   4.091   6.456   6.128 -0.2630 -0.4102 -0.4579
  233MOL0     C32020   4.206   6.375   6.145  0.5550 -0.3447  0.1442
  233MOL0     C32021   4.335   6.429   6.131  0.7188 -0.3510 -0.7747
  233MOL0     C32022   4.452   6.350   6.127 -0.4157  0.2095 -0.6148
  233MOL0     C32023   4.434   6.208   6.136 -0.1511  0.5068 -0.4510
  233MOL0     O32024   4.549   6.133   6.126 -0.1059  0.5049  0.0287
  233MOL0     C32025   4.654   6.182   6.054  0.1580 -0.6231  0.1837
  233MOL0     C32026   4.749   6.071   6.036  0.4790  0.6930  1.2919
  233MOL0     C32027   4.825   6.041   6.160 -0.3221  0.1857  0.2568
  233MOL0     C32028   4.942   5.952   6.134 -0.4101  0.6943  0.3088
  233MOL0     C32029   5.025   5.926   6.256  0.3893  0.1730 -0.3676
  233MOL0     C32030   5.156   5.855   6.217  0.0971  0.8942  0.3565
  233MOL0     C32031   5.251   5.819   6.329 -0.2577 -0.3282  0.1580
  233MOL0     C32032   5.225   5.678   6.389 -0.5402  0.6690 -0.9226
  233MOL0     N32033   5.291   5.660   6.513  1.0749  0.1515 -0.1452
  233MOL0     C32034   5.422   5.634   6.536  0.0051  0.7184 -0.0708
  233MOL0     C32035   5.441   5.603   6.666  0.4732 -0.4093 -0.3247
  233MOL0     C32036   5.562   5.588   6.747 -0.2453 -0.6611 -0.0938
  233MOL0     C32037   5.537   5.562   6.902  0.0409 -0.3245 -0.4573
  233MOL0     C32038   5.667   5.613   6.975 -0.5716 -0.9759  0.3090
  233MOL0     C32039   5.676   5.571   7.120 -0.3260  0.6457 -0.4674
  233MOL0     O32040   5.759   5.665   7.193 -0.7207 -0.3629 -0.4129
  233MOL0     C32041   5.890   5.668   7.147  0.4841  0.9356 -0.1558
  233MOL0     C32042   5.959   5.556   7.097 -0.5622  0.3003  0.2738
  233MOL0     C32043   6.100   5.569   7.058  0.2307 -0.1962  0.2043
  233MOL0     C32044   6.170   5.449   7.004 -1.2985 -0.1401  0.0118
  233MOL0     C32045   6.162   5.696   7.064 -0.3254 -0.0449  0.1250
  233MOL0     C32046   6.302   5.721   7.015 -0.3606  0.4567  0.4369
  233MOL0     O32047   6.390   5.763   7.115 -1.1399 -0.2986 -0.6654
  233MOL0     C32048   6.520   5.792   7.062 -0.0628  0.4443 -0.5389
  233MOL0     C32049   6.561   5.894   6.976  0.4552  0.7421 -0.6372
  233MOL0     C32050   6.694   5.911   6.939 -0.6270 -0.3658 -0.2551
  233MOL0     C32051   6.800   5.843   7.003  0.9709 -0.0838 -0.1689
  233MOL0     O32052   6.939   5.862   6.996  0.4870  0.4481  0.4643
  233MOL0     C32053   6.969   5.937   6.873 -0.5229  0.0205 -0.5792
  233MOL0     C32054   7.115   5.915   6.853  0.6742  0.4214 -0.3724
  233MOL0     C32055   7.171   5.981   6.728 -0.1175  0.9870 -0.4582
  233MOL0     C32056   7.331   5.962   6.731 -0.0651 -1.3434 -0.4860
  233MOL0     C32057   7.381   6.020   6.600 -1.0594 -0.0877 -0.5643
  233MOL0     C32058   7.533   6.047   6.616  0.1552  0.4456 -0.0208
  233MOL0     C32059   7.598   6.108   6.486 -0.0331 -1.0372  0.1937
  233MOL0     C32060   7.758   6.125   6.517  0.5751 -0.2277 -0.0457
  233MOL0    Cl32061   7.767   6.232   6.649 -0.0674  0.4013 -0.1666
  233MOL0     C32062   6.761   5.745   7.097  0.0684  0.0322  0.2147
  233MOL0     C32063   6.625   5.717   7.126 -0.3018  0.0682  0.4487
  233MOL0     O32064   6.327   5.708   6.897  0.1982 -0.1208  0.0815
  233MOL0     C32065   6.086   5.804   7.115 -0.3053 -0.3071  0.4925
  233MOL0     C32066   5.956   5.789   7.161 -0.5443  0.3304 -0.4787
  233MOL0     N32067   5.312   5.607   6.723  0.4927 -0.3950  0.4344
  233MOL0     N32068   5.223   5.633   6.637 -0.3335 -0.5700  0.1237
  233MOL0     C32069   4.304   6.157   6.154 -0.1531 -0.7060 -0.5866
  233MOL0     C32070   4.194   6.237   6.173  0.9367  0.1696 -0.9001
  233MOL0     C32071   3.855   6.488   6.101 -0.5122  0.9695  0.0489
  233MOL0     C32072   3.751   6.479   6.012  0.3761  0.5834 -0.7225
  233MOL0     C32073   3.640   6.563   6.003 -0.0724 -0.3404  0.3459
  233MOL0     C32074   3.612   6.653   6.110 -0.2509  0.8327  0.6111
  233MOL0     O32075   3.493   6.718   6.103 -0.2188 -0.6975 -0.5224
  233MOL0     C32076   3.474   6.824   6.196 -0.6451 -0.4116  1.5554
  233MOL0     C32077   3.353   6.908   6.176  0.1615  0.6481 -0.7646
  233MOL0     C32078   3.227   6.815   6.183 -0.5916 -0.4998  0.1142
  233MOL0     C32079   3.096   6.895   6.188 -0.1049 -0.0426  0.3694
  233MOL0     C32080   3.090   7.007   6.094 -0.0618  0.4639  0.6800
  233MOL0     C32081   3.071   7.096   6.015  0.0029 -0.1201  0.3136
  233MOL0     C32082   3.718   6.664   6.205  0.6682 -0.1925  0.1698
  233MOL0     C32083   3.834   6.578   6.210  0.2981 -0.2479 -0.3845
  233MOL0     C32084   3.930   6.614   6.319 -0.4286  0.0355 -0.7283
  233MOL0     H32085   4.346   6.535   6.109 -0.5233 -0.6817 -3.3360
  233MOL0     H32086   4.540   6.414   6.128 -1.4495  1.9200  3.7170
  233MOL0     H32087   4.701   6.267   6.103 -0.5597  0.2378 -0.5907
  233MOL0     H32088   4.623   6.215   5.954  0.2338  0.8350  0.6200
  233MOL0     H32089   4.691   5.979   6.018  0.1005  1.2067 -0.3628
  233MOL0     H32090   4.825   6.091   5.960  0.9674  1.7632  2.0487
  233MOL0     H32091   4.874   6.129   6.203  3.2469 -1.2238 -0.5665
  233MOL0     H32092   4.766   5.989   6.235  0.7631 -1.1303  0.2287
  233MOL0     H32093   4.905   5.865   6.078 -2.4944  2.4127 -1.1649
  233MOL0     H32094   5.016   6.004   6.073  0.8494 -0.4230  0.8372
  233MOL0     H32095   4.967   5.870   6.330  0.5518  0.8937  0.3299
  233MOL0     H32096   5.047   6.025   6.297 -2.2052  1.4335 -1.7552
  233MOL0     H32097   5.125   5.766   6.162  0.8717  0.6860  0.2490
  233MOL0     H32098   5.211   5.927   6.156  0.4837 -0.3177 -0.7606
  233MOL0     H32099   5.257   5.894   6.410  1.0856  1.6551 -1.6582
  233MOL0     H32100   5.352   5.813   6.286  0.5099 -1.9815  1.9866
  233MOL0     H32101   5.118   5.658   6.399 -0.0732 -1.5652  0.1634
  233MOL0     H32102   5.260   5.597   6.324 -2.1208 -0.7329 -0.0999
  233MOL0     H32103   5.503   5.653   6.465  1.5789  1.5693  1.8726
  233MOL0     H32104   5.616   5.682   6.731 -1.6636 -0.1869 -2.8391
  233MOL0     H32105   5.619   5.516   6.686  0.6952  2.1089 -2.7707
  233MOL0     H32106   5.457   5.627   6.939  1.3169  0.5620  0.8951
  233MOL0     H32107   5.533   5.457   6.933  2.9664 -0.1966  0.7537
  233MOL0     H32108   5.748   5.575   6.912  0.8353 -0.5424  1.8019
  233MOL0     H32109   5.662   5.722   6.972  1.3561 -0.8692 -0.0365
  233MOL0     H32110   5.583   5.586   7.175 -0.6556  1.1630 -1.1559
  233MOL0     H32111   5.702   5.467   7.138 -3.1480  0.2699  2.2510
  233MOL0     H32112   5.920   5.454   7.097 -1.6192  0.6543 -1.6378
  233MOL0     H32113   6.276   5.467   6.983 -1.2447 -0.6818 -0.1886
  233MOL0     H32114   6.128   5.424   6.906 -0.0530  2.2255 -1.2396
  233MOL0     H32115   6.161   5.361   7.068  1.4530 -1.8218 -1.6997
  233MOL0     H32116   6.485   5.958   6.933  0.4984  0.5602 -0.9837
  233MOL0     H32117   6.713   6.000   6.881 -1.9262 -0.2690 -0.5626
  233MOL0     H32118   6.922   5.894   6.784  1.6794  3.9887 -4.0345
  233MOL0     H32119   6.932   6.040   6.881 -3.0571 -0.9653  3.1468
  233MOL0     H32120   7.172   5.944   6.942 -0.9656  1.4862  0.3856
  233MOL0     H32121   7.117   5.806   6.858 -0.1357  0.4466  2.3270
  233MOL0     H32122   7.146   6.087   6.740  2.2413  1.5191  0.2156
  233MOL0     H32123   7.131   5.935   6.637 -2.4388 -0.1298  1.0258
  233MOL0     H32124   7.359   5.858   6.749  2.1794 -0.4318  1.9234
  233MOL0     H32125   7.364   6.018   6.820 -0.9483 -1.2851 -0.1812
  233MOL0     H32126   7.366   5.937   6.530 -0.3587 -3.8100  3.2694
  233MOL0     H32127   7.336   6.115   6.567 -1.9977  0.5362  2.2026
  233MOL0     H32128   7.584   5.954   6.641  1.9826  1.8900  2.0699
  233MOL0     H32129   7.547   6.118   6.698  1.5793  1.5078 -1.1160
  233MOL0     H32130   7.553   6.204   6.461  1.8211 -0.1006  0.2766
  233MOL0     H32131   7.584   6.035   6.405 -2.8808  0.3262 -0.6828
  233MOL0     H32132   7.809   6.175   6.435 -0.9828  1.3079 -0.1173
  233MOL0     H32133   7.808   6.032   6.547  0.8490  0.7460  2.7566
  233MOL0     H32134   6.835   5.678   7.139  0.9072 -0.3098 -1.7020
  233MOL0     H32135   6.604   5.645   7.205 -1.7775 -1.2802 -1.0958
  233MOL0     H32136   6.146   5.891   7.141  0.3450 -0.4873 -0.3704
  233MOL0     H32137   5.912   5.880   7.200 -1.1245 -0.8716  1.8055
  233MOL0     H32138   4.289   6.051   6.172 -0.1918 -0.2503  2.7723
  233MOL0     H32139   4.105   6.189   6.211  0.6811 -0.1391 -1.8761
  233MOL0     H32140   3.750   6.399   5.939  0.1979 -0.6300  0.5600
  233MOL0     H32141   3.569   6.540   5.925  0.1010  0.5306 -0.0765
  233MOL0     H32142   3.479   6.785   6.298 -0.8176  0.8156  2.0510
  233MOL0     H32143   3.564   6.884   6.176  0.5781 -1.9673  2.2289
  233MOL0     H32144   3.362   6.957   6.078 -0.8942  0.8751 -0.7620
  233MOL0     H32145   3.340   6.978   6.258 -4.0331 -2.1329  1.3464
  233MOL0     H32146   3.222   6.733   6.111 -0.5156 -0.8119  0.4667
  233MOL0     H32147   3.234   6.773   6.283  1.1808  1.6669  1.0065
  233MOL0     H32148   3.078   6.931   6.289 -0.9572 -3.3267  1.5244
  233MOL0     H32149   3.017   6.820   6.176 -0.7908  0.5644  1.0096
  233MOL0     H32150   3.039   7.185   5.963 -0.2155  0.1860  0.9677
  233MOL0     H32151   3.713   6.739   6.283  0.8922 -0.3434  0.3279
  233MOL0     H32152   4.033   6.625   6.284 -0.0236 -1.2995 -0.0087
  233MOL0     H32153   3.908   6.714   6.359  3.1163  0.0931  1.4711
  233MOL0     H32154   3.926   6.541   6.400  2.1212  0.4282 -0.1560
  234MOL0     O32155  11.306   5.036   0.962 -0.2166  0.9618 -0.2745
  234MOL0     C32156  11.320   4.917   0.954  0.4683 -0.1175  0.4475
  234MOL0     O32157  11.387   4.849   0.854 -0.7548  0.1715  0.0785
  234MOL0     C32158  11.367   4.910   0.736 -0.0585  0.0168 -1.2298
  234MOL0     C32159  11.237   4.894   0.682  0.1133  0.0477 -0.2668
  234MOL0     C32160  11.216   4.957   0.557  0.3948  0.5522  0.0463
  234MOL0     C32161  11.319   5.033   0.498 -1.2895  1.6006  0.9687
  234MOL0     O32162  11.314   5.085   0.371 -0.1485 -0.6438 -0.1920
  234MOL0     C32163  11.218   5.021   0.283 -0.0103  0.1817  0.0634
  234MOL0     C32164  11.230   5.064   0.136  0.1109  0.5589  0.2006
  234MOL0     C32165  11.361   5.017   0.071  0.3876 -0.5523  0.0620
  234MOL0     C32166  11.350   5.048  -0.082  0.0200 -0.0834 -0.1677
  234MOL0     C32167  11.491   5.049  -0.138  0.7404  0.1945 -0.9090
  234MOL0     C32168  11.492   5.128  -0.265  0.8056  0.1087  1.1395
  234MOL0     C32169  11.406   5.058  -0.376  0.1722 -0.0947 -0.1696
  234MOL0     C32170  11.334   5.164  -0.459  0.9742 -0.5137  0.9465
  234MOL0     N32171  11.223   5.220  -0.379 -1.0191  0.2121  0.3787
  234MOL0     C32172  11.084   5.195  -0.393  0.4901  0.1700 -1.1985
  234MOL0     C32173  11.028   5.304  -0.335 -0.4341 -0.2019  0.8313
  234MOL0     C32174  10.877   5.314  -0.327 -0.0324  0.1062 -0.3222
  234MOL0     C32175  10.813   5.174  -0.307 -0.3152  0.2889  0.0151
  234MOL0     C32176  10.671   5.173  -0.259  0.3120  0.2941  0.2666
  234MOL0     C32177  10.640   5.126  -0.121 -0.6029 -1.1116  0.4007
  234MOL0     O32178  10.500   5.088  -0.117  0.3930  0.3497  0.5027
  234MOL0     C32179  10.453   5.005  -0.015 -0.6796  0.2731 -0.3934
  234MOL0     C32180  10.339   4.933  -0.048 -1.1115  0.4572 -0.4081
  234MOL0     C32181  10.289   4.838   0.040  0.0855 -0.0312  0.2352
  234MOL0     C32182  10.167   4.765  -0.011 -0.7244 -0.0415  0.3369
  234MOL0     C32183  10.350   4.825   0.173  0.0910  0.5253 -0.4720
  234MOL0     C32184  10.299   4.732   0.275 -0.3264 -0.1751 -0.7604
  234MOL0     O32185  10.204   4.640   0.249 -0.1072 -0.3134  0.0836
  234MOL0     C32186  10.132   4.556   0.334 -1.2597 -0.2967  0.4462
  234MOL0     C32187  10.022   4.488   0.282  0.2145 -0.0283 -0.6840
  234MOL0     C32188   9.935   4.414   0.374  0.7219  0.7915 -0.4812
  234MOL0     C32189   9.986   4.381   0.502  0.0479 -0.1808  0.6791
  234MOL0     O32190   9.913   4.311   0.593 -0.4445  0.1641 -0.2393
  234MOL0     C32191   9.866   4.180   0.542 -0.1578 -0.3446 -0.0887
  234MOL0     C32192   9.929   4.074   0.626 -0.4358  0.1671 -0.6426
  234MOL0     C32193   9.886   4.073   0.781 -0.0495  0.5568  0.2951
  234MOL0     C32194   9.764   3.986   0.810  1.2859  0.0149 -0.3016
  234MOL0     C32195   9.695   3.992   0.948 -0.0998 -0.1661  0.6305
  234MOL0     C32196   9.620   3.870   0.980  0.1604  0.8189 -0.6869
  234MOL0     C32197   9.578   3.871   1.132 -0.1244  0.7377  0.0890
  234MOL0     C32198   9.473   3.761   1.149 -1.3783  0.7306  0.5345
  234MOL0    Cl32199   9.405   3.794   1.312  0.0442  0.3417 -0.3195
  234MOL0     C32200  10.102   4.424   0.545 -0.6169 -0.2975  0.5532
  234MOL0     C32201  10.173   4.514   0.460  0.5804  0.3814 -0.4356
  234MOL0     O32202  10.360   4.738   0.382  0.0937 -0.0470 -0.5692
  234MOL0     C32203  10.454   4.919   0.208 -0.8972  0.6321  1.0744
  234MOL0     C32204  10.514   4.992   0.109  0.3005  0.2026 -0.1470
  234MOL0     N32205  11.129   5.403  -0.306 -0.4812 -0.0941  0.2267
  234MOL0     N32206  11.243   5.350  -0.338 -0.2522  0.2894  0.1880
  234MOL0     C32207  11.448   5.039   0.558 -0.1697 -0.7478  0.1964
  234MOL0     C32208  11.469   4.974   0.678 -0.9802 -0.6327  0.4142
  234MOL0     C32209  11.260   4.842   1.071 -0.3419 -0.6144  0.3691
  234MOL0     C32210  11.195   4.915   1.178 -0.4242  0.3095  0.7091
  234MOL0     C32211  11.148   4.853   1.302 -0.4483 -0.4046  0.2848
  234MOL0     C32212  11.166   4.718   1.313  0.0012  0.5869  0.8686
  234MOL0     O32213  11.120   4.658   1.426  0.1231 -0.3036  0.3153
  234MOL0     C32214  11.221   4.634   1.526  0.4744  0.6576 -0.2580
  234MOL0     C32215  11.176   4.622   1.660  0.5662 -0.5495 -0.0808
  234MOL0     C32216  11.081   4.742   1.695 -0.2282  0.9408 -0.2008
  234MOL0     C32217  11.156   4.877   1.671  0.9543 -0.1392 -0.0213
  234MOL0     C32218  11.264   4.911   1.768  0.1538  0.0776  0.2399
  234MOL0     C32219  11.363   4.920   1.842 -0.7372 -0.1713 -0.7562
  234MOL0     C32220  11.209   4.649   1.201 -0.6087  0.3242 -0.1826
  234MOL0     C32221  11.263   4.702   1.084 -0.5020  0.4652 -0.2917
  234MOL0     C32222  11.311   4.610   0.977 -0.2830  0.7164  0.8532
  234MOL0     H32223  11.166   4.833   0.737  0.6211 -0.2335  0.0869
  234MOL0     H32224  11.129   4.931   0.498  0.4275 -3.3995  1.4679
  234MOL0     H32225  11.118   5.035   0.324 -0.7363  0.7430 -1.8113
  234MOL0     H32226  11.235   4.913   0.280 -1.2213 -0.0155 -0.3064
  234MOL0     H32227  11.143   5.018   0.089  1.6721 -1.5078 -0.8714
  234MOL0     H32228  11.226   5.173   0.123 -0.2749  0.5620  0.3510
  234MOL0     H32229  11.450   5.060   0.118  0.9385 -0.7913 -0.7412
  234MOL0     H32230  11.366   4.909   0.088 -1.6232 -0.3547  2.6710
  234MOL0     H32231  11.286   4.982  -0.141 -1.4598  1.9810 -0.9918
  234MOL0     H32232  11.322   5.154  -0.077 -1.8072 -0.5558  0.4034
  234MOL0     H32233  11.523   4.946  -0.155  5.2099  0.9647  1.5332
  234MOL0     H32234  11.556   5.094  -0.063 -2.8121  0.3903  2.3469
  234MOL0     H32235  11.459   5.230  -0.245  1.6563  1.1537 -2.1556
  234MOL0     H32236  11.595   5.132  -0.300  1.1275  3.1864  2.1741
  234MOL0     H32237  11.320   5.004  -0.337 -2.1130  2.6284 -1.0624
  234MOL0     H32238  11.455   4.981  -0.436  1.0855  2.0333 -2.3230
  234MOL0     H32239  11.388   5.241  -0.516 -0.5755  1.0977  1.5891
  234MOL0     H32240  11.288   5.101  -0.536 -1.3196  0.9364  1.0327
  234MOL0     H32241  11.043   5.100  -0.425 -1.0229  0.9740 -1.7191
  234MOL0     H32242  10.847   5.371  -0.415 -0.4620 -1.6541 -1.3578
  234MOL0     H32243  10.853   5.378  -0.241 -0.9672 -0.9912  0.2582
  234MOL0     H32244  10.813   5.126  -0.405  2.0113  2.1010 -0.9837
  234MOL0     H32245  10.871   5.114  -0.236 -0.9655  0.5399  0.7774
  234MOL0     H32246  10.627   5.270  -0.285  0.9135  0.4029 -0.3738
  234MOL0     H32247  10.616   5.103  -0.324 -1.2178 -0.9497  2.7606
  234MOL0     H32248  10.705   5.039  -0.112  1.3150  0.1285 -0.7995
  234MOL0     H32249  10.670   5.196  -0.043  0.9161 -1.2543 -0.0364
  234MOL0     H32250  10.315   4.927  -0.154  1.2191  0.3780 -0.9871
  234MOL0     H32251  10.120   4.813  -0.097 -1.4844 -2.6338 -0.7870
  234MOL0     H32252  10.092   4.754   0.069  0.4096 -1.3811  1.2756
  234MOL0     H32253  10.203   4.671  -0.053  2.7733  0.5118  1.7155
  234MOL0     H32254   9.983   4.524   0.187 -1.0879 -0.6936 -0.4185
  234MOL0     H32255   9.831   4.389   0.353  0.4766  0.6475  0.7849
  234MOL0     H32256   9.760   4.178   0.569  0.1701  1.2912  1.5171
  234MOL0     H32257   9.888   4.165   0.436 -0.5844  0.0522 -0.2367
  234MOL0     H32258   9.909   3.977   0.580 -0.9696 -0.8957  1.6741
  234MOL0     H32259  10.038   4.085   0.618 -0.6123  1.8122 -1.1588
  234MOL0     H32260   9.843   4.171   0.806 -0.3519  0.7306 -0.8761
  234MOL0     H32261   9.970   4.050   0.847  0.5378 -0.2522 -0.7042
  234MOL0     H32262   9.778   3.884   0.775 -1.3164  0.0375 -1.5875
  234MOL0     H32263   9.691   4.026   0.739  3.8782  1.9274 -2.1355
  234MOL0     H32264   9.777   3.999   1.021 -0.3844 -0.8075  1.0188
  234MOL0     H32265   9.634   4.083   0.949 -2.5439 -1.7184  1.0650
  234MOL0     H32266   9.671   3.778   0.949 -0.4293  1.0076 -2.3406
  234MOL0     H32267   9.531   3.862   0.916 -0.7708  1.8733  0.4242
  234MOL0     H32268   9.547   3.974   1.155  3.0094  1.7812  0.1258
  234MOL0     H32269   9.652   3.848   1.209 -2.0376 -1.3277  1.4349
  234MOL0     H32270   9.524   3.664   1.152 -0.9295  0.9435 -0.0171
  234MOL0     H32271   9.395   3.754   1.073 -1.1600 -0.3056  0.3845
  234MOL0     H32272  10.137   4.393   0.643 -1.0299 -1.6619  0.2946
  234MOL0     H32273  10.247   4.571   0.516 -0.3996  0.1235  1.1797
  234MOL0     H32274  10.487   4.928   0.310 -0.0751  2.2714  0.6903
  234MOL0     H32275  10.604   5.041   0.144 -0.3836  0.9480  0.6057
  234MOL0     H32276  11.529   5.093   0.510  1.2077 -0.3015  2.8758
  234MOL0     H32277  11.571   4.972   0.717 -0.0912 -1.6295 -1.7573
  234MOL0     H32278  11.187   5.023   1.182  0.4103  0.3869  0.4874
  234MOL0     H32279  11.099   4.917   1.374 -0.8470 -0.0808 -0.2668
  234MOL0     H32280  11.255   4.531   1.511  0.8462  0.6635  0.5510
  234MOL0     H32281  11.311   4.694   1.514  1.9839 -0.8464  2.7893
  234MOL0     H32282  11.253   4.636   1.736 -2.0416  2.7668  2.2584
  234MOL0     H32283  11.135   4.521   1.672  0.5556 -0.5039  0.2937
  234MOL0     H32284  10.996   4.734   1.626 -1.4403 -4.0955  1.4638
  234MOL0     H32285  11.044   4.731   1.797 -0.5284 -1.5638 -0.5352
  234MOL0     H32286  11.075   4.949   1.687  1.2584  1.3152 -3.9256
  234MOL0     H32287  11.192   4.899   1.570  0.5494  1.6609  0.1857
  234MOL0     H32288  11.440   4.921   1.916 -0.9331  0.3659 -0.5544
  234MOL0     H32289  11.213   4.542   1.216 -1.1081  0.5059  1.4083
  234MOL0     H32290  11.280   4.645   0.878  0.7698 -2.8313 -0.8914
  234MOL0     H32291  11.420   4.607   0.981 -0.3247 -2.0991  3.4356
  234MOL0     H32292  11.277   4.507   0.986 -2.8099  1.2963 -0.9719
  235MOL0     O32293   5.286   1.112   0.924  0.1530  0.4791 -0.2360
  235MOL0     C32294   5.168   1.147   0.945 -0.2127  0.0493 -0.5556
  235MOL0     O32295   5.100   1.238   0.863  0.8958  0.4045  0.2790
  235MOL0     C32296   5.153   1.319   0.773 -0.4969  0.5621 -0.1920
  235MOL0     C32297   5.093   1.344   0.645  0.0685  0.8066 -0.3002
  235MOL0     C32298   5.159   1.423   0.552  0.7007  0.2200  0.0938
  235MOL0     C32299   5.274   1.491   0.587  0.3182  0.0109  0.8327
  235MOL0     O32300   5.355   1.565   0.502 -1.1541  0.1546 -0.4237
  235MOL0     C32301   5.295   1.659   0.417  0.3067 -0.2214 -0.2173
  235MOL0     C32302   5.401   1.764   0.379 -0.2097  0.6561 -0.0364
  235MOL0     C32303   5.487   1.724   0.254 -0.3749 -0.6746  0.6529
  235MOL0     C32304   5.410   1.739   0.121  0.8367 -0.4210 -0.5359
  235MOL0     C32305   5.503   1.683   0.009  0.3085 -0.1570 -0.6323
  235MOL0     C32306   5.451   1.711  -0.138  0.7361 -0.3837 -0.5387
  235MOL0     C32307   5.445   1.871  -0.162 -0.1401  0.0895 -0.2152
  235MOL0     C32308   5.444   1.908  -0.311 -0.8161  0.6347 -0.0275
  235MOL0     N32309   5.344   1.828  -0.391  0.2633  0.8978 -0.7439
  235MOL0     C32310   5.225   1.783  -0.350 -0.3101 -0.2481 -0.4225
  235MOL0     C32311   5.178   1.685  -0.428  0.5583 -0.6161  1.3942
  235MOL0     C32312   5.052   1.601  -0.425  0.0065  0.4763 -1.1963
  235MOL0     C32313   4.938   1.670  -0.340  0.3807 -0.3098  0.6098
  235MOL0     C32314   4.839   1.561  -0.304  0.5425  0.1976 -1.0696
  235MOL0     C32315   4.705   1.618  -0.253 -0.6073  0.4936  0.3042
  235MOL0     O32316   4.733   1.688  -0.135 -0.1575  0.6099  0.0776
  235MOL0     C32317   4.631   1.752  -0.069  0.5188  0.0672  0.6095
  235MOL0     C32318   4.665   1.828   0.043  0.3763 -0.7520  0.2553
  235MOL0     C32319   4.569   1.912   0.112 -0.4432 -1.0390 -0.4002
  235MOL0     C32320   4.622   1.984   0.231  0.1338 -0.1013  0.4611
  235MOL0     C32321   4.434   1.914   0.069 -0.0814 -0.4509  0.1433
  235MOL0     C32322   4.330   2.008   0.121  0.3107  0.0035 -1.2606
  235MOL0     O32323   4.229   2.020   0.038  0.1761 -0.6264  0.1147
  235MOL0     C32324   4.110   2.072   0.080  0.0576  0.0681 -0.1956
  235MOL0     C32325   4.032   2.144  -0.005 -0.0216 -0.5349 -0.4462
  235MOL0     C32326   3.907   2.196   0.026  0.0667 -0.3571  0.0900
  235MOL0     C32327   3.843   2.168   0.150 -0.6293 -1.1431 -0.3900
  235MOL0     O32328   3.711   2.206   0.175 -0.9687  1.0213 -0.4041
  235MOL0     C32329   3.648   2.258   0.053  0.4105 -0.2898  0.2214
  235MOL0     C32330   3.503   2.275   0.082 -0.0446 -0.8347 -0.2156
  235MOL0     C32331   3.477   2.388   0.184 -0.3874 -0.9372 -0.6683
  235MOL0     C32332   3.326   2.417   0.194  0.7045 -0.0109 -1.3126
  235MOL0     C32333   3.278   2.520   0.298  0.2210  0.1924  0.4055
  235MOL0     C32334   3.127   2.556   0.289  0.2313 -0.1098  0.8892
  235MOL0     C32335   3.074   2.628   0.413 -0.9874  0.2568 -0.2864
  235MOL0     C32336   2.946   2.702   0.393  1.2244 -0.5111  0.0462
  235MOL0    Cl32337   2.827   2.583   0.321 -0.4037  0.3825  0.0530
  235MOL0     C32338   3.916   2.094   0.244 -0.5769 -0.6448  0.3446
  235MOL0     C32339   4.046   2.048   0.212  0.1857 -0.1124  0.1219
  235MOL0     O32340   4.346   2.071   0.231  0.4360 -0.2467  0.6278
  235MOL0     C32341   4.404   1.838  -0.048  0.6527  0.2711  0.2249
  235MOL0     C32342   4.502   1.752  -0.107 -0.4083  0.7931 -0.1515
  235MOL0     N32343   5.277   1.667  -0.522  0.1854 -0.1219 -0.2699
  235MOL0     N32344   5.382   1.743  -0.490 -0.2552 -0.1532  0.2577
  235MOL0     C32345   5.324   1.482   0.713 -0.0490  0.2490  0.2252
  235MOL0     C32346   5.265   1.399   0.809  0.5959  0.0657  0.1082
  235MOL0     C32347   5.100   1.094   1.068  0.6866  0.0090  1.0405
  235MOL0     C32348   4.965   1.115   1.079  1.4556  0.0180  1.1763
  235MOL0     C32349   4.887   1.062   1.182 -0.6503  0.1421 -0.2394
  235MOL0     C32350   4.947   0.992   1.286 -0.1405 -0.2110  0.0575
  235MOL0     O32351   4.877   0.940   1.395 -0.5126  0.2151  0.4876
  235MOL0     C32352   4.795   0.839   1.352 -0.1413 -0.4801  0.2880
  235MOL0     C32353   4.752   0.738   1.465 -1.6783  0.3460 -0.0488
  235MOL0     C32354   4.632   0.649   1.424  0.0509  0.1954  0.1588
  235MOL0     C32355   4.498   0.724   1.428 -0.0102 -0.2897 -0.0913
  235MOL0     C32356   4.459   0.758   1.568 -0.5234 -0.4129 -1.0650
  235MOL0     C32357   4.436   0.770   1.689 -0.3205  0.5478 -0.3588
  235MOL0     C32358   5.084   0.968   1.275 -0.5259  0.2101  0.8442
  235MOL0     C32359   5.166   1.025   1.171  0.4584  0.2804 -0.5026
  235MOL0     C32360   5.316   0.998   1.181  0.0637  0.2452  0.1185
  235MOL0     H32361   5.011   1.276   0.622 -0.7025  1.5673  0.1564
  235MOL0     H32362   5.120   1.438   0.452 -0.0356 -0.0054  0.3431
  235MOL0     H32363   5.216   1.706   0.476  1.3205  0.4207  0.6818
  235MOL0     H32364   5.247   1.627   0.324 -2.2899  4.6021 -0.8370
  235MOL0     H32365   5.363   1.865   0.362 -0.9717  0.9143  2.7495
  235MOL0     H32366   5.462   1.776   0.469  0.2195 -0.0804 -0.2192
  235MOL0     H32367   5.571   1.794   0.252 -0.2886 -0.7230  2.0241
  235MOL0     H32368   5.523   1.622   0.274  2.6187 -0.1221 -1.2084
  235MOL0     H32369   5.316   1.684   0.126  0.2776  0.4753 -0.8328
  235MOL0     H32370   5.380   1.844   0.116  1.6469  0.0847  2.6521
  235MOL0     H32371   5.531   1.579   0.030 -0.0728 -0.1906 -0.2517
  235MOL0     H32372   5.598   1.736   0.016  0.7122 -1.0143  0.7861
  235MOL0     H32373   5.524   1.667  -0.207  1.6835  1.0101 -0.4613
  235MOL0     H32374   5.351   1.666  -0.148  0.4506 -0.4829  2.0565
  235MOL0     H32375   5.536   1.915  -0.120  1.1020 -1.6981 -0.9279
  235MOL0     H32376   5.357   1.922  -0.120  0.6702  1.0141  0.4304
  235MOL0     H32377   5.427   2.014  -0.330 -0.8587  0.5925 -0.2247
  235MOL0     H32378   5.545   1.885  -0.346 -0.5734  0.3661  0.8351
  235MOL0     H32379   5.176   1.820  -0.260 -0.7477 -3.1679  0.6532
  235MOL0     H32380   5.069   1.500  -0.388 -0.7739 -0.2737 -2.8133
  235MOL0     H32381   5.021   1.595  -0.529 -0.8219  1.3311 -1.0153
  235MOL0     H32382   4.980   1.716  -0.250  0.4621 -0.9366  0.8991
  235MOL0     H32383   4.890   1.747  -0.401  0.1876  0.2230  1.4221
  235MOL0     H32384   4.817   1.501  -0.393  1.6394  0.4227 -1.5027
  235MOL0     H32385   4.871   1.498  -0.221 -0.9920  1.8029  0.8532
  235MOL0     H32386   4.663   1.686  -0.328  1.4642  1.6051  0.1086
  235MOL0     H32387   4.641   1.532  -0.231  1.6103 -1.3733 -0.1649
  235MOL0     H32388   4.767   1.825   0.081 -0.4378 -4.2568  2.6239
  235MOL0     H32389   4.570   1.947   0.320 -1.3208  0.9513  0.0862
  235MOL0     H32390   4.612   2.092   0.217  2.4867 -0.1717 -2.7389
  235MOL0     H32391   4.730   1.980   0.243  0.3392 -0.0172 -1.1495
  235MOL0     H32392   4.079   2.164  -0.100  1.5920  4.3401  1.0621
  235MOL0     H32393   3.865   2.243  -0.063  3.5619  1.9420 -0.5301
  235MOL0     H32394   3.693   2.350   0.014  0.4477 -0.5518 -0.3715
  235MOL0     H32395   3.648   2.182  -0.025 -1.1208 -0.0325 -0.0510
  235MOL0     H32396   3.459   2.311  -0.011 -3.1452 -1.1887  1.0084
  235MOL0     H32397   3.459   2.184   0.125 -3.0659 -0.9209 -3.1099
  235MOL0     H32398   3.531   2.473   0.142 -0.7716 -0.9979 -1.2866
  235MOL0     H32399   3.521   2.359   0.280 -2.5394 -1.1638  0.2975
  235MOL0     H32400   3.279   2.318   0.200  0.8084  0.0272  1.6185
  235MOL0     H32401   3.292   2.474   0.107  0.3947 -0.4429 -1.4802
  235MOL0     H32402   3.294   2.477   0.398 -0.4562 -1.9119 -0.3334
  235MOL0     H32403   3.339   2.609   0.284 -1.5888  1.1512 -2.0274
  235MOL0     H32404   3.076   2.459   0.285 -1.2732  0.6103  1.7108
  235MOL0     H32405   3.111   2.623   0.204 -3.0720 -1.4742  0.2769
  235MOL0     H32406   3.153   2.701   0.433 -0.0928  0.3311 -3.5520
  235MOL0     H32407   3.073   2.563   0.501  1.6280 -1.0488 -1.1138
  235MOL0     H32408   2.952   2.789   0.326 -2.0021 -0.2359 -0.0492
  235MOL0     H32409   2.896   2.756   0.474  1.3288  0.5097 -0.5396
  235MOL0     H32410   3.875   2.064   0.341  0.7928 -0.1314  1.1025
  235MOL0     H32411   4.093   1.980   0.282  0.2486 -0.1534  0.0393
  235MOL0     H32412   4.309   1.847  -0.100  1.7783  0.6342 -1.8825
  235MOL0     H32413   4.459   1.702  -0.193 -2.5777  0.3572  1.0935
  235MOL0     H32414   5.412   1.534   0.748  0.8381 -0.4457 -0.9099
  235MOL0     H32415   5.313   1.394   0.906  1.2410  3.3348  0.0648
  235MOL0     H32416   4.914   1.163   0.996  0.5029 -3.7018 -0.5987
  235MOL0     H32417   4.779   1.046   1.175 -1.1281  1.0847  2.9915
  235MOL0     H32418   4.704   0.861   1.294  0.9583 -0.9038 -1.7017
  235MOL0     H32419   4.851   0.782   1.277  1.7075  4.3179 -2.3724
  235MOL0     H32420   4.717   0.803   1.546 -5.3524 -0.7709 -0.5226
  235MOL0     H32421   4.835   0.674   1.495 -0.8985  0.4396 -1.8559
  235MOL0     H32422   4.663   0.607   1.328 -3.0354 -0.0690 -0.8301
  235MOL0     H32423   4.618   0.567   1.496 -2.0507  0.6463  0.3357
  235MOL0     H32424   4.416   0.670   1.381 -1.0463  0.5698  0.6778
  235MOL0     H32425   4.510   0.809   1.359  4.6700 -0.6807 -0.1179
  235MOL0     H32426   4.402   0.780   1.790 -0.4136 -1.9893 -0.0803
  235MOL0     H32427   5.141   0.923   1.356  0.6011  2.8520  1.6659
  235MOL0     H32428   5.328   0.904   1.127 -1.3251 -0.0208  0.2144
  235MOL0     H32429   5.384   1.071   1.136 -0.9234  2.3503  1.8265
  235MOL0     H32430   5.347   0.974   1.283  0.8930 -0.8056 -0.3630
  236MOL0     O32431  10.713   1.595   6.946 -0.1761 -0.0370 -0.3772
  236MOL0     C32432  10.824   1.573   6.892 -0.2449 -0.6773 -0.2356
  236MOL0     O32433  10.872   1.447   6.861 -0.6010 -0.5415  0.2037
  236MOL0     C32434  10.865   1.345   6.954 -0.0614 -0.0616 -0.2922
  236MOL0     C32435  10.975   1.271   6.994 -0.3585  1.4287  0.4857
  236MOL0     C32436  10.968   1.158   7.077  0.5231 -0.6099 -0.1407
  236MOL0     C32437  10.841   1.132   7.138  0.0802 -0.0622  0.0441
  236MOL0     O32438  10.824   1.031   7.225  0.1190  0.6090  0.1820
  236MOL0     C32439  10.929   0.980   7.303 -0.1039 -0.5162  0.3408
  236MOL0     C32440  10.889   0.952   7.446 -0.4346  0.0484  0.2475
  236MOL0     C32441  10.758   0.880   7.445 -0.4253 -0.3576 -0.2848
  236MOL0     C32442  10.743   0.804   7.581  1.3172 -0.7352  0.6044
  236MOL0     C32443  10.594   0.800   7.616 -0.4576  0.4085 -0.5651
  236MOL0     C32444  10.511   0.931   7.628 -1.1023 -0.2140 -0.3482
  236MOL0     C32445  10.573   1.006   7.755  0.5639 -0.0399 -0.2088
  236MOL0     C32446  10.475   1.057   7.866 -0.3986 -0.4381  0.1633
  236MOL0     N32447  10.370   1.126   7.798  0.8373  0.3860  0.3294
  236MOL0     C32448  10.252   1.059   7.766  0.3353 -0.2948 -0.0083
  236MOL0     C32449  10.185   1.166   7.712 -0.4385  1.5055 -0.2042
  236MOL0     C32450  10.048   1.144   7.647  0.1853 -0.4617 -0.1163
  236MOL0     C32451   9.932   1.143   7.752  0.0619  0.1814  0.3028
  236MOL0     C32452   9.845   1.272   7.736 -0.5753 -0.0885  0.1024
  236MOL0     C32453   9.741   1.282   7.846 -0.6063 -0.1306 -0.6377
  236MOL0     O32454   9.797   1.376   7.947 -0.3557 -0.2403  0.0162
  236MOL0     C32455   9.823   1.510   7.908 -0.1721 -0.2662 -0.1803
  236MOL0     C32456   9.754   1.579   7.810  0.5401 -0.7328 -0.1359
  236MOL0     C32457   9.772   1.723   7.794  0.0285 -0.1565  0.1552
  236MOL0     C32458   9.678   1.797   7.703 -0.2988 -0.1580 -0.0699
  236MOL0     C32459   9.863   1.799   7.878 -0.0320  0.6479 -0.9078
  236MOL0     C32460   9.870   1.942   7.907  0.4355 -0.9990  0.6629
  236MOL0     O32461   9.988   2.004   7.896  0.3842  0.8068 -0.1046
  236MOL0     C32462   9.990   2.140   7.939  0.1653  0.2214 -0.6377
  236MOL0     C32463   9.939   2.191   8.066 -0.4975  0.1842  0.9305
  236MOL0     C32464   9.964   2.322   8.106 -0.3550 -0.3398  0.0076
  236MOL0     C32465  10.027   2.418   8.027 -1.0514 -0.2437 -0.1676
  236MOL0     O32466  10.048   2.548   8.074 -0.5060  0.3574 -0.4737
  236MOL0     C32467  10.077   2.657   7.981 -0.3852  1.1432  0.0426
  236MOL0     C32468  10.136   2.793   8.048 -0.2909  0.0227 -0.3202
  236MOL0     C32469  10.146   2.907   7.954  0.6886 -0.3304 -0.3803
  236MOL0     C32470  10.177   3.030   8.038  0.5674  0.0665  0.4975
  236MOL0     C32471  10.061   3.139   8.013  0.6349  0.0181  0.1130
  236MOL0     C32472  10.081   3.274   8.088 -0.2445  0.1026  0.1447
  236MOL0     C32473   9.966   3.371   8.074  1.2163 -0.2628 -0.0192
  236MOL0     C32474   9.839   3.352   8.149 -0.6213 -0.4488 -0.1395
  236MOL0    Cl32475   9.742   3.504   8.135  0.5158  0.0321 -0.1493
  236MOL0     C32476  10.083   2.367   7.901 -0.8975 -0.0513 -0.1320
  236MOL0     C32477  10.068   2.227   7.867  0.8708  0.4717 -0.0392
  236MOL0     O32478   9.756   1.997   7.934  0.1222  0.2335 -0.3544
  236MOL0     C32479   9.938   1.719   7.966  0.3533 -0.3158  0.9898
  236MOL0     C32480   9.919   1.580   7.988  0.8535 -0.4717 -0.2229
  236MOL0     N32481  10.262   1.284   7.716  0.8396  0.5469  0.3918
  236MOL0     N32482  10.380   1.251   7.771 -0.2363 -0.0377 -0.3835
  236MOL0     C32483  10.728   1.197   7.095  0.0889 -0.1301 -0.4505
  236MOL0     C32484  10.743   1.306   7.002 -0.1107  0.7075 -0.7271
  236MOL0     C32485  10.913   1.688   6.856  0.1696  0.2052 -0.5196
  236MOL0     C32486  11.001   1.670   6.753 -0.4922  0.1334  0.0933
  236MOL0     C32487  11.095   1.767   6.722 -0.4542  0.0756 -0.0206
  236MOL0     C32488  11.099   1.891   6.783  0.2653 -1.0683 -0.9295
  236MOL0     O32489  11.180   1.992   6.752 -0.2733  0.9282 -1.0240
  236MOL0     C32490  11.320   1.961   6.737  0.0890 -0.5926  0.4908
  236MOL0     C32491  11.350   1.958   6.590  0.5758 -0.1908 -0.1013
  236MOL0     C32492  11.496   1.941   6.548 -1.7474  0.3376  0.1950
  236MOL0     C32493  11.580   2.070   6.549 -0.5367 -0.1380 -0.6205
  236MOL0     C32494  11.623   2.082   6.688  0.6377 -0.8140  0.2500
  236MOL0     C32495  11.638   2.112   6.801 -0.9040 -0.2637 -0.4256
  236MOL0     C32496  11.002   1.911   6.887  0.0814  0.2121  0.9401
  236MOL0     C32497  10.906   1.813   6.923 -0.9045 -0.0505 -0.1590
  236MOL0     C32498  10.812   1.863   7.043  1.0200  0.1402  0.3584
  236MOL0     H32499  11.066   1.278   6.936  0.5239  0.0863  1.6300
  236MOL0     H32500  11.055   1.100   7.104  1.6415  1.2570  0.4315
  236MOL0     H32501  11.011   1.053   7.308  1.0511 -1.6830 -0.6255
  236MOL0     H32502  10.967   0.890   7.254  1.5860  1.0414 -1.4279
  236MOL0     H32503  10.966   0.882   7.479 -0.7106 -0.6447 -0.5514
  236MOL0     H32504  10.895   1.044   7.504  5.0839  0.2406 -0.1152
  236MOL0     H32505  10.680   0.953   7.418  1.6486  1.8588 -0.6254
  236MOL0     H32506  10.756   0.801   7.369  0.9246  1.0896 -1.9102
  236MOL0     H32507  10.796   0.709   7.579  0.0939 -1.5046  2.1823
  236MOL0     H32508  10.799   0.861   7.655  0.3326 -0.5650  1.2429
  236MOL0     H32509  10.590   0.758   7.717  1.3137 -2.0380 -1.4061
  236MOL0     H32510  10.541   0.728   7.553  1.1090 -0.7042 -0.6905
  236MOL0     H32511  10.516   0.999   7.542  2.6390  0.7425  0.4177
  236MOL0     H32512  10.408   0.905   7.652 -1.3219 -0.0968 -1.1336
  236MOL0     H32513  10.632   1.096   7.735 -0.1020  0.9363  1.8996
  236MOL0     H32514  10.637   0.938   7.811  1.7931  0.9146 -0.4133
  236MOL0     H32515  10.425   0.986   7.932 -3.2553  1.2667  0.0122
  236MOL0     H32516  10.530   1.125   7.931  1.5310 -0.1500 -1.6392
  236MOL0     H32517  10.214   0.958   7.782 -0.2380 -0.1992 -0.6968
  236MOL0     H32518  10.059   1.043   7.604 -1.3701 -0.4874 -0.5028
  236MOL0     H32519  10.034   1.221   7.571 -1.3872  1.4509  1.9965
  236MOL0     H32520   9.868   1.057   7.731  0.0978  0.3564 -0.5979
  236MOL0     H32521   9.980   1.124   7.848 -0.8691 -3.7073  0.1413
  236MOL0     H32522   9.908   1.361   7.727 -1.2148  0.3270 -0.3681
  236MOL0     H32523   9.782   1.273   7.646  1.9727 -0.5800 -1.8148
  236MOL0     H32524   9.646   1.320   7.806  0.8501  2.3281 -2.0305
  236MOL0     H32525   9.733   1.189   7.903 -3.6372  2.2628  3.4442
  236MOL0     H32526   9.682   1.538   7.740 -0.3321 -0.0954  0.3687
  236MOL0     H32527   9.611   1.870   7.750 -0.2992  1.4558 -2.4469
  236MOL0     H32528   9.621   1.723   7.646  0.9919  0.3442 -2.1023
  236MOL0     H32529   9.724   1.861   7.628 -1.0184  1.5662  0.9112
  236MOL0     H32530   9.890   2.122   8.133  1.8089 -0.5659  1.9178
  236MOL0     H32531   9.929   2.352   8.204  1.8577  2.5679  0.0467
  236MOL0     H32532  10.142   2.623   7.900 -0.6238  2.7515 -0.8677
  236MOL0     H32533   9.987   2.692   7.929 -0.1162  0.9809 -0.5420
  236MOL0     H32534  10.066   2.816   8.129  0.5392 -2.6207  1.2783
  236MOL0     H32535  10.237   2.768   8.083 -0.8779 -1.7535  0.2085
  236MOL0     H32536  10.055   2.924   7.896 -0.8893  3.8823  2.8584
  236MOL0     H32537  10.228   2.880   7.886 -2.0076 -1.3000 -3.4994
  236MOL0     H32538  10.269   3.077   8.004  1.8444 -0.7803  2.5449
  236MOL0     H32539  10.192   2.999   8.142 -0.2108 -2.7376 -0.1326
  236MOL0     H32540  10.055   3.159   7.906 -0.7480 -3.3958 -0.5588
  236MOL0     H32541   9.971   3.087   8.046  2.7117 -3.0699  1.2841
  236MOL0     H32542  10.174   3.323   8.058 -0.6134 -0.3086 -1.7769
  236MOL0     H32543  10.106   3.263   8.194  2.4684  0.1233 -0.4209
  236MOL0     H32544   9.937   3.363   7.968  1.4121 -3.4245  0.0849
  236MOL0     H32545  10.007   3.471   8.087  4.4612 -1.3145 -1.2302
  236MOL0     H32546   9.861   3.346   8.255 -2.1790 -0.1024  0.2314
  236MOL0     H32547   9.780   3.268   8.111 -4.5657  3.2462 -3.4045
  236MOL0     H32548  10.149   2.418   7.831 -0.4521 -1.3124 -0.6636
  236MOL0     H32549  10.118   2.181   7.782  0.4548 -0.8130  0.3932
  236MOL0     H32550  10.003   1.775   8.033  1.7695 -0.2915 -0.3598
  236MOL0     H32551   9.982   1.518   8.051  0.1765 -1.7250 -0.7466
  236MOL0     H32552  10.634   1.153   7.126  0.6028  0.8038  2.8141
  236MOL0     H32553  10.652   1.355   6.971 -1.0728 -0.2672  0.4319
  236MOL0     H32554  11.007   1.573   6.705 -1.5757  0.3269 -0.4702
  236MOL0     H32555  11.165   1.754   6.640  1.1980  1.3840  1.1144
  236MOL0     H32556  11.371   2.046   6.784 -0.1598  1.3159 -2.3968
  236MOL0     H32557  11.360   1.867   6.774  1.2422 -1.1170 -1.8902
  236MOL0     H32558  11.299   2.044   6.543 -2.6400 -1.7175  0.3293
  236MOL0     H32559  11.300   1.875   6.541 -3.9498  1.9967  0.2913
  236MOL0     H32560  11.540   1.865   6.614 -0.7571  1.3009  0.6781
  236MOL0     H32561  11.505   1.901   6.447  3.7340  1.4302 -0.0452
  236MOL0     H32562  11.535   2.155   6.496  1.5685  1.6506  0.3015
  236MOL0     H32563  11.672   2.047   6.495  0.0004 -1.0282  0.6375
  236MOL0     H32564  11.656   2.146   6.901  0.4541  0.9554 -1.0491
  236MOL0     H32565  11.001   2.004   6.942  1.4320  0.2455  0.9557
  236MOL0     H32566  10.713   1.830   7.012  0.9624  2.0273 -1.7280
  236MOL0     H32567  10.834   1.822   7.142 -1.8808  0.0021  1.0211
  236MOL0     H32568  10.814   1.972   7.055  1.8200 -0.0154  1.8293
  237MOL0     O32569   0.059   7.655   1.473 -0.3647 -0.6312  0.3806
  237MOL0     C32570   0.147   7.740   1.445 -0.0091 -0.1944 -0.7713
  237MOL0     O32571   0.274   7.730   1.486  0.2855 -0.3176 -1.0969
  237MOL0     C32572   0.306   7.650   1.592 -0.8145  0.5053  0.3181
  237MOL0     C32573   0.232   7.609   1.698 -0.2900  0.0622  0.1184
  237MOL0     C32574   0.297   7.539   1.801  1.2273  0.1270  0.4981
  237MOL0     C32575   0.433   7.496   1.794 -0.5541 -0.0004  0.1531
  237MOL0     O32576   0.495   7.434   1.906 -0.2525 -0.9020  0.0552
  237MOL0     C32577   0.535   7.307   1.869 -0.0888  0.5728  0.9541
  237MOL0     C32578   0.433   7.206   1.821 -0.1488  0.5011  0.1081
  237MOL0     C32579   0.353   7.129   1.926  0.2376  0.2196  0.7460
  237MOL0     C32580   0.225   7.076   1.866  0.3791  0.1440  0.0146
  237MOL0     C32581   0.110   7.171   1.829 -0.9013 -0.2417 -0.3086
  237MOL0     C32582   0.054   7.257   1.940 -0.2250  0.2913  0.2792
  237MOL0     C32583  -0.072   7.324   1.885  0.6921 -0.6745 -0.0938
  237MOL0     C32584  -0.125   7.423   1.987 -0.7411  0.6475 -0.3135
  237MOL0     N32585  -0.053   7.550   2.018  0.3689  0.0169 -0.5648
  237MOL0     C32586   0.056   7.559   2.104  0.5945  0.3117  0.2853
  237MOL0     C32587   0.080   7.682   2.132  0.0838  0.1381 -0.9023
  237MOL0     C32588   0.186   7.729   2.224  0.4660  0.1744  0.1756
  237MOL0     C32589   0.260   7.839   2.150  0.2549  0.6084 -0.1439
  237MOL0     C32590   0.374   7.908   2.229  0.0326  0.1467 -0.1148
  237MOL0     C32591   0.340   7.969   2.367 -0.6574 -0.4161  0.7757
  237MOL0     O32592   0.321   7.865   2.457  0.1909 -0.6001 -0.5308
  237MOL0     C32593   0.283   7.899   2.587  1.1127  0.1007 -0.2740
  237MOL0     C32594   0.232   7.793   2.669  0.4887 -0.1675  0.3026
  237MOL0     C32595   0.216   7.810   2.809 -0.5453  0.9735  0.0630
  237MOL0     C32596   0.185   7.681   2.891 -0.5958  0.5956  0.5584
  237MOL0     C32597   0.229   7.933   2.870 -0.5795  0.1033 -0.2039
  237MOL0     C32598   0.226   7.952   3.020 -0.5031  0.5721 -0.3791
  237MOL0     O32599   0.240   8.084   3.059  0.5365 -0.5505 -0.2960
  237MOL0     C32600   0.193   8.133   3.182 -0.0240  0.2988 -0.2802
  237MOL0     C32601   0.251   8.256   3.223 -0.4452  1.1984 -0.0494
  237MOL0     C32602   0.195   8.319   3.334 -0.5468  0.5560 -1.0605
  237MOL0     C32603   0.090   8.260   3.407  1.0957 -0.2450 -0.1561
  237MOL0     O32604   0.041   8.320   3.526  0.0666 -0.2314  0.2754
  237MOL0     C32605   0.030   8.240   3.638 -0.8421 -0.4569  0.1987
  237MOL0     C32606   0.020   8.320   3.766 -0.2071 -0.4604 -0.3347
  237MOL0     C32607  -0.015   8.244   3.888 -0.4170  0.2533 -0.1072
  237MOL0     C32608  -0.028   8.326   4.018 -0.3781  0.2806  0.1267
  237MOL0     C32609   0.112   8.383   4.057 -0.4505  0.4901 -0.5384
  237MOL0     C32610   0.128   8.385   4.216 -0.1521 -0.7355 -0.2029
  237MOL0     C32611   0.038   8.497   4.276  0.1061  0.8124  0.1706
  237MOL0     C32612   0.079   8.498   4.422  0.2613 -0.2660 -0.3927
  237MOL0    Cl32613  -0.014   8.370   4.498  0.2541 -0.8159  0.2517
  237MOL0     C32614   0.025   8.147   3.360  0.6600  0.4158  0.4394
  237MOL0     C32615   0.072   8.084   3.243  0.0314 -0.4091 -0.8787
  237MOL0     O32616   0.202   7.857   3.097  0.6050 -0.5044  0.0699
  237MOL0     C32617   0.251   8.048   2.787  0.0376  0.5065  0.8500
  237MOL0     C32618   0.283   8.022   2.650 -0.3270  0.1735  0.0445
  237MOL0     N32619  -0.016   7.756   2.065  0.5649 -0.4804 -0.7423
  237MOL0     N32620  -0.095   7.675   2.011  0.9148 -0.5513  0.6445
  237MOL0     C32621   0.508   7.526   1.680  0.7131 -0.5199  0.3750
  237MOL0     C32622   0.444   7.604   1.573 -0.1360  0.2670  0.0006
  237MOL0     C32623   0.119   7.843   1.340  1.1224  0.0261  0.3140
  237MOL0     C32624   0.214   7.850   1.242 -0.6037  0.0923  1.0732
  237MOL0     C32625   0.192   7.932   1.129 -0.6333  0.5643  0.3783
  237MOL0     C32626   0.078   8.012   1.119  0.1131 -0.0708  0.5716
  237MOL0     O32627   0.041   8.105   1.030  0.0933 -0.3007  0.1316
  237MOL0     C32628   0.138   8.216   1.019  0.6599  0.2265  0.1195
  237MOL0     C32629   0.213   8.207   0.891  0.8039  0.8541  0.6804
  237MOL0     C32630   0.145   8.120   0.777 -0.1248 -0.5046  0.0789
  237MOL0     C32631   0.214   8.127   0.637  0.5880 -0.3169  0.0120
  237MOL0     C32632   0.351   8.069   0.650 -0.5447 -0.3195  0.2328
  237MOL0     C32633   0.463   8.020   0.668  0.5121  0.5564 -0.0623
  237MOL0     C32634  -0.020   8.007   1.221  0.1802  0.0299  0.9911
  237MOL0     C32635   0.001   7.917   1.331  0.3229 -0.1886  0.5111
  237MOL0     C32636  -0.094   7.935   1.450  0.6193 -0.0454  0.5837
  237MOL0     H32637   0.135   7.657   1.712  0.0482  1.3403 -1.6148
  237MOL0     H32638   0.240   7.506   1.887 -0.8333 -0.5661 -1.0576
  237MOL0     H32639   0.587   7.252   1.949  0.6809 -3.8201 -2.1830
  237MOL0     H32640   0.607   7.315   1.787 -0.0388  3.9439  1.1870
  237MOL0     H32641   0.365   7.247   1.746 -0.5664  2.2488  1.3792
  237MOL0     H32642   0.480   7.121   1.770 -3.2460 -0.4460 -1.4145
  237MOL0     H32643   0.406   7.049   1.978 -1.5497 -2.4060 -1.2239
  237MOL0     H32644   0.333   7.193   2.013 -0.3558 -1.7820  2.1509
  237MOL0     H32645   0.253   7.022   1.775  0.8838 -0.5902  0.5915
  237MOL0     H32646   0.178   7.004   1.933 -1.4055 -0.3790 -1.6760
  237MOL0     H32647   0.026   7.111   1.794 -1.6702  1.5161 -1.5992
  237MOL0     H32648   0.132   7.233   1.742 -1.6555  0.6044  0.0897
  237MOL0     H32649   0.031   7.186   2.020  0.8250  0.6879  0.9450
  237MOL0     H32650   0.127   7.334   1.963  4.9008 -2.9662 -3.0572
  237MOL0     H32651  -0.159   7.259   1.870 -0.9251  0.6005  2.8745
  237MOL0     H32652  -0.049   7.371   1.789  4.9269 -1.6707  0.2227
  237MOL0     H32653  -0.228   7.453   1.966 -1.6835  3.4941  6.1576
  237MOL0     H32654  -0.133   7.364   2.078  3.6757 -2.0580 -1.3730
  237MOL0     H32655   0.108   7.475   2.148 -0.9531 -1.1901 -0.6033
  237MOL0     H32656   0.247   7.641   2.243  2.3079  0.9194 -1.8515
  237MOL0     H32657   0.156   7.779   2.317 -0.1181 -0.3839  0.2891
  237MOL0     H32658   0.301   7.799   2.056 -0.5177  0.6898 -0.5204
  237MOL0     H32659   0.189   7.916   2.122 -0.7825 -0.0635  0.5864
  237MOL0     H32660   0.456   7.838   2.248 -1.6700 -1.2719  2.6261
  237MOL0     H32661   0.429   7.981   2.170  3.0071 -0.6799  1.4517
  237MOL0     H32662   0.426   8.030   2.396 -1.6673 -0.5715  4.5786
  237MOL0     H32663   0.251   8.032   2.363 -1.0979 -1.0901 -0.5192
  237MOL0     H32664   0.235   7.695   2.624  3.1778  1.1846 -2.8546
  237MOL0     H32665   0.268   7.651   2.955 -1.1851  1.8600  1.9713
  237MOL0     H32666   0.157   7.593   2.832 -1.1356  0.2106  1.3692
  237MOL0     H32667   0.097   7.689   2.956 -1.3225  2.0296 -0.5594
  237MOL0     H32668   0.340   8.280   3.167 -0.0782 -1.3160 -0.6617
  237MOL0     H32669   0.249   8.403   3.378  4.2779 -2.3863 -0.6053
  237MOL0     H32670  -0.058   8.177   3.621 -1.5790  1.6237 -7.1036
  237MOL0     H32671   0.122   8.181   3.644  0.5270  1.5375 -0.1709
  237MOL0     H32672   0.107   8.384   3.778  0.6091 -1.3698 -1.1957
  237MOL0     H32673  -0.059   8.393   3.749  1.7063  1.5357 -1.0516
  237MOL0     H32674   0.063   8.170   3.908  2.4210  2.2908 -2.8160
  237MOL0     H32675  -0.105   8.186   3.865  1.1934 -1.5611 -2.3830
  237MOL0     H32676  -0.069   8.271   4.103 -2.8014  1.8213  0.0486
  237MOL0     H32677  -0.097   8.408   3.994 -3.1215 -1.3350  1.9984
  237MOL0     H32678   0.199   8.333   4.014 -0.5701  0.6191 -0.9395
  237MOL0     H32679   0.121   8.486   4.019  0.9513  0.2443 -0.9602
  237MOL0     H32680   0.226   8.423   4.246 -0.6036  1.7521 -1.6483
  237MOL0     H32681   0.114   8.288   4.265  0.6324 -1.1768 -0.8422
  237MOL0     H32682  -0.070   8.485   4.265  0.5383 -1.2649 -3.5945
  237MOL0     H32683   0.053   8.599   4.240 -2.7284  1.3184  0.1668
  237MOL0     H32684   0.036   8.583   4.476  0.9947 -1.6022  2.4931
  237MOL0     H32685   0.186   8.488   4.438  0.6140 -0.6133 -2.7001
  237MOL0     H32686  -0.067   8.118   3.410 -1.7170  2.8332 -2.2084
  237MOL0     H32687   0.014   7.995   3.223  0.7855 -0.4318 -3.2565
  237MOL0     H32688   0.242   8.152   2.816 -0.6833  1.0584 -1.1771
  237MOL0     H32689   0.323   8.095   2.581  1.6320 -1.2367 -0.4112
  237MOL0     H32690   0.614   7.502   1.672  0.2256 -3.2851  1.1203
  237MOL0     H32691   0.512   7.628   1.491  3.6258  2.2213  3.3160
  237MOL0     H32692   0.308   7.799   1.255  0.1502  1.6189  1.9564
  237MOL0     H32693   0.268   7.922   1.052 -1.6545 -3.4307 -0.3480
  237MOL0     H32694   0.076   8.305   1.003 -2.2869 -2.1561 -3.2535
  237MOL0     H32695   0.209   8.220   1.102  1.0132  1.4780 -0.2099
  237MOL0     H32696   0.311   8.161   0.905 -0.0229 -2.0013 -1.7046
  237MOL0     H32697   0.229   8.307   0.850 -4.6512  1.8735  0.2545
  237MOL0     H32698   0.140   8.021   0.824  1.0263  0.2262  1.9093
  237MOL0     H32699   0.038   8.138   0.765 -0.0949  0.1973  0.7485
  237MOL0     H32700   0.202   8.220   0.581  1.8543 -0.3966 -0.4436
  237MOL0     H32701   0.164   8.053   0.574 -0.7990  1.6929 -1.3394
  237MOL0     H32702   0.560   7.983   0.697 -0.0153 -0.7240  0.1568
  237MOL0     H32703  -0.111   8.065   1.222  0.2870  0.2125  0.5771
  237MOL0     H32704  -0.195   7.931   1.406  1.4177 -0.2492 -1.3421
  237MOL0     H32705  -0.083   7.875   1.540  0.3804 -1.6228 -0.4043
  237MOL0     H32706  -0.070   8.040   1.469 -0.1751  0.3482 -0.4837
  238MOL0     O32707   6.127   6.491   4.980  0.3089  0.4407 -0.1065
  238MOL0     C32708   6.245   6.475   4.957  0.3272 -0.5782  0.5907
  238MOL0     O32709   6.295   6.384   4.871 -0.7823  0.3282  0.0256
  238MOL0     C32710   6.211   6.284   4.816 -0.7512 -0.4507  0.0198
  238MOL0     C32711   6.206   6.256   4.675  0.0774 -0.2929  0.3758
  238MOL0     C32712   6.126   6.163   4.625 -0.1281  0.1038  0.5903
  238MOL0     C32713   6.065   6.071   4.706  0.8942  0.0019 -0.1876
  238MOL0     O32714   5.985   5.984   4.637 -0.4419  0.5687 -0.6836
  238MOL0     C32715   5.992   5.848   4.684  0.5323  0.7488 -0.6566
  238MOL0     C32716   5.930   5.735   4.598  0.0959 -0.7127  1.1009
  238MOL0     C32717   6.006   5.720   4.466 -0.1297  0.6838  0.0495
  238MOL0     C32718   5.968   5.595   4.391  0.3103 -0.4093 -0.1784
  238MOL0     C32719   6.077   5.556   4.283 -0.3981 -0.9855 -0.2156
  238MOL0     C32720   6.212   5.501   4.342  0.3863  0.6905  0.3623
  238MOL0     C32721   6.314   5.449   4.246  0.3241 -0.4059  0.6899
  238MOL0     C32722   6.367   5.575   4.158  0.1200  0.5737  0.0487
  238MOL0     N32723   6.495   5.544   4.099  0.4768 -0.1031 -0.4251
  238MOL0     C32724   6.617   5.563   4.163 -0.0496  0.6064 -0.3024
  238MOL0     C32725   6.707   5.551   4.062 -1.0090 -0.4483  0.0844
  238MOL0     C32726   6.858   5.588   4.050  0.5161  1.0581  0.3929
  238MOL0     C32727   6.890   5.729   4.002  0.6355  0.5331  0.0463
  238MOL0     C32728   6.843   5.829   4.102  0.7346 -0.1349 -0.0247
  238MOL0     C32729   6.914   5.957   4.063 -0.2897 -0.0316  0.4157
  238MOL0     O32730   6.892   6.039   4.175 -1.4373  0.0773 -0.2972
  238MOL0     C32731   6.945   6.162   4.185 -0.1802  0.6411 -0.1768
  238MOL0     C32732   7.033   6.211   4.085 -1.0112 -0.0142  0.0858
  238MOL0     C32733   7.091   6.340   4.091  0.6455 -0.8117 -0.0197
  238MOL0     C32734   7.188   6.383   3.979  0.2933  0.4218 -0.8387
  238MOL0     C32735   7.039   6.420   4.188  0.1455 -0.7055 -0.1165
  238MOL0     C32736   7.063   6.567   4.200 -0.3824  1.2438 -0.2164
  238MOL0     O32737   6.952   6.649   4.237  0.0551 -0.3333 -0.2148
  238MOL0     C32738   6.965   6.782   4.237 -0.6881 -0.7433  0.5082
  238MOL0     C32739   6.985   6.854   4.117  0.6080 -0.0296  0.7889
  238MOL0     C32740   7.001   6.993   4.113 -0.2813 -0.6808 -0.6228
  238MOL0     C32741   7.003   7.068   4.238  0.9157  0.4022 -0.6669
  238MOL0     O32742   7.045   7.204   4.245  0.5529  0.3212  0.0630
  238MOL0     C32743   7.150   7.238   4.151  0.1585  0.8204  0.5011
  238MOL0     C32744   7.196   7.375   4.171 -0.7603 -0.0657  0.7953
  238MOL0     C32745   7.307   7.432   4.071  0.1261  0.2424 -0.0540
  238MOL0     C32746   7.441   7.365   4.104 -0.1963  0.0859  0.2133
  238MOL0     C32747   7.542   7.370   3.977  0.1947 -0.0260  0.3966
  238MOL0     C32748   7.672   7.288   4.014  0.3931 -0.3132  0.3551
  238MOL0     C32749   7.788   7.281   3.910 -0.6571 -0.0255 -0.8509
  238MOL0     C32750   7.758   7.189   3.788 -0.2205 -0.4403  0.2977
  238MOL0    Cl32751   7.703   7.022   3.840 -0.4811  0.2025 -0.2658
  238MOL0     C32752   6.991   6.988   4.359 -0.2414 -0.8917 -0.2239
  238MOL0     C32753   6.963   6.847   4.362 -0.4321  0.8045 -0.1647
  238MOL0     O32754   7.179   6.611   4.188 -0.3102 -0.1480  0.2377
  238MOL0     C32755   6.963   6.371   4.300 -1.1768 -0.3424  0.4288
  238MOL0     C32756   6.917   6.244   4.295  0.3759  0.4358  0.7105
  238MOL0     N32757   6.639   5.522   3.939 -0.9111 -1.6188 -0.4115
  238MOL0     N32758   6.515   5.515   3.968  0.1816  0.3753  0.2225
  238MOL0     C32759   6.078   6.080   4.846  0.6223 -0.2186 -0.2078
  238MOL0     C32760   6.144   6.191   4.895 -0.1168  0.3485  0.7725
  238MOL0     C32761   6.331   6.570   5.023 -0.1190  0.0429  0.7527
  238MOL0     C32762   6.469   6.536   5.025  0.0161 -0.2006 -0.1671
  238MOL0     C32763   6.560   6.614   5.095  0.2799 -0.4169  0.0739
  238MOL0     C32764   6.520   6.719   5.180  0.7492  0.0637 -0.0618
  238MOL0     O32765   6.614   6.785   5.256 -0.2411 -0.3752  0.4269
  238MOL0     C32766   6.575   6.882   5.356  0.3855 -0.1295 -0.0902
  238MOL0     C32767   6.695   6.937   5.433 -0.2994  0.5707  0.1707
  238MOL0     C32768   6.754   6.835   5.529  0.5169 -0.4364 -0.7202
  238MOL0     C32769   6.902   6.846   5.556  0.0716  0.9210  0.2348
  238MOL0     C32770   6.984   6.770   5.462 -0.1047 -0.3745 -0.7100
  238MOL0     C32771   7.040   6.695   5.387 -0.4627 -0.4203 -0.1731
  238MOL0     C32772   6.384   6.759   5.177 -0.5453 -0.0116 -0.3878
  238MOL0     C32773   6.290   6.685   5.103  0.3150  0.2966  0.2462
  238MOL0     C32774   6.152   6.750   5.109 -0.4934 -0.0508  0.6539
  238MOL0     H32775   6.259   6.319   4.604  0.3608 -2.2514 -1.2397
  238MOL0     H32776   6.102   6.145   4.521  0.2520  0.3174  0.4640
  238MOL0     H32777   5.949   5.838   4.784 -0.9673  3.6685 -0.9131
  238MOL0     H32778   6.096   5.813   4.688  0.4938 -0.2656 -4.7276
  238MOL0     H32779   5.928   5.645   4.660 -0.3410  1.0153  3.7151
  238MOL0     H32780   5.824   5.758   4.580 -0.2419 -1.3397  2.2276
  238MOL0     H32781   5.986   5.804   4.399 -0.3566 -0.0698 -0.8585
  238MOL0     H32782   6.111   5.719   4.497 -1.2085 -2.2654  4.5730
  238MOL0     H32783   5.957   5.507   4.455  2.3062  0.7939  1.9628
  238MOL0     H32784   5.877   5.625   4.338  0.1099  0.2649  0.5248
  238MOL0     H32785   6.096   5.641   4.217 -0.3162  1.8979  3.2059
  238MOL0     H32786   6.032   5.476   4.224 -1.3314 -1.0640  0.5833
  238MOL0     H32787   6.264   5.581   4.396  2.0514 -0.0766 -0.0221
  238MOL0     H32788   6.182   5.420   4.409 -0.9347 -1.6154 -2.7765
  238MOL0     H32789   6.274   5.371   4.180  0.6787  0.4503 -0.5803
  238MOL0     H32790   6.405   5.404   4.286 -0.7766 -3.8081 -0.3080
  238MOL0     H32791   6.300   5.595   4.074  0.3209  0.0345 -0.2494
  238MOL0     H32792   6.365   5.672   4.208 -0.9490  0.8365 -0.4733
  238MOL0     H32793   6.624   5.596   4.266 -1.3530 -3.1381  1.1408
  238MOL0     H32794   6.911   5.525   3.978  1.3968 -1.4896  3.0607
  238MOL0     H32795   6.895   5.562   4.150  3.6384  2.8874 -0.1613
  238MOL0     H32796   6.998   5.737   3.989  0.7387 -1.0495 -0.2729
  238MOL0     H32797   6.843   5.747   3.905  1.3332 -1.1731 -0.6391
  238MOL0     H32798   6.734   5.836   4.100  0.5303 -2.4037 -2.8130
  238MOL0     H32799   6.863   5.798   4.206 -1.2170  1.8294  1.0239
  238MOL0     H32800   7.018   5.927   4.047 -1.0807 -3.1258  0.4381
  238MOL0     H32801   6.867   5.998   3.973  1.0055 -1.1056 -0.7945
  238MOL0     H32802   7.071   6.148   4.005 -0.0016  0.3988  0.2251
  238MOL0     H32803   7.186   6.488   3.949  0.0197  0.9436  0.8658
  238MOL0     H32804   7.155   6.308   3.906  0.2989 -2.1418  1.5842
  238MOL0     H32805   7.285   6.349   4.017  0.8587  0.0533 -2.5182
  238MOL0     H32806   6.969   6.813   4.017  2.2186  0.0815  0.4664
  238MOL0     H32807   7.012   7.040   4.016  3.2391 -4.0248 -2.1298
  238MOL0     H32808   7.229   7.163   4.160  0.6980  1.6068  3.6495
  238MOL0     H32809   7.114   7.237   4.048  3.8522 -2.8794 -1.0024
  238MOL0     H32810   7.104   7.433   4.168 -2.4207 -2.5846 -0.7973
  238MOL0     H32811   7.234   7.364   4.273 -3.7048 -1.1271  1.8652
  238MOL0     H32812   7.322   7.539   4.091  0.2670 -0.2485  2.8044
  238MOL0     H32813   7.279   7.412   3.967 -0.8331  1.4399 -0.0507
  238MOL0     H32814   7.425   7.262   4.139 -2.1512  0.7578  1.4375
  238MOL0     H32815   7.486   7.428   4.181  0.8750  2.7588 -2.4385
  238MOL0     H32816   7.502   7.323   3.887  1.3215  3.5543 -2.2101
  238MOL0     H32817   7.564   7.476   3.958  2.0875 -0.0323  2.2149
  238MOL0     H32818   7.632   7.189   4.041  0.1376 -0.9574 -2.1547
  238MOL0     H32819   7.715   7.329   4.106 -2.2151 -0.9316  1.9402
  238MOL0     H32820   7.872   7.231   3.961 -0.4158  0.1714 -1.0493
  238MOL0     H32821   7.821   7.381   3.880  3.5507 -0.8245  0.3546
  238MOL0     H32822   7.856   7.183   3.739 -0.6264 -1.5584 -0.4072
  238MOL0     H32823   7.683   7.225   3.717 -1.7098 -1.6924  1.1942
  238MOL0     H32824   7.002   7.048   4.449  0.5736  3.3657 -2.8940
  238MOL0     H32825   6.938   6.794   4.453 -0.3015  0.6626 -0.2118
  238MOL0     H32826   6.952   6.438   4.384  2.2692 -0.1156  0.8505
  238MOL0     H32827   6.855   6.208   4.376 -0.2731 -0.3581 -0.1257
  238MOL0     H32828   6.014   6.016   4.905 -1.0427 -0.8852 -2.5841
  238MOL0     H32829   6.135   6.210   5.001 -0.1750 -1.1279  1.0491
  238MOL0     H32830   6.508   6.456   4.964 -0.5754  0.7833 -1.8862
  238MOL0     H32831   6.665   6.597   5.075  0.5411  1.1442  0.0296
  238MOL0     H32832   6.520   6.962   5.304  1.5562  0.4968 -0.4034
  238MOL0     H32833   6.502   6.849   5.430  1.6600  2.5266  2.5484
  238MOL0     H32834   6.661   7.026   5.487 -3.8652 -0.0953 -0.7089
  238MOL0     H32835   6.767   6.975   5.360  0.3207 -0.3508  0.2864
  238MOL0     H32836   6.693   6.847   5.619  2.1866  1.4356  0.2427
  238MOL0     H32837   6.734   6.733   5.497 -3.1654  0.1783 -0.9080
  238MOL0     H32838   6.929   6.813   5.658 -2.5154  1.5707  1.2051
  238MOL0     H32839   6.928   6.951   5.541 -1.5201  1.3955  0.5877
  238MOL0     H32840   7.092   6.634   5.316 -1.8123 -0.1052 -1.4841
  238MOL0     H32841   6.348   6.840   5.240  3.1832  0.3960  1.4929
  238MOL0     H32842   6.160   6.856   5.133 -0.6981  0.6205 -1.9557
  238MOL0     H32843   6.103   6.747   5.011  3.5265 -3.1456 -1.5934
  238MOL0     H32844   6.093   6.691   5.180 -1.4898 -1.1067 -0.9702
  239MOL0     O32845   2.305   2.508   7.190 -0.1710 -0.3091 -0.3270
  239MOL0     C32846   2.283   2.602   7.117  0.9190  0.5781  0.5621
  239MOL0     O32847   2.221   2.586   6.990  0.8932  0.0914  0.4087
  239MOL0     C32848   2.280   2.495   6.912  0.1052  1.3318 -0.1981
  239MOL0     C32849   2.409   2.460   6.920 -0.6389  0.9157 -0.1076
  239MOL0     C32850   2.463   2.378   6.818  0.2052 -0.1576 -0.4616
  239MOL0     C32851   2.399   2.327   6.704 -0.1828  0.3593  0.1460
  239MOL0     O32852   2.464   2.242   6.613 -0.3019 -0.6112  0.4124
  239MOL0     C32853   2.382   2.138   6.551 -0.2420 -0.5613 -0.4525
  239MOL0     C32854   2.438   2.067   6.437  0.7243  0.2514 -0.1348
  239MOL0     C32855   2.588   2.039   6.441 -0.2236  1.1895  0.9881
  239MOL0     C32856   2.645   1.961   6.321  0.8501 -0.2232 -0.2432
  239MOL0     C32857   2.621   2.017   6.183  0.3358 -1.0224 -0.0398
  239MOL0     C32858   2.701   2.140   6.138 -0.5732  0.1244 -1.3181
  239MOL0     C32859   2.652   2.188   6.003  0.3574 -0.7838 -0.6659
  239MOL0     C32860   2.714   2.124   5.873  0.0170 -0.5744  0.5054
  239MOL0     N32861   2.856   2.156   5.833  0.2950 -0.8762  0.7191
  239MOL0     C32862   2.955   2.060   5.864 -0.2301 -1.3386  0.3058
  239MOL0     C32863   3.066   2.111   5.804  0.7903 -1.1944  0.9011
  239MOL0     C32864   3.205   2.061   5.830 -0.2065 -0.1276 -0.1285
  239MOL0     C32865   3.203   1.934   5.927  0.2378 -0.3263  0.7775
  239MOL0     C32866   3.340   1.877   5.953 -0.3211 -0.0094 -0.3495
  239MOL0     C32867   3.401   1.800   5.837 -1.1902  0.5410 -0.4332
  239MOL0     O32868   3.457   1.872   5.728  0.6155 -0.6159  0.3675
  239MOL0     C32869   3.589   1.922   5.721 -0.8963  0.8903 -0.0394
  239MOL0     C32870   3.616   2.036   5.648 -0.2755  1.1512  0.3750
  239MOL0     C32871   3.739   2.092   5.638  0.2312  0.3117 -0.7602
  239MOL0     C32872   3.742   2.205   5.536 -0.0411  0.6348 -0.4551
  239MOL0     C32873   3.848   2.026   5.672 -0.4826  1.0839 -0.4836
  239MOL0     C32874   3.979   2.061   5.635 -0.1856 -0.1910 -0.1270
  239MOL0     O32875   4.031   2.160   5.706 -0.1350 -0.3177  0.6746
  239MOL0     C32876   4.136   2.238   5.660  0.7826  0.1836 -0.1013
  239MOL0     C32877   4.110   2.366   5.618  0.6810  0.1492  0.4756
  239MOL0     C32878   4.213   2.442   5.568 -0.0463  0.3564 -0.0508
  239MOL0     C32879   4.346   2.397   5.586 -0.2618  0.0248  0.7572
  239MOL0     O32880   4.457   2.473   5.551  0.5156  0.1953 -0.6551
  239MOL0     C32881   4.438   2.562   5.446 -0.4855 -1.2930 -0.4088
  239MOL0     C32882   4.573   2.606   5.387  0.0010  0.0510  0.4322
  239MOL0     C32883   4.593   2.749   5.334  0.8551  0.7370 -0.5072
  239MOL0     C32884   4.737   2.765   5.272  0.7287  0.1667  0.0418
  239MOL0     C32885   4.772   2.905   5.200  1.4592  1.0524  0.4650
  239MOL0     C32886   4.879   2.871   5.090 -0.4752  0.1549  0.2186
  239MOL0     C32887   4.953   3.006   5.067 -0.0132 -0.4484  0.3671
  239MOL0     C32888   5.075   3.013   4.963  0.0733  0.5534 -0.1936
  239MOL0    Cl32889   5.145   3.174   4.953  0.0483  0.0155 -0.0430
  239MOL0     C32890   4.370   2.265   5.626 -0.1671  0.4192 -0.4439
  239MOL0     C32891   4.260   2.188   5.659 -0.3017 -0.0694 -0.0230
  239MOL0     O32892   4.025   2.008   5.539  0.2487  0.1656 -0.2237
  239MOL0     C32893   3.829   1.904   5.751  0.1574  0.0659 -0.2236
  239MOL0     C32894   3.702   1.852   5.776  0.7460 -0.2333 -0.3191
  239MOL0     N32895   3.038   2.229   5.750  0.4338 -0.2943  0.2587
  239MOL0     N32896   2.913   2.266   5.768 -0.0705  0.5355 -0.2746
  239MOL0     C32897   2.269   2.365   6.702  1.0072 -0.5090 -1.1660
  239MOL0     C32898   2.211   2.447   6.799 -0.6481  0.4785 -0.9424
  239MOL0     C32899   2.305   2.738   7.171 -0.7403  0.4484 -0.4569
  239MOL0     C32900   2.396   2.755   7.273  0.1097 -0.0872 -0.6297
  239MOL0     C32901   2.415   2.876   7.339 -0.9157 -0.2202  0.0307
  239MOL0     C32902   2.363   2.995   7.282 -0.4195 -0.2101  0.7384
  239MOL0     O32903   2.390   3.112   7.359 -0.2791  0.5383 -0.7694
  239MOL0     C32904   2.377   3.247   7.304  0.1906  0.4008 -0.3578
  239MOL0     C32905   2.447   3.253   7.171 -0.0441 -0.1556  0.3649
  239MOL0     C32906   2.598   3.193   7.172  0.4970  0.8102  0.3266
  239MOL0     C32907   2.665   3.207   7.038 -0.1511 -0.4732  0.1093
  239MOL0     C32908   2.708   3.350   7.021 -0.1568  0.6692  0.7981
  239MOL0     C32909   2.731   3.467   6.992  0.5377  0.7993 -0.1441
  239MOL0     C32910   2.267   2.978   7.176  0.2513 -0.7325  0.7177
  239MOL0     C32911   2.242   2.851   7.120  0.4811  0.0208  0.9490
  239MOL0     C32912   2.153   2.848   7.005  0.6803 -0.0429  0.5051
  239MOL0     H32913   2.480   2.476   7.000  0.4445 -1.3786 -0.5273
  239MOL0     H32914   2.565   2.345   6.833 -0.3751 -2.3702 -0.8930
  239MOL0     H32915   2.288   2.180   6.514  0.1050  1.5024  0.8959
  239MOL0     H32916   2.346   2.074   6.631  0.6589  1.8604  2.0279
  239MOL0     H32917   2.399   1.965   6.439  0.0330  0.5197  1.5093
  239MOL0     H32918   2.407   2.123   6.348 -1.9179  0.4264  0.8233
  239MOL0     H32919   2.641   2.134   6.440 -1.2766  1.8562 -1.5968
  239MOL0     H32920   2.607   1.977   6.529 -1.8415 -0.8866 -0.0205
  239MOL0     H32921   2.752   1.952   6.342  0.7958  1.2916  0.8523
  239MOL0     H32922   2.599   1.862   6.332  0.4887  0.1516  2.2299
  239MOL0     H32923   2.512   2.030   6.182  0.1429 -2.5164 -0.5762
  239MOL0     H32924   2.646   1.931   6.120 -1.9996 -1.6604 -0.1801
  239MOL0     H32925   2.708   2.206   6.225 -0.5375 -2.3663  0.6910
  239MOL0     H32926   2.807   2.113   6.135 -0.7391 -2.2967  3.9419
  239MOL0     H32927   2.673   2.295   5.998 -3.0417 -0.0521 -1.5637
  239MOL0     H32928   2.544   2.183   5.989  0.1644  0.8403  0.0502
  239MOL0     H32929   2.697   2.016   5.884 -4.1066  0.0937  3.4146
  239MOL0     H32930   2.658   2.150   5.783  4.2651  1.6638 -1.7753
  239MOL0     H32931   2.953   1.961   5.908 -1.0889 -1.7229 -0.5593
  239MOL0     H32932   3.275   2.127   5.882  1.7301 -1.4992 -0.8687
  239MOL0     H32933   3.252   2.054   5.731 -0.7689  1.3632 -0.5346
  239MOL0     H32934   3.163   1.973   6.020  2.8750  2.4295  0.9249
  239MOL0     H32935   3.152   1.845   5.889  3.4106 -1.5138 -1.1595
  239MOL0     H32936   3.412   1.955   5.981 -0.7087  0.2394 -0.0259
  239MOL0     H32937   3.337   1.804   6.034  0.6246 -2.6167 -2.5044
  239MOL0     H32938   3.477   1.735   5.881 -1.9560  1.0968  1.8647
  239MOL0     H32939   3.327   1.728   5.802  2.2261 -2.7906 -1.4270
  239MOL0     H32940   3.530   2.088   5.606  1.0521  0.7602 -3.1326
  239MOL0     H32941   3.648   2.261   5.534  0.5220  1.8178  1.8448
  239MOL0     H32942   3.763   2.152   5.443 -0.1323 -1.1899  0.5314
  239MOL0     H32943   3.816   2.281   5.565  0.3151 -0.0277  0.4363
  239MOL0     H32944   4.009   2.404   5.605  0.4501  1.0631  4.0512
  239MOL0     H32945   4.188   2.541   5.532  1.4852  1.9184  2.8172
  239MOL0     H32946   4.381   2.525   5.359  1.9036  0.0206 -2.6628
  239MOL0     H32947   4.380   2.645   5.486  0.0254 -0.6140 -1.0411
  239MOL0     H32948   4.646   2.590   5.467 -1.6839  0.2117  2.0746
  239MOL0     H32949   4.606   2.534   5.312  1.7186  0.9459  0.2651
  239MOL0     H32950   4.572   2.823   5.411 -2.7965 -0.0563 -0.5888
  239MOL0     H32951   4.523   2.772   5.253 -0.3564  2.0487  0.8643
  239MOL0     H32952   4.748   2.680   5.205  1.0333  1.4576 -1.6151
  239MOL0     H32953   4.812   2.757   5.352  0.7229 -1.7694 -0.0955
  239MOL0     H32954   4.679   2.946   5.161 -0.1940 -1.5464  1.4290
  239MOL0     H32955   4.824   2.970   5.271  1.9083  0.5589  0.5970
  239MOL0     H32956   4.839   2.831   4.997 -0.0973  0.8114 -0.2295
  239MOL0     H32957   4.956   2.799   5.120  0.4655  1.0500  0.0013
  239MOL0     H32958   4.990   3.036   5.165  2.3338 -1.5997 -0.1169
  239MOL0     H32959   4.880   3.079   5.031 -1.4272 -1.7741  0.4418
  239MOL0     H32960   5.034   2.991   4.865 -0.7506  1.5027 -0.0734
  239MOL0     H32961   5.152   2.944   5.000  0.3366  1.3580  0.8184
  239MOL0     H32962   4.467   2.216   5.630 -1.5494 -2.4593  0.4066
  239MOL0     H32963   4.288   2.089   5.694  1.9327  0.8359  1.0029
  239MOL0     H32964   3.917   1.844   5.773 -0.3203  0.0242  1.7564
  239MOL0     H32965   3.706   1.766   5.841  0.6724  0.3427  0.4585
  239MOL0     H32966   2.208   2.333   6.617 -2.4677  1.8636  0.2129
  239MOL0     H32967   2.109   2.484   6.792 -0.2090  2.0488  0.3759
  239MOL0     H32968   2.452   2.671   7.313  0.3286 -0.7907 -2.3527
  239MOL0     H32969   2.497   2.889   7.409 -0.5138 -3.2852  0.2452
  239MOL0     H32970   2.273   3.276   7.288  0.1273  0.9255  0.8699
  239MOL0     H32971   2.416   3.318   7.377  2.3939 -0.5529 -0.5009
  239MOL0     H32972   2.454   3.359   7.147 -1.0009  0.2698  1.8431
  239MOL0     H32973   2.386   3.204   7.094  0.8797 -0.9553  0.1234
  239MOL0     H32974   2.658   3.244   7.248 -0.9576  3.8558 -0.4024
  239MOL0     H32975   2.592   3.085   7.184  2.2464  0.6209 -0.2421
  239MOL0     H32976   2.589   3.180   6.966 -0.4486  1.8659 -0.5499
  239MOL0     H32977   2.752   3.141   7.031  0.5762  0.3334  1.0384
  239MOL0     H32978   2.733   3.571   6.968  0.8189  0.9230  0.4085
  239MOL0     H32979   2.221   3.064   7.128  1.7859 -1.7561 -2.8891
  239MOL0     H32980   2.064   2.784   7.013 -0.9884  2.0074 -0.6343
  239MOL0     H32981   2.107   2.947   6.995  1.3438  0.3266  1.0650
  239MOL0     H32982   2.205   2.819   6.913  0.1162  3.6695 -1.1664
  240MOL0     O32983   3.022   5.007   0.967  0.1722  0.1538  0.1816
  240MOL0     C32984   2.919   4.998   1.026 -0.1339 -0.5527  0.1591
  240MOL0     O32985   2.887   5.049   1.149 -0.1037  0.3130  0.3495
  240MOL0     C32986   2.981   5.121   1.215  0.3307 -0.1890 -0.6163
  240MOL0     C32987   3.082   5.054   1.283 -0.6280 -0.1810  0.8757
  240MOL0     C32988   3.173   5.123   1.365 -0.2870 -0.0470  0.3525
  240MOL0     C32989   3.167   5.262   1.370 -0.0083  0.0996 -0.2514
  240MOL0     O32990   3.243   5.344   1.451 -0.2369  0.9609 -0.0211
  240MOL0     C32991   3.384   5.320   1.431 -0.5328 -0.1520 -0.7872
  240MOL0     C32992   3.468   5.363   1.546 -0.0675  0.0724  0.4832
  240MOL0     C32993   3.468   5.515   1.579 -0.2008 -0.0195  0.0336
  240MOL0     C32994   3.555   5.534   1.716 -0.3738  0.4232  0.8393
  240MOL0     C32995   3.614   5.669   1.743  0.0425 -0.4373 -0.2226
  240MOL0     C32996   3.697   5.739   1.634  0.8723  0.4495 -0.1890
  240MOL0     C32997   3.817   5.655   1.579  0.3819  0.3355  0.2897
  240MOL0     C32998   3.965   5.658   1.635  1.4738 -0.7744 -0.2333
  240MOL0     N32999   4.003   5.801   1.630  0.1779  0.2065 -1.2597
  240MOL0     C33000   4.005   5.889   1.737  0.5798  0.3756  0.0851
  240MOL0     C33001   4.042   6.008   1.682  0.0431  0.6477 -0.3100
  240MOL0     C33002   4.075   6.128   1.774 -0.0720  0.7175 -0.5371
  240MOL0     C33003   4.219   6.161   1.780 -0.0961  0.6074 -0.1196
  240MOL0     C33004   4.307   6.070   1.865  0.2156 -0.1532  0.1048
  240MOL0     C33005   4.274   6.066   2.014  0.1101  0.4887  0.4827
  240MOL0     O33006   4.264   6.201   2.068 -0.5742 -0.0296 -0.5180
  240MOL0     C33007   4.204   6.218   2.199 -1.1447  1.0995 -0.1776
  240MOL0     C33008   4.141   6.117   2.278 -0.0976 -0.7306  0.1941
  240MOL0     C33009   4.092   6.145   2.412 -0.3197  0.8255 -0.4340
  240MOL0     C33010   4.027   6.038   2.510  0.2518  0.1028  1.5327
  240MOL0     C33011   4.097   6.284   2.455 -0.2015  0.1967 -0.1865
  240MOL0     C33012   4.059   6.329   2.590 -0.4565  0.8569 -0.7025
  240MOL0     O33013   4.009   6.455   2.595  0.8796  0.4081  0.5568
  240MOL0     C33014   3.891   6.479   2.672 -0.3075 -1.1372 -0.2327
  240MOL0     C33015   3.865   6.611   2.708 -0.5312 -1.2082 -0.1177
  240MOL0     C33016   3.742   6.643   2.769  0.5182 -0.6749 -0.5050
  240MOL0     C33017   3.656   6.545   2.824 -0.3296  0.9902  0.6688
  240MOL0     O33018   3.547   6.562   2.895 -0.1034 -0.7279  0.4215
  240MOL0     C33019   3.440   6.632   2.829  0.8261 -0.3091 -0.5164
  240MOL0     C33020   3.367   6.713   2.937  0.4418 -0.6272 -0.2085
  240MOL0     C33021   3.225   6.782   2.901  0.6634 -0.3162 -0.1553
  240MOL0     C33022   3.252   6.884   2.789  0.2926 -0.1955 -0.2145
  240MOL0     C33023   3.338   7.001   2.838  0.3215  0.2441  1.0459
  240MOL0     C33024   3.376   7.094   2.707  1.0662  0.0734 -0.3875
  240MOL0     C33025   3.462   7.221   2.737 -0.3993  0.5756 -0.5541
  240MOL0     C33026   3.460   7.313   2.615  0.1018 -0.4585 -0.5588
  240MOL0    Cl33027   3.537   7.237   2.468  0.5265 -0.0920 -0.6954
  240MOL0     C33028   3.686   6.410   2.786 -0.4675 -0.2323  0.6448
  240MOL0     C33029   3.792   6.386   2.704  0.4339  0.8527 -0.3546
  240MOL0     O33030   4.072   6.257   2.689  0.2634  0.2235 -0.0299
  240MOL0     C33031   4.166   6.375   2.369 -0.3924 -0.7872 -0.8200
  240MOL0     C33032   4.222   6.342   2.249  0.1510 -0.8121  0.4885
  240MOL0     N33033   4.066   5.999   1.549  0.6277 -0.7976  0.9901
  240MOL0     N33034   4.045   5.878   1.518 -0.4644  1.2416 -0.6113
  240MOL0     C33035   3.057   5.333   1.307 -0.3619 -0.3000  0.0901
  240MOL0     C33036   2.975   5.257   1.223 -0.1151  0.4248  0.6287
  240MOL0     C33037   2.818   4.903   0.964 -0.6801 -0.3678  0.7847
  240MOL0     C33038   2.785   4.927   0.831  1.9822 -0.0537  0.5561
  240MOL0     C33039   2.691   4.845   0.767  0.4690 -0.6582  0.3113
  240MOL0     C33040   2.620   4.747   0.827 -0.7384 -0.5034  0.3127
  240MOL0     O33041   2.530   4.663   0.758 -0.7069 -0.3904 -0.1162
  240MOL0     C33042   2.426   4.718   0.684  0.3138  0.7152  0.0319
  240MOL0     C33043   2.314   4.798   0.757 -0.8079  0.8232 -0.2805
  240MOL0     C33044   2.260   4.710   0.863 -0.0120  0.7665 -0.7861
  240MOL0     C33045   2.132   4.766   0.936  0.1819  0.3815  0.1935
  240MOL0     C33046   2.023   4.807   0.849 -0.3954 -0.5938  0.1783
  240MOL0     C33047   1.937   4.821   0.756  0.5897 -0.0018 -0.3273
  240MOL0     C33048   2.661   4.713   0.956 -0.0066  0.2258  0.6319
  240MOL0     C33049   2.758   4.790   1.027  0.1172  0.2274 -0.0574
  240MOL0     C33050   2.797   4.764   1.166  0.0727  0.8062  0.5361
  240MOL0     H33051   3.094   4.947   1.268  0.4408 -0.0099  0.3778
  240MOL0     H33052   3.235   5.065   1.433  0.8532  0.9049  0.1563
  240MOL0     H33053   3.420   5.378   1.346 -0.7186  2.6371  0.9249
  240MOL0     H33054   3.408   5.215   1.410  1.8933  0.2614 -0.3374
  240MOL0     H33055   3.441   5.299   1.631 -1.2419 -1.4592 -0.9885
  240MOL0     H33056   3.572   5.337   1.523 -0.2599  0.2029 -0.5679
  240MOL0     H33057   3.500   5.574   1.492 -3.4592  1.8568 -0.0751
  240MOL0     H33058   3.369   5.547   1.612 -0.6035 -0.1720 -0.9624
  240MOL0     H33059   3.487   5.511   1.798  2.0816 -0.4941  2.7401
  240MOL0     H33060   3.638   5.464   1.709 -0.8501 -0.3030  2.1328
  240MOL0     H33061   3.681   5.658   1.829 -0.7626  0.6749  0.5850
  240MOL0     H33062   3.535   5.740   1.773  1.0325  0.5404  0.1502
  240MOL0     H33063   3.623   5.754   1.555  1.2491  1.5577 -0.3502
  240MOL0     H33064   3.730   5.841   1.656  1.3722  1.1551 -3.6817
  240MOL0     H33065   3.842   5.685   1.477  0.0382 -3.0137 -0.9078
  240MOL0     H33066   3.783   5.552   1.561  0.1665  0.1628  1.5622
  240MOL0     H33067   3.958   5.612   1.734  2.1625  0.0640  0.2155
  240MOL0     H33068   4.028   5.600   1.567 -0.0246 -3.7104  0.6648
  240MOL0     H33069   3.987   5.876   1.844 -0.5342  0.7026 -0.0531
  240MOL0     H33070   4.039   6.138   1.877  4.7688  0.8416  1.3826
  240MOL0     H33071   4.030   6.215   1.725 -1.4370  0.6884  0.6072
  240MOL0     H33072   4.237   6.162   1.673 -2.2764  1.7605 -0.5306
  240MOL0     H33073   4.232   6.264   1.813  2.9074  0.1850  0.2896
  240MOL0     H33074   4.303   5.968   1.826  2.6964 -0.7032  1.1668
  240MOL0     H33075   4.411   6.101   1.857  1.8536 -5.0792 -1.3802
  240MOL0     H33076   4.174   6.023   2.014  0.6542 -0.8390 -0.3689
  240MOL0     H33077   4.348   6.010   2.072 -0.8084 -2.4805 -0.9996
  240MOL0     H33078   4.135   6.014   2.243  1.6272 -1.0991  0.9096
  240MOL0     H33079   3.921   6.052   2.530 -0.4985  1.4370 -2.4100
  240MOL0     H33080   4.096   6.029   2.594 -0.6005  0.8396  2.3371
  240MOL0     H33081   4.028   5.941   2.460 -2.2575  1.4975 -1.5987
  240MOL0     H33082   3.938   6.687   2.683 -0.2848 -0.9540  1.3034
  240MOL0     H33083   3.719   6.748   2.788 -0.3833 -1.0757  0.8103
  240MOL0     H33084   3.477   6.711   2.763  0.3259  3.0570  2.8803
  240MOL0     H33085   3.380   6.556   2.780 -0.8457  0.6906 -0.1173
  240MOL0     H33086   3.342   6.650   3.023 -2.3201  0.5762 -0.0454
  240MOL0     H33087   3.438   6.787   2.977 -0.6655  0.4983 -0.2584
  240MOL0     H33088   3.190   6.830   2.992 -0.4086 -0.2679 -0.5765
  240MOL0     H33089   3.162   6.698   2.870  0.7596 -0.7288  0.7390
  240MOL0     H33090   3.154   6.912   2.750 -0.1249 -0.9391  0.2690
  240MOL0     H33091   3.310   6.833   2.712  1.6433 -0.1406  0.7288
  240MOL0     H33092   3.290   7.049   2.923 -0.9083 -0.5606  0.8343
  240MOL0     H33093   3.431   6.969   2.888 -0.7987  1.5449  4.1968
  240MOL0     H33094   3.281   7.125   2.662  1.6516  2.0031 -0.3720
  240MOL0     H33095   3.423   7.019   2.642 -0.7188  0.8622 -2.7325
  240MOL0     H33096   3.567   7.197   2.756 -0.4667  0.4936 -0.2747
  240MOL0     H33097   3.429   7.275   2.826  0.9794  1.2532 -0.4275
  240MOL0     H33098   3.524   7.399   2.638 -0.5179  0.2904 -1.5487
  240MOL0     H33099   3.363   7.361   2.594  0.8311  0.9258 -0.8953
  240MOL0     H33100   3.623   6.326   2.813  0.1539 -0.2873  2.0377
  240MOL0     H33101   3.807   6.283   2.670 -1.4354  0.1563  0.8196
  240MOL0     H33102   4.173   6.480   2.396  0.1069 -1.0304  0.0569
  240MOL0     H33103   4.265   6.430   2.201  2.2221 -0.4731  2.7742
  240MOL0     H33104   3.043   5.441   1.308  0.1379 -0.2359  0.3906
  240MOL0     H33105   2.896   5.304   1.165  1.9336  5.8658  1.6372
  240MOL0     H33106   2.841   4.995   0.769  1.6493 -1.2677 -1.1429
  240MOL0     H33107   2.682   4.875   0.663 -1.7161  2.4103  1.2370
  240MOL0     H33108   2.459   4.793   0.611  0.4936  0.5628 -0.0464
  240MOL0     H33109   2.394   4.636   0.618 -1.9615  1.0865  0.5985
  240MOL0     H33110   2.233   4.816   0.685 -1.3255  0.6719  0.2541
  240MOL0     H33111   2.355   4.889   0.802  1.0405 -0.3531  0.5586
  240MOL0     H33112   2.237   4.607   0.833  2.4870  0.7338 -2.9615
  240MOL0     H33113   2.342   4.696   0.935 -0.3923  0.5088 -0.3981
  240MOL0     H33114   2.160   4.840   1.012 -0.1389 -0.2693  0.9621
  240MOL0     H33115   2.092   4.680   0.990  0.8737  0.3355  0.6512
  240MOL0     H33116   1.870   4.832   0.673  1.2124  3.4723 -0.5243
  240MOL0     H33117   2.609   4.628   0.998 -0.0585  0.3554  0.8285
  240MOL0     H33118   2.776   4.660   1.194  3.2968  0.0900  0.6794
  240MOL0     H33119   2.906   4.777   1.168 -0.0790  3.2538 -1.4640
  240MOL0     H33120   2.753   4.837   1.235 -2.3134 -1.2374  1.3176
  241MOL0     O33121   6.248   0.800   7.571  0.3123 -0.0682  0.8921
  241MOL0     C33122   6.239   0.724   7.667 -0.2152  0.1988 -0.2868
  241MOL0     O33123   6.216   0.584   7.659  0.3686  0.4685  0.7145
  241MOL0     C33124   6.194   0.524   7.543  0.0561 -0.7598  0.2908
  241MOL0     C33125   6.276   0.413   7.519  0.5469 -0.3218 -0.9409
  241MOL0     C33126   6.275   0.336   7.399  0.4941  1.1759 -0.8746
  241MOL0     C33127   6.183   0.377   7.297 -0.1591 -0.6174  0.7500
  241MOL0     O33128   6.174   0.319   7.173 -0.0019  0.5248 -0.0341
  241MOL0     C33129   6.292   0.246   7.131  0.9114 -0.7667 -0.7862
  241MOL0     C33130   6.283   0.251   6.980 -1.1161  0.8968  0.2398
  241MOL0     C33131   6.419   0.221   6.912  0.5019  0.6714 -0.1747
  241MOL0     C33132   6.517   0.338   6.948 -0.6094 -0.1578  0.3353
  241MOL0     C33133   6.667   0.308   6.919  0.3709 -0.0547 -0.5800
  241MOL0     C33134   6.730   0.410   6.837 -0.1919 -0.0976 -0.4496
  241MOL0     C33135   6.692   0.554   6.871  0.5710 -0.1871  0.4291
  241MOL0     C33136   6.745   0.616   6.997  0.8850 -0.2468 -1.2808
  241MOL0     N33137   6.749   0.759   6.997 -0.0325  0.0024 -0.1050
  241MOL0     C33138   6.846   0.827   6.921  0.6924 -0.0421  0.3034
  241MOL0     C33139   6.807   0.954   6.935 -0.4875  0.1408  0.2851
  241MOL0     C33140   6.893   1.070   6.866  0.5153  0.3381  0.2874
  241MOL0     C33141   6.998   1.137   6.949  0.6648 -1.2371  0.6467
  241MOL0     C33142   6.937   1.242   7.040 -1.0028 -0.2717 -0.3550
  241MOL0     C33143   7.042   1.329   7.104 -1.0473  0.5295 -0.0304
  241MOL0     O33144   7.124   1.409   7.014  0.3338 -0.1122  0.5363
  241MOL0     C33145   7.101   1.545   7.024  0.6970  0.0989  0.4400
  241MOL0     C33146   7.152   1.629   7.114  0.0287 -0.6902  0.3639
  241MOL0     C33147   7.145   1.771   7.102 -0.1148 -0.0542  0.2678
  241MOL0     C33148   7.211   1.864   7.200 -0.1324  0.4718 -0.2458
  241MOL0     C33149   7.070   1.825   6.997 -0.0999 -0.2578 -0.5515
  241MOL0     C33150   7.046   1.967   6.991  0.3508 -0.3415 -0.3490
  241MOL0     O33151   7.062   2.029   6.870  0.3670 -0.7286 -0.0058
  241MOL0     C33152   7.022   2.162   6.852  0.1663  1.0443  0.0156
  241MOL0     C33153   6.926   2.182   6.753  0.6294 -0.1143 -0.0462
  241MOL0     C33154   6.888   2.318   6.723  0.4963 -0.6190  0.2431
  241MOL0     C33155   6.944   2.423   6.806  0.4829 -0.5645  0.0793
  241MOL0     O33156   6.926   2.558   6.807 -0.2794  0.4265 -0.2569
  241MOL0     C33157   6.856   2.618   6.696 -0.4646  0.0258  0.0647
  241MOL0     C33158   6.871   2.769   6.675  0.1722 -1.0687  0.1728
  241MOL0     C33159   6.925   2.843   6.794  0.7527  0.0015  0.3793
  241MOL0     C33160   6.998   2.971   6.744  0.2428  0.4480  0.3499
  241MOL0     C33161   7.024   3.079   6.846  0.7490  0.8895 -1.0235
  241MOL0     C33162   7.122   3.188   6.781 -0.4526 -0.4065  0.4328
  241MOL0     C33163   7.184   3.275   6.882  0.0753 -0.2577 -0.9703
  241MOL0     C33164   7.300   3.371   6.846 -0.2349 -0.0260  0.6284
  241MOL0    Cl33165   7.255   3.467   6.710  0.0135 -0.4145  0.4066
  241MOL0     C33166   7.018   2.392   6.918 -0.2912 -0.1043  1.0211
  241MOL0     C33167   7.063   2.268   6.938 -0.2395 -0.3793  0.4091
  241MOL0     O33168   6.996   2.016   7.092  0.3756  0.2633 -0.6451
  241MOL0     C33169   6.999   1.745   6.904  0.4623  0.3495 -1.0289
  241MOL0     C33170   7.025   1.599   6.916  0.0108 -0.2710 -0.8825
  241MOL0     N33171   6.707   0.967   7.034 -0.0888 -0.3918  0.3903
  241MOL0     N33172   6.674   0.847   7.061  0.0316  0.1224  0.5873
  241MOL0     C33173   6.096   0.484   7.326 -0.1337  0.3593  0.0080
  241MOL0     C33174   6.089   0.540   7.452 -0.2787 -0.8791  0.0731
  241MOL0     C33175   6.287   0.757   7.803  0.6573  0.1475 -0.8567
  241MOL0     C33176   6.341   0.648   7.875 -0.0154  0.6142 -1.1140
  241MOL0     C33177   6.403   0.680   8.005  1.0202 -0.3504  0.4957
  241MOL0     C33178   6.410   0.811   8.056  0.2428  0.1727  0.6030
  241MOL0     O33179   6.467   0.849   8.177  0.0672  0.5108  0.3923
  241MOL0     C33180   6.479   0.750   8.277 -0.5779 -0.0198  0.5552
  241MOL0     C33181   6.353   0.695   8.332  1.0525 -0.7392  0.3562
  241MOL0     C33182   6.241   0.807   8.345  0.1112  0.6507 -0.0863
  241MOL0     C33183   6.270   0.922   8.433 -0.8059 -0.3048 -0.3830
  241MOL0     C33184   6.253   0.871   8.575  0.6416 -0.1734 -0.8112
  241MOL0     C33185   6.232   0.827   8.682  0.9007 -1.0685  0.4722
  241MOL0     C33186   6.356   0.916   7.972  0.2282 -0.1981 -0.9348
  241MOL0     C33187   6.295   0.891   7.853 -0.1914  0.2210  0.2104
  241MOL0     C33188   6.235   1.017   7.783 -0.3673 -0.1449  0.6243
  241MOL0     H33189   6.337   0.378   7.601 -0.6651  0.2810  0.2629
  241MOL0     H33190   6.341   0.250   7.400 -0.9695 -0.1082  3.0044
  241MOL0     H33191   6.292   0.142   7.165  3.1611 -1.5312 -2.7979
  241MOL0     H33192   6.386   0.283   7.173  0.8728 -0.8952 -0.5835
  241MOL0     H33193   6.202   0.186   6.946  0.7917 -1.4200 -0.1844
  241MOL0     H33194   6.269   0.353   6.944 -0.1944 -0.2035 -3.7598
  241MOL0     H33195   6.449   0.119   6.936  0.1498  0.0718 -2.0828
  241MOL0     H33196   6.413   0.224   6.803  2.3903  0.4953 -0.3192
  241MOL0     H33197   6.487   0.411   6.873 -0.3550 -0.9882 -0.5887
  241MOL0     H33198   6.516   0.376   7.051  4.4767  1.4807  0.0640
  241MOL0     H33199   6.672   0.210   6.871  0.4943  0.6993 -2.1652
  241MOL0     H33200   6.716   0.306   7.017 -1.1617  0.9480  0.2647
  241MOL0     H33201   6.836   0.385   6.824 -0.1484 -0.5243  0.6033
  241MOL0     H33202   6.708   0.388   6.732  0.4203 -0.3971 -0.5201
  241MOL0     H33203   6.588   0.582   6.852  0.6897  1.5227  1.9864
  241MOL0     H33204   6.743   0.609   6.792  2.7920  0.8821  2.4638
  241MOL0     H33205   6.682   0.587   7.082  0.3147  1.8168 -0.9438
  241MOL0     H33206   6.837   0.576   7.039  0.0027  1.0267  2.2312
  241MOL0     H33207   6.930   0.787   6.865 -0.5275  1.0993 -2.5495
  241MOL0     H33208   6.812   1.140   6.845 -0.3408 -0.4664  0.8181
  241MOL0     H33209   6.941   1.037   6.773 -0.0691  1.1407 -0.3055
  241MOL0     H33210   7.051   1.060   7.005 -0.8820 -1.7303  1.4874
  241MOL0     H33211   7.080   1.186   6.894  0.9065  0.6198  2.5317
  241MOL0     H33212   6.859   1.298   6.987 -1.5484 -0.0444  0.6653
  241MOL0     H33213   6.881   1.194   7.121 -1.5126  1.4923  0.3859
  241MOL0     H33214   6.976   1.381   7.175  1.8492  2.0948  1.6804
  241MOL0     H33215   7.118   1.272   7.158  0.2455  0.7512 -1.5465
  241MOL0     H33216   7.208   1.584   7.196  0.6374 -0.3063  0.1648
  241MOL0     H33217   7.133   1.904   7.265  1.3102  3.0103  0.0422
  241MOL0     H33218   7.266   1.947   7.153  2.0487  0.3269  1.8789
  241MOL0     H33219   7.279   1.806   7.262  0.4317  1.0446 -0.3222
  241MOL0     H33220   6.888   2.101   6.692 -1.0372 -0.6993  1.7019
  241MOL0     H33221   6.811   2.339   6.649 -0.1113 -0.9257  0.7772
  241MOL0     H33222   6.890   2.576   6.601 -0.0543 -0.4444  0.4148
  241MOL0     H33223   6.748   2.602   6.697 -0.5677  0.6742 -0.2713
  241MOL0     H33224   6.949   2.772   6.598 -1.3826 -1.4306 -1.5197
  241MOL0     H33225   6.780   2.809   6.628 -0.8519 -0.3417  2.6188
  241MOL0     H33226   6.996   2.789   6.858  3.0839  2.6274  0.2242
  241MOL0     H33227   6.846   2.881   6.859 -0.2774 -1.1854 -0.1426
  241MOL0     H33228   6.934   3.019   6.669 -0.3886 -1.3393 -0.2992
  241MOL0     H33229   7.082   2.934   6.684 -0.0605 -0.3011  0.3783
  241MOL0     H33230   6.936   3.139   6.872  1.7093  2.7070 -1.7179
  241MOL0     H33231   7.071   3.036   6.935  0.5734 -0.6716 -1.6530
  241MOL0     H33232   7.064   3.242   6.705  0.5507 -0.2968 -0.2640
  241MOL0     H33233   7.199   3.138   6.721 -1.7341 -0.2033 -1.4892
  241MOL0     H33234   7.223   3.208   6.959  1.2401  0.7382 -0.6507
  241MOL0     H33235   7.108   3.334   6.934 -1.3504 -1.7067 -1.3628
  241MOL0     H33236   7.386   3.309   6.817 -0.9654 -2.2677  2.9291
  241MOL0     H33237   7.341   3.429   6.928  0.1032  0.7663 -0.0821
  241MOL0     H33238   7.047   2.469   6.989  0.3961 -0.1713  0.8177
  241MOL0     H33239   7.129   2.238   7.019  0.3289 -0.8458 -0.2077
  241MOL0     H33240   6.949   1.797   6.823  0.4836  4.1097  1.1292
  241MOL0     H33241   6.989   1.519   6.853 -1.3343 -2.2685  2.2092
  241MOL0     H33242   6.025   0.501   7.246  0.7698 -0.9066 -1.1101
  241MOL0     H33243   6.015   0.616   7.472 -0.8580 -1.1866 -0.8409
  241MOL0     H33244   6.342   0.542   7.850 -4.4155  0.9811 -3.9078
  241MOL0     H33245   6.447   0.598   8.060 -0.6329 -1.8428 -0.2879
  241MOL0     H33246   6.539   0.668   8.236 -0.1754  1.5889 -2.3351
  241MOL0     H33247   6.533   0.787   8.365  1.0160  0.3655 -0.5189
  241MOL0     H33248   6.365   0.657   8.434  0.3494  1.9431  1.5180
  241MOL0     H33249   6.313   0.615   8.269 -0.9121 -0.7578  1.5735
  241MOL0     H33250   6.220   0.837   8.242 -0.8251  2.5383  0.6034
  241MOL0     H33251   6.147   0.766   8.384 -1.1123  2.8589 -0.5177
  241MOL0     H33252   6.198   1.001   8.413  1.9562  2.5826  0.3539
  241MOL0     H33253   6.372   0.960   8.429 -0.2942 -1.6636 -0.9964
  241MOL0     H33254   6.223   0.798   8.784  2.6627 -2.9541  0.1624
  241MOL0     H33255   6.362   1.016   8.015 -0.1539 -1.8973  3.5578
  241MOL0     H33256   6.136   0.984   7.748 -1.0638 -1.5366  3.5336
  241MOL0     H33257   6.227   1.099   7.855 -0.2547 -1.5676  2.3436
  241MOL0     H33258   6.293   1.041   7.694 -0.4607  0.1440  0.6403
  242MOL0     O33259   7.480   3.331  10.711  0.0434  0.8529  0.1221
  242MOL0     C33260   7.425   3.233  10.764  0.0406  0.7226  0.2861
  242MOL0     O33261   7.465   3.102  10.750 -0.0857  0.3929 -0.1087
  242MOL0     C33262   7.556   3.058  10.656 -0.7512  0.1641 -0.1883
  242MOL0     C33263   7.565   3.103  10.520  0.0870  0.0826  0.9337
  242MOL0     C33264   7.654   3.064  10.426 -0.3303 -1.9551 -0.5014
  242MOL0     C33265   7.730   2.951  10.450 -0.0644 -0.2579  0.7066
  242MOL0     O33266   7.825   2.922  10.353  0.4857 -0.0609 -0.5695
  242MOL0     C33267   7.917   2.813  10.374 -0.4333 -0.4011  1.2532
  242MOL0     C33268   7.852   2.689  10.322  0.4320  0.1441 -0.3419
  242MOL0     C33269   7.934   2.568  10.364  0.8063  0.0326  0.4167
  242MOL0     C33270   8.064   2.545  10.293  0.2208 -0.3606 -0.0420
  242MOL0     C33271   8.071   2.422  10.210 -0.2925  1.2593  0.4011
  242MOL0     C33272   8.219   2.391  10.180  0.2926 -0.5556  0.2353
  242MOL0     C33273   8.225   2.264  10.095 -0.4243  0.8358 -0.4976
  242MOL0     C33274   8.141   2.254   9.975  0.6933 -0.9915  0.5183
  242MOL0     N33275   8.173   2.139   9.886  0.1987  0.2565  0.0364
  242MOL0     C33276   8.120   2.129   9.756 -1.3534 -0.1350 -0.1798
  242MOL0     C33277   8.151   2.009   9.704  0.8005  0.8382  0.9550
  242MOL0     C33278   8.133   1.948   9.567 -0.5451 -0.7305  1.3292
  242MOL0     C33279   7.986   1.921   9.551 -0.5680  0.0566  1.4341
  242MOL0     C33280   7.907   1.995   9.440 -0.0479  0.3955  1.1575
  242MOL0     C33281   7.891   2.143   9.470  0.5198  0.5051 -0.3090
  242MOL0     O33282   7.995   2.222   9.421 -0.0958  0.0832  0.7575
  242MOL0     C33283   8.007   2.343   9.480  0.4401  0.7743  0.0347
  242MOL0     C33284   7.907   2.410   9.551  0.9170 -0.4857 -0.1231
  242MOL0     C33285   7.939   2.526   9.626  0.3830 -0.1670 -0.8195
  242MOL0     C33286   7.813   2.608   9.675 -1.5702 -0.2558  0.1035
  242MOL0     C33287   8.075   2.578   9.630  0.1932 -0.9779 -0.2734
  242MOL0     C33288   8.107   2.701   9.692  0.0120 -0.8674  0.3182
  242MOL0     O33289   8.057   2.718   9.817  0.3808  0.0230  0.3082
  242MOL0     C33290   8.086   2.826   9.900  0.6235 -1.3102  0.0778
  242MOL0     C33291   8.014   2.949   9.898  0.2967  0.1906  0.7292
  242MOL0     C33292   8.033   3.054   9.992  0.4456  0.5953  1.2083
  242MOL0     C33293   8.135   3.035  10.085  0.4621  0.2058 -0.0799
  242MOL0     O33294   8.175   3.131  10.186 -0.1860  0.2081  0.0742
  242MOL0     C33295   8.090   3.244  10.199 -0.1403 -0.6658  0.1747
  242MOL0     C33296   8.169   3.319  10.300 -0.1598 -0.6094  0.6361
  242MOL0     C33297   8.089   3.440  10.349  0.8921  0.2982  0.8893
  242MOL0     C33298   8.162   3.533  10.439 -0.3483 -0.2175  0.8337
  242MOL0     C33299   8.194   3.481  10.573  0.3716  0.3675 -0.5796
  242MOL0     C33300   8.323   3.546  10.632 -0.9863  0.3430  0.7886
  242MOL0     C33301   8.453   3.473  10.581 -0.0317  0.2338 -0.3905
  242MOL0     C33302   8.533   3.404  10.686  0.3308 -0.3242  0.1707
  242MOL0    Cl33303   8.426   3.293  10.780  0.1856  0.4331  0.0463
  242MOL0     C33304   8.200   2.917  10.090 -0.6686  0.5719  0.4714
  242MOL0     C33305   8.186   2.820   9.991  0.0648 -0.3619 -0.7455
  242MOL0     O33306   8.181   2.794   9.633  0.5329  0.6838 -0.0616
  242MOL0     C33307   8.172   2.509   9.557 -0.0609  0.0343  0.4045
  242MOL0     C33308   8.141   2.388   9.485  0.9026 -0.1140 -0.4744
  242MOL0     N33309   8.186   1.935   9.812 -0.2293  0.7678  0.0806
  242MOL0     N33310   8.193   2.005   9.918  0.0042 -0.1073  0.0387
  242MOL0     C33311   7.710   2.886  10.577 -0.4368  0.1993  0.5518
  242MOL0     C33312   7.622   2.938  10.674 -0.3348 -0.4297 -1.2366
  242MOL0     C33313   7.313   3.265  10.873  0.4554 -0.1738 -0.4119
  242MOL0     C33314   7.281   3.401  10.888  0.3333  0.0893 -0.7016
  242MOL0     C33315   7.195   3.444  10.993  0.7666  0.3402  0.0004
  242MOL0     C33316   7.137   3.356  11.083  0.0363 -0.5094  0.1227
  242MOL0     O33317   7.041   3.405  11.167  1.0193  0.4173  0.9935
  242MOL0     C33318   7.019   3.332  11.288 -0.2038 -0.2013  0.6629
  242MOL0     C33319   6.890   3.387  11.345  0.1322  0.0052  0.5018
  242MOL0     C33320   6.835   3.291  11.453  0.0680 -0.6102 -0.5312
  242MOL0     C33321   6.711   3.350  11.521 -0.1813 -0.6415 -0.6550
  242MOL0     C33322   6.686   3.262  11.642  1.5820 -0.6144  0.0237
  242MOL0     C33323   6.668   3.204  11.743  0.7981  0.0487  0.5908
  242MOL0     C33324   7.167   3.219  11.068  0.8035  0.3667 -0.2060
  242MOL0     C33325   7.249   3.167  10.970 -1.0080  0.5199  0.1257
  242MOL0     C33326   7.272   3.026  10.956 -0.0334  0.1616  0.2205
  242MOL0     H33327   7.511   3.192  10.490  1.8217  0.6955 -0.5133
  242MOL0     H33328   7.646   3.110  10.329  1.7502 -2.1752 -0.8227
  242MOL0     H33329   7.953   2.814  10.477  5.3872 -0.2980 -0.3952
  242MOL0     H33330   8.004   2.837  10.311 -1.3958 -2.0142 -0.8131
  242MOL0     H33331   7.754   2.687  10.372 -0.9274 -1.2385 -2.8233
  242MOL0     H33332   7.848   2.703  10.213  0.1838  0.0972 -0.3404
  242MOL0     H33333   7.948   2.585  10.472  0.1043  2.9989  0.1160
  242MOL0     H33334   7.863   2.489  10.337  0.3071  0.9983 -1.1865
  242MOL0     H33335   8.092   2.635  10.237 -0.4692  1.1254  1.9018
  242MOL0     H33336   8.142   2.537  10.369 -1.7187 -0.8677  2.0169
  242MOL0     H33337   8.017   2.446  10.118  2.2132 -0.8383 -1.7786
  242MOL0     H33338   8.029   2.331  10.253 -1.9355  1.3597 -0.9093
  242MOL0     H33339   8.267   2.470  10.122 -0.2100  0.7345  1.5319
  242MOL0     H33340   8.278   2.379  10.271  1.0919 -0.8310 -0.3060
  242MOL0     H33341   8.209   2.173  10.154 -1.8419  1.8106  0.6791
  242MOL0     H33342   8.331   2.245  10.074 -0.1631 -1.5614  2.3150
  242MOL0     H33343   8.034   2.269   9.990  0.1770 -2.5072 -1.2092
  242MOL0     H33344   8.172   2.344   9.921 -1.2803 -0.5556  0.0465
  242MOL0     H33345   8.064   2.210   9.709  0.2549  0.3909 -1.2844
  242MOL0     H33346   8.189   1.855   9.564  0.3056 -0.2012 -0.1533
  242MOL0     H33347   8.170   2.010   9.484 -2.1518 -1.2958  0.1494
  242MOL0     H33348   7.972   1.816   9.522 -3.2512  0.9949 -1.1498
  242MOL0     H33349   7.932   1.926   9.646 -2.2120  0.9141  0.4957
  242MOL0     H33350   7.945   1.981   9.339 -2.1802  3.3596 -0.1804
  242MOL0     H33351   7.804   1.960   9.451 -0.0117 -1.0660 -2.1336
  242MOL0     H33352   7.806   2.191   9.421 -0.7302 -1.6773 -0.3991
  242MOL0     H33353   7.873   2.164   9.575  1.2026  4.4188 -0.8126
  242MOL0     H33354   7.804   2.375   9.554  0.6446  0.3486  1.0123
  242MOL0     H33355   7.726   2.542   9.662 -1.4272 -0.3366 -0.4402
  242MOL0     H33356   7.810   2.690   9.603 -1.7640 -0.9432 -0.6921
  242MOL0     H33357   7.820   2.648   9.777  1.2075  3.6060 -1.3904
  242MOL0     H33358   7.945   2.955   9.814 -1.5826 -1.7382  2.0112
  242MOL0     H33359   7.961   3.134   9.978 -2.5780 -2.4187 -3.1639
  242MOL0     H33360   8.080   3.296  10.103  0.9663 -1.3071 -0.3144
  242MOL0     H33361   7.988   3.218  10.230 -0.9183  1.6338 -0.3108
  242MOL0     H33362   8.192   3.256  10.387  1.8565  2.5775  2.6379
  242MOL0     H33363   8.269   3.353  10.273  0.3893 -0.4165  2.7217
  242MOL0     H33364   8.002   3.400  10.403 -1.3119 -1.2213 -3.2902
  242MOL0     H33365   8.052   3.491  10.260  0.7352 -0.3087  0.5975
  242MOL0     H33366   8.113   3.628  10.460  1.0387  0.4681  1.0792
  242MOL0     H33367   8.255   3.556  10.386 -0.4355 -1.7354 -0.0613
  242MOL0     H33368   8.106   3.500  10.636  1.3810 -1.7882  1.6642
  242MOL0     H33369   8.200   3.372  10.567  0.0104  0.4221 -2.1729
  242MOL0     H33370   8.330   3.539  10.741  1.7984  0.3092  0.6934
  242MOL0     H33371   8.317   3.651  10.605 -1.4423  0.7872  2.5228
  242MOL0     H33372   8.521   3.550  10.542  0.0277  0.3844  0.0103
  242MOL0     H33373   8.439   3.405  10.497 -0.6900 -1.8658  1.3289
  242MOL0     H33374   8.583   3.470  10.758  0.1933 -0.3454  0.2875
  242MOL0     H33375   8.603   3.328  10.650 -1.1161 -1.1061 -1.0752
  242MOL0     H33376   8.261   2.898  10.178  0.6617 -2.2646 -0.9254
  242MOL0     H33377   8.252   2.734   9.990  2.3577  1.2446  0.6753
  242MOL0     H33378   8.274   2.546   9.564 -0.2220  0.8296 -1.0720
  242MOL0     H33379   8.217   2.320   9.447  0.4945 -1.9366  1.7854
  242MOL0     H33380   7.763   2.792  10.588 -0.5716 -0.0175 -0.5914
  242MOL0     H33381   7.619   2.879  10.765  0.1048  0.8746 -0.3538
  242MOL0     H33382   7.329   3.480  10.831 -0.5481  2.0340  1.1062
  242MOL0     H33383   7.172   3.547  11.018  2.6848  0.6426  0.6290
  242MOL0     H33384   7.012   3.224  11.276  1.9353 -0.4566  1.2310
  242MOL0     H33385   7.107   3.343  11.352 -0.8096 -3.2878  2.1893
  242MOL0     H33386   6.818   3.401  11.264  1.2742  1.1525 -0.3540
  242MOL0     H33387   6.903   3.485  11.392 -1.3878  1.0339 -1.1004
  242MOL0     H33388   6.805   3.201  11.398  3.1909 -1.8556 -0.3799
  242MOL0     H33389   6.909   3.267  11.530  0.6248 -1.0965 -1.1981
  242MOL0     H33390   6.632   3.341  11.446 -2.1388  1.3401  1.0196
  242MOL0     H33391   6.719   3.457  11.540  2.3380 -0.4659 -2.3983
  242MOL0     H33392   6.637   3.143  11.825 -0.8318  1.1117  0.8180
  242MOL0     H33393   7.126   3.137  11.128  1.3958 -0.2044 -0.5706
  242MOL0     H33394   7.235   2.974  11.045  1.9574 -1.6004  0.1159
  242MOL0     H33395   7.221   2.984  10.869  0.9122  1.8626 -1.2138
  242MOL0     H33396   7.379   3.003  10.956 -1.0359 -6.2653  0.5802
  243MOL0     O33397   6.660   0.073   3.434 -0.4269  0.3550 -0.0193
  243MOL0     C33398   6.598   0.157   3.486  0.4240 -0.6550 -1.0429
  243MOL0     O33399   6.545   0.269   3.422 -0.5812 -0.0246  0.1120
  243MOL0     C33400   6.563   0.287   3.288  0.2865  0.5772  0.5131
  243MOL0     C33401   6.690   0.335   3.250 -0.4998 -0.2880 -0.2997
  243MOL0     C33402   6.716   0.369   3.115  0.4975 -1.3108  0.6192
  243MOL0     C33403   6.611   0.375   3.024 -0.3271  0.5450 -0.8964
  243MOL0     O33404   6.645   0.416   2.897 -0.2778  0.0079  1.0398
  243MOL0     C33405   6.571   0.361   2.784  0.1790  0.3726  1.2587
  243MOL0     C33406   6.644   0.385   2.650  0.2786 -0.8334  0.6189
  243MOL0     C33407   6.659   0.538   2.617  0.3482  0.4576 -0.3359
  243MOL0     C33408   6.653   0.552   2.470 -0.3708 -0.3082  0.3322
  243MOL0     C33409   6.683   0.689   2.421 -0.1448 -0.5886  0.0139
  243MOL0     C33410   6.668   0.714   2.266 -0.4907  0.3575 -0.4737
  243MOL0     C33411   6.718   0.862   2.245  0.3652 -0.7332 -0.2478
  243MOL0     C33412   6.608   0.975   2.259 -0.6438 -0.5646 -0.8919
  243MOL0     N33413   6.499   0.956   2.157  0.4153  0.1448 -0.2698
  243MOL0     C33414   6.509   0.927   2.021 -0.5595  0.5310 -0.7445
  243MOL0     C33415   6.389   0.885   1.983  0.9258  0.1845  0.2785
  243MOL0     C33416   6.348   0.828   1.849  0.2290 -0.3802 -0.6141
  243MOL0     C33417   6.270   0.943   1.778 -0.5920 -0.0790  0.1319
  243MOL0     C33418   6.207   0.892   1.651 -0.0669 -0.3208  0.5215
  243MOL0     C33419   6.105   0.997   1.595 -1.3455 -0.1140 -0.5068
  243MOL0     O33420   5.977   0.954   1.647 -0.4981 -0.1745 -0.3588
  243MOL0     C33421   5.860   1.026   1.619 -0.4197  0.4314 -1.0359
  243MOL0     C33422   5.734   0.964   1.658  0.1321 -0.1957  0.1990
  243MOL0     C33423   5.610   1.037   1.645 -0.7281 -0.1489  0.0635
  243MOL0     C33424   5.484   0.979   1.685 -0.8107  0.2213  0.9047
  243MOL0     C33425   5.608   1.169   1.596 -0.8144 -0.0737  0.6056
  243MOL0     C33426   5.499   1.260   1.567 -0.2182 -0.0892 -0.0019
  243MOL0     O33427   5.393   1.264   1.657 -0.1130 -0.4744  0.4354
  243MOL0     C33428   5.269   1.316   1.607  1.1945  0.9549 -0.5402
  243MOL0     C33429   5.193   1.243   1.516 -1.1975  0.4763  0.6520
  243MOL0     C33430   5.080   1.299   1.457 -0.6356 -0.4205 -0.2104
  243MOL0     C33431   5.038   1.429   1.502 -1.1063 -0.0002  0.0190
  243MOL0     O33432   4.935   1.485   1.433  0.2835  0.5371  0.7551
  243MOL0     C33433   4.974   1.594   1.328 -0.1024  0.6840 -0.2431
  243MOL0     C33434   4.959   1.541   1.183  0.3531  0.3003  0.6912
  243MOL0     C33435   4.817   1.492   1.151  0.1869 -0.0720  0.7532
  243MOL0     C33436   4.815   1.430   1.001  0.3373  0.3415 -0.0245
  243MOL0     C33437   4.748   1.535   0.913 -0.0131 -0.6903  0.2364
  243MOL0     C33438   4.696   1.499   0.771 -0.9531  0.1291  0.9710
  243MOL0     C33439   4.636   1.611   0.683 -0.1219  0.9102 -0.4181
  243MOL0     C33440   4.713   1.749   0.675  0.0414  0.5331  0.0736
  243MOL0    Cl33441   4.876   1.710   0.601 -0.4026 -0.6183 -0.4144
  243MOL0     C33442   5.105   1.495   1.604  0.6192 -0.2633  0.1909
  243MOL0     C33443   5.214   1.432   1.658 -0.9218 -0.4142  0.5938
  243MOL0     O33444   5.506   1.310   1.450  0.6822 -0.0401 -0.5999
  243MOL0     C33445   5.735   1.218   1.549  0.4058 -0.8245  0.5214
  243MOL0     C33446   5.856   1.157   1.565 -0.1406  0.4425  1.2018
  243MOL0     N33447   6.297   0.905   2.088  0.2022 -0.1618  0.3029
  243MOL0     N33448   6.366   0.934   2.187  1.2836  1.4571  0.8467
  243MOL0     C33449   6.478   0.345   3.071  1.0883  0.0963  0.2660
  243MOL0     C33450   6.458   0.303   3.204  0.1732  0.2584 -0.3211
  243MOL0     C33451   6.568   0.142   3.633  0.6702  0.5104  0.4358
  243MOL0     C33452   6.450   0.201   3.682 -0.4938 -0.0505  0.3483
  243MOL0     C33453   6.433   0.186   3.824 -0.8084 -1.1305  0.5704
  243MOL0     C33454   6.514   0.116   3.913 -0.0193 -0.1979  1.0496
  243MOL0     O33455   6.482   0.100   4.041  0.2389 -0.1541  0.1955
  243MOL0     C33456   6.408  -0.023   4.062  0.1598 -0.0021  0.1579
  243MOL0     C33457   6.262   0.008   4.110  0.5607  1.1193 -0.5531
  243MOL0     C33458   6.218  -0.080   4.229 -0.2359 -0.1811 -0.8480
  243MOL0     C33459   6.083  -0.021   4.279 -0.7186 -0.5144 -0.2333
  243MOL0     C33460   6.030  -0.076   4.404 -0.7382 -0.0518  0.1135
  243MOL0     C33461   5.997  -0.114   4.518 -0.4200 -1.0504  0.8737
  243MOL0     C33462   6.632   0.070   3.861 -0.6486 -0.4234  0.1988
  243MOL0     C33463   6.661   0.073   3.721  0.3712  0.2601 -0.6864
  243MOL0     C33464   6.790   0.016   3.682 -0.1610 -0.3866  0.4875
  243MOL0     H33465   6.782   0.340   3.307 -1.7508  0.9319  1.7737
  243MOL0     H33466   6.820   0.384   3.090  0.4711  0.1542  1.3055
  243MOL0     H33467   6.465   0.385   2.778  0.0255  1.1221  5.0000
  243MOL0     H33468   6.559   0.254   2.801 -2.6062  0.6547  1.4441
  243MOL0     H33469   6.741   0.334   2.650 -0.2941 -1.9527  0.1341
  243MOL0     H33470   6.586   0.336   2.571 -1.9997  0.7388  1.2028
  243MOL0     H33471   6.569   0.575   2.667 -0.3030 -1.1927 -0.2266
  243MOL0     H33472   6.760   0.572   2.644  1.3589 -0.4734 -2.6880
  243MOL0     H33473   6.720   0.482   2.419  1.0065 -0.6298  2.4833
  243MOL0     H33474   6.551   0.527   2.439 -0.7142  0.2203  1.0151
  243MOL0     H33475   6.789   0.711   2.434 -0.6979  2.0758  0.5432
  243MOL0     H33476   6.622   0.763   2.473  0.5729 -0.8585  1.2601
  243MOL0     H33477   6.738   0.647   2.214  0.6908  1.6253 -0.5566
  243MOL0     H33478   6.562   0.700   2.240 -0.4409 -1.0051 -0.0311
  243MOL0     H33479   6.765   0.863   2.146  1.3491  0.2019  0.2019
  243MOL0     H33480   6.806   0.891   2.304 -0.0685 -1.6064  0.8575
  243MOL0     H33481   6.565   0.986   2.359 -3.3833  0.1192 -2.0478
  243MOL0     H33482   6.649   1.072   2.229  1.9878 -1.6455 -1.0184
  243MOL0     H33483   6.603   0.936   1.967  0.3948 -1.0339  0.5905
  243MOL0     H33484   6.283   0.742   1.867 -2.1920  0.3732 -4.4508
  243MOL0     H33485   6.440   0.792   1.802  1.1593  3.6865 -2.4066
  243MOL0     H33486   6.189   0.963   1.849 -0.4155 -3.6745  1.5130
  243MOL0     H33487   6.329   1.035   1.765 -1.7587  0.8951  1.4332
  243MOL0     H33488   6.293   0.871   1.586 -0.8780  0.0655 -0.7134
  243MOL0     H33489   6.157   0.796   1.669  0.9276 -0.6084  1.9995
  243MOL0     H33490   6.130   1.102   1.610  0.8756 -0.6380 -0.3158
  243MOL0     H33491   6.100   0.987   1.486 -0.9950 -0.3939 -0.4989
  243MOL0     H33492   5.738   0.857   1.678  0.3055 -0.8047 -2.6051
  243MOL0     H33493   5.497   0.871   1.679  2.3148  0.4616  1.5087
  243MOL0     H33494   5.407   1.011   1.614  0.4709  1.9961  0.2319
  243MOL0     H33495   5.459   1.027   1.780 -1.3061  2.4400 -0.2812
  243MOL0     H33496   5.222   1.144   1.482 -2.7475  0.2917 -0.2264
  243MOL0     H33497   5.026   1.244   1.381 -1.2391 -0.1803  0.0315
  243MOL0     H33498   4.911   1.680   1.353 -0.4865 -0.1972  1.9983
  243MOL0     H33499   5.073   1.638   1.343  0.1016  0.4884 -0.9663
  243MOL0     H33500   4.990   1.621   1.116  1.0956 -1.0722 -0.6678
  243MOL0     H33501   5.029   1.457   1.173  0.3427  0.5576 -2.6649
  243MOL0     H33502   4.742   1.571   1.162 -3.4080 -3.4272  3.6602
  243MOL0     H33503   4.783   1.417   1.223  0.2208 -0.4775  0.3541
  243MOL0     H33504   4.746   1.346   1.004 -2.2287  2.3402  2.0566
  243MOL0     H33505   4.916   1.395   0.979  0.4500 -1.4191  2.7791
  243MOL0     H33506   4.658   1.566   0.967  0.4527 -1.6757  1.6209
  243MOL0     H33507   4.820   1.617   0.907 -2.7163  1.8051 -0.2716
  243MOL0     H33508   4.627   1.416   0.786 -0.4190 -1.0569 -2.2137
  243MOL0     H33509   4.782   1.467   0.711  3.3833  1.2323  5.9091
  243MOL0     H33510   4.541   1.632   0.733  1.3074  1.5803  2.1902
  243MOL0     H33511   4.611   1.571   0.585 -1.6530 -0.1768  0.3783
  243MOL0     H33512   4.725   1.802   0.770 -2.4265 -0.1521  0.8390
  243MOL0     H33513   4.663   1.814   0.603  1.1487  0.9966 -0.3114
  243MOL0     H33514   5.082   1.597   1.633 -0.6013  0.3425 -2.6023
  243MOL0     H33515   5.257   1.482   1.744  1.2057 -0.3387 -0.4680
  243MOL0     H33516   5.736   1.321   1.514 -4.1734 -1.4862 -2.3076
  243MOL0     H33517   5.953   1.197   1.535 -0.2568  0.3199  0.6683
  243MOL0     H33518   6.396   0.350   3.001 -0.2751  2.1940  1.8817
  243MOL0     H33519   6.355   0.287   3.236  0.6952  0.5897  1.6775
  243MOL0     H33520   6.374   0.240   3.616 -1.2879 -0.5172  0.9795
  243MOL0     H33521   6.332   0.205   3.859 -1.6062 -3.4374 -0.2902
  243MOL0     H33522   6.406  -0.092   3.977 -1.5473 -1.6289  1.4380
  243MOL0     H33523   6.460  -0.075   4.144 -1.9135 -1.5996  0.5700
  243MOL0     H33524   6.184  -0.008   4.034  0.4013  1.7203 -0.5179
  243MOL0     H33525   6.261   0.110   4.148 -0.4769  0.4708  1.3197
  243MOL0     H33526   6.198  -0.183   4.200  0.1247 -0.3634 -0.4667
  243MOL0     H33527   6.288  -0.075   4.313  1.4968  2.8260 -2.2921
  243MOL0     H33528   6.009  -0.056   4.206  1.3943 -0.6422 -2.4104
  243MOL0     H33529   6.087   0.088   4.273 -4.0115 -0.1366  1.8472
  243MOL0     H33530   5.973  -0.155   4.614  0.1098 -1.4128  0.8559
  243MOL0     H33531   6.698   0.029   3.937 -0.3195 -0.8562 -0.3168
  243MOL0     H33532   6.843   0.088   3.619 -2.0985 -1.2938 -2.3368
  243MOL0     H33533   6.846  -0.004   3.774  2.0272  2.2708 -0.1442
  243MOL0     H33534   6.775  -0.078   3.628  1.4188 -0.3241 -0.1012
  244MOL0     O33535   6.573   9.561   2.423  0.2848  0.0310  0.0009
  244MOL0     C33536   6.502   9.645   2.476 -0.7941  0.2087  0.2686
  244MOL0     O33537   6.528   9.706   2.595 -1.1083 -0.3077 -0.1599
  244MOL0     C33538   6.665   9.721   2.624  1.4731  0.8433 -0.2851
  244MOL0     C33539   6.741   9.825   2.575 -1.3644  0.1969 -0.0762
  244MOL0     C33540   6.869   9.846   2.599 -0.3398 -0.1901 -0.1906
  244MOL0     C33541   6.948   9.740   2.664  0.2133 -1.5355 -0.6066
  244MOL0     O33542   7.086   9.749   2.683  0.0932 -0.1242  0.2871
  244MOL0     C33543   7.153   9.656   2.597 -0.1986 -0.1450  0.0331
  244MOL0     C33544   7.290   9.634   2.651 -0.4419 -0.3237  1.0355
  244MOL0     C33545   7.387   9.549   2.570  0.0538 -0.5760 -0.7301
  244MOL0     C33546   7.357   9.399   2.555 -0.3837 -0.1732 -0.8919
  244MOL0     C33547   7.475   9.323   2.487 -0.2726 -0.0454  0.1162
  244MOL0     C33548   7.443   9.171   2.456 -0.4416 -0.8642 -0.3605
  244MOL0     C33549   7.326   9.137   2.370  0.5248 -0.5526  0.1596
  244MOL0     C33550   7.260   9.009   2.410  0.1675  0.4738 -0.5375
  244MOL0     N33551   7.350   8.887   2.414  0.4009 -0.0435  0.4376
  244MOL0     C33552   7.360   8.791   2.319 -0.4939  0.4764  0.1933
  244MOL0     C33553   7.445   8.704   2.375 -0.2581 -0.4002 -0.3951
  244MOL0     C33554   7.498   8.570   2.318 -0.2058  0.5736 -0.1910
  244MOL0     C33555   7.404   8.454   2.353 -0.1605 -0.2646  0.2750
  244MOL0     C33556   7.374   8.438   2.503 -0.4358  0.2241  0.1591
  244MOL0     C33557   7.295   8.301   2.532 -0.0454 -0.5632  0.2976
  244MOL0     O33558   7.383   8.211   2.602 -0.0298  0.4883  0.2592
  244MOL0     C33559   7.328   8.086   2.628  0.1823 -0.5573 -0.5842
  244MOL0     C33560   7.252   8.010   2.535  0.3451 -0.0323  0.6478
  244MOL0     C33561   7.209   7.880   2.560  0.0639 -0.3611  0.5945
  244MOL0     C33562   7.144   7.818   2.437 -0.3094 -0.3502 -0.1120
  244MOL0     C33563   7.227   7.822   2.684 -0.4770  1.9769 -0.1127
  244MOL0     C33564   7.189   7.685   2.712 -0.4044  0.3112  0.0440
  244MOL0     O33565   7.135   7.604   2.615 -0.1629  0.3540 -0.2001
  244MOL0     C33566   7.094   7.485   2.660  0.0081 -0.0069 -0.2099
  244MOL0     C33567   6.966   7.457   2.640  1.1210  0.1548  0.1378
  244MOL0     C33568   6.911   7.337   2.672 -0.2474 -1.3239 -1.1373
  244MOL0     C33569   6.997   7.224   2.693 -0.6596 -0.1209  0.1540
  244MOL0     O33570   6.939   7.098   2.716 -0.0831 -1.1611  0.1200
  244MOL0     C33571   7.020   6.995   2.774 -0.0890 -0.1897 -0.1534
  244MOL0     C33572   6.938   6.873   2.807 -0.2639 -0.4793 -0.6187
  244MOL0     C33573   6.902   6.784   2.676 -0.1300 -0.2515 -0.2877
  244MOL0     C33574   6.848   6.872   2.556 -0.8687 -0.6384  0.4705
  244MOL0     C33575   6.831   6.815   2.413  0.2869  0.1323 -0.3419
  244MOL0     C33576   6.748   6.910   2.330  0.1810 -0.7212 -0.1965
  244MOL0     C33577   6.598   6.937   2.377  0.1453  0.7539 -0.6771
  244MOL0     C33578   6.518   7.006   2.260  0.1589 -0.0490  0.1302
  244MOL0    Cl33579   6.354   7.008   2.330 -0.0823  0.1858  0.4345
  244MOL0     C33580   7.137   7.258   2.708  0.7122 -0.5667 -0.4658
  244MOL0     C33581   7.182   7.388   2.699 -1.0234  0.6702  0.2840
  244MOL0     O33582   7.212   7.647   2.826  0.1525 -0.8523 -0.3721
  244MOL0     C33583   7.293   7.903   2.778 -0.0343 -0.3417  1.2267
  244MOL0     C33584   7.344   8.030   2.752 -0.0886  0.5298 -0.5286
  244MOL0     N33585   7.485   8.747   2.502  0.1604 -0.7249 -0.6554
  244MOL0     N33586   7.421   8.856   2.520 -0.8792 -0.1589  0.4136
  244MOL0     C33587   6.880   9.631   2.711  0.4635 -0.4544  0.4804
  244MOL0     C33588   6.741   9.615   2.681 -0.3804 -0.7714 -1.4424
  244MOL0     C33589   6.364   9.652   2.416 -0.2962  0.1845  0.0885
  244MOL0     C33590   6.269   9.640   2.518 -0.3387 -0.9550  0.5493
  244MOL0     C33591   6.134   9.636   2.492 -0.2551 -0.3475 -0.1310
  244MOL0     C33592   6.086   9.647   2.364 -0.3270 -0.7964  0.6371
  244MOL0     O33593   5.949   9.660   2.351 -0.8211 -0.0084 -0.0611
  244MOL0     C33594   5.901   9.572   2.256 -0.3070  0.6256 -0.3958
  244MOL0     C33595   5.769   9.524   2.305 -0.0362 -0.2903  0.1897
  244MOL0     C33596   5.766   9.462   2.443 -0.5804 -0.6692  0.2144
  244MOL0     C33597   5.634   9.391   2.473  0.2870 -0.5874  0.4226
  244MOL0     C33598   5.514   9.467   2.471 -0.3641  0.1871 -0.5300
  244MOL0     C33599   5.409   9.527   2.469  0.2617  0.5481  0.1479
  244MOL0     C33600   6.181   9.652   2.253  0.6486  0.0850  0.0475
  244MOL0     C33601   6.320   9.659   2.281  1.0263  0.4557  0.2456
  244MOL0     C33602   6.415   9.650   2.162  0.2337 -0.4431  0.1721
  244MOL0     H33603   6.691   9.910   2.528 -1.1159  0.5447  0.2887
  244MOL0     H33604   6.921   9.932   2.558  2.2886  0.9432  4.6585
  244MOL0     H33605   7.159   9.703   2.498  1.5766  1.7970  1.0023
  244MOL0     H33606   7.108   9.559   2.573  0.0299  0.1888 -1.9028
  244MOL0     H33607   7.325   9.734   2.676 -2.0363  0.4485  0.2922
  244MOL0     H33608   7.290   9.575   2.743 -2.9816 -2.7483 -0.3559
  244MOL0     H33609   7.387   9.579   2.465  1.1631  2.5892  0.0676
  244MOL0     H33610   7.484   9.572   2.616 -1.3785  0.2799  2.1227
  244MOL0     H33611   7.338   9.355   2.653  2.2701  0.9672  0.2384
  244MOL0     H33612   7.274   9.384   2.486 -2.0297 -4.4458  1.6741
  244MOL0     H33613   7.566   9.329   2.546  0.3430  0.3555 -0.8496
  244MOL0     H33614   7.483   9.371   2.389  0.2662  0.1275  0.2456
  244MOL0     H33615   7.532   9.120   2.417 -1.2107 -1.7512 -1.0004
  244MOL0     H33616   7.413   9.121   2.548 -2.0858  0.5884 -0.0705
  244MOL0     H33617   7.358   9.139   2.265  0.4821  0.8915  0.1488
  244MOL0     H33618   7.254   9.216   2.391  0.4085 -0.2139 -1.3825
  244MOL0     H33619   7.228   9.021   2.514 -0.9955 -0.0360 -0.8162
  244MOL0     H33620   7.170   8.989   2.351  0.1728  4.0949 -2.0127
  244MOL0     H33621   7.311   8.793   2.222 -2.3280 -0.4711  1.0569
  244MOL0     H33622   7.599   8.550   2.355  0.0162  1.1223 -0.4829
  244MOL0     H33623   7.517   8.573   2.211 -0.6396 -0.1273 -0.2877
  244MOL0     H33624   7.311   8.478   2.300  1.2149  3.3032 -0.8217
  244MOL0     H33625   7.455   8.360   2.330  2.7950  1.1206  0.7622
  244MOL0     H33626   7.467   8.449   2.559 -0.9573  2.2053  0.7274
  244MOL0     H33627   7.317   8.524   2.540  1.5256  0.1383  3.8348
  244MOL0     H33628   7.199   8.306   2.584 -1.6894 -1.9019 -2.3822
  244MOL0     H33629   7.267   8.259   2.435  4.1487 -2.3723 -0.3927
  244MOL0     H33630   7.239   8.056   2.438 -2.1914 -0.2538  0.8219
  244MOL0     H33631   7.128   7.889   2.356  4.4200 -1.4684 -2.3720
  244MOL0     H33632   7.053   7.761   2.457  0.3735 -1.7224 -0.7590
  244MOL0     H33633   7.216   7.751   2.388 -0.4729  1.0734 -2.4650
  244MOL0     H33634   6.906   7.537   2.598 -0.4680  0.1421  2.2245
  244MOL0     H33635   6.806   7.329   2.646 -0.3177 -1.1542 -0.9158
  244MOL0     H33636   7.093   6.970   2.697  0.7327 -1.3112  0.9576
  244MOL0     H33637   7.055   7.041   2.867 -3.2487  3.2085 -0.3795
  244MOL0     H33638   6.987   6.816   2.886  0.6838  2.7913  1.3626
  244MOL0     H33639   6.854   6.912   2.865  0.6484  1.6494 -0.6367
  244MOL0     H33640   6.838   6.702   2.710 -1.2932  1.2311  1.2837
  244MOL0     H33641   6.993   6.736   2.640 -2.1415 -3.2152 -1.8172
  244MOL0     H33642   6.923   6.947   2.529 -1.7420 -1.0356 -3.7629
  244MOL0     H33643   6.753   6.921   2.581 -1.2337 -0.0794 -1.8291
  244MOL0     H33644   6.932   6.789   2.380  1.1285  0.5795  1.7084
  244MOL0     H33645   6.778   6.719   2.414  1.8211 -0.8042  2.1136
  244MOL0     H33646   6.743   6.877   2.226 -2.6401  1.2895 -0.7874
  244MOL0     H33647   6.801   7.005   2.341  2.3080 -1.9249  0.5595
  244MOL0     H33648   6.600   6.983   2.476 -2.1404 -3.1628  1.4254
  244MOL0     H33649   6.553   6.839   2.396  1.8073  0.6658  4.0040
  244MOL0     H33650   6.531   6.940   2.174 -0.6222 -0.2006  0.1213
  244MOL0     H33651   6.557   7.103   2.227  0.6890 -1.4152 -3.8408
  244MOL0     H33652   7.207   7.180   2.735  1.0743  0.0159  0.3215
  244MOL0     H33653   7.287   7.410   2.716 -0.1546 -1.9672 -1.0633
  244MOL0     H33654   7.300   7.864   2.879  0.4732  0.2291  1.4112
  244MOL0     H33655   7.391   8.083   2.835  1.5162 -0.4004 -0.7957
  244MOL0     H33656   6.932   9.546   2.756 -1.1393 -1.1821  1.0242
  244MOL0     H33657   6.685   9.529   2.717  0.2444 -0.6726 -0.1952
  244MOL0     H33658   6.314   9.634   2.616 -0.6199 -0.4598  0.7121
  244MOL0     H33659   6.054   9.629   2.565  0.4497  0.0188  0.6870
  244MOL0     H33660   5.884   9.633   2.167  1.6964  0.4337 -0.9678
  244MOL0     H33661   5.963   9.482   2.242 -1.6894 -0.5857  0.9183
  244MOL0     H33662   5.748   9.440   2.237 -0.2949  1.1145 -1.5333
  244MOL0     H33663   5.694   9.603   2.294 -1.8477 -1.5141  2.6244
  244MOL0     H33664   5.851   9.393   2.444 -0.0724 -0.0611 -0.4698
  244MOL0     H33665   5.805   9.533   2.516 -0.6638  1.3012 -1.5716
  244MOL0     H33666   5.650   9.362   2.578  1.5894 -1.3105  0.0407
  244MOL0     H33667   5.617   9.305   2.407 -1.2184 -1.0297  1.3142
  244MOL0     H33668   5.316   9.580   2.476  0.7786  1.8256 -1.7752
  244MOL0     H33669   6.134   9.649   2.156  1.3426 -1.2836 -0.2711
  244MOL0     H33670   6.451   9.547   2.155  0.1318 -0.3935 -1.6227
  244MOL0     H33671   6.350   9.666   2.075  0.9452 -1.6983 -0.6302
  244MOL0     H33672   6.503   9.716   2.162  1.2081 -1.5613 -2.9208
  245MOL0     O33673   0.234   9.274  10.626 -0.0773 -0.4622 -0.0043
  245MOL0     C33674   0.220   9.396  10.656  1.1147  0.2407  1.1580
  245MOL0     O33675   0.170   9.488  10.578 -0.7238  0.6124 -0.3991
  245MOL0     C33676   0.106   9.452  10.464 -0.7756 -0.1349  0.3327
  245MOL0     C33677   0.041   9.334  10.419 -0.0254 -0.2420 -0.1409
  245MOL0     C33678  -0.017   9.319  10.289  0.3157 -0.1006  1.2025
  245MOL0     C33679  -0.012   9.436  10.201 -0.9417  0.5915  0.2532
  245MOL0     O33680  -0.066   9.438  10.072  0.4024  0.5766  0.4849
  245MOL0     C33681  -0.051   9.312  10.005 -0.0229  0.7493 -0.2718
  245MOL0     C33682  -0.049   9.326   9.855  0.1173  0.8531 -0.2098
  245MOL0     C33683   0.019   9.446   9.806 -0.8214  0.2582 -0.0441
  245MOL0     C33684   0.000   9.446   9.652 -0.7068 -0.6065 -0.1251
  245MOL0     C33685   0.061   9.579   9.600  0.8812  0.3570  0.6329
  245MOL0     C33686   0.067   9.558   9.450  1.4124  0.2944 -0.1135
  245MOL0     C33687   0.090   9.691   9.386 -0.4373 -0.1704  0.3622
  245MOL0     C33688   0.181   9.678   9.259 -0.3232 -0.3125  0.0051
  245MOL0     N33689   0.126   9.595   9.153  0.5837 -0.9664  0.8173
  245MOL0     C33690   0.053   9.648   9.046 -0.7002 -0.1317 -0.0673
  245MOL0     C33691   0.001   9.535   8.990 -0.5642 -0.2400  0.4385
  245MOL0     C33692  -0.111   9.538   8.875 -0.6792 -0.4819 -1.5525
  245MOL0     C33693  -0.222   9.639   8.915 -0.3476  0.9444  0.0551
  245MOL0     C33694  -0.305   9.597   9.037 -0.7623 -0.5873 -0.0895
  245MOL0     C33695  -0.410   9.712   9.061 -0.1916 -0.0010 -0.0956
  245MOL0     O33696  -0.359   9.843   9.081 -0.6030  0.5176  0.5930
  245MOL0     C33697  -0.293   9.867   9.196  0.0276  0.7154 -0.0237
  245MOL0     C33698  -0.232   9.992   9.204  0.5778 -0.6876 -0.3934
  245MOL0     C33699  -0.177  10.054   9.320 -0.2811 -0.3843  0.4483
  245MOL0     C33700  -0.128  10.195   9.309 -0.1345 -0.7853 -0.4367
  245MOL0     C33701  -0.173   9.977   9.441  0.0483 -0.3859 -0.2319
  245MOL0     C33702  -0.106  10.020   9.574  0.1119 -0.3016 -0.0188
  245MOL0     O33703  -0.108   9.929   9.673  0.0608  0.4979  0.1121
  245MOL0     C33704  -0.032   9.934   9.787  0.8201  1.3168 -0.6233
  245MOL0     C33705  -0.086   9.999   9.900  0.1209  0.4403  0.5874
  245MOL0     C33706  -0.019   9.987  10.028  0.4410 -0.3935  0.0886
  245MOL0     C33707   0.100   9.915  10.046 -0.4611  0.4885  0.3422
  245MOL0     O33708   0.164   9.903  10.168  0.2599  0.5186  0.4040
  245MOL0     C33709   0.188  10.018  10.252  0.1710 -0.6532  0.1782
  245MOL0     C33710   0.173   9.970  10.402  0.5196  1.0133 -0.3065
  245MOL0     C33711   0.023   9.936  10.445  0.2952 -0.1581 -0.1510
  245MOL0     C33712  -0.001   9.900  10.596 -0.0382  0.8775  0.3116
  245MOL0     C33713  -0.146   9.895  10.625 -0.0904  0.7970  0.3225
  245MOL0     C33714  -0.216  10.023  10.614 -0.5655  0.4904  0.1648
  245MOL0     C33715  -0.368  10.016  10.636  1.1327 -0.6487 -0.1708
  245MOL0     C33716  -0.441  10.141  10.623  0.3226 -0.0720  0.4950
  245MOL0    Cl33717  -0.624  10.101  10.653  0.2631 -0.2164 -0.2386
  245MOL0     C33718   0.144   9.844   9.928  0.2823 -1.1207 -0.1365
  245MOL0     C33719   0.087   9.862   9.802 -0.8561  0.2829 -0.4116
  245MOL0     O33720  -0.059  10.128   9.580 -0.0631 -0.2522  0.0561
  245MOL0     C33721  -0.225   9.838   9.433 -0.0461  0.3788  0.6421
  245MOL0     C33722  -0.285   9.787   9.321 -0.7619 -0.3414  0.1388
  245MOL0     N33723   0.023   9.424   9.063 -0.2095  0.2611  0.5316
  245MOL0     N33724   0.107   9.460   9.152 -1.0586  1.1529  0.1928
  245MOL0     C33725   0.042   9.550  10.251 -0.5497 -0.5848 -1.4391
  245MOL0     C33726   0.097   9.564  10.376 -0.3758  0.0622 -0.7019
  245MOL0     C33727   0.271   9.450  10.790  0.7677  0.3420 -0.3393
  245MOL0     C33728   0.242   9.580  10.827 -0.2554 -0.5422 -0.0431
  245MOL0     C33729   0.304   9.632  10.938  0.4513  0.3783  0.3689
  245MOL0     C33730   0.405   9.562  11.003  0.5169 -0.2845  0.0487
  245MOL0     O33731   0.479   9.612  11.102 -0.1304 -0.7676  0.6633
  245MOL0     C33732   0.432   9.581  11.239  1.0878  0.5969 -0.7708
  245MOL0     C33733   0.517   9.611  11.360 -0.1474  0.2743  0.0350
  245MOL0     C33734   0.563   9.757  11.362 -0.8190 -0.5615 -0.4148
  245MOL0     C33735   0.465   9.854  11.425  0.5916 -0.6128 -0.3567
  245MOL0     C33736   0.497   9.998  11.386 -0.5042  0.4286 -0.1825
  245MOL0     C33737   0.532  10.113  11.371 -0.6520 -0.6693 -0.2013
  245MOL0     C33738   0.435   9.439  10.964 -0.3354  0.1040 -0.6585
  245MOL0     C33739   0.361   9.373  10.868 -0.1451  0.4614  0.4791
  245MOL0     C33740   0.417   9.238  10.833  0.1722 -0.1662 -0.1935
  245MOL0     H33741   0.035   9.250  10.488 -0.9490 -1.1215 -1.2393
  245MOL0     H33742  -0.064   9.227  10.257  1.2144 -0.3887  0.6531
  245MOL0     H33743  -0.116   9.231  10.040 -1.5069  1.4186 -1.3689
  245MOL0     H33744   0.047   9.271  10.031  1.4779  3.1757 -1.6455
  245MOL0     H33745  -0.002   9.231   9.825  3.0933  2.0454  0.2619
  245MOL0     H33746  -0.156   9.336   9.838 -0.1349  1.7792  1.7164
  245MOL0     H33747  -0.017   9.534   9.859 -1.1956  0.3303 -0.4168
  245MOL0     H33748   0.124   9.421   9.824 -1.1509 -0.7969  0.4999
  245MOL0     H33749   0.049   9.356   9.612  1.0579  0.5439 -0.6815
  245MOL0     H33750  -0.105   9.447   9.623 -0.4459  0.4029 -1.0565
  245MOL0     H33751   0.163   9.595   9.635  0.6218 -1.4007  2.3904
  245MOL0     H33752  -0.002   9.661   9.636 -1.0345 -0.7295 -0.0953
  245MOL0     H33753   0.152   9.493   9.425  1.6861  0.4297  0.4474
  245MOL0     H33754  -0.028   9.520   9.413  1.5868 -0.9707  0.6671
  245MOL0     H33755   0.143   9.756   9.455  2.1799 -2.1655  0.3857
  245MOL0     H33756  -0.004   9.737   9.353 -0.6687 -1.9953 -1.7657
  245MOL0     H33757   0.190   9.779   9.219 -0.1426 -0.3271  0.0074
  245MOL0     H33758   0.281   9.644   9.289 -1.0185  0.1146  3.2339
  245MOL0     H33759   0.024   9.749   9.019 -1.9636 -0.2666  0.7084
  245MOL0     H33760  -0.142   9.436   8.855 -0.9249 -0.9127  0.7506
  245MOL0     H33761  -0.062   9.587   8.790 -0.3176  1.7657 -0.1497
  245MOL0     H33762  -0.179   9.739   8.926 -0.1174  1.1391 -2.1057
  245MOL0     H33763  -0.291   9.632   8.830  1.8806 -2.6725 -1.7215
  245MOL0     H33764  -0.375   9.514   9.020 -2.2807  0.3567  1.2680
  245MOL0     H33765  -0.255   9.575   9.132 -2.9224 -0.2192  1.1996
  245MOL0     H33766  -0.482   9.706   8.980 -0.7090 -4.4671  0.4189
  245MOL0     H33767  -0.474   9.685   9.146  0.8076 -0.4825  0.5286
  245MOL0     H33768  -0.215  10.040   9.109  0.2336 -0.3583 -0.2883
  245MOL0     H33769  -0.147  10.268   9.388  3.1137 -0.0299 -0.2107
  245MOL0     H33770  -0.153  10.240   9.213 -1.3422  2.5310  1.2755
  245MOL0     H33771  -0.018  10.196   9.315 -0.2045  0.7143  4.0663
  245MOL0     H33772  -0.180  10.054   9.899  0.4218  0.9657  0.9260
  245MOL0     H33773  -0.062  10.040  10.112  0.3542  0.6606 -0.6008
  245MOL0     H33774   0.288  10.055  10.228 -0.0816  0.8186  1.3170
  245MOL0     H33775   0.118  10.100  10.238  1.4517  0.7307  1.5634
  245MOL0     H33776   0.234   9.880  10.411 -2.8771 -1.3685  1.0602
  245MOL0     H33777   0.200  10.055  10.467 -2.6419  1.6418  0.3596
  245MOL0     H33778  -0.014   9.857  10.379  1.2659 -0.5784 -0.1997
  245MOL0     H33779  -0.032  10.025  10.413  2.0138 -0.2411 -3.8252
  245MOL0     H33780   0.056   9.962  10.667 -1.1095  0.5861  1.4520
  245MOL0     H33781   0.048   9.804  10.612  0.8082  0.7404 -2.5991
  245MOL0     H33782  -0.180   9.818  10.555  0.5714 -0.2738  1.1383
  245MOL0     H33783  -0.167   9.858  10.726 -1.0320 -0.4557 -0.2914
  245MOL0     H33784  -0.209  10.060  10.511 -2.1150  0.9256  0.1775
  245MOL0     H33785  -0.168  10.096  10.680 -0.5549 -0.2429  0.9818
  245MOL0     H33786  -0.402   9.974  10.731  1.9815  3.0927  1.9770
  245MOL0     H33787  -0.397   9.953  10.551 -2.3680  0.1134  0.3022
  245MOL0     H33788  -0.427  10.193  10.527 -0.2043 -0.8405 -0.0069
  245MOL0     H33789  -0.399  10.209  10.698  2.4085 -0.9838  0.2455
  245MOL0     H33790   0.239   9.792   9.924  0.5641 -0.9463  2.3515
  245MOL0     H33791   0.135   9.818   9.715 -1.2372 -1.3721  0.1785
  245MOL0     H33792  -0.231   9.779   9.523  0.1813  1.4361  1.3698
  245MOL0     H33793  -0.305   9.680   9.324  1.9095 -0.9867 -1.5303
  245MOL0     H33794   0.044   9.640  10.192  2.3939  0.7080  0.4038
  245MOL0     H33795   0.126   9.667  10.394 -4.2194  1.4231 -1.4093
  245MOL0     H33796   0.177   9.645  10.771  0.6833  1.3785  1.0058
  245MOL0     H33797   0.269   9.732  10.962 -1.7506 -0.6082  1.5635
  245MOL0     H33798   0.329   9.615  11.255  1.3548  2.0024 -1.8797
  245MOL0     H33799   0.442   9.472  11.242  1.4045  0.5678 -2.3239
  245MOL0     H33800   0.605   9.546  11.355 -0.8597 -0.9104  1.8300
  245MOL0     H33801   0.469   9.582  11.454 -0.2261  1.7160  0.4626
  245MOL0     H33802   0.653   9.759  11.423  0.1993  1.0049 -1.8790
  245MOL0     H33803   0.600   9.793  11.266  0.2530  0.1685  0.2525
  245MOL0     H33804   0.477   9.843  11.533  0.2460 -0.0446 -0.2531
  245MOL0     H33805   0.356   9.848  11.412 -0.0251  2.8141  1.8285
  245MOL0     H33806   0.576  10.210  11.359 -0.5986 -0.8075 -1.2269
  245MOL0     H33807   0.506   9.383  11.023 -1.6199  0.1026  0.9502
  245MOL0     H33808   0.453   9.247  10.730  1.4161 -0.7086  0.1755
  245MOL0     H33809   0.501   9.207  10.896  0.4063  1.6080  0.4199
  245MOL0     H33810   0.344   9.156  10.830  1.8764 -2.0120  3.1341
  246MOL0     O33811   7.341   1.409   9.351 -0.5149 -0.0353 -0.2179
  246MOL0     C33812   7.368   1.525   9.381  0.4406 -0.2688  0.0370
  246MOL0     O33813   7.481   1.593   9.347 -1.0663 -0.1216  0.5880
  246MOL0     C33814   7.579   1.509   9.290  0.8590 -0.3711  0.4487
  246MOL0     C33815   7.654   1.557   9.183 -0.2148  0.4193 -0.2868
  246MOL0     C33816   7.758   1.483   9.128  0.0031 -0.0300  1.1166
  246MOL0     C33817   7.797   1.360   9.180 -0.4163 -0.1190 -0.4661
  246MOL0     O33818   7.906   1.291   9.121  0.8419 -0.4436 -0.2275
  246MOL0     C33819   7.981   1.206   9.210  0.0797 -0.2818 -0.1951
  246MOL0     C33820   8.123   1.174   9.173  0.7042  0.2053  0.1759
  246MOL0     C33821   8.153   1.120   9.026  0.7053 -0.1032 -1.0010
  246MOL0     C33822   8.303   1.107   9.010  0.5973  0.3883 -0.7635
  246MOL0     C33823   8.323   1.098   8.858 -0.2735  0.3913  1.0328
  246MOL0     C33824   8.475   1.076   8.819  0.0296  0.9809 -0.1274
  246MOL0     C33825   8.514   1.170   8.698 -0.0816  1.3464 -0.0799
  246MOL0     C33826   8.641   1.124   8.631 -0.2458  0.3036  0.6916
  246MOL0     N33827   8.761   1.154   8.712 -0.5054 -0.1911  0.3278
  246MOL0     C33828   8.804   1.098   8.826 -0.4203  0.6862 -0.0810
  246MOL0     C33829   8.938   1.124   8.836 -0.3757  0.2153  0.2683
  246MOL0     C33830   9.016   1.071   8.956 -0.2101  0.3919  0.2347
  246MOL0     C33831   9.170   1.071   8.927  1.1027  0.1618 -0.7169
  246MOL0     C33832   9.248   1.046   9.055  0.4798  0.1452  0.6891
  246MOL0     C33833   9.213   0.897   9.104  0.1605 -1.1677  0.0463
  246MOL0     O33834   9.153   0.899   9.237 -0.2472 -0.1828 -1.0140
  246MOL0     C33835   9.235   0.951   9.337 -0.1019 -0.9672  0.0269
  246MOL0     C33836   9.160   0.996   9.448  0.7244  0.8084  0.5789
  246MOL0     C33837   9.220   1.043   9.557 -0.1084 -0.5394 -0.7462
  246MOL0     C33838   9.126   1.083   9.671 -0.4864 -0.4869 -0.3174
  246MOL0     C33839   9.362   1.059   9.562  0.0822  0.8675 -0.2850
  246MOL0     C33840   9.436   1.120   9.675 -0.3794 -0.9392 -0.1637
  246MOL0     O33841   9.563   1.072   9.696  0.3986 -0.6481  0.9706
  246MOL0     C33842   9.641   1.135   9.784 -0.7939  0.0966 -0.8159
  246MOL0     C33843   9.678   1.080   9.912 -0.4491 -0.3565  0.5901
  246MOL0     C33844   9.763   1.153  10.000  0.4091 -0.4655 -0.1564
  246MOL0     C33845   9.822   1.275   9.956 -0.5201  0.0437  0.0755
  246MOL0     O33846   9.923   1.329  10.042  0.6432  0.4684 -0.2239
  246MOL0     C33847   9.999   1.443  10.003  0.5334  0.7186 -0.4249
  246MOL0     C33848  10.089   1.474  10.117  0.0850  0.1804 -0.5163
  246MOL0     C33849  10.225   1.400  10.131  0.4111 -0.6751 -0.0598
  246MOL0     C33850  10.326   1.447  10.029 -0.2586  0.1669 -0.2928
  246MOL0     C33851  10.443   1.345  10.004 -0.1595 -0.4617  0.0292
  246MOL0     C33852  10.532   1.313  10.124  0.6915 -0.1627  0.6478
  246MOL0     C33853  10.668   1.257  10.075  0.3505 -0.2781 -0.0034
  246MOL0     C33854  10.735   1.177  10.189  0.2153  0.9214 -0.1767
  246MOL0    Cl33855  10.895   1.112  10.148 -0.6010  0.1940 -0.0987
  246MOL0     C33856   9.792   1.332   9.837  0.4125 -0.6326  0.7374
  246MOL0     C33857   9.708   1.259   9.753  0.8951  0.8036  0.3424
  246MOL0     O33858   9.388   1.224   9.720  0.1275  0.8582  0.7111
  246MOL0     C33859   9.442   1.011   9.452  0.1615 -0.0174 -0.0022
  246MOL0     C33860   9.375   0.963   9.341 -0.2586  0.4486  0.5637
  246MOL0     N33861   8.975   1.192   8.720  0.7314 -0.1461  0.1030
  246MOL0     N33862   8.875   1.202   8.647  0.6967 -0.2766 -0.0010
  246MOL0     C33863   7.729   1.317   9.287  0.6567 -0.8539 -0.6205
  246MOL0     C33864   7.614   1.379   9.336  0.7118 -0.2794 -1.2606
  246MOL0     C33865   7.271   1.598   9.450 -0.0738 -0.7662 -0.6414
  246MOL0     C33866   7.141   1.537   9.482 -0.8404 -0.2450 -0.2110
  246MOL0     C33867   7.037   1.612   9.528 -0.5873  0.7468 -0.2287
  246MOL0     C33868   7.044   1.748   9.548 -0.4003 -0.2846  0.3583
  246MOL0     O33869   6.939   1.828   9.593  0.1065 -0.0949  0.3849
  246MOL0     C33870   6.803   1.771   9.597 -0.9715 -0.1738 -0.0641
  246MOL0     C33871   6.713   1.882   9.654  0.4000 -0.3675  0.8943
  246MOL0     C33872   6.570   1.835   9.682 -0.9689 -0.4205  0.1541
  246MOL0     C33873   6.511   1.921   9.792 -0.4218 -0.2193 -0.2181
  246MOL0     C33874   6.375   1.871   9.795 -0.4772 -0.0666  0.5573
  246MOL0     C33875   6.259   1.843   9.797  0.0425  0.1786  0.9761
  246MOL0     C33876   7.174   1.806   9.524 -0.0402  1.2317  0.2460
  246MOL0     C33877   7.281   1.734   9.485 -0.7143  0.6668  0.7706
  246MOL0     C33878   7.401   1.822   9.474 -0.5290 -0.5687 -0.2221
  246MOL0     H33879   7.631   1.657   9.147 -0.1951  0.3063 -0.6179
  246MOL0     H33880   7.813   1.522   9.043  3.1069  0.4014  3.1452
  246MOL0     H33881   7.922   1.114   9.216 -2.6118  1.2879 -0.9854
  246MOL0     H33882   7.978   1.258   9.306  0.5308  0.5002 -0.5991
  246MOL0     H33883   8.169   1.273   9.178  1.0338  0.0599  0.0558
  246MOL0     H33884   8.168   1.117   9.254  1.4517 -0.1440 -0.4710
  246MOL0     H33885   8.098   1.029   9.001 -1.4448  1.6374 -3.0502
  246MOL0     H33886   8.117   1.193   8.954 -0.6671  1.4335  1.1279
  246MOL0     H33887   8.354   1.195   9.048  1.2793 -0.2209 -0.2399
  246MOL0     H33888   8.334   1.020   9.070  1.3034  0.1688 -1.4463
  246MOL0     H33889   8.302   1.193   8.808  1.4604 -0.2013 -0.9553
  246MOL0     H33890   8.258   1.024   8.811 -4.9712  2.4746  3.5594
  246MOL0     H33891   8.536   1.106   8.904 -3.5028  1.3460  2.5184
  246MOL0     H33892   8.492   0.971   8.791 -0.0293  0.1887  2.5923
  246MOL0     H33893   8.527   1.272   8.737  0.7550  1.0148  0.5430
  246MOL0     H33894   8.431   1.175   8.628  1.1115  1.9871 -1.5016
  246MOL0     H33895   8.636   1.014   8.626 -1.0569  0.3134  1.1077
  246MOL0     H33896   8.642   1.162   8.529 -0.2583 -0.3781  0.4330
  246MOL0     H33897   8.744   1.024   8.878  0.4478 -1.8341 -2.4250
  246MOL0     H33898   8.975   0.972   8.980  0.4622 -0.8336 -3.0929
  246MOL0     H33899   8.990   1.135   9.041  0.8832  0.7897  0.2813
  246MOL0     H33900   9.195   0.997   8.850  6.2497  1.4336 -0.5803
  246MOL0     H33901   9.180   1.169   8.880  0.1274  0.6143 -0.0070
  246MOL0     H33902   9.353   1.067   9.034  0.0090  1.6618 -0.3331
  246MOL0     H33903   9.226   1.127   9.126  0.2195  0.8936 -0.2234
  246MOL0     H33904   9.152   0.846   9.029 -0.9925  2.3903 -1.6542
  246MOL0     H33905   9.311   0.849   9.109  0.8346  0.2847  2.5500
  246MOL0     H33906   9.051   0.994   9.442  0.6406 -1.8516  1.8815
  246MOL0     H33907   9.097   1.188   9.666 -1.1999 -0.7068 -1.0959
  246MOL0     H33908   9.166   1.063   9.771 -5.4269  0.3711  2.1271
  246MOL0     H33909   9.049   1.006   9.678  2.4897 -3.5855  1.1344
  246MOL0     H33910   9.641   0.981   9.939  2.8877 -1.6843  0.7641
  246MOL0     H33911   9.795   1.110  10.094 -1.8224 -2.5119 -0.2525
  246MOL0     H33912  10.069   1.437   9.919 -0.0524  0.5979 -0.9118
  246MOL0     H33913   9.929   1.527  10.005  1.7276  1.7610  2.1310
  246MOL0     H33914  10.117   1.579  10.110 -1.8664  0.7815  0.3323
  246MOL0     H33915  10.026   1.475  10.206 -0.3924 -3.8817 -0.6010
  246MOL0     H33916  10.213   1.292  10.116  3.8867 -1.4539  1.7296
  246MOL0     H33917  10.264   1.425  10.230 -0.4797  0.9324 -0.0765
  246MOL0     H33918  10.368   1.542  10.063  0.2629  0.2002 -1.0068
  246MOL0     H33919  10.296   1.462   9.925  0.8681  0.9528 -0.5192
  246MOL0     H33920  10.398   1.253   9.967 -3.1535  0.5695  0.8730
  246MOL0     H33921  10.499   1.385   9.919 -0.6521 -2.0078 -1.0614
  246MOL0     H33922  10.478   1.244  10.190 -0.0874  1.1650  1.4411
  246MOL0     H33923  10.544   1.402  10.187  0.9358 -0.9035  1.6843
  246MOL0     H33924  10.725   1.344  10.042 -1.0422  0.4474 -0.5884
  246MOL0     H33925  10.642   1.194   9.990 -1.2148  2.4254 -1.6744
  246MOL0     H33926  10.669   1.101  10.233 -0.8827  2.6710  1.3309
  246MOL0     H33927  10.748   1.237  10.279 -3.6437 -2.4979  3.1053
  246MOL0     H33928   9.833   1.427   9.805 -2.0775  0.0674 -0.5828
  246MOL0     H33929   9.684   1.302   9.656 -0.7340 -2.1869 -0.7120
  246MOL0     H33930   9.547   1.039   9.450  0.0822  0.3471  0.6039
  246MOL0     H33931   9.436   0.911   9.268  1.2853  1.9134  0.7658
  246MOL0     H33932   7.758   1.222   9.330 -0.6206 -0.7790  0.5013
  246MOL0     H33933   7.557   1.327   9.412 -1.0384  1.5117 -1.2912
  246MOL0     H33934   7.118   1.432   9.470  0.6081 -0.4753 -1.2304
  246MOL0     H33935   6.943   1.557   9.532  0.0363 -0.2671  2.8258
  246MOL0     H33936   6.766   1.739   9.499 -3.5208 -0.4293  0.9131
  246MOL0     H33937   6.810   1.678   9.654  1.4658 -0.4268 -0.6280
  246MOL0     H33938   6.713   1.973   9.593 -0.2783  0.1383  1.6291
  246MOL0     H33939   6.754   1.908   9.753 -1.2004 -0.9982  1.7575
  246MOL0     H33940   6.504   1.826   9.595  1.0210 -0.7467 -1.3871
  246MOL0     H33941   6.587   1.732   9.715  1.1435 -0.3248 -0.4727
  246MOL0     H33942   6.527   2.026   9.763 -1.3674  0.2203  0.7689
  246MOL0     H33943   6.550   1.902   9.892 -1.4173 -1.3574 -0.0287
  246MOL0     H33944   6.152   1.835   9.795 -0.1089  0.9231 -3.8428
  246MOL0     H33945   7.182   1.912   9.546  1.1673  0.9879  1.0703
  246MOL0     H33946   7.490   1.770   9.511 -0.5765 -1.6072 -1.4714
  246MOL0     H33947   7.423   1.859   9.373 -0.0692 -2.3294 -0.8039
  246MOL0     H33948   7.384   1.912   9.535 -1.5364 -1.1101  0.3156
  247MOL0     O33949   6.580   6.626  11.465  0.3612 -0.1369  0.4713
  247MOL0     C33950   6.675   6.552  11.459  1.0194  0.1787 -0.7570
  247MOL0     O33951   6.728   6.477  11.561  0.1125  0.9757 -0.4512
  247MOL0     C33952   6.720   6.528  11.693 -0.6317 -0.3865  1.3038
  247MOL0     C33953   6.773   6.653  11.721  0.4746 -0.0983 -0.7986
  247MOL0     C33954   6.777   6.697  11.853 -0.1328  0.1141  0.5254
  247MOL0     C33955   6.724   6.623  11.959 -0.5757  1.3168 -0.5226
  247MOL0     O33956   6.730   6.657  12.097 -0.0941 -0.0610  0.0367
  247MOL0     C33957   6.823   6.761  12.132 -0.0123 -0.2441 -0.2067
  247MOL0     C33958   6.820   6.791  12.283 -0.2779  0.4624  1.0255
  247MOL0     C33959   6.950   6.847  12.342  0.2304  0.1362 -1.0085
  247MOL0     C33960   6.916   6.903  12.482 -0.3487  0.2481  0.1702
  247MOL0     C33961   6.862   7.048  12.471 -0.3132  1.1344 -0.0000
  247MOL0     C33962   6.830   7.108  12.611  1.0259 -0.1874 -0.5168
  247MOL0     C33963   6.959   7.126  12.700  0.0363  0.9133  0.5096
  247MOL0     C33964   7.070   7.216  12.630  0.1765  0.4122  0.0232
  247MOL0     N33965   7.019   7.354  12.604  0.4053 -0.6531 -0.6649
  247MOL0     C33966   6.989   7.448  12.699  0.3926 -0.0727  0.5615
  247MOL0     C33967   6.943   7.553  12.620  0.5671 -0.2287  0.9293
  247MOL0     C33968   6.889   7.683  12.684  0.6869  0.2981  0.0866
  247MOL0     C33969   6.760   7.667  12.770 -0.6969  0.8569  0.4599
  247MOL0     C33970   6.621   7.675  12.697  0.0758  0.3843  0.3754
  247MOL0     C33971   6.591   7.557  12.594 -0.5830 -0.1461 -0.2277
  247MOL0     O33972   6.530   7.452  12.664 -0.7907  0.2215 -0.3251
  247MOL0     C33973   6.504   7.326  12.605 -0.3718  0.3818  0.1070
  247MOL0     C33974   6.488   7.214  12.682 -0.6716  0.4978 -0.4126
  247MOL0     C33975   6.457   7.083  12.622 -0.5756 -1.1964  0.4501
  247MOL0     C33976   6.448   6.969  12.716 -0.0543  0.4161  0.1028
  247MOL0     C33977   6.443   7.074  12.481  0.2480 -0.2474  1.1920
  247MOL0     C33978   6.431   6.949  12.404 -0.1056 -0.1522  0.2917
  247MOL0     O33979   6.487   6.952  12.280  0.2784  0.4336 -0.3632
  247MOL0     C33980   6.397   6.919  12.176  0.2768  0.1639 -1.0102
  247MOL0     C33981   6.254   6.934  12.178 -0.9221 -0.7022 -0.1490
  247MOL0     C33982   6.184   6.904  12.058  0.1196  0.0340 -1.0034
  247MOL0     C33983   6.249   6.839  11.948  0.4942 -0.1962 -0.0952
  247MOL0     O33984   6.166   6.811  11.838 -0.0916 -0.3415  0.2446
  247MOL0     C33985   6.228   6.745  11.716 -0.6293  0.2881  0.3017
  247MOL0     C33986   6.243   6.859  11.613 -0.2002 -0.1953  1.0253
  247MOL0     C33987   6.312   6.986  11.651 -0.3593 -0.3866 -0.6751
  247MOL0     C33988   6.325   7.069  11.530  0.5422 -0.2227 -0.5017
  247MOL0     C33989   6.449   7.161  11.552  0.1665  0.5270  0.8246
  247MOL0     C33990   6.468   7.296  11.465  0.0308 -0.2484 -0.0679
  247MOL0     C33991   6.361   7.408  11.491  0.0907 -0.9520  1.0402
  247MOL0     C33992   6.399   7.553  11.441 -0.7566 -0.3729  0.8099
  247MOL0    Cl33993   6.269   7.622  11.338  0.2872  0.2000 -0.1319
  247MOL0     C33994   6.395   6.828  11.948  0.4022 -0.1642 -0.2364
  247MOL0     C33995   6.463   6.868  12.067 -0.0247  1.1680 -0.0629
  247MOL0     O33996   6.355   6.863  12.450 -0.2158 -0.3933  0.3319
  247MOL0     C33997   6.458   7.192  12.404  0.2523 -0.0314 -0.3318
  247MOL0     C33998   6.498   7.314  12.468  1.5367  0.2771  0.8487
  247MOL0     N33999   6.945   7.523  12.484 -0.0102  0.0126 -0.4254
  247MOL0     N34000   7.007   7.406  12.477 -0.2475 -0.5058  0.5145
  247MOL0     C34001   6.660   6.501  11.924  0.4686  0.3991 -1.0408
  247MOL0     C34002   6.654   6.461  11.794  0.6069  0.4894 -0.2317
  247MOL0     C34003   6.731   6.518  11.332 -0.6207  0.0180  0.3109
  247MOL0     C34004   6.807   6.399  11.326 -0.8479 -0.4204 -0.5574
  247MOL0     C34005   6.864   6.368  11.213 -0.9424  0.7623  0.1121
  247MOL0     C34006   6.841   6.413  11.089  0.0057  1.1426 -1.0564
  247MOL0     O34007   6.923   6.385  10.990  0.8392 -0.0900  0.2821
  247MOL0     C34008   6.865   6.375  10.860 -0.3856  0.5349  0.6638
  247MOL0     C34009   6.939   6.460  10.759  0.1265  0.5727  0.4124
  247MOL0     C34010   6.903   6.611  10.785 -0.8051 -0.8530 -0.4586
  247MOL0     C34011   6.990   6.706  10.702 -0.0113  0.5529  0.6312
  247MOL0     C34012   6.996   6.850  10.738  1.1293  0.4449  1.2438
  247MOL0     C34013   6.987   6.966  10.766 -0.5957 -0.0919  0.6922
  247MOL0     C34014   6.748   6.518  11.091  0.1477 -0.0647 -0.0754
  247MOL0     C34015   6.702   6.582  11.211  0.4147  1.1816  1.4816
  247MOL0     C34016   6.627   6.708  11.196 -0.6221  0.9750 -0.7322
  247MOL0     H34017   6.820   6.713  11.644  1.7654  0.5080  0.4173
  247MOL0     H34018   6.825   6.793  11.871  1.9072 -1.0104  1.5153
  247MOL0     H34019   6.806   6.848  12.069 -0.1676  0.8644  1.3165
  247MOL0     H34020   6.919   6.718  12.102  0.6576  1.6512 -0.9384
  247MOL0     H34021   6.741   6.865  12.296 -1.0109  0.6687 -3.1972
  247MOL0     H34022   6.804   6.700  12.342 -0.1297 -0.3458 -0.1521
  247MOL0     H34023   7.029   6.772  12.358 -0.8270 -0.8015  0.0278
  247MOL0     H34024   6.979   6.931  12.279  1.9996  0.0822 -0.3329
  247MOL0     H34025   6.839   6.840  12.528  0.1197 -1.2134 -0.9772
  247MOL0     H34026   7.005   6.888  12.544  1.2320  3.6903 -1.0420
  247MOL0     H34027   6.765   7.038  12.420 -1.3464  2.0130  1.7077
  247MOL0     H34028   6.933   7.110  12.416 -0.1803  0.0012 -1.1531
  247MOL0     H34029   6.789   7.207  12.590  0.7349 -0.0481  0.6513
  247MOL0     H34030   6.759   7.047  12.668 -0.6973 -0.7336 -3.0770
  247MOL0     H34031   6.995   7.024  12.715 -2.4194 -0.0678  0.1516
  247MOL0     H34032   6.936   7.165  12.800  0.3248 -0.9470  1.3447
  247MOL0     H34033   7.159   7.233  12.692  1.0676  0.3100 -1.1728
  247MOL0     H34034   7.119   7.172  12.542  2.4592 -0.8567  1.8013
  247MOL0     H34035   7.006   7.432  12.805  1.7058 -1.2425  0.2018
  247MOL0     H34036   6.864   7.759  12.609 -1.5561 -1.0943 -0.6761
  247MOL0     H34037   6.971   7.731  12.739 -0.6127  1.7843  0.8162
  247MOL0     H34038   6.765   7.568  12.817 -1.2849  1.6717  2.3484
  247MOL0     H34039   6.755   7.743  12.849  3.4101  5.0207 -2.7067
  247MOL0     H34040   6.542   7.696  12.769 -2.9363 -0.6680 -2.3558
  247MOL0     H34041   6.619   7.772  12.646  1.2359  1.8004  2.8458
  247MOL0     H34042   6.525   7.599  12.519  0.8472  0.7238 -1.0526
  247MOL0     H34043   6.686   7.538  12.543  0.0533  2.7919 -0.3103
  247MOL0     H34044   6.499   7.233  12.788  2.8970  0.5327 -0.6499
  247MOL0     H34045   6.348   6.929  12.731  0.3629 -1.1056 -0.9521
  247MOL0     H34046   6.497   6.986  12.812 -2.9905  4.4462  1.1620
  247MOL0     H34047   6.481   6.876  12.669 -1.3986  0.3675 -0.7992
  247MOL0     H34048   6.219   6.977  12.271  1.7408 -3.5920  2.4330
  247MOL0     H34049   6.076   6.916  12.048  0.2714  2.8135  0.0005
  247MOL0     H34050   6.325   6.705  11.747 -1.6743 -2.0772  0.7383
  247MOL0     H34051   6.164   6.671  11.667 -2.7750  2.4498 -0.3655
  247MOL0     H34052   6.293   6.805  11.532 -0.2590 -0.7963  1.3792
  247MOL0     H34053   6.141   6.891  11.589 -0.4477 -2.1337 -0.8172
  247MOL0     H34054   6.408   6.961  11.697  0.0714 -0.1006 -1.3912
  247MOL0     H34055   6.243   7.042  11.715 -5.7545 -3.9662 -2.6255
  247MOL0     H34056   6.240   7.136  11.516  0.0172 -0.5350  1.0014
  247MOL0     H34057   6.336   6.999  11.446 -0.4867  0.1625 -0.9650
  247MOL0     H34058   6.460   7.192  11.656 -1.1233  0.8503  0.8835
  247MOL0     H34059   6.529   7.089  11.534  0.2627  1.2180 -1.9952
  247MOL0     H34060   6.475   7.273  11.358  3.0473  0.8253 -0.1965
  247MOL0     H34061   6.567   7.327  11.499  0.1954 -3.4531  2.8809
  247MOL0     H34062   6.345   7.407  11.600  2.8447 -0.8470  1.5202
  247MOL0     H34063   6.272   7.372  11.439  0.1457  0.9230 -0.4665
  247MOL0     H34064   6.494   7.556  11.388  0.5373 -0.1051  2.9973
  247MOL0     H34065   6.415   7.614  11.531  0.1807 -1.0048  1.0848
  247MOL0     H34066   6.448   6.763  11.879  1.0985 -1.0414  1.0788
  247MOL0     H34067   6.568   6.842  12.058 -0.9806 -2.9515 -1.6345
  247MOL0     H34068   6.444   7.197  12.297 -1.3913  0.7652 -0.1103
  247MOL0     H34069   6.506   7.406  12.411 -2.5776 -1.0799 -2.3785
  247MOL0     H34070   6.625   6.445  12.010  0.8751 -1.2705 -1.9253
  247MOL0     H34071   6.616   6.361  11.775  0.3700  0.9291 -2.3158
  247MOL0     H34072   6.835   6.334  11.408 -2.5026  1.9705  2.1315
  247MOL0     H34073   6.940   6.293  11.231 -2.1257 -0.6254 -0.5108
  247MOL0     H34074   6.886   6.269  10.839  2.3947  1.2455 -0.6142
  247MOL0     H34075   6.757   6.385  10.850 -1.0441 -0.2602  4.9735
  247MOL0     H34076   6.909   6.430  10.658 -2.9701  1.7602  0.8879
  247MOL0     H34077   7.048   6.454  10.765  0.0617 -0.6010  0.7280
  247MOL0     H34078   6.800   6.637  10.758 -0.7170  0.0899  0.0756
  247MOL0     H34079   6.924   6.637  10.889 -2.6786 -1.1468  0.0383
  247MOL0     H34080   6.940   6.704  10.605  0.8695 -2.9574  0.0970
  247MOL0     H34081   7.089   6.662  10.686 -1.0683 -1.8976  0.3369
  247MOL0     H34082   6.987   7.067  10.802 -2.4067  0.5149 -0.8715
  247MOL0     H34083   6.736   6.566  10.995  1.0662  1.2408  0.4438
  247MOL0     H34084   6.521   6.681  11.193 -0.4211 -1.5117  3.9561
  247MOL0     H34085   6.639   6.780  11.278 -2.5451  0.4445  0.0866
  247MOL0     H34086   6.650   6.757  11.102 -0.5491 -1.0329 -1.8150
  248MOL0     O34087   4.425  10.886   7.134  0.2842 -0.2052 -0.6748
  248MOL0     C34088   4.542  10.884   7.106 -0.6036 -0.0046 -0.1731
  248MOL0     O34089   4.625  10.982   7.076  1.0295 -0.1535  0.5939
  248MOL0     C34090   4.562  11.109   7.061 -0.5023  0.6480 -0.1658
  248MOL0     C34091   4.585  11.183   6.945  1.0834  0.4605  0.1396
  248MOL0     C34092   4.560  11.317   6.930 -0.0349 -0.0442  0.2839
  248MOL0     C34093   4.490  11.383   7.035  0.5436  0.2718 -0.8323
  248MOL0     O34094   4.456  11.513   7.028  0.3378 -0.1013 -0.3203
  248MOL0     C34095   4.538  11.601   7.111 -0.0422  0.2396 -0.0633
  248MOL0     C34096   4.682  11.608   7.070 -0.0592  0.5068  0.1629
  248MOL0     C34097   4.711  11.667   6.933  0.2447 -0.0528 -0.0930
  248MOL0     C34098   4.637  11.795   6.893 -0.5038 -1.0704 -0.0923
  248MOL0     C34099   4.666  11.843   6.749 -0.2231  0.7040 -0.4687
  248MOL0     C34100   4.600  11.976   6.703 -0.4470  0.0122 -1.3423
  248MOL0     C34101   4.672  12.042   6.591 -0.7091 -0.5435 -0.2504
  248MOL0     C34102   4.592  12.167   6.547 -0.0808  0.2513 -1.1709
  248MOL0     N34103   4.664  12.245   6.450  0.5541 -0.4802  0.7204
  248MOL0     C34104   4.610  12.355   6.378 -0.4313 -0.6821  0.6412
  248MOL0     C34105   4.688  12.381   6.272  0.3166  0.6638 -0.7125
  248MOL0     C34106   4.664  12.468   6.152 -0.3649  0.1602  0.5959
  248MOL0     C34107   4.720  12.408   6.029  0.6195  0.1743 -0.5404
  248MOL0     C34108   4.685  12.510   5.923 -0.8962  0.4636 -0.0730
  248MOL0     C34109   4.729  12.460   5.782 -0.8213  1.8014 -0.8389
  248MOL0     O34110   4.672  12.339   5.736  0.6107  0.1214  0.1251
  248MOL0     C34111   4.568  12.339   5.644  0.4683 -0.7184  0.3351
  248MOL0     C34112   4.519  12.441   5.551 -0.1603  0.4170 -0.4630
  248MOL0     C34113   4.410  12.407   5.473 -0.6325 -0.4594  0.8407
  248MOL0     C34114   4.375  12.529   5.377 -0.7795  0.1862  0.2866
  248MOL0     C34115   4.355  12.280   5.469  0.6414 -0.6026 -0.1414
  248MOL0     C34116   4.238  12.236   5.381  0.5778  0.4761 -0.3279
  248MOL0     O34117   4.213  12.107   5.372 -0.5784  0.0415  0.6821
  248MOL0     C34118   4.111  12.074   5.287  0.0966 -0.0963 -0.1946
  248MOL0     C34119   4.121  12.075   5.150 -0.1287 -0.1194  1.0530
  248MOL0     C34120   4.016  12.051   5.064 -0.4081  0.3910 -0.1843
  248MOL0     C34121   3.895  12.003   5.120 -0.2046  0.3918  0.0464
  248MOL0     O34122   3.775  11.980   5.060 -0.5109  0.0492  0.8132
  248MOL0     C34123   3.747  12.009   4.917  0.0580 -0.0737  0.6484
  248MOL0     C34124   3.611  12.062   4.896  0.4109  0.5802 -0.2672
  248MOL0     C34125   3.497  11.969   4.948 -0.3059 -0.2777 -0.0801
  248MOL0     C34126   3.368  12.026   4.902  0.4854 -0.3289  0.2625
  248MOL0     C34127   3.234  11.970   4.967  0.2778  0.0090 -0.4862
  248MOL0     C34128   3.112  12.042   4.928  0.5891  0.4333  0.2281
  248MOL0     C34129   2.996  11.980   5.004 -0.6282 -0.7412 -1.5947
  248MOL0     C34130   2.888  11.948   4.905 -0.6937  0.3217 -0.1468
  248MOL0    Cl34131   2.833  12.095   4.822  0.2429 -0.0594  0.0803
  248MOL0     C34132   3.883  11.999   5.257  0.1907  0.8262 -0.2768
  248MOL0     C34133   3.989  12.032   5.341  0.1983  0.0984  0.3476
  248MOL0     O34134   4.176  12.324   5.324  0.1104 -0.5329 -0.7432
  248MOL0     C34135   4.399  12.183   5.569 -0.4741 -0.4763  0.1191
  248MOL0     C34136   4.501  12.220   5.654 -0.2401  0.1457  0.1119
  248MOL0     N34137   4.781  12.281   6.273 -0.1481 -0.8738 -0.3959
  248MOL0     N34138   4.769  12.206   6.379  0.6536  0.0297 -0.2713
  248MOL0     C34139   4.454  11.314   7.155  0.3979  0.5368  0.1587
  248MOL0     C34140   4.502  11.181   7.165 -0.1661 -0.2125 -0.5962
  248MOL0     C34141   4.602  10.750   7.088  0.3149  0.3856 -0.4059
  248MOL0     C34142   4.741  10.748   7.051 -0.1641  0.4481  0.8160
  248MOL0     C34143   4.805  10.621   7.036 -0.2471 -0.3108  0.0892
  248MOL0     C34144   4.745  10.501   7.057 -0.2817 -0.9862  0.5624
  248MOL0     O34145   4.813  10.378   7.064  0.1993 -0.3296  0.2372
  248MOL0     C34146   4.935  10.352   7.002  0.1969  0.4266  1.5139
  248MOL0     C34147   5.057  10.378   7.091  0.3881 -0.3137  0.6459
  248MOL0     C34148   5.186  10.320   7.027 -0.0107 -0.6782  0.2796
  248MOL0     C34149   5.251  10.399   6.907 -0.6136 -1.1174 -0.7473
  248MOL0     C34150   5.281  10.534   6.956 -1.2892  0.3605  0.6894
  248MOL0     C34151   5.296  10.648   7.003  0.3140  1.0786 -0.6773
  248MOL0     C34152   4.607  10.508   7.082  0.0420  0.1278 -0.3301
  248MOL0     C34153   4.536  10.621   7.100 -0.5246 -0.3412 -0.2559
  248MOL0     C34154   4.395  10.604   7.139  0.8324 -0.4245  0.5934
  248MOL0     H34155   4.649  11.137   6.869 -1.1602 -0.2166 -1.4297
  248MOL0     H34156   4.578  11.370   6.837 -2.4695 -1.5295 -1.1599
  248MOL0     H34157   4.538  11.582   7.218  0.3737  2.1914  0.3266
  248MOL0     H34158   4.490  11.699   7.118 -2.1769 -0.7765  0.4128
  248MOL0     H34159   4.733  11.655   7.155 -1.6241 -0.7161  1.8771
  248MOL0     H34160   4.721  11.507   7.064 -2.0146 -0.2416 -0.7854
  248MOL0     H34161   4.820  11.675   6.935  0.3770 -1.6753  0.9096
  248MOL0     H34162   4.698  11.600   6.848 -1.9327 -0.6445  0.6431
  248MOL0     H34163   4.531  11.769   6.896 -1.6749  2.8532 -1.6512
  248MOL0     H34164   4.661  11.871   6.967  1.3210 -2.6101  1.0262
  248MOL0     H34165   4.617  11.763   6.692 -0.5504 -0.8686  1.8952
  248MOL0     H34166   4.773  11.850   6.731 -0.0674 -0.4814 -0.0647
  248MOL0     H34167   4.503  11.941   6.666 -0.1999 -1.6224 -0.5729
  248MOL0     H34168   4.589  12.043   6.789  2.8007 -0.3968 -0.4710
  248MOL0     H34169   4.686  11.980   6.501  1.3217  0.0583 -0.4002
  248MOL0     H34170   4.767  12.079   6.630 -1.1035  0.8699 -0.5587
  248MOL0     H34171   4.502  12.115   6.512 -0.4725  0.0984  0.0344
  248MOL0     H34172   4.563  12.234   6.628 -0.4859 -1.1505 -0.1146
  248MOL0     H34173   4.529  12.424   6.401  2.3543  3.2551 -0.1703
  248MOL0     H34174   4.702  12.569   6.168 -1.3331  1.1011 -2.3196
  248MOL0     H34175   4.555  12.469   6.143 -0.4521 -0.7490  1.3851
  248MOL0     H34176   4.828  12.394   6.042  0.7067  1.5888  0.5155
  248MOL0     H34177   4.662  12.317   6.013 -0.3343 -0.0926  3.3810
  248MOL0     H34178   4.577  12.530   5.918 -1.3737 -1.7741  0.2716
  248MOL0     H34179   4.739  12.605   5.932  1.5115 -0.4648 -2.9513
  248MOL0     H34180   4.703  12.542   5.715 -3.1582 -0.6058 -3.1115
  248MOL0     H34181   4.838  12.452   5.780 -0.7911  0.1403  1.8236
  248MOL0     H34182   4.570  12.536   5.570 -0.9068  0.5788  0.8536
  248MOL0     H34183   4.283  12.566   5.423 -0.8557  0.9506 -0.4547
  248MOL0     H34184   4.341  12.512   5.274 -1.5414 -0.4587  0.6354
  248MOL0     H34185   4.454  12.605   5.380  1.5595 -2.1501  1.5433
  248MOL0     H34186   4.220  12.099   5.112  0.3721  0.2019  2.4891
  248MOL0     H34187   4.021  12.066   4.956 -0.0151 -1.1670 -0.4034
  248MOL0     H34188   3.828  12.074   4.880  2.1800 -1.2819  2.8554
  248MOL0     H34189   3.757  11.915   4.862  1.6567  0.0035  0.7428
  248MOL0     H34190   3.602  12.159   4.946 -0.9907  1.6593 -2.4531
  248MOL0     H34191   3.597  12.078   4.788 -1.7459 -1.7230 -0.4284
  248MOL0     H34192   3.505  11.962   5.057  0.2054 -1.4239 -0.1787
  248MOL0     H34193   3.516  11.866   4.916  1.6926  0.8208 -2.7162
  248MOL0     H34194   3.367  12.012   4.793 -1.4171 -0.2816  0.2378
  248MOL0     H34195   3.367  12.135   4.914  0.8325  0.1109 -2.8403
  248MOL0     H34196   3.212  11.866   4.939 -4.5180 -0.0410  2.3316
  248MOL0     H34197   3.231  11.976   5.077  0.9081  0.2813 -0.4768
  248MOL0     H34198   3.098  12.038   4.820  0.9463  0.6156  0.1699
  248MOL0     H34199   3.122  12.149   4.950 -0.7512 -0.1356  4.4784
  248MOL0     H34200   2.962  12.057   5.073 -0.9910 -0.6650 -1.8582
  248MOL0     H34201   3.016  11.894   5.068  0.1137 -1.0895 -2.2878
  248MOL0     H34202   2.799  11.901   4.946  0.2574 -3.4016 -1.8707
  248MOL0     H34203   2.927  11.881   4.828 -1.3218 -0.0944 -0.1012
  248MOL0     H34204   3.790  11.966   5.302  0.6100 -0.5482 -0.3493
  248MOL0     H34205   3.975  12.024   5.448 -2.4568  3.8992  0.4655
  248MOL0     H34206   4.355  12.084   5.580 -0.3194 -0.2590  3.5015
  248MOL0     H34207   4.518  12.145   5.730 -1.3708 -0.6380 -0.3753
  248MOL0     H34208   4.398  11.365   7.232  1.1441  2.6611 -0.6238
  248MOL0     H34209   4.481  11.133   7.261 -1.6601 -0.1849 -0.8882
  248MOL0     H34210   4.811  10.830   7.046  3.2980 -2.2779 -3.5213
  248MOL0     H34211   4.912  10.630   7.020 -0.1643  0.8006  1.1625
  248MOL0     H34212   4.936  10.260   6.944 -0.3615  1.7173 -0.6579
  248MOL0     H34213   4.953  10.418   6.917  1.3375 -0.2343  1.2247
  248MOL0     H34214   5.032  10.329   7.185 -1.1376  1.3244  1.1573
  248MOL0     H34215   5.053  10.486   7.110 -2.6228 -0.0154 -0.9415
  248MOL0     H34216   5.256  10.314   7.112  0.0112  0.3046  0.3437
  248MOL0     H34217   5.185  10.217   6.991 -1.9674 -0.1489 -1.3343
  248MOL0     H34218   5.194  10.384   6.815 -1.2600  0.4474 -0.6498
  248MOL0     H34219   5.354  10.364   6.895 -0.4706 -0.7081 -0.7271
  248MOL0     H34220   5.296  10.755   7.015 -1.7745  1.2078 -1.3215
  248MOL0     H34221   4.560  10.412   7.104  2.7429 -0.9056  1.4079
  248MOL0     H34222   4.357  10.637   7.236 -1.5039 -3.0461  0.7112
  248MOL0     H34223   4.325  10.660   7.077 -2.9042 -1.8034  3.1797
  248MOL0     H34224   4.358  10.501   7.138 -2.0828  0.4920  2.1683
  249MOL0     O34225   9.982   5.368   0.688 -0.2217 -0.8781 -0.5717
  249MOL0     C34226   9.901   5.350   0.595  0.1176  0.3687 -1.2079
  249MOL0     O34227   9.833   5.237   0.574  0.9258  0.2314 -0.4688
  249MOL0     C34228   9.806   5.159   0.686  0.4820 -0.1869  1.1591
  249MOL0     C34229   9.792   5.216   0.814 -0.3166  0.6257  0.3407
  249MOL0     C34230   9.742   5.138   0.921  0.1308 -0.4812 -0.2991
  249MOL0     C34231   9.715   5.001   0.900 -0.0177  0.3018 -0.7813
  249MOL0     O34232   9.672   4.934   1.012  0.2758 -0.2304 -0.4993
  249MOL0     C34233   9.617   4.810   0.994  0.1014 -0.0411  0.0542
  249MOL0     C34234   9.570   4.762   1.129 -0.0774  0.2595 -1.0917
  249MOL0     C34235   9.685   4.726   1.226  0.8306  0.6619  0.1295
  249MOL0     C34236   9.640   4.633   1.341 -0.1328 -0.1102 -0.4000
  249MOL0     C34237   9.756   4.615   1.447  0.4608  0.2586  1.3153
  249MOL0     C34238   9.720   4.472   1.511 -0.0798 -0.6753  0.1444
  249MOL0     C34239   9.601   4.467   1.604  1.0822  0.0994  0.1720
  249MOL0     C34240   9.611   4.338   1.688 -0.6385  0.7963 -0.0566
  249MOL0     N34241   9.486   4.269   1.706  0.2921  1.0133 -0.0350
  249MOL0     C34242   9.463   4.141   1.659 -0.0951 -0.2515 -1.1049
  249MOL0     C34243   9.330   4.125   1.687 -0.2905  0.2473  0.7833
  249MOL0     C34244   9.257   4.004   1.644 -0.4663  0.3085 -0.8037
  249MOL0     C34245   9.271   3.909   1.757 -0.2206 -0.1296  0.7076
  249MOL0     C34246   9.176   3.789   1.744 -0.6734  0.5023 -0.1831
  249MOL0     C34247   9.198   3.702   1.620 -0.3469  0.5112 -0.6418
  249MOL0     O34248   9.163   3.572   1.652  0.1173 -0.1445 -0.4372
  249MOL0     C34249   9.166   3.481   1.549 -0.9361  0.2590  0.4039
  249MOL0     C34250   9.111   3.355   1.569  0.6169  0.5252  0.0027
  249MOL0     C34251   9.116   3.256   1.472 -0.1551  0.8735  0.1749
  249MOL0     C34252   9.039   3.125   1.512 -0.6362 -0.1314  0.6221
  249MOL0     C34253   9.160   3.289   1.340 -1.0493 -0.1518  0.9655
  249MOL0     C34254   9.159   3.193   1.220  0.3088  0.2485  1.1194
  249MOL0     O34255   9.155   3.242   1.090  0.4065 -0.1843 -0.2363
  249MOL0     C34256   9.150   3.168   0.975  0.0597 -0.3055  0.9744
  249MOL0     C34257   9.168   3.236   0.854 -0.1700  0.2394  0.5673
  249MOL0     C34258   9.178   3.177   0.730 -0.1232 -0.3678  0.4874
  249MOL0     C34259   9.158   3.040   0.719 -0.0094  1.2073  0.4677
  249MOL0     O34260   9.173   2.969   0.603 -0.2813 -0.3597 -0.8189
  249MOL0     C34261   9.235   3.036   0.488 -0.1838 -0.4099 -0.6219
  249MOL0     C34262   9.254   2.934   0.369  0.6215 -0.3253 -0.4183
  249MOL0     C34263   9.119   2.871   0.318 -0.1610 -0.1787 -0.0779
  249MOL0     C34264   9.147   2.774   0.203 -0.3193  0.2592  0.7214
  249MOL0     C34265   9.016   2.722   0.141  0.7224  0.5433  0.5166
  249MOL0     C34266   9.039   2.616   0.025  0.9678  0.1436 -0.4322
  249MOL0     C34267   8.918   2.567  -0.051  0.7276  0.0614 -0.3204
  249MOL0     C34268   8.849   2.660  -0.145  0.5249 -0.2945  0.4675
  249MOL0    Cl34269   8.711   2.568  -0.209 -0.0434 -0.0704  0.8444
  249MOL0     C34270   9.155   2.959   0.837  0.4451 -0.5181 -1.1223
  249MOL0     C34271   9.147   3.032   0.961  0.5720  0.6049  0.6091
  249MOL0     O34272   9.176   3.074   1.246  0.3508 -0.2704 -0.3859
  249MOL0     C34273   9.228   3.409   1.327  0.8183 -0.0843 -0.1959
  249MOL0     C34274   9.231   3.509   1.425  0.5430 -0.2292 -0.4228
  249MOL0     N34275   9.280   4.228   1.757 -0.4708  0.6267 -0.6106
  249MOL0     N34276   9.371   4.307   1.767  0.8408 -0.1394  0.3385
  249MOL0     C34277   9.747   4.936   0.778  0.1832  0.3007  0.0758
  249MOL0     C34278   9.782   5.025   0.668  0.5692  0.5464 -0.5100
  249MOL0     C34279   9.886   5.473   0.511  0.7204  0.7149 -0.6022
  249MOL0     C34280   9.994   5.564   0.504  0.0190  0.0956 -0.2091
  249MOL0     C34281   9.985   5.671   0.409  0.3592 -0.4663 -0.1923
  249MOL0     C34282   9.863   5.701   0.343 -0.4522 -0.2276 -0.2475
  249MOL0     O34283   9.869   5.806   0.253  0.1842 -0.5547  0.0372
  249MOL0     C34284   9.738   5.852   0.208 -0.6410 -0.6683  0.1625
  249MOL0     C34285   9.759   5.996   0.143  0.5486  0.6203  0.0215
  249MOL0     C34286   9.793   6.096   0.252 -0.5047  0.9733  0.9479
  249MOL0     C34287   9.816   6.243   0.225 -0.7073  0.1904 -0.3099
  249MOL0     C34288   9.705   6.305   0.149  0.1728 -0.6688  0.3548
  249MOL0     C34289   9.621   6.370   0.084 -0.3769  0.4270 -0.4147
  249MOL0     C34290   9.757   5.615   0.373  0.1045  0.5298  0.3362
  249MOL0     C34291   9.765   5.497   0.444 -0.1636 -0.9089  0.4725
  249MOL0     C34292   9.648   5.401   0.463 -0.5632  0.9925  0.2485
  249MOL0     H34293   9.797   5.322   0.837 -1.2604  0.8558 -0.4756
  249MOL0     H34294   9.721   5.192   1.013  0.4088  0.9617 -1.0499
  249MOL0     H34295   9.684   4.730   0.964  2.0673  1.0988  1.1725
  249MOL0     H34296   9.535   4.832   0.926  1.0735  3.2199 -0.2597
  249MOL0     H34297   9.506   4.836   1.178  2.9015  0.6494  2.7189
  249MOL0     H34298   9.517   4.670   1.104 -1.4530  0.6590  0.2408
  249MOL0     H34299   9.765   4.677   1.170 -1.0005 -4.2736  1.3201
  249MOL0     H34300   9.713   4.823   1.270  1.8141 -0.5211  2.2535
  249MOL0     H34301   9.544   4.666   1.382  0.4789 -1.0984  1.9867
  249MOL0     H34302   9.622   4.536   1.294 -0.8582 -1.3256  2.1945
  249MOL0     H34303   9.759   4.702   1.513  0.5993  0.5200  0.9715
  249MOL0     H34304   9.847   4.609   1.387 -1.7217  1.8180 -2.5849
  249MOL0     H34305   9.713   4.395   1.433  1.9494  1.2894 -2.1477
  249MOL0     H34306   9.811   4.461   1.570 -0.5741 -1.7618  0.7291
  249MOL0     H34307   9.507   4.455   1.547  0.0046 -2.7154  2.2933
  249MOL0     H34308   9.609   4.553   1.670 -0.1938 -0.0926  0.6101
  249MOL0     H34309   9.678   4.270   1.636 -2.3266  1.6119 -3.5987
  249MOL0     H34310   9.649   4.362   1.788  1.7879  1.0951 -1.0036
  249MOL0     H34311   9.541   4.077   1.621  2.4244  1.8284  0.2045
  249MOL0     H34312   9.300   3.966   1.551 -2.2307  0.2458 -1.6325
  249MOL0     H34313   9.153   4.030   1.623 -1.5472 -3.3944 -0.8722
  249MOL0     H34314   9.374   3.873   1.766 -0.8847 -2.2176  0.5313
  249MOL0     H34315   9.254   3.970   1.846  4.6509  3.1330 -0.2186
  249MOL0     H34316   9.190   3.724   1.830 -0.7044  1.0943  0.2788
  249MOL0     H34317   9.076   3.832   1.753 -0.6478  0.6400 -0.5244
  249MOL0     H34318   9.141   3.744   1.536  0.6422  2.0739 -0.5819
  249MOL0     H34319   9.304   3.712   1.594 -0.4093 -1.2543 -1.7011
  249MOL0     H34320   9.059   3.343   1.664  1.6988  0.6453  0.6292
  249MOL0     H34321   9.097   3.032   1.514 -1.0622 -0.5288 -1.9987
  249MOL0     H34322   8.952   3.115   1.446 -3.2458 -0.0274  3.7723
  249MOL0     H34323   8.999   3.132   1.614 -3.2686  2.4541 -0.4419
  249MOL0     H34324   9.187   3.343   0.861  2.9026 -0.2152  0.7320
  249MOL0     H34325   9.188   3.240   0.642 -0.7706 -0.2927  0.4614
  249MOL0     H34326   9.170   3.113   0.447 -1.6291  0.9536  3.6217
  249MOL0     H34327   9.330   3.080   0.519 -1.1201  2.7265 -1.8614
  249MOL0     H34328   9.293   2.993   0.286  1.0208 -0.9495 -0.6783
  249MOL0     H34329   9.316   2.853   0.408 -2.5320 -1.7384  2.0794
  249MOL0     H34330   9.068   2.956   0.273 -0.3060 -1.9260 -3.5900
  249MOL0     H34331   9.062   2.817   0.394 -3.1123  0.0024 -1.9863
  249MOL0     H34332   9.210   2.690   0.236 -0.6945 -1.4677 -2.5995
  249MOL0     H34333   9.189   2.834   0.122  0.5472  1.3165  1.9132
  249MOL0     H34334   8.952   2.672   0.215 -2.7084  1.6566 -1.4514
  249MOL0     H34335   8.953   2.807   0.113 -1.5124 -1.4076 -0.6874
  249MOL0     H34336   9.082   2.535   0.084  2.4354 -2.3430 -4.5063
  249MOL0     H34337   9.119   2.637  -0.047  1.4897 -1.6569 -0.4113
  249MOL0     H34338   8.844   2.531   0.021 -1.6514 -3.6327 -4.1546
  249MOL0     H34339   8.939   2.477  -0.109 -1.4579 -1.4802  1.1381
  249MOL0     H34340   8.920   2.690  -0.223 -0.7946  0.1256 -0.6300
  249MOL0     H34341   8.822   2.754  -0.096  2.7142  0.2160  0.7992
  249MOL0     H34342   9.146   2.851   0.839 -0.9468 -0.4097  0.0526
  249MOL0     H34343   9.146   2.955   1.037  0.5242 -1.2447 -1.1709
  249MOL0     H34344   9.264   3.434   1.228  1.8626 -1.7311 -0.2647
  249MOL0     H34345   9.279   3.603   1.401 -2.3674  2.0882  2.1060
  249MOL0     H34346   9.739   4.828   0.774 -0.3688  0.3720 -1.0497
  249MOL0     H34347   9.779   4.984   0.568 -1.6058  0.1701 -0.3420
  249MOL0     H34348  10.088   5.554   0.558  1.0251  0.9759 -1.7277
  249MOL0     H34349  10.070   5.738   0.404 -1.1475  1.9014  2.4011
  249MOL0     H34350   9.700   5.786   0.130 -0.4300  2.0160 -2.3924
  249MOL0     H34351   9.668   5.865   0.291  0.0555  1.5200  0.4846
  249MOL0     H34352   9.667   6.030   0.095  0.6294  0.0118 -0.5871
  249MOL0     H34353   9.831   5.975   0.063  1.6037 -0.1448  1.1282
  249MOL0     H34354   9.713   6.083   0.325  0.1017 -0.0592  1.4493
  249MOL0     H34355   9.881   6.054   0.301 -0.5393 -0.2457  0.0041
  249MOL0     H34356   9.909   6.272   0.174 -0.5819 -0.3311 -0.3818
  249MOL0     H34357   9.807   6.302   0.317  0.4938  0.8222 -0.5685
  249MOL0     H34358   9.562   6.429   0.017  2.0960  3.5953  0.0008
  249MOL0     H34359   9.661   5.634   0.325  0.0362  1.7212  0.8878
  249MOL0     H34360   9.636   5.378   0.569  0.8462 -1.0532  0.0326
  249MOL0     H34361   9.548   5.440   0.448 -1.5821 -1.3581  0.4816
  249MOL0     H34362   9.668   5.317   0.396 -0.5446  3.0788 -2.5379
  250MOL0     O34363   9.985   6.926   6.856  0.5354  0.4339  0.7638
  250MOL0     C34364   9.940   6.885   6.959  0.0843  0.0561  0.3499
  250MOL0     O34365   9.814   6.897   6.998  0.4467 -0.8980 -0.2608
  250MOL0     C34366   9.722   6.968   6.918 -0.1536 -0.8054  1.1525
  250MOL0     C34367   9.634   6.892   6.851  0.1493 -0.4615  0.5214
  250MOL0     C34368   9.560   6.963   6.752  0.3321  0.3912  0.0659
  250MOL0     C34369   9.556   7.102   6.742 -0.0694  0.1160  0.0154
  250MOL0     O34370   9.465   7.174   6.662  0.3850  0.1239  0.3915
  250MOL0     C34371   9.510   7.288   6.593 -0.6271 -0.0747 -0.3971
  250MOL0     C34372   9.395   7.330   6.512  0.2811  0.5961 -0.5228
  250MOL0     C34373   9.396   7.484   6.469 -0.0221  0.3003 -0.0051
  250MOL0     C34374   9.294   7.511   6.355  0.3405 -0.1720 -0.8988
  250MOL0     C34375   9.274   7.660   6.327 -0.3511 -0.1249  0.1316
  250MOL0     C34376   9.203   7.672   6.196  0.8139 -0.1211 -0.7853
  250MOL0     C34377   9.194   7.830   6.159  0.0881  0.7672 -0.4253
  250MOL0     C34378   9.100   7.841   6.041  1.5739  0.7629 -0.0801
  250MOL0     N34379   9.088   7.979   6.003 -0.2698 -0.3534  0.0358
  250MOL0     C34380   9.041   8.080   6.079 -1.2658  0.4073  0.2504
  250MOL0     C34381   9.026   8.186   5.995  0.7546  0.4421  0.1551
  250MOL0     C34382   8.957   8.310   6.029 -0.0937  0.3750  0.1454
  250MOL0     C34383   8.813   8.326   5.982 -0.8425 -0.9247  0.2278
  250MOL0     C34384   8.714   8.220   6.037  0.1150  0.0914 -0.1521
  250MOL0     C34385   8.573   8.225   5.970  0.4307  0.1823 -0.6680
  250MOL0     O34386   8.509   8.096   5.989  0.7938 -0.0865  0.3553
  250MOL0     C34387   8.405   8.071   5.903  0.0528  0.5194 -0.0790
  250MOL0     C34388   8.369   7.929   5.901 -0.9592 -0.0195  0.6267
  250MOL0     C34389   8.264   7.882   5.819 -0.1329  0.0683 -0.0108
  250MOL0     C34390   8.225   7.732   5.819  0.3389  0.3901 -0.6205
  250MOL0     C34391   8.186   7.978   5.741  0.8798 -0.0292 -0.0557
  250MOL0     C34392   8.084   7.933   5.645 -0.8209  0.1538 -0.5569
  250MOL0     O34393   7.972   7.891   5.701  0.3966 -0.1222 -0.0698
  250MOL0     C34394   7.866   7.847   5.633  0.7172 -0.1546  0.9096
  250MOL0     C34395   7.800   7.920   5.533  0.9061 -0.6310 -0.2816
  250MOL0     C34396   7.700   7.868   5.447  1.8240 -0.4274 -1.0236
  250MOL0     C34397   7.656   7.741   5.466 -0.0502  0.5792 -1.3800
  250MOL0     O34398   7.569   7.678   5.385 -0.5976  0.1051 -0.3006
  250MOL0     C34399   7.554   7.728   5.253 -0.2927  0.0283 -0.0647
  250MOL0     C34400   7.500   7.606   5.164  0.1319  1.4566  0.0545
  250MOL0     C34401   7.583   7.480   5.167 -0.8917 -0.0980 -0.6097
  250MOL0     C34402   7.537   7.383   5.057  0.2768  0.4846  0.3006
  250MOL0     C34403   7.634   7.269   5.010 -0.0704  0.0009  0.6249
  250MOL0     C34404   7.569   7.156   4.927  0.2431  0.7803  0.3431
  250MOL0     C34405   7.677   7.063   4.877 -0.0144 -0.4421  0.9810
  250MOL0     C34406   7.618   6.920   4.839 -0.1152 -0.3639  0.6858
  250MOL0    Cl34407   7.754   6.800   4.798  0.5567 -0.5456 -0.5462
  250MOL0     C34408   7.713   7.665   5.575  0.3854 -0.2606 -0.2632
  250MOL0     C34409   7.813   7.716   5.658  0.0682  0.8583  0.9479
  250MOL0     O34410   8.099   7.946   5.529  0.2004 -0.2814 -0.3268
  250MOL0     C34411   8.229   8.111   5.748 -1.0049  0.4859  0.7387
  250MOL0     C34412   8.338   8.159   5.822 -0.9953  0.1017  0.1552
  250MOL0     N34413   9.055   8.151   5.864 -0.1613  0.1569  0.2926
  250MOL0     N34414   9.090   8.026   5.876 -0.6470 -0.0353  0.1233
  250MOL0     C34415   9.637   7.175   6.828  0.6923  0.4946 -1.0926
  250MOL0     C34416   9.726   7.107   6.904 -0.5174 -0.1887 -0.6455
  250MOL0     C34417  10.039   6.842   7.063  0.2223 -0.5533 -0.3565
  250MOL0     C34418  10.154   6.768   7.024  0.0118 -0.0577  0.0236
  250MOL0     C34419  10.255   6.723   7.114 -0.7968  1.3096  0.7459
  250MOL0     C34420  10.250   6.772   7.244  0.9784 -0.2860 -1.3239
  250MOL0     O34421  10.334   6.730   7.346 -0.0704  0.0406  0.4271
  250MOL0     C34422  10.265   6.657   7.457  0.6883  0.6719  0.1933
  250MOL0     C34423  10.173   6.531   7.424  0.2764  0.2964  0.2786
  250MOL0     C34424  10.268   6.417   7.377 -0.4178  0.0185 -0.0086
  250MOL0     C34425  10.186   6.287   7.367  0.6859 -0.0678 -0.2731
  250MOL0     C34426  10.143   6.237   7.497  0.9549 -1.2457  0.0407
  250MOL0     C34427  10.119   6.191   7.614 -0.6269 -0.8417  0.1527
  250MOL0     C34428  10.141   6.852   7.283  1.3771 -0.3151 -0.8958
  250MOL0     C34429  10.041   6.889   7.193  0.6430 -0.1333 -0.2746
  250MOL0     C34430   9.952   6.997   7.257 -0.9395  0.8423 -0.4531
  250MOL0     H34431   9.623   6.784   6.848 -0.1049 -0.4436  0.7413
  250MOL0     H34432   9.498   6.909   6.679  1.8504 -0.6980 -0.4700
  250MOL0     H34433   9.583   7.262   6.517  0.9308  3.6780 -0.4069
  250MOL0     H34434   9.559   7.361   6.659  2.8017 -1.5496 -1.1092
  250MOL0     H34435   9.390   7.262   6.427  5.0514  0.8924 -1.3086
  250MOL0     H34436   9.311   7.317   6.580 -0.8028  3.0012 -1.2657
  250MOL0     H34437   9.368   7.537   6.561  2.2504 -0.6256  1.3240
  250MOL0     H34438   9.495   7.520   6.440 -0.2795 -0.1520 -1.5134
  250MOL0     H34439   9.333   7.443   6.279  0.5595 -0.1956 -0.7663
  250MOL0     H34440   9.192   7.480   6.380 -0.0666  0.3117 -1.9257
  250MOL0     H34441   9.366   7.718   6.318 -0.0695 -0.9086 -3.0258
  250MOL0     H34442   9.224   7.704   6.414 -2.0430  1.1097 -1.3765
  250MOL0     H34443   9.261   7.629   6.114  0.8164  0.8740 -1.3235
  250MOL0     H34444   9.109   7.617   6.190 -0.7215  2.4932 -3.0871
  250MOL0     H34445   9.292   7.869   6.129  0.6263  1.4622  2.0283
  250MOL0     H34446   9.151   7.898   6.233 -0.4441  0.3064 -0.3077
  250MOL0     H34447   9.116   7.772   5.958  0.2952  0.0769  0.2189
  250MOL0     H34448   8.998   7.821   6.075  0.8572  3.7298 -0.1315
  250MOL0     H34449   9.031   8.091   6.186 -0.3568  0.3852  0.3430
  250MOL0     H34450   9.008   8.393   5.978 -0.5907  2.4548  2.7828
  250MOL0     H34451   8.964   8.318   6.138 -1.2181  1.6974  0.1555
  250MOL0     H34452   8.774   8.424   6.011 -0.5780 -0.4806 -0.8582
  250MOL0     H34453   8.819   8.325   5.873 -0.9679  1.8086  0.1393
  250MOL0     H34454   8.752   8.121   6.011 -4.2553 -2.0547  0.5991
  250MOL0     H34455   8.704   8.226   6.146  1.9804 -1.5201  0.1534
  250MOL0     H34456   8.502   8.301   6.004  0.4949 -0.3833  0.8126
  250MOL0     H34457   8.583   8.246   5.863 -1.7293 -1.0454 -1.1870
  250MOL0     H34458   8.427   7.855   5.955  1.1943 -0.1807 -1.7309
  250MOL0     H34459   8.123   7.715   5.854  0.0259  0.9176 -1.2555
  250MOL0     H34460   8.293   7.666   5.874  0.0312  1.2201  0.8299
  250MOL0     H34461   8.212   7.707   5.714 -2.0093  0.7233 -0.4768
  250MOL0     H34462   7.839   8.019   5.510 -1.5619  0.2835 -0.7724
  250MOL0     H34463   7.671   7.929   5.362  0.8564  1.5178  0.6259
  250MOL0     H34464   7.482   7.809   5.240  0.7778  0.9989 -0.1879
  250MOL0     H34465   7.644   7.763   5.202 -0.3276 -1.8556 -1.5492
  250MOL0     H34466   7.401   7.580   5.203  0.3965 -1.9162 -1.1642
  250MOL0     H34467   7.486   7.640   5.061  0.4682  3.0120  0.4895
  250MOL0     H34468   7.576   7.438   5.268 -0.4420 -0.9501 -0.9200
  250MOL0     H34469   7.687   7.501   5.140 -2.0764  2.5774 -3.7594
  250MOL0     H34470   7.515   7.426   4.958  0.5827 -0.5238 -0.2229
  250MOL0     H34471   7.443   7.335   5.088  1.2272 -1.2370  0.6414
  250MOL0     H34472   7.713   7.307   4.945 -3.0366 -0.4423 -3.6100
  250MOL0     H34473   7.684   7.229   5.099  1.4383  1.4268  0.4568
  250MOL0     H34474   7.504   7.192   4.846  0.9228 -0.5952 -0.8612
  250MOL0     H34475   7.497   7.112   4.996  0.6758  2.7675  2.1683
  250MOL0     H34476   7.751   7.054   4.957 -0.0637 -0.6587  1.0016
  250MOL0     H34477   7.724   7.111   4.791  0.0273  2.6922  2.6232
  250MOL0     H34478   7.544   6.923   4.759  1.9018  1.0410 -1.2427
  250MOL0     H34479   7.575   6.885   4.934  1.3844  0.6250  1.7824
  250MOL0     H34480   7.684   7.561   5.580 -1.6255  0.2472 -0.7574
  250MOL0     H34481   7.857   7.661   5.740 -1.8096 -1.2089  0.6570
  250MOL0     H34482   8.184   8.180   5.678  0.3705 -0.2722 -1.0022
  250MOL0     H34483   8.375   8.260   5.814  2.6522 -0.9651  1.3351
  250MOL0     H34484   9.640   7.283   6.841 -2.3182  0.7693 -1.7847
  250MOL0     H34485   9.797   7.149   6.974 -1.8600  0.6103  0.2882
  250MOL0     H34486  10.170   6.748   6.918 -0.7382 -1.2110  0.1113
  250MOL0     H34487  10.325   6.643   7.091  1.7324  2.2177  4.4462
  250MOL0     H34488  10.341   6.625   7.530 -2.5891 -0.9392  3.1731
  250MOL0     H34489  10.204   6.737   7.497 -1.5239  0.1147 -1.8278
  250MOL0     H34490  10.111   6.566   7.340 -1.6900 -0.2802  1.4211
  250MOL0     H34491  10.123   6.509   7.518  0.7881 -0.2199  0.4313
  250MOL0     H34492  10.321   6.424   7.281  1.6676  0.1801  1.0975
  250MOL0     H34493  10.337   6.413   7.461  0.0179  1.3319 -0.2837
  250MOL0     H34494  10.252   6.219   7.312  0.2365 -0.7223 -0.0037
  250MOL0     H34495  10.099   6.304   7.302  1.2804  1.7661 -0.6641
  250MOL0     H34496  10.089   6.153   7.710 -2.6385 -2.0156 -0.8703
  250MOL0     H34497  10.137   6.895   7.383 -1.4666 -1.4818 -0.3911
  250MOL0     H34498   9.962   6.994   7.365  1.7785 -0.4829 -0.6450
  250MOL0     H34499   9.982   7.093   7.215 -1.3319  0.4397 -1.7045
  250MOL0     H34500   9.848   6.985   7.224 -1.6073 -0.8826  2.0520
  251MOL0     O34501  10.219   9.412   4.267 -0.1218 -0.3509 -0.2544
  251MOL0     C34502  10.276   9.333   4.344 -0.3295  0.0905  0.1055
  251MOL0     O34503  10.322   9.366   4.475 -0.2534 -0.3438 -0.1066
  251MOL0     C34504  10.274   9.482   4.538  0.9391  0.1250 -0.5882
  251MOL0     C34505  10.298   9.608   4.489 -0.3082 -0.1064 -0.2502
  251MOL0     C34506  10.247   9.716   4.554 -0.1056  0.0503 -0.9182
  251MOL0     C34507  10.172   9.700   4.675  0.4965  0.1897  0.6466
  251MOL0     O34508  10.085   9.797   4.717 -0.5382 -0.6540 -0.4010
  251MOL0     C34509   9.947   9.777   4.669  0.0155  0.2014 -0.3969
  251MOL0     C34510   9.854   9.895   4.701 -0.1193  0.5433 -0.5974
  251MOL0     C34511   9.724   9.857   4.640  0.0162 -0.1632  0.4599
  251MOL0     C34512   9.618   9.966   4.679 -1.4884 -0.3814  0.4049
  251MOL0     C34513   9.660  10.103   4.626 -0.8798 -0.1668  0.1345
  251MOL0     C34514   9.535  10.183   4.646  0.1856  1.3028  0.2526
  251MOL0     C34515   9.560  10.330   4.607 -0.5179  0.0841  0.0491
  251MOL0     C34516   9.453  10.414   4.673  0.7668 -0.2618  0.3033
  251MOL0     N34517   9.440  10.390   4.814 -0.2886  0.6919 -0.3938
  251MOL0     C34518   9.529  10.410   4.912 -0.2454  0.2608 -0.3911
  251MOL0     C34519   9.469  10.371   5.020 -0.2027 -0.2569  0.2969
  251MOL0     C34520   9.537  10.377   5.151 -0.1812  0.5206  0.1154
  251MOL0     C34521   9.449  10.364   5.273 -0.5359 -0.7287  0.2832
  251MOL0     C34522   9.527  10.381   5.407 -0.2294 -0.7688  0.0953
  251MOL0     C34523   9.648  10.295   5.422  0.6005 -0.1966  0.2028
  251MOL0     O34524   9.686  10.296   5.562  0.1106 -0.3187 -0.1467
  251MOL0     C34525   9.779  10.200   5.599  0.0977  0.6547 -0.2172
  251MOL0     C34526   9.865  10.135   5.512 -0.0346  1.0944 -0.1985
  251MOL0     C34527   9.958  10.036   5.557 -0.0443  0.4053 -0.0142
  251MOL0     C34528  10.042   9.975   5.439 -0.5647 -0.7102  0.0736
  251MOL0     C34529   9.968  10.008   5.693 -0.6084  0.7496 -0.2279
  251MOL0     C34530  10.054   9.896   5.754  0.5313 -0.5789  0.2779
  251MOL0     O34531  10.142   9.852   5.669  0.5577  0.1149 -0.0732
  251MOL0     C34532  10.229   9.749   5.690  0.9076 -0.4750 -0.1909
  251MOL0     C34533  10.267   9.658   5.589 -0.3455 -0.4635 -0.0413
  251MOL0     C34534  10.367   9.566   5.597  0.4738  0.3596 -0.2014
  251MOL0     C34535  10.442   9.561   5.709 -0.1196 -0.3695  0.4265
  251MOL0     O34536  10.542   9.473   5.702  0.2405 -0.0518  0.7054
  251MOL0     C34537  10.667   9.512   5.749  0.8261 -0.5525 -0.1814
  251MOL0     C34538  10.773   9.480   5.650 -0.0651  0.2207  0.4424
  251MOL0     C34539  10.903   9.540   5.702  0.1974  0.2340  1.0341
  251MOL0     C34540  11.013   9.539   5.594 -0.4706 -0.2515 -0.0407
  251MOL0     C34541  11.110   9.421   5.613  0.5020 -0.0049 -0.5736
  251MOL0     C34542  11.247   9.455   5.557  0.3468  0.5470  0.6275
  251MOL0     C34543  11.340   9.328   5.546 -0.1634  0.5411  0.1632
  251MOL0     C34544  11.463   9.362   5.460 -0.0364  0.1033 -0.0482
  251MOL0    Cl34545  11.546   9.213   5.421  0.2644  0.6167 -0.4133
  251MOL0     C34546  10.410   9.641   5.817  0.2256  0.0802  0.0793
  251MOL0     C34547  10.299   9.727   5.815 -0.5660  1.0492 -0.0230
  251MOL0     O34548  10.046   9.860   5.873 -0.0292 -1.1185  0.4861
  251MOL0     C34549   9.878  10.078   5.780 -0.4791 -0.3049  0.2668
  251MOL0     C34550   9.792  10.174   5.735  0.2406  0.0381  0.2019
  251MOL0     N34551   9.339  10.332   4.986 -0.7936  0.2012  0.0897
  251MOL0     N34552   9.320  10.342   4.867 -0.0490 -0.9503  0.0050
  251MOL0     C34553  10.158   9.574   4.735 -0.3675  0.0987 -0.3244
  251MOL0     C34554  10.211   9.464   4.665  0.1418 -1.0374 -0.2103
  251MOL0     C34555  10.306   9.200   4.294  0.3470  0.0699  0.4986
  251MOL0     C34556  10.204   9.114   4.243 -0.5585 -0.4073 -0.0431
  251MOL0     C34557  10.232   8.987   4.193  0.0092 -0.6313 -1.4200
  251MOL0     C34558  10.358   8.939   4.173 -0.0331  0.6449 -0.2119
  251MOL0     O34559  10.386   8.828   4.103 -0.0302 -0.5987  0.4473
  251MOL0     C34560  10.296   8.734   4.058 -0.4593 -0.5821  0.6180
  251MOL0     C34561  10.290   8.617   4.156 -0.8127  0.2334  0.3812
  251MOL0     C34562  10.223   8.657   4.290 -0.3593 -0.4857 -0.2396
  251MOL0     C34563  10.218   8.537   4.386 -0.6051  0.3621  0.0237
  251MOL0     C34564  10.150   8.420   4.344 -1.1191 -0.3067  0.5036
  251MOL0     C34565  10.092   8.332   4.299  0.4411  0.1887 -0.1648
  251MOL0     C34566  10.460   9.015   4.218 -0.2230 -0.3987 -0.3878
  251MOL0     C34567  10.440   9.145   4.276 -0.2017 -0.0856 -0.3530
  251MOL0     C34568  10.574   9.216   4.315  0.1127 -0.1794  0.1970
  251MOL0     H34569  10.364   9.624   4.404  0.7124 -3.2805 -0.1778
  251MOL0     H34570  10.247   9.814   4.507 -1.9630 -0.1148 -1.3377
  251MOL0     H34571   9.912   9.691   4.728  0.6382  0.6184  0.5961
  251MOL0     H34572   9.944   9.744   4.565  2.2135 -2.3754  0.2324
  251MOL0     H34573   9.839   9.920   4.807  3.3129 -0.3260  0.2275
  251MOL0     H34574   9.899   9.980   4.650 -2.3185 -0.3429 -4.3749
  251MOL0     H34575   9.735   9.856   4.531  0.6206 -2.0952  0.5160
  251MOL0     H34576   9.689   9.756   4.664 -0.7421  0.1829  0.8329
  251MOL0     H34577   9.521   9.946   4.633 -1.2492 -1.1309  0.2234
  251MOL0     H34578   9.607   9.968   4.788 -1.3224  1.8637  0.4323
  251MOL0     H34579   9.692  10.104   4.522  1.4584  1.6943  0.7732
  251MOL0     H34580   9.743  10.144   4.684 -1.2413  0.2151  0.3838
  251MOL0     H34581   9.444  10.146   4.599  1.0627  1.5208 -1.6856
  251MOL0     H34582   9.514  10.171   4.753 -3.9640  0.1931 -0.4880
  251MOL0     H34583   9.569  10.333   4.498 -3.0300 -0.1132 -0.2291
  251MOL0     H34584   9.657  10.368   4.641 -0.6552  0.0205  0.5199
  251MOL0     H34585   9.479  10.520   4.665 -2.8044  0.6268 -3.6499
  251MOL0     H34586   9.357  10.401   4.622 -0.8032  1.3631  2.6869
  251MOL0     H34587   9.634  10.434   4.906  1.2658 -5.1158 -0.7222
  251MOL0     H34588   9.598  10.467   5.154  0.2902  0.1817  0.8801
  251MOL0     H34589   9.597  10.286   5.150  0.6206  0.9265  2.9411
  251MOL0     H34590   9.360  10.427   5.267 -0.6910 -0.7638  1.7927
  251MOL0     H34591   9.412  10.262   5.288 -2.0311 -0.1999  0.3763
  251MOL0     H34592   9.556  10.486   5.422 -0.5182 -0.7108  0.2544
  251MOL0     H34593   9.465  10.358   5.494 -1.1845 -0.6287 -0.5373
  251MOL0     H34594   9.633  10.188   5.405 -1.3023  0.0436  0.1626
  251MOL0     H34595   9.738  10.336   5.375  1.2646 -0.3096  1.3410
  251MOL0     H34596   9.860  10.140   5.404  1.4269  0.6785 -0.3026
  251MOL0     H34597  10.151   9.977   5.450 -0.4916  1.9743 -0.3549
  251MOL0     H34598  10.023  10.018   5.340  0.7100 -2.5656 -1.0257
  251MOL0     H34599  10.004   9.877   5.412 -0.3249 -0.8867  0.3769
  251MOL0     H34600  10.213   9.652   5.495 -1.8181 -2.4957  0.8426
  251MOL0     H34601  10.396   9.512   5.507 -0.2145  0.9966 -0.8248
  251MOL0     H34602  10.682   9.620   5.760  2.3089 -0.8204  0.8110
  251MOL0     H34603  10.694   9.464   5.843  0.1687 -0.3663  0.1049
  251MOL0     H34604  10.784   9.371   5.651 -1.6253  0.0450  0.1548
  251MOL0     H34605  10.741   9.514   5.552 -0.0014 -1.1449 -0.0704
  251MOL0     H34606  10.935   9.489   5.793 -0.8357 -1.0385  0.7073
  251MOL0     H34607  10.885   9.641   5.740  1.9078  1.0113 -0.0739
  251MOL0     H34608  11.069   9.630   5.621  1.8728 -1.7669  0.5141
  251MOL0     H34609  10.985   9.542   5.489  2.8188  2.1088 -1.0199
  251MOL0     H34610  11.126   9.401   5.720 -2.0100 -0.7774 -0.2765
  251MOL0     H34611  11.075   9.324   5.577  3.1689 -0.2078 -2.9876
  251MOL0     H34612  11.290   9.525   5.630 -0.4370 -0.0266  1.6555
  251MOL0     H34613  11.231   9.501   5.459  1.9952  1.0454  0.5510
  251MOL0     H34614  11.290   9.245   5.495  1.4391 -0.2703 -0.1613
  251MOL0     H34615  11.362   9.288   5.645 -1.2913 -1.6516 -0.4153
  251MOL0     H34616  11.524   9.427   5.524  0.3684 -0.6674  0.3592
  251MOL0     H34617  11.441   9.410   5.364 -0.4358  2.4451  1.1438
  251MOL0     H34618  10.474   9.614   5.900 -1.1554 -2.9000  0.3017
  251MOL0     H34619  10.286   9.798   5.896  0.2682  1.3793 -0.1652
  251MOL0     H34620   9.890  10.074   5.888 -1.0367 -0.2778  0.3305
  251MOL0     H34621   9.737  10.230   5.810 -0.4364  0.3627 -0.5131
  251MOL0     H34622  10.102   9.562   4.828 -0.7212 -0.0898 -0.5621
  251MOL0     H34623  10.197   9.361   4.697 -1.5176 -0.4405  1.1237
  251MOL0     H34624  10.106   9.152   4.270 -0.1835  2.0056 -1.7273
  251MOL0     H34625  10.147   8.921   4.183  1.7297 -3.0386 -0.9324
  251MOL0     H34626  10.197   8.780   4.044  0.0270  0.5424  0.8238
  251MOL0     H34627  10.325   8.706   3.956 -2.6553  1.7396 -0.7566
  251MOL0     H34628  10.388   8.578   4.184 -2.3563 -1.5828  3.9982
  251MOL0     H34629  10.227   8.542   4.107  2.5392 -0.1434 -3.9086
  251MOL0     H34630  10.284   8.732   4.341  0.1784 -0.9917 -0.1241
  251MOL0     H34631  10.129   8.706   4.267 -1.0772 -2.1053 -0.9049
  251MOL0     H34632  10.161   8.559   4.477 -0.8945  0.0262 -0.0754
  251MOL0     H34633  10.321   8.513   4.414 -0.2587  2.4296  0.6637
  251MOL0     H34634  10.038   8.248   4.261 -2.1397  0.9386  1.5696
  251MOL0     H34635  10.564   8.986   4.219 -0.5266 -1.6264  1.3970
  251MOL0     H34636  10.587   9.199   4.423  2.0828  2.2570  0.4283
  251MOL0     H34637  10.660   9.170   4.267 -0.4817 -0.2266 -0.8522
  251MOL0     H34638  10.564   9.322   4.289  0.1058 -0.2459 -0.0679
  252MOL0     O34639   3.605   9.526  10.376  0.9512 -0.1596 -0.0661
  252MOL0     C34640   3.676   9.477  10.461  0.1490 -0.1645 -1.0349
  252MOL0     O34641   3.638   9.448  10.589  0.5021 -0.2810 -0.1544
  252MOL0     C34642   3.523   9.475  10.655  0.0414 -0.3731  0.0213
  252MOL0     C34643   3.403   9.531  10.597 -0.6097  0.1207 -0.8036
  252MOL0     C34644   3.292   9.561  10.682 -0.7587 -0.5261  0.0425
  252MOL0     C34645   3.291   9.534  10.823 -0.8218  0.6088  0.0673
  252MOL0     O34646   3.170   9.572  10.875 -0.7506  0.2446 -0.0711
  252MOL0     C34647   3.155   9.561  11.017  0.0193  0.2222  0.3674
  252MOL0     C34648   3.016   9.572  11.078  0.6045  0.2214 -0.6905
  252MOL0     C34649   2.949   9.710  11.051  0.0758 -0.1996 -0.0100
  252MOL0     C34650   2.792   9.703  11.068 -0.1984  0.2885  0.6491
  252MOL0     C34651   2.728   9.707  11.214  0.3209 -0.5413  0.5467
  252MOL0     C34652   2.592   9.643  11.211  0.4457  0.3285  0.3430
  252MOL0     C34653   2.475   9.699  11.117  0.3013 -0.3482  0.0284
  252MOL0     C34654   2.461   9.853  11.121 -0.5151  0.7993  0.2247
  252MOL0     N34655   2.417   9.884  11.259  0.1645 -0.8438 -0.0760
  252MOL0     C34656   2.289   9.919  11.290 -0.7057 -0.4984 -0.0785
  252MOL0     C34657   2.300   9.976  11.420  0.4711  0.1662  0.7520
  252MOL0     C34658   2.188  10.035  11.501 -0.2199 -0.1709  0.5511
  252MOL0     C34659   2.132  10.162  11.429 -0.6183  0.2192  0.1142
  252MOL0     C34660   2.015  10.214  11.503 -0.6552  0.0889  0.3682
  252MOL0     C34661   1.994  10.348  11.440 -0.2820 -0.4125 -0.3276
  252MOL0     O34662   1.873  10.396  11.504  0.6898  0.5647 -0.3398
  252MOL0     C34663   1.823  10.513  11.470 -0.1007 -1.1617 -0.1859
  252MOL0     C34664   1.717  10.560  11.541  0.1242  0.0820 -0.3465
  252MOL0     C34665   1.650  10.684  11.516  0.2022  0.2708 -0.3738
  252MOL0     C34666   1.538  10.727  11.605 -0.2500  0.2758 -0.2507
  252MOL0     C34667   1.700  10.771  11.416 -1.2070 -0.5406 -0.0127
  252MOL0     C34668   1.651  10.906  11.369  0.5909  0.7388 -0.4797
  252MOL0     O34669   1.526  10.954  11.400 -0.3093  0.3088  0.0212
  252MOL0     C34670   1.513  11.090  11.396  0.5019 -0.1309  0.1822
  252MOL0     C34671   1.406  11.143  11.319  0.3194  0.1278  0.0933
  252MOL0     C34672   1.402  11.283  11.302  0.9336  0.1471  0.1880
  252MOL0     C34673   1.498  11.364  11.362 -0.9026  0.1892 -0.3159
  252MOL0     O34674   1.485  11.497  11.349 -0.0806  0.1697  0.1992
  252MOL0     C34675   1.474  11.555  11.221  0.6186  0.6901  0.3411
  252MOL0     C34676   1.559  11.680  11.218 -0.6246 -0.3312  0.3540
  252MOL0     C34677   1.709  11.666  11.243  0.4348  0.1047 -0.8919
  252MOL0     C34678   1.786  11.570  11.152 -0.0089  0.2138  0.3562
  252MOL0     C34679   1.937  11.578  11.183 -0.4214 -0.5745 -0.3864
  252MOL0     C34680   1.970  11.523  11.324 -0.7138  0.0968 -0.0675
  252MOL0     C34681   2.129  11.520  11.342  0.5833 -0.5135  0.4350
  252MOL0     C34682   2.168  11.474  11.481 -0.0647  0.1882  0.5066
  252MOL0    Cl34683   2.081  11.580  11.607 -0.1771  0.1770  0.1310
  252MOL0     C34684   1.597  11.312  11.441 -0.0609 -0.4769  0.7995
  252MOL0     C34685   1.609  11.175  11.462  0.5450 -0.6647  0.4404
  252MOL0     O34686   1.732  10.964  11.303  1.2947 -0.2999  0.0206
  252MOL0     C34687   1.810  10.721  11.341 -0.4450  0.8654  0.0951
  252MOL0     C34688   1.866  10.590  11.362  0.3927 -0.3818  0.5057
  252MOL0     N34689   2.436   9.976  11.464  1.0301  0.2046 -0.2000
  252MOL0     N34690   2.500   9.927  11.363 -0.7817  0.0670 -0.3373
  252MOL0     C34691   3.414   9.465  10.872  0.3439  0.2891  0.5358
  252MOL0     C34692   3.528   9.436  10.790 -0.6880  0.0951  0.1469
  252MOL0     C34693   3.815   9.443  10.419 -0.2702 -0.0211 -0.5029
  252MOL0     C34694   3.907   9.435  10.530 -0.3880 -0.5558 -0.6043
  252MOL0     C34695   4.043   9.407  10.506 -0.8522  0.2008 -0.2623
  252MOL0     C34696   4.096   9.386  10.379 -0.1539  0.1612  0.5286
  252MOL0     O34697   4.228   9.356  10.377 -0.2135 -0.1833  0.8693
  252MOL0     C34698   4.300   9.337  10.250  1.2801 -0.0757  0.1183
  252MOL0     C34699   4.445   9.352  10.266 -0.7031 -0.3351 -0.2750
  252MOL0     C34700   4.488   9.234  10.350  0.0452 -0.0380 -0.5162
  252MOL0     C34701   4.633   9.244  10.407  1.1006 -0.1200 -0.0197
  252MOL0     C34702   4.657   9.369  10.469 -0.7016  0.6097  0.0073
  252MOL0     C34703   4.680   9.484  10.526  0.5041  1.1324  0.1929
  252MOL0     C34704   4.008   9.395  10.263 -0.3276 -0.3014 -0.5415
  252MOL0     C34705   3.876   9.428  10.295 -0.2373 -0.8348  0.4021
  252MOL0     C34706   3.793   9.450  10.172  0.7391  0.2256  0.0923
  252MOL0     H34707   3.399   9.546  10.490  1.0307  0.7791 -0.8130
  252MOL0     H34708   3.204   9.611  10.642  0.0250  0.9843  0.1521
  252MOL0     H34709   3.213   9.631  11.078 -0.8943  0.5853  0.8246
  252MOL0     H34710   3.185   9.458  11.040 -0.5007 -1.1021 -3.9219
  252MOL0     H34711   2.968   9.479  11.046  1.9178  0.2770 -3.0357
  252MOL0     H34712   3.024   9.558  11.186 -0.6731  2.6801 -0.2252
  252MOL0     H34713   2.986   9.795  11.108 -0.5807  0.0331  0.0804
  252MOL0     H34714   2.971   9.734  10.947  0.5935 -1.4443 -0.2057
  252MOL0     H34715   2.750   9.776  10.997 -2.9125  0.2180  2.0273
  252MOL0     H34716   2.749   9.613  11.023  2.5548 -1.0341  0.4873
  252MOL0     H34717   2.719   9.811  11.247  1.5976  0.2792 -1.4292
  252MOL0     H34718   2.788   9.643  11.280 -1.4054 -1.3720  1.3685
  252MOL0     H34719   2.600   9.538  11.181  0.3542  0.3254  0.3290
  252MOL0     H34720   2.553   9.650  11.313  0.8144 -0.4883  0.5491
  252MOL0     H34721   2.377   9.668  11.155 -1.4717  4.1967 -0.2915
  252MOL0     H34722   2.484   9.674  11.010  2.7685  0.4403 -0.0205
  252MOL0     H34723   2.556   9.900  11.095  1.1471 -2.4114  0.0525
  252MOL0     H34724   2.382   9.886  11.051 -0.3113 -1.6676 -1.2652
  252MOL0     H34725   2.205   9.898  11.224 -0.1700 -0.1254 -0.8921
  252MOL0     H34726   2.215  10.073  11.600  1.2558 -1.5600  0.7208
  252MOL0     H34727   2.110   9.960  11.521 -0.4410 -0.5604 -1.5272
  252MOL0     H34728   2.208  10.239  11.414 -0.3985  0.1636  0.8820
  252MOL0     H34729   2.104  10.146  11.325  0.0073 -1.0586  0.1217
  252MOL0     H34730   1.922  10.156  11.496  0.4476 -1.5649 -1.4674
  252MOL0     H34731   2.031  10.222  11.611  1.4636  1.3084  0.0095
  252MOL0     H34732   2.078  10.417  11.457  0.3189 -1.8548  3.7157
  252MOL0     H34733   1.965  10.337  11.335  0.3094 -1.0705 -0.4276
  252MOL0     H34734   1.680  10.494  11.618  0.7181 -0.4306 -0.4917
  252MOL0     H34735   1.446  10.688  11.559  0.5391 -1.6747 -0.2526
  252MOL0     H34736   1.524  10.835  11.601 -2.4155  0.0265 -0.6238
  252MOL0     H34737   1.552  10.695  11.708  0.0025 -4.1829 -1.4655
  252MOL0     H34738   1.331  11.084  11.267  0.1283  1.3268 -1.0418
  252MOL0     H34739   1.324  11.329  11.241  2.2632  0.7241 -1.1316
  252MOL0     H34740   1.515  11.491  11.143  0.4031  2.0507 -0.9482
  252MOL0     H34741   1.370  11.585  11.208  0.3642  0.5617  1.9365
  252MOL0     H34742   1.545  11.722  11.119 -0.3242 -1.3646 -0.1430
  252MOL0     H34743   1.520  11.754  11.289 -0.5097 -0.7432  0.8563
  252MOL0     H34744   1.723  11.649  11.350  1.3782  0.0493 -1.0104
  252MOL0     H34745   1.758  11.762  11.223  0.2609 -0.0478 -2.1145
  252MOL0     H34746   1.765  11.593  11.047 -3.4544 -1.0807  0.6605
  252MOL0     H34747   1.752  11.468  11.171 -0.0764 -0.0703 -1.1539
  252MOL0     H34748   1.989  11.514  11.110 -1.9521 -0.1765 -1.8838
  252MOL0     H34749   1.970  11.680  11.164 -1.6106 -0.2539 -0.7582
  252MOL0     H34750   1.912  11.431  11.332 -1.5174  0.5444 -0.5945
  252MOL0     H34751   1.930  11.592  11.399  0.5574  0.7132  0.0835
  252MOL0     H34752   2.166  11.620  11.315  5.3983 -2.2912 -0.5459
  252MOL0     H34753   2.182  11.459  11.269 -1.2035 -1.1460 -0.4117
  252MOL0     H34754   2.274  11.493  11.497 -0.3544  1.9581  0.5229
  252MOL0     H34755   2.140  11.369  11.500 -0.2239  0.3541  1.2132
  252MOL0     H34756   1.669  11.379  11.487  1.9172  0.1194 -2.7777
  252MOL0     H34757   1.690  11.135  11.522  4.1970  4.6156 -0.2731
  252MOL0     H34758   1.865  10.769  11.261 -1.1610 -0.9730 -1.5924
  252MOL0     H34759   1.940  10.553  11.292  1.4362  1.4593  0.5770
  252MOL0     H34760   3.417   9.424  10.972 -2.3134  0.1913  0.6519
  252MOL0     H34761   3.614   9.381  10.828 -0.4707 -0.8658 -1.6392
  252MOL0     H34762   3.881   9.447  10.634 -1.8505 -1.6077 -0.8198
  252MOL0     H34763   4.103   9.401  10.596  2.5915  2.7207 -2.1584
  252MOL0     H34764   4.285   9.237  10.209  1.3013  0.2622 -0.7254
  252MOL0     H34765   4.260   9.405  10.175 -2.3224  0.3869  2.2102
  252MOL0     H34766   4.466   9.453  10.305 -1.5363 -0.0180 -0.6402
  252MOL0     H34767   4.486   9.342  10.165 -0.3375 -2.0949  0.0178
  252MOL0     H34768   4.417   9.214  10.431  2.0819  0.2183  1.4261
  252MOL0     H34769   4.480   9.142  10.292  0.1512 -0.0267 -0.5493
  252MOL0     H34770   4.697   9.230  10.319 -2.2655  3.2899 -3.3873
  252MOL0     H34771   4.647   9.159  10.474 -0.4863 -1.4172 -1.2483
  252MOL0     H34772   4.706   9.580  10.566 -0.1446  1.4172 -0.0526
  252MOL0     H34773   4.050   9.386  10.163  2.0751 -1.8106  0.5000
  252MOL0     H34774   3.706   9.391  10.201  1.6873 -1.3655 -0.2200
  252MOL0     H34775   3.778   9.557  10.152 -1.3831  0.4211  2.2360
  252MOL0     H34776   3.845   9.420  10.081  1.6470  1.6344  0.1068
  253MOL0     O34777   8.099   5.033  10.480 -0.0473  0.5896  0.3923
  253MOL0     C34778   8.208   5.065  10.525 -0.2927 -0.1664  0.5455
  253MOL0     O34779   8.327   5.006  10.508 -0.0601  0.4087  0.1472
  253MOL0     C34780   8.337   4.902  10.422  0.0802 -0.0894  0.4005
  253MOL0     C34781   8.315   4.768  10.455  0.0139 -0.1287  1.5924
  253MOL0     C34782   8.336   4.665  10.366 -0.3825  0.9593 -0.4837
  253MOL0     C34783   8.371   4.698  10.231  0.4632  0.7053 -0.6958
  253MOL0     O34784   8.386   4.605  10.131 -0.2677 -0.7444  0.5815
  253MOL0     C34785   8.262   4.599  10.063  0.6037  0.5102 -0.5613
  253MOL0     C34786   8.193   4.468  10.091 -1.0981  0.2915  0.2955
  253MOL0     C34787   8.077   4.462   9.997  0.3497  0.1609 -0.3933
  253MOL0     C34788   7.988   4.350  10.034  0.4841  0.1004  0.0339
  253MOL0     C34789   7.896   4.313   9.909  0.6899 -0.2586 -0.2358
  253MOL0     C34790   7.808   4.192   9.923  0.6662  0.2683  0.4558
  253MOL0     C34791   7.701   4.201   9.817 -0.1733  0.0956  0.1891
  253MOL0     C34792   7.613   4.080   9.826  0.3980 -0.0223 -0.0304
  253MOL0     N34793   7.489   4.087   9.739  0.3187  1.0305 -0.2091
  253MOL0     C34794   7.471   4.159   9.630 -0.6344 -0.3149 -0.0181
  253MOL0     C34795   7.344   4.146   9.595  0.2146  0.8164  0.6127
  253MOL0     C34796   7.261   4.214   9.496  0.0227  0.6810  0.8547
  253MOL0     C34797   7.335   4.317   9.413 -0.1147  0.2374  0.2886
  253MOL0     C34798   7.239   4.411   9.332  0.4039 -0.2532  0.1682
  253MOL0     C34799   7.207   4.356   9.200  1.2465  0.0920 -0.5598
  253MOL0     O34800   7.250   4.225   9.169 -0.1083  0.6864 -0.1736
  253MOL0     C34801   7.179   4.151   9.071  0.8646 -0.6119  0.2130
  253MOL0     C34802   7.101   4.216   8.968  0.2451 -0.0632  0.6357
  253MOL0     C34803   7.041   4.142   8.866 -0.0833 -0.6761 -0.7960
  253MOL0     C34804   6.942   4.227   8.778  0.3221  0.3031  0.2330
  253MOL0     C34805   7.071   4.007   8.848 -0.7352  0.8235  0.6407
  253MOL0     C34806   7.020   3.904   8.753 -0.5437 -0.2543  0.0692
  253MOL0     O34807   7.066   3.780   8.757  0.0933  1.0714 -0.4652
  253MOL0     C34808   7.055   3.700   8.648  0.0799 -0.0437  0.2285
  253MOL0     C34809   7.022   3.573   8.674  0.0495 -0.2193  0.3020
  253MOL0     C34810   7.015   3.484   8.565  0.4291 -0.6745  0.1683
  253MOL0     C34811   7.011   3.523   8.430 -0.0438  0.3527 -0.9064
  253MOL0     O34812   6.979   3.445   8.330 -1.0103 -0.1287  1.0920
  253MOL0     C34813   7.026   3.308   8.340 -0.0549  0.6866 -0.1538
  253MOL0     C34814   6.972   3.228   8.215 -0.3862 -0.1382  0.0704
  253MOL0     C34815   7.050   3.099   8.197  0.9143  0.3185  0.2983
  253MOL0     C34816   6.959   3.013   8.105  0.4142  0.0826 -0.7012
  253MOL0     C34817   7.034   2.882   8.045  0.0614  0.4250 -0.5365
  253MOL0     C34818   7.055   2.785   8.168  0.1843 -0.0926  0.6677
  253MOL0     C34819   6.934   2.695   8.206 -0.1862 -0.4006  0.5448
  253MOL0     C34820   6.904   2.692   8.353  0.2973  0.3990 -0.7552
  253MOL0    Cl34821   7.043   2.615   8.432 -0.0929  0.1277 -0.1706
  253MOL0     C34822   7.034   3.658   8.400  0.7359 -0.0938 -0.2011
  253MOL0     C34823   7.061   3.745   8.506  0.0552 -0.3397  1.0100
  253MOL0     O34824   6.946   3.941   8.670  0.3063  0.1492 -0.1708
  253MOL0     C34825   7.154   3.944   8.948  0.0214 -0.4916 -0.0973
  253MOL0     C34826   7.201   4.017   9.061  0.2999  0.5155 -0.5756
  253MOL0     N34827   7.280   4.058   9.683  0.6462  0.0073  0.5016
  253MOL0     N34828   7.371   4.028   9.772 -0.6857  0.1334  0.5237
  253MOL0     C34829   8.397   4.831  10.202  0.1604 -0.0350  0.1210
  253MOL0     C34830   8.376   4.931  10.295  0.3107  0.1801  0.4749
  253MOL0     C34831   8.215   5.166  10.637  0.1890  0.8346 -0.8643
  253MOL0     C34832   8.323   5.153  10.730 -0.2683  0.2779  0.4332
  253MOL0     C34833   8.347   5.250  10.830  0.2086 -1.0142 -0.2332
  253MOL0     C34834   8.260   5.359  10.853 -0.7764  0.7920 -0.3209
  253MOL0     O34835   8.281   5.462  10.935 -0.0049 -0.3447  0.5922
  253MOL0     C34836   8.413   5.489  10.981 -0.3195 -0.1374 -0.2094
  253MOL0     C34837   8.401   5.636  11.039 -0.0464  0.4833 -1.3608
  253MOL0     C34838   8.529   5.718  11.047 -0.4899 -0.3608  0.0427
  253MOL0     C34839   8.494   5.845  11.131 -0.3920 -0.7920 -0.0436
  253MOL0     C34840   8.611   5.930  11.166 -1.1045  0.2472  0.1331
  253MOL0     C34841   8.703   5.992  11.194 -0.1695 -0.4560  0.4161
  253MOL0     C34842   8.149   5.367  10.771  0.0696  0.3196  0.1757
  253MOL0     C34843   8.127   5.270  10.665  1.0658 -0.6226 -0.0667
  253MOL0     C34844   8.002   5.294  10.578  0.6416 -0.9950  0.6164
  253MOL0     H34845   8.288   4.753  10.559 -1.8854 -1.6726  0.9400
  253MOL0     H34846   8.333   4.566  10.410 -3.6158  1.4922  0.7305
  253MOL0     H34847   8.284   4.604   9.956  1.1821 -2.7795 -0.7097
  253MOL0     H34848   8.204   4.689  10.082 -1.5430 -0.3188 -2.6375
  253MOL0     H34849   8.261   4.389  10.059 -0.7813  1.0488 -1.0099
  253MOL0     H34850   8.168   4.455  10.196  0.4669 -0.3001  0.6275
  253MOL0     H34851   8.015   4.552   9.996 -1.2389 -0.8874  0.4790
  253MOL0     H34852   8.116   4.446   9.895 -1.4653  0.9942 -1.2690
  253MOL0     H34853   8.039   4.258  10.064 -0.2235 -1.2661 -2.6369
  253MOL0     H34854   7.921   4.378  10.116  0.0651 -0.3331 -0.1534
  253MOL0     H34855   7.961   4.309   9.821  2.3525  1.5403  0.8118
  253MOL0     H34856   7.834   4.400   9.887 -0.2557 -1.3494 -2.1403
  253MOL0     H34857   7.867   4.100   9.910 -1.1134 -0.8906  0.2052
  253MOL0     H34858   7.761   4.186  10.022 -2.3139  1.5360 -0.7713
  253MOL0     H34859   7.731   4.211   9.712 -4.6965 -1.3294 -1.4710
  253MOL0     H34860   7.636   4.287   9.833  0.1369  0.3398  0.1425
  253MOL0     H34861   7.667   3.990   9.797  0.8467  0.6503 -1.3872
  253MOL0     H34862   7.575   4.073   9.928  2.8337  2.8024  1.2223
  253MOL0     H34863   7.535   4.234   9.584 -2.7310  1.2818 -0.5110
  253MOL0     H34864   7.177   4.267   9.541  0.6979  3.4383 -0.8942
  253MOL0     H34865   7.234   4.135   9.424  0.7217  0.6971  0.5725
  253MOL0     H34866   7.388   4.393   9.471 -0.1333  0.1219  0.4577
  253MOL0     H34867   7.409   4.269   9.348  0.3712 -2.2622  2.5142
  253MOL0     H34868   7.150   4.434   9.392  2.5858  4.6863  2.0890
  253MOL0     H34869   7.278   4.512   9.316 -0.8299  0.5145  1.7352
  253MOL0     H34870   7.098   4.348   9.205  1.1800  0.5735 -1.1521
  253MOL0     H34871   7.238   4.429   9.125  0.4826  0.9274 -0.0894
  253MOL0     H34872   7.090   4.324   8.961 -0.2648 -0.1829 -0.8787
  253MOL0     H34873   6.851   4.166   8.772  2.0622 -2.5383  0.6662
  253MOL0     H34874   6.984   4.219   8.677 -0.6888 -0.4113 -0.1471
  253MOL0     H34875   6.906   4.325   8.810 -0.8749  0.3344 -1.1237
  253MOL0     H34876   7.029   3.539   8.777  2.2939  3.1560  1.4174
  253MOL0     H34877   6.992   3.381   8.589 -0.8206 -0.0978  1.6036
  253MOL0     H34878   7.135   3.299   8.342 -0.0494  0.5895  2.0111
  253MOL0     H34879   6.985   3.260   8.430  1.0589  1.5731  0.8680
  253MOL0     H34880   6.866   3.216   8.241  0.1092 -0.4724  2.1365
  253MOL0     H34881   6.976   3.276   8.117 -0.9747 -1.0354 -0.3983
  253MOL0     H34882   7.059   3.047   8.293 -0.9288 -2.1099 -0.7147
  253MOL0     H34883   7.149   3.112   8.151  0.5524  1.3362 -0.2039
  253MOL0     H34884   6.919   3.063   8.016 -0.7326 -4.1519 -2.8463
  253MOL0     H34885   6.878   2.978   8.169  3.2084 -2.3638  1.7819
  253MOL0     H34886   6.988   2.831   7.960 -0.8290 -0.5959  0.5239
  253MOL0     H34887   7.133   2.915   8.012  0.4234 -0.9573 -0.8771
  253MOL0     H34888   7.088   2.849   8.250 -0.1101  1.3824 -0.3177
  253MOL0     H34889   7.134   2.715   8.142 -1.4834 -1.3433 -1.3038
  253MOL0     H34890   6.935   2.589   8.180 -2.3090 -1.3176  3.5743
  253MOL0     H34891   6.850   2.746   8.159 -0.1470 -0.4965  0.3730
  253MOL0     H34892   6.816   2.630   8.375 -0.5500  1.9641  0.5190
  253MOL0     H34893   6.887   2.793   8.391  1.7806  2.6774 -5.4249
  253MOL0     H34894   7.054   3.688   8.298 -2.5249 -1.2009 -1.2927
  253MOL0     H34895   7.109   3.840   8.487  1.9426 -1.4821 -0.2778
  253MOL0     H34896   7.172   3.837   8.954 -0.7534 -0.8738 -3.0342
  253MOL0     H34897   7.236   3.966   9.150 -0.8935 -2.4822 -1.7285
  253MOL0     H34898   8.426   4.856  10.101 -0.9780  2.7827  0.4030
  253MOL0     H34899   8.376   5.037  10.275 -1.8011  0.1196 -0.1214
  253MOL0     H34900   8.398   5.075  10.716 -1.0976 -0.3768 -0.5415
  253MOL0     H34901   8.440   5.241  10.886 -0.8801  0.3853  1.9249
  253MOL0     H34902   8.442   5.418  11.059 -0.4767 -1.4974 -1.3517
  253MOL0     H34903   8.478   5.481  10.894  0.0798 -2.0473  0.2066
  253MOL0     H34904   8.337   5.627  11.127 -0.8486 -1.3590 -2.0950
  253MOL0     H34905   8.332   5.695  10.977 -1.1929  2.1515  1.3219
  253MOL0     H34906   8.610   5.667  11.101 -1.2533  0.2295  1.8412
  253MOL0     H34907   8.552   5.739  10.943 -0.7749  0.0079  0.0529
  253MOL0     H34908   8.450   5.808  11.224  0.1031 -1.9153 -0.2457
  253MOL0     H34909   8.418   5.900  11.073 -0.1337 -0.2327  0.1410
  253MOL0     H34910   8.781   6.054  11.234  0.9302 -0.6867 -1.2525
  253MOL0     H34911   8.068   5.438  10.787  1.0256  1.4442  0.1468
  253MOL0     H34912   8.040   5.307  10.476  0.2017 -1.8992  0.3292
  253MOL0     H34913   7.937   5.206  10.570 -0.6629 -0.3596  3.3245
  253MOL0     H34914   7.946   5.381  10.612 -1.6074 -1.4904 -1.4988
  254MOL0     O34915   1.362   1.417   6.352  0.4740 -0.4699  0.6163
  254MOL0     C34916   1.402   1.300   6.326 -0.4060 -0.7487 -0.4408
  254MOL0     O34917   1.418   1.205   6.418  0.2036 -0.4786 -0.1206
  254MOL0     C34918   1.337   1.217   6.526 -0.4585 -0.0346 -0.4657
  254MOL0     C34919   1.203   1.247   6.518  0.7107 -0.2276 -0.7096
  254MOL0     C34920   1.131   1.263   6.638 -0.4561  0.4237  0.0209
  254MOL0     C34921   1.185   1.233   6.758 -1.0003  0.3449 -0.5397
  254MOL0     O34922   1.099   1.256   6.859  0.0297  0.3405 -0.1863
  254MOL0     C34923   1.127   1.230   6.988  0.4673  0.9089  0.7240
  254MOL0     C34924   1.134   1.075   7.023  0.9100  0.2527  0.1695
  254MOL0     C34925   1.004   1.003   6.974 -0.5671  0.7173  1.3891
  254MOL0     C34926   0.969   0.884   7.059  0.6710 -0.2261 -0.1461
  254MOL0     C34927   1.077   0.774   7.051 -0.1606  0.1127  0.6105
  254MOL0     C34928   1.016   0.644   7.088 -1.2578  0.9754  0.5614
  254MOL0     C34929   0.951   0.631   7.227  0.7029 -0.1028 -0.0244
  254MOL0     C34930   1.049   0.661   7.338  0.5852  0.7175  0.4837
  254MOL0     N34931   1.062   0.556   7.436 -0.4176 -0.0159 -0.1342
  254MOL0     C34932   0.985   0.546   7.550  0.6698  0.0256  0.0348
  254MOL0     C34933   0.992   0.412   7.580 -0.4833 -0.0002  1.0486
  254MOL0     C34934   0.916   0.349   7.694  0.6402  0.5089  0.5831
  254MOL0     C34935   0.766   0.331   7.670  0.5466  0.1759  0.2391
  254MOL0     C34936   0.711   0.236   7.559 -0.1715 -0.6778 -0.5099
  254MOL0     C34937   0.758   0.090   7.577 -0.0441 -0.7978 -0.5085
  254MOL0     O34938   0.701   0.012   7.476 -1.0851  0.1584  0.2607
  254MOL0     C34939   0.683  -0.122   7.512  0.4202  0.0372 -0.3639
  254MOL0     C34940   0.589  -0.197   7.441  0.4245 -0.4357  0.0048
  254MOL0     C34941   0.558  -0.329   7.473 -0.4025 -0.2530 -0.4435
  254MOL0     C34942   0.450  -0.391   7.389  0.6457 -0.7884  0.6454
  254MOL0     C34943   0.647  -0.399   7.565  0.4841  0.4105 -0.4044
  254MOL0     C34944   0.650  -0.550   7.572  0.1345  0.2042 -0.0928
  254MOL0     O34945   0.685  -0.606   7.694  0.1869 -0.3070 -0.4720
  254MOL0     C34946   0.722  -0.735   7.694 -0.6376  0.0829  1.2318
  254MOL0     C34947   0.852  -0.770   7.649 -0.1477 -1.0309 -0.2665
  254MOL0     C34948   0.902  -0.899   7.650  0.0360  0.4672  0.0377
  254MOL0     C34949   0.828  -0.995   7.704  0.0841 -0.6573  0.7252
  254MOL0     O34950   0.881  -1.122   7.705 -0.0162 -0.8253  0.1009
  254MOL0     C34951   0.886  -1.176   7.837  0.4006  0.8039  0.2244
  254MOL0     C34952   0.910  -1.326   7.820  0.0137  0.0141  0.0608
  254MOL0     C34953   1.052  -1.363   7.767 -0.7544 -0.2293 -0.1087
  254MOL0     C34954   1.081  -1.510   7.789 -0.5293  0.8049  0.1264
  254MOL0     C34955   1.202  -1.558   7.698 -0.3501  0.2782  1.1692
  254MOL0     C34956   1.217  -1.708   7.691  0.6646 -0.6804  0.4973
  254MOL0     C34957   1.328  -1.735   7.584 -0.8243 -0.4818 -0.3591
  254MOL0     C34958   1.286  -1.839   7.481  0.2412 -0.2318  0.7669
  254MOL0    Cl34959   1.408  -1.859   7.337  0.4822 -0.4653  0.5273
  254MOL0     C34960   0.695  -0.977   7.749 -0.4688 -0.5888 -1.2656
  254MOL0     C34961   0.639  -0.846   7.734  0.1823 -0.4982 -0.4042
  254MOL0     O34962   0.632  -0.612   7.469 -0.1436 -0.5906  0.0128
  254MOL0     C34963   0.734  -0.322   7.639  0.4340 -0.1903  0.1560
  254MOL0     C34964   0.747  -0.183   7.617 -0.5685  0.0560  1.0518
  254MOL0     N34965   1.067   0.342   7.489  0.0594 -0.1410 -0.3469
  254MOL0     N34966   1.109   0.430   7.408  0.1520  0.8325  1.1270
  254MOL0     C34967   1.315   1.192   6.770 -0.8483 -0.3174  0.9662
  254MOL0     C34968   1.394   1.187   6.652  0.0780 -0.0470  0.1716
  254MOL0     C34969   1.466   1.257   6.189 -0.0365  0.3468  0.1915
  254MOL0     C34970   1.553   1.143   6.181  1.2965  0.0014  0.0194
  254MOL0     C34971   1.619   1.101   6.068  0.5093 -0.0316 -0.2497
  254MOL0     C34972   1.598   1.182   5.950 -0.4839  0.1196  0.7353
  254MOL0     O34973   1.670   1.157   5.834 -0.5431  0.1079  0.7112
  254MOL0     C34974   1.789   1.075   5.840 -0.4103  0.1390  1.1529
  254MOL0     C34975   1.761   0.925   5.821 -0.3159 -0.3063  0.1193
  254MOL0     C34976   1.646   0.893   5.720  0.2561  0.3695 -0.6768
  254MOL0     C34977   1.646   0.739   5.712 -0.3092  0.8027  0.5364
  254MOL0     C34978   1.532   0.680   5.643  0.2935 -0.7586 -0.1164
  254MOL0     C34979   1.437   0.620   5.599  0.4325 -0.2573  0.4255
  254MOL0     C34980   1.501   1.283   5.955 -0.6745 -0.6756  0.6012
  254MOL0     C34981   1.448   1.333   6.071 -0.0492  0.5352  0.3330
  254MOL0     C34982   1.365   1.458   6.068 -0.1311  0.6807  0.0235
  254MOL0     H34983   1.155   1.265   6.422 -1.5495 -0.0573  0.3942
  254MOL0     H34984   1.027   1.294   6.628  0.0697  1.7399 -2.2883
  254MOL0     H34985   1.042   1.274   7.041 -0.1987  3.5216 -2.2484
  254MOL0     H34986   1.219   1.279   7.021  0.1977  0.5672  2.0716
  254MOL0     H34987   1.221   1.027   6.979  0.5235  0.3674 -0.7318
  254MOL0     H34988   1.141   1.065   7.132  5.2863  1.1908  0.1536
  254MOL0     H34989   0.918   1.069   6.962 -0.9817  0.0378  0.5153
  254MOL0     H34990   1.027   0.969   6.872 -0.4296  2.9878  0.6094
  254MOL0     H34991   0.953   0.932   7.156 -0.8236 -0.2218 -0.3700
  254MOL0     H34992   0.867   0.850   7.038 -0.8559  2.9960  1.4330
  254MOL0     H34993   1.171   0.798   7.101 -0.3644 -0.3398  1.2344
  254MOL0     H34994   1.115   0.752   6.951  3.4051 -0.4560  1.9363
  254MOL0     H34995   0.941   0.634   7.009  0.7749 -3.7097 -1.1714
  254MOL0     H34996   1.079   0.559   7.061 -1.2066  1.6939 -1.8882
  254MOL0     H34997   0.904   0.533   7.216  0.6730 -0.2028  0.9406
  254MOL0     H34998   0.865   0.696   7.242 -0.9277 -2.4119  1.2865
  254MOL0     H34999   1.152   0.661   7.301  0.0968  1.1469 -0.9058
  254MOL0     H35000   1.020   0.756   7.383 -0.6375  3.0214 -4.5639
  254MOL0     H35001   0.928   0.619   7.607 -1.1434  0.0059 -1.6369
  254MOL0     H35002   0.911   0.423   7.774 -1.6169  2.2481 -1.0440
  254MOL0     H35003   0.956   0.253   7.729 -1.7099 -0.9044 -0.4012
  254MOL0     H35004   0.716   0.298   7.761 -1.9658 -0.2903 -1.2114
  254MOL0     H35005   0.734   0.435   7.655  0.0671 -0.1637 -1.3033
  254MOL0     H35006   0.604   0.241   7.539 -0.2745 -0.4424  0.0774
  254MOL0     H35007   0.752   0.264   7.462  0.6168 -0.7256 -0.2073
  254MOL0     H35008   0.867   0.082   7.570  0.4081  3.8947 -2.6900
  254MOL0     H35009   0.719   0.068   7.676  2.8607 -0.8713  0.7222
  254MOL0     H35010   0.519  -0.138   7.382  0.7594  0.4506  0.4722
  254MOL0     H35011   0.497  -0.428   7.298 -0.4338 -1.0967  0.2075
  254MOL0     H35012   0.384  -0.312   7.352  2.1870 -0.0300 -0.6298
  254MOL0     H35013   0.394  -0.469   7.441 -0.0622 -0.9943 -0.4192
  254MOL0     H35014   0.911  -0.693   7.599 -3.2475  0.5952 -1.7499
  254MOL0     H35015   0.998  -0.906   7.602  0.8056  2.7166  1.1102
  254MOL0     H35016   0.956  -1.133   7.909  0.9270 -0.2100  0.3374
  254MOL0     H35017   0.794  -1.152   7.892 -0.3268  1.2608 -1.1513
  254MOL0     H35018   0.885  -1.386   7.907 -1.6297 -3.9189 -2.8067
  254MOL0     H35019   0.840  -1.361   7.743  0.4648  0.9118 -0.7784
  254MOL0     H35020   1.122  -1.303   7.826 -0.9915 -0.2000  0.1484
  254MOL0     H35021   1.078  -1.338   7.664 -0.2094 -3.0065 -0.7233
  254MOL0     H35022   0.994  -1.566   7.752 -1.8264  2.8219 -0.0742
  254MOL0     H35023   1.097  -1.532   7.895  0.4457 -4.5993 -0.8544
  254MOL0     H35024   1.173  -1.512   7.602  3.3230  4.2020  1.6547
  254MOL0     H35025   1.293  -1.510   7.733 -1.9887  2.8283  2.2785
  254MOL0     H35026   1.127  -1.753   7.646  0.5955  2.8655 -3.5650
  254MOL0     H35027   1.246  -1.743   7.791 -2.4733 -1.1467  1.3858
  254MOL0     H35028   1.418  -1.768   7.637  0.4364  1.1224 -1.3859
  254MOL0     H35029   1.348  -1.642   7.530 -0.1728  1.3960  2.8235
  254MOL0     H35030   1.194  -1.811   7.429  0.5870  2.7606  1.5614
  254MOL0     H35031   1.266  -1.934   7.532 -3.5723 -0.3201 -0.5916
  254MOL0     H35032   0.628  -1.057   7.777 -1.2948 -0.3074 -2.3682
  254MOL0     H35033   0.536  -0.821   7.757  0.1414 -0.0688 -1.0507
  254MOL0     H35034   0.793  -0.377   7.711  0.8135 -2.3385 -1.6633
  254MOL0     H35035   0.829  -0.139   7.673  2.1893 -0.6462 -2.0539
  254MOL0     H35036   1.361   1.171   6.866  1.5701  0.5871  0.0956
  254MOL0     H35037   1.495   1.150   6.659  0.7637  1.9535  1.5909
  254MOL0     H35038   1.548   1.078   6.268 -0.7133  1.8846  1.4292
  254MOL0     H35039   1.678   1.010   6.069 -0.5588 -0.7446  0.6692
  254MOL0     H35040   1.860   1.098   5.760  0.0036 -0.8075  1.2379
  254MOL0     H35041   1.843   1.085   5.935  0.1684  0.7392  0.7750
  254MOL0     H35042   1.719   0.882   5.912 -4.8088  2.2219 -0.4407
  254MOL0     H35043   1.858   0.886   5.787 -0.6129 -0.4017 -0.6451
  254MOL0     H35044   1.553   0.919   5.771  1.1863  2.3443  0.1000
  254MOL0     H35045   1.654   0.940   5.622  0.8824  1.7691  0.0254
  254MOL0     H35046   1.654   0.684   5.806 -2.3540  0.4636  0.5499
  254MOL0     H35047   1.723   0.705   5.641 -0.9864 -1.5435  0.8560
  254MOL0     H35048   1.351   0.561   5.573  0.1361  0.3874 -0.0944
  254MOL0     H35049   1.494   1.313   5.851 -1.1154  1.9111  1.3215
  254MOL0     H35050   1.264   1.443   6.105 -0.4155  2.9912  0.3591
  254MOL0     H35051   1.420   1.530   6.130  2.8673 -1.0995 -0.3830
  254MOL0     H35052   1.347   1.494   5.967  0.4911 -1.4889 -0.9128
  255MOL0     O35053   4.261   6.848   5.670 -0.4744  0.0870  0.4248
  255MOL0     C35054   4.302   6.803   5.773  0.6572 -0.1095 -0.8603
  255MOL0     O35055   4.246   6.813   5.897 -0.6205  1.0936 -0.1710
  255MOL0     C35056   4.124   6.877   5.899 -0.3353 -0.4441 -0.7939
  255MOL0     C35057   4.109   7.012   5.871 -0.0609 -0.0140  0.2125
  255MOL0     C35058   3.978   7.078   5.877 -0.3388  0.0602  0.0630
  255MOL0     C35059   3.863   7.002   5.890 -1.0446 -0.2668 -0.0887
  255MOL0     O35060   3.736   7.053   5.882 -1.1527 -0.3161 -0.6467
  255MOL0     C35061   3.696   7.104   5.757  0.1150 -0.2621 -1.0197
  255MOL0     C35062   3.557   7.048   5.754 -0.1330  0.1593 -0.7413
  255MOL0     C35063   3.556   6.898   5.767  0.1168 -0.1192 -0.0223
  255MOL0     C35064   3.436   6.831   5.699  0.3880  0.6380 -0.3936
  255MOL0     C35065   3.412   6.677   5.723 -0.6240  0.1816 -0.6436
  255MOL0     C35066   3.314   6.619   5.624 -0.0332 -1.1337 -0.1789
  255MOL0     C35067   3.205   6.528   5.680 -0.1265  0.4111 -0.2113
  255MOL0     C35068   3.108   6.497   5.567  0.7775  0.0577 -1.3987
  255MOL0     N35069   3.154   6.385   5.487 -0.8711 -0.2006  0.0373
  255MOL0     C35070   3.154   6.258   5.515 -0.8906  0.2961 -0.1842
  255MOL0     C35071   3.201   6.196   5.407 -0.2875  0.4319  0.1068
  255MOL0     C35072   3.217   6.047   5.395  0.5998 -0.0609  0.1837
  255MOL0     C35073   3.236   5.989   5.256  0.2516  0.0785  0.0619
  255MOL0     C35074   3.114   6.019   5.157  0.0757 -0.7797 -0.3079
  255MOL0     C35075   2.987   5.949   5.204 -0.3670 -0.2374  0.0293
  255MOL0     O35076   2.873   5.984   5.115 -0.9118 -0.2269  0.2677
  255MOL0     C35077   2.752   5.943   5.143  0.2077 -0.9404  0.4645
  255MOL0     C35078   2.652   5.985   5.056  1.0764  0.1082  0.0339
  255MOL0     C35079   2.513   5.966   5.082 -0.0283  0.2370 -0.4564
  255MOL0     C35080   2.407   6.044   5.008 -0.0926  0.7282  0.0073
  255MOL0     C35081   2.483   5.891   5.203  0.2621  0.3889  0.7257
  255MOL0     C35082   2.352   5.865   5.256  1.1463 -0.6198 -0.1407
  255MOL0     O35083   2.328   5.859   5.392 -0.4835 -0.1685 -0.1197
  255MOL0     C35084   2.199   5.839   5.424 -0.1147  0.2421 -0.4608
  255MOL0     C35085   2.098   5.941   5.410  0.8627  0.7519  0.6079
  255MOL0     C35086   1.967   5.912   5.437 -0.2405  0.0755 -1.0928
  255MOL0     C35087   1.930   5.786   5.482  0.1138  0.6431  0.2462
  255MOL0     O35088   1.794   5.761   5.507 -0.6196 -0.2441  0.6821
  255MOL0     C35089   1.751   5.625   5.514 -0.0181  0.4272  0.7899
  255MOL0     C35090   1.603   5.627   5.463 -0.1158 -0.6658 -0.2610
  255MOL0     C35091   1.597   5.583   5.319 -1.2419 -0.1631  0.1436
  255MOL0     C35092   1.459   5.536   5.281  0.9915 -0.0192 -0.7409
  255MOL0     C35093   1.352   5.646   5.244 -0.4493 -0.4839  0.0611
  255MOL0     C35094   1.233   5.586   5.174  0.2411 -0.9430 -0.0144
  255MOL0     C35095   1.128   5.537   5.260  0.9605 -0.4221  0.6515
  255MOL0     C35096   1.136   5.382   5.273 -0.6869 -0.5734 -0.4289
  255MOL0    Cl35097   1.010   5.345   5.395  0.0756 -0.0734  0.0786
  255MOL0     C35098   2.028   5.696   5.502 -0.3382  0.7176 -0.1479
  255MOL0     C35099   2.164   5.716   5.470  0.4441  0.7428 -0.5439
  255MOL0     O35100   2.265   5.844   5.167 -0.2667 -0.2768 -0.2349
  255MOL0     C35101   2.590   5.831   5.270 -0.0287  0.1951  0.5083
  255MOL0     C35102   2.721   5.851   5.238 -0.0639 -0.5669 -1.1169
  255MOL0     N35103   3.242   6.290   5.316 -0.8963  0.3386  0.3795
  255MOL0     N35104   3.208   6.406   5.364 -0.2807 -0.7761  0.2351
  255MOL0     C35105   3.884   6.861   5.904  0.1338  0.3552 -0.7340
  255MOL0     C35106   4.010   6.795   5.914 -1.3389  0.4697 -0.3392
  255MOL0     C35107   4.422   6.719   5.757  1.1178  0.8630  0.8174
  255MOL0     C35108   4.429   6.610   5.835  0.4500 -0.4513  0.0922
  255MOL0     C35109   4.541   6.530   5.838 -1.2418  0.3918  0.5731
  255MOL0     C35110   4.651   6.557   5.751 -0.9147  1.1371  0.4466
  255MOL0     O35111   4.750   6.454   5.742  0.9703  0.4744  0.0665
  255MOL0     C35112   4.847   6.474   5.646  0.1764  0.6544  0.4284
  255MOL0     C35113   4.939   6.353   5.661 -0.1920  0.3072  0.8372
  255MOL0     C35114   5.010   6.343   5.793 -0.4500 -0.5151 -0.0974
  255MOL0     C35115   5.133   6.256   5.798 -0.3723 -0.3332 -0.2147
  255MOL0     C35116   5.106   6.118   5.775  0.1704  0.7044  0.9026
  255MOL0     C35117   5.065   6.006   5.756 -0.9989 -0.3603  0.7761
  255MOL0     C35118   4.648   6.674   5.672  0.1062 -0.8681 -1.3805
  255MOL0     C35119   4.531   6.753   5.675  0.0590 -0.0980  0.7628
  255MOL0     C35120   4.532   6.860   5.573  0.4453 -1.3169 -0.2099
  255MOL0     H35121   4.200   7.072   5.860  0.7281 -1.5217 -2.5083
  255MOL0     H35122   3.986   7.187   5.876 -1.2780  0.1412 -0.4203
  255MOL0     H35123   3.764   7.065   5.681  1.3751 -0.9606  0.4067
  255MOL0     H35124   3.708   7.213   5.766  0.0711 -0.2185 -1.4733
  255MOL0     H35125   3.500   7.073   5.844  1.5430 -2.5914  1.2315
  255MOL0     H35126   3.503   7.086   5.668  0.2138  1.4153 -0.4230
  255MOL0     H35127   3.646   6.870   5.711  1.0421  1.4500  0.6121
  255MOL0     H35128   3.567   6.874   5.873 -1.7619 -0.0200  0.2414
  255MOL0     H35129   3.345   6.875   5.741  0.1989 -0.0062 -0.1171
  255MOL0     H35130   3.440   6.839   5.590  0.3356 -1.9238 -0.6520
  255MOL0     H35131   3.395   6.656   5.829 -1.2385  0.3322 -0.7123
  255MOL0     H35132   3.496   6.613   5.694 -3.5236 -1.9906 -5.3859
  255MOL0     H35133   3.268   6.700   5.566 -0.7517 -1.1035  0.4163
  255MOL0     H35134   3.373   6.558   5.555  1.7125  0.4000 -0.1338
  255MOL0     H35135   3.156   6.572   5.768  1.4108 -2.6872  2.4130
  255MOL0     H35136   3.249   6.435   5.719  2.8028  1.9736  0.4665
  255MOL0     H35137   3.007   6.486   5.608  1.7079  2.5888  2.0813
  255MOL0     H35138   3.101   6.574   5.490  0.5757 -1.0227 -2.4930
  255MOL0     H35139   3.143   6.197   5.604  0.3858  2.8137  1.8355
  255MOL0     H35140   3.124   6.009   5.438 -0.4657  3.5410  1.4766
  255MOL0     H35141   3.301   6.025   5.461 -2.2295 -3.7884  2.9947
  255MOL0     H35142   3.327   6.024   5.205 -0.9602  2.5296 -0.5887
  255MOL0     H35143   3.252   5.881   5.255  0.7913  0.1187  1.7904
  255MOL0     H35144   3.094   6.126   5.157 -5.3797 -1.4493  2.2092
  255MOL0     H35145   3.139   6.001   5.052  1.3717 -2.1465  0.1900
  255MOL0     H35146   3.008   5.842   5.212  0.8061  0.0346  0.9246
  255MOL0     H35147   2.970   5.984   5.306 -0.7297 -0.9672  0.2277
  255MOL0     H35148   2.661   6.041   4.963 -0.0734 -0.1964 -0.2850
  255MOL0     H35149   2.342   6.078   5.090 -0.6049 -2.8610  1.3014
  255MOL0     H35150   2.353   5.964   4.956  0.7760 -0.5533  0.9987
  255MOL0     H35151   2.448   6.128   4.953  0.9272  0.5304  0.4482
  255MOL0     H35152   2.133   6.032   5.362  3.1664 -1.1397 -1.5630
  255MOL0     H35153   1.881   5.975   5.420 -0.6787 -0.7882 -2.1742
  255MOL0     H35154   1.811   5.551   5.460  0.7509  2.0596 -0.6838
  255MOL0     H35155   1.761   5.596   5.619  0.6566 -1.1472  0.3190
  255MOL0     H35156   1.543   5.562   5.528 -2.4168 -2.5260 -3.8937
  255MOL0     H35157   1.562   5.728   5.473  2.0909  0.2202  0.3510
  255MOL0     H35158   1.675   5.506   5.311  0.6851  1.4136  2.3681
  255MOL0     H35159   1.614   5.663   5.247 -1.7544 -1.4530 -1.4742
  255MOL0     H35160   1.413   5.470   5.356  0.9575 -2.3722 -2.7062
  255MOL0     H35161   1.465   5.482   5.186 -0.4239  1.4529 -1.7264
  255MOL0     H35162   1.312   5.678   5.341  3.8696  2.4072  1.1536
  255MOL0     H35163   1.397   5.738   5.207  0.1447  0.1310  2.1539
  255MOL0     H35164   1.235   5.521   5.086 -2.8863  0.4091 -1.2533
  255MOL0     H35165   1.198   5.673   5.118  1.2906  0.4585  1.4240
  255MOL0     H35166   1.028   5.565   5.224  1.3551  2.7788  1.7223
  255MOL0     H35167   1.129   5.592   5.355 -0.4382  2.7578 -1.0084
  255MOL0     H35168   1.231   5.358   5.321  1.1677  4.6193 -0.9165
  255MOL0     H35169   1.121   5.328   5.179 -0.0591 -2.9905  0.7680
  255MOL0     H35170   1.999   5.601   5.546 -0.2572  1.2135  0.9989
  255MOL0     H35171   2.232   5.634   5.484  1.6973  1.5207 -1.8004
  255MOL0     H35172   2.572   5.771   5.358  0.8752 -0.5229  0.2265
  255MOL0     H35173   2.806   5.812   5.292 -1.1322 -0.5383  0.6592
  255MOL0     H35174   3.795   6.801   5.916  0.9503 -0.4319  2.1586
  255MOL0     H35175   4.011   6.688   5.933 -1.6731  0.7866  1.6814
  255MOL0     H35176   4.337   6.585   5.886 -1.2363  2.7980 -1.0010
  255MOL0     H35177   4.531   6.434   5.887  1.3509 -2.0139 -3.1368
  255MOL0     H35178   4.824   6.472   5.540  2.5119  0.1055 -0.1329
  255MOL0     H35179   4.897   6.569   5.666 -2.4054  2.0148  0.7697
  255MOL0     H35180   5.013   6.367   5.581 -2.9432  1.2595 -1.7278
  255MOL0     H35181   4.875   6.271   5.627 -3.2584  2.4938  0.9481
  255MOL0     H35182   5.045   6.443   5.819 -0.7335  0.0848 -1.8541
  255MOL0     H35183   4.940   6.314   5.872  0.1674 -1.8989 -0.0253
  255MOL0     H35184   5.175   6.278   5.897 -1.5761 -0.8150  0.4215
  255MOL0     H35185   5.203   6.303   5.728 -1.6277  0.1854 -1.1698
  255MOL0     H35186   5.026   5.908   5.737 -1.6114 -1.1531  5.2443
  255MOL0     H35187   4.716   6.694   5.589 -0.8897  1.3552 -1.7113
  255MOL0     H35188   4.498   6.822   5.476 -0.0413  0.2762 -0.6970
  255MOL0     H35189   4.469   6.944   5.606  1.6731 -0.1415 -0.7488
  255MOL0     H35190   4.626   6.914   5.556  0.1121  0.7281  3.3117
  256MOL0     O35191  10.504   5.158   4.703  0.0701  0.3699 -0.7807
  256MOL0     C35192  10.558   5.049   4.713  0.6308 -0.7124  0.4674
  256MOL0     O35193  10.541   4.964   4.819  0.0405  0.2002 -0.5902
  256MOL0     C35194  10.458   4.999   4.920  0.6049 -0.1763  0.1514
  256MOL0     C35195  10.422   5.129   4.970 -0.2396  0.0949  0.4470
  256MOL0     C35196  10.323   5.140   5.073  0.0377  0.5263  0.6187
  256MOL0     C35197  10.264   5.024   5.140  0.4808  0.9260  0.5258
  256MOL0     O35198  10.181   5.060   5.232 -0.3755 -0.2293  0.6188
  256MOL0     C35199  10.070   4.971   5.253 -0.0612 -1.0444 -0.5907
  256MOL0     C35200  10.094   4.878   5.367 -0.0091 -0.0036 -0.2919
  256MOL0     C35201  10.100   4.940   5.504 -0.7108 -0.3988  0.4886
  256MOL0     C35202  10.154   4.837   5.603 -0.0755  0.2521  1.0708
  256MOL0     C35203  10.165   4.904   5.747  0.3568 -1.1560  0.4727
  256MOL0     C35204  10.053   4.994   5.796 -0.3157 -0.1662  0.1444
  256MOL0     C35205  10.082   5.026   5.941 -0.6048 -0.3046 -0.3882
  256MOL0     C35206   9.967   5.099   6.012 -0.3994  0.6255  0.2346
  256MOL0     N35207   9.943   5.236   5.962 -0.2371  0.6026 -0.7547
  256MOL0     C35208  10.027   5.322   5.885 -0.3832 -0.0614 -0.0270
  256MOL0     C35209   9.947   5.417   5.831  0.1074  0.1817  0.0641
  256MOL0     C35210   9.976   5.526   5.741  0.2996 -0.3677 -0.7839
  256MOL0     C35211   9.973   5.650   5.830 -0.7612 -0.2990  0.3710
  256MOL0     C35212   9.975   5.794   5.752  0.1735 -0.3126 -0.2155
  256MOL0     C35213   9.962   5.913   5.840 -0.7288  0.2692 -0.0994
  256MOL0     O35214   9.990   6.036   5.781 -0.2460 -0.4340 -0.1523
  256MOL0     C35215  10.118   6.087   5.773 -0.4673 -0.4285 -0.0390
  256MOL0     C35216  10.236   6.009   5.791 -0.2349  0.2715  0.2003
  256MOL0     C35217  10.372   6.055   5.756  0.2253  0.0289  0.8340
  256MOL0     C35218  10.481   5.966   5.787 -0.3723 -0.6713 -0.4018
  256MOL0     C35219  10.374   6.188   5.697  0.9449 -0.0230  0.1723
  256MOL0     C35220  10.502   6.244   5.649  0.0347 -0.5776  0.8088
  256MOL0     O35221  10.502   6.377   5.622 -1.0231  0.1519 -0.0698
  256MOL0     C35222  10.620   6.442   5.580 -0.5548  0.0419 -0.6239
  256MOL0     C35223  10.733   6.401   5.509 -0.2200  0.5424 -1.4611
  256MOL0     C35224  10.840   6.478   5.491  0.5788  0.4436  0.3057
  256MOL0     C35225  10.852   6.607   5.544  0.6074 -0.2886 -0.6291
  256MOL0     O35226  10.964   6.680   5.525  0.4924  0.1836  0.3982
  256MOL0     C35227  10.979   6.806   5.587 -0.7352 -0.4588 -1.3053
  256MOL0     C35228  11.119   6.861   5.550 -0.2791 -0.0110 -0.0531
  256MOL0     C35229  11.227   6.776   5.615  1.2875  0.2996 -0.7777
  256MOL0     C35230  11.374   6.807   5.588  0.3006 -0.2811  0.2280
  256MOL0     C35231  11.461   6.691   5.641 -0.2878 -0.0734 -0.3652
  256MOL0     C35232  11.426   6.627   5.776  0.1013 -0.4463 -0.0657
  256MOL0     C35233  11.547   6.564   5.837  0.3191  0.1967 -0.3289
  256MOL0     C35234  11.636   6.658   5.925 -0.5331  1.0696 -0.8993
  256MOL0    Cl35235  11.696   6.548   6.069 -0.2541 -0.2669  0.1087
  256MOL0     C35236  10.738   6.657   5.616 -0.1572 -0.4515  0.1731
  256MOL0     C35237  10.633   6.574   5.631  0.4745 -0.5795 -1.2658
  256MOL0     O35238  10.603   6.175   5.646 -0.8546 -0.7402 -0.1167
  256MOL0     C35239  10.255   6.256   5.675  1.2718  0.0768 -0.7294
  256MOL0     C35240  10.128   6.212   5.715  0.6166 -0.3321  0.6549
  256MOL0     N35241   9.822   5.399   5.884 -0.0008 -0.1780 -0.7966
  256MOL0     N35242   9.818   5.294   5.964  0.5909  0.0985  0.8760
  256MOL0     C35243  10.309   4.899   5.095 -0.2515 -0.0729 -0.1039
  256MOL0     C35244  10.389   4.890   4.986 -1.1912 -0.4543  0.6161
  256MOL0     C35245  10.667   5.017   4.621  0.8759  0.7100 -0.2053
  256MOL0     C35246  10.761   4.928   4.679 -0.2114 -0.3483  0.5652
  256MOL0     C35247  10.868   4.886   4.599 -0.0136 -0.7172 -0.1355
  256MOL0     C35248  10.885   4.938   4.468  0.2288 -0.2781  1.3859
  256MOL0     O35249  11.000   4.900   4.400 -0.4595  0.1998  0.5150
  256MOL0     C35250  11.124   4.964   4.449  1.1094  0.3083 -0.4498
  256MOL0     C35251  11.164   5.078   4.366 -0.1439 -0.2214  0.7270
  256MOL0     C35252  11.311   5.118   4.391 -0.4783 -0.2097 -0.0738
  256MOL0     C35253  11.343   5.186   4.527 -0.5459  0.3478 -0.5957
  256MOL0     C35254  11.479   5.246   4.528 -0.2073 -0.0697  0.4459
  256MOL0     C35255  11.585   5.303   4.531 -0.0418  0.3541 -1.1557
  256MOL0     C35256  10.795   5.036   4.421 -0.6256 -0.5534  0.0182
  256MOL0     C35257  10.692   5.075   4.496 -0.2013  0.2367  1.1019
  256MOL0     C35258  10.598   5.169   4.439 -0.1201  0.1166 -0.2931
  256MOL0     H35259  10.445   5.227   4.929 -0.2091  0.4253  1.2443
  256MOL0     H35260  10.304   5.242   5.103  0.4020  2.3306 -4.2889
  256MOL0     H35261  10.042   4.913   5.164 -0.1353 -0.6039 -0.8559
  256MOL0     H35262   9.986   5.039   5.271  0.4541 -0.6181  0.3030
  256MOL0     H35263  10.006   4.813   5.368  0.6215 -0.8660 -0.0080
  256MOL0     H35264  10.189   4.826   5.353  0.8585  1.5914 -0.6681
  256MOL0     H35265  10.162   5.030   5.502 -0.6304 -0.4673 -1.1687
  256MOL0     H35266   9.999   4.969   5.535 -1.2861 -1.4142 -0.3497
  256MOL0     H35267  10.084   4.754   5.610 -0.5693  0.6570  0.9405
  256MOL0     H35268  10.257   4.805   5.581 -0.1217  1.1181 -0.6138
  256MOL0     H35269  10.258   4.961   5.743  1.8933 -3.5863 -0.8238
  256MOL0     H35270  10.185   4.823   5.819 -3.4685 -1.4317  1.4434
  256MOL0     H35271  10.050   5.086   5.737  3.0633 -0.4315 -0.6553
  256MOL0     H35272   9.962   4.933   5.799  1.3530 -2.9097 -0.4542
  256MOL0     H35273  10.177   5.080   5.947 -0.3362 -0.9254  1.6493
  256MOL0     H35274  10.102   4.932   5.994  0.6548  1.1282  1.8678
  256MOL0     H35275   9.872   5.047   5.994 -1.6745  3.3304 -1.5839
  256MOL0     H35276   9.988   5.094   6.119 -0.4989 -0.7903  0.2075
  256MOL0     H35277  10.128   5.291   5.865 -0.8353 -0.0257 -2.7170
  256MOL0     H35278   9.899   5.516   5.664  0.8595 -2.0967 -1.1686
  256MOL0     H35279  10.079   5.520   5.702  1.5968  2.9999  1.6743
  256MOL0     H35280   9.888   5.636   5.897  0.0323 -0.0229  1.4642
  256MOL0     H35281  10.066   5.652   5.888 -0.8881 -0.0865  0.5707
  256MOL0     H35282  10.061   5.802   5.685 -0.1269 -0.3350 -0.5988
  256MOL0     H35283   9.883   5.796   5.693  1.4300  2.8466 -2.3353
  256MOL0     H35284   9.856   5.919   5.868 -1.8103  2.7593 -3.9981
  256MOL0     H35285  10.025   5.889   5.927  1.2827 -3.3766 -2.3158
  256MOL0     H35286  10.230   5.913   5.840 -4.1208 -1.9855 -3.9218
  256MOL0     H35287  10.536   6.013   5.869 -0.7570  3.9057 -2.4888
  256MOL0     H35288  10.551   5.957   5.703  0.0834  0.2725 -0.1357
  256MOL0     H35289  10.440   5.868   5.817 -1.1376 -0.2221  0.0675
  256MOL0     H35290  10.722   6.297   5.482  2.2432 -0.3089  0.3957
  256MOL0     H35291  10.923   6.450   5.426  0.7631 -2.5411  1.6843
  256MOL0     H35292  10.900   6.874   5.552 -1.3360 -1.9599 -2.9592
  256MOL0     H35293  10.985   6.799   5.696 -2.2970 -2.3652 -1.3002
  256MOL0     H35294  11.124   6.858   5.440 -0.4252 -1.9199 -0.0448
  256MOL0     H35295  11.124   6.967   5.577  3.2128 -0.5026  1.7244
  256MOL0     H35296  11.204   6.674   5.582 -0.6346 -0.1472  1.6560
  256MOL0     H35297  11.201   6.769   5.721  3.1169  0.7980 -0.2747
  256MOL0     H35298  11.397   6.891   5.654 -2.2163 -0.6712  1.7582
  256MOL0     H35299  11.395   6.822   5.482  0.7779  0.3804  0.4124
  256MOL0     H35300  11.466   6.612   5.566  1.8051  0.8801 -1.3103
  256MOL0     H35301  11.560   6.738   5.648 -0.9584  1.3193  0.2172
  256MOL0     H35302  11.355   6.548   5.751 -1.2515  1.5916 -3.4223
  256MOL0     H35303  11.394   6.696   5.854 -0.6027 -1.0559  0.1974
  256MOL0     H35304  11.616   6.508   5.774  1.4631  1.6109 -0.3811
  256MOL0     H35305  11.506   6.489   5.906  0.1025 -1.5300 -2.2535
  256MOL0     H35306  11.591   6.756   5.943  1.9637  1.7739  2.5109
  256MOL0     H35307  11.727   6.686   5.870  0.3540  1.3811  0.6876
  256MOL0     H35308  10.745   6.752   5.668  1.2414 -1.1723  1.3790
  256MOL0     H35309  10.548   6.598   5.694  0.3524  0.5952 -1.8527
  256MOL0     H35310  10.254   6.350   5.621  0.3640 -0.7864 -2.3121
  256MOL0     H35311  10.044   6.277   5.691  1.8280  0.9060 -0.3777
  256MOL0     H35312  10.266   4.809   5.136 -1.7305 -0.0337 -1.4858
  256MOL0     H35313  10.404   4.790   4.947 -1.8907 -0.2477 -0.2423
  256MOL0     H35314  10.749   4.895   4.781 -3.1931 -1.0869  0.0608
  256MOL0     H35315  10.949   4.825   4.636 -0.0503  0.5465  2.1996
  256MOL0     H35316  11.102   5.004   4.549  0.8746 -0.7924 -0.0501
  256MOL0     H35317  11.205   4.890   4.455 -0.3606 -1.2662  2.3072
  256MOL0     H35318  11.103   5.167   4.381 -0.3581 -0.2909  0.2725
  256MOL0     H35319  11.150   5.048   4.262  1.6321 -2.7375  1.1140
  256MOL0     H35320  11.378   5.032   4.378 -1.0367 -0.7696  0.7424
  256MOL0     H35321  11.331   5.189   4.310 -0.8227 -0.5987 -0.5023
  256MOL0     H35322  11.349   5.106   4.602  2.9476  0.7229 -0.3223
  256MOL0     H35323  11.266   5.256   4.561 -0.8503  0.4814 -1.5372
  256MOL0     H35324  11.678   5.356   4.536 -0.5007  1.0691  1.8668
  256MOL0     H35325  10.807   5.078   4.321  0.4702  0.9588  0.7370
  256MOL0     H35326  10.596   5.164   4.330 -1.5245  1.3287 -0.3547
  256MOL0     H35327  10.498   5.128   4.456  0.2303 -1.3109 -1.4835
  256MOL0     H35328  10.628   5.271   4.464  1.7679 -0.5481  0.3311
  257MOL0     O35329   1.777   3.593   0.852 -0.4763  0.0759  0.6056
  257MOL0     C35330   1.863   3.613   0.762  0.8159  1.2160  0.0039
  257MOL0     O35331   1.954   3.518   0.731 -0.3381  0.2394  0.5117
  257MOL0     C35332   1.932   3.389   0.782 -0.4881 -0.5351  0.3236
  257MOL0     C35333   1.909   3.284   0.690  0.0910 -0.2284 -0.1523
  257MOL0     C35334   1.918   3.155   0.730  0.0097  0.3500 -1.1167
  257MOL0     C35335   1.945   3.128   0.866 -0.7404 -0.0494 -0.7642
  257MOL0     O35336   1.953   3.002   0.905  0.1282  0.2408 -0.7790
  257MOL0     C35337   1.819   2.949   0.924 -0.2227 -0.7621  0.3561
  257MOL0     C35338   1.829   2.800   0.940  0.2222  0.1037 -0.2140
  257MOL0     C35339   1.912   2.751   1.058 -0.7590 -0.0029  0.2583
  257MOL0     C35340   1.955   2.607   1.043  0.3053  1.2457 -0.7014
  257MOL0     C35341   2.092   2.600   0.971 -0.2169 -0.6760  0.3852
  257MOL0     C35342   2.136   2.457   0.955  0.1483 -0.0619 -0.7359
  257MOL0     C35343   2.248   2.439   0.843  0.3202 -0.0657  0.1424
  257MOL0     C35344   2.305   2.303   0.837 -0.5509  0.0496 -0.4880
  257MOL0     N35345   2.357   2.248   0.969 -0.1322 -0.2292 -0.2678
  257MOL0     C35346   2.429   2.315   1.068 -1.0263  0.2336  0.0253
  257MOL0     C35347   2.463   2.211   1.156 -0.3615 -0.5069 -0.5020
  257MOL0     C35348   2.533   2.242   1.293 -0.2237 -0.1528 -0.0629
  257MOL0     C35349   2.661   2.173   1.312 -0.2240  0.0493  0.1136
  257MOL0     C35350   2.752   2.251   1.422  0.4792  0.4440  1.1743
  257MOL0     C35351   2.897   2.212   1.438  0.0669 -0.3025  0.1677
  257MOL0     O35352   2.942   2.222   1.303  0.3365 -0.4472  0.2069
  257MOL0     C35353   3.044   2.140   1.259  1.0244 -0.8558  0.4867
  257MOL0     C35354   3.127   2.074   1.345 -0.0533  0.3554  0.3293
  257MOL0     C35355   3.232   1.996   1.296 -0.9994  0.8294  0.5105
  257MOL0     C35356   3.318   1.919   1.405  0.0426 -0.1512  0.1755
  257MOL0     C35357   3.253   1.980   1.158  0.3117  0.2707  0.0002
  257MOL0     C35358   3.343   1.872   1.096 -0.3017 -0.3717 -0.7779
  257MOL0     O35359   3.357   1.875   0.956 -0.1715  0.2438  0.4894
  257MOL0     C35360   3.412   1.777   0.877 -0.1338  0.5561 -0.3856
  257MOL0     C35361   3.351   1.742   0.752  0.1241 -0.6209 -0.8071
  257MOL0     C35362   3.424   1.666   0.658  0.5017  0.6453 -0.0373
  257MOL0     C35363   3.547   1.609   0.693 -0.6422 -0.0571 -0.0446
  257MOL0     O35364   3.618   1.536   0.611 -0.2753  0.2039  0.4119
  257MOL0     C35365   3.540   1.439   0.537 -0.3454  0.6856 -0.0168
  257MOL0     C35366   3.640   1.342   0.477 -0.4346 -0.5417  0.0321
  257MOL0     C35367   3.707   1.388   0.347  0.1153 -0.4859 -1.1699
  257MOL0     C35368   3.781   1.275   0.292 -0.2189  0.0295  0.4032
  257MOL0     C35369   3.863   1.311   0.161 -0.3677  0.4576  0.2343
  257MOL0     C35370   3.944   1.195   0.102 -0.2927 -0.2612  0.1077
  257MOL0     C35371   4.053   1.149   0.201 -0.6871  0.1718 -0.0775
  257MOL0     C35372   4.007   1.013   0.250 -1.2028  0.5722 -0.1767
  257MOL0    Cl35373   4.083   0.897   0.140 -0.0001  0.3124  0.2912
  257MOL0     C35374   3.605   1.634   0.822  0.2210 -0.4865  0.0759
  257MOL0     C35375   3.534   1.718   0.911 -0.6957  0.2502 -0.4871
  257MOL0     O35376   3.390   1.778   1.166  0.4062  0.3733 -0.0273
  257MOL0     C35377   3.162   2.036   1.076 -0.1821 -0.1053 -0.8381
  257MOL0     C35378   3.057   2.115   1.127 -1.0030 -0.0409 -0.3272
  257MOL0     N35379   2.408   2.092   1.107 -0.2681 -0.4457  0.5058
  257MOL0     N35380   2.354   2.117   1.004 -0.1708  0.4156 -0.7204
  257MOL0     C35381   1.962   3.230   0.954  0.9351  0.0199 -0.2546
  257MOL0     C35382   1.956   3.359   0.917 -0.5135  0.7978  0.0029
  257MOL0     C35383   1.839   3.736   0.679 -0.3439  1.1667 -0.2818
  257MOL0     C35384   1.856   3.725   0.543 -0.3464  0.8276 -0.0120
  257MOL0     C35385   1.831   3.830   0.457  0.2963  0.1128  0.8529
  257MOL0     C35386   1.775   3.945   0.500 -0.1820 -0.1857  1.1662
  257MOL0     O35387   1.729   4.050   0.424  0.1556 -0.3675 -0.2974
  257MOL0     C35388   1.734   4.055   0.287 -0.5626 -0.5638  0.7482
  257MOL0     C35389   1.774   4.200   0.250 -0.0442 -0.3942 -0.1030
  257MOL0     C35390   1.833   4.222   0.107 -0.2433 -0.2470  0.9827
  257MOL0     C35391   1.736   4.166  -0.003 -0.9317 -0.2296 -0.3481
  257MOL0     C35392   1.801   4.186  -0.137  0.8847 -0.3623  0.1308
  257MOL0     C35393   1.862   4.189  -0.245  0.4537 -0.8705  0.1934
  257MOL0     C35394   1.756   3.964   0.631  0.1916  1.1173 -0.7536
  257MOL0     C35395   1.800   3.864   0.723 -0.2599  0.9622 -0.8974
  257MOL0     C35396   1.794   3.901   0.867 -0.2907 -0.4431 -0.5339
  257MOL0     H35397   1.892   3.296   0.583 -1.7125 -0.4841  0.0839
  257MOL0     H35398   1.902   3.070   0.664 -1.0904 -1.5669  1.4635
  257MOL0     H35399   1.758   2.974   0.837  0.6050 -2.5718 -0.8176
  257MOL0     H35400   1.768   2.996   1.009 -1.0337 -0.0464 -0.5081
  257MOL0     H35401   1.730   2.755   0.952 -0.2545  0.9810 -0.7662
  257MOL0     H35402   1.871   2.742   0.857  0.7959 -1.2926  1.0019
  257MOL0     H35403   1.990   2.826   1.072  0.0674 -0.3525 -2.1525
  257MOL0     H35404   1.846   2.747   1.146 -3.5615 -1.2224 -1.7444
  257MOL0     H35405   1.969   2.559   1.140 -1.3631  0.4297 -0.8415
  257MOL0     H35406   1.879   2.546   0.993 -0.4916 -0.5766  2.4899
  257MOL0     H35407   2.177   2.656   1.012  1.3760 -1.6333 -1.4292
  257MOL0     H35408   2.096   2.640   0.869  1.7365 -0.5230  0.4760
  257MOL0     H35409   2.177   2.426   1.052 -0.2725  1.1226 -0.1649
  257MOL0     H35410   2.052   2.391   0.927 -0.4575  1.5317 -2.9675
  257MOL0     H35411   2.329   2.512   0.851  2.4194 -1.6393 -3.8487
  257MOL0     H35412   2.205   2.450   0.743  0.2197  1.2901  0.3105
  257MOL0     H35413   2.219   2.241   0.807 -0.1543 -0.7263 -0.0490
  257MOL0     H35414   2.372   2.295   0.751 -0.9741 -1.5743 -0.7176
  257MOL0     H35415   2.477   2.411   1.079 -0.1376 -0.1252 -0.5982
  257MOL0     H35416   2.469   2.219   1.378 -0.8771  1.5830 -0.0488
  257MOL0     H35417   2.553   2.350   1.292  0.9152 -0.2655 -3.5362
  257MOL0     H35418   2.632   2.074   1.349  0.4055 -0.2614 -0.2238
  257MOL0     H35419   2.718   2.157   1.221 -0.7498 -2.4320  0.1468
  257MOL0     H35420   2.741   2.357   1.398  0.7443  0.0713 -0.7926
  257MOL0     H35421   2.702   2.235   1.518  2.3479 -0.8699  1.9892
  257MOL0     H35422   2.954   2.282   1.499  0.3270 -0.9186  0.6491
  257MOL0     H35423   2.909   2.112   1.482  0.9217 -1.0232 -1.6040
  257MOL0     H35424   3.124   2.087   1.453 -0.4979 -0.2192  0.3867
  257MOL0     H35425   3.425   1.931   1.390  0.7432 -1.4371  3.3139
  257MOL0     H35426   3.289   1.813   1.405  0.4479 -0.2933  2.2306
  257MOL0     H35427   3.302   1.950   1.508 -1.0740 -1.6430  0.4809
  257MOL0     H35428   3.264   1.800   0.722 -1.8230 -1.2106  3.1239
  257MOL0     H35429   3.376   1.660   0.561 -2.4967 -0.9698  1.3980
  257MOL0     H35430   3.483   1.389   0.616 -0.3862  3.3445  1.7546
  257MOL0     H35431   3.474   1.490   0.466  0.5778  0.8627 -0.7579
  257MOL0     H35432   3.708   1.309   0.556 -0.7574 -1.4806 -0.0711
  257MOL0     H35433   3.578   1.256   0.450 -2.9368  0.8807  0.9141
  257MOL0     H35434   3.776   1.473   0.353 -0.5127  0.0905 -1.9262
  257MOL0     H35435   3.629   1.424   0.279 -0.9733 -1.0779 -0.2754
  257MOL0     H35436   3.711   1.193   0.273 -0.9998  0.3583  1.6964
  257MOL0     H35437   3.849   1.238   0.370 -1.2462 -3.3575 -0.1647
  257MOL0     H35438   3.801   1.358   0.085 -0.2271  0.2977  0.0217
  257MOL0     H35439   3.939   1.386   0.187  2.1506 -0.5290 -3.5937
  257MOL0     H35440   3.999   1.226   0.013 -1.9301 -0.1752 -0.9103
  257MOL0     H35441   3.875   1.113   0.082  2.1315 -2.8096  1.5060
  257MOL0     H35442   4.068   1.217   0.285 -0.5986  1.4646 -1.0905
  257MOL0     H35443   4.148   1.136   0.148 -1.3365  3.6327 -2.4336
  257MOL0     H35444   3.900   0.995   0.263 -1.1014  1.3624  2.4156
  257MOL0     H35445   4.055   1.001   0.348 -0.8164 -0.1731 -0.4499
  257MOL0     H35446   3.703   1.610   0.863 -0.3672  1.4151  2.8803
  257MOL0     H35447   3.588   1.754   0.997  2.9828 -0.8558 -2.1538
  257MOL0     H35448   3.151   2.001   0.974 -2.8391  1.3407 -1.1460
  257MOL0     H35449   2.975   2.135   1.058  0.4291 -1.1781 -2.5087
  257MOL0     H35450   1.989   3.205   1.056  1.1172 -2.2723 -0.8181
  257MOL0     H35451   1.970   3.451   0.973 -2.3923  1.8007 -1.0595
  257MOL0     H35452   1.891   3.632   0.499  2.0452 -1.5885  5.9804
  257MOL0     H35453   1.867   3.812   0.356 -2.4313  2.4859 -0.6777
  257MOL0     H35454   1.807   3.985   0.245  0.7861  0.6340  1.0198
  257MOL0     H35455   1.641   4.028   0.237  1.1841 -0.2269 -3.0112
  257MOL0     H35456   1.850   4.242   0.316 -3.4746  3.0878  2.0933
  257MOL0     H35457   1.692   4.272   0.257  0.7725  0.4014  3.3681
  257MOL0     H35458   1.859   4.328   0.095 -0.1507 -0.5789 -2.8564
  257MOL0     H35459   1.933   4.178   0.101  0.3383  1.0968  0.4672
  257MOL0     H35460   1.634   4.206   0.006 -0.1781  1.9615 -0.9226
  257MOL0     H35461   1.715   4.060   0.012  1.3676 -0.4723  1.6970
  257MOL0     H35462   1.913   4.188  -0.339  3.1621 -0.4985  1.5636
  257MOL0     H35463   1.723   4.060   0.670  1.3122  2.0291 -1.9311
  257MOL0     H35464   1.750   3.999   0.886 -3.5251 -2.0060  0.8322
  257MOL0     H35465   1.729   3.828   0.915  2.0237 -2.0725  0.2731
  257MOL0     H35466   1.898   3.897   0.899 -0.0032  5.3939  0.3406
  258MOL0     O35467   3.928   5.360   7.578 -0.1941  0.5172  0.4550
  258MOL0     C35468   3.922   5.438   7.484  0.5851  0.7921 -0.1660
  258MOL0     O35469   4.020   5.512   7.440  0.4906 -0.0344  0.1547
  258MOL0     C35470   4.158   5.485   7.457 -0.6990 -0.7600  0.0796
  258MOL0     C35471   4.214   5.392   7.545  0.8769 -0.2431  0.1316
  258MOL0     C35472   4.348   5.345   7.538  0.2712  0.3392 -0.8300
  258MOL0     C35473   4.438   5.420   7.455  0.1259  0.2199  0.5898
  258MOL0     O35474   4.573   5.393   7.450 -0.3181  0.0334 -0.4250
  258MOL0     C35475   4.602   5.251   7.437 -0.1010  0.2975  0.1308
  258MOL0     C35476   4.748   5.228   7.374  0.5362  0.3351  0.1447
  258MOL0     C35477   4.770   5.082   7.384 -1.1039  0.3808  0.5493
  258MOL0     C35478   4.907   5.037   7.317  0.0031 -0.0830  0.1391
  258MOL0     C35479   5.006   5.012   7.438  0.8355  0.5038 -0.1696
  258MOL0     C35480   5.109   4.913   7.384  0.2950 -0.2688 -0.2220
  258MOL0     C35481   5.226   4.915   7.476 -1.4684  0.5581 -0.1427
  258MOL0     C35482   5.326   4.809   7.479 -0.3156 -0.9151  0.6015
  258MOL0     N35483   5.435   4.811   7.575  0.1552  0.0656 -0.6575
  258MOL0     C35484   5.421   4.842   7.713 -0.6450  0.6033 -0.7763
  258MOL0     C35485   5.549   4.851   7.748 -0.5154 -0.3980  0.4321
  258MOL0     C35486   5.597   4.923   7.876 -0.3900  0.0817  0.3337
  258MOL0     C35487   5.580   4.828   7.997  0.3681 -0.4834 -0.3040
  258MOL0     C35488   5.671   4.715   7.996  0.3814 -0.0520 -0.1972
  258MOL0     C35489   5.668   4.647   8.136  0.1805 -0.5351  0.0351
  258MOL0     O35490   5.775   4.541   8.136 -0.0327  0.3444 -0.0531
  258MOL0     C35491   5.800   4.484   8.258  0.0578  0.7159  0.0682
  258MOL0     C35492   5.932   4.477   8.308  1.0817 -0.4010 -0.0200
  258MOL0     C35493   5.965   4.430   8.441  0.6103  0.5761  0.9030
  258MOL0     C35494   6.110   4.455   8.484 -0.3926 -0.3586 -0.4831
  258MOL0     C35495   5.863   4.383   8.525 -0.3599 -0.3853 -0.0562
  258MOL0     C35496   5.884   4.326   8.666 -0.0200 -0.3609 -0.0583
  258MOL0     O35497   5.767   4.296   8.730 -0.0469 -0.9497 -0.2019
  258MOL0     C35498   5.758   4.244   8.848 -0.3047  0.0706 -0.0372
  258MOL0     C35499   5.788   4.106   8.884 -0.1385 -0.9689  0.0624
  258MOL0     C35500   5.772   4.065   9.019 -0.2153 -0.1845 -0.6889
  258MOL0     C35501   5.719   4.158   9.113 -0.2279  0.3406 -0.2674
  258MOL0     O35502   5.707   4.142   9.246  0.0080 -0.3896  0.9086
  258MOL0     C35503   5.715   4.009   9.307 -0.6625  0.1409 -0.3149
  258MOL0     C35504   5.748   4.033   9.450  0.2756 -0.1658  0.5740
  258MOL0     C35505   5.719   3.906   9.533 -1.1508 -0.3007 -0.4529
  258MOL0     C35506   5.822   3.900   9.650  0.1450  0.2218  0.2230
  258MOL0     C35507   5.765   3.806   9.767 -0.5428  0.1523 -0.3269
  258MOL0     C35508   5.875   3.788   9.876 -0.0765 -0.6786 -0.2485
  258MOL0     C35509   5.824   3.692   9.990 -0.2952 -0.1838 -0.1200
  258MOL0     C35510   5.928   3.672  10.093  0.1034  0.2403 -0.0723
  258MOL0    Cl35511   5.837   3.616  10.230 -0.0443 -0.6934 -0.3886
  258MOL0     C35512   5.692   4.293   9.073 -0.5318  0.4671 -0.6704
  258MOL0     C35513   5.715   4.334   8.947 -0.5241 -0.1478 -0.2404
  258MOL0     O35514   6.000   4.302   8.699  0.1094 -0.1452  0.0142
  258MOL0     C35515   5.733   4.383   8.466 -0.2996 -0.2642  0.1139
  258MOL0     C35516   5.699   4.425   8.339 -0.4280 -0.2753  0.8761
  258MOL0     N35517   5.634   4.822   7.641  0.5841  0.2635  0.1745
  258MOL0     N35518   5.568   4.787   7.541 -0.0433  0.1421 -0.2138
  258MOL0     C35519   4.391   5.521   7.384 -0.2575 -0.3661 -0.0496
  258MOL0     C35520   4.250   5.558   7.383 -0.2051  0.3368  0.4100
  258MOL0     C35521   3.782   5.442   7.428  0.1284  1.0164 -0.4400
  258MOL0     C35522   3.743   5.548   7.343  0.0144 -0.1812  0.0812
  258MOL0     C35523   3.609   5.572   7.297  0.3889  0.0649 -0.1707
  258MOL0     C35524   3.508   5.478   7.337 -0.2579 -0.4461 -0.2708
  258MOL0     O35525   3.376   5.497   7.296  0.2598  0.3868 -0.4634
  258MOL0     C35526   3.279   5.477   7.401 -0.1024  0.5977 -0.5454
  258MOL0     C35527   3.131   5.507   7.367  0.2313  0.2588 -0.9205
  258MOL0     C35528   3.108   5.471   7.224  0.5899  0.0665 -0.7215
  258MOL0     C35529   2.963   5.487   7.183 -0.3407 -0.5350 -0.8242
  258MOL0     C35530   2.884   5.368   7.213 -0.2331  0.4632  0.1980
  258MOL0     C35531   2.816   5.275   7.235  0.6643 -0.6169  0.3664
  258MOL0     C35532   3.544   5.365   7.419 -0.7021 -0.5618 -0.0726
  258MOL0     C35533   3.677   5.342   7.460 -0.5123 -0.2598  1.0152
  258MOL0     C35534   3.688   5.199   7.518 -0.5551  0.3301  0.7313
  258MOL0     H35535   4.151   5.346   7.621  0.0425  0.6736  0.0092
  258MOL0     H35536   4.380   5.260   7.597 -0.7544 -1.5736 -2.9114
  258MOL0     H35537   4.539   5.206   7.360 -1.4041  1.4202  0.4951
  258MOL0     H35538   4.594   5.194   7.529 -1.6939  1.1878  0.5710
  258MOL0     H35539   4.734   5.251   7.268  2.7580 -0.6400 -0.4174
  258MOL0     H35540   4.818   5.303   7.410  0.2153  1.3654 -1.2700
  258MOL0     H35541   4.761   5.039   7.484 -0.7661 -0.0500  0.4031
  258MOL0     H35542   4.696   5.034   7.319  1.4135 -2.4404 -0.5117
  258MOL0     H35543   4.892   4.945   7.259 -0.4650  0.7861 -1.1549
  258MOL0     H35544   4.950   5.099   7.239 -2.3175 -2.0162 -2.8920
  258MOL0     H35545   4.954   4.959   7.518  2.7712 -3.1792 -1.1451
  258MOL0     H35546   5.048   5.108   7.470 -0.0421  0.5457  0.8813
  258MOL0     H35547   5.051   4.820   7.383 -1.8024  0.9740 -0.8187
  258MOL0     H35548   5.132   4.940   7.281 -0.7130  4.1529  0.5361
  258MOL0     H35549   5.185   4.914   7.577 -0.1182 -0.6585  0.4405
  258MOL0     H35550   5.282   5.006   7.453  2.2566 -1.3380  0.4971
  258MOL0     H35551   5.265   4.719   7.480  1.0792 -1.8985  1.4913
  258MOL0     H35552   5.378   4.820   7.383 -0.1342 -2.5894  0.4881
  258MOL0     H35553   5.336   4.866   7.776  0.5381  1.4584  0.5742
  258MOL0     H35554   5.535   5.013   7.879 -1.6184 -0.3463 -4.3423
  258MOL0     H35555   5.704   4.944   7.868 -0.1889 -1.2186 -0.7954
  258MOL0     H35556   5.601   4.886   8.088  2.6588  0.9117 -1.6329
  258MOL0     H35557   5.476   4.796   8.006 -0.1347  0.8284 -1.1603
  258MOL0     H35558   5.627   4.649   7.920 -0.1336  3.2983 -3.0753
  258MOL0     H35559   5.775   4.737   7.969  0.6242 -0.2939  0.5171
  258MOL0     H35560   5.679   4.707   8.227  2.7986 -1.6719  0.5755
  258MOL0     H35561   5.568   4.606   8.153 -0.0672  0.4794  1.1380
  258MOL0     H35562   6.006   4.508   8.235  0.3788  0.6683 -0.3073
  258MOL0     H35563   6.151   4.529   8.414  0.5354 -0.9730 -0.6077
  258MOL0     H35564   6.151   4.354   8.488 -3.0791 -1.5250 -0.1317
  258MOL0     H35565   6.110   4.501   8.583  3.5881  1.1989 -1.0240
  258MOL0     H35566   5.835   4.039   8.812  4.8607 -0.0313  2.0003
  258MOL0     H35567   5.793   3.961   9.043  1.4113  0.2313 -0.1876
  258MOL0     H35568   5.625   3.948   9.295  0.2478 -2.1877  3.2556
  258MOL0     H35569   5.804   3.961   9.265  2.7191  0.8518  5.0370
  258MOL0     H35570   5.856   4.048   9.459  0.5989  1.0303 -3.3748
  258MOL0     H35571   5.704   4.125   9.488  2.7416  1.5372 -0.4402
  258MOL0     H35572   5.724   3.813   9.476  0.2110 -1.5414  1.5758
  258MOL0     H35573   5.617   3.913   9.571 -1.3823  2.8959 -1.3489
  258MOL0     H35574   5.844   3.996   9.698  0.8244  0.0814  0.1887
  258MOL0     H35575   5.918   3.867   9.612  0.1558  0.3537  0.1336
  258MOL0     H35576   5.679   3.855   9.813  0.2145  1.0450  0.1626
  258MOL0     H35577   5.740   3.703   9.738 -0.0848  0.2251 -0.9986
  258MOL0     H35578   5.900   3.891   9.901 -1.8209 -0.8122  2.4069
  258MOL0     H35579   5.968   3.752   9.830  1.3434  1.6914  0.5969
  258MOL0     H35580   5.803   3.591   9.954  1.3768 -1.5701  2.4429
  258MOL0     H35581   5.735   3.738  10.034  0.5206 -1.5478  3.2830
  258MOL0     H35582   5.985   3.763  10.114 -0.0972  0.8919 -2.1932
  258MOL0     H35583   5.988   3.588  10.057  0.3275 -1.2908  3.4284
  258MOL0     H35584   5.635   4.352   9.144 -0.8677 -1.6125  0.9036
  258MOL0     H35585   5.694   4.431   8.903  3.3932  0.0037 -2.2914
  258MOL0     H35586   5.650   4.341   8.522 -0.7309 -1.2909 -1.2562
  258MOL0     H35587   5.596   4.435   8.308  0.4418  3.0619 -1.3521
  258MOL0     H35588   4.461   5.579   7.326  0.5463  0.1643  1.4109
  258MOL0     H35589   4.214   5.641   7.323 -0.6885 -0.4784 -0.4255
  258MOL0     H35590   3.814   5.623   7.308 -1.6125 -0.8020 -5.5891
  258MOL0     H35591   3.582   5.658   7.238 -0.3657 -0.0206  0.0359
  258MOL0     H35592   3.283   5.372   7.431  2.6394 -0.0435 -2.7493
  258MOL0     H35593   3.316   5.528   7.491  0.5295 -1.9997  0.7827
  258MOL0     H35594   3.123   5.610   7.403  0.3283 -0.9126  2.9954
  258MOL0     H35595   3.069   5.446   7.433  2.2307 -1.3517 -0.4041
  258MOL0     H35596   3.166   5.541   7.163  0.0826 -0.9789 -2.4882
  258MOL0     H35597   3.135   5.374   7.182  0.0711  0.4652 -2.0419
  258MOL0     H35598   2.955   5.513   7.077 -2.6288 -1.1784 -0.8750
  258MOL0     H35599   2.911   5.575   7.222  0.5639 -0.0298 -0.7300
  258MOL0     H35600   2.739   5.203   7.252 -0.8871  1.3664  2.2997
  258MOL0     H35601   3.476   5.289   7.456  1.0950 -2.0284  0.3471
  258MOL0     H35602   3.596   5.167   7.568 -0.3668 -1.1656  0.1645
  258MOL0     H35603   3.709   5.134   7.433  3.8587 -0.5279  2.2333
  258MOL0     H35604   3.762   5.181   7.596 -2.1967  0.0721  2.2993
  259MOL0     O35605   5.093   9.515   2.400  0.0455 -0.3389 -0.8017
  259MOL0     C35606   5.026   9.431   2.335 -0.4195  0.1517  0.1986
  259MOL0     O35607   5.018   9.426   2.199  0.0361  0.1758  0.2075
  259MOL0     C35608   5.104   9.496   2.115 -0.1534  0.7147 -0.7739
  259MOL0     C35609   5.236   9.519   2.142 -0.0406  0.6282 -0.0990
  259MOL0     C35610   5.324   9.574   2.047  0.6322 -0.4648  0.3726
  259MOL0     C35611   5.283   9.631   1.926  0.4846 -0.1926  0.4583
  259MOL0     O35612   5.372   9.682   1.835 -0.6807 -0.0468 -0.1904
  259MOL0     C35613   5.338   9.707   1.701 -0.0804  0.3638  0.5063
  259MOL0     C35614   5.479   9.722   1.638 -0.0059  0.2574 -0.3476
  259MOL0     C35615   5.464   9.743   1.487 -0.7098 -0.2436  1.0604
  259MOL0     C35616   5.591   9.754   1.405 -0.0469  0.2811 -0.5915
  259MOL0     C35617   5.580   9.724   1.253  0.6237  0.2613 -0.5038
  259MOL0     C35618   5.485   9.814   1.165 -0.2622  0.8383  0.4347
  259MOL0     C35619   5.517   9.966   1.178  0.2860  0.4623 -0.0247
  259MOL0     C35620   5.653  10.004   1.123 -1.3229 -0.7235  0.2511
  259MOL0     N35621   5.662  10.150   1.103  1.2460  0.0507 -0.4197
  259MOL0     C35622   5.639  10.246   1.202 -1.1171 -0.2980 -0.3617
  259MOL0     C35623   5.688  10.359   1.147  0.3979 -0.2009 -0.4665
  259MOL0     C35624   5.703  10.496   1.220 -0.8244 -0.2276 -1.3731
  259MOL0     C35625   5.604  10.607   1.181 -0.4630  1.0279  0.1976
  259MOL0     C35626   5.657  10.743   1.216 -0.7199 -0.0358  0.9686
  259MOL0     C35627   5.580  10.864   1.155 -0.4278  1.1898 -0.1412
  259MOL0     O35628   5.623  10.990   1.200  0.1086  0.0423  0.1498
  259MOL0     C35629   5.658  11.079   1.102 -0.2379  0.1226 -0.2677
  259MOL0     C35630   5.793  11.105   1.080 -0.0226  0.7038  0.0361
  259MOL0     C35631   5.837  11.181   0.969 -0.9150  0.8602 -0.6218
  259MOL0     C35632   5.981  11.172   0.933 -1.0631 -0.2476 -0.0248
  259MOL0     C35633   5.742  11.239   0.885  0.1270 -0.9445 -1.7385
  259MOL0     C35634   5.775  11.316   0.761 -0.0985  1.0271  0.3461
  259MOL0     O35635   5.680  11.413   0.745 -0.3870 -0.8560  0.2044
  259MOL0     C35636   5.685  11.507   0.648  0.6410 -0.1043  0.6663
  259MOL0     C35637   5.649  11.472   0.517 -0.7383 -1.2636  0.0203
  259MOL0     C35638   5.623  11.578   0.426  0.8251  0.7320  0.9856
  259MOL0     C35639   5.651  11.714   0.460  0.0459  0.4763  0.6568
  259MOL0     O35640   5.640  11.800   0.344  0.1681  0.1229 -0.4137
  259MOL0     C35641   5.629  11.943   0.367  0.3815  0.8927  0.2277
  259MOL0     C35642   5.632  12.019   0.230 -0.2565  1.2422 -0.2680
  259MOL0     C35643   5.770  12.014   0.167  0.0190  0.2381 -1.6242
  259MOL0     C35644   5.762  12.111   0.054  0.2543 -0.3786  0.3679
  259MOL0     C35645   5.902  12.147  -0.006 -0.8510 -0.0757 -1.5683
  259MOL0     C35646   5.897  12.226  -0.130  0.7329  0.6220  0.1384
  259MOL0     C35647   6.025  12.249  -0.209  0.8651  0.8706  0.3578
  259MOL0     C35648   6.123  12.330  -0.131 -0.0575 -0.7322 -0.9417
  259MOL0    Cl35649   6.293  12.284  -0.182  0.4396  0.4270  0.5299
  259MOL0     C35650   5.690  11.739   0.592 -0.7867 -0.1456  0.5269
  259MOL0     C35651   5.717  11.634   0.682 -0.3349 -0.3741 -0.8217
  259MOL0     O35652   5.864  11.284   0.683 -0.1780  0.5151  0.3845
  259MOL0     C35653   5.605  11.215   0.915 -0.2359  0.9972  0.8420
  259MOL0     C35654   5.564  11.143   1.032 -0.0403 -0.7888  0.3679
  259MOL0     N35655   5.738  10.332   1.026  0.1055  0.0986 -0.1170
  259MOL0     N35656   5.714  10.212   0.998  0.2279  0.6813 -0.2142
  259MOL0     C35657   5.144   9.616   1.911  0.1969 -0.1412  0.3687
  259MOL0     C35658   5.061   9.535   1.992 -0.1806 -0.5818 -0.0244
  259MOL0     C35659   4.949   9.329   2.402 -0.3986 -0.1660 -0.0393
  259MOL0     C35660   4.851   9.252   2.334 -0.0385 -0.0968  0.2555
  259MOL0     C35661   4.758   9.188   2.409  0.9081 -0.4116 -0.1151
  259MOL0     C35662   4.772   9.165   2.545 -0.5936  0.2357  0.4985
  259MOL0     O35663   4.679   9.091   2.605 -0.0845  0.1625  0.5993
  259MOL0     C35664   4.720   8.992   2.704  0.4809  0.8569 -0.8053
  259MOL0     C35665   4.779   8.867   2.635  1.5129  0.4213 -1.2133
  259MOL0     C35666   4.917   8.865   2.576  0.0785 -0.5188 -0.5775
  259MOL0     C35667   4.928   8.715   2.536  0.2354  0.7315 -0.0700
  259MOL0     C35668   5.060   8.700   2.467 -0.6916  0.5963  0.4497
  259MOL0     C35669   5.174   8.692   2.430 -0.3120  0.2144  0.3554
  259MOL0     C35670   4.884   9.214   2.615 -0.1563 -0.4118 -0.4901
  259MOL0     C35671   4.972   9.300   2.548 -0.2829 -0.4736  0.2806
  259MOL0     C35672   5.088   9.353   2.636  0.3251  0.2945 -0.7730
  259MOL0     H35673   5.275   9.469   2.230 -0.2513  0.6296 -0.0024
  259MOL0     H35674   5.429   9.582   2.072  0.5146  0.7192  0.5671
  259MOL0     H35675   5.270   9.793   1.700 -2.8065 -1.6483  1.4902
  259MOL0     H35676   5.289   9.620   1.658  1.4644  1.3144 -3.6123
  259MOL0     H35677   5.531   9.810   1.678 -1.1877  0.1808  1.4904
  259MOL0     H35678   5.541   9.633   1.652  1.6227  1.4462  0.2582
  259MOL0     H35679   5.400   9.666   1.443 -0.8173  0.8672 -0.8274
  259MOL0     H35680   5.400   9.831   1.480 -1.2868 -0.7634 -0.8861
  259MOL0     H35681   5.635   9.854   1.403  0.2275  0.2496  1.6350
  259MOL0     H35682   5.663   9.677   1.435 -0.0682  0.1989 -0.7499
  259MOL0     H35683   5.546   9.622   1.231 -2.5916  1.0472  0.2326
  259MOL0     H35684   5.681   9.727   1.213  0.5130  0.5170 -0.7689
  259MOL0     H35685   5.492   9.790   1.058 -2.7252 -1.3065  0.6663
  259MOL0     H35686   5.381   9.790   1.188 -1.4034 -1.4997 -5.4355
  259MOL0     H35687   5.495  10.016   1.272  0.0555 -0.2882  0.3306
  259MOL0     H35688   5.444  10.021   1.118  1.6587  2.0391 -0.3143
  259MOL0     H35689   5.732   9.967   1.190  0.3415 -0.1775 -1.3367
  259MOL0     H35690   5.673   9.965   1.023 -1.8370  2.4358 -1.1797
  259MOL0     H35691   5.611  10.231   1.306 -3.1120  0.2193 -0.7869
  259MOL0     H35692   5.800  10.536   1.191 -0.4296 -0.2483 -0.1653
  259MOL0     H35693   5.693  10.475   1.327 -0.6507  0.1055 -1.2894
  259MOL0     H35694   5.597  10.602   1.072  3.9407 -1.9429 -0.2292
  259MOL0     H35695   5.505  10.597   1.225  1.1577  0.2194  4.0514
  259MOL0     H35696   5.651  10.749   1.325  0.4953 -0.8072  1.0909
  259MOL0     H35697   5.763  10.745   1.189 -0.3087 -2.3170  2.1672
  259MOL0     H35698   5.594  10.851   1.048  1.5445 -1.8397  0.3470
  259MOL0     H35699   5.472  10.857   1.167 -0.3144 -1.3183 -0.1114
  259MOL0     H35700   5.860  11.041   1.137 -0.2817 -0.5786 -1.0529
  259MOL0     H35701   5.990  11.139   0.829 -2.8410  0.3483 -0.4055
  259MOL0     H35702   6.035  11.098   0.992  1.1543 -0.0371 -1.6297
  259MOL0     H35703   6.037  11.265   0.949  3.5836 -2.4218 -1.7273
  259MOL0     H35704   5.625  11.367   0.503 -0.7457 -1.3613  0.7376
  259MOL0     H35705   5.595  11.554   0.324  3.3841  2.3247 -0.1914
  259MOL0     H35706   5.536  11.976   0.412 -0.2894 -1.2419  0.5289
  259MOL0     H35707   5.717  11.978   0.422  1.0274  0.4780 -0.5066
  259MOL0     H35708   5.555  11.983   0.160  0.3587 -1.6466  0.3876
  259MOL0     H35709   5.617  12.124   0.257  2.4532  0.9533  3.1466
  259MOL0     H35710   5.789  11.911   0.137 -0.7517 -0.8755  1.3859
  259MOL0     H35711   5.832  12.054   0.247  0.1286  3.6318 -3.2073
  259MOL0     H35712   5.719  12.208   0.082  0.3450 -0.0370 -0.6272
  259MOL0     H35713   5.696  12.071  -0.023  0.5228  1.7259 -1.0489
  259MOL0     H35714   5.966  12.198   0.066 -1.2674 -0.2659 -1.0547
  259MOL0     H35715   5.967  12.064  -0.035  1.5105  1.9393 -2.3214
  259MOL0     H35716   5.853  12.325  -0.112 -0.4303  0.5843 -2.1292
  259MOL0     H35717   5.830  12.183  -0.205  0.1432  1.6516  0.0500
  259MOL0     H35718   5.996  12.299  -0.302 -2.2562 -0.1920  0.6659
  259MOL0     H35719   6.059  12.149  -0.238 -3.7808  0.5018 -6.1827
  259MOL0     H35720   6.118  12.307  -0.024 -2.8879  1.1874 -0.5596
  259MOL0     H35721   6.108  12.437  -0.148 -0.0935 -1.0297 -3.0109
  259MOL0     H35722   5.713  11.838   0.630 -1.3548  0.0856  0.2707
  259MOL0     H35723   5.740  11.663   0.784 -1.1652 -1.5481 -0.2772
  259MOL0     H35724   5.526  11.234   0.843 -2.6376 -3.9176  1.7402
  259MOL0     H35725   5.461  11.123   1.062 -1.0307 -2.4648 -3.4019
  259MOL0     H35726   5.096   9.663   1.825 -2.6586  2.2705  3.0427
  259MOL0     H35727   4.966   9.503   1.951 -0.6024 -0.4149  0.7929
  259MOL0     H35728   4.823   9.264   2.230  0.1999 -1.0803  0.0691
  259MOL0     H35729   4.661   9.157   2.371  0.2548  1.5073 -0.1095
  259MOL0     H35730   4.795   9.021   2.778 -0.2487 -1.6078  1.0231
  259MOL0     H35731   4.628   8.966   2.758 -0.2772  3.2111 -0.8685
  259MOL0     H35732   4.698   8.841   2.566 -1.8444  4.7634  0.6011
  259MOL0     H35733   4.784   8.789   2.712 -0.9740  0.5872 -0.7937
  259MOL0     H35734   4.925   8.936   2.493 -0.2738 -2.8634 -2.7549
  259MOL0     H35735   4.990   8.897   2.651  0.2549 -2.2389  0.0350
  259MOL0     H35736   4.849   8.695   2.463  1.8838 -0.1034 -1.7176
  259MOL0     H35737   4.920   8.661   2.631 -1.0964  4.4874  2.2008
  259MOL0     H35738   5.273   8.681   2.392  0.7657  2.3728  2.3325
  259MOL0     H35739   4.900   9.190   2.720  1.9134  2.5539  0.0019
  259MOL0     H35740   5.183   9.319   2.594 -0.6193 -2.6817 -0.7549
  259MOL0     H35741   5.080   9.458   2.664 -0.8801 -0.2833  1.2146
  259MOL0     H35742   5.082   9.308   2.736 -1.2465  0.5388 -0.7356
  260MOL0     O35743   3.825  11.025   8.832  0.7012  0.2028  0.4433
  260MOL0     C35744   3.732  10.965   8.774 -0.2867  0.4494 -0.7422
  260MOL0     O35745   3.735  10.931   8.640  0.8088  0.4138  0.0431
  260MOL0     C35746   3.833  10.989   8.562  0.9237 -0.4244  0.9519
  260MOL0     C35747   3.794  11.108   8.492 -0.2797  0.6678 -0.3663
  260MOL0     C35748   3.881  11.170   8.403 -1.1126 -0.2271  0.5671
  260MOL0     C35749   4.012  11.126   8.384 -0.4616 -0.2207  0.4385
  260MOL0     O35750   4.109  11.190   8.300 -0.0083 -0.6471  0.2120
  260MOL0     C35751   4.084  11.317   8.236 -0.4617 -0.1995  0.4307
  260MOL0     C35752   4.198  11.406   8.277  0.0530  0.2030 -0.5843
  260MOL0     C35753   4.328  11.391   8.202  1.2001 -0.6860  0.0675
  260MOL0     C35754   4.311  11.379   8.049 -0.1127 -0.5872 -0.2270
  260MOL0     C35755   4.446  11.420   7.983 -0.1081 -0.7289 -0.5996
  260MOL0     C35756   4.481  11.572   7.986  0.2193  0.5436  0.2598
  260MOL0     C35757   4.617  11.609   7.935 -0.0663  0.4743 -0.2081
  260MOL0     C35758   4.624  11.563   7.796 -0.6922 -0.1911  0.1918
  260MOL0     N35759   4.740  11.622   7.721 -0.3560  0.2926 -0.0385
  260MOL0     C35760   4.768  11.764   7.722 -0.8063  0.3659 -0.0976
  260MOL0     C35761   4.877  11.772   7.641 -0.1982 -0.0077 -0.0882
  260MOL0     C35762   4.964  11.899   7.629 -0.1564 -0.3885  0.2584
  260MOL0     C35763   5.084  11.888   7.540  0.4486 -0.4302 -0.7134
  260MOL0     C35764   5.163  12.021   7.522  0.4463 -0.3664 -0.4055
  260MOL0     C35765   5.234  12.028   7.391 -1.2089  0.5321  0.6875
  260MOL0     O35766   5.323  12.141   7.394 -0.3084  0.3549 -1.0389
  260MOL0     C35767   5.378  12.198   7.287  0.6601 -0.1344  0.4731
  260MOL0     C35768   5.351  12.146   7.154 -0.0505 -0.5261  0.2846
  260MOL0     C35769   5.429  12.190   7.041  0.0564  0.8293 -0.7599
  260MOL0     C35770   5.391  12.123   6.910  0.4091  0.4614 -0.5829
  260MOL0     C35771   5.531  12.287   7.055 -0.5143 -0.0417  0.4649
  260MOL0     C35772   5.613  12.328   6.941  1.4260 -0.4306 -0.1510
  260MOL0     O35773   5.742  12.302   6.948 -1.1656  0.1947  0.9222
  260MOL0     C35774   5.822  12.376   6.862 -0.5902 -0.4414  0.4347
  260MOL0     C35775   5.857  12.510   6.898 -0.8927  1.1805  0.2403
  260MOL0     C35776   5.958  12.576   6.829  0.7839  0.3126  0.5728
  260MOL0     C35777   6.030  12.516   6.727 -0.3044 -0.4401  0.3406
  260MOL0     O35778   6.153  12.562   6.676 -0.4509  0.0561  0.2238
  260MOL0     C35779   6.242  12.634   6.769  0.9115  0.0454 -0.2201
  260MOL0     C35780   6.368  12.675   6.707 -1.1333 -0.7942  0.9240
  260MOL0     C35781   6.435  12.537   6.650 -0.0778 -0.3889 -0.3231
  260MOL0     C35782   6.576  12.570   6.590  0.7882  0.0516  0.8477
  260MOL0     C35783   6.646  12.451   6.528  0.2806 -0.0899  0.3374
  260MOL0     C35784   6.792  12.470   6.512  0.8662 -0.3901 -0.1267
  260MOL0     C35785   6.857  12.339   6.492 -0.4162  0.7399 -0.1411
  260MOL0     C35786   7.007  12.352   6.457  0.6065  0.0135  0.0822
  260MOL0    Cl35787   7.104  12.445   6.586  0.1644 -0.5173  0.2030
  260MOL0     C35788   5.989  12.384   6.693  0.0625  0.9004  1.2415
  260MOL0     C35789   5.882  12.310   6.752  0.2780 -0.9854 -1.6466
  260MOL0     O35790   5.552  12.398   6.859  0.0538 -0.3594  0.6087
  260MOL0     C35791   5.540  12.351   7.179 -2.0387  0.3902 -0.2180
  260MOL0     C35792   5.473  12.298   7.292  0.1774 -0.2399  0.4185
  260MOL0     N35793   4.901  11.651   7.584 -0.3292 -0.0076 -0.6193
  260MOL0     N35794   4.819  11.559   7.636  0.0148 -0.5991  0.7241
  260MOL0     C35795   4.046  10.999   8.428  0.2247  0.1284  0.9954
  260MOL0     C35796   3.959  10.928   8.520 -0.6239  0.0965 -0.0739
  260MOL0     C35797   3.607  10.939   8.837  0.2580 -0.2125 -0.4063
  260MOL0     C35798   3.565  10.800   8.835 -0.4428 -0.7306  0.3250
  260MOL0     C35799   3.446  10.765   8.890 -0.0123  0.4602  0.7157
  260MOL0     C35800   3.366  10.866   8.961  0.2270  0.1100  0.1891
  260MOL0     O35801   3.247  10.841   9.007  0.8756  0.1118 -0.0560
  260MOL0     C35802   3.194  10.713   9.054 -0.0475  0.7934 -0.3013
  260MOL0     C35803   3.097  10.737   9.167 -0.1510  0.0843 -0.6662
  260MOL0     C35804   2.994  10.616   9.203 -0.3133  0.1453 -0.2603
  260MOL0     C35805   3.063  10.480   9.226  0.4696 -0.4107  0.6475
  260MOL0     C35806   3.167  10.489   9.324 -0.5029  0.2489  0.8960
  260MOL0     C35807   3.264  10.519   9.387  0.0789 -0.9768  0.1909
  260MOL0     C35808   3.415  10.997   8.967  0.9946 -0.6774 -0.0185
  260MOL0     C35809   3.536  11.043   8.904  1.0440  0.2002 -0.9789
  260MOL0     C35810   3.586  11.190   8.912  1.0042 -0.7120  0.2362
  260MOL0     H35811   3.702  11.155   8.525  0.1746  1.9356 -0.8174
  260MOL0     H35812   3.834  11.252   8.349 -0.8857 -1.3736 -1.4936
  260MOL0     H35813   3.998  11.367   8.282 -0.5737  0.4476 -0.4599
  260MOL0     H35814   4.081  11.304   8.127  0.8684 -0.0727  0.3623
  260MOL0     H35815   4.163  11.509   8.281  1.9523  0.8523  0.5336
  260MOL0     H35816   4.227  11.388   8.381  0.1737 -0.1430 -0.6764
  260MOL0     H35817   4.393  11.477   8.221  3.3827 -2.6267  2.1056
  260MOL0     H35818   4.391  11.314   8.246  1.4919 -0.4594  0.0479
  260MOL0     H35819   4.284  11.278   8.016 -1.5848 -1.0366  2.0823
  260MOL0     H35820   4.226  11.442   8.021 -0.3963 -0.5965  0.5842
  260MOL0     H35821   4.442  11.391   7.878  2.7090  2.6484 -1.8415
  260MOL0     H35822   4.520  11.362   8.040 -1.4791  1.7679  4.2760
  260MOL0     H35823   4.403  11.637   7.944  0.1863 -1.0570 -2.4145
  260MOL0     H35824   4.496  11.599   8.091 -0.8267 -0.0309  0.5662
  260MOL0     H35825   4.690  11.573   8.007  1.3534  0.6905 -1.4861
  260MOL0     H35826   4.632  11.717   7.941 -0.8145  0.5149  2.0496
  260MOL0     H35827   4.641  11.455   7.788  1.4561  0.1597 -0.9138
  260MOL0     H35828   4.532  11.584   7.742 -0.6534 -0.5558 -0.0187
  260MOL0     H35829   4.732  11.846   7.784  0.4471  0.3256  0.7174
  260MOL0     H35830   4.994  11.928   7.730  0.9291 -1.3627  0.2435
  260MOL0     H35831   4.910  11.985   7.589  3.2784  0.9656 -1.9139
  260MOL0     H35832   5.147  11.817   7.595 -0.9835  1.1115  3.2878
  260MOL0     H35833   5.048  11.843   7.447  1.1114  0.4087 -1.3945
  260MOL0     H35834   5.105  12.112   7.540  0.9067 -0.3152  0.9969
  260MOL0     H35835   5.234  12.029   7.606 -0.9951  0.4310  0.7961
  260MOL0     H35836   5.292  11.937   7.373 -4.3679 -0.8508 -4.6425
  260MOL0     H35837   5.155  12.035   7.316  0.7672  2.7623 -1.3532
  260MOL0     H35838   5.284  12.065   7.130 -2.4155  1.7649 -1.3503
  260MOL0     H35839   5.362  12.017   6.913 -0.6062  0.6774 -1.7301
  260MOL0     H35840   5.485  12.127   6.855  0.6321 -1.6315 -0.4584
  260MOL0     H35841   5.314  12.192   6.874  0.2568  1.8167  2.1559
  260MOL0     H35842   5.817  12.555   6.989 -0.2908  0.7820  0.7068
  260MOL0     H35843   5.981  12.674   6.869 -1.4792  1.6989 -1.2455
  260MOL0     H35844   6.194  12.720   6.816 -0.3707 -0.9331  0.2974
  260MOL0     H35845   6.267  12.571   6.855 -0.4452 -1.3126 -0.7731
  260MOL0     H35846   6.363  12.753   6.630  2.2935 -0.5517  0.7769
  260MOL0     H35847   6.440  12.703   6.785  0.7672 -5.4839  1.2133
  260MOL0     H35848   6.367  12.495   6.575  0.3307 -1.7965  0.0675
  260MOL0     H35849   6.438  12.455   6.722  0.0172 -1.2909 -1.3351
  260MOL0     H35850   6.637  12.605   6.673 -1.5975  2.7281  1.6307
  260MOL0     H35851   6.574  12.653   6.518  2.9762  2.0885  2.9722
  260MOL0     H35852   6.644  12.367   6.598  0.0800  0.9267  1.5961
  260MOL0     H35853   6.616  12.420   6.427  0.9130  1.5493 -0.4008
  260MOL0     H35854   6.837  12.525   6.595  0.9011 -0.5998 -0.0047
  260MOL0     H35855   6.809  12.537   6.428  1.0708  1.5740  1.4131
  260MOL0     H35856   6.812  12.291   6.405  0.1138 -0.4550  0.2241
  260MOL0     H35857   6.842  12.279   6.582  0.8724 -0.7341 -0.8572
  260MOL0     H35858   7.028  12.397   6.359 -0.7816 -0.2062 -0.3348
  260MOL0     H35859   7.034  12.247   6.445 -0.3992 -0.4948  1.9139
  260MOL0     H35860   6.047  12.335   6.616 -1.5754 -2.2459  1.8018
  260MOL0     H35861   5.847  12.209   6.738 -1.8472 -0.5318 -0.1881
  260MOL0     H35862   5.620  12.422   7.196  0.5907 -2.0711 -1.5814
  260MOL0     H35863   5.492  12.331   7.394  0.4057  0.1245  0.2614
  260MOL0     H35864   4.131  10.942   8.392 -1.6018 -2.3767  0.3364
  260MOL0     H35865   3.988  10.836   8.568  0.0066  1.2811  1.9323
  260MOL0     H35866   3.613  10.717   8.784  2.2748  0.7290  0.3516
  260MOL0     H35867   3.412  10.662   8.884  2.1474 -0.2475 -0.5347
  260MOL0     H35868   3.135  10.667   8.974 -0.4439 -1.2098  1.0705
  260MOL0     H35869   3.275  10.648   9.088 -1.6646 -1.2002 -0.0353
  260MOL0     H35870   3.045  10.829   9.143  1.0989  0.7147 -1.0733
  260MOL0     H35871   3.156  10.760   9.256 -1.0205 -0.0701 -0.0453
  260MOL0     H35872   2.933  10.652   9.287  0.3894  0.0271  0.3181
  260MOL0     H35873   2.923  10.608   9.120  1.6125 -3.3083 -1.7931
  260MOL0     H35874   3.106  10.446   9.131 -0.4328  0.8704 -0.2675
  260MOL0     H35875   2.992  10.402   9.254  0.3157 -1.2664 -1.8649
  260MOL0     H35876   3.350  10.566   9.430  1.0122 -1.5208 -1.0130
  260MOL0     H35877   3.358  11.076   9.015 -1.0372  0.0013 -3.2787
  260MOL0     H35878   3.509  11.259   8.947 -0.6192 -1.4201 -1.6573
  260MOL0     H35879   3.674  11.182   8.976  1.4472 -1.4821 -0.4431
  260MOL0     H35880   3.613  11.209   8.808 -0.9457 -2.8102 -0.7622
  261MOL0     O35881   8.533   3.940   9.245  0.1161 -0.3999  0.7910
  261MOL0     C35882   8.526   3.977   9.133  1.1285 -0.2003 -0.5818
  261MOL0     O35883   8.622   3.956   9.032 -0.1077  0.7519 -0.0240
  261MOL0     C35884   8.707   3.858   9.054 -0.5521  0.1565  0.1866
  261MOL0     C35885   8.795   3.844   9.168  0.4923  0.5124  1.1759
  261MOL0     C35886   8.886   3.735   9.179  0.8578  0.5036 -0.6625
  261MOL0     C35887   8.898   3.646   9.074 -1.0851 -0.7336 -0.0762
  261MOL0     O35888   8.989   3.549   9.088 -0.5899 -0.4528 -0.0061
  261MOL0     C35889   8.986   3.428   9.001  0.8470 -0.3217  0.0725
  261MOL0     C35890   9.065   3.326   9.083  0.9156 -0.2885  0.1728
  261MOL0     C35891   9.115   3.206   9.000  0.0693  0.1361 -0.3615
  261MOL0     C35892   9.248   3.248   8.945  0.2925  0.0808  0.2076
  261MOL0     C35893   9.283   3.157   8.838  0.1545 -0.0679 -0.2601
  261MOL0     C35894   9.424   3.183   8.780 -0.6190  0.0590 -1.0438
  261MOL0     C35895   9.454   3.125   8.633 -0.0664  0.0406 -0.4973
  261MOL0     C35896   9.502   2.975   8.621  0.6814 -0.0199  0.3627
  261MOL0     N35897   9.394   2.885   8.666 -0.6151  0.8708  0.4065
  261MOL0     C35898   9.399   2.809   8.778 -0.1834  0.8216 -0.0787
  261MOL0     C35899   9.284   2.740   8.779 -0.8923  0.5800 -0.1665
  261MOL0     C35900   9.216   2.671   8.891  0.4839 -0.7426  0.2250
  261MOL0     C35901   9.154   2.793   8.975  0.2138 -0.1169  0.1028
  261MOL0     C35902   9.072   2.736   9.086 -1.0546  0.5772  0.2334
  261MOL0     C35903   9.000   2.848   9.167 -0.9694 -0.1381  0.0491
  261MOL0     O35904   9.091   2.927   9.248 -0.6002  0.0770 -0.5874
  261MOL0     C35905   9.066   2.916   9.382 -1.2691 -0.5326  1.3511
  261MOL0     C35906   8.995   3.006   9.455 -0.3762  0.1747  0.3585
  261MOL0     C35907   8.979   3.011   9.587  0.7082 -0.8359  0.0298
  261MOL0     C35908   8.894   3.123   9.655 -0.4803  0.2709 -0.7604
  261MOL0     C35909   9.036   2.910   9.665 -0.0918 -0.4104  0.4120
  261MOL0     C35910   9.009   2.895   9.810  0.3977  0.4372 -0.8655
  261MOL0     O35911   9.060   2.780   9.864 -0.7121 -0.2872  0.7135
  261MOL0     C35912   9.048   2.759   9.991  0.6931  0.2511 -1.5396
  261MOL0     C35913   8.990   2.635  10.036 -0.0936 -0.2456 -0.0126
  261MOL0     C35914   8.986   2.603  10.172  0.5069  0.2208  0.9041
  261MOL0     C35915   9.024   2.697  10.269 -0.2320  0.0498  0.6793
  261MOL0     O35916   9.004   2.686  10.407  0.0126  0.2995  0.1270
  261MOL0     C35917   8.954   2.568  10.469  0.0685  0.0543  0.0295
  261MOL0     C35918   8.921   2.591  10.613  0.4515  0.2155 -0.6452
  261MOL0     C35919   9.007   2.694  10.697 -1.0052 -0.0449  0.1690
  261MOL0     C35920   8.928   2.811  10.750 -0.0574  0.1903  0.3649
  261MOL0     C35921   9.010   2.915  10.821 -0.4078  0.3017 -0.3896
  261MOL0     C35922   9.062   2.857  10.962 -0.6214  0.0415 -0.7046
  261MOL0     C35923   9.108   2.982  11.046  0.0486  0.6421  0.6269
  261MOL0     C35924   9.121   2.953  11.195 -0.5872  0.3908 -0.5500
  261MOL0    Cl35925   8.977   2.975  11.302 -0.4990  0.4151  0.2587
  261MOL0     C35926   9.080   2.821  10.236 -0.0214 -0.8043  0.2629
  261MOL0     C35927   9.099   2.849  10.090 -0.1689  0.0294 -0.4447
  261MOL0     O35928   8.952   2.980   9.878  0.1209 -0.6430  0.0031
  261MOL0     C35929   9.105   2.807   9.594  0.1166  0.7584 -0.1957
  261MOL0     C35930   9.126   2.812   9.457 -0.3905 -0.3160 -0.0410
  261MOL0     N35931   9.228   2.752   8.656 -0.2419  0.4529 -0.8155
  261MOL0     N35932   9.293   2.840   8.586 -0.0574 -0.8372 -0.4168
  261MOL0     C35933   8.825   3.665   8.956  0.2864  0.1349 -1.1712
  261MOL0     C35934   8.724   3.772   8.951 -0.0378 -0.0740 -0.3891
  261MOL0     C35935   8.408   4.060   9.100 -1.0844  0.1688  0.1021
  261MOL0     C35936   8.415   4.142   8.981 -0.1192  0.2068  0.4686
  261MOL0     C35937   8.310   4.221   8.949  0.4772 -0.1699 -0.7918
  261MOL0     C35938   8.194   4.222   9.028  0.6250 -0.0150 -0.2606
  261MOL0     O35939   8.090   4.290   8.992  0.9483  0.2973 -0.0363
  261MOL0     C35940   8.036   4.310   8.860 -0.2119  0.6496 -0.0733
  261MOL0     C35941   7.891   4.364   8.860  0.2895  0.4401 -0.3152
  261MOL0     C35942   7.820   4.285   8.964  0.2029  0.0733  0.1562
  261MOL0     C35943   7.669   4.323   8.957 -0.2975  0.3163  0.3076
  261MOL0     C35944   7.597   4.193   9.001  0.1137 -0.9148 -0.8525
  261MOL0     C35945   7.520   4.103   9.043  0.0354 -0.1285  1.3636
  261MOL0     C35946   8.187   4.156   9.150 -0.0263 -0.0315  0.5603
  261MOL0     C35947   8.294   4.068   9.189  0.6588 -0.3392 -0.6618
  261MOL0     C35948   8.277   3.998   9.324 -0.1124  0.2477  0.7421
  261MOL0     H35949   8.813   3.912   9.250  1.6083  1.8836 -0.1293
  261MOL0     H35950   8.952   3.728   9.265  0.7668  3.9002 -0.1765
  261MOL0     H35951   9.036   3.458   8.908 -1.4692  0.5616 -0.9682
  261MOL0     H35952   8.883   3.395   8.989  0.6997 -0.0833  0.6179
  261MOL0     H35953   9.149   3.368   9.138  1.5322 -2.0977  0.6688
  261MOL0     H35954   8.983   3.299   9.150 -0.0820 -1.8338 -1.5544
  261MOL0     H35955   9.122   3.120   9.067 -3.3840 -0.9096 -1.1343
  261MOL0     H35956   9.041   3.187   8.922 -0.1370  0.2224 -0.1869
  261MOL0     H35957   9.243   3.350   8.905 -0.0471  1.0094  2.4192
  261MOL0     H35958   9.330   3.238   9.018  0.2482  1.3747  0.4669
  261MOL0     H35959   9.207   3.173   8.761  1.6118  3.0349 -1.2030
  261MOL0     H35960   9.268   3.055   8.874  0.6725 -0.5336 -1.3021
  261MOL0     H35961   9.423   3.292   8.773  0.5069  0.2943  1.5220
  261MOL0     H35962   9.498   3.150   8.853 -0.4201 -1.5068 -1.8954
  261MOL0     H35963   9.532   3.180   8.580 -2.0054  0.2310 -3.4225
  261MOL0     H35964   9.373   3.141   8.561  1.2830 -0.0936 -2.1098
  261MOL0     H35965   9.534   2.952   8.519 -0.2808  0.4849 -0.0643
  261MOL0     H35966   9.589   2.965   8.686  0.4387  0.1482  0.7146
  261MOL0     H35967   9.466   2.830   8.861  0.8816  3.0304 -1.3870
  261MOL0     H35968   9.282   2.606   8.951 -0.7925 -1.4211  0.9531
  261MOL0     H35969   9.141   2.605   8.846  1.6524 -1.8001 -0.2420
  261MOL0     H35970   9.233   2.855   9.019 -0.3470 -0.9986  2.4954
  261MOL0     H35971   9.098   2.860   8.908  0.3721  0.8575  0.9148
  261MOL0     H35972   8.986   2.675   9.056 -3.2662  3.9808 -0.8873
  261MOL0     H35973   9.138   2.676   9.150  0.7953  0.5471 -1.5714
  261MOL0     H35974   8.956   2.913   9.090 -1.3872 -1.9461 -1.2925
  261MOL0     H35975   8.922   2.804   9.230 -1.1410  0.0238 -0.0503
  261MOL0     H35976   8.955   3.090   9.399 -0.1187  1.0332  1.4288
  261MOL0     H35977   8.870   3.202   9.583  0.8761  1.8986  0.4872
  261MOL0     H35978   8.959   3.170   9.729 -1.4591 -2.2784  1.9428
  261MOL0     H35979   8.806   3.086   9.708 -0.8119  1.4983 -0.4169
  261MOL0     H35980   8.950   2.563   9.965 -2.5253 -0.0311  1.0478
  261MOL0     H35981   8.931   2.513  10.198 -0.7349  0.4029 -0.8596
  261MOL0     H35982   8.868   2.529  10.413  0.4282  0.2353 -0.6565
  261MOL0     H35983   9.026   2.486  10.458 -0.8601 -0.6092 -1.5704
  261MOL0     H35984   8.814   2.612  10.613  0.0428 -1.2665 -4.1429
  261MOL0     H35985   8.918   2.495  10.666  0.4224  1.4494  1.7419
  261MOL0     H35986   9.096   2.728  10.643  0.8932 -1.4261  2.2470
  261MOL0     H35987   9.058   2.641  10.778 -1.2247 -1.3447 -0.5058
  261MOL0     H35988   8.848   2.793  10.823  2.0706 -1.6546  2.4023
  261MOL0     H35989   8.880   2.864  10.668  1.4011  2.0368  0.6442
  261MOL0     H35990   9.096   2.945  10.761 -0.1884  1.3157  0.4028
  261MOL0     H35991   8.942   2.999  10.836 -3.0500 -1.9387  1.1422
  261MOL0     H35992   9.141   2.782  10.953  0.4790  0.6015  2.8425
  261MOL0     H35993   8.975   2.826  11.021 -1.0447 -0.7789 -1.7250
  261MOL0     H35994   9.035   3.062  11.033 -2.4354 -1.3787  1.1845
  261MOL0     H35995   9.197   3.030  11.005 -1.0362  2.7104  0.5786
  261MOL0     H35996   9.197   3.027  11.223 -3.8594  3.6518  0.5669
  261MOL0     H35997   9.165   2.857  11.220  1.4659  0.6465 -2.7983
  261MOL0     H35998   9.101   2.882  10.323 -2.2726  1.5344 -0.7096
  261MOL0     H35999   9.158   2.936  10.066  2.4992 -1.3690  0.6697
  261MOL0     H36000   9.155   2.727   9.648 -1.0710  0.5158  0.5898
  261MOL0     H36001   9.189   2.731   9.420 -0.6959 -1.3541  1.6039
  261MOL0     H36002   8.839   3.607   8.865  1.3596 -1.7296  0.1175
  261MOL0     H36003   8.668   3.787   8.859  1.9997  1.0392 -1.5289
  261MOL0     H36004   8.502   4.133   8.917  0.4680 -0.8588  1.3737
  261MOL0     H36005   8.324   4.289   8.866 -0.0251  0.4275 -0.3958
  261MOL0     H36006   8.100   4.381   8.806  1.8608  0.1764  1.6184
  261MOL0     H36007   8.046   4.219   8.799 -2.6437  1.1513 -1.3301
  261MOL0     H36008   7.854   4.347   8.758 -1.0164 -1.0205  0.3627
  261MOL0     H36009   7.894   4.473   8.865 -0.3496  0.4258  0.5730
  261MOL0     H36010   7.829   4.179   8.941 -0.9459  0.2105 -1.0511
  261MOL0     H36011   7.861   4.303   9.064 -0.6788 -2.0958  0.9519
  261MOL0     H36012   7.639   4.350   8.856 -0.5540  2.8185  0.9991
  261MOL0     H36013   7.645   4.408   9.021 -3.9866  1.6331 -2.5338
  261MOL0     H36014   7.455   4.021   9.066 -0.7305 -0.4924 -1.6582
  261MOL0     H36015   8.098   4.156   9.212 -1.1221  1.0086 -0.9490
  261MOL0     H36016   8.352   4.035   9.395  0.9847 -0.2750 -0.1074
  261MOL0     H36017   8.176   4.017   9.361  0.4771 -0.2223  2.7571
  261MOL0     H36018   8.301   3.892   9.312  4.0398  0.9778  0.9100
  262MOL0     O36019   1.654  11.124   5.496  0.3197  0.3034 -0.2242
  262MOL0     C36020   1.641  11.110   5.375  0.1637 -0.2798  0.6791
  262MOL0     O36021   1.710  11.190   5.275 -0.0349 -0.5977 -0.2132
  262MOL0     C36022   1.814  11.268   5.313  0.5696 -0.0750  0.4017
  262MOL0     C36023   1.819  11.356   5.427  0.6096  0.2962 -0.4823
  262MOL0     C36024   1.929  11.432   5.462  0.2528 -0.2076  0.5121
  262MOL0     C36025   2.042  11.416   5.388 -0.0855 -0.3850  0.4036
  262MOL0     O36026   2.161  11.471   5.419  0.1564 -0.9945 -0.6948
  262MOL0     C36027   2.261  11.371   5.444 -0.1737 -0.6487  0.4305
  262MOL0     C36028   2.370  11.406   5.544  0.5864 -0.4187 -0.7151
  262MOL0     C36029   2.312  11.441   5.681 -0.9996 -0.0366 -0.1426
  262MOL0     C36030   2.427  11.451   5.784 -0.5642  0.4491  0.2779
  262MOL0     C36031   2.526  11.555   5.767  0.0815 -0.5604 -1.1652
  262MOL0     C36032   2.653  11.544   5.846  0.8943  0.4676 -0.3446
  262MOL0     C36033   2.715  11.406   5.875  1.1953 -0.1728  0.0821
  262MOL0     C36034   2.763  11.350   5.740 -0.0103  0.8764  0.0380
  262MOL0     N36035   2.858  11.242   5.754  0.4208  0.2539  0.6519
  262MOL0     C36036   2.913  11.169   5.648  0.5470 -0.2402  0.0228
  262MOL0     C36037   2.988  11.082   5.717 -0.3824  0.5585  0.0142
  262MOL0     C36038   3.043  10.966   5.638 -0.3465 -0.2924 -0.4939
  262MOL0     C36039   2.961  10.837   5.665 -0.2663 -0.3631 -0.4080
  262MOL0     C36040   2.815  10.852   5.618  0.4226 -0.5815  0.7938
  262MOL0     C36041   2.747  10.725   5.579 -0.0621 -0.6696 -0.5129
  262MOL0     O36042   2.822  10.657   5.477 -0.3539  0.2224 -0.8743
  262MOL0     C36043   2.794  10.697   5.350 -0.2543  0.4025 -0.1823
  262MOL0     C36044   2.696  10.626   5.292 -0.7422 -0.0417  0.9547
  262MOL0     C36045   2.671  10.653   5.155 -0.0900 -0.0486 -0.3720
  262MOL0     C36046   2.566  10.564   5.096  0.3389 -0.2191 -0.8194
  262MOL0     C36047   2.746  10.753   5.082  1.5070  0.2705  0.7319
  262MOL0     C36048   2.732  10.772   4.933  0.2862 -0.5282  0.4625
  262MOL0     O36049   2.594  10.781   4.894  0.8966 -0.4213  0.0916
  262MOL0     C36050   2.559  10.767   4.765 -1.0642  1.7719 -1.3485
  262MOL0     C36051   2.573  10.635   4.712 -0.4099 -0.7560  0.1211
  262MOL0     C36052   2.539  10.618   4.578  0.0135 -0.7222  0.6987
  262MOL0     C36053   2.496  10.730   4.499 -0.1628 -0.3546 -1.0642
  262MOL0     O36054   2.474  10.717   4.372  0.2373 -0.5109  1.2774
  262MOL0     C36055   2.508  10.596   4.305  0.9031 -0.1453 -0.5200
  262MOL0     C36056   2.470  10.618   4.160  0.5201 -0.5596  0.7357
  262MOL0     C36057   2.317  10.605   4.137 -0.0840 -0.2179  0.5208
  262MOL0     C36058   2.288  10.620   3.986  0.7877  0.0115 -0.0210
  262MOL0     C36059   2.134  10.617   3.961  0.3117  0.4458 -0.5769
  262MOL0     C36060   2.110  10.624   3.812  1.6707 -0.7783 -0.3938
  262MOL0     C36061   1.955  10.619   3.797  0.0372 -0.3311 -0.5531
  262MOL0     C36062   1.929  10.650   3.644  0.9664 -0.9194 -0.1596
  262MOL0    Cl36063   1.938  10.833   3.630 -0.4382 -0.6015  0.2259
  262MOL0     C36064   2.470  10.845   4.568 -0.7468 -0.4824  1.0763
  262MOL0     C36065   2.496  10.874   4.699 -0.6067  0.2974 -0.3807
  262MOL0     O36066   2.830  10.790   4.859  0.0822  0.2487 -0.3198
  262MOL0     C36067   2.837  10.839   5.158 -0.7952  0.1810 -0.5896
  262MOL0     C36068   2.865  10.799   5.285 -0.1298 -0.4976 -0.5201
  262MOL0     N36069   2.981  11.100   5.856 -0.9966  0.2378  0.0761
  262MOL0     N36070   2.910  11.201   5.871  0.0129 -0.3442  0.5303
  262MOL0     C36071   2.034  11.341   5.265  0.1423 -0.4328  1.0530
  262MOL0     C36072   1.924  11.277   5.228 -0.5219  0.7283 -0.4493
  262MOL0     C36073   1.552  11.000   5.317  0.2724  0.0413 -0.2870
  262MOL0     C36074   1.516  11.009   5.181  0.3414 -1.2183  0.3922
  262MOL0     C36075   1.431  10.914   5.117 -0.3359 -0.5567 -1.0979
  262MOL0     C36076   1.380  10.812   5.191 -0.3205  0.1771 -0.3795
  262MOL0     O36077   1.321  10.696   5.143 -0.0081 -0.4096 -0.4481
  262MOL0     C36078   1.279  10.681   5.006 -0.4049  0.5054  0.4557
  262MOL0     C36079   1.400  10.630   4.921  0.8003 -0.1676 -0.5077
  262MOL0     C36080   1.377  10.569   4.785  0.2600 -0.0761  0.2241
  262MOL0     C36081   1.262  10.463   4.773  0.2899  0.1137 -0.4010
  262MOL0     C36082   1.131  10.529   4.743 -0.5033 -0.2968  0.5545
  262MOL0     C36083   1.026  10.595   4.735 -0.0808  0.5960 -0.4608
  262MOL0     C36084   1.414  10.801   5.327 -0.5437 -0.5048 -0.0398
  262MOL0     C36085   1.494  10.891   5.392 -0.1163  0.1552  0.0476
  262MOL0     C36086   1.513  10.872   5.538 -0.5549  0.9473  0.1358
  262MOL0     H36087   1.733  11.378   5.489 -0.3125  1.8758 -2.2354
  262MOL0     H36088   1.924  11.488   5.556 -2.5734 -2.9822  2.2095
  262MOL0     H36089   2.322  11.354   5.355  1.4614 -0.3923  1.4629
  262MOL0     H36090   2.209  11.278   5.468 -0.2117 -0.7948 -0.1927
  262MOL0     H36091   2.442  11.323   5.546 -1.3064 -2.1526 -1.2586
  262MOL0     H36092   2.430  11.492   5.514  0.6180  0.5103  1.7581
  262MOL0     H36093   2.258  11.536   5.683  0.4591  0.8207 -0.1168
  262MOL0     H36094   2.235  11.367   5.705 -0.4923 -0.8762 -1.0314
  262MOL0     H36095   2.381  11.464   5.883  0.6496  2.2219  0.6466
  262MOL0     H36096   2.474  11.352   5.780  1.7175  1.4504  0.8479
  262MOL0     H36097   2.473  11.644   5.803 -0.2269 -1.4206  0.6529
  262MOL0     H36098   2.563  11.554   5.665  0.5873 -3.5039 -1.0407
  262MOL0     H36099   2.728  11.616   5.814  0.6454 -1.0227 -5.0744
  262MOL0     H36100   2.634  11.580   5.947  2.4025 -0.6849  0.3938
  262MOL0     H36101   2.642  11.344   5.927  2.1146  0.5050  2.3075
  262MOL0     H36102   2.794  11.427   5.948  0.0833 -4.2096  2.7626
  262MOL0     H36103   2.683  11.328   5.668 -1.2711  3.3028  0.5523
  262MOL0     H36104   2.824  11.431   5.698 -0.0677  2.0914  2.1962
  262MOL0     H36105   2.898  11.192   5.543  0.7153  1.1075  0.2745
  262MOL0     H36106   3.141  10.950   5.684 -0.2378 -1.8437 -1.1924
  262MOL0     H36107   3.059  10.980   5.530 -0.5637  1.5729 -0.3174
  262MOL0     H36108   3.011  10.758   5.608  1.1064  0.4324 -0.3494
  262MOL0     H36109   2.957  10.816   5.772 -1.1380  1.6806  0.0003
  262MOL0     H36110   2.754  10.890   5.701 -0.0672  0.4334 -0.0176
  262MOL0     H36111   2.809  10.931   5.543 -1.0001 -0.2151  1.2643
  262MOL0     H36112   2.738  10.669   5.672  1.8363 -0.8615 -0.4121
  262MOL0     H36113   2.644  10.740   5.543 -0.5000 -2.0859  0.1067
  262MOL0     H36114   2.638  10.557   5.353 -1.2283 -0.0717  0.4635
  262MOL0     H36115   2.484  10.604   5.035 -0.6005 -0.3863  0.3083
  262MOL0     H36116   2.508  10.524   5.179 -2.6310  3.8238 -0.6535
  262MOL0     H36117   2.630  10.492   5.044 -0.0155 -0.3001 -1.1505
  262MOL0     H36118   2.614  10.558   4.775  0.3692 -0.5770 -0.1597
  262MOL0     H36119   2.532  10.517   4.538 -2.8431 -0.1958 -0.4291
  262MOL0     H36120   2.615  10.593   4.330  0.7247  1.7395  0.6692
  262MOL0     H36121   2.445  10.515   4.343 -4.5880  2.9572 -1.8822
  262MOL0     H36122   2.509  10.712   4.119  1.3731 -0.3841  1.8894
  262MOL0     H36123   2.513  10.535   4.103 -1.3267  0.3692 -2.2322
  262MOL0     H36124   2.257  10.681   4.188 -0.1896  0.5123 -0.6522
  262MOL0     H36125   2.274  10.514   4.181  2.4668  0.1823  4.2634
  262MOL0     H36126   2.331  10.529   3.944  2.1046 -0.4942  2.2412
  262MOL0     H36127   2.338  10.709   3.949 -0.3175 -0.4186 -2.7661
  262MOL0     H36128   2.086  10.530   4.006  2.9498 -1.2265 -0.7595
  262MOL0     H36129   2.089  10.705   4.007 -0.6212  0.3635 -1.3081
  262MOL0     H36130   2.158  10.536   3.769  3.0394 -1.1830  1.8076
  262MOL0     H36131   2.150  10.713   3.762  3.9892 -2.7928 -2.3091
  262MOL0     H36132   1.901  10.681   3.869 -1.7562 -2.7984  0.3650
  262MOL0     H36133   1.926  10.514   3.809  0.3778 -0.5533 -1.5313
  262MOL0     H36134   1.825  10.628   3.619  0.0100  2.5039  0.3260
  262MOL0     H36135   1.993  10.595   3.574  1.6879  1.7984 -1.7795
  262MOL0     H36136   2.426  10.923   4.507  1.8343 -0.4825 -0.9820
  262MOL0     H36137   2.480  10.968   4.751 -0.3816  0.0722  0.1051
  262MOL0     H36138   2.903  10.911   5.111 -1.0231  2.9352  2.8732
  262MOL0     H36139   2.933  10.865   5.337 -2.9965  1.1392  1.4258
  262MOL0     H36140   2.129  11.312   5.221  0.3589 -0.4585  1.5352
  262MOL0     H36141   1.920  11.211   5.141 -0.9956  4.3322 -3.4487
  262MOL0     H36142   1.562  11.087   5.121  0.0936 -0.7071  0.8554
  262MOL0     H36143   1.416  10.914   5.009 -0.1325  2.7774 -1.2271
  262MOL0     H36144   1.199  10.606   5.007  1.3412 -1.4296  0.6394
  262MOL0     H36145   1.244  10.780   4.974  0.0408  1.4925  2.7896
  262MOL0     H36146   1.449  10.547   4.973  0.9351  0.2344  0.0178
  262MOL0     H36147   1.477  10.707   4.910  0.9090  0.2391  2.2575
  262MOL0     H36148   1.358  10.651   4.716 -0.6607  1.9749  2.7323
  262MOL0     H36149   1.475  10.532   4.754  1.3061  0.9084  2.1566
  262MOL0     H36150   1.256  10.406   4.866  3.3165 -0.5073 -0.4725
  262MOL0     H36151   1.287  10.388   4.698  0.7159  0.0601 -0.2090
  262MOL0     H36152   0.942  10.659   4.746  1.1042  1.8041  2.6083
  262MOL0     H36153   1.373  10.721   5.388  3.4269 -1.6276  1.4734
  262MOL0     H36154   1.473  10.775   5.571 -0.4656  0.7371 -0.3594
  262MOL0     H36155   1.621  10.868   5.559 -0.7138  1.2692  1.0423
  262MOL0     H36156   1.460  10.949   5.594 -0.5019  0.4910  0.8392
  263MOL0     O36157   2.608   5.319   4.952  0.5506  0.1604  0.2166
  263MOL0     C36158   2.592   5.437   4.918 -1.1752 -0.5714 -0.1306
  263MOL0     O36159   2.666   5.535   4.974  0.2229  0.7653  0.8079
  263MOL0     C36160   2.743   5.506   5.087 -0.2113 -0.4938  0.1645
  263MOL0     C36161   2.881   5.538   5.082  0.0572  0.3198  0.5339
  263MOL0     C36162   2.960   5.545   5.196  0.6496 -0.6243  0.3543
  263MOL0     C36163   2.905   5.526   5.324 -0.6922  0.0206  0.4468
  263MOL0     O36164   2.979   5.543   5.435 -0.7708 -0.5816  0.0842
  263MOL0     C36165   3.117   5.496   5.446 -0.0942 -0.0387 -0.6597
  263MOL0     C36166   3.119   5.345   5.471  0.3665  0.4640  0.1275
  263MOL0     C36167   3.048   5.315   5.607  0.2004 -0.0985 -0.7215
  263MOL0     C36168   3.028   5.165   5.616  1.0114  0.0280  0.9628
  263MOL0     C36169   2.950   5.109   5.732  0.4905 -0.2973 -0.1978
  263MOL0     C36170   3.001   5.155   5.873 -0.0568  0.2905  0.0276
  263MOL0     C36171   2.920   5.115   5.989 -0.2922 -0.8202 -0.1407
  263MOL0     C36172   2.787   5.199   5.992  0.2902  0.0225 -0.0540
  263MOL0     N36173   2.708   5.166   6.114 -0.3538 -0.0724 -0.7295
  263MOL0     C36174   2.752   5.210   6.236  0.4022  0.7088 -0.3167
  263MOL0     C36175   2.693   5.128   6.331  0.9240 -1.0476  0.1111
  263MOL0     C36176   2.706   5.145   6.481  0.2998 -0.0207 -0.7950
  263MOL0     C36177   2.797   5.042   6.542  0.3937  0.6615 -0.2220
  263MOL0     C36178   2.943   5.080   6.497  0.1725  0.0892  0.6713
  263MOL0     C36179   3.050   4.983   6.555  0.5180 -0.5621  0.0022
  263MOL0     O36180   3.026   4.847   6.510  0.3718 -0.1943  0.2933
  263MOL0     C36181   3.080   4.739   6.581 -0.9188 -0.0692 -0.8101
  263MOL0     C36182   3.180   4.740   6.678 -0.0589  1.0793  1.1772
  263MOL0     C36183   3.230   4.626   6.741 -0.0305  0.1333 -0.9831
  263MOL0     C36184   3.340   4.638   6.848  0.9401  0.4500 -0.7419
  263MOL0     C36185   3.170   4.496   6.712 -0.1341  0.0525  0.9877
  263MOL0     C36186   3.212   4.365   6.766  0.3196 -0.1606 -0.0885
  263MOL0     O36187   3.156   4.263   6.701 -0.3243  0.2305 -0.1847
  263MOL0     C36188   3.197   4.138   6.741 -0.7319  0.4268 -0.3108
  263MOL0     C36189   3.328   4.093   6.753  0.0348 -0.0597 -1.0147
  263MOL0     C36190   3.348   3.953   6.797 -1.1029 -0.1101 -0.6940
  263MOL0     C36191   3.251   3.875   6.838  0.6872  0.1618 -0.1080
  263MOL0     O36192   3.306   3.758   6.880  0.3530  0.6760  0.1486
  263MOL0     C36193   3.241   3.661   6.960 -1.5338  0.8404  0.5794
  263MOL0     C36194   3.181   3.556   6.860  0.5177  0.4226 -0.6818
  263MOL0     C36195   3.154   3.425   6.939 -0.1043 -0.8023 -0.2457
  263MOL0     C36196   3.082   3.310   6.866 -0.3854 -0.4744 -0.2192
  263MOL0     C36197   3.076   3.170   6.945 -0.6358  0.5011 -0.3426
  263MOL0     C36198   3.000   3.083   6.849  0.0007 -0.1433  0.1345
  263MOL0     C36199   3.004   2.935   6.905  0.0826 -0.0074 -0.8163
  263MOL0     C36200   3.081   2.850   6.820 -0.1565  0.2366  1.1309
  263MOL0    Cl36201   3.009   2.812   6.656 -0.7419  0.3106  0.5979
  263MOL0     C36202   3.123   3.910   6.826  1.4611  0.1911 -0.1285
  263MOL0     C36203   3.098   4.036   6.774  0.5299 -0.1187 -0.1233
  263MOL0     O36204   3.269   4.358   6.878 -0.3875  0.2926 -0.1557
  263MOL0     C36205   3.070   4.501   6.606 -0.2769  0.4150 -0.0511
  263MOL0     C36206   3.023   4.621   6.547 -0.6588 -0.2633  0.7165
  263MOL0     N36207   2.615   5.037   6.264  0.6402 -0.0802 -0.8208
  263MOL0     N36208   2.631   5.050   6.135 -0.2350  1.0438  0.0197
  263MOL0     C36209   2.777   5.499   5.332  0.3713 -0.1518 -0.4298
  263MOL0     C36210   2.691   5.489   5.217 -1.3152  0.4031 -0.3957
  263MOL0     C36211   2.511   5.470   4.796  0.8388  0.7643  0.3053
  263MOL0     C36212   2.487   5.361   4.697 -1.8315 -0.4275 -0.9426
  263MOL0     C36213   2.400   5.381   4.592 -0.5079  1.1397 -0.4111
  263MOL0     C36214   2.340   5.501   4.575  0.1560 -0.1173 -0.4023
  263MOL0     O36215   2.264   5.537   4.469 -0.1125  0.5901 -0.4248
  263MOL0     C36216   2.216   5.443   4.380  0.1415  0.0540  0.0703
  263MOL0     C36217   2.121   5.519   4.284  0.0978 -0.2503 -0.2201
  263MOL0     C36218   2.158   5.664   4.253 -0.4590  0.1195  0.1910
  263MOL0     C36219   2.083   5.719   4.134  0.7434 -0.4020  0.6212
  263MOL0     C36220   2.126   5.683   4.000 -0.3072  0.0066 -0.5423
  263MOL0     C36221   2.176   5.643   3.893 -0.0414 -1.4745 -0.1935
  263MOL0     C36222   2.363   5.608   4.669 -0.3749 -0.8394  1.5170
  263MOL0     C36223   2.444   5.594   4.776 -1.1723 -0.2771 -0.9741
  263MOL0     C36224   2.435   5.690   4.898  0.1942  0.3548  0.6845
  263MOL0     H36225   2.921   5.546   4.981  0.8896 -2.6974  0.5155
  263MOL0     H36226   3.067   5.559   5.185  1.1076 -3.3484  0.6063
  263MOL0     H36227   3.164   5.555   5.526 -3.1057  1.0353  0.4668
  263MOL0     H36228   3.172   5.516   5.354 -0.1377  3.1260 -0.1051
  263MOL0     H36229   3.062   5.306   5.386  2.4691  0.0038 -1.1570
  263MOL0     H36230   3.218   5.300   5.484 -1.6753 -3.6786  3.3460
  263MOL0     H36231   3.102   5.366   5.687  1.5363 -0.0022 -1.6468
  263MOL0     H36232   2.948   5.358   5.599  0.3486  0.7489  1.3883
  263MOL0     H36233   2.968   5.143   5.527 -0.5398  1.7888  1.5189
  263MOL0     H36234   3.127   5.119   5.607  2.0187  1.9219  1.9589
  263MOL0     H36235   2.954   4.999   5.733  0.0202 -0.3155  0.1992
  263MOL0     H36236   2.843   5.134   5.725 -0.2741 -2.3697  2.3872
  263MOL0     H36237   3.098   5.109   5.895 -0.4506  0.6676  3.0076
  263MOL0     H36238   3.012   5.263   5.870 -1.8045  0.5586  1.1681
  263MOL0     H36239   2.973   5.140   6.081 -3.2344 -2.6778  2.2372
  263MOL0     H36240   2.897   5.009   5.990 -2.9635 -0.3767  3.0216
  263MOL0     H36241   2.807   5.306   6.002  0.3529 -0.2008  3.4703
  263MOL0     H36242   2.736   5.169   5.900 -0.0681 -0.0363  0.1624
  263MOL0     H36243   2.828   5.285   6.254 -1.3728  1.8722  3.2631
  263MOL0     H36244   2.607   5.140   6.527  1.7386 -3.1027  2.4565
  263MOL0     H36245   2.753   5.243   6.500  0.7404 -0.1367 -1.2746
  263MOL0     H36246   2.789   5.054   6.651 -1.2144  0.6233 -0.3152
  263MOL0     H36247   2.772   4.941   6.510 -1.3029  0.3394  1.8636
  263MOL0     H36248   2.955   5.079   6.388  2.1667  1.6403  0.8082
  263MOL0     H36249   2.958   5.181   6.537  1.2432  0.9274 -1.6845
  263MOL0     H36250   3.147   5.020   6.520  0.6500  0.6881  1.5532
  263MOL0     H36251   3.050   4.991   6.664 -0.3451  1.3645 -0.0834
  263MOL0     H36252   3.222   4.836   6.706 -0.4243  1.1807  1.3876
  263MOL0     H36253   3.408   4.558   6.819 -1.4476 -0.4414 -4.6088
  263MOL0     H36254   3.303   4.637   6.951 -0.7382  2.2861 -1.2484
  263MOL0     H36255   3.404   4.726   6.848  2.3555 -0.5209  1.0345
  263MOL0     H36256   3.415   4.154   6.734  0.1546  0.2163  0.3522
  263MOL0     H36257   3.448   3.917   6.821 -1.2367  0.9265  1.7726
  263MOL0     H36258   3.317   3.599   7.009 -1.9619  0.1787  0.4071
  263MOL0     H36259   3.168   3.709   7.026 -2.4315  1.1478 -0.6125
  263MOL0     H36260   3.098   3.595   6.800 -2.0614 -3.8382 -0.3311
  263MOL0     H36261   3.247   3.523   6.780  0.5128 -1.3167 -0.0228
  263MOL0     H36262   3.103   3.467   7.026  1.3996 -0.6535  0.5949
  263MOL0     H36263   3.253   3.380   6.956 -0.5009 -1.6234 -0.0317
  263MOL0     H36264   3.127   3.294   6.768  0.8657  2.6529 -0.2477
  263MOL0     H36265   2.979   3.344   6.856 -0.7347 -1.7075 -1.1071
  263MOL0     H36266   3.170   3.123   6.976 -0.2512  0.4717 -1.5025
  263MOL0     H36267   3.022   3.183   7.039  0.5323  0.6841  0.3337
  263MOL0     H36268   3.045   3.085   6.749  0.8001 -1.0709  0.4625
  263MOL0     H36269   2.895   3.113   6.844  0.3664  1.0466 -2.6989
  263MOL0     H36270   2.903   2.896   6.917  0.4788 -0.9199 -0.3059
  263MOL0     H36271   3.040   2.936   7.009 -4.2904  0.8002  0.9080
  263MOL0     H36272   3.107   2.754   6.865  0.1772  1.0886  2.8546
  263MOL0     H36273   3.180   2.889   6.794 -0.5521  0.1463 -0.6534
  263MOL0     H36274   3.038   3.848   6.853  1.9758  0.5287  2.4800
  263MOL0     H36275   2.996   4.072   6.782  0.6636  0.6267 -1.5160
  263MOL0     H36276   3.024   4.410   6.570 -1.0854  0.8640 -0.1713
  263MOL0     H36277   2.944   4.622   6.473 -0.4023  1.9400  0.4009
  263MOL0     H36278   2.734   5.481   5.430  0.0695 -1.9702 -0.8587
  263MOL0     H36279   2.587   5.461   5.230 -0.5582 -2.2313  0.5831
  263MOL0     H36280   2.527   5.261   4.705 -1.5665 -0.1923  0.9135
  263MOL0     H36281   2.376   5.290   4.539  0.5788  1.5027 -1.5885
  263MOL0     H36282   2.300   5.400   4.325 -0.2268  1.5445 -1.7567
  263MOL0     H36283   2.156   5.368   4.432 -0.9120 -0.6058 -2.0082
  263MOL0     H36284   2.021   5.524   4.329 -0.3707  2.8253 -1.3488
  263MOL0     H36285   2.119   5.457   4.194  0.0257  0.6221 -0.8304
  263MOL0     H36286   2.124   5.731   4.333  0.5940  0.3639  0.4528
  263MOL0     H36287   2.266   5.676   4.241 -0.4335 -0.9186 -0.8198
  263MOL0     H36288   2.078   5.828   4.134 -1.0863 -0.4557  1.3835
  263MOL0     H36289   1.982   5.677   4.134 -0.3237  2.0239  0.5683
  263MOL0     H36290   2.234   5.619   3.807  0.8497  0.7738 -0.3054
  263MOL0     H36291   2.320   5.702   4.636 -1.4893 -2.0751 -0.8468
  263MOL0     H36292   2.343   5.748   4.885  0.2265  0.6055  1.4810
  263MOL0     H36293   2.423   5.630   4.989 -1.7859  0.9270  0.8540
  263MOL0     H36294   2.523   5.755   4.895  0.5722 -0.1421  0.8838
  264MOL0     O36295   7.513   5.639   8.661 -0.0168  0.7842 -0.1391
  264MOL0     C36296   7.578   5.538   8.685  0.0459 -0.0026 -0.1843
  264MOL0     O36297   7.698   5.534   8.738  0.1816 -0.2627 -0.1761
  264MOL0     C36298   7.771   5.647   8.732  0.0943  0.2058 -0.2621
  264MOL0     C36299   7.858   5.659   8.625 -0.6900 -0.5629  0.6928
  264MOL0     C36300   7.946   5.772   8.613  0.2247 -0.5540 -0.3750
  264MOL0     C36301   7.934   5.877   8.713 -0.2270 -0.5844 -0.8280
  264MOL0     O36302   8.002   5.993   8.682 -0.5486  0.8109  0.6429
  264MOL0     C36303   7.926   6.114   8.704 -0.2376  0.4951  0.1497
  264MOL0     C36304   8.012   6.214   8.636 -0.9534  0.0908 -0.5570
  264MOL0     C36305   7.959   6.357   8.649 -0.4372 -1.0608 -0.2254
  264MOL0     C36306   8.057   6.459   8.588 -0.2648 -0.0321 -0.2161
  264MOL0     C36307   8.007   6.599   8.598 -0.3947 -1.0477  0.1804
  264MOL0     C36308   7.915   6.621   8.476  0.3059 -0.9615 -0.4512
  264MOL0     C36309   7.877   6.768   8.464 -0.7106 -0.2941  0.1406
  264MOL0     C36310   7.965   6.839   8.370 -0.2082  0.8764  0.4930
  264MOL0     N36311   7.931   6.978   8.359  0.1100 -0.0927 -0.2748
  264MOL0     C36312   7.815   7.036   8.319  0.8960 -0.7736  0.1170
  264MOL0     C36313   7.836   7.173   8.304 -0.5540  0.0200 -0.0843
  264MOL0     C36314   7.731   7.276   8.284  0.3818  0.6455 -0.2180
  264MOL0     C36315   7.650   7.289   8.416 -0.4345 -0.7229 -0.4630
  264MOL0     C36316   7.739   7.321   8.536  0.5445  0.3191  0.2184
  264MOL0     C36317   7.664   7.301   8.668  0.2785 -0.2201  0.2397
  264MOL0     O36318   7.590   7.424   8.699 -0.2148 -0.3451  0.0187
  264MOL0     C36319   7.524   7.427   8.822 -0.7634  0.7176  0.0757
  264MOL0     C36320   7.456   7.539   8.855  0.5838  0.1389  0.8875
  264MOL0     C36321   7.361   7.560   8.960 -0.7484 -0.1833  0.5045
  264MOL0     C36322   7.291   7.695   8.984  0.6100 -0.7074 -0.1718
  264MOL0     C36323   7.337   7.452   9.048 -0.1384  0.0564  0.2062
  264MOL0     C36324   7.235   7.453   9.156 -0.8351 -0.9875  0.0067
  264MOL0     O36325   7.179   7.331   9.173 -0.0107  0.4072 -0.2789
  264MOL0     C36326   7.115   7.317   9.288  0.4345  0.4748 -1.3655
  264MOL0     C36327   7.186   7.298   9.405 -1.1395 -0.6148  0.7826
  264MOL0     C36328   7.126   7.257   9.522  0.6388 -0.3688  0.6088
  264MOL0     C36329   6.981   7.253   9.531 -0.3753  0.3195 -0.3270
  264MOL0     O36330   6.918   7.230   9.648 -0.0670 -0.0150 -0.5192
  264MOL0     C36331   6.978   7.203   9.769  0.0463  0.7488 -0.0873
  264MOL0     C36332   6.874   7.192   9.881  0.4128  0.3319 -0.6741
  264MOL0     C36333   6.940   7.140  10.015 -0.0981  0.2442  0.5578
  264MOL0     C36334   6.847   7.162  10.135  0.2343  1.2284  0.2429
  264MOL0     C36335   6.899   7.127  10.267 -0.5477 -0.0293  0.0231
  264MOL0     C36336   6.809   7.187  10.380  0.3960  0.1079  0.4844
  264MOL0     C36337   6.875   7.166  10.512 -0.1077  0.1401 -1.5384
  264MOL0     C36338   6.809   7.223  10.637 -0.3175 -0.3126 -0.7980
  264MOL0    Cl36339   6.631   7.186  10.645  0.0165  0.2480  0.0155
  264MOL0     C36340   6.916   7.299   9.410  0.6153 -0.1854 -0.7747
  264MOL0     C36341   6.974   7.328   9.289 -0.2885  0.4644  0.6566
  264MOL0     O36342   7.219   7.550   9.230  0.2702  0.6542  0.2777
  264MOL0     C36343   7.407   7.332   9.016 -1.1465  0.8203 -0.1524
  264MOL0     C36344   7.503   7.318   8.904  0.7245  0.2693  0.2714
  264MOL0     N36345   7.964   7.191   8.337  0.3334  0.6917  1.2218
  264MOL0     N36346   8.023   7.079   8.362 -0.4726  0.7235 -0.0927
  264MOL0     C36347   7.839   5.862   8.817  0.1956 -0.8101 -0.5951
  264MOL0     C36348   7.767   5.744   8.832 -0.2350 -0.3057  0.4870
  264MOL0     C36349   7.518   5.409   8.654  0.4688  0.3690 -0.6143
  264MOL0     C36350   7.614   5.312   8.606 -0.7001 -0.1266  0.3126
  264MOL0     C36351   7.580   5.186   8.549  0.3705 -0.4289 -0.0946
  264MOL0     C36352   7.444   5.163   8.544 -0.5705 -0.3517  0.1092
  264MOL0     O36353   7.411   5.052   8.480  0.1901  0.2738 -0.0795
  264MOL0     C36354   7.291   5.055   8.406  0.7552  0.4973  1.1224
  264MOL0     C36355   7.314   4.982   8.274  0.3331 -0.3512 -0.7779
  264MOL0     C36356   7.367   5.089   8.171 -0.4130 -0.8091 -0.9073
  264MOL0     C36357   7.390   5.030   8.036 -0.5968 -0.2502 -0.0551
  264MOL0     C36358   7.450   4.891   8.037 -0.1873 -0.3682  0.5400
  264MOL0     C36359   7.497   4.784   8.041 -0.4196  0.2508  0.1960
  264MOL0     C36360   7.347   5.251   8.600  0.4153 -0.0253  0.1433
  264MOL0     C36361   7.383   5.373   8.664  0.5528 -0.0766  0.9073
  264MOL0     C36362   7.267   5.442   8.745 -1.0320  0.7427 -0.1007
  264MOL0     H36363   7.870   5.574   8.560 -0.7603 -0.5661  0.6835
  264MOL0     H36364   8.014   5.777   8.528 -0.0757 -0.6171 -0.6193
  264MOL0     H36365   7.923   6.131   8.812 -0.0852 -0.9533  0.3989
  264MOL0     H36366   7.822   6.108   8.670  0.7433 -0.3204 -2.9899
  264MOL0     H36367   8.116   6.201   8.667 -0.8812 -0.5977 -1.0708
  264MOL0     H36368   8.008   6.192   8.529  3.2642  3.0026 -1.5755
  264MOL0     H36369   7.863   6.360   8.596 -0.7239  1.6231  0.2736
  264MOL0     H36370   7.929   6.368   8.754  2.1488 -2.3276  0.7216
  264MOL0     H36371   8.154   6.453   8.639 -0.9873 -2.3740  1.0211
  264MOL0     H36372   8.056   6.428   8.483 -1.5909  0.1289 -0.2589
  264MOL0     H36373   8.089   6.672   8.595 -0.3899 -0.8548  2.8324
  264MOL0     H36374   7.952   6.613   8.691 -0.1924  0.0352  0.1507
  264MOL0     H36375   7.966   6.585   8.385  1.5621 -0.5527  0.0668
  264MOL0     H36376   7.826   6.563   8.500  0.2434 -0.5248  0.3807
  264MOL0     H36377   7.869   6.811   8.564  3.0019 -0.0912  0.4915
  264MOL0     H36378   7.777   6.769   8.421 -0.2871  3.2243 -1.0729
  264MOL0     H36379   8.072   6.825   8.383 -0.3483 -1.2205 -0.2315
  264MOL0     H36380   7.937   6.789   8.277 -1.8627 -0.8566  1.8387
  264MOL0     H36381   7.720   6.984   8.319  0.1164  0.5976  0.9613
  264MOL0     H36382   7.662   7.249   8.203 -1.0225  1.9111  0.5031
  264MOL0     H36383   7.776   7.375   8.274  2.2862 -0.0608  0.9688
  264MOL0     H36384   7.575   7.367   8.401 -1.9498 -2.0272  0.0506
  264MOL0     H36385   7.599   7.193   8.430 -1.0008 -0.8175 -2.7786
  264MOL0     H36386   7.826   7.255   8.526  2.0774  2.2323  0.3782
  264MOL0     H36387   7.777   7.423   8.535  0.7329  0.2455 -0.6659
  264MOL0     H36388   7.584   7.229   8.647 -1.9996  2.2675 -0.0922
  264MOL0     H36389   7.727   7.266   8.751 -0.3408  1.7091  1.5772
  264MOL0     H36390   7.487   7.622   8.793 -2.5358 -0.2941 -1.4898
  264MOL0     H36391   7.295   7.768   8.902  1.7263  0.0485  0.5205
  264MOL0     H36392   7.342   7.741   9.069 -0.1362 -0.9334  0.4109
  264MOL0     H36393   7.184   7.674   8.993  0.4374 -0.3084 -1.1355
  264MOL0     H36394   7.294   7.298   9.392 -1.0148  0.9058  1.5553
  264MOL0     H36395   7.200   7.232   9.597  3.0811  0.5668 -1.3651
  264MOL0     H36396   7.041   7.115   9.764  0.8972  1.4176 -2.7329
  264MOL0     H36397   7.052   7.278   9.798  0.1106  0.9726 -0.8053
  264MOL0     H36398   6.836   7.294   9.886 -1.2741 -0.0382 -3.4163
  264MOL0     H36399   6.790   7.127   9.855 -1.7545  2.0891  1.4690
  264MOL0     H36400   7.030   7.190  10.050 -1.6202  1.5254  2.9446
  264MOL0     H36401   6.958   7.032  10.015 -1.4304 -0.0841 -2.3238
  264MOL0     H36402   6.757   7.100  10.133 -0.3271  1.2723  6.4274
  264MOL0     H36403   6.825   7.269  10.126 -0.2983  1.0950 -0.1103
  264MOL0     H36404   6.892   7.021  10.293  1.3379 -0.7800 -2.2042
  264MOL0     H36405   7.004   7.153  10.282  0.2549 -1.9615 -1.7755
  264MOL0     H36406   6.708   7.146  10.382  0.5479 -0.4999 -1.5041
  264MOL0     H36407   6.794   7.292  10.355  0.9352 -0.1015 -0.8370
  264MOL0     H36408   6.979   7.200  10.513 -0.0962  0.4648  2.2749
  264MOL0     H36409   6.873   7.057  10.528 -2.2963  0.5471  2.1234
  264MOL0     H36410   6.824   7.331  10.637  0.2968 -0.3937 -1.6662
  264MOL0     H36411   6.869   7.188  10.721  0.8552  2.5175 -0.3328
  264MOL0     H36412   6.809   7.298   9.429  0.8677 -0.6725  0.7666
  264MOL0     H36413   6.913   7.341   9.200  0.0265 -1.4878  0.1055
  264MOL0     H36414   7.391   7.242   9.074 -1.4739 -0.9592 -2.8316
  264MOL0     H36415   7.549   7.222   8.888 -0.1052 -0.1701  0.4573
  264MOL0     H36416   7.830   5.946   8.884 -0.7447 -0.5532 -1.0249
  264MOL0     H36417   7.695   5.746   8.913  0.8117  1.5590  1.4366
  264MOL0     H36418   7.717   5.348   8.599 -1.7498  3.0577 -0.8185
  264MOL0     H36419   7.652   5.113   8.514  0.0823  0.1363 -1.9916
  264MOL0     H36420   7.213   5.006   8.464  1.8823  0.8960  3.0381
  264MOL0     H36421   7.255   5.156   8.385 -1.2692  0.0732  2.2798
  264MOL0     H36422   7.221   4.937   8.237  1.2638 -3.1308  0.0296
  264MOL0     H36423   7.378   4.895   8.290  1.4956  0.7555  0.8515
  264MOL0     H36424   7.306   5.179   8.163 -3.6094 -2.7808 -0.6534
  264MOL0     H36425   7.464   5.116   8.213 -1.7844 -0.4908  2.3484
  264MOL0     H36426   7.447   5.092   7.967 -1.9112 -0.2529 -1.1868
  264MOL0     H36427   7.293   5.017   7.988  0.0839  1.3789 -1.9956
  264MOL0     H36428   7.542   4.687   8.042  1.4681  1.0819 -0.0819
  264MOL0     H36429   7.241   5.227   8.599  0.0025  1.7054  0.0605
  264MOL0     H36430   7.241   5.381   8.831  1.0661  0.6465  0.5223
  264MOL0     H36431   7.293   5.538   8.791  3.8524 -0.4244  0.1332
  264MOL0     H36432   7.178   5.450   8.682 -0.2430  2.3408 -1.0958
  265MOL0     O36433   1.473  11.376   9.929 -0.3416  0.4176  0.6180
  265MOL0     C36434   1.579  11.424   9.891  0.8161 -0.3347 -0.1415
  265MOL0     O36435   1.692  11.356   9.858  0.0286 -0.5528 -1.1788
  265MOL0     C36436   1.695  11.228   9.820 -0.1713  0.3924 -0.7482
  265MOL0     C36437   1.809  11.153   9.853  0.0817  0.0101  0.3488
  265MOL0     C36438   1.818  11.020   9.815  0.1202 -0.4033 -0.2315
  265MOL0     C36439   1.718  10.960   9.737 -0.6856 -0.4528  0.3704
  265MOL0     O36440   1.717  10.832   9.690  0.2348 -0.0366  0.0714
  265MOL0     C36441   1.851  10.786   9.658 -1.2022 -0.0626 -0.1566
  265MOL0     C36442   1.826  10.691   9.552 -0.3524 -0.8629  1.0284
  265MOL0     C36443   1.797  10.557   9.609  0.8708  0.6194  0.6373
  265MOL0     C36444   1.786  10.451   9.502 -0.3396  0.2757  0.8089
  265MOL0     C36445   1.750  10.321   9.563 -1.0667  0.4749 -0.2618
  265MOL0     C36446   1.764  10.209   9.449 -0.3864 -1.3335  0.8022
  265MOL0     C36447   1.716  10.072   9.493  0.5884  0.2563 -0.0098
  265MOL0     C36448   1.764   9.958   9.403 -0.0326 -0.6949 -0.4186
  265MOL0     N36449   1.759   9.828   9.460 -0.2488  0.6533 -0.7976
  265MOL0     C36450   1.657   9.769   9.544  0.2863  0.5282  0.7101
  265MOL0     C36451   1.703   9.641   9.567  0.3722 -0.2292 -0.8416
  265MOL0     C36452   1.634   9.542   9.648 -0.4406  0.4296 -0.5637
  265MOL0     C36453   1.711   9.472   9.766  0.7945  0.0233 -0.1783
  265MOL0     C36454   1.690   9.321   9.783 -0.5406 -0.0218  0.4663
  265MOL0     C36455   1.556   9.273   9.833 -0.4279 -0.1212 -0.1671
  265MOL0     O36456   1.512   9.149   9.773 -0.2988 -0.4984  0.2052
  265MOL0     C36457   1.468   9.157   9.645  0.6843  0.7238 -0.7266
  265MOL0     C36458   1.472   9.031   9.570 -0.3704  0.6489 -0.1703
  265MOL0     C36459   1.431   9.044   9.438  0.9430  0.5350  0.4847
  265MOL0     C36460   1.444   8.917   9.366 -0.2648  1.3291  0.1198
  265MOL0     C36461   1.386   9.163   9.375 -0.2881 -0.6909  0.7004
  265MOL0     C36462   1.366   9.171   9.228 -0.7292 -0.6304  0.8924
  265MOL0     O36463   1.371   9.294   9.177 -0.5517  0.0631  0.0402
  265MOL0     C36464   1.406   9.321   9.046 -0.2548 -0.3488 -0.0282
  265MOL0     C36465   1.446   9.236   8.945  0.0640 -0.1383 -0.1906
  265MOL0     C36466   1.500   9.269   8.827  0.1686  0.1098  0.4792
  265MOL0     C36467   1.495   9.401   8.785  0.4405  0.5653  0.2211
  265MOL0     O36468   1.535   9.448   8.664 -0.7695 -0.5601  0.3114
  265MOL0     C36469   1.553   9.370   8.545  0.8871  0.0327 -0.3254
  265MOL0     C36470   1.546   9.442   8.416  0.7491  0.1132 -0.3431
  265MOL0     C36471   1.409   9.501   8.391 -0.3623  0.3179  0.4923
  265MOL0     C36472   1.412   9.590   8.272 -0.0384 -0.3652 -0.1546
  265MOL0     C36473   1.276   9.638   8.235  0.8971 -0.0771 -0.7756
  265MOL0     C36474   1.224   9.756   8.320 -0.3381  0.4702 -0.0516
  265MOL0     C36475   1.081   9.735   8.363  0.7108 -0.3047 -0.6457
  265MOL0     C36476   1.039   9.842   8.457 -0.7917  0.3086  0.4560
  265MOL0    Cl36477   0.875   9.832   8.518 -0.1323  0.3802  0.0582
  265MOL0     C36478   1.447   9.501   8.879 -0.4634 -0.4464  0.1409
  265MOL0     C36479   1.405   9.456   9.011 -0.0763  0.0570  0.1275
  265MOL0     O36480   1.332   9.072   9.163 -0.6016 -0.8782 -0.2016
  265MOL0     C36481   1.362   9.269   9.457 -0.3663  0.1817 -0.3401
  265MOL0     C36482   1.406   9.272   9.589 -0.1531 -1.1660  0.6136
  265MOL0     N36483   1.831   9.634   9.518  0.4549  0.0829 -0.0819
  265MOL0     N36484   1.858   9.739   9.450  0.5489  0.2190  0.2884
  265MOL0     C36485   1.604  11.035   9.707 -0.6373 -0.2932 -0.7349
  265MOL0     C36486   1.592  11.170   9.743  0.8127  0.3866 -0.1339
  265MOL0     C36487   1.584  11.573   9.892  0.1501  0.1441 -0.3578
  265MOL0     C36488   1.698  11.637   9.938 -0.2772  0.5848 -0.2960
  265MOL0     C36489   1.702  11.774   9.952  0.1905 -0.2523  0.3881
  265MOL0     C36490   1.597  11.856   9.927  1.4293  0.2920 -0.6137
  265MOL0     O36491   1.597  11.999   9.945  0.0107 -0.3675  0.7585
  265MOL0     C36492   1.690  12.064  10.019 -0.4721  0.2332 -0.6649
  265MOL0     C36493   1.644  12.156  10.125  0.0544 -0.1173 -0.2491
  265MOL0     C36494   1.535  12.090  10.212  0.1860 -0.3060  0.0706
  265MOL0     C36495   1.423  12.187  10.239 -0.1966 -0.6243 -0.6189
  265MOL0     C36496   1.342  12.133  10.348  0.1731 -0.0234 -0.4138
  265MOL0     C36497   1.261  12.098  10.433  0.4157  0.9259 -0.1143
  265MOL0     C36498   1.471  11.788   9.899  0.2025  0.2198  0.2408
  265MOL0     C36499   1.465  11.653   9.875 -0.4111  1.1872 -0.1186
  265MOL0     C36500   1.353  11.594   9.807 -0.1781 -0.5980 -1.3819
  265MOL0     H36501   1.878  11.192   9.927  1.6437  1.3969 -1.7160
  265MOL0     H36502   1.904  10.959   9.838 -0.7848 -1.2282  1.1373
  265MOL0     H36503   1.899  10.736   9.743 -0.2166 -1.4967 -1.4959
  265MOL0     H36504   1.919  10.868   9.632 -0.5740 -0.6674 -0.4637
  265MOL0     H36505   1.744  10.718   9.484  0.9484 -1.5441 -0.9035
  265MOL0     H36506   1.917  10.689   9.491 -0.0871 -0.7237  1.4150
  265MOL0     H36507   1.872  10.522   9.681 -0.1787  1.2826  2.1198
  265MOL0     H36508   1.703  10.553   9.665 -0.1525  0.8339 -1.0032
  265MOL0     H36509   1.719  10.473   9.419 -1.2146 -1.4768  0.9920
  265MOL0     H36510   1.885  10.437   9.457 -0.8630 -0.3819 -0.1647
  265MOL0     H36511   1.654  10.321   9.616  0.4585 -1.7762  2.7862
  265MOL0     H36512   1.823  10.310   9.643  0.7416  1.5518 -1.6898
  265MOL0     H36513   1.716  10.227   9.353  2.3575  1.6907 -0.1845
  265MOL0     H36514   1.871  10.195   9.430  0.1155  3.6446 -1.4660
  265MOL0     H36515   1.607  10.066   9.505  0.2544  1.0974 -2.2694
  265MOL0     H36516   1.753  10.054   9.595 -2.4240 -2.0070  0.8222
  265MOL0     H36517   1.690   9.952   9.323 -1.3336 -3.6166  0.8406
  265MOL0     H36518   1.864   9.973   9.363  0.6368  1.3711  1.8092
  265MOL0     H36519   1.570   9.826   9.575 -0.7894 -0.8717  0.4145
  265MOL0     H36520   1.603   9.462   9.581 -0.4911  1.0045 -1.2396
  265MOL0     H36521   1.539   9.587   9.681  0.0932  1.7702 -0.7872
  265MOL0     H36522   1.817   9.488   9.745  0.7509  0.2727 -0.2138
  265MOL0     H36523   1.684   9.524   9.859 -0.6238 -2.6346  0.9852
  265MOL0     H36524   1.691   9.281   9.681 -1.1686  2.3907 -0.5659
  265MOL0     H36525   1.768   9.283   9.849 -1.9041 -2.6598  0.6614
  265MOL0     H36526   1.574   9.246   9.938 -2.6200 -2.8739 -0.3784
  265MOL0     H36527   1.483   9.353   9.817 -0.8293 -0.5692 -0.6106
  265MOL0     H36528   1.508   8.939   9.615 -1.1729  0.9063  1.0802
  265MOL0     H36529   1.484   8.835   9.428  1.0192  1.4210 -0.5498
  265MOL0     H36530   1.509   8.924   9.279  1.2088 -2.0981  0.7534
  265MOL0     H36531   1.348   8.886   9.324 -1.6284  0.4980  3.5172
  265MOL0     H36532   1.434   9.129   8.952 -2.1580  0.1245  0.9249
  265MOL0     H36533   1.527   9.188   8.760 -1.8238  1.2132 -1.8063
  265MOL0     H36534   1.651   9.323   8.551  1.3819  1.1944  1.6581
  265MOL0     H36535   1.472   9.297   8.544 -1.7347  2.7316 -1.9700
  265MOL0     H36536   1.614   9.528   8.414 -0.5631  1.2470  0.9619
  265MOL0     H36537   1.569   9.369   8.338 -0.5553  2.5603 -3.2616
  265MOL0     H36538   1.367   9.561   8.472 -1.7219  0.1024 -0.0183
  265MOL0     H36539   1.334   9.426   8.361 -0.5695  0.3643  0.8876
  265MOL0     H36540   1.456   9.536   8.188 -1.4123 -0.8004 -0.6207
  265MOL0     H36541   1.476   9.676   8.296  0.4187 -0.2523 -1.6557
  265MOL0     H36542   1.275   9.669   8.130  0.9354  0.2583 -0.6773
  265MOL0     H36543   1.213   9.549   8.237 -0.6284  0.8887 -2.5716
  265MOL0     H36544   1.227   9.852   8.268 -3.0626  1.6403  1.7429
  265MOL0     H36545   1.287   9.770   8.409 -0.8130  0.0481  0.3581
  265MOL0     H36546   1.062   9.640   8.413  0.6200 -0.2160 -0.5104
  265MOL0     H36547   1.022   9.758   8.274 -0.7170  2.2936  0.8306
  265MOL0     H36548   1.050   9.944   8.419  2.2507  0.7418  2.2171
  265MOL0     H36549   1.114   9.842   8.536  0.3812 -1.6227 -0.5601
  265MOL0     H36550   1.459   9.606   8.854  0.5552 -0.1718  1.6047
  265MOL0     H36551   1.360   9.524   9.082  0.5446 -1.1535  1.7453
  265MOL0     H36552   1.332   9.360   9.406 -0.4357 -0.1776 -0.9522
  265MOL0     H36553   1.397   9.370   9.634 -1.8777  0.0704 -2.2153
  265MOL0     H36554   1.532  11.002   9.631 -1.7001  0.9722 -0.3103
  265MOL0     H36555   1.513  11.234   9.707 -1.5030 -1.9262  0.5583
  265MOL0     H36556   1.790  11.593   9.973  1.3084  3.9761  0.2165
  265MOL0     H36557   1.794  11.824   9.979 -1.6850  4.2703 -0.6810
  265MOL0     H36558   1.760  11.996  10.070 -0.4102  1.1515  0.5165
  265MOL0     H36559   1.755  12.124   9.955 -0.6468 -1.4736 -2.5618
  265MOL0     H36560   1.608  12.251  10.083 -0.1002  0.0655  0.2768
  265MOL0     H36561   1.728  12.178  10.191 -1.8413  3.4238  1.2822
  265MOL0     H36562   1.484  12.007  10.163 -1.4980 -0.0188  1.2606
  265MOL0     H36563   1.583  12.055  10.304 -0.2442 -1.5000 -0.1478
  265MOL0     H36564   1.360  12.204  10.152 -0.0264 -1.0789 -0.8360
  265MOL0     H36565   1.466  12.285  10.259 -1.9306  0.5652 -2.3686
  265MOL0     H36566   1.185  12.070  10.502  0.8420 -1.3765 -0.4978
  265MOL0     H36567   1.388  11.854   9.878 -0.1331  0.5917  2.5264
  265MOL0     H36568   1.302  11.660   9.736  0.3191  1.9418  0.4738
  265MOL0     H36569   1.384  11.513   9.741  0.3224 -0.6807 -1.0516
  265MOL0     H36570   1.281  11.565   9.884 -1.2702 -1.7602 -2.7743
  266MOL0     O36571   1.842   2.740   4.872  0.1556 -0.0360 -0.6570
  266MOL0     C36572   1.886   2.831   4.810  0.1549 -0.4148  0.4007
  266MOL0     O36573   2.025   2.873   4.817 -0.0635 -0.6204 -0.1270
  266MOL0     C36574   2.104   2.784   4.885 -0.3306  0.2152 -1.1397
  266MOL0     C36575   2.115   2.642   4.860  0.2226  0.2098 -0.2333
  266MOL0     C36576   2.211   2.565   4.925 -0.4843 -0.2928 -0.0404
  266MOL0     C36577   2.277   2.617   5.032 -1.2698  0.3377  0.3582
  266MOL0     O36578   2.346   2.532   5.117 -0.7878 -0.0977  0.4174
  266MOL0     C36579   2.369   2.569   5.248  0.7339 -0.1214  0.4440
  266MOL0     C36580   2.403   2.442   5.329 -0.0233 -0.1049 -0.0722
  266MOL0     C36581   2.420   2.477   5.474  0.6699  0.5192  0.1911
  266MOL0     C36582   2.435   2.347   5.553  1.2237  0.6971  0.2663
  266MOL0     C36583   2.442   2.369   5.710  0.2358 -0.6265  0.1922
  266MOL0     C36584   2.307   2.404   5.767  0.1017  1.1376 -1.0672
  266MOL0     C36585   2.304   2.433   5.923  0.0916 -0.8613 -0.4777
  266MOL0     C36586   2.163   2.500   5.970  0.5030 -0.5265  0.4594
  266MOL0     N36587   2.168   2.502   6.117  0.3273 -0.7018 -0.0019
  266MOL0     C36588   2.219   2.600   6.199 -0.8876 -0.4608  0.4517
  266MOL0     C36589   2.211   2.543   6.315  0.6011  0.6102  0.1876
  266MOL0     C36590   2.238   2.626   6.432 -0.2674  0.5422  0.7835
  266MOL0     C36591   2.107   2.629   6.514  0.0144 -0.5111 -1.4010
  266MOL0     C36592   1.986   2.700   6.455 -0.6685 -0.1512 -0.3499
  266MOL0     C36593   2.022   2.844   6.421 -0.1131 -0.0526  0.0829
  266MOL0     O36594   2.055   2.907   6.543  0.4469 -0.0553  0.3547
  266MOL0     C36595   2.105   3.037   6.546  0.2382  0.4093  1.2992
  266MOL0     C36596   2.136   3.094   6.668  0.0723 -0.1076  0.0437
  266MOL0     C36597   2.171   3.229   6.684 -0.7506 -0.3354 -0.4011
  266MOL0     C36598   2.184   3.293   6.818 -0.2308  0.0009 -0.4702
  266MOL0     C36599   2.185   3.303   6.565 -0.6847  0.0834 -0.7397
  266MOL0     C36600   2.236   3.451   6.560  0.5399  0.2207 -0.3615
  266MOL0     O36601   2.211   3.523   6.448 -0.4651 -0.8938  0.1209
  266MOL0     C36602   2.254   3.651   6.421  0.1708  0.0358 -0.0252
  266MOL0     C36603   2.232   3.708   6.287  0.3181  0.4330 -0.4591
  266MOL0     C36604   2.281   3.832   6.253 -0.0465  0.2967  0.8214
  266MOL0     C36605   2.350   3.907   6.339 -0.1060 -0.2610 -0.2100
  266MOL0     O36606   2.404   4.028   6.314 -0.4179 -0.0601  0.0402
  266MOL0     C36607   2.494   4.033   6.198  0.8767  0.3971 -0.0756
  266MOL0     C36608   2.564   4.169   6.184 -0.0075 -0.6325  0.7106
  266MOL0     C36609   2.459   4.290   6.174 -0.3327  0.4549 -0.4462
  266MOL0     C36610   2.532   4.416   6.225 -0.4570  0.7714 -0.0837
  266MOL0     C36611   2.446   4.526   6.253  0.2750 -0.6404  0.2372
  266MOL0     C36612   2.400   4.601   6.129  0.1848  0.3670 -0.2598
  266MOL0     C36613   2.357   4.742   6.142  0.6590 -0.2128  0.9082
  266MOL0     C36614   2.221   4.762   6.203  0.0374 -0.6420 -0.9468
  266MOL0    Cl36615   2.096   4.755   6.067  0.6835  0.0409 -0.0851
  266MOL0     C36616   2.373   3.854   6.462 -0.3803 -0.1133 -0.5637
  266MOL0     C36617   2.325   3.729   6.515 -0.5868 -1.0767  0.1656
  266MOL0     O36618   2.301   3.490   6.657  0.4574 -0.2931  0.0094
  266MOL0     C36619   2.170   3.244   6.437  0.0910 -0.3270  0.6126
  266MOL0     C36620   2.131   3.113   6.427  0.5162 -0.2443 -0.1334
  266MOL0     N36621   2.138   2.421   6.316  0.1358  0.0656  1.6707
  266MOL0     N36622   2.121   2.400   6.191  0.1398 -0.1098 -0.6830
  266MOL0     C36623   2.282   2.763   5.043  0.4375  1.0649 -0.5957
  266MOL0     C36624   2.194   2.845   4.974 -0.7664  0.2176 -0.6837
  266MOL0     C36625   1.793   2.930   4.754 -0.6226  0.6732 -0.0199
  266MOL0     C36626   1.813   3.061   4.776 -0.4717  0.4077 -0.5662
  266MOL0     C36627   1.726   3.164   4.743 -0.2851  0.0408 -0.5364
  266MOL0     C36628   1.615   3.136   4.667 -0.5581 -0.6815  0.1908
  266MOL0     O36629   1.525   3.234   4.630 -0.4929 -0.2627 -0.2988
  266MOL0     C36630   1.387   3.213   4.669  0.3933  0.3467 -1.0651
  266MOL0     C36631   1.304   3.141   4.565 -0.1824 -0.8082  0.0055
  266MOL0     C36632   1.327   3.191   4.413 -0.7463 -0.8794  0.0521
  266MOL0     C36633   1.246   3.124   4.305 -0.4641  0.6404 -0.1213
  266MOL0     C36634   1.276   3.156   4.167  1.2431  0.5995  1.4000
  266MOL0     C36635   1.298   3.189   4.054  0.3780 -0.7500  0.9418
  266MOL0     C36636   1.599   3.002   4.626  0.7708  0.5440 -1.1140
  266MOL0     C36637   1.672   2.897   4.675  1.1101  0.0161 -0.3440
  266MOL0     C36638   1.638   2.752   4.628 -0.2014 -0.1815 -0.1226
  266MOL0     H36639   2.078   2.583   4.777  3.2597 -3.3825  0.6893
  266MOL0     H36640   2.224   2.458   4.909 -3.3502 -1.0501  1.9157
  266MOL0     H36641   2.273   2.605   5.285 -0.2347 -1.5565 -0.5501
  266MOL0     H36642   2.446   2.646   5.253 -1.3419  2.0857  0.1002
  266MOL0     H36643   2.314   2.378   5.327 -0.3073  0.2385  0.9107
  266MOL0     H36644   2.494   2.398   5.288  0.9281  1.9925 -0.3225
  266MOL0     H36645   2.517   2.529   5.478  0.8469  0.1936  0.1855
  266MOL0     H36646   2.344   2.551   5.497  2.6001  2.7026 -0.1175
  266MOL0     H36647   2.363   2.267   5.535  2.4489 -0.0817 -1.3334
  266MOL0     H36648   2.532   2.307   5.523  0.2886 -0.2345 -1.6482
  266MOL0     H36649   2.499   2.459   5.736 -0.9057  1.2368 -3.1855
  266MOL0     H36650   2.477   2.282   5.766 -0.3316 -0.7462  0.3693
  266MOL0     H36651   2.263   2.493   5.720  0.1992  2.0860  0.5550
  266MOL0     H36652   2.238   2.327   5.735 -2.1122  2.1280  0.9968
  266MOL0     H36653   2.383   2.504   5.950 -0.8610 -0.4259  1.3538
  266MOL0     H36654   2.327   2.344   5.982  0.7129 -0.1221  0.4359
  266MOL0     H36655   2.150   2.597   5.923 -1.0797 -1.2417 -0.6463
  266MOL0     H36656   2.074   2.443   5.942 -0.2698  0.2403  1.3093
  266MOL0     H36657   2.242   2.704   6.178 -2.1686 -0.3144 -0.2930
  266MOL0     H36658   2.273   2.725   6.404 -1.5410  0.8934  0.3682
  266MOL0     H36659   2.320   2.580   6.489  2.4255  1.2011 -2.2801
  266MOL0     H36660   2.072   2.531   6.549  2.7218 -0.1929  2.9073
  266MOL0     H36661   2.127   2.680   6.608 -4.8545 -2.5692  1.1230
  266MOL0     H36662   1.951   2.649   6.365  1.5688  2.1580 -2.7036
  266MOL0     H36663   1.907   2.700   6.530  1.7353 -0.1064  2.3542
  266MOL0     H36664   2.113   2.846   6.361 -2.0829 -0.5190 -3.2272
  266MOL0     H36665   1.945   2.889   6.357 -0.7720 -1.6287 -0.2952
  266MOL0     H36666   2.116   3.033   6.756  3.1945 -0.2710  0.7628
  266MOL0     H36667   2.291   3.307   6.838  0.4172  0.4408 -3.6831
  266MOL0     H36668   2.143   3.233   6.900  0.7982 -0.4310 -0.2532
  266MOL0     H36669   2.125   3.385   6.828 -0.1732 -0.1610  1.7091
  266MOL0     H36670   2.179   3.652   6.210 -1.2159  1.8147 -0.4740
  266MOL0     H36671   2.260   3.878   6.157  5.2821  0.8732 -0.3476
  266MOL0     H36672   2.557   3.944   6.198 -0.5491 -0.7217  2.4023
  266MOL0     H36673   2.442   4.030   6.102  2.5791  1.8359 -1.1147
  266MOL0     H36674   2.624   4.171   6.276 -0.2820 -1.1872  0.9030
  266MOL0     H36675   2.632   4.180   6.099 -1.8403  0.1164 -0.7351
  266MOL0     H36676   2.367   4.266   6.227  1.0423  0.6242  2.1810
  266MOL0     H36677   2.427   4.297   6.069 -1.0714 -1.0897 -0.3515
  266MOL0     H36678   2.613   4.444   6.157 -0.9307  1.6989 -0.2868
  266MOL0     H36679   2.573   4.394   6.324 -3.4692  1.0194  1.3436
  266MOL0     H36680   2.359   4.503   6.315 -1.0928  4.0794  0.3941
  266MOL0     H36681   2.495   4.593   6.324  1.8321  1.0339 -2.2194
  266MOL0     H36682   2.314   4.545   6.092 -1.1257  1.4548  1.0271
  266MOL0     H36683   2.480   4.593   6.054 -0.7087 -0.4398 -1.1508
  266MOL0     H36684   2.372   4.786   6.043  1.9054 -1.4094  0.5358
  266MOL0     H36685   2.435   4.778   6.210 -0.0691 -2.2767  2.9745
  266MOL0     H36686   2.214   4.856   6.259  1.4150 -1.1038  0.0536
  266MOL0     H36687   2.207   4.680   6.274  1.0222  0.6440  0.8197
  266MOL0     H36688   2.417   3.923   6.534 -3.2016  0.0262  1.1641
  266MOL0     H36689   2.348   3.710   6.619  3.4043 -0.2466 -0.3954
  266MOL0     H36690   2.176   3.297   6.342  1.1883 -0.9656  0.3024
  266MOL0     H36691   2.102   3.069   6.333 -2.2591 -0.9314  0.9337
  266MOL0     H36692   2.355   2.791   5.119 -1.4606 -2.0680  2.7199
  266MOL0     H36693   2.189   2.953   4.977  0.8296  0.3198 -0.8505
  266MOL0     H36694   1.900   3.088   4.835  0.1975 -0.3906 -1.1681
  266MOL0     H36695   1.736   3.267   4.774  1.9133 -0.0474 -0.8097
  266MOL0     H36696   1.392   3.150   4.758  2.8250 -0.3465 -1.6224
  266MOL0     H36697   1.330   3.304   4.693  0.5053  0.0410  0.4861
  266MOL0     H36698   1.199   3.150   4.593  0.4746  0.4980  2.2913
  266MOL0     H36699   1.320   3.033   4.567 -3.4835 -1.4173 -0.5478
  266MOL0     H36700   1.297   3.296   4.406  1.5373 -0.1227  0.6571
  266MOL0     H36701   1.430   3.180   4.378 -0.3951  2.6300 -0.3655
  266MOL0     H36702   1.141   3.156   4.312  0.1565  2.3838  3.5413
  266MOL0     H36703   1.253   3.016   4.319 -0.6195  0.9077  2.4618
  266MOL0     H36704   1.346   3.219   3.963  0.0967 -0.4067  0.9078
  266MOL0     H36705   1.508   2.981   4.571 -1.2221  0.4829  1.9230
  266MOL0     H36706   1.604   2.697   4.716 -1.1158  0.1069 -0.2893
  266MOL0     H36707   1.560   2.736   4.553 -0.9528  3.1198 -0.2263
  266MOL0     H36708   1.735   2.715   4.594 -0.7277 -0.3886 -1.4658
  267MOL0     O36709  11.121   7.802   8.881 -0.1647  0.0043 -0.0493
  267MOL0     C36710  11.028   7.787   8.963 -0.0816  0.8615  0.3283
  267MOL0     O36711  10.993   7.672   9.020 -0.5320 -0.6873 -1.0183
  267MOL0     C36712  11.063   7.554   8.999 -0.4925  0.3874 -1.3114
  267MOL0     C36713  11.204   7.556   8.978  0.7502  0.4310  0.1828
  267MOL0     C36714  11.262   7.430   8.957 -0.8044 -0.5968  0.4279
  267MOL0     C36715  11.202   7.309   8.957 -0.3583  0.1313 -0.2959
  267MOL0     O36716  11.273   7.194   8.926 -0.6707  1.1855  0.4389
  267MOL0     C36717  11.200   7.066   8.913 -0.3922  0.1277 -0.0532
  267MOL0     C36718  11.295   6.969   8.845  0.2119  0.2794  0.3791
  267MOL0     C36719  11.409   6.916   8.939  0.5715  0.3008 -0.2277
  267MOL0     C36720  11.365   6.840   9.061  0.3647  0.1212 -0.7040
  267MOL0     C36721  11.485   6.784   9.141 -0.3833 -1.5200  0.3587
  267MOL0     C36722  11.459   6.640   9.183 -1.2935 -0.1797  0.0893
  267MOL0     C36723  11.457   6.548   9.058 -0.3170  0.2417  0.7194
  267MOL0     C36724  11.346   6.441   9.093 -0.1359 -0.4083 -0.3824
  267MOL0     N36725  11.320   6.338   8.988 -0.6035  0.1376 -0.0092
  267MOL0     C36726  11.393   6.221   8.956  0.2448  1.0944 -0.0525
  267MOL0     C36727  11.319   6.165   8.857 -0.9115  0.1605  0.1999
  267MOL0     C36728  11.346   6.038   8.784  0.1064  0.2914  0.0336
  267MOL0     C36729  11.462   6.057   8.685  0.0096  0.1701  0.1793
  267MOL0     C36730  11.461   6.177   8.590 -0.5680  0.1653 -0.1680
  267MOL0     C36731  11.603   6.214   8.544 -0.6157 -1.0106 -0.5032
  267MOL0     O36732  11.595   6.331   8.472  0.8968 -0.1982  0.5621
  267MOL0     C36733  11.704   6.410   8.450 -0.2248 -0.5456  0.3284
  267MOL0     C36734  11.837   6.364   8.463  0.0313  0.1982 -0.5322
  267MOL0     C36735  11.948   6.452   8.438 -0.2155  0.2489  0.5194
  267MOL0     C36736  12.085   6.394   8.437  0.6259  0.0413  0.4812
  267MOL0     C36737  11.923   6.589   8.400 -0.6852 -0.1374  0.2778
  267MOL0     C36738  12.036   6.698   8.374  0.3180  0.0393 -0.1125
  267MOL0     O36739  11.994   6.834   8.389  1.0104 -0.2155 -0.1851
  267MOL0     C36740  12.070   6.933   8.358 -0.1115  0.5351  0.7061
  267MOL0     C36741  12.124   6.932   8.223 -0.0174  0.3288  0.2701
  267MOL0     C36742  12.203   7.044   8.185  0.0260  0.3429  0.2555
  267MOL0     C36743  12.223   7.159   8.267  1.1386  0.5907 -0.0917
  267MOL0     O36744  12.275   7.276   8.227  0.8942  0.2582  0.1382
  267MOL0     C36745  12.382   7.266   8.126 -0.3149 -0.6637 -0.2051
  267MOL0     C36746  12.484   7.380   8.151  0.2904 -0.1582 -0.6883
  267MOL0     C36747  12.620   7.340   8.095  0.0820  0.7281 -0.5087
  267MOL0     C36748  12.723   7.459   8.108  0.5555 -0.0372 -0.2569
  267MOL0     C36749  12.763   7.492   8.253 -0.5436  0.4475 -0.3543
  267MOL0     C36750  12.821   7.629   8.272  1.0560  0.2412 -0.7343
  267MOL0     C36751  12.919   7.679   8.159  0.4683  1.0648  0.1763
  267MOL0     C36752  13.048   7.606   8.156 -0.2592 -0.8869  0.8512
  267MOL0    Cl36753  13.125   7.622   8.304  0.1370  0.2540 -0.1815
  267MOL0     C36754  12.168   7.149   8.399 -0.2579  1.0947 -0.1408
  267MOL0     C36755  12.095   7.038   8.443 -0.5700  0.1826 -0.5240
  267MOL0     O36756  12.146   6.661   8.343 -0.6384 -0.4264  0.0835
  267MOL0     C36757  11.784   6.632   8.397  0.3272  1.0351 -0.6872
  267MOL0     C36758  11.681   6.536   8.411  0.0735 -1.0119 -1.2988
  267MOL0     N36759  11.211   6.247   8.832 -0.5407  0.2131  0.6248
  267MOL0     N36760  11.223   6.351   8.899  0.1864 -0.0793 -0.0035
  267MOL0     C36761  11.060   7.310   8.969  0.0685  0.8286 -1.0159
  267MOL0     C36762  10.989   7.429   8.981 -0.2029 -0.7730  0.4843
  267MOL0     C36763  10.953   7.901   9.018  0.3100 -0.0660  0.5940
  267MOL0     C36764  10.862   7.889   9.128  0.0297  0.3041 -0.0826
  267MOL0     C36765  10.786   7.993   9.177  0.4296  0.3239 -0.1811
  267MOL0     C36766  10.793   8.118   9.122  0.4102  0.2775 -0.1822
  267MOL0     O36767  10.714   8.224   9.158 -0.0415  0.1192 -1.1594
  267MOL0     C36768  10.720   8.257   9.299 -1.0128  0.5872  0.2284
  267MOL0     C36769  10.583   8.333   9.335 -1.1887  0.4396  0.7617
  267MOL0     C36770  10.481   8.219   9.334 -1.9348  0.3427  0.2422
  267MOL0     C36771  10.415   8.214   9.198  0.3899  0.0791 -0.1225
  267MOL0     C36772  10.304   8.309   9.200  0.1612 -0.4832 -0.1900
  267MOL0     C36773  10.207   8.380   9.170  0.6512  0.2336 -1.1277
  267MOL0     C36774  10.893   8.132   9.021 -0.1053  0.5641 -0.0810
  267MOL0     C36775  10.985   8.029   8.981  0.0807 -0.3738  0.3398
  267MOL0     C36776  11.093   8.074   8.889 -0.4978 -0.1438 -0.6515
  267MOL0     H36777  11.265   7.645   8.982  1.3006  0.0336  2.4160
  267MOL0     H36778  11.369   7.426   8.937 -0.9546 -1.0582 -0.3282
  267MOL0     H36779  11.116   7.078   8.845 -0.5673 -1.1489 -0.0756
  267MOL0     H36780  11.162   7.031   9.010 -0.7341 -2.1977 -0.9752
  267MOL0     H36781  11.238   6.886   8.801 -2.9735  1.3785  2.0822
  267MOL0     H36782  11.338   7.030   8.765  1.9223 -0.1026  0.9811
  267MOL0     H36783  11.474   6.855   8.876  0.4707  3.0452 -3.2456
  267MOL0     H36784  11.476   6.996   8.973  2.8323 -1.3293 -0.5748
  267MOL0     H36785  11.292   6.903   9.112  1.7707  2.3046 -1.2531
  267MOL0     H36786  11.307   6.752   9.034  2.9531 -2.5079  1.6308
  267MOL0     H36787  11.490   6.853   9.226  0.1553 -0.5827 -0.4151
  267MOL0     H36788  11.575   6.792   9.080 -0.2397 -0.3609  0.6978
  267MOL0     H36789  11.538   6.608   9.251  1.4572 -3.2182 -4.0835
  267MOL0     H36790  11.371   6.628   9.247 -1.2903 -4.5466 -0.4504
  267MOL0     H36791  11.558   6.513   9.038  0.0065  0.7092  1.4878
  267MOL0     H36792  11.432   6.596   8.962  0.3188  1.7029  1.2552
  267MOL0     H36793  11.381   6.402   9.189  0.4943  0.6068 -0.1836
  267MOL0     H36794  11.252   6.494   9.111 -1.0440 -1.5589 -1.5489
  267MOL0     H36795  11.486   6.191   9.004  0.7130 -1.5147 -2.3704
  267MOL0     H36796  11.265   5.996   8.723  0.2550  0.0112  0.0293
  267MOL0     H36797  11.369   5.957   8.853 -0.8198  0.2248  0.2766
  267MOL0     H36798  11.547   6.073   8.752 -2.8063  2.9333  3.4592
  267MOL0     H36799  11.488   5.966   8.630  0.1215  0.8498 -0.9339
  267MOL0     H36800  11.399   6.151   8.503 -0.2824  1.3773 -0.7464
  267MOL0     H36801  11.418   6.265   8.639 -2.7560 -1.7976  1.7212
  267MOL0     H36802  11.658   6.240   8.635 -0.2299  1.4199 -1.3392
  267MOL0     H36803  11.648   6.131   8.490  0.4503 -2.9004  2.9984
  267MOL0     H36804  11.866   6.271   8.510 -0.0450  2.0004  3.5707
  267MOL0     H36805  12.116   6.383   8.333 -4.2592  0.5792 -1.2893
  267MOL0     H36806  12.100   6.304   8.497  1.0537 -1.0687 -1.2414
  267MOL0     H36807  12.151   6.470   8.481 -1.3266  2.4329 -0.4680
  267MOL0     H36808  12.100   6.849   8.158 -1.9775 -1.0971  2.6361
  267MOL0     H36809  12.227   7.058   8.080  1.7034  2.0047  0.7944
  267MOL0     H36810  12.440   7.174   8.141 -2.3370 -2.0035 -0.2471
  267MOL0     H36811  12.338   7.263   8.026 -2.0048 -3.6485  0.4804
  267MOL0     H36812  12.456   7.475   8.105  3.6002 -0.5940 -4.0942
  267MOL0     H36813  12.484   7.407   8.257 -1.3928 -3.6294  0.3594
  267MOL0     H36814  12.601   7.307   7.992  0.7003 -1.9786  0.1577
  267MOL0     H36815  12.657   7.247   8.139 -0.0063 -0.4086 -2.7261
  267MOL0     H36816  12.676   7.546   8.062  2.0210  1.5402  1.0969
  267MOL0     H36817  12.814   7.444   8.048  0.5370  1.1614 -0.5956
  267MOL0     H36818  12.679   7.489   8.323 -2.2783  2.7395 -2.1726
  267MOL0     H36819  12.837   7.419   8.286 -1.9160 -1.4586 -1.3068
  267MOL0     H36820  12.879   7.633   8.364  0.9062  1.2949 -0.6698
  267MOL0     H36821  12.741   7.704   8.276  0.7509 -0.1288  0.9477
  267MOL0     H36822  12.937   7.786   8.168  1.1716  0.8117  2.1823
  267MOL0     H36823  12.876   7.672   8.058  2.4323  2.2056 -0.8021
  267MOL0     H36824  13.102   7.659   8.077  0.4260 -2.2105  0.4080
  267MOL0     H36825  13.029   7.502   8.126  0.6629 -1.5249  2.3478
  267MOL0     H36826  12.191   7.237   8.459 -1.0729  1.9077 -0.9944
  267MOL0     H36827  12.055   7.031   8.543  0.4609  2.6120  0.1432
  267MOL0     H36828  11.757   6.737   8.392 -0.8111  0.7530 -0.6612
  267MOL0     H36829  11.579   6.566   8.390  0.6656  0.7451 -1.8289
  267MOL0     H36830  11.001   7.220   8.960  0.4313  0.2572  1.4773
  267MOL0     H36831  10.880   7.426   8.984 -0.3867 -1.7099 -2.9127
  267MOL0     H36832  10.848   7.798   9.185  2.0995  0.4911  0.8159
  267MOL0     H36833  10.724   7.968   9.263  1.8585 -0.2894  0.7028
  267MOL0     H36834  10.746   8.170   9.361 -0.2941 -1.3787 -2.6194
  267MOL0     H36835  10.803   8.326   9.313  1.1589 -2.2967  3.0638
  267MOL0     H36836  10.560   8.410   9.260 -0.7604 -0.1151  0.0546
  267MOL0     H36837  10.592   8.378   9.434  1.5251  0.2614  0.6753
  267MOL0     H36838  10.533   8.126   9.359 -0.3546  0.7645 -1.2266
  267MOL0     H36839  10.403   8.239   9.408 -0.2543  2.3850  1.5961
  267MOL0     H36840  10.370   8.115   9.192  0.0001  0.2793 -0.6898
  267MOL0     H36841  10.481   8.230   9.112 -1.2315  0.5346 -1.3419
  267MOL0     H36842  10.114   8.433   9.161  0.6550  0.7741  1.1325
  267MOL0     H36843  10.916   8.232   8.985  0.0214  0.8180  0.6808
  267MOL0     H36844  11.080   8.182   8.880  2.4537  0.1869 -1.7667
  267MOL0     H36845  11.190   8.050   8.932 -0.5454  0.2159 -0.3381
  267MOL0     H36846  11.090   8.029   8.789 -3.1755 -2.6337  0.3941
  268MOL0     O36847   2.927   5.147   2.397  0.0269  0.5732  0.3794
  268MOL0     C36848   2.911   5.156   2.276  0.1564  0.5306  0.8119
  268MOL0     O36849   2.979   5.072   2.188 -0.1479  0.2849 -0.2402
  268MOL0     C36850   3.045   4.962   2.232 -0.9523  1.3093 -0.5904
  268MOL0     C36851   3.171   4.971   2.291  1.4297 -1.0451 -1.0789
  268MOL0     C36852   3.235   4.859   2.329  0.2002  0.3665 -0.5838
  268MOL0     C36853   3.175   4.732   2.320 -0.6904  0.6692  0.2347
  268MOL0     O36854   3.254   4.621   2.366 -0.1375 -0.4297  0.6172
  268MOL0     C36855   3.220   4.476   2.349 -0.1973 -0.9792  0.4300
  268MOL0     C36856   3.329   4.389   2.418 -0.0052 -0.1746  0.4279
  268MOL0     C36857   3.476   4.433   2.389 -0.4404  0.1671  0.3515
  268MOL0     C36858   3.523   4.398   2.253 -0.3527  0.1692  0.0636
  268MOL0     C36859   3.665   4.449   2.232  0.0364  0.2018 -0.2598
  268MOL0     C36860   3.718   4.447   2.094 -1.1098 -0.2411 -0.2460
  268MOL0     C36861   3.866   4.491   2.094  0.7087 -0.6928 -0.4915
  268MOL0     C36862   3.907   4.523   1.947 -1.0138  0.8030 -0.2619
  268MOL0     N36863   4.043   4.575   1.948  0.5229 -0.1008 -0.7011
  268MOL0     C36864   4.149   4.501   1.998  0.7686 -0.4547 -0.4563
  268MOL0     C36865   4.256   4.587   1.981 -1.4291 -0.3060  0.0377
  268MOL0     C36866   4.402   4.551   2.002  0.2872  1.0390 -1.3404
  268MOL0     C36867   4.488   4.502   1.883  0.2952  0.0558  0.9997
  268MOL0     C36868   4.409   4.403   1.793  0.4580  0.2770  0.0630
  268MOL0     C36869   4.368   4.265   1.841 -0.8904  0.1873 -0.6528
  268MOL0     O36870   4.476   4.194   1.901  0.4570 -0.7870  0.3739
  268MOL0     C36871   4.568   4.119   1.826  0.2873  0.3045  1.0373
  268MOL0     C36872   4.541   3.993   1.777 -0.4123  0.3459  0.6761
  268MOL0     C36873   4.630   3.931   1.684  0.6198  0.4589  0.1707
  268MOL0     C36874   4.584   3.805   1.616 -0.4387  0.0657  0.6528
  268MOL0     C36875   4.751   3.994   1.660 -0.0940  0.3794  0.0701
  268MOL0     C36876   4.849   3.932   1.579 -0.4923 -0.4760 -0.7936
  268MOL0     O36877   4.915   4.008   1.487  0.0660 -1.0372  0.3844
  268MOL0     C36878   4.970   3.952   1.381 -0.8340  1.2778 -0.7515
  268MOL0     C36879   5.069   4.032   1.309 -0.6937 -0.0742  0.1023
  268MOL0     C36880   5.142   3.986   1.194 -0.2160  0.2468  0.0099
  268MOL0     C36881   5.103   3.858   1.143  0.3746  1.0338 -0.7149
  268MOL0     O36882   5.179   3.795   1.046 -0.9765  0.6058 -0.1783
  268MOL0     C36883   5.243   3.880   0.945 -0.5006 -0.8987 -0.0489
  268MOL0     C36884   5.291   3.802   0.824 -0.1543 -0.6276 -0.2647
  268MOL0     C36885   5.162   3.765   0.749  0.4240 -1.0176 -0.2713
  268MOL0     C36886   5.200   3.704   0.621  0.1300  0.4065 -0.3187
  268MOL0     C36887   5.082   3.677   0.532  0.1590 -0.2454  0.4488
  268MOL0     C36888   4.956   3.627   0.601  0.6235 -0.2747 -0.1415
  268MOL0     C36889   4.837   3.607   0.500 -1.0651 -0.4057  0.2454
  268MOL0     C36890   4.787   3.732   0.433 -0.3306  0.9848  0.4193
  268MOL0    Cl36891   4.637   3.692   0.342  0.2648  0.0507 -0.7818
  268MOL0     C36892   4.998   3.783   1.213 -0.7926 -0.5883  1.4110
  268MOL0     C36893   4.929   3.833   1.322 -0.0956  0.1932  0.1020
  268MOL0     O36894   4.882   3.820   1.619  0.0687  0.3642 -0.3267
  268MOL0     C36895   4.781   4.124   1.714 -0.2179  1.5553  0.2278
  268MOL0     C36896   4.690   4.178   1.805  0.2227 -0.0465 -0.2030
  268MOL0     N36897   4.211   4.702   1.919  0.1481  0.2953  0.1878
  268MOL0     N36898   4.082   4.699   1.922  0.1212  0.0981  0.4062
  268MOL0     C36899   3.059   4.718   2.254 -0.7159 -0.6093  0.6694
  268MOL0     C36900   2.986   4.827   2.219  0.1078 -1.4393  0.6055
  268MOL0     C36901   2.803   5.237   2.231  1.4177 -0.0412  0.1264
  268MOL0     C36902   2.720   5.314   2.326 -0.0572  0.7262 -0.6267
  268MOL0     C36903   2.609   5.390   2.289  0.1610 -0.8309  0.1294
  268MOL0     C36904   2.574   5.394   2.153  0.3703 -0.4516 -0.3599
  268MOL0     O36905   2.474   5.471   2.093 -0.0982 -0.2813 -0.8021
  268MOL0     C36906   2.370   5.548   2.160 -0.0814  0.7160  1.0597
  268MOL0     C36907   2.421   5.688   2.164  0.0002  0.0258 -0.0952
  268MOL0     C36908   2.304   5.777   2.228 -0.3116 -0.5176  0.1360
  268MOL0     C36909   2.368   5.905   2.287 -0.3458 -0.9112  0.0641
  268MOL0     C36910   2.444   5.982   2.186 -0.0142 -0.1642  0.0727
  268MOL0     C36911   2.497   6.053   2.107  0.7729  0.3338 -0.0549
  268MOL0     C36912   2.660   5.334   2.059 -1.2623 -0.2279  0.1766
  268MOL0     C36913   2.770   5.254   2.092  0.5138 -0.0318  0.1815
  268MOL0     C36914   2.840   5.186   1.977  0.3783  0.7077 -0.8223
  268MOL0     H36915   3.217   5.069   2.298 -1.8109  0.5755 -0.6818
  268MOL0     H36916   3.340   4.874   2.353  2.0275 -4.7190 -3.8735
  268MOL0     H36917   3.223   4.464   2.240  1.1286  2.3950 -0.0510
  268MOL0     H36918   3.117   4.458   2.381 -1.2782 -0.2529 -2.3525
  268MOL0     H36919   3.317   4.377   2.526 -1.8416 -2.1390  0.0806
  268MOL0     H36920   3.323   4.286   2.380 -1.5751  0.0088  0.0808
  268MOL0     H36921   3.486   4.541   2.399  0.7793  0.3044 -1.7851
  268MOL0     H36922   3.536   4.371   2.457  0.2304 -3.8358 -3.4087
  268MOL0     H36923   3.501   4.293   2.231 -2.1918  0.0891  1.9637
  268MOL0     H36924   3.456   4.435   2.174 -1.9145 -3.5747 -0.5951
  268MOL0     H36925   3.730   4.386   2.293  0.3416 -0.0551 -0.8432
  268MOL0     H36926   3.664   4.549   2.277 -0.7532 -0.4024  1.0911
  268MOL0     H36927   3.709   4.348   2.048 -0.3386  0.0571 -1.0722
  268MOL0     H36928   3.663   4.514   2.027 -1.7176 -0.2201  0.2676
  268MOL0     H36929   3.921   4.410   2.143  0.8939 -0.0126  0.4530
  268MOL0     H36930   3.867   4.584   2.150 -0.1548 -1.1222  0.2705
  268MOL0     H36931   3.914   4.429   1.892  1.6480  0.0904  1.1262
  268MOL0     H36932   3.850   4.601   1.895 -1.3435  0.9123  0.2583
  268MOL0     H36933   4.160   4.399   2.033 -1.3741 -1.3759 -2.2118
  268MOL0     H36934   4.417   4.476   2.081 -1.2450  2.0376 -0.0572
  268MOL0     H36935   4.455   4.635   2.048  0.2749  0.3746 -0.0510
  268MOL0     H36936   4.522   4.587   1.824 -1.2862  0.2995  0.3907
  268MOL0     H36937   4.576   4.447   1.919 -1.6854 -3.3990  1.0359
  268MOL0     H36938   4.327   4.458   1.747  2.0183  0.9143 -2.1120
  268MOL0     H36939   4.474   4.374   1.710 -1.6647  0.5159 -1.7702
  268MOL0     H36940   4.303   4.277   1.928  1.6183 -2.6218  1.8424
  268MOL0     H36941   4.326   4.200   1.764 -0.4214  0.2982 -1.0061
  268MOL0     H36942   4.441   3.952   1.780  1.0095 -3.5472  0.6877
  268MOL0     H36943   4.613   3.717   1.673  3.5696  0.0365 -1.0753
  268MOL0     H36944   4.635   3.795   1.520  1.2495  1.5756  1.3328
  268MOL0     H36945   4.476   3.808   1.601 -0.9285  1.1822  3.7496
  268MOL0     H36946   5.088   4.125   1.360 -1.2922  1.4534 -2.2820
  268MOL0     H36947   5.226   4.044   1.159 -1.7551  1.4862 -1.8809
  268MOL0     H36948   5.181   3.966   0.920 -0.7341 -1.5289 -1.8098
  268MOL0     H36949   5.340   3.920   0.977 -2.1926  3.0975  0.6489
  268MOL0     H36950   5.367   3.857   0.768  0.7490 -0.4713  1.0805
  268MOL0     H36951   5.339   3.711   0.860 -0.1455 -0.6719 -0.3875
  268MOL0     H36952   5.104   3.854   0.722 -0.0339 -1.5842 -1.1821
  268MOL0     H36953   5.097   3.696   0.804  0.2714 -1.4466 -0.9850
  268MOL0     H36954   5.245   3.611   0.657 -1.9274  0.2087  2.0488
  268MOL0     H36955   5.278   3.757   0.567  0.1216  0.2146 -0.5212
  268MOL0     H36956   5.063   3.759   0.462 -0.8588  0.8039  1.9004
  268MOL0     H36957   5.107   3.590   0.470 -0.8470  0.4876 -1.0520
  268MOL0     H36958   4.918   3.695   0.677  1.7001 -2.7493  2.8354
  268MOL0     H36959   4.981   3.529   0.643  0.0939  0.1833  1.2654
  268MOL0     H36960   4.751   3.578   0.561 -2.1233  1.3773 -0.3396
  268MOL0     H36961   4.861   3.519   0.440 -0.4552  1.3183 -2.1816
  268MOL0     H36962   4.855   3.756   0.351  0.8176  0.3138  1.1466
  268MOL0     H36963   4.782   3.819   0.500 -0.9338  1.0830  0.2566
  268MOL0     H36964   4.977   3.682   1.178  1.5769 -0.5053 -0.4571
  268MOL0     H36965   4.841   3.780   1.358  2.2689 -2.6321  2.2722
  268MOL0     H36966   4.873   4.177   1.687 -0.8502  1.2329 -2.9142
  268MOL0     H36967   4.708   4.275   1.850  1.8197 -0.2342 -0.3794
  268MOL0     H36968   3.021   4.620   2.229 -0.9344  0.2579 -3.0398
  268MOL0     H36969   2.885   4.809   2.186 -1.9261  2.1203  3.9863
  268MOL0     H36970   2.735   5.287   2.430 -1.7432 -0.7305 -0.7279
  268MOL0     H36971   2.548   5.441   2.363 -0.9726  0.2212 -1.4800
  268MOL0     H36972   2.276   5.547   2.104  1.3092  0.9857 -1.4288
  268MOL0     H36973   2.351   5.515   2.262  0.9914 -1.5135  0.6185
  268MOL0     H36974   2.441   5.728   2.065 -0.2783 -0.5089 -0.3698
  268MOL0     H36975   2.513   5.707   2.221 -0.5266  0.9609  0.4640
  268MOL0     H36976   2.226   5.803   2.155  3.6375  3.3277 -3.2241
  268MOL0     H36977   2.260   5.733   2.318 -2.2343 -0.5615 -0.7675
  268MOL0     H36978   2.437   5.882   2.368 -0.1886  1.9800  0.8483
  268MOL0     H36979   2.289   5.971   2.323  0.3942 -1.8072  3.6969
  268MOL0     H36980   2.559   6.121   2.053  0.9199 -0.1138 -0.4514
  268MOL0     H36981   2.648   5.355   1.953  1.0625 -0.9451 -0.3001
  268MOL0     H36982   2.942   5.225   1.972  1.6003 -2.3755 -2.6780
  268MOL0     H36983   2.849   5.077   1.986  0.6794  0.6396 -1.8649
  268MOL0     H36984   2.784   5.215   1.888 -1.6721 -0.5215 -0.0344
  269MOL0     O36985   2.420   7.536   9.556  0.2045 -0.5394 -0.1177
  269MOL0     C36986   2.527   7.484   9.515  0.4552  0.2876 -0.4204
  269MOL0     O36987   2.632   7.554   9.478 -0.0313  0.5992 -0.3228
  269MOL0     C36988   2.625   7.689   9.512 -0.9826  0.1300 -0.4402
  269MOL0     C36989   2.687   7.729   9.631  0.5025  0.3406 -0.0358
  269MOL0     C36990   2.690   7.859   9.670 -0.6043  0.5457  0.0897
  269MOL0     C36991   2.630   7.953   9.585 -0.5400  0.3279 -0.3128
  269MOL0     O36992   2.636   8.082   9.622  0.0634 -0.6078  0.4486
  269MOL0     C36993   2.712   8.175   9.532  0.3081 -0.3924  0.1718
  269MOL0     C36994   2.856   8.149   9.503 -0.5743 -0.0919 -0.4016
  269MOL0     C36995   2.946   8.129   9.629 -0.5918 -0.4763 -1.3618
  269MOL0     C36996   2.942   8.248   9.725  0.2027  0.4040  0.3022
  269MOL0     C36997   3.067   8.231   9.816 -0.8261 -0.8047  0.6249
  269MOL0     C36998   3.067   8.357   9.899 -0.6990  1.1820 -0.6847
  269MOL0     C36999   3.193   8.365   9.994 -0.3488 -0.5811  0.5019
  269MOL0     C37000   3.329   8.357   9.925 -0.8468 -0.3793  0.1315
  269MOL0     N37001   3.431   8.403  10.019 -0.3491  0.1881 -0.3052
  269MOL0     C37002   3.465   8.347  10.138 -0.3110 -0.0350  0.3431
  269MOL0     C37003   3.574   8.412  10.184  0.6154 -0.5766  0.3887
  269MOL0     C37004   3.670   8.368  10.296  0.5707 -0.1818 -0.5128
  269MOL0     C37005   3.810   8.387  10.260 -0.8700 -0.0949 -0.2933
  269MOL0     C37006   3.914   8.356  10.366 -0.4194 -0.2842  0.2533
  269MOL0     C37007   3.921   8.204  10.411 -0.4608 -0.8777 -0.5303
  269MOL0     O37008   4.036   8.180  10.503  0.1303 -0.5434  0.3129
  269MOL0     C37009   4.053   8.052  10.554 -0.1265  0.0909 -0.1024
  269MOL0     C37010   3.963   7.938  10.538 -0.1273 -0.7038  0.1779
  269MOL0     C37011   4.003   7.812  10.590  1.3483 -0.7955 -0.1400
  269MOL0     C37012   3.903   7.708  10.580  0.1410  0.3985 -0.2722
  269MOL0     C37013   4.128   7.789  10.651 -1.1520 -0.6539 -0.0663
  269MOL0     C37014   4.184   7.656  10.697 -0.5128 -0.7748  1.0565
  269MOL0     O37015   4.169   7.561  10.598 -0.7255 -0.3983 -0.3014
  269MOL0     C37016   4.224   7.441  10.624  0.1113  0.3039  0.3980
  269MOL0     C37017   4.340   7.402  10.555  0.1240  0.2770  0.5250
  269MOL0     C37018   4.407   7.286  10.586  0.1813 -0.0439 -0.7227
  269MOL0     C37019   4.360   7.207  10.687  0.0084  0.1590  1.0752
  269MOL0     O37020   4.430   7.095  10.707  0.5230  0.0567  0.1854
  269MOL0     C37021   4.364   6.976  10.762 -0.6090 -0.6325  0.5918
  269MOL0     C37022   4.403   6.846  10.708 -0.7838  0.1239  0.5649
  269MOL0     C37023   4.350   6.843  10.563  0.4220 -0.0342  0.4587
  269MOL0     C37024   4.437   6.767  10.473 -1.0327 -0.1350  0.2118
  269MOL0     C37025   4.382   6.744  10.321 -0.3576 -0.5048 -0.2489
  269MOL0     C37026   4.482   6.687  10.221  0.2652 -0.7093  0.3856
  269MOL0     C37027   4.549   6.562  10.265  0.0683  0.5362  0.6811
  269MOL0     C37028   4.450   6.448  10.242 -0.7751 -0.0320 -1.0531
  269MOL0    Cl37029   4.546   6.291  10.220  0.4312  0.2568  0.4370
  269MOL0     C37030   4.252   7.243  10.760 -1.0575  0.2924  0.7499
  269MOL0     C37031   4.170   7.357  10.728 -0.4828 -0.3284 -0.4883
  269MOL0     O37032   4.247   7.643  10.799 -0.4296  0.8915  0.0791
  269MOL0     C37033   4.211   7.907  10.655  0.2880  1.2492 -0.9416
  269MOL0     C37034   4.175   8.036  10.614  0.2913  0.4057  1.0318
  269MOL0     N37035   3.608   8.523  10.101  0.1408  0.6755  0.0202
  269MOL0     N37036   3.522   8.508  10.001 -0.2317  0.3262  0.3556
  269MOL0     C37037   2.571   7.917   9.464 -0.4948 -0.3959 -0.2300
  269MOL0     C37038   2.571   7.783   9.423  0.8937  0.5673 -0.7135
  269MOL0     C37039   2.524   7.340   9.494 -0.1970  0.6286  0.1788
  269MOL0     C37040   2.582   7.297   9.374 -1.4665  0.1752 -1.2391
  269MOL0     C37041   2.570   7.171   9.331  0.2768  0.4280  0.9029
  269MOL0     C37042   2.487   7.074   9.388 -0.7466  0.7269  0.0733
  269MOL0     O37043   2.467   6.950   9.337  0.3344 -0.5503 -0.1420
  269MOL0     C37044   2.518   6.936   9.208 -0.6365  0.6306 -0.3958
  269MOL0     C37045   2.467   6.803   9.157  0.0349 -0.9480 -0.0975
  269MOL0     C37046   2.497   6.801   9.003  0.2451  0.1666 -0.8309
  269MOL0     C37047   2.492   6.654   8.958  0.7711 -0.4772  0.1129
  269MOL0     C37048   2.604   6.571   8.992 -0.3526 -0.0285  1.0293
  269MOL0     C37049   2.688   6.499   9.038 -0.3487  0.0863  0.4750
  269MOL0     C37050   2.449   7.108   9.524  0.1404 -0.4026  0.2282
  269MOL0     C37051   2.463   7.241   9.575  0.0107 -1.2221  0.2525
  269MOL0     C37052   2.391   7.266   9.700  0.0480 -0.2564 -0.0477
  269MOL0     H37053   2.723   7.654   9.701 -1.2261  1.3093  1.9860
  269MOL0     H37054   2.749   7.872   9.760 -1.8069  1.6147  0.7590
  269MOL0     H37055   2.706   8.276   9.573  1.0361  0.7606 -2.3289
  269MOL0     H37056   2.677   8.157   9.430 -0.0867 -0.9956  0.4067
  269MOL0     H37057   2.864   8.056   9.446 -4.1471 -2.5480  2.6205
  269MOL0     H37058   2.898   8.231   9.443  2.2919 -0.1071  1.3653
  269MOL0     H37059   2.932   8.035   9.682 -0.1876  0.9199  1.4218
  269MOL0     H37060   3.045   8.120   9.583 -0.0438 -0.1299 -0.2743
  269MOL0     H37061   2.951   8.348   9.680  0.3471  0.7392  1.0524
  269MOL0     H37062   2.847   8.251   9.778  0.8262  1.7447  1.4171
  269MOL0     H37063   3.162   8.213   9.765  0.4550 -1.6146  3.1085
  269MOL0     H37064   3.050   8.134   9.863 -3.3917 -0.7852 -0.1104
  269MOL0     H37065   3.058   8.446   9.837 -3.0875  1.0129 -0.6407
  269MOL0     H37066   2.979   8.360   9.964 -1.4506  0.3221 -1.6420
  269MOL0     H37067   3.183   8.282  10.064 -0.0907 -0.8394  0.2328
  269MOL0     H37068   3.183   8.455  10.056 -0.4320  0.2780 -0.7338
  269MOL0     H37069   3.332   8.252   9.896 -4.0495  0.0203 -2.2671
  269MOL0     H37070   3.330   8.414   9.831 -1.2714 -0.7960 -0.1305
  269MOL0     H37071   3.424   8.255  10.179 -1.1866 -0.1639 -0.7614
  269MOL0     H37072   3.649   8.262  10.313  2.2963 -0.6583 -1.0983
  269MOL0     H37073   3.634   8.419  10.386  1.2796  0.7664 -0.7481
  269MOL0     H37074   3.823   8.321  10.173 -3.5443 -2.6294  1.0250
  269MOL0     H37075   3.826   8.490  10.229  2.7662 -0.6001 -0.5419
  269MOL0     H37076   4.013   8.385  10.331 -0.2069 -2.0076 -0.7041
  269MOL0     H37077   3.906   8.428  10.447  0.8982  0.0892  0.0675
  269MOL0     H37078   3.829   8.182  10.467 -0.8458  0.2615 -0.6930
  269MOL0     H37079   3.939   8.132  10.329 -1.4769 -1.6680 -0.0826
  269MOL0     H37080   3.862   7.936  10.497 -0.3302 -0.3444  0.6521
  269MOL0     H37081   3.909   7.662  10.481  0.3919  2.4426 -1.2608
  269MOL0     H37082   3.802   7.744  10.599  0.2786 -0.0386  1.3678
  269MOL0     H37083   3.914   7.620  10.643  0.2085  0.0883 -0.7157
  269MOL0     H37084   4.382   7.460  10.474  0.1835  2.0427  1.7636
  269MOL0     H37085   4.498   7.258  10.533 -1.4997 -2.3832 -2.5955
  269MOL0     H37086   4.374   6.968  10.871  5.2963  0.2960  0.4260
  269MOL0     H37087   4.258   6.975  10.737 -1.3838  0.7834  3.4062
  269MOL0     H37088   4.510   6.831  10.720 -0.9326  0.9538  3.8297
  269MOL0     H37089   4.359   6.762  10.762  1.6453 -0.5493  1.6224
  269MOL0     H37090   4.345   6.946  10.527  2.3039 -0.0717 -0.0117
  269MOL0     H37091   4.249   6.802  10.555 -0.2545  1.8694 -2.5831
  269MOL0     H37092   4.466   6.672  10.519 -1.2334 -0.4406 -0.2864
  269MOL0     H37093   4.529   6.825  10.478 -0.8521 -0.5491  2.7216
  269MOL0     H37094   4.290   6.686  10.325 -1.9284  1.8995  2.5787
  269MOL0     H37095   4.363   6.846  10.285  2.4504  1.4997  3.3485
  269MOL0     H37096   4.555   6.764  10.197 -2.5790  0.9795 -4.2603
  269MOL0     H37097   4.427   6.674  10.127 -0.9395  0.3960  0.9006
  269MOL0     H37098   4.587   6.559  10.367  0.6365 -3.6313  0.5453
  269MOL0     H37099   4.636   6.552  10.198 -1.7016  1.0653 -1.8467
  269MOL0     H37100   4.401   6.475  10.147  4.9295  1.5530 -4.0308
  269MOL0     H37101   4.381   6.447  10.327  0.3289  1.9256 -0.0580
  269MOL0     H37102   4.224   7.184  10.846  2.1396  0.2007  1.8415
  269MOL0     H37103   4.081   7.391  10.781  0.6092  2.0758 -0.0438
  269MOL0     H37104   4.302   7.868  10.699 -2.7545 -2.2573  3.2132
  269MOL0     H37105   4.248   8.116  10.625 -0.1402  0.8549  0.6542
  269MOL0     H37106   2.509   7.977   9.399  0.3565 -0.6587 -1.3191
  269MOL0     H37107   2.494   7.745   9.357 -2.4089 -0.0930  3.0723
  269MOL0     H37108   2.618   7.368   9.301  0.4497  0.5422 -0.0252
  269MOL0     H37109   2.616   7.156   9.234  3.6147  1.1504  2.2193
  269MOL0     H37110   2.482   7.015   9.141 -1.2718 -0.3105 -1.1986
  269MOL0     H37111   2.626   6.926   9.219 -0.7518  0.0676  0.3117
  269MOL0     H37112   2.360   6.796   9.174 -0.3061 -0.6632 -1.9015
  269MOL0     H37113   2.525   6.722   9.202  2.6844 -0.8833 -2.9941
  269MOL0     H37114   2.434   6.864   8.940 -0.2146 -1.4162 -2.0225
  269MOL0     H37115   2.601   6.831   8.986  0.8564  0.1614  2.2288
  269MOL0     H37116   2.470   6.664   8.852  0.3338 -1.0896  0.1328
  269MOL0     H37117   2.404   6.612   9.008  1.9497  0.4516  3.2371
  269MOL0     H37118   2.774   6.439   9.060  0.6913  1.3157 -0.0994
  269MOL0     H37119   2.407   7.025   9.580 -1.4351  0.7715  0.8676
  269MOL0     H37120   2.434   7.358   9.742  0.1670  1.5767 -3.7521
  269MOL0     H37121   2.289   7.287   9.667  0.7024  0.2232 -1.8899
  269MOL0     H37122   2.407   7.175   9.757 -0.5440 -2.3771 -3.0192
  270MOL0     O37123   2.509   0.143  11.340  0.2227 -0.0473  0.2165
  270MOL0     C37124   2.498   0.083  11.233 -0.4375 -0.1347 -1.4407
  270MOL0     O37125   2.580  -0.023  11.200  0.1254 -0.0526  0.2020
  270MOL0     C37126   2.683  -0.057  11.287  0.0533  0.3804  0.3915
  270MOL0     C37127   2.663  -0.109  11.414 -0.7467  0.1763  0.1272
  270MOL0     C37128   2.776  -0.135  11.496  0.0853  0.2681  0.0759
  270MOL0     C37129   2.903  -0.113  11.451 -0.0128 -0.2545  0.4893
  270MOL0     O37130   3.002  -0.128  11.546  0.3572  0.5174  0.6619
  270MOL0     C37131   3.127  -0.170  11.488 -0.5884 -0.1788 -1.0835
  270MOL0     C37132   3.235  -0.205  11.597 -0.4149  0.2599 -0.3597
  270MOL0     C37133   3.184  -0.304  11.702 -1.0761  0.7104  0.1119
  270MOL0     C37134   3.273  -0.333  11.823 -0.1942  0.6875  0.3022
  270MOL0     C37135   3.204  -0.430  11.923  0.2785  0.0475 -0.6908
  270MOL0     C37136   3.081  -0.371  11.994  0.5294  1.2605  0.7268
  270MOL0     C37137   3.020  -0.438  12.117 -1.2470  0.6556 -0.5939
  270MOL0     C37138   3.047  -0.589  12.118 -0.4139  0.2469  0.3480
  270MOL0     N37139   2.996  -0.659  12.236  0.2818 -0.3238 -0.3456
  270MOL0     C37140   2.872  -0.715  12.261 -0.8125  0.6396 -0.2301
  270MOL0     C37141   2.874  -0.780  12.376  0.0972  0.3146 -0.2532
  270MOL0     C37142   2.761  -0.854  12.452 -0.0426  0.2570  0.3317
  270MOL0     C37143   2.637  -0.892  12.362  1.3239 -0.3578  1.1134
  270MOL0     C37144   2.512  -0.938  12.440 -0.1851  0.1283  0.5552
  270MOL0     C37145   2.535  -1.063  12.527 -0.0856  0.0629 -0.5901
  270MOL0     O37146   2.605  -1.170  12.457 -0.0624  0.7011 -0.2296
  270MOL0     C37147   2.540  -1.287  12.445  0.1379 -0.9272 -0.7698
  270MOL0     C37148   2.483  -1.347  12.559  0.0054 -0.2350  0.0905
  270MOL0     C37149   2.405  -1.461  12.558  0.9842  0.7589 -0.7791
  270MOL0     C37150   2.349  -1.501  12.696 -0.0674  0.1504 -0.2778
  270MOL0     C37151   2.401  -1.532  12.435  0.1367 -0.1111 -1.1552
  270MOL0     C37152   2.323  -1.662  12.426  0.5465  0.2899  0.5070
  270MOL0     O37153   2.289  -1.701  12.299 -0.0364 -0.1749 -0.3306
  270MOL0     C37154   2.254  -1.831  12.267 -0.4577  0.2204 -0.2419
  270MOL0     C37155   2.312  -1.886  12.150 -0.3620 -0.3581  0.5293
  270MOL0     C37156   2.266  -2.008  12.087  1.0864  0.2547  0.2145
  270MOL0     C37157   2.156  -2.077  12.149 -0.0088  0.1187  0.2434
  270MOL0     O37158   2.113  -2.203  12.095  0.3497  0.0529 -0.0187
  270MOL0     C37159   1.993  -2.259  12.150  0.4058 -0.0550 -0.9780
  270MOL0     C37160   1.956  -2.396  12.083  0.4621 -0.8475 -0.0781
  270MOL0     C37161   1.943  -2.370  11.930  0.6533  0.0304  0.2938
  270MOL0     C37162   1.871  -2.483  11.834  0.1795  0.5022 -0.2333
  270MOL0     C37163   1.724  -2.503  11.848  0.5373  0.5936  1.0294
  270MOL0     C37164   1.657  -2.556  11.720  0.6988 -0.8463  0.1328
  270MOL0     C37165   1.703  -2.692  11.680  0.5447  0.2733  0.0867
  270MOL0     C37166   1.603  -2.763  11.587 -0.0785 -0.2195  0.2611
  270MOL0    Cl37167   1.590  -2.688  11.425  0.0018 -0.2588 -0.1333
  270MOL0     C37168   2.110  -2.023  12.272 -0.3966  0.1434  0.4953
  270MOL0     C37169   2.164  -1.906  12.335  0.3873 -0.3222  0.1311
  270MOL0     O37170   2.302  -1.730  12.523  0.0406  0.9386  0.0189
  270MOL0     C37171   2.453  -1.471  12.316 -0.1413 -0.4002  0.7319
  270MOL0     C37172   2.520  -1.350  12.327  0.0318 -0.1166  0.3299
  270MOL0     N37173   3.008  -0.773  12.418  0.7424 -0.2590  0.1934
  270MOL0     N37174   3.073  -0.691  12.339 -0.5964  1.2872 -0.0719
  270MOL0     C37175   2.919  -0.058  11.326 -0.0110  0.3867  0.9776
  270MOL0     C37176   2.815  -0.034  11.236 -0.7582 -0.2247 -0.1579
  270MOL0     C37177   2.400   0.140  11.140 -0.5208 -0.2897 -0.1244
  270MOL0     C37178   2.376   0.057  11.027 -0.2443 -0.0479 -0.5433
  270MOL0     C37179   2.289   0.090  10.930  1.2411 -0.3224  0.6785
  270MOL0     C37180   2.221   0.216  10.927 -0.6192 -0.6558  0.1188
  270MOL0     O37181   2.137   0.249  10.825  0.5214 -0.1824  0.3508
  270MOL0     C37182   2.034   0.354  10.853 -0.0737 -0.0075 -1.1546
  270MOL0     C37183   1.904   0.345  10.766 -0.7239  0.4004  0.7578
  270MOL0     C37184   1.956   0.330  10.623  0.3247  0.2597 -0.0529
  270MOL0     C37185   1.841   0.315  10.519  0.0038  0.7340  0.0653
  270MOL0     C37186   1.900   0.297  10.381 -0.2963 -0.3192  0.3373
  270MOL0     C37187   1.942   0.295  10.262 -1.0725  0.6240 -0.6569
  270MOL0     C37188   2.247   0.304  11.041 -0.3292  0.0506 -0.0584
  270MOL0     C37189   2.332   0.264  11.147  0.2996 -0.0301 -0.4409
  270MOL0     C37190   2.329   0.364  11.263  0.2526 -0.3990 -0.3587
  270MOL0     H37191   2.562  -0.118  11.453 -1.0500  1.3700 -0.3246
  270MOL0     H37192   2.764  -0.188  11.589 -4.1232 -2.2736 -1.5999
  270MOL0     H37193   3.170  -0.108  11.408  1.3308 -0.2696 -0.1606
  270MOL0     H37194   3.110  -0.261  11.430  0.6404  0.3149 -2.2924
  270MOL0     H37195   3.327  -0.241  11.551 -0.2784 -0.6751  0.6137
  270MOL0     H37196   3.259  -0.109  11.644  1.9219 -0.4847  0.1176
  270MOL0     H37197   3.094  -0.254  11.737  0.2607  1.4169  2.8410
  270MOL0     H37198   3.170  -0.402  11.656 -1.8718  1.1449 -0.5968
  270MOL0     H37199   3.373  -0.362  11.788  0.2832 -2.8294  3.8729
  270MOL0     H37200   3.289  -0.238  11.874 -1.0967  1.5429 -0.9481
  270MOL0     H37201   3.280  -0.455  11.997 -1.3402 -3.7110 -0.0315
  270MOL0     H37202   3.186  -0.522  11.866 -1.9973  1.3036 -2.1342
  270MOL0     H37203   3.104  -0.270  12.028  2.2008  1.3962 -0.6465
  270MOL0     H37204   3.002  -0.366  11.918 -0.1052 -0.0754  1.2598
  270MOL0     H37205   2.913  -0.420  12.130 -0.7072  3.5910  0.6292
  270MOL0     H37206   3.067  -0.414  12.213 -0.0617 -0.6500 -0.8074
  270MOL0     H37207   3.002  -0.629  12.027 -1.6811  2.0001  0.1568
  270MOL0     H37208   3.156  -0.602  12.117 -0.3109 -0.3457  4.4301
  270MOL0     H37209   2.791  -0.703  12.190 -1.9223  0.2726  0.9369
  270MOL0     H37210   2.739  -0.789  12.538 -1.7447 -0.7420  0.6908
  270MOL0     H37211   2.810  -0.941  12.497 -0.9372 -0.0576  0.7267
  270MOL0     H37212   2.609  -0.799  12.312  0.8701 -0.0035  1.9885
  270MOL0     H37213   2.659  -0.968  12.287 -1.3928  0.1086 -0.2959
  270MOL0     H37214   2.464  -0.857  12.497 -4.7671 -3.4433  2.4623
  270MOL0     H37215   2.435  -0.968  12.368  0.7773  1.1051 -0.9153
  270MOL0     H37216   2.602  -1.043  12.611  0.5344  2.8026 -1.6165
  270MOL0     H37217   2.439  -1.105  12.557  0.7933 -1.8383 -0.3010
  270MOL0     H37218   2.493  -1.293  12.652 -3.8242  0.9121 -0.0161
  270MOL0     H37219   2.353  -1.414  12.761 -0.9613 -0.4122  0.5526
  270MOL0     H37220   2.399  -1.585  12.746 -0.0569 -0.8970 -1.9474
  270MOL0     H37221   2.246  -1.532  12.677 -0.0517 -0.3259  0.3716
  270MOL0     H37222   2.395  -1.832  12.106 -2.0945  2.0163 -0.0332
  270MOL0     H37223   2.307  -2.046  11.994  1.0442 -1.6170  0.9008
  270MOL0     H37224   2.002  -2.269  12.258  0.9232 -0.7343 -1.0790
  270MOL0     H37225   1.917  -2.182  12.131  3.7271  3.2939 -2.1131
  270MOL0     H37226   2.046  -2.455  12.101 -0.7916 -3.6269 -2.0910
  270MOL0     H37227   1.872  -2.442  12.135 -0.0621  0.4838  0.2968
  270MOL0     H37228   2.034  -2.346  11.873  0.9027  0.7732  0.9889
  270MOL0     H37229   1.881  -2.281  11.921  0.7465  0.2664  1.8434
  270MOL0     H37230   1.920  -2.580  11.844  0.5454  0.9079  3.6192
  270MOL0     H37231   1.879  -2.451  11.730 -0.2476 -1.7122 -0.9964
  270MOL0     H37232   1.700  -2.571  11.930  0.1933 -2.4143 -1.4217
  270MOL0     H37233   1.685  -2.405  11.878  0.3602  0.7735  0.2240
  270MOL0     H37234   1.672  -2.488  11.636 -1.0199  1.4153  1.5454
  270MOL0     H37235   1.551  -2.571  11.741 -0.0947  1.2235 -1.9264
  270MOL0     H37236   1.729  -2.742  11.773 -0.1617 -0.5682 -0.1640
  270MOL0     H37237   1.799  -2.671  11.631  0.8908  1.0720  1.0643
  270MOL0     H37238   1.509  -2.781  11.638 -0.7559  2.1426 -0.0304
  270MOL0     H37239   1.657  -2.856  11.566  2.0847  0.9267  0.3748
  270MOL0     H37240   2.031  -2.070  12.330 -0.8055 -1.6207 -1.3832
  270MOL0     H37241   2.129  -1.877  12.434  0.4067 -2.7236  0.9006
  270MOL0     H37242   2.449  -1.510  12.215 -0.7251 -0.1953  0.6691
  270MOL0     H37243   2.567  -1.308  12.238 -1.7188 -0.8397 -0.9942
  270MOL0     H37244   3.015  -0.037  11.279 -1.0542 -1.0374 -2.0061
  270MOL0     H37245   2.825   0.013  11.139 -0.3664 -2.4475 -1.2777
  270MOL0     H37246   2.422  -0.039  11.010  0.8232  0.1209  1.1735
  270MOL0     H37247   2.272   0.015  10.854 -0.2819 -0.4779  1.1369
  270MOL0     H37248   2.004   0.338  10.957  2.9038 -0.6873 -0.2886
  270MOL0     H37249   2.083   0.452  10.848 -2.0357  0.9915 -1.9137
  270MOL0     H37250   1.838   0.430  10.782 -0.4933  0.4719  1.3487
  270MOL0     H37251   1.855   0.249  10.783  0.5984 -0.7575 -1.4633
  270MOL0     H37252   2.029   0.408  10.600 -2.0994  2.5181 -0.5148
  270MOL0     H37253   2.025   0.247  10.603  1.3264  0.9656  0.3725
  270MOL0     H37254   1.774   0.401  10.517 -0.5518  0.3133 -2.8565
  270MOL0     H37255   1.800   0.217  10.546 -0.9701  1.0329 -0.2864
  270MOL0     H37256   1.993   0.294  10.168 -1.9717  2.4250 -1.2066
  270MOL0     H37257   2.198   0.400  11.052  0.1704  0.2815  0.2007
  270MOL0     H37258   2.335   0.307  11.355  1.4396 -0.5800 -0.5343
  270MOL0     H37259   2.411   0.434  11.246 -0.6513  1.2073  1.5839
  270MOL0     H37260   2.240   0.427  11.266  0.7396  0.2540  1.8605
  271MOL0     O37261   7.559  11.507  11.120  0.4229 -0.5989  1.2444
  271MOL0     C37262   7.591  11.611  11.057 -1.1713  0.2670 -0.8529
  271MOL0     O37263   7.535  11.729  11.080 -0.3837 -0.6616 -0.0613
  271MOL0     C37264   7.427  11.739  11.166  0.1790  0.2007 -0.6417
  271MOL0     C37265   7.428  11.835  11.266  0.1382 -0.0619 -0.2084
  271MOL0     C37266   7.318  11.848  11.354 -0.0763 -0.5686  0.3257
  271MOL0     C37267   7.206  11.772  11.335 -1.5146  0.4387 -0.6819
  271MOL0     O37268   7.092  11.799  11.404  0.5025 -1.2073 -0.3203
  271MOL0     C37269   7.071  11.913  11.488  0.7437 -0.5036 -0.4357
  271MOL0     C37270   6.927  11.926  11.539 -0.4284  0.3595  0.3700
  271MOL0     C37271   6.863  11.799  11.594  0.0159 -0.0377 -0.0321
  271MOL0     C37272   6.712  11.804  11.616  1.0444  0.5953  0.3236
  271MOL0     C37273   6.627  11.781  11.488  0.0835 -0.2741  0.2186
  271MOL0     C37274   6.474  11.797  11.486 -0.7795 -0.0426  0.3666
  271MOL0     C37275   6.441  11.940  11.534 -0.1199 -0.7492 -0.0978
  271MOL0     C37276   6.302  11.980  11.498 -0.2813 -0.5963 -0.1889
  271MOL0     N37277   6.203  11.877  11.548  0.4170  0.0096  0.0262
  271MOL0     C37278   6.162  11.869  11.684 -1.0314 -0.5975  0.0029
  271MOL0     C37279   6.056  11.784  11.688 -0.9230 -0.8341 -0.5205
  271MOL0     C37280   5.991  11.728  11.817  0.4391  0.2290  0.2432
  271MOL0     C37281   6.098  11.640  11.894  0.0889  0.2389  0.6765
  271MOL0     C37282   6.034  11.586  12.026 -0.3575  0.2748 -0.4487
  271MOL0     C37283   6.133  11.507  12.108  0.8271  0.0864 -0.3533
  271MOL0     O37284   6.209  11.588  12.201 -0.0249  0.1284  1.1079
  271MOL0     C37285   6.144  11.630  12.317 -0.1322 -0.2443 -0.4226
  271MOL0     C37286   6.205  11.743  12.376 -0.1888  0.0453  0.9603
  271MOL0     C37287   6.174  11.799  12.507  1.6240  0.0347 -0.6808
  271MOL0     C37288   6.254  11.911  12.562  0.4670 -0.1831  0.2702
  271MOL0     C37289   6.062  11.739  12.566 -0.2173 -0.3867 -0.0066
  271MOL0     C37290   6.013  11.779  12.696  0.1610  0.6238  0.8493
  271MOL0     O37291   6.091  11.774  12.805  0.2434  0.0586  0.0618
  271MOL0     C37292   6.051  11.840  12.925  0.2223  0.2531  0.2058
  271MOL0     C37293   6.002  11.965  12.934  0.2917  0.0017 -0.0639
  271MOL0     C37294   5.999  12.030  13.053  0.0326 -0.2558  0.6342
  271MOL0     C37295   6.056  11.963  13.169  0.1665 -0.4178  0.0465
  271MOL0     O37296   6.060  12.019  13.292  0.1874  0.5890 -0.4965
  271MOL0     C37297   5.964  12.120  13.319 -0.2470 -0.3754 -0.6575
  271MOL0     C37298   5.950  12.138  13.469  0.4588  0.0602 -0.6887
  271MOL0     C37299   5.876  12.270  13.497  0.0234  0.1125 -0.3857
  271MOL0     C37300   5.957  12.374  13.573  0.3074 -0.3368 -0.4806
  271MOL0     C37301   5.892  12.512  13.547  0.7344  0.0068  0.8291
  271MOL0     C37302   5.972  12.616  13.627 -0.0631 -0.4399 -0.3355
  271MOL0     C37303   5.928  12.766  13.599 -0.6731 -0.4590  0.5504
  271MOL0     C37304   5.775  12.785  13.597  0.2620  0.5681  0.8376
  271MOL0    Cl37305   5.703  12.704  13.750 -0.5582 -0.2855 -0.0831
  271MOL0     C37306   6.099  11.829  13.158 -0.2390 -0.5044  0.1750
  271MOL0     C37307   6.107  11.775  13.037  0.3898  0.8378  0.5692
  271MOL0     O37308   5.897  11.811  12.694  0.0838 -0.3582 -0.1091
  271MOL0     C37309   5.987  11.636  12.507 -0.1876  0.3462  0.9070
  271MOL0     C37310   6.034  11.575  12.385 -0.2918 -0.1169 -0.8571
  271MOL0     N37311   6.037  11.732  11.561 -0.1828  0.1587  0.2842
  271MOL0     N37312   6.117  11.787  11.478 -0.1382 -0.0518  0.0123
  271MOL0     C37313   7.195  11.690  11.227  0.2368  0.4443 -0.2480
  271MOL0     C37314   7.308  11.668  11.146  0.3121  0.1407 -0.2358
  271MOL0     C37315   7.701  11.592  10.957  0.8160  0.2374 -0.4806
  271MOL0     C37316   7.743  11.464  10.929  1.2206 -0.1443 -0.1666
  271MOL0     C37317   7.844  11.445  10.833 -0.7958  1.0613 -0.1326
  271MOL0     C37318   7.898  11.553  10.761  0.4057  0.0766  0.9929
  271MOL0     O37319   7.994  11.543  10.668 -0.3192  1.3181 -0.2829
  271MOL0     C37320   8.046  11.419  10.617  0.0762  0.3170 -0.7464
  271MOL0     C37321   8.184  11.443  10.561 -0.0615 -0.2374  0.9677
  271MOL0     C37322   8.291  11.473  10.666  0.2137  0.5063 -0.6139
  271MOL0     C37323   8.416  11.549  10.611  0.5052  0.4158  0.4983
  271MOL0     C37324   8.522  11.549  10.703 -1.0568  0.0704  0.0915
  271MOL0     C37325   8.620  11.526  10.767  0.2931 -0.5584 -0.4367
  271MOL0     C37326   7.871  11.686  10.805 -0.0489  0.2171 -0.6264
  271MOL0     C37327   7.773  11.704  10.905  0.9049 -0.3868 -0.7741
  271MOL0     C37328   7.744  11.851  10.937 -0.7242 -0.0757  0.2972
  271MOL0     H37329   7.514  11.900  11.279  0.4564 -0.5998  0.4329
  271MOL0     H37330   7.325  11.919  11.435 -1.2280 -1.9732  1.7160
  271MOL0     H37331   7.096  11.992  11.416  0.0262  0.1885  0.0561
  271MOL0     H37332   7.140  11.920  11.572 -0.7867  1.2703  0.7590
  271MOL0     H37333   6.922  12.011  11.607 -1.0132  0.9361 -0.3748
  271MOL0     H37334   6.873  11.947  11.446  1.9666  2.1020 -0.7304
  271MOL0     H37335   6.886  11.715  11.527  1.0617  1.6899 -1.9613
  271MOL0     H37336   6.916  11.789  11.689  2.0717  3.4644 -0.6323
  271MOL0     H37337   6.688  11.731  11.694  0.4843 -1.6945 -1.8478
  271MOL0     H37338   6.691  11.906  11.651  1.1025  1.3699 -1.7474
  271MOL0     H37339   6.645  11.676  11.462  0.8823 -0.0862  0.0157
  271MOL0     H37340   6.656  11.862  11.420 -2.6027  0.5763 -0.0632
  271MOL0     H37341   6.446  11.772  11.383  2.3318 -0.9301 -0.3727
  271MOL0     H37342   6.431  11.727  11.558  0.8351 -2.2399 -0.6692
  271MOL0     H37343   6.513  12.015  11.499 -1.8786  0.4855 -1.2090
  271MOL0     H37344   6.450  11.941  11.643 -1.5852  2.1263  0.0728
  271MOL0     H37345   6.281  12.076  11.546 -0.3393 -0.5124 -0.3815
  271MOL0     H37346   6.291  11.982  11.389 -0.7683  2.5799 -0.1825
  271MOL0     H37347   6.203  11.909  11.776 -1.4776 -2.9602  1.3221
  271MOL0     H37348   5.905  11.670  11.780  0.8859  0.6112 -1.4900
  271MOL0     H37349   5.957  11.801  11.890  2.7394 -0.8165  2.5254
  271MOL0     H37350   6.121  11.547  11.841 -0.8305  1.3449 -1.8399
  271MOL0     H37351   6.197  11.685  11.903  0.9142 -1.1504 -0.8507
  271MOL0     H37352   5.998  11.672  12.083  0.1887  1.1678 -1.4086
  271MOL0     H37353   5.947  11.525  12.000  0.7281 -2.1807  1.3511
  271MOL0     H37354   6.098  11.425  12.171  2.9598  0.4145  1.3707
  271MOL0     H37355   6.209  11.458  12.046  0.7020 -1.4345  0.6566
  271MOL0     H37356   6.288  11.785  12.321  0.1396 -2.6801 -0.8302
  271MOL0     H37357   6.245  11.982  12.479  2.7848  0.9256  0.8766
  271MOL0     H37358   6.356  11.872  12.573  0.2937 -0.2960  1.7165
  271MOL0     H37359   6.216  11.961  12.652  0.1752  2.1044 -1.0527
  271MOL0     H37360   5.952  12.019  12.854 -0.8828  2.0303  1.9307
  271MOL0     H37361   5.963  12.132  13.050  1.0382  0.0936  0.1428
  271MOL0     H37362   6.002  12.214  13.277  0.9163 -0.3261  0.4648
  271MOL0     H37363   5.864  12.103  13.277 -0.7119  1.0331 -0.1630
  271MOL0     H37364   5.887  12.056  13.507  1.2575  0.8708  2.7326
  271MOL0     H37365   6.042  12.156  13.526 -0.8253  1.8935  0.9071
  271MOL0     H37366   5.792  12.250  13.564 -1.3633  1.5467 -1.5995
  271MOL0     H37367   5.828  12.311  13.407  1.0943  1.0148 -0.5814
  271MOL0     H37368   6.058  12.377  13.531 -0.2566  0.9210 -1.8570
  271MOL0     H37369   5.946  12.364  13.681 -2.4690 -0.4262 -0.6785
  271MOL0     H37370   5.898  12.532  13.439 -0.2202  0.1085  0.7863
  271MOL0     H37371   5.787  12.518  13.575  0.5025  0.5179 -0.1119
  271MOL0     H37372   6.078  12.608  13.603  0.4813  0.0530  1.7064
  271MOL0     H37373   5.966  12.603  13.735  2.6583  0.1591 -0.0492
  271MOL0     H37374   5.983  12.800  13.512 -0.1857  0.3147  1.1491
  271MOL0     H37375   5.960  12.825  13.686 -2.1815  0.8157  0.2969
  271MOL0     H37376   5.723  12.736  13.515  0.0450 -1.9052  2.3660
  271MOL0     H37377   5.760  12.894  13.596 -3.3801  0.2497 -2.8004
  271MOL0     H37378   6.151  11.794  13.247  2.5318 -1.0406 -1.5323
  271MOL0     H37379   6.147  11.677  13.013 -0.5804  0.4109  0.6640
  271MOL0     H37380   5.895  11.593  12.545 -1.5181 -0.2870 -2.6215
  271MOL0     H37381   5.984  11.483  12.355 -3.0786  1.4624 -1.3726
  271MOL0     H37382   7.102  11.642  11.197 -0.3301 -0.4507  2.6409
  271MOL0     H37383   7.297  11.600  11.063 -2.3590  3.7837 -3.2262
  271MOL0     H37384   7.693  11.380  10.977 -0.5505  0.9623  0.0304
  271MOL0     H37385   7.864  11.342  10.804 -0.8035  1.8086 -3.0176
  271MOL0     H37386   8.055  11.351  10.703  0.2052 -2.8076 -3.0529
  271MOL0     H37387   7.975  11.382  10.542 -1.8928  2.9827 -0.3274
  271MOL0     H37388   8.166  11.533  10.502  4.5583  2.2955  2.9479
  271MOL0     H37389   8.211  11.355  10.501  2.8174  1.5081 -0.4655
  271MOL0     H37390   8.230  11.518  10.745 -2.1472 -1.8430 -0.9793
  271MOL0     H37391   8.321  11.376  10.706 -0.6824 -0.1115 -1.3992
  271MOL0     H37392   8.389  11.649  10.576  0.7065 -0.4337 -2.3257
  271MOL0     H37393   8.440  11.497  10.517 -0.1927  2.4514 -0.8887
  271MOL0     H37394   8.702  11.524  10.837 -1.9632  3.1865  2.7570
  271MOL0     H37395   7.929  11.760  10.751 -4.0432  1.6780 -3.4205
  271MOL0     H37396   7.638  11.876  10.928 -0.8187 -0.6231 -0.1972
  271MOL0     H37397   7.780  11.864  11.039  0.7800  0.3831 -0.2674
  271MOL0     H37398   7.797  11.914  10.865 -1.9438 -0.9303 -1.4138
  272MOL0     O37399   3.058   7.767   0.762 -0.1519 -1.3475  0.4508
  272MOL0     C37400   3.169   7.824   0.787  0.6000  0.6548  0.7506
  272MOL0     O37401   3.252   7.797   0.893  1.3665 -0.3400 -0.1856
  272MOL0     C37402   3.217   7.679   0.951 -0.1692  0.0603 -0.1646
  272MOL0     C37403   3.245   7.558   0.887  0.9804 -0.3817  0.7933
  272MOL0     C37404   3.212   7.435   0.952 -0.3846 -0.4831 -0.3684
  272MOL0     C37405   3.134   7.433   1.065 -0.3050  0.1047 -0.4779
  272MOL0     O37406   3.083   7.314   1.114  0.0809  0.0575  0.0066
  272MOL0     C37407   3.142   7.182   1.107  0.8648 -0.6092  0.6025
  272MOL0     C37408   3.222   7.122   1.232  0.9532 -0.5469  1.1768
  272MOL0     C37409   3.240   6.968   1.219 -0.2309  0.0362  0.9782
  272MOL0     C37410   3.124   6.889   1.279  0.0594  0.1657 -0.4200
  272MOL0     C37411   3.148   6.739   1.261  0.0761 -0.3013 -1.4284
  272MOL0     C37412   3.283   6.700   1.316 -0.0341  0.4647 -0.1126
  272MOL0     C37413   3.313   6.553   1.295 -0.3790 -0.6682  0.1606
  272MOL0     C37414   3.459   6.519   1.326  0.0171 -0.3783  0.6110
  272MOL0     N37415   3.487   6.374   1.284  0.8684 -0.1708 -0.0896
  272MOL0     C37416   3.423   6.265   1.341  0.1893 -0.0599  0.4855
  272MOL0     C37417   3.496   6.162   1.297 -0.2128 -1.3190  0.0876
  272MOL0     C37418   3.478   6.028   1.353  0.8176 -0.5949 -0.3344
  272MOL0     C37419   3.469   5.937   1.240  0.1481 -0.3341 -0.2968
  272MOL0     C37420   3.475   5.793   1.296 -0.1406  0.5387 -0.3312
  272MOL0     C37421   3.423   5.689   1.211  1.0928  0.3941  0.2765
  272MOL0     O37422   3.492   5.685   1.087  0.4624 -0.9363  0.8370
  272MOL0     C37423   3.497   5.570   1.016  0.5627  0.3656 -0.2477
  272MOL0     C37424   3.400   5.469   1.010 -1.0263  0.4211 -0.3967
  272MOL0     C37425   3.404   5.363   0.917 -0.4145 -0.5929  0.9575
  272MOL0     C37426   3.297   5.263   0.919 -0.4598  0.4536 -0.4786
  272MOL0     C37427   3.509   5.366   0.824 -0.9115  0.3258  0.2834
  272MOL0     C37428   3.517   5.268   0.708 -0.6942 -0.4650  0.1419
  272MOL0     O37429   3.641   5.219   0.681  0.0944 -0.6563 -0.2510
  272MOL0     C37430   3.632   5.091   0.637  0.4134 -0.3252  0.2835
  272MOL0     C37431   3.554   4.985   0.692  0.2871 -0.7231  0.1946
  272MOL0     C37432   3.570   4.856   0.649  0.8667 -0.6790  0.7265
  272MOL0     C37433   3.642   4.816   0.536  0.0294 -0.3704  0.0066
  272MOL0     O37434   3.655   4.686   0.488 -0.9059  0.7391  0.6409
  272MOL0     C37435   3.788   4.644   0.486 -0.5882 -0.0943  0.4879
  272MOL0     C37436   3.807   4.502   0.543 -0.6359 -0.9539  0.0217
  272MOL0     C37437   3.820   4.514   0.686  0.1550  0.2744 -0.1685
  272MOL0     C37438   3.869   4.384   0.752  0.7342 -0.3922  0.5123
  272MOL0     C37439   3.827   4.378   0.891  0.1924  0.1779 -0.9515
  272MOL0     C37440   3.921   4.470   0.973  1.0912  0.6572 -0.1618
  272MOL0     C37441   3.888   4.456   1.122 -0.4439 -0.1806 -0.3014
  272MOL0     C37442   3.981   4.552   1.205  1.0148 -0.2519  0.3159
  272MOL0    Cl37443   3.943   4.723   1.174  0.1757  0.1175 -0.0989
  272MOL0     C37444   3.720   4.926   0.480  0.0195  0.4405  0.2443
  272MOL0     C37445   3.721   5.062   0.530 -0.1642  0.5034 -0.4808
  272MOL0     O37446   3.407   5.236   0.660  0.7198  0.3568  0.2215
  272MOL0     C37447   3.610   5.458   0.835  0.4355  0.5585  0.0557
  272MOL0     C37448   3.603   5.567   0.925 -0.2940 -0.7252 -0.1777
  272MOL0     N37449   3.592   6.203   1.206 -0.1153 -0.5896 -0.1474
  272MOL0     N37450   3.594   6.330   1.217  0.1961  0.3943  0.2869
  272MOL0     C37451   3.117   7.553   1.126  0.2146  0.7650 -0.8313
  272MOL0     C37452   3.154   7.674   1.074 -0.3805 -0.2220  0.4700
  272MOL0     C37453   3.223   7.939   0.703 -1.1042 -0.0468 -0.1491
  272MOL0     C37454   3.282   8.056   0.760  0.2873  0.2197 -0.4645
  272MOL0     C37455   3.340   8.155   0.667 -0.6642  0.1983 -0.6746
  272MOL0     C37456   3.332   8.136   0.536  0.2220  0.2316 -0.5112
  272MOL0     O37457   3.394   8.219   0.442  0.0181  0.4616  0.2961
  272MOL0     C37458   3.476   8.323   0.485  0.8470  0.6978 -0.6416
  272MOL0     C37459   3.409   8.451   0.547  0.5986 -0.0111 -1.3531
  272MOL0     C37460   3.328   8.521   0.443 -0.3710  0.5111 -0.6425
  272MOL0     C37461   3.252   8.645   0.502 -0.2619 -0.3263 -0.0530
  272MOL0     C37462   3.193   8.736   0.403 -0.4413 -0.8923  0.4063
  272MOL0     C37463   3.141   8.823   0.332  0.2692 -0.7661 -0.1607
  272MOL0     C37464   3.271   8.024   0.480 -0.5033  0.2039  0.2840
  272MOL0     C37465   3.211   7.920   0.560  0.1735 -0.5804 -0.1239
  272MOL0     C37466   3.152   7.792   0.492  0.3147 -0.1369  0.8925
  272MOL0     H37467   3.289   7.560   0.788 -0.2733  2.2096  0.2030
  272MOL0     H37468   3.226   7.337   0.906 -2.6683 -0.9037 -0.3102
  272MOL0     H37469   3.206   7.174   1.018  0.5884 -3.4840  0.5604
  272MOL0     H37470   3.059   7.117   1.079  1.2942 -1.4389  1.2332
  272MOL0     H37471   3.317   7.173   1.248 -0.4519  2.4781  0.6723
  272MOL0     H37472   3.169   7.138   1.326  0.1599 -0.5497  0.7391
  272MOL0     H37473   3.256   6.936   1.115  0.8095 -0.4279  1.2658
  272MOL0     H37474   3.342   6.957   1.259  1.5506  1.4737 -2.6275
  272MOL0     H37475   3.121   6.914   1.385  0.8565  0.3432 -0.4336
  272MOL0     H37476   3.026   6.913   1.236 -1.5943 -0.0447  2.8679
  272MOL0     H37477   3.138   6.717   1.154 -2.8211  1.6013 -1.6940
  272MOL0     H37478   3.072   6.679   1.311  1.1211 -1.4067 -1.1242
  272MOL0     H37479   3.363   6.743   1.255  0.3010 -2.0485 -1.6018
  272MOL0     H37480   3.291   6.732   1.420  0.7563  2.1462 -0.6615
  272MOL0     H37481   3.274   6.529   1.196 -0.0673  1.1508 -0.4335
  272MOL0     H37482   3.250   6.483   1.351  2.1939 -1.0386  2.8538
  272MOL0     H37483   3.524   6.585   1.268 -1.4149  1.9068  1.4934
  272MOL0     H37484   3.482   6.542   1.430 -2.9069  0.8043  1.0796
  272MOL0     H37485   3.340   6.268   1.411  1.1981 -1.1665  1.7821
  272MOL0     H37486   3.384   6.032   1.408  0.2728  0.5148 -1.3087
  272MOL0     H37487   3.563   6.015   1.421 -1.4189 -0.3842  2.6763
  272MOL0     H37488   3.373   5.951   1.191  1.3081 -0.2814 -2.6984
  272MOL0     H37489   3.541   5.957   1.161  0.0248  0.3518 -0.2414
  272MOL0     H37490   3.581   5.774   1.314 -0.4218 -1.5564 -0.6414
  272MOL0     H37491   3.419   5.790   1.390 -5.5778 -0.4428 -3.2250
  272MOL0     H37492   3.442   5.599   1.270 -3.0113 -0.2194  0.9847
  272MOL0     H37493   3.315   5.697   1.199  0.9118  0.7219  1.9393
  272MOL0     H37494   3.325   5.464   1.089  0.6403  1.3644  1.3395
  272MOL0     H37495   3.212   5.308   0.866 -1.7941  1.0314  1.9610
  272MOL0     H37496   3.262   5.235   1.019  0.3697 -0.2324 -0.3764
  272MOL0     H37497   3.335   5.168   0.881  1.2959  0.7704  0.3813
  272MOL0     H37498   3.494   5.003   0.780 -0.2653  0.2142 -0.3476
  272MOL0     H37499   3.513   4.777   0.697 -1.5606 -1.0208 -2.3509
  272MOL0     H37500   3.825   4.651   0.383  1.0182  4.8539  1.0911
  272MOL0     H37501   3.856   4.714   0.535  1.5809 -0.7188 -1.4349
  272MOL0     H37502   3.713   4.446   0.536 -1.8611  1.0244 -0.0777
  272MOL0     H37503   3.897   4.453   0.504 -0.1173  0.8925 -1.2338
  272MOL0     H37504   3.730   4.557   0.731  0.1367  1.4053 -1.2385
  272MOL0     H37505   3.900   4.584   0.713 -2.2642  3.5004 -0.7658
  272MOL0     H37506   3.978   4.375   0.742  0.6431 -0.7990 -0.2270
  272MOL0     H37507   3.821   4.306   0.692 -1.2619  2.8405 -2.5115
  272MOL0     H37508   3.723   4.404   0.910 -0.7406 -2.3896 -2.0626
  272MOL0     H37509   3.833   4.274   0.925  1.5073 -0.1642 -2.1129
  272MOL0     H37510   3.907   4.574   0.944 -3.0554  0.4007  0.3260
  272MOL0     H37511   4.028   4.456   0.954  1.3618 -0.7248  1.9727
  272MOL0     H37512   3.892   4.360   1.175  2.3591 -0.2905 -0.5499
  272MOL0     H37513   3.783   4.479   1.143 -0.5192 -0.6444 -0.1586
  272MOL0     H37514   4.086   4.531   1.182  1.5320  1.8839  0.4309
  272MOL0     H37515   3.959   4.537   1.311 -0.7694 -0.0464  0.0151
  272MOL0     H37516   3.786   4.915   0.395 -1.1817  0.2966 -0.6887
  272MOL0     H37517   3.798   5.129   0.492 -1.6477  1.9869 -0.9931
  272MOL0     H37518   3.683   5.461   0.756  0.1805 -4.4497 -0.6621
  272MOL0     H37519   3.671   5.648   0.951 -1.4502  0.0632  0.4617
  272MOL0     H37520   3.076   7.555   1.227 -1.6293 -0.1024 -1.5002
  272MOL0     H37521   3.162   7.766   1.133  2.9883 -1.1415  1.6969
  272MOL0     H37522   3.291   8.072   0.867 -0.2382 -0.8668 -0.2510
  272MOL0     H37523   3.401   8.233   0.711 -3.1684  0.8873  1.9318
  272MOL0     H37524   3.552   8.279   0.550 -0.3725  0.2303  0.5304
  272MOL0     H37525   3.528   8.360   0.397  0.0682 -0.1070 -1.4561
  272MOL0     H37526   3.499   8.505   0.580  1.5710 -2.9647  1.3491
  272MOL0     H37527   3.349   8.429   0.636 -1.0851  1.1127 -2.1783
  272MOL0     H37528   3.386   8.547   0.355 -1.5414  0.7608 -1.3632
  272MOL0     H37529   3.254   8.452   0.402 -0.8843  0.7851 -0.2043
  272MOL0     H37530   3.332   8.703   0.550  1.2199 -0.5497 -2.0819
  272MOL0     H37531   3.175   8.610   0.570 -0.5977  2.6784  1.2865
  272MOL0     H37532   3.082   8.896   0.281  0.5313  3.0323  4.3384
  272MOL0     H37533   3.285   8.006   0.374 -0.3342 -3.4973  0.7964
  272MOL0     H37534   3.191   7.706   0.546  0.3425 -0.5216  0.2747
  272MOL0     H37535   3.043   7.782   0.497  0.4693 -1.4739  2.1783
  272MOL0     H37536   3.173   7.784   0.385 -0.6436  2.7852  0.3952
  273MOL0     O37537   7.009   9.013   3.801  0.6820  0.3102  0.2687
  273MOL0     C37538   7.045   9.089   3.706  0.0564 -1.4085 -0.3931
  273MOL0     O37539   7.033   9.074   3.576  0.3006  0.0440  0.6089
  273MOL0     C37540   7.010   8.945   3.533 -0.8188 -0.6701  0.3781
  273MOL0     C37541   7.093   8.896   3.432 -1.1295 -0.4342 -1.0534
  273MOL0     C37542   7.078   8.776   3.367  0.5904  0.5184  0.5735
  273MOL0     C37543   6.971   8.695   3.420 -0.3003  0.5542 -0.0196
  273MOL0     O37544   6.943   8.564   3.377 -0.0035  0.4544  0.2977
  273MOL0     C37545   7.005   8.510   3.258 -0.3287  0.4639  0.1006
  273MOL0     C37546   6.928   8.569   3.136 -0.6959  0.5384  0.4106
  273MOL0     C37547   6.784   8.521   3.127 -0.3825 -0.0043 -0.1385
  273MOL0     C37548   6.776   8.377   3.078  0.1614  0.1387  0.6247
  273MOL0     C37549   6.628   8.320   3.078 -0.1054 -0.2260 -0.0158
  273MOL0     C37550   6.609   8.168   3.088  0.1116 -0.6181  0.5003
  273MOL0     C37551   6.467   8.123   3.056 -0.4369  0.0925 -0.5284
  273MOL0     C37552   6.465   7.977   3.061 -0.3992 -0.0421  0.1855
  273MOL0     N37553   6.330   7.925   3.058  0.3061 -0.4479  0.0049
  273MOL0     C37554   6.264   7.879   2.951  0.5422 -0.3097  0.9535
  273MOL0     C37555   6.156   7.816   3.010  0.5979 -0.3902 -0.9367
  273MOL0     C37556   6.038   7.756   2.943  0.8669  0.2043 -0.5556
  273MOL0     C37557   6.036   7.603   2.966  0.1059 -0.0396  0.4424
  273MOL0     C37558   5.919   7.540   2.903  0.6227 -0.2423 -0.1801
  273MOL0     C37559   5.915   7.381   2.903  0.6907  0.2907  0.1498
  273MOL0     O37560   6.026   7.337   2.820 -0.6674  0.1028 -0.7817
  273MOL0     C37561   6.026   7.201   2.787 -0.6321 -0.0256  0.1049
  273MOL0     C37562   5.975   7.094   2.861  0.6364  0.5448  1.0075
  273MOL0     C37563   5.977   6.959   2.819 -0.9010  0.6433 -0.4698
  273MOL0     C37564   5.938   6.856   2.916  0.8285 -0.3854  1.0501
  273MOL0     C37565   6.053   6.934   2.686 -0.0906 -0.3284 -0.9707
  273MOL0     C37566   6.086   6.797   2.632 -0.5399  0.4814 -0.6332
  273MOL0     O37567   6.126   6.784   2.500 -0.2022 -0.4578  0.2329
  273MOL0     C37568   6.210   6.681   2.466 -0.8923  0.5224 -0.4973
  273MOL0     C37569   6.339   6.684   2.504 -0.0305 -1.1358  0.2133
  273MOL0     C37570   6.428   6.594   2.452 -1.1480 -0.9214  1.0838
  273MOL0     C37571   6.391   6.508   2.351 -0.0176 -0.7445 -0.0296
  273MOL0     O37572   6.492   6.424   2.292  0.4772 -0.7200 -0.6731
  273MOL0     C37573   6.466   6.390   2.153  0.9095 -0.7841 -0.4155
  273MOL0     C37574   6.586   6.391   2.075 -0.4935  0.4577  0.1158
  273MOL0     C37575   6.690   6.295   2.135 -0.1862 -0.1946 -0.8428
  273MOL0     C37576   6.663   6.141   2.151 -0.8476 -0.0093  0.8459
  273MOL0     C37577   6.767   6.073   2.251  0.9633  0.0581  0.0613
  273MOL0     C37578   6.762   5.915   2.251 -0.2771 -0.1535  0.5749
  273MOL0     C37579   6.855   5.856   2.154  0.7455 -1.3019 -0.1939
  273MOL0     C37580   6.876   5.708   2.181 -1.3728 -0.3280 -0.1176
  273MOL0    Cl37581   7.031   5.639   2.113  0.1852  0.3126  0.4917
  273MOL0     C37582   6.252   6.491   2.323  0.2873 -1.0101  0.5187
  273MOL0     C37583   6.165   6.585   2.372 -0.1202  0.6906  0.1451
  273MOL0     O37584   6.088   6.700   2.717  0.3032 -0.3220  0.0495
  273MOL0     C37585   6.099   7.052   2.620  0.1620 -0.3858  0.8626
  273MOL0     C37586   6.096   7.181   2.670  0.4583 -0.2018 -0.1695
  273MOL0     N37587   6.154   7.840   3.147 -0.1970  0.4617  0.4432
  273MOL0     N37588   6.256   7.916   3.174  0.0539  0.0453  0.0188
  273MOL0     C37589   6.891   8.742   3.519  1.0713 -0.7969 -0.1672
  273MOL0     C37590   6.903   8.869   3.579  0.5741 -0.3888 -0.4146
  273MOL0     C37591   7.107   9.212   3.739  1.0929 -0.9923 -0.3468
  273MOL0     C37592   7.070   9.340   3.678  0.1023  0.8522  0.3164
  273MOL0     C37593   7.141   9.456   3.709  0.3217 -0.0062 -0.4604
  273MOL0     C37594   7.243   9.448   3.805 -0.4298  0.4269  0.0570
  273MOL0     O37595   7.318   9.555   3.847  0.3773 -0.3021 -0.3325
  273MOL0     C37596   7.383   9.622   3.736  0.6554 -0.4970 -0.9111
  273MOL0     C37597   7.500   9.540   3.675 -0.6702 -0.4476 -0.0691
  273MOL0     C37598   7.553   9.593   3.550 -0.0394 -0.1516 -0.1677
  273MOL0     C37599   7.699   9.548   3.520 -0.5363 -0.1604  0.8004
  273MOL0     C37600   7.739   9.611   3.393 -0.1264  1.3925  0.0428
  273MOL0     C37601   7.772   9.651   3.281 -1.0803  0.0232 -0.3464
  273MOL0     C37602   7.262   9.331   3.876 -0.6351  0.0332 -0.9407
  273MOL0     C37603   7.197   9.217   3.844  0.4320  0.2113  0.1496
  273MOL0     C37604   7.252   9.089   3.919 -0.5989 -0.6719  0.8671
  273MOL0     H37605   7.183   8.948   3.402  0.3340 -1.5894  1.0076
  273MOL0     H37606   7.143   8.747   3.285  1.1320  1.7772  0.5361
  273MOL0     H37607   6.994   8.402   3.267  2.2555  0.1945  0.8434
  273MOL0     H37608   7.110   8.540   3.254 -0.6889  2.7186  3.2070
  273MOL0     H37609   6.932   8.679   3.134  2.8600  0.5639  2.1291
  273MOL0     H37610   6.986   8.544   3.047 -1.1300  2.1256 -0.3620
  273MOL0     H37611   6.740   8.529   3.227  2.3211  3.1280  0.9520
  273MOL0     H37612   6.742   8.591   3.053 -1.8498  1.0394  1.6014
  273MOL0     H37613   6.825   8.362   2.982 -2.6777 -1.0483 -0.7739
  273MOL0     H37614   6.839   8.315   3.143  0.7959 -0.7279 -0.7565
  273MOL0     H37615   6.589   8.352   2.981 -1.1055 -1.7620 -0.1621
  273MOL0     H37616   6.564   8.370   3.151 -2.0936 -1.3535 -0.8831
  273MOL0     H37617   6.676   8.129   3.011  1.8519 -0.5018  1.8873
  273MOL0     H37618   6.637   8.132   3.187  0.8319  2.1687  1.4017
  273MOL0     H37619   6.435   8.162   2.959 -2.3253 -1.3836 -0.5575
  273MOL0     H37620   6.399   8.149   3.138 -1.6382 -3.5270 -0.1850
  273MOL0     H37621   6.527   7.943   2.977  1.2142  0.5193  1.1017
  273MOL0     H37622   6.517   7.949   3.154  0.6941 -0.9199 -0.6594
  273MOL0     H37623   6.299   7.890   2.849  0.9636 -3.9632  0.5769
  273MOL0     H37624   6.057   7.767   2.836 -0.9281  0.2589 -0.9043
  273MOL0     H37625   5.941   7.793   2.979 -0.0502 -1.2313 -1.4492
  273MOL0     H37626   6.128   7.554   2.932  0.4644  0.6796  0.3579
  273MOL0     H37627   6.034   7.591   3.075 -0.5688  1.4504  0.6058
  273MOL0     H37628   5.831   7.561   2.965 -1.8243 -1.5101 -2.9579
  273MOL0     H37629   5.896   7.573   2.801  1.4588 -1.7440 -0.8794
  273MOL0     H37630   5.925   7.340   3.004 -1.7796 -0.1187  0.2828
  273MOL0     H37631   5.819   7.346   2.865  0.4259  1.8747 -0.7057
  273MOL0     H37632   5.952   7.125   2.963 -0.3263 -0.0634  0.9796
  273MOL0     H37633   5.885   6.895   3.003 -0.5303 -1.5471  0.7865
  273MOL0     H37634   6.028   6.797   2.939  0.6211 -1.0361  0.2369
  273MOL0     H37635   5.871   6.795   2.855 -0.9786  2.5170 -0.0681
  273MOL0     H37636   6.380   6.758   2.571  2.3832 -2.4710  0.3037
  273MOL0     H37637   6.536   6.592   2.468 -1.0811  2.0527  1.6172
  273MOL0     H37638   6.404   6.301   2.140 -1.3216  0.4332  1.2510
  273MOL0     H37639   6.411   6.472   2.106  1.2181 -0.0100  0.5473
  273MOL0     H37640   6.575   6.357   1.972  3.9536 -1.8397  0.1325
  273MOL0     H37641   6.619   6.495   2.073  1.7608 -0.1500 -3.0883
  273MOL0     H37642   6.709   6.330   2.237 -0.5095  0.8115 -1.1150
  273MOL0     H37643   6.787   6.307   2.085  1.3516  2.6639  2.3825
  273MOL0     H37644   6.648   6.085   2.058  1.3740  0.7670 -0.0436
  273MOL0     H37645   6.565   6.131   2.200 -1.7512 -0.7200 -0.9913
  273MOL0     H37646   6.862   6.119   2.223  1.1489  0.2470  0.9681
  273MOL0     H37647   6.729   6.098   2.351 -0.5232 -0.3811 -0.3613
  273MOL0     H37648   6.658   5.887   2.230 -0.6589  0.2999  1.7634
  273MOL0     H37649   6.788   5.874   2.348 -2.0777 -1.9769  0.3354
  273MOL0     H37650   6.956   5.896   2.166  1.2542 -2.2759 -1.0788
  273MOL0     H37651   6.817   5.866   2.051 -1.5279 -1.6702  0.5626
  273MOL0     H37652   6.793   5.651   2.138 -0.9034 -2.5921  1.7410
  273MOL0     H37653   6.883   5.694   2.289 -0.2753  0.1180 -0.1200
  273MOL0     H37654   6.223   6.416   2.250  3.6564 -3.5631  1.5753
  273MOL0     H37655   6.061   6.585   2.341 -0.0469 -0.4639 -0.1367
  273MOL0     H37656   6.157   7.034   2.530 -0.6611 -1.1468  0.4592
  273MOL0     H37657   6.144   7.268   2.627 -1.4189  1.5620  1.0997
  273MOL0     H37658   6.813   8.686   3.570  2.5034 -2.1197  0.6388
  273MOL0     H37659   6.833   8.898   3.656  1.1383 -2.0221  0.7822
  273MOL0     H37660   7.005   9.344   3.591 -0.9249  1.0753  1.0864
  273MOL0     H37661   7.117   9.546   3.654 -1.7996  2.0445  3.3856
  273MOL0     H37662   7.310   9.635   3.655 -0.1683 -0.3600 -0.1639
  273MOL0     H37663   7.422   9.718   3.769  0.8882 -0.0171 -2.5076
  273MOL0     H37664   7.472   9.435   3.663  1.0104 -1.0895  1.2607
  273MOL0     H37665   7.579   9.536   3.751  0.5012 -1.1643 -1.2853
  273MOL0     H37666   7.489   9.556   3.469 -0.1421  1.5398 -0.9062
  273MOL0     H37667   7.542   9.702   3.552 -1.1748 -0.2631  1.2025
  273MOL0     H37668   7.708   9.439   3.520  0.9064 -0.1006 -1.2000
  273MOL0     H37669   7.767   9.581   3.599  0.7952 -4.0411  1.4617
  273MOL0     H37670   7.777   9.704   3.187 -1.6889  1.5195  0.4289
  273MOL0     H37671   7.344   9.328   3.947  1.3262 -3.4722 -3.0339
  273MOL0     H37672   7.227   9.000   3.860 -3.4989  1.0398 -0.7333
  273MOL0     H37673   7.360   9.083   3.929 -0.6019 -2.6586  0.1293
  273MOL0     H37674   7.203   9.091   4.017  1.0327 -0.0760  1.7032
  274MOL0     O37675   6.976   1.133   1.893 -0.3157 -0.5054  0.0537
  274MOL0     C37676   7.027   1.168   1.785  0.4639 -0.8271 -0.6285
  274MOL0     O37677   6.965   1.180   1.664  0.6840 -0.4154 -0.2008
  274MOL0     C37678   6.837   1.234   1.679  0.5371  0.2488  0.7897
  274MOL0     C37679   6.812   1.373   1.675 -1.0745 -0.7314  0.9503
  274MOL0     C37680   6.683   1.414   1.667 -0.1314  1.0881 -0.0421
  274MOL0     C37681   6.574   1.325   1.683  0.2814 -1.1626 -0.2467
  274MOL0     O37682   6.438   1.365   1.667 -0.2846 -1.0292 -0.7679
  274MOL0     C37683   6.391   1.501   1.677  0.3935 -0.1854  0.6636
  274MOL0     C37684   6.246   1.497   1.698 -0.0126 -0.4302 -0.0372
  274MOL0     C37685   6.200   1.461   1.843  0.1700 -1.1181  0.6794
  274MOL0     C37686   6.102   1.566   1.909  0.0122  0.0748  0.7891
  274MOL0     C37687   5.980   1.606   1.818  0.4188 -0.7930  0.0506
  274MOL0     C37688   5.890   1.494   1.763 -0.7728  0.2124 -0.4124
  274MOL0     C37689   5.765   1.562   1.706 -0.1415 -0.2617 -0.0040
  274MOL0     C37690   5.780   1.633   1.572 -0.3870 -0.1723  0.5246
  274MOL0     N37691   5.667   1.716   1.551  0.4632  0.0469  1.2351
  274MOL0     C37692   5.542   1.670   1.515  0.5947 -0.5927 -1.2036
  274MOL0     C37693   5.470   1.786   1.504  0.0527  0.1411 -0.0160
  274MOL0     C37694   5.336   1.795   1.438 -1.3151 -0.6520 -0.8581
  274MOL0     C37695   5.362   1.819   1.290 -0.1376  0.3386 -0.7021
  274MOL0     C37696   5.236   1.853   1.210  0.2156 -0.7990  0.3020
  274MOL0     C37697   5.270   1.895   1.069  0.3192 -0.2083  0.6705
  274MOL0     O37698   5.148   1.935   1.015 -0.6645  0.4911  0.3498
  274MOL0     C37699   5.147   1.973   0.883  0.3561 -0.9076  0.7922
  274MOL0     C37700   5.269   2.005   0.813 -1.0170 -0.7998  0.3560
  274MOL0     C37701   5.272   2.048   0.676  0.8514 -0.0425  0.0725
  274MOL0     C37702   5.409   2.071   0.609  0.2792  0.4126  0.5838
  274MOL0     C37703   5.146   2.046   0.611  0.6230 -0.3730 -0.2681
  274MOL0     C37704   5.121   2.074   0.466 -0.3116  0.0534 -0.2255
  274MOL0     O37705   5.017   2.008   0.401 -0.7301  0.2110 -0.6002
  274MOL0     C37706   5.025   2.002   0.262  0.5211 -0.8820  0.1123
  274MOL0     C37707   5.070   1.883   0.202 -0.5697 -0.4594  0.8096
  274MOL0     C37708   5.089   1.882   0.061 -0.1972 -0.7324 -0.0375
  274MOL0     C37709   5.053   1.996  -0.009  0.0096  0.3125  0.5055
  274MOL0     O37710   5.041   1.963  -0.141 -0.2179 -0.3912  0.3843
  274MOL0     C37711   4.903   1.993  -0.189 -0.7307 -1.6673 -0.4744
  274MOL0     C37712   4.911   2.079  -0.319  0.1932  0.4178 -0.1394
  274MOL0     C37713   4.842   2.029  -0.451 -0.4258 -0.7571 -0.3309
  274MOL0     C37714   4.694   1.989  -0.426 -0.1863  0.3151 -0.2181
  274MOL0     C37715   4.622   1.920  -0.548  0.2933 -0.5123  0.0910
  274MOL0     C37716   4.599   2.013  -0.671  0.5242  0.0603 -0.9329
  274MOL0     C37717   4.486   2.118  -0.637  0.1140  0.0002  0.2669
  274MOL0     C37718   4.455   2.161  -0.785 -0.5243  0.2847  0.5854
  274MOL0    Cl37719   4.586   2.226  -0.892 -0.4854  0.0977  0.0918
  274MOL0     C37720   5.019   2.119   0.046 -0.1377  0.3943 -0.8632
  274MOL0     C37721   4.999   2.122   0.186 -1.2410  0.3923  0.5490
  274MOL0     O37722   5.211   2.146   0.410  0.3921 -0.0328 -0.7087
  274MOL0     C37723   5.028   2.030   0.687  0.4009 -0.1545  0.1853
  274MOL0     C37724   5.028   1.988   0.819  0.2785 -0.5507 -0.5414
  274MOL0     N37725   5.545   1.893   1.536  0.5681  0.0937 -0.0987
  274MOL0     N37726   5.668   1.851   1.565  0.2728  0.5752  0.1013
  274MOL0     C37727   6.602   1.187   1.695 -0.6780 -0.8303  0.2670
  274MOL0     C37728   6.734   1.139   1.693 -0.3145  0.1232  0.1422
  274MOL0     C37729   7.176   1.210   1.767  0.3242 -0.4963 -0.7364
  274MOL0     C37730   7.214   1.283   1.649  0.1170  0.6706  0.1959
  274MOL0     C37731   7.343   1.332   1.621  0.3072  1.2637  0.1330
  274MOL0     C37732   7.445   1.308   1.715  0.4233  0.0816 -0.4589
  274MOL0     O37733   7.578   1.344   1.685  0.1587 -0.1094 -0.5242
  274MOL0     C37734   7.640   1.429   1.784  0.9929 -0.1760  0.2765
  274MOL0     C37735   7.791   1.415   1.761  0.2286  0.0159 -1.4263
  274MOL0     C37736   7.865   1.303   1.832 -0.5053  1.0477 -0.1416
  274MOL0     C37737   8.007   1.309   1.782 -1.1847  0.2298  0.3370
  274MOL0     C37738   8.099   1.214   1.846 -0.3625  0.0778  0.0040
  274MOL0     C37739   8.182   1.130   1.879  0.2913 -0.8992  0.4479
  274MOL0     C37740   7.413   1.235   1.828  0.8560  0.9706 -0.2151
  274MOL0     C37741   7.286   1.180   1.859  0.4942 -0.7574 -0.4199
  274MOL0     C37742   7.273   1.077   1.966 -0.5494 -0.6066 -0.4093
  274MOL0     H37743   6.891   1.442   1.648 -1.6729  0.5867  2.4598
  274MOL0     H37744   6.664   1.519   1.650  1.0196  1.4592  0.8069
  274MOL0     H37745   6.405   1.557   1.583  1.5562  0.4033  1.1634
  274MOL0     H37746   6.435   1.554   1.762  1.0516  1.0575 -0.4036
  274MOL0     H37747   6.214   1.600   1.682  0.3822 -0.3853 -0.5463
  274MOL0     H37748   6.181   1.439   1.632 -3.7201 -0.9530  3.6395
  274MOL0     H37749   6.157   1.360   1.838  1.6301 -1.8210  1.6718
  274MOL0     H37750   6.291   1.462   1.903  2.8568 -2.3581 -3.0114
  274MOL0     H37751   6.056   1.518   1.996 -2.3811 -2.3055 -1.5903
  274MOL0     H37752   6.160   1.654   1.936 -1.3993  0.7304  1.8057
  274MOL0     H37753   6.014   1.662   1.731 -0.0277 -0.7981 -0.1280
  274MOL0     H37754   5.909   1.674   1.865  2.9096  1.3582  0.9132
  274MOL0     H37755   5.943   1.438   1.686  0.2897  0.4128  0.1563
  274MOL0     H37756   5.862   1.422   1.842 -0.2846 -0.5001 -0.8773
  274MOL0     H37757   5.732   1.639   1.777  1.6561  0.8230 -0.2962
  274MOL0     H37758   5.692   1.481   1.692  1.6239 -1.6204 -2.0596
  274MOL0     H37759   5.874   1.688   1.566 -0.1178 -0.7535 -3.2783
  274MOL0     H37760   5.783   1.567   1.484  1.0443  0.6146 -0.0411
  274MOL0     H37761   5.517   1.564   1.519 -2.1793 -0.0774  4.4312
  274MOL0     H37762   5.267   1.863   1.490 -1.0457  0.5459 -2.0035
  274MOL0     H37763   5.295   1.694   1.443  1.6027 -1.9123 -0.7379
  274MOL0     H37764   5.418   1.913   1.282 -2.4115  1.7610 -0.6001
  274MOL0     H37765   5.424   1.735   1.257  1.3647  0.5064  1.4563
  274MOL0     H37766   5.171   1.766   1.204 -0.2086 -0.4840  0.3260
  274MOL0     H37767   5.176   1.936   1.247 -1.3378 -2.1087  0.8501
  274MOL0     H37768   5.336   1.979   1.091  1.2340 -0.7869  0.1746
  274MOL0     H37769   5.318   1.810   1.020  0.2897 -2.2380  3.8644
  274MOL0     H37770   5.361   1.997   0.870 -3.6686  0.5059  5.4671
  274MOL0     H37771   5.437   1.971   0.575 -2.7316  0.3028 -1.9704
  274MOL0     H37772   5.482   2.110   0.682 -1.9045  2.4545  1.8098
  274MOL0     H37773   5.401   2.148   0.532  0.5719 -0.7811 -0.6628
  274MOL0     H37774   5.088   1.797   0.265 -2.7108 -0.6165  1.2807
  274MOL0     H37775   5.132   1.793   0.014  4.0863 -0.9385  3.6088
  274MOL0     H37776   4.851   1.904  -0.223  0.6481 -1.6261 -2.9126
  274MOL0     H37777   4.837   2.043  -0.117 -0.6046 -1.3675 -0.5662
  274MOL0     H37778   4.864   2.176  -0.299 -2.2003 -0.7654  0.3567
  274MOL0     H37779   5.017   2.096  -0.337  0.5562 -0.7382  0.7571
  274MOL0     H37780   4.886   1.942  -0.502 -3.9707 -1.5375 -2.4428
  274MOL0     H37781   4.844   2.110  -0.524 -1.6430  0.6824  1.1529
  274MOL0     H37782   4.636   2.075  -0.391  0.1291  1.3063 -2.0350
  274MOL0     H37783   4.679   1.914  -0.347  0.7045  1.3701  0.9817
  274MOL0     H37784   4.670   1.829  -0.585 -0.8713 -0.5499 -1.4390
  274MOL0     H37785   4.523   1.887  -0.514  0.1435  0.5070  0.6907
  274MOL0     H37786   4.572   1.947  -0.754 -2.7177  0.5452 -0.4084
  274MOL0     H37787   4.696   2.056  -0.697 -0.4226  2.0599 -1.3147
  274MOL0     H37788   4.529   2.204  -0.584 -1.4376  0.8984  0.1347
  274MOL0     H37789   4.399   2.090  -0.577  1.6368 -2.0133  1.6687
  274MOL0     H37790   4.377   2.237  -0.782  0.3672  1.3518 -1.2885
  274MOL0     H37791   4.404   2.076  -0.832 -0.0520  0.7425 -0.8204
  274MOL0     H37792   5.005   2.211  -0.009  3.3084  1.5261 -0.0770
  274MOL0     H37793   4.974   2.214   0.238  0.8246  0.6008  1.2407
  274MOL0     H37794   4.937   2.037   0.628 -1.2021 -1.9436  2.2892
  274MOL0     H37795   4.933   1.972   0.868 -1.0815 -1.5888 -3.2992
  274MOL0     H37796   6.517   1.122   1.711 -0.6803 -0.9128 -0.0729
  274MOL0     H37797   6.756   1.033   1.696 -1.4923 -0.1808 -0.8919
  274MOL0     H37798   7.143   1.315   1.574 -1.6716 -0.5328  1.2832
  274MOL0     H37799   7.379   1.384   1.533 -0.4926  1.6496  0.0300
  274MOL0     H37800   7.600   1.530   1.772 -2.9115 -1.7274 -1.8706
  274MOL0     H37801   7.614   1.394   1.884 -0.4529  0.3802  0.1219
  274MOL0     H37802   7.842   1.511   1.779  1.2360 -0.0918 -3.4033
  274MOL0     H37803   7.805   1.400   1.654  0.3295  1.7179 -1.6790
  274MOL0     H37804   7.860   1.326   1.939  1.2295  2.4676 -0.3181
  274MOL0     H37805   7.824   1.205   1.807  0.3287  0.5878  0.2541
  274MOL0     H37806   8.050   1.409   1.794 -0.1138 -0.4074  2.2066
  274MOL0     H37807   8.010   1.295   1.673 -0.2209  0.1385  0.3643
  274MOL0     H37808   8.236   1.055   1.932  3.3482 -1.8428 -3.5618
  274MOL0     H37809   7.498   1.211   1.891  0.7119  1.4085  0.1460
  274MOL0     H37810   7.207   0.993   1.942 -1.7582  0.0084  0.6411
  274MOL0     H37811   7.370   1.038   1.998 -0.1957  1.4067  1.1359
  274MOL0     H37812   7.232   1.130   2.053 -0.8589  1.6743 -1.8883
  275MOL0     O37813   2.434   7.570   6.657 -0.8853  0.2741 -0.3937
  275MOL0     C37814   2.509   7.552   6.756  0.4676 -0.5224  0.4487
  275MOL0     O37815   2.505   7.627   6.865 -0.1497 -0.0486  0.2462
  275MOL0     C37816   2.393   7.699   6.895  0.8067 -0.2165 -0.3996
  275MOL0     C37817   2.370   7.825   6.828 -0.3257  1.0786 -0.7903
  275MOL0     C37818   2.269   7.903   6.876  0.5584 -0.2787 -0.0800
  275MOL0     C37819   2.185   7.867   6.980 -0.1126 -0.1759  0.7850
  275MOL0     O37820   2.095   7.967   7.027  0.8654  0.9671 -0.1875
  275MOL0     C37821   1.970   7.919   7.084  0.3242 -0.6406  0.0818
  275MOL0     C37822   1.861   8.027   7.121  0.2763  0.2055  0.1286
  275MOL0     C37823   1.929   8.154   7.186 -0.4956  0.5147 -0.7405
  275MOL0     C37824   1.827   8.267   7.210 -0.0166  0.1524 -0.1486
  275MOL0     C37825   1.763   8.257   7.355 -0.3376 -0.1251  0.0405
  275MOL0     C37826   1.645   8.347   7.354  0.0355 -0.5503 -0.3997
  275MOL0     C37827   1.593   8.347   7.500  0.8869 -0.4493 -0.2539
  275MOL0     C37828   1.458   8.427   7.505  0.5121 -0.0875  0.2336
  275MOL0     N37829   1.491   8.574   7.473 -0.2289  0.8082 -0.7933
  275MOL0     C37830   1.500   8.672   7.574  0.4292 -0.3160  0.1831
  275MOL0     C37831   1.521   8.788   7.499  0.1865  0.3620 -0.4815
  275MOL0     C37832   1.537   8.922   7.565 -0.2981 -0.2964  0.6548
  275MOL0     C37833   1.667   8.949   7.628 -0.2695 -0.8197 -0.5697
  275MOL0     C37834   1.787   8.958   7.526 -0.3791  0.6926  0.0538
  275MOL0     C37835   1.913   8.953   7.609  0.5874  0.2389  0.2070
  275MOL0     O37836   1.950   8.817   7.651 -0.9249  0.0154  0.1664
  275MOL0     C37837   2.007   8.727   7.569  0.3582 -0.9590 -0.7947
  275MOL0     C37838   2.026   8.599   7.621 -0.8295  0.1722 -0.3564
  275MOL0     C37839   2.087   8.493   7.549  0.2469  0.0042  0.0340
  275MOL0     C37840   2.102   8.354   7.607  0.3768  0.2049 -0.0730
  275MOL0     C37841   2.139   8.527   7.425  0.3297  0.0597  0.5752
  275MOL0     C37842   2.208   8.427   7.344  0.7453  0.9910  0.4419
  275MOL0     O37843   2.322   8.365   7.393 -0.0248 -0.0456 -0.7185
  275MOL0     C37844   2.365   8.240   7.348  0.5287 -0.1261  0.8845
  275MOL0     C37845   2.503   8.221   7.317  0.4168 -1.2611 -0.0825
  275MOL0     C37846   2.552   8.106   7.265  0.1218 -0.0615  0.6335
  275MOL0     C37847   2.462   7.999   7.241  0.4937  0.0999 -0.3391
  275MOL0     O37848   2.507   7.871   7.203  0.5629 -0.1202  0.1328
  275MOL0     C37849   2.632   7.862   7.142  0.2816  1.1270 -0.7109
  275MOL0     C37850   2.723   7.808   7.257 -0.2467  0.4160 -0.0190
  275MOL0     C37851   2.849   7.743   7.185  0.4722 -0.5701 -0.4701
  275MOL0     C37852   2.930   7.662   7.291 -0.1258  0.8390  0.6872
  275MOL0     C37853   3.076   7.637   7.241 -0.6748  0.2438  0.9195
  275MOL0     C37854   3.090   7.565   7.108 -1.0123 -0.5646  0.3621
  275MOL0     C37855   3.239   7.523   7.109  0.4803 -0.2846  0.9633
  275MOL0     C37856   3.285   7.467   6.967 -0.1624 -0.1331 -0.1754
  275MOL0    Cl37857   3.227   7.576   6.836  0.1425 -0.2778 -0.0265
  275MOL0     C37858   2.327   8.020   7.272  1.0573 -0.3319 -1.2188
  275MOL0     C37859   2.277   8.137   7.318 -0.6036 -0.0010  0.0956
  275MOL0     O37860   2.155   8.397   7.237  0.5596 -0.2010  0.2721
  275MOL0     C37861   2.113   8.648   7.368  0.3877 -1.0246 -0.1442
  275MOL0     C37862   2.041   8.750   7.436  0.2363  1.0498  0.2009
  275MOL0     N37863   1.519   8.764   7.365 -0.1469  0.3950 -0.1034
  275MOL0     N37864   1.492   8.636   7.352  0.3464  0.2152  0.5827
  275MOL0     C37865   2.209   7.753   7.051  0.1591  0.0276  0.3657
  275MOL0     C37866   2.316   7.674   7.008  0.4498  0.3034 -0.1830
  275MOL0     C37867   2.619   7.455   6.742 -1.2776 -0.2657 -0.4622
  275MOL0     C37868   2.707   7.444   6.857 -0.4318 -0.4009 -0.3460
  275MOL0     C37869   2.811   7.357   6.860  1.1694 -0.0265 -0.0300
  275MOL0     C37870   2.849   7.271   6.760  0.2770 -0.0214  0.2422
  275MOL0     O37871   2.965   7.213   6.774 -0.0987 -0.0773 -0.1693
  275MOL0     C37872   3.003   7.115   6.670  0.5871  0.0038 -0.1618
  275MOL0     C37873   3.150   7.068   6.676 -0.4137  0.9778  0.1766
  275MOL0     C37874   3.183   6.982   6.803 -0.2938 -0.7776  0.6135
  275MOL0     C37875   3.106   6.854   6.817 -0.8732 -0.0335 -0.6042
  275MOL0     C37876   3.181   6.770   6.909  0.4933 -0.8650  0.8622
  275MOL0     C37877   3.248   6.707   6.981  0.6233  0.5481  0.2055
  275MOL0     C37878   2.752   7.265   6.651 -0.6298 -1.6256  0.1267
  275MOL0     C37879   2.653   7.365   6.649  0.3735 -0.6679  0.0670
  275MOL0     C37880   2.567   7.347   6.530  0.5126 -0.0085  0.2233
  275MOL0     H37881   2.433   7.847   6.742  0.2366 -2.2006 -1.3433
  275MOL0     H37882   2.238   7.992   6.821 -2.3125 -0.7591  0.5685
  275MOL0     H37883   1.980   7.860   7.175 -0.3622  0.7876  1.1179
  275MOL0     H37884   1.928   7.854   7.006 -1.8786 -0.6129  1.1706
  275MOL0     H37885   1.812   8.061   7.029  2.7928  0.7965 -1.0986
  275MOL0     H37886   1.784   7.994   7.191 -0.6690  1.1575 -0.4259
  275MOL0     H37887   1.978   8.132   7.281  1.9044  2.3826 -1.4354
  275MOL0     H37888   2.004   8.191   7.116  1.8435 -1.0408  0.8415
  275MOL0     H37889   1.876   8.364   7.198  2.1792 -1.1354 -2.6081
  275MOL0     H37890   1.761   8.265   7.123  0.6114  0.9764 -0.6617
  275MOL0     H37891   1.841   8.293   7.424 -0.5133 -2.2468  1.4437
  275MOL0     H37892   1.734   8.155   7.381 -4.2770  1.0746  1.0014
  275MOL0     H37893   1.679   8.448   7.327 -3.7356  0.0557 -3.7017
  275MOL0     H37894   1.575   8.315   7.277  1.0216 -2.4473 -0.5572
  275MOL0     H37895   1.669   8.390   7.566 -0.2381 -0.0404  0.7933
  275MOL0     H37896   1.571   8.244   7.527  0.0877 -0.1831  0.1207
  275MOL0     H37897   1.391   8.390   7.427 -3.3905 -0.2618  3.3770
  275MOL0     H37898   1.407   8.412   7.601  2.8085 -1.7191  1.2908
  275MOL0     H37899   1.494   8.665   7.682 -1.5780 -2.1014  0.0189
  275MOL0     H37900   1.456   8.947   7.634  0.7625 -0.3230  1.9556
  275MOL0     H37901   1.526   9.000   7.489 -0.3153 -0.4278  0.5207
  275MOL0     H37902   1.652   9.040   7.687 -1.6707 -1.3477 -0.0696
  275MOL0     H37903   1.669   8.876   7.709 -1.7535 -0.8028 -0.5021
  275MOL0     H37904   1.788   8.870   7.460  1.8769 -0.4269  1.4573
  275MOL0     H37905   1.785   9.052   7.470 -1.3069  0.0772 -0.9790
  275MOL0     H37906   2.004   8.989   7.559  1.1206  1.0618  1.7074
  275MOL0     H37907   1.907   9.019   7.696 -2.0070 -0.4988  0.6809
  275MOL0     H37908   2.008   8.573   7.725  1.5912  0.3679  0.1798
  275MOL0     H37909   2.051   8.279   7.546  1.9048 -1.5350  0.6947
  275MOL0     H37910   2.064   8.341   7.709 -2.2468 -0.5803 -1.0507
  275MOL0     H37911   2.206   8.324   7.597 -0.8469 -5.0689 -0.1318
  275MOL0     H37912   2.568   8.298   7.357  2.1396 -1.9721 -1.4036
  275MOL0     H37913   2.656   8.095   7.236  0.0059  0.2404  0.0988
  275MOL0     H37914   2.627   7.787   7.063 -0.7837  2.1412 -1.6495
  275MOL0     H37915   2.667   7.953   7.093 -0.5375  1.4998 -0.6243
  275MOL0     H37916   2.757   7.886   7.325 -0.4537  0.8973 -0.4568
  275MOL0     H37917   2.679   7.726   7.314  0.5046  0.3103  0.4138
  275MOL0     H37918   2.902   7.835   7.155 -0.5447  2.2262  5.0421
  275MOL0     H37919   2.824   7.684   7.096  1.5253  0.2429 -1.3371
  275MOL0     H37920   2.883   7.574   7.336  5.4413 -2.5777  0.6868
  275MOL0     H37921   2.949   7.721   7.381  0.4170 -0.5784  1.5212
  275MOL0     H37922   3.119   7.736   7.223  2.1268 -1.3851 -2.5502
  275MOL0     H37923   3.133   7.592   7.323  0.6006  0.5799  0.2433
  275MOL0     H37924   3.069   7.636   7.028  0.5949  0.1361  0.5278
  275MOL0     H37925   3.016   7.485   7.118 -0.1374 -1.6115 -1.2329
  275MOL0     H37926   3.254   7.440   7.179  2.3292  1.7582  3.1646
  275MOL0     H37927   3.305   7.607   7.130  0.9054 -0.6216  0.9817
  275MOL0     H37928   3.252   7.367   6.940 -1.9823  1.0580 -2.8221
  275MOL0     H37929   3.395   7.469   6.973  0.0682 -2.0188 -2.4325
  275MOL0     H37930   2.260   7.934   7.266  2.6306 -1.7993  0.7302
  275MOL0     H37931   2.169   8.146   7.325 -0.7609 -0.2206 -1.6741
  275MOL0     H37932   2.167   8.676   7.278  0.8717 -0.5276  0.2923
  275MOL0     H37933   2.011   8.837   7.378 -0.9576  0.0894 -0.6714
  275MOL0     H37934   2.149   7.736   7.140  0.4157 -2.3349  0.1404
  275MOL0     H37935   2.341   7.583   7.061 -0.8165 -1.6834 -2.7838
  275MOL0     H37936   2.684   7.515   6.935 -0.7755 -2.3665  1.4291
  275MOL0     H37937   2.874   7.359   6.948 -1.0075 -1.2870  1.6755
  275MOL0     H37938   2.934   7.031   6.675  0.3513  0.1258 -1.1677
  275MOL0     H37939   2.983   7.148   6.568 -0.2119 -0.5898 -0.2089
  275MOL0     H37940   3.214   7.156   6.684  0.7680  0.0933  0.7187
  275MOL0     H37941   3.181   7.009   6.590 -1.0555  1.6117 -0.5011
  275MOL0     H37942   3.289   6.956   6.804 -0.1243 -0.1559 -0.0626
  275MOL0     H37943   3.170   7.056   6.883  0.6011 -1.6700  1.6149
  275MOL0     H37944   3.087   6.812   6.717 -0.8103 -3.4097  0.6719
  275MOL0     H37945   3.013   6.876   6.871  0.9364  0.0053  2.7209
  275MOL0     H37946   3.313   6.654   7.048 -0.9021  0.4175  1.6637
  275MOL0     H37947   2.767   7.194   6.570 -0.6971 -1.0042 -0.4391
  275MOL0     H37948   2.590   7.251   6.484 -3.2016 -1.9950  2.0896
  275MOL0     H37949   2.464   7.342   6.567 -0.3277  1.0889 -1.8061
  275MOL0     H37950   2.577   7.421   6.450 -2.1644 -0.5559 -0.7218
  276MOL0     O37951   6.269   6.974   5.481  0.2743  0.3104 -0.1861
  276MOL0     C37952   6.167   6.968   5.554 -0.3714 -0.1271  0.7106
  276MOL0     O37953   6.151   7.022   5.675  0.2109 -0.2597  0.0359
  276MOL0     C37954   6.255   7.081   5.739  0.3486  0.0677 -0.6873
  276MOL0     C37955   6.239   7.201   5.803 -0.2049  0.8742 -0.0183
  276MOL0     C37956   6.348   7.253   5.877 -0.0997 -0.2374 -0.0628
  276MOL0     C37957   6.468   7.183   5.890 -0.0157  0.0620  0.0393
  276MOL0     O37958   6.573   7.222   5.967  0.1325  0.2815 -0.2057
  276MOL0     C37959   6.598   7.356   6.003 -0.4389 -0.4949  0.3511
  276MOL0     C37960   6.636   7.377   6.140 -1.1316  0.2051  0.1915
  276MOL0     C37961   6.517   7.379   6.236  0.1715  0.2615  0.5556
  276MOL0     C37962   6.578   7.402   6.377 -0.3198  0.4858  0.0764
  276MOL0     C37963   6.479   7.377   6.493 -0.0473 -0.0354  0.4039
  276MOL0     C37964   6.552   7.289   6.599  0.0107  0.2519 -0.3475
  276MOL0     C37965   6.552   7.139   6.569 -0.2129 -0.5420  0.5581
  276MOL0     C37966   6.429   7.077   6.635 -0.1831  0.2577 -0.0526
  276MOL0     N37967   6.419   6.936   6.598  0.2160 -0.5219 -0.3623
  276MOL0     C37968   6.517   6.842   6.620  0.1851 -0.6056  0.6213
  276MOL0     C37969   6.493   6.744   6.523  0.2620 -0.0587 -0.3435
  276MOL0     C37970   6.564   6.607   6.522 -0.0522  0.0164 -0.4605
  276MOL0     C37971   6.545   6.536   6.390 -0.9485  0.2032 -0.4118
  276MOL0     C37972   6.615   6.399   6.385  0.0299  0.4607  0.5674
  276MOL0     C37973   6.611   6.353   6.240 -0.6759 -0.1046  0.1981
  276MOL0     O37974   6.606   6.211   6.235  0.0863  0.1152 -0.1541
  276MOL0     C37975   6.650   6.161   6.114  0.0908  0.5348  0.4721
  276MOL0     C37976   6.728   6.041   6.111 -0.8164 -1.1197 -0.0406
  276MOL0     C37977   6.773   5.977   5.992 -0.9429  0.0685 -0.2424
  276MOL0     C37978   6.840   5.838   5.992 -0.2125  0.2799 -0.3199
  276MOL0     C37979   6.743   6.046   5.873  0.3698 -0.5769  0.0534
  276MOL0     C37980   6.771   5.987   5.734 -0.4479  0.5454 -0.4126
  276MOL0     O37981   6.801   6.078   5.641  0.2537 -0.0703  0.4806
  276MOL0     C37982   6.766   6.050   5.508  0.2905 -0.1798 -0.0669
  276MOL0     C37983   6.849   6.103   5.409 -0.5694 -0.2728  0.1915
  276MOL0     C37984   6.823   6.083   5.276  0.5675  0.7605 -0.1914
  276MOL0     C37985   6.713   6.004   5.233  0.5746  1.0337 -0.6636
  276MOL0     O37986   6.691   5.982   5.101  0.3232  0.0145  0.1007
  276MOL0     C37987   6.553   6.019   5.068  0.7375  0.1804  0.2340
  276MOL0     C37988   6.506   6.035   4.919 -0.6053  0.2901 -0.4271
  276MOL0     C37989   6.620   6.073   4.820 -0.3014  0.0839  0.2464
  276MOL0     C37990   6.670   6.216   4.839 -0.2584 -0.0425  0.0587
  276MOL0     C37991   6.756   6.252   4.716  0.6067 -0.1829  0.3906
  276MOL0     C37992   6.853   6.369   4.747  0.1692 -0.4160 -0.6003
  276MOL0     C37993   6.977   6.342   4.831  0.5326  0.1163 -0.3724
  276MOL0     C37994   7.028   6.455   4.926  0.1280 -0.0223  0.9670
  276MOL0    Cl37995   6.952   6.465   5.098  0.2275 -0.0037  0.0512
  276MOL0     C37996   6.625   5.961   5.337  0.1460 -0.4692  0.1847
  276MOL0     C37997   6.658   5.967   5.471 -0.4442  1.0109  0.0121
  276MOL0     O37998   6.780   5.862   5.717 -0.6883 -0.5460  0.1821
  276MOL0     C37999   6.688   6.168   5.867 -0.2898 -0.1820 -0.6658
  276MOL0     C38000   6.636   6.225   5.988  0.0380  0.1024  0.0737
  276MOL0     N38001   6.388   6.789   6.442 -0.2158 -0.1642  0.1715
  276MOL0     N38002   6.344   6.906   6.490  0.5124 -0.3080  0.1008
  276MOL0     C38003   6.492   7.054   5.825 -1.1122 -0.5019 -0.4455
  276MOL0     C38004   6.382   7.001   5.754  0.4506 -0.0679  0.4127
  276MOL0     C38005   6.051   6.897   5.505  0.2889 -0.4921 -1.1097
  276MOL0     C38006   5.933   6.967   5.495 -0.8566 -0.4571  0.7373
  276MOL0     C38007   5.820   6.902   5.436 -0.1819 -0.1520  0.8932
  276MOL0     C38008   5.834   6.762   5.387 -0.3209  0.8784  0.3471
  276MOL0     O38009   5.741   6.682   5.335  0.3476 -0.0054 -0.4375
  276MOL0     C38010   5.599   6.712   5.351 -0.4801  0.8948  0.3224
  276MOL0     C38011   5.527   6.577   5.325 -0.5776  0.0502  0.1405
  276MOL0     C38012   5.384   6.600   5.300  0.4493  0.4810 -0.1046
  276MOL0     C38013   5.315   6.470   5.247  0.8040  0.7577 -0.4764
  276MOL0     C38014   5.305   6.371   5.360  0.3709  0.0296  0.9549
  276MOL0     C38015   5.309   6.277   5.437  0.1980 -0.0321 -0.5878
  276MOL0     C38016   5.952   6.696   5.405 -0.3356  0.0931  0.8982
  276MOL0     C38017   6.056   6.760   5.473 -0.3258 -0.1288 -0.1475
  276MOL0     C38018   6.182   6.686   5.496  0.4342 -0.1221 -1.1223
  276MOL0     H38019   6.137   7.239   5.801 -1.9147 -3.2422 -2.2540
  276MOL0     H38020   6.325   7.348   5.925 -1.0884 -0.1409 -0.6833
  276MOL0     H38021   6.508   7.418   5.988 -1.2268 -1.8684 -0.8887
  276MOL0     H38022   6.666   7.405   5.933 -1.0570  2.7875  1.8585
  276MOL0     H38023   6.697   7.291   6.171 -0.0131  0.5344 -1.0244
  276MOL0     H38024   6.698   7.467   6.148 -0.1099 -0.6256  3.4928
  276MOL0     H38025   6.449   7.464   6.219 -0.1898  0.9880  4.5236
  276MOL0     H38026   6.455   7.289   6.235  1.5649 -0.7294  0.5580
  276MOL0     H38027   6.672   7.347   6.383  0.1381  1.0995 -1.1473
  276MOL0     H38028   6.610   7.506   6.392 -1.9608  0.6535  3.7007
  276MOL0     H38029   6.397   7.318   6.452  0.7639 -2.6388  2.2592
  276MOL0     H38030   6.446   7.472   6.537 -0.9477  0.5588 -1.4520
  276MOL0     H38031   6.657   7.316   6.607  0.2007 -0.1604 -1.2890
  276MOL0     H38032   6.514   7.305   6.700 -1.0339 -0.5300 -0.5977
  276MOL0     H38033   6.635   7.082   6.610 -2.1165 -2.3939  2.0893
  276MOL0     H38034   6.535   7.122   6.462 -1.6713 -2.0270  0.9712
  276MOL0     H38035   6.439   7.069   6.744  2.3808 -3.4907 -0.3713
  276MOL0     H38036   6.338   7.129   6.605 -0.5883 -1.8490 -2.8474
  276MOL0     H38037   6.587   6.836   6.703 -1.1018  0.8566  1.8761
  276MOL0     H38038   6.516   6.556   6.605 -0.9505  1.9662  0.2735
  276MOL0     H38039   6.667   6.628   6.553 -0.1915 -1.1678  0.9000
  276MOL0     H38040   6.440   6.514   6.368 -0.9848 -0.0460  0.0013
  276MOL0     H38041   6.576   6.604   6.310 -0.2390 -0.3592 -0.6247
  276MOL0     H38042   6.718   6.411   6.420 -0.3292 -0.2096  1.9141
  276MOL0     H38043   6.576   6.324   6.455  0.3614  2.7256  3.4014
  276MOL0     H38044   6.531   6.395   6.177  0.2759 -2.0096 -2.4696
  276MOL0     H38045   6.702   6.389   6.191  0.9148 -1.3763  2.0945
  276MOL0     H38046   6.763   5.999   6.205  1.5863 -0.9426 -0.7822
  276MOL0     H38047   6.852   5.803   6.095 -3.1615  1.4926  0.5351
  276MOL0     H38048   6.936   5.850   5.942  0.0540  0.1902  0.1603
  276MOL0     H38049   6.776   5.767   5.941 -0.5227  0.3754 -0.0670
  276MOL0     H38050   6.933   6.167   5.431 -1.4963  1.1071 -0.1258
  276MOL0     H38051   6.879   6.134   5.199  0.9263 -0.5004 -0.7882
  276MOL0     H38052   6.479   5.953   5.114  1.7714 -1.9449 -1.0019
  276MOL0     H38053   6.536   6.119   5.110 -1.8881  0.9622 -2.3433
  276MOL0     H38054   6.460   5.942   4.883 -0.8647 -0.4295  1.6112
  276MOL0     H38055   6.428   6.108   4.897  0.0533  1.1361 -0.0187
  276MOL0     H38056   6.578   6.052   4.720  0.1369 -1.3213  0.3428
  276MOL0     H38057   6.696   5.999   4.844 -0.9643 -0.6646  0.0929
  276MOL0     H38058   6.727   6.211   4.933 -0.0951 -2.8691 -0.1189
  276MOL0     H38059   6.583   6.280   4.854  0.9006  1.9276 -1.1288
  276MOL0     H38060   6.813   6.165   4.681 -0.1624 -1.5566  2.3816
  276MOL0     H38061   6.692   6.285   4.634  2.3899  1.0225 -0.5859
  276MOL0     H38062   6.794   6.446   4.797  0.9170 -0.0470 -0.2783
  276MOL0     H38063   6.884   6.409   4.650 -1.8195 -0.2613 -1.2196
  276MOL0     H38064   7.056   6.328   4.757  4.0496  4.4114  2.0670
  276MOL0     H38065   6.956   6.261   4.901  1.3687  3.6333  4.5219
  276MOL0     H38066   7.031   6.556   4.885  4.8158 -0.4245 -0.3748
  276MOL0     H38067   7.131   6.427   4.952  1.5957  0.6270 -3.3467
  276MOL0     H38068   6.537   5.898   5.324  0.7997 -2.6136  4.4299
  276MOL0     H38069   6.607   5.903   5.542 -0.4810 -0.6358 -1.4379
  276MOL0     H38070   6.675   6.218   5.771  2.1328 -1.7479 -1.8973
  276MOL0     H38071   6.582   6.318   5.978 -0.3241 -0.3189 -2.4258
  276MOL0     H38072   6.592   7.012   5.834 -2.4702 -3.5360  2.2594
  276MOL0     H38073   6.413   6.911   5.701 -1.5535 -0.4372 -0.2047
  276MOL0     H38074   5.919   7.065   5.540 -1.7165 -1.2085  2.1982
  276MOL0     H38075   5.724   6.952   5.437 -1.4350 -2.4125  0.0748
  276MOL0     H38076   5.568   6.745   5.451  1.6555  5.4792 -0.2706
  276MOL0     H38077   5.572   6.801   5.293 -0.0617  1.0670  0.3866
  276MOL0     H38078   5.543   6.508   5.408  1.6034  1.1807  0.7532
  276MOL0     H38079   5.562   6.524   5.236  3.7111  0.7162  1.2243
  276MOL0     H38080   5.330   6.628   5.390  1.3233 -2.6165  1.5259
  276MOL0     H38081   5.377   6.686   5.233  0.1657  1.7774  1.5339
  276MOL0     H38082   5.374   6.426   5.166 -0.7257  1.2549 -1.9191
  276MOL0     H38083   5.213   6.480   5.210  0.0017 -0.1805  1.3880
  276MOL0     H38084   5.324   6.192   5.501 -2.6913 -2.0839 -2.3450
  276MOL0     H38085   5.958   6.589   5.390 -0.4569 -0.0099  1.5516
  276MOL0     H38086   6.260   6.701   5.420 -0.1760  0.5311 -1.6265
  276MOL0     H38087   6.223   6.717   5.593 -1.1257  0.1049 -0.5166
  276MOL0     H38088   6.168   6.578   5.507  2.1369 -0.5106 -2.3511
  277MOL0     O38089   4.320   6.686   2.253 -0.1802  0.8565 -0.3666
  277MOL0     C38090   4.358   6.664   2.141  0.0528  0.1977  0.0553
  277MOL0     O38091   4.332   6.739   2.031  0.6812 -0.2791 -0.3188
  277MOL0     C38092   4.214   6.810   2.032  0.0806  0.2133  0.4145
  277MOL0     C38093   4.093   6.749   1.997 -0.2941  0.7218  0.3349
  277MOL0     C38094   3.967   6.801   2.019 -0.5223  0.5031 -0.6933
  277MOL0     C38095   3.960   6.930   2.084 -0.3200 -0.9625  0.9864
  277MOL0     O38096   3.850   7.007   2.087  0.6602  0.0337 -1.0510
  277MOL0     C38097   3.783   7.060   1.968  0.3674  0.2663 -0.1226
  277MOL0     C38098   3.626   7.016   1.964 -0.1268  0.5473 -0.8341
  277MOL0     C38099   3.601   6.863   1.956  0.1655 -0.6731  0.1811
  277MOL0     C38100   3.461   6.811   1.994  0.8668 -0.4254  0.3098
  277MOL0     C38101   3.452   6.657   1.980  0.4908 -0.1471 -0.7348
  277MOL0     C38102   3.320   6.598   2.029 -0.4108  0.6584  0.7198
  277MOL0     C38103   3.340   6.448   2.055 -0.1077  0.2575 -0.7804
  277MOL0     C38104   3.379   6.368   1.930  0.2468 -0.1821  0.1137
  277MOL0     N38105   3.292   6.397   1.814  0.2279 -0.4442 -0.2814
  277MOL0     C38106   3.160   6.347   1.805 -0.0099  0.1543 -0.6916
  277MOL0     C38107   3.136   6.372   1.673  0.8245 -0.2370  0.2841
  277MOL0     C38108   3.013   6.327   1.602 -0.7956  0.3234 -0.8093
  277MOL0     C38109   2.936   6.461   1.597  0.2203 -0.7073  0.3954
  277MOL0     C38110   2.841   6.454   1.480  0.0319 -0.0670  1.0289
  277MOL0     C38111   2.757   6.586   1.467  0.6441  0.2995  0.1437
  277MOL0     O38112   2.653   6.566   1.363 -0.1878 -0.1176  0.3806
  277MOL0     C38113   2.529   6.519   1.386  0.2212  0.5664  0.2620
  277MOL0     C38114   2.478   6.485   1.510  0.2058 -0.6421 -0.6695
  277MOL0     C38115   2.345   6.431   1.519 -0.6981 -0.6603  0.2411
  277MOL0     C38116   2.296   6.403   1.651 -0.1396 -0.1845  0.1598
  277MOL0     C38117   2.277   6.413   1.395  0.1620  0.0395 -0.2606
  277MOL0     C38118   2.141   6.369   1.377  0.9711  0.0559 -0.3071
  277MOL0     O38119   2.078   6.321   1.491 -0.1976  0.5234  0.4636
  277MOL0     C38120   1.946   6.295   1.483 -0.2776 -1.4242 -0.3185
  277MOL0     C38121   1.894   6.168   1.492 -0.2942 -0.4006 -0.9442
  277MOL0     C38122   1.759   6.129   1.499 -0.5202  0.1779  1.1833
  277MOL0     C38123   1.667   6.242   1.491  0.7688 -0.2455  0.4369
  277MOL0     O38124   1.527   6.232   1.477 -0.3400  0.4438  0.8480
  277MOL0     C38125   1.472   6.126   1.552 -0.2739 -0.0274  1.1921
  277MOL0     C38126   1.328   6.167   1.574 -0.0595 -0.3588  0.3552
  277MOL0     C38127   1.321   6.308   1.639 -0.6385 -0.0300 -0.6650
  277MOL0     C38128   1.175   6.375   1.633  0.1390  0.5924  0.0407
  277MOL0     C38129   1.096   6.329   1.748 -0.6451 -0.6618 -0.9764
  277MOL0     C38130   1.109   6.436   1.861  0.7206 -0.0582  0.0300
  277MOL0     C38131   1.039   6.389   1.990  0.2007  0.5296 -0.1257
  277MOL0     C38132   0.894   6.366   1.984  0.9589  0.1238  0.4515
  277MOL0    Cl38133   0.821   6.534   1.956 -0.3666 -0.2330  0.0438
  277MOL0     C38134   1.714   6.373   1.482 -0.5162  0.7768 -0.2200
  277MOL0     C38135   1.852   6.394   1.470 -0.5131 -0.6372  0.0650
  277MOL0     O38136   2.074   6.388   1.271 -0.0212  0.5337  0.2356
  277MOL0     C38137   2.335   6.452   1.279  0.1114 -0.4790 -0.3384
  277MOL0     C38138   2.456   6.497   1.275 -0.3743 -0.0130 -0.5273
  277MOL0     N38139   3.238   6.447   1.610  0.6301  0.2912 -0.1036
  277MOL0     N38140   3.328   6.461   1.697  0.3483  0.1666 -0.2040
  277MOL0     C38141   4.088   6.992   2.113  0.2973 -0.2287 -0.1827
  277MOL0     C38142   4.211   6.940   2.088  0.0675 -0.1096  0.2368
  277MOL0     C38143   4.464   6.554   2.109  0.3071 -0.7498 -0.9057
  277MOL0     C38144   4.545   6.518   2.211 -0.0111  0.2664 -0.3578
  277MOL0     C38145   4.641   6.410   2.197 -0.1767 -0.1620 -0.4841
  277MOL0     C38146   4.645   6.338   2.075 -0.2199  0.3688  0.4760
  277MOL0     O38147   4.719   6.219   2.069  0.4920  0.4173  0.5800
  277MOL0     C38148   4.642   6.110   2.128 -0.0728  0.4248  0.4031
  277MOL0     C38149   4.722   5.979   2.131 -0.0227 -1.1988 -0.0606
  277MOL0     C38150   4.761   5.937   1.987 -0.9424  0.4161  0.7216
  277MOL0     C38151   4.812   5.800   1.989  0.0636 -0.5933 -0.0317
  277MOL0     C38152   4.835   5.763   1.857  0.3756  0.3568  0.3559
  277MOL0     C38153   4.867   5.722   1.747 -0.0229 -0.7373  0.7996
  277MOL0     C38154   4.562   6.385   1.972  0.3267 -0.5822  0.4093
  277MOL0     C38155   4.475   6.490   1.979 -0.5307 -0.2475 -0.0479
  277MOL0     C38156   4.388   6.530   1.857 -0.1264  0.0698  0.0262
  277MOL0     H38157   4.099   6.652   1.947  0.3622  0.5384  0.7546
  277MOL0     H38158   3.886   6.740   1.980 -2.1809  0.8725  1.9619
  277MOL0     H38159   3.830   7.024   1.876 -2.2789  0.1672 -1.5217
  277MOL0     H38160   3.784   7.168   1.981 -0.5702  0.2915 -0.2419
  277MOL0     H38161   3.567   7.055   2.047 -1.7788 -1.7945 -0.8007
  277MOL0     H38162   3.585   7.070   1.879  3.8594  1.0394 -2.6934
  277MOL0     H38163   3.631   6.835   1.854  3.6429  0.3087  0.8063
  277MOL0     H38164   3.668   6.799   2.015 -1.6418 -3.2432 -0.3656
  277MOL0     H38165   3.424   6.841   2.093 -2.5172  0.4189 -1.0634
  277MOL0     H38166   3.393   6.861   1.924 -0.1835 -1.2078  0.7432
  277MOL0     H38167   3.537   6.616   2.034 -1.6498 -0.3823  2.7130
  277MOL0     H38168   3.457   6.642   1.871 -2.5310 -1.3866 -0.8170
  277MOL0     H38169   3.290   6.644   2.124 -2.3054 -0.5024  0.7449
  277MOL0     H38170   3.235   6.614   1.963 -0.3506  3.6579  1.2304
  277MOL0     H38171   3.254   6.396   2.099  0.2840  0.8538  0.7526
  277MOL0     H38172   3.417   6.444   2.132  0.2128 -0.0815 -1.1150
  277MOL0     H38173   3.477   6.405   1.900  0.4354  1.4140  2.4626
  277MOL0     H38174   3.384   6.262   1.954  3.2626 -0.4425 -1.2351
  277MOL0     H38175   3.102   6.282   1.869  0.8886 -1.5613 -1.5593
  277MOL0     H38176   2.960   6.251   1.660  2.1729 -1.3329 -0.0049
  277MOL0     H38177   3.043   6.296   1.502 -0.2708 -1.0824 -0.2502
  277MOL0     H38178   2.878   6.475   1.689 -5.1746  1.9576 -2.8810
  277MOL0     H38179   2.989   6.556   1.585 -0.3659 -0.2499  1.2882
  277MOL0     H38180   2.910   6.449   1.395 -0.1440 -1.5647  0.9566
  277MOL0     H38181   2.783   6.362   1.482  2.6881 -1.8654  0.4108
  277MOL0     H38182   2.714   6.614   1.564 -0.6504  0.5893 -0.4923
  277MOL0     H38183   2.830   6.665   1.444 -1.9326  2.6720 -0.4703
  277MOL0     H38184   2.534   6.498   1.602 -1.8110  2.8709  0.2394
  277MOL0     H38185   2.365   6.433   1.730  0.6582 -2.8018  0.5698
  277MOL0     H38186   2.279   6.295   1.659  1.3948 -0.5609 -1.2081
  277MOL0     H38187   2.212   6.467   1.678  0.0161  0.2213 -0.3087
  277MOL0     H38188   1.977   6.099   1.482  0.2817  0.5719 -3.6037
  277MOL0     H38189   1.737   6.023   1.510 -0.2748  0.1117  1.0548
  277MOL0     H38190   1.479   6.041   1.484  0.8744  0.2164  0.9976
  277MOL0     H38191   1.522   6.084   1.640 -1.7179 -4.5648  0.1088
  277MOL0     H38192   1.294   6.171   1.470  1.8037 -2.6888 -0.4224
  277MOL0     H38193   1.265   6.091   1.619 -0.8997 -1.7287 -2.8619
  277MOL0     H38194   1.374   6.376   1.571  0.4953 -0.1652  0.0627
  277MOL0     H38195   1.353   6.317   1.743 -2.8758 -0.9919  0.1691
  277MOL0     H38196   1.137   6.332   1.540  1.1597  0.2341 -0.2324
  277MOL0     H38197   1.174   6.483   1.618  0.9955  0.5119 -0.7009
  277MOL0     H38198   0.991   6.309   1.721  0.2143 -3.4166 -2.6340
  277MOL0     H38199   1.130   6.235   1.792  1.0762  0.6009  0.5624
  277MOL0     H38200   1.061   6.524   1.816 -0.7684 -0.8452  0.0267
  277MOL0     H38201   1.215   6.450   1.885  0.9975  2.5377 -2.2065
  277MOL0     H38202   1.055   6.467   2.066  1.0457  0.9957 -0.7592
  277MOL0     H38203   1.099   6.302   2.020  1.7947  1.5495 -0.2428
  277MOL0     H38204   0.853   6.337   2.081 -2.9554 -2.9097 -1.8061
  277MOL0     H38205   0.876   6.286   1.912 -1.7539  2.2818 -1.4916
  277MOL0     H38206   1.650   6.461   1.478 -0.2588  0.9438 -0.8543
  277MOL0     H38207   1.894   6.494   1.480 -1.4470 -0.3627  1.5576
  277MOL0     H38208   2.289   6.448   1.181 -0.3968  0.2241 -0.1405
  277MOL0     H38209   2.507   6.516   1.182  1.9112  3.7538  1.2460
  277MOL0     H38210   4.077   7.094   2.148 -2.8488  0.0765 -1.7476
  277MOL0     H38211   4.299   6.999   2.112 -1.1816  1.2563  1.7143
  277MOL0     H38212   4.531   6.555   2.312 -1.1746 -2.8976  0.7809
  277MOL0     H38213   4.692   6.382   2.288 -1.9146 -0.2409  0.5023
  277MOL0     H38214   4.620   6.134   2.232 -1.1194 -1.3036  0.6143
  277MOL0     H38215   4.549   6.083   2.077  1.7739 -1.2398 -2.3586
  277MOL0     H38216   4.662   5.895   2.167 -1.0608 -0.3051  0.3296
  277MOL0     H38217   4.810   5.983   2.196  0.1591  0.0485 -0.3650
  277MOL0     H38218   4.671   5.933   1.924 -0.7926  0.7618  0.4822
  277MOL0     H38219   4.830   6.011   1.946  0.2257 -0.4237  1.1227
  277MOL0     H38220   4.741   5.723   2.021  0.2513 -1.3482 -1.3334
  277MOL0     H38221   4.903   5.790   2.048  1.2764 -2.4733 -2.0323
  277MOL0     H38222   4.895   5.685   1.651 -0.7825 -0.9429  0.6451
  277MOL0     H38223   4.560   6.346   1.871  0.4457  0.2895  0.0596
  277MOL0     H38224   4.283   6.524   1.886  0.4460  0.2372  2.2986
  277MOL0     H38225   4.410   6.624   1.805  2.7622 -0.4284  0.1664
  277MOL0     H38226   4.396   6.457   1.775 -4.8704  0.2474 -0.8861
  278MOL0     O38227   0.972   5.188   4.818  0.5241  0.0262  0.2308
  278MOL0     C38228   1.038   5.276   4.881 -0.8012 -0.1749 -0.4400
  278MOL0     O38229   1.150   5.260   4.965 -0.0089  0.8920 -0.3771
  278MOL0     C38230   1.188   5.130   4.979  0.3552 -0.1823  0.0470
  278MOL0     C38231   1.293   5.079   4.915  0.2362 -0.7578  0.3766
  278MOL0     C38232   1.323   4.943   4.949 -0.0436 -0.2505 -0.2345
  278MOL0     C38233   1.262   4.864   5.045  0.8064 -0.3507  0.0176
  278MOL0     O38234   1.306   4.739   5.074 -0.4442  0.3714  0.4796
  278MOL0     C38235   1.222   4.644   5.144  0.6906 -0.4282  0.1346
  278MOL0     C38236   1.278   4.497   5.143  0.4305 -0.2844  0.5502
  278MOL0     C38237   1.312   4.454   5.000  0.8098  0.3528 -0.5729
  278MOL0     C38238   1.380   4.324   5.005 -0.1343 -0.3149  1.1275
  278MOL0     C38239   1.366   4.246   4.870  0.8671 -0.3391  1.0480
  278MOL0     C38240   1.399   4.102   4.902  0.1685 -0.5000 -0.3463
  278MOL0     C38241   1.391   4.006   4.788  0.2301 -0.5050  0.8762
  278MOL0     C38242   1.399   3.858   4.825  0.5444  1.2741 -0.5221
  278MOL0     N38243   1.457   3.783   4.705 -0.3225  0.5459  0.0404
  278MOL0     C38244   1.378   3.745   4.597 -0.4064  0.2903  1.0499
  278MOL0     C38245   1.449   3.652   4.520  0.0618 -0.5269  0.5415
  278MOL0     C38246   1.394   3.572   4.409  0.4517  0.3135 -0.4653
  278MOL0     C38247   1.431   3.630   4.277 -0.9868  0.2766  0.1253
  278MOL0     C38248   1.382   3.527   4.172  0.5130 -0.2308  0.0913
  278MOL0     C38249   1.398   3.577   4.029 -0.3039 -0.1948  0.3571
  278MOL0     O38250   1.323   3.505   3.928 -0.1738  0.4399  0.4721
  278MOL0     C38251   1.330   3.552   3.799  0.2688  0.0470  0.0168
  278MOL0     C38252   1.399   3.669   3.757 -0.2846  0.3365 -0.9816
  278MOL0     C38253   1.421   3.701   3.619 -0.2642  0.5679  0.4926
  278MOL0     C38254   1.510   3.822   3.595 -0.6293 -0.5018 -0.1736
  278MOL0     C38255   1.357   3.613   3.523 -0.0468 -0.7874  0.6255
  278MOL0     C38256   1.370   3.656   3.380 -0.1156 -0.3630  0.1324
  278MOL0     O38257   1.372   3.564   3.286 -0.2084  0.6155 -0.4166
  278MOL0     C38258   1.390   3.591   3.147  0.4491  0.1241 -0.5574
  278MOL0     C38259   1.496   3.668   3.101 -0.6193 -0.1788 -0.0491
  278MOL0     C38260   1.494   3.706   2.967  0.0510 -0.1775 -0.8549
  278MOL0     C38261   1.399   3.645   2.878 -0.5502  0.5344  0.0356
  278MOL0     O38262   1.404   3.682   2.746 -0.0237  0.3639  0.1623
  278MOL0     C38263   1.304   3.644   2.656  0.1549 -0.1962 -0.7302
  278MOL0     C38264   1.336   3.710   2.521 -0.2365 -0.1280 -0.8879
  278MOL0     C38265   1.463   3.654   2.465 -0.2663 -0.0997 -0.0154
  278MOL0     C38266   1.507   3.720   2.332  0.6342  0.1798 -0.7515
  278MOL0     C38267   1.431   3.669   2.203 -0.8258 -0.1291 -0.5115
  278MOL0     C38268   1.431   3.778   2.095  0.0638  0.7671  0.3393
  278MOL0     C38269   1.581   3.814   2.066 -0.1440 -0.2985  0.4765
  278MOL0     C38270   1.584   3.896   1.937 -1.0331 -0.3818  0.0541
  278MOL0    Cl38271   1.587   3.791   1.798  0.7434  0.3056  0.1147
  278MOL0     C38272   1.300   3.571   2.928  0.8590  0.3874  0.1727
  278MOL0     C38273   1.293   3.538   3.061 -0.0914 -0.3009 -0.7500
  278MOL0     O38274   1.340   3.772   3.362 -0.2691  0.7644  0.1688
  278MOL0     C38275   1.291   3.499   3.569 -0.3304  0.0654  0.5236
  278MOL0     C38276   1.277   3.475   3.705 -0.5685 -0.0895 -0.4076
  278MOL0     N38277   1.565   3.640   4.578  0.3045 -0.3708 -0.6146
  278MOL0     N38278   1.575   3.711   4.691 -0.4730  0.0060  0.2794
  278MOL0     C38279   1.151   4.918   5.109 -0.2994  0.2044 -0.3371
  278MOL0     C38280   1.114   5.049   5.075  0.8925  0.3484  0.5496
  278MOL0     C38281   0.994   5.414   4.864 -0.1744 -0.4169 -0.1804
  278MOL0     C38282   1.038   5.487   4.756  0.2985  0.0440 -0.1296
  278MOL0     C38283   0.984   5.622   4.736  0.6697  0.8475 -0.3286
  278MOL0     C38284   0.875   5.667   4.819 -0.0918  0.8788 -0.4772
  278MOL0     O38285   0.814   5.785   4.786  0.6575 -0.3259 -0.3577
  278MOL0     C38286   0.756   5.787   4.653 -1.1475  0.3037  0.0329
  278MOL0     C38287   0.631   5.884   4.665 -0.5600  0.5291  0.8797
  278MOL0     C38288   0.566   5.904   4.529 -0.3730  0.5354  0.9300
  278MOL0     C38289   0.503   6.038   4.519 -0.1257  0.9721 -0.3950
  278MOL0     C38290   0.369   6.039   4.582  0.1586 -0.9620 -0.4251
  278MOL0     C38291   0.271   6.053   4.643  0.1671  0.4856 -0.6211
  278MOL0     C38292   0.845   5.595   4.925 -0.4257 -1.1809 -0.1122
  278MOL0     C38293   0.895   5.472   4.948 -0.0370  0.8554  0.1348
  278MOL0     C38294   0.850   5.394   5.066 -0.2145 -0.5870  0.0816
  278MOL0     H38295   1.351   5.143   4.848 -2.8540  1.5920 -0.2711
  278MOL0     H38296   1.410   4.896   4.904 -1.0030 -1.9066 -0.4518
  278MOL0     H38297   1.123   4.642   5.098 -0.0696 -2.1935  1.7271
  278MOL0     H38298   1.209   4.675   5.248 -0.3989 -0.0771 -0.0881
  278MOL0     H38299   1.368   4.488   5.205  1.1118 -2.1530 -0.6299
  278MOL0     H38300   1.209   4.422   5.181  1.6318 -1.4220  0.5781
  278MOL0     H38301   1.217   4.440   4.946  0.5694 -0.0910 -0.0374
  278MOL0     H38302   1.382   4.523   4.951 -1.3311  3.0951 -0.0709
  278MOL0     H38303   1.486   4.343   5.018  0.8119 -0.8115 -3.7991
  278MOL0     H38304   1.342   4.262   5.087 -0.9884 -1.4891 -0.0941
  278MOL0     H38305   1.443   4.282   4.801  1.0570  0.3007  1.5794
  278MOL0     H38306   1.273   4.256   4.814  1.4485 -2.1620 -0.3625
  278MOL0     H38307   1.499   4.094   4.947 -0.4347 -3.2949  0.6977
  278MOL0     H38308   1.319   4.080   4.974 -0.1438  0.0997 -0.5045
  278MOL0     H38309   1.466   4.036   4.715 -0.8196  1.3269  0.4903
  278MOL0     H38310   1.298   4.016   4.731  1.6717 -1.2175 -1.7701
  278MOL0     H38311   1.465   3.838   4.910 -1.2943 -2.0809  0.2962
  278MOL0     H38312   1.294   3.833   4.841  0.3248  2.1924 -0.4622
  278MOL0     H38313   1.279   3.777   4.568 -1.0275 -1.5497  1.0097
  278MOL0     H38314   1.285   3.565   4.414 -0.1141 -0.4015 -6.7245
  278MOL0     H38315   1.435   3.470   4.414  1.6572  0.7676 -0.8310
  278MOL0     H38316   1.390   3.730   4.259 -2.2954 -0.4083 -0.8953
  278MOL0     H38317   1.540   3.634   4.265 -0.9523 -2.8424 -1.8003
  278MOL0     H38318   1.445   3.438   4.185  1.3105  0.3085 -0.0332
  278MOL0     H38319   1.279   3.493   4.184 -0.0030  1.0875 -0.3887
  278MOL0     H38320   1.363   3.680   4.012  0.4852 -0.1568 -1.1518
  278MOL0     H38321   1.504   3.581   4.002 -0.2142 -0.6824  0.6360
  278MOL0     H38322   1.435   3.736   3.834 -0.1883  1.0048 -1.5971
  278MOL0     H38323   1.453   3.915   3.601  0.2086 -0.0584  1.8971
  278MOL0     H38324   1.576   3.811   3.509 -0.2936 -2.0031  0.2467
  278MOL0     H38325   1.576   3.817   3.682 -1.2607 -2.0875  0.2593
  278MOL0     H38326   1.571   3.706   3.170  1.2479  0.1291 -2.1481
  278MOL0     H38327   1.565   3.779   2.930 -2.6979  2.9069 -0.5425
  278MOL0     H38328   1.300   3.536   2.640  1.5521  0.0163 -3.0934
  278MOL0     H38329   1.204   3.678   2.682 -0.7736 -1.0079 -2.9919
  278MOL0     H38330   1.254   3.698   2.450 -0.2117 -0.0924 -0.9230
  278MOL0     H38331   1.346   3.817   2.539  0.4167 -0.1662 -0.9929
  278MOL0     H38332   1.458   3.545   2.466 -3.8064 -0.0970  2.3064
  278MOL0     H38333   1.542   3.681   2.535  1.5142 -2.4012 -0.9869
  278MOL0     H38334   1.615   3.712   2.318  0.8981 -2.2214  1.7898
  278MOL0     H38335   1.487   3.828   2.334  0.1265  0.1192 -1.8079
  278MOL0     H38336   1.491   3.585   2.167 -1.1674 -1.0975  1.0972
  278MOL0     H38337   1.331   3.638   2.234 -0.3646 -1.2048 -0.0433
  278MOL0     H38338   1.371   3.863   2.127  0.3286  0.3875  1.9803
  278MOL0     H38339   1.381   3.752   2.001 -0.1998  2.0506  0.1118
  278MOL0     H38340   1.639   3.722   2.054 -2.1322 -1.3971 -1.7492
  278MOL0     H38341   1.618   3.877   2.147  0.0953  1.1855 -0.7360
  278MOL0     H38342   1.681   3.944   1.947 -0.5186 -1.6350  1.5776
  278MOL0     H38343   1.506   3.972   1.939 -1.2144 -0.5357 -0.7379
  278MOL0     H38344   1.221   3.519   2.873  0.1659  0.8629  0.6931
  278MOL0     H38345   1.207   3.486   3.103  0.1747  1.1733  1.8132
  278MOL0     H38346   1.242   3.422   3.510  1.2972 -0.9981  0.5122
  278MOL0     H38347   1.229   3.384   3.739  2.4828 -2.1718 -1.2386
  278MOL0     H38348   1.105   4.861   5.189  0.2844 -1.4337 -1.1157
  278MOL0     H38349   1.025   5.088   5.125 -0.3373 -1.4664 -0.1461
  278MOL0     H38350   1.113   5.442   4.692  0.4682  1.5695 -1.0494
  278MOL0     H38351   1.013   5.685   4.652  1.6541  0.3534 -0.3700
  278MOL0     H38352   0.828   5.824   4.579 -0.5435 -1.3595 -0.2498
  278MOL0     H38353   0.722   5.686   4.629 -1.4258 -0.0217  1.6830
  278MOL0     H38354   0.670   5.973   4.714 -0.7262  1.4414 -0.5831
  278MOL0     H38355   0.551   5.838   4.724 -1.1195  0.1098 -0.1694
  278MOL0     H38356   0.656   5.919   4.468 -0.7403 -1.0533 -0.0547
  278MOL0     H38357   0.507   5.826   4.481  3.1400 -0.5784 -2.0728
  278MOL0     H38358   0.488   6.051   4.411  0.3537 -2.6516 -1.0326
  278MOL0     H38359   0.572   6.109   4.563  1.2125 -2.7574  4.3854
  278MOL0     H38360   0.179   6.062   4.698 -0.9814 -1.4275 -2.1005
  278MOL0     H38361   0.769   5.630   4.994  1.3981  1.5161  0.6528
  278MOL0     H38362   0.846   5.457   5.155  0.4615 -2.0374  1.1792
  278MOL0     H38363   0.748   5.360   5.047  0.1060 -1.5927  0.0531
  278MOL0     H38364   0.907   5.305   5.097 -0.9716 -1.4592 -0.9248
  279MOL0     O38365   8.442  10.971   1.750  0.2632 -0.8743 -0.2720
  279MOL0     C38366   8.390  11.083   1.718  0.3285 -0.2601 -0.0400
  279MOL0     O38367   8.317  11.150   1.810  0.3036 -0.6671  0.3812
  279MOL0     C38368   8.195  11.091   1.851 -0.3742  0.6966 -0.0102
  279MOL0     C38369   8.131  11.158   1.955  0.0351 -0.0347 -0.1909
  279MOL0     C38370   8.025  11.109   2.020 -0.3147  0.2769 -0.3996
  279MOL0     C38371   7.964  10.986   1.983 -0.6470  0.6081  0.1320
  279MOL0     O38372   7.851  10.945   2.047  0.1020  0.2576  0.3615
  279MOL0     C38373   7.848  10.800   2.077  0.7083  0.6033 -0.3762
  279MOL0     C38374   7.738  10.770   2.186 -0.2139  0.3684  0.7420
  279MOL0     C38375   7.592  10.791   2.148 -0.0684 -0.7410  0.0195
  279MOL0     C38376   7.552  10.711   2.025 -0.7414  0.3800  0.3277
  279MOL0     C38377   7.395  10.703   2.017  0.6935 -0.1442  0.4637
  279MOL0     C38378   7.336  10.615   1.902 -0.1002  0.2996  0.0546
  279MOL0     C38379   7.360  10.671   1.757 -0.4463 -0.2781  0.0635
  279MOL0     C38380   7.306  10.572   1.651 -0.9302  0.6577 -0.6791
  279MOL0     N38381   7.160  10.565   1.656 -0.2765 -0.7479 -0.8659
  279MOL0     C38382   7.087  10.462   1.702  0.2806 -0.8105  0.0818
  279MOL0     C38383   6.963  10.525   1.725 -0.9309  0.2769 -0.1554
  279MOL0     C38384   6.847  10.466   1.802  0.3296 -0.1659  0.3131
  279MOL0     C38385   6.729  10.466   1.706 -0.1937  0.9759  0.1809
  279MOL0     C38386   6.627  10.366   1.752  0.5395 -0.2402 -0.9437
  279MOL0     C38387   6.509  10.335   1.654 -0.3656  0.4498 -0.4120
  279MOL0     O38388   6.421  10.251   1.722 -0.6020  0.3908  0.9946
  279MOL0     C38389   6.287  10.269   1.723 -0.2868 -0.1211  0.8079
  279MOL0     C38390   6.213  10.331   1.620  1.1266 -0.6833  0.6149
  279MOL0     C38391   6.076  10.349   1.625 -0.1441 -0.4828  0.3234
  279MOL0     C38392   6.015  10.427   1.506  0.3234 -0.6458 -0.4444
  279MOL0     C38393   5.999  10.298   1.734  0.4398  0.5235 -0.2845
  279MOL0     C38394   5.854  10.292   1.727 -0.1705 -0.2304  0.4622
  279MOL0     O38395   5.798  10.279   1.611  0.5823  0.6360  0.2995
  279MOL0     C38396   5.663  10.286   1.618  0.3340  0.6946  0.0902
  279MOL0     C38397   5.604  10.412   1.643  0.8988 -0.8994 -0.3658
  279MOL0     C38398   5.472  10.427   1.600 -0.9044 -0.1035  0.1028
  279MOL0     C38399   5.402  10.314   1.549 -0.0374 -0.6849 -0.2972
  279MOL0     O38400   5.273  10.340   1.509 -0.0554 -0.5979 -0.4093
  279MOL0     C38401   5.235  10.267   1.388 -0.0273 -0.2975 -0.3431
  279MOL0     C38402   5.115  10.333   1.312 -0.0762  0.0073 -0.0965
  279MOL0     C38403   5.184  10.448   1.232  0.0239 -1.4450  0.2696
  279MOL0     C38404   5.095  10.495   1.113 -0.4852 -0.5136  1.1850
  279MOL0     C38405   5.166  10.610   1.041 -0.3797  0.1084 -0.6785
  279MOL0     C38406   5.078  10.670   0.931  0.5220 -0.8785  0.0773
  279MOL0     C38407   5.136  10.793   0.868  0.5879  0.6473  0.9157
  279MOL0     C38408   5.043  10.865   0.778  0.8421 -0.7941  0.6134
  279MOL0    Cl38409   5.010  10.776   0.624 -0.2190  0.0582  0.1411
  279MOL0     C38410   5.462  10.188   1.558 -0.0004  0.3628  0.3663
  279MOL0     C38411   5.590  10.171   1.589 -0.7257  0.2789 -0.3903
  279MOL0     O38412   5.797  10.297   1.840  0.6234 -0.6768 -0.3257
  279MOL0     C38413   6.074  10.235   1.835 -0.9984 -0.7445 -0.3186
  279MOL0     C38414   6.214  10.216   1.825 -0.3984  0.5319 -0.1251
  279MOL0     N38415   6.962  10.655   1.695  0.1402 -0.0231 -0.5634
  279MOL0     N38416   7.084  10.678   1.642 -0.0196  0.0458 -1.3597
  279MOL0     C38417   8.018  10.925   1.867  0.3081  1.5773 -0.4472
  279MOL0     C38418   8.137  10.967   1.804  0.7261  0.2597  0.0913
  279MOL0     C38419   8.387  11.128   1.572 -0.0398 -0.2597  0.3307
  279MOL0     C38420   8.311  11.248   1.551 -0.6472  0.3702 -0.0799
  279MOL0     C38421   8.307  11.312   1.429 -0.4273  0.8689  0.7546
  279MOL0     C38422   8.361  11.250   1.313 -1.2275  0.1874 -0.6435
  279MOL0     O38423   8.369  11.295   1.183  0.4626 -0.5154 -0.9109
  279MOL0     C38424   8.359  11.438   1.167  0.0077  0.4585  0.3888
  279MOL0     C38425   8.392  11.463   1.014 -0.3112  0.2112 -0.6964
  279MOL0     C38426   8.334  11.365   0.918 -0.1386  0.5459 -0.7890
  279MOL0     C38427   8.327  11.408   0.782 -0.7560 -0.0606  1.0922
  279MOL0     C38428   8.246  11.525   0.771 -0.4108 -0.8765 -0.8289
  279MOL0     C38429   8.181  11.630   0.776 -0.4691  0.3841  0.2204
  279MOL0     C38430   8.425  11.125   1.336  0.2243 -0.1166  0.5510
  279MOL0     C38431   8.445  11.062   1.461 -0.6208 -0.4036  0.1998
  279MOL0     C38432   8.524  10.936   1.471 -0.2132 -0.5942  0.6191
  279MOL0     H38433   8.190  11.237   2.000  1.6009 -0.5724 -1.2263
  279MOL0     H38434   7.975  11.157   2.103 -1.5272 -2.9759  0.8844
  279MOL0     H38435   7.942  10.765   2.122  2.4491  0.1295 -3.9914
  279MOL0     H38436   7.843  10.741   1.985  4.0506 -1.2360  0.4451
  279MOL0     H38437   7.738  10.665   2.217 -4.0574 -1.0942 -3.1763
  279MOL0     H38438   7.766  10.831   2.272  1.9482 -1.2302  1.2638
  279MOL0     H38439   7.525  10.771   2.232 -0.4761  1.4819  0.2853
  279MOL0     H38440   7.571  10.897   2.128  0.4122 -0.9193 -1.6237
  279MOL0     H38441   7.601  10.745   1.933 -1.0835 -0.4837 -0.1914
  279MOL0     H38442   7.595  10.611   2.032  1.6454  1.3824  0.9689
  279MOL0     H38443   7.345  10.800   2.012  3.3010  1.2446 -0.6420
  279MOL0     H38444   7.368  10.649   2.108  0.4415  0.8916  1.0073
  279MOL0     H38445   7.371  10.512   1.916 -0.2738  0.2020 -0.2220
  279MOL0     H38446   7.230  10.620   1.927 -0.4541  0.5510 -1.4387
  279MOL0     H38447   7.466  10.692   1.744 -0.8941  2.6663  0.5409
  279MOL0     H38448   7.325  10.772   1.735 -0.1450 -0.6299 -2.2835
  279MOL0     H38449   7.338  10.608   1.553  0.8854  0.0999 -0.3148
  279MOL0     H38450   7.329  10.467   1.674 -3.6059  0.5629  2.3118
  279MOL0     H38451   7.110  10.361   1.737  0.5621 -0.3712  1.2013
  279MOL0     H38452   6.834  10.516   1.899  2.0763  0.7756  0.1080
  279MOL0     H38453   6.865  10.359   1.817  2.6964  0.0107 -0.8612
  279MOL0     H38454   6.686  10.566   1.698 -1.1922  0.4423 -1.7097
  279MOL0     H38455   6.764  10.447   1.604 -1.6885  0.0969 -0.1996
  279MOL0     H38456   6.675  10.269   1.769  0.1113 -0.4929 -1.1388
  279MOL0     H38457   6.589  10.400   1.849  2.6517  1.1663 -0.5609
  279MOL0     H38458   6.448  10.422   1.629 -0.6802 -0.2737 -2.2971
  279MOL0     H38459   6.552  10.299   1.561  0.9703 -0.2179  0.4361
  279MOL0     H38460   6.263  10.362   1.529  0.4724 -0.4899  0.3211
  279MOL0     H38461   5.942  10.496   1.548  1.7519 -0.7866  2.5084
  279MOL0     H38462   5.955  10.362   1.442  0.1101  1.0105 -2.0225
  279MOL0     H38463   6.083  10.491   1.448 -1.5252  1.2579 -0.6295
  279MOL0     H38464   5.659  10.491   1.694 -1.1516 -0.0817  0.7284
  279MOL0     H38465   5.429  10.526   1.605 -1.0425 -0.2225  1.9579
  279MOL0     H38466   5.318  10.255   1.318  0.6810 -0.7458  0.5525
  279MOL0     H38467   5.194  10.169   1.413 -1.8380  0.3274 -0.6634
  279MOL0     H38468   5.068  10.274   1.232 -1.2229 -0.3132  0.7909
  279MOL0     H38469   5.035  10.357   1.382 -0.0039 -0.6505  0.2147
  279MOL0     H38470   5.276  10.405   1.192  0.2836  1.6518 -2.9640
  279MOL0     H38471   5.206  10.525   1.306 -3.2151  1.2014 -1.2731
  279MOL0     H38472   4.998  10.534   1.144  0.5992  1.7200  1.9483
  279MOL0     H38473   5.090  10.412   1.042  1.3361  0.1851  0.1669
  279MOL0     H38474   5.202  10.688   1.110 -2.8584  0.4154  0.3663
  279MOL0     H38475   5.253  10.562   0.996 -0.9223 -3.2732  1.5458
  279MOL0     H38476   4.987  10.705   0.980  1.5606  3.2566 -0.6354
  279MOL0     H38477   5.052  10.600   0.851 -2.0703 -2.5863  2.2415
  279MOL0     H38478   5.214  10.764   0.796  0.2987  2.3839 -0.1558
  279MOL0     H38479   5.165  10.854   0.954 -1.6725  0.8264  1.6214
  279MOL0     H38480   5.080  10.966   0.756  2.4057 -1.3769  0.4511
  279MOL0     H38481   4.950  10.874   0.835  0.4657  0.7826 -0.1789
  279MOL0     H38482   5.396  10.103   1.544 -0.4114  1.0805 -2.9291
  279MOL0     H38483   5.636  10.073   1.577 -0.7053  0.4755 -2.2119
  279MOL0     H38484   6.026  10.217   1.930 -0.4914  2.4898  0.6953
  279MOL0     H38485   6.257  10.169   1.913 -0.2327  0.2062 -0.3772
  279MOL0     H38486   7.967  10.836   1.832  1.6071  0.2731  0.8420
  279MOL0     H38487   8.189  10.914   1.725  0.0045 -1.4947  0.7436
  279MOL0     H38488   8.243  11.287   1.627  1.2634  2.3361  0.7259
  279MOL0     H38489   8.259  11.409   1.429 -0.3517  0.9220 -0.4691
  279MOL0     H38490   8.256  11.463   1.193  0.4443  4.5680 -1.0849
  279MOL0     H38491   8.426  11.489   1.237 -0.3335 -0.5720  1.5046
  279MOL0     H38492   8.501  11.459   1.004 -0.1791 -1.5321  0.8623
  279MOL0     H38493   8.359  11.567   1.001  1.2407  0.6751 -1.2346
  279MOL0     H38494   8.397  11.276   0.930 -1.4923 -0.8871 -3.3475
  279MOL0     H38495   8.229  11.343   0.939  0.2430  0.1971  0.8292
  279MOL0     H38496   8.277  11.332   0.720  0.0610 -0.1871  0.5665
  279MOL0     H38497   8.429  11.419   0.746 -1.4356 -0.6560 -1.2130
  279MOL0     H38498   8.122  11.719   0.789 -2.3634 -0.7952  0.0450
  279MOL0     H38499   8.468  11.076   1.249 -1.6758 -3.3879  1.2826
  279MOL0     H38500   8.566  10.904   1.375 -0.8990  1.4475 -0.4300
  279MOL0     H38501   8.617  10.943   1.527  1.5064 -0.5402 -2.0591
  279MOL0     H38502   8.454  10.856   1.498  0.3111 -2.2712 -2.5142
  280MOL0     O38503   7.520   2.796   9.581  0.7030 -0.0491 -0.1281
  280MOL0     C38504   7.488   2.683   9.614 -1.1005 -0.4235 -0.9605
  280MOL0     O38505   7.450   2.585   9.537 -0.0620  0.0972  0.2017
  280MOL0     C38506   7.440   2.609   9.406 -1.1800  0.3458 -1.0166
  280MOL0     C38507   7.322   2.675   9.363 -0.5024  0.1850 -0.0504
  280MOL0     C38508   7.308   2.699   9.221 -0.3028  0.0255  0.8932
  280MOL0     C38509   7.406   2.661   9.136 -0.3975 -0.1373  0.2250
  280MOL0     O38510   7.390   2.696   9.004  0.8393 -0.3209  0.1382
  280MOL0     C38511   7.418   2.598   8.907 -0.3262  0.4022  0.5212
  280MOL0     C38512   7.349   2.642   8.775  0.2369 -0.5603  0.7373
  280MOL0     C38513   7.270   2.526   8.712  0.4342  0.3400 -0.1701
  280MOL0     C38514   7.133   2.512   8.786 -0.5387  0.2755  0.3149
  280MOL0     C38515   7.057   2.392   8.735  0.1453 -0.1738  0.2402
  280MOL0     C38516   7.124   2.249   8.761 -0.1674 -0.5481 -0.3219
  280MOL0     C38517   7.054   2.125   8.681  0.0044 -0.4708 -0.2034
  280MOL0     C38518   6.919   2.085   8.734 -0.3255  0.2788  0.1358
  280MOL0     N38519   6.938   2.050   8.878 -0.3355  0.1560 -1.0814
  280MOL0     C38520   6.959   1.920   8.921  0.8921  0.1740  1.0868
  280MOL0     C38521   6.984   1.925   9.051 -0.1593  0.5141  0.5497
  280MOL0     C38522   7.001   1.814   9.154 -0.5397 -0.3456  0.0727
  280MOL0     C38523   7.081   1.685   9.109 -0.0160  0.6230 -0.1118
  280MOL0     C38524   7.238   1.696   9.098  0.7099 -0.0082 -0.3483
  280MOL0     C38525   7.287   1.746   8.956  0.0068 -0.1731 -0.2931
  280MOL0     O38526   7.253   1.665   8.846  0.7401  0.2090 -0.9585
  280MOL0     C38527   7.267   1.728   8.723 -0.5122 -0.1720  0.4810
  280MOL0     C38528   7.163   1.735   8.633  0.0483  0.0981 -0.4853
  280MOL0     C38529   7.165   1.811   8.510  0.2611 -0.4543 -0.1703
  280MOL0     C38530   7.035   1.829   8.425 -0.1656  0.1316 -0.0433
  280MOL0     C38531   7.282   1.885   8.478 -0.8062  0.5016 -0.7098
  280MOL0     C38532   7.285   1.981   8.368 -0.0860  0.2014  0.1478
  280MOL0     O38533   7.182   2.059   8.353  0.6358  0.3841  0.2048
  280MOL0     C38534   7.191   2.141   8.237 -0.1889 -0.5714  0.6781
  280MOL0     C38535   7.214   2.279   8.250 -0.8611  0.2972 -0.0545
  280MOL0     C38536   7.236   2.349   8.128  0.2460  0.4372 -0.2813
  280MOL0     C38537   7.243   2.288   8.006  0.4492 -0.4438  0.7053
  280MOL0     O38538   7.244   2.357   7.888  0.6617  0.0354  0.4298
  280MOL0     C38539   7.169   2.477   7.876 -0.3165 -0.3359  0.2425
  280MOL0     C38540   7.133   2.509   7.729  0.6961 -0.8963 -0.6321
  280MOL0     C38541   7.026   2.621   7.715 -0.8958  1.1522  0.5109
  280MOL0     C38542   6.890   2.588   7.760  0.2017  0.2828 -0.3902
  280MOL0     C38543   6.802   2.710   7.739 -0.3858 -0.2895  0.2646
  280MOL0     C38544   6.662   2.703   7.825 -0.1222  1.2749  0.5104
  280MOL0     C38545   6.552   2.635   7.734  0.4673 -0.5539  0.5296
  280MOL0     C38546   6.431   2.593   7.834 -0.4715 -0.5405  0.3597
  280MOL0    Cl38547   6.351   2.442   7.765  0.4715 -0.0985 -0.1384
  280MOL0     C38548   7.215   2.153   7.998 -1.1484  0.2750 -0.2854
  280MOL0     C38549   7.194   2.079   8.110  0.0419  0.0885 -0.8270
  280MOL0     O38550   7.383   1.976   8.294  0.1397 -0.0576  0.7083
  280MOL0     C38551   7.390   1.881   8.573  0.5134 -0.0660  0.5296
  280MOL0     C38552   7.383   1.800   8.690 -0.1118 -0.0067 -0.2479
  280MOL0     N38553   6.977   2.058   9.084  0.4027 -0.1909 -0.2124
  280MOL0     N38554   6.928   2.130   8.989  0.2656 -0.5140  0.3817
  280MOL0     C38555   7.514   2.592   9.186  0.4240  0.6500  0.2976
  280MOL0     C38556   7.532   2.557   9.317  0.1192 -0.3422 -0.0222
  280MOL0     C38557   7.494   2.652   9.760 -0.3885  0.6391  0.4063
  280MOL0     C38558   7.437   2.525   9.802 -1.2661  1.2516  0.0416
  280MOL0     C38559   7.438   2.487   9.937 -0.4010 -0.0505 -0.7123
  280MOL0     C38560   7.475   2.579  10.034  0.0824 -0.0837  0.2819
  280MOL0     O38561   7.457   2.534  10.161  0.3081 -0.4734 -0.0627
  280MOL0     C38562   7.463   2.635  10.267 -0.0962  0.2751  0.2149
  280MOL0     C38563   7.430   2.549  10.396  0.5036 -1.6561  0.8463
  280MOL0     C38564   7.398   2.634  10.522  0.2884 -0.9718  0.0076
  280MOL0     C38565   7.414   2.556  10.650 -0.0401  0.9387  0.0655
  280MOL0     C38566   7.408   2.651  10.761  0.5885 -0.8580 -0.4584
  280MOL0     C38567   7.379   2.722  10.852 -0.7564 -0.0445  0.0223
  280MOL0     C38568   7.521   2.703   9.998 -0.5911 -0.1481 -0.0425
  280MOL0     C38569   7.536   2.735   9.862 -0.1412 -0.1558 -0.3442
  280MOL0     C38570   7.622   2.858   9.842 -0.2827  0.0616 -0.0243
  280MOL0     H38571   7.249   2.707   9.436 -0.2505 -2.4046  1.4625
  280MOL0     H38572   7.215   2.741   9.187 -0.7754 -3.1832 -2.3969
  280MOL0     H38573   7.390   2.498   8.939 -0.5175  0.0313 -0.7482
  280MOL0     H38574   7.527   2.599   8.893 -0.4455 -1.7600 -1.1513
  280MOL0     H38575   7.282   2.727   8.792 -0.3392 -0.6621 -0.8536
  280MOL0     H38576   7.430   2.668   8.706 -1.1148 -0.0766 -0.7424
  280MOL0     H38577   7.241   2.544   8.608 -2.4458 -2.0382  0.0916
  280MOL0     H38578   7.328   2.434   8.720  1.0941  0.5199 -2.2222
  280MOL0     H38579   7.152   2.504   8.894  1.2550 -0.8157 -0.0322
  280MOL0     H38580   7.075   2.599   8.754  0.3911 -0.0755 -2.6906
  280MOL0     H38581   7.050   2.403   8.626  0.0870  2.6829  0.4582
  280MOL0     H38582   6.961   2.402   8.786  1.2184 -0.4434  2.4193
  280MOL0     H38583   7.218   2.251   8.707  0.2236 -1.3640  0.3042
  280MOL0     H38584   7.136   2.224   8.867  3.0420  2.0136  0.0607
  280MOL0     H38585   7.114   2.036   8.699 -1.1782 -0.8834  2.0253
  280MOL0     H38586   7.054   2.142   8.573  1.2018  0.2633 -0.1076
  280MOL0     H38587   6.855   2.173   8.724  0.0922  1.0874  3.4509
  280MOL0     H38588   6.875   2.007   8.671 -1.0631  0.2089  0.7289
  280MOL0     H38589   6.953   1.827   8.865 -2.2031  0.2680  1.1226
  280MOL0     H38590   6.911   1.786   9.210 -0.9890 -0.0743 -0.5016
  280MOL0     H38591   7.063   1.859   9.232  1.1073 -1.5715 -0.4834
  280MOL0     H38592   7.054   1.597   9.169  5.5514 -1.0931  0.3884
  280MOL0     H38593   7.039   1.663   9.010 -0.9554 -2.3017  0.8103
  280MOL0     H38594   7.278   1.759   9.178  0.6342  1.2543 -1.2752
  280MOL0     H38595   7.290   1.601   9.116  0.8688  0.1088 -0.1781
  280MOL0     H38596   7.263   1.850   8.931  0.4203 -0.2011 -0.8127
  280MOL0     H38597   7.396   1.743   8.965  0.2570 -2.8338 -2.7802
  280MOL0     H38598   7.077   1.677   8.664 -0.2768  0.8026 -0.0362
  280MOL0     H38599   6.982   1.916   8.466  1.4679  1.0736  0.1594
  280MOL0     H38600   6.966   1.745   8.436  0.3368 -0.6957 -2.5378
  280MOL0     H38601   7.067   1.852   8.323 -0.9715  0.4424 -0.2354
  280MOL0     H38602   7.208   2.324   8.348 -4.0813  0.6040 -0.2639
  280MOL0     H38603   7.219   2.456   8.128 -0.0983  0.3833  0.0253
  280MOL0     H38604   7.076   2.473   7.934 -1.9202  0.7795 -2.1105
  280MOL0     H38605   7.228   2.556   7.921  2.2352 -2.0272  0.0755
  280MOL0     H38606   7.225   2.521   7.671  0.6611 -2.5830 -1.1022
  280MOL0     H38607   7.093   2.420   7.679  0.4064 -1.3117  0.3140
  280MOL0     H38608   7.024   2.635   7.606 -2.5011  1.3943  0.5412
  280MOL0     H38609   7.057   2.708   7.773 -1.8960  1.4761  0.5888
  280MOL0     H38610   6.895   2.557   7.865  2.8278 -0.2817 -0.6092
  280MOL0     H38611   6.854   2.496   7.712  1.3117  0.6195 -1.9310
  280MOL0     H38612   6.855   2.802   7.768 -0.3783  0.2266 -1.2973
  280MOL0     H38613   6.784   2.715   7.631 -1.2528 -3.2109  0.2048
  280MOL0     H38614   6.632   2.806   7.847 -0.0052  1.9650 -2.1468
  280MOL0     H38615   6.663   2.650   7.920 -4.1439 -1.2705 -0.6190
  280MOL0     H38616   6.594   2.559   7.667  0.5522 -0.1121  0.0769
  280MOL0     H38617   6.507   2.702   7.660  2.1568 -1.2918 -1.2263
  280MOL0     H38618   6.360   2.673   7.854 -2.2902 -2.6585  3.2271
  280MOL0     H38619   6.474   2.574   7.933 -0.0031  2.5936  0.8540
  280MOL0     H38620   7.208   2.099   7.903 -0.9906  0.6253 -0.4971
  280MOL0     H38621   7.180   1.972   8.098 -0.9853  0.0439  0.5042
  280MOL0     H38622   7.471   1.952   8.568 -0.3318  0.8252 -2.3293
  280MOL0     H38623   7.472   1.802   8.751  1.9924 -3.5482 -2.8857
  280MOL0     H38624   7.575   2.563   9.101 -0.1836  1.8113 -0.5554
  280MOL0     H38625   7.618   2.498   9.346 -1.4333 -2.5089  0.4436
  280MOL0     H38626   7.390   2.453   9.735  0.1542  1.0820 -0.8100
  280MOL0     H38627   7.403   2.387   9.959 -2.8907  0.9611  0.2425
  280MOL0     H38628   7.560   2.687  10.270  0.9733 -1.5296 -1.1667
  280MOL0     H38629   7.381   2.705  10.248 -0.2719  0.1369  0.4632
  280MOL0     H38630   7.523   2.496  10.417  0.2320 -1.8850  1.4824
  280MOL0     H38631   7.347   2.478  10.389  1.5929 -2.9191  0.4531
  280MOL0     H38632   7.470   2.715  10.527  0.5624 -1.1672 -0.7468
  280MOL0     H38633   7.301   2.685  10.515 -1.5952 -4.2226  0.0071
  280MOL0     H38634   7.508   2.501  10.653 -1.6036 -1.8878  1.0848
  280MOL0     H38635   7.333   2.483  10.662  1.3735 -1.1423 -2.2962
  280MOL0     H38636   7.376   2.786  10.938  1.6607  1.5435 -0.9845
  280MOL0     H38637   7.559   2.775  10.070 -1.0384 -0.5458  0.6052
  280MOL0     H38638   7.553   2.933   9.801  0.6740 -0.7199 -3.3266
  280MOL0     H38639   7.662   2.896   9.936 -1.3605 -1.1990  0.9844
  280MOL0     H38640   7.705   2.837   9.774 -1.3081 -0.7143 -1.0886
  281MOL0     O38641   9.264   7.421   4.389 -0.8578 -0.5034  0.5924
  281MOL0     C38642   9.181   7.353   4.445 -0.0941 -0.4238 -0.2820
  281MOL0     O38643   9.193   7.265   4.551 -0.5167 -0.3733  0.5743
  281MOL0     C38644   9.316   7.225   4.602  0.5130  0.6431  0.4931
  281MOL0     C38645   9.322   7.212   4.742 -1.1743 -0.0567  0.3554
  281MOL0     C38646   9.433   7.143   4.797 -0.0785  0.0320  0.3702
  281MOL0     C38647   9.542   7.098   4.714 -0.0249 -0.1153  0.3998
  281MOL0     O38648   9.648   7.048   4.786  0.6974  0.3969  0.2555
  281MOL0     C38649   9.758   6.987   4.712  0.5208  0.3859  0.7863
  281MOL0     C38650   9.867   6.924   4.799 -0.8509 -0.4856 -0.6362
  281MOL0     C38651   9.998   6.929   4.725  0.2247  0.9658 -0.1057
  281MOL0     C38652  10.110   6.891   4.820  0.0966  0.7227  0.8922
  281MOL0     C38653  10.245   6.870   4.750  0.7861 -0.0814 -0.0165
  281MOL0     C38654  10.349   6.943   4.831 -0.6450  0.3109  0.1575
  281MOL0     C38655  10.369   6.871   4.971 -0.0397  0.0834  0.0406
  281MOL0     C38656  10.458   6.962   5.063  0.1081  0.4970 -0.1536
  281MOL0     N38657  10.581   7.007   4.997  0.3346 -1.0196  0.4043
  281MOL0     C38658  10.681   6.919   4.951  1.4338 -0.2334  0.7064
  281MOL0     C38659  10.786   6.993   4.917 -1.2259 -0.2714  0.3702
  281MOL0     C38660  10.932   6.959   4.878 -0.2695 -0.2512 -0.7396
  281MOL0     C38661  10.945   6.831   4.801  1.1040  1.2016 -0.1998
  281MOL0     C38662  11.086   6.815   4.751  0.7683  0.7927 -0.0874
  281MOL0     C38663  11.082   6.883   4.616 -0.2758  0.0866 -0.1706
  281MOL0     O38664  11.218   6.911   4.598 -1.0228  0.7326  0.2444
  281MOL0     C38665  11.269   6.975   4.487 -0.6631  0.4742  1.0434
  281MOL0     C38666  11.407   6.985   4.471  0.3559 -1.2753 -0.1321
  281MOL0     C38667  11.477   7.053   4.366  0.1184 -0.3139 -0.5028
  281MOL0     C38668  11.630   7.072   4.379 -1.1175  0.0817  0.4610
  281MOL0     C38669  11.392   7.124   4.279  0.3336  0.0509 -0.1268
  281MOL0     C38670  11.443   7.220   4.178  0.3170 -0.5232 -0.4073
  281MOL0     O38671  11.574   7.221   4.135 -0.1681  0.6263  0.2828
  281MOL0     C38672  11.613   7.343   4.076 -0.2245  0.4952 -0.2520
  281MOL0     C38673  11.656   7.347   3.946  0.8565  0.4561 -0.3697
  281MOL0     C38674  11.684   7.476   3.885  0.3688  0.3896 -0.0229
  281MOL0     C38675  11.669   7.599   3.953 -0.8627  0.0760 -0.4435
  281MOL0     O38676  11.687   7.721   3.895  0.5961 -0.9507 -0.4085
  281MOL0     C38677  11.808   7.748   3.846  0.4939  0.0584  0.3908
  281MOL0     C38678  11.789   7.861   3.747 -0.4627  0.0474 -0.3580
  281MOL0     C38679  11.916   7.858   3.655 -1.2329 -0.0482  0.2829
  281MOL0     C38680  11.897   7.953   3.534  0.4501  1.1477  0.2403
  281MOL0     C38681  12.011   7.915   3.441  0.3489  0.4112  0.1456
  281MOL0     C38682  12.018   8.007   3.319 -0.0894 -0.0604 -0.4139
  281MOL0     C38683  12.167   8.000   3.275  0.6530  0.3705  0.2053
  281MOL0     C38684  12.176   8.082   3.152  0.6384  0.0030  0.0656
  281MOL0    Cl38685  12.321   8.041   3.052 -0.3232  0.5528  0.0611
  281MOL0     C38686  11.640   7.588   4.086 -0.0213 -0.2270  0.7828
  281MOL0     C38687  11.606   7.468   4.147  0.4828  0.2250 -0.2039
  281MOL0     O38688  11.360   7.307   4.137  0.8551  0.2208 -0.1212
  281MOL0     C38689  11.253   7.101   4.284 -0.5007  0.6731  0.5957
  281MOL0     C38690  11.191   7.031   4.389  0.3518 -0.4501  0.0682
  281MOL0     N38691  10.757   7.129   4.930  1.1343 -0.9160  0.1735
  281MOL0     N38692  10.634   7.131   4.975 -0.0379 -0.0166  0.1647
  281MOL0     C38693   9.528   7.111   4.578  0.4933  0.3225 -0.4101
  281MOL0     C38694   9.410   7.161   4.523 -1.3941  0.7939 -0.2382
  281MOL0     C38695   9.052   7.361   4.378  1.7511  0.0493 -0.5061
  281MOL0     C38696   8.952   7.430   4.442 -0.0219  0.1592  0.1546
  281MOL0     C38697   8.827   7.456   4.382  0.0549 -0.5122 -0.4326
  281MOL0     C38698   8.800   7.394   4.256 -0.4812  0.5973 -0.5317
  281MOL0     O38699   8.677   7.412   4.200  0.3377 -0.5025 -0.2672
  281MOL0     C38700   8.610   7.310   4.118  0.2950 -0.1360  1.6400
  281MOL0     C38701   8.460   7.337   4.114  0.5077 -0.6622 -0.3073
  281MOL0     C38702   8.431   7.478   4.073  0.2468 -0.9349 -0.7722
  281MOL0     C38703   8.425   7.583   4.187  0.3218  0.5686  0.2464
  281MOL0     C38704   8.397   7.704   4.115  0.7498 -0.3696  0.1854
  281MOL0     C38705   8.370   7.808   4.062  1.0060 -0.6208  0.3588
  281MOL0     C38706   8.899   7.313   4.191  0.6112 -0.6475 -0.1405
  281MOL0     C38707   9.026   7.295   4.255  0.1359  0.3478 -0.8513
  281MOL0     C38708   9.125   7.197   4.189 -0.3890 -0.6698  0.3993
  281MOL0     H38709   9.246   7.254   4.807  0.0477  0.7013  1.3410
  281MOL0     H38710   9.444   7.136   4.905  0.8193 -1.6563  0.2091
  281MOL0     H38711   9.797   7.056   4.636 -4.2850 -0.0672 -2.5499
  281MOL0     H38712   9.727   6.896   4.659  1.4571 -1.5219  3.3251
  281MOL0     H38713   9.880   6.990   4.885  1.3245 -1.7098  0.0438
  281MOL0     H38714   9.849   6.819   4.826  2.4923 -0.8195  0.7186
  281MOL0     H38715   9.995   6.867   4.635  0.2884  2.0415 -0.8646
  281MOL0     H38716  10.025   7.028   4.686  1.0324  0.6478 -0.3684
  281MOL0     H38717  10.113   6.974   4.892  0.1508  2.2584 -0.8096
  281MOL0     H38718  10.080   6.795   4.864 -2.0755 -1.1875 -3.9779
  281MOL0     H38719  10.249   6.920   4.652  0.0694  1.2245  0.5912
  281MOL0     H38720  10.267   6.764   4.735 -3.3452 -0.8270 -2.5457
  281MOL0     H38721  10.446   6.950   4.782  0.4996  1.1144  2.3882
  281MOL0     H38722  10.320   7.047   4.849  1.4680  0.5917  2.5087
  281MOL0     H38723  10.424   6.779   4.954 -0.2179 -0.2233  1.0531
  281MOL0     H38724  10.272   6.853   5.019 -0.2681  0.2959 -0.3308
  281MOL0     H38725  10.406   7.042   5.116  0.4356  0.3563  0.3962
  281MOL0     H38726  10.500   6.893   5.137 -0.2245 -0.7927 -1.1326
  281MOL0     H38727  10.684   6.811   4.960  2.2364 -0.1829  1.1079
  281MOL0     H38728  10.981   6.938   4.974  1.2808  0.7236 -1.2775
  281MOL0     H38729  10.990   7.039   4.831  0.3099 -1.3828 -2.0263
  281MOL0     H38730  10.935   6.748   4.872  0.0899  2.6253  1.3996
  281MOL0     H38731  10.875   6.819   4.718  0.3920 -1.0843  0.6555
  281MOL0     H38732  11.145   6.866   4.828 -1.3212  1.7878  0.9419
  281MOL0     H38733  11.109   6.710   4.732 -0.3144  0.3704  0.8629
  281MOL0     H38734  11.041   6.825   4.533 -0.2393 -0.7933  0.4124
  281MOL0     H38735  11.033   6.981   4.624 -0.9797 -0.1879 -0.9953
  281MOL0     H38736  11.464   6.946   4.555  0.9495 -1.4696 -0.6241
  281MOL0     H38737  11.660   7.002   4.300  0.5362  0.2748  0.8984
  281MOL0     H38738  11.654   7.039   4.480  2.2340  1.9910  0.4025
  281MOL0     H38739  11.667   7.172   4.356  0.2886 -0.6963 -0.8088
  281MOL0     H38740  11.667   7.258   3.885  2.8024  1.2726 -1.3078
  281MOL0     H38741  11.712   7.457   3.782 -0.6333 -0.8327 -0.0926
  281MOL0     H38742  11.883   7.789   3.914  1.5825 -0.9815 -0.1476
  281MOL0     H38743  11.857   7.663   3.798 -0.4021  0.0805 -0.5929
  281MOL0     H38744  11.701   7.833   3.688 -0.5163 -1.4408  0.3917
  281MOL0     H38745  11.781   7.957   3.798 -0.7211  0.7172 -1.6122
  281MOL0     H38746  11.946   7.757   3.624 -0.2328  0.5965 -0.9371
  281MOL0     H38747  12.000   7.905   3.708 -0.3135  1.6566 -2.4862
  281MOL0     H38748  11.908   8.055   3.573  2.0169  0.4190  1.8790
  281MOL0     H38749  11.798   7.936   3.492  1.8500  0.7850 -3.1884
  281MOL0     H38750  12.102   7.920   3.502  1.2780 -0.5075 -1.1359
  281MOL0     H38751  12.014   7.811   3.410  2.3263  0.0817  1.2748
  281MOL0     H38752  11.989   8.107   3.352  2.8480  0.6714  0.2408
  281MOL0     H38753  11.955   7.960   3.244  2.9954 -3.4361 -1.2023
  281MOL0     H38754  12.199   7.895   3.274  0.0171  0.0243  3.6636
  281MOL0     H38755  12.232   8.043   3.352 -1.9152  0.6943  2.3581
  281MOL0     H38756  12.159   8.188   3.172 -0.1389 -0.2801  0.9483
  281MOL0     H38757  12.085   8.053   3.098  0.0712  2.2409 -0.2815
  281MOL0     H38758  11.638   7.681   4.142  0.9675  0.1167  0.2639
  281MOL0     H38759  11.564   7.464   4.247 -1.0714  0.6802 -0.8030
  281MOL0     H38760  11.179   7.142   4.216 -0.0385 -2.9089 -2.3865
  281MOL0     H38761  11.084   7.046   4.393  0.7924  4.6260 -1.0067
  281MOL0     H38762   9.611   7.077   4.517  1.0772  0.1463  0.4627
  281MOL0     H38763   9.407   7.145   4.416  1.3125 -0.5886 -0.2208
  281MOL0     H38764   8.973   7.476   4.538 -2.5747  0.1619  0.7954
  281MOL0     H38765   8.740   7.505   4.422 -0.6932 -2.7216  0.8209
  281MOL0     H38766   8.653   7.324   4.019 -2.2304  1.6820  0.7164
  281MOL0     H38767   8.630   7.206   4.146 -0.1649 -0.4334  0.9042
  281MOL0     H38768   8.421   7.321   4.214 -4.6839  2.7548 -1.3779
  281MOL0     H38769   8.405   7.270   4.046 -2.9773 -2.2355  3.6604
  281MOL0     H38770   8.491   7.499   3.984  2.1725 -3.7379 -0.2554
  281MOL0     H38771   8.330   7.467   4.032  0.4684  1.5409 -2.1972
  281MOL0     H38772   8.515   7.595   4.248  0.7500  0.3721 -0.3306
  281MOL0     H38773   8.333   7.560   4.241  0.6860  1.8414  1.4770
  281MOL0     H38774   8.335   7.899   4.018  0.1892 -0.4216  1.3745
  281MOL0     H38775   8.882   7.269   4.093  0.0750  0.7217 -0.6854
  281MOL0     H38776   9.214   7.243   4.145 -1.2355 -0.8699 -1.6413
  281MOL0     H38777   9.153   7.130   4.271 -0.4773  1.1985  2.0346
  281MOL0     H38778   9.080   7.135   4.111 -0.7504  0.2486 -0.1403
  282MOL0     O38779   1.689   0.820   0.875  0.6179 -0.7258 -0.0473
  282MOL0     C38780   1.630   0.734   0.947  0.4501  0.4912  0.0229
  282MOL0     O38781   1.558   0.757   1.060 -0.0353 -0.9487 -1.2257
  282MOL0     C38782   1.574   0.878   1.124 -1.3838  0.3129 -0.8486
  282MOL0     C38783   1.465   0.941   1.185  0.0685 -1.0702  0.7945
  282MOL0     C38784   1.470   1.070   1.245  0.3993 -0.3245 -1.1528
  282MOL0     C38785   1.589   1.135   1.265 -0.3478  0.1019 -0.7536
  282MOL0     O38786   1.612   1.247   1.336  0.6969  1.3266 -0.9013
  282MOL0     C38787   1.508   1.340   1.370  0.7665  0.0393 -0.1375
  282MOL0     C38788   1.557   1.423   1.488 -0.5090  0.2390  0.5416
  282MOL0     C38789   1.452   1.477   1.586  0.4416 -0.2364 -0.1887
  282MOL0     C38790   1.400   1.381   1.697 -0.0637  1.0463 -0.2004
  282MOL0     C38791   1.290   1.445   1.785 -0.0540  1.3626  0.0442
  282MOL0     C38792   1.366   1.551   1.875  0.0605  0.0039 -1.3815
  282MOL0     C38793   1.263   1.635   1.968  0.0478  0.6392  0.2473
  282MOL0     C38794   1.343   1.752   2.028  0.9338  0.5771 -0.1056
  282MOL0     N38795   1.267   1.848   2.105  0.5572 -0.1036 -0.2518
  282MOL0     C38796   1.163   1.926   2.049 -0.7489 -0.5508 -0.5739
  282MOL0     C38797   1.106   1.986   2.159  0.7459 -0.4243  0.4860
  282MOL0     C38798   0.997   2.087   2.161 -0.5770 -0.6923 -0.2499
  282MOL0     C38799   0.873   2.054   2.255 -0.1700  0.2838  0.9033
  282MOL0     C38800   0.748   2.128   2.211 -0.1798  0.1150  0.1012
  282MOL0     C38801   0.752   2.286   2.223 -0.5534  0.2259 -0.1061
  282MOL0     O38802   0.822   2.363   2.118 -0.6355  0.1782 -0.1247
  282MOL0     C38803   0.767   2.365   1.995  0.3740 -0.0075  0.2194
  282MOL0     C38804   0.855   2.408   1.901  0.5427  0.7492 -0.7659
  282MOL0     C38805   0.822   2.428   1.766  0.2216  1.1165  0.4603
  282MOL0     C38806   0.920   2.492   1.676 -0.6015  0.6385 -0.0306
  282MOL0     C38807   0.688   2.407   1.727 -1.4510  0.7044  0.6194
  282MOL0     C38808   0.642   2.422   1.582  0.7360  0.1991 -0.4939
  282MOL0     O38809   0.503   2.405   1.575  1.2748 -0.6370 -0.1550
  282MOL0     C38810   0.433   2.409   1.455 -0.3008 -0.4099  0.3193
  282MOL0     C38811   0.470   2.507   1.368  0.0193 -0.3073  0.1493
  282MOL0     C38812   0.429   2.497   1.228  0.5492  0.2401  0.2425
  282MOL0     C38813   0.327   2.411   1.191  0.4288  0.7049  0.2756
  282MOL0     O38814   0.292   2.419   1.056 -0.7220  0.6082 -0.2416
  282MOL0     C38815   0.183   2.341   1.015  0.4081  0.4347 -0.1899
  282MOL0     C38816   0.131   2.400   0.887  0.0690  0.1133  0.3524
  282MOL0     C38817   0.017   2.501   0.916 -1.1760  0.4061 -1.1440
  282MOL0     C38818  -0.064   2.531   0.791 -0.3487  0.5882 -0.8745
  282MOL0     C38819  -0.144   2.664   0.810 -0.6187  0.4874  0.5152
  282MOL0     C38820  -0.284   2.646   0.876 -1.3122  0.4530  0.8387
  282MOL0     C38821  -0.339   2.787   0.884  0.7858  0.3706 -1.4778
  282MOL0     C38822  -0.493   2.780   0.854 -0.3455  0.5202 -0.2227
  282MOL0    Cl38823  -0.564   2.949   0.887 -0.1621 -0.4444 -0.0645
  282MOL0     C38824   0.280   2.319   1.289 -0.7940  0.4865  1.3418
  282MOL0     C38825   0.338   2.317   1.416  0.6868  0.2382 -0.0798
  282MOL0     O38826   0.716   2.422   1.489  0.4049 -0.6455  0.6479
  282MOL0     C38827   0.592   2.367   1.824 -0.9554  0.3829 -0.0558
  282MOL0     C38828   0.633   2.342   1.957  0.0500 -0.0641  0.1253
  282MOL0     N38829   1.167   1.941   2.275 -0.6656 -0.2933  0.6880
  282MOL0     N38830   1.260   1.857   2.244  0.2193  0.7516  0.0184
  282MOL0     C38831   1.701   1.073   1.199  0.4284 -0.9214 -0.4844
  282MOL0     C38832   1.691   0.955   1.129  0.3542 -0.6182 -0.3394
  282MOL0     C38833   1.621   0.586   0.912  0.3170  0.2758  0.9067
  282MOL0     C38834   1.637   0.488   1.010  0.1314  0.4042 -0.2730
  282MOL0     C38835   1.658   0.354   0.969 -0.7693 -0.0292 -0.3194
  282MOL0     C38836   1.626   0.310   0.841 -0.1247 -0.1346  0.3579
  282MOL0     O38837   1.657   0.178   0.808  0.3095 -0.0907  0.2325
  282MOL0     C38838   1.672   0.140   0.674  1.4596  0.4170  0.4348
  282MOL0     C38839   1.717  -0.007   0.665  0.3243 -0.2813 -0.5222
  282MOL0     C38840   1.636  -0.100   0.756 -0.6392 -0.4963  0.5673
  282MOL0     C38841   1.639  -0.243   0.695 -0.7305 -0.1741 -0.5229
  282MOL0     C38842   1.590  -0.347   0.787  1.2028  0.0414  0.6305
  282MOL0     C38843   1.569  -0.445   0.861  0.2505  0.0988  0.4024
  282MOL0     C38844   1.591   0.409   0.753 -1.2572  0.0789  0.0877
  282MOL0     C38845   1.587   0.543   0.782 -0.8512  0.1349  0.3044
  282MOL0     C38846   1.552   0.638   0.674  0.7002  0.1121  0.1964
  282MOL0     H38847   1.374   0.882   1.178 -0.3481 -0.3933  0.4835
  282MOL0     H38848   1.378   1.100   1.293 -0.3402 -3.1943 -0.5481
  282MOL0     H38849   1.419   1.285   1.402 -0.1075  0.1690 -2.1916
  282MOL0     H38850   1.455   1.394   1.291 -0.0130 -0.1238  0.2570
  282MOL0     H38851   1.622   1.367   1.555  1.2635 -0.3296 -1.5193
  282MOL0     H38852   1.606   1.514   1.452 -1.9135  2.4342  3.7105
  282MOL0     H38853   1.509   1.554   1.638  1.1517 -0.1784 -1.0319
  282MOL0     H38854   1.363   1.520   1.539 -0.2658 -1.8493 -0.4272
  282MOL0     H38855   1.352   1.290   1.658  1.1888  0.0856  0.4397
  282MOL0     H38856   1.487   1.350   1.755 -0.6877  1.8268  1.1995
  282MOL0     H38857   1.239   1.366   1.839 -2.5681  0.8237 -2.8714
  282MOL0     H38858   1.210   1.488   1.724  0.5214  1.7232 -0.4699
  282MOL0     H38859   1.421   1.502   1.955 -2.1865 -0.8519 -0.2759
  282MOL0     H38860   1.429   1.620   1.817  2.2126  0.0070  0.8016
  282MOL0     H38861   1.230   1.577   2.054  2.8135 -1.4958  0.0184
  282MOL0     H38862   1.186   1.692   1.915  0.7013 -0.5082 -2.0706
  282MOL0     H38863   1.424   1.707   2.087  0.9390  0.2797 -0.3397
  282MOL0     H38864   1.392   1.801   1.944 -0.7339  0.4010 -1.2215
  282MOL0     H38865   1.136   1.941   1.945 -2.9141  2.9744  0.2993
  282MOL0     H38866   0.970   2.109   2.058  0.3042 -0.9752 -0.5516
  282MOL0     H38867   1.045   2.180   2.192  1.5808 -1.9495  0.4192
  282MOL0     H38868   0.859   1.946   2.251  2.7592 -0.1412  0.0541
  282MOL0     H38869   0.903   2.083   2.356  0.5159  1.7371  0.3123
  282MOL0     H38870   0.727   2.089   2.111  0.3714  1.5411 -0.5980
  282MOL0     H38871   0.667   2.104   2.280 -0.8981  1.6292 -0.1665
  282MOL0     H38872   0.648   2.322   2.219 -0.8620 -0.7357 -1.3876
  282MOL0     H38873   0.795   2.311   2.321 -1.0412  0.7992 -0.0299
  282MOL0     H38874   0.957   2.425   1.933  0.5108 -0.3922 -0.0116
  282MOL0     H38875   0.993   2.549   1.735  1.3595  2.1008 -3.5586
  282MOL0     H38876   0.875   2.564   1.608 -1.7761 -1.5581 -1.7124
  282MOL0     H38877   0.963   2.421   1.605 -1.5644  0.5566 -0.5360
  282MOL0     H38878   0.539   2.587   1.390  1.1965 -1.3925  0.5215
  282MOL0     H38879   0.484   2.558   1.157  1.3347 -0.4650  0.2246
  282MOL0     H38880   0.215   2.239   0.988 -2.0297 -0.0852 -1.3820
  282MOL0     H38881   0.111   2.328   1.096  0.6065 -1.0644 -0.2275
  282MOL0     H38882   0.212   2.443   0.827 -0.7348  0.3892 -0.5640
  282MOL0     H38883   0.085   2.317   0.832 -0.6325  2.0292 -2.1485
  282MOL0     H38884   0.060   2.589   0.965  1.9077 -2.6642  2.3117
  282MOL0     H38885  -0.060   2.454   0.977 -2.1320  1.2640 -1.6703
  282MOL0     H38886  -0.141   2.459   0.764 -1.6196  1.4833  0.2898
  282MOL0     H38887   0.007   2.526   0.707  1.3567 -2.6486  0.5988
  282MOL0     H38888  -0.081   2.732   0.868 -0.1733 -0.7422  1.5238
  282MOL0     H38889  -0.165   2.707   0.712  3.2816 -1.7326 -1.5225
  282MOL0     H38890  -0.285   2.590   0.970  0.1329 -1.4571 -0.2167
  282MOL0     H38891  -0.343   2.580   0.812  1.7652 -0.1731 -1.5855
  282MOL0     H38892  -0.294   2.861   0.818 -2.1474  2.5778 -1.2127
  282MOL0     H38893  -0.333   2.825   0.987  0.8270  0.0544 -1.3633
  282MOL0     H38894  -0.527   2.699   0.919  2.4583 -0.2967  0.3693
  282MOL0     H38895  -0.501   2.743   0.751  1.2509  0.3956 -0.3196
  282MOL0     H38896   0.206   2.247   1.255  1.7250 -1.5561 -0.0921
  282MOL0     H38897   0.297   2.242   1.483  1.8151 -0.3095  0.0326
  282MOL0     H38898   0.486   2.357   1.808 -1.0822  2.4464 -0.7419
  282MOL0     H38899   0.562   2.325   2.037 -0.4764  0.1929 -0.2862
  282MOL0     H38900   1.796   1.126   1.197 -1.7907  3.5438 -0.3804
  282MOL0     H38901   1.768   0.917   1.063  0.1207 -0.0091 -0.9804
  282MOL0     H38902   1.649   0.512   1.116 -1.1282  3.2888 -0.7033
  282MOL0     H38903   1.682   0.275   1.041  0.6502 -1.9774 -2.7751
  282MOL0     H38904   1.573   0.143   0.627  2.8390 -2.4652 -3.2152
  282MOL0     H38905   1.745   0.204   0.623 -0.3197  2.5302  0.3525
  282MOL0     H38906   1.825  -0.015   0.684  0.3656  2.9920  1.4132
  282MOL0     H38907   1.696  -0.033   0.561 -1.3166 -1.1662 -0.0037
  282MOL0     H38908   1.669  -0.098   0.860 -0.9869 -1.0668  0.6922
  282MOL0     H38909   1.535  -0.060   0.768  0.3408  1.6633  2.1773
  282MOL0     H38910   1.744  -0.264   0.671  0.4225  5.2374 -1.5616
  282MOL0     H38911   1.567  -0.245   0.613 -3.0347  1.5850  1.3288
  282MOL0     H38912   1.543  -0.530   0.920 -0.9237 -1.4827 -2.2191
  282MOL0     H38913   1.571   0.379   0.651  2.3684 -2.1578 -0.1763
  282MOL0     H38914   1.463   0.609   0.618  0.5643  2.1596 -0.7346
  282MOL0     H38915   1.524   0.735   0.715  0.6799  0.2490 -0.1378
  282MOL0     H38916   1.632   0.649   0.600 -0.2003 -1.3077 -1.0411
  283MOL0     O38917   2.059   4.267   3.546 -0.4747  0.0495  0.8640
  283MOL0     C38918   2.114   4.276   3.437  0.5354  0.0794 -0.1538
  283MOL0     O38919   2.216   4.191   3.389 -0.0971 -0.1151 -0.3659
  283MOL0     C38920   2.272   4.105   3.472  0.4375  0.4053 -0.6640
  283MOL0     C38921   2.364   4.148   3.563 -0.6932  0.0187  0.2385
  283MOL0     C38922   2.436   4.057   3.646 -0.0623 -0.7444  0.6812
  283MOL0     C38923   2.399   3.925   3.654 -0.6525 -0.2272  0.0880
  283MOL0     O38924   2.452   3.829   3.739 -0.0258 -0.4429  0.3348
  283MOL0     C38925   2.493   3.871   3.875 -0.1692  0.3361  0.0270
  283MOL0     C38926   2.476   3.753   3.969  0.3745  0.2446 -0.8789
  283MOL0     C38927   2.562   3.617   3.929  0.8254 -1.2086  0.2919
  283MOL0     C38928   2.704   3.607   3.981 -0.4529 -0.4583 -0.6498
  283MOL0     C38929   2.797   3.603   3.859 -0.4684 -0.2556  0.3557
  283MOL0     C38930   2.948   3.609   3.899 -0.6519  0.3783 -0.3917
  283MOL0     C38931   2.989   3.494   3.997 -0.2812 -0.0190  0.9728
  283MOL0     C38932   2.989   3.363   3.928 -0.2300 -0.1432 -0.2852
  283MOL0     N38933   3.069   3.270   4.007 -0.2459 -0.3766 -0.3914
  283MOL0     C38934   3.078   3.263   4.150 -0.5692 -0.8702 -0.8691
  283MOL0     C38935   3.199   3.213   4.179  0.4652 -0.0203 -0.2793
  283MOL0     C38936   3.260   3.178   4.316  0.0242  1.0569 -0.7002
  283MOL0     C38937   3.248   3.019   4.352 -0.4424 -0.6787  0.2520
  283MOL0     C38938   3.341   2.923   4.300 -0.8622  0.2601  0.2543
  283MOL0     C38939   3.316   2.774   4.353 -0.5542  0.4103  0.2545
  283MOL0     O38940   3.437   2.710   4.328  0.0614  0.0515  0.2037
  283MOL0     C38941   3.453   2.665   4.202  1.0604 -0.0224 -0.3880
  283MOL0     C38942   3.358   2.585   4.138  1.0381 -0.3576 -0.5266
  283MOL0     C38943   3.379   2.532   4.007  0.0381  0.0448 -0.6268
  283MOL0     C38944   3.269   2.454   3.945  0.0002  0.1454 -0.0713
  283MOL0     C38945   3.500   2.556   3.945 -0.1134 -0.5983  0.0248
  283MOL0     C38946   3.538   2.513   3.805 -0.0357  0.7196  0.3333
  283MOL0     O38947   3.662   2.549   3.756  0.1464  0.2976 -1.1523
  283MOL0     C38948   3.704   2.550   3.634  0.2358  0.4732  0.6025
  283MOL0     C38949   3.843   2.537   3.611  0.1063  0.3630  0.1508
  283MOL0     C38950   3.891   2.527   3.481 -0.3398  0.2145 -0.9379
  283MOL0     C38951   3.814   2.528   3.363  0.4886 -0.3779 -0.6183
  283MOL0     O38952   3.851   2.527   3.229  0.0977  0.8980 -0.4509
  283MOL0     C38953   3.981   2.508   3.191 -0.0964 -0.4059  0.6916
  283MOL0     C38954   4.060   2.389   3.245  0.5990 -1.0290 -0.4496
  283MOL0     C38955   4.168   2.317   3.165  0.7058  0.8374  0.7434
  283MOL0     C38956   4.273   2.401   3.094 -0.0287  0.3024  0.4398
  283MOL0     C38957   4.400   2.324   3.054 -0.0991 -0.0719  0.0468
  283MOL0     C38958   4.502   2.304   3.171  0.3554  0.2213 -1.0893
  283MOL0     C38959   4.647   2.276   3.118  0.0760  0.5929 -0.0650
  283MOL0     C38960   4.650   2.144   3.036  0.6273 -1.0873  0.4210
  283MOL0    Cl38961   4.671   2.009   3.150 -0.2007 -0.1984  0.3896
  283MOL0     C38962   3.678   2.532   3.386  0.0178  1.2690 -0.3007
  283MOL0     C38963   3.626   2.539   3.513 -0.1540 -0.4629 -0.2175
  283MOL0     O38964   3.457   2.450   3.741 -0.5250  0.5759 -0.2377
  283MOL0     C38965   3.599   2.619   4.017 -0.5733  0.5361  0.7891
  283MOL0     C38966   3.577   2.670   4.149  0.0289 -0.3203  0.1657
  283MOL0     N38967   3.261   3.196   4.054  0.6966 -0.3161  0.8509
  283MOL0     N38968   3.186   3.228   3.954  0.4165 -0.5526  0.3754
  283MOL0     C38969   2.305   3.883   3.560  0.0017  0.0602 -0.0354
  283MOL0     C38970   2.243   3.969   3.466  0.1253 -0.2126 -0.3861
  283MOL0     C38971   2.054   4.368   3.342  0.2485  0.3114 -0.1100
  283MOL0     C38972   2.080   4.346   3.202  0.2862  0.1113  0.7641
  283MOL0     C38973   2.040   4.431   3.097 -0.4286 -0.0136 -0.5504
  283MOL0     C38974   1.973   4.552   3.134  0.0649  0.2653  0.0652
  283MOL0     O38975   1.915   4.647   3.048  0.3489  0.7412 -0.3622
  283MOL0     C38976   1.966   4.675   2.921  0.4343 -0.1230  0.7193
  283MOL0     C38977   2.096   4.754   2.911  0.7251 -0.8684 -1.0545
  283MOL0     C38978   2.152   4.761   2.775 -0.2691 -0.1505  0.3412
  283MOL0     C38979   2.080   4.872   2.704  0.2437 -1.0887  0.4946
  283MOL0     C38980   2.151   4.892   2.575 -1.0042  1.1777 -0.7355
  283MOL0     C38981   2.216   4.888   2.470 -0.2394 -0.1918  0.1310
  283MOL0     C38982   1.947   4.577   3.265  0.4603  0.1915  0.1555
  283MOL0     C38983   1.989   4.491   3.368 -0.0474 -0.9166 -1.2460
  283MOL0     C38984   1.962   4.528   3.512 -0.3320  0.3350  0.1457
  283MOL0     H38985   2.394   4.252   3.557 -1.0883  0.0462 -1.5821
  283MOL0     H38986   2.507   4.089   3.722  1.0728 -3.3368  0.8151
  283MOL0     H38987   2.434   3.950   3.923  0.0805  0.8132 -0.4320
  283MOL0     H38988   2.598   3.900   3.873 -0.0305 -0.1690 -0.6305
  283MOL0     H38989   2.486   3.781   4.074 -0.3746  1.6244 -1.1475
  283MOL0     H38990   2.371   3.722   3.967 -0.0025  1.1138  1.9491
  283MOL0     H38991   2.502   3.534   3.968  0.6683 -0.8872  0.7418
  283MOL0     H38992   2.551   3.613   3.820  1.8962  0.5679  0.0777
  283MOL0     H38993   2.725   3.704   4.027 -2.9210 -0.8760  1.5984
  283MOL0     H38994   2.721   3.527   4.054  0.3785  2.2258  2.3482
  283MOL0     H38995   2.774   3.684   3.790  0.5549 -0.6914 -0.5228
  283MOL0     H38996   2.773   3.514   3.800 -1.4054 -0.1099  0.5013
  283MOL0     H38997   3.019   3.604   3.816  2.2817 -0.5881  1.9609
  283MOL0     H38998   2.964   3.704   3.951  0.6357 -0.9909  1.9063
  283MOL0     H38999   2.925   3.489   4.085 -2.2262 -3.0622 -0.4403
  283MOL0     H39000   3.095   3.512   4.017 -0.1931  1.0280 -0.2534
  283MOL0     H39001   2.884   3.335   3.915 -0.0150 -0.0165 -2.9958
  283MOL0     H39002   3.027   3.382   3.827  1.7077  2.1512  0.7899
  283MOL0     H39003   3.000   3.289   4.221 -0.9447  0.3966 -1.7230
  283MOL0     H39004   3.192   3.232   4.383 -4.6026  0.4165 -4.2961
  283MOL0     H39005   3.365   3.206   4.327 -0.0018  0.8565  0.1245
  283MOL0     H39006   3.254   3.015   4.461 -3.1460  0.9803  0.5597
  283MOL0     H39007   3.144   2.993   4.329 -1.1664  2.2566 -0.2191
  283MOL0     H39008   3.348   2.923   4.190 -0.0518  0.2990  0.2991
  283MOL0     H39009   3.439   2.957   4.335 -0.7612 -0.2412  0.4695
  283MOL0     H39010   3.291   2.783   4.460 -1.9573  0.5090 -0.0635
  283MOL0     H39011   3.231   2.722   4.308  1.4992 -3.0947  0.0969
  283MOL0     H39012   3.269   2.567   4.198  1.2289  2.8327  0.9623
  283MOL0     H39013   3.214   2.506   3.866  1.5329  0.0275 -1.2561
  283MOL0     H39014   3.189   2.434   4.018 -2.0866  3.4463 -1.2519
  283MOL0     H39015   3.309   2.360   3.905 -1.2666 -0.3708 -0.1994
  283MOL0     H39016   3.917   2.522   3.689  1.7380 -3.9617 -1.9403
  283MOL0     H39017   3.999   2.526   3.469 -0.1065  0.2562  0.8717
  283MOL0     H39018   3.987   2.503   3.082  2.3525  1.4068  0.6398
  283MOL0     H39019   4.039   2.594   3.225  0.6127 -1.2645  1.7083
  283MOL0     H39020   4.111   2.420   3.337  2.7397 -2.5895 -1.0238
  283MOL0     H39021   3.994   2.308   3.278  2.1371 -0.5029  4.9017
  283MOL0     H39022   4.111   2.268   3.086  0.8776  1.8613 -0.0366
  283MOL0     H39023   4.225   2.246   3.225  1.2945 -0.4685 -1.2698
  283MOL0     H39024   4.305   2.482   3.160 -0.4172  0.4515  0.4483
  283MOL0     H39025   4.225   2.444   3.006  1.3240  1.4350  0.2149
  283MOL0     H39026   4.375   2.222   3.024 -2.5504  0.5824 -0.3343
  283MOL0     H39027   4.461   2.382   2.984 -0.3649  0.5452  0.3215
  283MOL0     H39028   4.474   2.217   3.231 -2.3489 -0.0793 -2.6568
  283MOL0     H39029   4.497   2.390   3.238 -0.4907  0.0416 -0.9073
  283MOL0     H39030   4.716   2.282   3.202 -2.1791  0.9585  1.8735
  283MOL0     H39031   4.672   2.358   3.049 -0.8362  0.6426 -0.3616
  283MOL0     H39032   4.730   2.131   2.963  0.5805 -1.1391  0.3795
  283MOL0     H39033   4.563   2.127   2.972  0.6297 -0.0536  0.1127
  283MOL0     H39034   3.608   2.525   3.303  2.9761  1.3140 -2.9830
  283MOL0     H39035   3.518   2.535   3.516 -0.1037 -2.5164  0.7460
  283MOL0     H39036   3.693   2.656   3.979 -0.8330  3.2535  2.5179
  283MOL0     H39037   3.653   2.732   4.196 -0.1041  0.2411 -0.3537
  283MOL0     H39038   2.280   3.777   3.551  0.2193 -0.5621  4.4534
  283MOL0     H39039   2.165   3.936   3.398 -3.1147 -2.3208  3.9174
  283MOL0     H39040   2.135   4.258   3.171 -4.0043 -2.5987 -0.0450
  283MOL0     H39041   2.058   4.402   2.994  0.0390 -0.0429 -0.4632
  283MOL0     H39042   1.969   4.590   2.852  0.9383  0.2296  0.3014
  283MOL0     H39043   1.891   4.743   2.879 -1.1008 -1.4092  1.2879
  283MOL0     H39044   2.169   4.696   2.969 -1.1655 -1.6235  0.6630
  283MOL0     H39045   2.088   4.852   2.960 -1.5938 -1.2303 -0.6020
  283MOL0     H39046   2.257   4.789   2.789 -0.0994  0.1669 -1.2853
  283MOL0     H39047   2.153   4.668   2.717  0.0798 -0.0495  0.1812
  283MOL0     H39048   2.084   4.962   2.766 -0.2859 -2.1379  2.1078
  283MOL0     H39049   1.975   4.843   2.696  0.2621 -0.8450 -0.8727
  283MOL0     H39050   2.271   4.897   2.379 -0.2949  2.1295  0.2745
  283MOL0     H39051   1.906   4.673   3.293 -0.7485 -0.1005 -0.5501
  283MOL0     H39052   2.056   4.525   3.568  0.3444  1.3916 -0.8925
  283MOL0     H39053   1.926   4.631   3.511 -1.1074  0.0722 -0.2041
  283MOL0     H39054   1.889   4.462   3.560 -3.0264  2.3850 -0.9077
  284MOL0     O39055   4.024   8.107  11.278  0.1622  0.4241 -0.6890
  284MOL0     C39056   3.924   8.115  11.350 -0.4379  0.3181 -0.0990
  284MOL0     O39057   3.890   8.222  11.413 -0.1377 -0.1818 -0.7814
  284MOL0     C39058   3.978   8.323  11.457  0.3380  0.7324 -0.3698
  284MOL0     C39059   4.110   8.307  11.504 -0.8142  0.3844 -0.4446
  284MOL0     C39060   4.199   8.411  11.535 -0.1295  1.5080  0.0033
  284MOL0     C39061   4.147   8.542  11.516 -0.1431 -0.3507 -1.0994
  284MOL0     O39062   4.241   8.644  11.542 -0.0603  0.6103  0.2274
  284MOL0     C39063   4.205   8.778  11.508  0.6464 -0.0318 -0.3822
  284MOL0     C39064   4.303   8.878  11.548 -0.6002  0.9383 -0.3713
  284MOL0     C39065   4.438   8.878  11.490 -0.7441  0.0344 -0.1840
  284MOL0     C39066   4.539   8.948  11.578  0.3498 -0.1142 -0.0294
  284MOL0     C39067   4.689   8.922  11.530  0.2316  0.6640  0.0149
  284MOL0     C39068   4.795   8.947  11.630  0.4974 -0.4482  0.2745
  284MOL0     C39069   4.787   8.836  11.735  0.1782  0.0637 -0.4450
  284MOL0     C39070   4.898   8.841  11.850 -0.3561  0.1522  0.7540
  284MOL0     N39071   5.037   8.835  11.800 -0.3809  0.2409  0.5415
  284MOL0     C39072   5.109   8.942  11.758  1.1810  0.2293 -0.8720
  284MOL0     C39073   5.235   8.891  11.733 -1.5672 -0.4633 -0.4281
  284MOL0     C39074   5.353   8.972  11.677  0.4092  0.7026  0.3285
  284MOL0     C39075   5.385   8.917  11.532  0.2757  0.1500  0.7174
  284MOL0     C39076   5.516   8.971  11.481 -0.6442  0.3872  0.1527
  284MOL0     C39077   5.501   9.114  11.423 -0.1558 -0.0524  0.2810
  284MOL0     O39078   5.456   9.110  11.289 -0.0605 -0.3981 -0.7907
  284MOL0     C39079   5.411   9.228  11.233  0.1250  0.7062  0.9035
  284MOL0     C39080   5.412   9.347  11.304 -0.1144  0.3386 -0.4455
  284MOL0     C39081   5.336   9.457  11.260  0.9232  0.4381 -0.7440
  284MOL0     C39082   5.319   9.574  11.354 -0.3219  0.6660 -0.0492
  284MOL0     C39083   5.276   9.450  11.135  0.4154  1.3087  0.7240
  284MOL0     C39084   5.183   9.552  11.081 -0.4040 -1.1298  0.5971
  284MOL0     O39085   5.225   9.679  11.109  0.2009  0.3833 -0.4322
  284MOL0     C39086   5.146   9.781  11.057  0.1098 -0.1697  0.0812
  284MOL0     C39087   5.219   9.904  11.067 -1.3562  0.8058  1.0582
  284MOL0     C39088   5.161  10.024  11.028 -0.1346 -0.2467 -0.4975
  284MOL0     C39089   5.020  10.030  10.998 -0.1665  0.2005 -0.6093
  284MOL0     O39090   4.954  10.144  10.951  0.0223 -0.3191  0.4038
  284MOL0     C39091   5.030  10.255  10.920 -0.6249 -0.3796 -0.4168
  284MOL0     C39092   5.071  10.233  10.773 -0.0656 -0.0016 -0.5708
  284MOL0     C39093   4.963  10.225  10.672  0.7950 -0.1241  0.5904
  284MOL0     C39094   4.889  10.351  10.646  0.3001 -0.9360 -0.6503
  284MOL0     C39095   4.772  10.314  10.556  0.2827  0.6087  0.5601
  284MOL0     C39096   4.693  10.444  10.498 -0.4079 -0.2979  0.0704
  284MOL0     C39097   4.596  10.396  10.398 -0.0259 -0.5262  0.2983
  284MOL0     C39098   4.541  10.520  10.335  0.2367  1.0549  0.6170
  284MOL0    Cl39099   4.421  10.599  10.442 -0.0912  0.4506  0.5737
  284MOL0     C39100   4.945   9.907  11.005 -0.2394 -0.1657 -0.2402
  284MOL0     C39101   5.005   9.788  11.035  0.3609  0.0808  1.0320
  284MOL0     O39102   5.086   9.517  11.017  0.2402 -0.9958  0.6445
  284MOL0     C39103   5.302   9.336  11.052 -0.0400 -0.1393  1.0403
  284MOL0     C39104   5.371   9.225  11.098 -0.4965  0.0460 -0.1616
  284MOL0     N39105   5.233   8.758  11.768  0.8004 -0.8443 -0.9975
  284MOL0     N39106   5.110   8.725  11.798 -0.0944 -0.0914  0.1315
  284MOL0     C39107   4.009   8.559  11.495 -0.6157  0.7904 -0.3215
  284MOL0     C39108   3.921   8.454  11.464 -0.1706  0.7741 -0.0176
  284MOL0     C39109   3.837   7.997  11.349  0.0375  0.3204 -0.3046
  284MOL0     C39110   3.705   8.015  11.316  0.4289  0.5100  0.2209
  284MOL0     C39111   3.615   7.907  11.302 -0.0574 -0.6549 -0.5323
  284MOL0     C39112   3.670   7.779  11.321  0.3167 -1.0080  0.5058
  284MOL0     O39113   3.580   7.676  11.292  0.3551  0.0916 -0.6111
  284MOL0     C39114   3.637   7.549  11.261  0.4077 -0.6562 -0.9312
  284MOL0     C39115   3.530   7.467  11.195  1.4073  0.4487 -0.1227
  284MOL0     C39116   3.482   7.532  11.066 -0.0805  0.0408  0.2289
  284MOL0     C39117   3.571   7.484  10.946 -0.2446 -0.6087 -0.0286
  284MOL0     C39118   3.556   7.550  10.813 -0.1857  0.0447 -0.5160
  284MOL0     C39119   3.568   7.611  10.710 -0.2939  0.9282  0.4166
  284MOL0     C39120   3.804   7.764  11.357 -0.5697  0.1232 -0.3133
  284MOL0     C39121   3.895   7.866  11.377  0.2650 -0.4745 -0.5782
  284MOL0     C39122   4.027   7.833  11.433 -0.0305  0.1529 -0.3980
  284MOL0     H39123   4.138   8.202  11.495 -4.4154 -0.7721  0.1760
  284MOL0     H39124   4.303   8.394  11.561 -0.2670  0.1964 -0.2410
  284MOL0     H39125   4.110   8.798  11.559  1.1635  0.6746  0.3266
  284MOL0     H39126   4.192   8.799  11.402 -1.2379 -2.6838 -0.7882
  284MOL0     H39127   4.254   8.976  11.545 -0.7737  0.9116  0.9376
  284MOL0     H39128   4.316   8.875  11.656 -0.1112 -3.0706 -0.4043
  284MOL0     H39129   4.466   8.772  11.480 -2.0769 -0.1298 -3.6214
  284MOL0     H39130   4.453   8.919  11.390 -0.3569 -0.2845 -0.2629
  284MOL0     H39131   4.516   9.055  11.574 -0.5653 -0.3303 -1.8262
  284MOL0     H39132   4.530   8.909  11.680  1.5462  0.7332  0.4199
  284MOL0     H39133   4.708   8.989  11.446  1.2033 -0.2470 -0.5078
  284MOL0     H39134   4.693   8.817  11.500  0.3908  0.4699  0.6946
  284MOL0     H39135   4.892   8.939  11.578  0.3399  0.3120 -0.1418
  284MOL0     H39136   4.797   9.044  11.681  2.1884 -0.7983  0.9723
  284MOL0     H39137   4.812   8.739  11.690  2.7781  0.4505  0.0275
  284MOL0     H39138   4.687   8.828  11.779 -0.3746 -1.4591 -1.8459
  284MOL0     H39139   4.892   8.941  11.895 -0.7946 -0.7285  2.7738
  284MOL0     H39140   4.878   8.771  11.932 -2.2899 -0.1176  0.1054
  284MOL0     H39141   5.080   9.040  11.719  0.6844 -0.4798 -2.3701
  284MOL0     H39142   5.437   8.971  11.747  0.6836  0.4719 -0.0038
  284MOL0     H39143   5.323   9.076  11.665  0.9609  0.6686 -1.6456
  284MOL0     H39144   5.396   8.808  11.528 -0.9029  0.0656 -1.4806
  284MOL0     H39145   5.309   8.932  11.456  1.1586 -1.7167 -0.6210
  284MOL0     H39146   5.585   8.980  11.565  0.8725  0.4144 -1.0638
  284MOL0     H39147   5.559   8.904  11.407 -0.1416  2.8344 -1.8964
  284MOL0     H39148   5.429   9.164  11.489 -0.0968  0.1242  0.2128
  284MOL0     H39149   5.600   9.160  11.429 -1.2289  2.4143  0.2135
  284MOL0     H39150   5.456   9.352  11.403 -0.9899  0.0513 -0.0320
  284MOL0     H39151   5.214   9.595  11.373 -0.1930  2.4292 -1.1258
  284MOL0     H39152   5.371   9.666  11.326 -1.3972  1.8805  1.7507
  284MOL0     H39153   5.360   9.539  11.449 -2.2404 -0.9744  0.2568
  284MOL0     H39154   5.325   9.906  11.088 -0.4364 -0.6254 -2.6874
  284MOL0     H39155   5.219  10.116  11.029 -0.7215  0.1383  0.4463
  284MOL0     H39156   4.968  10.345  10.921 -0.1097  0.0095  1.8107
  284MOL0     H39157   5.127  10.269  10.968 -0.5460 -2.2615  0.0698
  284MOL0     H39158   5.129  10.324  10.749  1.1114 -1.3581 -3.4034
  284MOL0     H39159   5.146  10.154  10.778  1.7292  1.6135 -0.5165
  284MOL0     H39160   4.894  10.147  10.707 -2.6548  2.0867 -0.8174
  284MOL0     H39161   5.011  10.193  10.579 -2.7244  0.2973 -1.5418
  284MOL0     H39162   4.953  10.429  10.603 -0.4449 -0.4963 -0.9880
  284MOL0     H39163   4.847  10.389  10.739  1.7776 -1.2291  0.1644
  284MOL0     H39164   4.812  10.251  10.477 -0.5135 -2.0777  2.1898
  284MOL0     H39165   4.707  10.240  10.603  1.0698 -4.6101 -5.2467
  284MOL0     H39166   4.765  10.511  10.451 -1.7892  0.7198 -0.6703
  284MOL0     H39167   4.645  10.494  10.583  2.1273  3.0571 -0.2561
  284MOL0     H39168   4.517  10.335  10.443 -1.1812 -0.0204 -0.9723
  284MOL0     H39169   4.634  10.325  10.325 -3.0255 -3.7283  1.5801
  284MOL0     H39170   4.486  10.493  10.244 -3.7067 -1.2051  3.3556
  284MOL0     H39171   4.621  10.594  10.326  2.6481 -1.0258  3.1316
  284MOL0     H39172   4.839   9.898  10.985 -0.2628  0.0815 -0.2313
  284MOL0     H39173   4.943   9.699  11.035  1.0673 -0.4207  0.0450
  284MOL0     H39174   5.255   9.331  10.955 -0.6524 -0.4784  1.3445
  284MOL0     H39175   5.367   9.139  11.031  1.6674  0.4517 -0.8856
  284MOL0     H39176   3.965   8.655  11.518 -2.8618  0.0812 -1.3396
  284MOL0     H39177   3.821   8.483  11.432  0.3642  0.7727 -1.8072
  284MOL0     H39178   3.667   8.116  11.301  1.7007  0.7667 -1.4944
  284MOL0     H39179   3.509   7.919  11.285 -0.3694 -2.1475  0.1750
  284MOL0     H39180   3.721   7.571  11.194  1.2689 -2.2106 -0.4050
  284MOL0     H39181   3.681   7.494  11.345  0.9432 -0.3354 -0.9969
  284MOL0     H39182   3.444   7.457  11.261  1.4102 -0.2085 -0.2106
  284MOL0     H39183   3.547   7.362  11.170 -3.0597 -0.7954  1.1526
  284MOL0     H39184   3.383   7.490  11.044 -0.7024  1.2425  0.6291
  284MOL0     H39185   3.479   7.640  11.082 -1.7733 -0.1337  1.3669
  284MOL0     H39186   3.560   7.376  10.930 -0.6014 -0.6751  0.6447
  284MOL0     H39187   3.673   7.507  10.977 -1.8245  2.5961  3.6645
  284MOL0     H39188   3.597   7.665  10.622 -1.3702  1.6837  0.4996
  284MOL0     H39189   3.854   7.669  11.373  1.0580  1.2195  1.6651
  284MOL0     H39190   4.094   7.786  11.360 -0.9253 -4.0614  1.2321
  284MOL0     H39191   4.066   7.913  11.496  0.0178 -0.4101  0.2959
  284MOL0     H39192   4.001   7.755  11.504 -2.4968  3.1450  2.2511
  285MOL0     O39193   3.572   8.090   6.453 -0.1142  0.6361  0.1573
  285MOL0     C39194   3.493   8.045   6.530  0.0432 -0.1926 -0.5219
  285MOL0     O39195   3.440   7.919   6.527  0.8065 -0.0330  0.4078
  285MOL0     C39196   3.500   7.832   6.439  0.1543  0.4303 -1.1617
  285MOL0     C39197   3.441   7.814   6.314 -0.2399  0.5156 -0.6512
  285MOL0     C39198   3.493   7.716   6.235 -1.0104 -0.7404  0.3007
  285MOL0     C39199   3.615   7.643   6.270  0.1766  0.3700  0.7825
  285MOL0     O39200   3.674   7.549   6.198  0.0630  0.2154  0.9452
  285MOL0     C39201   3.646   7.557   6.052 -0.2797 -0.1096  0.6352
  285MOL0     C39202   3.769   7.487   5.979  0.3549 -0.1654  0.3476
  285MOL0     C39203   3.749   7.535   5.831  0.4840  0.4891 -0.2427
  285MOL0     C39204   3.887   7.507   5.763 -0.2387 -0.2818 -0.6869
  285MOL0     C39205   4.009   7.585   5.794  0.1720  0.3511  0.2785
  285MOL0     C39206   4.137   7.544   5.710 -0.0295 -0.8654  0.7454
  285MOL0     C39207   4.151   7.388   5.701 -0.8152  0.7815 -0.5187
  285MOL0     C39208   4.301   7.342   5.722 -0.2067 -0.1659  0.4592
  285MOL0     N39209   4.386   7.414   5.628 -0.2823 -0.2567 -1.0194
  285MOL0     C39210   4.393   7.410   5.495  0.2546 -0.5186  0.2680
  285MOL0     C39211   4.491   7.504   5.464 -0.9600 -0.7323  0.9176
  285MOL0     C39212   4.545   7.520   5.324  0.2708  0.4292 -0.5556
  285MOL0     C39213   4.463   7.628   5.239  0.1455 -0.5560 -0.6441
  285MOL0     C39214   4.334   7.567   5.189  0.0693  0.2232 -0.6428
  285MOL0     C39215   4.347   7.480   5.062  0.0394 -0.0994  0.2088
  285MOL0     O39216   4.228   7.410   5.017 -0.1924 -0.1202  0.4255
  285MOL0     C39217   4.172   7.309   5.091 -0.1811 -0.5618 -0.4120
  285MOL0     C39218   4.241   7.238   5.193  0.5513  1.2880  1.3940
  285MOL0     C39219   4.162   7.143   5.265  1.4634 -0.1553 -0.6292
  285MOL0     C39220   4.229   7.072   5.385 -0.3845  1.2125  0.4749
  285MOL0     C39221   4.036   7.110   5.235 -0.5566  0.4925  0.3279
  285MOL0     C39222   3.943   7.013   5.298  0.6549 -0.4594 -0.3647
  285MOL0     O39223   4.001   6.916   5.366 -0.3139 -0.6272  0.2206
  285MOL0     C39224   3.922   6.816   5.406  1.2533  0.4546 -0.9362
  285MOL0     C39225   3.879   6.711   5.328  0.8909  0.6890 -0.0838
  285MOL0     C39226   3.810   6.603   5.381  0.2108  0.6023 -0.0468
  285MOL0     C39227   3.773   6.596   5.515 -0.2540  0.8794 -0.1873
  285MOL0     O39228   3.717   6.490   5.587  0.4722 -0.3886 -0.2974
  285MOL0     C39229   3.683   6.373   5.518 -0.6704  0.2892  0.1708
  285MOL0     C39230   3.642   6.255   5.602 -1.1107 -0.2265  0.4581
  285MOL0     C39231   3.517   6.266   5.692  0.2470  0.0480  0.3638
  285MOL0     C39232   3.485   6.146   5.792 -0.6624 -0.5782  0.3650
  285MOL0     C39233   3.357   6.155   5.868  0.1491  0.4081  0.8052
  285MOL0     C39234   3.341   6.278   5.956 -0.4957 -0.4402 -0.4442
  285MOL0     C39235   3.192   6.302   5.989  1.0521  0.4344  0.5492
  285MOL0     C39236   3.166   6.410   6.098 -0.5409  0.2556 -0.3014
  285MOL0    Cl39237   2.988   6.427   6.136  0.5881 -0.2745 -0.0531
  285MOL0     C39238   3.810   6.701   5.596 -0.3093 -0.0953  0.2238
  285MOL0     C39239   3.889   6.807   5.547  0.2210  0.7234  0.1619
  285MOL0     O39240   3.819   7.032   5.289  0.0795  0.7657  0.7226
  285MOL0     C39241   3.977   7.178   5.120 -0.2023  0.2289  0.5120
  285MOL0     C39242   4.047   7.284   5.056 -0.9640 -0.4076  0.4768
  285MOL0     N39243   4.535   7.565   5.587  0.9807  0.0368 -0.7167
  285MOL0     N39244   4.475   7.509   5.680  0.1896  0.1752  0.6089
  285MOL0     C39245   3.669   7.670   6.390 -0.2638 -0.8559  0.1198
  285MOL0     C39246   3.609   7.759   6.478  0.0882 -1.3251 -0.4103
  285MOL0     C39247   3.447   8.140   6.634 -0.0272  0.6366  0.5077
  285MOL0     C39248   3.545   8.193   6.710 -0.4889 -0.7025  0.0282
  285MOL0     C39249   3.516   8.273   6.814  0.9664 -0.0234  0.4413
  285MOL0     C39250   3.384   8.311   6.844 -0.1472  1.5857 -0.5115
  285MOL0     O39251   3.335   8.380   6.944 -0.5160  0.3671 -0.3276
  285MOL0     C39252   3.437   8.440   7.033 -0.6817 -0.3953  0.5186
  285MOL0     C39253   3.361   8.500   7.152 -0.5406 -0.3169  0.1286
  285MOL0     C39254   3.456   8.541   7.262 -0.3449 -0.5237 -0.0845
  285MOL0     C39255   3.392   8.550   7.406 -0.4586  0.6526 -0.6111
  285MOL0     C39256   3.357   8.413   7.450  0.3794 -0.4964  0.5403
  285MOL0     C39257   3.360   8.293   7.468 -0.6952  0.0104  0.4785
  285MOL0     C39258   3.290   8.238   6.773  1.0314 -0.5411 -0.9737
  285MOL0     C39259   3.313   8.152   6.668 -0.0591 -0.4471 -0.7776
  285MOL0     C39260   3.191   8.079   6.618 -1.2263  1.0259  0.9400
  285MOL0     H39261   3.361   7.877   6.274 -0.4782 -0.3353 -1.5410
  285MOL0     H39262   3.422   7.708   6.153  0.8083  1.0921 -1.5922
  285MOL0     H39263   3.636   7.662   6.024 -2.1614  1.6245  6.4068
  285MOL0     H39264   3.554   7.507   6.022 -0.4963  0.6306  0.0474
  285MOL0     H39265   3.855   7.533   6.029  1.4615 -0.2604 -1.3718
  285MOL0     H39266   3.751   7.380   5.991 -1.3243 -0.1589 -1.5642
  285MOL0     H39267   3.670   7.472   5.789  1.7228 -1.2322 -0.1011
  285MOL0     H39268   3.711   7.638   5.821 -2.7868 -0.2798  2.3443
  285MOL0     H39269   3.909   7.404   5.792  0.1768  0.4336  1.7592
  285MOL0     H39270   3.859   7.509   5.657 -0.4970  1.5084 -0.6178
  285MOL0     H39271   4.026   7.573   5.901 -0.1985  1.4071  0.4679
  285MOL0     H39272   3.987   7.688   5.764 -3.1820 -0.4583 -0.4232
  285MOL0     H39273   4.124   7.592   5.613 -0.7728 -1.1917  0.6750
  285MOL0     H39274   4.227   7.583   5.759 -0.7495  0.6273  0.9131
  285MOL0     H39275   4.119   7.352   5.603 -1.5810  2.3166 -0.8803
  285MOL0     H39276   4.095   7.327   5.772  3.2341 -1.4960  0.9868
  285MOL0     H39277   4.331   7.379   5.821  3.1023 -0.0539 -0.4592
  285MOL0     H39278   4.307   7.235   5.701  1.2060  0.0449 -0.3633
  285MOL0     H39279   4.322   7.351   5.438  0.7484 -0.9614  0.1009
  285MOL0     H39280   4.543   7.429   5.264 -1.2367  3.0348 -4.9244
  285MOL0     H39281   4.653   7.539   5.322 -0.0418  2.4599 -2.5686
  285MOL0     H39282   4.441   7.707   5.312 -0.7150 -0.7625 -0.6588
  285MOL0     H39283   4.523   7.667   5.156  1.6260 -0.2538  0.5391
  285MOL0     H39284   4.286   7.514   5.272 -0.0107  1.0391 -0.1606
  285MOL0     H39285   4.271   7.653   5.165  1.0026  1.5111  1.3233
  285MOL0     H39286   4.381   7.545   4.981  2.8740 -3.4659 -1.5659
  285MOL0     H39287   4.433   7.413   5.069  0.3532 -0.0334 -2.1976
  285MOL0     H39288   4.348   7.247   5.210  1.0502 -1.1713  0.0530
  285MOL0     H39289   4.327   7.114   5.412 -1.6011  1.4171  5.4337
  285MOL0     H39290   4.246   6.968   5.357 -0.8255  0.2774  3.3518
  285MOL0     H39291   4.167   7.089   5.473  0.2725 -0.2582  1.2512
  285MOL0     H39292   3.907   6.699   5.224  0.7025 -1.0151  0.0314
  285MOL0     H39293   3.805   6.516   5.315  1.4599  0.8250 -0.4780
  285MOL0     H39294   3.607   6.395   5.443  1.7657  2.2826 -1.9078
  285MOL0     H39295   3.777   6.348   5.467 -0.2547 -0.1380  1.1121
  285MOL0     H39296   3.624   6.172   5.534  2.7996 -0.5504 -0.4129
  285MOL0     H39297   3.727   6.244   5.670  1.1686  1.1671 -1.9532
  285MOL0     H39298   3.428   6.262   5.629 -0.1832 -3.3983  0.9643
  285MOL0     H39299   3.537   6.357   5.749  2.0255 -0.7359  1.0963
  285MOL0     H39300   3.567   6.136   5.865 -0.0387 -0.8780 -0.3614
  285MOL0     H39301   3.474   6.054   5.733  1.3527 -2.1294  2.2187
  285MOL0     H39302   3.270   6.150   5.803 -0.7355 -1.4147  2.0195
  285MOL0     H39303   3.347   6.065   5.930 -1.0971  0.3621  0.5578
  285MOL0     H39304   3.380   6.370   5.912 -0.4213  1.1801  2.7283
  285MOL0     H39305   3.388   6.249   6.050 -1.0403 -0.1495 -0.0799
  285MOL0     H39306   3.144   6.209   6.019 -0.5410  1.8034  2.4973
  285MOL0     H39307   3.150   6.321   5.889  1.2571 -3.1634 -0.3648
  285MOL0     H39308   3.193   6.514   6.077  0.0555  0.6464  2.0756
  285MOL0     H39309   3.215   6.381   6.191  0.4377 -3.2754 -1.7602
  285MOL0     H39310   3.781   6.707   5.701  0.6812  3.7548  0.3995
  285MOL0     H39311   3.929   6.888   5.608  1.0646  2.5862 -2.6547
  285MOL0     H39312   3.875   7.150   5.097 -0.5151  1.6337  0.1143
  285MOL0     H39313   4.004   7.333   4.970 -0.7377 -1.6961 -0.3940
  285MOL0     H39314   3.764   7.627   6.419 -0.0563 -1.9071 -1.9529
  285MOL0     H39315   3.651   7.770   6.577 -0.4292 -0.7955 -0.2420
  285MOL0     H39316   3.646   8.172   6.677  0.1820  2.2135 -0.0222
  285MOL0     H39317   3.599   8.326   6.860  2.1043 -0.7116 -0.7707
  285MOL0     H39318   3.507   8.370   7.080 -0.7269  0.7552  2.4395
  285MOL0     H39319   3.486   8.521   6.979 -1.1984 -1.2619 -1.3267
  285MOL0     H39320   3.280   8.438   7.191  0.9664 -2.8864 -0.5945
  285MOL0     H39321   3.308   8.586   7.111 -2.4018 -1.9248 -1.0398
  285MOL0     H39322   3.549   8.485   7.273 -0.5246 -0.4711  2.3305
  285MOL0     H39323   3.478   8.644   7.234 -0.1463 -0.6815 -0.5177
  285MOL0     H39324   3.296   8.602   7.408 -0.8254 -0.0025  1.4460
  285MOL0     H39325   3.461   8.602   7.473 -2.4447  1.4340  0.9195
  285MOL0     H39326   3.328   8.194   7.494 -3.0603 -0.5043 -3.5199
  285MOL0     H39327   3.191   8.255   6.815  1.9835  3.2937  0.1345
  285MOL0     H39328   3.099   8.109   6.668 -1.6674 -0.2574  0.9135
  285MOL0     H39329   3.183   8.096   6.510  0.3724 -1.7745  0.2909
  285MOL0     H39330   3.194   7.971   6.630 -4.3505  0.0119 -4.2506
  286MOL0     O39331   8.607  10.240  10.756 -0.3058 -0.4554 -0.3183
  286MOL0     C39332   8.491  10.203  10.741 -0.0084 -0.5390 -0.7267
  286MOL0     O39333   8.396  10.265  10.666  0.3516 -0.1002 -0.2567
  286MOL0     C39334   8.420  10.371  10.588  0.5768 -0.5517  0.3240
  286MOL0     C39335   8.533  10.378  10.506 -0.0355  0.4971 -1.1559
  286MOL0     C39336   8.546  10.499  10.434 -0.2100  0.1835  0.0271
  286MOL0     C39337   8.459  10.607  10.443  0.5820  1.3027 -0.5429
  286MOL0     O39338   8.501  10.721  10.387 -0.1032 -0.6675  0.2455
  286MOL0     C39339   8.539  10.833  10.461  0.0815  0.2095 -0.0498
  286MOL0     C39340   8.675  10.829  10.537 -0.0990  0.5649 -0.4604
  286MOL0     C39341   8.784  10.805  10.442 -0.5425  0.1194  0.1940
  286MOL0     C39342   8.918  10.752  10.509  0.1145  0.1776  0.4705
  286MOL0     C39343   8.905  10.593  10.510 -0.2748  0.4848 -1.4749
  286MOL0     C39344   9.041  10.523  10.544  0.3239 -0.3884 -0.5270
  286MOL0     C39345   9.058  10.378  10.496 -0.1339  0.7963 -0.4099
  286MOL0     C39346   9.209  10.336  10.510  0.0100  0.3952 -0.3975
  286MOL0     N39347   9.231  10.195  10.501 -0.0677 -0.3131  0.4649
  286MOL0     C39348   9.142  10.093  10.522  0.3112 -0.7762  0.6531
  286MOL0     C39349   9.208   9.973  10.512  0.4008 -0.4886 -0.1802
  286MOL0     C39350   9.158   9.828  10.513  0.4442 -0.3197  0.6817
  286MOL0     C39351   9.051   9.813  10.623  0.1200  0.1561 -0.2418
  286MOL0     C39352   9.011   9.664  10.627  0.3925 -0.6367  0.9475
  286MOL0     C39353   8.930   9.627  10.755  0.5428 -0.6475 -0.5162
  286MOL0     O39354   9.016   9.641  10.873  0.8378  0.2587 -0.3037
  286MOL0     C39355   8.976   9.627  11.002  0.0290 -0.1040  0.4098
  286MOL0     C39356   8.848   9.634  11.052  0.7269 -0.7437 -0.2830
  286MOL0     C39357   8.822   9.636  11.191 -1.0964 -0.5510  0.4453
  286MOL0     C39358   8.690   9.648  11.240  0.0368  0.1037  0.7095
  286MOL0     C39359   8.934   9.645  11.279  0.0741  0.7240  0.4749
  286MOL0     C39360   8.919   9.655  11.426 -0.6589 -1.1969 -0.2039
  286MOL0     O39361   9.013   9.591  11.514  0.4574  0.4153  0.4496
  286MOL0     C39362   8.995   9.615  11.648  0.8131 -0.2627  0.7725
  286MOL0     C39363   9.114   9.640  11.721  0.8506 -0.5197  0.0297
  286MOL0     C39364   9.099   9.641  11.861  0.6052 -0.3378  0.1714
  286MOL0     C39365   8.981   9.610  11.928 -0.3972  0.5841 -0.7931
  286MOL0     O39366   8.972   9.615  12.067  0.1176 -0.0975  0.3727
  286MOL0     C39367   8.866   9.700  12.113  0.2645  0.5777 -0.7103
  286MOL0     C39368   8.866   9.678  12.271 -0.1194 -0.6094 -0.3743
  286MOL0     C39369   8.770   9.777  12.336  0.1820  0.0897 -0.5723
  286MOL0     C39370   8.754   9.766  12.483  0.5332 -0.4850  0.6804
  286MOL0     C39371   8.689   9.891  12.543  0.9317  0.5320 -1.7912
  286MOL0     C39372   8.640   9.875  12.684  0.1262 -1.0006 -0.0837
  286MOL0     C39373   8.566  10.013  12.725 -0.2900  0.6291 -0.5297
  286MOL0     C39374   8.545  10.042  12.877 -0.4901 -0.1135 -0.1148
  286MOL0    Cl39375   8.450  10.200  12.891  0.0522  0.0316  0.4864
  286MOL0     C39376   8.860   9.582  11.855  0.0368 -0.9794 -0.2872
  286MOL0     C39377   8.873   9.586  11.715  0.4446  0.5011  0.2397
  286MOL0     O39378   8.833   9.734  11.466 -0.1715 -0.2403  0.3717
  286MOL0     C39379   9.061   9.639  11.228  0.0305 -0.5787 -0.2214
  286MOL0     C39380   9.084   9.630  11.091 -0.1906  0.6461 -0.8434
  286MOL0     N39381   9.337  10.007  10.476 -0.3692  0.0040 -0.2607
  286MOL0     N39382   9.344  10.140  10.467  0.0433  0.0533  0.0009
  286MOL0     C39383   8.336  10.591  10.513  1.0116 -0.4189 -0.5039
  286MOL0     C39384   8.318  10.473  10.586 -0.1359  0.9674 -0.2397
  286MOL0     C39385   8.441  10.091  10.815 -0.3844  0.0438 -0.3327
  286MOL0     C39386   8.303  10.083  10.834 -0.0030 -0.7392 -0.5375
  286MOL0     C39387   8.239   9.968  10.885 -0.1080 -0.3454  0.2973
  286MOL0     C39388   8.320   9.859  10.927 -0.5751 -0.3725  0.5433
  286MOL0     O39389   8.251   9.755  10.978 -0.2958  0.0210  0.0352
  286MOL0     C39390   8.322   9.631  11.008  0.8883  0.2745 -0.3344
  286MOL0     C39391   8.361   9.540  10.883 -0.2464  0.7680 -0.8007
  286MOL0     C39392   8.232   9.524  10.799 -0.5344 -0.5542 -0.3952
  286MOL0     C39393   8.116   9.456  10.866  1.1088 -0.4085 -0.5885
  286MOL0     C39394   8.163   9.331  10.910 -1.2447 -0.2353 -0.3411
  286MOL0     C39395   8.227   9.230  10.924  0.8866  0.4880 -0.1901
  286MOL0     C39396   8.461   9.862  10.918  0.7586 -1.6626 -0.0643
  286MOL0     C39397   8.519   9.975  10.856  0.6067  0.1708  0.7778
  286MOL0     C39398   8.656   9.961  10.820  0.4471  0.6015  0.2464
  286MOL0     H39399   8.615  10.308  10.490  0.7421  1.1327 -0.0963
  286MOL0     H39400   8.626  10.505  10.361 -0.7277 -1.2342 -0.7030
  286MOL0     H39401   8.455  10.862  10.526  2.0180 -1.2762  3.3880
  286MOL0     H39402   8.534  10.913  10.388 -0.4241 -1.6021 -2.1125
  286MOL0     H39403   8.684  10.918  10.600 -1.2371 -0.9586  1.9732
  286MOL0     H39404   8.682  10.744  10.605  2.6557  1.4479  0.4816
  286MOL0     H39405   8.763  10.736  10.359  0.4038  0.5752 -0.4449
  286MOL0     H39406   8.810  10.899  10.391 -1.8556 -0.1621 -1.0835
  286MOL0     H39407   9.007  10.784  10.453 -0.8378  2.9495  0.4206
  286MOL0     H39408   8.929  10.798  10.608 -2.1683 -0.6117  1.1619
  286MOL0     H39409   8.874  10.570  10.408  1.6123  2.8539 -2.6784
  286MOL0     H39410   8.831  10.558  10.583  3.9495 -1.3366  2.4505
  286MOL0     H39411   9.114  10.580  10.484 -1.7432  2.0643 -0.9014
  286MOL0     H39412   9.064  10.528  10.651 -2.6499  1.6006  0.1417
  286MOL0     H39413   9.009  10.371  10.398 -2.0409 -0.8476  0.5904
  286MOL0     H39414   9.005  10.310  10.563  3.2557 -0.3057  1.3900
  286MOL0     H39415   9.263  10.393  10.433 -3.1558  0.1114 -3.0477
  286MOL0     H39416   9.243  10.355  10.612 -0.3143  0.7640 -0.3539
  286MOL0     H39417   9.034  10.106  10.522  0.5672  2.2128 -0.6807
  286MOL0     H39418   9.237   9.756  10.536  0.8051  0.3205  1.5325
  286MOL0     H39419   9.114   9.806  10.416  0.2780  0.9692  0.4424
  286MOL0     H39420   9.081   9.857  10.719  1.5091  3.1689 -1.9345
  286MOL0     H39421   8.961   9.873  10.605 -0.8154 -0.6612  1.4448
  286MOL0     H39422   8.962   9.635  10.534  4.3729 -0.2174 -1.5054
  286MOL0     H39423   9.101   9.602  10.624  1.1621  0.1777 -5.1605
  286MOL0     H39424   8.835   9.681  10.767  1.3753  0.4957  1.4979
  286MOL0     H39425   8.898   9.523  10.741 -1.8535  0.2750 -2.5831
  286MOL0     H39426   8.775   9.632  10.972 -0.5481  3.2882  0.5239
  286MOL0     H39427   8.656   9.751  11.260 -0.2296  0.0778  0.4139
  286MOL0     H39428   8.684   9.578  11.323  0.4944 -4.4881 -2.7101
  286MOL0     H39429   8.616   9.610  11.169 -0.0443 -0.0983  0.9024
  286MOL0     H39430   9.205   9.659  11.664  0.0914 -2.3937 -1.9255
  286MOL0     H39431   9.190   9.671  11.912 -0.5800 -0.3714  2.4485
  286MOL0     H39432   8.898   9.801  12.086  1.2423 -0.1194 -2.3662
  286MOL0     H39433   8.766   9.673  12.079 -0.5597 -0.3863  2.1852
  286MOL0     H39434   8.853   9.572  12.293  1.3446 -0.5507  0.8729
  286MOL0     H39435   8.968   9.696  12.306  0.3758 -0.1947 -1.9199
  286MOL0     H39436   8.674   9.784  12.283  0.3544  1.9268 -0.6953
  286MOL0     H39437   8.814   9.875  12.315  0.8724  0.0778  0.7230
  286MOL0     H39438   8.857   9.757  12.519  0.5089  1.6082  1.4082
  286MOL0     H39439   8.708   9.670  12.505  2.3814 -2.1488 -2.0741
  286MOL0     H39440   8.751   9.981  12.546 -0.0066  1.1945 -1.7347
  286MOL0     H39441   8.604   9.922  12.481 -1.5554  1.9966  2.0160
  286MOL0     H39442   8.722   9.862  12.755 -0.7637  1.3962  1.5379
  286MOL0     H39443   8.570   9.792  12.698  1.6625 -2.0210  2.0832
  286MOL0     H39444   8.470  10.025  12.674  1.9086  0.0232 -5.3635
  286MOL0     H39445   8.636  10.089  12.689  0.8981  0.4280  1.2258
  286MOL0     H39446   8.643  10.048  12.926 -0.6784 -1.4052  0.4380
  286MOL0     H39447   8.491   9.960  12.924 -1.4348  1.3540  1.4787
  286MOL0     H39448   8.765   9.555  11.898  0.4409  0.1115  1.3702
  286MOL0     H39449   8.784   9.561  11.657 -1.8202  1.6306  2.9494
  286MOL0     H39450   9.149   9.655  11.289  0.1976 -0.9744 -0.3618
  286MOL0     H39451   9.189   9.623  11.066 -0.0180 -0.6861  0.1268
  286MOL0     H39452   8.257  10.664  10.524  1.5176 -0.1753  2.0863
  286MOL0     H39453   8.224  10.459  10.638  0.0364 -2.6066 -0.6503
  286MOL0     H39454   8.230  10.160  10.813 -0.4296 -1.6573 -2.6306
  286MOL0     H39455   8.131   9.969  10.896 -0.1132 -0.2638  0.2378
  286MOL0     H39456   8.406   9.631  11.078 -0.4351 -1.1508  1.3760
  286MOL0     H39457   8.256   9.569  11.070  0.2943  1.0587 -0.1645
  286MOL0     H39458   8.403   9.443  10.911 -0.1430  0.8399 -0.7022
  286MOL0     H39459   8.446   9.582  10.829  2.3892  1.5390  3.4777
  286MOL0     H39460   8.207   9.624  10.764 -2.2054 -0.8315 -0.0566
  286MOL0     H39461   8.271   9.458  10.721  0.4030  1.3606 -1.5989
  286MOL0     H39462   8.041   9.444  10.787  1.9056 -3.0358 -1.0494
  286MOL0     H39463   8.074   9.513  10.950  0.0514  0.8433 -1.8963
  286MOL0     H39464   8.269   9.132  10.926  2.0867  0.8092 -3.4723
  286MOL0     H39465   8.517   9.773  10.944  0.1869 -1.9904  0.0719
  286MOL0     H39466   8.706   9.877  10.868 -0.1730 -0.7072 -1.3171
  286MOL0     H39467   8.665   9.962  10.711 -0.5755  1.0995  0.1477
  286MOL0     H39468   8.730  10.035  10.853  1.4431 -0.0352 -0.5396
  287MOL0     O39469   4.697   2.215   4.233  0.3835  0.3164  0.2301
  287MOL0     C39470   4.661   2.238   4.115  1.1690  0.9522 -0.1280
  287MOL0     O39471   4.728   2.297   4.012  0.1939 -0.5159  0.3324
  287MOL0     C39472   4.853   2.328   4.040  0.1962  0.1464 -0.0909
  287MOL0     C39473   4.948   2.231   4.018  0.3478  0.4620  0.0392
  287MOL0     C39474   5.076   2.246   4.067  0.6194  0.2657 -0.1633
  287MOL0     C39475   5.113   2.365   4.124 -0.6214 -1.0830 -0.4895
  287MOL0     O39476   5.240   2.369   4.176 -0.7984 -0.2468 -0.2272
  287MOL0     C39477   5.264   2.405   4.310  1.2184  0.8126 -0.1210
  287MOL0     C39478   5.344   2.533   4.317  0.7275 -0.7543  0.1633
  287MOL0     C39479   5.348   2.582   4.458 -0.1137 -0.7413  0.9503
  287MOL0     C39480   5.450   2.682   4.470 -0.0156  0.9682  0.9058
  287MOL0     C39481   5.479   2.734   4.610  0.0956 -0.2513 -0.0451
  287MOL0     C39482   5.352   2.784   4.680 -0.8081 -0.7913  0.8744
  287MOL0     C39483   5.378   2.878   4.797  0.2153  0.0155  0.2421
  287MOL0     C39484   5.446   2.829   4.924 -1.0378 -0.4829 -0.8078
  287MOL0     N39485   5.399   2.694   4.961 -0.5416 -0.0156  0.3994
  287MOL0     C39486   5.472   2.575   4.941 -0.5366 -0.3508  0.2851
  287MOL0     C39487   5.413   2.473   5.001  0.8929  1.1062  0.4197
  287MOL0     C39488   5.460   2.334   5.029 -0.2891 -0.4637 -0.7459
  287MOL0     C39489   5.515   2.251   4.915 -0.2819 -0.0571  0.5415
  287MOL0     C39490   5.428   2.260   4.769 -0.8081  0.3017 -0.5368
  287MOL0     C39491   5.295   2.193   4.778  1.1638 -0.3510  1.1979
  287MOL0     O39492   5.224   2.193   4.648 -0.2922  0.1154 -0.3473
  287MOL0     C39493   5.137   2.294   4.623 -1.0462 -1.1711  0.5497
  287MOL0     C39494   5.132   2.407   4.706 -0.0829  0.0400  0.2962
  287MOL0     C39495   5.025   2.497   4.678  0.3448 -0.1536 -0.1861
  287MOL0     C39496   5.016   2.616   4.779  0.2463  0.4988  0.6921
  287MOL0     C39497   4.934   2.478   4.573  0.1131 -0.3948  0.4437
  287MOL0     C39498   4.817   2.563   4.538  0.3799 -0.0405  1.5038
  287MOL0     O39499   4.704   2.495   4.505 -0.1132 -0.2775 -0.1102
  287MOL0     C39500   4.591   2.576   4.477 -1.1326 -0.4328  0.4224
  287MOL0     C39501   4.537   2.672   4.558 -0.0978 -0.1063  0.5322
  287MOL0     C39502   4.430   2.752   4.526 -0.1520  0.1889  0.7345
  287MOL0     C39503   4.360   2.731   4.406  0.9002  0.3293  0.2661
  287MOL0     O39504   4.252   2.798   4.371 -0.5810  0.1623  0.0738
  287MOL0     C39505   4.252   2.932   4.421  0.7271 -0.9303  0.1517
  287MOL0     C39506   4.180   3.021   4.324  0.5118  0.4123  0.5294
  287MOL0     C39507   4.173   3.169   4.354 -0.7708 -0.8729  0.0110
  287MOL0     C39508   4.040   3.228   4.354 -0.2655 -0.0990 -0.7640
  287MOL0     C39509   4.043   3.349   4.443 -0.0176 -0.3828 -0.7101
  287MOL0     C39510   3.912   3.429   4.438  0.3555  1.2404 -0.0544
  287MOL0     C39511   3.907   3.539   4.541 -1.0965  0.0510  0.5949
  287MOL0     C39512   3.790   3.646   4.532  0.0087  0.9258  0.6979
  287MOL0    Cl39513   3.805   3.722   4.367  0.1144 -0.2880 -0.1795
  287MOL0     C39514   4.413   2.628   4.314  0.0030  0.0504 -0.1775
  287MOL0     C39515   4.530   2.558   4.350 -0.3652 -0.2278 -0.4080
  287MOL0     O39516   4.835   2.683   4.522  1.7020  0.9083  0.2477
  287MOL0     C39517   4.944   2.367   4.491  0.1273 -0.5685  0.3873
  287MOL0     C39518   5.049   2.277   4.520 -0.0528  0.9830  0.7857
  287MOL0     N39519   5.297   2.528   5.049 -0.6651  0.1928 -0.0354
  287MOL0     N39520   5.289   2.654   5.024 -0.7610  0.2882  0.6583
  287MOL0     C39521   5.030   2.476   4.133  0.8093 -0.1739 -0.1520
  287MOL0     C39522   4.898   2.453   4.080  0.1452 -0.0836 -0.0042
  287MOL0     C39523   4.519   2.190   4.083 -0.6452 -0.5601  0.2475
  287MOL0     C39524   4.510   2.160   3.942 -0.2903 -0.6790 -0.0865
  287MOL0     C39525   4.386   2.115   3.896 -0.4697 -0.3582  0.6766
  287MOL0     C39526   4.271   2.121   3.972 -1.1318 -0.2155 -0.0552
  287MOL0     O39527   4.163   2.072   3.913 -0.3248  0.4919 -0.9252
  287MOL0     C39528   4.056   2.003   3.986  0.5044  0.0264 -0.2237
  287MOL0     C39529   3.988   1.911   3.880  0.3283  0.3348 -0.1286
  287MOL0     C39530   4.081   1.801   3.815 -0.2780  0.1657 -1.0644
  287MOL0     C39531   3.994   1.677   3.781  0.1219  0.6689 -0.0418
  287MOL0     C39532   3.912   1.699   3.662 -0.2909 -0.4154 -0.3892
  287MOL0     C39533   3.848   1.705   3.559 -1.0021  0.4156  0.4256
  287MOL0     C39534   4.279   2.165   4.106  0.1969 -0.0011 -0.2395
  287MOL0     C39535   4.400   2.195   4.165  0.2359 -0.7810  0.7872
  287MOL0     C39536   4.396   2.235   4.317 -0.1161 -0.1174  0.0844
  287MOL0     H39537   4.916   2.146   3.960  1.5669 -0.2552  0.3977
  287MOL0     H39538   5.148   2.168   4.045  0.1439  0.4817 -2.7655
  287MOL0     H39539   5.308   2.326   4.372 -1.7467 -1.5677 -0.7606
  287MOL0     H39540   5.169   2.425   4.361  1.5817 -0.6719  1.2283
  287MOL0     H39541   5.445   2.516   4.279  0.7379 -0.7003  0.1666
  287MOL0     H39542   5.294   2.607   4.254 -1.0960 -2.7920 -0.9161
  287MOL0     H39543   5.249   2.620   4.488 -0.5747 -0.6621 -0.5862
  287MOL0     H39544   5.368   2.505   4.533  0.1304 -0.9103  0.7123
  287MOL0     H39545   5.545   2.640   4.435 -0.4765  0.1878  0.5608
  287MOL0     H39546   5.419   2.770   4.412 -0.5576 -0.8258 -1.7211
  287MOL0     H39547   5.562   2.805   4.603 -1.1824  1.1273 -2.4234
  287MOL0     H39548   5.516   2.652   4.673  3.8880  2.2082  1.2881
  287MOL0     H39549   5.300   2.841   4.602 -0.5606 -2.2902 -0.4370
  287MOL0     H39550   5.292   2.697   4.708  0.8540 -3.2435 -2.3697
  287MOL0     H39551   5.274   2.898   4.823 -0.0292 -0.7856 -0.1058
  287MOL0     H39552   5.426   2.973   4.772 -1.4484  0.9606  0.4814
  287MOL0     H39553   5.556   2.823   4.925 -0.7161  1.6015  3.9467
  287MOL0     H39554   5.419   2.902   5.001 -4.0044 -1.8464 -0.4451
  287MOL0     H39555   5.575   2.576   4.905  0.0349  2.3479  1.7245
  287MOL0     H39556   5.378   2.271   5.066 -0.2571  1.6634  3.5749
  287MOL0     H39557   5.539   2.344   5.104  2.4581 -1.4280 -3.2879
  287MOL0     H39558   5.612   2.285   4.877 -0.4670  0.1482  0.2480
  287MOL0     H39559   5.530   2.145   4.935  1.8106  0.0812 -0.1281
  287MOL0     H39560   5.411   2.366   4.750  0.9749  1.4050  3.0136
  287MOL0     H39561   5.490   2.209   4.695 -2.1323 -2.9938  0.4229
  287MOL0     H39562   5.322   2.089   4.801  1.0772 -0.4982  0.6561
  287MOL0     H39563   5.234   2.242   4.853  0.0224  2.3354 -1.2788
  287MOL0     H39564   5.197   2.439   4.787 -0.5878  0.5242  0.5166
  287MOL0     H39565   4.994   2.709   4.725  0.6437  0.2018 -0.0006
  287MOL0     H39566   5.114   2.636   4.823  1.1622  1.0356 -1.4532
  287MOL0     H39567   4.935   2.589   4.847  0.9500 -1.2396  0.9001
  287MOL0     H39568   4.575   2.684   4.659 -1.0233 -0.6974  0.9649
  287MOL0     H39569   4.386   2.814   4.603 -3.6462  1.8633 -2.2901
  287MOL0     H39570   4.194   2.928   4.514  1.0689 -0.0170  0.4171
  287MOL0     H39571   4.352   2.976   4.433  0.0116  0.9813 -0.4863
  287MOL0     H39572   4.230   3.007   4.227  3.3269  1.0997  1.7876
  287MOL0     H39573   4.076   2.987   4.320  0.7733 -0.2921 -1.9037
  287MOL0     H39574   4.227   3.231   4.281 -1.2349  2.4563  2.3192
  287MOL0     H39575   4.237   3.193   4.440 -0.3366 -1.1573 -0.2256
  287MOL0     H39576   3.964   3.161   4.396 -2.7886  2.6479 -0.6355
  287MOL0     H39577   4.006   3.259   4.255  0.0880  3.0864  0.0115
  287MOL0     H39578   4.062   3.316   4.546  2.3539 -0.5592 -1.1478
  287MOL0     H39579   4.114   3.426   4.413 -2.3939  2.1419 -0.3012
  287MOL0     H39580   3.825   3.372   4.473  2.3838  0.3878  4.3649
  287MOL0     H39581   3.894   3.460   4.335 -0.9839 -0.0588 -0.2428
  287MOL0     H39582   4.001   3.595   4.544  0.9712 -3.0720 -1.0683
  287MOL0     H39583   3.896   3.493   4.639  1.9166 -0.9694  0.5551
  287MOL0     H39584   3.788   3.722   4.611 -0.4473  0.9531  0.6631
  287MOL0     H39585   3.691   3.601   4.540 -0.5069  1.2052 -2.7219
  287MOL0     H39586   4.369   2.613   4.216  0.7548 -2.6553 -0.1589
  287MOL0     H39587   4.564   2.479   4.283  0.1268 -1.8646  1.6554
  287MOL0     H39588   4.872   2.337   4.415  0.4056 -1.1235  0.3327
  287MOL0     H39589   5.061   2.185   4.465  2.4890  0.6689  1.7215
  287MOL0     H39590   5.063   2.563   4.189 -2.5232 -1.9225  5.3140
  287MOL0     H39591   4.817   2.524   4.092  1.0371  1.0403 -0.4635
  287MOL0     H39592   4.592   2.171   3.871 -0.4863  0.5182 -0.1399
  287MOL0     H39593   4.388   2.079   3.794  2.3050  0.8225  0.2063
  287MOL0     H39594   4.103   1.951   4.070 -0.1599  1.5080  1.1149
  287MOL0     H39595   3.995   2.088   4.018  1.7370  0.4944  0.9617
  287MOL0     H39596   3.944   1.969   3.799 -0.7083 -0.2694 -0.0216
  287MOL0     H39597   3.901   1.867   3.931 -1.1985  0.4497 -2.4881
  287MOL0     H39598   4.130   1.848   3.730  2.0354 -2.7794 -1.5434
  287MOL0     H39599   4.157   1.754   3.878 -0.6374  0.8387 -0.1048
  287MOL0     H39600   3.930   1.650   3.865  1.6402 -3.5619  0.0269
  287MOL0     H39601   4.065   1.594   3.766 -0.2410  0.6743 -2.0414
  287MOL0     H39602   3.796   1.703   3.466  2.2364 -1.3848 -1.5668
  287MOL0     H39603   4.192   2.171   4.170  1.6637  1.5836  1.7226
  287MOL0     H39604   4.413   2.151   4.385  4.8812  1.4305  1.1639
  287MOL0     H39605   4.479   2.304   4.335 -1.8445  1.2837  4.0591
  287MOL0     H39606   4.307   2.291   4.349  1.2227  3.9066 -2.4378
  288MOL0     O39607   9.529   3.996   6.952  0.4715 -0.6281  0.6761
  288MOL0     C39608   9.407   3.973   6.933  0.1437  0.3012 -0.8011
  288MOL0     O39609   9.347   3.939   6.811 -0.3269  0.1293 -0.1514
  288MOL0     C39610   9.443   3.921   6.716 -0.7545 -0.1187  0.8154
  288MOL0     C39611   9.461   3.793   6.658 -0.5405  0.2323 -0.1104
  288MOL0     C39612   9.539   3.778   6.545  0.2134  0.5154 -0.1745
  288MOL0     C39613   9.584   3.883   6.474 -1.2311  0.0518 -0.1071
  288MOL0     O39614   9.658   3.859   6.359  0.5688 -0.4193  0.2838
  288MOL0     C39615   9.585   3.842   6.240 -0.4433  0.9581  0.2502
  288MOL0     C39616   9.574   3.696   6.180  0.6020  0.3200  0.3221
  288MOL0     C39617   9.710   3.635   6.175  0.9581  0.8516 -0.1894
  288MOL0     C39618   9.806   3.702   6.072  0.0471 -0.1713  0.2435
  288MOL0     C39619   9.795   3.643   5.921  0.0769 -1.7383  0.0574
  288MOL0     C39620   9.793   3.496   5.934  0.1953  0.2654  0.8030
  288MOL0     C39621   9.820   3.413   5.804 -0.2352 -0.1405  0.3695
  288MOL0     C39622   9.793   3.264   5.834  0.1222 -0.3270  0.9160
  288MOL0     N39623   9.802   3.173   5.717 -1.1159 -0.3363 -0.0936
  288MOL0     C39624   9.912   3.168   5.638  0.3898  0.8882  0.7976
  288MOL0     C39625   9.904   3.046   5.585  0.0614  0.6668  0.1169
  288MOL0     C39626   9.989   2.978   5.474 -0.2814 -0.6618 -0.2591
  288MOL0     C39627  10.132   2.941   5.526  1.0343 -0.2321  0.1534
  288MOL0     C39628  10.231   2.909   5.408 -0.0413  0.1044 -0.8361
  288MOL0     C39629  10.361   2.850   5.455 -0.0822  0.0462 -0.1647
  288MOL0     O39630  10.345   2.728   5.534  0.6962  0.2071 -0.0382
  288MOL0     C39631  10.454   2.649   5.550 -0.6348  0.6699 -0.0256
  288MOL0     C39632  10.422   2.517   5.605  0.6577  0.2132 -1.1397
  288MOL0     C39633  10.517   2.425   5.636  0.6158  0.9486  0.0546
  288MOL0     C39634  10.486   2.293   5.698  1.0086 -0.0078  0.6980
  288MOL0     C39635  10.651   2.448   5.599 -0.5003  0.6365  0.2186
  288MOL0     C39636  10.752   2.342   5.618 -0.7330 -0.1422  0.9464
  288MOL0     O39637  10.827   2.324   5.508  0.1076  0.0143 -0.1208
  288MOL0     C39638  10.909   2.208   5.500  0.9415 -0.0459  1.2610
  288MOL0     C39639  10.868   2.080   5.530  0.5405 -0.8307 -0.6400
  288MOL0     C39640  10.946   1.979   5.502 -0.1704  0.3040  0.0369
  288MOL0     C39641  11.073   1.988   5.436  1.1046  0.1245 -0.1347
  288MOL0     O39642  11.137   1.876   5.407 -0.5257 -1.2768  0.0703
  288MOL0     C39643  11.282   1.882   5.406 -0.4684 -0.4278  0.0517
  288MOL0     C39644  11.319   1.740   5.364  0.3213  0.0433 -0.3936
  288MOL0     C39645  11.328   1.724   5.214 -0.7089 -0.0959 -0.2077
  288MOL0     C39646  11.373   1.579   5.177  0.4960  0.4257 -0.7618
  288MOL0     C39647  11.373   1.557   5.023  0.0735  0.5605  0.1448
  288MOL0     C39648  11.411   1.419   4.978 -0.2600 -0.1023 -0.4381
  288MOL0     C39649  11.392   1.411   4.830 -1.3278 -0.8678  1.0688
  288MOL0     C39650  11.465   1.292   4.765  0.4718 -0.0227  0.6531
  288MOL0    Cl39651  11.451   1.139   4.861 -0.1007 -0.2052  0.3156
  288MOL0     C39652  11.113   2.114   5.400  0.1503 -0.6429 -0.0047
  288MOL0     C39653  11.036   2.228   5.429  0.8867  0.3924  0.1166
  288MOL0     O39654  10.776   2.299   5.724  0.1164 -0.3967 -0.1822
  288MOL0     C39655  10.683   2.572   5.544 -0.5030  0.8843  1.2537
  288MOL0     C39656  10.590   2.672   5.528 -0.2326  0.0091 -0.1869
  288MOL0     N39657   9.794   2.977   5.629 -0.4754  0.4619 -0.5647
  288MOL0     N39658   9.735   3.055   5.710 -0.1525  0.6209  0.5626
  288MOL0     C39659   9.567   4.010   6.519 -0.1839 -0.3783  0.1356
  288MOL0     C39660   9.497   4.033   6.638 -0.0073  0.2058  0.9713
  288MOL0     C39661   9.306   4.005   7.040 -0.9752  0.4132  0.5118
  288MOL0     C39662   9.312   4.128   7.107 -1.3824 -0.2560 -1.0030
  288MOL0     C39663   9.213   4.170   7.187  1.0062  0.0308 -0.4601
  288MOL0     C39664   9.105   4.081   7.210  0.2111 -0.8087  0.2679
  288MOL0     O39665   9.009   4.116   7.303  0.1888 -0.7759  0.8742
  288MOL0     C39666   9.035   4.207   7.405 -0.0436  0.2979  0.2159
  288MOL0     C39667   8.944   4.161   7.521 -0.2772  0.0917 -0.7006
  288MOL0     C39668   8.999   4.036   7.598 -0.7267  0.1819 -0.2246
  288MOL0     C39669   8.885   4.000   7.696 -0.2719 -0.4358  0.5875
  288MOL0     C39670   8.771   3.930   7.637  0.5230 -0.4126  0.1385
  288MOL0     C39671   8.674   3.872   7.585  0.4896  0.1897 -1.0005
  288MOL0     C39672   9.107   3.950   7.167  0.1884  0.0463  0.3453
  288MOL0     C39673   9.206   3.909   7.080  0.4752  0.4206 -0.7685
  288MOL0     C39674   9.200   3.768   7.028  0.6664 -0.5363 -0.2307
  288MOL0     H39675   9.415   3.708   6.707  1.6073 -2.1034 -1.8375
  288MOL0     H39676   9.563   3.677   6.513 -0.8914 -1.3276  4.1337
  288MOL0     H39677   9.634   3.904   6.165 -0.3474 -0.9550 -1.3382
  288MOL0     H39678   9.481   3.875   6.243 -0.0138  2.3695  0.2963
  288MOL0     H39679   9.517   3.630   6.245  1.3543 -0.5110  0.1702
  288MOL0     H39680   9.519   3.699   6.086 -0.7132 -1.0009  1.0181
  288MOL0     H39681   9.752   3.652   6.275  2.0971  1.0548 -0.6900
  288MOL0     H39682   9.715   3.526   6.160  4.1500  1.1320 -2.2794
  288MOL0     H39683   9.771   3.806   6.067  1.0614  0.1273 -1.1714
  288MOL0     H39684   9.910   3.693   6.103 -0.4979 -1.5642  1.7764
  288MOL0     H39685   9.867   3.682   5.849 -0.2211  0.5938  0.9167
  288MOL0     H39686   9.698   3.681   5.887 -0.2416 -1.3736  1.2956
  288MOL0     H39687   9.857   3.481   6.021 -1.1278  5.5608  3.1013
  288MOL0     H39688   9.692   3.461   5.958 -0.5970  1.2966 -0.8163
  288MOL0     H39689   9.925   3.417   5.775 -0.2168  0.8627  0.5513
  288MOL0     H39690   9.755   3.451   5.725 -1.0202 -0.7786  0.6836
  288MOL0     H39691   9.873   3.241   5.905  0.7041  2.2216  1.1860
  288MOL0     H39692   9.692   3.250   5.875 -0.5504  3.4267  0.9622
  288MOL0     H39693   9.992   3.241   5.628  1.7007 -0.8406 -3.4148
  288MOL0     H39694  10.001   3.053   5.395  2.3277 -1.8058 -1.0815
  288MOL0     H39695   9.948   2.892   5.420 -1.4083 -0.2705 -0.0621
  288MOL0     H39696  10.173   3.020   5.590  1.6566 -2.2770  2.4219
  288MOL0     H39697  10.117   2.849   5.584  1.9953  0.5563  1.7228
  288MOL0     H39698  10.180   2.846   5.335 -0.2931  0.9534 -1.3959
  288MOL0     H39699  10.262   2.999   5.355  0.9031 -0.7038 -1.7035
  288MOL0     H39700  10.423   2.831   5.367  0.4909 -2.1581  0.6361
  288MOL0     H39701  10.413   2.912   5.528 -0.7118  1.9333 -1.2607
  288MOL0     H39702  10.319   2.488   5.622  0.8315  1.5378  3.6086
  288MOL0     H39703  10.520   2.285   5.802  0.7091 -1.9063  0.6876
  288MOL0     H39704  10.520   2.202   5.648 -3.3025 -1.0255 -0.7964
  288MOL0     H39705  10.377   2.278   5.697  1.0688 -0.4899 -0.1179
  288MOL0     H39706  10.772   2.059   5.577  0.5468 -2.2746 -1.2070
  288MOL0     H39707  10.915   1.878   5.524  3.5689 -0.5312  2.4015
  288MOL0     H39708  11.328   1.954   5.338  1.5307  0.0856  1.8319
  288MOL0     H39709  11.324   1.888   5.507  0.4464 -0.9654 -0.2833
  288MOL0     H39710  11.417   1.712   5.404  1.3497 -0.4370 -3.0458
  288MOL0     H39711  11.245   1.661   5.384  0.7882 -1.0116 -2.5119
  288MOL0     H39712  11.404   1.794   5.178  0.2243 -0.3508  1.1955
  288MOL0     H39713  11.232   1.744   5.166  1.1363  4.1700 -2.7245
  288MOL0     H39714  11.305   1.499   5.209  0.9369 -1.8639 -4.7520
  288MOL0     H39715  11.471   1.565   5.224 -0.1592  2.4963  1.3814
  288MOL0     H39716  11.270   1.570   4.986 -0.3163 -2.3896 -0.1022
  288MOL0     H39717  11.441   1.629   4.978  3.1318 -2.1116  0.1239
  288MOL0     H39718  11.351   1.339   5.022 -0.2021 -1.5365 -2.7997
  288MOL0     H39719  11.519   1.408   4.992  0.8148  5.7793 -1.5033
  288MOL0     H39720  11.424   1.506   4.786  3.1123 -3.0092 -0.8796
  288MOL0     H39721  11.288   1.401   4.797 -0.7285 -1.9190 -0.6693
  288MOL0     H39722  11.571   1.316   4.757  0.5117 -0.4839 -0.3826
  288MOL0     H39723  11.435   1.283   4.660  2.9736  4.4332 -0.7446
  288MOL0     H39724  11.210   2.122   5.351 -0.2587  2.0495 -0.5793
  288MOL0     H39725  11.077   2.323   5.394  0.6546  0.3090 -0.3890
  288MOL0     H39726  10.788   2.599   5.534 -0.3913  0.6102  1.6658
  288MOL0     H39727  10.617   2.770   5.490  1.7508  1.2393  3.8801
  288MOL0     H39728   9.615   4.098   6.478 -1.7570  1.0997  1.3491
  288MOL0     H39729   9.474   4.131   6.677  1.3169  0.5074  1.0520
  288MOL0     H39730   9.396   4.196   7.098 -0.4855 -0.9100  1.5913
  288MOL0     H39731   9.216   4.270   7.229  2.0122 -0.4629  0.6985
  288MOL0     H39732   9.140   4.196   7.434  0.7510 -3.6841 -3.1550
  288MOL0     H39733   9.015   4.310   7.373  1.6539  0.2373 -1.1884
  288MOL0     H39734   8.846   4.139   7.477 -1.4827 -0.6859  2.1622
  288MOL0     H39735   8.924   4.240   7.594 -1.8180  0.9192 -1.9508
  288MOL0     H39736   9.004   3.953   7.527 -0.6133 -1.2287  1.3729
  288MOL0     H39737   9.090   4.052   7.658 -0.6126 -0.5664 -0.1877
  288MOL0     H39738   8.863   4.097   7.740  0.9779  0.8841 -1.5288
  288MOL0     H39739   8.932   3.942   7.776  1.4904 -1.1944 -0.9059
  288MOL0     H39740   8.589   3.821   7.545 -0.8239  0.4365  1.3133
  288MOL0     H39741   9.040   3.881   7.216  0.6639  2.3797  4.7445
  288MOL0     H39742   9.263   3.757   6.939  0.4574  2.0099 -0.7620
  288MOL0     H39743   9.238   3.698   7.103 -2.0057 -0.0063  1.7874
  288MOL0     H39744   9.099   3.766   6.985  1.0306  2.8169 -1.5721
  289MOL0     O39745  11.079  10.403   3.832 -0.3819  0.0001  0.0407
  289MOL0     C39746  11.015  10.313   3.779 -0.7800 -0.3585 -0.6665
  289MOL0     O39747  11.020  10.187   3.823  0.9946  0.0440 -0.1521
  289MOL0     C39748  11.104  10.134   3.917  0.0546  0.1432  0.4996
  289MOL0     C39749  11.058  10.051   4.015  0.3812  0.7990 -0.4788
  289MOL0     C39750  11.145  10.003   4.109 -0.5529  0.3550 -0.6037
  289MOL0     C39751  11.276  10.051   4.122  0.0665 -0.6031 -0.7966
  289MOL0     O39752  11.347  10.008   4.230  0.1509 -0.4849 -0.3548
  289MOL0     C39753  11.489  10.025   4.235 -0.3135 -0.1897  0.2135
  289MOL0     C39754  11.534   9.986   4.368  0.5274 -0.4851 -0.0748
  289MOL0     C39755  11.487  10.092   4.471  0.2154 -0.3860 -0.4924
  289MOL0     C39756  11.505  10.052   4.622 -0.4777  0.0265 -0.8238
  289MOL0     C39757  11.431   9.927   4.668 -0.1894  0.0513  0.0778
  289MOL0     C39758  11.280   9.912   4.633 -0.8810  0.9417 -0.0727
  289MOL0     C39759  11.219   9.811   4.731  1.2023  0.5447 -0.3777
  289MOL0     C39760  11.076   9.774   4.693 -0.3894  0.1876 -0.4205
  289MOL0     N39761  10.991   9.887   4.654 -0.2333  0.0862  1.0097
  289MOL0     C39762  10.908   9.966   4.730  0.7207 -0.0191 -0.4722
  289MOL0     C39763  10.847  10.041   4.636  0.2671  0.3057  0.0421
  289MOL0     C39764  10.740  10.140   4.663 -0.5006 -0.1656 -0.0456
  289MOL0     C39765  10.657  10.177   4.552  0.3275  0.1203  0.4850
  289MOL0     C39766  10.553  10.068   4.506  0.3588  0.8956  0.0984
  289MOL0     C39767  10.451  10.127   4.401 -0.8670 -0.1484  0.0946
  289MOL0     O39768  10.360  10.021   4.367  0.0946 -0.8623  0.3800
  289MOL0     C39769  10.274  10.035   4.261  0.3516 -0.0331 -0.4477
  289MOL0     C39770  10.220   9.918   4.201 -0.6503 -0.2020 -1.2344
  289MOL0     C39771  10.145   9.922   4.085 -0.0932 -0.0332  0.5340
  289MOL0     C39772  10.100   9.785   4.034  0.0876 -0.7474 -0.0651
  289MOL0     C39773  10.107  10.041   4.023  0.8650  0.2559 -0.2632
  289MOL0     C39774  10.025  10.052   3.907 -0.7613  0.2488  0.2106
  289MOL0     O39775  10.062  10.146   3.819 -0.0672 -0.4325 -0.6919
  289MOL0     C39776   9.980  10.201   3.728  0.9298 -0.5037 -1.0787
  289MOL0     C39777  10.026  10.195   3.595 -0.1779 -0.7204 -0.6750
  289MOL0     C39778   9.942  10.245   3.493  0.4189 -0.2191  0.5703
  289MOL0     C39779   9.817  10.305   3.514  0.9151  0.3243  0.2871
  289MOL0     O39780   9.742  10.333   3.399 -0.9814 -0.6712 -0.0699
  289MOL0     C39781   9.598  10.353   3.422 -0.0111  0.7524 -0.4382
  289MOL0     C39782   9.535  10.359   3.281  0.3708  1.3462 -0.7959
  289MOL0     C39783   9.492  10.495   3.234  0.2513 -0.4250  0.1258
  289MOL0     C39784   9.594  10.564   3.138 -0.5136 -0.3177  0.2128
  289MOL0     C39785   9.728  10.609   3.189  0.1332 -0.1208  0.2099
  289MOL0     C39786   9.713  10.718   3.294  0.1908 -0.2806 -1.5584
  289MOL0     C39787   9.855  10.781   3.294 -0.3482  0.4187 -0.2133
  289MOL0     C39788   9.906  10.850   3.423  0.7549  0.2198  0.0054
  289MOL0    Cl39789   9.928  10.743   3.558 -0.0441 -0.2690  0.2230
  289MOL0     C39790   9.775  10.312   3.656 -0.2862 -0.3909  0.4781
  289MOL0     C39791   9.856  10.268   3.759  0.3652  0.3189  0.0266
  289MOL0     O39792   9.918   9.986   3.906 -0.6541 -0.0319  0.4459
  289MOL0     C39793  10.149  10.161   4.090 -0.5755  0.8089 -0.3133
  289MOL0     C39794  10.227  10.159   4.204 -1.1745  0.2197 -0.2648
  289MOL0     N39795  10.889   9.993   4.514 -0.7638  0.1694 -0.7065
  289MOL0     N39796  10.970   9.902   4.522  0.0841  0.7094  0.9052
  289MOL0     C39797  11.325  10.135   4.035 -0.8667 -0.3687  0.3192
  289MOL0     C39798  11.239  10.172   3.922  0.5435 -0.6893  0.0438
  289MOL0     C39799  10.938  10.358   3.659 -0.1469  1.1003  0.1927
  289MOL0     C39800  10.927  10.486   3.628  0.4413  0.4609  0.3026
  289MOL0     C39801  10.872  10.524   3.502 -1.0379  0.1022 -0.4870
  289MOL0     C39802  10.806  10.434   3.421 -0.8632  0.2966 -0.0982
  289MOL0     O39803  10.735  10.463   3.309  0.1504  0.8645  0.2703
  289MOL0     C39804  10.810  10.465   3.185 -1.1700 -0.3708 -0.6163
  289MOL0     C39805  10.714  10.485   3.073  0.6961  0.4831 -0.0555
  289MOL0     C39806  10.642  10.616   3.078  0.1708 -0.8842 -0.2276
  289MOL0     C39807  10.733  10.731   3.039  0.3726  0.2781 -0.3549
  289MOL0     C39808  10.641  10.851   3.041  0.1930 -0.5189  0.1951
  289MOL0     C39809  10.557  10.936   3.064  0.9841 -0.1097  0.3185
  289MOL0     C39810  10.814  10.299   3.461 -0.0307  0.0830  0.5615
  289MOL0     C39811  10.882  10.261   3.574 -1.3178 -0.7266  0.4800
  289MOL0     C39812  10.904  10.118   3.588 -0.5726  0.1516 -0.7375
  289MOL0     H39813  10.958  10.009   4.016  1.0651 -0.9295  1.8986
  289MOL0     H39814  11.111   9.929   4.180  0.6589  0.3899  0.0340
  289MOL0     H39815  11.525  10.126   4.211 -1.8947 -0.4199 -4.0798
  289MOL0     H39816  11.527   9.959   4.156 -2.9794  0.8279 -2.0968
  289MOL0     H39817  11.476   9.896   4.390 -1.8141  0.2937 -2.4071
  289MOL0     H39818  11.643   9.980   4.373  0.6946 -0.4682 -2.4753
  289MOL0     H39819  11.541  10.186   4.455 -0.7167  0.0245 -1.3084
  289MOL0     H39820  11.380  10.108   4.464  0.3294  2.1457  1.9444
  289MOL0     H39821  11.608  10.048   4.657 -0.2186  5.9626  0.1528
  289MOL0     H39822  11.459  10.134   4.678 -1.1025  0.6211 -2.1824
  289MOL0     H39823  11.449   9.904   4.773 -1.0090 -2.6061 -0.2735
  289MOL0     H39824  11.482   9.848   4.612 -0.6963 -0.7598  0.7368
  289MOL0     H39825  11.228  10.006   4.616 -2.1385  0.5854  1.5997
  289MOL0     H39826  11.285   9.853   4.541 -0.4130 -1.9113  1.6384
  289MOL0     H39827  11.208   9.857   4.829 -1.3100  0.6630 -0.6478
  289MOL0     H39828  11.277   9.719   4.743  0.2323  0.2260  2.7067
  289MOL0     H39829  11.084   9.714   4.602  0.2819  2.3154 -1.8560
  289MOL0     H39830  11.023   9.714   4.768  2.1612  0.4611  1.7377
  289MOL0     H39831  10.911   9.971   4.838  0.2376  3.1583 -0.4975
  289MOL0     H39832  10.787  10.234   4.695 -0.3884  0.1246 -1.0206
  289MOL0     H39833  10.684  10.090   4.743  1.7416 -1.1915  0.9622
  289MOL0     H39834  10.605  10.266   4.587  1.2737  1.1857 -0.7399
  289MOL0     H39835  10.719  10.199   4.465 -0.0904 -0.3494  0.0609
  289MOL0     H39836  10.602   9.982   4.458 -0.4476  0.1631  0.5500
  289MOL0     H39837  10.498  10.028   4.591 -0.1111  2.5928  0.6250
  289MOL0     H39838  10.394  10.203   4.454 -0.3186 -0.3512  1.0004
  289MOL0     H39839  10.497  10.175   4.314 -0.1045  2.3944  1.7718
  289MOL0     H39840  10.237   9.825   4.254 -4.4575 -1.4597 -1.9369
  289MOL0     H39841  10.187   9.719   4.026  1.2329  0.8175 -0.9208
  289MOL0     H39842  10.062   9.797   3.932 -0.1686 -1.4070 -0.0584
  289MOL0     H39843  10.030   9.728   4.096 -0.1839 -1.4649 -0.9872
  289MOL0     H39844  10.120  10.146   3.574 -0.1046  0.1646 -2.6775
  289MOL0     H39845   9.974  10.216   3.394  0.3439  1.5624 -0.0021
  289MOL0     H39846   9.552  10.276   3.485  2.1629  1.5006  2.2670
  289MOL0     H39847   9.584  10.447   3.476  1.3964 -0.5622  2.4325
  289MOL0     H39848   9.611  10.326   3.209  1.5468 -2.6475  1.9297
  289MOL0     H39849   9.448  10.296   3.260  1.7180 -1.0445  0.3492
  289MOL0     H39850   9.488  10.566   3.318  0.6878 -0.5216  0.2303
  289MOL0     H39851   9.397  10.492   3.181  1.7335 -1.6644 -2.6286
  289MOL0     H39852   9.538  10.638   3.080 -2.0038 -1.3446  0.2675
  289MOL0     H39853   9.622  10.505   3.050  0.7651  2.8310 -1.6220
  289MOL0     H39854   9.784  10.529   3.238  0.2522  0.5307  1.1678
  289MOL0     H39855   9.780  10.644   3.100  1.3022 -1.7480  0.2065
  289MOL0     H39856   9.682  10.665   3.384  0.8097 -0.5468 -1.4980
  289MOL0     H39857   9.638  10.790   3.259  0.4262 -1.0122 -3.7688
  289MOL0     H39858   9.861  10.861   3.219  0.9957  1.1749  0.6655
  289MOL0     H39859   9.926  10.708   3.254  0.6116  2.5721 -2.7691
  289MOL0     H39860   9.835  10.927   3.453 -0.1173 -0.9853  1.1006
  289MOL0     H39861  10.002  10.901   3.406  0.5936  1.1250  1.6063
  289MOL0     H39862   9.675  10.347   3.681  0.6944  1.0542  2.6841
  289MOL0     H39863   9.821  10.277   3.861 -0.7735 -2.4818 -0.0433
  289MOL0     H39864  10.120  10.262   4.063 -0.5348  1.7510  2.7910
  289MOL0     H39865  10.258  10.253   4.248 -0.7362  0.4101 -0.9596
  289MOL0     H39866  11.430  10.160   4.024 -1.0613  0.7563  0.8104
  289MOL0     H39867  11.282  10.220   3.834  1.6780 -1.1551  0.3207
  289MOL0     H39868  10.976  10.566   3.683  1.6600  0.4583 -0.7160
  289MOL0     H39869  10.882  10.625   3.465  0.8629 -0.3314 -1.2865
  289MOL0     H39870  10.887  10.542   3.184 -0.3510 -1.1819 -1.6575
  289MOL0     H39871  10.853  10.365   3.170 -0.7717 -0.2945 -0.0362
  289MOL0     H39872  10.637  10.407   3.074 -0.0973  1.1441 -2.3114
  289MOL0     H39873  10.770  10.468   2.980 -0.2288 -2.5126 -0.1773
  289MOL0     H39874  10.550  10.599   3.021  0.8734 -5.1512 -0.3785
  289MOL0     H39875  10.605  10.638   3.179  1.0362 -0.2996 -0.0156
  289MOL0     H39876  10.779  10.731   2.940 -0.2142  1.2115 -0.6457
  289MOL0     H39877  10.820  10.730   3.106  0.8557 -1.1910 -0.9756
  289MOL0     H39878  10.477  11.006   3.078 -0.3319 -1.8031  1.7832
  289MOL0     H39879  10.768  10.223   3.398 -0.5419  0.1611  0.8369
  289MOL0     H39880  10.897  10.057   3.498  1.6945  1.7824 -2.1161
  289MOL0     H39881  11.007  10.099   3.616 -0.0192  0.7885 -2.2242
  289MOL0     H39882  10.853  10.071   3.672 -0.4218  0.9457 -0.1883
  290MOL0     O39883   7.910   7.382   1.791  0.2567  0.2688  0.1994
  290MOL0     C39884   7.922   7.466   1.882  1.6720  0.3338  0.3228
  290MOL0     O39885   7.991   7.450   1.989  0.0337 -0.5127  0.1674
  290MOL0     C39886   8.043   7.328   2.024 -0.6908 -0.3734 -0.1925
  290MOL0     C39887   7.959   7.238   2.078  0.1426  0.2233 -0.3516
  290MOL0     C39888   8.008   7.123   2.125 -0.9219 -0.0012 -0.0235
  290MOL0     C39889   8.137   7.077   2.099  0.1503 -0.0092 -0.2857
  290MOL0     O39890   8.184   6.955   2.131 -0.0697 -0.0717  0.1527
  290MOL0     C39891   8.145   6.907   2.263  0.1005  0.4668 -0.1786
  290MOL0     C39892   8.257   6.808   2.321  0.4073 -0.1485  0.5538
  290MOL0     C39893   8.244   6.784   2.467 -0.5641  0.4338  0.4160
  290MOL0     C39894   8.308   6.891   2.554 -0.1663  0.3891  0.0556
  290MOL0     C39895   8.289   6.870   2.701  0.6520 -1.0852 -1.5408
  290MOL0     C39896   8.141   6.885   2.746 -0.2002 -0.2376 -0.6903
  290MOL0     C39897   8.122   6.877   2.895 -0.7652  0.9650 -0.3255
  290MOL0     C39898   8.011   6.798   2.955 -0.6110 -0.6970  0.7872
  290MOL0     N39899   8.008   6.656   2.917  0.0512  0.3743 -0.9755
  290MOL0     C39900   7.905   6.578   2.961  0.3161  0.5838 -0.9579
  290MOL0     C39901   7.909   6.461   2.888 -0.0910 -0.5527 -0.0358
  290MOL0     C39902   7.804   6.348   2.909  0.0651 -0.2837  0.0037
  290MOL0     C39903   7.852   6.235   3.001  0.0903 -0.2958 -0.4323
  290MOL0     C39904   8.003   6.202   2.970  0.4371 -0.0054  0.1294
  290MOL0     C39905   8.065   6.089   3.062  0.5608  0.1306  0.0831
  290MOL0     O39906   8.205   6.059   3.030 -0.1523 -0.5199 -0.2670
  290MOL0     C39907   8.289   5.963   3.091  1.0727  1.1501 -0.6659
  290MOL0     C39908   8.419   5.983   3.065 -0.5576  0.5923 -1.1466
  290MOL0     C39909   8.515   5.894   3.123  0.6324 -0.0145  0.6876
  290MOL0     C39910   8.651   5.919   3.053 -0.5744 -1.0994  0.3939
  290MOL0     C39911   8.479   5.775   3.197 -0.3012  0.1563  1.0385
  290MOL0     C39912   8.569   5.664   3.227 -0.7217  0.0917  0.0715
  290MOL0     O39913   8.531   5.533   3.245  0.5452 -0.8690  1.0382
  290MOL0     C39914   8.611   5.418   3.236  0.0762  0.3302 -0.4382
  290MOL0     C39915   8.539   5.296   3.263  0.8970 -0.5137 -0.5162
  290MOL0     C39916   8.593   5.176   3.235  0.4960  0.2987  0.0044
  290MOL0     C39917   8.730   5.174   3.198  0.6761 -0.2099  1.1738
  290MOL0     O39918   8.779   5.041   3.176 -0.4510 -0.6724 -0.0769
  290MOL0     C39919   8.920   5.034   3.189 -0.6055  0.3610 -0.0080
  290MOL0     C39920   8.939   4.887   3.196 -0.2935  0.2152 -0.3905
  290MOL0     C39921   9.082   4.854   3.218  1.1952 -0.3398  0.0792
  290MOL0     C39922   9.106   4.699   3.238  0.1569  0.2246 -0.2625
  290MOL0     C39923   9.246   4.654   3.201 -0.2383 -1.1645 -0.6433
  290MOL0     C39924   9.266   4.516   3.251 -0.7271  0.6263  0.5773
  290MOL0     C39925   9.292   4.497   3.407 -0.7577  0.4197 -0.9343
  290MOL0     C39926   9.184   4.420   3.488 -0.2914  0.4692  0.4832
  290MOL0    Cl39927   9.196   4.252   3.446  0.2325  0.4102  0.5416
  290MOL0     C39928   8.810   5.291   3.176 -0.0884 -0.4374  0.5675
  290MOL0     C39929   8.737   5.414   3.184  0.1117 -0.3958 -0.2870
  290MOL0     O39930   8.686   5.701   3.246  0.8171 -0.8339 -0.1509
  290MOL0     C39931   8.344   5.757   3.206  1.7940  0.4520 -0.1127
  290MOL0     C39932   8.245   5.850   3.168  0.3424 -0.9923 -0.6547
  290MOL0     N39933   8.019   6.472   2.805 -0.2693 -0.1469 -0.2145
  290MOL0     N39934   8.072   6.587   2.818 -0.0424 -1.0547  0.7882
  290MOL0     C39935   8.219   7.161   2.021  0.1088 -0.4096  1.0332
  290MOL0     C39936   8.177   7.292   1.988 -0.5822  0.1690 -0.1835
  290MOL0     C39937   7.860   7.597   1.866  0.3727  0.2736  0.2845
  290MOL0     C39938   7.937   7.721   1.877  0.3147  0.1860 -0.8606
  290MOL0     C39939   7.872   7.844   1.853 -0.7222  0.0294  0.3503
  290MOL0     C39940   7.735   7.856   1.816  0.6817 -0.8192 -0.3069
  290MOL0     O39941   7.677   7.975   1.811 -0.4906 -0.0741  0.3799
  290MOL0     C39942   7.540   7.995   1.772 -0.6450  0.2956  0.1210
  290MOL0     C39943   7.530   8.141   1.718  0.8575  0.7976 -0.2944
  290MOL0     C39944   7.585   8.236   1.821  0.2075 -0.4477  0.4139
  290MOL0     C39945   7.519   8.374   1.820  0.6020  0.2598 -0.1639
  290MOL0     C39946   7.388   8.369   1.891  0.7760  0.1179 -0.1153
  290MOL0     C39947   7.287   8.363   1.960  0.4380  1.1309 -0.2788
  290MOL0     C39948   7.658   7.744   1.816  0.2040  0.0880 -1.0648
  290MOL0     C39949   7.719   7.621   1.842 -0.5594 -0.2483  0.4880
  290MOL0     C39950   7.632   7.500   1.861  0.3654 -1.6537 -0.0129
  290MOL0     H39951   7.852   7.252   2.081 -0.2167 -2.0246 -0.6534
  290MOL0     H39952   7.944   7.040   2.153  0.1735 -1.2241 -1.0031
  290MOL0     H39953   8.061   6.838   2.252  2.8515 -3.1894 -0.0246
  290MOL0     H39954   8.123   6.989   2.331  0.6147  0.1062  0.4269
  290MOL0     H39955   8.239   6.711   2.273  1.2067  0.0270 -0.1022
  290MOL0     H39956   8.358   6.844   2.304  1.2670 -2.8046 -0.4859
  290MOL0     H39957   8.136   6.778   2.483 -0.6614 -1.9499 -0.6710
  290MOL0     H39958   8.287   6.687   2.493 -2.4603 -1.3173 -2.3563
  290MOL0     H39959   8.409   6.914   2.517  0.5766 -3.1624 -0.4481
  290MOL0     H39960   8.243   6.977   2.536 -1.8210 -0.1949  2.7588
  290MOL0     H39961   8.342   6.946   2.759  0.8142 -1.2878 -1.4188
  290MOL0     H39962   8.346   6.783   2.735  0.9306  0.2002  1.5197
  290MOL0     H39963   8.102   6.980   2.709 -1.7375  0.1398  1.6713
  290MOL0     H39964   8.070   6.814   2.703 -2.4074  0.7048  1.1834
  290MOL0     H39965   8.120   6.975   2.943 -0.2399 -0.5146  2.9490
  290MOL0     H39966   8.217   6.837   2.933  0.5277  1.7367 -2.5258
  290MOL0     H39967   8.035   6.809   3.061  1.5963  1.1577  0.1827
  290MOL0     H39968   7.914   6.841   2.927  0.0995  0.5716  0.1716
  290MOL0     H39969   7.833   6.606   3.037 -2.0277 -0.8544 -2.5047
  290MOL0     H39970   7.802   6.318   2.804  0.0860  3.1314 -1.1102
  290MOL0     H39971   7.704   6.379   2.941  0.6915  0.1270  1.6701
  290MOL0     H39972   7.840   6.268   3.105 -3.6003  1.7568 -1.3345
  290MOL0     H39973   7.792   6.144   2.988  0.3279 -0.2548 -2.0099
  290MOL0     H39974   8.017   6.183   2.863  1.9304 -1.8090  0.6024
  290MOL0     H39975   8.071   6.286   2.991 -0.4400  1.1496 -1.3715
  290MOL0     H39976   8.044   6.120   3.165  0.7426 -1.3574  0.5971
  290MOL0     H39977   7.999   6.004   3.044 -3.3311  2.6394  1.1033
  290MOL0     H39978   8.442   6.069   3.003 -0.0273  0.8188 -0.6456
  290MOL0     H39979   8.680   5.827   3.000 -0.6891 -0.7819 -0.2262
  290MOL0     H39980   8.738   5.945   3.115  0.4733 -1.3733 -0.9228
  290MOL0     H39981   8.645   5.993   2.973 -2.2898 -0.3272  1.1862
  290MOL0     H39982   8.435   5.283   3.292  1.9146 -5.0458  2.0623
  290MOL0     H39983   8.545   5.078   3.241  0.1867  0.5322  2.6664
  290MOL0     H39984   8.973   5.065   3.099  1.2144  1.5507  1.4022
  290MOL0     H39985   8.973   5.085   3.270  1.8802  2.1304 -2.5534
  290MOL0     H39986   8.864   4.845   3.263 -1.4738  2.1026 -0.4556
  290MOL0     H39987   8.923   4.844   3.097  0.3089  0.8301 -0.7638
  290MOL0     H39988   9.132   4.905   3.301  1.4002 -0.7281  0.1971
  290MOL0     H39989   9.136   4.876   3.126  0.6084  3.5247  0.5148
  290MOL0     H39990   9.037   4.639   3.178 -1.6827 -0.6563  2.4913
  290MOL0     H39991   9.088   4.681   3.345  4.1414 -0.8351  0.3949
  290MOL0     H39992   9.256   4.662   3.092  2.1929 -1.1726 -0.4599
  290MOL0     H39993   9.328   4.714   3.241 -1.5507  0.8354 -0.7705
  290MOL0     H39994   9.356   4.480   3.201  0.1334  1.5979  1.3900
  290MOL0     H39995   9.179   4.457   3.218  0.3016 -0.7733  0.2876
  290MOL0     H39996   9.308   4.597   3.448  0.7576  0.5691 -1.8086
  290MOL0     H39997   9.387   4.448   3.428 -0.3673  0.9589 -1.4218
  290MOL0     H39998   9.080   4.452   3.481 -1.3861 -2.8321 -0.4659
  290MOL0     H39999   9.205   4.425   3.595 -0.6694 -0.2317  0.5984
  290MOL0     H40000   8.915   5.297   3.149  0.0155  2.1595  1.2184
  290MOL0     H40001   8.782   5.503   3.142 -1.8066  0.6532 -0.2176
  290MOL0     H40002   8.306   5.662   3.244  0.1608  2.8113  5.0211
  290MOL0     H40003   8.140   5.849   3.197  0.2677  3.8387  0.0340
  290MOL0     H40004   8.324   7.132   2.016 -0.0852 -0.9923  0.1860
  290MOL0     H40005   8.241   7.362   1.935 -0.7430 -2.2696 -3.9072
  290MOL0     H40006   8.042   7.710   1.905  0.0044  0.6427  0.5841
  290MOL0     H40007   7.925   7.939   1.860 -1.3104  0.3547  0.4874
  290MOL0     H40008   7.504   7.924   1.697  0.9882  0.4113 -0.8156
  290MOL0     H40009   7.482   7.970   1.861 -2.4540  3.0848 -0.1182
  290MOL0     H40010   7.421   8.147   1.718  0.6771 -1.5109  0.2143
  290MOL0     H40011   7.572   8.160   1.619  3.0571 -1.6813  0.0345
  290MOL0     H40012   7.577   8.193   1.921 -1.8619 -3.5117 -0.8878
  290MOL0     H40013   7.690   8.249   1.794  0.0187  0.6466  0.1702
  290MOL0     H40014   7.497   8.405   1.718 -1.1055 -0.8768 -0.1817
  290MOL0     H40015   7.586   8.445   1.869  0.1498 -0.6734  1.9181
  290MOL0     H40016   7.195   8.348   2.013  2.7034  0.2368  3.8242
  290MOL0     H40017   7.550   7.740   1.807  0.0830  1.2323 -0.4276
  290MOL0     H40018   7.650   7.454   1.958  2.0940  0.0845  0.5350
  290MOL0     H40019   7.526   7.525   1.850  1.4385  5.0385  0.8456
  290MOL0     H40020   7.648   7.421   1.786  0.0188 -2.0483  0.3244
  291MOL0     O40021   3.868   8.851   3.141  0.3833 -0.3486 -0.3239
  291MOL0     C40022   3.799   8.859   3.041  0.3264 -0.1824 -0.7603
  291MOL0     O40023   3.765   8.753   2.966  0.0724 -0.3032 -0.4815
  291MOL0     C40024   3.796   8.622   2.988  0.0645 -0.6144 -0.2466
  291MOL0     C40025   3.838   8.566   3.108  0.2732 -0.0626  0.1650
  291MOL0     C40026   3.861   8.433   3.115 -0.1767 -0.4967 -0.3616
  291MOL0     C40027   3.842   8.350   3.005 -0.1252 -0.3867 -0.1403
  291MOL0     O40028   3.892   8.225   3.018 -0.5898  0.3298  0.4062
  291MOL0     C40029   4.037   8.209   3.014 -0.4758  1.0451 -0.3125
  291MOL0     C40030   4.108   8.209   3.157  0.8266  0.1379  0.7895
  291MOL0     C40031   4.064   8.085   3.254  0.1663 -0.2329  0.9879
  291MOL0     C40032   4.158   7.969   3.240 -0.4571  0.3101  0.0491
  291MOL0     C40033   4.282   7.980   3.335 -0.2174 -0.1559  0.7092
  291MOL0     C40034   4.395   7.875   3.293  0.4287 -0.1586  0.3614
  291MOL0     C40035   4.504   7.878   3.393 -0.4689 -0.8334 -0.0270
  291MOL0     C40036   4.629   7.791   3.354  0.3425  0.1081 -0.0326
  291MOL0     N40037   4.616   7.654   3.391  0.8545 -0.0138  0.4345
  291MOL0     C40038   4.644   7.593   3.511  0.2592 -0.5482 -1.4354
  291MOL0     C40039   4.658   7.460   3.478  0.1990  0.7192 -0.9652
  291MOL0     C40040   4.693   7.365   3.593  0.1792 -0.8947  0.7253
  291MOL0     C40041   4.757   7.238   3.529 -0.0897  0.0064  0.2969
  291MOL0     C40042   4.891   7.250   3.453  0.2186 -0.1274 -0.0718
  291MOL0     C40043   4.891   7.147   3.340  0.2099  0.8382  0.0925
  291MOL0     O40044   5.014   7.152   3.268  0.5315  0.4009 -0.6029
  291MOL0     C40045   5.010   7.218   3.148  0.6926  0.8152 -0.3265
  291MOL0     C40046   4.930   7.335   3.122  0.3466  0.2163  0.0587
  291MOL0     C40047   4.941   7.410   2.996  0.2614 -0.0617  0.5368
  291MOL0     C40048   4.837   7.515   2.972  0.0511 -0.3356 -0.4720
  291MOL0     C40049   5.061   7.387   2.920 -0.2336  0.3473 -0.1337
  291MOL0     C40050   5.095   7.475   2.804 -0.0420 -0.0006  0.2792
  291MOL0     O40051   5.226   7.486   2.766 -0.0448  0.2716 -0.1049
  291MOL0     C40052   5.262   7.567   2.656 -1.0937 -0.1233  0.2630
  291MOL0     C40053   5.309   7.510   2.539  0.3957  0.0279  1.0777
  291MOL0     C40054   5.353   7.581   2.431 -0.0765 -0.8494 -0.8920
  291MOL0     C40055   5.341   7.725   2.430  0.3512  0.3605  0.9892
  291MOL0     O40056   5.374   7.794   2.322 -0.5027 -0.8186  0.3113
  291MOL0     C40057   5.364   7.939   2.324 -0.0575 -0.3782 -0.7026
  291MOL0     C40058   5.503   7.998   2.363 -0.1819  0.7989  0.3610
  291MOL0     C40059   5.522   8.140   2.312 -0.3682 -0.2651  0.7889
  291MOL0     C40060   5.424   8.239   2.340 -0.0539 -0.0501  0.5742
  291MOL0     C40061   5.456   8.377   2.283  1.0796  0.4142 -0.7109
  291MOL0     C40062   5.566   8.459   2.356  0.2407 -0.8823  0.4610
  291MOL0     C40063   5.570   8.446   2.510  0.2210 -0.1375  0.3725
  291MOL0     C40064   5.667   8.561   2.551 -0.2345  0.7545 -0.0180
  291MOL0    Cl40065   5.613   8.720   2.530  0.2042 -0.0659 -0.1124
  291MOL0     C40066   5.289   7.786   2.550  1.0259 -1.2696 -0.6250
  291MOL0     C40067   5.256   7.710   2.664 -0.7926 -0.7382 -0.0922
  291MOL0     O40068   5.006   7.539   2.748  0.6504  0.0001  0.1850
  291MOL0     C40069   5.142   7.274   2.950 -0.3083  0.7262 -0.9106
  291MOL0     C40070   5.119   7.193   3.060 -0.4013  0.4615  0.4549
  291MOL0     N40071   4.609   7.437   3.346 -0.8906 -0.3380 -0.0425
  291MOL0     N40072   4.577   7.549   3.304  0.1496  0.2148 -0.4937
  291MOL0     C40073   3.795   8.396   2.880  0.1904 -0.6422  0.1260
  291MOL0     C40074   3.772   8.543   2.877 -0.2485  0.0116  0.3468
  291MOL0     C40075   3.769   9.001   3.001  0.9849  0.0185 -1.0145
  291MOL0     C40076   3.828   9.116   3.055  0.4973 -0.3084 -1.3183
  291MOL0     C40077   3.809   9.240   2.993  0.0907  0.3284  0.1801
  291MOL0     C40078   3.708   9.263   2.907  0.3271 -0.7365 -1.0798
  291MOL0     O40079   3.697   9.389   2.857  0.3488 -0.9392  0.0549
  291MOL0     C40080   3.597   9.466   2.929  0.2471 -1.0062  1.2152
  291MOL0     C40081   3.593   9.605   2.874 -0.2972 -0.6167 -0.6575
  291MOL0     C40082   3.509   9.622   2.741 -0.1683 -1.2176  0.4680
  291MOL0     C40083   3.532   9.751   2.670  0.9536  0.5805  0.4916
  291MOL0     C40084   3.666   9.773   2.605 -0.1325 -0.6644  0.1065
  291MOL0     C40085   3.773   9.796   2.542  0.1509  0.1556 -0.2621
  291MOL0     C40086   3.631   9.157   2.865  0.2705  0.9246  0.3374
  291MOL0     C40087   3.663   9.023   2.907 -0.5924 -0.1930 -0.1274
  291MOL0     C40088   3.574   8.917   2.844 -0.4082  0.0345  0.7819
  291MOL0     H40089   3.832   8.627   3.198  0.1503  0.9640 -0.5198
  291MOL0     H40090   3.904   8.393   3.206  2.7335 -0.2924 -1.5136
  291MOL0     H40091   4.078   8.285   2.948  1.0947 -0.4705 -1.1698
  291MOL0     H40092   4.044   8.113   2.962  0.7551  0.7407  0.3790
  291MOL0     H40093   4.216   8.205   3.136  0.1252 -0.9201 -3.7027
  291MOL0     H40094   4.088   8.302   3.210  3.2162  0.6263  0.9789
  291MOL0     H40095   4.041   8.110   3.358 -2.4894 -0.0343  0.4318
  291MOL0     H40096   3.974   8.051   3.202  0.5460  0.0907  0.0944
  291MOL0     H40097   4.105   7.878   3.269 -2.7265  1.9291  1.2536
  291MOL0     H40098   4.208   7.964   3.142 -0.9894  3.3593 -0.4521
  291MOL0     H40099   4.254   7.968   3.440  1.5983  1.3442  1.4281
  291MOL0     H40100   4.321   8.081   3.317 -0.5896 -0.4549 -2.3801
  291MOL0     H40101   4.347   7.778   3.286 -0.6746  0.4820 -1.9096
  291MOL0     H40102   4.428   7.888   3.189  0.0468 -3.1131 -0.2083
  291MOL0     H40103   4.476   7.847   3.494  2.2097  3.1918  2.2664
  291MOL0     H40104   4.540   7.980   3.411  2.4956 -1.3496 -2.2881
  291MOL0     H40105   4.661   7.787   3.250  1.8698  1.3525  0.3463
  291MOL0     H40106   4.720   7.827   3.403  2.0227 -2.6201 -0.9430
  291MOL0     H40107   4.682   7.644   3.599 -0.0026 -0.4682 -1.3671
  291MOL0     H40108   4.601   7.338   3.645  0.5417 -2.0583  0.7940
  291MOL0     H40109   4.772   7.407   3.656 -0.6083  1.7795  0.0769
  291MOL0     H40110   4.759   7.156   3.601 -3.5101 -0.3218  0.1982
  291MOL0     H40111   4.676   7.212   3.461  0.1414 -1.4847  0.5574
  291MOL0     H40112   4.904   7.355   3.426 -3.5935  1.5005  3.3405
  291MOL0     H40113   4.972   7.220   3.521  0.8598  0.2010 -0.6797
  291MOL0     H40114   4.899   7.050   3.388 -0.7326  1.2111  1.0610
  291MOL0     H40115   4.802   7.149   3.277  0.1589  0.0616  0.1342
  291MOL0     H40116   4.849   7.360   3.191 -0.5045  0.2659 -0.9195
  291MOL0     H40117   4.878   7.616   2.969 -1.7186  0.4406 -3.6755
  291MOL0     H40118   4.766   7.500   3.054  2.7925 -1.8541  1.7592
  291MOL0     H40119   4.790   7.489   2.876  0.1141  1.2107 -0.9421
  291MOL0     H40120   5.322   7.403   2.543  2.6763 -0.0060 -2.6024
  291MOL0     H40121   5.379   7.534   2.337  0.0209  0.8139 -1.7457
  291MOL0     H40122   5.323   7.970   2.227 -0.3152  2.3000  0.1891
  291MOL0     H40123   5.286   7.984   2.385 -0.1052 -1.4270  0.0231
  291MOL0     H40124   5.536   7.982   2.466 -0.2953  0.0267  0.2850
  291MOL0     H40125   5.580   7.942   2.308 -1.9966 -1.0393 -0.4285
  291MOL0     H40126   5.540   8.132   2.205 -0.5974 -0.1787  0.7441
  291MOL0     H40127   5.616   8.183   2.348  0.2728  1.8295 -2.8611
  291MOL0     H40128   5.410   8.239   2.449  1.8390  1.6883  0.8766
  291MOL0     H40129   5.332   8.200   2.296 -0.1162  0.2903  0.4023
  291MOL0     H40130   5.487   8.361   2.179 -1.4488 -3.2804 -1.1092
  291MOL0     H40131   5.362   8.431   2.273  1.0913  0.1197 -3.0992
  291MOL0     H40132   5.556   8.560   2.315  0.5274 -1.8888 -2.3313
  291MOL0     H40133   5.659   8.414   2.318  0.4809 -0.0689  0.0577
  291MOL0     H40134   5.621   8.355   2.542 -0.5197 -2.1572 -3.5106
  291MOL0     H40135   5.469   8.456   2.550 -0.5272  1.2689 -1.6977
  291MOL0     H40136   5.761   8.534   2.503 -0.6034 -0.8785  0.1117
  291MOL0     H40137   5.697   8.554   2.656  1.0546 -2.9658 -0.4833
  291MOL0     H40138   5.263   7.891   2.548  1.6686 -0.9796  2.2258
  291MOL0     H40139   5.221   7.755   2.756  0.4844 -1.5890  0.8546
  291MOL0     H40140   5.229   7.253   2.888 -0.4593  0.7262 -1.1234
  291MOL0     H40141   5.190   7.112   3.077  0.0522  1.0117  1.2578
  291MOL0     H40142   3.782   8.324   2.799 -2.0984  0.0280 -0.1668
  291MOL0     H40143   3.732   8.596   2.790 -0.0540  0.6374  0.6334
  291MOL0     H40144   3.904   9.116   3.133 -0.1319 -0.9469 -0.6881
  291MOL0     H40145   3.854   9.334   3.022 -0.2985  1.5543 -2.8724
  291MOL0     H40146   3.500   9.416   2.917  0.6262 -1.1598 -2.0587
  291MOL0     H40147   3.623   9.473   3.035  0.4226  0.0386  1.1194
  291MOL0     H40148   3.697   9.627   2.851  0.1642  1.0507  2.4635
  291MOL0     H40149   3.564   9.671   2.956  2.2646  0.3018 -0.4046
  291MOL0     H40150   3.534   9.538   2.676 -0.3940  0.2177 -1.5656
  291MOL0     H40151   3.402   9.620   2.766 -1.1205 -0.1883 -2.9721
  291MOL0     H40152   3.522   9.842   2.729 -0.9442  0.9118 -0.2465
  291MOL0     H40153   3.458   9.759   2.589  0.2549  0.6774  1.1303
  291MOL0     H40154   3.862   9.810   2.484 -1.0027  1.8248 -1.7512
  291MOL0     H40155   3.561   9.191   2.790  0.7864 -1.2800 -1.2691
  291MOL0     H40156   3.499   8.868   2.905 -0.5113  0.7800  1.2655
  291MOL0     H40157   3.522   8.960   2.758  0.9179  1.5010  0.6534
  291MOL0     H40158   3.643   8.845   2.798  0.0152  1.1988 -0.5080
  292MOL0     O40159   9.005   5.221   2.753 -0.3355 -0.0285 -0.3764
  292MOL0     C40160   9.013   5.143   2.666  1.1679  1.0911  0.8854
  292MOL0     O40161   9.096   5.156   2.553 -0.8949 -0.7290 -0.2486
  292MOL0     C40162   9.165   5.273   2.529  0.2188  0.0300  0.4621
  292MOL0     C40163   9.287   5.294   2.595  0.3816 -0.2492  0.7861
  292MOL0     C40164   9.359   5.408   2.577  0.2113 -0.2752  0.5062
  292MOL0     C40165   9.320   5.506   2.485 -0.6144  0.5566 -0.4975
  292MOL0     O40166   9.416   5.607   2.468 -0.9337 -0.4808  0.3551
  292MOL0     C40167   9.451   5.632   2.335 -0.2093  0.3786 -0.4032
  292MOL0     C40168   9.552   5.750   2.323 -0.4879 -0.3344  1.6501
  292MOL0     C40169   9.603   5.769   2.181 -0.0890  0.0633 -0.8346
  292MOL0     C40170   9.681   5.898   2.179  0.5445 -0.1426 -0.7435
  292MOL0     C40171   9.761   5.900   2.049 -0.3035 -0.2188 -1.0205
  292MOL0     C40172   9.834   6.028   2.039  0.2070 -0.5815  1.4988
  292MOL0     C40173   9.921   6.091   2.147 -0.3109 -0.7709 -0.7460
  292MOL0     C40174   9.966   6.231   2.099  0.7378  0.1457  0.1542
  292MOL0     N40175  10.034   6.215   1.969 -0.9243 -0.4609  0.3389
  292MOL0     C40176   9.990   6.264   1.846 -0.3185  0.6257 -0.5138
  292MOL0     C40177  10.081   6.236   1.761  0.7630  0.0231  0.2632
  292MOL0     C40178  10.081   6.256   1.617  0.6668 -0.0502  0.6116
  292MOL0     C40179  10.080   6.411   1.579 -0.7474 -0.6813  0.1803
  292MOL0     C40180  10.072   6.432   1.421  0.2187 -0.3374 -0.9850
  292MOL0     C40181  10.134   6.579   1.381 -0.1740 -0.6192 -0.0421
  292MOL0     O40182  10.146   6.591   1.235 -0.2437 -0.1208  0.4076
  292MOL0     C40183  10.272   6.613   1.179  0.4421  1.0476  0.4071
  292MOL0     C40184  10.392   6.667   1.230 -0.4350  0.1020 -0.1906
  292MOL0     C40185  10.509   6.687   1.151  0.2689  2.0935 -0.2970
  292MOL0     C40186  10.634   6.745   1.215 -0.5892  0.6791  0.2074
  292MOL0     C40187  10.520   6.640   1.015  0.6755 -1.0103  0.0943
  292MOL0     C40188  10.643   6.650   0.925 -0.4852  1.3734 -0.5654
  292MOL0     O40189  10.635   6.571   0.815 -0.6324 -0.2996 -0.0712
  292MOL0     C40190  10.732   6.573   0.718 -0.3692  0.2612 -0.1070
  292MOL0     C40191  10.864   6.562   0.752  0.0156 -1.4207 -0.0618
  292MOL0     C40192  10.965   6.569   0.650  0.1420  0.3572 -0.9255
  292MOL0     C40193  10.932   6.550   0.521 -0.0553 -0.0468 -0.0192
  292MOL0     O40194  11.035   6.536   0.428 -0.6956 -0.4536  0.1353
  292MOL0     C40195  11.003   6.467   0.308 -0.3274  0.5507 -0.1916
  292MOL0     C40196  11.125   6.381   0.263 -0.3968 -0.5339  0.0347
  292MOL0     C40197  11.095   6.311   0.133 -0.2125  0.1085 -0.3251
  292MOL0     C40198  11.219   6.236   0.095  0.2624  0.4451  0.5682
  292MOL0     C40199  11.195   6.124  -0.003 -0.3855  0.9387  0.1227
  292MOL0     C40200  11.128   6.178  -0.134  0.2082  0.1979 -0.2712
  292MOL0     C40201  11.069   6.055  -0.223 -0.7927  0.3176 -0.8477
  292MOL0     C40202  11.035   6.100  -0.368  0.1826 -0.0211 -0.4761
  292MOL0    Cl40203  10.871   6.190  -0.359  0.1679 -0.0911  0.4155
  292MOL0     C40204  10.797   6.557   0.489  0.1736  0.0679  0.5503
  292MOL0     C40205  10.699   6.569   0.583  0.1302  0.4897  0.2284
  292MOL0     O40206  10.711   6.746   0.937 -0.8738 -0.6057  0.2061
  292MOL0     C40207  10.401   6.579   0.967 -0.0092  0.3588  0.2606
  292MOL0     C40208  10.281   6.574   1.042  0.4654 -0.5140  0.8150
  292MOL0     N40209  10.188   6.175   1.822 -0.4209 -0.4225 -1.3105
  292MOL0     N40210  10.158   6.164   1.946 -0.0544 -0.2068 -0.3644
  292MOL0     C40211   9.198   5.490   2.415  0.0731  0.1311 -0.9941
  292MOL0     C40212   9.125   5.373   2.440  0.4765 -0.1866  0.3239
  292MOL0     C40213   8.896   5.049   2.654 -0.1428  1.2951  0.5378
  292MOL0     C40214   8.823   5.019   2.774  0.5393  0.1717  0.8469
  292MOL0     C40215   8.707   4.943   2.771  1.3107 -0.0226 -0.5464
  292MOL0     C40216   8.673   4.871   2.655 -0.7002 -0.4757  0.3604
  292MOL0     O40217   8.572   4.777   2.644 -0.4425  0.1612 -0.6401
  292MOL0     C40218   8.476   4.737   2.744  0.4970 -0.1535 -0.5066
  292MOL0     C40219   8.343   4.773   2.700 -0.0218 -0.9800  0.1313
  292MOL0     C40220   8.233   4.685   2.756  0.1084  0.5301  0.7767
  292MOL0     C40221   8.223   4.546   2.683 -0.4740 -0.5893 -0.1096
  292MOL0     C40222   8.303   4.442   2.743  0.4536 -0.1154  0.7066
  292MOL0     C40223   8.382   4.366   2.794  0.4146  0.6184  1.0049
  292MOL0     C40224   8.740   4.898   2.536  0.0174  0.5852 -0.1427
  292MOL0     C40225   8.852   4.990   2.532  0.9575  0.3354  0.2029
  292MOL0     C40226   8.921   4.996   2.398  0.5364  0.2105 -0.5401
  292MOL0     H40227   9.314   5.228   2.677 -3.4932  0.0116  2.5297
  292MOL0     H40228   9.449   5.415   2.637  1.2922 -1.2581 -0.9401
  292MOL0     H40229   9.362   5.660   2.277 -0.0372 -1.3524 -1.5788
  292MOL0     H40230   9.509   5.549   2.296  1.0740 -0.5926  3.1803
  292MOL0     H40231   9.507   5.847   2.349  0.5956  0.9317 -0.8295
  292MOL0     H40232   9.638   5.747   2.390  1.9558 -3.6730 -1.2657
  292MOL0     H40233   9.674   5.686   2.182 -3.1998 -2.8210 -0.2030
  292MOL0     H40234   9.524   5.758   2.106 -2.1838  0.7016  1.1487
  292MOL0     H40235   9.608   5.979   2.186  0.7834  0.0215 -0.0512
  292MOL0     H40236   9.763   5.896   2.251  0.7418 -1.2738 -0.9872
  292MOL0     H40237   9.695   5.880   1.964 -2.3943 -0.3846  0.5603
  292MOL0     H40238   9.828   5.815   2.067  0.1039  0.6228  1.8102
  292MOL0     H40239   9.897   6.009   1.951  1.5130 -1.1949  2.5138
  292MOL0     H40240   9.758   6.097   2.002  0.5862  1.5087  4.3386
  292MOL0     H40241  10.004   6.021   2.156 -1.6327 -2.2215  0.8072
  292MOL0     H40242   9.868   6.099   2.242  0.2636  1.2108 -0.5516
  292MOL0     H40243   9.883   6.300   2.080  0.7237 -0.8930 -4.6322
  292MOL0     H40244  10.024   6.272   2.183 -0.2523 -2.6396  2.3629
  292MOL0     H40245   9.898   6.314   1.817 -1.2714 -1.2185 -0.8014
  292MOL0     H40246   9.992   6.216   1.568 -1.1998  4.3635 -0.0116
  292MOL0     H40247  10.160   6.200   1.566 -0.2589 -1.8452  1.0539
  292MOL0     H40248   9.992   6.443   1.636 -1.2124 -0.7699 -0.4728
  292MOL0     H40249  10.171   6.457   1.617 -1.1205 -0.3196  0.6574
  292MOL0     H40250  10.126   6.356   1.365  1.6350 -0.7065  0.7974
  292MOL0     H40251   9.966   6.430   1.392 -1.3336  0.3646  3.6359
  292MOL0     H40252  10.058   6.650   1.415 -1.3540 -2.1980  0.7974
  292MOL0     H40253  10.225   6.587   1.440  0.6136 -0.6126 -1.2203
  292MOL0     H40254  10.403   6.692   1.335 -0.3277 -3.0479  0.6365
  292MOL0     H40255  10.634   6.848   1.180 -1.7181  0.5234 -0.2889
  292MOL0     H40256  10.727   6.697   1.183 -2.0301 -2.2047  0.0072
  292MOL0     H40257  10.626   6.737   1.324  0.9311 -1.0305  0.2474
  292MOL0     H40258  10.893   6.582   0.855 -0.2208 -1.9554  0.1108
  292MOL0     H40259  11.068   6.585   0.681 -1.0813  0.9811  3.4047
  292MOL0     H40260  10.919   6.404   0.338 -0.4532 -0.2277 -2.0386
  292MOL0     H40261  10.967   6.541   0.236 -1.2344 -0.2375 -0.5649
  292MOL0     H40262  11.213   6.443   0.242 -0.1913 -0.7163  0.3498
  292MOL0     H40263  11.155   6.314   0.344 -1.8941  1.2994  2.2233
  292MOL0     H40264  11.089   6.379   0.048  2.1578 -0.6639 -1.1852
  292MOL0     H40265  11.005   6.249   0.138 -2.1235  2.7737  0.5593
  292MOL0     H40266  11.277   6.191   0.176 -1.8545 -2.5301  0.6073
  292MOL0     H40267  11.284   6.298   0.033  0.0181 -0.9325 -1.1379
  292MOL0     H40268  11.287   6.072  -0.032 -0.1039  0.3238  1.9804
  292MOL0     H40269  11.128   6.049   0.038 -0.7185  1.0262 -0.2536
  292MOL0     H40270  11.197   6.243  -0.189  1.0715 -0.9039 -0.5490
  292MOL0     H40271  11.043   6.242  -0.112  0.4234  0.5928 -0.5831
  292MOL0     H40272  10.992   6.003  -0.167  0.2247  0.1475  0.4332
  292MOL0     H40273  11.152   5.988  -0.246 -0.0237  0.8410  0.3135
  292MOL0     H40274  11.036   6.023  -0.445  7.6032 -0.5894 -0.4798
  292MOL0     H40275  11.110   6.172  -0.400 -0.4642  0.2129 -1.5024
  292MOL0     H40276  10.759   6.552   0.387  1.3456  3.5917 -0.2031
  292MOL0     H40277  10.593   6.566   0.558  0.6633 -0.7469 -2.1788
  292MOL0     H40278  10.404   6.539   0.866  1.1184 -1.8078  1.0941
  292MOL0     H40279  10.188   6.539   1.000  2.3037 -2.0583 -2.2699
  292MOL0     H40280   9.149   5.566   2.356 -2.2395 -0.8449 -0.4496
  292MOL0     H40281   9.036   5.362   2.380  1.7308  2.4233 -2.2701
  292MOL0     H40282   8.841   5.072   2.867  1.2041  3.6042 -1.0535
  292MOL0     H40283   8.654   4.931   2.865  0.1103 -2.5923 -1.4385
  292MOL0     H40284   8.476   4.629   2.758  0.0230  0.2133  3.6166
  292MOL0     H40285   8.502   4.779   2.842 -0.8117 -0.2496 -0.0989
  292MOL0     H40286   8.340   4.770   2.590 -2.4098 -0.8119  0.1301
  292MOL0     H40287   8.318   4.875   2.730 -2.7864 -2.2602  2.6459
  292MOL0     H40288   8.255   4.656   2.859 -0.9897  0.0935  0.9039
  292MOL0     H40289   8.144   4.743   2.730  0.1986 -1.4197 -5.5216
  292MOL0     H40290   8.221   4.551   2.574 -1.3731  2.4665 -0.0636
  292MOL0     H40291   8.121   4.512   2.703  1.0503 -3.4554  4.1412
  292MOL0     H40292   8.448   4.292   2.835  2.1095  1.8450  0.6014
  292MOL0     H40293   8.711   4.838   2.450 -0.5055  0.4948  0.0886
  292MOL0     H40294   8.930   5.099   2.361 -1.8042  0.6832  0.0906
  292MOL0     H40295   9.018   4.945   2.390 -0.2582 -1.3764 -0.3794
  292MOL0     H40296   8.863   4.938   2.325  1.7696  0.5850 -1.8862
  293MOL0     O40297   3.345   4.129   3.566 -0.0362 -0.2669 -0.4389
  293MOL0     C40298   3.395   4.119   3.457 -0.2142  0.2080  0.5600
  293MOL0     O40299   3.512   4.178   3.419  0.4198 -0.3594 -0.9360
  293MOL0     C40300   3.587   4.255   3.503  1.0439 -0.0647 -0.4681
  293MOL0     C40301   3.620   4.232   3.638  0.5692  0.4424 -0.1289
  293MOL0     C40302   3.687   4.318   3.717 -0.3184 -0.3783 -0.0495
  293MOL0     C40303   3.741   4.432   3.655 -0.2663 -0.5152  1.2164
  293MOL0     O40304   3.818   4.519   3.733 -0.7068 -0.0577 -0.3474
  293MOL0     C40305   3.842   4.658   3.687  0.3031 -0.3159  0.1601
  293MOL0     C40306   3.903   4.740   3.794  0.7281  0.5580 -0.1204
  293MOL0     C40307   4.044   4.704   3.836  0.4368  0.2334 -0.5213
  293MOL0     C40308   4.115   4.804   3.932  0.3954  0.2651  0.4745
  293MOL0     C40309   4.192   4.720   4.032  0.1934  0.2340 -0.2262
  293MOL0     C40310   4.284   4.823   4.103  0.1469 -0.2886  0.4301
  293MOL0     C40311   4.367   4.767   4.210 -0.0336  0.5655  0.2364
  293MOL0     C40312   4.492   4.699   4.159 -0.0886 -0.7616 -0.3440
  293MOL0     N40313   4.594   4.690   4.268 -0.3110 -0.0705  0.1500
  293MOL0     C40314   4.578   4.660   4.396 -0.4828 -1.1478  0.2114
  293MOL0     C40315   4.702   4.689   4.441 -0.0812 -0.0260  0.5448
  293MOL0     C40316   4.734   4.676   4.591  0.0694 -0.6732 -0.8694
  293MOL0     C40317   4.812   4.552   4.631 -1.1111  0.6469  0.0512
  293MOL0     C40318   4.896   4.490   4.515  0.7405  0.1863 -0.2619
  293MOL0     C40319   4.960   4.352   4.560 -0.2775  1.0211 -0.6261
  293MOL0     O40320   5.016   4.350   4.687 -0.9522  0.1586  0.0671
  293MOL0     C40321   5.069   4.236   4.737  0.1222  0.1131 -0.1942
  293MOL0     C40322   5.144   4.252   4.858 -0.5668  1.8189  1.1875
  293MOL0     C40323   5.213   4.153   4.919  0.5004  0.0375  0.0667
  293MOL0     C40324   5.267   4.201   5.053 -0.3020 -0.1765 -0.1288
  293MOL0     C40325   5.208   4.019   4.869  0.0008  1.0565  0.2222
  293MOL0     C40326   5.272   3.908   4.945 -0.5712 -0.9115 -0.4200
  293MOL0     O40327   5.238   3.779   4.909  0.2238  0.2246 -0.1182
  293MOL0     C40328   5.238   3.670   4.997 -1.0917 -0.4090  0.0744
  293MOL0     C40329   5.330   3.574   4.969  0.3192 -0.0668 -0.4254
  293MOL0     C40330   5.341   3.467   5.062  1.0961 -0.7011  0.2464
  293MOL0     C40331   5.253   3.466   5.177 -0.1448 -0.4078  0.2797
  293MOL0     O40332   5.268   3.369   5.270  0.2309  0.8089 -0.1132
  293MOL0     C40333   5.145   3.307   5.316  0.5436  0.1746 -0.0416
  293MOL0     C40334   5.170   3.158   5.325  0.0598 -0.4959  0.2448
  293MOL0     C40335   5.252   3.117   5.453  0.2754 -0.1310  0.0346
  293MOL0     C40336   5.214   2.971   5.473 -0.6414  0.0309  0.9419
  293MOL0     C40337   5.292   2.898   5.580  0.3197  0.9341 -0.2868
  293MOL0     C40338   5.229   2.762   5.621 -0.7775  0.1088  0.0815
  293MOL0     C40339   5.289   2.644   5.538  0.0316  0.2952 -0.6275
  293MOL0     C40340   5.223   2.510   5.580 -0.5098  0.3895  0.4750
  293MOL0    Cl40341   5.255   2.412   5.433 -0.1729  0.5164 -0.2668
  293MOL0     C40342   5.151   3.557   5.186 -0.2898  1.3277 -0.1861
  293MOL0     C40343   5.144   3.656   5.100 -0.6697  0.3455  0.2955
  293MOL0     O40344   5.350   3.933   5.040  0.3151 -0.4835  0.4212
  293MOL0     C40345   5.126   3.996   4.754 -0.1078 -0.4085 -0.1785
  293MOL0     C40346   5.070   4.100   4.689 -0.5369  0.0044  0.0601
  293MOL0     N40347   4.782   4.747   4.339  0.1442 -0.3293 -1.1084
  293MOL0     N40348   4.708   4.732   4.232  0.1263  0.2286  0.0541
  293MOL0     C40349   3.710   4.463   3.521  0.2099 -0.6251  0.2380
  293MOL0     C40350   3.627   4.373   3.444  0.6122 -0.2357  1.6125
  293MOL0     C40351   3.304   4.060   3.356 -0.6456 -0.3911  0.9173
  293MOL0     C40352   3.164   4.078   3.373  0.4873  0.1883 -0.1297
  293MOL0     C40353   3.063   4.032   3.294  0.1580  0.4556  0.0779
  293MOL0     C40354   3.093   3.952   3.185  0.4194 -0.2213  0.0447
  293MOL0     O40355   2.981   3.894   3.123 -1.4415 -0.2327  0.0372
  293MOL0     C40356   2.972   3.883   2.984 -0.2026 -0.1374 -0.7479
  293MOL0     C40357   2.873   3.990   2.935  0.0979  0.5073 -0.1500
  293MOL0     C40358   2.842   3.984   2.782  0.6722  0.6006 -0.6868
  293MOL0     C40359   2.761   4.100   2.726 -1.3335  0.0239 -0.3625
  293MOL0     C40360   2.733   4.083   2.588  1.7857 -0.0142 -0.3317
  293MOL0     C40361   2.692   4.052   2.475  0.4144  0.0764  0.0567
  293MOL0     C40362   3.234   3.934   3.151 -0.2841 -0.4968  0.3390
  293MOL0     C40363   3.339   3.991   3.233 -0.4691 -1.0610 -0.1377
  293MOL0     C40364   3.476   3.982   3.184 -0.0266  0.3287 -0.7511
  293MOL0     H40365   3.580   4.139   3.676  0.6914  0.8771  1.1143
  293MOL0     H40366   3.699   4.300   3.823 -2.7100  2.8630  0.9255
  293MOL0     H40367   3.743   4.701   3.668  1.0508  1.9086  1.0092
  293MOL0     H40368   3.906   4.664   3.599 -1.1779 -2.0621 -1.1069
  293MOL0     H40369   3.913   4.846   3.769  2.2439  0.6499  0.7499
  293MOL0     H40370   3.835   4.737   3.879  1.2929 -2.0363  0.3101
  293MOL0     H40371   4.046   4.605   3.883  0.6665 -0.5940 -2.1986
  293MOL0     H40372   4.095   4.694   3.740 -0.6185 -0.6991 -1.0115
  293MOL0     H40373   4.184   4.867   3.876 -1.4335  0.2918 -1.8858
  293MOL0     H40374   4.044   4.871   3.982  1.9230  0.9888  1.7856
  293MOL0     H40375   4.255   4.647   3.980  1.3973  0.3015  1.0611
  293MOL0     H40376   4.129   4.665   4.103  0.5010 -0.9759 -0.8722
  293MOL0     H40377   4.342   4.877   4.027 -2.9963  0.3554 -1.6812
  293MOL0     H40378   4.210   4.890   4.147 -0.7580 -0.2775 -1.0123
  293MOL0     H40379   4.299   4.708   4.271 -1.9712  3.9547  1.6264
  293MOL0     H40380   4.393   4.851   4.275 -1.5375  1.2967 -0.0741
  293MOL0     H40381   4.464   4.599   4.125 -2.6513 -0.7295  1.4125
  293MOL0     H40382   4.534   4.755   4.075 -2.2302 -1.3893 -1.9062
  293MOL0     H40383   4.496   4.601   4.437  0.4945 -2.2556  0.6357
  293MOL0     H40384   4.641   4.681   4.648  0.3591 -1.8325 -0.2691
  293MOL0     H40385   4.787   4.768   4.618 -2.7961  1.2784 -1.4233
  293MOL0     H40386   4.878   4.568   4.717 -0.8869 -2.9737  0.7091
  293MOL0     H40387   4.753   4.463   4.653 -1.2739 -1.0352 -5.6841
  293MOL0     H40388   4.835   4.478   4.425 -2.4206  0.8060  1.6395
  293MOL0     H40389   4.979   4.559   4.494  0.3447  1.0854  1.0061
  293MOL0     H40390   4.882   4.276   4.550 -0.8479  1.2691  1.4445
  293MOL0     H40391   5.044   4.329   4.494  0.5717  0.6365  0.5321
  293MOL0     H40392   5.143   4.355   4.894 -2.0787  2.5299 -0.7111
  293MOL0     H40393   5.216   4.158   5.140  1.6230  1.5414  1.9851
  293MOL0     H40394   5.265   4.309   5.070  1.0130 -0.2385  0.5650
  293MOL0     H40395   5.374   4.178   5.061  0.6569  3.1934 -1.5184
  293MOL0     H40396   5.379   3.590   4.873  0.7945  0.0772 -0.1600
  293MOL0     H40397   5.425   3.401   5.041  1.7637  0.3153 -0.3543
  293MOL0     H40398   5.110   3.364   5.403 -0.3983  0.5928 -0.6640
  293MOL0     H40399   5.069   3.310   5.237  0.5301  0.6079 -0.0189
  293MOL0     H40400   5.071   3.112   5.336 -0.1981  0.0576  0.3248
  293MOL0     H40401   5.230   3.122   5.242  1.1667  2.6846 -0.4661
  293MOL0     H40402   5.210   3.171   5.538 -0.7904 -2.2954  0.9557
  293MOL0     H40403   5.360   3.134   5.449  0.1018  0.8844 -0.9622
  293MOL0     H40404   5.253   2.917   5.386  1.0186  3.0360 -0.3177
  293MOL0     H40405   5.107   2.950   5.481 -0.1238 -4.4104 -0.8790
  293MOL0     H40406   5.401   2.894   5.570  0.3587 -0.4608  0.5789
  293MOL0     H40407   5.279   2.964   5.666 -1.1592 -0.1543  0.3561
  293MOL0     H40408   5.121   2.764   5.609 -0.8382 -1.7336 -0.0813
  293MOL0     H40409   5.259   2.745   5.725  0.0492  1.8678  0.1651
  293MOL0     H40410   5.398   2.633   5.545 -0.2637 -4.6715 -0.3132
  293MOL0     H40411   5.283   2.673   5.433 -1.6342  0.6031 -0.4807
  293MOL0     H40412   5.115   2.507   5.594 -0.8278  0.2567 -1.6702
  293MOL0     H40413   5.276   2.485   5.672  1.3803  1.8040 -0.1595
  293MOL0     H40414   5.085   3.555   5.272 -4.6366 -0.8952 -3.2418
  293MOL0     H40415   5.073   3.736   5.120  0.2352  0.6597  2.4342
  293MOL0     H40416   5.113   3.897   4.711  0.0409 -1.5780  2.2977
  293MOL0     H40417   5.006   4.078   4.604  0.1626 -0.3233 -0.3904
  293MOL0     H40418   3.761   4.543   3.469  1.0613 -1.3890 -0.1437
  293MOL0     H40419   3.601   4.392   3.340  1.3004  1.0583  1.6585
  293MOL0     H40420   3.126   4.131   3.460 -0.6797  1.3565 -1.2951
  293MOL0     H40421   2.959   4.042   3.320  0.1788 -3.2302  2.1609
  293MOL0     H40422   3.067   3.918   2.942  0.1518  2.5629  2.0233
  293MOL0     H40423   2.943   3.785   2.945  2.3760 -0.8233 -1.1521
  293MOL0     H40424   2.922   4.085   2.955 -0.2999  0.6200  0.3204
  293MOL0     H40425   2.780   3.977   2.991 -1.3420 -0.8961 -2.6657
  293MOL0     H40426   2.930   3.957   2.723  0.0825  1.3887 -1.9935
  293MOL0     H40427   2.771   3.903   2.760 -3.3396  4.1524 -2.2523
  293MOL0     H40428   2.835   4.178   2.743 -1.1005  0.2617 -2.3191
  293MOL0     H40429   2.668   4.119   2.781 -0.5491 -0.5282  1.2165
  293MOL0     H40430   2.661   4.024   2.376  0.1460 -0.3434  0.2577
  293MOL0     H40431   3.263   3.877   3.064  1.2629 -1.9388  1.7377
  293MOL0     H40432   3.540   4.004   3.270 -0.9946 -2.6374  0.8961
  293MOL0     H40433   3.499   3.880   3.154 -0.2675  0.4348 -1.3061
  293MOL0     H40434   3.486   4.052   3.101 -1.2797  1.6013  0.1253
  294MOL0     O40435   0.505   0.984  11.297  0.5888 -0.1672  0.8251
  294MOL0     C40436   0.609   0.994  11.231  0.4851 -0.1038 -0.4230
  294MOL0     O40437   0.619   1.029  11.093  0.2765 -1.1634 -0.5019
  294MOL0     C40438   0.502   1.070  11.038  0.5466  0.4665 -0.3960
  294MOL0     C40439   0.421   0.983  10.966 -1.0048 -0.5861 -0.4556
  294MOL0     C40440   0.299   1.025  10.906  0.6300  0.4593 -0.7180
  294MOL0     C40441   0.258   1.163  10.906  0.7155  0.0925  0.5366
  294MOL0     O40442   0.143   1.191  10.847  0.4182  0.2113 -0.0611
  294MOL0     C40443   0.074   1.314  10.895  0.7006 -0.0214  0.1950
  294MOL0     C40444  -0.067   1.313  10.849 -0.0463  1.1699 -0.6142
  294MOL0     C40445  -0.146   1.190  10.882 -0.1124  0.3075 -0.6718
  294MOL0     C40446  -0.297   1.222  10.864  1.4976  0.6761 -0.5629
  294MOL0     C40447  -0.370   1.089  10.877 -0.3881 -0.0824 -0.4261
  294MOL0     C40448  -0.363   1.032  11.024 -0.0084  0.0792  0.8220
  294MOL0     C40449  -0.485   1.059  11.101  0.5016 -0.1309 -0.5245
  294MOL0     C40450  -0.614   0.988  11.054 -0.0118  0.8621 -0.5254
  294MOL0     N40451  -0.733   1.027  11.129  0.5554  0.5332 -0.5813
  294MOL0     C40452  -0.800   1.156  11.119  0.7347  0.2213  0.4262
  294MOL0     C40453  -0.912   1.143  11.199 -0.3201 -1.2073 -0.7093
  294MOL0     C40454  -1.017   1.249  11.241 -0.3654  0.6147 -0.0340
  294MOL0     C40455  -1.077   1.226  11.378 -0.0433  0.6552 -0.0015
  294MOL0     C40456  -0.975   1.231  11.488 -0.8510  0.1366  0.5443
  294MOL0     C40457  -1.039   1.170  11.616 -0.0053 -0.2283  0.4503
  294MOL0     O40458  -0.950   1.131  11.722  0.5809  0.4063  0.0817
  294MOL0     C40459  -0.972   1.198  11.840 -0.3704 -0.4668 -0.7728
  294MOL0     C40460  -0.866   1.239  11.915  0.2366 -0.5895  0.1578
  294MOL0     C40461  -0.871   1.324  12.023 -0.2070 -0.3401  0.2752
  294MOL0     C40462  -0.738   1.377  12.066 -0.0979 -0.0625  0.1085
  294MOL0     C40463  -0.995   1.354  12.084 -0.1977 -0.0831 -1.2100
  294MOL0     C40464  -1.008   1.445  12.197 -0.2264  0.4015 -0.1988
  294MOL0     O40465  -0.922   1.555  12.197 -0.1686  0.0699  0.6889
  294MOL0     C40466  -0.905   1.638  12.310  0.7384  0.5549 -0.0353
  294MOL0     C40467  -0.775   1.643  12.371  0.2528 -0.1424 -0.0897
  294MOL0     C40468  -0.774   1.696  12.497 -0.0655 -0.4191 -0.8899
  294MOL0     C40469  -0.889   1.763  12.549 -0.5458 -0.4065  0.1248
  294MOL0     O40470  -0.899   1.812  12.678 -0.2322  0.6067  0.5042
  294MOL0     C40471  -0.833   1.742  12.783  0.4952  0.1740  1.0743
  294MOL0     C40472  -0.708   1.818  12.819  0.2072 -0.2727 -0.1639
  294MOL0     C40473  -0.617   1.746  12.923 -0.4329 -1.2966 -0.0025
  294MOL0     C40474  -0.463   1.785  12.938  0.3198  0.2477 -0.0584
  294MOL0     C40475  -0.439   1.924  12.927  0.3582  0.8886  0.4690
  294MOL0     C40476  -0.290   1.965  12.906 -0.6106  0.0888  0.1348
  294MOL0     C40477  -0.251   1.930  12.760  0.6794 -0.4941 -0.3768
  294MOL0     C40478  -0.110   1.965  12.738 -0.4249 -0.8973 -0.4539
  294MOL0    Cl40479  -0.091   2.144  12.751 -0.0780 -0.1566 -0.5523
  294MOL0     C40480  -1.006   1.779  12.476  0.5849  0.3165 -0.0564
  294MOL0     C40481  -1.017   1.706  12.359 -0.5373 -0.0128 -0.5959
  294MOL0     O40482  -1.097   1.418  12.278 -0.6372 -0.0036  0.8111
  294MOL0     C40483  -1.105   1.293  12.022  1.4643  0.2361  0.1768
  294MOL0     C40484  -1.100   1.221  11.900 -0.6372 -0.3189 -0.4611
  294MOL0     N40485  -0.916   1.015  11.245 -0.2313 -0.2134  0.5584
  294MOL0     N40486  -0.818   0.950  11.203 -0.3234  0.0797 -0.2946
  294MOL0     C40487   0.345   1.251  10.975  0.3397 -0.2421 -0.2282
  294MOL0     C40488   0.454   1.204  11.047  0.4142  0.3430 -0.0766
  294MOL0     C40489   0.731   0.939  11.296  1.4546  0.1563 -1.0233
  294MOL0     C40490   0.840   0.891  11.217  0.6030 -0.6162 -0.1124
  294MOL0     C40491   0.954   0.839  11.276 -0.2814 -0.4095 -0.0624
  294MOL0     C40492   0.975   0.850  11.413  0.4049 -0.2848 -0.1052
  294MOL0     O40493   1.094   0.812  11.468  0.2393 -0.6152 -0.2730
  294MOL0     C40494   1.168   0.909  11.540  1.1733  0.2870 -0.8482
  294MOL0     C40495   1.219   0.847  11.672 -0.2296  0.6056  0.1473
  294MOL0     C40496   1.301   0.721  11.642 -0.7181 -0.7663 -0.4449
  294MOL0     C40497   1.381   0.656  11.761  0.2543 -0.3230  0.2220
  294MOL0     C40498   1.482   0.747  11.812 -0.3395  0.0993 -0.2175
  294MOL0     C40499   1.585   0.813  11.835 -0.5124  0.0105 -0.2302
  294MOL0     C40500   0.870   0.906  11.491 -0.5127 -0.6537 -0.0392
  294MOL0     C40501   0.752   0.949  11.438  0.3390 -0.4847 -0.0575
  294MOL0     C40502   0.667   1.026  11.539  1.2723  0.2478  0.7946
  294MOL0     H40503   0.458   0.888  10.928 -0.7840 -0.3119 -0.9421
  294MOL0     H40504   0.244   0.948  10.854  0.2147  1.0258 -1.1266
  294MOL0     H40505   0.117   1.407  10.856 -1.6927  1.8770  1.7365
  294MOL0     H40506   0.084   1.309  11.003  0.2857  0.3984  0.2572
  294MOL0     H40507  -0.105   1.400  10.904  1.2766  0.8017  0.9772
  294MOL0     H40508  -0.062   1.322  10.740 -0.8206  1.3603 -0.6446
  294MOL0     H40509  -0.120   1.104  10.820 -3.3636 -1.3855  0.0641
  294MOL0     H40510  -0.124   1.176  10.988  0.0021 -0.9637 -0.8468
  294MOL0     H40511  -0.340   1.289  10.939 -0.5445 -0.4724 -0.6424
  294MOL0     H40512  -0.317   1.264  10.764 -0.6687 -2.6747 -1.7369
  294MOL0     H40513  -0.318   1.017  10.814  2.2967  1.2488  0.1237
  294MOL0     H40514  -0.472   1.093  10.840 -1.0479 -0.0367  1.2978
  294MOL0     H40515  -0.337   0.926  11.023 -1.1413 -0.2135 -0.3110
  294MOL0     H40516  -0.288   1.074  11.092 -1.6057  2.1791  1.3983
  294MOL0     H40517  -0.499   1.168  11.105 -0.4858 -0.2659  2.5176
  294MOL0     H40518  -0.470   1.014  11.200 -0.3554  0.1461 -0.2576
  294MOL0     H40519  -0.630   1.010  10.948  2.2416  2.0386 -0.6643
  294MOL0     H40520  -0.613   0.879  11.065  0.4328  0.8185 -0.9523
  294MOL0     H40521  -0.771   1.238  11.054 -1.0254 -0.4166 -1.2603
  294MOL0     H40522  -1.087   1.237  11.158 -0.3392 -0.9777  0.1367
  294MOL0     H40523  -0.967   1.346  11.238 -0.3376  0.5829 -0.7157
  294MOL0     H40524  -1.149   1.306  11.397 -0.9364 -0.0576 -0.2896
  294MOL0     H40525  -1.131   1.130  11.376 -0.7774  0.9809 -3.9813
  294MOL0     H40526  -0.889   1.166  11.469 -0.7945  0.0839  0.9589
  294MOL0     H40527  -0.950   1.336  11.505 -1.4361 -0.1054  3.5309
  294MOL0     H40528  -1.112   1.242  11.656  1.4765  0.7829  1.4556
  294MOL0     H40529  -1.113   1.096  11.583 -0.5751  1.8049 -3.3551
  294MOL0     H40530  -0.768   1.232  11.871  1.0696  1.2345  1.5838
  294MOL0     H40531  -0.647   1.338  12.019  0.9797  2.3881  0.0045
  294MOL0     H40532  -0.728   1.366  12.174 -0.3035 -2.0091 -0.0384
  294MOL0     H40533  -0.733   1.484  12.040 -0.4007 -0.2526 -0.7785
  294MOL0     H40534  -0.688   1.590  12.333 -0.1622  0.5086 -2.0231
  294MOL0     H40535  -0.681   1.700  12.553  0.5710 -0.1646 -1.9254
  294MOL0     H40536  -0.898   1.735  12.871  1.7124 -0.6776  1.9252
  294MOL0     H40537  -0.814   1.637  12.760  0.9145  0.2344  1.1354
  294MOL0     H40538  -0.654   1.824  12.724 -2.1302 -2.9894 -1.8524
  294MOL0     H40539  -0.729   1.920  12.853  0.4189 -0.6610  1.1552
  294MOL0     H40540  -0.615   1.639  12.900  1.3942 -1.7206  1.8075
  294MOL0     H40541  -0.666   1.766  13.018 -1.4754 -1.7743 -0.4310
  294MOL0     H40542  -0.396   1.732  12.870 -0.1994 -1.6421  0.8179
  294MOL0     H40543  -0.430   1.752  13.036 -0.7900  1.6518  0.8322
  294MOL0     H40544  -0.510   1.977  12.862 -1.1938 -1.4468  0.1491
  294MOL0     H40545  -0.461   1.955  13.030 -0.0135  0.5752  0.4866
  294MOL0     H40546  -0.230   1.903  12.973 -2.1171  0.6715  2.1279
  294MOL0     H40547  -0.270   2.068  12.937 -0.1357  0.3270 -0.8965
  294MOL0     H40548  -0.322   1.992  12.704 -0.0412  0.3832  1.4217
  294MOL0     H40549  -0.258   1.824  12.735 -1.9714 -0.8978  1.6364
  294MOL0     H40550  -0.075   1.933  12.639  1.4635 -1.1830  0.2715
  294MOL0     H40551  -0.044   1.914  12.808  0.5912 -0.1847 -0.8618
  294MOL0     H40552  -1.098   1.825  12.511  0.6300  1.9927 -1.9369
  294MOL0     H40553  -1.112   1.697  12.307 -1.0383  2.6998 -0.3282
  294MOL0     H40554  -1.200   1.328  12.062  1.5274  0.6458 -0.0312
  294MOL0     H40555  -1.195   1.191  11.857 -0.4778 -0.8567 -0.4539
  294MOL0     H40556   0.331   1.359  10.982 -1.2047 -0.4462  0.3243
  294MOL0     H40557   0.502   1.283  11.103 -1.3157  0.2531  1.6215
  294MOL0     H40558   0.833   0.901  11.109 -0.4343 -0.3196 -0.0302
  294MOL0     H40559   1.039   0.804  11.220  0.2533  0.2564  0.3111
  294MOL0     H40560   1.260   0.941  11.491 -0.4009  1.6760 -3.0825
  294MOL0     H40561   1.112   1.002  11.556  0.5521 -0.1122 -0.6685
  294MOL0     H40562   1.134   0.814  11.733  1.5972 -0.2343  2.3795
  294MOL0     H40563   1.278   0.924  11.723 -0.1116  0.8186 -0.3099
  294MOL0     H40564   1.239   0.645  11.593 -3.2064 -0.7051  2.2753
  294MOL0     H40565   1.375   0.751  11.568 -0.1095 -0.8819  0.1056
  294MOL0     H40566   1.426   0.559  11.736 -0.7895 -0.3123 -1.9300
  294MOL0     H40567   1.303   0.643  11.836  0.2280 -0.4281  0.1767
  294MOL0     H40568   1.677   0.866  11.846 -1.2249  1.1921  0.1505
  294MOL0     H40569   0.885   0.938  11.594 -3.0628 -0.4959  0.3563
  294MOL0     H40570   0.572   0.972  11.534  1.4337  0.0925 -1.9916
  294MOL0     H40571   0.698   1.028  11.644  0.1772  2.1329  1.1382
  294MOL0     H40572   0.658   1.133  11.518  0.5165 -0.0332 -0.3744
  295MOL0     O40573   2.973   3.656   6.576  0.0817  0.0375  0.3475
  295MOL0     C40574   2.864   3.604   6.604  0.7167 -0.0737  0.0315
  295MOL0     O40575   2.760   3.670   6.668 -0.1802  0.0205  0.5995
  295MOL0     C40576   2.744   3.799   6.671 -0.2835  0.3038 -0.3206
  295MOL0     C40577   2.667   3.855   6.776 -0.1933  0.6498 -0.3569
  295MOL0     C40578   2.635   3.996   6.778 -0.7653 -0.2541 -0.0839
  295MOL0     C40579   2.675   4.079   6.668 -0.1333  0.3418 -0.2671
  295MOL0     O40580   2.653   4.211   6.668 -0.1043 -0.4955  0.4248
  295MOL0     C40581   2.681   4.280   6.792  0.5736 -0.3752 -0.3032
  295MOL0     C40582   2.638   4.431   6.766 -0.2213  0.9435  0.9559
  295MOL0     C40583   2.696   4.487   6.628 -0.2700  0.5440  0.3997
  295MOL0     C40584   2.647   4.636   6.599 -0.0986  0.0682  0.6385
  295MOL0     C40585   2.492   4.645   6.617  0.0480  0.2116 -0.0059
  295MOL0     C40586   2.439   4.774   6.561 -0.0534  0.4241 -0.1078
  295MOL0     C40587   2.284   4.811   6.577 -0.5765 -0.3455 -0.2609
  295MOL0     C40588   2.197   4.746   6.693  0.1521 -1.1188  0.3867
  295MOL0     N40589   2.224   4.837   6.804 -0.1162  0.5533  0.1723
  295MOL0     C40590   2.346   4.859   6.873  0.5667  0.4169 -0.5654
  295MOL0     C40591   2.316   4.968   6.949  0.3881 -0.3444  0.9749
  295MOL0     C40592   2.413   5.052   7.026  0.0570  0.3200 -1.1385
  295MOL0     C40593   2.532   5.108   6.948  0.1269 -0.0777 -0.1450
  295MOL0     C40594   2.514   5.245   6.871 -0.3267  0.6891 -0.9795
  295MOL0     C40595   2.431   5.240   6.745 -0.5088  0.1151  0.3012
  295MOL0     O40596   2.450   5.364   6.675  0.1950  0.3418 -0.8523
  295MOL0     C40597   2.422   5.366   6.545 -0.5032  0.1238 -0.8516
  295MOL0     C40598   2.482   5.463   6.479 -0.0805  0.0743  0.0190
  295MOL0     C40599   2.467   5.483   6.344 -0.4185  0.2466  0.7721
  295MOL0     C40600   2.546   5.591   6.269  1.3821  0.6952  0.0793
  295MOL0     C40601   2.386   5.383   6.272  0.4163 -0.3291  0.2756
  295MOL0     C40602   2.355   5.385   6.121 -0.4315  1.6855 -0.2007
  295MOL0     O40603   2.322   5.260   6.062 -0.5077 -0.0830 -0.2614
  295MOL0     C40604   2.289   5.226   5.929  0.0139 -0.1060 -0.2318
  295MOL0     C40605   2.329   5.098   5.892 -0.4627  0.5237  0.0140
  295MOL0     C40606   2.291   5.047   5.768  0.4243  0.0821 -0.7227
  295MOL0     C40607   2.203   5.122   5.691 -0.5076  0.6677  0.4010
  295MOL0     O40608   2.146   5.075   5.568 -0.5808  0.0768 -0.0381
  295MOL0     C40609   2.194   4.948   5.523 -0.9784 -0.7729 -0.0752
  295MOL0     C40610   2.160   4.918   5.385 -0.5592 -0.1932  0.8556
  295MOL0     C40611   2.226   5.013   5.280 -0.5671 -0.1974 -1.4162
  295MOL0     C40612   2.283   4.949   5.147 -0.3479  0.2798  1.0594
  295MOL0     C40613   2.358   5.061   5.071 -0.1396 -0.5383  0.0172
  295MOL0     C40614   2.471   5.018   4.978 -0.9900 -0.0959 -0.4122
  295MOL0     C40615   2.445   4.908   4.876 -0.1323  0.5302  0.5707
  295MOL0     C40616   2.576   4.867   4.808  0.3205 -0.7090  0.6202
  295MOL0    Cl40617   2.655   5.006   4.723 -0.0626  0.0182  0.0830
  295MOL0     C40618   2.167   5.251   5.736 -0.3562  0.9531  0.2720
  295MOL0     C40619   2.204   5.307   5.857 -0.1836  0.7968  0.7259
  295MOL0     O40620   2.373   5.485   6.055 -0.8605  0.2626  0.2819
  295MOL0     C40621   2.324   5.287   6.351 -0.0007  0.3200  1.1817
  295MOL0     C40622   2.344   5.279   6.481 -0.9974  0.3554 -0.4870
  295MOL0     N40623   2.186   5.001   6.927  0.0563 -0.5536 -0.8476
  295MOL0     N40624   2.130   4.923   6.851  0.0268  0.5491 -0.7786
  295MOL0     C40625   2.769   4.029   6.577  0.3256 -1.0237  0.2670
  295MOL0     C40626   2.795   3.887   6.580 -0.9126 -1.2144  0.1863
  295MOL0     C40627   2.850   3.461   6.572 -0.8360  0.3643 -1.2486
  295MOL0     C40628   2.970   3.379   6.563  1.0123  0.2407  0.7267
  295MOL0     C40629   2.958   3.245   6.527 -0.4656 -0.6391 -0.9424
  295MOL0     C40630   2.837   3.179   6.502 -0.2815 -0.6428  0.0377
  295MOL0     O40631   2.845   3.044   6.462  0.1767 -0.1053 -0.5503
  295MOL0     C40632   2.723   2.982   6.434  0.6720  1.3076 -0.1392
  295MOL0     C40633   2.654   2.954   6.568 -0.8755  0.0810  0.2289
  295MOL0     C40634   2.506   2.923   6.551  0.0149 -0.4536 -0.4372
  295MOL0     C40635   2.456   2.839   6.676  0.7434 -0.8904 -0.7730
  295MOL0     C40636   2.484   2.898   6.803  0.4948 -0.4144 -0.3054
  295MOL0     C40637   2.507   2.929   6.924 -0.6614 -0.2167  0.7180
  295MOL0     C40638   2.725   3.258   6.523 -0.1556  0.2399  0.1650
  295MOL0     C40639   2.729   3.393   6.560 -0.4031  0.1698  0.1505
  295MOL0     C40640   2.592   3.450   6.571 -0.3842 -0.4367  0.0011
  295MOL0     H40641   2.623   3.785   6.846 -2.0785  0.0019 -2.0915
  295MOL0     H40642   2.578   4.041   6.859  0.8945  3.2644 -0.6476
  295MOL0     H40643   2.786   4.272   6.822  0.9998  0.4420 -1.5118
  295MOL0     H40644   2.628   4.237   6.877 -1.6364  1.2871 -0.7527
  295MOL0     H40645   2.530   4.416   6.776 -0.1594  0.1926  0.5512
  295MOL0     H40646   2.673   4.491   6.850 -0.2998 -0.6591  2.1788
  295MOL0     H40647   2.805   4.476   6.624 -0.0024  2.5509 -3.8086
  295MOL0     H40648   2.656   4.424   6.547  0.0386 -1.3635  1.6654
  295MOL0     H40649   2.707   4.702   6.662  1.4099 -0.1091 -0.5344
  295MOL0     H40650   2.672   4.664   6.496  3.5292 -4.3182 -0.0496
  295MOL0     H40651   2.450   4.634   6.717 -0.7795  1.1632 -0.2291
  295MOL0     H40652   2.449   4.564   6.557  0.0739  0.6644 -0.6413
  295MOL0     H40653   2.491   4.859   6.607  0.9159  1.2578 -2.5817
  295MOL0     H40654   2.461   4.765   6.455 -0.0242  3.0867 -0.4128
  295MOL0     H40655   2.230   4.791   6.484 -2.0370  0.4285  0.3771
  295MOL0     H40656   2.282   4.919   6.594 -0.1522 -0.6148  1.7329
  295MOL0     H40657   2.091   4.736   6.669  0.1239 -1.3199  0.5851
  295MOL0     H40658   2.229   4.643   6.709 -0.1788 -1.2025  0.5171
  295MOL0     H40659   2.437   4.802   6.859  0.9598  1.5637 -3.2004
  295MOL0     H40660   2.456   5.002   7.114  0.6190  2.3924 -0.1781
  295MOL0     H40661   2.354   5.130   7.074 -0.4614 -0.7747  0.0828
  295MOL0     H40662   2.599   5.129   7.032 -2.9414  0.8601  2.2420
  295MOL0     H40663   2.572   5.030   6.881  1.7952  0.7921 -0.2283
  295MOL0     H40664   2.472   5.323   6.935 -0.8841 -0.7017  0.4403
  295MOL0     H40665   2.617   5.277   6.852  0.4846  1.2084  3.3544
  295MOL0     H40666   2.473   5.165   6.677 -1.4502  2.0998 -2.6777
  295MOL0     H40667   2.327   5.218   6.768 -0.9910 -0.1635 -1.9083
  295MOL0     H40668   2.542   5.537   6.531  2.9400 -0.8213 -1.9621
  295MOL0     H40669   2.612   5.656   6.327  0.3663 -0.8061  3.1709
  295MOL0     H40670   2.472   5.656   6.221 -2.8350 -4.4408 -1.3145
  295MOL0     H40671   2.605   5.542   6.192 -1.4689 -0.8867 -1.2379
  295MOL0     H40672   2.398   5.045   5.957  1.3133  1.0508 -1.3624
  295MOL0     H40673   2.342   4.962   5.725  2.9455  1.9808 -1.7647
  295MOL0     H40674   2.303   4.958   5.523 -1.1130  1.1273 -1.0590
  295MOL0     H40675   2.157   4.861   5.578 -0.0250 -0.5971  0.8789
  295MOL0     H40676   2.193   4.816   5.367  1.6836  0.4517  1.0893
  295MOL0     H40677   2.052   4.927   5.371 -0.4651 -0.8240 -0.4102
  295MOL0     H40678   2.303   5.073   5.329 -2.1755  0.5513  0.3577
  295MOL0     H40679   2.150   5.087   5.252  0.2052  2.5239  2.7550
  295MOL0     H40680   2.198   4.917   5.085  0.2244 -0.1410  0.4790
  295MOL0     H40681   2.354   4.871   5.177  1.1431  1.3295  0.3759
  295MOL0     H40682   2.291   5.121   5.008  2.1137  2.5125  0.2560
  295MOL0     H40683   2.392   5.140   5.139  1.3867  1.4486 -2.8320
  295MOL0     H40684   2.558   4.995   5.040  0.9558  1.0294 -2.5813
  295MOL0     H40685   2.481   5.114   4.925 -2.7320  0.1131 -0.4344
  295MOL0     H40686   2.374   4.940   4.799 -0.3923  0.8988  0.9608
  295MOL0     H40687   2.414   4.816   4.927  0.4608  1.2924  2.3942
  295MOL0     H40688   2.569   4.783   4.739  0.0936  2.0778 -3.0877
  295MOL0     H40689   2.645   4.840   4.888  0.8887 -2.5016 -0.4240
  295MOL0     H40690   2.109   5.319   5.674  2.7251  4.1121  0.5263
  295MOL0     H40691   2.150   5.398   5.883 -3.3551 -0.2948 -1.4482
  295MOL0     H40692   2.253   5.222   6.301 -1.2681  1.5402  1.3365
  295MOL0     H40693   2.295   5.198   6.535 -1.0424 -0.0087 -1.0712
  295MOL0     H40694   2.805   4.105   6.509  0.2267 -0.2122  1.1011
  295MOL0     H40695   2.863   3.854   6.502  1.0039 -0.6118  1.5334
  295MOL0     H40696   3.069   3.420   6.581  1.3086 -0.8517  1.7916
  295MOL0     H40697   3.051   3.190   6.520  1.2775  1.7432  1.8249
  295MOL0     H40698   2.663   3.044   6.367 -1.0042  1.8841  1.8000
  295MOL0     H40699   2.744   2.886   6.385  2.6922 -0.9315  4.4643
  295MOL0     H40700   2.668   3.031   6.644 -0.5774 -0.9640  1.2635
  295MOL0     H40701   2.704   2.866   6.610  1.1213  0.9593 -0.2172
  295MOL0     H40702   2.447   3.016   6.546 -1.0891 -1.0627  0.5952
  295MOL0     H40703   2.481   2.868   6.460 -2.4600 -1.4197  0.7354
  295MOL0     H40704   2.494   2.736   6.682  1.3134 -0.7008 -1.0790
  295MOL0     H40705   2.348   2.826   6.666  0.7100  0.3018 -2.3424
  295MOL0     H40706   2.538   2.962   7.021 -2.3346  0.8080  0.9549
  295MOL0     H40707   2.625   3.215   6.526  0.3154 -0.8677  2.1746
  295MOL0     H40708   2.572   3.494   6.473 -0.4118 -0.1190  0.1500
  295MOL0     H40709   2.508   3.385   6.598 -0.0246 -0.6800  0.5409
  295MOL0     H40710   2.588   3.520   6.655  2.4335 -0.1857  0.0232
  296MOL0     O40711   7.760  10.081   5.617  0.0245  0.4515 -0.4015
  296MOL0     C40712   7.849  10.144   5.568  0.0727 -1.2360  0.6473
  296MOL0     O40713   7.840  10.207   5.444 -1.1613 -0.1309 -0.1763
  296MOL0     C40714   7.944  10.179   5.362  0.1127 -0.5349 -0.1022
  296MOL0     C40715   7.952  10.050   5.310  0.2250  0.2992  0.3173
  296MOL0     C40716   8.066  10.006   5.230 -0.0015 -0.2731 -1.0967
  296MOL0     C40717   8.168  10.104   5.202 -0.2168 -0.3220  0.8039
  296MOL0     O40718   8.297  10.094   5.141 -0.7549  0.6726  0.8147
  296MOL0     C40719   8.298  10.008   5.024 -1.3621  0.2945  0.2464
  296MOL0     C40720   8.437   9.991   4.963 -0.3224 -0.2192  0.5374
  296MOL0     C40721   8.488  10.109   4.874  0.6693  0.1049 -0.0307
  296MOL0     C40722   8.629  10.104   4.851  0.4533 -0.1039  0.8236
  296MOL0     C40723   8.670  10.210   4.749  0.3609 -0.1065  0.0780
  296MOL0     C40724   8.665  10.361   4.792  0.1407  0.3111 -0.3735
  296MOL0     C40725   8.723  10.467   4.691  0.4239 -0.9005 -0.9804
  296MOL0     C40726   8.681  10.614   4.733  0.4021 -0.3946 -0.7847
  296MOL0     N40727   8.783  10.682   4.812  0.8608 -0.1979  0.0333
  296MOL0     C40728   8.898  10.717   4.757 -0.0813 -0.8408  0.5438
  296MOL0     C40729   8.992  10.724   4.853 -0.8496  0.7809 -0.5116
  296MOL0     C40730   9.137  10.773   4.832  0.1642  0.6177 -0.1503
  296MOL0     C40731   9.236  10.716   4.949 -0.3786 -0.3225  0.4435
  296MOL0     C40732   9.210  10.791   5.076 -0.3365  0.4115  0.0542
  296MOL0     C40733   9.326  10.749   5.179  0.9380 -0.2846  0.3118
  296MOL0     O40734   9.315  10.837   5.297  0.1245  0.6970  0.1101
  296MOL0     C40735   9.376  10.773   5.399 -0.7135 -0.3468 -0.5496
  296MOL0     C40736   9.315  10.711   5.504  0.6998 -1.3436  0.0722
  296MOL0     C40737   9.384  10.659   5.614  0.5868 -0.0989 -0.3741
  296MOL0     C40738   9.301  10.572   5.710 -0.1455 -0.1576  0.4768
  296MOL0     C40739   9.522  10.671   5.626 -0.6437  0.9968  0.2743
  296MOL0     C40740   9.606  10.623   5.738 -0.2430  0.0980 -0.4179
  296MOL0     O40741   9.737  10.679   5.738  0.3828  0.0921 -0.7449
  296MOL0     C40742   9.824  10.635   5.835  0.0085  0.2259 -0.5789
  296MOL0     C40743   9.841  10.713   5.950  0.2827  0.2568 -0.8737
  296MOL0     C40744   9.957  10.676   6.026  0.0050  0.2534  0.5593
  296MOL0     C40745  10.038  10.571   5.993  0.0904 -0.5167 -0.4906
  296MOL0     O40746  10.149  10.539   6.070  0.5024  0.3258 -0.4976
  296MOL0     C40747  10.221  10.644   6.143  0.9812 -0.2447 -0.5663
  296MOL0     C40748  10.364  10.612   6.174 -0.3493  0.1854  0.2195
  296MOL0     C40749  10.442  10.742   6.209 -0.6155 -0.3140 -0.5771
  296MOL0     C40750  10.381  10.855   6.300  0.1192  1.1303 -0.3903
  296MOL0     C40751  10.389  10.805   6.443 -0.2248 -0.5410  0.9224
  296MOL0     C40752  10.307  10.896   6.548 -0.3289 -0.8290 -0.2729
  296MOL0     C40753  10.301  10.858   6.697 -0.8520  0.1081  0.8825
  296MOL0     C40754  10.219  10.725   6.719 -0.4477  0.8554  0.9338
  296MOL0    Cl40755  10.230  10.674   6.882 -0.2868 -0.2165  0.5847
  296MOL0     C40756  10.010  10.493   5.877 -0.6104 -0.2061  0.1477
  296MOL0     C40757   9.904  10.527   5.796  0.1068 -0.2580 -0.8694
  296MOL0     O40758   9.565  10.542   5.812  0.2383  0.1149  0.5147
  296MOL0     C40759   9.589  10.730   5.513  0.9583 -0.0588 -0.4069
  296MOL0     C40760   9.519  10.777   5.404 -0.0416  0.2489 -0.2902
  296MOL0     N40761   8.925  10.707   4.965  0.0208 -0.1830 -0.2513
  296MOL0     N40762   8.806  10.662   4.945  0.3766  0.1891  0.0619
  296MOL0     C40763   8.147  10.233   5.246  0.1032 -0.7022  0.8777
  296MOL0     C40764   8.040  10.277   5.323 -0.0851 -0.0160 -0.0511
  296MOL0     C40765   7.980  10.152   5.640 -0.0956 -0.1861 -0.2478
  296MOL0     C40766   8.061  10.045   5.637  0.5168  0.0381  0.3131
  296MOL0     C40767   8.187  10.050   5.676  0.0081  0.6032 -0.2769
  296MOL0     C40768   8.246  10.169   5.713  0.0754  0.3824 -0.0731
  296MOL0     O40769   8.376  10.189   5.756 -0.9749  0.3940  0.2117
  296MOL0     C40770   8.468  10.084   5.748 -0.2974  0.4314  0.1449
  296MOL0     C40771   8.533  10.077   5.603  0.1519 -0.2197 -0.9878
  296MOL0     C40772   8.619  10.202   5.578  0.7639 -0.3411 -0.9181
  296MOL0     C40773   8.564  10.292   5.474  0.1673 -0.4363 -0.3767
  296MOL0     C40774   8.605  10.237   5.342 -0.0813 -0.0157 -1.0985
  296MOL0     C40775   8.647  10.196   5.237  0.3413 -0.4949  0.3693
  296MOL0     C40776   8.167  10.288   5.720  0.1256 -0.0675 -0.0258
  296MOL0     C40777   8.033  10.274   5.686  0.1287 -0.3984  0.8057
  296MOL0     C40778   7.945  10.393   5.711 -0.1895  0.7354  0.4677
  296MOL0     H40779   7.881   9.971   5.330 -0.3466 -0.1482 -2.8848
  296MOL0     H40780   8.063   9.902   5.201  2.9071 -1.0398  0.8690
  296MOL0     H40781   8.237  10.054   4.945  0.6983 -2.2785 -3.0988
  296MOL0     H40782   8.244   9.916   5.048 -0.6575  0.3209  2.0650
  296MOL0     H40783   8.503   9.985   5.050 -2.5703 -0.7516  2.3077
  296MOL0     H40784   8.431   9.895   4.912 -1.7027  1.3302 -2.4907
  296MOL0     H40785   8.431  10.106   4.781 -3.3231 -2.3934  2.2057
  296MOL0     H40786   8.462  10.210   4.909  1.2178  0.4245 -0.5284
  296MOL0     H40787   8.690  10.109   4.942  2.1652 -1.3778 -0.1944
  296MOL0     H40788   8.643  10.006   4.803  1.1202  0.7193 -0.7385
  296MOL0     H40789   8.595  10.210   4.669 -0.6002  2.2571  0.9049
  296MOL0     H40790   8.769  10.181   4.712  0.2275 -1.6759  0.8495
  296MOL0     H40791   8.559  10.376   4.812 -0.2376  0.6812 -2.4182
  296MOL0     H40792   8.725  10.371   4.883  0.5075 -1.5639 -0.3670
  296MOL0     H40793   8.692  10.452   4.588  0.8963  2.9831 -1.8444
  296MOL0     H40794   8.832  10.467   4.705  0.4851  1.8982 -0.9806
  296MOL0     H40795   8.673  10.678   4.645 -3.2773  2.7682  1.5546
  296MOL0     H40796   8.589  10.612   4.792  2.7084 -0.6688  3.1328
  296MOL0     H40797   8.925  10.734   4.654 -0.1377 -2.0577  0.3063
  296MOL0     H40798   9.147  10.882   4.825  1.4861  0.4816 -0.6698
  296MOL0     H40799   9.176  10.744   4.734  0.7175  3.6828 -0.9290
  296MOL0     H40800   9.207  10.611   4.959  0.9925 -0.9757 -1.6320
  296MOL0     H40801   9.342  10.726   4.923 -0.4624 -0.2033  0.1500
  296MOL0     H40802   9.221  10.897   5.051  0.9588  0.3029  0.1113
  296MOL0     H40803   9.113  10.772   5.124 -1.1086 -0.1423 -1.6581
  296MOL0     H40804   9.303  10.644   5.201  3.5470 -0.9501  0.1822
  296MOL0     H40805   9.425  10.752   5.133  0.4903 -1.2795 -0.7827
  296MOL0     H40806   9.207  10.718   5.498  0.6908 -2.1441 -0.8055
  296MOL0     H40807   9.275  10.625   5.802 -3.4424  0.2049 -0.5395
  296MOL0     H40808   9.345  10.473   5.724 -1.7966 -0.6432  2.8420
  296MOL0     H40809   9.207  10.553   5.658  0.7645 -0.6526 -1.0684
  296MOL0     H40810   9.772  10.794   5.970 -0.0826  0.1798 -1.7651
  296MOL0     H40811   9.982  10.733   6.116  0.0455 -0.7505  1.1989
  296MOL0     H40812  10.222  10.732   6.079  4.0744  0.5918  0.4541
  296MOL0     H40813  10.176  10.646   6.243 -1.6897 -3.5351 -1.4911
  296MOL0     H40814  10.369  10.557   6.268 -0.8752  1.9495  1.3257
  296MOL0     H40815  10.406  10.551   6.093 -0.4738  1.2888 -0.7064
  296MOL0     H40816  10.457  10.783   6.109 -0.4268  0.9104 -0.0643
  296MOL0     H40817  10.542  10.723   6.250 -0.4932  1.7810  0.2045
  296MOL0     H40818  10.277  10.870   6.268 -0.9510 -1.0784  1.8125
  296MOL0     H40819  10.449  10.941   6.297 -0.1568  1.3496 -0.5512
  296MOL0     H40820  10.338  10.709   6.442  0.1006 -0.8036  3.4581
  296MOL0     H40821  10.492  10.805   6.480 -1.1258  0.5407  3.6896
  296MOL0     H40822  10.202  10.907   6.517 -1.9131 -1.2223  4.1969
  296MOL0     H40823  10.344  10.999   6.546  1.2603 -1.3381  1.0005
  296MOL0     H40824  10.257  10.945   6.746  4.4759  3.1360  1.1329
  296MOL0     H40825  10.405  10.842   6.728 -0.7333 -2.1153 -0.4154
  296MOL0     H40826  10.272  10.642   6.671 -0.7287  0.2989  1.5648
  296MOL0     H40827  10.115  10.735   6.689 -0.0296  0.1649 -0.8428
  296MOL0     H40828  10.068  10.404   5.855 -3.0328 -2.1148  0.9761
  296MOL0     H40829   9.883  10.467   5.708 -2.3924  0.8062 -1.0823
  296MOL0     H40830   9.697  10.740   5.524  1.5582 -5.0723  0.9762
  296MOL0     H40831   9.584  10.833   5.338  1.2363 -1.6390 -0.7034
  296MOL0     H40832   8.229  10.298   5.219 -0.6094  0.0191  0.4213
  296MOL0     H40833   8.034  10.379   5.360  1.6181  0.5500 -1.1898
  296MOL0     H40834   8.011   9.958   5.595  2.4348 -0.0389 -2.0008
  296MOL0     H40835   8.236   9.953   5.679  0.0946  0.5414 -2.1803
  296MOL0     H40836   8.553  10.102   5.814  1.5117 -0.7629 -1.7330
  296MOL0     H40837   8.425   9.988   5.778 -0.4380  0.9087  1.5034
  296MOL0     H40838   8.458  10.059   5.525  0.5022 -2.2181 -0.9058
  296MOL0     H40839   8.604   9.995   5.590  1.4373  0.5379  0.8624
  296MOL0     H40840   8.638  10.267   5.664  1.4929 -1.2454 -0.3851
  296MOL0     H40841   8.719  10.173   5.544  1.0633  0.7985 -1.0567
  296MOL0     H40842   8.601  10.394   5.491 -2.1742  0.2130  1.2859
  296MOL0     H40843   8.455  10.298   5.469  0.1047  0.3789  1.2917
  296MOL0     H40844   8.687  10.160   5.145  0.2650 -1.2531  0.6281
  296MOL0     H40845   8.217  10.375   5.759  1.5229 -0.3858 -1.0424
  296MOL0     H40846   7.850  10.356   5.750  0.2506 -0.2911  0.6027
  296MOL0     H40847   7.981  10.461   5.788 -1.6268  2.7595 -0.5530
  296MOL0     H40848   7.932  10.456   5.622  1.0058 -2.1974 -1.9538
  297MOL0     O40849   6.608   2.574   4.413 -0.1511 -0.6381 -0.1219
  297MOL0     C40850   6.684   2.607   4.330 -0.1696  0.2332  0.3787
  297MOL0     O40851   6.710   2.534   4.218 -0.4608 -0.3002 -0.0397
  297MOL0     C40852   6.655   2.411   4.214  0.5599  0.8740  0.2258
  297MOL0     C40853   6.534   2.386   4.142 -0.5096 -0.2863 -0.2081
  297MOL0     C40854   6.492   2.252   4.122 -0.3403 -0.4171  0.0337
  297MOL0     C40855   6.557   2.147   4.185 -0.0407 -0.3420 -0.0045
  297MOL0     O40856   6.495   2.028   4.164 -0.9280  0.8831 -0.0715
  297MOL0     C40857   6.529   1.923   4.254  0.3476  0.7897 -0.1984
  297MOL0     C40858   6.453   1.795   4.207 -0.5610 -0.5419  0.4358
  297MOL0     C40859   6.482   1.678   4.289  0.3633 -0.4659  0.1751
  297MOL0     C40860   6.467   1.694   4.440 -0.7166 -0.8621  0.4693
  297MOL0     C40861   6.506   1.563   4.507 -0.2077  1.3337 -1.1660
  297MOL0     C40862   6.652   1.540   4.531 -0.5624  0.4791  0.3632
  297MOL0     C40863   6.678   1.415   4.614  1.5415  0.5349  0.1373
  297MOL0     C40864   6.810   1.443   4.685 -0.2832 -0.1263 -0.2308
  297MOL0     N40865   6.928   1.454   4.603 -1.2365  0.0691 -0.3558
  297MOL0     C40866   6.960   1.363   4.509 -0.8935 -0.5304 -0.1018
  297MOL0     C40867   7.088   1.387   4.474 -0.6728  0.5806  0.8393
  297MOL0     C40868   7.170   1.305   4.385 -0.6862 -0.4808  0.2519
  297MOL0     C40869   7.104   1.263   4.255  0.7048 -0.0739  0.5128
  297MOL0     C40870   7.197   1.155   4.173 -0.0225  0.0278  0.1322
  297MOL0     C40871   7.146   1.148   4.027  0.8906  0.6723 -0.6829
  297MOL0     O40872   7.227   1.057   3.961 -0.0369  0.5480 -0.0129
  297MOL0     C40873   7.223   1.022   3.827 -0.2451  0.2843 -0.0386
  297MOL0     C40874   7.104   1.036   3.759  0.3572 -1.1688 -0.3760
  297MOL0     C40875   7.077   0.992   3.623 -0.0274 -0.6211 -0.6090
  297MOL0     C40876   6.932   1.016   3.569 -0.3984 -0.5284 -1.0045
  297MOL0     C40877   7.185   0.915   3.565  0.4288 -0.2826 -0.5084
  297MOL0     C40878   7.160   0.842   3.447  0.4087  0.6024  0.0803
  297MOL0     O40879   7.086   0.897   3.345 -0.3413 -0.9525 -0.6253
  297MOL0     C40880   7.094   0.825   3.228  0.5726  0.6802  0.3340
  297MOL0     C40881   7.200   0.832   3.140  0.3329  1.4245 -0.6191
  297MOL0     C40882   7.217   0.745   3.036 -0.7218  0.9292 -0.1803
  297MOL0     C40883   7.112   0.657   3.006  0.7529  0.0639 -0.9650
  297MOL0     O40884   7.123   0.575   2.893  0.4002 -0.4721 -0.4439
  297MOL0     C40885   7.047   0.450   2.891 -1.3289 -0.1956 -0.0761
  297MOL0     C40886   7.145   0.361   2.810  0.2233 -0.4764  0.7059
  297MOL0     C40887   7.197   0.442   2.684 -0.6933 -0.2449 -0.3867
  297MOL0     C40888   7.276   0.340   2.605  0.3800 -0.5855  0.1179
  297MOL0     C40889   7.353   0.401   2.492  0.7643 -0.0296  0.0207
  297MOL0     C40890   7.451   0.516   2.526  0.5118 -0.3250 -0.2124
  297MOL0     C40891   7.556   0.473   2.622  0.1119 -0.0842  0.6999
  297MOL0     C40892   7.647   0.596   2.653  0.4159 -0.2218 -0.3533
  297MOL0    Cl40893   7.548   0.724   2.739 -0.0726  0.2487 -0.0322
  297MOL0     C40894   6.987   0.674   3.079 -0.1640  0.5575 -0.0929
  297MOL0     C40895   6.982   0.755   3.195  0.5050 -0.4231  0.5045
  297MOL0     O40896   7.219   0.728   3.434 -0.0609  0.3214 -0.6179
  297MOL0     C40897   7.304   0.903   3.633 -0.6838  0.0810  1.0050
  297MOL0     C40898   7.324   0.954   3.763  0.4555  0.2461 -0.3854
  297MOL0     N40899   7.135   1.491   4.546  0.6933  0.3173 -0.1919
  297MOL0     N40900   7.044   1.527   4.635 -0.4358  0.0351  0.5667
  297MOL0     C40901   6.666   2.178   4.266 -0.6426  0.0663  0.4224
  297MOL0     C40902   6.715   2.307   4.283  0.6209 -0.1859 -0.5787
  297MOL0     C40903   6.764   2.730   4.348 -1.2584 -0.0023  0.4232
  297MOL0     C40904   6.819   2.779   4.232  0.6188 -0.3008 -0.8251
  297MOL0     C40905   6.902   2.892   4.223 -0.0048 -0.2850 -0.6498
  297MOL0     C40906   6.944   2.952   4.337  0.0617  0.4378  0.1211
  297MOL0     O40907   7.037   3.062   4.330 -0.0710 -0.0866  0.0111
  297MOL0     C40908   7.036   3.165   4.434 -0.1739  0.1532  0.3163
  297MOL0     C40909   7.085   3.299   4.383 -0.0123 -0.0778  0.0628
  297MOL0     C40910   7.235   3.307   4.358  0.3786 -0.0219 -0.1824
  297MOL0     C40911   7.282   3.275   4.216  0.6919  0.2579  0.0590
  297MOL0     C40912   7.226   3.375   4.114 -0.1111 -0.3930 -0.2709
  297MOL0     C40913   7.176   3.447   4.032  0.4126 -0.8021  0.1269
  297MOL0     C40914   6.894   2.911   4.457  0.0466 -1.2974  0.1297
  297MOL0     C40915   6.799   2.805   4.465 -0.4688 -0.3640  0.1474
  297MOL0     C40916   6.743   2.779   4.604 -0.4215  0.1602  0.0857
  297MOL0     H40917   6.492   2.479   4.105 -1.2731 -0.7699 -0.5819
  297MOL0     H40918   6.396   2.224   4.081 -0.7585  1.9200 -0.7299
  297MOL0     H40919   6.492   1.959   4.350 -0.2923  1.8417 -0.8291
  297MOL0     H40920   6.637   1.904   4.263  0.0918 -2.0204 -1.8664
  297MOL0     H40921   6.346   1.814   4.212 -0.9024 -2.0971 -0.3071
  297MOL0     H40922   6.481   1.774   4.103  1.7595 -1.7553  1.2360
  297MOL0     H40923   6.422   1.596   4.251 -0.4740  0.5761 -0.8074
  297MOL0     H40924   6.587   1.655   4.266 -0.5791 -1.6482 -3.7893
  297MOL0     H40925   6.546   1.769   4.458 -0.1695 -0.3421 -3.2974
  297MOL0     H40926   6.366   1.721   4.472 -1.6494 -1.0622 -2.1223
  297MOL0     H40927   6.477   1.478   4.445  2.9367 -0.6863 -0.1296
  297MOL0     H40928   6.447   1.564   4.599  0.7513 -1.8448 -0.3791
  297MOL0     H40929   6.700   1.525   4.434 -1.6949 -1.3736  0.0279
  297MOL0     H40930   6.691   1.625   4.587  3.3846 -0.3161 -0.8343
  297MOL0     H40931   6.668   1.316   4.567  0.7250  0.4508  0.4600
  297MOL0     H40932   6.606   1.400   4.695 -1.9280 -2.9820 -3.1295
  297MOL0     H40933   6.807   1.527   4.755  0.9510  0.1806 -0.5199
  297MOL0     H40934   6.826   1.364   4.758 -2.4926  0.6996  1.2597
  297MOL0     H40935   6.909   1.272   4.479 -3.7341  1.3473 -1.3790
  297MOL0     H40936   7.198   1.212   4.434 -2.0034 -0.5267  0.9636
  297MOL0     H40937   7.267   1.354   4.368  1.2471 -3.3299  2.1861
  297MOL0     H40938   7.007   1.219   4.278  1.0036 -0.6086  0.7473
  297MOL0     H40939   7.079   1.344   4.186 -0.5018 -1.2287 -0.4338
  297MOL0     H40940   7.302   1.183   4.181  0.0324  0.1354 -0.8776
  297MOL0     H40941   7.203   1.057   4.221  4.7885  0.1753  0.3317
  297MOL0     H40942   7.039   1.127   4.031  0.7827  1.3723  0.9478
  297MOL0     H40943   7.152   1.244   3.976 -0.9730 -0.1173 -2.5295
  297MOL0     H40944   7.020   1.088   3.803 -0.1175 -2.3767  0.1842
  297MOL0     H40945   6.927   1.008   3.460 -3.2432 -1.6013 -0.8684
  297MOL0     H40946   6.906   1.119   3.593 -1.5775 -0.7040 -1.4743
  297MOL0     H40947   6.855   0.946   3.603 -2.1697  1.3249 -1.0393
  297MOL0     H40948   7.276   0.904   3.169  0.4312  0.4596  1.7120
  297MOL0     H40949   7.294   0.757   2.961 -1.3513  2.6456 -0.5892
  297MOL0     H40950   7.036   0.421   2.996  0.1187  0.5541  0.3151
  297MOL0     H40951   6.948   0.450   2.845 -0.8189 -1.6436 -1.2370
  297MOL0     H40952   7.227   0.342   2.880 -0.2129 -0.8629  1.1150
  297MOL0     H40953   7.090   0.272   2.779 -0.6768 -0.8059  3.0082
  297MOL0     H40954   7.267   0.521   2.712 -0.3088 -0.3285 -1.0838
  297MOL0     H40955   7.110   0.485   2.634 -1.2679 -2.6627 -1.6690
  297MOL0     H40956   7.206   0.269   2.559  0.7540  0.5225 -2.3278
  297MOL0     H40957   7.347   0.284   2.667  1.9434  0.0048 -1.0554
  297MOL0     H40958   7.407   0.320   2.442  0.9029  1.6103 -2.7262
  297MOL0     H40959   7.284   0.446   2.419 -1.7105  1.2718  2.9467
  297MOL0     H40960   7.399   0.608   2.553  0.4602 -1.3244  3.5907
  297MOL0     H40961   7.512   0.523   2.436  0.8701 -2.9395 -0.2547
  297MOL0     H40962   7.616   0.394   2.577  1.4487  1.3502 -0.1256
  297MOL0     H40963   7.510   0.425   2.709  0.7061 -3.3193 -0.6188
  297MOL0     H40964   7.678   0.652   2.564 -2.5326 -2.2547 -2.8804
  297MOL0     H40965   7.724   0.550   2.715 -1.9366 -2.5866  1.0814
  297MOL0     H40966   6.905   0.604   3.070  2.4558 -3.0419  1.7040
  297MOL0     H40967   6.906   0.762   3.273  0.0754 -0.0726  0.0649
  297MOL0     H40968   7.389   0.850   3.592 -1.0337 -0.9442  1.5815
  297MOL0     H40969   7.410   0.935   3.826  1.9415 -0.5553 -2.5427
  297MOL0     H40970   6.722   2.089   4.295 -2.3944 -1.6245 -1.0571
  297MOL0     H40971   6.801   2.324   4.347 -0.8702 -1.0214  1.7917
  297MOL0     H40972   6.792   2.749   4.131  0.6992  0.1662 -0.9913
  297MOL0     H40973   6.927   2.930   4.125  0.6252  0.1432 -0.3254
  297MOL0     H40974   6.930   3.181   4.459 -0.2501 -1.0828  0.8571
  297MOL0     H40975   7.108   3.135   4.511  0.4045  0.4199 -0.1177
  297MOL0     H40976   7.068   3.376   4.458  1.1551  3.1149 -2.6950
  297MOL0     H40977   7.028   3.329   4.294  0.6346  1.7142  0.2242
  297MOL0     H40978   7.252   3.415   4.354  3.2881 -0.3264  1.3473
  297MOL0     H40979   7.292   3.256   4.436 -0.6373  0.4972  0.9526
  297MOL0     H40980   7.260   3.171   4.191 -0.2857 -0.3421  2.9654
  297MOL0     H40981   7.391   3.273   4.212  0.7474 -3.0448  0.3630
  297MOL0     H40982   7.140   3.516   3.959  3.1572 -1.2594 -1.8611
  297MOL0     H40983   6.917   2.965   4.548  0.0528  2.2525 -1.8047
  297MOL0     H40984   6.806   2.821   4.683  1.2076  0.1447 -1.1349
  297MOL0     H40985   6.642   2.818   4.618  0.0889  1.6046 -0.0438
  297MOL0     H40986   6.733   2.672   4.624 -2.4459  0.4259  0.7124
  298MOL0     O40987   5.197   9.062  10.548 -0.2948 -0.1258  0.0048
  298MOL0     C40988   5.215   8.986  10.636  0.6602 -0.0595 -0.5545
  298MOL0     O40989   5.276   8.865  10.619 -0.3369 -0.6574  0.7824
  298MOL0     C40990   5.304   8.808  10.495  0.3708 -0.3919  0.5243
  298MOL0     C40991   5.380   8.871  10.396 -0.4602  0.7049 -0.3775
  298MOL0     C40992   5.396   8.810  10.273 -0.0273  0.2268  0.9871
  298MOL0     C40993   5.339   8.678  10.249 -0.1474 -0.4343  0.4394
  298MOL0     O40994   5.360   8.616  10.126  0.6116  0.2642  0.3580
  298MOL0     C40995   5.321   8.679  10.001 -0.3355  0.0242 -0.4528
  298MOL0     C40996   5.211   8.597   9.938 -0.1972 -0.0075 -0.4674
  298MOL0     C40997   5.237   8.447   9.942  0.7416 -0.3572  0.0649
  298MOL0     C40998   5.343   8.407   9.841  0.6343 -0.4431 -0.7734
  298MOL0     C40999   5.362   8.254   9.846  0.2676 -0.3518  0.1499
  298MOL0     C41000   5.503   8.218   9.799 -0.3747  0.4946 -0.2251
  298MOL0     C41001   5.515   8.068   9.814 -0.7688 -0.3724 -0.5022
  298MOL0     C41002   5.402   7.971   9.777 -0.0919 -0.1414 -0.7320
  298MOL0     N41003   5.367   7.968   9.641  0.1342  0.0501  0.7333
  298MOL0     C41004   5.445   7.916   9.552  0.6576  0.3529 -0.1816
  298MOL0     C41005   5.364   7.900   9.442 -0.6790 -0.8059 -0.4100
  298MOL0     C41006   5.393   7.826   9.320 -0.4444  0.8358 -0.1419
  298MOL0     C41007   5.504   7.903   9.244  0.1864  0.5581  0.5824
  298MOL0     C41008   5.515   7.837   9.104 -1.0210 -0.0865  0.7935
  298MOL0     C41009   5.395   7.842   9.019 -0.3836 -0.3588  0.0528
  298MOL0     O41010   5.405   7.767   8.899 -0.2802 -0.9005 -0.4330
  298MOL0     C41011   5.302   7.766   8.815 -1.1894  0.0988 -0.5719
  298MOL0     C41012   5.335   7.741   8.681 -0.4451 -0.2954  0.1325
  298MOL0     C41013   5.239   7.725   8.581 -0.1981 -0.4671  0.1498
  298MOL0     C41014   5.289   7.675   8.439 -0.2905  0.2300 -0.7957
  298MOL0     C41015   5.105   7.739   8.608  0.4669  0.4753 -0.0398
  298MOL0     C41016   4.998   7.724   8.511 -0.9071 -0.9783 -0.0715
  298MOL0     O41017   4.885   7.675   8.561 -0.4885  0.0579  0.5356
  298MOL0     C41018   4.789   7.634   8.472  0.7047 -0.3946  0.1871
  298MOL0     C41019   4.714   7.530   8.523  0.0686 -0.3502 -0.0601
  298MOL0     C41020   4.607   7.480   8.452 -0.0007 -0.2947 -0.3569
  298MOL0     C41021   4.577   7.531   8.325  0.1556  0.8199  1.5597
  298MOL0     O41022   4.477   7.462   8.262 -0.4352 -0.1424 -0.1386
  298MOL0     C41023   4.428   7.509   8.141  0.6377 -1.0146  0.1265
  298MOL0     C41024   4.319   7.415   8.088 -0.1658  0.6862 -0.3693
  298MOL0     C41025   4.365   7.270   8.080  0.0434  0.1683  0.0305
  298MOL0     C41026   4.294   7.181   7.970  0.1250  0.2749 -0.1155
  298MOL0     C41027   4.360   7.040   7.962  0.0911 -0.6411  0.7223
  298MOL0     C41028   4.299   6.954   7.849 -0.6278  0.0664  0.1005
  298MOL0     C41029   4.399   6.840   7.808  0.8961 -0.1386 -0.3900
  298MOL0     C41030   4.329   6.783   7.689  1.3608  0.6345  0.0266
  298MOL0    Cl41031   4.191   6.679   7.743 -0.0639  0.0348 -0.3117
  298MOL0     C41032   4.652   7.640   8.269 -0.3306 -0.4877  0.3691
  298MOL0     C41033   4.755   7.695   8.348  0.7091 -0.2178  0.1747
  298MOL0     O41034   5.025   7.763   8.391 -0.2159  0.0558 -0.3378
  298MOL0     C41035   5.074   7.755   8.743  0.4990 -1.2218 -0.7398
  298MOL0     C41036   5.171   7.770   8.846  0.3876 -0.5057 -0.3962
  298MOL0     N41037   5.244   7.960   9.463 -0.2337  0.4006  0.8339
  298MOL0     N41038   5.246   8.002   9.584  0.1242  0.1762 -0.7787
  298MOL0     C41039   5.271   8.620  10.347  0.4493  0.7795 -0.1258
  298MOL0     C41040   5.253   8.681  10.473  0.1876  0.2040  0.0293
  298MOL0     C41041   5.153   9.005  10.774  0.2215  0.4965 -0.6922
  298MOL0     C41042   5.165   8.911  10.880 -0.1138  1.1300 -1.4475
  298MOL0     C41043   5.111   8.928  11.007  0.0788  0.0384 -0.2928
  298MOL0     C41044   5.032   9.040  11.037 -0.8659  0.2771  0.6806
  298MOL0     O41045   4.975   9.044  11.157 -0.2014 -1.0356 -0.2015
  298MOL0     C41046   5.071   9.079  11.259 -0.0314  0.2684 -0.3853
  298MOL0     C41047   5.036   9.221  11.310 -0.1669 -0.4065 -0.0015
  298MOL0     C41048   4.953   9.210  11.434 -0.0528  0.6134  1.1151
  298MOL0     C41049   4.889   9.346  11.451  0.7784  0.3413 -0.5688
  298MOL0     C41050   4.815   9.348  11.580 -0.3634  0.0913  0.3707
  298MOL0     C41051   4.766   9.327  11.692 -0.2241  0.0331  0.4725
  298MOL0     C41052   5.015   9.132  10.936 -0.0367  0.0495  0.6179
  298MOL0     C41053   5.090   9.126  10.819  0.0868 -0.5442  0.5866
  298MOL0     C41054   5.087   9.252  10.741 -0.3947  0.2118  1.0618
  298MOL0     H41055   5.438   8.961  10.417 -0.3037  0.9765 -1.8632
  298MOL0     H41056   5.463   8.836  10.191  1.0759 -0.1735  1.7309
  298MOL0     H41057   5.418   8.675   9.949  1.7476 -0.4202  3.1168
  298MOL0     H41058   5.295   8.785   9.995  0.3572  0.1997 -0.5264
  298MOL0     H41059   5.114   8.616   9.984  0.7242 -0.9352  2.0794
  298MOL0     H41060   5.199   8.630   9.835  0.9609  2.3347  0.0863
  298MOL0     H41061   5.267   8.412  10.041  1.0899  1.9398  0.8342
  298MOL0     H41062   5.141   8.399   9.922  0.6960 -0.1858 -0.1388
  298MOL0     H41063   5.329   8.445   9.739 -0.3829 -0.0725 -0.5035
  298MOL0     H41064   5.431   8.456   9.881 -0.7734 -0.3295  2.4238
  298MOL0     H41065   5.284   8.215   9.780  1.8867 -0.9025 -1.5432
  298MOL0     H41066   5.347   8.213   9.946  2.6496 -0.8670  0.3741
  298MOL0     H41067   5.529   8.261   9.702 -0.8075  0.6149 -0.2905
  298MOL0     H41068   5.583   8.263   9.857  1.4215  2.5014 -3.9248
  298MOL0     H41069   5.539   8.046   9.918 -4.3911  0.1091  0.5758
  298MOL0     H41070   5.603   8.040   9.754  0.4085  0.0393  0.9614
  298MOL0     H41071   5.422   7.871   9.815  0.7630  0.7772  1.4270
  298MOL0     H41072   5.318   8.012   9.835  1.1440 -0.9473  1.8063
  298MOL0     H41073   5.546   7.878   9.567 -0.0462 -0.5332  3.0073
  298MOL0     H41074   5.302   7.804   9.264  0.5776 -0.3500 -1.4056
  298MOL0     H41075   5.439   7.728   9.340  3.0446  1.9965 -1.5547
  298MOL0     H41076   5.476   8.008   9.231  0.2254  0.5646  0.5558
  298MOL0     H41077   5.604   7.889   9.285  1.0819 -3.9162 -2.3670
  298MOL0     H41078   5.596   7.886   9.050  0.0887 -1.9990  0.6285
  298MOL0     H41079   5.543   7.731   9.103  1.0852  0.4179 -0.3088
  298MOL0     H41080   5.305   7.803   9.068 -1.6183  1.8026 -0.3786
  298MOL0     H41081   5.377   7.946   8.989  0.2229  0.1221  1.2728
  298MOL0     H41082   5.440   7.721   8.661  0.2584  0.4592  2.6601
  298MOL0     H41083   5.387   7.626   8.448  0.6093  1.5749 -2.4950
  298MOL0     H41084   5.299   7.762   8.373 -1.5775  1.0083 -0.0035
  298MOL0     H41085   5.212   7.609   8.399  0.4126 -0.7416 -0.5853
  298MOL0     H41086   4.729   7.498   8.625 -2.7904 -1.8259 -0.0127
  298MOL0     H41087   4.543   7.402   8.493 -1.2275  0.5093 -0.6812
  298MOL0     H41088   4.386   7.610   8.147  0.5927 -1.0031 -0.3643
  298MOL0     H41089   4.501   7.515   8.060 -1.4580  1.6725 -1.7732
  298MOL0     H41090   4.235   7.420   8.158 -0.2398  2.3190 -0.5462
  298MOL0     H41091   4.280   7.457   7.995 -1.0563  0.5322 -0.0796
  298MOL0     H41092   4.355   7.226   8.180 -0.7212 -1.0426 -0.5466
  298MOL0     H41093   4.471   7.266   8.051  0.0983 -0.0941  0.2579
  298MOL0     H41094   4.304   7.227   7.872 -3.2932  0.9885 -0.2281
  298MOL0     H41095   4.191   7.157   7.998 -0.3400 -0.5600 -2.3373
  298MOL0     H41096   4.467   7.062   7.952 -0.0551  0.5824  1.5589
  298MOL0     H41097   4.347   6.978   8.052  2.4811 -0.7843  1.0578
  298MOL0     H41098   4.285   7.023   7.765  2.2359 -2.3628 -2.6398
  298MOL0     H41099   4.204   6.909   7.877 -0.3459 -0.8880 -0.4338
  298MOL0     H41100   4.421   6.766   7.886  2.3006  0.4067 -0.2411
  298MOL0     H41101   4.491   6.883   7.769  0.3971  0.7596 -0.6061
  298MOL0     H41102   4.395   6.724   7.625  1.4220 -0.6941  1.2551
  298MOL0     H41103   4.294   6.860   7.620  0.4782 -1.0347 -1.4611
  298MOL0     H41104   4.633   7.680   8.170 -0.7158 -3.2677 -0.7823
  298MOL0     H41105   4.799   7.782   8.302 -0.6455  1.3048  1.6206
  298MOL0     H41106   4.971   7.760   8.779  1.0842  1.9105  0.8232
  298MOL0     H41107   5.142   7.787   8.949  1.6051 -0.1832 -0.0872
  298MOL0     H41108   5.218   8.525  10.343 -0.3575  1.2316 -3.6320
  298MOL0     H41109   5.177   8.643  10.540 -0.7366 -0.0797 -1.1407
  298MOL0     H41110   5.217   8.817  10.864  0.7870  0.9223  1.8431
  298MOL0     H41111   5.113   8.860  11.092 -1.8644  0.9461  0.5734
  298MOL0     H41112   5.068   8.995  11.329 -1.6200 -3.6443 -4.5639
  298MOL0     H41113   5.169   9.088  11.211 -0.6705  0.1032 -1.7647
  298MOL0     H41114   4.991   9.276  11.227 -2.0720 -0.3576  1.0188
  298MOL0     H41115   5.134   9.262  11.337 -0.9772  1.4384  0.2741
  298MOL0     H41116   4.871   9.138  11.419  0.1033  0.8826 -1.4316
  298MOL0     H41117   5.016   9.173  11.515  0.6878  0.9631  0.7027
  298MOL0     H41118   4.814   9.348  11.371 -2.1685 -1.5344  1.9506
  298MOL0     H41119   4.957   9.430  11.430 -0.2625  1.6923  1.2067
  298MOL0     H41120   4.714   9.317  11.785 -3.5337 -2.0540 -1.4025
  298MOL0     H41121   4.951   9.218  10.956 -1.6215 -0.2297 -2.6468
  298MOL0     H41122   5.041   9.327  10.806 -3.2645  0.1615 -0.7536
  298MOL0     H41123   5.188   9.279  10.709 -0.4013  1.7260  2.2172
  298MOL0     H41124   5.033   9.239  10.647  0.2253  1.2144  0.5446
  299MOL0     O41125   3.861  11.155   2.726 -0.1301  0.5019 -0.5696
  299MOL0     C41126   3.852  11.057   2.795  0.0067  0.5226 -0.0011
  299MOL0     O41127   3.959  10.983   2.838  0.3841  0.7255 -0.0776
  299MOL0     C41128   4.090  11.016   2.829 -0.2725 -0.3976 -0.1600
  299MOL0     C41129   4.191  10.917   2.820 -0.1038 -0.8272 -0.1549
  299MOL0     C41130   4.327  10.945   2.787  0.6482  0.5821  0.1589
  299MOL0     C41131   4.366  11.085   2.793 -0.1176  1.4692  0.7641
  299MOL0     O41132   4.499  11.127   2.787  0.7021 -0.9509 -0.3877
  299MOL0     C41133   4.586  11.051   2.871  0.2973 -0.0012  0.8431
  299MOL0     C41134   4.715  11.131   2.892  1.1109 -0.8699  0.0248
  299MOL0     C41135   4.829  11.054   2.951  0.0419 -0.4881  0.0092
  299MOL0     C41136   4.838  11.076   3.104 -0.5913  0.0175  0.3472
  299MOL0     C41137   4.954  11.005   3.171 -0.4101  0.1231 -0.2441
  299MOL0     C41138   4.915  10.865   3.222  0.5320  0.8653  0.5721
  299MOL0     C41139   5.044  10.780   3.245 -0.6341 -0.0030 -0.1669
  299MOL0     C41140   5.058  10.730   3.390 -0.3055  0.3433  0.4482
  299MOL0     N41141   5.181  10.655   3.398  0.8795  0.9220  0.3732
  299MOL0     C41142   5.299  10.694   3.455  0.1354  0.2069 -0.5406
  299MOL0     C41143   5.388  10.589   3.452  0.3226  0.2155 -0.9179
  299MOL0     C41144   5.526  10.570   3.521 -0.4508  0.1896 -1.0729
  299MOL0     C41145   5.509  10.484   3.642 -0.2802  0.3181 -0.7598
  299MOL0     C41146   5.638  10.438   3.705  0.1888 -0.5263  0.0236
  299MOL0     C41147   5.615  10.347   3.833  0.4303  0.9996  0.2343
  299MOL0     O41148   5.739  10.280   3.864  0.8943  0.7509  0.2557
  299MOL0     C41149   5.740  10.193   3.970  0.6995  0.3706 -0.3341
  299MOL0     C41150   5.630  10.132   4.037  0.2377 -0.8241 -0.1822
  299MOL0     C41151   5.643  10.018   4.117 -0.5269  0.1166 -0.6325
  299MOL0     C41152   5.508   9.981   4.190  1.1956 -0.6228 -0.2103
  299MOL0     C41153   5.775   9.978   4.147  0.2202  0.7281 -0.2349
  299MOL0     C41154   5.795   9.869   4.248  0.3631  0.2799  0.2091
  299MOL0     O41155   5.889   9.903   4.330 -0.3401 -0.1160  0.1402
  299MOL0     C41156   5.965   9.811   4.400  0.7436 -0.1178  0.3283
  299MOL0     C41157   5.992   9.678   4.373 -0.2562  1.2189  0.4049
  299MOL0     C41158   6.081   9.606   4.453  0.5148 -0.2962  0.4052
  299MOL0     C41159   6.137   9.666   4.562 -0.2671  0.1589  0.5599
  299MOL0     O41160   6.222   9.583   4.631  0.2576 -0.9440 -0.6876
  299MOL0     C41161   6.197   9.598   4.774 -0.5963 -0.5509  0.5209
  299MOL0     C41162   6.284   9.506   4.848 -0.0606  0.3000 -0.2177
  299MOL0     C41163   6.435   9.521   4.839 -0.1355  0.2249  0.1065
  299MOL0     C41164   6.496   9.377   4.868  0.0093  0.3670 -0.2425
  299MOL0     C41165   6.644   9.385   4.889  0.6052 -0.4381 -0.4495
  299MOL0     C41166   6.717   9.252   4.876  0.6696  0.7414  0.2482
  299MOL0     C41167   6.858   9.256   4.935  0.1004  0.1061 -0.4197
  299MOL0     C41168   6.955   9.360   4.893  1.0553 -0.1553 -0.7052
  299MOL0    Cl41169   6.977   9.356   4.723 -0.3376 -0.4982 -0.1746
  299MOL0     C41170   6.114   9.796   4.590 -0.0354  0.2245  0.5823
  299MOL0     C41171   6.026   9.865   4.510  0.4469  0.3791  0.2787
  299MOL0     O41172   5.728   9.764   4.249  0.2529 -0.2881  0.3190
  299MOL0     C41173   5.883  10.037   4.095 -0.2318 -0.1973 -0.1443
  299MOL0     C41174   5.869  10.145   3.999  0.7098  0.4204  0.0969
  299MOL0     N41175   5.321  10.487   3.394 -0.2150  0.1158  0.1498
  299MOL0     N41176   5.197  10.528   3.354 -0.6999  0.2900  0.1100
  299MOL0     C41177   4.267  11.182   2.810 -0.1683  0.2961 -0.6993
  299MOL0     C41178   4.138  11.157   2.825  0.1194  0.3163 -0.4775
  299MOL0     C41179   3.719  11.007   2.814  1.3435 -0.2256 -0.7807
  299MOL0     C41180   3.674  10.879   2.766  0.5125  0.6468  0.6769
  299MOL0     C41181   3.537  10.834   2.787 -0.9386  0.1942  0.5802
  299MOL0     C41182   3.445  10.917   2.847  0.2767 -0.3631 -0.1582
  299MOL0     O41183   3.327  10.859   2.853  0.1892 -0.4884  0.0442
  299MOL0     C41184   3.236  10.882   2.954 -0.5494  0.0326 -0.7898
  299MOL0     C41185   3.168  10.746   2.980 -0.4778  0.2666  0.0183
  299MOL0     C41186   3.057  10.773   3.070 -0.0403 -0.0754  0.0888
  299MOL0     C41187   2.977  10.641   3.070 -0.1957  0.0089 -0.3272
  299MOL0     C41188   2.846  10.663   3.139 -0.7558 -0.2189 -1.0591
  299MOL0     C41189   2.751  10.672   3.210 -0.3890  0.1057 -0.4290
  299MOL0     C41190   3.491  11.034   2.897 -0.4576 -0.5235 -0.6126
  299MOL0     C41191   3.619  11.086   2.879  0.9063  0.3303 -0.1374
  299MOL0     C41192   3.640  11.238   2.914 -0.3486  1.2227  0.3804
  299MOL0     H41193   4.173  10.810   2.822  0.7632 -0.9697  0.8644
  299MOL0     H41194   4.397  10.865   2.764  1.8089  1.5795  0.0690
  299MOL0     H41195   4.609  10.951   2.833 -2.2930 -0.2361 -0.3239
  299MOL0     H41196   4.538  11.044   2.970  2.8593 -0.6034  2.1212
  299MOL0     H41197   4.744  11.163   2.792 -1.2708  1.4974 -0.0285
  299MOL0     H41198   4.695  11.224   2.945 -1.1369 -1.6043  0.5884
  299MOL0     H41199   4.825  10.947   2.930  2.1673 -0.2796 -1.8506
  299MOL0     H41200   4.916  11.094   2.900 -1.5768  1.3504 -1.4701
  299MOL0     H41201   4.860  11.182   3.115  3.9427 -0.2560 -2.8548
  299MOL0     H41202   4.745  11.055   3.156 -1.4354 -4.1018 -2.2659
  299MOL0     H41203   4.969  11.066   3.260 -1.1914 -1.1889  0.8300
  299MOL0     H41204   5.041  11.002   3.105 -0.1603 -3.2850  0.0182
  299MOL0     H41205   4.851  10.879   3.309 -0.8615  0.6547 -0.3877
  299MOL0     H41206   4.846  10.812   3.156  3.3288 -0.0326 -1.9038
  299MOL0     H41207   5.120  10.853   3.214 -2.2093  2.0983  0.6393
  299MOL0     H41208   5.043  10.704   3.166 -0.8593  0.8128 -0.9721
  299MOL0     H41209   5.076  10.817   3.453 -1.6283  1.4445 -0.5961
  299MOL0     H41210   4.968  10.670   3.410  2.1947 -3.3083  1.7038
  299MOL0     H41211   5.332  10.794   3.480  2.8193 -0.5471 -0.7858
  299MOL0     H41212   5.576  10.662   3.551  0.4000 -0.1247 -1.5116
  299MOL0     H41213   5.588  10.513   3.450 -1.1830 -1.2587 -0.5978
  299MOL0     H41214   5.468  10.550   3.720  0.5018  2.6599 -2.2054
  299MOL0     H41215   5.450  10.398   3.609  1.3475 -1.6338  1.1361
  299MOL0     H41216   5.688  10.386   3.623 -1.8903 -2.0504 -0.3583
  299MOL0     H41217   5.699  10.525   3.730 -0.2348  0.8029 -3.0298
  299MOL0     H41218   5.578  10.397   3.922 -3.3230 -2.2772  0.7428
  299MOL0     H41219   5.542  10.271   3.805  2.7647 -1.2754 -0.0833
  299MOL0     H41220   5.531  10.172   4.021  1.0294  1.6762  0.6517
  299MOL0     H41221   5.420  10.020   4.138  0.1265 -3.2946 -0.5497
  299MOL0     H41222   5.505  10.028   4.289  0.4019  1.2707 -1.0740
  299MOL0     H41223   5.495   9.872   4.197 -2.0643 -0.3275  0.1240
  299MOL0     H41224   5.949   9.627   4.287 -1.1325  0.5618  1.2086
  299MOL0     H41225   6.116   9.506   4.430 -2.6040 -1.8783  1.9046
  299MOL0     H41226   6.206   9.702   4.806 -0.1231 -0.8731  1.4525
  299MOL0     H41227   6.091   9.581   4.794 -1.2416  0.0239 -2.0671
  299MOL0     H41228   6.256   9.508   4.954  1.9468  3.0456  0.3761
  299MOL0     H41229   6.271   9.406   4.805  2.1450 -0.3172  0.3972
  299MOL0     H41230   6.459   9.579   4.929  2.9447 -2.9268  1.5596
  299MOL0     H41231   6.467   9.555   4.740  0.5696 -0.3178  0.1443
  299MOL0     H41232   6.470   9.312   4.783  1.4987  6.0408 -5.8257
  299MOL0     H41233   6.459   9.336   4.963  0.8704  1.6231  0.6641
  299MOL0     H41234   6.689   9.436   4.803 -0.8325 -1.2751 -1.7375
  299MOL0     H41235   6.653   9.430   4.988 -1.6859  1.0855 -0.8802
  299MOL0     H41236   6.716   9.211   4.774 -1.7091  1.0952  0.0575
  299MOL0     H41237   6.672   9.172   4.936  0.5115 -1.2419 -2.3310
  299MOL0     H41238   6.907   9.161   4.914  0.5913  0.6689 -1.9699
  299MOL0     H41239   6.837   9.263   5.042  1.2053 -0.8836 -0.1219
  299MOL0     H41240   7.051   9.356   4.946  0.1838  3.0157  1.3549
  299MOL0     H41241   6.911   9.454   4.927  1.1678 -0.6558  0.9083
  299MOL0     H41242   6.148   9.848   4.680 -0.6573  0.0545  0.9244
  299MOL0     H41243   6.017   9.972   4.525 -0.0511  0.1295  1.9683
  299MOL0     H41244   5.984  10.004   4.117 -0.7051 -3.3928 -2.0355
  299MOL0     H41245   5.950  10.189   3.942 -1.3763  2.9550 -1.1118
  299MOL0     H41246   4.304  11.284   2.812  0.7089  0.0063 -1.5420
  299MOL0     H41247   4.072  11.242   2.818 -0.9247 -0.5321 -1.2897
  299MOL0     H41248   3.735  10.805   2.715 -1.1998 -1.3445  1.3430
  299MOL0     H41249   3.510  10.745   2.732  0.8546 -0.9399  1.4224
  299MOL0     H41250   3.291  10.909   3.045  1.6218 -2.3154 -1.3037
  299MOL0     H41251   3.158  10.956   2.933  0.5662  1.5520  0.1570
  299MOL0     H41252   3.242  10.686   3.034 -0.2988  0.6857  0.2453
  299MOL0     H41253   3.142  10.692   2.889  0.1825 -0.0094 -0.0130
  299MOL0     H41254   3.068  10.798   3.175 -0.9809 -2.6209  0.8924
  299MOL0     H41255   2.986  10.845   3.028 -3.8134 -2.8631  1.1385
  299MOL0     H41256   3.033  10.566   3.127 -0.7166  1.8061  2.7605
  299MOL0     H41257   2.972  10.616   2.964  3.2542 -3.5694  0.1117
  299MOL0     H41258   2.664  10.660   3.271 -0.1141 -1.8701 -0.3504
  299MOL0     H41259   3.420  11.094   2.953 -0.8287 -2.2833  0.8651
  299MOL0     H41260   3.574  11.264   2.998  0.2420  1.1315  0.8830
  299MOL0     H41261   3.744  11.258   2.945  0.3338 -0.7890 -0.4307
  299MOL0     H41262   3.626  11.303   2.828 -0.7118 -2.0244 -2.2066
  300MOL0     O41263   6.591   0.252   7.796  0.1421  0.1613  0.7935
  300MOL0     C41264   6.618   0.160   7.876 -0.5137  0.1032  0.3334
  300MOL0     O41265   6.549   0.053   7.895 -0.1244  0.4565  1.3980
  300MOL0     C41266   6.452   0.018   7.804 -0.6286  0.1669 -1.1346
  300MOL0     C41267   6.494  -0.022   7.678  0.0838 -0.0911 -0.6749
  300MOL0     C41268   6.396  -0.032   7.574 -0.9898 -0.1558 -0.3830
  300MOL0     C41269   6.264  -0.013   7.601  1.5124 -1.2907 -0.3787
  300MOL0     O41270   6.170  -0.052   7.509  0.5562 -0.0958  0.1726
  300MOL0     C41271   6.039   0.012   7.521  0.0786  0.8905 -0.3181
  300MOL0     C41272   5.957  -0.001   7.394  0.0227  0.4627 -0.8507
  300MOL0     C41273   5.923  -0.147   7.363  0.1109  0.5328 -0.5391
  300MOL0     C41274   5.816  -0.209   7.457 -1.0897 -0.0449 -0.3313
  300MOL0     C41275   5.744  -0.339   7.404 -0.0837 -0.4492  0.0293
  300MOL0     C41276   5.668  -0.309   7.269  0.3268 -0.9887 -0.3281
  300MOL0     C41277   5.555  -0.408   7.226 -0.6017 -0.4129 -0.6123
  300MOL0     C41278   5.436  -0.412   7.327  0.2836  0.0349  0.1006
  300MOL0     N41279   5.326  -0.506   7.296  0.0411  0.3168  0.2372
  300MOL0     C41280   5.249  -0.573   7.385  0.9714 -0.1236  0.1143
  300MOL0     C41281   5.166  -0.651   7.307  0.2940  0.1034 -0.2113
  300MOL0     C41282   5.091  -0.765   7.360  0.2288  0.5929  1.1326
  300MOL0     C41283   5.193  -0.861   7.408 -0.3160  0.7413  0.0706
  300MOL0     C41284   5.137  -1.006   7.433 -0.1730  0.9183  0.6623
  300MOL0     C41285   5.206  -1.075   7.547 -0.7821 -0.6231  0.1907
  300MOL0     O41286   5.347  -1.113   7.514 -0.0375  0.5394  0.5503
  300MOL0     C41287   5.433  -1.143   7.615 -1.2547  0.3747  0.0580
  300MOL0     C41288   5.389  -1.179   7.748  0.2796  0.9587 -0.8630
  300MOL0     C41289   5.471  -1.212   7.861  0.3142 -0.3650  0.8933
  300MOL0     C41290   5.410  -1.264   7.986  0.7456 -0.4960 -0.2307
  300MOL0     C41291   5.612  -1.210   7.838  0.6995  0.5495 -1.3220
  300MOL0     C41292   5.710  -1.243   7.940  0.6410 -0.3821 -0.1566
  300MOL0     O41293   5.836  -1.279   7.899  0.3411  0.4867  0.6543
  300MOL0     C41294   5.910  -1.357   7.992 -0.2435 -0.5066 -0.4020
  300MOL0     C41295   5.928  -1.491   7.977  0.0942  0.4609 -0.5154
  300MOL0     C41296   5.974  -1.562   8.087  0.7495  0.2962 -0.1922
  300MOL0     C41297   6.032  -1.503   8.201 -0.3748  0.3718  0.0235
  300MOL0     O41298   6.093  -1.588   8.292  0.6713 -0.4090 -0.0774
  300MOL0     C41299   6.152  -1.534   8.411  0.1043 -0.2987  0.2048
  300MOL0     C41300   6.056  -1.533   8.528  0.4289  0.0912 -0.2527
  300MOL0     C41301   6.106  -1.431   8.633  0.5676  0.5431  0.0445
  300MOL0     C41302   6.026  -1.466   8.756  0.7666 -0.4861  0.6457
  300MOL0     C41303   6.044  -1.367   8.873  0.0373 -0.2067 -0.3119
  300MOL0     C41304   5.983  -1.230   8.840  0.0114  0.0237  0.1876
  300MOL0     C41305   5.993  -1.136   8.962  0.0186  0.1736  0.5597
  300MOL0     C41306   5.919  -1.006   8.936 -0.0347  0.1554  0.5222
  300MOL0    Cl41307   5.943  -0.901   9.076 -0.2239 -0.0204 -0.2158
  300MOL0     C41308   6.033  -1.370   8.204  0.2824 -0.2141  0.0069
  300MOL0     C41309   5.966  -1.292   8.106  0.1041 -0.3986 -0.7270
  300MOL0     O41310   5.683  -1.228   8.056  0.3307  0.1900  0.0310
  300MOL0     C41311   5.659  -1.172   7.708  0.0949 -1.3825  0.5498
  300MOL0     C41312   5.572  -1.135   7.600  0.1607 -0.7891  0.2686
  300MOL0     N41313   5.184  -0.612   7.172  0.3006  0.0724 -0.8582
  300MOL0     N41314   5.273  -0.525   7.164  0.0960  0.5614 -0.8263
  300MOL0     C41315   6.229   0.025   7.736  0.3309  0.1631  0.0020
  300MOL0     C41316   6.323   0.029   7.839  0.2767 -0.1117  0.1249
  300MOL0     C41317   6.744   0.173   7.947 -1.2875  0.5459  0.0889
  300MOL0     C41318   6.818   0.056   7.975  0.0620 -0.3862  0.2698
  300MOL0     C41319   6.938   0.073   8.046 -0.2883  0.0850  0.1539
  300MOL0     C41320   6.999   0.191   8.088  0.3847 -0.5533  0.4305
  300MOL0     O41321   7.129   0.201   8.142  0.8922  0.3034 -0.0317
  300MOL0     C41322   7.197   0.075   8.173 -0.2810  0.3911  0.0225
  300MOL0     C41323   7.282   0.111   8.292  0.5026 -1.0140  0.0750
  300MOL0     C41324   7.206   0.117   8.435 -0.2779 -1.0272 -0.4159
  300MOL0     C41325   7.254   0.219   8.546  0.1938  0.4531 -0.0975
  300MOL0     C41326   7.400   0.188   8.548  0.0634 -0.2719 -0.2246
  300MOL0     C41327   7.517   0.167   8.554 -0.2701  0.5605  0.1477
  300MOL0     C41328   6.922   0.304   8.058  0.0207  0.4744 -1.3781
  300MOL0     C41329   6.799   0.299   7.995  1.0225  0.3708  0.0763
  300MOL0     C41330   6.724   0.426   7.994  0.4089 -0.2245 -0.9507
  300MOL0     H41331   6.600  -0.043   7.667 -0.2425 -1.9861 -0.5936
  300MOL0     H41332   6.412  -0.072   7.474 -2.1170  0.5094 -0.8514
  300MOL0     H41333   6.047   0.121   7.529  3.2093  0.6522  1.5206
  300MOL0     H41334   5.982  -0.037   7.600  0.4956 -2.9110 -2.1480
  300MOL0     H41335   5.865   0.055   7.410  0.3073  0.8770 -0.6243
  300MOL0     H41336   6.013   0.049   7.314  2.3395  1.4773  1.2622
  300MOL0     H41337   5.888  -0.149   7.259 -3.4796  0.6503  0.5281
  300MOL0     H41338   6.011  -0.212   7.363  0.2986  0.7084 -2.9115
  300MOL0     H41339   5.857  -0.217   7.558 -0.1035  2.5527 -0.4628
  300MOL0     H41340   5.739  -0.134   7.476 -1.6835 -0.9631  1.1665
  300MOL0     H41341   5.667  -0.362   7.479 -3.0357  1.0966 -2.3194
  300MOL0     H41342   5.810  -0.425   7.388  0.8647  0.4872 -1.3610
  300MOL0     H41343   5.627  -0.209   7.285 -1.6750 -1.1027 -3.8121
  300MOL0     H41344   5.743  -0.301   7.191 -0.2367 -2.4297 -1.0402
  300MOL0     H41345   5.607  -0.504   7.223  0.7156  0.2912 -0.8893
  300MOL0     H41346   5.520  -0.390   7.124 -0.3972  1.1624 -0.4251
  300MOL0     H41347   5.477  -0.462   7.414  2.1464  2.5920  0.8055
  300MOL0     H41348   5.388  -0.318   7.357  2.3685  0.5930  1.9718
  300MOL0     H41349   5.255  -0.567   7.493  1.1500  2.1212  0.0371
  300MOL0     H41350   5.026  -0.795   7.278  0.9987 -1.1199  1.1009
  300MOL0     H41351   5.032  -0.734   7.447  1.9932 -1.2947  3.1477
  300MOL0     H41352   5.283  -0.869   7.346  0.5481 -2.0940  1.5004
  300MOL0     H41353   5.213  -0.823   7.508 -1.7040 -0.0450  0.6736
  300MOL0     H41354   5.031  -1.004   7.462 -0.7330 -0.9030 -1.0853
  300MOL0     H41355   5.145  -1.064   7.341 -1.9322 -0.0858  1.0811
  300MOL0     H41356   5.199  -1.008   7.633  3.1821  1.7126 -1.0110
  300MOL0     H41357   5.158  -1.173   7.544 -0.3988 -0.7980 -1.7108
  300MOL0     H41358   5.283  -1.192   7.768  0.7705 -0.5825  1.0406
  300MOL0     H41359   5.301  -1.274   7.998  0.7755  0.1791  0.8431
  300MOL0     H41360   5.429  -1.185   8.060  1.6708 -2.4363  1.7271
  300MOL0     H41361   5.454  -1.354   8.030 -1.2073 -0.7356  1.4136
  300MOL0     H41362   5.886  -1.540   7.889 -0.8952 -2.5878  1.4854
  300MOL0     H41363   5.975  -1.669   8.070  0.2895 -0.1940  2.4427
  300MOL0     H41364   6.231  -1.601   8.443 -2.0032 -3.1973 -0.2296
  300MOL0     H41365   6.196  -1.436   8.392 -0.3590  0.4527  2.6654
  300MOL0     H41366   5.958  -1.495   8.496 -0.5352 -2.6585 -0.9461
  300MOL0     H41367   6.040  -1.635   8.564 -0.8493 -0.5481 -2.3860
  300MOL0     H41368   6.083  -1.327   8.608 -1.7681  0.2224  0.5782
  300MOL0     H41369   6.210  -1.439   8.664  0.4767  1.1191  0.5128
  300MOL0     H41370   6.051  -1.564   8.798 -3.3947 -2.2514 -0.5220
  300MOL0     H41371   5.925  -1.485   8.720  2.6025 -2.1000 -4.6094
  300MOL0     H41372   5.985  -1.403   8.958 -0.8505 -1.0052 -1.2254
  300MOL0     H41373   6.151  -1.360   8.895 -0.1329  0.4061  0.3534
  300MOL0     H41374   5.878  -1.251   8.816 -0.4994  1.3535  1.1462
  300MOL0     H41375   6.023  -1.173   8.755  1.2040 -0.3610  0.4649
  300MOL0     H41376   6.098  -1.108   8.963 -0.1861  1.6162 -3.1015
  300MOL0     H41377   5.956  -1.180   9.055  1.7110  0.7425  1.5290
  300MOL0     H41378   5.812  -1.014   8.916 -0.8680  2.9271  3.2015
  300MOL0     H41379   5.974  -0.953   8.857 -1.8228  0.9882 -0.2202
  300MOL0     H41380   6.064  -1.313   8.291 -2.7073 -0.1450  1.1197
  300MOL0     H41381   5.952  -1.184   8.105 -1.8781 -0.6114 -2.0207
  300MOL0     H41382   5.766  -1.156   7.695 -0.5085  2.5723 -0.7524
  300MOL0     H41383   5.612  -1.095   7.507 -0.5594 -1.3751 -0.3124
  300MOL0     H41384   6.127   0.019   7.772  1.4313 -3.4049  3.2529
  300MOL0     H41385   6.293   0.036   7.943 -0.2412 -0.4935  0.0048
  300MOL0     H41386   6.780  -0.038   7.937  0.1141  0.6591 -2.6028
  300MOL0     H41387   6.983  -0.022   8.075 -0.3807  0.9125  3.4336
  300MOL0     H41388   7.138  -0.007   8.213  2.0132  0.4511  4.2461
  300MOL0     H41389   7.247   0.030   8.087 -0.9884 -1.6018  0.6076
  300MOL0     H41390   7.323   0.208   8.262  0.4880 -0.8592  0.5605
  300MOL0     H41391   7.369   0.045   8.291  0.0195 -1.6743 -0.7858
  300MOL0     H41392   7.100   0.135   8.417 -0.3724  0.1802  1.1535
  300MOL0     H41393   7.223   0.020   8.482 -0.0299 -1.0514 -0.5505
  300MOL0     H41394   7.216   0.196   8.646  3.6797 -2.0379  0.8716
  300MOL0     H41395   7.228   0.323   8.524  0.7942  1.3386  2.9225
  300MOL0     H41396   7.619   0.151   8.582 -0.5613 -0.1311  0.8441
  300MOL0     H41397   6.963   0.403   8.079 -0.2193  0.4323 -0.6588
  300MOL0     H41398   6.768   0.503   8.058 -3.5932  1.0198  0.6297
  300MOL0     H41399   6.705   0.476   7.898 -1.3474 -0.2151 -0.6256
  300MOL0     H41400   6.633   0.398   8.048  0.1632  1.7748 -0.2090
  301MOL0     O41401   9.629  10.423   7.906 -0.8888 -0.1286 -0.1918
  301MOL0     C41402   9.692  10.529   7.899  0.2124  0.1610 -0.3761
  301MOL0     O41403   9.697  10.611   7.784  0.0762 -0.1966 -0.3128
  301MOL0     C41404   9.644  10.552   7.674 -0.7283  0.7069  0.9661
  301MOL0     C41405   9.724  10.483   7.582 -0.2841  0.4867 -0.5985
  301MOL0     C41406   9.675  10.418   7.470  0.3464  0.5413  0.4701
  301MOL0     C41407   9.555  10.449   7.416  0.2842  0.7771 -0.5470
  301MOL0     O41408   9.502  10.397   7.304 -0.0520  0.3797  0.3021
  301MOL0     C41409   9.552  10.426   7.178 -0.6225 -0.0367  0.0771
  301MOL0     C41410   9.523  10.307   7.087  0.5889 -0.1354 -1.0736
  301MOL0     C41411   9.596  10.183   7.122  0.0899 -0.2511 -0.3023
  301MOL0     C41412   9.559  10.065   7.034 -0.4732  0.1860  0.3793
  301MOL0     C41413   9.660  10.031   6.915  0.3162  0.3263  0.0074
  301MOL0     C41414   9.702  10.139   6.825 -0.0238 -0.5921  0.8521
  301MOL0     C41415   9.804  10.125   6.707  1.1257  0.2461 -0.6994
  301MOL0     C41416   9.928  10.039   6.749  0.6073  2.0780  0.6171
  301MOL0     N41417  10.010  10.116   6.843 -0.0163 -0.8249  0.1704
  301MOL0     C41418  10.117  10.183   6.794 -0.1186 -0.0715  0.7210
  301MOL0     C41419  10.170  10.234   6.910 -0.1070  0.3025 -0.1539
  301MOL0     C41420  10.296  10.306   6.934  0.1497  0.6089 -0.9453
  301MOL0     C41421  10.389  10.228   7.031  0.4657 -0.4971  0.0826
  301MOL0     C41422  10.400  10.075   7.010  0.4375  0.6366  0.4058
  301MOL0     C41423  10.487  10.014   7.118 -0.2336 -0.3704  0.0366
  301MOL0     O41424  10.513   9.875   7.088  0.3606  0.6593 -0.7321
  301MOL0     C41425  10.637   9.827   7.132  0.2137 -0.1785 -0.2075
  301MOL0     C41426  10.704   9.853   7.254  0.9437  0.5656  0.0740
  301MOL0     C41427  10.834   9.796   7.282  0.8962 -0.1680  0.0037
  301MOL0     C41428  10.891   9.840   7.411  0.2254  0.6916  0.3890
  301MOL0     C41429  10.893   9.710   7.191 -0.4160 -0.1711  0.1407
  301MOL0     C41430  11.033   9.642   7.210  0.5010  0.6071  0.5032
  301MOL0     O41431  11.099   9.654   7.333 -0.5200  0.6247 -0.1310
  301MOL0     C41432  11.219   9.590   7.376 -0.0787 -0.4887 -0.0485
  301MOL0     C41433  11.255   9.632   7.507  0.7762  0.1402  0.0810
  301MOL0     C41434  11.361   9.579   7.574 -1.1184  0.6995  0.2569
  301MOL0     C41435  11.449   9.487   7.506 -0.7459  0.0858  0.1813
  301MOL0     O41436  11.574   9.443   7.559  0.2822  0.1748  0.3647
  301MOL0     C41437  11.575   9.381   7.688 -0.4271  0.5280 -0.5064
  301MOL0     C41438  11.675   9.266   7.711 -0.5333 -0.4497 -0.4868
  301MOL0     C41439  11.692   9.164   7.599 -0.7555  0.3179  0.2685
  301MOL0     C41440  11.711   9.016   7.660  0.5602 -0.1127 -0.0715
  301MOL0     C41441  11.723   8.911   7.555  0.9988  0.0440 -0.1215
  301MOL0     C41442  11.860   8.910   7.490  0.1117 -0.5140 -1.0525
  301MOL0     C41443  11.871   8.775   7.415 -0.1199 -0.6887  0.1696
  301MOL0     C41444  11.995   8.745   7.328 -0.0929 -0.0665  0.0762
  301MOL0    Cl41445  12.127   8.775   7.445  0.3250 -0.2923 -0.1265
  301MOL0     C41446  11.422   9.461   7.369  0.3960  0.7286  0.2550
  301MOL0     C41447  11.296   9.500   7.313  0.9327 -0.3084  0.7796
  301MOL0     O41448  11.077   9.593   7.107  0.4515  0.0953 -0.3649
  301MOL0     C41449  10.822   9.677   7.077  0.1944 -0.5790  0.0477
  301MOL0     C41450  10.702   9.743   7.042  0.2231  0.1580 -0.1330
  301MOL0     N41451  10.099  10.191   7.017  0.4393  0.3650  0.4584
  301MOL0     N41452  10.004  10.119   6.969  0.0880  0.5239  0.0411
  301MOL0     C41453   9.473  10.521   7.502  0.0285 -0.4063 -0.1284
  301MOL0     C41454   9.519  10.570   7.626  0.3937  0.8933  0.1328
  301MOL0     C41455   9.763  10.581   8.010 -0.6472  0.4347  0.2343
  301MOL0     C41456   9.757  10.719   8.049 -0.5345  0.2397 -0.2444
  301MOL0     C41457   9.809  10.762   8.168  0.2937 -0.1692  0.9995
  301MOL0     C41458   9.905  10.678   8.239  0.5581 -0.1316  0.1738
  301MOL0     O41459   9.988  10.731   8.329 -0.3615 -0.0394 -1.1642
  301MOL0     C41460   9.941  10.724   8.464  0.6051  0.0433  0.0951
  301MOL0     C41461   9.854  10.845   8.506  0.5912 -0.3199  0.3418
  301MOL0     C41462   9.836  10.826   8.654 -0.4656  0.8221 -0.9712
  301MOL0     C41463   9.774  10.954   8.710 -0.2625 -0.0166 -0.1508
  301MOL0     C41464   9.759  10.925   8.854  0.7784  0.7709  0.6937
  301MOL0     C41465   9.779  10.912   8.973 -0.2838 -0.4593  0.0963
  301MOL0     C41466   9.931  10.552   8.185 -0.0283 -0.1196  0.1161
  301MOL0     C41467   9.848  10.498   8.088 -0.3365  0.1674  0.2143
  301MOL0     C41468   9.877  10.364   8.040 -0.7851 -0.2083 -0.4467
  301MOL0     H41469   9.825  10.462   7.615  0.2764  1.3683 -1.6882
  301MOL0     H41470   9.730  10.347   7.409 -1.5063  0.9502 -1.8332
  301MOL0     H41471   9.660  10.445   7.183 -0.4065  0.9249 -4.2106
  301MOL0     H41472   9.502  10.518   7.147  0.7034  0.1979 -1.5472
  301MOL0     H41473   9.414  10.300   7.081  0.4049  1.5800 -0.4866
  301MOL0     H41474   9.557  10.340   6.989  1.7249  2.8678  0.2044
  301MOL0     H41475   9.701  10.212   7.120 -0.1672  0.6939 -1.9386
  301MOL0     H41476   9.577  10.144   7.222  0.8938 -0.7193 -0.3242
  301MOL0     H41477   9.560   9.977   7.098 -1.8551 -0.7302 -0.7979
  301MOL0     H41478   9.457  10.070   6.995  0.5700  0.5288 -2.6146
  301MOL0     H41479   9.622   9.948   6.855  0.0271  0.6372 -0.2466
  301MOL0     H41480   9.753   9.987   6.952 -0.6910 -0.9324  1.1591
  301MOL0     H41481   9.615  10.167   6.765 -0.1847  0.3063  1.4729
  301MOL0     H41482   9.726  10.226   6.887 -0.8987  0.8703 -0.7748
  301MOL0     H41483   9.833  10.226   6.678 -2.8846  1.6412 -0.4436
  301MOL0     H41484   9.762  10.070   6.623 -4.3370 -0.8002  2.2646
  301MOL0     H41485   9.905   9.940   6.789 -0.2572  2.3941  0.9281
  301MOL0     H41486   9.987  10.012   6.661 -0.2906  0.8872  0.3614
  301MOL0     H41487  10.152  10.193   6.691  3.4313 -0.5844  1.7255
  301MOL0     H41488  10.274  10.396   6.990 -1.8973 -0.0828 -0.5604
  301MOL0     H41489  10.341  10.332   6.838 -2.1323 -2.1157 -2.9510
  301MOL0     H41490  10.493  10.260   7.030  1.1585 -2.3449  2.7308
  301MOL0     H41491  10.343  10.238   7.129 -0.2738  2.3765 -0.4802
  301MOL0     H41492  10.302  10.027   7.006  0.7614  0.0096 -0.4935
  301MOL0     H41493  10.453  10.063   6.915  0.5110  1.2581  0.3678
  301MOL0     H41494  10.577  10.077   7.111 -1.2586  0.9986 -1.7048
  301MOL0     H41495  10.455  10.031   7.221  5.2014  1.0376  1.8309
  301MOL0     H41496  10.654   9.931   7.312  2.7454  1.5714  0.3392
  301MOL0     H41497  10.833   9.916   7.463 -0.7759  0.4377 -0.3131
  301MOL0     H41498  10.993   9.877   7.399  0.6532  0.0774  1.8661
  301MOL0     H41499  10.895   9.746   7.466 -4.2166  0.4521  0.6554
  301MOL0     H41500  11.181   9.698   7.551  0.0069 -0.1878 -0.6960
  301MOL0     H41501  11.374   9.600   7.680  0.0222 -0.1447  0.3101
  301MOL0     H41502  11.585   9.455   7.768 -0.6705  0.0114  0.0137
  301MOL0     H41503  11.478   9.331   7.695  0.4517 -1.4928 -1.9101
  301MOL0     H41504  11.774   9.306   7.738 -0.9834  0.4630 -0.1540
  301MOL0     H41505  11.635   9.210   7.795 -0.4911 -1.9472 -1.4378
  301MOL0     H41506  11.787   9.187   7.550  0.7149 -5.6168 -0.4310
  301MOL0     H41507  11.611   9.175   7.527  0.8919 -2.1965 -2.1768
  301MOL0     H41508  11.617   8.998   7.713  0.8169  3.0842  1.6521
  301MOL0     H41509  11.787   9.014   7.739  0.8054  1.9867 -0.1948
  301MOL0     H41510  11.695   8.815   7.597 -3.9170  0.9334 -0.7458
  301MOL0     H41511  11.641   8.925   7.484  0.3601  1.6486  0.8636
  301MOL0     H41512  11.936   8.909   7.569  1.9916  0.0056 -2.7757
  301MOL0     H41513  11.885   8.987   7.417  1.1805 -1.0293 -1.2536
  301MOL0     H41514  11.782   8.771   7.351 -0.2192  1.4322  0.1017
  301MOL0     H41515  11.867   8.700   7.494  2.7201 -3.2852 -1.8858
  301MOL0     H41516  11.998   8.800   7.234  1.0245 -3.3731 -2.0273
  301MOL0     H41517  12.004   8.638   7.304  3.5394  0.0012  0.4907
  301MOL0     H41518  11.497   9.407   7.312 -1.8749  0.5525 -2.8306
  301MOL0     H41519  11.262   9.479   7.212 -0.5176  0.7423  1.0050
  301MOL0     H41520  10.857   9.603   7.007 -0.1341  0.3046 -1.0855
  301MOL0     H41521  10.645   9.715   6.954  1.7576 -1.0683 -0.7830
  301MOL0     H41522   9.368  10.541   7.482 -0.0635 -1.6296 -0.9185
  301MOL0     H41523   9.447  10.634   7.677  0.4501  0.1721  1.1424
  301MOL0     H41524   9.715  10.791   7.978  2.2082  0.0413 -2.2113
  301MOL0     H41525   9.802  10.866   8.198 -1.5227  0.3230 -0.8858
  301MOL0     H41526   9.881  10.635   8.486 -1.5490  2.1461  3.7185
  301MOL0     H41527  10.036  10.716   8.519  0.0225 -1.5906  0.9397
  301MOL0     H41528   9.757  10.841   8.455  1.4234 -1.6129 -1.2221
  301MOL0     H41529   9.888  10.945   8.478 -2.4719  0.8287  0.3388
  301MOL0     H41530   9.765  10.743   8.661 -2.1590  2.2790 -0.0563
  301MOL0     H41531   9.933  10.799   8.696 -1.0578  0.4286  0.1849
  301MOL0     H41532   9.680  10.966   8.655  0.5985 -0.2448 -1.7065
  301MOL0     H41533   9.843  11.039   8.704  1.8946 -1.2577  3.6749
  301MOL0     H41534   9.802  10.883   9.074  0.2962  0.1671  0.1534
  301MOL0     H41535  10.016  10.491   8.211  0.9567  1.8318  1.7772
  301MOL0     H41536   9.966  10.323   8.088 -0.9735  0.3985  0.4365
  301MOL0     H41537   9.799  10.293   8.072 -0.1841 -0.6724  0.0004
  301MOL0     H41538   9.888  10.360   7.931  1.8292  0.3521 -0.2605
  302MOL0     O41539   1.625   4.595  11.026 -0.5119 -0.1217  0.7432
  302MOL0     C41540   1.594   4.509  11.113 -0.4331  0.3345 -0.3340
  302MOL0     O41541   1.590   4.374  11.094 -1.1836 -0.4125 -0.3830
  302MOL0     C41542   1.595   4.327  10.967  0.2862  0.4057  0.4360
  302MOL0     C41543   1.674   4.212  10.954  0.4742  0.1376  0.7705
  302MOL0     C41544   1.674   4.144  10.828  0.2164 -0.4728  0.9787
  302MOL0     C41545   1.629   4.212  10.711  0.9994  0.0221  0.3835
  302MOL0     O41546   1.635   4.140  10.599 -0.3811  0.3377 -0.3984
  302MOL0     C41547   1.551   4.172  10.485 -0.5758  0.8570  0.4642
  302MOL0     C41548   1.547   4.073  10.375  0.5272  0.7360 -0.4228
  302MOL0     C41549   1.454   4.120  10.265  0.4231  0.3912 -0.4147
  302MOL0     C41550   1.423   4.005  10.169 -0.2940 -0.2135 -0.0790
  302MOL0     C41551   1.318   4.055  10.067 -0.8183  0.2737  0.3831
  302MOL0     C41552   1.379   4.142   9.956 -0.8868 -0.6712 -0.0190
  302MOL0     C41553   1.265   4.184   9.851 -0.5611  0.3636 -0.6893
  302MOL0     C41554   1.317   4.272   9.739  0.7841  1.1099  0.0673
  302MOL0     N41555   1.285   4.411   9.764 -0.9604  0.2593 -0.5961
  302MOL0     C41556   1.353   4.493   9.850  0.5281 -0.4226  0.5194
  302MOL0     C41557   1.292   4.613   9.841 -0.2954  0.2330 -0.1695
  302MOL0     C41558   1.341   4.735   9.898 -0.5475 -0.1993 -0.3350
  302MOL0     C41559   1.231   4.840   9.894  0.2039 -0.3352  0.6326
  302MOL0     C41560   1.122   4.818   9.996  0.0948 -0.5579 -0.4732
  302MOL0     C41561   1.012   4.927   9.983  1.9044 -0.2907 -0.0760
  302MOL0     O41562   0.978   4.958   9.842 -0.3473  1.0272 -0.2873
  302MOL0     C41563   0.861   4.902   9.800 -0.2262 -0.4850  0.4554
  302MOL0     C41564   0.751   4.980   9.812 -0.1123 -0.1210  0.0088
  302MOL0     C41565   0.621   4.938   9.764 -0.1856 -0.8846 -0.2600
  302MOL0     C41566   0.498   5.026   9.765  0.7419  0.4650  0.2049
  302MOL0     C41567   0.617   4.812   9.689  0.4983 -0.0717  0.3000
  302MOL0     C41568   0.507   4.755   9.614  0.1417 -0.3242 -0.8051
  302MOL0     O41569   0.512   4.621   9.600 -0.6438 -0.3662 -0.2339
  302MOL0     C41570   0.433   4.556   9.511  0.6640 -0.5860 -0.6774
  302MOL0     C41571   0.296   4.581   9.505 -0.5536 -0.1347 -1.1729
  302MOL0     C41572   0.224   4.510   9.415 -0.5749  0.0645  1.1547
  302MOL0     C41573   0.279   4.430   9.320 -0.7809  0.8506 -0.1003
  302MOL0     O41574   0.182   4.387   9.224 -1.1616 -0.1973 -0.1454
  302MOL0     C41575   0.232   4.289   9.132 -0.4535 -0.2935 -0.1531
  302MOL0     C41576   0.123   4.175   9.121  0.1300  0.6090  0.7144
  302MOL0     C41577   0.172   4.046   9.060  0.4221  0.4773  0.0193
  302MOL0     C41578   0.128   4.032   8.916  0.0733  0.4328  1.2317
  302MOL0     C41579   0.051   3.903   8.896 -0.4460  0.3068 -0.5540
  302MOL0     C41580   0.130   3.771   8.892  0.2076 -0.0171 -0.3808
  302MOL0     C41581   0.039   3.643   8.878  0.0191  0.2313  0.1362
  302MOL0     C41582   0.111   3.526   8.799 -0.3735  0.3833  0.0244
  302MOL0    Cl41583   0.044   3.374   8.858 -0.5935 -0.6045 -0.4286
  302MOL0     C41584   0.417   4.391   9.338  0.5492  0.0502  0.3981
  302MOL0     C41585   0.495   4.466   9.432 -0.1475  0.4661  0.3813
  302MOL0     O41586   0.421   4.825   9.563 -0.0964 -0.4699  0.1108
  302MOL0     C41587   0.736   4.742   9.677 -0.9151  0.0535 -0.6347
  302MOL0     C41588   0.858   4.784   9.730  0.5902  0.3402  0.2482
  302MOL0     N41589   1.184   4.588   9.762 -0.5060 -0.6011  1.0602
  302MOL0     N41590   1.171   4.464   9.722  0.3140 -0.1583 -0.0592
  302MOL0     C41591   1.560   4.327  10.726  0.2018  0.5133  0.3686
  302MOL0     C41592   1.538   4.386  10.852  0.3930 -0.5917 -0.3369
  302MOL0     C41593   1.527   4.549  11.235  0.3010  0.0472 -0.1277
  302MOL0     C41594   1.586   4.525  11.357 -0.3700 -0.0898  0.0969
  302MOL0     C41595   1.528   4.559  11.483 -0.0447 -0.2128 -0.0470
  302MOL0     C41596   1.405   4.624  11.477  0.6328 -0.4239 -0.2116
  302MOL0     O41597   1.355   4.655  11.599  0.2647  0.4385 -0.0171
  302MOL0     C41598   1.246   4.740  11.617  0.6119 -0.9495  0.2692
  302MOL0     C41599   1.201   4.725  11.759 -0.7976 -0.3820  0.2377
  302MOL0     C41600   1.312   4.774  11.861  0.5958  0.4203 -0.3412
  302MOL0     C41601   1.242   4.817  11.993  0.9730  0.1271  0.2383
  302MOL0     C41602   1.145   4.919  11.975  0.1010 -0.9054  0.0820
  302MOL0     C41603   1.055   5.001  11.967 -0.4254 -0.7550 -0.1292
  302MOL0     C41604   1.344   4.655  11.356  0.4510 -0.5241  0.6238
  302MOL0     C41605   1.405   4.622  11.233 -0.2227  0.6845 -0.6851
  302MOL0     C41606   1.318   4.652  11.113 -0.4636 -0.6807  0.2315
  302MOL0     H41607   1.731   4.166  11.034 -3.0412 -1.4457  2.6085
  302MOL0     H41608   1.733   4.054  10.812  2.6164  1.0878  0.5296
  302MOL0     H41609   1.591   4.262  10.439 -1.7448 -0.2705 -3.0864
  302MOL0     H41610   1.449   4.202  10.508  0.1408  4.0027  0.0219
  302MOL0     H41611   1.641   4.051  10.324  1.9732 -2.6797  3.1367
  302MOL0     H41612   1.517   3.974  10.412  1.3992  1.7854  3.5981
  302MOL0     H41613   1.352   4.151  10.293 -0.7374 -4.5423  1.7705
  302MOL0     H41614   1.502   4.199  10.205 -3.6643  0.9900 -3.4063
  302MOL0     H41615   1.516   3.969  10.124  0.6289  0.5602  1.1540
  302MOL0     H41616   1.384   3.918  10.222  1.6994 -1.1472 -0.0628
  302MOL0     H41617   1.245   4.109  10.128  1.5588 -0.0680  3.8141
  302MOL0     H41618   1.283   3.958  10.030  1.0157 -0.9193  1.5635
  302MOL0     H41619   1.418   4.226  10.013  0.3158 -0.4788 -1.0597
  302MOL0     H41620   1.470   4.097   9.914  3.7342  1.9425  5.6946
  302MOL0     H41621   1.187   4.233   9.910  0.7794  0.9413  0.6934
  302MOL0     H41622   1.220   4.096   9.804 -1.8046  0.0781  0.9358
  302MOL0     H41623   1.425   4.263   9.721  0.5890 -0.3184 -0.5101
  302MOL0     H41624   1.279   4.237   9.643  2.8343 -1.6640  0.1137
  302MOL0     H41625   1.439   4.472   9.912 -0.0088  3.4907  2.9023
  302MOL0     H41626   1.428   4.753   9.834  0.6150 -0.4063  1.1162
  302MOL0     H41627   1.369   4.708  10.001  0.7252  0.5001 -0.4832
  302MOL0     H41628   1.276   4.939   9.905  1.1412 -0.8988  2.2472
  302MOL0     H41629   1.189   4.834   9.793  3.8648  0.7741 -1.1622
  302MOL0     H41630   1.081   4.719   9.974  1.6244 -1.1811 -0.5984
  302MOL0     H41631   1.161   4.823  10.098  2.9876 -1.5357 -1.4366
  302MOL0     H41632   0.928   4.878  10.033  1.3735  0.3367 -0.3387
  302MOL0     H41633   1.022   5.019  10.040 -1.1643  0.4680 -0.6046
  302MOL0     H41634   0.743   5.075   9.863 -1.8144 -0.3839  0.2794
  302MOL0     H41635   0.483   5.078   9.670  1.8221 -0.0154 -0.2473
  302MOL0     H41636   0.516   5.107   9.837  0.8454 -1.9786  3.1584
  302MOL0     H41637   0.407   4.976   9.798 -0.1943  1.2187 -1.1563
  302MOL0     H41638   0.245   4.648   9.574 -1.0109 -0.1491 -1.4905
  302MOL0     H41639   0.119   4.525   9.397 -0.4891 -1.6941 -1.2378
  302MOL0     H41640   0.251   4.334   9.034  1.9838  0.9335  0.8007
  302MOL0     H41641   0.324   4.238   9.162 -1.4806 -3.0168 -1.3373
  302MOL0     H41642   0.099   4.144   9.223  0.6008  4.3195  2.1109
  302MOL0     H41643   0.040   4.206   9.056 -0.4557 -3.2059 -0.6572
  302MOL0     H41644   0.133   3.959   9.115 -1.6939  2.6655  2.2146
  302MOL0     H41645   0.281   4.051   9.065  0.4819  1.5824 -1.7770
  302MOL0     H41646   0.222   4.040   8.860 -0.6191 -0.2063 -0.0495
  302MOL0     H41647   0.072   4.119   8.881  1.3994  2.6132  4.0659
  302MOL0     H41648  -0.031   3.894   8.968  1.4777  1.5161  1.9183
  302MOL0     H41649   0.010   3.902   8.794 -1.4923 -0.4500 -0.1482
  302MOL0     H41650   0.185   3.748   8.984 -0.7623 -1.7798 -0.2068
  302MOL0     H41651   0.194   3.772   8.803 -1.2215  2.1336 -1.4438
  302MOL0     H41652  -0.046   3.679   8.819  0.1434 -1.5011 -1.1678
  302MOL0     H41653   0.012   3.607   8.978  0.4439 -0.9590 -0.1547
  302MOL0     H41654   0.218   3.532   8.823 -0.8438  0.5079  2.3320
  302MOL0     H41655   0.107   3.538   8.691  0.1441 -0.6474 -0.1183
  302MOL0     H41656   0.477   4.329   9.272  1.6194  0.9054  0.5394
  302MOL0     H41657   0.603   4.467   9.435 -0.1068 -0.9698  0.0714
  302MOL0     H41658   0.764   4.669   9.602  1.4441  0.1428  0.0649
  302MOL0     H41659   0.950   4.728   9.722  1.0646  0.6703  2.6347
  302MOL0     H41660   1.523   4.387  10.643  1.4865  1.5387  0.5022
  302MOL0     H41661   1.482   4.478  10.864  4.0960  1.9059 -0.5100
  302MOL0     H41662   1.677   4.468  11.365 -0.9137 -0.7849  2.2980
  302MOL0     H41663   1.575   4.529  11.576 -1.3718 -2.0500  0.0831
  302MOL0     H41664   1.257   4.846  11.592 -2.6034 -1.0474 -2.1605
  302MOL0     H41665   1.173   4.690  11.553  0.4099  0.5188 -0.6976
  302MOL0     H41666   1.177   4.619  11.766  2.3573 -1.2193 -0.1747
  302MOL0     H41667   1.101   4.770  11.770 -1.5322 -1.4844 -1.5270
  302MOL0     H41668   1.376   4.686  11.869  1.9956  1.2527 -1.7794
  302MOL0     H41669   1.372   4.851  11.811 -0.1101  0.9793 -0.3459
  302MOL0     H41670   1.317   4.855  12.064 -0.8994  0.8820  1.8835
  302MOL0     H41671   1.202   4.730  12.044 -1.4682  0.5268 -0.8709
  302MOL0     H41672   0.973   5.070  11.974 -1.2401 -1.8802  2.4103
  302MOL0     H41673   1.242   4.692  11.352  1.7895  3.5356 -1.6795
  302MOL0     H41674   1.248   4.572  11.085 -1.8915  0.8724 -0.8329
  302MOL0     H41675   1.258   4.741  11.132 -2.7176 -1.3508 -2.9296
  302MOL0     H41676   1.373   4.687  11.025 -0.7130  2.5742  1.2700
  303MOL0     O41677   2.743   2.940   0.431 -1.1671  0.4510  0.4565
  303MOL0     C41678   2.721   3.055   0.389 -0.4038  0.6856 -0.3655
  303MOL0     O41679   2.636   3.093   0.292  0.1717 -0.6760 -0.3442
  303MOL0     C41680   2.578   2.988   0.223  0.3011 -0.3556  0.1811
  303MOL0     C41681   2.603   2.948   0.096 -0.4380 -0.1683 -0.3935
  303MOL0     C41682   2.556   2.829   0.044 -0.4578 -0.4722 -0.0337
  303MOL0     C41683   2.462   2.753   0.111 -0.1609  0.3317  0.2431
  303MOL0     O41684   2.394   2.646   0.060 -0.0326 -0.6133  0.1017
  303MOL0     C41685   2.461   2.560  -0.031 -0.0616 -1.0131 -0.2241
  303MOL0     C41686   2.393   2.427  -0.061 -0.7821  0.1878 -0.7644
  303MOL0     C41687   2.446   2.317   0.028  0.6022 -0.8922  0.1501
  303MOL0     C41688   2.453   2.358   0.172 -0.4346  0.0655 -0.6302
  303MOL0     C41689   2.453   2.240   0.278  0.1130 -0.8669 -0.5508
  303MOL0     C41690   2.334   2.145   0.261 -0.7609  0.2361  1.0087
  303MOL0     C41691   2.310   2.054   0.387 -0.3713 -0.8789 -0.2058
  303MOL0     C41692   2.233   2.127   0.500  0.3315 -0.7224 -0.5949
  303MOL0     N41693   2.208   2.039   0.618  1.1718 -0.0363  0.7256
  303MOL0     C41694   2.088   2.039   0.688 -0.4058  0.0961  0.0416
  303MOL0     C41695   2.112   1.948   0.788  0.6826 -1.2842  0.0272
  303MOL0     C41696   2.018   1.906   0.899  0.8399  0.6034 -1.4861
  303MOL0     C41697   1.942   2.028   0.967 -0.5877 -0.7085  0.5991
  303MOL0     C41698   2.046   2.119   1.048  0.5993  0.2125  0.2126
  303MOL0     C41699   2.102   2.047   1.175  0.0927 -0.1142  0.9163
  303MOL0     O41700   1.991   1.979   1.238  0.2557 -0.3757 -0.8846
  303MOL0     C41701   1.996   1.899   1.350  0.1252  0.9472  0.2842
  303MOL0     C41702   2.115   1.892   1.426  0.2105 -0.8512  0.1717
  303MOL0     C41703   2.127   1.826   1.552  0.9737  0.2354 -0.3165
  303MOL0     C41704   2.254   1.827   1.636  0.1432  0.1515 -0.6803
  303MOL0     C41705   2.008   1.760   1.596  0.3036  1.5077 -0.4322
  303MOL0     C41706   2.015   1.669   1.707  0.0051  0.6919 -1.2027
  303MOL0     O41707   1.930   1.556   1.699  0.6407  0.8402 -0.2621
  303MOL0     C41708   1.907   1.488   1.818 -0.5237  0.8082  0.1218
  303MOL0     C41709   1.789   1.518   1.894 -0.8136  0.7129  0.2214
  303MOL0     C41710   1.760   1.447   2.016 -0.6178 -0.4534  0.3571
  303MOL0     C41711   1.860   1.359   2.060 -0.1081 -0.5033  0.4951
  303MOL0     O41712   1.846   1.300   2.184  1.0206  0.3413 -0.5021
  303MOL0     C41713   1.829   1.153   2.176 -0.5387  0.2854 -1.1708
  303MOL0     C41714   1.713   1.114   2.262 -0.3013  0.5747 -0.2663
  303MOL0     C41715   1.718   0.968   2.315  0.5037  0.1467  0.3486
  303MOL0     C41716   1.819   0.946   2.424 -0.1156 -0.1284  0.3190
  303MOL0     C41717   1.810   0.811   2.499 -0.3792  0.1086  1.0902
  303MOL0     C41718   1.750   0.692   2.422  0.3860 -0.6007 -0.2341
  303MOL0     C41719   1.742   0.573   2.518  0.3862 -0.3707 -0.0274
  303MOL0     C41720   1.874   0.499   2.541 -0.1913  0.5716 -0.7993
  303MOL0    Cl41721   1.868   0.379   2.401 -0.1241  0.3341 -0.0099
  303MOL0     C41722   1.969   1.326   1.980 -0.1178 -0.2051  0.2165
  303MOL0     C41723   1.998   1.387   1.856  0.2467 -0.2220 -0.5069
  303MOL0     O41724   2.067   1.705   1.811 -0.0975  0.1768 -0.7225
  303MOL0     C41725   1.894   1.759   1.516 -0.4528 -0.2043  0.4272
  303MOL0     C41726   1.889   1.835   1.394  0.1100 -0.5461  0.0176
  303MOL0     N41727   2.235   1.882   0.763  0.5676 -0.4857  0.4324
  303MOL0     N41728   2.284   1.938   0.661  0.2459 -0.0697 -0.5504
  303MOL0     C41729   2.418   2.797   0.237 -0.3629  0.5298  0.1171
  303MOL0     C41730   2.474   2.914   0.290  0.0546  0.7377 -0.0906
  303MOL0     C41731   2.811   3.161   0.451  0.3826  0.5386  0.2140
  303MOL0     C41732   2.914   3.222   0.368  0.9092 -0.5312  0.6447
  303MOL0     C41733   2.987   3.322   0.424 -0.2010  1.0178  0.5799
  303MOL0     C41734   2.979   3.371   0.547 -0.0602 -0.4929  0.5164
  303MOL0     O41735   3.044   3.489   0.598 -0.5858 -0.0124 -0.0344
  303MOL0     C41736   2.987   3.576   0.695  0.7462  0.6717 -0.8859
  303MOL0     C41737   3.039   3.709   0.669 -0.6720  0.3738  0.5312
  303MOL0     C41738   3.184   3.736   0.728  0.3538  0.0729  0.1028
  303MOL0     C41739   3.246   3.862   0.662  0.6421 -0.2158 -0.1722
  303MOL0     C41740   3.175   3.987   0.709  0.3373  0.2350  0.2796
  303MOL0     C41741   3.130   4.093   0.748 -1.1396  0.0306  0.0200
  303MOL0     C41742   2.886   3.310   0.631  0.4133  0.7282  0.4874
  303MOL0     C41743   2.804   3.200   0.585  0.1616 -0.4091  0.0481
  303MOL0     C41744   2.701   3.145   0.674  0.0265 -0.5692 -0.9840
  303MOL0     H41745   2.675   3.018   0.053  1.7353 -0.4499  2.4999
  303MOL0     H41746   2.570   2.795  -0.058 -0.7166 -0.7316  0.0171
  303MOL0     H41747   2.562   2.530   0.001  1.0804  2.6257  0.0097
  303MOL0     H41748   2.474   2.615  -0.124 -0.0973 -0.2571  0.2064
  303MOL0     H41749   2.286   2.442  -0.045 -0.8228  0.0113 -0.8710
  303MOL0     H41750   2.407   2.392  -0.164  0.0487  0.9824 -0.9392
  303MOL0     H41751   2.391   2.226   0.002 -2.6560  1.0705 -0.3512
  303MOL0     H41752   2.544   2.304  -0.019  1.0495 -1.0199  1.0797
  303MOL0     H41753   2.552   2.402   0.184 -0.7813  0.4916  0.9866
  303MOL0     H41754   2.373   2.425   0.206 -0.6508 -1.3414  1.9478
  303MOL0     H41755   2.457   2.281   0.379 -2.1998 -1.9373  0.0354
  303MOL0     H41756   2.542   2.178   0.263 -0.7689 -2.2132 -0.4142
  303MOL0     H41757   2.240   2.200   0.258 -2.0086 -1.7209  2.2705
  303MOL0     H41758   2.354   2.086   0.171 -1.1780 -0.6577  1.4916
  303MOL0     H41759   2.399   2.000   0.417  0.0347  0.4177  1.0216
  303MOL0     H41760   2.228   1.993   0.346 -2.7765  1.4141  0.8677
  303MOL0     H41761   2.302   2.195   0.551  0.2080 -1.4498  0.5884
  303MOL0     H41762   2.141   2.172   0.463  1.4941  0.0766 -2.7222
  303MOL0     H41763   2.006   2.109   0.675  1.6065  2.6287  0.0756
  303MOL0     H41764   2.066   1.844   0.974  0.2762 -0.5261 -2.0360
  303MOL0     H41765   1.956   1.828   0.855  2.1787 -1.3596 -0.0539
  303MOL0     H41766   1.900   2.099   0.896  1.0355 -0.2502  0.0512
  303MOL0     H41767   1.856   1.996   1.026 -1.0586  1.9502  1.4860
  303MOL0     H41768   2.122   2.152   0.977  0.1085  2.1110  0.5087
  303MOL0     H41769   1.995   2.211   1.078 -1.0867 -0.7765  0.5532
  303MOL0     H41770   2.185   1.981   1.147  0.9512  1.1811  0.2830
  303MOL0     H41771   2.139   2.123   1.245  0.0892 -1.6797  2.6846
  303MOL0     H41772   2.203   1.955   1.413 -0.9118  0.6039 -0.5991
  303MOL0     H41773   2.335   1.868   1.576 -1.4062  1.7181 -1.8228
  303MOL0     H41774   2.292   1.727   1.659 -2.2817 -0.9161 -0.9891
  303MOL0     H41775   2.248   1.887   1.727  4.0717 -0.6196  0.2450
  303MOL0     H41776   1.712   1.578   1.846  0.6155  0.5459 -2.4296
  303MOL0     H41777   1.666   1.464   2.068 -1.1287  1.9228 -1.1553
  303MOL0     H41778   1.811   1.122   2.072  1.1418  0.7175 -1.6188
  303MOL0     H41779   1.916   1.101   2.217 -2.1892 -0.6630  1.3542
  303MOL0     H41780   1.710   1.186   2.345  0.2773 -0.1128  0.3785
  303MOL0     H41781   1.620   1.131   2.207 -1.3775 -1.9684  0.6369
  303MOL0     H41782   1.744   0.913   2.224  2.8301 -0.5778  1.3604
  303MOL0     H41783   1.615   0.941   2.339  0.8382 -2.0349 -0.4783
  303MOL0     H41784   1.805   1.024   2.500 -0.4122  0.8999 -0.7694
  303MOL0     H41785   1.920   0.977   2.395 -1.4335  1.6890 -2.7217
  303MOL0     H41786   1.913   0.794   2.533  0.8377 -2.2185 -3.0839
  303MOL0     H41787   1.734   0.842   2.571 -3.7044 -2.2847 -1.1067
  303MOL0     H41788   1.810   0.662   2.335  3.0202  3.5419 -0.0963
  303MOL0     H41789   1.652   0.720   2.382  0.5696  3.4602  1.7006
  303MOL0     H41790   1.664   0.504   2.484 -1.7793  1.5307  0.8454
  303MOL0     H41791   1.698   0.612   2.610 -0.7076  1.0333 -1.1265
  303MOL0     H41792   1.873   0.454   2.640  0.1008 -1.0964 -1.5125
  303MOL0     H41793   1.962   0.564   2.540  1.3046 -1.3240  0.0968
  303MOL0     H41794   2.042   1.254   2.014  0.7017 -0.3229 -1.6764
  303MOL0     H41795   2.089   1.375   1.799  1.6534  1.6478  1.1479
  303MOL0     H41796   1.811   1.689   1.521  1.2047 -2.4520 -1.3352
  303MOL0     H41797   1.798   1.835   1.334 -1.3301 -3.5313  1.9547
  303MOL0     H41798   2.350   2.754   0.310  4.1274 -2.6350  2.9533
  303MOL0     H41799   2.455   2.945   0.392  2.1182 -1.6635  1.1429
  303MOL0     H41800   2.919   3.184   0.266  1.0247  1.6167 -0.2061
  303MOL0     H41801   3.067   3.366   0.366  0.0794 -0.8928 -0.5638
  303MOL0     H41802   2.879   3.589   0.691  0.3852 -1.7887 -1.0251
  303MOL0     H41803   3.008   3.540   0.796 -3.9033  2.8646  1.1479
  303MOL0     H41804   2.984   3.781   0.731  2.7117  1.0858  3.0349
  303MOL0     H41805   3.031   3.734   0.563 -0.8908 -2.0433 -0.0784
  303MOL0     H41806   3.170   3.755   0.835 -0.4246 -1.1389  0.2411
  303MOL0     H41807   3.248   3.649   0.714 -0.0756 -0.3776  0.9030
  303MOL0     H41808   3.249   3.862   0.552  3.0114 -2.9347 -0.1994
  303MOL0     H41809   3.350   3.872   0.695 -0.0428 -2.2788  2.9999
  303MOL0     H41810   3.090   4.185   0.785 -0.4970 -0.1820  1.2698
  303MOL0     H41811   2.875   3.349   0.732 -0.7440 -2.3403  1.6809
  303MOL0     H41812   2.741   3.057   0.724  1.3733  1.6383  2.1117
  303MOL0     H41813   2.666   3.208   0.756 -0.6425  0.6773 -2.1897
  303MOL0     H41814   2.616   3.122   0.609 -0.5528  2.9290 -1.6563
  304MOL0     O41815   6.462   1.791   1.846  0.3550 -0.0756  0.3889
  304MOL0     C41816   6.576   1.821   1.860 -0.2758  0.5552 -0.1998
  304MOL0     O41817   6.626   1.892   1.973  0.5779 -0.1874  0.6054
  304MOL0     C41818   6.546   1.897   2.087 -0.0023 -0.1172  0.3003
  304MOL0     C41819   6.550   2.014   2.163  0.8369 -0.1199  0.2671
  304MOL0     C41820   6.463   2.021   2.270  0.1627 -0.5672  1.5870
  304MOL0     C41821   6.378   1.915   2.312 -0.3054 -0.0193  0.6020
  304MOL0     O41822   6.296   1.932   2.420 -0.1467 -0.9571  0.7702
  304MOL0     C41823   6.262   1.820   2.496  0.4842  0.3702  0.4640
  304MOL0     C41824   6.191   1.882   2.612 -0.3416 -0.2942  0.3991
  304MOL0     C41825   6.036   1.902   2.572 -0.4553 -0.0608 -0.8398
  304MOL0     C41826   5.972   1.978   2.687 -0.2928 -0.2988 -0.0880
  304MOL0     C41827   5.833   2.013   2.642 -0.6204 -0.3012  0.6344
  304MOL0     C41828   5.752   2.055   2.758 -0.1016 -0.4237 -0.3668
  304MOL0     C41829   5.601   2.085   2.716 -0.1038  0.1653  0.1369
  304MOL0     C41830   5.516   2.124   2.839  0.1263 -0.3776  1.4590
  304MOL0     N41831   5.377   2.167   2.801 -0.2975 -0.0983 -0.7791
  304MOL0     C41832   5.285   2.189   2.898  0.0165 -0.4562  0.3661
  304MOL0     C41833   5.189   2.263   2.847  0.5227 -0.2310 -0.9656
  304MOL0     C41834   5.062   2.308   2.920  1.4047 -0.0744 -0.4827
  304MOL0     C41835   5.057   2.289   3.076 -0.9301  0.1866 -0.1794
  304MOL0     C41836   5.125   2.402   3.150 -0.2009  0.4679  0.5978
  304MOL0     C41837   5.056   2.534   3.159 -0.2663 -0.7872 -0.0416
  304MOL0     O41838   4.928   2.516   3.220 -0.7710 -0.6731  0.3908
  304MOL0     C41839   4.878   2.625   3.285  0.5390  0.2415  0.1958
  304MOL0     C41840   4.875   2.748   3.218 -0.2879 -0.0605 -0.1561
  304MOL0     C41841   4.813   2.857   3.277  1.0634 -0.0173 -0.2185
  304MOL0     C41842   4.805   2.977   3.190  0.4883 -0.5188  0.2114
  304MOL0     C41843   4.746   2.841   3.410  0.0896  0.6130 -0.2787
  304MOL0     C41844   4.681   2.953   3.479 -0.0018  0.2040  0.8264
  304MOL0     O41845   4.676   3.068   3.417 -0.1018  1.1372 -0.4191
  304MOL0     C41846   4.629   3.180   3.471 -0.1060 -0.2107 -0.6218
  304MOL0     C41847   4.516   3.250   3.412  0.4290  0.3078 -0.8477
  304MOL0     C41848   4.454   3.361   3.472  0.2222  0.4399  0.0694
  304MOL0     C41849   4.512   3.407   3.598  1.0956 -0.5080 -0.1760
  304MOL0     O41850   4.435   3.503   3.649 -0.6584 -0.3122 -0.5356
  304MOL0     C41851   4.498   3.594   3.734 -0.1050 -0.1782 -0.0619
  304MOL0     C41852   4.608   3.684   3.662 -0.0230 -1.0117 -0.1299
  304MOL0     C41853   4.548   3.750   3.533  0.5029  0.2991  0.0350
  304MOL0     C41854   4.656   3.855   3.478  0.0380  1.2894  0.4777
  304MOL0     C41855   4.591   3.909   3.344  0.4104  0.2567 -1.3236
  304MOL0     C41856   4.671   3.997   3.261  0.0004  0.0164  0.2321
  304MOL0     C41857   4.579   4.070   3.161  0.6042 -0.4366 -0.2107
  304MOL0     C41858   4.493   3.982   3.072  0.5741  1.0555  0.7135
  304MOL0    Cl41859   4.585   3.940   2.923  0.3276  0.6375 -0.2765
  304MOL0     C41860   4.630   3.346   3.651 -0.6790  0.3996  0.6498
  304MOL0     C41861   4.693   3.237   3.582  0.1583 -0.0282 -0.2288
  304MOL0     O41862   4.628   2.934   3.590 -0.4291 -1.0053 -0.9773
  304MOL0     C41863   4.751   2.714   3.470 -0.0267  0.6525  0.4708
  304MOL0     C41864   4.815   2.604   3.407 -0.9715 -0.1013 -0.3152
  304MOL0     N41865   5.224   2.293   2.712 -0.2653  0.0801 -0.3962
  304MOL0     N41866   5.343   2.245   2.692 -0.3705  0.3390 -0.3950
  304MOL0     C41867   6.377   1.799   2.233 -0.2971  0.0245 -0.6670
  304MOL0     C41868   6.468   1.796   2.124 -0.5137  1.4807  0.3441
  304MOL0     C41869   6.669   1.790   1.749 -0.5954  0.4326 -0.0141
  304MOL0     C41870   6.796   1.746   1.785  0.1192  0.1585 -0.6223
  304MOL0     C41871   6.897   1.727   1.695 -0.0757  0.8270 -0.6471
  304MOL0     C41872   6.875   1.737   1.555  0.1020 -0.4043 -0.5037
  304MOL0     O41873   6.967   1.711   1.457 -0.2046  1.2882  0.3583
  304MOL0     C41874   7.101   1.722   1.487 -0.0750  1.4672 -0.3412
  304MOL0     C41875   7.179   1.755   1.360  0.5661 -0.9587 -0.2297
  304MOL0     C41876   7.127   1.695   1.220  0.6809 -0.2230  0.2138
  304MOL0     C41877   7.113   1.542   1.235  0.3711  0.2365 -0.4099
  304MOL0     C41878   7.122   1.467   1.109 -0.0713  0.2031 -0.4139
  304MOL0     C41879   7.137   1.415   0.999 -0.1481 -0.1070 -0.1258
  304MOL0     C41880   6.744   1.764   1.519  0.8426  0.7202  0.5738
  304MOL0     C41881   6.642   1.802   1.603  0.5107 -0.7259 -0.4309
  304MOL0     C41882   6.497   1.829   1.548  0.2098 -0.5997  0.2969
  304MOL0     H41883   6.603   2.102   2.125 -0.8232  1.1145  0.6880
  304MOL0     H41884   6.460   2.111   2.331  1.7124  0.1061  0.7364
  304MOL0     H41885   6.345   1.757   2.529  0.1276 -1.3666 -1.6822
  304MOL0     H41886   6.197   1.754   2.438 -0.5311  0.3400  1.5937
  304MOL0     H41887   6.196   1.810   2.695  0.3483 -0.9783 -0.2211
  304MOL0     H41888   6.241   1.975   2.641 -3.3881  1.1995  1.3122
  304MOL0     H41889   6.031   1.958   2.479 -3.4001 -0.5008 -1.0477
  304MOL0     H41890   5.996   1.801   2.553  0.0589 -0.3223 -0.5672
  304MOL0     H41891   5.963   1.919   2.779  1.2094 -2.3537 -1.1633
  304MOL0     H41892   6.028   2.068   2.710 -0.3030 -0.3759  0.2453
  304MOL0     H41893   5.785   1.920   2.609  0.7471 -1.4227  1.6673
  304MOL0     H41894   5.824   2.079   2.555  0.1749 -3.1476 -1.8149
  304MOL0     H41895   5.750   1.987   2.844 -0.8519  1.8248  1.4875
  304MOL0     H41896   5.788   2.148   2.803 -0.7195 -1.2328  1.9595
  304MOL0     H41897   5.565   2.005   2.651  2.2379 -0.9574  0.1296
  304MOL0     H41898   5.598   2.171   2.648 -1.0586 -1.3716 -1.8711
  304MOL0     H41899   5.494   2.032   2.895 -0.3246 -2.5658 -2.0102
  304MOL0     H41900   5.570   2.182   2.915  2.1322  0.0915 -0.2275
  304MOL0     H41901   5.279   2.153   3.000 -2.7480 -0.6369  0.2134
  304MOL0     H41902   4.988   2.235   2.886  0.8755 -0.1869  0.8518
  304MOL0     H41903   5.020   2.406   2.894  2.3964  0.1188 -1.4721
  304MOL0     H41904   4.952   2.290   3.107 -0.9541  0.5333 -0.2686
  304MOL0     H41905   5.096   2.190   3.102  0.2798 -0.2943 -3.3942
  304MOL0     H41906   5.164   2.359   3.243 -0.6777 -1.1880  0.0543
  304MOL0     H41907   5.210   2.433   3.088  1.5670 -1.2144  2.0414
  304MOL0     H41908   5.114   2.609   3.214  0.0688 -0.6889 -0.5213
  304MOL0     H41909   5.034   2.579   3.062 -0.0476  2.6916  1.3835
  304MOL0     H41910   4.912   2.763   3.117  2.3762  0.0476  0.7444
  304MOL0     H41911   4.859   2.953   3.098  0.9108 -0.3582  0.4104
  304MOL0     H41912   4.864   3.057   3.238  2.1317 -1.8045  0.4342
  304MOL0     H41913   4.704   3.008   3.162  0.1343 -2.7268 -1.1815
  304MOL0     H41914   4.474   3.203   3.324 -0.1754 -3.5123  1.2436
  304MOL0     H41915   4.358   3.398   3.438 -0.5465 -1.2849  0.2292
  304MOL0     H41916   4.411   3.654   3.764 -0.5536  0.1388 -1.8876
  304MOL0     H41917   4.553   3.551   3.819  1.9902  0.1515 -1.2060
  304MOL0     H41918   4.643   3.756   3.737 -0.7426  1.6989 -2.2300
  304MOL0     H41919   4.694   3.621   3.640 -1.2228 -1.6175 -3.7361
  304MOL0     H41920   4.462   3.806   3.571 -0.4880 -0.2392 -1.3066
  304MOL0     H41921   4.528   3.672   3.458  1.2539 -0.7128  0.8468
  304MOL0     H41922   4.750   3.798   3.476  0.4794  1.4855  4.8851
  304MOL0     H41923   4.668   3.937   3.549 -1.3724  2.9298 -1.1073
  304MOL0     H41924   4.571   3.823   3.280  0.2801 -1.1796  0.5792
  304MOL0     H41925   4.496   3.956   3.372  0.5207  0.6004 -1.5145
  304MOL0     H41926   4.747   3.935   3.213  0.2733  1.4253 -1.2354
  304MOL0     H41927   4.714   4.078   3.321 -0.6637  0.0639  0.6593
  304MOL0     H41928   4.633   4.139   3.095  1.7254 -1.0156  0.0748
  304MOL0     H41929   4.511   4.134   3.217 -0.0293 -1.5820  0.3667
  304MOL0     H41930   4.402   4.038   3.051 -1.0189 -0.4719  3.0551
  304MOL0     H41931   4.467   3.885   3.115  2.7243  0.7721  1.5279
  304MOL0     H41932   4.678   3.384   3.741 -0.5320 -0.0775  0.7734
  304MOL0     H41933   4.779   3.197   3.635 -0.0702  0.1971  0.3273
  304MOL0     H41934   4.704   2.708   3.567 -1.5148  4.3913  0.1400
  304MOL0     H41935   4.821   2.505   3.451 -2.6511 -1.2155 -2.4091
  304MOL0     H41936   6.307   1.722   2.262  1.6075 -0.6138  2.8485
  304MOL0     H41937   6.461   1.709   2.060  2.3224  1.1713  0.3401
  304MOL0     H41938   6.814   1.731   1.890  1.1467  0.5108 -0.7291
  304MOL0     H41939   6.997   1.700   1.726 -0.4269 -0.0129 -0.2268
  304MOL0     H41940   7.109   1.808   1.555  2.4833 -0.5081  2.0753
  304MOL0     H41941   7.139   1.630   1.531 -0.7825  0.2704 -2.0909
  304MOL0     H41942   7.285   1.746   1.385  1.0152 -0.4163 -1.7810
  304MOL0     H41943   7.163   1.864   1.358 -0.7460 -1.1175  0.3478
  304MOL0     H41944   7.027   1.733   1.200 -0.6109 -2.2103  2.4859
  304MOL0     H41945   7.193   1.718   1.136 -0.1415  0.0121 -0.3799
  304MOL0     H41946   7.014   1.540   1.281 -0.0885 -1.6028 -1.3672
  304MOL0     H41947   7.193   1.506   1.301  2.1823  4.0575 -0.2427
  304MOL0     H41948   7.151   1.352   0.913 -2.0413 -2.3862  1.0942
  304MOL0     H41949   6.710   1.757   1.416 -2.0875 -1.0905  1.5561
  304MOL0     H41950   6.472   1.933   1.523 -1.7190 -0.9074  0.7531
  304MOL0     H41951   6.479   1.767   1.459  0.3509  2.4066 -2.0012
  304MOL0     H41952   6.425   1.804   1.626  2.1616 -0.8055  2.1147
  305MOL0     O41953   3.973   4.316   6.483 -0.1093  1.1099  0.1457
  305MOL0     C41954   4.051   4.230   6.437 -0.4294 -0.2078 -0.1199
  305MOL0     O41955   4.189   4.237   6.442 -0.2051  0.0289 -0.5665
  305MOL0     C41956   4.251   4.286   6.557  0.5251  0.4804  0.2745
  305MOL0     C41957   4.376   4.223   6.576 -0.0661 -0.7129 -0.1142
  305MOL0     C41958   4.451   4.278   6.679  0.9589  0.2764 -0.8900
  305MOL0     C41959   4.427   4.413   6.733 -0.2245  0.7625 -0.0010
  305MOL0     O41960   4.495   4.489   6.826  0.4963 -0.2136  0.4950
  305MOL0     C41961   4.600   4.430   6.906 -0.3352 -0.8053 -0.8137
  305MOL0     C41962   4.741   4.445   6.828  1.1301 -0.4848  0.6574
  305MOL0     C41963   4.853   4.374   6.904  0.4318  0.6662 -0.4612
  305MOL0     C41964   4.950   4.474   6.979  0.2083 -0.8124  1.3146
  305MOL0     C41965   5.064   4.419   7.062 -0.1044 -0.0463  0.2431
  305MOL0     C41966   5.153   4.334   6.973  0.3582 -0.5980 -0.1744
  305MOL0     C41967   5.233   4.427   6.882  0.1420 -0.2792  0.4978
  305MOL0     C41968   5.302   4.343   6.774 -0.2480 -0.7704 -0.1320
  305MOL0     N41969   5.392   4.430   6.684  0.6823 -0.4885  0.0325
  305MOL0     C41970   5.527   4.431   6.692  0.3488  0.1336 -0.0506
  305MOL0     C41971   5.567   4.511   6.592 -0.0848 -1.3282  0.2825
  305MOL0     C41972   5.718   4.523   6.552 -0.6433  1.1463  0.3193
  305MOL0     C41973   5.771   4.656   6.595 -0.4511 -1.2178 -0.1115
  305MOL0     C41974   5.876   4.701   6.487  0.0856  0.0975  0.0291
  305MOL0     C41975   5.967   4.808   6.541 -0.0763 -0.9157 -0.2987
  305MOL0     O41976   6.053   4.732   6.630  0.2603  0.8826  0.3650
  305MOL0     C41977   6.178   4.792   6.647  0.7396  0.8388 -0.3717
  305MOL0     C41978   6.299   4.723   6.603  0.7715 -0.9564 -0.6655
  305MOL0     C41979   6.421   4.767   6.620  0.2798  0.3479 -0.6748
  305MOL0     C41980   6.542   4.691   6.573 -0.0167 -0.5032 -0.2157
  305MOL0     C41981   6.426   4.904   6.676  0.0184 -0.1247  0.5142
  305MOL0     C41982   6.555   4.976   6.711 -0.6344 -0.3497 -0.0039
  305MOL0     O41983   6.542   5.097   6.781 -0.3899 -0.4830 -0.1872
  305MOL0     C41984   6.658   5.147   6.846  0.6794 -0.2067  0.4942
  305MOL0     C41985   6.686   5.282   6.835 -0.5416  0.3617 -0.1644
  305MOL0     C41986   6.796   5.338   6.897 -0.6075 -0.5486 -0.4182
  305MOL0     C41987   6.866   5.273   6.994 -0.4419  0.4212  0.1546
  305MOL0     O41988   6.958   5.332   7.077  0.4855 -0.0080  0.5122
  305MOL0     C41989   7.049   5.439   7.021 -0.2110 -0.0019 -0.8250
  305MOL0     C41990   7.143   5.487   7.132  0.1863  0.0336 -0.6594
  305MOL0     C41991   7.244   5.587   7.085 -0.4991  0.2027 -0.3502
  305MOL0     C41992   7.329   5.649   7.201 -0.0392  0.0794 -1.1483
  305MOL0     C41993   7.250   5.725   7.318 -1.0106  0.3290  0.1481
  305MOL0     C41994   7.173   5.842   7.260 -0.0253 -0.8701  0.0583
  305MOL0     C41995   7.105   5.927   7.364  0.9712  0.0923  0.4451
  305MOL0     C41996   7.050   6.049   7.285  0.1352 -0.2039 -0.0389
  305MOL0    Cl41997   7.186   6.145   7.197 -0.0567 -0.1678  0.3029
  305MOL0     C41998   6.828   5.132   7.024  0.3745  0.6109  1.2076
  305MOL0     C41999   6.733   5.063   6.937 -0.5227  0.1636 -0.7476
  305MOL0     O42000   6.658   4.941   6.663 -0.0273  0.0857 -0.1451
  305MOL0     C42001   6.311   4.972   6.719  0.9306 -0.0105  0.2476
  305MOL0     C42002   6.187   4.910   6.719 -0.7385  0.7939  0.2918
  305MOL0     N42003   5.453   4.574   6.542  0.5340  0.6829  0.3023
  305MOL0     N42004   5.344   4.518   6.592  0.0365  0.4207 -0.2036
  305MOL0     C42005   4.316   4.481   6.680 -0.0422 -0.5639 -0.0482
  305MOL0     C42006   4.236   4.419   6.590  0.4889  0.3244 -0.2714
  305MOL0     C42007   4.002   4.101   6.397  0.2657  0.0892 -0.2012
  305MOL0     C42008   4.051   3.985   6.459 -0.9248  0.6366 -0.3377
  305MOL0     C42009   4.000   3.852   6.431  0.2640 -0.2885  0.2546
  305MOL0     C42010   3.900   3.843   6.334  0.1511  0.3199 -0.6990
  305MOL0     O42011   3.871   3.720   6.279  0.4322 -0.4429 -0.1337
  305MOL0     C42012   3.815   3.708   6.146 -0.1981  0.7526 -0.2939
  305MOL0     C42013   3.660   3.703   6.131  0.9862 -0.3213 -0.8035
  305MOL0     C42014   3.610   3.556   6.152  0.8916 -0.4135  0.5933
  305MOL0     C42015   3.595   3.496   6.016  0.0825 -0.4551 -0.9693
  305MOL0     C42016   3.516   3.375   6.048  0.2195  0.1033 -0.7825
  305MOL0     C42017   3.443   3.274   6.061 -0.1448 -1.1056 -0.1590
  305MOL0     C42018   3.851   3.961   6.275  0.8017  0.0785  0.3210
  305MOL0     C42019   3.899   4.088   6.296  0.9981 -1.1940 -0.2976
  305MOL0     C42020   3.832   4.205   6.219  0.3603 -0.7694 -0.2969
  305MOL0     H42021   4.391   4.143   6.504 -1.4720  1.4266 -2.9992
  305MOL0     H42022   4.543   4.230   6.711  0.2857 -1.4461 -1.3911
  305MOL0     H42023   4.588   4.322   6.919  1.3987 -1.0720 -1.1331
  305MOL0     H42024   4.600   4.484   7.001  1.7226  1.2774 -1.8959
  305MOL0     H42025   4.732   4.405   6.726 -1.2640  1.7810 -0.1219
  305MOL0     H42026   4.777   4.545   6.800  1.2049 -0.4490  0.8840
  305MOL0     H42027   4.812   4.303   6.976 -0.3996  0.5386 -1.0432
  305MOL0     H42028   4.920   4.320   6.837  0.6969 -2.9905  2.4429
  305MOL0     H42029   4.976   4.552   6.906 -2.0189 -0.5338  0.7533
  305MOL0     H42030   4.896   4.535   7.053  1.0564  1.7321 -0.0433
  305MOL0     H42031   5.010   4.368   7.142 -1.9623  0.6402 -0.4955
  305MOL0     H42032   5.122   4.500   7.106 -1.8837  3.1357 -2.7512
  305MOL0     H42033   5.219   4.276   7.038  1.0076 -0.1115 -0.3846
  305MOL0     H42034   5.090   4.261   6.924 -0.7077 -1.8847  2.8552
  305MOL0     H42035   5.304   4.496   6.929 -0.6514  0.3174  0.8448
  305MOL0     H42036   5.168   4.499   6.832 -1.4624 -0.2564  2.5193
  305MOL0     H42037   5.367   4.272   6.825 -2.2864 -3.1406 -0.6461
  305MOL0     H42038   5.221   4.298   6.716 -1.3860  2.1123 -0.9859
  305MOL0     H42039   5.600   4.362   6.733  1.0318 -0.5343 -2.2615
  305MOL0     H42040   5.719   4.519   6.443 -0.4389 -0.5320  0.3685
  305MOL0     H42041   5.766   4.435   6.595 -0.6377  2.0709  2.3455
  305MOL0     H42042   5.689   4.726   6.613 -0.0508 -1.4358  3.0408
  305MOL0     H42043   5.824   4.648   6.691  1.9653 -2.6446 -1.4604
  305MOL0     H42044   5.934   4.617   6.447 -0.6742 -0.1534 -0.5625
  305MOL0     H42045   5.817   4.739   6.403  2.4059  3.2966 -0.3731
  305MOL0     H42046   6.016   4.859   6.458  1.8835 -1.9914  0.1481
  305MOL0     H42047   5.918   4.878   6.609  0.2142 -0.2127 -0.7990
  305MOL0     H42048   6.285   4.624   6.562 -1.1078 -0.5429 -1.1393
  305MOL0     H42049   6.620   4.762   6.543 -0.0604  0.7786  2.3474
  305MOL0     H42050   6.518   4.630   6.486  0.5709 -0.3360 -0.4988
  305MOL0     H42051   6.591   4.635   6.653 -0.1934  1.9574  1.7533
  305MOL0     H42052   6.625   5.333   6.761 -0.1355 -0.0674 -0.8005
  305MOL0     H42053   6.832   5.438   6.874 -1.9040 -0.4953 -2.4353
  305MOL0     H42054   7.102   5.415   6.929  2.3197 -0.2442  0.5725
  305MOL0     H42055   6.997   5.532   6.996  1.5943  1.3827  0.2873
  305MOL0     H42056   7.071   5.528   7.203 -1.8991 -0.0081 -2.6035
  305MOL0     H42057   7.192   5.401   7.177  0.2205 -2.1033 -4.3705
  305MOL0     H42058   7.211   5.673   7.026  1.8658  1.1050 -0.4519
  305MOL0     H42059   7.312   5.531   7.019  0.7266 -2.1054  2.6540
  305MOL0     H42060   7.394   5.714   7.141  0.9507  0.8259  0.6548
  305MOL0     H42061   7.379   5.560   7.240 -0.8361 -1.1703 -2.8502
  305MOL0     H42062   7.185   5.653   7.369  0.6692 -0.1092  1.7986
  305MOL0     H42063   7.321   5.758   7.394 -0.7322 -1.7777  0.8787
  305MOL0     H42064   7.101   5.806   7.186 -0.7167  1.5378 -0.5519
  305MOL0     H42065   7.257   5.899   7.220 -1.2234  1.6156  0.8095
  305MOL0     H42066   7.173   5.949   7.446 -0.4963 -1.3515  2.1409
  305MOL0     H42067   7.025   5.875   7.419 -0.6125 -0.9581 -2.6164
  305MOL0     H42068   6.994   6.117   7.349 -1.6050 -0.0401 -1.6376
  305MOL0     H42069   6.988   6.012   7.203 -0.5058 -0.9153  0.7454
  305MOL0     H42070   6.878   5.074   7.101 -0.0087 -2.9065 -0.9862
  305MOL0     H42071   6.707   4.958   6.940  0.0560 -0.0978 -3.0088
  305MOL0     H42072   6.315   5.067   6.770 -2.6034  2.1831 -2.9891
  305MOL0     H42073   6.098   4.952   6.764 -1.6417 -1.5502  0.8305
  305MOL0     H42074   4.302   4.586   6.704  0.9307 -0.3709 -0.2989
  305MOL0     H42075   4.175   4.483   6.527 -1.9117 -0.4027  1.1624
  305MOL0     H42076   4.124   4.000   6.538  2.0046  1.0114 -2.9265
  305MOL0     H42077   4.049   3.769   6.480 -0.4008 -0.7280  0.2004
  305MOL0     H42078   3.858   3.787   6.084 -1.2784 -0.6093 -2.9263
  305MOL0     H42079   3.859   3.614   6.111  0.7480  0.4632  1.5177
  305MOL0     H42080   3.629   3.737   6.031  2.7426 -0.4701 -1.4245
  305MOL0     H42081   3.618   3.761   6.213  0.0483 -4.0881  1.6147
  305MOL0     H42082   3.674   3.496   6.217 -0.3504 -1.6148  0.7743
  305MOL0     H42083   3.514   3.560   6.205  0.8070  0.0167  0.4092
  305MOL0     H42084   3.697   3.467   5.988  1.7558 -1.2483  4.6980
  305MOL0     H42085   3.536   3.562   5.952 -0.9235  0.6259  0.9751
  305MOL0     H42086   3.373   3.194   6.062 -2.4371  0.6721 -2.7608
  305MOL0     H42087   3.751   3.955   6.232  1.3376 -0.4408 -0.9265
  305MOL0     H42088   3.912   4.270   6.183 -2.0725  1.1298 -2.7327
  305MOL0     H42089   3.779   4.173   6.128 -2.8209 -0.0242  1.1382
  305MOL0     H42090   3.761   4.272   6.269 -2.9885 -3.4548 -1.0393
  306MOL0     O42091   7.132   8.068  10.978  0.5117 -0.0010 -0.9521
  306MOL0     C42092   7.121   8.121  11.088  0.1192  1.1330 -0.1362
  306MOL0     O42093   7.223   8.129  11.180 -0.5943 -0.7965 -0.0852
  306MOL0     C42094   7.353   8.087  11.141 -0.0240 -0.7880  0.3372
  306MOL0     C42095   7.412   7.962  11.174 -0.1498 -0.6254 -0.1977
  306MOL0     C42096   7.541   7.936  11.128 -0.2712 -0.0229  0.3390
  306MOL0     C42097   7.605   8.011  11.029  0.5510 -0.5501  0.0151
  306MOL0     O42098   7.727   7.982  10.990 -0.4429  0.0417 -0.3859
  306MOL0     C42099   7.730   7.848  10.945 -0.3026  0.0638  0.4397
  306MOL0     C42100   7.852   7.810  10.861  0.8713  0.4696 -0.0177
  306MOL0     C42101   7.911   7.929  10.782  0.3643  0.8303 -0.2973
  306MOL0     C42102   8.012   7.895  10.678 -0.1099  0.0319 -0.3062
  306MOL0     C42103   8.151   7.845  10.726 -1.2150 -0.3703 -0.0552
  306MOL0     C42104   8.244   7.949  10.792  0.3645  1.1396  0.0078
  306MOL0     C42105   8.347   8.025  10.706  0.1469  0.1067 -0.4751
  306MOL0     C42106   8.276   8.098  10.588  0.0616 -0.8135 -0.0844
  306MOL0     N42107   8.345   8.227  10.564 -0.0284  0.2823 -0.3262
  306MOL0     C42108   8.444   8.248  10.474  0.0342  0.2843 -0.9064
  306MOL0     C42109   8.483   8.375  10.488  0.7094  0.5107  0.4251
  306MOL0     C42110   8.567   8.464  10.397  0.0533 -0.0097 -0.3332
  306MOL0     C42111   8.653   8.561  10.479 -0.5717 -0.2552 -0.5494
  306MOL0     C42112   8.767   8.642  10.406 -0.4870 -0.3688  0.4102
  306MOL0     C42113   8.801   8.754  10.500  0.2207 -0.6868 -0.4759
  306MOL0     O42114   8.711   8.860  10.493 -0.7914  0.0308 -0.0018
  306MOL0     C42115   8.757   8.980  10.450  0.1696  0.7099  0.0417
  306MOL0     C42116   8.855   9.045  10.521 -0.3158 -0.0013  1.1529
  306MOL0     C42117   8.913   9.166  10.479 -0.1140  0.1253  0.2623
  306MOL0     C42118   9.010   9.226  10.583  0.3281 -0.5361  0.1469
  306MOL0     C42119   8.889   9.215  10.350 -0.9510 -0.7898  0.2908
  306MOL0     C42120   8.964   9.334  10.296  0.6569 -0.4612  0.3869
  306MOL0     O42121   8.913   9.394  10.179  0.1852  0.3357  0.0719
  306MOL0     C42122   8.992   9.496  10.113 -0.0512  0.4568 -0.1122
  306MOL0     C42123   9.030   9.608  10.179 -0.7967 -0.4121 -0.9093
  306MOL0     C42124   9.117   9.699  10.114 -0.8049 -0.1436 -0.5734
  306MOL0     C42125   9.159   9.681   9.984 -0.2348 -0.4314  0.8253
  306MOL0     O42126   9.235   9.785   9.943 -0.2723  0.0660  0.9288
  306MOL0     C42127   9.245   9.824   9.801  0.5577 -0.7555 -0.1940
  306MOL0     C42128   9.105   9.844   9.739 -0.8953  0.3097 -0.7390
  306MOL0     C42129   9.121   9.924   9.614 -0.5387  0.3622  0.7803
  306MOL0     C42130   9.159   9.820   9.500  0.4407 -0.5387  0.4535
  306MOL0     C42131   9.102   9.874   9.370 -0.9366 -0.4812  0.6612
  306MOL0     C42132   9.204   9.816   9.256  0.0745  0.5762 -0.3236
  306MOL0     C42133   9.122   9.827   9.124  0.2693 -1.0202 -0.0784
  306MOL0     C42134   9.221   9.805   9.009  1.4303 -0.2207  0.4025
  306MOL0    Cl42135   9.240   9.618   8.995  0.3134 -0.3231  0.0759
  306MOL0     C42136   9.120   9.562   9.914  0.7592 -0.2569 -0.2395
  306MOL0     C42137   9.042   9.469   9.983 -0.4747 -0.2795  0.5297
  306MOL0     O42138   9.057   9.382  10.358  0.5762  0.0974  0.3465
  306MOL0     C42139   8.794   9.148  10.275  0.0292  0.1788  0.4355
  306MOL0     C42140   8.725   9.038  10.327  0.3071 -0.3820  0.5629
  306MOL0     N42141   8.408   8.418  10.596  0.5848  0.5732  0.1739
  306MOL0     N42142   8.319   8.335  10.638  0.5596 -0.4772  0.3988
  306MOL0     C42143   7.540   8.133  10.985  0.3529  0.2482 -0.5617
  306MOL0     C42144   7.419   8.169  11.041 -0.5571 -0.8884  0.0463
  306MOL0     C42145   6.994   8.196  11.127 -1.2981 -0.4157 -0.6625
  306MOL0     C42146   6.969   8.218  11.270 -0.1253 -0.3740  0.8589
  306MOL0     C42147   6.864   8.298  11.313 -0.5497  0.7877  0.0820
  306MOL0     C42148   6.781   8.367  11.221  0.5308 -0.1280 -0.4443
  306MOL0     O42149   6.671   8.436  11.266 -0.0790 -0.8420 -0.3209
  306MOL0     C42150   6.642   8.437  11.405 -0.8370  0.5689  0.1709
  306MOL0     C42151   6.542   8.540  11.445  0.4852 -0.4392 -0.2126
  306MOL0     C42152   6.570   8.687  11.390 -1.3907 -0.1656 -0.2882
  306MOL0     C42153   6.444   8.763  11.396  0.4212 -0.0520  0.2901
  306MOL0     C42154   6.472   8.908  11.412 -0.6105  0.1665 -0.0525
  306MOL0     C42155   6.517   9.025  11.429  1.3545  0.2005  0.4038
  306MOL0     C42156   6.801   8.334  11.090  0.1825  0.0028  0.1439
  306MOL0     C42157   6.899   8.246  11.034 -0.2745 -1.0293  0.1286
  306MOL0     C42158   6.905   8.220  10.886  0.0257 -0.3754 -0.4521
  306MOL0     H42159   7.362   7.903  11.250  1.5084  0.4984  1.8721
  306MOL0     H42160   7.598   7.853  11.168 -1.2947 -0.4821  0.8803
  306MOL0     H42161   7.645   7.828  10.880  0.0732 -0.3362  0.0629
  306MOL0     H42162   7.721   7.777  11.027 -0.1475  1.6813  1.8974
  306MOL0     H42163   7.925   7.767  10.931 -0.1341 -0.2280  0.6255
  306MOL0     H42164   7.829   7.722  10.800  0.7385 -0.3085  1.1107
  306MOL0     H42165   7.832   7.980  10.727 -1.5270 -1.3880  0.1859
  306MOL0     H42166   7.941   8.004  10.856 -0.4519  0.8306  0.0412
  306MOL0     H42167   7.973   7.809  10.622 -0.5093  1.6268 -2.5818
  306MOL0     H42168   8.019   7.983  10.614 -0.1449  0.2061 -0.0730
  306MOL0     H42169   8.192   7.789  10.641 -0.5464  2.1634 -1.4969
  306MOL0     H42170   8.128   7.771  10.804  0.6621 -0.8514  0.0870
  306MOL0     H42171   8.179   8.023  10.839  1.2678  2.3803 -0.6279
  306MOL0     H42172   8.304   7.888  10.860 -0.1806 -0.6199 -1.0222
  306MOL0     H42173   8.422   7.958  10.663  0.2962 -0.0204 -0.0189
  306MOL0     H42174   8.407   8.093  10.767  1.4635  0.1048 -1.7221
  306MOL0     H42175   8.272   8.031  10.502 -0.3645 -2.9884  1.5338
  306MOL0     H42176   8.169   8.112  10.607  0.2715  1.5233 -0.2996
  306MOL0     H42177   8.478   8.183  10.394 -0.6877  0.2929 -1.2275
  306MOL0     H42178   8.508   8.516  10.320 -0.1969 -1.7218 -1.3425
  306MOL0     H42179   8.633   8.402  10.335  0.2226  0.4569 -0.6236
  306MOL0     H42180   8.582   8.629  10.528  0.3269 -0.9653  1.8315
  306MOL0     H42181   8.706   8.508  10.558 -1.4464 -0.4719 -0.1002
  306MOL0     H42182   8.851   8.572  10.399  1.2292  1.4237  2.1010
  306MOL0     H42183   8.738   8.681  10.308  0.4255 -3.6290 -1.3289
  306MOL0     H42184   8.803   8.730  10.606  0.2831  2.3597  0.3088
  306MOL0     H42185   8.902   8.793  10.486  0.7341 -0.4729  2.9841
  306MOL0     H42186   8.894   8.997  10.610 -3.1774 -3.2473  0.8377
  306MOL0     H42187   9.113   9.215  10.548  1.1701  1.4397  1.8152
  306MOL0     H42188   9.003   9.174  10.679  2.0975 -0.0477  0.5662
  306MOL0     H42189   8.998   9.332  10.605  0.9102 -0.8071  1.8666
  306MOL0     H42190   8.993   9.638  10.277  0.8159 -2.5304  0.4487
  306MOL0     H42191   9.159   9.787  10.162 -2.8219  0.1614  0.7309
  306MOL0     H42192   9.308   9.914   9.796 -0.0153 -0.3992 -1.3530
  306MOL0     H42193   9.299   9.750   9.742 -0.1145 -0.9397 -0.5901
  306MOL0     H42194   9.055   9.750   9.714  3.5824 -2.3758 -0.6527
  306MOL0     H42195   9.046   9.904   9.809  2.2529 -0.6262  2.9967
  306MOL0     H42196   9.194  10.006   9.616 -0.9397  0.8956 -1.7802
  306MOL0     H42197   9.027   9.971   9.584  0.0142  3.2243  3.0800
  306MOL0     H42198   9.124   9.717   9.511  0.4732 -0.6355 -0.3411
  306MOL0     H42199   9.268   9.819   9.499  0.4612 -1.9845  1.4782
  306MOL0     H42200   9.000   9.837   9.359 -0.5766 -1.6864  1.2310
  306MOL0     H42201   9.107   9.983   9.364  2.0752 -0.5443  0.4259
  306MOL0     H42202   9.237   9.719   9.294 -1.9796  0.3312  0.9834
  306MOL0     H42203   9.288   9.885   9.254  0.8720 -0.2905  1.4463
  306MOL0     H42204   9.068   9.920   9.109 -2.3773 -1.7645  3.5096
  306MOL0     H42205   9.043   9.752   9.130 -0.8788  0.2635  2.2133
  306MOL0     H42206   9.318   9.852   9.026  0.5894  1.3150  1.1716
  306MOL0     H42207   9.165   9.847   8.926 -0.5816 -0.0531  1.7614
  306MOL0     H42208   9.146   9.548   9.809 -2.4661  2.0847 -1.5329
  306MOL0     H42209   9.015   9.372   9.942  1.4040 -0.1877 -1.0331
  306MOL0     H42210   8.756   9.186  10.180 -1.4592 -1.5182  0.2915
  306MOL0     H42211   8.652   8.987  10.265 -1.1840  1.0650  1.0292
  306MOL0     H42212   7.584   8.194  10.907 -0.7064 -1.7612 -2.8718
  306MOL0     H42213   7.371   8.264  11.023  0.0074 -0.4376  0.8649
  306MOL0     H42214   7.039   8.168  11.336  1.0358 -0.8540 -0.6596
  306MOL0     H42215   6.850   8.319  11.419 -1.3458 -1.2942  0.4376
  306MOL0     H42216   6.625   8.331  11.425  1.8915  0.0394  0.0815
  306MOL0     H42217   6.731   8.468  11.461 -1.3488  3.0266 -0.2281
  306MOL0     H42218   6.535   8.537  11.554  1.7778 -0.4663 -0.1128
  306MOL0     H42219   6.448   8.503  11.403 -0.8680  0.0821  2.1504
  306MOL0     H42220   6.638   8.745  11.453 -0.8477 -1.3895  0.2835
  306MOL0     H42221   6.610   8.684  11.288 -1.4425 -2.0389 -0.2858
  306MOL0     H42222   6.385   8.733  11.484  2.9013 -0.1448  2.0305
  306MOL0     H42223   6.380   8.760  11.307 -1.8533 -0.8495  1.8457
  306MOL0     H42224   6.557   9.121  11.457 -0.9545  1.2046  0.4780
  306MOL0     H42225   6.725   8.371  11.021  2.7559 -0.4814 -3.2160
  306MOL0     H42226   6.997   8.263  10.845  0.3742  0.4948  1.1846
  306MOL0     H42227   6.905   8.114  10.859  2.2797 -1.1291  2.1335
  306MOL0     H42228   6.825   8.279  10.840  2.7627  1.9940 -2.5353
  307MOL0     O42229   6.275  11.172   0.970  0.0061  0.1123 -0.1445
  307MOL0     C42230   6.368  11.103   0.929  0.1793  0.5916 -0.1664
  307MOL0     O42231   6.402  10.971   0.968  0.1933 -0.5611  0.0615
  307MOL0     C42232   6.306  10.930   1.058  0.5522 -0.0614 -0.3541
  307MOL0     C42233   6.185  10.870   1.009  0.7589 -0.7697  0.6155
  307MOL0     C42234   6.080  10.830   1.092 -0.3934  0.1254  0.6348
  307MOL0     C42235   6.086  10.868   1.224 -0.6133  1.2928 -0.2367
  307MOL0     O42236   5.976  10.849   1.300 -0.0323 -0.4421  1.0535
  307MOL0     C42237   5.972  10.906   1.431  0.1001 -0.3291 -0.1052
  307MOL0     C42238   5.841  10.868   1.494 -0.1781  0.6402 -0.0832
  307MOL0     C42239   5.818  10.917   1.640  0.1164  0.1570  0.1224
  307MOL0     C42240   5.797  11.072   1.657 -0.1403  0.3408 -0.1562
  307MOL0     C42241   5.670  11.114   1.748 -0.8280  0.3009  0.1285
  307MOL0     C42242   5.536  11.102   1.698 -0.1911 -0.8196  0.3947
  307MOL0     C42243   5.437  11.203   1.767  0.7403 -0.0544 -0.1311
  307MOL0     C42244   5.411  11.167   1.906  1.0576  1.7739  0.6969
  307MOL0     N42245   5.339  11.035   1.920 -0.0250  0.8196  0.0115
  307MOL0     C42246   5.395  10.936   1.998  0.1782 -0.1087  0.7027
  307MOL0     C42247   5.321  10.823   1.988 -0.4692 -0.1664 -0.7462
  307MOL0     C42248   5.328  10.691   2.057  0.2565  0.1986  0.2317
  307MOL0     C42249   5.460  10.620   2.019 -0.6612 -0.8299  0.9356
  307MOL0     C42250   5.588  10.653   2.096 -0.2867 -0.4728 -0.7717
  307MOL0     C42251   5.703  10.565   2.042  0.0492  0.0405 -0.3705
  307MOL0     O42252   5.817  10.592   2.125  0.1777 -0.2502  1.0354
  307MOL0     C42253   5.911  10.681   2.066 -0.0312 -0.7339  0.1859
  307MOL0     C42254   5.995  10.641   1.963 -0.6792 -0.0811  0.2062
  307MOL0     C42255   6.085  10.725   1.899 -0.6708 -0.0643 -0.5022
  307MOL0     C42256   6.195  10.667   1.801  0.4134 -0.0360 -0.4437
  307MOL0     C42257   6.086  10.858   1.941  0.2440  0.5543  0.0152
  307MOL0     C42258   6.166  10.968   1.878 -0.7105  0.3157  0.0447
  307MOL0     O42259   6.185  11.079   1.952 -0.1789 -0.1247  0.0697
  307MOL0     C42260   6.267  11.177   1.895 -0.1492 -0.1684  0.6966
  307MOL0     C42261   6.219  11.271   1.796 -0.8333  0.2015 -0.4644
  307MOL0     C42262   6.304  11.368   1.751  0.5179 -0.4407  0.2086
  307MOL0     C42263   6.433  11.392   1.811  0.3801 -0.2886 -0.6500
  307MOL0     O42264   6.523  11.493   1.764  0.6855  1.2281 -1.0957
  307MOL0     C42265   6.478  11.592   1.676  0.7350  0.2195  0.7492
  307MOL0     C42266   6.595  11.701   1.654  0.6861 -0.2129  0.3252
  307MOL0     C42267   6.531  11.794   1.550  0.4827  0.2735  0.0849
  307MOL0     C42268   6.626  11.865   1.460 -0.9333 -0.6583  0.4824
  307MOL0     C42269   6.553  11.955   1.354  0.6748 -0.0359 -0.2805
  307MOL0     C42270   6.477  12.068   1.390  0.7820 -0.1210  0.5909
  307MOL0     C42271   6.406  12.144   1.269 -0.3213  0.5746  0.5724
  307MOL0     C42272   6.268  12.194   1.301 -0.8458 -0.8571 -0.7069
  307MOL0    Cl42273   6.169  12.242   1.164  0.3554 -0.4396  0.1453
  307MOL0     C42274   6.480  11.299   1.914  1.0281 -1.2279  0.3403
  307MOL0     C42275   6.399  11.196   1.953  0.1892  0.1982  0.1506
  307MOL0     O42276   6.223  10.949   1.766  0.2312 -0.0802  0.3023
  307MOL0     C42277   6.006  10.899   2.050 -0.1258 -0.5100  0.1755
  307MOL0     C42278   5.918  10.811   2.112  0.5558 -1.6053 -0.2612
  307MOL0     N42279   5.224  10.854   1.889  0.0142 -0.9115 -0.8432
  307MOL0     N42280   5.230  10.979   1.850 -0.5175  0.3760 -0.3996
  307MOL0     C42281   6.207  10.922   1.282 -0.2072  0.1212 -0.0599
  307MOL0     C42282   6.314  10.945   1.192 -0.1031  0.7757 -1.0041
  307MOL0     C42283   6.449  11.162   0.822 -0.0747 -1.2218  0.1416
  307MOL0     C42284   6.440  11.303   0.806  0.8484 -0.1306  0.0034
  307MOL0     C42285   6.520  11.371   0.711  0.4863  0.0495  0.2706
  307MOL0     C42286   6.611  11.295   0.636  0.4990 -0.7384 -0.1489
  307MOL0     O42287   6.698  11.356   0.546  0.8775 -1.0793 -0.2399
  307MOL0     C42288   6.661  11.339   0.403  0.1134  0.0603  0.3937
  307MOL0     C42289   6.773  11.397   0.305 -0.6665  0.0017  0.4450
  307MOL0     C42290   6.711  11.402   0.164 -0.4123  1.0423 -0.2487
  307MOL0     C42291   6.826  11.418   0.052 -0.7208 -0.3483 -0.1891
  307MOL0     C42292   6.884  11.290   0.010  0.3549 -0.3411  0.2064
  307MOL0     C42293   6.916  11.180  -0.038 -0.4374  0.2137  0.3637
  307MOL0     C42294   6.612  11.157   0.646  0.6860  0.6456  0.5840
  307MOL0     C42295   6.533  11.086   0.731  1.0132  0.5578  0.2171
  307MOL0     C42296   6.553  10.941   0.736 -0.6853  0.7716  0.2444
  307MOL0     H42297   6.185  10.841   0.904  1.3032 -0.5607  0.5533
  307MOL0     H42298   5.994  10.785   1.043  1.0504 -2.3439  0.1557
  307MOL0     H42299   5.960  11.013   1.416 -0.4469 -0.7399 -3.2590
  307MOL0     H42300   6.056  10.875   1.495  0.4340  1.8623  0.5950
  307MOL0     H42301   5.748  10.902   1.446 -2.6010  0.2635  3.8071
  307MOL0     H42302   5.842  10.759   1.497  0.4647  0.3114 -4.9293
  307MOL0     H42303   5.722  10.874   1.670 -0.0409  1.1955  1.1560
  307MOL0     H42304   5.899  10.879   1.704  2.8640 -1.8715 -4.1014
  307MOL0     H42305   5.885  11.119   1.703 -0.3900  1.4063 -0.7175
  307MOL0     H42306   5.805  11.122   1.560 -0.8282  2.9062  1.0207
  307MOL0     H42307   5.684  11.221   1.765 -1.4893  0.7108 -1.6274
  307MOL0     H42308   5.682  11.068   1.846  1.5208  1.3392  0.4091
  307MOL0     H42309   5.537  11.137   1.595 -0.7811  1.5382  1.1120
  307MOL0     H42310   5.496  11.001   1.708 -1.1714 -0.8914 -3.0269
  307MOL0     H42311   5.349  11.217   1.704 -0.3334  0.9498  1.5209
  307MOL0     H42312   5.487  11.300   1.761 -0.5729  0.6918  0.6464
  307MOL0     H42313   5.509  11.165   1.954  0.9771 -1.3925  0.9603
  307MOL0     H42314   5.362  11.246   1.963  0.0053 -0.2408  2.7330
  307MOL0     H42315   5.469  10.940   2.077 -1.8933 -1.2299  2.8352
  307MOL0     H42316   5.237  10.633   2.037 -0.3748  0.9843  0.7506
  307MOL0     H42317   5.328  10.704   2.166  0.0452 -0.2512  0.2886
  307MOL0     H42318   5.436  10.514   2.032  2.0192 -2.2485 -3.3991
  307MOL0     H42319   5.478  10.641   1.913 -0.8353  2.6266  1.4895
  307MOL0     H42320   5.621  10.756   2.082 -1.2571  0.3113  1.9587
  307MOL0     H42321   5.573  10.648   2.204 -2.1419  1.1395 -0.9006
  307MOL0     H42322   5.683  10.457   2.041 -3.0733  0.5273 -0.9822
  307MOL0     H42323   5.727  10.590   1.938  5.5287 -2.8031 -0.1601
  307MOL0     H42324   5.987  10.539   1.928  2.4810 -0.3360 -0.0595
  307MOL0     H42325   6.207  10.558   1.807  1.1787  0.0195 -0.8742
  307MOL0     H42326   6.295  10.710   1.802  1.0426 -1.4070 -1.0474
  307MOL0     H42327   6.156  10.700   1.704 -2.2803 -0.3927  0.4229
  307MOL0     H42328   6.119  11.259   1.755 -1.4809 -2.7513  1.6502
  307MOL0     H42329   6.282  11.431   1.665  2.0643 -0.2255 -0.0535
  307MOL0     H42330   6.459  11.545   1.579 -3.7238 -0.0835  1.5254
  307MOL0     H42331   6.390  11.652   1.699 -0.0766  1.0562 -3.5431
  307MOL0     H42332   6.625  11.748   1.748  0.8275  3.2295 -1.2952
  307MOL0     H42333   6.676  11.643   1.609  1.6851 -0.2414  2.0826
  307MOL0     H42334   6.476  11.870   1.606  2.3024  1.2326  0.6609
  307MOL0     H42335   6.453  11.737   1.499 -0.4925  2.6116 -1.1754
  307MOL0     H42336   6.691  11.791   1.413 -0.2439  0.5984 -0.6218
  307MOL0     H42337   6.694  11.924   1.521  2.5919 -1.1887 -2.5512
  307MOL0     H42338   6.622  11.984   1.274 -0.7894  0.3407 -1.4587
  307MOL0     H42339   6.485  11.880   1.312  2.0930 -1.5785  0.0752
  307MOL0     H42340   6.536  12.141   1.446 -0.3999  1.0088  0.4240
  307MOL0     H42341   6.393  12.035   1.452  0.3674 -2.5061 -1.0755
  307MOL0     H42342   6.402  12.087   1.176  1.2538  0.8172  0.3386
  307MOL0     H42343   6.476  12.222   1.237  1.2071  0.2194  2.8380
  307MOL0     H42344   6.272  12.273   1.377  1.7774  0.3501 -1.9699
  307MOL0     H42345   6.218  12.120   1.365 -1.5292  0.5619  0.4610
  307MOL0     H42346   6.576  11.325   1.958  1.1368  0.0743 -0.5963
  307MOL0     H42347   6.435  11.118   2.021 -0.2464 -0.1211  0.0171
  307MOL0     H42348   6.013  11.000   2.088 -1.3701 -0.4473  0.2912
  307MOL0     H42349   5.847  10.846   2.185  1.7930  2.0558 -0.6257
  307MOL0     H42350   6.221  10.947   1.386 -0.8696 -2.5447  0.7281
  307MOL0     H42351   6.410  10.979   1.228  0.0808 -1.0396  0.3510
  307MOL0     H42352   6.370  11.364   0.861 -1.2709 -1.7669 -0.7202
  307MOL0     H42353   6.505  11.476   0.688 -0.2020 -0.7322 -3.3979
  307MOL0     H42354   6.637  11.233   0.391 -0.0449 -0.0579  1.5856
  307MOL0     H42355   6.570  11.395   0.383  0.0423  0.7633  2.4202
  307MOL0     H42356   6.864  11.337   0.314  1.1029  2.2668 -1.1399
  307MOL0     H42357   6.803  11.498   0.334  2.9997 -0.9263  0.3913
  307MOL0     H42358   6.659  11.310   0.135  2.0275  0.3034 -2.6594
  307MOL0     H42359   6.638  11.483   0.157  1.9285  3.1230 -2.9841
  307MOL0     H42360   6.907  11.485   0.082 -1.5262  0.4920  0.1617
  307MOL0     H42361   6.779  11.473  -0.030 -0.5283 -1.9087 -1.3849
  307MOL0     H42362   6.944  11.082  -0.071 -2.9951 -0.2590 -0.5777
  307MOL0     H42363   6.670  11.092   0.581 -2.1533 -0.7269 -0.7819
  307MOL0     H42364   6.618  10.901   0.658  0.5164 -2.3437  2.6195
  307MOL0     H42365   6.625  10.920   0.816  1.5195 -1.6731 -2.1732
  307MOL0     H42366   6.461  10.883   0.743 -1.6241  2.2114  0.2215
  308MOL0     O42367   8.944   3.088   2.977 -0.4515  0.6349 -0.0692
  308MOL0     C42368   8.827   3.084   3.014  0.1136  0.2675 -1.0163
  308MOL0     O42369   8.789   3.096   3.143  1.1578  0.3129  0.0140
  308MOL0     C42370   8.886   3.122   3.237 -0.3718  0.6401  0.1479
  308MOL0     C42371   8.964   3.013   3.284  0.3992  0.1355  0.4446
  308MOL0     C42372   9.046   3.024   3.395  0.0991  0.1342  0.0127
  308MOL0     C42373   9.045   3.139   3.466  0.5985 -0.8318 -0.6105
  308MOL0     O42374   9.125   3.161   3.579 -1.2293  0.5744  0.2486
  308MOL0     C42375   9.082   3.089   3.698 -0.6908 -0.4020  0.0817
  308MOL0     C42376   8.973   3.178   3.765 -0.5327 -0.2268  0.4829
  308MOL0     C42377   9.026   3.313   3.815 -0.0151 -0.7748 -0.2258
  308MOL0     C42378   9.012   3.327   3.962 -0.5358 -0.3530  0.5410
  308MOL0     C42379   9.079   3.451   4.016 -1.1663 -0.6481  0.2704
  308MOL0     C42380   9.058   3.469   4.164  0.1665 -0.8290 -0.0022
  308MOL0     C42381   9.121   3.605   4.209 -0.5120 -0.6929 -0.3799
  308MOL0     C42382   9.146   3.621   4.361 -0.8262 -0.5462 -0.4976
  308MOL0     N42383   9.245   3.526   4.420 -0.0770 -0.3947 -0.4217
  308MOL0     C42384   9.376   3.520   4.396 -0.4772  0.2753 -0.4970
  308MOL0     C42385   9.425   3.426   4.479  0.2166 -0.3901  0.0984
  308MOL0     C42386   9.570   3.388   4.507  0.0815  0.2811 -0.2258
  308MOL0     C42387   9.625   3.492   4.607 -0.3368 -0.9434 -0.3450
  308MOL0     C42388   9.773   3.460   4.648  0.2423 -0.4772 -0.6691
  308MOL0     C42389   9.869   3.487   4.539 -0.8130  0.6810  0.0981
  308MOL0     O42390   9.874   3.632   4.513 -0.4543  0.0896 -0.6298
  308MOL0     C42391   9.947   3.683   4.405 -0.3554  0.1332  0.3083
  308MOL0     C42392   9.927   3.828   4.371  1.0120  0.4371  0.9591
  308MOL0     C42393   9.990   3.880   4.262  0.0612  0.7169 -0.5453
  308MOL0     C42394   9.952   4.026   4.233 -0.3660  0.6739 -0.4864
  308MOL0     C42395  10.067   3.802   4.172 -0.0820 -0.9385 -0.1624
  308MOL0     C42396  10.120   3.858   4.037 -0.0075  0.0919 -0.9384
  308MOL0     O42397  10.233   3.791   3.995  0.8624 -0.0428 -0.4961
  308MOL0     C42398  10.284   3.818   3.868  0.3534 -0.9137 -0.2965
  308MOL0     C42399  10.214   3.814   3.750 -0.1942  0.7980  0.3759
  308MOL0     C42400  10.286   3.826   3.627  0.6121  0.4760  0.4753
  308MOL0     C42401  10.422   3.819   3.622 -1.0377 -0.8542 -0.1093
  308MOL0     O42402  10.501   3.822   3.513 -0.4995 -0.0676  0.1902
  308MOL0     C42403  10.458   3.773   3.384 -0.5229  0.2523  0.8731
  308MOL0     C42404  10.581   3.773   3.292  0.4596 -0.7537  0.0757
  308MOL0     C42405  10.567   3.719   3.153 -0.1174  0.2551  0.0655
  308MOL0     C42406  10.541   3.838   3.053  0.8594  0.4540  0.8673
  308MOL0     C42407  10.558   3.787   2.905  0.2680 -0.1010  0.3716
  308MOL0     C42408  10.480   3.654   2.875  0.2033  0.1424 -0.3599
  308MOL0     C42409  10.531   3.583   2.747 -0.2442 -1.0211  0.0263
  308MOL0     C42410  10.459   3.616   2.616 -0.1077  0.0532  0.3700
  308MOL0    Cl42411  10.295   3.543   2.617 -0.3898 -0.6143  0.5347
  308MOL0     C42412  10.489   3.806   3.748 -0.4921 -1.2507  0.4709
  308MOL0     C42413  10.418   3.810   3.866  0.3035  0.4343  0.1691
  308MOL0     O42414  10.058   3.938   3.979 -0.0317 -0.0786  0.1724
  308MOL0     C42415  10.092   3.670   4.204 -0.4160  0.2021 -0.9192
  308MOL0     C42416  10.041   3.621   4.329 -0.4256 -0.5343  0.8663
  308MOL0     N42417   9.317   3.364   4.541  0.2145 -0.2996  0.0416
  308MOL0     N42418   9.213   3.431   4.509 -0.3369  0.2915  0.6465
  308MOL0     C42419   8.974   3.244   3.417  0.5743 -0.2145  0.8516
  308MOL0     C42420   8.888   3.233   3.310  0.6662  0.1289 -0.3336
  308MOL0     C42421   8.738   3.007   2.917 -0.3313  0.2187 -0.5505
  308MOL0     C42422   8.620   2.962   2.970 -0.4963 -0.0632  0.1218
  308MOL0     C42423   8.530   2.887   2.893  0.2573  0.0091  0.1538
  308MOL0     C42424   8.547   2.874   2.753  0.1767 -0.1283 -0.9578
  308MOL0     O42425   8.450   2.814   2.676 -0.5361  0.2530  0.1902
  308MOL0     C42426   8.461   2.805   2.537 -0.0161 -0.2593  0.8291
  308MOL0     C42427   8.399   2.675   2.486 -0.0916 -0.0837 -0.4905
  308MOL0     C42428   8.372   2.655   2.338 -0.3015  0.1347 -1.1479
  308MOL0     C42429   8.285   2.536   2.309 -0.8592 -0.3353 -0.3600
  308MOL0     C42430   8.361   2.411   2.278  0.0255 -0.7816 -0.0278
  308MOL0     C42431   8.427   2.322   2.263 -0.5778  0.5458 -0.1186
  308MOL0     C42432   8.666   2.919   2.696  0.0204 -0.5679 -0.2825
  308MOL0     C42433   8.761   2.984   2.778  0.6300 -0.5200 -0.8479
  308MOL0     C42434   8.887   3.034   2.710 -0.5188 -0.1872 -0.7016
  308MOL0     H42435   8.958   2.923   3.224 -0.3057 -1.7778  3.1645
  308MOL0     H42436   9.108   2.941   3.428 -0.2888 -0.6608 -1.1818
  308MOL0     H42437   9.155   3.077   3.779  1.3387  1.6890 -1.3383
  308MOL0     H42438   9.052   2.985   3.680 -0.6109 -0.6236  1.1522
  308MOL0     H42439   8.888   3.193   3.697 -0.0176  1.5073  0.1898
  308MOL0     H42440   8.940   3.114   3.848  0.4039  0.2493  1.2357
  308MOL0     H42441   9.128   3.335   3.784 -0.2512  0.9315  0.0930
  308MOL0     H42442   8.960   3.390   3.772 -0.3195  0.5518  2.4344
  308MOL0     H42443   8.907   3.323   3.993 -0.5440 -3.3710  0.3981
  308MOL0     H42444   9.047   3.241   4.020  2.2980 -0.5061 -1.2249
  308MOL0     H42445   9.033   3.528   3.954  1.6532 -1.3663 -3.0028
  308MOL0     H42446   9.187   3.451   4.001 -0.9720  0.5071  1.4915
  308MOL0     H42447   8.956   3.470   4.203  0.9618  1.2050  2.3487
  308MOL0     H42448   9.109   3.386   4.214 -1.3774 -1.9079 -0.1655
  308MOL0     H42449   9.059   3.689   4.178 -4.1772 -2.3353  1.8421
  308MOL0     H42450   9.220   3.612   4.162  0.6153  1.0276  2.0426
  308MOL0     H42451   9.193   3.720   4.353  0.5587 -1.2186 -1.0446
  308MOL0     H42452   9.054   3.629   4.419 -0.2810  3.0523  0.0980
  308MOL0     H42453   9.430   3.584   4.327 -0.2771 -1.0394 -1.6196
  308MOL0     H42454   9.628   3.375   4.415 -1.7762  1.2277 -1.6060
  308MOL0     H42455   9.564   3.294   4.563 -5.2762  1.4587  1.8367
  308MOL0     H42456   9.628   3.599   4.582 -0.3439 -1.0159 -0.6642
  308MOL0     H42457   9.564   3.481   4.697  2.0271  2.6639  1.9743
  308MOL0     H42458   9.808   3.520   4.733  1.2848  1.3665 -2.3277
  308MOL0     H42459   9.787   3.355   4.676  0.7659  0.1628  1.7117
  308MOL0     H42460   9.962   3.447   4.582 -2.7485 -1.6949  2.3704
  308MOL0     H42461   9.846   3.419   4.457  2.1829 -1.7457  1.0774
  308MOL0     H42462   9.854   3.888   4.425  0.7276  0.5238  0.4844
  308MOL0     H42463  10.045   4.080   4.212 -0.1819 -0.1634 -1.9983
  308MOL0     H42464   9.896   4.083   4.308  3.5802  2.8724  1.0760
  308MOL0     H42465   9.876   4.020   4.154 -2.6471 -1.1091  1.6986
  308MOL0     H42466  10.106   3.801   3.752 -0.2674  1.3223  0.1267
  308MOL0     H42467  10.239   3.835   3.529  2.7971 -3.1846 -1.1058
  308MOL0     H42468  10.430   3.668   3.397  0.2941  0.0128  0.7734
  308MOL0     H42469  10.380   3.842   3.350  2.7967  4.4607  0.9559
  308MOL0     H42470  10.622   3.873   3.279 -1.2105  0.2043  1.7463
  308MOL0     H42471  10.656   3.717   3.350  1.9550  2.0850  1.0716
  308MOL0     H42472  10.482   3.650   3.155 -1.3274  1.6961  0.0201
  308MOL0     H42473  10.657   3.677   3.107 -0.4755 -1.9895  1.3208
  308MOL0     H42474  10.609   3.921   3.072 -0.5847  1.5930  1.1726
  308MOL0     H42475  10.440   3.878   3.053 -0.4740 -2.5648 -0.2842
  308MOL0     H42476  10.520   3.860   2.833 -0.8703  0.5305  1.5767
  308MOL0     H42477  10.666   3.767   2.900  0.6385  1.6391  0.6495
  308MOL0     H42478  10.372   3.672   2.877 -0.3458 -2.7155  0.8946
  308MOL0     H42479  10.502   3.585   2.957  0.0396  0.5081 -0.0009
  308MOL0     H42480  10.535   3.476   2.770  1.1495 -0.6944  1.4748
  308MOL0     H42481  10.632   3.620   2.732 -0.5122  0.2110  1.0016
  308MOL0     H42482  10.521   3.578   2.534  1.4580  2.1404  0.5012
  308MOL0     H42483  10.448   3.723   2.596  3.4458  0.4176 -0.2041
  308MOL0     H42484  10.595   3.794   3.731  0.1471  3.9602 -0.6687
  308MOL0     H42485  10.469   3.804   3.962  1.4327  2.9776 -0.1947
  308MOL0     H42486  10.151   3.607   4.138  1.5699  1.2932 -0.2704
  308MOL0     H42487  10.069   3.517   4.346 -0.2714 -0.2951  2.1321
  308MOL0     H42488   8.990   3.340   3.466  1.8543 -0.7052  1.4065
  308MOL0     H42489   8.820   3.310   3.274 -2.2589 -0.1400  3.8656
  308MOL0     H42490   8.600   2.978   3.076 -2.0667 -0.2634 -0.1201
  308MOL0     H42491   8.443   2.832   2.930 -0.4058 -0.8589 -2.4870
  308MOL0     H42492   8.405   2.890   2.496  0.7521 -0.3863 -0.5523
  308MOL0     H42493   8.556   2.805   2.483 -0.9960  2.9825 -1.1930
  308MOL0     H42494   8.306   2.674   2.543  0.0740 -0.3123 -0.2173
  308MOL0     H42495   8.471   2.603   2.527 -1.4223 -0.7675  0.7315
  308MOL0     H42496   8.328   2.742   2.288 -2.9611 -0.7761 -0.5253
  308MOL0     H42497   8.470   2.637   2.292  1.6382  0.5262  2.4484
  308MOL0     H42498   8.217   2.575   2.234 -1.4593 -1.1234 -0.2414
  308MOL0     H42499   8.222   2.510   2.395 -1.7295 -1.9424 -1.4385
  308MOL0     H42500   8.493   2.238   2.251 -1.5679 -0.3710  0.6885
  308MOL0     H42501   8.679   2.921   2.589 -1.5351  1.0856 -0.4894
  308MOL0     H42502   8.905   3.136   2.745 -2.4987  0.4904 -1.4973
  308MOL0     H42503   8.962   2.958   2.734 -1.2748 -0.5796  0.5293
  308MOL0     H42504   8.870   3.041   2.602  1.5117 -1.7366 -1.1642
  309MOL0     O42505   1.102   3.284   9.913  0.6494  0.0232 -0.0614
  309MOL0     C42506   1.108   3.222  10.021 -0.3655  0.2324 -0.0373
  309MOL0     O42507   1.111   3.287  10.147 -0.1620  0.1761 -0.3534
  309MOL0     C42508   1.098   3.425  10.155  0.6199  0.4426 -0.2111
  309MOL0     C42509   0.980   3.477  10.103 -0.3320  0.9772  0.1383
  309MOL0     C42510   0.963   3.617  10.101  0.0675 -0.4150  0.1633
  309MOL0     C42511   1.067   3.698  10.151  0.2842 -0.8849  0.7186
  309MOL0     O42512   1.056   3.839  10.165  0.6276  0.7150  0.5299
  309MOL0     C42513   0.920   3.888  10.197  0.3179 -0.4771 -0.0253
  309MOL0     C42514   0.898   4.041  10.163 -0.1089  0.1062  0.6055
  309MOL0     C42515   0.935   4.081  10.025 -0.0974 -0.9112 -0.1707
  309MOL0     C42516   0.835   4.031   9.920  0.3907 -0.3335 -1.3129
  309MOL0     C42517   0.887   4.044   9.770 -0.3315 -0.3201 -0.0554
  309MOL0     C42518   0.883   4.192   9.737 -0.5176 -0.8454 -0.9599
  309MOL0     C42519   0.915   4.226   9.598  0.2215  0.5225  0.0627
  309MOL0     C42520   0.880   4.369   9.566 -0.1054 -0.7447  0.0756
  309MOL0     N42521   0.923   4.417   9.437 -0.7920 -0.0103  0.1005
  309MOL0     C42522   1.030   4.387   9.362 -0.7056  0.1046  0.0778
  309MOL0     C42523   1.009   4.447   9.239  0.7841  0.7964 -0.6236
  309MOL0     C42524   1.094   4.427   9.123 -0.7157  0.0561  0.9437
  309MOL0     C42525   1.036   4.314   9.033 -0.2605  0.1585 -0.3657
  309MOL0     C42526   1.141   4.290   8.923  0.2349 -0.5639  0.2344
  309MOL0     C42527   1.123   4.148   8.863 -0.8150  1.1313 -0.2521
  309MOL0     O42528   1.138   4.040   8.958 -0.2127  0.1200  0.1169
  309MOL0     C42529   1.241   3.956   8.929  0.2267  1.0339 -0.6819
  309MOL0     C42530   1.217   3.824   8.900 -0.1733 -0.0350  0.9488
  309MOL0     C42531   1.315   3.736   8.856 -0.1347 -0.2867  0.3129
  309MOL0     C42532   1.279   3.594   8.813 -0.5888  0.5452  0.0048
  309MOL0     C42533   1.455   3.788   8.838 -0.7845 -0.0734 -0.8431
  309MOL0     C42534   1.574   3.705   8.787  0.0523  0.4334  0.6166
  309MOL0     O42535   1.700   3.746   8.821  1.0247 -0.5324  0.5660
  309MOL0     C42536   1.810   3.680   8.767 -0.3547  0.2743 -0.6286
  309MOL0     C42537   1.823   3.645   8.633  0.0884  0.0183  0.3504
  309MOL0     C42538   1.931   3.571   8.582  0.4644 -0.6145 -0.7620
  309MOL0     C42539   2.030   3.540   8.664 -0.6555 -0.4598  0.0529
  309MOL0     O42540   2.138   3.462   8.633 -0.3763 -0.0017  0.7050
  309MOL0     C42541   2.213   3.467   8.513  0.7916  0.0573 -0.1912
  309MOL0     C42542   2.299   3.341   8.501  1.1404 -0.0858  0.7067
  309MOL0     C42543   2.378   3.336   8.367 -0.3536 -0.3882 -0.6645
  309MOL0     C42544   2.478   3.225   8.359  0.2119 -0.2731  0.2537
  309MOL0     C42545   2.567   3.226   8.228  0.8217 -0.1889  0.1484
  309MOL0     C42546   2.482   3.223   8.096 -0.4527  0.0752 -1.5294
  309MOL0     C42547   2.578   3.243   7.982  0.0382 -0.3478 -0.3845
  309MOL0     C42548   2.515   3.224   7.838  0.2056 -0.6610  0.6060
  309MOL0    Cl42549   2.635   3.211   7.704 -0.4226 -0.2332 -0.3104
  309MOL0     C42550   2.024   3.577   8.801  0.7241 -0.4269 -0.5521
  309MOL0     C42551   1.913   3.653   8.853  0.1846 -0.0438  0.6817
  309MOL0     O42552   1.552   3.618   8.708 -0.5993  0.5168 -0.0786
  309MOL0     C42553   1.475   3.917   8.877 -0.0648 -0.6464 -0.7707
  309MOL0     C42554   1.370   3.999   8.933 -0.4064  0.3495  0.4219
  309MOL0     N42555   0.893   4.515   9.245  0.0460  0.3980 -0.3317
  309MOL0     N42556   0.834   4.482   9.355  0.0643  0.5034  0.1178
  309MOL0     C42557   1.172   3.639  10.215 -0.4881  0.1289 -0.3837
  309MOL0     C42558   1.185   3.497  10.229 -0.4018 -0.0748  0.2482
  309MOL0     C42559   1.069   3.080  10.011  1.0934  0.3569  0.2022
  309MOL0     C42560   0.933   3.042  10.036  0.0800 -0.1135 -0.5032
  309MOL0     C42561   0.891   2.912  10.007 -0.6788 -1.0173  0.3451
  309MOL0     C42562   0.972   2.813   9.968  0.0309  0.4880  0.1025
  309MOL0     O42563   0.909   2.692   9.952 -0.2647  1.3196 -0.2318
  309MOL0     C42564   0.979   2.581   9.891  0.0900  0.1784 -0.5081
  309MOL0     C42565   1.084   2.515   9.982  0.1198 -0.7509 -0.3058
  309MOL0     C42566   1.025   2.467  10.120  0.2801 -0.1663  1.2460
  309MOL0     C42567   1.144   2.397  10.200 -0.3144  0.4410 -0.1146
  309MOL0     C42568   1.130   2.247  10.197  0.6376 -0.1427  0.2258
  309MOL0     C42569   1.129   2.124  10.204  0.1437  0.2493  0.5931
  309MOL0     C42570   1.104   2.849   9.945  0.9795  0.7235  0.8323
  309MOL0     C42571   1.154   2.983   9.963  0.0359 -1.0249  0.7909
  309MOL0     C42572   1.304   3.009   9.955 -0.6396 -0.4737  0.0215
  309MOL0     H42573   0.897   3.419  10.065 -1.0647  1.5776  0.8012
  309MOL0     H42574   0.871   3.666  10.071 -1.7584 -2.7249  1.6560
  309MOL0     H42575   0.905   3.870  10.304  0.4130 -1.0514 -0.1047
  309MOL0     H42576   0.837   3.841  10.144  0.5821 -0.3617 -0.5474
  309MOL0     H42577   0.798   4.066  10.198 -0.0406 -0.7164  1.4277
  309MOL0     H42578   0.965   4.101  10.225  2.7980 -0.0700 -2.0894
  309MOL0     H42579   0.937   4.190  10.025  0.8171 -0.9141 -0.4449
  309MOL0     H42580   1.036   4.043  10.004  1.4126  3.3358 -1.7162
  309MOL0     H42581   0.822   3.923   9.936 -4.1736  0.1629 -0.1803
  309MOL0     H42582   0.739   4.081   9.937  0.4685 -0.1944 -1.2900
  309MOL0     H42583   0.814   3.989   9.709 -0.3190 -0.9436  0.4798
  309MOL0     H42584   0.987   4.004   9.756 -0.2536 -0.6972  1.4162
  309MOL0     H42585   0.782   4.223   9.766 -0.9686 -0.1477 -3.1285
  309MOL0     H42586   0.959   4.243   9.797 -1.0418 -1.7836  0.5645
  309MOL0     H42587   0.845   4.164   9.542 -1.0962 -1.6371  3.7480
  309MOL0     H42588   1.018   4.196   9.577  0.3692 -0.4428  1.9202
  309MOL0     H42589   0.774   4.383   9.588  0.4362 -1.1069  3.5849
  309MOL0     H42590   0.932   4.428   9.642  1.7029  0.1348 -1.7546
  309MOL0     H42591   1.105   4.310   9.375 -0.3347  0.4575  0.0222
  309MOL0     H42592   1.196   4.399   9.151  0.4273  2.5631 -0.3839
  309MOL0     H42593   1.113   4.520   9.068 -1.7775 -2.6127 -4.6403
  309MOL0     H42594   1.019   4.220   9.085 -5.6510  0.2831 -1.3724
  309MOL0     H42595   0.939   4.339   8.990  0.9021  0.4416 -3.0392
  309MOL0     H42596   1.134   4.365   8.844 -0.4218 -0.9685 -0.0979
  309MOL0     H42597   1.242   4.307   8.961  0.7643 -0.6802 -1.0786
  309MOL0     H42598   1.028   4.132   8.813 -0.7852  1.4245 -0.4040
  309MOL0     H42599   1.187   4.118   8.779 -0.5656  0.4090  0.1874
  309MOL0     H42600   1.115   3.787   8.909 -0.8617  1.7983  0.9350
  309MOL0     H42601   1.171   3.576   8.817 -0.2698 -1.9031 -0.5460
  309MOL0     H42602   1.330   3.519   8.875 -1.9864  1.6692  2.6514
  309MOL0     H42603   1.317   3.574   8.712 -1.5805 -3.5716  0.2629
  309MOL0     H42604   1.743   3.681   8.568 -2.6064 -0.7549  3.0172
  309MOL0     H42605   1.931   3.539   8.478 -0.4003 -2.4183 -0.2463
  309MOL0     H42606   2.157   3.473   8.419  2.2940  2.9640 -1.0456
  309MOL0     H42607   2.273   3.559   8.509  1.7793 -0.5870 -2.8259
  309MOL0     H42608   2.362   3.333   8.590  1.2489 -1.6732  0.5015
  309MOL0     H42609   2.230   3.257   8.494  1.9375 -0.7507  0.6533
  309MOL0     H42610   2.430   3.431   8.355  1.1335 -1.2542 -1.3727
  309MOL0     H42611   2.308   3.309   8.287 -0.4018  0.1788 -0.8154
  309MOL0     H42612   2.442   3.124   8.384  1.7781 -0.4714  1.9593
  309MOL0     H42613   2.561   3.244   8.428 -0.1430  1.3055  0.2635
  309MOL0     H42614   2.632   3.314   8.225  0.8759 -0.2635 -1.7476
  309MOL0     H42615   2.631   3.138   8.239 -3.3440 -3.5496  0.3191
  309MOL0     H42616   2.396   3.290   8.087 -0.8765  0.0648  1.3655
  309MOL0     H42617   2.440   3.123   8.086 -0.0934 -0.1623 -0.7631
  309MOL0     H42618   2.672   3.195   8.010 -0.3670 -0.6114  0.5705
  309MOL0     H42619   2.604   3.349   7.976 -0.5992 -0.2577 -1.8499
  309MOL0     H42620   2.444   3.303   7.812  1.0177 -0.3788 -0.8931
  309MOL0     H42621   2.460   3.130   7.845 -3.6427  1.4953  2.5840
  309MOL0     H42622   2.101   3.543   8.869 -0.3442 -1.3511  0.2482
  309MOL0     H42623   1.893   3.683   8.955  1.2200  1.9536  0.3562
  309MOL0     H42624   1.574   3.959   8.862  0.0457 -0.0631  1.2290
  309MOL0     H42625   1.384   4.099   8.972  0.4475 -0.6291  2.8468
  309MOL0     H42626   1.247   3.692  10.272 -1.8914  1.0106  0.7138
  309MOL0     H42627   1.267   3.443  10.277  1.1102  2.0289  0.1467
  309MOL0     H42628   0.861   3.116  10.071 -1.3809 -1.5160 -0.4458
  309MOL0     H42629   0.785   2.899  10.025 -1.5845  2.0689 -1.7849
  309MOL0     H42630   0.895   2.517   9.863  0.4598  0.5667 -2.7032
  309MOL0     H42631   1.029   2.627   9.805  0.3015  2.1104  0.6013
  309MOL0     H42632   1.156   2.594  10.004 -3.6558  3.0734 -0.5751
  309MOL0     H42633   1.126   2.425   9.935  0.0526 -2.1379  2.0951
  309MOL0     H42634   0.982   2.548  10.180  0.2338 -0.4170  1.5583
  309MOL0     H42635   0.945   2.399  10.089  1.2550 -1.0294  0.5617
  309MOL0     H42636   1.129   2.412  10.308 -2.8074 -1.9361 -0.0011
  309MOL0     H42637   1.241   2.433  10.167  1.3077 -2.4831  1.0211
  309MOL0     H42638   1.124   2.018  10.218 -0.2450  0.5775  3.5729
  309MOL0     H42639   1.179   2.779   9.912 -0.8323  0.4981 -3.5718
  309MOL0     H42640   1.327   3.039   9.852  0.6893  1.3652  0.7996
  309MOL0     H42641   1.342   3.084  10.025 -1.8448 -0.7294  0.9821
  309MOL0     H42642   1.357   2.915   9.975  3.4734  1.5936 -0.1616
  310MOL0     O42643   4.175  10.199   8.801 -0.1712 -0.1784 -0.5143
  310MOL0     C42644   4.146  10.217   8.680  0.2774  0.9087  0.5558
  310MOL0     O42645   4.188  10.148   8.574 -0.1377  0.0566  0.0743
  310MOL0     C42646   4.283  10.056   8.591  0.2991 -0.4986 -0.4916
  310MOL0     C42647   4.406  10.097   8.638 -0.0737 -0.4579  0.2335
  310MOL0     C42648   4.510  10.006   8.654 -1.1011  0.7735 -0.6275
  310MOL0     C42649   4.485   9.865   8.645 -0.6004  0.0986 -0.8335
  310MOL0     O42650   4.568   9.767   8.682 -0.5506  0.8526  0.3856
  310MOL0     C42651   4.713   9.800   8.697  0.9854  0.2856  0.0449
  310MOL0     C42652   4.773   9.699   8.796  0.2002 -0.3998 -0.4234
  310MOL0     C42653   4.894   9.750   8.867 -0.0700  0.9815 -0.1510
  310MOL0     C42654   4.958   9.637   8.945  0.0402  1.0732 -0.1586
  310MOL0     C42655   5.084   9.684   9.017 -0.0778 -0.5231  0.2088
  310MOL0     C42656   5.146   9.575   9.100 -0.4220  0.5390  0.1725
  310MOL0     C42657   5.260   9.618   9.185 -0.8077  0.3149  0.2909
  310MOL0     C42658   5.302   9.516   9.292  0.4474  0.1192  0.6420
  310MOL0     N42659   5.368   9.569   9.404 -0.2504 -0.5470 -0.6013
  310MOL0     C42660   5.314   9.633   9.515  0.8084 -1.1872 -0.6694
  310MOL0     C42661   5.409   9.621   9.608  0.0052 -0.2620  0.2582
  310MOL0     C42662   5.411   9.673   9.744  0.4013  1.0216 -0.0160
  310MOL0     C42663   5.283   9.705   9.825 -0.1189 -0.2548 -0.1735
  310MOL0     C42664   5.203   9.582   9.866  0.3393 -0.3944  0.4469
  310MOL0     C42665   5.082   9.620   9.957  0.0465  0.8251  0.4574
  310MOL0     O42666   4.981   9.689   9.882 -0.3765 -0.4290 -0.0309
  310MOL0     C42667   4.861   9.699   9.951  0.5108 -0.4700  0.3660
  310MOL0     C42668   4.746   9.728   9.873  0.4722  0.0717 -0.4046
  310MOL0     C42669   4.613   9.731   9.922 -0.1796 -0.4014  0.0756
  310MOL0     C42670   4.512   9.788   9.832  0.1523  0.6213  0.2393
  310MOL0     C42671   4.594   9.711  10.063 -0.0141  0.0841 -0.1991
  310MOL0     C42672   4.456   9.704  10.130  0.3552 -0.5774  0.4811
  310MOL0     O42673   4.354   9.702  10.051 -0.6324  0.0954  0.1052
  310MOL0     C42674   4.235   9.747  10.101  0.5143 -0.9914  0.4936
  310MOL0     C42675   4.165   9.704  10.211 -0.9678 -0.1742  0.2639
  310MOL0     C42676   4.045   9.750  10.254 -0.4573  0.2360  0.4729
  310MOL0     C42677   3.982   9.850  10.180 -0.1337  0.1980 -0.2217
  310MOL0     O42678   3.854   9.903  10.212  0.2319 -0.2335 -0.5412
  310MOL0     C42679   3.769   9.848  10.323 -0.0035 -0.0065 -0.3412
  310MOL0     C42680   3.627   9.900  10.331  0.3165 -0.5727 -0.2508
  310MOL0     C42681   3.567   9.906  10.183 -0.3074  0.3320 -1.1726
  310MOL0     C42682   3.416   9.920  10.188 -0.1175  0.0708  0.8666
  310MOL0     C42683   3.344   9.892  10.048  0.0356  0.2200  0.2854
  310MOL0     C42684   3.194   9.855  10.056  0.4062  0.0701 -0.1887
  310MOL0     C42685   3.152   9.818   9.917  0.2028  0.8427 -0.6899
  310MOL0     C42686   3.002   9.793   9.887  0.0638 -0.3550  0.0821
  310MOL0    Cl42687   2.919   9.951   9.876 -0.3552 -0.0343  0.3712
  310MOL0     C42688   4.045   9.897  10.065  0.8686 -0.3237 -0.0060
  310MOL0     C42689   4.169   9.851  10.028  0.2123  0.3575 -0.0176
  310MOL0     O42690   4.455   9.712  10.254 -0.2838  0.0928  0.0733
  310MOL0     C42691   4.706   9.689  10.145 -0.8274 -0.2135 -0.6950
  310MOL0     C42692   4.839   9.680  10.094  0.4312 -0.2122 -0.1319
  310MOL0     N42693   5.523   9.557   9.560 -0.3837 -0.3908  0.5047
  310MOL0     N42694   5.496   9.530   9.436 -0.1170 -0.0270 -0.3859
  310MOL0     C42695   4.358   9.835   8.621  0.1117  0.3000  0.5194
  310MOL0     C42696   4.254   9.925   8.592  0.3363  0.3526 -0.3974
  310MOL0     C42697   4.068  10.342   8.630 -0.3066  0.7227  0.1449
  310MOL0     C42698   4.123  10.415   8.529  0.3086 -0.8213  0.0996
  310MOL0     C42699   4.047  10.512   8.457  0.5255  0.1468 -0.5046
  310MOL0     C42700   3.916  10.539   8.496  0.1100 -0.6954 -0.1139
  310MOL0     O42701   3.837  10.633   8.429  0.0119 -0.2403 -0.3818
  310MOL0     C42702   3.864  10.676   8.294 -0.2400 -0.8602  0.5111
  310MOL0     C42703   3.831  10.577   8.187  0.8549  0.4590  0.0814
  310MOL0     C42704   3.685  10.546   8.187 -0.2170 -0.8573  0.6481
  310MOL0     C42705   3.658  10.431   8.087 -0.5957  0.3326 -0.6591
  310MOL0     C42706   3.515  10.428   8.078 -0.0802  1.7778  0.2648
  310MOL0     C42707   3.394  10.439   8.067 -0.5601 -0.7550 -0.0092
  310MOL0     C42708   3.863  10.466   8.604  0.8313 -0.1919 -0.5040
  310MOL0     C42709   3.943  10.368   8.671 -0.0159 -0.0639 -0.2973
  310MOL0     C42710   3.875  10.293   8.782  0.0045  0.4041  0.1663
  310MOL0     H42711   4.428  10.201   8.658 -0.4052 -0.5352  1.0442
  310MOL0     H42712   4.607  10.045   8.681  0.2696 -2.5653 -0.2543
  310MOL0     H42713   4.722   9.901   8.738 -2.9728  1.3515 -1.1924
  310MOL0     H42714   4.770   9.791   8.604  2.5813 -2.6402  1.2034
  310MOL0     H42715   4.697   9.678   8.872 -0.7987 -1.7329 -1.7219
  310MOL0     H42716   4.797   9.605   8.745  1.3992  0.9868 -2.5487
  310MOL0     H42717   4.960   9.801   8.797  1.0203 -0.8813 -0.5523
  310MOL0     H42718   4.852   9.824   8.936 -0.2110  1.1932 -0.4600
  310MOL0     H42719   4.886   9.599   9.019  1.4926 -0.3496  0.5793
  310MOL0     H42720   4.965   9.552   8.877 -1.3415  1.2378 -0.5391
  310MOL0     H42721   5.055   9.772   9.076  3.9778  1.7614 -0.7991
  310MOL0     H42722   5.144   9.716   8.932 -2.7612  2.0116 -0.9051
  310MOL0     H42723   5.063   9.534   9.159  0.1397  1.1952  1.4636
  310MOL0     H42724   5.179   9.493   9.035 -1.4368 -1.6220  2.2273
  310MOL0     H42725   5.228   9.711   9.234  2.0290  1.2115  0.6645
  310MOL0     H42726   5.347   9.646   9.125 -2.1120  4.5969  0.0307
  310MOL0     H42727   5.216   9.455   9.322  2.6055 -3.2945  0.4148
  310MOL0     H42728   5.375   9.449   9.245 -1.3692 -2.2155  0.9828
  310MOL0     H42729   5.215   9.678   9.520  1.2573  0.0386 -2.0631
  310MOL0     H42730   5.466   9.767   9.740 -2.3046  2.7554  0.9008
  310MOL0     H42731   5.475   9.619   9.814  1.3137 -0.4928 -1.9269
  310MOL0     H42732   5.315   9.754   9.917  0.9561  0.5068 -0.9229
  310MOL0     H42733   5.225   9.783   9.774  0.7077  0.3769 -0.1736
  310MOL0     H42734   5.163   9.537   9.774 -2.8917  0.1233  1.4719
  310MOL0     H42735   5.260   9.508   9.921  1.0717 -0.8962 -0.9331
  310MOL0     H42736   5.036   9.527   9.991 -1.5846  1.3020 -0.3367
  310MOL0     H42737   5.110   9.678  10.046 -3.9179  0.9666  1.8083
  310MOL0     H42738   4.750   9.734   9.765  0.2882  0.8026 -0.3712
  310MOL0     H42739   4.493   9.895   9.850  2.2362  1.6286 -2.7127
  310MOL0     H42740   4.428   9.718   9.843  0.8812 -0.4938 -1.0839
  310MOL0     H42741   4.536   9.792   9.726  2.7332  1.0855  0.7879
  310MOL0     H42742   4.217   9.625  10.264  0.9953  0.9103  0.0849
  310MOL0     H42743   3.984   9.707  10.332 -0.5329 -2.5943 -1.0131
  310MOL0     H42744   3.770   9.739  10.318  0.2587 -0.0229  0.0016
  310MOL0     H42745   3.808   9.877  10.422 -2.3345 -0.1468  0.6902
  310MOL0     H42746   3.581   9.820  10.388  1.7437 -0.6554  0.8296
  310MOL0     H42747   3.624   9.997  10.381 -0.1817 -0.3858 -0.6285
  310MOL0     H42748   3.597   9.813  10.135 -1.7464 -0.1144 -1.2553
  310MOL0     H42749   3.603   9.986  10.117  0.7308 -0.5610 -1.7229
  310MOL0     H42750   3.397  10.027  10.203  2.1584  0.5904  0.3352
  310MOL0     H42751   3.372   9.856  10.265 -1.7702  1.5620  1.2415
  310MOL0     H42752   3.370   9.969   9.974 -0.1084  0.3682  0.3883
  310MOL0     H42753   3.398   9.807  10.005  0.0272  0.1177  0.4783
  310MOL0     H42754   3.127   9.939  10.075  1.5348  1.1927 -0.9834
  310MOL0     H42755   3.177   9.774  10.127  1.4373  1.0071  1.1721
  310MOL0     H42756   3.207   9.725   9.898 -0.2080  0.6565 -0.9955
  310MOL0     H42757   3.185   9.896   9.848  1.1044  0.4675 -0.6848
  310MOL0     H42758   2.954   9.732   9.965 -1.1825  0.9243  0.3640
  310MOL0     H42759   2.978   9.744   9.793 -0.4018 -1.1818  0.6188
  310MOL0     H42760   3.997   9.972  10.003 -0.4061  0.5047  1.9050
  310MOL0     H42761   4.215   9.880   9.934 -1.1686  0.5211 -0.6595
  310MOL0     H42762   4.697   9.660  10.249 -1.4415 -1.5681 -1.1062
  310MOL0     H42763   4.922   9.651  10.156  2.1490  1.3004 -1.5760
  310MOL0     H42764   4.325   9.734   8.642 -1.3697  0.5815 -0.3137
  310MOL0     H42765   4.148   9.906   8.586 -0.8514  3.8615  3.9417
  310MOL0     H42766   4.221  10.390   8.489  1.7232 -1.2216  3.5243
  310MOL0     H42767   4.099  10.557   8.372  0.1807 -0.9247 -1.3032
  310MOL0     H42768   3.819  10.774   8.278  1.9358  0.2946  1.0477
  310MOL0     H42769   3.968  10.705   8.277 -0.6921  0.1504 -0.7222
  310MOL0     H42770   3.887  10.487   8.214 -1.1452 -0.6202  0.8403
  310MOL0     H42771   3.851  10.606   8.084 -0.7726 -2.2173 -1.1056
  310MOL0     H42772   3.634  10.525   8.282 -2.6071 -1.4791 -0.6818
  310MOL0     H42773   3.633  10.635   8.151 -2.8606 -2.1248  1.0650
  310MOL0     H42774   3.710  10.347   8.133  1.3708  1.3822 -0.8534
  310MOL0     H42775   3.705  10.448   7.990  0.5523  2.6316  0.2174
  310MOL0     H42776   3.289  10.460   8.056 -0.3235 -0.5663 -2.3502
  310MOL0     H42777   3.761  10.473   8.640  0.6691 -3.6984  0.0796
  310MOL0     H42778   3.768  10.297   8.762 -0.1377 -3.1944 -0.5991
  310MOL0     H42779   3.895  10.187   8.800 -1.4910  0.2960  1.3970
  310MOL0     H42780   3.902  10.338   8.878 -0.3160 -0.8590  0.8707
  311MOL0     O42781   9.482   3.335   6.072  0.5431 -0.3953 -0.1383
  311MOL0     C42782   9.405   3.283   6.156  0.3399  0.0222 -0.3784
  311MOL0     O42783   9.435   3.244   6.287  0.2344  0.2240  0.7783
  311MOL0     C42784   9.562   3.254   6.332 -0.3362 -0.2373 -0.4834
  311MOL0     C42785   9.614   3.371   6.390 -0.2353 -0.4033 -1.2378
  311MOL0     C42786   9.742   3.382   6.434  0.1799 -0.1875  0.1379
  311MOL0     C42787   9.831   3.279   6.421  0.9594  0.4129 -0.4169
  311MOL0     O42788   9.961   3.296   6.448 -0.3090  0.3493  0.0396
  311MOL0     C42789  10.053   3.198   6.394 -0.1545 -1.1435 -0.0487
  311MOL0     C42790  10.197   3.237   6.440  0.1082  0.3969 -0.2202
  311MOL0     C42791  10.192   3.205   6.595 -0.0985 -0.3110 -0.6652
  311MOL0     C42792  10.324   3.244   6.667  0.5271  0.0170  0.3405
  311MOL0     C42793  10.434   3.138   6.637 -0.8195  0.4538 -1.2666
  311MOL0     C42794  10.390   2.993   6.670 -0.7412 -0.5443 -0.1128
  311MOL0     C42795  10.490   2.884   6.722 -0.2507  0.0831 -0.7775
  311MOL0     C42796  10.565   2.928   6.856  0.7529  0.3069  0.7323
  311MOL0     N42797  10.472   2.954   6.963 -0.0050  0.1131  0.1150
  311MOL0     C42798  10.376   2.867   7.007  0.0421 -0.0790 -0.5952
  311MOL0     C42799  10.312   2.927   7.100 -0.3830  0.4385 -1.1948
  311MOL0     C42800  10.208   2.849   7.175  0.7335 -0.2863  0.7478
  311MOL0     C42801  10.234   2.824   7.319  0.5362  0.3887  0.9551
  311MOL0     C42802  10.102   2.806   7.400 -0.3423 -0.4481  0.4016
  311MOL0     C42803  10.126   2.773   7.545 -0.6428  0.6327  0.5972
  311MOL0     O42804  10.249   2.828   7.605  0.0296  0.8996  0.6971
  311MOL0     C42805  10.352   2.742   7.642  0.6290  0.3208 -0.0370
  311MOL0     C42806  10.465   2.813   7.676 -0.4443  0.3286  0.2374
  311MOL0     C42807  10.586   2.756   7.720 -0.7213 -0.1620 -0.2206
  311MOL0     C42808  10.701   2.840   7.757 -0.3836  0.7317  0.1535
  311MOL0     C42809  10.580   2.615   7.748 -0.8547  0.2331 -0.0364
  311MOL0     C42810  10.694   2.522   7.798  0.7193  0.6762 -0.2141
  311MOL0     O42811  10.653   2.402   7.853 -0.0366 -0.2578 -0.4765
  311MOL0     C42812  10.746   2.298   7.844 -1.0315 -0.7951 -0.5180
  311MOL0     C42813  10.868   2.300   7.917  0.5886  0.6481 -0.5229
  311MOL0     C42814  10.952   2.196   7.894 -0.8183  0.6483  0.8285
  311MOL0     C42815  10.921   2.079   7.819 -0.2565 -0.1589  0.4963
  311MOL0     O42816  11.007   1.971   7.802  1.3021 -0.4317  0.3026
  311MOL0     C42817  11.145   2.013   7.771 -0.3428  0.4370  0.2722
  311MOL0     C42818  11.229   1.906   7.704  0.8844  0.3166  0.8118
  311MOL0     C42819  11.152   1.844   7.579 -0.5056 -1.0874 -0.7685
  311MOL0     C42820  11.246   1.790   7.467  0.2467 -0.1989 -0.1963
  311MOL0     C42821  11.169   1.746   7.352  0.2502  0.5415 -0.5116
  311MOL0     C42822  11.250   1.640   7.268  0.2917  0.1732  0.3948
  311MOL0     C42823  11.164   1.567   7.161  0.2245 -0.4739 -0.2737
  311MOL0     C42824  11.258   1.511   7.050 -0.3340  0.0703 -0.9685
  311MOL0    Cl42825  11.357   1.382   7.130  0.3183  0.1206  0.0936
  311MOL0     C42826  10.805   2.082   7.754  0.2134 -0.8111  0.1355
  311MOL0     C42827  10.723   2.195   7.763 -0.5281  0.5847  0.1838
  311MOL0     O42828  10.814   2.552   7.780  0.4314 -0.0074  0.2561
  311MOL0     C42829  10.465   2.542   7.711  0.2723  0.4425  0.3518
  311MOL0     C42830  10.364   2.607   7.662  0.2117 -0.5472  0.3938
  311MOL0     N42831  10.349   3.063   7.104  0.5336  0.4007 -0.4004
  311MOL0     N42832  10.439   3.073   7.017 -0.2106  0.3863  0.1911
  311MOL0     C42833   9.775   3.161   6.361  0.0866 -0.5129 -0.1879
  311MOL0     C42834   9.642   3.140   6.318  0.1044 -0.3436 -0.5487
  311MOL0     C42835   9.257   3.271   6.126  0.2292 -0.2654  0.5836
  311MOL0     C42836   9.165   3.275   6.235 -0.1146  0.9200  0.7341
  311MOL0     C42837   9.035   3.252   6.217 -0.5437  0.2121 -0.1300
  311MOL0     C42838   8.990   3.216   6.091  0.5710 -0.0085 -0.2369
  311MOL0     O42839   8.858   3.183   6.062 -0.2494 -0.4441  0.0447
  311MOL0     C42840   8.744   3.202   6.143  0.4039 -1.0740 -0.2763
  311MOL0     C42841   8.629   3.232   6.041  0.6063  0.0745  0.0511
  311MOL0     C42842   8.590   3.378   6.011 -0.7896  1.3695 -0.3242
  311MOL0     C42843   8.530   3.439   6.149 -1.0193  0.3018 -0.0954
  311MOL0     C42844   8.513   3.585   6.119 -0.1836 -0.0698  0.2090
  311MOL0     C42845   8.493   3.705   6.111 -1.0132 -0.5753 -0.5415
  311MOL0     C42846   9.077   3.200   5.984  0.3604  0.0783 -0.4089
  311MOL0     C42847   9.209   3.237   5.995  0.3946  0.3917  0.8528
  311MOL0     C42848   9.300   3.252   5.880 -0.2184  0.4903  0.8264
  311MOL0     H42849   9.553   3.458   6.414  2.2979  1.0498  0.3544
  311MOL0     H42850   9.782   3.476   6.471  3.3728 -1.2031 -0.3731
  311MOL0     H42851  10.045   3.203   6.285 -3.2706  2.7101  0.1492
  311MOL0     H42852  10.024   3.100   6.435 -2.2245 -2.1980 -3.6143
  311MOL0     H42853  10.284   3.193   6.390  0.5437  4.2240 -3.2545
  311MOL0     H42854  10.206   3.345   6.426 -0.2460  0.3383 -0.9379
  311MOL0     H42855  10.108   3.257   6.640 -0.3558 -1.4535  0.2208
  311MOL0     H42856  10.152   3.107   6.622 -1.9079  0.7395  0.6682
  311MOL0     H42857  10.359   3.335   6.616 -0.4770 -0.6865 -1.7091
  311MOL0     H42858  10.318   3.253   6.776 -3.4826  0.8931  0.1802
  311MOL0     H42859  10.517   3.154   6.706  0.1317  0.0262 -2.2882
  311MOL0     H42860  10.479   3.143   6.538  1.1932  0.4819 -0.3829
  311MOL0     H42861  10.309   2.996   6.743 -2.2609 -2.5033 -1.5970
  311MOL0     H42862  10.341   2.959   6.578 -0.1102  1.3998 -1.2398
  311MOL0     H42863  10.566   2.857   6.649  3.1480 -2.4073  3.1913
  311MOL0     H42864  10.433   2.793   6.745 -1.4926  1.7171  3.7279
  311MOL0     H42865  10.619   2.839   6.890 -0.7963 -1.7352 -1.7427
  311MOL0     H42866  10.641   3.006   6.848 -0.2101  1.2870  1.0517
  311MOL0     H42867  10.365   2.764   6.975  1.2835 -1.2446  2.3720
  311MOL0     H42868  10.191   2.750   7.131  0.9096  0.1622 -0.3867
  311MOL0     H42869  10.119   2.913   7.175  1.4288  0.7264  0.2429
  311MOL0     H42870  10.302   2.739   7.327  2.3403  1.7510  0.9700
  311MOL0     H42871  10.286   2.910   7.364 -1.7134  1.2440  2.0759
  311MOL0     H42872  10.052   2.902   7.388  0.1078 -0.3427 -0.8098
  311MOL0     H42873  10.037   2.726   7.363  0.9033 -1.0232 -0.6476
  311MOL0     H42874  10.043   2.802   7.609 -1.2367 -2.3304  1.3259
  311MOL0     H42875  10.123   2.663   7.550 -3.7035  0.6974  1.9552
  311MOL0     H42876  10.452   2.921   7.667 -0.1801  0.2425 -1.5375
  311MOL0     H42877  10.772   2.789   7.822 -0.9553  1.8158  1.6902
  311MOL0     H42878  10.659   2.925   7.812 -0.9392  1.7618 -1.7520
  311MOL0     H42879  10.754   2.858   7.663  0.6740 -4.3554 -0.5059
  311MOL0     H42880  10.890   2.375   7.993 -1.6750  0.0177  0.8368
  311MOL0     H42881  11.044   2.184   7.951 -0.8407 -0.9796  0.5685
  311MOL0     H42882  11.156   2.099   7.704 -2.2363  0.1322 -0.4868
  311MOL0     H42883  11.202   2.051   7.856  0.1463  1.0218 -0.3085
  311MOL0     H42884  11.328   1.943   7.676  1.0860  0.6018  1.8815
  311MOL0     H42885  11.249   1.817   7.765  0.9726 -0.4731 -0.3320
  311MOL0     H42886  11.104   1.927   7.525 -1.4927 -1.0533  0.1179
  311MOL0     H42887  11.075   1.777   7.619 -1.3802  1.1654  1.6221
  311MOL0     H42888  11.305   1.708   7.511  1.2713  1.9949  2.8520
  311MOL0     H42889  11.327   1.853   7.429 -1.5677  0.0220 -4.2058
  311MOL0     H42890  11.073   1.703   7.382 -0.5154  0.0233 -3.3998
  311MOL0     H42891  11.134   1.826   7.286 -0.3552  1.4804  0.8986
  311MOL0     H42892  11.304   1.564   7.326  1.0715  1.1781  1.0101
  311MOL0     H42893  11.325   1.696   7.211 -2.3386  0.7217 -2.8607
  311MOL0     H42894  11.093   1.632   7.110  1.0167 -0.5129 -1.4734
  311MOL0     H42895  11.107   1.487   7.210 -1.7880  0.5933 -0.7773
  311MOL0     H42896  11.322   1.592   7.016 -0.1172  0.1774 -0.3212
  311MOL0     H42897  11.205   1.476   6.961  1.3080  2.7274 -3.1440
  311MOL0     H42898  10.776   1.994   7.698  1.7311 -1.4560  0.3324
  311MOL0     H42899  10.638   2.175   7.698  0.2495 -3.5819  0.1872
  311MOL0     H42900  10.465   2.433   7.713  3.9762  0.1849 -2.4696
  311MOL0     H42901  10.267   2.558   7.665  1.3483 -2.8816  2.0804
  311MOL0     H42902   9.839   3.076   6.335  0.4048  0.5852 -3.4755
  311MOL0     H42903   9.606   3.048   6.273  0.4142 -0.1568 -1.1827
  311MOL0     H42904   9.187   3.291   6.340  2.1042  1.2329  0.2712
  311MOL0     H42905   8.961   3.258   6.296  0.0156 -0.6216  0.4752
  311MOL0     H42906   8.719   3.119   6.210 -2.6860 -0.0191  0.0722
  311MOL0     H42907   8.750   3.292   6.205 -1.7723 -0.9123 -0.1961
  311MOL0     H42908   8.545   3.179   6.088  0.5405 -1.3709 -1.5929
  311MOL0     H42909   8.656   3.176   5.951 -1.6459 -0.0928 -0.5658
  311MOL0     H42910   8.673   3.437   5.970  1.2251 -0.7572  0.4336
  311MOL0     H42911   8.515   3.379   5.932  0.6983 -1.1198 -1.9095
  311MOL0     H42912   8.602   3.435   6.232 -0.1193  0.4332 -0.8555
  311MOL0     H42913   8.441   3.381   6.178 -0.2676 -1.5613 -1.3436
  311MOL0     H42914   8.476   3.810   6.100 -0.3414 -0.2938  0.9805
  311MOL0     H42915   9.035   3.150   5.897 -0.0123 -1.1501  0.4497
  311MOL0     H42916   9.246   3.250   5.785  1.2737 -0.0552 -0.0480
  311MOL0     H42917   9.363   3.342   5.886  0.2853  0.1252  1.1410
  311MOL0     H42918   9.377   3.174   5.883  1.6327  2.2449  2.5870
  312MOL0     O42919   9.414   8.832   2.526  0.0562  0.3283 -0.1236
  312MOL0     C42920   9.338   8.888   2.442 -0.0099 -0.6783  0.1787
  312MOL0     O42921   9.363   8.906   2.303  0.1696  0.2833 -0.0573
  312MOL0     C42922   9.496   8.902   2.255  0.5319  0.5521  0.5180
  312MOL0     C42923   9.599   8.809   2.298  0.2266  0.7585  0.3701
  312MOL0     C42924   9.730   8.815   2.251 -0.1504  0.0930  0.4630
  312MOL0     C42925   9.765   8.904   2.152 -0.3243  0.5306 -0.5067
  312MOL0     O42926   9.897   8.905   2.118  0.0393 -0.0227  0.7624
  312MOL0     C42927   9.927   9.006   2.017  0.1291  0.8553  0.0127
  312MOL0     C42928  10.071   9.018   2.011  0.1098 -0.2554  0.3382
  312MOL0     C42929  10.148   9.030   2.151  0.0014 -0.5522  0.1210
  312MOL0     C42930  10.122   9.173   2.211 -0.5653  0.3487  0.1598
  312MOL0     C42931  10.235   9.208   2.323  0.7368  0.6986  0.6149
  312MOL0     C42932  10.186   9.298   2.439  0.8296 -0.3485  0.9015
  312MOL0     C42933  10.069   9.238   2.521  0.2757  0.2236  1.0705
  312MOL0     C42934  10.033   9.326   2.641 -0.0535  0.1969  0.5064
  312MOL0     N42935  10.094   9.285   2.765  0.2515  0.3348 -0.5252
  312MOL0     C42936  10.020   9.244   2.881 -0.3648  0.1935 -0.5473
  312MOL0     C42937  10.121   9.248   2.976  0.9313  0.0119  1.1800
  312MOL0     C42938  10.106   9.207   3.117 -0.6286  1.3869  0.8470
  312MOL0     C42939  10.088   9.050   3.139  0.6379 -0.6075  0.1976
  312MOL0     C42940  10.093   9.023   3.285 -0.2887  0.7622 -0.0307
  312MOL0     C42941  10.077   8.885   3.342 -1.0136 -0.1853  0.2332
  312MOL0     O42942   9.963   8.833   3.278  0.3005  0.9593 -0.0114
  312MOL0     C42943   9.840   8.842   3.336  1.1513 -0.8090  0.3176
  312MOL0     C42944   9.731   8.783   3.268 -0.9979  0.6043  0.4117
  312MOL0     C42945   9.601   8.780   3.306  0.6947  1.2875  0.9198
  312MOL0     C42946   9.517   8.695   3.218  0.5722 -0.2926 -0.3624
  312MOL0     C42947   9.569   8.858   3.419  1.4778  0.2575 -1.0316
  312MOL0     C42948   9.434   8.860   3.482  0.0458  0.0486  0.6459
  312MOL0     O42949   9.429   8.941   3.595  0.0611  0.3757 -0.5038
  312MOL0     C42950   9.303   8.972   3.643 -0.9978  0.2033  0.1760
  312MOL0     C42951   9.271   9.109   3.650  0.1812 -0.1414  0.0844
  312MOL0     C42952   9.139   9.146   3.681  0.4599 -0.7133  0.7821
  312MOL0     C42953   9.051   9.054   3.720  0.0484  0.2537 -1.3325
  312MOL0     O42954   8.925   9.082   3.756  0.0093 -0.1036 -0.4921
  312MOL0     C42955   8.868   9.208   3.726  0.5738  0.8612  0.9244
  312MOL0     C42956   8.732   9.178   3.682  0.7311 -1.2102 -0.3895
  312MOL0     C42957   8.713   9.129   3.539 -0.2188 -0.5392 -0.1246
  312MOL0     C42958   8.568   9.131   3.487 -0.4010 -0.8160 -0.1595
  312MOL0     C42959   8.488   9.025   3.551 -0.8846  0.0850 -0.1158
  312MOL0     C42960   8.348   9.011   3.490 -0.3018 -0.3417  0.7812
  312MOL0     C42961   8.272   8.889   3.542 -0.0497  0.2891 -0.4743
  312MOL0     C42962   8.131   8.898   3.481 -0.5256  0.4887  0.5715
  312MOL0    Cl42963   8.146   8.894   3.297 -0.1705  0.2303 -0.1507
  312MOL0     C42964   9.085   8.921   3.715  0.2934 -0.6489 -0.1354
  312MOL0     C42965   9.213   8.871   3.672  0.1581 -0.6217  0.1693
  312MOL0     O42966   9.334   8.808   3.433  0.0626 -0.1367  0.8350
  312MOL0     C42967   9.676   8.917   3.497  0.2673  0.4307 -0.0522
  312MOL0     C42968   9.806   8.905   3.462 -0.2434  0.2397  0.9480
  312MOL0     N42969  10.244   9.275   2.916 -0.8169  0.3681  0.3861
  312MOL0     N42970  10.224   9.302   2.795 -0.0646 -0.8333 -0.0131
  312MOL0     C42971   9.665   8.991   2.102 -1.2063  0.6633 -0.4091
  312MOL0     C42972   9.537   8.992   2.151 -0.1273 -0.3807  0.2427
  312MOL0     C42973   9.199   8.915   2.497 -1.0109  0.6888 -0.0586
  312MOL0     C42974   9.176   8.927   2.645 -0.8154  0.9372 -0.4940
  312MOL0     C42975   9.053   8.939   2.704  1.7408  0.5337  0.5020
  312MOL0     C42976   8.940   8.945   2.628 -0.5227  0.6401 -0.5680
  312MOL0     O42977   8.822   8.965   2.685  0.1286 -0.3526 -0.4276
  312MOL0     C42978   8.740   8.852   2.656  0.4972 -0.3710 -0.3915
  312MOL0     C42979   8.618   8.840   2.750 -0.0384 -0.0370 -0.2192
  312MOL0     C42980   8.562   8.976   2.792  0.2226 -0.5543 -0.2154
  312MOL0     C42981   8.419   8.954   2.849  0.2573 -0.8434  1.3636
  312MOL0     C42982   8.433   8.926   2.994  0.7249  0.9144 -0.8290
  312MOL0     C42983   8.452   8.899   3.114  0.7123 -0.0138  1.0297
  312MOL0     C42984   8.950   8.944   2.488 -0.8507 -0.9145  0.1087
  312MOL0     C42985   9.075   8.920   2.420 -1.0621 -0.7687  0.1496
  312MOL0     C42986   9.078   8.903   2.260  0.0012 -0.2000 -0.6726
  312MOL0     H42987   9.574   8.741   2.379 -0.5208  1.1258  0.4609
  312MOL0     H42988   9.806   8.753   2.297  0.1823  0.8133  0.9059
  312MOL0     H42989   9.893   9.107   2.042 -0.3577  0.5287  0.7043
  312MOL0     H42990   9.895   8.972   1.918  1.6258  0.4898 -0.3583
  312MOL0     H42991  10.118   8.938   1.953  0.6219  0.2429  0.0600
  312MOL0     H42992  10.095   9.111   1.959  0.3441  0.5469  1.8477
  312MOL0     H42993  10.110   8.961   2.227 -3.5201  0.4815 -0.5156
  312MOL0     H42994  10.255   9.025   2.128  0.8819 -0.3752  3.6773
  312MOL0     H42995  10.134   9.253   2.136 -0.8792 -1.6479 -2.1331
  312MOL0     H42996  10.022   9.172   2.254 -0.6609 -1.4974 -0.0317
  312MOL0     H42997  10.324   9.262   2.290  0.0831  1.3730 -0.0739
  312MOL0     H42998  10.266   9.111   2.363 -0.6044 -1.0780 -2.3419
  312MOL0     H42999  10.274   9.320   2.501  1.0710 -1.0255  0.8049
  312MOL0     H43000  10.147   9.392   2.397 -2.1356 -2.0350 -0.3928
  312MOL0     H43001  10.098   9.148   2.576 -1.7738  0.4027  2.5636
  312MOL0     H43002   9.982   9.235   2.456  0.5944  0.8090  0.6108
  312MOL0     H43003  10.074   9.425   2.618  0.2899 -0.2902 -1.0879
  312MOL0     H43004   9.925   9.339   2.641  0.2655  3.7424  0.0312
  312MOL0     H43005   9.913   9.224   2.879 -0.2898 -0.6104 -4.5936
  312MOL0     H43006  10.020   9.261   3.157 -2.5439  0.9310 -2.2895
  312MOL0     H43007  10.201   9.232   3.165  0.2687 -0.1763 -0.0042
  312MOL0     H43008   9.993   9.025   3.092  0.6009 -2.2423  1.0542
  312MOL0     H43009  10.167   8.992   3.090 -0.2067 -1.2481 -0.4460
  312MOL0     H43010  10.186   9.066   3.324  1.4473 -3.3167  0.7865
  312MOL0     H43011  10.004   9.068   3.331 -1.1234 -2.4339  1.7868
  312MOL0     H43012  10.161   8.826   3.304 -2.0175 -1.6117  0.1087
  312MOL0     H43013  10.083   8.885   3.451 -2.1493 -1.0625  0.3186
  312MOL0     H43014   9.771   8.729   3.183  0.3651  2.0801  0.0676
  312MOL0     H43015   9.443   8.759   3.169  0.5206  1.8519  2.3138
  312MOL0     H43016   9.469   8.624   3.286  0.8389 -0.9245 -0.8289
  312MOL0     H43017   9.574   8.633   3.148  0.1706 -2.5244  1.1718
  312MOL0     H43018   9.350   9.182   3.634  0.2959 -0.1834  0.4644
  312MOL0     H43019   9.114   9.251   3.676  1.7967 -0.4330 -1.0726
  312MOL0     H43020   8.871   9.268   3.817 -0.1736  1.1763  0.7450
  312MOL0     H43021   8.924   9.259   3.647  1.8854 -1.6314  0.1315
  312MOL0     H43022   8.685   9.112   3.756 -1.0514 -2.0752 -2.2076
  312MOL0     H43023   8.674   9.270   3.684 -0.3214 -1.7833 -2.2529
  312MOL0     H43024   8.734   9.022   3.529 -0.7424 -0.8667  1.9606
  312MOL0     H43025   8.779   9.193   3.479  0.4712 -2.4060 -1.4558
  312MOL0     H43026   8.569   9.126   3.378 -0.0104  1.7677 -0.3499
  312MOL0     H43027   8.521   9.227   3.512 -0.3350 -1.1481  1.3301
  312MOL0     H43028   8.534   8.932   3.515  1.8144  0.5454  1.8204
  312MOL0     H43029   8.502   9.020   3.660  0.2813 -1.8268 -0.3001
  312MOL0     H43030   8.360   9.009   3.381  1.2324 -1.9685  0.9276
  312MOL0     H43031   8.291   9.100   3.516 -2.4631 -0.9371 -1.5478
  312MOL0     H43032   8.264   8.902   3.650 -0.7516  0.8619 -0.5926
  312MOL0     H43033   8.320   8.792   3.529 -1.0976 -0.8006  2.8531
  312MOL0     H43034   8.073   8.983   3.518 -2.0857  0.0216 -0.6713
  312MOL0     H43035   8.072   8.814   3.518 -2.0992  1.0361 -0.5519
  312MOL0     H43036   9.011   8.863   3.768 -1.7564  0.4213 -1.6655
  312MOL0     H43037   9.217   8.763   3.660 -1.4623 -0.4610 -3.0800
  312MOL0     H43038   9.654   8.966   3.591 -2.2729 -0.0223 -0.3402
  312MOL0     H43039   9.878   8.951   3.529 -0.8604  2.5153  0.1160
  312MOL0     H43040   9.704   9.069   2.038  4.6994 -1.2490  0.2844
  312MOL0     H43041   9.467   9.067   2.113 -1.0215 -0.8192  0.9579
  312MOL0     H43042   9.256   8.922   2.718  0.7212  1.3535 -2.0783
  312MOL0     H43043   9.043   8.957   2.810  2.1473 -0.8712  0.7876
  312MOL0     H43044   8.697   8.874   2.558  3.6340  0.7430 -1.6254
  312MOL0     H43045   8.805   8.764   2.663  1.2991  0.3079  5.3738
  312MOL0     H43046   8.655   8.785   2.837  2.5091  1.1429 -0.4512
  312MOL0     H43047   8.538   8.782   2.705 -1.9989 -0.8146  3.8140
  312MOL0     H43048   8.629   9.008   2.872 -2.3044  1.5484  1.1969
  312MOL0     H43049   8.557   9.047   2.709 -3.7472  1.0391  1.1451
  312MOL0     H43050   8.365   8.877   2.792  3.1836 -0.5674 -2.1729
  312MOL0     H43051   8.365   9.047   2.829  0.5796 -1.1790 -1.4859
  312MOL0     H43052   8.478   8.852   3.207  3.7165 -2.7614 -0.9819
  312MOL0     H43053   8.864   8.952   2.422 -0.9762 -0.1687  0.3443
  312MOL0     H43054   9.151   8.969   2.213 -1.3265  3.4508  1.8894
  312MOL0     H43055   9.074   8.800   2.224  2.9808 -0.1505 -1.3531
  312MOL0     H43056   8.985   8.949   2.223 -0.1085 -0.3459 -0.5783
  313MOL0     O43057   4.074   6.836  10.283  0.2917 -0.4674 -0.3090
  313MOL0     C43058   3.972   6.840  10.223  0.9776 -0.2323  0.6760
  313MOL0     O43059   3.959   6.845  10.087  0.5026  0.2432  0.0689
  313MOL0     C43060   4.060   6.802  10.008 -0.3053 -0.6386 -0.5497
  313MOL0     C43061   4.153   6.898   9.964 -0.7903  0.4626  0.3470
  313MOL0     C43062   4.260   6.867   9.881 -0.3981 -0.2498  0.4996
  313MOL0     C43063   4.278   6.736   9.839  0.6316  0.1409  0.3326
  313MOL0     O43064   4.385   6.688   9.761  0.2419 -0.4396  1.0015
  313MOL0     C43065   4.484   6.778   9.712  0.3693  0.2812 -0.3745
  313MOL0     C43066   4.555   6.694   9.600 -0.7606 -0.2295  0.8734
  313MOL0     C43067   4.479   6.702   9.464 -1.0597 -0.1380 -0.3455
  313MOL0     C43068   4.479   6.579   9.383  0.4121 -0.6952  0.8316
  313MOL0     C43069   4.367   6.579   9.268  0.5893 -0.3386 -0.7559
  313MOL0     C43070   4.369   6.455   9.190 -0.3216  1.0119 -0.2809
  313MOL0     C43071   4.233   6.427   9.123  0.2112 -0.0651 -0.3021
  313MOL0     C43072   4.132   6.382   9.235 -0.1012  0.0482  0.0671
  313MOL0     N43073   3.994   6.386   9.183 -0.0858  0.5161 -0.2518
  313MOL0     C43074   3.877   6.393   9.260 -0.8972  0.1567  0.3002
  313MOL0     C43075   3.781   6.335   9.177  0.2508 -0.1989 -0.3048
  313MOL0     C43076   3.639   6.314   9.220 -0.5209 -0.6233 -0.0079
  313MOL0     C43077   3.588   6.440   9.304  0.9195  0.3111 -0.0255
  313MOL0     C43078   3.434   6.445   9.311  0.1802 -0.5709 -0.0107
  313MOL0     C43079   3.366   6.545   9.406  0.5518  0.2021 -0.1760
  313MOL0     O43080   3.400   6.527   9.545  0.2134  0.2904 -0.6795
  313MOL0     C43081   3.300   6.570   9.641  0.1027  0.8111  0.4975
  313MOL0     C43082   3.245   6.694   9.647 -0.3124  0.4407 -0.1284
  313MOL0     C43083   3.159   6.728   9.746 -0.3223 -0.6646 -1.1445
  313MOL0     C43084   3.107   6.870   9.737 -0.6108 -1.3257 -0.3902
  313MOL0     C43085   3.124   6.629   9.850  0.9177  0.0793 -0.1573
  313MOL0     C43086   3.029   6.648   9.968 -0.3959  0.4283  0.4757
  313MOL0     O43087   3.006   6.533  10.033  0.7843 -0.2250 -0.0364
  313MOL0     C43088   2.910   6.531  10.127  0.7784 -0.0106 -1.1211
  313MOL0     C43089   2.774   6.513  10.087 -0.4033 -0.2979 -0.0816
  313MOL0     C43090   2.676   6.508  10.187 -0.3171  0.1694 -0.4923
  313MOL0     C43091   2.707   6.549  10.319 -0.0883  0.7070 -0.2111
  313MOL0     O43092   2.616   6.540  10.416  0.0572  0.8614  0.0883
  313MOL0     C43093   2.474   6.579  10.404 -1.2942  0.5030  0.5130
  313MOL0     C43094   2.403   6.531  10.532 -0.0816 -0.2998 -0.8591
  313MOL0     C43095   2.396   6.378  10.540 -0.0675 -0.1220  0.1110
  313MOL0     C43096   2.326   6.324  10.670 -0.7439 -0.2214 -0.7630
  313MOL0     C43097   2.348   6.175  10.699 -0.2079 -0.6361  0.4191
  313MOL0     C43098   2.339   6.147  10.844 -0.1261  0.3446  0.0159
  313MOL0     C43099   2.378   6.003  10.864 -1.0143  0.5939  0.2362
  313MOL0     C43100   2.253   5.913  10.867  1.0935 -0.3433  0.5973
  313MOL0    Cl43101   2.282   5.775  10.965  0.1167 -0.6363  0.3313
  313MOL0     C43102   2.837   6.572  10.357 -0.5665  0.3127  0.0572
  313MOL0     C43103   2.942   6.564  10.264 -0.4195 -0.8889  0.4976
  313MOL0     O43104   2.983   6.759   9.989  0.8357 -0.4413 -0.1574
  313MOL0     C43105   3.186   6.507   9.840 -0.4229  1.3974  0.2177
  313MOL0     C43106   3.272   6.475   9.732 -0.5478 -0.1836  0.2999
  313MOL0     N43107   3.842   6.304   9.052  0.2744  0.1463 -0.0655
  313MOL0     N43108   3.971   6.335   9.061  0.0977  0.5731  0.3399
  313MOL0     C43109   4.195   6.636   9.885 -0.3955 -0.1358 -0.5208
  313MOL0     C43110   4.091   6.668   9.974  0.1789  0.4264  0.1458
  313MOL0     C43111   3.847   6.860  10.295  0.7203 -0.6429  0.6277
  313MOL0     C43112   3.757   6.953  10.251  0.0564 -1.4883 -0.5488
  313MOL0     C43113   3.640   6.974  10.321  0.6978 -0.0883 -0.2706
  313MOL0     C43114   3.611   6.903  10.440 -0.0729  0.0966  1.1608
  313MOL0     O43115   3.494   6.932  10.498  0.4794 -0.0990 -0.4669
  313MOL0     C43116   3.439   7.066  10.509 -0.3926  0.7437  0.7175
  313MOL0     C43117   3.348   7.122  10.396  0.5706  0.0011 -0.5844
  313MOL0     C43118   3.263   7.005  10.341 -0.0181  0.6506 -1.5685
  313MOL0     C43119   3.134   7.067  10.271  0.0755  0.5663  0.1701
  313MOL0     C43120   3.139   7.108  10.133 -0.3212 -0.4835 -0.2119
  313MOL0     C43121   3.144   7.144  10.014 -0.3731  0.0896 -0.0446
  313MOL0     C43122   3.700   6.798  10.478  0.0230  0.1929  0.1901
  313MOL0     C43123   3.822   6.779  10.415  0.1978  0.9691  0.6758
  313MOL0     C43124   3.904   6.669  10.464  0.3098  0.2403 -1.1793
  313MOL0     H43125   4.141   7.003   9.985 -0.6675  0.3399  1.0557
  313MOL0     H43126   4.319   6.942   9.829 -1.7999  0.2580 -0.4068
  313MOL0     H43127   4.548   6.799   9.798  0.6535  0.4856 -0.6321
  313MOL0     H43128   4.445   6.869   9.665  0.9101  0.9544  0.4554
  313MOL0     H43129   4.655   6.736   9.583 -1.5987  1.2524 -0.6592
  313MOL0     H43130   4.572   6.593   9.639 -1.5786 -2.0027 -2.9278
  313MOL0     H43131   4.374   6.724   9.486 -0.7627  0.5244  0.4536
  313MOL0     H43132   4.513   6.791   9.411  1.8792 -0.5123  0.7301
  313MOL0     H43133   4.579   6.569   9.339  0.1646 -0.4205  0.1895
  313MOL0     H43134   4.460   6.497   9.452 -4.4281 -1.2031 -0.7616
  313MOL0     H43135   4.374   6.657   9.192 -0.2118 -0.4411 -0.9487
  313MOL0     H43136   4.266   6.592   9.309 -0.2068 -2.6765 -1.7943
  313MOL0     H43137   4.456   6.454   9.123 -1.6169 -0.3203 -2.0447
  313MOL0     H43138   4.405   6.376   9.257  0.8138  1.4419 -0.3604
  313MOL0     H43139   4.253   6.336   9.066  1.0812 -1.6649  2.3747
  313MOL0     H43140   4.191   6.505   9.059 -1.5508  0.3620  1.2917
  313MOL0     H43141   4.168   6.281   9.255  1.3854  0.1219 -1.9914
  313MOL0     H43142   4.144   6.439   9.328  2.9728 -1.9058  1.0253
  313MOL0     H43143   3.851   6.420   9.362 -1.8648  0.8751 -0.1156
  313MOL0     H43144   3.639   6.218   9.272  2.5263 -0.9061 -0.3409
  313MOL0     H43145   3.571   6.308   9.135  1.3096 -0.4202 -1.5724
  313MOL0     H43146   3.637   6.443   9.402 -0.3350  3.1376  0.6006
  313MOL0     H43147   3.623   6.529   9.251 -0.6071  2.2026  1.9523
  313MOL0     H43148   3.403   6.465   9.207  3.3887 -0.5697 -1.0692
  313MOL0     H43149   3.403   6.351   9.358  0.3091 -0.2387  0.7518
  313MOL0     H43150   3.406   6.640   9.369  0.3144  0.3374 -0.0882
  313MOL0     H43151   3.257   6.549   9.402  0.4496  2.4939  2.4334
  313MOL0     H43152   3.263   6.763   9.566  0.1295 -0.2666 -0.6413
  313MOL0     H43153   3.189   6.942   9.732  1.3488 -3.4415 -0.1092
  313MOL0     H43154   3.043   6.892   9.823 -2.1698 -1.6552 -1.4287
  313MOL0     H43155   3.036   6.859   9.655 -0.7773 -2.7264 -0.0804
  313MOL0     H43156   2.756   6.509   9.980  1.4181 -1.4641 -0.3751
  313MOL0     H43157   2.573   6.481  10.169 -0.2406 -0.2055 -0.3670
  313MOL0     H43158   2.478   6.688  10.393 -0.3047  0.4692  0.4801
  313MOL0     H43159   2.431   6.522  10.321  0.6674 -2.7314  1.5418
  313MOL0     H43160   2.457   6.568  10.620 -3.0624 -2.9962  2.4145
  313MOL0     H43161   2.304   6.573  10.550  0.7693  2.3968 -2.0233
  313MOL0     H43162   2.496   6.336  10.529 -0.7882 -1.3216 -2.6538
  313MOL0     H43163   2.337   6.340  10.456  0.8777  0.3297 -0.7788
  313MOL0     H43164   2.217   6.338  10.664 -0.7745  1.4915  1.9360
  313MOL0     H43165   2.357   6.378  10.760  1.6155 -2.6240 -0.0198
  313MOL0     H43166   2.278   6.124  10.632  1.7047 -1.0133 -1.3986
  313MOL0     H43167   2.449   6.145  10.668  0.5248  2.3869 -0.3938
  313MOL0     H43168   2.235   6.165  10.872 -0.6197 -3.4515  1.1656
  313MOL0     H43169   2.400   6.209  10.910 -3.1425  0.7763  2.6445
  313MOL0     H43170   2.434   6.001  10.958  1.9464 -0.2337 -1.4158
  313MOL0     H43171   2.438   5.951  10.788 -1.0437 -1.6782  1.6663
  313MOL0     H43172   2.214   5.876  10.771  1.1563 -0.7028  0.7098
  313MOL0     H43173   2.168   5.970  10.906  0.2723 -0.0524 -1.4746
  313MOL0     H43174   2.862   6.588  10.462 -0.4387  2.7015 -0.2769
  313MOL0     H43175   3.046   6.562  10.296 -0.5937 -1.9793  1.0528
  313MOL0     H43176   3.182   6.428   9.914  1.0559  1.5399  0.4711
  313MOL0     H43177   3.313   6.375   9.723 -0.4042 -0.0381 -0.8172
  313MOL0     H43178   4.219   6.532   9.869  1.3787 -0.3807  2.9414
  313MOL0     H43179   4.041   6.591  10.032  2.5038 -0.9445  0.4524
  313MOL0     H43180   3.788   7.014  10.166  2.9347 -0.3149  1.1714
  313MOL0     H43181   3.565   7.042  10.282  4.2013  3.1209 -2.1423
  313MOL0     H43182   3.383   7.065  10.603 -1.4083 -1.1361  0.1305
  313MOL0     H43183   3.525   7.134  10.521  2.1644 -2.0551 -0.5309
  313MOL0     H43184   3.416   7.172  10.326  0.4121 -0.4110 -1.0391
  313MOL0     H43185   3.286   7.204  10.434 -1.6598 -1.5155 -0.7800
  313MOL0     H43186   3.331   6.949  10.276  1.8027 -0.0761  0.8163
  313MOL0     H43187   3.234   6.935  10.419  0.6436 -0.9368 -2.6858
  313MOL0     H43188   3.090   7.149  10.327  0.3022  0.3597  0.6567
  313MOL0     H43189   3.053   6.993  10.277 -1.4025  2.2456  3.2781
  313MOL0     H43190   3.143   7.173   9.911 -2.6022 -0.3298 -0.1970
  313MOL0     H43191   3.676   6.746  10.570 -0.3253  0.1031  0.0510
  313MOL0     H43192   3.955   6.621  10.379  0.7210  0.4459 -1.0522
  313MOL0     H43193   3.976   6.719  10.529  0.4011 -1.0919 -0.2154
  313MOL0     H43194   3.847   6.599  10.524 -0.7483  0.0892 -2.3316
  314MOL0     O43195  10.887   6.418   5.079  0.2169 -0.6657  0.0277
  314MOL0     C43196  10.924   6.535   5.065  0.8227 -0.0012  0.6631
  314MOL0     O43197  10.857   6.648   5.111 -0.4162  0.0340  0.1369
  314MOL0     C43198  10.750   6.647   5.191 -0.1033 -0.2114 -0.5325
  314MOL0     C43199  10.635   6.575   5.183  0.1167 -0.0454 -0.0886
  314MOL0     C43200  10.516   6.621   5.238  0.0766  0.1317  0.0206
  314MOL0     C43201  10.518   6.725   5.328  0.0261  0.2398 -0.5152
  314MOL0     O43202  10.401   6.762   5.391 -0.1919  0.3850 -0.4217
  314MOL0     C43203  10.318   6.661   5.453 -0.6228  0.3175 -0.0894
  314MOL0     C43204  10.248   6.716   5.578  0.5004  0.7151  0.1007
  314MOL0     C43205  10.316   6.825   5.658  0.9730  0.7957 -0.5087
  314MOL0     C43206  10.210   6.891   5.748 -0.7378 -0.3232  0.1591
  314MOL0     C43207  10.250   7.028   5.817  0.1830  0.3211 -0.4562
  314MOL0     C43208  10.262   7.143   5.721  0.2722  0.4810 -0.4538
  314MOL0     C43209  10.296   7.265   5.803  0.4180  0.4249  0.2096
  314MOL0     C43210  10.289   7.394   5.726 -0.1602 -0.6494  0.7805
  314MOL0     N43211  10.309   7.517   5.796  0.4226 -0.6007  0.1710
  314MOL0     C43212  10.409   7.556   5.881  0.5619 -0.3427 -0.3662
  314MOL0     C43213  10.364   7.675   5.934 -0.3737  0.0960  0.7500
  314MOL0     C43214  10.437   7.766   6.028 -0.5133  0.1392 -1.1892
  314MOL0     C43215  10.439   7.917   5.978 -0.5784  0.3896  0.2061
  314MOL0     C43216  10.528   7.941   5.852  0.0078 -0.4800  0.5383
  314MOL0     C43217  10.500   8.067   5.780 -0.3777  0.2927 -0.0801
  314MOL0     O43218  10.473   8.166   5.882 -0.7030  0.3773  0.7437
  314MOL0     C43219  10.355   8.233   5.871 -0.4245 -0.8501 -0.2908
  314MOL0     C43220  10.304   8.290   5.756 -0.8112 -0.5304 -0.5938
  314MOL0     C43221  10.188   8.359   5.757 -0.2262  0.4757  0.1010
  314MOL0     C43222  10.136   8.411   5.624 -0.4566  0.2413 -0.5585
  314MOL0     C43223  10.120   8.381   5.884 -0.4016 -0.3882 -0.1160
  314MOL0     C43224   9.982   8.442   5.901  0.3923  0.0776 -0.4761
  314MOL0     O43225   9.940   8.478   6.028  0.4483 -0.5040 -0.5095
  314MOL0     C43226   9.816   8.546   6.029  0.3650 -0.1893  0.4834
  314MOL0     C43227   9.690   8.482   6.057  0.5727  0.1741 -0.0252
  314MOL0     C43228   9.569   8.551   6.042  0.6841  0.1417  0.3471
  314MOL0     C43229   9.571   8.682   5.992  0.6091 -0.1756  1.0941
  314MOL0     O43230   9.452   8.740   5.966  0.7734  0.2796 -0.3746
  314MOL0     C43231   9.415   8.736   5.826  0.4614  0.1776 -0.7776
  314MOL0     C43232   9.337   8.855   5.770  0.7421 -0.0623  0.3440
  314MOL0     C43233   9.262   8.819   5.641 -0.3170 -0.6491  0.4931
  314MOL0     C43234   9.376   8.771   5.539  0.6609 -0.5546 -0.0259
  314MOL0     C43235   9.320   8.778   5.394 -0.3382  0.7780 -0.2891
  314MOL0     C43236   9.235   8.651   5.369  0.5643 -0.6537 -0.8935
  314MOL0     C43237   9.154   8.682   5.241 -0.2971  1.2150 -0.2619
  314MOL0     C43238   9.063   8.565   5.202  0.1795  0.2754 -0.7986
  314MOL0    Cl43239   9.144   8.414   5.172  0.2486 -0.0827  0.3708
  314MOL0     C43240   9.694   8.749   5.968  0.7160  0.9002 -0.6273
  314MOL0     C43241   9.818   8.678   5.988  0.2759 -0.3990 -0.2867
  314MOL0     O43242   9.912   8.429   5.806 -0.7786  0.8467  0.0609
  314MOL0     C43243  10.181   8.326   5.999 -0.4228 -0.0911  0.8309
  314MOL0     C43244  10.298   8.258   5.991  0.3780 -0.4700  0.3181
  314MOL0     N43245  10.242   7.694   5.879 -0.9536 -0.1463  0.2825
  314MOL0     N43246  10.209   7.600   5.799  0.9414  0.4664  0.0346
  314MOL0     C43247  10.638   6.793   5.358  0.4264  0.3763  0.5715
  314MOL0     C43248  10.754   6.758   5.277  0.1028 -0.3505 -1.7166
  314MOL0     C43249  11.059   6.549   5.000 -0.1471  1.3675  0.2040
  314MOL0     C43250  11.138   6.656   5.043  0.1104 -0.5508  0.8221
  314MOL0     C43251  11.264   6.673   4.987  0.4146 -0.1471 -1.3094
  314MOL0     C43252  11.312   6.579   4.891  0.6183 -0.5845  0.4027
  314MOL0     O43253  11.441   6.584   4.838  0.1189 -0.1769  1.1263
  314MOL0     C43254  11.503   6.709   4.805 -0.3014  0.5925 -0.4951
  314MOL0     C43255  11.613   6.683   4.692 -0.3527 -0.4082  0.0962
  314MOL0     C43256  11.723   6.592   4.747  0.9007  0.1677 -0.4025
  314MOL0     C43257  11.830   6.576   4.639  0.1159  0.5039 -0.0016
  314MOL0     C43258  11.802   6.465   4.546 -0.1302 -0.5797 -0.1760
  314MOL0     C43259  11.774   6.391   4.463  0.2739  1.0852 -0.2889
  314MOL0     C43260  11.231   6.485   4.841  0.2998  1.4103 -0.6732
  314MOL0     C43261  11.105   6.465   4.897  0.4560 -0.5187  1.3140
  314MOL0     C43262  11.019   6.359   4.841 -0.6416 -0.0943  0.7020
  314MOL0     H43263  10.622   6.493   5.113  1.0543  0.2344 -0.6056
  314MOL0     H43264  10.429   6.562   5.212  0.2988  0.0700 -0.6112
  314MOL0     H43265  10.379   6.579   5.494  0.8769  2.0145  1.2788
  314MOL0     H43266  10.245   6.607   5.393  0.8366 -0.5931 -1.1007
  314MOL0     H43267  10.147   6.739   5.545 -0.2190 -0.2331  1.5442
  314MOL0     H43268  10.222   6.622   5.628  0.3462  1.0387  0.6301
  314MOL0     H43269  10.396   6.778   5.716  2.0453  0.4459 -2.2048
  314MOL0     H43270  10.366   6.897   5.592 -0.4525  1.6380 -0.7298
  314MOL0     H43271  10.113   6.909   5.699 -1.0890 -0.3997  0.8137
  314MOL0     H43272  10.192   6.816   5.825  0.7363 -0.0441  0.8037
  314MOL0     H43273  10.349   7.027   5.863  1.1186  0.7366 -2.3587
  314MOL0     H43274  10.173   7.054   5.890 -0.2914  0.1488 -0.8876
  314MOL0     H43275  10.339   7.112   5.649 -0.0314 -0.0051 -0.5705
  314MOL0     H43276  10.167   7.161   5.671 -0.4737  0.2215  0.8476
  314MOL0     H43277  10.399   7.261   5.841  1.4963  5.0268 -1.6202
  314MOL0     H43278  10.226   7.266   5.888 -1.8316  0.5199 -1.5560
  314MOL0     H43279  10.364   7.391   5.646 -0.9136  1.1373 -0.0546
  314MOL0     H43280  10.192   7.402   5.677 -0.5770 -0.3182  1.6584
  314MOL0     H43281  10.510   7.517   5.893 -0.4267 -2.6501  1.0755
  314MOL0     H43282  10.544   7.741   6.035 -0.5350  0.5200  1.2602
  314MOL0     H43283  10.388   7.750   6.124 -1.0017 -0.7131 -1.5759
  314MOL0     H43284  10.336   7.957   5.976 -1.1913 -1.1240 -2.0941
  314MOL0     H43285  10.477   7.970   6.066 -2.8398  1.1778  0.8045
  314MOL0     H43286  10.633   7.944   5.886  1.1693 -2.2068 -2.5016
  314MOL0     H43287  10.508   7.864   5.777 -0.4900  0.9907 -0.8960
  314MOL0     H43288  10.585   8.089   5.714  1.0560 -1.6239  1.0424
  314MOL0     H43289  10.410   8.057   5.718  0.3031  4.0801 -2.0087
  314MOL0     H43290  10.348   8.277   5.658 -0.6656  0.1152 -0.6184
  314MOL0     H43291  10.215   8.452   5.560  0.0190 -0.4895 -0.4496
  314MOL0     H43292  10.068   8.497   5.627 -1.4444 -0.4146 -2.4182
  314MOL0     H43293  10.095   8.319   5.581  1.3809 -0.3605 -1.1342
  314MOL0     H43294   9.681   8.381   6.096 -0.7695 -0.3093 -1.4917
  314MOL0     H43295   9.472   8.503   6.051 -0.2954  1.7370 -1.1675
  314MOL0     H43296   9.502   8.721   5.761 -0.5290 -1.4163 -1.8050
  314MOL0     H43297   9.349   8.650   5.813  2.0131 -1.3267  0.8792
  314MOL0     H43298   9.269   8.898   5.843 -2.3831 -0.3383 -2.1639
  314MOL0     H43299   9.422   8.923   5.762  2.2221 -1.7997  0.7189
  314MOL0     H43300   9.228   8.912   5.593  3.7263  0.6498 -0.2584
  314MOL0     H43301   9.190   8.739   5.662  2.2604 -3.1876  0.1594
  314MOL0     H43302   9.411   8.671   5.566  0.4587 -0.2380  1.5071
  314MOL0     H43303   9.462   8.839   5.543  0.8410 -0.8389  1.5375
  314MOL0     H43304   9.255   8.865   5.376 -2.1869 -0.0062  2.0592
  314MOL0     H43305   9.400   8.770   5.320 -1.8339 -2.0307 -1.7708
  314MOL0     H43306   9.185   8.631   5.464  2.1745  0.7040  0.2961
  314MOL0     H43307   9.298   8.564   5.347  1.0451 -0.0071 -2.2275
  314MOL0     H43308   9.219   8.682   5.153 -0.6713 -2.3278 -0.7230
  314MOL0     H43309   9.094   8.773   5.243  0.6392  1.8503  0.9542
  314MOL0     H43310   8.998   8.590   5.118 -0.3820 -0.6079 -0.6377
  314MOL0     H43311   8.991   8.541   5.281 -0.0595 -2.2259 -1.6883
  314MOL0     H43312   9.693   8.852   5.935  1.5058  1.2996  0.5118
  314MOL0     H43313   9.912   8.730   5.974 -1.0416  2.5821  1.0689
  314MOL0     H43314  10.128   8.336   6.093 -0.5394 -0.5608  0.8190
  314MOL0     H43315  10.353   8.210   6.071 -1.7281 -0.7474  1.6724
  314MOL0     H43316  10.651   6.877   5.425 -0.8773 -0.7134  2.2845
  314MOL0     H43317  10.846   6.817   5.277  0.1479 -0.1870  1.7237
  314MOL0     H43318  11.100   6.725   5.118 -3.5975 -0.9824 -0.4446
  314MOL0     H43319  11.328   6.757   5.011 -0.8726  0.1773  1.2797
  314MOL0     H43320  11.422   6.771   4.765  0.2532  0.9156 -1.1427
  314MOL0     H43321  11.543   6.760   4.893  0.0478  0.2047 -0.4224
  314MOL0     H43322  11.655   6.775   4.652  0.9462 -0.1493  1.9060
  314MOL0     H43323  11.575   6.633   4.603  2.1471  0.2265 -1.4061
  314MOL0     H43324  11.766   6.643   4.834  1.7980  0.2043 -0.8568
  314MOL0     H43325  11.689   6.494   4.781  1.0516  0.7258  1.5027
  314MOL0     H43326  11.923   6.553   4.692 -1.2753 -2.9902  1.2607
  314MOL0     H43327  11.840   6.673   4.590 -0.3182 -0.9202 -3.1780
  314MOL0     H43328  11.760   6.323   4.381  6.0037 -2.7305  1.2493
  314MOL0     H43329  11.258   6.429   4.753  0.5813  0.6013 -0.0854
  314MOL0     H43330  10.918   6.390   4.815 -0.9543 -2.0638 -0.6741
  314MOL0     H43331  11.069   6.315   4.754  0.3191 -0.9275  1.6401
  314MOL0     H43332  11.014   6.276   4.913  0.3190 -1.0317 -0.2728
  315MOL0     O43333   5.544   2.813   8.225  0.5252 -0.3944 -0.3767
  315MOL0     C43334   5.573   2.810   8.103 -0.0929 -0.0247 -0.0361
  315MOL0     O43335   5.668   2.881   8.041 -0.4938  1.3614 -0.5083
  315MOL0     C43336   5.752   2.943   8.127 -0.6003  0.3403 -0.2557
  315MOL0     C43337   5.761   3.074   8.125  0.1885 -0.7382  0.3432
  315MOL0     C43338   5.857   3.142   8.198 -0.2672 -0.2589 -0.6718
  315MOL0     C43339   5.955   3.068   8.281 -0.6985  0.4470 -0.6874
  315MOL0     O43340   6.060   3.137   8.345  0.1555  0.6170 -0.3774
  315MOL0     C43341   6.143   3.055   8.429  0.3806  0.6962  0.0914
  315MOL0     C43342   6.245   3.143   8.509 -0.1860  0.2847  0.0825
  315MOL0     C43343   6.342   3.071   8.596  1.0599  0.0690 -0.6385
  315MOL0     C43344   6.353   3.140   8.732 -0.6347  0.2799 -0.0290
  315MOL0     C43345   6.239   3.137   8.831  0.9463 -0.0903  0.2144
  315MOL0     C43346   6.285   3.139   8.972 -0.5301  0.0310 -0.1870
  315MOL0     C43347   6.183   3.129   9.086  0.1090  0.4267  0.6287
  315MOL0     C43348   6.088   3.242   9.094 -0.7325  0.4431 -0.2221
  315MOL0     N43349   6.174   3.365   9.106  0.0933 -0.2774 -0.5777
  315MOL0     C43350   6.176   3.473   9.015  0.2047  0.4100  0.2178
  315MOL0     C43351   6.245   3.571   9.082 -0.1611  0.7735  0.5020
  315MOL0     C43352   6.269   3.710   9.029 -0.5899 -0.2757 -0.8105
  315MOL0     C43353   6.169   3.812   9.094  0.6441  0.2267  0.4714
  315MOL0     C43354   6.157   3.950   9.019 -0.0788  0.6140 -0.4978
  315MOL0     C43355   6.113   4.070   9.096  0.9145  0.5904 -0.5660
  315MOL0     O43356   6.224   4.122   9.166  1.0096  0.2308 -0.4158
  315MOL0     C43357   6.199   4.204   9.274  0.6314 -0.1561  1.4685
  315MOL0     C43358   6.300   4.234   9.369 -0.4355  0.0027  1.1666
  315MOL0     C43359   6.286   4.327   9.473  0.4673  0.3975 -0.3115
  315MOL0     C43360   6.410   4.347   9.563 -0.4158  0.3015  1.1598
  315MOL0     C43361   6.162   4.405   9.485  0.0119  0.4675  0.2979
  315MOL0     C43362   6.132   4.501   9.588  0.6240  0.5118  0.0882
  315MOL0     O43363   6.143   4.448   9.715 -0.3803  0.1568  0.3506
  315MOL0     C43364   6.113   4.535   9.820  0.2826 -0.2466 -0.9733
  315MOL0     C43365   6.023   4.500   9.928  0.2907  0.1692  0.5829
  315MOL0     C43366   6.012   4.577  10.054  1.0553  0.2059  0.5311
  315MOL0     C43367   6.083   4.699  10.063  0.2647  0.0825  0.2382
  315MOL0     O43368   6.065   4.801  10.158  0.2076  0.0901  0.0495
  315MOL0     C43369   5.976   4.779  10.267 -0.0873  0.5547 -1.3182
  315MOL0     C43370   5.955   4.916  10.333 -0.6343  0.0413  0.5110
  315MOL0     C43371   5.819   4.912  10.409 -0.1410 -0.3272  0.0603
  315MOL0     C43372   5.783   5.052  10.462  0.1372  0.8662 -0.5903
  315MOL0     C43373   5.749   5.156  10.353  0.1701 -0.7858  0.7440
  315MOL0     C43374   5.710   5.288  10.425 -0.7197 -0.1123 -0.3288
  315MOL0     C43375   5.622   5.371  10.335 -0.5445 -0.1610  0.0325
  315MOL0     C43376   5.568   5.500  10.404 -0.3289  0.4265 -0.5102
  315MOL0    Cl43377   5.713   5.576  10.468 -0.2157 -0.2348  0.2844
  315MOL0     C43378   6.169   4.737   9.956 -0.9406 -0.5668 -0.5365
  315MOL0     C43379   6.189   4.653   9.846  0.5212 -0.2443  0.2218
  315MOL0     O43380   6.087   4.611   9.558 -0.1242 -0.6381 -0.0594
  315MOL0     C43381   6.062   4.371   9.386  0.2059  0.7309 -0.3607
  315MOL0     C43382   6.074   4.268   9.286 -0.2772  0.3217 -0.1596
  315MOL0     N43383   6.277   3.529   9.204 -0.2010 -0.7940 -0.7224
  315MOL0     N43384   6.248   3.401   9.219  0.7264 -0.3497 -0.0189
  315MOL0     C43385   5.942   2.927   8.289  0.2436  0.4034 -0.1791
  315MOL0     C43386   5.845   2.874   8.207 -0.4690  0.2270  0.6286
  315MOL0     C43387   5.504   2.707   8.023 -0.1386  0.2866  0.3264
  315MOL0     C43388   5.593   2.626   7.952 -0.0353  0.7099 -0.0998
  315MOL0     C43389   5.542   2.522   7.872 -0.1733 -0.0528  0.2113
  315MOL0     C43390   5.409   2.504   7.853 -1.3156 -0.2069  0.0454
  315MOL0     O43391   5.386   2.389   7.782 -0.6659 -0.4578 -0.1766
  315MOL0     C43392   5.250   2.376   7.748 -0.0539  1.3098 -0.1349
  315MOL0     C43393   5.224   2.277   7.621 -0.3129 -0.3511  0.1180
  315MOL0     C43394   5.239   2.132   7.660  0.0223  0.3896 -0.0097
  315MOL0     C43395   5.173   2.043   7.555 -0.9258 -0.2881  0.8792
  315MOL0     C43396   5.196   1.897   7.580 -1.1830 -1.0034 -0.1617
  315MOL0     C43397   5.204   1.783   7.601 -0.2127  0.0792 -0.4561
  315MOL0     C43398   5.318   2.585   7.927 -0.6042  0.5561  0.5177
  315MOL0     C43399   5.362   2.692   8.011  0.1498 -0.2479 -0.1327
  315MOL0     C43400   5.259   2.775   8.085 -0.7814  0.6464 -0.3210
  315MOL0     H43401   5.687   3.121   8.060  1.1033  0.2400 -0.0194
  315MOL0     H43402   5.872   3.247   8.176 -0.5324 -0.1611 -0.3912
  315MOL0     H43403   6.201   2.981   8.375  0.9766  0.3056  1.2429
  315MOL0     H43404   6.087   2.989   8.496  0.2099  0.5526 -0.1882
  315MOL0     H43405   6.296   3.202   8.433  0.1444  0.6523  0.5867
  315MOL0     H43406   6.198   3.223   8.566  1.6271  1.9941 -0.7058
  315MOL0     H43407   6.292   2.974   8.612 -2.6793  2.0802  1.1835
  315MOL0     H43408   6.438   3.055   8.546  2.1144  0.5210  1.1590
  315MOL0     H43409   6.442   3.103   8.784 -0.0579 -0.3570 -1.4042
  315MOL0     H43410   6.373   3.246   8.716  1.1405 -0.0581 -0.2258
  315MOL0     H43411   6.177   3.047   8.830  1.7215 -0.6394 -0.6699
  315MOL0     H43412   6.177   3.224   8.811 -1.0367 -0.4441  3.8885
  315MOL0     H43413   6.349   3.052   8.983 -2.9795 -1.6793  1.6510
  315MOL0     H43414   6.357   3.221   8.984 -1.4913  1.2527 -2.2490
  315MOL0     H43415   6.245   3.113   9.174  0.5729 -0.2698  0.1845
  315MOL0     H43416   6.117   3.041   9.085 -1.9229  1.7791  2.7966
  315MOL0     H43417   6.025   3.251   9.006 -0.6012  1.5035 -0.2181
  315MOL0     H43418   6.028   3.231   9.185  2.1275  2.9683  2.2299
  315MOL0     H43419   6.135   3.484   8.915  0.2563  5.5260  0.4718
  315MOL0     H43420   6.281   3.708   8.921 -2.5200  0.1569 -1.0712
  315MOL0     H43421   6.364   3.751   9.063 -0.0650 -0.8563 -1.5693
  315MOL0     H43422   6.068   3.775   9.074  1.4022 -0.2026 -3.3386
  315MOL0     H43423   6.196   3.809   9.200 -0.4563 -2.4522  0.7581
  315MOL0     H43424   6.254   3.978   8.978 -2.0503  1.6743 -4.9215
  315MOL0     H43425   6.084   3.936   8.940  0.3044 -0.7771 -0.6422
  315MOL0     H43426   6.061   4.143   9.033  1.8053  0.4890 -1.4584
  315MOL0     H43427   6.032   4.032   9.158  1.6852 -1.1549 -0.5603
  315MOL0     H43428   6.394   4.185   9.345 -0.2339  0.8949  0.0561
  315MOL0     H43429   6.378   4.357   9.667 -2.0876  3.5303  0.4687
  315MOL0     H43430   6.464   4.434   9.524  3.1758 -2.8377 -1.6265
  315MOL0     H43431   6.480   4.264   9.560  0.0975  0.7063  1.6406
  315MOL0     H43432   5.965   4.408   9.919 -0.0410  0.5547 -5.1435
  315MOL0     H43433   5.927   4.555  10.118  0.5918  1.1473  0.2647
  315MOL0     H43434   5.882   4.725  10.254 -3.6539  5.3788  1.0770
  315MOL0     H43435   6.022   4.723  10.349 -1.9281 -0.8328 -1.1864
  315MOL0     H43436   6.029   4.942  10.409  0.5019  1.6636 -1.0652
  315MOL0     H43437   5.965   4.988  10.251  3.3702 -1.0511 -0.1905
  315MOL0     H43438   5.823   4.842  10.492  1.4466  1.1147  1.2857
  315MOL0     H43439   5.732   4.876  10.354  0.7193  0.3021 -1.8173
  315MOL0     H43440   5.854   5.081  10.540  0.9032  0.5909 -1.1749
  315MOL0     H43441   5.689   5.029  10.513 -1.3501 -2.9187 -4.4255
  315MOL0     H43442   5.837   5.179  10.293 -1.0184  1.0600 -0.3680
  315MOL0     H43443   5.667   5.128  10.286 -0.6206  0.4499  1.1562
  315MOL0     H43444   5.794   5.344  10.466  0.0581 -2.5730  1.7360
  315MOL0     H43445   5.651   5.258  10.512 -1.3941  3.8413  0.7779
  315MOL0     H43446   5.536   5.308  10.311 -0.1938 -1.4419  1.9761
  315MOL0     H43447   5.691   5.394  10.253  2.0128  0.3329  2.1945
  315MOL0     H43448   5.495   5.469  10.480  0.0966 -1.6063 -0.8727
  315MOL0     H43449   5.529   5.572  10.332  0.8168  0.8130 -0.7688
  315MOL0     H43450   6.218   4.835   9.955 -0.7620 -0.6347  0.6106
  315MOL0     H43451   6.261   4.677   9.768 -0.6074 -3.3840 -2.0117
  315MOL0     H43452   5.965   4.418   9.398 -0.7602 -0.7716 -1.7461
  315MOL0     H43453   5.999   4.247   9.211  1.3114 -1.3602 -1.3692
  315MOL0     H43454   5.992   2.847   8.343  0.3774 -0.0586 -0.9654
  315MOL0     H43455   5.837   2.767   8.191  0.8515 -0.2217  2.6657
  315MOL0     H43456   5.700   2.642   7.950 -0.0992  1.1109 -0.7603
  315MOL0     H43457   5.615   2.458   7.823  2.1372 -0.1892  3.5409
  315MOL0     H43458   5.201   2.330   7.834  0.5324  1.0553  0.0664
  315MOL0     H43459   5.207   2.474   7.726 -1.2434  0.6861 -0.6771
  315MOL0     H43460   5.293   2.301   7.540 -2.4861  1.5435 -1.2845
  315MOL0     H43461   5.123   2.298   7.586 -0.5183  0.2028  1.0220
  315MOL0     H43462   5.346   2.111   7.663 -0.1116 -0.8015 -1.9677
  315MOL0     H43463   5.202   2.117   7.762  1.7891  0.0454  0.6185
  315MOL0     H43464   5.217   2.047   7.455 -0.1768 -1.8034  1.1159
  315MOL0     H43465   5.070   2.072   7.534 -0.2759  1.2581 -0.3372
  315MOL0     H43466   5.222   1.681   7.629  4.2442  1.1274  1.4782
  315MOL0     H43467   5.211   2.572   7.936 -0.7061 -0.1239 -1.2251
  315MOL0     H43468   5.269   2.751   8.191  0.0256  2.8314  0.1498
  315MOL0     H43469   5.287   2.881   8.080 -0.4703  0.5283 -1.2438
  315MOL0     H43470   5.159   2.756   8.046 -1.3378  3.0713 -0.2916
  316MOL0     O43471   4.178   7.157   0.392 -0.9754  0.1230  0.6612
  316MOL0     C43472   4.218   7.126   0.282 -0.2625 -0.1038  0.4512
  316MOL0     O43473   4.141   7.147   0.169  0.1887  0.0648  0.5822
  316MOL0     C43474   4.032   7.229   0.184  0.1337  0.6538 -0.2564
  316MOL0     C43475   3.906   7.180   0.233 -0.4828 -0.5892  0.1286
  316MOL0     C43476   3.793   7.253   0.213 -1.0478  0.0571 -0.1344
  316MOL0     C43477   3.798   7.381   0.172  0.8126 -0.9827  0.0200
  316MOL0     O43478   3.671   7.435   0.149 -0.0946  0.0769 -0.2532
  316MOL0     C43479   3.661   7.565   0.090  0.7946 -0.3846 -0.1426
  316MOL0     C43480   3.662   7.670   0.198  0.4160  0.1098  0.1536
  316MOL0     C43481   3.659   7.807   0.140 -0.7932 -0.5432  0.6357
  316MOL0     C43482   3.662   7.913   0.238  0.3830  0.3768 -0.0045
  316MOL0     C43483   3.674   8.054   0.187  0.0502 -0.5047 -0.5215
  316MOL0     C43484   3.552   8.117   0.126 -0.3453  0.2074 -0.4366
  316MOL0     C43485   3.577   8.271   0.095  0.6624  0.6060  0.7931
  316MOL0     C43486   3.472   8.321  -0.012  0.6824  0.1002  0.5575
  316MOL0     N43487   3.340   8.275   0.033  0.4505  0.0881  0.0811
  316MOL0     C43488   3.271   8.302   0.148 -1.6239  0.9812  0.0175
  316MOL0     C43489   3.145   8.260   0.118  0.4971  0.7422 -0.6038
  316MOL0     C43490   3.010   8.271   0.196 -0.0212 -0.7219 -0.5179
  316MOL0     C43491   3.009   8.181   0.317  0.7886  0.1226 -1.2488
  316MOL0     C43492   3.005   8.031   0.286 -0.3737  1.2803 -0.8999
  316MOL0     C43493   2.915   7.995   0.163  1.1372 -0.8122 -0.0732
  316MOL0     O43494   2.778   8.053   0.184  0.0209 -0.4298  0.7925
  316MOL0     C43495   2.682   8.015   0.100  0.1752 -0.3915  0.0333
  316MOL0     C43496   2.639   8.111   0.001 -0.2052  0.1955  0.1944
  316MOL0     C43497   2.551   8.073  -0.103 -0.3969  0.0645 -0.2035
  316MOL0     C43498   2.516   8.182  -0.205 -1.1881 -0.2351 -0.0945
  316MOL0     C43499   2.501   7.944  -0.112 -0.1268  0.1738  0.4923
  316MOL0     C43500   2.428   7.885  -0.233  0.2350 -0.9424 -0.2187
  316MOL0     O43501   2.460   7.757  -0.266 -0.6728 -0.9113  0.0256
  316MOL0     C43502   2.405   7.696  -0.372 -0.3183  0.4933  0.1207
  316MOL0     C43503   2.281   7.635  -0.357  0.7087  0.6827  0.4544
  316MOL0     C43504   2.230   7.573  -0.470  0.3602 -0.3762  0.3532
  316MOL0     C43505   2.299   7.562  -0.599  0.4104 -0.3734 -0.2784
  316MOL0     O43506   2.270   7.477  -0.698  0.0887 -0.0670 -0.5389
  316MOL0     C43507   2.138   7.450  -0.732  0.0560 -0.1713 -0.6547
  316MOL0     C43508   2.109   7.306  -0.709 -0.6000 -0.1156  0.4576
  316MOL0     C43509   2.178   7.213  -0.805  1.1396  0.2694  0.2485
  316MOL0     C43510   2.298   7.144  -0.749  0.2168  0.5333 -0.1963
  316MOL0     C43511   2.379   7.075  -0.859  0.2954 -0.8542 -0.1749
  316MOL0     C43512   2.503   6.996  -0.813 -0.1347  0.0845 -0.3012
  316MOL0     C43513   2.553   6.904  -0.921  0.8966  0.2889 -0.2569
  316MOL0     C43514   2.657   6.820  -0.854  0.5818 -0.2952 -0.0224
  316MOL0    Cl43515   2.591   6.700  -0.739 -0.2019 -0.5164 -0.0734
  316MOL0     C43516   2.423   7.632  -0.614  0.7040  0.4055 -0.4951
  316MOL0     C43517   2.478   7.692  -0.495  0.2389 -0.7395 -0.6371
  316MOL0     O43518   2.351   7.958  -0.298 -0.7934 -0.1779 -0.1150
  316MOL0     C43519   2.537   7.854  -0.012 -0.1743  0.4105 -0.1725
  316MOL0     C43520   2.624   7.887   0.090 -0.4864 -0.0946 -0.1477
  316MOL0     N43521   3.137   8.215  -0.011 -0.2397  0.2282  1.0068
  316MOL0     N43522   3.253   8.222  -0.058  0.1868 -0.0739 -0.4120
  316MOL0     C43523   3.911   7.436   0.118 -0.4297  0.6746  0.0737
  316MOL0     C43524   4.029   7.353   0.128  0.0022 -0.5176 -0.1166
  316MOL0     C43525   4.350   7.050   0.277  0.1060 -0.0824  0.5607
  316MOL0     C43526   4.395   7.011   0.148 -0.3093 -1.5995 -0.0134
  316MOL0     C43527   4.520   6.954   0.132  0.5958 -0.9484 -0.7853
  316MOL0     C43528   4.615   6.940   0.236 -0.2674 -0.4497 -0.3378
  316MOL0     O43529   4.735   6.887   0.217  0.2796  0.1519 -0.0224
  316MOL0     C43530   4.760   6.775   0.298 -0.5519 -1.0870  0.5633
  316MOL0     C43531   4.856   6.679   0.220  0.6865 -0.2078  0.2197
  316MOL0     C43532   4.911   6.565   0.302  0.1658  0.2508 -0.2757
  316MOL0     C43533   5.018   6.483   0.229  0.6103  0.6281 -0.2230
  316MOL0     C43534   5.041   6.355   0.304 -0.7911 -0.4237  0.2753
  316MOL0     C43535   5.039   6.241   0.348 -0.5649 -0.6717  0.4825
  316MOL0     C43536   4.572   6.976   0.365 -0.4613 -0.0496 -1.1431
  316MOL0     C43537   4.436   7.028   0.389 -0.0658 -0.4996  0.3632
  316MOL0     C43538   4.411   7.067   0.538 -0.1996  1.0772  0.0186
  316MOL0     H43539   3.890   7.078   0.266 -1.0441 -0.5828 -0.1241
  316MOL0     H43540   3.700   7.205   0.240 -0.6096  0.1784  1.7095
  316MOL0     H43541   3.562   7.568   0.042  0.0654 -3.7434  0.9246
  316MOL0     H43542   3.738   7.579   0.013  0.9321 -1.0431 -0.1264
  316MOL0     H43543   3.580   7.643   0.265  1.0568 -2.6729 -0.0418
  316MOL0     H43544   3.746   7.665   0.268 -1.2313  3.1402  2.5916
  316MOL0     H43545   3.753   7.815   0.086 -1.5574  1.1219 -0.5266
  316MOL0     H43546   3.581   7.822   0.064 -0.6810  2.2356  0.9884
  316MOL0     H43547   3.563   7.916   0.283  0.2880  4.0540 -0.1868
  316MOL0     H43548   3.742   7.889   0.308 -1.0393 -0.9746  1.2311
  316MOL0     H43549   3.766   8.070   0.130 -0.3700  1.0382 -0.8050
  316MOL0     H43550   3.695   8.110   0.278  1.5554 -1.8151 -0.0083
  316MOL0     H43551   3.524   8.063   0.035  1.1670 -0.9231 -0.2661
  316MOL0     H43552   3.472   8.111   0.200  2.2051  0.0079  2.4982
  316MOL0     H43553   3.679   8.288   0.060  0.9295  1.2711  1.8738
  316MOL0     H43554   3.562   8.340   0.178  0.0441  0.5304  0.7520
  316MOL0     H43555   3.485   8.429  -0.015  5.0370 -0.2404  1.4006
  316MOL0     H43556   3.485   8.280  -0.113  3.0095  1.1307  0.3819
  316MOL0     H43557   3.320   8.346   0.235  0.5831  0.7596 -1.0621
  316MOL0     H43558   2.922   8.270   0.131 -0.2082  3.1939 -0.5195
  316MOL0     H43559   2.994   8.370   0.238 -0.7296  0.1521 -2.6704
  316MOL0     H43560   3.084   8.220   0.386  1.0040 -0.4413 -1.1575
  316MOL0     H43561   2.912   8.195   0.366  0.0899 -5.5489 -0.2261
  316MOL0     H43562   3.107   7.994   0.268 -0.4593  0.4502  0.2024
  316MOL0     H43563   2.965   7.976   0.372 -1.6493  2.1976 -0.8843
  316MOL0     H43564   2.956   8.033   0.070  1.3136 -2.2662 -0.6130
  316MOL0     H43565   2.905   7.886   0.163  2.3834 -0.9682  1.2518
  316MOL0     H43566   2.673   8.213   0.015  0.7330 -0.2341  1.2261
  316MOL0     H43567   2.566   8.279  -0.202 -0.8096 -0.3621 -1.4859
  316MOL0     H43568   2.411   8.203  -0.185 -0.4767  1.7672  1.9752
  316MOL0     H43569   2.524   8.160  -0.312 -2.0281 -0.2788 -0.1567
  316MOL0     H43570   2.228   7.641  -0.262  0.4926  0.8727  0.3205
  316MOL0     H43571   2.129   7.532  -0.461 -0.1575  0.7289 -0.2708
  316MOL0     H43572   2.063   7.504  -0.672  0.7091 -1.4907  1.4762
  316MOL0     H43573   2.132   7.477  -0.838  0.0265  2.4313 -0.0701
  316MOL0     H43574   2.147   7.284  -0.608  0.1532 -0.8300  0.0370
  316MOL0     H43575   2.003   7.280  -0.714 -0.0725 -3.0042  2.1432
  316MOL0     H43576   2.208   7.278  -0.888 -0.8010 -0.1085 -0.8191
  316MOL0     H43577   2.104   7.140  -0.842  0.6140  2.0751 -2.5854
  316MOL0     H43578   2.283   7.082  -0.660  2.0659  1.8597  1.1229
  316MOL0     H43579   2.362   7.218  -0.699  2.2056 -0.0853 -1.7434
  316MOL0     H43580   2.312   7.002  -0.906 -2.1009 -0.0896  1.8048
  316MOL0     H43581   2.408   7.149  -0.934  1.1818 -0.1004  0.8722
  316MOL0     H43582   2.460   6.930  -0.737  0.0750 -0.5373 -0.7265
  316MOL0     H43583   2.580   7.066  -0.780 -2.5354  2.5177  0.5728
  316MOL0     H43584   2.599   6.955  -1.006  1.7618  0.3749  0.2574
  316MOL0     H43585   2.470   6.849  -0.968  2.5807 -0.4707 -2.5503
  316MOL0     H43586   2.720   6.881  -0.788 -1.5593  0.4216  1.4762
  316MOL0     H43587   2.735   6.782  -0.920  4.8010  1.7438  3.2272
  316MOL0     H43588   2.474   7.614  -0.708  0.1000  1.7744 -1.1056
  316MOL0     H43589   2.579   7.726  -0.475 -0.3249  0.1638  0.8599
  316MOL0     H43590   2.516   7.749  -0.026 -1.0286  0.3742  1.2328
  316MOL0     H43591   2.666   7.813   0.157  0.6084  1.1513  0.5844
  316MOL0     H43592   3.918   7.535   0.075 -0.0218  0.7261  0.2564
  316MOL0     H43593   4.120   7.394   0.084 -0.5907  3.2575  1.7628
  316MOL0     H43594   4.330   7.009   0.062 -2.4981 -2.2106  1.5597
  316MOL0     H43595   4.547   6.925   0.031  0.2638  0.6746 -1.3761
  316MOL0     H43596   4.799   6.805   0.396  0.4448 -1.3787  0.2745
  316MOL0     H43597   4.666   6.726   0.321  0.1032 -2.3076  0.7279
  316MOL0     H43598   4.930   6.743   0.170 -0.5305 -0.6912 -2.3914
  316MOL0     H43599   4.801   6.641   0.133  1.8455 -2.8207  0.5185
  316MOL0     H43600   4.965   6.604   0.388 -1.1550 -0.6106  0.9854
  316MOL0     H43601   4.832   6.501   0.343  0.0748  0.5418  0.0078
  316MOL0     H43602   5.105   6.549   0.219  0.5733  0.5937 -0.8041
  316MOL0     H43603   5.000   6.464   0.123  0.1782  2.7638 -0.5864
  316MOL0     H43604   5.030   6.136   0.368  2.2402 -0.7992  1.4988
  316MOL0     H43605   4.642   6.958   0.446 -1.4687 -0.6598 -0.3950
  316MOL0     H43606   4.483   7.016   0.602 -1.4595 -0.0377  0.5727
  316MOL0     H43607   4.415   7.176   0.542  1.9155  1.0268  0.1285
  316MOL0     H43608   4.312   7.040   0.576 -0.4950  0.7510 -0.9384
  317MOL0     O43609   9.142   9.962   2.584  0.1682 -0.3656 -0.0110
  317MOL0     C43610   9.126   9.926   2.461 -1.0512 -0.3330  0.7696
  317MOL0     O43611   9.094  10.000   2.354 -0.2844 -1.1394 -0.2138
  317MOL0     C43612   9.089  10.135   2.361  0.2635 -0.3167 -0.8217
  317MOL0     C43613   9.133  10.219   2.463  0.1942 -0.7956  0.6102
  317MOL0     C43614   9.148  10.361   2.433 -0.5220  0.9980  0.8100
  317MOL0     C43615   9.105  10.415   2.314  0.5729  0.0009  0.4737
  317MOL0     O43616   9.114  10.557   2.298 -0.0671 -0.3523 -0.6399
  317MOL0     C43617   9.218  10.627   2.372 -0.0648 -0.3445  0.4397
  317MOL0     C43618   9.167  10.754   2.457  0.3862 -0.7708 -0.0951
  317MOL0     C43619   9.096  10.855   2.357 -0.8087  0.1443  0.7975
  317MOL0     C43620   9.107  10.987   2.419  0.5081 -1.1604  0.5904
  317MOL0     C43621   9.091  11.089   2.299  0.1418  0.7953  0.5614
  317MOL0     C43622   9.226  11.118   2.235 -0.6718  0.1386 -0.0858
  317MOL0     C43623   9.214  11.246   2.147  0.2829  1.3471 -0.3300
  317MOL0     C43624   9.201  11.360   2.235 -0.4584 -0.7128  0.1664
  317MOL0     N43625   9.192  11.482   2.151 -0.5609  1.1911  0.3641
  317MOL0     C43626   9.095  11.505   2.058 -0.5981 -1.3187 -1.2756
  317MOL0     C43627   9.132  11.618   2.000 -0.4496 -1.2453 -0.3764
  317MOL0     C43628   9.052  11.698   1.893  0.2093  0.5173 -0.1261
  317MOL0     C43629   8.915  11.741   1.934 -0.7202 -1.4735  0.2225
  317MOL0     C43630   8.922  11.838   2.052 -0.5347  0.3469 -0.7145
  317MOL0     C43631   8.790  11.899   2.090  0.0944  0.3411 -0.3822
  317MOL0     O43632   8.694  11.803   2.136 -0.2151  0.8279  0.1481
  317MOL0     C43633   8.586  11.770   2.050  0.3272  0.3328 -0.8404
  317MOL0     C43634   8.566  11.636   2.041  0.0961  0.4155 -0.1724
  317MOL0     C43635   8.496  11.582   1.937 -0.9528 -0.2195 -0.2682
  317MOL0     C43636   8.501  11.432   1.926 -0.3052 -0.9193  0.0227
  317MOL0     C43637   8.430  11.672   1.847  0.1546  0.5042 -0.8874
  317MOL0     C43638   8.332  11.637   1.739  0.2584  0.0920 -1.4946
  317MOL0     O43639   8.351  11.706   1.622  0.6036 -0.1946  0.0881
  317MOL0     C43640   8.243  11.731   1.526 -0.6451 -0.4039 -0.0898
  317MOL0     C43641   8.276  11.801   1.419 -0.2250  0.5227  0.3343
  317MOL0     C43642   8.173  11.829   1.320  0.1897 -1.2308 -0.0416
  317MOL0     C43643   8.037  11.794   1.336 -0.6927  1.2027 -0.1143
  317MOL0     O43644   7.947  11.844   1.252  0.6978 -0.2551 -0.0774
  317MOL0     C43645   7.806  11.814   1.276  0.3095  0.1123 -0.2695
  317MOL0     C43646   7.716  11.911   1.205 -0.0100 -0.1576  0.6969
  317MOL0     C43647   7.729  11.890   1.048  0.4923  0.2069 -0.6609
  317MOL0     C43648   7.599  11.939   0.979 -0.4390 -0.0834 -0.3031
  317MOL0     C43649   7.638  11.969   0.836  0.5395 -0.2304  0.9018
  317MOL0     C43650   7.513  12.001   0.760  0.0918  0.9360  0.2479
  317MOL0     C43651   7.454  11.873   0.690  0.6435 -1.1912  0.7328
  317MOL0     C43652   7.304  11.892   0.674 -0.1150 -0.2147  0.7867
  317MOL0    Cl43653   7.254  12.045   0.590  0.0389  0.0916 -0.4385
  317MOL0     C43654   8.012  11.724   1.453  0.1032 -0.8733 -1.0341
  317MOL0     C43655   8.113  11.691   1.544 -0.6849  0.2021  0.0172
  317MOL0     O43656   8.252  11.549   1.764 -0.2291 -0.5044  0.2761
  317MOL0     C43657   8.434  11.804   1.872  0.0464  0.1341  0.2954
  317MOL0     C43658   8.522  11.858   1.968 -0.4049 -0.4484  0.3049
  317MOL0     N43659   9.254  11.659   2.053  0.7424 -1.1684  0.9014
  317MOL0     N43660   9.287  11.574   2.136 -0.7368 -0.6794  0.0600
  317MOL0     C43661   9.033  10.336   2.216 -0.3400  0.4188 -0.1635
  317MOL0     C43662   9.035  10.192   2.244 -0.4777  0.3498  0.5832
  317MOL0     C43663   9.174   9.789   2.420  0.0483  0.7289 -0.2779
  317MOL0     C43664   9.233   9.771   2.293 -0.0397  0.2461 -0.4514
  317MOL0     C43665   9.269   9.645   2.244  0.7709  0.3175  0.6786
  317MOL0     C43666   9.236   9.533   2.323 -0.4536  0.8623  0.3782
  317MOL0     O43667   9.260   9.400   2.289  0.5887 -0.1096 -0.3157
  317MOL0     C43668   9.348   9.367   2.178 -0.0016 -0.6462 -0.0645
  317MOL0     C43669   9.272   9.354   2.052 -0.7229 -0.2591  0.3890
  317MOL0     C43670   9.371   9.295   1.952  0.2011  0.9829  0.1441
  317MOL0     C43671   9.318   9.304   1.810 -0.1505 -0.5061  0.5253
  317MOL0     C43672   9.201   9.211   1.777 -1.6866  0.0979 -0.6516
  317MOL0     C43673   9.107   9.142   1.757 -0.2482  0.4843  1.0795
  317MOL0     C43674   9.178   9.545   2.448  0.8362 -0.5667  0.0448
  317MOL0     C43675   9.139   9.670   2.491  1.1261 -1.0979  0.3105
  317MOL0     C43676   9.057   9.665   2.611  0.3312 -0.6231  0.3074
  317MOL0     H43677   9.167  10.188   2.561  2.8385 -2.3986 -0.6892
  317MOL0     H43678   9.186  10.421   2.515  0.1230 -0.9559  2.0203
  317MOL0     H43679   9.292  10.672   2.305  0.4293  2.5019  2.7248
  317MOL0     H43680   9.277  10.556   2.429  0.0533  1.4890  2.7469
  317MOL0     H43681   9.102  10.740   2.544 -2.4221  3.4486 -1.1978
  317MOL0     H43682   9.256  10.808   2.489  0.4470 -1.2038  0.4874
  317MOL0     H43683   9.153  10.857   2.263  0.1745  0.5617  1.3925
  317MOL0     H43684   8.994  10.830   2.326  0.0298  0.5309 -2.6777
  317MOL0     H43685   9.026  10.995   2.491 -1.1786  0.3256 -1.3756
  317MOL0     H43686   9.198  10.992   2.479  0.6871 -2.4481  0.4597
  317MOL0     H43687   9.057  11.183   2.345  1.4202  1.3137  0.5046
  317MOL0     H43688   9.021  11.054   2.223 -0.8944 -0.4725  2.0175
  317MOL0     H43689   9.301  11.133   2.313  0.6563 -2.2956 -0.8061
  317MOL0     H43690   9.264  11.036   2.174 -0.0655  0.5455 -0.2646
  317MOL0     H43691   9.129  11.236   2.078 -0.2851 -0.2284  0.5459
  317MOL0     H43692   9.310  11.247   2.095  0.3098  0.8552 -0.2891
  317MOL0     H43693   9.111  11.366   2.298 -3.3989  1.3666 -3.7539
  317MOL0     H43694   9.285  11.382   2.301 -0.6446  1.3424 -0.1898
  317MOL0     H43695   9.004  11.446   2.053 -1.2597 -0.2836 -1.5568
  317MOL0     H43696   9.043  11.637   1.803 -0.7585 -0.6198  0.7059
  317MOL0     H43697   9.110  11.787   1.866 -2.0240  1.9093 -0.5649
  317MOL0     H43698   8.872  11.797   1.851 -1.3156 -1.7848  0.3173
  317MOL0     H43699   8.848  11.658   1.959 -1.6823  0.1070  3.5782
  317MOL0     H43700   8.962  11.775   2.132  0.1082  0.2148 -1.1391
  317MOL0     H43701   8.991  11.921   2.037 -1.4067  0.7657 -2.6645
  317MOL0     H43702   8.820  11.957   2.178  4.6095 -2.6927  0.4277
  317MOL0     H43703   8.760  11.962   2.006  0.1788 -0.2819 -0.8775
  317MOL0     H43704   8.629  11.578   2.108  1.8689  0.5515 -1.6430
  317MOL0     H43705   8.540  11.387   2.018  0.3684  2.9134  1.8244
  317MOL0     H43706   8.566  11.413   1.840 -1.1192 -0.8570 -0.6177
  317MOL0     H43707   8.402  11.387   1.910  0.5291 -3.0373  0.4879
  317MOL0     H43708   8.381  11.828   1.417  1.5710 -4.7383  2.7777
  317MOL0     H43709   8.201  11.887   1.234 -0.2818 -5.3284 -3.2672
  317MOL0     H43710   7.786  11.708   1.255 -0.8773 -0.1051  1.6729
  317MOL0     H43711   7.794  11.825   1.384  0.2713  2.8719 -0.4931
  317MOL0     H43712   7.613  11.904   1.239 -0.3259 -0.9950 -0.3873
  317MOL0     H43713   7.751  12.007   1.244  0.4515 -0.4356  0.9811
  317MOL0     H43714   7.751  11.790   1.012 -1.2249  0.0846 -1.5106
  317MOL0     H43715   7.811  11.961   1.032 -1.5676  3.6595  2.3903
  317MOL0     H43716   7.566  12.032   1.025  0.0547 -1.2495  2.5977
  317MOL0     H43717   7.529  11.858   0.999  0.9299 -0.9413  1.2809
  317MOL0     H43718   7.685  12.067   0.840 -0.9694  0.5193  1.2779
  317MOL0     H43719   7.711  11.901   0.790  1.3767  0.9155  0.5092
  317MOL0     H43720   7.545  12.073   0.685  4.1731 -0.1450  0.6823
  317MOL0     H43721   7.439  12.053   0.821 -0.7959 -1.4883  1.3739
  317MOL0     H43722   7.477  11.785   0.751 -2.1366 -2.5438 -0.0018
  317MOL0     H43723   7.493  11.855   0.589  0.6274  1.5249  0.1878
  317MOL0     H43724   7.257  11.897   0.773 -1.4128  1.7432  0.1175
  317MOL0     H43725   7.256  11.810   0.620  2.2233 -2.0986  1.3367
  317MOL0     H43726   7.914  11.689   1.485  0.7280 -2.4316 -0.7426
  317MOL0     H43727   8.093  11.632   1.633  2.0074  0.9002  1.1819
  317MOL0     H43728   8.373  11.871   1.811 -0.2998 -0.3545  0.0975
  317MOL0     H43729   8.533  11.966   1.960 -0.4519 -0.6100 -3.5290
  317MOL0     H43730   9.012  10.392   2.125  2.3086  2.4737  0.3591
  317MOL0     H43731   9.006  10.123   2.165 -2.0103 -1.0131  2.2530
  317MOL0     H43732   9.260   9.848   2.221  0.7901  0.9971  0.6435
  317MOL0     H43733   9.311   9.627   2.146 -1.1034 -3.3468  0.3497
  317MOL0     H43734   9.433   9.436   2.171 -1.2225  0.8499 -0.7415
  317MOL0     H43735   9.396   9.272   2.206 -1.6125 -0.2751  4.8326
  317MOL0     H43736   9.239   9.448   2.005  1.7226 -0.4371 -1.9369
  317MOL0     H43737   9.187   9.286   2.059  0.4603 -1.8888 -0.4586
  317MOL0     H43738   9.467   9.347   1.961 -0.2845  1.7977  0.6949
  317MOL0     H43739   9.387   9.187   1.960 -1.9050  0.6488  0.3850
  317MOL0     H43740   9.398   9.290   1.737 -0.5707  2.6435 -0.7053
  317MOL0     H43741   9.290   9.406   1.781 -0.4686 -0.9473 -0.7496
  317MOL0     H43742   9.023   9.074   1.759  0.6215 -0.6824 -0.0446
  317MOL0     H43743   9.180   9.453   2.505  0.6706 -2.6002 -3.0010
  317MOL0     H43744   9.106   9.725   2.688  0.8803 -1.2656  0.4631
  317MOL0     H43745   8.953   9.699   2.599  0.1408 -1.0362  0.7196
  317MOL0     H43746   9.043   9.561   2.643  2.0038 -0.4279  1.8317
  318MOL0     O43747   9.123   7.744   4.413  0.4114 -0.4288 -0.2441
  318MOL0     C43748   9.117   7.868   4.416  0.1946  0.1023  0.3012
  318MOL0     O43749   9.163   7.957   4.513  0.4559 -0.2752 -0.1027
  318MOL0     C43750   9.172   7.912   4.636  0.4279  0.1637  0.5115
  318MOL0     C43751   9.088   7.804   4.700 -0.3051  0.2343 -1.1061
  318MOL0     C43752   9.111   7.770   4.833 -0.4734 -0.2136  0.0502
  318MOL0     C43753   9.201   7.848   4.911  0.5531  0.7371 -0.2439
  318MOL0     O43754   9.232   7.825   5.043 -0.3027  0.6255  0.0929
  318MOL0     C43755   9.173   7.703   5.106 -0.9078  0.5218 -0.0334
  318MOL0     C43756   9.254   7.670   5.236  0.4969  0.2195  0.7589
  318MOL0     C43757   9.258   7.516   5.258  0.0792 -0.3493  0.4615
  318MOL0     C43758   9.349   7.440   5.165 -0.3178 -0.6609 -0.2374
  318MOL0     C43759   9.355   7.287   5.183  0.4908 -0.4768 -0.3533
  318MOL0     C43760   9.216   7.222   5.146 -0.0341 -0.3246  0.6809
  318MOL0     C43761   9.207   7.069   5.157  0.7901  1.4440 -1.1328
  318MOL0     C43762   9.210   7.041   5.308 -0.0890  0.1400  0.3523
  318MOL0     N43763   9.201   6.890   5.340 -1.1766 -0.4063 -0.0695
  318MOL0     C43764   9.129   6.846   5.451  0.3165  0.6775 -0.3241
  318MOL0     C43765   9.131   6.710   5.452  0.1250  0.5642 -0.5619
  318MOL0     C43766   9.076   6.613   5.565  0.4393 -0.7025  0.7413
  318MOL0     C43767   8.971   6.666   5.664  0.0332  0.0821  0.1906
  318MOL0     C43768   8.844   6.722   5.590 -0.6510 -0.7226  0.3073
  318MOL0     C43769   8.733   6.766   5.685  0.1485  0.1383  0.0193
  318MOL0     O43770   8.776   6.882   5.760  0.2863  0.2628 -0.2618
  318MOL0     C43771   8.700   6.949   5.852 -0.2334  0.6768 -0.2960
  318MOL0     C43772   8.573   6.894   5.893  0.3179 -1.1240 -0.0534
  318MOL0     C43773   8.494   6.962   5.987  0.1463 -0.2221  0.0570
  318MOL0     C43774   8.370   6.898   6.041 -0.1870 -0.3480 -0.5913
  318MOL0     C43775   8.529   7.092   6.037 -0.3095 -0.0343 -0.6204
  318MOL0     C43776   8.446   7.184   6.123  0.0315 -0.0737 -0.1610
  318MOL0     O43777   8.452   7.317   6.099 -0.2549 -0.2938  0.2176
  318MOL0     C43778   8.357   7.403   6.133  0.3409  0.3061 -0.0183
  318MOL0     C43779   8.385   7.542   6.123  0.1929 -1.4907 -0.0673
  318MOL0     C43780   8.286   7.638   6.158  0.8476  0.6540 -0.2212
  318MOL0     C43781   8.158   7.586   6.216  1.0015 -0.3524  0.3919
  318MOL0     O43782   8.046   7.661   6.257 -0.1605 -0.1173 -0.4452
  318MOL0     C43783   8.070   7.796   6.243 -0.7783  0.2106 -0.9555
  318MOL0     C43784   7.947   7.885   6.279 -0.1538  0.5488 -0.3786
  318MOL0     C43785   7.846   7.891   6.160  0.5853 -1.3634  0.2513
  318MOL0     C43786   7.898   7.986   6.039  0.1263  0.1392 -0.3249
  318MOL0     C43787   7.906   8.135   6.100  0.4049  0.0094  0.7896
  318MOL0     C43788   7.969   8.237   6.002 -0.2778  0.2689 -0.0623
  318MOL0     C43789   7.939   8.374   6.057 -0.1037 -0.3058 -0.2705
  318MOL0     C43790   7.986   8.496   5.980 -0.7936 -0.0659 -0.0349
  318MOL0    Cl43791   8.139   8.464   5.904  0.3629 -0.1313 -0.1400
  318MOL0     C43792   8.145   7.457   6.240 -0.1548  1.3548 -0.5342
  318MOL0     C43793   8.233   7.367   6.189 -0.3254  0.6695 -0.0144
  318MOL0     O43794   8.387   7.132   6.222 -0.5113 -0.4844  0.0935
  318MOL0     C43795   8.650   7.154   5.987  0.4321  0.9973  0.3260
  318MOL0     C43796   8.731   7.080   5.898 -0.4451 -0.0993  0.5167
  318MOL0     N43797   9.203   6.668   5.336 -0.8176 -0.7796  0.2173
  318MOL0     N43798   9.241   6.779   5.276  0.3876  0.6634 -0.8111
  318MOL0     C43799   9.276   7.942   4.848  0.7908 -0.0019  0.8159
  318MOL0     C43800   9.264   7.975   4.709  0.1123 -0.3283 -0.8292
  318MOL0     C43801   9.069   7.923   4.289  0.2735 -0.6824 -0.0760
  318MOL0     C43802   9.139   8.039   4.248 -0.2652 -0.7953  0.0698
  318MOL0     C43803   9.090   8.113   4.140 -0.2055 -0.1429  0.0198
  318MOL0     C43804   8.981   8.069   4.064 -1.0977  0.7927  0.5207
  318MOL0     O43805   8.928   8.136   3.967 -0.6507  1.1287  0.8342
  318MOL0     C43806   9.011   8.162   3.860 -0.4137 -0.6300  0.3422
  318MOL0     C43807   8.944   8.278   3.784  0.2560 -1.1705 -0.6872
  318MOL0     C43808   9.050   8.341   3.691  0.0895  0.3537 -0.5349
  318MOL0     C43809   8.994   8.456   3.596 -0.0159 -0.6778 -1.1543
  318MOL0     C43810   8.887   8.427   3.503  1.0680  1.4507 -0.6541
  318MOL0     C43811   8.795   8.400   3.427  0.1746  0.0622  0.0220
  318MOL0     C43812   8.918   7.950   4.101  0.8593  0.3417  0.2623
  318MOL0     C43813   8.959   7.877   4.208  0.0896  0.0526 -1.3249
  318MOL0     C43814   8.892   7.756   4.244 -0.4533 -0.5787 -0.4498
  318MOL0     H43815   9.018   7.741   4.646  2.6624 -1.3273 -3.3875
  318MOL0     H43816   9.069   7.677   4.873  1.5785 -0.6806  1.2424
  318MOL0     H43817   9.185   7.616   5.040  1.0449 -0.4084  1.4262
  318MOL0     H43818   9.066   7.715   5.124 -0.4807  1.1866  2.3975
  318MOL0     H43819   9.353   7.705   5.204 -0.4899  1.5862 -1.0018
  318MOL0     H43820   9.210   7.727   5.318  0.8577  0.9194  0.4758
  318MOL0     H43821   9.290   7.482   5.357 -2.7209 -1.3898  1.1166
  318MOL0     H43822   9.155   7.482   5.244 -0.6399  2.1445 -0.9542
  318MOL0     H43823   9.315   7.453   5.062 -1.8965 -1.3993  0.1655
  318MOL0     H43824   9.447   7.487   5.176 -1.0979  0.9735  0.0558
  318MOL0     H43825   9.388   7.256   5.283 -1.2939  0.8655  0.7041
  318MOL0     H43826   9.429   7.253   5.110  0.9038  1.1469 -0.7156
  318MOL0     H43827   9.138   7.278   5.198  0.5851  1.0620  0.1770
  318MOL0     H43828   9.206   7.236   5.038  2.8500  0.5177  0.4187
  318MOL0     H43829   9.295   7.021   5.113 -0.0855 -0.9389 -0.4386
  318MOL0     H43830   9.116   7.034   5.108  0.0909  2.1575 -0.3618
  318MOL0     H43831   9.304   7.077   5.350  1.1680 -1.7097 -0.7144
  318MOL0     H43832   9.127   7.096   5.355  0.1124  2.8161 -2.1518
  318MOL0     H43833   9.091   6.910   5.530  1.1369 -1.3059  1.7515
  318MOL0     H43834   9.154   6.576   5.633  0.6651 -2.3688 -0.3752
  318MOL0     H43835   9.041   6.522   5.516 -1.0094 -0.6625  1.6304
  318MOL0     H43836   8.943   6.582   5.728 -0.5666  0.4264  0.3798
  318MOL0     H43837   9.015   6.743   5.727 -1.1399  1.3617 -0.5196
  318MOL0     H43838   8.889   6.810   5.543 -0.0571 -0.2270  1.7569
  318MOL0     H43839   8.810   6.647   5.518  0.0283 -0.6546 -0.0989
  318MOL0     H43840   8.647   6.799   5.626  0.1144 -1.4793 -0.8998
  318MOL0     H43841   8.688   6.688   5.748 -3.7372  1.6243 -0.6025
  318MOL0     H43842   8.534   6.799   5.857  0.2796 -0.9857 -0.3898
  318MOL0     H43843   8.291   6.973   6.039 -0.5858 -0.5305  2.6816
  318MOL0     H43844   8.369   6.865   6.145 -1.7716 -0.7733 -0.7150
  318MOL0     H43845   8.348   6.810   5.980  2.0924 -0.8228 -0.8152
  318MOL0     H43846   8.486   7.562   6.089  0.0889 -1.9909 -0.7040
  318MOL0     H43847   8.310   7.744   6.157  1.0645  0.6050 -0.2791
  318MOL0     H43848   8.156   7.818   6.307  0.4317 -1.5259 -1.8784
  318MOL0     H43849   8.103   7.828   6.143 -1.8491 -2.6382 -2.3483
  318MOL0     H43850   7.901   7.837   6.366  1.1378 -0.4822 -0.2383
  318MOL0     H43851   7.978   7.980   6.325  0.9036  0.1075 -0.1501
  318MOL0     H43852   7.749   7.934   6.185  0.8003  0.7276 -2.0550
  318MOL0     H43853   7.822   7.791   6.124 -2.3319 -1.2738  1.7252
  318MOL0     H43854   7.833   7.994   5.952 -0.3523  0.0193  0.0172
  318MOL0     H43855   7.997   7.955   6.004 -0.8161 -2.3862 -0.9539
  318MOL0     H43856   7.801   8.159   6.120  0.1849  1.0169 -1.3675
  318MOL0     H43857   7.963   8.141   6.193  1.9092  1.8752 -0.1907
  318MOL0     H43858   7.922   8.229   5.904 -4.1031 -0.2649  1.6530
  318MOL0     H43859   8.075   8.209   6.006 -0.4302 -1.4577 -3.7918
  318MOL0     H43860   7.985   8.386   6.156  0.3667 -0.9396 -0.4114
  318MOL0     H43861   7.835   8.386   6.086 -0.3645 -1.2199 -0.8094
  318MOL0     H43862   8.009   8.580   6.047  0.4698  1.7167 -2.5178
  318MOL0     H43863   7.912   8.522   5.904 -1.1403 -0.2611  0.2347
  318MOL0     H43864   8.058   7.421   6.293 -1.0320  2.0200 -1.4726
  318MOL0     H43865   8.199   7.265   6.204 -4.2005  1.7911 -0.0615
  318MOL0     H43866   8.689   7.253   6.005  0.1137  1.2047 -0.1174
  318MOL0     H43867   8.821   7.132   5.865 -0.0686 -1.2718 -0.3999
  318MOL0     H43868   9.355   7.993   4.902  1.2000 -2.8632  3.1823
  318MOL0     H43869   9.326   8.050   4.660 -0.4116  0.1365 -0.7830
  318MOL0     H43870   9.236   8.065   4.289 -0.4635  2.3415 -1.1581
  318MOL0     H43871   9.132   8.210   4.119  2.2320 -0.4789  2.8198
  318MOL0     H43872   9.113   8.186   3.890 -0.5250  2.5867 -1.4534
  318MOL0     H43873   9.009   8.071   3.799  2.3961 -2.9001  3.2954
  318MOL0     H43874   8.918   8.364   3.847 -0.0686 -0.5940 -1.5782
  318MOL0     H43875   8.860   8.250   3.719 -0.5465 -2.3427  0.7931
  318MOL0     H43876   9.129   8.391   3.748  2.0215 -1.3572 -1.6005
  318MOL0     H43877   9.104   8.273   3.625  0.1294  0.6458 -0.8061
  318MOL0     H43878   9.076   8.486   3.531  0.3503 -1.5100 -1.0821
  318MOL0     H43879   8.956   8.548   3.642  1.3177 -0.5437 -0.2812
  318MOL0     H43880   8.712   8.386   3.362  2.4762 -1.4587 -2.8137
  318MOL0     H43881   8.834   7.920   4.039  2.0718 -1.3348 -0.6465
  318MOL0     H43882   8.962   7.672   4.241 -0.3258 -0.7357  3.0686
  318MOL0     H43883   8.851   7.768   4.345 -0.5784 -3.1688 -0.1386
  318MOL0     H43884   8.816   7.740   4.168  0.1051 -0.1710 -1.1085
  319MOL0     O43885  10.385   6.273   9.481 -0.1207 -1.0730 -0.0997
  319MOL0     C43886  10.336   6.387   9.463  0.1741  0.3568  0.0544
  319MOL0     O43887  10.361   6.461   9.347  0.1563 -0.1766  0.2519
  319MOL0     C43888  10.436   6.405   9.246 -0.1252  0.3381 -1.1162
  319MOL0     C43889  10.579   6.413   9.249  0.1156  0.3756 -0.4743
  319MOL0     C43890  10.649   6.350   9.149  0.1836  0.0525  0.1830
  319MOL0     C43891  10.580   6.275   9.051 -1.4092 -0.0171 -0.3443
  319MOL0     O43892  10.642   6.215   8.945  0.0311 -0.1479 -0.1720
  319MOL0     C43893  10.789   6.226   8.928  0.2230  0.8023  0.7294
  319MOL0     C43894  10.841   6.177   8.785  0.5005  0.0189 -0.7730
  319MOL0     C43895  10.851   6.020   8.780 -0.4034  0.0223  0.5239
  319MOL0     C43896  10.959   5.959   8.872  0.1218 -0.5058 -1.2857
  319MOL0     C43897  10.915   5.817   8.916 -0.0737  0.1306 -0.1039
  319MOL0     C43898  11.011   5.739   9.008 -0.8903 -0.2259  0.0379
  319MOL0     C43899  10.969   5.595   9.035 -0.1249 -0.6246  0.6097
  319MOL0     C43900  11.055   5.534   9.142 -0.2229 -0.3826 -0.4989
  319MOL0     N43901  11.012   5.407   9.194 -0.4095  0.5968  0.3527
  319MOL0     C43902  10.950   5.301   9.121 -0.1462 -0.3761  0.1341
  319MOL0     C43903  10.925   5.212   9.220 -0.6202 -0.9023  0.8783
  319MOL0     C43904  10.862   5.073   9.191  0.4169  0.0303 -1.2751
  319MOL0     C43905  10.906   4.975   9.303  0.9124  0.9721  0.0158
  319MOL0     C43906  10.826   4.843   9.279  0.5813  0.8326 -0.1689
  319MOL0     C43907  10.877   4.716   9.356 -0.3165 -0.4573 -0.4371
  319MOL0     O43908  11.011   4.672   9.311 -0.4556 -0.3388 -0.2440
  319MOL0     C43909  11.053   4.545   9.331 -0.6883  0.5359  0.1584
  319MOL0     C43910  11.186   4.521   9.302  0.2909  0.6659 -0.2769
  319MOL0     C43911  11.244   4.397   9.337 -1.0536 -0.8268 -0.0527
  319MOL0     C43912  11.388   4.390   9.305  0.4230  0.2394  0.5274
  319MOL0     C43913  11.166   4.289   9.398  0.6908 -0.0227  0.5276
  319MOL0     C43914  11.213   4.150   9.428  0.4464 -0.0296 -0.3690
  319MOL0     O43915  11.118   4.080   9.504  0.3465  0.2128 -0.0821
  319MOL0     C43916  11.142   3.953   9.552 -0.0402  0.6194 -0.4134
  319MOL0     C43917  11.272   3.910   9.593  0.1155  0.4085 -0.2764
  319MOL0     C43918  11.278   3.779   9.654  0.6631  0.3611 -0.2731
  319MOL0     C43919  11.166   3.695   9.660 -0.2287  0.4054 -1.0840
  319MOL0     O43920  11.190   3.571   9.705  1.0404 -0.3045 -0.3460
  319MOL0     C43921  11.100   3.460   9.668  0.0345  0.2727 -0.0478
  319MOL0     C43922  11.103   3.430   9.515 -0.2420 -0.4985  0.1104
  319MOL0     C43923  11.196   3.308   9.470  0.2165 -0.5827 -0.7488
  319MOL0     C43924  11.182   3.277   9.323 -0.1668  0.1594  0.4719
  319MOL0     C43925  11.281   3.170   9.265 -0.0423 -0.6067  0.0507
  319MOL0     C43926  11.256   3.028   9.312 -0.0819  0.4840  0.1903
  319MOL0     C43927  11.343   2.943   9.227 -0.2329  0.7953 -0.6235
  319MOL0     C43928  11.391   2.817   9.305 -0.6722 -0.7819  0.2890
  319MOL0    Cl43929  11.422   2.686   9.198  0.0347 -0.5095 -0.1283
  319MOL0     C43930  11.041   3.747   9.617  0.4262 -0.2134 -1.0171
  319MOL0     C43931  11.028   3.880   9.575 -0.3875 -0.0700  0.6343
  319MOL0     O43932  11.329   4.111   9.397  0.6456 -0.2593  0.0344
  319MOL0     C43933  11.025   4.318   9.405 -0.1102  0.0958  0.0865
  319MOL0     C43934  10.971   4.444   9.380  0.2442  0.0771 -0.3202
  319MOL0     N43935  10.970   5.259   9.345 -0.0131  0.0241 -0.0181
  319MOL0     N43936  11.021   5.376   9.324 -0.1044 -0.0094 -0.2760
  319MOL0     C43937  10.445   6.281   9.040 -0.1211  0.0071 -0.0487
  319MOL0     C43938  10.369   6.349   9.138  0.8708 -0.4231  0.8950
  319MOL0     C43939  10.250   6.452   9.570 -1.3068 -0.7241 -0.7207
  319MOL0     C43940  10.222   6.588   9.550 -0.6540 -0.3782  0.4881
  319MOL0     C43941  10.159   6.648   9.657  0.3169  0.4924  0.2062
  319MOL0     C43942  10.126   6.592   9.774 -0.2458  0.1220  0.3294
  319MOL0     O43943  10.055   6.654   9.871 -0.0738 -0.2442  1.3559
  319MOL0     C43944  10.121   6.651  10.000 -0.0355  0.0163  0.2221
  319MOL0     C43945  10.217   6.767   9.992  1.4335  0.1681  0.0252
  319MOL0     C43946  10.133   6.891  10.018 -0.2696 -0.0346 -0.3122
  319MOL0     C43947  10.211   7.015  10.048  0.5348  0.9969  0.2894
  319MOL0     C43948  10.261   7.074   9.926  0.0364 -0.0603  0.3161
  319MOL0     C43949  10.293   7.121   9.819 -0.0450 -0.5566  0.1759
  319MOL0     C43950  10.137   6.457   9.780 -0.6576  0.4197 -0.1156
  319MOL0     C43951  10.198   6.380   9.685  0.6617 -0.2101 -0.0867
  319MOL0     C43952  10.206   6.233   9.699 -0.5318 -0.2139 -0.8288
  319MOL0     H43953  10.632   6.472   9.324  0.5850  3.0146 -2.7230
  319MOL0     H43954  10.755   6.371   9.146 -0.2029  2.0360 -1.0278
  319MOL0     H43955  10.837   6.170   9.009  0.6823  1.5357  0.9735
  319MOL0     H43956  10.828   6.328   8.939  1.1086  0.7638 -1.4808
  319MOL0     H43957  10.771   6.206   8.706  2.1385  1.1969 -1.8557
  319MOL0     H43958  10.935   6.222   8.753 -0.6150  2.8372 -0.3874
  319MOL0     H43959  10.750   5.992   8.808  0.0949 -0.3771  1.9938
  319MOL0     H43960  10.881   5.984   8.681  2.5747  1.3812  0.8165
  319MOL0     H43961  11.058   5.951   8.827  0.0152  2.6623 -2.3064
  319MOL0     H43962  10.979   6.012   8.966  2.6952 -1.6155 -1.1383
  319MOL0     H43963  10.885   5.758   8.829  1.4970  0.7185 -1.0992
  319MOL0     H43964  10.825   5.823   8.977 -1.0992 -1.5907 -1.3601
  319MOL0     H43965  11.112   5.744   8.968 -0.7979  1.3847  0.3975
  319MOL0     H43966  11.025   5.783   9.107 -0.9114  0.8334 -0.4209
  319MOL0     H43967  10.980   5.545   8.939 -2.3297 -0.7013  0.3575
  319MOL0     H43968  10.862   5.592   9.055 -0.0440  0.3851  1.3011
  319MOL0     H43969  11.158   5.523   9.106 -0.1278 -0.3149 -0.2531
  319MOL0     H43970  11.057   5.599   9.230 -1.1660 -1.0216  0.0103
  319MOL0     H43971  10.924   5.296   9.016  0.9352 -1.1738 -0.1127
  319MOL0     H43972  10.895   5.035   9.094  2.0123 -0.9421 -0.3945
  319MOL0     H43973  10.756   5.099   9.202  0.3193 -0.9386  0.6269
  319MOL0     H43974  11.015   4.965   9.297  1.0198  1.2798  1.1087
  319MOL0     H43975  10.875   4.991   9.407 -1.5057 -3.5682  0.2486
  319MOL0     H43976  10.717   4.851   9.288  0.3818  0.0063 -1.5684
  319MOL0     H43977  10.832   4.815   9.173 -0.9777 -0.4672  0.0446
  319MOL0     H43978  10.876   4.731   9.464  3.8575 -1.0632 -0.1406
  319MOL0     H43979  10.808   4.636   9.326 -2.0649  0.7086  0.2928
  319MOL0     H43980  11.249   4.597   9.256  1.6046  0.7099  1.5155
  319MOL0     H43981  11.447   4.382   9.396 -1.4254  1.2677  1.8857
  319MOL0     H43982  11.418   4.479   9.248  2.4577 -1.7224 -1.6988
  319MOL0     H43983  11.413   4.305   9.241 -0.0927  0.3819  0.1266
  319MOL0     H43984  11.361   3.970   9.587  0.5809 -0.2702 -0.2719
  319MOL0     H43985  11.377   3.741   9.680  0.3057  1.2977  2.8231
  319MOL0     H43986  11.136   3.368   9.715 -2.6605 -0.2476  1.1908
  319MOL0     H43987  10.998   3.470   9.705  0.1891  0.4699  0.3410
  319MOL0     H43988  11.003   3.404   9.478  0.2873 -1.7361 -0.5352
  319MOL0     H43989  11.123   3.520   9.456 -1.9927  0.5472  1.0028
  319MOL0     H43990  11.163   3.219   9.525 -0.5296 -0.1794 -0.5346
  319MOL0     H43991  11.298   3.321   9.506 -1.1061  1.0773  2.8951
  319MOL0     H43992  11.200   3.367   9.264 -1.1364 -0.5682 -0.9933
  319MOL0     H43993  11.087   3.226   9.305  0.3771  0.0332 -2.5629
  319MOL0     H43994  11.260   3.178   9.158 -1.8815  0.6395  0.4611
  319MOL0     H43995  11.381   3.205   9.292 -1.1734  2.8611  0.1782
  319MOL0     H43996  11.150   3.002   9.299 -0.8901  3.7812 -0.6459
  319MOL0     H43997  11.290   3.017   9.416  3.8203  0.0240 -0.9744
  319MOL0     H43998  11.431   2.998   9.192  0.8992 -0.1852  0.5561
  319MOL0     H43999  11.283   2.911   9.141  0.3309 -2.0424 -0.0805
  319MOL0     H44000  11.303   2.783   9.360 -2.3191  1.9740 -0.4597
  319MOL0     H44001  11.477   2.848   9.366 -1.4481  3.9938 -0.6120
  319MOL0     H44002  10.947   3.693   9.616 -1.4312  2.7913 -1.5323
  319MOL0     H44003  10.944   3.945   9.550 -0.7491  0.0669  2.1109
  319MOL0     H44004  10.953   4.238   9.420  1.7117 -1.7367 -0.4047
  319MOL0     H44005  10.868   4.465   9.407  0.6154  1.9239 -0.1935
  319MOL0     H44006  10.405   6.231   8.953  2.7130 -1.3906 -0.6793
  319MOL0     H44007  10.262   6.357   9.120  0.9531  2.6265  1.1292
  319MOL0     H44008  10.235   6.638   9.455 -0.1003  0.1199  0.8215
  319MOL0     H44009  10.135   6.752   9.637 -0.1573  0.8760  2.5568
  319MOL0     H44010  10.061   6.653  10.092 -3.5554 -2.9545 -1.7112
  319MOL0     H44011  10.163   6.551  10.014  0.6734  0.0874 -1.2295
  319MOL0     H44012  10.270   6.771   9.896  0.3153 -0.0612 -0.6130
  319MOL0     H44013  10.291   6.764  10.073  1.0575  2.1253  0.4993
  319MOL0     H44014  10.066   6.895   9.932  0.5110 -0.7539 -0.9762
  319MOL0     H44015  10.061   6.871  10.098 -0.7379 -0.1581 -0.7598
  319MOL0     H44016  10.292   6.981  10.113  0.5877 -1.1178 -0.7856
  319MOL0     H44017  10.150   7.091  10.098  0.4224  1.0658  0.0506
  319MOL0     H44018  10.315   7.180   9.733  0.5026 -0.6843  0.2211
  319MOL0     H44019  10.098   6.404   9.866  1.7600 -2.5833 -0.6795
  319MOL0     H44020  10.190   6.173   9.609 -0.6407 -1.3448 -0.0764
  319MOL0     H44021  10.306   6.214   9.741  0.1368  1.7846 -1.3945
  319MOL0     H44022  10.133   6.196   9.771  0.8438 -0.6518  0.3934
  320MOL0     O44023   6.569   3.000   9.495  0.3997  0.7199  1.1484
  320MOL0     C44024   6.449   3.001   9.521 -0.0659 -0.0115 -0.2061
  320MOL0     O44025   6.350   2.927   9.465  0.1768 -0.4547 -0.0310
  320MOL0     C44026   6.364   2.815   9.379 -0.4795  0.2850  0.1922
  320MOL0     C44027   6.470   2.724   9.361  0.3452  0.2000 -0.0768
  320MOL0     C44028   6.488   2.635   9.259 -0.0344 -0.2027 -0.0224
  320MOL0     C44029   6.381   2.617   9.170 -0.1521  0.0857 -0.0377
  320MOL0     O44030   6.377   2.516   9.080  0.0439  0.3514 -0.0724
  320MOL0     C44031   6.495   2.494   8.997  0.9316 -0.3148 -0.3929
  320MOL0     C44032   6.554   2.359   9.012  0.0699  0.1102  0.4525
  320MOL0     C44033   6.599   2.316   9.155 -0.6672  0.5304  0.4085
  320MOL0     C44034   6.626   2.167   9.155 -0.0555 -0.6719  0.5064
  320MOL0     C44035   6.624   2.108   9.295 -0.2933 -0.2009  0.1813
  320MOL0     C44036   6.683   1.963   9.297 -0.9419 -0.2438  0.1947
  320MOL0     C44037   6.586   1.848   9.306  0.3320  0.3421  0.4291
  320MOL0     C44038   6.524   1.824   9.170 -0.1906 -0.6007 -0.2626
  320MOL0     N44039   6.617   1.770   9.074  0.0683 -0.2042 -0.2966
  320MOL0     C44040   6.606   1.813   8.937  0.3823  0.6854 -0.2047
  320MOL0     C44041   6.664   1.706   8.872 -0.6003 -0.6223 -0.0025
  320MOL0     C44042   6.685   1.694   8.721 -0.4548  0.1896  0.3740
  320MOL0     C44043   6.638   1.557   8.669 -0.1699  0.9097 -0.5315
  320MOL0     C44044   6.704   1.542   8.529 -0.1844  0.7662 -0.0659
  320MOL0     C44045   6.737   1.392   8.511 -0.4449 -0.4359 -0.1428
  320MOL0     O44046   6.621   1.313   8.504  0.4126 -0.1375  0.2076
  320MOL0     C44047   6.633   1.182   8.549 -0.1717 -0.3873  0.0798
  320MOL0     C44048   6.740   1.099   8.518  0.5483 -0.0120  0.1608
  320MOL0     C44049   6.737   0.970   8.570  0.3360  0.2842  0.1946
  320MOL0     C44050   6.845   0.883   8.511 -0.1516  0.3163  0.0313
  320MOL0     C44051   6.619   0.927   8.645  0.6297  0.3555  0.1591
  320MOL0     C44052   6.616   0.791   8.701  0.1756  0.2585 -1.1974
  320MOL0     O44053   6.583   0.788   8.831 -0.5466  0.1979 -0.2256
  320MOL0     C44054   6.610   0.673   8.903  0.2667  1.2613  0.7090
  320MOL0     C44055   6.695   0.692   9.007 -0.2793  0.7980  0.5926
  320MOL0     C44056   6.738   0.590   9.096  0.2726 -0.4156 -0.2486
  320MOL0     C44057   6.696   0.465   9.076  0.3525 -0.3093 -0.1548
  320MOL0     O44058   6.726   0.358   9.153 -0.1839 -0.0792  0.6100
  320MOL0     C44059   6.672   0.368   9.282 -0.2985  0.0024  0.1672
  320MOL0     C44060   6.783   0.312   9.375 -0.6896 -0.0393 -0.0097
  320MOL0     C44061   6.728   0.287   9.515  0.3973  0.0522  0.3527
  320MOL0     C44062   6.833   0.257   9.629  0.3980 -0.9594 -0.1299
  320MOL0     C44063   6.767   0.253   9.770  0.1271  0.4844  0.8348
  320MOL0     C44064   6.670   0.357   9.812 -0.2510  0.2392  0.4496
  320MOL0     C44065   6.594   0.331   9.947 -0.4316  0.5403 -0.3170
  320MOL0     C44066   6.547   0.455  10.010  0.2740 -0.3604 -0.5749
  320MOL0    Cl44067   6.523   0.416  10.181  0.0569  0.1641 -0.2769
  320MOL0     C44068   6.615   0.439   8.973  0.6078  0.5280  0.1307
  320MOL0     C44069   6.567   0.542   8.887 -0.5191 -0.1935 -0.4013
  320MOL0     O44070   6.637   0.694   8.634 -0.1598 -0.3441  0.8685
  320MOL0     C44071   6.519   1.020   8.676 -0.0157  0.0260 -1.1841
  320MOL0     C44072   6.531   1.142   8.631 -0.0383  0.9024 -0.0159
  320MOL0     N44073   6.701   1.607   8.962  1.0705 -0.1825 -0.1845
  320MOL0     N44074   6.672   1.647   9.085  0.0985 -0.2170 -0.2310
  320MOL0     C44075   6.265   2.690   9.191  0.4208 -0.0358 -0.7861
  320MOL0     C44076   6.258   2.793   9.290  0.2288 -0.7100 -1.0102
  320MOL0     C44077   6.418   3.128   9.588 -0.2213 -0.7285 -0.7907
  320MOL0     C44078   6.328   3.221   9.528 -0.4690 -0.0112  0.1771
  320MOL0     C44079   6.292   3.347   9.576 -0.4684 -0.0818  0.0322
  320MOL0     C44080   6.344   3.387   9.702 -0.5496  0.4904 -0.2986
  320MOL0     O44081   6.324   3.509   9.765 -0.2022  0.1753  0.6442
  320MOL0     C44082   6.266   3.618   9.682  0.5684  0.8110  0.6340
  320MOL0     C44083   6.368   3.676   9.580  1.4237  0.3784 -0.6716
  320MOL0     C44084   6.320   3.804   9.513 -0.3281 -0.6109  0.5402
  320MOL0     C44085   6.445   3.869   9.432 -0.0646  0.2753  0.0288
  320MOL0     C44086   6.556   3.920   9.511 -0.7292  0.4351 -0.4323
  320MOL0     C44087   6.638   3.955   9.599 -0.0473 -0.5227 -0.4376
  320MOL0     C44088   6.429   3.294   9.764  0.0997 -0.5868 -0.0343
  320MOL0     C44089   6.470   3.171   9.712 -1.2415  0.7121  0.1682
  320MOL0     C44090   6.575   3.085   9.791  0.4383 -0.3518 -1.0586
  320MOL0     H44091   6.564   2.744   9.411  1.3975  0.3827 -2.0619
  320MOL0     H44092   6.572   2.567   9.252  0.2755  0.0453  1.0728
  320MOL0     H44093   6.570   2.572   9.011  1.6598 -0.9435 -0.7364
  320MOL0     H44094   6.466   2.504   8.891  2.8165  0.4009 -0.8760
  320MOL0     H44095   6.493   2.291   8.952  1.3382 -0.8276  0.1897
  320MOL0     H44096   6.647   2.368   8.954  0.2064  0.5748  0.7383
  320MOL0     H44097   6.684   2.368   9.200 -2.3979  1.3567  2.9749
  320MOL0     H44098   6.518   2.330   9.227 -2.0392 -1.2654 -0.6969
  320MOL0     H44099   6.544   2.113   9.106  1.7997 -2.5753 -0.6863
  320MOL0     H44100   6.717   2.155   9.096  0.5692  0.9344  1.0778
  320MOL0     H44101   6.522   2.111   9.335 -1.2605 -1.6449 -1.9424
  320MOL0     H44102   6.692   2.159   9.364 -0.6935  1.9898 -0.9634
  320MOL0     H44103   6.748   1.953   9.209  1.2494  1.3502  1.5062
  320MOL0     H44104   6.751   1.964   9.383  0.2211  0.0196 -0.6899
  320MOL0     H44105   6.502   1.885   9.366 -0.2138  0.6352 -0.4977
  320MOL0     H44106   6.641   1.761   9.344 -0.0106 -0.6324 -1.2207
  320MOL0     H44107   6.436   1.759   9.175 -1.9507  1.6890  0.2273
  320MOL0     H44108   6.481   1.918   9.136  1.8961  0.0284 -1.3500
  320MOL0     H44109   6.565   1.909   8.905  0.0406  1.4910  2.4104
  320MOL0     H44110   6.792   1.701   8.699 -0.8278  2.1536 -1.0182
  320MOL0     H44111   6.639   1.779   8.671  0.5962 -0.3133 -1.5644
  320MOL0     H44112   6.687   1.489   8.738 -1.0896  0.6495 -0.1168
  320MOL0     H44113   6.529   1.551   8.662 -0.5899  4.0999  1.2514
  320MOL0     H44114   6.640   1.564   8.443 -0.2653 -0.6906 -0.4039
  320MOL0     H44115   6.800   1.595   8.523  1.3367 -1.2233  3.5997
  320MOL0     H44116   6.788   1.381   8.415 -1.4432 -1.4079 -0.5894
  320MOL0     H44117   6.804   1.355   8.589  0.6559 -4.8738 -2.8487
  320MOL0     H44118   6.811   1.141   8.448 -0.0837  2.5283  0.9528
  320MOL0     H44119   6.814   0.786   8.470 -0.0247 -0.8808  2.5849
  320MOL0     H44120   6.908   0.860   8.598  0.0069 -1.2292 -0.4670
  320MOL0     H44121   6.907   0.920   8.429  0.9732 -1.2384  0.1327
  320MOL0     H44122   6.716   0.796   9.030 -3.1910  2.3840 -3.0012
  320MOL0     H44123   6.800   0.601   9.185 -2.1164 -1.8400  1.6879
  320MOL0     H44124   6.648   0.469   9.316 -0.6081  0.5001 -1.4534
  320MOL0     H44125   6.584   0.305   9.296  0.5532 -0.6211  3.7583
  320MOL0     H44126   6.822   0.218   9.336  1.4811 -0.4088  2.7147
  320MOL0     H44127   6.860   0.390   9.379  1.5308 -2.1097  0.4224
  320MOL0     H44128   6.656   0.204   9.511  0.5194 -0.1810  2.1246
  320MOL0     H44129   6.686   0.387   9.529  1.8032  0.7130  0.0211
  320MOL0     H44130   6.898   0.345   9.624  0.3667 -0.9459 -0.3380
  320MOL0     H44131   6.890   0.166   9.613  1.6213 -0.4780  1.3468
  320MOL0     H44132   6.706   0.163   9.765 -0.3284  0.7656  1.2260
  320MOL0     H44133   6.835   0.240   9.855  0.4472  0.6582  0.6105
  320MOL0     H44134   6.588   0.365   9.741 -0.2244  0.1774  0.4126
  320MOL0     H44135   6.728   0.450   9.816  0.2187  0.0034 -0.5588
  320MOL0     H44136   6.677   0.290  10.006  0.6192  1.7936 -0.8733
  320MOL0     H44137   6.518   0.256   9.923 -0.4634  0.7303 -0.8020
  320MOL0     H44138   6.447   0.486   9.979 -0.7550 -2.4948  0.3732
  320MOL0     H44139   6.623   0.532   9.996  1.8731 -2.1208 -2.0985
  320MOL0     H44140   6.588   0.335   8.958  0.0630  0.6102  0.5089
  320MOL0     H44141   6.489   0.532   8.812 -2.5166  1.2339  1.3767
  320MOL0     H44142   6.426   0.999   8.728 -0.7483  4.2710 -0.4057
  320MOL0     H44143   6.440   1.203   8.629  1.0665  2.7107  1.3055
  320MOL0     H44144   6.176   2.673   9.131 -2.0274  0.2062  2.5081
  320MOL0     H44145   6.170   2.857   9.296  0.4524 -0.3587 -1.3441
  320MOL0     H44146   6.286   3.192   9.432  1.9217 -1.5297 -0.4852
  320MOL0     H44147   6.223   3.401   9.511  0.2317  0.7555 -0.0234
  320MOL0     H44148   6.179   3.570   9.636  1.3508  0.0899 -0.1296
  320MOL0     H44149   6.220   3.684   9.756 -1.7827 -2.1914  2.0906
  320MOL0     H44150   6.384   3.597   9.505 -1.7943  1.2933 -2.4978
  320MOL0     H44151   6.462   3.697   9.631  0.1621  0.1206  1.8819
  320MOL0     H44152   6.245   3.777   9.439  2.0518  2.2559 -3.2853
  320MOL0     H44153   6.267   3.880   9.572  0.0382  1.0576 -1.1907
  320MOL0     H44154   6.402   3.957   9.382 -1.7741  0.6479  2.0083
  320MOL0     H44155   6.476   3.795   9.358 -1.1941  1.1020 -1.3373
  320MOL0     H44156   6.700   3.998   9.675  0.0420  0.6434 -1.1443
  320MOL0     H44157   6.451   3.335   9.862 -0.7280  1.9947 -0.8560
  320MOL0     H44158   6.536   2.983   9.796  1.1068 -0.5598  0.7374
  320MOL0     H44159   6.670   3.081   9.738  1.3919 -3.7485  0.6595
  320MOL0     H44160   6.599   3.110   9.895  1.7690  1.1949 -1.7027
  321MOL0     O44161   0.296   7.622   4.449 -0.4681  0.7688 -0.4112
  321MOL0     C44162   0.322   7.666   4.560  0.0412  0.1518 -1.6405
  321MOL0     O44163   0.371   7.795   4.584  0.4743 -0.0186  0.2048
  321MOL0     C44164   0.372   7.884   4.480 -0.5996 -0.6760 -0.0521
  321MOL0     C44165   0.493   7.957   4.481 -0.0736  1.0581 -0.7972
  321MOL0     C44166   0.533   8.033   4.373  0.1747 -0.8989 -0.6118
  321MOL0     C44167   0.437   8.055   4.269 -0.4017  0.2354  1.7589
  321MOL0     O44168   0.471   8.142   4.167  0.4950 -0.4392 -0.1801
  321MOL0     C44169   0.425   8.120   4.029 -0.7753 -0.1734  0.3566
  321MOL0     C44170   0.464   8.238   3.944  0.4954 -0.3187 -0.3785
  321MOL0     C44171   0.425   8.228   3.798  0.1373 -0.1472  0.0883
  321MOL0     C44172   0.514   8.311   3.699  0.2665  0.4415  0.0745
  321MOL0     C44173   0.454   8.442   3.660  0.0770  0.8194 -0.1467
  321MOL0     C44174   0.526   8.509   3.540 -0.1800 -0.3432 -0.5148
  321MOL0     C44175   0.474   8.660   3.530 -0.2750 -0.6846  0.9757
  321MOL0     C44176   0.537   8.721   3.409 -0.8710 -0.3834  0.5036
  321MOL0     N44177   0.688   8.749   3.427  0.1800  0.6468  0.2611
  321MOL0     C44178   0.752   8.787   3.539  0.8507 -0.6994 -0.5144
  321MOL0     C44179   0.870   8.832   3.496  0.7215  1.0252 -0.3163
  321MOL0     C44180   0.978   8.892   3.583 -0.2493  1.4217 -1.0230
  321MOL0     C44181   1.080   8.801   3.653  0.2453  0.3008 -0.2169
  321MOL0     C44182   1.137   8.700   3.558 -0.4239 -0.6414 -0.3222
  321MOL0     C44183   1.227   8.767   3.458  0.1155 -0.2918 -0.1208
  321MOL0     O44184   1.343   8.804   3.524 -0.1261  0.4894  0.7010
  321MOL0     C44185   1.458   8.849   3.464  0.0284 -0.2925  0.9103
  321MOL0     C44186   1.536   8.936   3.541  0.3112  1.2377  0.2868
  321MOL0     C44187   1.627   9.027   3.485  0.7566  0.3266  0.2724
  321MOL0     C44188   1.700   9.118   3.571  0.0729 -0.3721 -0.2063
  321MOL0     C44189   1.644   9.024   3.340  0.2161 -0.6294  0.0181
  321MOL0     C44190   1.746   9.096   3.257  0.7640  0.1589  0.3431
  321MOL0     O44191   1.742   9.087   3.122  0.1794  0.2693  0.0052
  321MOL0     C44192   1.790   9.194   3.050 -0.8463  1.1101  0.5707
  321MOL0     C44193   1.728   9.312   3.062 -0.1249 -0.0451 -0.7757
  321MOL0     C44194   1.767   9.423   2.997 -0.4098 -0.6250 -0.0437
  321MOL0     C44195   1.883   9.420   2.912  0.7883  0.3580 -0.1479
  321MOL0     O44196   1.908   9.542   2.854 -0.5343 -0.8590  0.8865
  321MOL0     C44197   2.049   9.586   2.827  0.2576  0.0730 -0.4080
  321MOL0     C44198   2.076   9.599   2.676 -0.3260 -0.0695 -0.3578
  321MOL0     C44199   2.086   9.457   2.614 -0.1852  0.0528 -0.4369
  321MOL0     C44200   2.187   9.466   2.492  0.4023  0.1216 -0.5732
  321MOL0     C44201   2.207   9.324   2.427 -0.1775 -0.8050  0.6035
  321MOL0     C44202   2.087   9.306   2.327 -0.8947 -0.0880  0.7366
  321MOL0     C44203   2.103   9.386   2.199 -0.0087 -0.0250  0.1444
  321MOL0     C44204   1.971   9.384   2.111 -0.5704 -0.1825  0.2079
  321MOL0    Cl44205   1.916   9.222   2.104 -0.1301 -0.5315 -0.0383
  321MOL0     C44206   1.948   9.301   2.897  0.2770  0.5405 -0.1407
  321MOL0     C44207   1.901   9.184   2.963 -0.4484  0.5532  1.9343
  321MOL0     O44208   1.826   9.173   3.312  0.1975  0.2824 -0.6322
  321MOL0     C44209   1.564   8.934   3.268 -0.5085 -0.4868 -0.0581
  321MOL0     C44210   1.475   8.847   3.328 -0.0900  0.9537  0.8644
  321MOL0     N44211   0.882   8.802   3.363 -0.2396  0.2697 -0.4561
  321MOL0     N44212   0.770   8.754   3.322 -0.2010  0.3377  0.0659
  321MOL0     C44213   0.313   7.989   4.278 -0.7812  0.0891  0.4934
  321MOL0     C44214   0.287   7.907   4.378  0.7716 -0.1028 -1.2297
  321MOL0     C44215   0.315   7.569   4.669  0.7790 -0.6366 -0.5872
  321MOL0     C44216   0.264   7.439   4.654  0.3553 -0.2905 -0.3594
  321MOL0     C44217   0.270   7.340   4.747 -0.1713 -0.0127 -0.1194
  321MOL0     C44218   0.338   7.369   4.867 -0.5915  0.1258 -0.8585
  321MOL0     O44219   0.361   7.275   4.961  0.0673 -0.0553 -0.7766
  321MOL0     C44220   0.287   7.157   4.971  1.2413  0.1566 -0.3257
  321MOL0     C44221   0.328   7.048   4.861 -1.0587  0.0321 -0.0350
  321MOL0     C44222   0.416   6.936   4.929 -0.5242  1.0222 -0.0018
  321MOL0     C44223   0.499   6.862   4.824 -0.4964 -0.2053  0.0213
  321MOL0     C44224   0.595   6.781   4.897 -0.0225  0.0569 -0.0299
  321MOL0     C44225   0.677   6.716   4.952 -0.0762  0.2328 -0.4073
  321MOL0     C44226   0.375   7.501   4.898  0.5976 -0.6983 -0.7092
  321MOL0     C44227   0.364   7.600   4.802  0.6673  0.0505  0.5848
  321MOL0     C44228   0.419   7.736   4.856 -0.0178 -0.3900  0.0050
  321MOL0     H44229   0.561   7.967   4.565 -0.2313  1.7145 -0.7412
  321MOL0     H44230   0.630   8.081   4.363 -0.7597  0.9194 -1.3740
  321MOL0     H44231   0.317   8.117   4.011 -0.7561 -3.1616  0.1664
  321MOL0     H44232   0.462   8.026   3.987  0.3156  1.0453 -1.5168
  321MOL0     H44233   0.431   8.335   3.982  1.0754  0.8897 -2.7602
  321MOL0     H44234   0.572   8.236   3.960  0.2733 -2.8444  1.4186
  321MOL0     H44235   0.440   8.124   3.766 -3.2830 -0.5750 -0.4900
  321MOL0     H44236   0.320   8.255   3.782  0.6502  1.8446 -0.1942
  321MOL0     H44237   0.608   8.313   3.756  0.0865 -3.9982  0.8661
  321MOL0     H44238   0.528   8.260   3.604 -1.0854  0.9602 -0.4297
  321MOL0     H44239   0.454   8.506   3.748  1.3526 -0.7248  1.0261
  321MOL0     H44240   0.358   8.416   3.616  1.0021  0.9677 -2.4087
  321MOL0     H44241   0.632   8.511   3.568 -0.2087 -0.8879 -0.3588
  321MOL0     H44242   0.515   8.453   3.447  1.2093  1.0657 -1.5779
  321MOL0     H44243   0.496   8.714   3.623 -2.1064  0.7639  0.6259
  321MOL0     H44244   0.367   8.641   3.515  0.3130 -2.4619 -1.5553
  321MOL0     H44245   0.494   8.655   3.333 -3.0472  0.1972  1.1312
  321MOL0     H44246   0.502   8.825   3.400  2.6890  0.9527  0.6165
  321MOL0     H44247   0.701   8.792   3.635  1.8693  1.9899 -0.0287
  321MOL0     H44248   0.929   8.942   3.668  1.5705  0.0071  0.9708
  321MOL0     H44249   1.043   8.961   3.530  2.0154  0.4567  0.3518
  321MOL0     H44250   1.165   8.858   3.691 -0.0990  1.9095 -1.6887
  321MOL0     H44251   1.037   8.755   3.742 -0.1979  2.7790  0.9208
  321MOL0     H44252   1.188   8.617   3.606 -0.2032 -2.3832 -3.3110
  321MOL0     H44253   1.055   8.653   3.502 -0.4728 -2.7494  1.4267
  321MOL0     H44254   1.245   8.692   3.380 -3.2587 -0.9753 -0.3892
  321MOL0     H44255   1.171   8.849   3.413 -1.3887 -0.9353  0.5115
  321MOL0     H44256   1.513   8.934   3.647 -3.4799 -1.2575 -0.4065
  321MOL0     H44257   1.706   9.218   3.528 -0.0652 -0.5867 -0.7336
  321MOL0     H44258   1.805   9.098   3.591  0.2901  0.6352 -0.3048
  321MOL0     H44259   1.657   9.112   3.672  1.1381  1.5889  0.4036
  321MOL0     H44260   1.644   9.335   3.127 -0.5736 -1.7488 -0.6905
  321MOL0     H44261   1.707   9.513   3.006  1.4686  0.4905  3.3662
  321MOL0     H44262   2.044   9.684   2.875 -1.0672 -0.3736  0.4308
  321MOL0     H44263   2.123   9.523   2.877 -1.5645 -1.8201  0.0528
  321MOL0     H44264   1.995   9.646   2.619 -1.0694 -2.7840 -1.7338
  321MOL0     H44265   2.174   9.643   2.658 -0.5992  0.9422  0.5570
  321MOL0     H44266   1.983   9.427   2.590 -0.3254 -1.0693  1.3748
  321MOL0     H44267   2.122   9.386   2.689 -1.5842  2.2484  2.5733
  321MOL0     H44268   2.283   9.496   2.534  0.6419  0.5736 -1.4385
  321MOL0     H44269   2.155   9.541   2.419 -4.6647  0.2697  1.3612
  321MOL0     H44270   2.301   9.332   2.372  0.0258 -1.6431  0.8137
  321MOL0     H44271   2.213   9.232   2.485 -1.5918 -2.5664 -1.8528
  321MOL0     H44272   1.988   9.325   2.370 -1.7541  0.1787 -1.2672
  321MOL0     H44273   2.095   9.199   2.307  1.7005  0.3173 -0.8747
  321MOL0     H44274   2.190   9.355   2.141  0.4818  4.1475 -1.7465
  321MOL0     H44275   2.129   9.491   2.215  1.9860 -0.0891 -2.1106
  321MOL0     H44276   1.985   9.425   2.011  1.0404  1.0814  0.9088
  321MOL0     H44277   1.902   9.451   2.163  2.1226  2.7657  0.3104
  321MOL0     H44278   2.024   9.288   2.821  0.3135 -0.1512  0.0040
  321MOL0     H44279   1.955   9.090   2.963 -4.0478 -1.7108  1.2060
  321MOL0     H44280   1.559   8.940   3.160  0.2217 -0.8478 -0.1122
  321MOL0     H44281   1.424   8.787   3.254  1.0638  1.6568 -0.5354
  321MOL0     H44282   0.237   8.005   4.203  0.5787  1.4083 -0.6471
  321MOL0     H44283   0.192   7.853   4.379  1.8909 -2.3763  1.8627
  321MOL0     H44284   0.193   7.418   4.574  1.0406 -1.7625 -0.6147
  321MOL0     H44285   0.226   7.243   4.722 -0.1563  0.4752 -2.2098
  321MOL0     H44286   0.286   7.115   5.072 -0.2803  2.1619  0.5723
  321MOL0     H44287   0.183   7.180   4.944  0.2977 -1.1440  1.9535
  321MOL0     H44288   0.397   7.079   4.782  0.3143  1.2311  1.5653
  321MOL0     H44289   0.244   6.995   4.815 -0.5311  0.0854 -1.0838
  321MOL0     H44290   0.485   6.980   5.001 -0.7976 -0.2510  1.0836
  321MOL0     H44291   0.353   6.876   4.996 -1.7155  2.9061  0.6286
  321MOL0     H44292   0.552   6.934   4.760  1.1064 -0.4561  1.0374
  321MOL0     H44293   0.449   6.791   4.758  0.9572 -2.3338  1.1236
  321MOL0     H44294   0.745   6.642   4.989  0.4042  2.4685  3.8301
  321MOL0     H44295   0.408   7.528   4.998 -0.8359  2.2547 -0.9149
  321MOL0     H44296   0.364   7.821   4.813 -2.1322 -0.3847  2.4524
  321MOL0     H44297   0.401   7.751   4.963 -0.3562  2.4708 -0.3483
  321MOL0     H44298   0.525   7.756   4.838  0.2492 -1.1377  0.7540
  322MOL0     O44299   4.654   0.151   6.441 -0.1237 -0.3635 -0.3531
  322MOL0     C44300   4.586   0.076   6.507 -0.4206  0.7913  0.1449
  322MOL0     O44301   4.619  -0.052   6.538  0.5776  0.4465 -0.0493
  322MOL0     C44302   4.746  -0.094   6.493 -0.5721  0.2610  0.9792
  322MOL0     C44303   4.742  -0.161   6.368  0.5894  0.3656  0.2696
  322MOL0     C44304   4.853  -0.203   6.298 -0.2319 -0.4004  0.0027
  322MOL0     C44305   4.966  -0.214   6.374 -0.0556 -0.7334 -1.2543
  322MOL0     O44306   5.064  -0.290   6.315  0.7560  0.6823 -0.6672
  322MOL0     C44307   5.195  -0.288   6.378 -0.7729  0.2063 -0.7707
  322MOL0     C44308   5.295  -0.372   6.300  0.0181  0.1342  0.2833
  322MOL0     C44309   5.256  -0.524   6.292 -0.5332 -0.6337  0.7034
  322MOL0     C44310   5.368  -0.622   6.246  0.7456  0.4822  0.7953
  322MOL0     C44311   5.314  -0.764   6.228  0.2095  0.1054  0.4022
  322MOL0     C44312   5.429  -0.868   6.202 -0.3766 -0.9750  0.7326
  322MOL0     C44313   5.387  -1.005   6.170  0.0174 -0.2688  0.0969
  322MOL0     C44314   5.524  -1.097   6.166 -0.4175 -0.3038  0.6447
  322MOL0     N44315   5.581  -1.124   6.302 -0.5389 -0.8655  0.2308
  322MOL0     C44316   5.523  -1.206   6.405  0.0496 -0.2117  0.6152
  322MOL0     C44317   5.610  -1.216   6.502 -0.1767 -0.5803 -0.1115
  322MOL0     C44318   5.597  -1.296   6.628 -0.0094 -0.1338  0.2839
  322MOL0     C44319   5.673  -1.430   6.645 -0.7559 -0.2271  0.4214
  322MOL0     C44320   5.688  -1.475   6.789  0.3752  0.3503  0.3072
  322MOL0     C44321   5.561  -1.484   6.862  0.2143  0.1839 -1.0995
  322MOL0     O44322   5.469  -1.578   6.802 -0.3320  0.5255  0.1243
  322MOL0     C44323   5.357  -1.601   6.871 -0.9444 -0.0737  0.0516
  322MOL0     C44324   5.324  -1.557   6.999 -0.2583  0.4544  0.0743
  322MOL0     C44325   5.210  -1.592   7.064  0.5347  0.0467  0.0699
  322MOL0     C44326   5.187  -1.533   7.202 -0.3048  0.6912 -1.1580
  322MOL0     C44327   5.117  -1.678   6.998  0.6318 -0.7640  0.1945
  322MOL0     C44328   4.993  -1.735   7.054  0.7050 -0.7846 -0.1609
  322MOL0     O44329   4.951  -1.857   7.015 -0.5445 -0.6788  0.9529
  322MOL0     C44330   4.822  -1.907   7.039 -0.7412 -0.7469 -0.5291
  322MOL0     C44331   4.709  -1.829   7.080  0.1348 -0.1837  0.0866
  322MOL0     C44332   4.582  -1.889   7.070  0.0758  0.1044 -0.0111
  322MOL0     C44333   4.566  -2.022   7.032 -0.0989 -0.7221 -0.0069
  322MOL0     O44334   4.433  -2.068   7.018 -0.0394  0.4309  0.8494
  322MOL0     C44335   4.421  -2.208   6.970  0.0113 -0.4563 -0.4529
  322MOL0     C44336   4.270  -2.233   6.953 -0.3668  0.4601  0.0808
  322MOL0     C44337   4.244  -2.382   6.938 -0.1858 -0.5900 -0.3522
  322MOL0     C44338   4.089  -2.406   6.937  0.6871 -0.5245  0.2350
  322MOL0     C44339   4.040  -2.553   6.921  0.5480 -0.8923 -0.1042
  322MOL0     C44340   3.891  -2.566   6.942  0.2121 -0.1067 -1.1616
  322MOL0     C44341   3.837  -2.693   6.883 -0.4216  0.0198 -0.3058
  322MOL0     C44342   3.690  -2.716   6.928 -0.1525 -0.1150 -0.5701
  322MOL0    Cl44343   3.623  -2.862   6.842 -0.2404 -0.4135 -0.5215
  322MOL0     C44344   4.680  -2.104   6.997 -1.0579  0.2488 -0.2201
  322MOL0     C44345   4.810  -2.042   7.000  0.1958  0.5062  0.6055
  322MOL0     O44346   4.942  -1.672   7.148  0.2109 -0.2625  0.4293
  322MOL0     C44347   5.151  -1.724   6.866  0.7064  0.1662 -0.5732
  322MOL0     C44348   5.275  -1.692   6.804  0.3552 -0.2199 -0.7667
  322MOL0     N44349   5.721  -1.150   6.463  0.5250 -0.2550  0.5509
  322MOL0     N44350   5.702  -1.084   6.355 -0.1322 -0.6062  0.9624
  322MOL0     C44351   4.968  -0.158   6.508 -0.4061 -0.7678  0.3739
  322MOL0     C44352   4.858  -0.099   6.568  1.2962  0.2294 -0.4059
  322MOL0     C44353   4.450   0.114   6.550  0.9900 -0.0599  0.0484
  322MOL0     C44354   4.399   0.083   6.677  0.3519  0.4495 -0.3868
  322MOL0     C44355   4.266   0.110   6.713  0.4374  0.5380 -0.7169
  322MOL0     C44356   4.175   0.166   6.626  0.2778 -0.3390 -0.6461
  322MOL0     O44357   4.049   0.202   6.679 -0.2246 -0.3011 -0.8831
  322MOL0     C44358   3.957   0.273   6.604 -0.6871 -0.1332 -0.1737
  322MOL0     C44359   3.897   0.378   6.698  0.7818  0.3396 -0.1039
  322MOL0     C44360   3.818   0.299   6.800  2.1776  0.7731 -0.0967
  322MOL0     C44361   3.748   0.398   6.888  0.5702 -0.3604 -0.5396
  322MOL0     C44362   3.709   0.332   7.010 -0.8956 -0.0265 -0.0154
  322MOL0     C44363   3.676   0.275   7.111 -0.1290 -0.0547  0.3015
  322MOL0     C44364   4.225   0.200   6.503 -0.1527  0.3560  0.6027
  322MOL0     C44365   4.358   0.173   6.459  0.1700 -0.3424 -0.6553
  322MOL0     C44366   4.385   0.225   6.329 -0.0819  0.0750  1.1998
  322MOL0     H44367   4.647  -0.169   6.317  0.2289 -1.2406  1.1338
  322MOL0     H44368   4.842  -0.231   6.194  3.9654 -1.8854 -0.2574
  322MOL0     H44369   5.179  -0.328   6.479 -1.1380 -0.4965 -1.0961
  322MOL0     H44370   5.236  -0.187   6.389 -1.9246  0.7255 -1.0624
  322MOL0     H44371   5.333  -0.330   6.206  1.0260  1.8192  1.4062
  322MOL0     H44372   5.387  -0.369   6.360  0.0829 -1.6030  0.3339
  322MOL0     H44373   5.216  -0.566   6.385 -3.5409 -2.1649 -1.1119
  322MOL0     H44374   5.173  -0.509   6.223 -0.6970  3.0357  1.4900
  322MOL0     H44375   5.409  -0.570   6.160  0.1394  2.3519  1.5944
  322MOL0     H44376   5.450  -0.627   6.319  0.6012 -0.4429  0.9066
  322MOL0     H44377   5.239  -0.773   6.148  0.0850 -2.9096  0.7635
  322MOL0     H44378   5.258  -0.790   6.318 -1.5809  1.5963 -0.2049
  322MOL0     H44379   5.482  -0.830   6.115 -0.4853 -0.2236  0.9825
  322MOL0     H44380   5.490  -0.870   6.293  1.1933 -1.2043 -0.2906
  322MOL0     H44381   5.336  -1.002   6.074 -0.2693 -2.1405  0.1529
  322MOL0     H44382   5.318  -1.050   6.242 -0.9679 -0.7947 -1.1519
  322MOL0     H44383   5.506  -1.192   6.115  3.2496 -0.3255 -0.9056
  322MOL0     H44384   5.586  -1.035   6.101 -1.0896  0.5273  0.7710
  322MOL0     H44385   5.425  -1.251   6.395 -1.1651  2.6655 -1.8625
  322MOL0     H44386   5.491  -1.296   6.654  0.1465  1.6174  1.0987
  322MOL0     H44387   5.645  -1.223   6.693  0.0127 -0.2876  0.4393
  322MOL0     H44388   5.624  -1.511   6.591 -0.8703 -0.3561  0.7175
  322MOL0     H44389   5.773  -1.415   6.602 -1.6822 -1.2366 -2.2470
  322MOL0     H44390   5.747  -1.566   6.791  0.1793  0.1666 -1.3910
  322MOL0     H44391   5.736  -1.390   6.839  0.2698 -0.0696  1.1372
  322MOL0     H44392   5.588  -1.518   6.963 -1.0011  2.4011  0.0440
  322MOL0     H44393   5.529  -1.380   6.876  3.2915  1.1644 -0.5099
  322MOL0     H44394   5.385  -1.487   7.057 -0.2472  0.6036 -0.1192
  322MOL0     H44395   5.102  -1.466   7.210 -0.4461  0.7650 -2.8794
  322MOL0     H44396   5.280  -1.482   7.229  1.3583 -2.6977  0.1633
  322MOL0     H44397   5.187  -1.606   7.284 -0.9278  2.4404  0.4809
  322MOL0     H44398   4.727  -1.725   7.105  3.1560 -0.1078 -1.9094
  322MOL0     H44399   4.498  -1.820   7.076  1.4910  1.8683  0.3442
  322MOL0     H44400   4.484  -2.246   6.889  0.0578 -2.5741  0.5060
  322MOL0     H44401   4.447  -2.286   7.042  1.0825 -0.4857 -0.8506
  322MOL0     H44402   4.213  -2.194   7.038 -2.1806 -2.4201  0.2866
  322MOL0     H44403   4.236  -2.182   6.862 -0.5998  0.9305  0.4297
  322MOL0     H44404   4.287  -2.434   7.023 -0.6732 -0.5953 -0.1088
  322MOL0     H44405   4.285  -2.420   6.844  0.0099  2.5891 -1.7119
  322MOL0     H44406   4.048  -2.351   6.852 -1.3906  0.7901  1.9911
  322MOL0     H44407   4.045  -2.355   7.023  2.8777  1.4542  0.3101
  322MOL0     H44408   4.067  -2.595   6.824  1.8125  1.2018 -0.7260
  322MOL0     H44409   4.091  -2.615   6.996  0.4331 -0.1425  0.6143
  322MOL0     H44410   3.829  -2.478   6.923 -0.5397 -0.4915 -0.5904
  322MOL0     H44411   3.870  -2.573   7.050  1.1658 -1.2377 -1.0297
  322MOL0     H44412   3.889  -2.782   6.918 -0.5563 -0.2244 -0.7117
  322MOL0     H44413   3.848  -2.683   6.775 -0.3942  1.6806 -0.1672
  322MOL0     H44414   3.636  -2.626   6.898  0.7562 -0.4588 -3.5198
  322MOL0     H44415   3.690  -2.716   7.038  0.6038 -2.1907 -0.5268
  322MOL0     H44416   4.678  -2.211   6.981 -2.0742  0.3351 -0.7735
  322MOL0     H44417   4.896  -2.109   7.000  2.6972  3.5251 -0.1661
  322MOL0     H44418   5.074  -1.786   6.822 -1.1484 -0.5585  3.2536
  322MOL0     H44419   5.298  -1.729   6.705  0.9206  0.1113 -0.7668
  322MOL0     H44420   5.060  -0.180   6.560 -1.4694 -2.7902  1.4919
  322MOL0     H44421   4.871  -0.065   6.670  2.1466 -0.9267 -0.1115
  322MOL0     H44422   4.468   0.048   6.753  0.1158 -0.6934 -0.6826
  322MOL0     H44423   4.237   0.103   6.817  0.0626  2.9910 -0.6107
  322MOL0     H44424   3.988   0.331   6.517  0.2403 -1.0262 -0.4602
  322MOL0     H44425   3.881   0.203   6.569  0.4023 -0.0552 -2.9227
  322MOL0     H44426   3.820   0.436   6.646 -0.8500 -2.2473 -0.7491
  322MOL0     H44427   3.977   0.437   6.743  0.2684 -0.8825  2.5835
  322MOL0     H44428   3.739   0.235   6.761  0.2613 -0.4620  5.0640
  322MOL0     H44429   3.882   0.233   6.860 -0.0844 -1.7793 -0.3251
  322MOL0     H44430   3.651   0.426   6.843  1.0407  0.6202 -0.9806
  322MOL0     H44431   3.801   0.492   6.904 -3.5716  2.0280  0.8011
  322MOL0     H44432   3.646   0.236   7.206 -0.4363  0.4929  0.4327
  322MOL0     H44433   4.165   0.263   6.438  0.4988  0.4796  0.1119
  322MOL0     H44434   4.403   0.150   6.251 -3.5231  0.2618  0.0576
  322MOL0     H44435   4.301   0.283   6.289 -1.5746 -3.6044 -1.6730
  322MOL0     H44436   4.471   0.294   6.330 -0.4198  0.5501 -0.1490
  323MOL0     O44437   8.832   0.548   3.475 -0.4471  0.5447 -0.2886
  323MOL0     C44438   8.737   0.623   3.505 -0.9832 -0.0387 -0.8287
  323MOL0     O44439   8.726   0.688   3.622  0.7197  0.7023  0.7805
  323MOL0     C44440   8.839   0.725   3.694  0.6949 -0.5120  0.2850
  323MOL0     C44441   8.974   0.707   3.666 -0.4925  0.8655  0.0540
  323MOL0     C44442   9.075   0.762   3.749 -0.4732 -0.0611 -0.3685
  323MOL0     C44443   9.044   0.832   3.874  0.4227 -1.0735  0.4742
  323MOL0     O44444   9.141   0.879   3.965  0.0219  0.1594  0.1203
  323MOL0     C44445   9.266   0.814   3.960  0.6164 -0.0165  0.2832
  323MOL0     C44446   9.355   0.834   4.087 -0.0457 -0.3972  0.7010
  323MOL0     C44447   9.405   0.981   4.106  0.6228  0.3065 -1.3146
  323MOL0     C44448   9.443   1.014   4.253  0.5407  0.0926  0.0266
  323MOL0     C44449   9.540   1.126   4.249 -1.4540 -0.3659 -0.6433
  323MOL0     C44450   9.472   1.250   4.192  0.0569 -0.3851 -0.1008
  323MOL0     C44451   9.565   1.375   4.219  0.7851  0.6542  0.3049
  323MOL0     C44452   9.697   1.374   4.138 -0.3347  0.4411 -0.1061
  323MOL0     N44453   9.706   1.334   3.992  0.1399  0.0575  0.3471
  323MOL0     C44454   9.740   1.420   3.889  0.3093  0.2325  0.1909
  323MOL0     C44455   9.723   1.348   3.776  0.0859 -0.5371  0.3808
  323MOL0     C44456   9.742   1.398   3.631  0.0026  0.7105 -0.5969
  323MOL0     C44457   9.770   1.291   3.526 -0.3641  0.1016  0.3902
  323MOL0     C44458   9.731   1.343   3.391 -0.3981  0.4731  0.4464
  323MOL0     C44459   9.780   1.228   3.293 -0.2541 -0.6524  0.4265
  323MOL0     O44460   9.922   1.257   3.263 -0.0263  0.1076  0.0322
  323MOL0     C44461   9.994   1.144   3.246  0.0505  1.1073 -0.4625
  323MOL0     C44462   9.975   1.057   3.140  0.3633 -0.1855 -0.6235
  323MOL0     C44463  10.038   0.934   3.125  0.0336 -0.3774 -0.4837
  323MOL0     C44464  10.007   0.850   3.006 -0.2094 -0.1471  0.3566
  323MOL0     C44465  10.131   0.893   3.227 -0.6374 -0.8840  0.5472
  323MOL0     C44466  10.199   0.762   3.218 -0.6293 -0.1394 -1.0778
  323MOL0     O44467  10.204   0.686   3.331  0.0693 -0.0019 -1.0387
  323MOL0     C44468  10.292   0.579   3.361 -0.8454 -0.0679 -0.3441
  323MOL0     C44469  10.399   0.539   3.275  0.1570  0.6423 -0.4255
  323MOL0     C44470  10.478   0.418   3.301  1.3595 -0.1174  0.0564
  323MOL0     C44471  10.466   0.354   3.426 -0.2523 -0.2266 -0.0359
  323MOL0     O44472  10.533   0.241   3.459 -0.0213  0.3405  1.0237
  323MOL0     C44473  10.628   0.248   3.557  0.4137 -0.4427 -0.7002
  323MOL0     C44474  10.578   0.156   3.661 -0.3095 -0.5669  0.6745
  323MOL0     C44475  10.596   0.016   3.626 -0.0589 -0.2961  0.5145
  323MOL0     C44476  10.746  -0.032   3.657  0.5062 -0.7443  0.0140
  323MOL0     C44477  10.797  -0.123   3.546  0.6814 -0.6368 -1.0466
  323MOL0     C44478  10.723  -0.259   3.538 -0.3467  0.4514 -0.1203
  323MOL0     C44479  10.763  -0.353   3.419  0.7802  0.4874 -0.0376
  323MOL0     C44480  10.888  -0.438   3.436  0.5783 -0.4304 -0.4830
  323MOL0    Cl44481  10.856  -0.579   3.336  0.2125 -0.1604 -0.2995
  323MOL0     C44482  10.375   0.408   3.522  0.4265  0.7195  0.2527
  323MOL0     C44483  10.277   0.506   3.481 -0.1146  0.3645  0.4196
  323MOL0     O44484  10.242   0.731   3.107  0.1622  1.1067 -0.0960
  323MOL0     C44485  10.141   0.972   3.342 -0.2671  0.4839  0.7000
  323MOL0     C44486  10.072   1.096   3.355 -0.5873  0.0223  0.6836
  323MOL0     N44487   9.689   1.216   3.814 -0.1924 -0.1471  0.1986
  323MOL0     N44488   9.685   1.212   3.942  0.7112  0.3599  0.6361
  323MOL0     C44489   8.908   0.828   3.906 -0.0029  0.6688  0.0023
  323MOL0     C44490   8.803   0.778   3.822 -1.0575 -0.4271 -0.1934
  323MOL0     C44491   8.628   0.625   3.403 -0.8352 -0.3119 -0.0536
  323MOL0     C44492   8.658   0.602   3.269  0.5861  0.1264 -0.0005
  323MOL0     C44493   8.562   0.596   3.166 -0.1033 -0.4532  0.2366
  323MOL0     C44494   8.425   0.627   3.191 -0.1235 -0.1604 -0.1333
  323MOL0     O44495   8.326   0.648   3.102 -0.1831  0.2524 -0.2250
  323MOL0     C44496   8.355   0.611   2.964 -0.1118  0.1327 -0.0388
  323MOL0     C44497   8.215   0.624   2.894  0.5229  0.3619 -0.4440
  323MOL0     C44498   8.092   0.555   2.954 -0.2331 -0.4150  0.2130
  323MOL0     C44499   7.980   0.543   2.845 -0.7317  0.3869  0.3766
  323MOL0     C44500   7.896   0.428   2.888 -0.0447  0.3558 -0.0145
  323MOL0     C44501   7.819   0.341   2.916  0.1436 -0.3874  0.5574
  323MOL0     C44502   8.397   0.648   3.323  0.7028  0.6014  0.2109
  323MOL0     C44503   8.492   0.647   3.427  0.9815 -0.1973  0.3136
  323MOL0     C44504   8.438   0.689   3.557 -0.1142 -0.2872  0.5799
  323MOL0     H44505   9.014   0.667   3.573 -2.2599  0.1996 -0.4548
  323MOL0     H44506   9.182   0.762   3.728  0.3761  1.6057  3.2820
  323MOL0     H44507   9.323   0.843   3.871  0.1086  3.4869  0.9655
  323MOL0     H44508   9.244   0.707   3.953 -3.9306  0.6662  0.9330
  323MOL0     H44509   9.284   0.801   4.164 -2.1155 -0.3153 -1.0918
  323MOL0     H44510   9.447   0.775   4.094  0.4460  0.3647  0.8112
  323MOL0     H44511   9.485   0.985   4.032 -0.2664 -3.7411 -2.7621
  323MOL0     H44512   9.325   1.041   4.062 -2.2999 -1.4975  1.1401
  323MOL0     H44513   9.361   1.041   4.319  2.4142 -0.4991  2.7654
  323MOL0     H44514   9.490   0.931   4.306 -0.1386 -0.2413  0.1154
  323MOL0     H44515   9.631   1.114   4.190 -1.2140  3.9712 -1.4211
  323MOL0     H44516   9.576   1.142   4.351 -3.9524  0.8085  0.1363
  323MOL0     H44517   9.459   1.245   4.083 -0.4636 -1.4004 -0.0021
  323MOL0     H44518   9.377   1.253   4.246 -0.5328 -3.4740 -0.7645
  323MOL0     H44519   9.590   1.382   4.325  1.3464  1.6420  0.1223
  323MOL0     H44520   9.512   1.465   4.186  1.0810  0.0783 -1.9525
  323MOL0     H44521   9.741   1.474   4.149  1.0779 -0.0080 -1.3197
  323MOL0     H44522   9.769   1.307   4.186 -1.1441 -0.7408 -0.5016
  323MOL0     H44523   9.781   1.520   3.897  4.8087 -1.1359 -2.1259
  323MOL0     H44524   9.814   1.481   3.634 -1.7558  2.2914  0.7914
  323MOL0     H44525   9.643   1.443   3.619 -0.2880  0.6692  1.3064
  323MOL0     H44526   9.876   1.266   3.534  0.6066  3.2542 -1.0211
  323MOL0     H44527   9.709   1.201   3.540 -4.1748  2.2308 -0.9258
  323MOL0     H44528   9.624   1.365   3.377 -0.0580  1.8011 -0.2662
  323MOL0     H44529   9.788   1.432   3.364 -0.5442  0.4868  0.1704
  323MOL0     H44530   9.753   1.130   3.334  0.6448 -1.0858 -0.0094
  323MOL0     H44531   9.732   1.243   3.196  3.0410 -1.1357 -1.4276
  323MOL0     H44532   9.901   1.082   3.065  1.8545  0.1537 -2.0435
  323MOL0     H44533   9.972   0.751   3.036 -2.9480  0.7916  0.5575
  323MOL0     H44534  10.094   0.823   2.944 -0.3293 -2.7588  1.2463
  323MOL0     H44535   9.925   0.888   2.944 -0.2649  0.3232  0.7147
  323MOL0     H44536  10.422   0.594   3.185  1.7326 -0.9495 -1.0477
  323MOL0     H44537  10.556   0.390   3.231  0.7786 -0.0996 -0.6014
  323MOL0     H44538  10.723   0.220   3.510  2.4200 -1.0203  3.2697
  323MOL0     H44539  10.634   0.345   3.607  0.0790 -2.8685  4.7046
  323MOL0     H44540  10.619   0.183   3.759 -1.8297 -0.6180  1.3542
  323MOL0     H44541  10.472   0.177   3.674  0.1806  2.2797  0.7215
  323MOL0     H44542  10.565  -0.005   3.523 -2.8336 -4.1590  1.9182
  323MOL0     H44543  10.530  -0.029   3.701 -0.6295  0.4489  0.4738
  323MOL0     H44544  10.747  -0.085   3.752  0.6514 -3.5301 -1.4178
  323MOL0     H44545  10.808   0.058   3.661 -4.6841  3.4046 -0.8909
  323MOL0     H44546  10.802  -0.067   3.452  1.7283  0.5605 -0.3018
  323MOL0     H44547  10.899  -0.151   3.575  0.7262  0.6264  0.0799
  323MOL0     H44548  10.618  -0.240   3.514 -1.5421 -2.3539  2.2382
  323MOL0     H44549  10.729  -0.306   3.636  0.8411  1.9950  0.5886
  323MOL0     H44550  10.774  -0.290   3.330 -0.3706  1.7960  0.7082
  323MOL0     H44551  10.681  -0.424   3.406  1.9992 -0.9673 -0.1032
  323MOL0     H44552  10.894  -0.469   3.541 -3.1096 -2.5942 -0.7323
  323MOL0     H44553  10.967  -0.372   3.400  1.2305 -1.2757 -0.6381
  323MOL0     H44554  10.372   0.369   3.623 -3.4953 -1.4541 -0.4825
  323MOL0     H44555  10.191   0.528   3.543  0.0059  5.3526 -0.8090
  323MOL0     H44556  10.207   0.942   3.423  0.3663  3.2120  1.2810
  323MOL0     H44557  10.078   1.152   3.447  2.0885  1.5454 -0.2973
  323MOL0     H44558   8.885   0.873   4.003  2.5229  1.9827  0.0684
  323MOL0     H44559   8.697   0.789   3.843 -1.1086  2.7796 -1.5067
  323MOL0     H44560   8.760   0.576   3.242  1.1319  0.6703  1.4508
  323MOL0     H44561   8.590   0.596   3.062  1.0391  1.4598  0.5104
  323MOL0     H44562   8.430   0.677   2.920  0.4301  0.6020  1.5103
  323MOL0     H44563   8.396   0.510   2.966  1.0020  0.5458 -0.9492
  323MOL0     H44564   8.223   0.583   2.793  0.7797 -4.6764  1.3339
  323MOL0     H44565   8.195   0.731   2.880 -1.2918 -0.0427 -1.1636
  323MOL0     H44566   8.121   0.454   2.984  0.4211 -1.3477 -3.1201
  323MOL0     H44567   8.067   0.618   3.040  0.0939 -0.7746  0.5704
  323MOL0     H44568   8.012   0.512   2.745 -1.8398 -2.7942  0.8923
  323MOL0     H44569   7.916   0.632   2.842 -0.1121  0.8218 -1.8072
  323MOL0     H44570   7.767   0.255   2.952 -1.1839  1.1519  2.5892
  323MOL0     H44571   8.292   0.664   3.346  0.2334 -2.4452  0.6675
  323MOL0     H44572   8.504   0.774   3.573  0.9161  0.2793 -4.8546
  323MOL0     H44573   8.331   0.709   3.561 -0.3447 -1.1292 -0.7120
  323MOL0     H44574   8.464   0.611   3.629  0.9639 -0.6111 -0.1295
  324MOL0     O44575   0.584   3.603  10.127 -0.0122  1.0864 -0.5637
  324MOL0     C44576   0.488   3.528  10.130  0.5811  0.5017  0.4240
  324MOL0     O44577   0.482   3.408  10.192 -0.2031  0.7282 -0.4741
  324MOL0     C44578   0.590   3.344  10.251 -0.7061  0.2668  0.8877
  324MOL0     C44579   0.712   3.399  10.298  0.3805  0.1259  0.4067
  324MOL0     C44580   0.814   3.323  10.361  0.1078  0.0420  0.7795
  324MOL0     C44581   0.796   3.186  10.387 -0.1624 -0.5957  0.1955
  324MOL0     O44582   0.886   3.126  10.470 -0.3574  0.3303  0.4680
  324MOL0     C44583   0.985   3.039  10.410 -0.7792 -0.4824  0.1347
  324MOL0     C44584   1.125   3.073  10.471  0.3181 -1.4005  0.0622
  324MOL0     C44585   1.260   3.021  10.394  1.2647  0.5466 -0.7650
  324MOL0     C44586   1.257   2.872  10.367 -0.1738  0.7569  0.1571
  324MOL0     C44587   1.247   2.799  10.503 -0.0244 -0.3153  0.2067
  324MOL0     C44588   1.274   2.648  10.490  0.0449 -0.0621  0.1633
  324MOL0     C44589   1.325   2.585  10.619 -1.1555 -0.5180  0.3658
  324MOL0     C44590   1.324   2.432  10.617 -0.3391 -0.6441 -0.3938
  324MOL0     N44591   1.391   2.380  10.743  0.4068  0.0613  0.4068
  324MOL0     C44592   1.408   2.451  10.861  0.5703 -0.6283  0.8904
  324MOL0     C44593   1.450   2.356  10.949 -0.0159 -0.7282 -0.1022
  324MOL0     C44594   1.467   2.370  11.097 -0.1612 -0.2227 -0.5444
  324MOL0     C44595   1.595   2.301  11.155  0.0497 -0.8209 -0.4147
  324MOL0     C44596   1.706   2.401  11.214 -0.0659  0.9871  0.0066
  324MOL0     C44597   1.667   2.460  11.359 -0.1581 -0.9514  0.2862
  324MOL0     O44598   1.547   2.525  11.365  0.0266 -0.9708  0.6506
  324MOL0     C44599   1.514   2.607  11.482  0.3116  1.2614  0.0986
  324MOL0     C44600   1.391   2.680  11.493 -0.6720  0.9145 -0.0217
  324MOL0     C44601   1.362   2.762  11.605 -0.8204 -0.4105 -0.6291
  324MOL0     C44602   1.229   2.823  11.599 -0.1357 -0.6780 -0.3735
  324MOL0     C44603   1.450   2.763  11.718 -0.8654  0.8583 -0.2832
  324MOL0     C44604   1.432   2.847  11.840  0.1331  0.1460 -0.6695
  324MOL0     O44605   1.526   2.842  11.934  0.0384  0.5542  0.4233
  324MOL0     C44606   1.514   2.918  12.046  0.6512  0.2846  0.3584
  324MOL0     C44607   1.543   3.050  12.028 -0.0922 -0.0944 -0.5346
  324MOL0     C44608   1.549   3.128  12.141  0.1802 -0.2674  0.6191
  324MOL0     C44609   1.515   3.077  12.274 -0.2780  0.2628  0.0293
  324MOL0     O44610   1.509   3.148  12.388 -0.5760  0.0645  0.0075
  324MOL0     C44611   1.526   3.295  12.383 -0.1753  0.2891  0.1182
  324MOL0     C44612   1.522   3.358  12.521  0.4357  0.1632  0.0742
  324MOL0     C44613   1.651   3.340  12.598 -0.2018  0.7647 -0.5181
  324MOL0     C44614   1.658   3.382  12.739  0.6236  1.0003  0.4581
  324MOL0     C44615   1.797   3.370  12.805 -0.0524  0.5130 -0.3250
  324MOL0     C44616   1.781   3.445  12.936  0.1908  0.3236  0.2873
  324MOL0     C44617   1.910   3.496  12.994 -0.8151 -0.6238 -0.4626
  324MOL0     C44618   1.969   3.393  13.097  1.3394 -0.1821 -0.2641
  324MOL0    Cl44619   2.082   3.274  13.017  0.4268 -0.3443  0.0752
  324MOL0     C44620   1.469   2.944  12.287 -0.1547 -0.0746 -0.4931
  324MOL0     C44621   1.475   2.856  12.170  0.1794 -0.6257  0.3478
  324MOL0     O44622   1.321   2.904  11.852  0.0319 -0.4888  0.3096
  324MOL0     C44623   1.576   2.695  11.702 -0.0572  0.1206 -0.7199
  324MOL0     C44624   1.607   2.624  11.590  0.3159 -0.5407  0.0272
  324MOL0     N44625   1.460   2.230  10.887 -0.6686 -0.3020  0.3771
  324MOL0     N44626   1.425   2.248  10.763 -0.2435 -0.0755 -0.8153
  324MOL0     C44627   0.675   3.126  10.348 -0.7316  0.2701 -0.1181
  324MOL0     C44628   0.573   3.205  10.283  1.1500 -0.8246 -0.3505
  324MOL0     C44629   0.373   3.589  10.076  0.9302 -0.7439  0.8419
  324MOL0     C44630   0.337   3.566   9.935 -0.4611  0.9807  0.6008
  324MOL0     C44631   0.231   3.623   9.871 -0.0856 -0.3496  0.1084
  324MOL0     C44632   0.149   3.714   9.939  0.5012  0.5892 -0.6240
  324MOL0     O44633   0.043   3.768   9.877  0.2404  0.0517  0.4102
  324MOL0     C44634  -0.023   3.889   9.918  0.0297 -0.7923 -1.3305
  324MOL0     C44635   0.042   4.005   9.836 -0.1969 -0.4198  0.3876
  324MOL0     C44636  -0.016   4.145   9.852  0.3649 -0.2033  0.3109
  324MOL0     C44637  -0.032   4.220   9.712 -0.4418  0.3559  0.1409
  324MOL0     C44638   0.102   4.251   9.655  0.3541 -0.1252  0.1046
  324MOL0     C44639   0.216   4.251   9.610  0.0110  0.2394 -0.4795
  324MOL0     C44640   0.184   3.736  10.078  0.1441 -0.0940  0.1175
  324MOL0     C44641   0.294   3.677  10.149  0.3532 -0.0817 -0.8006
  324MOL0     C44642   0.299   3.721  10.296 -0.9352  0.0339 -0.1519
  324MOL0     H44643   0.735   3.504  10.288  0.8819  0.2014  2.1069
  324MOL0     H44644   0.899   3.380  10.399 -1.0893  0.6452  2.6849
  324MOL0     H44645   0.992   3.050  10.301 -1.3466  3.4026  0.3400
  324MOL0     H44646   0.967   2.931  10.415  2.9162 -1.3288 -1.5754
  324MOL0     H44647   1.135   3.181  10.484 -0.5558 -1.5976  3.4246
  324MOL0     H44648   1.122   3.048  10.578 -0.8864 -1.7596 -0.0405
  324MOL0     H44649   1.282   3.080  10.305  1.4418  0.8105 -0.5497
  324MOL0     H44650   1.340   3.058  10.460 -0.4499 -0.7670  2.2703
  324MOL0     H44651   1.177   2.839  10.300  1.0468  1.4755 -1.7406
  324MOL0     H44652   1.354   2.844  10.325 -0.7203  1.1624 -1.4338
  324MOL0     H44653   1.147   2.817  10.545 -0.6512  0.1282 -1.3859
  324MOL0     H44654   1.317   2.841  10.576 -3.1568  0.3002  3.1369
  324MOL0     H44655   1.177   2.602  10.468  0.1614 -0.3379  0.2269
  324MOL0     H44656   1.339   2.620  10.406 -1.8399 -1.4927 -0.9061
  324MOL0     H44657   1.256   2.624  10.694 -1.6433 -0.5950 -0.0343
  324MOL0     H44658   1.425   2.619  10.647 -0.1299 -1.9971 -1.2801
  324MOL0     H44659   1.219   2.407  10.596 -1.0411  2.1691 -0.6328
  324MOL0     H44660   1.382   2.386  10.536  0.8373  2.5527 -1.5179
  324MOL0     H44661   1.388   2.557  10.871 -1.1752 -0.7229 -0.8272
  324MOL0     H44662   1.380   2.321  11.143 -0.9134  2.1583  0.7267
  324MOL0     H44663   1.463   2.476  11.124 -1.1303 -0.1938 -0.7833
  324MOL0     H44664   1.560   2.224  11.225 -5.7702 -0.5299 -2.5124
  324MOL0     H44665   1.646   2.253  11.071  2.6740  1.0476 -0.0131
  324MOL0     H44666   1.794   2.340  11.231 -2.2751 -2.7978 -1.0407
  324MOL0     H44667   1.728   2.484  11.147  4.5276  1.1804  1.4181
  324MOL0     H44668   1.662   2.388  11.442 -0.8244  0.4078  1.4752
  324MOL0     H44669   1.755   2.523  11.374  0.5257 -1.8367  0.0677
  324MOL0     H44670   1.326   2.687  11.406 -2.2930 -1.3984  0.8965
  324MOL0     H44671   1.240   2.932  11.600 -1.0110 -0.5232  2.5035
  324MOL0     H44672   1.175   2.789  11.688  1.2000 -0.4813  0.5329
  324MOL0     H44673   1.166   2.797  11.513 -1.3154  0.3418  0.1534
  324MOL0     H44674   1.567   3.079  11.926  1.1805  2.2742  0.3531
  324MOL0     H44675   1.570   3.234  12.123  1.8828 -0.5507  0.7510
  324MOL0     H44676   1.623   3.322  12.340 -1.3599  1.1869 -2.2286
  324MOL0     H44677   1.444   3.328  12.318  1.7139 -1.4228 -3.4590
  324MOL0     H44678   1.480   3.459  12.516  0.9512  0.4578  1.3534
  324MOL0     H44679   1.456   3.296  12.581 -1.4865 -1.1769 -3.1862
  324MOL0     H44680   1.722   3.399  12.539 -0.1086  2.3222  1.0749
  324MOL0     H44681   1.690   3.238  12.593 -1.8418  0.1158 -0.5637
  324MOL0     H44682   1.596   3.313  12.797 -1.2351  0.6803 -1.7402
  324MOL0     H44683   1.608   3.479  12.749  2.1962  2.2102 -2.2336
  324MOL0     H44684   1.825   3.264  12.811 -2.8495 -0.3607 -0.9578
  324MOL0     H44685   1.874   3.418  12.745  0.8511 -2.5550 -1.8315
  324MOL0     H44686   1.728   3.390  13.015  2.9853 -0.5984  1.6823
  324MOL0     H44687   1.738   3.543  12.912  4.3219  2.1763 -0.5967
  324MOL0     H44688   1.875   3.587  13.042 -2.2967 -1.4541  0.0941
  324MOL0     H44689   1.989   3.524  12.923 -1.5819  0.3830 -0.9528
  324MOL0     H44690   1.887   3.344  13.150 -1.1734  3.4245 -0.4426
  324MOL0     H44691   2.023   3.447  13.175 -0.2006 -0.0900  0.7842
  324MOL0     H44692   1.442   2.910  12.387  2.3714 -0.0883  0.2476
  324MOL0     H44693   1.458   2.749  12.181 -1.0865 -0.3221  1.6661
  324MOL0     H44694   1.649   2.700  11.782 -1.3096 -0.9365  0.5320
  324MOL0     H44695   1.703   2.574  11.582  0.6848  0.3808 -5.0796
  324MOL0     H44696   0.639   3.025  10.365 -2.6671  1.1656  1.3697
  324MOL0     H44697   0.476   3.161  10.260  0.2887 -0.6095  2.5130
  324MOL0     H44698   0.398   3.497   9.878  0.2189  0.9572  1.3449
  324MOL0     H44699   0.217   3.598   9.766  3.4771  1.5378 -0.9532
  324MOL0     H44700  -0.129   3.893   9.892 -0.1796  2.7887 -0.4906
  324MOL0     H44701  -0.008   3.900  10.025  2.0078 -1.8696 -1.4577
  324MOL0     H44702   0.034   3.980   9.730 -1.0242  1.1662  0.0476
  324MOL0     H44703   0.149   4.010   9.862  0.1618  1.6310 -1.2186
  324MOL0     H44704  -0.119   4.131   9.888  1.1403  1.0000  3.3243
  324MOL0     H44705   0.037   4.215   9.917 -2.8954  2.6717  0.1680
  324MOL0     H44706  -0.079   4.317   9.733 -1.1067  1.0945 -4.0017
  324MOL0     H44707  -0.087   4.168   9.634  1.8182  1.3877 -2.2959
  324MOL0     H44708   0.318   4.243   9.581  0.2514  0.4345  0.2830
  324MOL0     H44709   0.126   3.804  10.139  2.3672  0.8276  1.3306
  324MOL0     H44710   0.221   3.793  10.323  0.0929  1.5872 -1.1294
  324MOL0     H44711   0.291   3.633  10.360 -1.5549 -0.4706 -0.9101
  324MOL0     H44712   0.388   3.781  10.321  0.6588 -2.2483 -0.0524
  325MOL0     O44713  11.028   2.207   2.733  0.4382 -0.3781 -0.1821
  325MOL0     C44714  10.912   2.182   2.767  0.8337  0.5119  0.2979
  325MOL0     O44715  10.838   2.253   2.857  0.1437 -0.0949 -1.0303
  325MOL0     C44716  10.886   2.360   2.928  0.6455 -0.8959 -0.2494
  325MOL0     C44717  10.780   2.417   2.998 -1.0323  0.7417  0.8212
  325MOL0     C44718  10.811   2.527   3.084  0.1581  0.6528 -0.2860
  325MOL0     C44719  10.943   2.585   3.088 -0.4387 -0.2110 -1.1926
  325MOL0     O44720  10.952   2.691   3.177  0.2645 -0.1568  0.3313
  325MOL0     C44721  11.049   2.797   3.152 -0.0051  0.5183 -0.7325
  325MOL0     C44722  10.998   2.929   3.191 -0.2119 -0.5083 -0.1978
  325MOL0     C44723  11.112   3.030   3.166 -0.0086  0.5508 -0.5526
  325MOL0     C44724  11.123   3.073   3.020 -0.4653 -0.1834 -0.1268
  325MOL0     C44725  11.193   3.207   2.995  0.2765 -0.7697  0.6432
  325MOL0     C44726  11.111   3.333   3.036  0.2248 -0.1988  0.8375
  325MOL0     C44727  11.011   3.367   2.923 -0.4831  0.2681 -0.7478
  325MOL0     C44728  10.925   3.495   2.956 -0.2873 -1.2241 -0.1560
  325MOL0     N44729  10.855   3.477   3.082  0.1751 -0.0216  0.6916
  325MOL0     C44730  10.749   3.405   3.089  0.8397  0.4395 -0.8628
  325MOL0     C44731  10.704   3.408   3.215  0.6472 -0.2295  0.2743
  325MOL0     C44732  10.597   3.331   3.277 -0.1334  0.4542  0.3511
  325MOL0     C44733  10.663   3.215   3.354 -0.2454 -0.4470 -1.4351
  325MOL0     C44734  10.583   3.161   3.485 -0.0811 -0.3396 -0.6758
  325MOL0     C44735  10.563   3.001   3.482  0.9530  0.0512  0.3597
  325MOL0     O44736  10.461   2.978   3.382 -0.2752 -0.2256  0.1711
  325MOL0     C44737  10.451   2.854   3.330 -0.9523  0.0850 -0.1218
  325MOL0     C44738  10.411   2.851   3.196  0.4676 -0.6533  1.0871
  325MOL0     C44739  10.394   2.726   3.130  0.0027 -0.1795  0.7705
  325MOL0     C44740  10.330   2.735   2.984  0.5212  0.2944  0.5876
  325MOL0     C44741  10.445   2.609   3.192 -0.4371  0.3670  0.4399
  325MOL0     C44742  10.441   2.466   3.127 -0.1672 -0.1988  0.0059
  325MOL0     O44743  10.442   2.349   3.202  0.6288 -0.6358  0.3129
  325MOL0     C44744  10.468   2.231   3.138  0.3098  0.1720  0.9310
  325MOL0     C44745  10.581   2.151   3.163 -0.1179  1.0341  0.7999
  325MOL0     C44746  10.613   2.031   3.085 -0.2672  0.2893  0.7856
  325MOL0     C44747  10.519   1.987   2.997  0.5287  1.0863 -0.0817
  325MOL0     O44748  10.541   1.882   2.904 -0.2388 -0.0234 -0.1286
  325MOL0     C44749  10.626   1.779   2.960 -0.6785  0.6058 -0.0715
  325MOL0     C44750  10.653   1.667   2.860 -1.1044  0.2439 -1.3766
  325MOL0     C44751  10.534   1.582   2.826  0.2343  0.4173  0.0933
  325MOL0     C44752  10.570   1.499   2.710 -0.0917  0.5529 -0.7819
  325MOL0     C44753  10.472   1.387   2.692  0.0434  0.5616 -0.6670
  325MOL0     C44754  10.496   1.278   2.585  0.0339 -0.0107  0.2916
  325MOL0     C44755  10.379   1.174   2.562 -0.8546  0.7168  0.1431
  325MOL0     C44756  10.417   1.075   2.449 -0.3854  0.7176 -0.4738
  325MOL0    Cl44757  10.371   1.154   2.302 -0.0495  0.0181  0.2929
  325MOL0     C44758  10.406   2.059   2.975  0.5662  0.3890  0.0831
  325MOL0     C44759  10.380   2.180   3.036 -0.8430 -0.2630 -0.5562
  325MOL0     O44760  10.439   2.469   3.008 -0.1562  0.2211 -0.0736
  325MOL0     C44761  10.478   2.616   3.330  0.4266 -1.0722  0.9932
  325MOL0     C44762  10.480   2.737   3.405  0.6888  0.1984  0.7807
  325MOL0     N44763  10.778   3.499   3.286 -0.1756  0.1059 -0.0667
  325MOL0     N44764  10.871   3.535   3.206  0.3592  0.4756 -0.3930
  325MOL0     C44765  11.041   2.523   3.018  0.9080  0.1428 -0.0248
  325MOL0     C44766  11.020   2.414   2.938  0.1821 -0.2779 -0.2694
  325MOL0     C44767  10.841   2.080   2.693 -0.4531  0.2516 -0.1213
  325MOL0     C44768  10.710   2.110   2.656 -0.6422  0.0704 -0.0458
  325MOL0     C44769  10.627   2.027   2.585 -0.8238  0.0980 -0.0205
  325MOL0     C44770  10.677   1.898   2.552  0.3645  0.7137  0.7265
  325MOL0     O44771  10.616   1.801   2.463 -0.0857  0.1166 -0.3244
  325MOL0     C44772  10.468   1.808   2.468 -0.5872  0.6023  0.2183
  325MOL0     C44773  10.404   1.670   2.439 -0.6468 -0.5774 -0.5827
  325MOL0     C44774  10.460   1.597   2.318  0.8265  0.6964  0.1017
  325MOL0     C44775  10.417   1.650   2.178  0.4612  0.5120 -0.9209
  325MOL0     C44776  10.495   1.583   2.077  0.0589 -0.1616  0.9370
  325MOL0     C44777  10.557   1.514   2.001 -0.0850  0.0197 -0.6497
  325MOL0     C44778  10.803   1.866   2.587 -0.4843 -0.9345 -1.6782
  325MOL0     C44779  10.886   1.956   2.656 -0.8912  1.0418 -0.0353
  325MOL0     C44780  11.017   1.910   2.704 -0.2254  0.2871 -0.2534
  325MOL0     H44781  10.677   2.384   2.991 -2.1453  2.2321  5.8255
  325MOL0     H44782  10.728   2.555   3.149  1.8149  0.2433  2.1587
  325MOL0     H44783  11.070   2.810   3.045 -0.7526  2.6750 -0.6572
  325MOL0     H44784  11.130   2.761   3.216 -1.1470 -3.6620 -1.3132
  325MOL0     H44785  10.913   2.955   3.126 -0.7551  1.4571  1.2148
  325MOL0     H44786  10.964   2.928   3.295  1.0795 -0.1249  0.2444
  325MOL0     H44787  11.082   3.113   3.230  0.9804 -1.5877  2.9328
  325MOL0     H44788  11.205   2.993   3.211 -0.0832 -1.7946 -2.1175
  325MOL0     H44789  11.192   3.004   2.972  0.2198  1.3960 -1.5245
  325MOL0     H44790  11.029   3.060   2.964 -0.7967 -0.8452  0.5605
  325MOL0     H44791  11.218   3.224   2.890 -1.9198  2.3151  0.5126
  325MOL0     H44792  11.293   3.208   3.040  0.5939  2.1544  0.0379
  325MOL0     H44793  11.047   3.308   3.122 -2.3609  1.6784 -0.4034
  325MOL0     H44794  11.175   3.417   3.062  1.1672 -1.2705  2.1360
  325MOL0     H44795  10.943   3.287   2.893 -1.4389  0.0853  1.6827
  325MOL0     H44796  11.067   3.385   2.831  0.0887 -1.5172 -0.7647
  325MOL0     H44797  10.982   3.586   2.976 -1.4428 -0.7624  1.2270
  325MOL0     H44798  10.858   3.510   2.870  1.4191  1.8636 -1.0849
  325MOL0     H44799  10.703   3.341   3.014 -1.6430  0.2968  0.6867
  325MOL0     H44800  10.533   3.291   3.198 -0.0795  0.7472  0.1587
  325MOL0     H44801  10.539   3.393   3.346  0.2554 -1.5214  2.5756
  325MOL0     H44802  10.696   3.132   3.291  0.3161 -1.9608  0.7267
  325MOL0     H44803  10.751   3.258   3.403 -1.5274 -0.5225  1.1282
  325MOL0     H44804  10.633   3.185   3.579 -2.2190  0.3084  0.3515
  325MOL0     H44805  10.493   3.222   3.496  0.7533  1.0696 -1.3846
  325MOL0     H44806  10.660   2.959   3.453  2.7506  2.9869  1.7005
  325MOL0     H44807  10.525   2.960   3.576  0.1870  0.3267  0.1830
  325MOL0     H44808  10.380   2.942   3.146 -1.0188 -1.7578 -0.0861
  325MOL0     H44809  10.414   2.744   2.915  0.1698 -1.9744 -0.2176
  325MOL0     H44810  10.248   2.807   2.974  0.2193 -0.1555 -0.2493
  325MOL0     H44811  10.273   2.643   2.971 -1.0002  1.2696  0.0469
  325MOL0     H44812  10.651   2.197   3.232  0.3387  0.5729  0.6517
  325MOL0     H44813  10.712   1.987   3.091 -1.6002 -2.9967  0.8159
  325MOL0     H44814  10.724   1.819   2.988  0.2799 -0.5978 -1.5348
  325MOL0     H44815  10.571   1.746   3.048  0.6371  2.8159  1.6952
  325MOL0     H44816  10.714   1.698   2.775  4.1531  0.3270  1.9300
  325MOL0     H44817  10.717   1.590   2.906  0.3251  1.6802 -0.8742
  325MOL0     H44818  10.444   1.639   2.800 -0.0111  0.3177  0.7194
  325MOL0     H44819  10.508   1.514   2.907  2.0920 -1.5118 -0.8321
  325MOL0     H44820  10.662   1.443   2.730  0.6936  1.0605 -2.7920
  325MOL0     H44821  10.602   1.563   2.628  0.7397 -0.2459 -1.1032
  325MOL0     H44822  10.466   1.327   2.784 -0.7000 -0.6473 -1.4815
  325MOL0     H44823  10.374   1.432   2.674 -1.1253 -1.6837 -0.3432
  325MOL0     H44824  10.589   1.228   2.614  0.2000  1.4213  2.4450
  325MOL0     H44825  10.506   1.339   2.494  1.0237  1.2891  1.2291
  325MOL0     H44826  10.286   1.225   2.535 -2.5777 -1.0669  2.3476
  325MOL0     H44827  10.360   1.111   2.649  2.6817 -1.6130 -0.5635
  325MOL0     H44828  10.362   0.981   2.457  0.2260  0.4095  0.2784
  325MOL0     H44829  10.521   1.041   2.448 -0.2639  1.0927 -0.7524
  325MOL0     H44830  10.336   2.025   2.899  0.1097  1.3258  0.0691
  325MOL0     H44831  10.291   2.238   3.014 -0.5999  0.1025 -0.5933
  325MOL0     H44832  10.506   2.525   3.383  1.9678 -0.9188  0.5021
  325MOL0     H44833  10.518   2.743   3.507  3.6003 -0.7263 -0.1616
  325MOL0     H44834  11.146   2.551   3.026  1.9191 -3.4852  1.2359
  325MOL0     H44835  11.105   2.381   2.880  2.1905  1.8950  1.2381
  325MOL0     H44836  10.670   2.206   2.687 -0.7377  0.0237 -0.0222
  325MOL0     H44837  10.528   2.069   2.571 -0.9470 -0.9285 -2.8917
  325MOL0     H44838  10.436   1.834   2.569  2.2723  1.7400  0.9206
  325MOL0     H44839  10.426   1.876   2.393 -2.2534  0.5057  1.0268
  325MOL0     H44840  10.296   1.689   2.433 -0.1757  2.3393 -1.0738
  325MOL0     H44841  10.430   1.612   2.527  1.4886  2.0043  0.6150
  325MOL0     H44842  10.569   1.603   2.327  1.0789 -0.5035 -1.6294
  325MOL0     H44843  10.434   1.491   2.315  1.5392  0.5256 -2.2908
  325MOL0     H44844  10.434   1.758   2.183  1.1806  0.4616 -1.9219
  325MOL0     H44845  10.312   1.626   2.158  0.6875 -0.7819 -0.6114
  325MOL0     H44846  10.596   1.435   1.939 -3.4445 -2.5751  0.2188
  325MOL0     H44847  10.846   1.775   2.546 -0.8381 -1.7991 -0.1744
  325MOL0     H44848  11.094   1.939   2.631  1.4651 -1.4870  0.7399
  325MOL0     H44849  11.047   1.952   2.800  1.8607  0.0050 -0.7340
  325MOL0     H44850  11.011   1.804   2.725 -3.6468  1.3039  6.1613
  326MOL0     O44851   2.237   7.758   0.241  0.3985  0.8482  0.0763
  326MOL0     C44852   2.256   7.877   0.243  0.2066 -0.2197 -0.2772
  326MOL0     O44853   2.199   7.959   0.147 -0.1655 -0.4506 -0.4496
  326MOL0     C44854   2.105   7.916   0.066 -0.4224  0.4989  0.0880
  326MOL0     C44855   1.987   7.862   0.111 -0.7973  0.0696  0.4166
  326MOL0     C44856   1.875   7.857   0.026  1.1206 -0.4398 -0.0649
  326MOL0     C44857   1.881   7.898  -0.104 -0.2742 -0.7623 -0.3786
  326MOL0     O44858   1.758   7.883  -0.163  0.0436 -0.0022  0.4370
  326MOL0     C44859   1.745   7.883  -0.306  0.6474  0.6995  0.5026
  326MOL0     C44860   1.735   7.740  -0.365 -0.3381 -0.0516  0.7072
  326MOL0     C44861   1.692   7.766  -0.513 -0.8226  0.8005 -0.1101
  326MOL0     C44862   1.721   7.647  -0.601  0.2696 -0.7356  1.3888
  326MOL0     C44863   1.670   7.654  -0.747  0.4858  0.2731 -0.4522
  326MOL0     C44864   1.634   7.524  -0.809  0.1684  0.9546  0.3859
  326MOL0     C44865   1.564   7.547  -0.939  0.2297  0.3170  0.1363
  326MOL0     C44866   1.520   7.415  -1.003 -0.4431  0.7813 -0.1639
  326MOL0     N44867   1.403   7.435  -1.092 -1.2394 -0.1669 -0.1349
  326MOL0     C44868   1.274   7.400  -1.060 -0.6186 -1.5554 -0.0950
  326MOL0     C44869   1.206   7.436  -1.175  0.9197  0.5290 -0.0583
  326MOL0     C44870   1.058   7.404  -1.179 -0.0038 -0.8644  0.0544
  326MOL0     C44871   0.977   7.491  -1.285  0.1196  0.3213  0.7835
  326MOL0     C44872   0.962   7.642  -1.244  0.9494 -0.6645 -0.0585
  326MOL0     C44873   0.919   7.738  -1.354 -0.0189 -0.3244  0.7995
  326MOL0     O44874   1.016   7.725  -1.456 -0.0454 -0.0560 -0.1741
  326MOL0     C44875   1.057   7.827  -1.540 -0.0850 -0.7201 -0.5624
  326MOL0     C44876   1.130   7.787  -1.647  0.0450 -0.5125  1.0142
  326MOL0     C44877   1.183   7.878  -1.743  1.0718 -0.5635 -0.4466
  326MOL0     C44878   1.265   7.840  -1.852 -0.7153  0.7841  0.0651
  326MOL0     C44879   1.140   8.013  -1.735 -0.2515 -0.3681  0.0438
  326MOL0     C44880   1.188   8.116  -1.830  0.4051 -0.5064  1.0196
  326MOL0     O44881   1.239   8.231  -1.771 -0.3209  0.4760  0.0841
  326MOL0     C44882   1.291   8.327  -1.861 -0.2509 -0.5014  0.3654
  326MOL0     C44883   1.206   8.386  -1.947  1.2343 -1.3315 -0.1942
  326MOL0     C44884   1.251   8.464  -2.054 -0.5719  0.7223 -0.4310
  326MOL0     C44885   1.389   8.477  -2.080 -0.5909 -0.2905 -0.5095
  326MOL0     O44886   1.437   8.557  -2.183 -0.3909 -0.4750 -0.0537
  326MOL0     C44887   1.557   8.517  -2.253  0.1732  0.5804 -0.7906
  326MOL0     C44888   1.594   8.613  -2.364  0.0727  0.6295  0.1934
  326MOL0     C44889   1.509   8.628  -2.490  0.8795 -0.2915  0.2770
  326MOL0     C44890   1.391   8.731  -2.471  0.2639 -0.7508  0.3404
  326MOL0     C44891   1.305   8.754  -2.590  0.6657  0.1289 -0.8105
  326MOL0     C44892   1.375   8.835  -2.702  0.2397 -0.6239  0.1370
  326MOL0     C44893   1.276   8.870  -2.819 -0.0284  0.6173  0.6119
  326MOL0     C44894   1.322   8.997  -2.897 -0.1192  1.0062 -0.3673
  326MOL0    Cl44895   1.478   8.956  -2.968  0.5150  0.0249  0.1923
  326MOL0     C44896   1.482   8.421  -1.980  0.1378 -0.0824  0.1855
  326MOL0     C44897   1.431   8.341  -1.877  0.6893  0.6661  0.2639
  326MOL0     O44898   1.167   8.107  -1.950 -0.1493  0.3216 -0.7716
  326MOL0     C44899   1.057   8.055  -1.628  0.2005 -0.4953  0.5430
  326MOL0     C44900   1.026   7.960  -1.528  0.8445  0.3658 -0.3190
  326MOL0     N44901   1.294   7.480  -1.268 -0.1166  0.2215  0.1988
  326MOL0     N44902   1.416   7.478  -1.219 -0.1191  0.6425 -0.0903
  326MOL0     C44903   2.004   7.947  -0.157  0.6181 -0.0506 -0.0649
  326MOL0     C44904   2.109   7.950  -0.068 -0.6424 -0.7239  0.5414
  326MOL0     C44905   2.309   7.944   0.357  0.2462 -0.0228  0.3995
  326MOL0     C44906   2.397   8.047   0.339 -0.3115 -0.7516  0.2406
  326MOL0     C44907   2.442   8.128   0.447  1.1686 -0.6632 -0.7155
  326MOL0     C44908   2.404   8.101   0.577 -0.2603 -0.4811  0.4384
  326MOL0     O44909   2.434   8.175   0.693 -1.0291 -0.2870 -0.0912
  326MOL0     C44910   2.539   8.279   0.695  0.1635  0.4787  0.6221
  326MOL0     C44911   2.661   8.233   0.793  0.9826 -0.1937  0.4355
  326MOL0     C44912   2.776   8.163   0.705  0.3295 -0.0427 -0.4689
  326MOL0     C44913   2.915   8.160   0.769  0.7109 -0.3376 -0.7959
  326MOL0     C44914   2.900   8.075   0.889 -0.2162 -0.8347 -0.3125
  326MOL0     C44915   2.905   7.994   0.986 -0.0935  0.1041 -0.7274
  326MOL0     C44916   2.303   8.002   0.593  0.0445 -0.2401 -1.5615
  326MOL0     C44917   2.259   7.923   0.488 -0.0439  0.3355  0.2715
  326MOL0     C44918   2.151   7.819   0.517  0.5332 -0.9397  0.0539
  326MOL0     H44919   1.971   7.841   0.217  1.3642  2.7615  1.4279
  326MOL0     H44920   1.778   7.823   0.061  0.0005  0.5976 -1.9859
  326MOL0     H44921   1.826   7.936  -0.358  2.3579 -0.3405  1.9983
  326MOL0     H44922   1.650   7.932  -0.329  0.6042  0.7189  0.7197
  326MOL0     H44923   1.826   7.679  -0.362 -0.8910 -1.5549 -3.8272
  326MOL0     H44924   1.657   7.689  -0.307 -1.4342  1.6616  0.8104
  326MOL0     H44925   1.586   7.794  -0.510 -1.2102 -0.4538 -1.2807
  326MOL0     H44926   1.746   7.845  -0.566  1.8138 -0.0530  1.1418
  326MOL0     H44927   1.828   7.624  -0.612  1.1204  1.2066  4.3483
  326MOL0     H44928   1.694   7.559  -0.544 -0.1127 -0.0803  2.2336
  326MOL0     H44929   1.735   7.712  -0.813 -0.0949 -0.3794 -1.6272
  326MOL0     H44930   1.571   7.701  -0.738  1.0963  1.4512  0.5434
  326MOL0     H44931   1.727   7.470  -0.825  0.5668  1.7804 -0.1672
  326MOL0     H44932   1.569   7.460  -0.748 -0.7682 -1.9121 -3.2657
  326MOL0     H44933   1.613   7.611  -1.014 -0.0196 -0.8209 -1.0230
  326MOL0     H44934   1.471   7.603  -0.926 -0.0311 -0.0799 -0.0282
  326MOL0     H44935   1.602   7.361  -1.052 -1.9827 -1.0564 -0.8170
  326MOL0     H44936   1.479   7.353  -0.923 -1.7834 -1.4835 -2.4603
  326MOL0     H44937   1.223   7.373  -0.968 -2.8721  1.9780 -0.1026
  326MOL0     H44938   1.025   7.430  -1.078 -1.6984 -1.0040 -0.4359
  326MOL0     H44939   1.044   7.296  -1.194  1.7686 -0.7718 -3.0898
  326MOL0     H44940   1.030   7.473  -1.378 -0.3818  1.1471  0.3241
  326MOL0     H44941   0.878   7.447  -1.301 -0.4715  2.2277 -1.1824
  326MOL0     H44942   0.897   7.641  -1.156  4.5980 -1.5305  2.8676
  326MOL0     H44943   1.056   7.680  -1.204  0.3470  1.0545 -0.2070
  326MOL0     H44944   0.823   7.703  -1.393  0.4964 -1.6773  0.6761
  326MOL0     H44945   0.914   7.840  -1.315  2.0894 -0.2168  0.8991
  326MOL0     H44946   1.155   7.683  -1.659 -0.2978 -0.3654 -1.7314
  326MOL0     H44947   1.364   7.888  -1.856  0.6844 -1.7575  1.6370
  326MOL0     H44948   1.215   7.864  -1.946 -0.4097  1.4087  0.0546
  326MOL0     H44949   1.285   7.733  -1.859  1.4988  0.7446  3.9118
  326MOL0     H44950   1.099   8.371  -1.937  0.4152  0.8558 -3.6382
  326MOL0     H44951   1.183   8.517  -2.121  0.5641 -1.7607 -3.8288
  326MOL0     H44952   1.636   8.517  -2.178  0.6113 -0.7851 -1.2234
  326MOL0     H44953   1.553   8.413  -2.287 -3.0067 -1.0721  3.6648
  326MOL0     H44954   1.603   8.711  -2.316  0.7287  0.6610  0.0201
  326MOL0     H44955   1.691   8.580  -2.400 -0.8554 -1.8032 -0.2380
  326MOL0     H44956   1.469   8.530  -2.519 -0.9508  0.7578 -0.9086
  326MOL0     H44957   1.562   8.651  -2.583  0.2745 -0.5099 -0.1326
  326MOL0     H44958   1.446   8.822  -2.446 -1.2251  0.0813  0.6982
  326MOL0     H44959   1.327   8.701  -2.388  0.2088 -2.7688 -0.3843
  326MOL0     H44960   1.272   8.653  -2.616  0.6396 -0.6366  1.8410
  326MOL0     H44961   1.216   8.805  -2.554  0.2282 -0.1023 -1.5390
  326MOL0     H44962   1.458   8.780  -2.747  0.2980 -0.9062  0.5767
  326MOL0     H44963   1.410   8.923  -2.646  4.6745 -3.9648  3.4137
  326MOL0     H44964   1.178   8.889  -2.775 -0.6043  0.2388 -0.4908
  326MOL0     H44965   1.271   8.784  -2.885 -1.4215 -0.8932  2.5896
  326MOL0     H44966   1.337   9.081  -2.830 -1.6684  0.9144  0.1270
  326MOL0     H44967   1.251   9.033  -2.972  1.6006 -0.2301 -2.7573
  326MOL0     H44968   1.588   8.446  -1.982  0.3012 -0.7860 -1.3576
  326MOL0     H44969   1.496   8.284  -1.811 -0.0735  2.1273  2.3833
  326MOL0     H44970   1.022   8.156  -1.610 -0.0033  0.8242 -5.2607
  326MOL0     H44971   0.972   7.985  -1.438 -0.2432 -4.0901  0.4845
  326MOL0     H44972   1.999   7.990  -0.257 -0.8739  0.1821  0.0904
  326MOL0     H44973   2.206   7.994  -0.087 -0.6482 -1.1038 -0.4390
  326MOL0     H44974   2.436   8.077   0.242 -0.6650 -0.0708  0.2980
  326MOL0     H44975   2.523   8.199   0.437  2.2338 -1.5704  0.8682
  326MOL0     H44976   2.588   8.299   0.599  0.1121 -2.9878 -0.2789
  326MOL0     H44977   2.499   8.376   0.724 -2.0732  0.3564 -1.6430
  326MOL0     H44978   2.632   8.159   0.868 -0.3329  1.5339  1.7183
  326MOL0     H44979   2.692   8.323   0.847  0.3951  1.1856 -1.4078
  326MOL0     H44980   2.740   8.061   0.692 -2.6623  1.0294 -1.6005
  326MOL0     H44981   2.795   8.209   0.608  0.5578 -1.7798 -1.2879
  326MOL0     H44982   2.962   8.252   0.804  0.4426 -0.7677  0.7683
  326MOL0     H44983   2.986   8.115   0.698 -0.1817  1.7791 -3.1441
  326MOL0     H44984   2.901   7.916   1.060 -1.4758 -1.0320 -1.9208
  326MOL0     H44985   2.252   8.000   0.689 -1.2427  3.6857 -1.9670
  326MOL0     H44986   2.208   7.726   0.530  0.8079 -0.8172 -0.2671
  326MOL0     H44987   2.099   7.860   0.604 -2.3032 -3.4479 -0.3307
  326MOL0     H44988   2.078   7.799   0.439  0.8099  0.3863 -0.5705
  327MOL0     O44989   2.194  10.647   1.484  0.1370 -0.2871 -0.4813
  327MOL0     C44990   2.182  10.685   1.601  0.1981 -0.0224 -0.3869
  327MOL0     O44991   2.141  10.815   1.633  0.2059 -0.1089 -0.8238
  327MOL0     C44992   2.076  10.884   1.530  1.6014  0.5284 -0.6550
  327MOL0     C44993   2.135  10.980   1.445  0.3140 -0.6825 -0.3648
  327MOL0     C44994   2.063  11.042   1.338 -0.0084  0.0785  0.2874
  327MOL0     C44995   1.930  11.030   1.330  0.8105  0.0491 -0.1023
  327MOL0     O44996   1.854  11.108   1.255  0.6995 -0.1867  1.1145
  327MOL0     C44997   1.828  11.057   1.123  0.4895  0.0495 -0.0178
  327MOL0     C44998   1.932  11.077   1.020 -0.0119  1.0752 -0.4595
  327MOL0     C44999   1.951  11.228   0.988 -0.5115  0.4482 -0.2796
  327MOL0     C45000   2.060  11.226   0.876 -0.6160 -0.7518 -0.0976
  327MOL0     C45001   2.062  11.364   0.805  0.5722 -0.1468 -0.0035
  327MOL0     C45002   2.094  11.338   0.652  0.1728 -0.0171 -1.0170
  327MOL0     C45003   2.123  11.463   0.570  0.1055  0.1567  0.0276
  327MOL0     C45004   2.260  11.521   0.619 -0.5328  1.2093  0.6470
  327MOL0     N45005   2.373  11.431   0.601  0.4331  0.4457  0.6599
  327MOL0     C45006   2.483  11.435   0.679 -0.8933  0.6907 -0.1382
  327MOL0     C45007   2.568  11.362   0.610 -0.2925 -0.4629  0.2178
  327MOL0     C45008   2.712  11.334   0.649  1.1179  0.0664  0.2882
  327MOL0     C45009   2.807  11.433   0.580  0.4476  0.1906  0.1067
  327MOL0     C45010   2.803  11.427   0.429 -0.3743  0.7923  0.6694
  327MOL0     C45011   2.915  11.505   0.364 -0.5848 -0.4500  0.1209
  327MOL0     O45012   2.891  11.643   0.382 -0.8583  0.0776  0.0083
  327MOL0     C45013   2.831  11.719   0.284  0.6014  0.2166  0.6206
  327MOL0     C45014   2.856  11.858   0.293  0.3023 -0.0487 -0.4265
  327MOL0     C45015   2.798  11.951   0.204  0.0417  0.4825  0.4363
  327MOL0     C45016   2.807  12.102   0.241 -0.7748 -0.1918 -0.0499
  327MOL0     C45017   2.723  11.899   0.091  0.6380 -0.4806  0.7002
  327MOL0     C45018   2.667  11.986  -0.016  0.0720 -0.8108 -0.9729
  327MOL0     O45019   2.726  12.112  -0.028 -0.2659  0.3892 -0.2659
  327MOL0     C45020   2.674  12.211  -0.110 -0.1706 -0.3494  0.5478
  327MOL0     C45021   2.766  12.303  -0.147 -0.4895  0.5025 -0.1132
  327MOL0     C45022   2.738  12.396  -0.250  0.3285  0.7440 -0.8203
  327MOL0     C45023   2.609  12.417  -0.298 -0.2432 -0.3062  0.6765
  327MOL0     O45024   2.575  12.495  -0.397 -0.0864 -0.0467 -0.0935
  327MOL0     C45025   2.685  12.526  -0.495  0.5253  0.0323 -0.2913
  327MOL0     C45026   2.621  12.615  -0.600  0.9864 -0.5292  1.1227
  327MOL0     C45027   2.700  12.609  -0.728  0.5475  0.0176  0.3320
  327MOL0     C45028   2.650  12.703  -0.840  1.1937 -0.4944  0.0750
  327MOL0     C45029   2.679  12.859  -0.818 -0.7758  0.0102  0.4308
  327MOL0     C45030   2.654  12.926  -0.957 -0.9417 -0.4456 -0.5365
  327MOL0     C45031   2.682  13.080  -0.952  0.2650  0.4496 -0.7083
  327MOL0     C45032   2.674  13.143  -1.096  0.5605  0.7938  0.4728
  327MOL0    Cl45033   2.502  13.128  -1.161  0.5225  0.3704  0.8469
  327MOL0     C45034   2.513  12.313  -0.262 -0.2507  0.2669  0.1168
  327MOL0     C45035   2.553  12.219  -0.162 -0.4410  0.9350  0.3296
  327MOL0     O45036   2.581  11.940  -0.089 -0.0781 -0.1109  0.3290
  327MOL0     C45037   2.694  11.763   0.090  0.1741  0.5554  0.0014
  327MOL0     C45038   2.749  11.673   0.183  1.2506 -0.2676  0.0149
  327MOL0     N45039   2.506  11.318   0.492 -0.5029 -0.6686  0.1912
  327MOL0     N45040   2.383  11.353   0.496 -0.5025  0.2525  0.2394
  327MOL0     C45041   1.869  10.948   1.422 -1.4816  0.0620  0.0787
  327MOL0     C45042   1.946  10.856   1.506  0.0178 -0.0239  0.0027
  327MOL0     C45043   2.208  10.581   1.704  0.5434  0.2413  0.3831
  327MOL0     C45044   2.213  10.630   1.835  0.7035  0.6713  0.1575
  327MOL0     C45045   2.247  10.542   1.939  0.0240  0.3593  0.7064
  327MOL0     C45046   2.287  10.411   1.917  1.0182 -0.9689  0.1798
  327MOL0     O45047   2.298  10.335   2.025  0.4472 -0.3661  0.1499
  327MOL0     C45048   2.380  10.215   2.021  0.1450  0.1520  0.6633
  327MOL0     C45049   2.408  10.178   2.168  0.0893 -0.5681  0.0696
  327MOL0     C45050   2.534  10.252   2.223  0.0220 -0.1110  0.9404
  327MOL0     C45051   2.591  10.201   2.358 -0.4122 -0.3195 -0.4456
  327MOL0     C45052   2.702  10.276   2.412  0.2350 -0.5374  0.3297
  327MOL0     C45053   2.802  10.337   2.447 -0.4647  0.5995 -1.0347
  327MOL0     C45054   2.294  10.370   1.782 -1.0336  0.0851 -0.1208
  327MOL0     C45055   2.267  10.452   1.673  0.2204  0.3791 -0.1617
  327MOL0     C45056   2.298  10.401   1.534 -0.5954 -0.1834  0.3953
  327MOL0     H45057   2.239  11.007   1.455 -0.1949  0.9748  0.8224
  327MOL0     H45058   2.109  11.109   1.265  1.8363  1.4072  2.5452
  327MOL0     H45059   1.728  11.087   1.092 -0.3922 -1.4648  1.2254
  327MOL0     H45060   1.816  10.948   1.123 -1.9151  0.2292 -1.7619
  327MOL0     H45061   2.026  11.039   1.062 -0.5376 -0.1757 -0.3804
  327MOL0     H45062   1.918  11.022   0.927  3.4509  0.8465 -0.9764
  327MOL0     H45063   1.858  11.275   0.956 -0.9796 -0.1383  0.2150
  327MOL0     H45064   1.994  11.287   1.069 -0.2025  1.1121 -0.9080
  327MOL0     H45065   2.163  11.219   0.911  0.6050  5.0913 -1.5406
  327MOL0     H45066   2.044  11.143   0.806  3.0073 -2.4875  0.8714
  327MOL0     H45067   2.136  11.434   0.845 -1.2014  2.2792 -0.7387
  327MOL0     H45068   1.963  11.407   0.820 -0.9317 -2.5421 -2.2705
  327MOL0     H45069   2.181  11.271   0.658 -0.2993 -0.6511 -1.1059
  327MOL0     H45070   2.015  11.270   0.619 -2.6761  0.2129  4.2798
  327MOL0     H45071   2.059  11.549   0.590  0.6739  0.7360 -0.5789
  327MOL0     H45072   2.121  11.430   0.465 -0.5650 -0.9249  0.3707
  327MOL0     H45073   2.285  11.614   0.566  4.5803  0.3482  1.0856
  327MOL0     H45074   2.260  11.536   0.727 -2.7913  2.5442  0.5327
  327MOL0     H45075   2.506  11.488   0.771  0.5287  1.6101 -0.9901
  327MOL0     H45076   2.722  11.231   0.613 -2.0411 -0.1022 -0.4028
  327MOL0     H45077   2.711  11.336   0.759  1.7030  0.8608  0.2845
  327MOL0     H45078   2.759  11.523   0.620  1.8218  1.7666 -1.5860
  327MOL0     H45079   2.902  11.445   0.633  1.4010  1.9498 -1.8463
  327MOL0     H45080   2.819  11.322   0.403 -1.1518  0.0881  2.8442
  327MOL0     H45081   2.703  11.453   0.392 -0.3037  0.0158 -0.1062
  327MOL0     H45082   3.003  11.497   0.428  0.9406  3.8977 -1.0714
  327MOL0     H45083   2.948  11.475   0.264  1.7716 -2.3630  1.3794
  327MOL0     H45084   2.910  11.903   0.375 -1.4726  1.7099 -0.1303
  327MOL0     H45085   2.868  12.151   0.165  0.1395 -1.1598  0.0422
  327MOL0     H45086   2.840  12.115   0.344 -1.6263  0.2644  0.1734
  327MOL0     H45087   2.707  12.147   0.246 -0.8177 -0.4099  2.8907
  327MOL0     H45088   2.868  12.290  -0.111  0.2028  1.9472 -1.4085
  327MOL0     H45089   2.824  12.453  -0.286  2.1620 -1.9746 -1.0041
  327MOL0     H45090   2.769  12.578  -0.449  1.1884  1.0819 -2.5263
  327MOL0     H45091   2.737  12.439  -0.537  1.0630  0.1285  0.1698
  327MOL0     H45092   2.513  12.609  -0.614  1.2606 -1.8326 -0.8059
  327MOL0     H45093   2.637  12.715  -0.558  2.2269 -0.9554  1.7293
  327MOL0     H45094   2.684  12.511  -0.773 -0.1314  0.1305  0.3051
  327MOL0     H45095   2.807  12.628  -0.717  1.5845 -5.2179  2.2017
  327MOL0     H45096   2.546  12.687  -0.869  0.7466  0.0753  1.3020
  327MOL0     H45097   2.706  12.665  -0.926 -0.3541 -2.2370 -0.2266
  327MOL0     H45098   2.607  12.898  -0.745 -2.7959  1.4959 -2.1792
  327MOL0     H45099   2.783  12.867  -0.784 -1.5750  0.8778  2.9348
  327MOL0     H45100   2.555  12.900  -0.998 -1.1841 -0.9067  0.3127
  327MOL0     H45101   2.724  12.869  -1.019 -0.5414 -2.5841  1.7232
  327MOL0     H45102   2.780  13.104  -0.911 -0.4855  2.6434 -0.0842
  327MOL0     H45103   2.601  13.120  -0.891  0.8506 -0.3889  0.6584
  327MOL0     H45104   2.740  13.089  -1.166  1.8940  2.2814  0.5122
  327MOL0     H45105   2.712  13.246  -1.090 -0.1578  1.1183 -0.2839
  327MOL0     H45106   2.411  12.313  -0.299 -0.7527 -0.0152  1.4473
  327MOL0     H45107   2.466  12.161  -0.132 -2.0957  2.2074 -1.7086
  327MOL0     H45108   2.626  11.714   0.021  2.5729 -0.0043 -2.1071
  327MOL0     H45109   2.726  11.567   0.179  0.9359 -0.2603  1.3655
  327MOL0     H45110   1.762  10.936   1.425 -1.4311 -0.3074  0.5914
  327MOL0     H45111   1.916  10.767   1.560 -0.4798 -0.4650 -0.9699
  327MOL0     H45112   2.179  10.732   1.851 -0.4365 -0.0558  2.9429
  327MOL0     H45113   2.215  10.576   2.038 -6.7036  0.4507 -0.9993
  327MOL0     H45114   2.325  10.129   1.982 -1.0340  1.2782 -0.2650
  327MOL0     H45115   2.474  10.238   1.969  0.3546  2.2331  1.8482
  327MOL0     H45116   2.444  10.075   2.183 -0.4998 -0.8110 -0.1619
  327MOL0     H45117   2.312  10.188   2.221 -0.3786 -4.5146  0.2701
  327MOL0     H45118   2.606  10.250   2.141 -1.4838  1.1632 -0.4910
  327MOL0     H45119   2.517  10.359   2.231  1.7343  0.1347  1.7650
  327MOL0     H45120   2.630  10.098   2.349  2.5440  0.7717 -1.4467
  327MOL0     H45121   2.513  10.210   2.433  1.1387  1.2867  1.0695
  327MOL0     H45122   2.890  10.376   2.494 -1.0552  0.8711 -0.1165
  327MOL0     H45123   2.320  10.267   1.761  2.8185  0.4693  1.8421
  327MOL0     H45124   2.219  10.409   1.459  0.3394 -2.4341 -0.9379
  327MOL0     H45125   2.386  10.458   1.505 -0.1423 -0.0915  1.8456
  327MOL0     H45126   2.315  10.294   1.519 -2.8383 -0.2251 -3.0808
  328MOL0     O45127   3.711   8.921   4.803  0.2344 -0.3217 -0.4715
  328MOL0     C45128   3.686   9.005   4.725  0.0113 -0.7328  0.6265
  328MOL0     O45129   3.702   8.998   4.591 -0.9328  1.3013 -0.2562
  328MOL0     C45130   3.734   8.872   4.549 -0.3305  0.8166 -0.2569
  328MOL0     C45131   3.638   8.768   4.532  0.5971  0.0409  0.0835
  328MOL0     C45132   3.669   8.643   4.493  0.0690 -0.0567 -0.5242
  328MOL0     C45133   3.800   8.621   4.443  0.5792 -0.5071 -0.2736
  328MOL0     O45134   3.827   8.504   4.374 -0.4108  0.0512  0.5030
  328MOL0     C45135   3.793   8.386   4.445  0.4619  0.6021 -0.0863
  328MOL0     C45136   3.837   8.257   4.367  0.2814  0.2299 -0.1186
  328MOL0     C45137   3.817   8.120   4.430 -0.6223 -0.3365  0.0321
  328MOL0     C45138   3.815   8.013   4.320  0.3792  0.3328  0.4958
  328MOL0     C45139   3.803   7.881   4.381  1.3373  0.7544  0.1112
  328MOL0     C45140   3.812   7.769   4.282 -0.1037  0.1858  0.5487
  328MOL0     C45141   3.790   7.629   4.346  0.8351  0.1052  0.0102
  328MOL0     C45142   3.833   7.516   4.248 -0.6873 -0.4787 -0.1516
  328MOL0     N45143   3.765   7.532   4.120 -0.3784 -0.1300  0.3524
  328MOL0     C45144   3.810   7.594   4.008 -0.3295 -1.0043 -0.5500
  328MOL0     C45145   3.718   7.565   3.914  0.5357 -0.0297  0.5454
  328MOL0     C45146   3.701   7.621   3.780 -0.6697  0.4342  0.5536
  328MOL0     C45147   3.660   7.531   3.666  0.5124  0.2356 -0.2590
  328MOL0     C45148   3.768   7.426   3.642  0.2988 -0.4583  0.1911
  328MOL0     C45149   3.733   7.347   3.525 -0.8683  0.4429 -0.9198
  328MOL0     O45150   3.817   7.223   3.529 -0.0038  0.3929 -0.3737
  328MOL0     C45151   3.949   7.232   3.489 -0.0341 -0.8199  0.4506
  328MOL0     C45152   4.066   7.229   3.570  1.3620 -0.4779  0.7461
  328MOL0     C45153   4.196   7.231   3.524  0.0316  1.4280 -0.5642
  328MOL0     C45154   4.317   7.252   3.610  0.1130 -0.8888  0.3928
  328MOL0     C45155   4.204   7.216   3.383  0.0448  0.4348 -0.4281
  328MOL0     C45156   4.330   7.194   3.302 -0.3062  0.0423  0.2161
  328MOL0     O45157   4.327   7.200   3.165 -0.5681 -0.0540 -0.2200
  328MOL0     C45158   4.435   7.142   3.100 -0.1425  0.7761  0.8473
  328MOL0     C45159   4.561   7.203   3.076  0.2629  1.5616 -0.5956
  328MOL0     C45160   4.666   7.123   3.019 -0.0783  0.7878  1.4974
  328MOL0     C45161   4.629   6.998   2.958 -0.0782  0.0696 -0.8951
  328MOL0     O45162   4.707   6.909   2.902  0.2422 -0.1715  0.0700
  328MOL0     C45163   4.853   6.929   2.917  0.6614 -0.2735  0.1223
  328MOL0     C45164   4.927   6.806   2.888 -0.3121  0.1346  0.2705
  328MOL0     C45165   5.063   6.813   2.948  0.1616  0.5939  0.1702
  328MOL0     C45166   5.072   6.751   3.092  0.1187  0.7790  0.0525
  328MOL0     C45167   5.108   6.604   3.093 -0.1153 -0.3489 -0.8018
  328MOL0     C45168   4.994   6.512   3.044  0.1182  0.4597 -0.2063
  328MOL0     C45169   5.025   6.368   3.067 -0.8356 -0.0625  0.3390
  328MOL0     C45170   4.963   6.287   2.946 -1.3206  0.5828 -0.0845
  328MOL0    Cl45171   5.012   6.122   2.966  0.6395 -0.1415  0.4507
  328MOL0     C45172   4.507   6.942   2.981  1.2074  0.7467  0.2329
  328MOL0     C45173   4.415   7.009   3.057  0.9419 -0.4596 -0.0751
  328MOL0     O45174   4.422   7.140   3.372 -0.3819 -0.7474  0.0573
  328MOL0     C45175   4.090   7.204   3.295 -0.4555  0.1072 -0.2991
  328MOL0     C45176   3.960   7.216   3.357 -0.3658 -0.9566  0.7670
  328MOL0     N45177   3.639   7.457   3.959  0.1842 -0.2059  0.1418
  328MOL0     N45178   3.672   7.439   4.087 -0.0374 -0.5135  0.0615
  328MOL0     C45179   3.905   8.715   4.459 -0.4239  0.1866  0.7161
  328MOL0     C45180   3.870   8.834   4.517  0.0439 -1.1052 -0.1117
  328MOL0     C45181   3.644   9.129   4.795 -0.8279 -0.3220 -0.5002
  328MOL0     C45182   3.552   9.131   4.898 -0.3820 -0.1234 -1.0025
  328MOL0     C45183   3.513   9.242   4.971  0.5505  1.1734  0.7527
  328MOL0     C45184   3.584   9.362   4.945  1.2915  1.1038 -0.9161
  328MOL0     O45185   3.535   9.467   5.019 -0.1717 -0.0906 -0.1469
  328MOL0     C45186   3.572   9.596   4.972 -0.8262  0.2414  0.5933
  328MOL0     C45187   3.500   9.639   4.836 -0.3080  0.3913 -0.6411
  328MOL0     C45188   3.348   9.663   4.833  0.9287  0.2928 -0.1684
  328MOL0     C45189   3.279   9.527   4.851  0.2289 -0.7067 -0.0260
  328MOL0     C45190   3.135   9.552   4.855  0.3395  0.4213  0.3320
  328MOL0     C45191   3.017   9.582   4.852 -0.7640  0.9447 -0.2886
  328MOL0     C45192   3.676   9.372   4.838  0.0264  0.8099  0.3993
  328MOL0     C45193   3.705   9.256   4.762  0.7188 -0.9896  0.1610
  328MOL0     C45194   3.808   9.284   4.652  0.9828  0.5594 -0.2034
  328MOL0     H45195   3.534   8.788   4.556  1.1996  0.7100  2.4578
  328MOL0     H45196   3.591   8.567   4.491  0.7691 -0.7683 -1.2725
  328MOL0     H45197   3.687   8.373   4.469  0.7889 -0.8399  0.6816
  328MOL0     H45198   3.846   8.390   4.541 -1.1568 -0.5772  0.9175
  328MOL0     H45199   3.780   8.252   4.274 -2.6955 -1.3154  1.6547
  328MOL0     H45200   3.943   8.267   4.341  1.3608 -0.9551  3.2460
  328MOL0     H45201   3.898   8.094   4.498  1.9510 -1.7352 -3.3063
  328MOL0     H45202   3.724   8.117   4.489  0.6498  1.1613  2.2439
  328MOL0     H45203   3.737   8.036   4.247  0.7174 -3.0354 -1.0985
  328MOL0     H45204   3.910   8.009   4.265 -1.2277 -0.3160 -2.4303
  328MOL0     H45205   3.704   7.883   4.427 -0.6041  1.6484 -3.6503
  328MOL0     H45206   3.873   7.862   4.462  2.7554 -1.9797 -1.5943
  328MOL0     H45207   3.734   7.779   4.205 -0.8141 -2.1529  0.8985
  328MOL0     H45208   3.908   7.774   4.230 -1.6105  1.9313 -2.3932
  328MOL0     H45209   3.684   7.619   4.370  0.6233 -0.4737 -1.1123
  328MOL0     H45210   3.841   7.626   4.443  1.0670  1.5107 -0.0515
  328MOL0     H45211   3.939   7.529   4.224 -0.9616 -3.1455 -3.6941
  328MOL0     H45212   3.814   7.414   4.281 -2.2762 -0.2353 -0.1975
  328MOL0     H45213   3.882   7.675   4.003 -2.6327  1.1290 -0.7306
  328MOL0     H45214   3.789   7.680   3.752 -1.1139  1.1093  0.5790
  328MOL0     H45215   3.618   7.690   3.799  1.5060  3.0108  1.3373
  328MOL0     H45216   3.564   7.483   3.683  0.7592 -2.2167 -4.4556
  328MOL0     H45217   3.645   7.579   3.569  1.0001 -1.2470 -1.1011
  328MOL0     H45218   3.863   7.477   3.624 -0.6506  0.8704 -1.4163
  328MOL0     H45219   3.772   7.355   3.725  1.7831  0.2891  0.7912
  328MOL0     H45220   3.629   7.315   3.541 -0.0275 -1.8255  0.5873
  328MOL0     H45221   3.740   7.401   3.431  2.9501 -0.6214 -1.4140
  328MOL0     H45222   4.058   7.230   3.678 -1.2704  1.8020  0.6496
  328MOL0     H45223   4.290   7.293   3.708  0.6061  0.9128 -0.1845
  328MOL0     H45224   4.382   7.331   3.572  0.0385 -0.7987  0.4493
  328MOL0     H45225   4.380   7.166   3.633  3.3594  1.0416 -0.6962
  328MOL0     H45226   4.575   7.306   3.109 -0.1697  1.9207 -1.4817
  328MOL0     H45227   4.769   7.152   3.004  1.5914 -4.9272 -0.3800
  328MOL0     H45228   4.887   6.996   2.837 -2.1005 -2.0652 -2.8055
  328MOL0     H45229   4.872   6.968   3.017 -1.9955  0.2233  0.5169
  328MOL0     H45230   4.864   6.725   2.925 -1.0501  0.7356  0.3665
  328MOL0     H45231   4.944   6.783   2.783  1.9015  0.4714  0.5063
  328MOL0     H45232   5.102   6.916   2.945  1.0954  0.2278 -2.1222
  328MOL0     H45233   5.131   6.751   2.889  0.6540 -1.5207  2.7593
  328MOL0     H45234   4.978   6.769   3.145  0.1911  1.4159 -0.0335
  328MOL0     H45235   5.151   6.802   3.147 -0.5397 -1.7143  3.6284
  328MOL0     H45236   5.198   6.588   3.033 -1.7032 -3.6216 -2.5462
  328MOL0     H45237   5.131   6.570   3.194  2.4562  1.7580 -0.5674
  328MOL0     H45238   4.990   6.534   2.937 -1.8480  1.8712  0.1169
  328MOL0     H45239   4.899   6.547   3.085  0.6985  2.0763 -0.1819
  328MOL0     H45240   4.994   6.330   3.164  0.6029 -1.6269  0.2294
  328MOL0     H45241   5.134   6.361   3.066 -0.9346 -3.3589  1.3612
  328MOL0     H45242   4.999   6.323   2.850 -1.1076 -0.8559 -0.5652
  328MOL0     H45243   4.854   6.283   2.944 -1.4387 -2.4586  2.8360
  328MOL0     H45244   4.490   6.841   2.945  1.0676  1.0332 -0.5278
  328MOL0     H45245   4.316   6.969   3.070  0.7906  0.0290  0.3203
  328MOL0     H45246   4.077   7.192   3.188 -2.2124  0.1095 -0.1249
  328MOL0     H45247   3.879   7.209   3.286 -0.6251 -1.3215  1.0915
  328MOL0     H45248   4.009   8.692   4.442  0.1662  0.3721  3.5472
  328MOL0     H45249   3.943   8.914   4.526 -0.1115 -0.6194 -2.5068
  328MOL0     H45250   3.513   9.031   4.915  3.2148 -1.6728 -0.9183
  328MOL0     H45251   3.445   9.237   5.055  0.2014  0.0130  0.4261
  328MOL0     H45252   3.540   9.667   5.049  1.9991  3.0163 -0.5341
  328MOL0     H45253   3.680   9.610   4.981 -1.0599  1.3394  2.0625
  328MOL0     H45254   3.529   9.565   4.761  2.3699  0.6389  0.0445
  328MOL0     H45255   3.551   9.730   4.804  3.1277 -0.5644  1.5834
  328MOL0     H45256   3.311   9.726   4.915 -1.1808 -3.4113  2.0273
  328MOL0     H45257   3.312   9.706   4.739 -0.9253 -1.6041 -0.3928
  328MOL0     H45258   3.310   9.483   4.946 -0.3799  4.2044  2.8123
  328MOL0     H45259   3.304   9.467   4.763  0.9745  0.7539 -0.8455
  328MOL0     H45260   2.911   9.591   4.843 -1.1965 -2.4714  0.0852
  328MOL0     H45261   3.730   9.464   4.824  1.4624  0.7380  4.3251
  328MOL0     H45262   3.904   9.241   4.682  1.4155  0.3863 -1.7777
  328MOL0     H45263   3.779   9.226   4.564  0.1614 -0.0682  0.4690
  328MOL0     H45264   3.808   9.386   4.612 -0.2962  0.7938  0.3639
  329MOL0     O45265   4.258   5.959   4.210 -0.5677  0.0374 -0.2500
  329MOL0     C45266   4.194   5.871   4.267  0.8566 -0.2157  0.2565
  329MOL0     O45267   4.232   5.781   4.360 -0.8572 -0.1354 -0.2515
  329MOL0     C45268   4.367   5.790   4.378  0.5090  0.5265  1.5633
  329MOL0     C45269   4.417   5.820   4.505 -0.3048 -0.0067 -0.6646
  329MOL0     C45270   4.556   5.820   4.524 -0.6497  0.5123  0.9234
  329MOL0     C45271   4.647   5.788   4.420 -0.1745  0.3916 -0.9043
  329MOL0     O45272   4.790   5.774   4.423  0.0217 -0.7032  0.6469
  329MOL0     C45273   4.866   5.830   4.523 -0.1270  0.2792  0.5994
  329MOL0     C45274   5.012   5.800   4.493  0.1774 -0.1592  0.6687
  329MOL0     C45275   5.087   5.870   4.601 -0.1122 -0.1326 -0.7784
  329MOL0     C45276   5.237   5.860   4.557 -0.3603  0.2371 -0.1206
  329MOL0     C45277   5.340   5.907   4.668 -0.8384  0.5508 -0.5688
  329MOL0     C45278   5.487   5.874   4.641  0.5680 -0.6899 -0.4544
  329MOL0     C45279   5.581   5.925   4.748  0.9976 -0.8827 -0.6775
  329MOL0     C45280   5.585   5.850   4.876 -0.1020 -0.1125 -0.5747
  329MOL0     N45281   5.671   5.913   4.979  0.0406  0.4826 -0.1402
  329MOL0     C45282   5.632   6.010   5.067 -0.0599  0.5243  0.1119
  329MOL0     C45283   5.736   6.034   5.149 -0.5598  0.0198 -0.4540
  329MOL0     C45284   5.719   6.125   5.267 -0.6728  1.3980  0.7602
  329MOL0     C45285   5.690   6.266   5.228  0.6210 -0.7029  0.5589
  329MOL0     C45286   5.766   6.315   5.100 -0.3220  1.1827  0.4589
  329MOL0     C45287   5.721   6.450   5.047  0.1866  0.1519  0.2300
  329MOL0     O45288   5.590   6.438   5.002  0.6481  0.4814 -0.8868
  329MOL0     C45289   5.563   6.402   4.869  0.0701 -0.1070  0.0577
  329MOL0     C45290   5.651   6.373   4.767 -0.8690 -0.7971 -0.6092
  329MOL0     C45291   5.604   6.322   4.646  0.5202  0.5465 -0.2094
  329MOL0     C45292   5.715   6.265   4.552 -0.3385 -0.7496  0.5534
  329MOL0     C45293   5.466   6.299   4.613 -0.3726 -0.2357 -0.0170
  329MOL0     C45294   5.405   6.249   4.481  0.9839 -0.4507 -0.0235
  329MOL0     O45295   5.271   6.258   4.476  0.9398 -0.0788 -0.3845
  329MOL0     C45296   5.209   6.260   4.354  0.3903 -0.0010  0.5176
  329MOL0     C45297   5.093   6.183   4.323  0.3287  0.1455  0.3211
  329MOL0     C45298   5.044   6.193   4.191  0.3746 -0.6623 -0.2375
  329MOL0     C45299   5.080   6.294   4.104 -0.5787 -0.0446  0.0412
  329MOL0     O45300   4.996   6.321   3.995 -0.0263  0.4732  0.3403
  329MOL0     C45301   5.056   6.342   3.862  0.2868 -1.2718  0.1588
  329MOL0     C45302   4.965   6.318   3.739  0.0359  0.1442 -0.2380
  329MOL0     C45303   4.940   6.168   3.716  0.2600  1.2412 -0.1567
  329MOL0     C45304   4.825   6.150   3.623 -0.3062  1.2355  0.0573
  329MOL0     C45305   4.879   6.130   3.478 -0.6207 -0.4126  0.2920
  329MOL0     C45306   4.951   5.999   3.455  0.0837 -0.0052  1.0231
  329MOL0     C45307   5.006   6.005   3.312 -0.0287  0.6192 -0.6079
  329MOL0     C45308   5.085   5.869   3.279 -0.4022  0.0810 -0.4484
  329MOL0    Cl45309   5.247   5.858   3.371  0.0427 -0.1430 -0.3864
  329MOL0     C45310   5.180   6.384   4.146  0.4997 -0.3795  0.3357
  329MOL0     C45311   5.248   6.362   4.263  0.5929  0.5461 -0.4296
  329MOL0     O45312   5.469   6.195   4.396  0.4398 -0.1474  0.3534
  329MOL0     C45313   5.381   6.353   4.716  0.0209  1.0523  0.7057
  329MOL0     C45314   5.425   6.401   4.834  0.2891  1.4772 -0.7816
  329MOL0     N45315   5.841   5.942   5.110  0.5243  0.2292 -0.4064
  329MOL0     N45316   5.797   5.870   5.003  0.3233 -0.1788 -1.0678
  329MOL0     C45317   4.595   5.754   4.300 -0.0620  1.0059 -1.3469
  329MOL0     C45318   4.461   5.747   4.278 -0.0506  0.4350  0.6859
  329MOL0     C45319   4.041   5.882   4.245  0.3565  0.4582  0.2063
  329MOL0     C45320   3.964   5.782   4.299 -0.2580  0.1920  0.7732
  329MOL0     C45321   3.826   5.784   4.282 -0.1714 -0.7394  0.6127
  329MOL0     C45322   3.763   5.888   4.223  0.5526 -0.6475  0.8847
  329MOL0     O45323   3.623   5.890   4.214 -0.0189  0.4247 -0.1229
  329MOL0     C45324   3.572   5.952   4.329  0.8393 -0.6325 -0.2080
  329MOL0     C45325   3.450   6.029   4.294 -0.3920  0.2205  0.1253
  329MOL0     C45326   3.468   6.149   4.209 -0.5386  0.1222  0.2388
  329MOL0     C45327   3.327   6.210   4.166  0.2656  0.5677 -0.8419
  329MOL0     C45328   3.362   6.306   4.058 -0.7584 -0.5948  0.2096
  329MOL0     C45329   3.392   6.395   3.975  1.4490 -0.8998 -0.5563
  329MOL0     C45330   3.835   5.988   4.173  0.7582  0.3813 -0.5214
  329MOL0     C45331   3.976   5.990   4.172  0.2321 -0.1349  0.7341
  329MOL0     C45332   4.044   6.114   4.128  0.0373 -0.2463  0.8227
  329MOL0     H45333   4.353   5.843   4.589  0.6615  0.9292 -0.1622
  329MOL0     H45334   4.590   5.855   4.620 -3.8116  3.8236  1.0681
  329MOL0     H45335   4.849   5.774   4.616  0.8562 -2.8998 -0.9756
  329MOL0     H45336   4.852   5.938   4.523 -1.6030  0.1348 -1.1140
  329MOL0     H45337   5.037   5.694   4.484 -0.2686 -0.5714  3.3909
  329MOL0     H45338   5.049   5.854   4.406  1.9195  1.5341  2.3472
  329MOL0     H45339   5.063   5.977   4.593 -1.6084 -0.4907 -1.4463
  329MOL0     H45340   5.062   5.830   4.699  2.5500 -0.2778 -0.0753
  329MOL0     H45341   5.260   5.756   4.534 -3.2172 -0.5254  0.0026
  329MOL0     H45342   5.251   5.925   4.470 -1.1029  0.4669 -0.0810
  329MOL0     H45343   5.317   5.851   4.759 -0.9558 -2.3195 -2.2330
  329MOL0     H45344   5.335   6.015   4.683  0.6182  0.6039 -0.2973
  329MOL0     H45345   5.504   5.767   4.629  0.9650 -0.4707 -1.9771
  329MOL0     H45346   5.518   5.909   4.543 -2.9181 -1.9900 -2.2000
  329MOL0     H45347   5.558   6.030   4.769 -0.6102 -1.4065  0.2942
  329MOL0     H45348   5.685   5.930   4.715  0.8501  3.0909 -1.0433
  329MOL0     H45349   5.488   5.814   4.912  0.1672 -1.3951 -1.0971
  329MOL0     H45350   5.640   5.758   4.855 -0.3171 -0.6230  0.9735
  329MOL0     H45351   5.534   6.056   5.060  1.1634  3.3104  0.0370
  329MOL0     H45352   5.811   6.116   5.326  0.6976 -5.0702 -1.5640
  329MOL0     H45353   5.637   6.091   5.331 -3.8983  0.0673 -3.6147
  329MOL0     H45354   5.582   6.270   5.214  0.4673 -0.0390  1.8502
  329MOL0     H45355   5.703   6.330   5.315 -0.1949  0.5338 -0.1910
  329MOL0     H45356   5.872   6.313   5.128 -0.1577 -1.3932 -0.0556
  329MOL0     H45357   5.755   6.240   5.021  3.7880 -2.1447  2.6254
  329MOL0     H45358   5.727   6.514   5.136 -2.7129 -1.1257  1.4865
  329MOL0     H45359   5.791   6.498   4.978  2.0616  2.0472  3.1779
  329MOL0     H45360   5.758   6.387   4.782 -0.8727  1.3740 -2.1492
  329MOL0     H45361   5.706   6.319   4.457  2.0441  3.5100  2.4770
  329MOL0     H45362   5.689   6.158   4.556 -1.7275 -0.4404  0.4587
  329MOL0     H45363   5.818   6.275   4.588 -0.0576  0.0236 -0.4113
  329MOL0     H45364   5.060   6.095   4.378 -1.2505 -2.4913 -4.3131
  329MOL0     H45365   4.967   6.123   4.163  0.5645 -0.4651 -1.2672
  329MOL0     H45366   5.091   6.446   3.867 -0.8928 -0.8884  0.7596
  329MOL0     H45367   5.148   6.284   3.856 -1.0579 -3.5863  0.6065
  329MOL0     H45368   4.876   6.382   3.752 -0.1720  0.3258 -2.3026
  329MOL0     H45369   5.010   6.355   3.647  0.7860  2.7698  1.0637
  329MOL0     H45370   4.934   6.130   3.819 -0.2258  0.8671 -0.3235
  329MOL0     H45371   5.032   6.122   3.679 -1.0520 -2.2263  0.4596
  329MOL0     H45372   4.761   6.240   3.622 -0.6142  1.0220 -1.2006
  329MOL0     H45373   4.778   6.061   3.666 -0.3348  1.1486 -0.1572
  329MOL0     H45374   4.807   6.140   3.396  1.6492  0.6011 -1.7017
  329MOL0     H45375   4.939   6.220   3.457 -2.6330 -0.0269 -5.7415
  329MOL0     H45376   4.881   5.914   3.463 -1.3326  1.3099  5.1748
  329MOL0     H45377   5.038   5.985   3.521  2.5305  0.8506 -1.8161
  329MOL0     H45378   5.081   6.083   3.295 -0.7867  1.0655 -2.1490
  329MOL0     H45379   4.922   6.022   3.244  0.1276 -0.8833 -1.2132
  329MOL0     H45380   5.120   5.887   3.177  1.6445 -1.4296 -0.0643
  329MOL0     H45381   5.027   5.778   3.299 -1.8579  1.0172 -0.2856
  329MOL0     H45382   5.203   6.465   4.078 -0.9416 -1.5905 -1.7021
  329MOL0     H45383   5.323   6.426   4.308 -0.8902  1.0232  1.4514
  329MOL0     H45384   5.277   6.321   4.709  0.5785 -1.0196  1.2934
  329MOL0     H45385   5.351   6.409   4.913 -1.2281  0.1621 -2.0248
  329MOL0     H45386   4.654   5.708   4.221 -0.6946 -4.1847  0.8451
  329MOL0     H45387   4.417   5.707   4.187 -1.3455  0.4242  1.2948
  329MOL0     H45388   4.007   5.697   4.350  0.8587 -2.3630 -3.8481
  329MOL0     H45389   3.769   5.702   4.326  0.1686 -1.3523 -0.0769
  329MOL0     H45390   3.544   5.876   4.403  0.7879 -4.3200 -3.6762
  329MOL0     H45391   3.638   6.031   4.367 -2.2535  2.6264 -1.0332
  329MOL0     H45392   3.424   6.077   4.389  0.7138 -0.2662  0.6853
  329MOL0     H45393   3.367   5.963   4.267  0.7393 -1.0215 -0.4447
  329MOL0     H45394   3.530   6.225   4.259 -0.0464 -1.5930  2.3965
  329MOL0     H45395   3.528   6.129   4.120 -0.6320  0.2268  0.1528
  329MOL0     H45396   3.290   6.245   4.263  0.0198  1.6881 -1.3179
  329MOL0     H45397   3.252   6.136   4.137  0.3263  0.7422 -1.4505
  329MOL0     H45398   3.412   6.474   3.905 -3.4601 -0.4362 -1.7905
  329MOL0     H45399   3.787   6.068   4.117 -0.7839  0.0580  0.2871
  329MOL0     H45400   4.089   6.167   4.212  0.2847  1.4485 -0.3316
  329MOL0     H45401   4.125   6.094   4.057  0.9591 -0.1951  1.8409
  329MOL0     H45402   3.969   6.177   4.079  0.3422 -1.4299 -1.3005
  330MOL0     O45403   1.202   9.520   4.050  0.6130 -0.1934  0.1331
  330MOL0     C45404   1.194   9.476   4.168  0.1422  0.3515  0.3176
  330MOL0     O45405   1.088   9.502   4.244  0.5280 -0.4551 -0.1097
  330MOL0     C45406   0.979   9.561   4.183  0.3158 -0.4506 -0.1243
  330MOL0     C45407   0.967   9.698   4.187 -0.0290  0.2755 -0.3079
  330MOL0     C45408   0.857   9.754   4.134 -1.2589  0.5904  0.0345
  330MOL0     C45409   0.750   9.672   4.087 -0.0963  0.1980 -1.0014
  330MOL0     O45410   0.646   9.737   4.039 -0.3017  0.8728 -0.9104
  330MOL0     C45411   0.564   9.802   4.134  0.5050  1.1484  0.4740
  330MOL0     C45412   0.488   9.911   4.055  0.1242  0.3097 -0.0612
  330MOL0     C45413   0.573  10.032   4.028  0.0727  0.3584 -0.3008
  330MOL0     C45414   0.485  10.152   3.998  1.3500  0.4720 -0.7727
  330MOL0     C45415   0.564  10.280   3.977  0.0068  0.0874  0.1055
  330MOL0     C45416   0.480  10.397   3.945 -0.6149  0.6699  0.3578
  330MOL0     C45417   0.563  10.527   3.907  0.4911  0.1472 -0.7203
  330MOL0     C45418   0.676  10.556   4.001  0.0259  0.9059  0.2293
  330MOL0     N45419   0.627  10.595   4.137 -0.3995  0.0695 -0.1850
  330MOL0     C45420   0.693  10.597   4.256 -0.3695  0.7804  0.2713
  330MOL0     C45421   0.613  10.644   4.352 -0.5133 -0.1139  0.7396
  330MOL0     C45422   0.652  10.671   4.497  0.2698 -0.5262 -0.4951
  330MOL0     C45423   0.603  10.563   4.594 -0.3889  0.5736 -0.8111
  330MOL0     C45424   0.621  10.608   4.735 -0.0565  0.3958 -0.0696
  330MOL0     C45425   0.594  10.487   4.821  0.4028 -0.8142  0.1845
  330MOL0     O45426   0.697  10.386   4.810  0.2191 -0.4192  0.2820
  330MOL0     C45427   0.811  10.390   4.897  0.4065  0.8273  0.3864
  330MOL0     C45428   0.899  10.273   4.894 -0.1152  0.1145  0.7868
  330MOL0     C45429   1.001  10.260   4.984 -0.7491  0.5958 -1.1368
  330MOL0     C45430   1.073  10.121   4.987  1.5259 -0.4690 -0.2176
  330MOL0     C45431   1.028  10.360   5.079 -0.2622 -0.2274 -0.2998
  330MOL0     C45432   1.137  10.352   5.184  0.2600 -0.6138 -0.2335
  330MOL0     O45433   1.126  10.446   5.279  0.2478  0.2091  0.3667
  330MOL0     C45434   1.191  10.438   5.399 -0.6560  1.2619  0.1867
  330MOL0     C45435   1.118  10.443   5.520  0.2131 -0.6797 -0.2946
  330MOL0     C45436   1.186  10.448   5.644  0.3009 -0.3679  0.8504
  330MOL0     C45437   1.322  10.457   5.648 -1.0662  0.0119 -0.0120
  330MOL0     O45438   1.384  10.443   5.777  0.4635 -0.0342  0.0218
  330MOL0     C45439   1.500  10.527   5.795 -0.2376  0.5402  0.1800
  330MOL0     C45440   1.562  10.492   5.923 -0.0763 -0.0149  0.1876
  330MOL0     C45441   1.629  10.359   5.928  0.5526  0.1056  0.6349
  330MOL0     C45442   1.676  10.332   6.064 -0.7770 -1.0012 -0.5429
  330MOL0     C45443   1.782  10.222   6.057  0.4499  0.0132 -0.1679
  330MOL0     C45444   1.835  10.184   6.198  0.0549 -0.1143  0.0593
  330MOL0     C45445   1.951  10.081   6.206  0.3349  0.0407  0.0066
  330MOL0     C45446   1.905   9.945   6.166  0.8506 -0.3166  0.1924
  330MOL0    Cl45447   1.818   9.846   6.294 -0.2142 -0.3755  0.2623
  330MOL0     C45448   1.400  10.461   5.525  0.0597  0.1534 -0.7014
  330MOL0     C45449   1.331  10.452   5.402 -0.6198  0.8096 -0.2589
  330MOL0     O45450   1.225  10.266   5.187  0.4102  0.1409 -0.2079
  330MOL0     C45451   0.951  10.475   5.075  0.1524 -0.6529 -0.1326
  330MOL0     C45452   0.840  10.492   4.983 -0.3296  1.0851 -0.2020
  330MOL0     N45453   0.491  10.663   4.299 -0.4719 -0.5765  0.6151
  330MOL0     N45454   0.501  10.638   4.174 -0.2823 -0.5673 -0.1469
  330MOL0     C45455   0.762   9.539   4.075 -0.5472  0.8534 -0.6826
  330MOL0     C45456   0.875   9.480   4.119 -2.0079 -0.4003 -0.8767
  330MOL0     C45457   1.301   9.386   4.215 -0.5569 -0.2968  0.2190
  330MOL0     C45458   1.258   9.273   4.285  0.5813  0.8959 -0.2597
  330MOL0     C45459   1.353   9.163   4.302  0.1480 -0.0806 -0.0361
  330MOL0     C45460   1.488   9.187   4.273 -0.6202 -0.8838  0.7681
  330MOL0     O45461   1.567   9.075   4.289 -0.0387 -0.0115  0.1937
  330MOL0     C45462   1.692   9.061   4.206  0.8861 -1.1318  0.8158
  330MOL0     C45463   1.767   8.933   4.253  0.3060  0.4616 -0.0885
  330MOL0     C45464   1.711   8.795   4.188  0.0247 -0.2527 -0.1938
  330MOL0     C45465   1.805   8.683   4.226  0.9080  0.0935 -0.5837
  330MOL0     C45466   1.939   8.711   4.184  0.3034  0.7573  0.2680
  330MOL0     C45467   2.054   8.744   4.147  0.0504  0.4192  0.5423
  330MOL0     C45468   1.527   9.313   4.213 -0.5344 -0.0064  0.3049
  330MOL0     C45469   1.436   9.409   4.181 -0.4210  0.1706  0.4665
  330MOL0     C45470   1.487   9.525   4.097  0.7240 -0.6571 -0.8802
  330MOL0     H45471   1.032   9.762   4.247 -0.3117  1.3525 -1.1184
  330MOL0     H45472   0.849   9.862   4.124  3.3122  1.1059 -0.3390
  330MOL0     H45473   0.617   9.838   4.222  0.2589 -2.6149  2.3193
  330MOL0     H45474   0.482   9.736   4.165 -1.3080  0.6364 -4.4062
  330MOL0     H45475   0.463   9.877   3.954  2.1131 -2.5730  0.3147
  330MOL0     H45476   0.394   9.936   4.106  0.4470  0.8906  0.2520
  330MOL0     H45477   0.631  10.065   4.115  0.2582 -1.3744  0.2735
  330MOL0     H45478   0.639  10.012   3.943 -0.8249  1.6359 -1.3348
  330MOL0     H45479   0.418  10.137   3.913 -1.7553  0.3788  1.5423
  330MOL0     H45480   0.414  10.163   4.080 -1.1722 -3.5806 -2.1298
  330MOL0     H45481   0.637  10.255   3.900 -2.7931 -0.0643 -2.7049
  330MOL0     H45482   0.618  10.306   4.069  1.4593  2.2092 -1.2712
  330MOL0     H45483   0.406  10.381   3.866  0.2744 -1.3070 -0.1381
  330MOL0     H45484   0.425  10.413   4.038 -1.3497 -0.3785  0.1216
  330MOL0     H45485   0.496  10.614   3.913 -2.2498 -1.8730 -0.1152
  330MOL0     H45486   0.606  10.519   3.807 -0.0813  1.3643 -1.0885
  330MOL0     H45487   0.747  10.474   4.011  1.4369  2.0069 -0.3713
  330MOL0     H45488   0.742  10.633   3.959  2.8041 -2.5379 -2.3772
  330MOL0     H45489   0.801  10.595   4.262 -0.1840  1.6283 -1.8642
  330MOL0     H45490   0.606  10.762   4.535  0.5211 -0.1324 -1.1249
  330MOL0     H45491   0.759  10.686   4.507 -0.0203  2.2784 -0.9452
  330MOL0     H45492   0.500  10.537   4.566  0.6356 -3.4652 -1.5204
  330MOL0     H45493   0.660  10.472   4.570 -0.5789  0.3441 -0.3944
  330MOL0     H45494   0.725  10.637   4.755 -0.1841  0.4953  0.4754
  330MOL0     H45495   0.544  10.682   4.757 -0.9372 -0.3590 -0.5119
  330MOL0     H45496   0.588  10.524   4.923  0.0447  1.7742 -0.6991
  330MOL0     H45497   0.495  10.444   4.803  0.5081 -0.8034 -0.4410
  330MOL0     H45498   0.888  10.192   4.823 -1.0780  1.0683 -0.1859
  330MOL0     H45499   1.140  10.108   4.902 -0.9992 -0.5000 -2.3620
  330MOL0     H45500   0.991  10.050   4.974  1.1814  0.0166 -0.7997
  330MOL0     H45501   1.124  10.108   5.082  0.8533 -0.5074  0.1443
  330MOL0     H45502   1.010  10.434   5.517 -0.0887  1.3607  1.7450
  330MOL0     H45503   1.140  10.440   5.743  2.1115  0.3275  1.7911
  330MOL0     H45504   1.578  10.510   5.720  1.1526  1.6290  1.3383
  330MOL0     H45505   1.460  10.629   5.791  1.7735  1.3688 -2.6138
  330MOL0     H45506   1.642  10.562   5.948  1.1581 -0.6368 -1.8023
  330MOL0     H45507   1.486  10.494   6.002 -0.0098 -1.5656  0.3284
  330MOL0     H45508   1.710  10.352   5.855 -2.1469  0.0790 -2.5651
  330MOL0     H45509   1.567  10.275   5.894  0.4241  0.7110 -0.6809
  330MOL0     H45510   1.597  10.289   6.127  0.0803 -0.8508  0.6665
  330MOL0     H45511   1.725  10.418   6.111  1.0242 -0.7735 -2.6419
  330MOL0     H45512   1.746  10.133   6.004  0.5684 -0.4493  0.5072
  330MOL0     H45513   1.864  10.261   5.996 -0.8727  0.9797 -1.3873
  330MOL0     H45514   1.748  10.151   6.255 -0.0372  1.3794  0.8312
  330MOL0     H45515   1.864  10.274   6.253 -1.4605 -1.5657  3.5326
  330MOL0     H45516   1.993  10.073   6.306  1.3654 -0.7131 -0.4696
  330MOL0     H45517   2.036  10.113   6.145 -1.2839 -0.9707 -2.9813
  330MOL0     H45518   1.979   9.873   6.131  0.9004 -0.6975  1.0636
  330MOL0     H45519   1.836   9.963   6.084  0.2053  1.0690  0.9915
  330MOL0     H45520   1.508  10.469   5.524  0.2310  1.6479  3.8678
  330MOL0     H45521   1.392  10.440   5.314  0.6465 -0.3071  0.7146
  330MOL0     H45522   0.971  10.558   5.141  0.2983 -0.8020  0.0117
  330MOL0     H45523   0.794  10.590   4.976  0.7457  1.7814  1.7244
  330MOL0     H45524   0.682   9.482   4.029 -0.0802 -0.5445  0.1594
  330MOL0     H45525   0.874   9.372   4.127 -0.2538 -0.5247 -1.8666
  330MOL0     H45526   1.157   9.250   4.316  1.2480  0.7249  2.0360
  330MOL0     H45527   1.324   9.063   4.333 -2.4011  0.5707 -0.0823
  330MOL0     H45528   1.654   9.060   4.104  0.1511  0.2983  1.0585
  330MOL0     H45529   1.758   9.148   4.208 -0.5295  0.1005 -1.7666
  330MOL0     H45530   1.749   8.918   4.360  1.4284 -0.1898  0.0199
  330MOL0     H45531   1.872   8.950   4.225 -0.3388 -0.9555 -3.9912
  330MOL0     H45532   1.611   8.787   4.230 -0.6136  1.5643 -1.2386
  330MOL0     H45533   1.709   8.816   4.081  1.4878  3.2770  0.2926
  330MOL0     H45534   1.769   8.590   4.181  1.0588 -0.3835  0.2550
  330MOL0     H45535   1.806   8.670   4.334  4.8652 -0.7054 -0.5629
  330MOL0     H45536   2.153   8.770   4.117 -0.2160  0.3083 -0.4494
  330MOL0     H45537   1.625   9.336   4.174 -0.5024 -1.6290 -0.6682
  330MOL0     H45538   1.450   9.507   3.995 -0.8009 -3.9851  0.1011
  330MOL0     H45539   1.448   9.617   4.140 -4.2169 -2.8920  0.2056
  330MOL0     H45540   1.596   9.531   4.092  0.6419  3.1429 -0.7908
  331MOL0     O45541   7.965   2.624   5.028 -0.2644 -0.3126  1.0774
  331MOL0     C45542   7.907   2.730   5.029 -0.2127 -0.7173 -0.6156
  331MOL0     O45543   7.862   2.791   4.919 -0.1284 -0.3500  0.1348
  331MOL0     C45544   7.919   2.744   4.794  0.1986 -0.3730  0.0545
  331MOL0     C45545   8.047   2.784   4.747 -0.2831 -0.7363 -0.7850
  331MOL0     C45546   8.082   2.767   4.612 -0.0949 -0.7854 -0.8253
  331MOL0     C45547   7.993   2.711   4.524 -0.6332 -0.7141  0.5761
  331MOL0     O45548   8.030   2.682   4.396  0.2868 -0.3706  0.5224
  331MOL0     C45549   8.150   2.607   4.398 -0.1535 -0.5519 -0.2725
  331MOL0     C45550   8.170   2.547   4.266  1.5084  0.0725  0.5588
  331MOL0     C45551   8.062   2.439   4.242  0.8493 -0.4825 -0.0722
  331MOL0     C45552   8.066   2.396   4.094  0.0769  0.0249 -1.2449
  331MOL0     C45553   7.956   2.292   4.071 -0.6067 -0.1172  0.3387
  331MOL0     C45554   7.994   2.154   4.123 -0.0024  0.6316 -0.1569
  331MOL0     C45555   7.887   2.044   4.139  0.1819 -0.3261 -0.0672
  331MOL0     C45556   7.785   2.081   4.245 -0.7220 -0.5652 -0.5162
  331MOL0     N45557   7.671   1.988   4.256 -0.4331  0.9536 -0.1092
  331MOL0     C45558   7.659   1.901   4.360  1.1286  0.0539  0.2100
  331MOL0     C45559   7.550   1.829   4.328  0.3225 -1.0927 -0.4531
  331MOL0     C45560   7.506   1.711   4.412  0.7022 -0.4123  0.1640
  331MOL0     C45561   7.615   1.618   4.466  0.4076  0.5473  0.0784
  331MOL0     C45562   7.561   1.491   4.526 -0.2237  0.0882 -0.6065
  331MOL0     C45563   7.459   1.501   4.636  0.3569 -1.1081 -0.5193
  331MOL0     O45564   7.523   1.539   4.758  0.4778 -1.0834  0.2439
  331MOL0     C45565   7.458   1.634   4.841 -0.8775 -0.1498 -0.4920
  331MOL0     C45566   7.374   1.734   4.800 -0.5362  0.7917  0.5302
  331MOL0     C45567   7.327   1.836   4.889 -0.5304  0.0281 -0.0245
  331MOL0     C45568   7.216   1.914   4.831 -0.8424  0.2334  0.2703
  331MOL0     C45569   7.382   1.850   5.015 -0.1765  0.0445 -0.2719
  331MOL0     C45570   7.338   1.947   5.112  0.7736 -0.1609 -0.7325
  331MOL0     O45571   7.290   2.063   5.072  0.4508 -0.0850 -0.1545
  331MOL0     C45572   7.216   2.144   5.151  0.7829 -0.2825 -0.4097
  331MOL0     C45573   7.258   2.277   5.198  0.1031 -0.3199 -0.8674
  331MOL0     C45574   7.177   2.359   5.277  0.7143  0.8278 -0.1603
  331MOL0     C45575   7.055   2.303   5.327 -0.4875  0.8135  0.2069
  331MOL0     O45576   6.991   2.370   5.429  0.0084 -0.0901  0.1027
  331MOL0     C45577   6.882   2.450   5.378  0.4354  0.3051 -0.4232
  331MOL0     C45578   6.787   2.501   5.480  0.0060  0.6202 -0.4248
  331MOL0     C45579   6.670   2.407   5.507 -0.3658 -0.4321 -0.0468
  331MOL0     C45580   6.559   2.477   5.587  0.1521  0.2783 -1.0273
  331MOL0     C45581   6.541   2.421   5.722 -0.1513 -0.0112 -0.1716
  331MOL0     C45582   6.391   2.422   5.763 -0.4365 -0.0735 -0.4544
  331MOL0     C45583   6.310   2.289   5.733 -0.6980  0.2778 -0.0922
  331MOL0     C45584   6.272   2.213   5.859 -0.6147  0.1671 -0.3350
  331MOL0    Cl45585   6.410   2.203   5.977 -0.1090 -0.0578  0.0311
  331MOL0     C45586   7.014   2.175   5.280 -0.3373  0.2677 -0.7420
  331MOL0     C45587   7.095   2.099   5.197 -0.3714 -0.6980  0.5588
  331MOL0     O45588   7.340   1.915   5.233 -0.3854  0.1490 -0.1898
  331MOL0     C45589   7.486   1.758   5.053  0.7022  0.2325 -0.3491
  331MOL0     C45590   7.518   1.656   4.967  0.2511 -0.1393  0.3680
  331MOL0     N45591   7.497   1.878   4.212  0.2227  0.4450 -0.5680
  331MOL0     N45592   7.576   1.969   4.163  0.5675  0.2118  0.0517
  331MOL0     C45593   7.874   2.657   4.579 -0.6140 -0.8492  0.2340
  331MOL0     C45594   7.842   2.671   4.711  0.0006  0.0358  0.5782
  331MOL0     C45595   7.901   2.799   5.162  0.4860  0.7392 -0.0580
  331MOL0     C45596   7.897   2.944   5.156 -0.2578 -0.1038 -0.4136
  331MOL0     C45597   7.916   3.024   5.274  0.0987 -0.9174 -0.3687
  331MOL0     C45598   7.917   2.953   5.393  0.1418 -0.5074  0.0335
  331MOL0     O45599   7.940   3.018   5.517 -0.6875  0.1480 -0.2525
  331MOL0     C45600   7.909   3.158   5.535 -0.1635 -0.3549  0.4442
  331MOL0     C45601   7.903   3.203   5.682  0.2389  0.1036 -0.5627
  331MOL0     C45602   8.018   3.150   5.763 -0.5016  0.1367  0.0466
  331MOL0     C45603   7.978   3.173   5.907  1.4231 -0.0035 -0.9980
  331MOL0     C45604   8.056   3.091   5.996 -0.9636  0.3951 -0.2587
  331MOL0     C45605   8.116   3.020   6.068 -0.1857 -0.7578  0.1732
  331MOL0     C45606   7.915   2.820   5.399  0.8246 -0.3314 -0.5836
  331MOL0     C45607   7.908   2.740   5.292 -0.6379 -0.0757  0.0634
  331MOL0     C45608   7.887   2.594   5.324  0.3926 -0.3977 -0.4735
  331MOL0     H45609   8.111   2.846   4.809 -1.0895  1.2449 -1.8488
  331MOL0     H45610   8.177   2.804   4.574 -0.3419  0.1700 -0.5358
  331MOL0     H45611   8.147   2.536   4.481  0.7542  1.5264  1.6340
  331MOL0     H45612   8.235   2.676   4.404  0.2516 -0.9811 -1.0149
  331MOL0     H45613   8.159   2.626   4.192 -0.6023  1.2070  1.9846
  331MOL0     H45614   8.276   2.523   4.252  2.6092  3.8273  1.3009
  331MOL0     H45615   8.092   2.352   4.302  0.7082  0.8658  2.0563
  331MOL0     H45616   7.960   2.472   4.264 -0.5583 -2.7275 -2.5915
  331MOL0     H45617   8.057   2.480   4.025 -0.5355 -0.5813 -1.9238
  331MOL0     H45618   8.156   2.344   4.062 -1.1552 -1.9196 -1.7166
  331MOL0     H45619   7.937   2.284   3.963 -0.3983 -0.0574  0.2980
  331MOL0     H45620   7.861   2.317   4.119 -1.2139 -3.9800  1.4984
  331MOL0     H45621   8.070   2.118   4.053  0.4121  1.0589  0.0650
  331MOL0     H45622   8.031   2.164   4.225  2.9306 -0.4069 -1.0049
  331MOL0     H45623   7.935   1.947   4.157  0.6925  0.0829  0.8465
  331MOL0     H45624   7.833   2.029   4.045 -2.5729 -1.3523  1.5822
  331MOL0     H45625   7.838   2.096   4.339  0.5238 -2.2471 -0.9040
  331MOL0     H45626   7.745   2.181   4.226 -2.3158 -1.2531 -0.9590
  331MOL0     H45627   7.721   1.891   4.449 -1.4981 -0.7320  2.0489
  331MOL0     H45628   7.430   1.657   4.353 -0.1595  2.3084 -1.3751
  331MOL0     H45629   7.461   1.766   4.495  1.3081 -0.2780  0.4078
  331MOL0     H45630   7.687   1.586   4.390 -0.9724 -1.8628 -0.3237
  331MOL0     H45631   7.670   1.665   4.548 -0.0159  0.8503  0.1941
  331MOL0     H45632   7.516   1.436   4.443  1.4208 -1.9631 -0.2244
  331MOL0     H45633   7.644   1.430   4.561 -1.7664 -3.3992 -2.4569
  331MOL0     H45634   7.380   1.568   4.602  0.0666 -0.2924  1.6470
  331MOL0     H45635   7.410   1.405   4.654 -0.8800 -0.5627 -0.8804
  331MOL0     H45636   7.321   1.719   4.706  0.5219 -0.1047  0.0588
  331MOL0     H45637   7.202   1.902   4.723 -0.5966  3.4296 -0.2239
  331MOL0     H45638   7.229   2.021   4.853 -2.4226 -0.0697  3.0323
  331MOL0     H45639   7.121   1.889   4.878 -0.8307 -4.2709 -1.5996
  331MOL0     H45640   7.351   2.314   5.156  0.6229 -1.3853 -0.6874
  331MOL0     H45641   7.204   2.457   5.315 -1.5008  1.7776 -0.8784
  331MOL0     H45642   6.928   2.538   5.333  0.4070  0.1653 -0.7264
  331MOL0     H45643   6.829   2.390   5.304  2.2753 -0.0232 -1.5201
  331MOL0     H45644   6.840   2.508   5.576  1.8918  0.2169 -1.3899
  331MOL0     H45645   6.745   2.596   5.447 -1.6847 -0.4748 -1.5524
  331MOL0     H45646   6.696   2.307   5.545  1.5338 -0.3767 -1.0860
  331MOL0     H45647   6.629   2.390   5.408 -0.1865  0.2217 -0.2355
  331MOL0     H45648   6.474   2.473   5.519  0.7237 -0.7396 -1.6940
  331MOL0     H45649   6.584   2.582   5.604  1.1386 -0.3265  1.7736
  331MOL0     H45650   6.590   2.323   5.728  0.4778  0.0299 -3.0598
  331MOL0     H45651   6.593   2.481   5.798  0.9079  0.6597 -1.3878
  331MOL0     H45652   6.345   2.508   5.715  2.4122  1.3355 -0.8559
  331MOL0     H45653   6.383   2.445   5.870 -0.0468  2.1066 -0.8459
  331MOL0     H45654   6.363   2.224   5.663 -1.1743 -1.6547  1.2611
  331MOL0     H45655   6.215   2.311   5.685 -0.2812 -1.0458 -1.5792
  331MOL0     H45656   6.240   2.117   5.820 -1.1577  0.4953 -0.6999
  331MOL0     H45657   6.191   2.263   5.914 -1.8457 -1.1617 -0.9059
  331MOL0     H45658   6.928   2.120   5.318  1.5196 -1.1005  1.8614
  331MOL0     H45659   7.061   2.002   5.160  0.9165 -0.7191 -0.6520
  331MOL0     H45660   7.541   1.762   5.147  0.1408 -1.0186  0.0446
  331MOL0     H45661   7.596   1.584   4.992  2.4152  1.5464 -1.2290
  331MOL0     H45662   7.808   2.599   4.515  2.1478 -2.3200 -1.4730
  331MOL0     H45663   7.739   2.655   4.739 -0.3102  0.8755 -0.0178
  331MOL0     H45664   7.899   2.996   5.060  0.4051  0.3273 -0.1712
  331MOL0     H45665   7.911   3.133   5.276 -2.8286 -0.9722  0.0178
  331MOL0     H45666   7.983   3.221   5.486 -1.0652  1.0397  0.8250
  331MOL0     H45667   7.811   3.181   5.491  0.3160  0.8153 -0.0363
  331MOL0     H45668   7.809   3.180   5.733 -1.3014  1.6775 -2.5347
  331MOL0     H45669   7.902   3.312   5.696  2.7840  0.1049  0.1476
  331MOL0     H45670   8.044   3.045   5.748  4.8707  0.8909  1.7271
  331MOL0     H45671   8.108   3.207   5.736 -2.7043  3.6497 -0.5371
  331MOL0     H45672   7.878   3.130   5.917  1.0616  1.1878  1.1508
  331MOL0     H45673   7.982   3.277   5.941  0.8321 -0.5219  0.7868
  331MOL0     H45674   8.179   2.970   6.139 -2.6447 -0.5533  2.6872
  331MOL0     H45675   7.920   2.776   5.498  2.1061 -1.3759 -1.0817
  331MOL0     H45676   7.981   2.538   5.319 -0.0703 -1.6990  2.8562
  331MOL0     H45677   7.836   2.594   5.420 -3.2070  3.1600 -2.0919
  331MOL0     H45678   7.813   2.549   5.256  0.5344  1.4291 -1.9018
  332MOL0     O45679   2.769   9.222   2.668  0.8078 -0.2334  0.4566
  332MOL0     C45680   2.677   9.211   2.586  0.6006 -0.3164 -0.2015
  332MOL0     O45681   2.547   9.270   2.588 -0.7326  0.0878  0.2686
  332MOL0     C45682   2.509   9.353   2.687  0.2925 -0.0246  0.1495
  332MOL0     C45683   2.585   9.464   2.720 -0.1324 -1.6233 -0.0521
  332MOL0     C45684   2.540   9.535   2.835  0.6423  0.4144 -0.1825
  332MOL0     C45685   2.413   9.498   2.903 -0.0689 -0.3283  0.4985
  332MOL0     O45686   2.372   9.552   3.024 -1.2038  0.2404 -0.4578
  332MOL0     C45687   2.363   9.697   3.033 -0.5368 -0.0210  0.3923
  332MOL0     C45688   2.307   9.748   3.161 -0.1110  1.1114 -0.0309
  332MOL0     C45689   2.176   9.692   3.202  0.6921 -0.2621 -0.6330
  332MOL0     C45690   2.114   9.774   3.323  0.5562  0.3239  0.1106
  332MOL0     C45691   2.001   9.698   3.394  0.7886 -0.5064  0.7305
  332MOL0     C45692   1.873   9.700   3.302  0.3683  0.5937 -0.7113
  332MOL0     C45693   1.754   9.639   3.377  0.4170 -0.1918  0.2133
  332MOL0     C45694   1.765   9.494   3.435 -0.1265 -0.2918  0.5900
  332MOL0     N45695   1.654   9.479   3.525 -0.5571  0.0351 -0.1373
  332MOL0     C45696   1.541   9.401   3.491  0.3068 -0.2837  0.5112
  332MOL0     C45697   1.477   9.387   3.612  0.0824  0.1425 -0.0574
  332MOL0     C45698   1.380   9.279   3.631  1.3922 -0.5407 -0.7467
  332MOL0     C45699   1.243   9.336   3.669  0.1847  0.5401  0.6932
  332MOL0     C45700   1.130   9.233   3.684 -0.5728  0.7560 -0.8760
  332MOL0     C45701   1.012   9.298   3.756  0.1770  0.3695 -0.2463
  332MOL0     O45702   0.912   9.202   3.772  0.0281 -0.2263 -0.0372
  332MOL0     C45703   0.785   9.244   3.750  0.1094  0.2655  0.3532
  332MOL0     C45704   0.728   9.373   3.753 -0.6175 -0.8898 -0.8159
  332MOL0     C45705   0.586   9.394   3.741 -0.0304  0.4556  0.2672
  332MOL0     C45706   0.533   9.534   3.760  0.6171 -0.3621  0.1791
  332MOL0     C45707   0.502   9.279   3.714  0.0735 -0.8327 -0.2543
  332MOL0     C45708   0.351   9.285   3.705  0.2640  0.2934 -1.2525
  332MOL0     O45709   0.293   9.168   3.661  0.1273 -0.1405 -0.1910
  332MOL0     C45710   0.154   9.155   3.685 -0.5296 -0.3523  1.0577
  332MOL0     C45711   0.058   9.217   3.605 -0.7712 -0.2722  0.5887
  332MOL0     C45712  -0.072   9.211   3.630  0.7762 -0.0931 -0.0936
  332MOL0     C45713  -0.117   9.132   3.730  0.3860  0.6742 -0.4158
  332MOL0     O45714  -0.245   9.128   3.782  0.0366  0.1607 -0.1936
  332MOL0     C45715  -0.358   9.139   3.688 -0.5541 -0.9396 -0.4653
  332MOL0     C45716  -0.483   9.156   3.771 -0.1724 -0.5097 -0.5878
  332MOL0     C45717  -0.605   9.195   3.694 -0.6068 -0.2500  0.0475
  332MOL0     C45718  -0.728   9.245   3.778  0.5449  0.2074  0.0435
  332MOL0     C45719  -0.849   9.302   3.700 -0.3169  0.6121  0.2547
  332MOL0     C45720  -0.978   9.323   3.775  0.2665  0.5224 -0.7263
  332MOL0     C45721  -0.953   9.396   3.920 -1.0453  0.5003 -0.5247
  332MOL0     C45722  -1.082   9.433   3.986  0.9878 -0.4121 -0.3641
  332MOL0    Cl45723  -1.150   9.571   3.891  0.0337  0.4432  0.1398
  332MOL0     C45724  -0.023   9.072   3.817  0.4471 -0.4148  0.4185
  332MOL0     C45725   0.114   9.076   3.787 -0.0122 -0.0057 -0.4371
  332MOL0     O45726   0.292   9.387   3.713 -0.3232 -0.5615 -0.1181
  332MOL0     C45727   0.565   9.155   3.698  0.2365 -0.0726 -0.0143
  332MOL0     C45728   0.697   9.135   3.719 -0.5509 -0.6736  0.4345
  332MOL0     N45729   1.540   9.453   3.712 -0.0517  0.1667 -0.0936
  332MOL0     N45730   1.642   9.509   3.653 -0.3241  0.1127 -0.0378
  332MOL0     C45731   2.342   9.392   2.856 -0.0245 -0.0015 -1.0698
  332MOL0     C45732   2.396   9.308   2.752 -0.3791 -0.0150 -0.4319
  332MOL0     C45733   2.702   9.124   2.476 -0.7977  0.5192 -0.8152
  332MOL0     C45734   2.631   9.131   2.354  0.4376  0.7373 -0.0231
  332MOL0     C45735   2.643   9.047   2.241 -0.7973 -0.3003 -0.6208
  332MOL0     C45736   2.752   8.959   2.237  0.0886  0.0231 -0.0692
  332MOL0     O45737   2.786   8.870   2.135  0.0891 -0.2670  0.4273
  332MOL0     C45738   2.742   8.906   2.003  0.8163  0.5555  0.4276
  332MOL0     C45739   2.803   8.804   1.910 -0.8851  0.0853  0.3261
  332MOL0     C45740   2.780   8.842   1.762  0.0913  0.0619 -0.6745
  332MOL0     C45741   2.642   8.807   1.704 -0.2495  0.3722  0.1314
  332MOL0     C45742   2.642   8.748   1.568  0.5855 -0.4323 -0.3887
  332MOL0     C45743   2.650   8.691   1.458 -0.3947  0.3289  0.3153
  332MOL0     C45744   2.828   8.960   2.350 -0.2471  0.4132 -0.0053
  332MOL0     C45745   2.814   9.036   2.470  0.1427  0.1647 -0.4948
  332MOL0     C45746   2.917   9.003   2.577 -0.2397 -0.8440  0.0058
  332MOL0     H45747   2.682   9.496   2.683  0.7099  1.6678  4.2446
  332MOL0     H45748   2.593   9.615   2.886 -0.8225  0.3422  1.5573
  332MOL0     H45749   2.296   9.719   2.950 -0.6924 -1.5995  0.0553
  332MOL0     H45750   2.464   9.737   3.025 -0.7802  0.4551 -0.4439
  332MOL0     H45751   2.385   9.724   3.233  0.5194  0.8814 -0.7775
  332MOL0     H45752   2.300   9.857   3.156 -1.6011  1.0140 -0.6631
  332MOL0     H45753   2.108   9.711   3.118  0.8383  1.3197 -0.4303
  332MOL0     H45754   2.174   9.585   3.222 -0.8275 -0.1308  0.0627
  332MOL0     H45755   2.188   9.808   3.396  0.0328 -1.6283  1.6228
  332MOL0     H45756   2.069   9.859   3.269  1.2784 -1.1248 -3.0395
  332MOL0     H45757   1.984   9.754   3.486  2.1945 -2.3064  2.1848
  332MOL0     H45758   2.043   9.601   3.424  0.0988 -1.1630 -0.3777
  332MOL0     H45759   1.853   9.805   3.278  1.6399  1.3188  1.1029
  332MOL0     H45760   1.886   9.643   3.210  3.2100 -0.5990  0.3132
  332MOL0     H45761   1.667   9.644   3.310  2.4700  0.3690 -2.6338
  332MOL0     H45762   1.736   9.709   3.459 -0.9786  0.5139 -0.6484
  332MOL0     H45763   1.753   9.431   3.346 -0.3006 -0.0181  0.4158
  332MOL0     H45764   1.864   9.472   3.475 -0.2686 -1.5579  0.2624
  332MOL0     H45765   1.518   9.348   3.398  0.7835  1.3023 -0.5495
  332MOL0     H45766   1.413   9.214   3.713 -0.4250  1.1876  1.4614
  332MOL0     H45767   1.368   9.226   3.536 -5.5354  0.1348 -0.7459
  332MOL0     H45768   1.257   9.370   3.772  3.9989 -0.5200  0.7033
  332MOL0     H45769   1.214   9.421   3.607  1.6208 -0.1789 -1.0395
  332MOL0     H45770   1.098   9.195   3.587 -0.7061 -4.2625  0.8535
  332MOL0     H45771   1.181   9.153   3.738  1.1285  1.4324 -1.4189
  332MOL0     H45772   1.049   9.341   3.849  3.9218  1.7030 -2.1191
  332MOL0     H45773   0.981   9.376   3.685 -1.7007  1.3242  1.5023
  332MOL0     H45774   0.797   9.456   3.753 -1.1636 -0.4054 -2.1922
  332MOL0     H45775   0.455   9.557   3.687  0.8088 -1.5447 -0.4234
  332MOL0     H45776   0.616   9.606   3.750  0.2176  0.2188  0.8757
  332MOL0     H45777   0.506   9.548   3.865  4.5303 -2.4763  1.6793
  332MOL0     H45778   0.104   9.282   3.532  0.8441 -1.0031  0.9027
  332MOL0     H45779  -0.141   9.276   3.577 -0.1782 -1.0344 -0.0713
  332MOL0     H45780  -0.343   9.224   3.621 -0.6179 -1.3896 -1.0583
  332MOL0     H45781  -0.348   9.044   3.634  4.6280  0.6828 -3.0127
  332MOL0     H45782  -0.510   9.064   3.824  1.5932 -1.3319 -1.0338
  332MOL0     H45783  -0.460   9.230   3.848 -1.5731 -1.7833  1.1306
  332MOL0     H45784  -0.628   9.108   3.632  0.1946 -0.7314  0.4022
  332MOL0     H45785  -0.579   9.281   3.632 -0.3440  0.9485  1.7530
  332MOL0     H45786  -0.693   9.326   3.842  0.3905  2.5253 -2.6538
  332MOL0     H45787  -0.763   9.152   3.824 -0.2095  0.6755  0.4370
  332MOL0     H45788  -0.811   9.399   3.666  1.4177  1.1682  3.4251
  332MOL0     H45789  -0.858   9.248   3.605  3.7934  1.0056 -0.5290
  332MOL0     H45790  -1.030   9.226   3.775 -0.6334  0.9331  1.9961
  332MOL0     H45791  -1.051   9.382   3.719  2.8556  1.0266 -3.8579
  332MOL0     H45792  -0.886   9.483   3.915  1.8018 -1.5086  0.0118
  332MOL0     H45793  -0.900   9.334   3.992 -2.7489  0.5929  0.8641
  332MOL0     H45794  -1.074   9.458   4.093 -2.3186  1.3972 -0.4017
  332MOL0     H45795  -1.151   9.348   3.985  1.8317 -1.1227 -2.0584
  332MOL0     H45796  -0.038   9.016   3.908 -0.1226 -2.7420 -1.0204
  332MOL0     H45797   0.182   9.022   3.852 -1.9431 -1.1506  0.7432
  332MOL0     H45798   0.511   9.068   3.660  0.3565  0.3328 -1.1247
  332MOL0     H45799   0.725   9.031   3.731  2.0554 -0.2958 -1.3190
  332MOL0     H45800   2.250   9.363   2.906  0.8902 -4.8432 -1.6836
  332MOL0     H45801   2.352   9.213   2.721 -0.1759  0.0197 -0.8336
  332MOL0     H45802   2.546   9.199   2.345  0.2719  0.5199 -0.1070
  332MOL0     H45803   2.590   9.074   2.150 -0.9529 -0.4056 -0.5627
  332MOL0     H45804   2.633   8.896   2.008  0.7731 -0.6727 -1.6965
  332MOL0     H45805   2.767   9.006   1.968  2.8288 -0.6474 -1.9263
  332MOL0     H45806   2.786   8.698   1.931  3.2651 -1.2669 -1.8286
  332MOL0     H45807   2.910   8.813   1.933 -0.4054  0.7623 -1.9210
  332MOL0     H45808   2.809   8.945   1.740 -1.3093 -0.2086 -4.5403
  332MOL0     H45809   2.848   8.779   1.704 -1.0730 -0.7708 -1.1777
  332MOL0     H45810   2.581   8.897   1.701 -4.4233 -2.2223  0.0317
  332MOL0     H45811   2.583   8.739   1.766 -1.1886  1.5351  0.5301
  332MOL0     H45812   2.679   8.643   1.367 -0.5940 -0.5303  0.6952
  332MOL0     H45813   2.910   8.889   2.346  0.5849  1.1868  1.9197
  332MOL0     H45814   2.997   8.938   2.540  1.6216  0.6124  1.2865
  332MOL0     H45815   2.965   9.097   2.604 -1.0819 -1.0140  2.3033
  332MOL0     H45816   2.866   8.957   2.662 -0.1795 -1.8235 -0.4749
  333MOL0     O45817  10.359   7.484   0.419  0.3856 -1.0289  0.5632
  333MOL0     C45818  10.414   7.451   0.313  0.3376 -0.0868 -0.4390
  333MOL0     O45819  10.467   7.323   0.289  0.3648  0.3695 -0.6057
  333MOL0     C45820  10.508   7.262   0.164  0.9006 -0.1889  0.0098
  333MOL0     C45821  10.622   7.307   0.102  0.3893  0.6019 -0.1883
  333MOL0     C45822  10.655   7.262  -0.020 -0.1421 -0.4379  0.1039
  333MOL0     C45823  10.606   7.137  -0.069 -0.6585 -0.5980 -0.2128
  333MOL0     O45824  10.663   7.102  -0.192  0.7549 -0.1227  0.3448
  333MOL0     C45825  10.670   6.967  -0.223 -0.2277  0.3088 -0.8629
  333MOL0     C45826  10.556   6.937  -0.317 -0.3369  0.3637  0.5435
  333MOL0     C45827  10.502   6.785  -0.319  0.2959 -1.0796  0.0375
  333MOL0     C45828  10.610   6.678  -0.328  0.5483  0.3579 -0.0538
  333MOL0     C45829  10.539   6.542  -0.340  0.2463 -0.5662  0.3744
  333MOL0     C45830  10.483   6.507  -0.479  0.0436  0.4007 -1.3571
  333MOL0     C45831  10.447   6.360  -0.483  0.7091 -0.4778  0.3032
  333MOL0     C45832  10.380   6.320  -0.613  0.4286  0.8466 -0.5012
  333MOL0     N45833  10.371   6.177  -0.635  0.6423 -0.4685  0.4212
  333MOL0     C45834  10.328   6.076  -0.548  0.9687 -0.5473  0.3273
  333MOL0     C45835  10.332   5.963  -0.629  0.1644  0.5728 -0.0220
  333MOL0     C45836  10.287   5.828  -0.581  0.3099 -0.7438  0.5313
  333MOL0     C45837  10.139   5.822  -0.543 -1.2809 -0.2551  0.1101
  333MOL0     C45838  10.084   5.674  -0.527 -0.2077 -0.8185  0.2638
  333MOL0     C45839  10.153   5.588  -0.415  0.2178  0.2889  0.1765
  333MOL0     O45840  10.129   5.666  -0.296 -0.1072 -0.2142  0.7179
  333MOL0     C45841  10.199   5.648  -0.177  1.1264  0.7146  0.9498
  333MOL0     C45842  10.308   5.556  -0.154  0.1467 -0.6596  0.4887
  333MOL0     C45843  10.359   5.558  -0.020 -0.0873 -0.2615  0.8729
  333MOL0     C45844  10.452   5.445  -0.005  0.0470  0.0414  0.2338
  333MOL0     C45845  10.317   5.645   0.089  0.2483  1.0519  0.8031
  333MOL0     C45846  10.371   5.644   0.228 -1.0465  0.1392  0.3246
  333MOL0     O45847  10.475   5.552   0.260 -0.6988  1.2974 -0.5835
  333MOL0     C45848  10.537   5.554   0.380  0.3688  0.2451  0.3691
  333MOL0     C45849  10.480   5.532   0.511  0.7204  0.4452 -0.4784
  333MOL0     C45850  10.558   5.539   0.627  0.4218  0.4912  0.3962
  333MOL0     C45851  10.684   5.591   0.621 -0.0593  0.1269 -0.6983
  333MOL0     O45852  10.749   5.607   0.743 -0.7430 -0.3965  0.2616
  333MOL0     C45853  10.822   5.727   0.769 -0.8600 -0.3468  0.5625
  333MOL0     C45854  10.859   5.712   0.914  0.4176 -0.5351  0.1402
  333MOL0     C45855  10.769   5.743   1.033  0.1023  0.1132 -0.1163
  333MOL0     C45856  10.813   5.658   1.149  0.4517 -0.2151 -0.4177
  333MOL0     C45857  10.769   5.722   1.289 -1.0313 -0.8553  0.0315
  333MOL0     C45858  10.804   5.643   1.412 -0.4408 -0.7168  0.1278
  333MOL0     C45859  10.794   5.711   1.539  0.5123 -1.2237 -0.2502
  333MOL0     C45860  10.651   5.751   1.595  0.4534  1.2569 -0.1109
  333MOL0    Cl45861  10.593   5.901   1.510  0.5768  0.0882  0.0377
  333MOL0     C45862  10.742   5.616   0.489 -0.4161  0.1210 -0.4466
  333MOL0     C45863  10.672   5.587   0.374  0.8191 -0.3331 -0.1652
  333MOL0     O45864  10.320   5.718   0.313 -0.5710 -0.8082 -0.1655
  333MOL0     C45865  10.216   5.732   0.058  0.5288 -0.3855 -0.4918
  333MOL0     C45866  10.157   5.734  -0.072  0.3588 -0.0248 -0.3734
  333MOL0     N45867  10.367   5.997  -0.756 -0.0944 -1.1427 -0.4608
  333MOL0     N45868  10.391   6.123  -0.760  0.9155 -0.8264  0.4229
  333MOL0     C45869  10.495   7.086   0.004 -0.0514 -0.2983  1.5993
  333MOL0     C45870  10.434   7.155   0.113 -0.7724 -0.8867  0.2646
  333MOL0     C45871  10.428   7.570   0.220 -0.1702 -0.8282  0.2698
  333MOL0     C45872  10.501   7.682   0.268 -0.2718 -0.5458  0.3215
  333MOL0     C45873  10.502   7.803   0.197 -0.0986  0.1185 -0.3336
  333MOL0     C45874  10.426   7.816   0.082 -0.1695  0.4213  0.5613
  333MOL0     O45875  10.407   7.938   0.016 -0.2082  0.0586  0.3339
  333MOL0     C45876  10.473   8.065   0.054  0.1270  0.5303 -0.2682
  333MOL0     C45877  10.410   8.191  -0.012 -0.0197  0.1704  0.3698
  333MOL0     C45878  10.355   8.139  -0.150 -0.5515  0.0857 -0.5217
  333MOL0     C45879  10.347   8.260  -0.248  1.2056 -0.9693 -0.4332
  333MOL0     C45880  10.214   8.328  -0.244  0.5192 -0.2928  0.5128
  333MOL0     C45881  10.119   8.401  -0.250 -0.7789 -0.4762  0.1819
  333MOL0     C45882  10.359   7.702   0.031  0.4848 -0.4040  1.0701
  333MOL0     C45883  10.357   7.577   0.096 -0.3695 -0.0265  0.1498
  333MOL0     C45884  10.278   7.458   0.037 -0.8231  0.4596 -0.0768
  333MOL0     H45885  10.677   7.390   0.145 -2.7714  1.3429  2.9272
  333MOL0     H45886  10.753   7.293  -0.057 -1.0755  2.8024  0.0456
  333MOL0     H45887  10.656   6.902  -0.136 -2.1356  0.3995 -1.0680
  333MOL0     H45888  10.768   6.935  -0.261  0.9547  1.9318  0.6484
  333MOL0     H45889  10.465   6.993  -0.296  1.4960  3.6509  0.3947
  333MOL0     H45890  10.580   6.963  -0.420 -1.2517 -0.5154  0.0922
  333MOL0     H45891  10.431   6.767  -0.238  0.1521  2.3256  0.8167
  333MOL0     H45892  10.442   6.784  -0.410  1.0584 -0.1026 -0.5075
  333MOL0     H45893  10.667   6.691  -0.420  0.6016  0.6506  0.0200
  333MOL0     H45894  10.681   6.684  -0.244  3.1484 -0.1848 -2.0816
  333MOL0     H45895  10.457   6.552  -0.269  1.9180  1.0938  2.2073
  333MOL0     H45896  10.605   6.468  -0.292 -1.1467 -0.4091  2.6819
  333MOL0     H45897  10.401   6.570  -0.514 -1.3229 -0.4193  0.2400
  333MOL0     H45898  10.568   6.519  -0.548  2.2978  2.6380  1.5542
  333MOL0     H45899  10.388   6.342  -0.393  3.4916  0.2905  2.4178
  333MOL0     H45900  10.531   6.295  -0.457 -0.5785 -2.1649  0.4426
  333MOL0     H45901  10.280   6.364  -0.602  1.5277  2.8996  2.3077
  333MOL0     H45902  10.430   6.358  -0.703 -0.5749 -0.4338 -1.6494
  333MOL0     H45903  10.316   6.082  -0.440  1.6616 -1.0552  0.4321
  333MOL0     H45904  10.342   5.801  -0.491 -0.1357 -3.1536  0.1519
  333MOL0     H45905  10.308   5.757  -0.662 -0.7513 -0.9125  0.3864
  333MOL0     H45906  10.123   5.874  -0.448  1.8515 -0.9828  1.1602
  333MOL0     H45907  10.091   5.856  -0.634  1.4801  0.5231 -1.1710
  333MOL0     H45908   9.977   5.682  -0.507  0.0180  2.4654  0.6445
  333MOL0     H45909  10.092   5.621  -0.623 -1.0674 -3.2235  1.4441
  333MOL0     H45910  10.106   5.490  -0.412  0.8512  0.0124  2.0262
  333MOL0     H45911  10.260   5.575  -0.431 -0.1584 -0.7989 -1.7193
  333MOL0     H45912  10.347   5.500  -0.238  3.1130 -2.0414  2.6132
  333MOL0     H45913  10.432   5.395   0.090  0.7532 -3.1451 -1.1551
  333MOL0     H45914  10.555   5.482   0.001 -0.0397  0.0262  2.6475
  333MOL0     H45915  10.450   5.365  -0.079  3.4373 -1.4909  1.5899
  333MOL0     H45916  10.377   5.503   0.523  0.5599  0.2630 -2.0832
  333MOL0     H45917  10.520   5.508   0.723  0.8898 -0.0433  0.4120
  333MOL0     H45918  10.908   5.738   0.703 -2.7602  1.3293 -1.8138
  333MOL0     H45919  10.762   5.816   0.749 -2.2908 -1.2139  0.8354
  333MOL0     H45920  10.885   5.606   0.927  0.4761 -0.4214  0.9896
  333MOL0     H45921  10.951   5.769   0.930  1.7305 -2.8346  1.2905
  333MOL0     H45922  10.664   5.722   1.008 -0.0209  0.0570  0.4474
  333MOL0     H45923  10.778   5.848   1.063 -1.3953  1.4555 -3.7699
  333MOL0     H45924  10.922   5.642   1.151  0.5820  0.6850  0.4256
  333MOL0     H45925  10.761   5.562   1.145 -1.8505  0.9766 -4.4085
  333MOL0     H45926  10.811   5.823   1.298 -1.8927 -0.5944  1.5915
  333MOL0     H45927  10.660   5.730   1.285 -1.1382 -2.3337 -0.3600
  333MOL0     H45928  10.903   5.606   1.383 -1.2349 -0.8464 -2.6384
  333MOL0     H45929  10.744   5.553   1.420  0.9594 -1.9475 -2.1273
  333MOL0     H45930  10.860   5.799   1.536 -0.4171 -0.4000  1.6838
  333MOL0     H45931  10.837   5.636   1.606  0.9348 -1.7006 -1.0386
  333MOL0     H45932  10.656   5.772   1.702  0.0727  1.1587 -0.0724
  333MOL0     H45933  10.582   5.666   1.587  1.6099  0.4161 -1.6342
  333MOL0     H45934  10.848   5.634   0.478 -0.8684  2.2268 -1.7361
  333MOL0     H45935  10.722   5.607   0.279  2.1931  0.3926  0.6855
  333MOL0     H45936  10.176   5.804   0.129  0.0004  0.5721 -1.7258
  333MOL0     H45937  10.064   5.789  -0.083  0.0767  0.6959  3.8741
  333MOL0     H45938  10.448   6.990  -0.015 -0.9674  0.1881  1.4008
  333MOL0     H45939  10.358   7.111   0.177 -0.5786 -1.4567  0.1084
  333MOL0     H45940  10.560   7.673   0.359  0.9010  1.6006 -0.1579
  333MOL0     H45941  10.560   7.884   0.239  1.5049 -1.0839 -0.1454
  333MOL0     H45942  10.470   8.066   0.163 -3.7412 -6.9292  0.3130
  333MOL0     H45943  10.575   8.066   0.013  1.1807  0.5743  2.2111
  333MOL0     H45944  10.479   8.276  -0.010 -0.6753  0.9530 -3.1132
  333MOL0     H45945  10.331   8.220   0.058 -1.4105 -0.8670 -0.7030
  333MOL0     H45946  10.431   8.071  -0.189 -0.5899 -0.6148  0.5975
  333MOL0     H45947  10.257   8.091  -0.146 -0.1838 -0.7398 -1.1266
  333MOL0     H45948  10.365   8.232  -0.352  1.2569 -0.3035 -0.6087
  333MOL0     H45949  10.418   8.339  -0.221  0.9261 -1.1641  0.9488
  333MOL0     H45950  10.036   8.466  -0.268 -0.7388 -0.5747 -0.3685
  333MOL0     H45951  10.313   7.712  -0.067 -1.2064  0.7563  1.9254
  333MOL0     H45952  10.214   7.505  -0.038  1.2094  2.5448 -0.6490
  333MOL0     H45953  10.351   7.401  -0.021  1.3124  3.0721 -0.1601
  333MOL0     H45954  10.219   7.411   0.117 -2.9277  2.0501 -0.6010
  334MOL0     O45955   1.622   2.102   4.184 -0.2054  0.1256  0.4477
  334MOL0     C45956   1.599   2.219   4.164 -0.0047  0.0377  1.0675
  334MOL0     O45957   1.617   2.318   4.251 -0.7297 -0.3310 -0.3876
  334MOL0     C45958   1.637   2.302   4.383  0.1483  1.1690  0.1372
  334MOL0     C45959   1.600   2.188   4.460  0.1570  0.1254 -0.5868
  334MOL0     C45960   1.615   2.189   4.599 -0.6328 -0.1780  0.0825
  334MOL0     C45961   1.669   2.303   4.675  0.4898  1.0981  0.1869
  334MOL0     O45962   1.685   2.297   4.810  0.5612 -0.1588 -0.5200
  334MOL0     C45963   1.740   2.411   4.875 -0.4165 -0.0078 -0.1091
  334MOL0     C45964   1.734   2.380   5.025 -0.2760 -0.2410 -0.1345
  334MOL0     C45965   1.795   2.499   5.115 -0.0856  0.1646  0.9757
  334MOL0     C45966   1.678   2.579   5.160  0.2623 -0.2422  0.0963
  334MOL0     C45967   1.728   2.692   5.258  0.3442 -0.1263 -0.5788
  334MOL0     C45968   1.626   2.798   5.298 -0.1281 -0.5662 -0.0868
  334MOL0     C45969   1.517   2.748   5.398 -0.0422  0.0590  1.0906
  334MOL0     C45970   1.423   2.639   5.353 -0.0198 -0.6121 -0.2185
  334MOL0     N45971   1.292   2.626   5.427 -0.1244 -0.2130  0.3051
  334MOL0     C45972   1.216   2.518   5.412 -0.1346  0.3729  0.0427
  334MOL0     C45973   1.102   2.549   5.468  0.1249  0.0730 -0.4937
  334MOL0     C45974   0.983   2.460   5.473 -0.2197  0.4761  0.3202
  334MOL0     C45975   0.871   2.483   5.370  0.3313 -0.4790  0.2784
  334MOL0     C45976   0.750   2.400   5.408  0.6724  0.0557  0.3904
  334MOL0     C45977   0.625   2.452   5.336 -0.6077 -0.3276 -0.3745
  334MOL0     O45978   0.636   2.425   5.196  0.0628  0.7818 -0.0810
  334MOL0     C45979   0.533   2.457   5.114 -0.3623 -0.5140  0.4696
  334MOL0     C45980   0.544   2.404   4.986  0.5059 -0.3894 -0.3197
  334MOL0     C45981   0.433   2.415   4.901  0.4612 -0.0193 -0.4735
  334MOL0     C45982   0.444   2.347   4.766 -0.0552 -0.0387 -0.0640
  334MOL0     C45983   0.318   2.484   4.943  0.1658 -0.1369 -0.2952
  334MOL0     C45984   0.188   2.513   4.868  1.2795 -0.2446  0.1734
  334MOL0     O45985   0.113   2.625   4.898 -0.4920  0.2408 -0.9876
  334MOL0     C45986  -0.005   2.654   4.830  0.2131  0.3424 -1.0348
  334MOL0     C45987  -0.019   2.719   4.709 -0.0284  0.0739  0.7790
  334MOL0     C45988  -0.137   2.717   4.636 -0.4004  0.2227 -0.3981
  334MOL0     C45989  -0.250   2.666   4.697 -0.0438  0.9931 -0.9976
  334MOL0     O45990  -0.377   2.680   4.643  0.8584  0.3923  0.4107
  334MOL0     C45991  -0.423   2.807   4.592  1.0397  0.0737 -0.3023
  334MOL0     C45992  -0.533   2.854   4.689  0.2594  1.1217  0.1448
  334MOL0     C45993  -0.572   2.993   4.655  0.1670  0.0764  0.0614
  334MOL0     C45994  -0.706   3.035   4.734 -0.2068  0.7315 -0.3868
  334MOL0     C45995  -0.697   3.047   4.882 -0.2741  0.3027 -0.0416
  334MOL0     C45996  -0.829   3.107   4.948  0.4442  0.5610 -0.1689
  334MOL0     C45997  -0.831   3.115   5.099 -0.1226  0.5145  0.0045
  334MOL0     C45998  -0.808   2.984   5.174 -0.5479  0.1281 -0.0631
  334MOL0    Cl45999  -0.958   2.902   5.138 -0.2170 -0.1610 -0.4105
  334MOL0     C46000  -0.239   2.611   4.825  1.4742  0.5041  0.3619
  334MOL0     C46001  -0.119   2.605   4.890  0.0306 -0.3447  0.8268
  334MOL0     O46002   0.155   2.436   4.781  0.2074  0.3529  0.6704
  334MOL0     C46003   0.312   2.533   5.072 -0.0064 -0.1839 -0.6736
  334MOL0     C46004   0.418   2.520   5.155  0.0971  0.0237 -0.7475
  334MOL0     N46005   1.112   2.683   5.511  0.3220 -0.3961  0.4634
  334MOL0     N46006   1.225   2.728   5.491 -0.3661 -0.0908 -1.4778
  334MOL0     C46007   1.722   2.403   4.593 -0.1324 -0.3741  0.7350
  334MOL0     C46008   1.709   2.398   4.453  0.6664 -0.1991 -0.1281
  334MOL0     C46009   1.557   2.269   4.026 -0.6744  0.4865 -0.5501
  334MOL0     C46010   1.506   2.400   4.010 -0.0114 -0.2342 -0.1005
  334MOL0     C46011   1.454   2.445   3.887 -0.0417  0.1953 -0.1277
  334MOL0     C46012   1.454   2.363   3.771 -0.2864  1.0172 -0.0331
  334MOL0     O46013   1.394   2.420   3.666 -0.5896 -0.7362 -0.0629
  334MOL0     C46014   1.411   2.381   3.528  0.6248  0.1921  0.8426
  334MOL0     C46015   1.555   2.384   3.476 -0.6541 -0.3832  0.2581
  334MOL0     C46016   1.613   2.535   3.478 -0.0439  0.3527 -0.1635
  334MOL0     C46017   1.736   2.535   3.380 -0.2414 -1.1293 -0.4835
  334MOL0     C46018   1.849   2.453   3.441  0.0421 -0.2532  0.0096
  334MOL0     C46019   1.944   2.386   3.482 -0.1406  0.6565 -0.2642
  334MOL0     C46020   1.523   2.238   3.781 -0.7255  0.0795 -0.1439
  334MOL0     C46021   1.575   2.198   3.904 -0.1024  0.7503 -0.0738
  334MOL0     C46022   1.649   2.068   3.896 -0.5839 -0.2927  0.4898
  334MOL0     H46023   1.553   2.104   4.409 -1.8712  2.2165 -2.3894
  334MOL0     H46024   1.573   2.100   4.643 -1.2478  1.0988  2.2213
  334MOL0     H46025   1.683   2.505   4.871  1.7616  1.6612  3.2468
  334MOL0     H46026   1.841   2.442   4.845  0.0734  0.2942  1.7038
  334MOL0     H46027   1.628   2.361   5.047 -0.5070 -0.3024 -1.2288
  334MOL0     H46028   1.790   2.287   5.039  3.9038  2.2750  1.9451
  334MOL0     H46029   1.836   2.465   5.211 -1.4280  0.7496  1.7847
  334MOL0     H46030   1.871   2.560   5.066  1.5211 -0.1458  2.9253
  334MOL0     H46031   1.631   2.615   5.068 -1.0991 -1.3039  0.3510
  334MOL0     H46032   1.613   2.509   5.212 -0.3852 -0.2038 -0.6320
  334MOL0     H46033   1.808   2.746   5.207  1.9651 -0.9241  1.0156
  334MOL0     H46034   1.783   2.647   5.341 -0.9325  2.3554  1.7951
  334MOL0     H46035   1.675   2.885   5.342 -0.4008 -1.0825  1.2582
  334MOL0     H46036   1.576   2.838   5.209 -0.3856  0.5566  0.5446
  334MOL0     H46037   1.463   2.841   5.416  1.2138  1.2431 -0.8417
  334MOL0     H46038   1.566   2.719   5.491  0.1285 -1.3594  0.5957
  334MOL0     H46039   1.394   2.667   5.252 -3.3282 -1.6123  0.3286
  334MOL0     H46040   1.466   2.538   5.358 -1.2684 -1.1018  2.0528
  334MOL0     H46041   1.246   2.428   5.358  0.1081 -1.5717  3.1312
  334MOL0     H46042   0.938   2.473   5.572  0.1859 -4.1516  1.3313
  334MOL0     H46043   1.016   2.356   5.470  3.9681  1.6227  0.7510
  334MOL0     H46044   0.856   2.591   5.372  1.0969 -0.2623 -2.4332
  334MOL0     H46045   0.902   2.476   5.265 -0.3133 -2.0274  0.1595
  334MOL0     H46046   0.773   2.294   5.396 -1.0603 -0.2099 -1.1771
  334MOL0     H46047   0.732   2.408   5.516 -1.1067 -2.8685  0.4038
  334MOL0     H46048   0.536   2.394   5.361  0.7417 -2.2815  0.1518
  334MOL0     H46049   0.605   2.560   5.337  1.8090  0.3097 -3.0919
  334MOL0     H46050   0.628   2.340   4.959  1.3282 -0.6609  2.4972
  334MOL0     H46051   0.361   2.276   4.768 -0.6514  0.4524  4.7314
  334MOL0     H46052   0.540   2.295   4.757 -0.3804 -0.7871  0.6746
  334MOL0     H46053   0.434   2.420   4.685  2.4854  2.2526  1.5120
  334MOL0     H46054   0.065   2.759   4.653 -1.1908  1.2621 -0.1636
  334MOL0     H46055  -0.148   2.766   4.540  0.9347 -1.4498 -1.4776
  334MOL0     H46056  -0.338   2.873   4.612  0.9133 -0.5148  2.7236
  334MOL0     H46057  -0.455   2.795   4.488 -3.0630 -1.4142  0.9180
  334MOL0     H46058  -0.621   2.790   4.676  0.7760  0.6940 -1.3077
  334MOL0     H46059  -0.501   2.838   4.792 -3.1460  1.3824  1.3962
  334MOL0     H46060  -0.584   3.000   4.546  2.9638 -1.5271 -0.4516
  334MOL0     H46061  -0.494   3.067   4.674 -0.2564  0.8340 -1.0377
  334MOL0     H46062  -0.784   2.963   4.712 -1.1996  1.5629  0.3252
  334MOL0     H46063  -0.736   3.136   4.705  2.2643  1.4259 -0.8085
  334MOL0     H46064  -0.675   2.957   4.940  3.4113  1.0601 -0.0225
  334MOL0     H46065  -0.620   3.119   4.911 -1.6206  1.0259  1.9331
  334MOL0     H46066  -0.908   3.040   4.913  1.0018  0.1160 -0.5901
  334MOL0     H46067  -0.839   3.206   4.903  1.8639 -0.3356 -2.6293
  334MOL0     H46068  -0.924   3.158   5.137 -1.3789 -1.5237 -0.6279
  334MOL0     H46069  -0.757   3.191   5.127  1.3018  0.4886 -3.2602
  334MOL0     H46070  -0.813   2.990   5.283  0.1077 -2.6376  0.1874
  334MOL0     H46071  -0.714   2.934   5.151 -0.7564 -0.8229  1.0667
  334MOL0     H46072  -0.324   2.551   4.854 -1.1370  1.2754 -4.5582
  334MOL0     H46073  -0.111   2.564   4.990  0.9759  2.7362  2.1262
  334MOL0     H46074   0.227   2.581   5.118  0.9499  1.9268 -0.9798
  334MOL0     H46075   0.394   2.538   5.259  2.5465 -1.5925  0.1799
  334MOL0     H46076   1.793   2.478   4.626 -0.8740  1.1159 -0.8934
  334MOL0     H46077   1.765   2.470   4.393  1.3141 -1.7444 -1.4408
  334MOL0     H46078   1.498   2.461   4.099  2.2390 -2.7863  2.0505
  334MOL0     H46079   1.423   2.549   3.881  2.2012  0.8356 -2.1510
  334MOL0     H46080   1.376   2.281   3.504 -0.2116  0.7950 -0.6028
  334MOL0     H46081   1.341   2.443   3.471  1.1499 -1.5935 -1.9614
  334MOL0     H46082   1.539   2.358   3.371  2.3768  2.4495 -1.1075
  334MOL0     H46083   1.618   2.306   3.521  0.3016 -0.0132 -0.3880
  334MOL0     H46084   1.543   2.611   3.444  0.6322  1.5256  0.9978
  334MOL0     H46085   1.629   2.566   3.582 -2.7423  1.2555  0.0572
  334MOL0     H46086   1.760   2.641   3.370 -0.1681 -1.1403 -0.4282
  334MOL0     H46087   1.706   2.496   3.282 -0.2169 -3.1203  0.2595
  334MOL0     H46088   2.034   2.330   3.495 -0.2940  0.6259  0.7236
  334MOL0     H46089   1.538   2.162   3.705 -1.4966 -1.2402  0.9666
  334MOL0     H46090   1.624   2.024   3.800 -0.3992 -0.3030  0.4459
  334MOL0     H46091   1.757   2.084   3.900 -0.3834  0.2216 -3.5141
  334MOL0     H46092   1.623   1.994   3.972  0.2580 -2.1845 -0.9901
  335MOL0     O46093  11.217   3.326   0.427 -0.5732 -0.3439 -0.1230
  335MOL0     C46094  11.133   3.381   0.503 -0.5351 -0.2720 -0.6186
  335MOL0     O46095  11.026   3.444   0.460 -0.3157 -0.1655  0.4896
  335MOL0     C46096  10.997   3.442   0.323 -0.1549  0.0576  0.6640
  335MOL0     C46097  11.013   3.560   0.253  0.2709  0.5813  0.0366
  335MOL0     C46098  10.979   3.567   0.116 -0.1615  0.3891 -0.0992
  335MOL0     C46099  10.939   3.447   0.048 -0.0771 -0.1707  0.1048
  335MOL0     O46100  10.926   3.461  -0.090 -0.3545  0.1092 -0.8146
  335MOL0     C46101  10.948   3.347  -0.169  0.3110 -0.5332 -0.2890
  335MOL0     C46102  10.959   3.384  -0.316 -0.6326  0.0898  0.3969
  335MOL0     C46103  10.840   3.470  -0.368 -0.2662  0.6264  0.2622
  335MOL0     C46104  10.775   3.430  -0.497  0.2553 -0.4863  0.6834
  335MOL0     C46105  10.662   3.517  -0.536 -0.0564  0.6036  0.6501
  335MOL0     C46106  10.597   3.472  -0.667 -0.5179  0.6390 -0.5031
  335MOL0     C46107  10.468   3.403  -0.650  0.5750 -0.4095  0.9971
  335MOL0     C46108  10.405   3.405  -0.789  0.2643  0.4450 -0.4466
  335MOL0     N46109  10.275   3.345  -0.789 -0.4252  0.6059  0.6213
  335MOL0     C46110  10.270   3.212  -0.798 -0.3391  0.0512  0.1123
  335MOL0     C46111  10.135   3.190  -0.814  0.0744  0.0457  0.8064
  335MOL0     C46112  10.068   3.063  -0.823  0.2530 -0.0871  0.1083
  335MOL0     C46113  10.069   2.997  -0.689 -0.3277  0.0868 -1.3380
  335MOL0     C46114  10.007   2.853  -0.682 -0.9415 -1.3070  0.5394
  335MOL0     C46115   9.862   2.840  -0.719 -0.4698 -0.2581  0.1759
  335MOL0     O46116   9.826   2.700  -0.736  0.7872 -0.5153  0.0991
  335MOL0     C46117   9.863   2.646  -0.854 -0.5926 -0.3261 -0.0976
  335MOL0     C46118   9.878   2.708  -0.989 -0.4726  0.6082 -0.2070
  335MOL0     C46119   9.919   2.636  -1.103 -0.3498  0.3038  0.6953
  335MOL0     C46120   9.913   2.710  -1.234  0.2047  0.3614 -0.0951
  335MOL0     C46121   9.956   2.496  -1.083 -0.4994 -0.2756 -0.0429
  335MOL0     C46122   9.964   2.403  -1.193 -0.4701 -0.7452  0.0811
  335MOL0     O46123   9.857   2.349  -1.237  0.3668  0.3509 -0.7947
  335MOL0     C46124   9.856   2.231  -1.309 -0.3634  0.3874 -0.3097
  335MOL0     C46125   9.960   2.133  -1.310  1.2354  1.0094  0.3675
  335MOL0     C46126   9.924   2.003  -1.349  0.8651  0.3915 -0.1593
  335MOL0     C46127   9.797   1.979  -1.405 -1.3828  0.7355 -0.5604
  335MOL0     O46128   9.780   1.845  -1.436 -0.2087 -0.1770  0.2540
  335MOL0     C46129   9.651   1.785  -1.451  0.0059  0.3099 -0.3510
  335MOL0     C46130   9.656   1.638  -1.493  1.1271 -0.1449  1.4789
  335MOL0     C46131   9.511   1.565  -1.496 -0.5197 -1.0627 -0.2278
  335MOL0     C46132   9.517   1.411  -1.511  0.0615  0.0866 -0.1138
  335MOL0     C46133   9.382   1.353  -1.484 -0.4394 -0.4403 -1.5479
  335MOL0     C46134   9.408   1.220  -1.395 -0.0134  0.1888  0.6708
  335MOL0     C46135   9.280   1.150  -1.358  0.1877  0.0713 -0.0786
  335MOL0     C46136   9.231   1.088  -1.488  0.4251  0.2876 -0.0009
  335MOL0    Cl46137   9.123   0.949  -1.448 -0.0357  0.0261  0.1640
  335MOL0     C46138   9.704   2.082  -1.413 -0.5578 -0.2520 -0.1671
  335MOL0     C46139   9.736   2.208  -1.376  0.7909  0.5564 -0.4919
  335MOL0     O46140  10.076   2.395  -1.241  0.8062  0.1310  0.2411
  335MOL0     C46141   9.961   2.446  -0.955  1.1198  0.2600 -0.1830
  335MOL0     C46142   9.916   2.514  -0.839 -1.1390 -1.1316 -0.0244
  335MOL0     N46143  10.069   3.309  -0.817 -0.3725 -0.0272  0.0912
  335MOL0     N46144  10.158   3.407  -0.807  0.5945 -0.7269  0.7703
  335MOL0     C46145  10.925   3.330   0.120  0.0010 -0.8820 -0.5422
  335MOL0     C46146  10.952   3.330   0.258  0.1340  0.4394  0.6083
  335MOL0     C46147  11.160   3.380   0.644  0.1334 -0.1541  0.6951
  335MOL0     C46148  11.102   3.485   0.718  0.2007 -0.4390  0.3390
  335MOL0     C46149  11.133   3.496   0.853  0.8689  0.4650  0.4244
  335MOL0     C46150  11.227   3.408   0.914 -0.6890 -0.5254  0.5860
  335MOL0     O46151  11.258   3.436   1.044 -0.9546 -1.6042 -0.8212
  335MOL0     C46152  11.255   3.326   1.131  0.0350 -0.2016  0.1324
  335MOL0     C46153  11.269   3.365   1.273  1.5422  0.6566 -0.1352
  335MOL0     C46154  11.132   3.421   1.316  0.3562 -0.6145 -0.8003
  335MOL0     C46155  11.123   3.443   1.466 -0.3465  0.6495 -0.0047
  335MOL0     C46156  11.075   3.326   1.532 -0.0893  0.0091  0.1830
  335MOL0     C46157  11.035   3.232   1.590  0.0039  0.3326 -0.8156
  335MOL0     C46158  11.272   3.297   0.844 -0.7988  0.7130 -0.4798
  335MOL0     C46159  11.234   3.272   0.714 -0.4578 -1.1229 -0.0444
  335MOL0     C46160  11.285   3.146   0.643  0.7156  0.7796  0.5617
  335MOL0     H46161  11.037   3.647   0.314 -1.3363  0.8285  0.3398
  335MOL0     H46162  10.996   3.655   0.054  4.6091  0.5330  1.0329
  335MOL0     H46163  10.873   3.269  -0.154 -1.2073  0.5020 -1.9997
  335MOL0     H46164  11.041   3.300  -0.136  0.1052 -0.9146 -0.2522
  335MOL0     H46165  11.042   3.450  -0.342 -1.8480  0.8111 -2.0329
  335MOL0     H46166  10.966   3.290  -0.371  0.7092  1.7549 -2.4694
  335MOL0     H46167  10.759   3.460  -0.295  0.1697 -0.3589  0.6292
  335MOL0     H46168  10.870   3.575  -0.358  0.6408  0.8596 -3.4316
  335MOL0     H46169  10.842   3.434  -0.583 -1.1575 -2.2626 -0.5968
  335MOL0     H46170  10.739   3.327  -0.489 -0.8577 -0.2382 -0.8025
  335MOL0     H46171  10.686   3.624  -0.540 -2.2551  1.1317 -1.9262
  335MOL0     H46172  10.594   3.495  -0.454 -1.5892 -0.0772 -0.7393
  335MOL0     H46173  10.580   3.564  -0.725 -3.3378  0.2239 -0.4485
  335MOL0     H46174  10.670   3.411  -0.722 -0.4187  0.4847 -0.1991
  335MOL0     H46175  10.397   3.461  -0.591  0.0427  0.0858 -0.1034
  335MOL0     H46176  10.487   3.304  -0.607  0.8912 -0.2238  1.2923
  335MOL0     H46177  10.391   3.510  -0.818 -1.0649  1.3658  3.0262
  335MOL0     H46178  10.472   3.363  -0.865  0.7307  0.5664 -0.1071
  335MOL0     H46179  10.351   3.139  -0.795  0.3037  0.7808  0.6003
  335MOL0     H46180  10.132   2.999  -0.883  3.0498  0.0597  2.7283
  335MOL0     H46181   9.968   3.073  -0.867 -0.9536 -0.8784  2.5235
  335MOL0     H46182  10.173   2.995  -0.655 -0.7270  0.4329 -0.0409
  335MOL0     H46183  10.002   3.059  -0.628 -0.3228 -0.4221 -0.8108
  335MOL0     H46184  10.082   2.802  -0.743  0.9604  1.8476 -0.0161
  335MOL0     H46185  10.012   2.806  -0.584 -0.2788 -3.9455 -0.6779
  335MOL0     H46186   9.808   2.876  -0.631  1.0519 -2.3439  2.0868
  335MOL0     H46187   9.844   2.901  -0.808 -1.0673 -0.4010  0.1921
  335MOL0     H46188   9.852   2.813  -0.995 -1.4544  0.3823 -0.0147
  335MOL0     H46189  10.002   2.693  -1.296 -0.5331 -2.6181 -0.4988
  335MOL0     H46190   9.916   2.819  -1.223  1.9036  0.3694 -0.3841
  335MOL0     H46191   9.818   2.678  -1.277 -2.0182  1.6346  3.4428
  335MOL0     H46192  10.061   2.147  -1.272  0.6005  2.9146  1.4569
  335MOL0     H46193   9.984   1.913  -1.343 -0.2998 -0.5062 -1.3519
  335MOL0     H46194   9.604   1.773  -1.353 -0.7650 -1.0552 -0.8570
  335MOL0     H46195   9.573   1.840  -1.505 -0.6191 -1.1497 -0.9917
  335MOL0     H46196   9.689   1.634  -1.597  0.1807  1.1069  1.1043
  335MOL0     H46197   9.731   1.580  -1.439 -0.2817 -2.6186  0.9134
  335MOL0     H46198   9.434   1.611  -1.559 -2.1289 -3.3744 -0.1199
  335MOL0     H46199   9.482   1.579  -1.391 -0.6779 -2.5527 -0.0375
  335MOL0     H46200   9.599   1.391  -1.441 -0.1377  2.3417  0.8486
  335MOL0     H46201   9.554   1.389  -1.611  3.9154  0.7434  0.9988
  335MOL0     H46202   9.315   1.418  -1.427  1.0483 -1.9681  2.2349
  335MOL0     H46203   9.338   1.312  -1.576 -1.0480 -1.0465 -0.9931
  335MOL0     H46204   9.465   1.254  -1.309  1.0163 -0.2695  0.1862
  335MOL0     H46205   9.475   1.155  -1.452  0.1514 -0.2376  1.3383
  335MOL0     H46206   9.202   1.220  -1.324 -1.1683 -0.8964 -1.0678
  335MOL0     H46207   9.294   1.074  -1.281 -0.5879 -0.9540 -0.9033
  335MOL0     H46208   9.316   1.050  -1.545 -1.2793 -0.0946 -2.4575
  335MOL0     H46209   9.185   1.163  -1.553 -3.6204 -0.5215  1.6510
  335MOL0     H46210   9.605   2.054  -1.448 -2.1626  1.7136  2.4028
  335MOL0     H46211   9.658   2.283  -1.389  1.1587  1.0369  0.0325
  335MOL0     H46212   9.987   2.341  -0.946 -1.7089 -0.6219 -1.2946
  335MOL0     H46213   9.913   2.469  -0.741  0.1585 -0.6145  0.2748
  335MOL0     H46214  10.899   3.231   0.084 -0.5095 -0.9107 -0.0980
  335MOL0     H46215  10.946   3.239   0.318  1.0720  1.3014  2.0568
  335MOL0     H46216  11.040   3.565   0.678  2.0808  0.6946 -0.4338
  335MOL0     H46217  11.088   3.574   0.912 -1.8749 -2.6695  2.8877
  335MOL0     H46218  11.161   3.274   1.113 -0.6441  0.6893  0.9315
  335MOL0     H46219  11.334   3.258   1.099 -0.8702  0.5011 -4.1225
  335MOL0     H46220  11.345   3.443   1.286  2.1113  0.0359  0.3461
  335MOL0     H46221  11.292   3.279   1.337  0.6620  2.0491  2.1874
  335MOL0     H46222  11.128   3.522   1.276 -0.4465 -1.0582 -1.8944
  335MOL0     H46223  11.045   3.365   1.280  0.2872 -0.5641 -0.7141
  335MOL0     H46224  11.074   3.537   1.489  0.1351  0.4842  1.8060
  335MOL0     H46225  11.223   3.452   1.508  0.1052 -0.8690 -0.6554
  335MOL0     H46226  10.997   3.144   1.639  2.0091  0.4111  0.9677
  335MOL0     H46227  11.353   3.237   0.886 -2.7362 -2.5807 -1.1123
  335MOL0     H46228  11.205   3.084   0.602  0.7101  1.3105 -0.2394
  335MOL0     H46229  11.348   3.172   0.558 -0.0521 -1.9674 -0.9743
  335MOL0     H46230  11.344   3.082   0.710 -1.1452 -0.8222  0.7578
  336MOL0     O46231  10.016   5.855   8.531  0.7869 -0.4171 -0.1759
  336MOL0     C46232  10.038   5.783   8.628 -0.0711  0.7386  0.0952
  336MOL0     O46233   9.998   5.813   8.757 -0.0226  0.4246  0.8215
  336MOL0     C46234  10.000   5.942   8.792 -0.6534 -0.4100 -0.2378
  336MOL0     C46235  10.115   6.019   8.801  0.0976  0.6809  0.1797
  336MOL0     C46236  10.111   6.146   8.854  0.2039  0.5082 -0.4891
  336MOL0     C46237   9.996   6.204   8.901 -0.3326  0.0639 -0.0994
  336MOL0     O46238  10.006   6.340   8.942  0.2871 -0.0901  0.2146
  336MOL0     C46239   9.937   6.438   8.862  0.1001 -0.0913  0.9225
  336MOL0     C46240   9.925   6.568   8.931  0.1125  0.0175  0.2960
  336MOL0     C46241  10.038   6.666   8.906 -0.6054  0.9649  0.5473
  336MOL0     C46242  10.035   6.787   8.991 -0.0982 -0.9902  0.1427
  336MOL0     C46243  10.098   6.774   9.135 -0.3864  0.7415 -0.5876
  336MOL0     C46244  10.253   6.807   9.150  0.0783  0.2303  0.5937
  336MOL0     C46245  10.339   6.759   9.035 -0.6936 -0.7524 -0.6667
  336MOL0     C46246  10.487   6.762   9.064 -0.5014  0.9216 -0.2363
  336MOL0     N46247  10.544   6.891   9.099 -0.5019  0.0288  0.4422
  336MOL0     C46248  10.584   6.999   9.018  0.3782 -0.0446  0.6635
  336MOL0     C46249  10.598   7.099   9.099 -0.7049  0.0499  0.2523
  336MOL0     C46250  10.678   7.223   9.062 -0.2000 -0.5494 -0.4535
  336MOL0     C46251  10.599   7.355   9.109 -0.5689  0.8412 -0.8344
  336MOL0     C46252  10.507   7.405   8.995  0.3679 -0.4484 -0.0412
  336MOL0     C46253  10.436   7.535   9.033  0.4554 -0.2029 -0.2806
  336MOL0     O46254  10.382   7.603   8.924 -0.6471 -0.1953 -0.3847
  336MOL0     C46255  10.470   7.660   8.838  0.6561 -0.5669 -0.2774
  336MOL0     C46256  10.451   7.676   8.697  1.1049 -0.4164 -0.0611
  336MOL0     C46257  10.545   7.728   8.608  0.5140 -0.1341 -0.5910
  336MOL0     C46258  10.510   7.728   8.459  0.3167  0.0338  1.1500
  336MOL0     C46259  10.681   7.757   8.656  0.3847 -0.0180  0.0380
  336MOL0     C46260  10.786   7.815   8.575 -0.9021  0.5902 -0.7027
  336MOL0     O46261  10.912   7.825   8.623 -0.5764  0.2693 -0.0385
  336MOL0     C46262  11.017   7.884   8.549 -0.6290  1.1920 -0.2271
  336MOL0     C46263  11.014   8.001   8.472  0.1483 -0.2729 -0.2980
  336MOL0     C46264  11.121   8.053   8.408 -0.7275 -0.4088  0.0309
  336MOL0     C46265  11.251   7.990   8.420  1.1896  0.0076  0.2024
  336MOL0     O46266  11.341   8.054   8.348  0.0983 -0.6566 -0.5399
  336MOL0     C46267  11.476   8.002   8.353  0.3808 -0.2928 -0.4447
  336MOL0     C46268  11.512   7.917   8.224  0.6302  0.2331 -0.5644
  336MOL0     C46269  11.464   7.774   8.243  0.3313  0.0524  0.2429
  336MOL0     C46270  11.478   7.689   8.105  0.0714 -0.1314 -0.8255
  336MOL0     C46271  11.626   7.639   8.089  0.7226 -0.1438 -0.0341
  336MOL0     C46272  11.662   7.543   8.197 -0.4144 -0.0680  0.3010
  336MOL0     C46273  11.803   7.495   8.153  0.1394 -0.0176  0.3692
  336MOL0     C46274  11.866   7.425   8.276  0.9993 -0.0729 -0.3429
  336MOL0    Cl46275  11.805   7.264   8.276  0.0678  0.3072 -0.4828
  336MOL0     C46276  11.253   7.872   8.490  0.2811  0.0739  0.0778
  336MOL0     C46277  11.134   7.818   8.537  0.1007 -0.6786  0.0176
  336MOL0     O46278  10.752   7.859   8.468  0.1717  0.1883  0.4502
  336MOL0     C46279  10.696   7.763   8.797 -0.4355  0.2019 -0.0325
  336MOL0     C46280  10.600   7.714   8.880  1.2225 -0.8940 -0.3081
  336MOL0     N46281  10.564   7.072   9.226 -0.2884 -0.5729  0.2108
  336MOL0     N46282  10.525   6.945   9.222 -0.2568 -0.2065 -0.4435
  336MOL0     C46283   9.881   6.129   8.901 -0.8672 -1.2487 -0.1545
  336MOL0     C46284   9.882   5.995   8.853 -0.3215  0.3179  0.1155
  336MOL0     C46285  10.070   5.636   8.587  0.6381  0.4975  0.5873
  336MOL0     C46286  10.028   5.533   8.667  0.2297  0.1489 -0.8939
  336MOL0     C46287  10.038   5.391   8.619 -0.1910 -0.9311 -0.4755
  336MOL0     C46288  10.083   5.357   8.500 -0.5511  0.2392  0.2769
  336MOL0     O46289  10.084   5.237   8.428  0.4011 -0.8728 -0.0385
  336MOL0     C46290  10.035   5.122   8.502 -0.1721 -0.5463  1.3065
  336MOL0     C46291  10.135   5.053   8.589  0.7006 -0.0009  0.7401
  336MOL0     C46292  10.074   4.917   8.631 -0.1886 -0.6526 -0.8040
  336MOL0     C46293  10.167   4.845   8.728 -0.3592  0.4535 -0.4663
  336MOL0     C46294  10.111   4.714   8.758  0.0296 -0.4370 -0.4303
  336MOL0     C46295  10.070   4.614   8.811  0.9892 -0.9883 -0.3835
  336MOL0     C46296  10.139   5.462   8.426  0.3462  0.5396  0.0912
  336MOL0     C46297  10.132   5.598   8.464  0.5183 -0.1218  0.8938
  336MOL0     C46298  10.209   5.695   8.379  0.2254 -1.0459  0.0516
  336MOL0     H46299  10.201   5.972   8.755  0.9438  1.8935  0.4803
  336MOL0     H46300  10.206   6.196   8.868  1.1751 -1.5466  0.6191
  336MOL0     H46301   9.836   6.405   8.836 -1.4941  1.4742  4.4972
  336MOL0     H46302   9.990   6.437   8.766  0.2469 -0.4452  1.0021
  336MOL0     H46303   9.833   6.620   8.907  0.4125 -0.3846 -1.9887
  336MOL0     H46304   9.922   6.548   9.039 -1.1408 -1.0859  0.0806
  336MOL0     H46305  10.128   6.606   8.922 -1.2984  0.2250  1.8336
  336MOL0     H46306  10.047   6.691   8.800 -1.8102 -0.2567  0.1217
  336MOL0     H46307  10.097   6.870   8.957  0.4245 -0.8718  1.3233
  336MOL0     H46308   9.929   6.804   9.007 -0.3451 -2.4534  0.2182
  336MOL0     H46309  10.086   6.669   9.165 -0.7571  0.6579 -1.0164
  336MOL0     H46310  10.047   6.841   9.204  0.8710  0.5953  0.5303
  336MOL0     H46311  10.266   6.916   9.154 -2.9408  0.7682 -1.3043
  336MOL0     H46312  10.303   6.770   9.240  3.0239 -0.1671 -1.1023
  336MOL0     H46313  10.325   6.830   8.952 -1.4392  0.5490  0.5429
  336MOL0     H46314  10.310   6.657   9.009 -1.4668 -1.5519  2.8510
  336MOL0     H46315  10.503   6.699   9.152  0.0448 -0.1799 -1.0863
  336MOL0     H46316  10.544   6.707   8.988  0.3762  0.4481  0.7462
  336MOL0     H46317  10.621   6.991   8.916  0.6532 -0.9343  0.8243
  336MOL0     H46318  10.680   7.236   8.953 -0.2854  2.5485 -0.1690
  336MOL0     H46319  10.772   7.223   9.118 -1.2625  3.0723  1.6423
  336MOL0     H46320  10.542   7.335   9.200  1.6775 -0.1146  0.4427
  336MOL0     H46321  10.659   7.443   9.132 -1.6813  1.4014 -0.0054
  336MOL0     H46322  10.564   7.422   8.903 -1.1542 -0.1731 -0.9698
  336MOL0     H46323  10.441   7.323   8.967  1.2527  0.0560 -4.2351
  336MOL0     H46324  10.362   7.512   9.111  1.0662  3.0767  1.4434
  336MOL0     H46325  10.495   7.601   9.097 -1.5050 -0.5009  1.9543
  336MOL0     H46326  10.349   7.652   8.669  1.3909  0.5467 -2.1012
  336MOL0     H46327  10.595   7.693   8.399 -1.0118  0.6586 -1.2164
  336MOL0     H46328  10.489   7.826   8.416 -1.8852 -1.0142 -0.3638
  336MOL0     H46329  10.424   7.663   8.437  1.3638 -0.5558 -1.6534
  336MOL0     H46330  10.925   8.063   8.465 -0.3883 -0.6482  2.2290
  336MOL0     H46331  11.098   8.140   8.346 -0.7664  0.8342  1.7131
  336MOL0     H46332  11.531   8.096   8.346  0.3541 -0.2180  0.3224
  336MOL0     H46333  11.497   7.945   8.444  1.9361  2.1377  0.8291
  336MOL0     H46334  11.458   7.968   8.144 -0.1108  2.0196  1.0006
  336MOL0     H46335  11.619   7.900   8.207  0.3666 -1.2940 -0.8400
  336MOL0     H46336  11.358   7.767   8.272 -0.1250  0.4432 -1.2308
  336MOL0     H46337  11.518   7.724   8.324  0.1289 -2.9119 -1.3248
  336MOL0     H46338  11.453   7.754   8.021  1.7251  1.2942 -0.2913
  336MOL0     H46339  11.408   7.607   8.089  2.4957 -2.6055  0.4196
  336MOL0     H46340  11.640   7.589   7.993  0.8353 -2.8002  1.2846
  336MOL0     H46341  11.684   7.731   8.086 -3.7990  3.0992  0.4424
  336MOL0     H46342  11.588   7.463   8.201 -0.3178 -0.2521 -0.9964
  336MOL0     H46343  11.670   7.589   8.296  0.9810  3.7021 -1.3652
  336MOL0     H46344  11.868   7.574   8.116 -0.8990  2.2457  3.0009
  336MOL0     H46345  11.779   7.428   8.070  1.2694  1.2225 -1.0000
  336MOL0     H46346  11.849   7.475   8.371  0.5826 -0.5834 -0.1411
  336MOL0     H46347  11.973   7.433   8.253  0.2631  1.9416 -3.8182
  336MOL0     H46348  11.339   7.807   8.476  1.0508  1.5019 -2.4015
  336MOL0     H46349  11.129   7.723   8.589  3.3217 -0.1801  1.5081
  336MOL0     H46350  10.789   7.796   8.842  0.7135 -0.0164 -2.1383
  336MOL0     H46351  10.630   7.714   8.984  0.8269 -0.0386 -0.1874
  336MOL0     H46352   9.783   6.166   8.931 -0.7745  1.2627 -2.5235
  336MOL0     H46353   9.783   5.949   8.861 -0.3292  0.4194  0.5997
  336MOL0     H46354   9.985   5.545   8.765  3.2112  1.2044  0.4133
  336MOL0     H46355   9.989   5.319   8.684 -1.4879  1.8465  1.9009
  336MOL0     H46356   9.939   5.151   8.546 -1.4484 -1.6282 -0.5988
  336MOL0     H46357  10.009   5.044   8.429 -0.9190 -0.3335  1.3300
  336MOL0     H46358  10.158   5.120   8.672 -1.3609 -0.9351  2.1347
  336MOL0     H46359  10.225   5.037   8.528  0.0779  2.3528 -0.9453
  336MOL0     H46360   9.979   4.932   8.683  1.2553 -0.1129  1.8918
  336MOL0     H46361  10.050   4.868   8.537 -1.8506  1.3274 -1.4897
  336MOL0     H46362  10.181   4.899   8.822 -0.7252  0.2858 -0.3146
  336MOL0     H46363  10.264   4.824   8.682  0.6237  0.4280  1.4957
  336MOL0     H46364  10.042   4.520   8.855  4.3096 -1.6252  0.5884
  336MOL0     H46365  10.188   5.428   8.336  0.0766 -1.7039  0.7131
  336MOL0     H46366  10.279   5.647   8.310 -0.5506  0.1486 -1.6323
  336MOL0     H46367  10.137   5.748   8.316  0.6977 -0.0638  0.3172
  336MOL0     H46368  10.259   5.767   8.443 -0.8895  1.4574 -1.7441
  337MOL0     O46369   7.832  11.465   1.341  0.3409  0.4003 -0.0754
  337MOL0     C46370   7.753  11.384   1.377 -0.5260  0.5440 -0.1252
  337MOL0     O46371   7.693  11.376   1.497 -0.7976 -0.8217 -0.9904
  337MOL0     C46372   7.741  11.425   1.613 -0.3797 -0.7914 -0.5926
  337MOL0     C46373   7.883  11.439   1.642  0.0678 -0.3520  0.8336
  337MOL0     C46374   7.925  11.451   1.775  0.0482 -1.0470  0.1120
  337MOL0     C46375   7.835  11.477   1.871  0.3340 -0.0523 -0.2744
  337MOL0     O46376   7.875  11.518   1.997 -0.0838  0.5256 -0.0311
  337MOL0     C46377   8.018  11.538   2.026  0.5601 -0.3627  0.2998
  337MOL0     C46378   8.030  11.605   2.159 -0.4953 -0.0628 -0.7744
  337MOL0     C46379   8.176  11.603   2.220  0.3856 -0.2014  0.6606
  337MOL0     C46380   8.246  11.736   2.198 -0.5888 -0.5225  0.5505
  337MOL0     C46381   8.373  11.763   2.280 -0.2439  0.4512  0.0216
  337MOL0     C46382   8.342  11.802   2.425  0.5905  0.1166  0.1653
  337MOL0     C46383   8.469  11.815   2.501  0.1007  0.4706  0.4439
  337MOL0     C46384   8.445  11.830   2.647 -0.0573 -1.2242 -0.3033
  337MOL0     N46385   8.575  11.873   2.717  0.4776  0.2402 -0.3937
  337MOL0     C46386   8.651  11.773   2.780  0.0627 -0.3386  0.2676
  337MOL0     C46387   8.713  11.834   2.887 -0.1854 -0.4456  0.0099
  337MOL0     C46388   8.815  11.775   2.971  0.4789  0.8169 -0.4291
  337MOL0     C46389   8.756  11.726   3.111  0.1092 -0.2149  0.6243
  337MOL0     C46390   8.654  11.605   3.114  0.5674 -0.1407  0.4392
  337MOL0     C46391   8.719  11.473   3.074  1.0467  1.0247 -0.4321
  337MOL0     O46392   8.622  11.367   3.071 -0.4795 -0.2242 -0.2315
  337MOL0     C46393   8.655  11.244   3.031 -0.0122  0.4619 -0.0240
  337MOL0     C46394   8.550  11.150   3.036 -0.5017 -0.9182 -1.0337
  337MOL0     C46395   8.571  11.018   3.020 -0.6374  0.4928  0.0438
  337MOL0     C46396   8.461  10.923   3.063  0.4649 -0.6233  0.0873
  337MOL0     C46397   8.702  10.972   2.980  0.1359  1.0277  0.2009
  337MOL0     C46398   8.741  10.830   2.954 -0.5559 -1.1579 -0.0057
  337MOL0     O46399   8.864  10.805   2.894  0.2610 -0.1673  0.0917
  337MOL0     C46400   8.904  10.678   2.865 -0.5520 -0.2169  1.1976
  337MOL0     C46401   8.933  10.592   2.968 -0.7448 -0.6026  0.9317
  337MOL0     C46402   8.960  10.457   2.947 -1.0055  0.3019  0.2787
  337MOL0     C46403   8.970  10.405   2.813 -0.9616 -0.6321 -0.6313
  337MOL0     O46404   9.003  10.278   2.783  0.5911  0.1148  0.1119
  337MOL0     C46405   8.985  10.175   2.881 -0.0741 -0.3754 -0.2476
  337MOL0     C46406   8.843  10.132   2.913 -0.2698 -0.4403 -0.1128
  337MOL0     C46407   8.815  10.020   2.809  0.0954  0.5495  0.2863
  337MOL0     C46408   8.711  10.069   2.702  0.2474  1.3704 -1.0687
  337MOL0     C46409   8.757  10.175   2.603  0.0167 -0.3054  0.0291
  337MOL0     C46410   8.688  10.175   2.460 -0.7456  0.2666 -0.2880
  337MOL0     C46411   8.691  10.319   2.411 -0.6736 -0.8785 -1.1391
  337MOL0     C46412   8.682  10.328   2.265 -0.2136 -0.4837 -0.8113
  337MOL0    Cl46413   8.513  10.259   2.229  0.2947  0.1954 -0.1483
  337MOL0     C46414   8.952  10.498   2.707 -0.2356  0.9002 -0.2774
  337MOL0     C46415   8.920  10.632   2.729 -0.4204 -0.3575 -0.3974
  337MOL0     O46416   8.676  10.742   3.010  0.3778  0.1974 -0.2631
  337MOL0     C46417   8.806  11.064   2.964  0.7294  0.3398 -0.1436
  337MOL0     C46418   8.785  11.192   3.000  0.5797 -0.0931  0.1880
  337MOL0     N46419   8.676  11.968   2.894  0.2950  1.0462  0.1970
  337MOL0     N46420   8.589  11.987   2.798 -0.1940 -0.6838  0.0212
  337MOL0     C46421   7.697  11.489   1.841  0.0860  0.3800  0.2732
  337MOL0     C46422   7.651  11.456   1.709  1.1685  0.1062 -0.7208
  337MOL0     C46423   7.687  11.292   1.275 -0.0303 -0.0723 -0.0412
  337MOL0     C46424   7.607  11.187   1.321  0.8208  0.6633  0.5588
  337MOL0     C46425   7.538  11.109   1.235 -0.1585 -0.4017  0.1194
  337MOL0     C46426   7.565  11.114   1.098  0.1139  0.4654 -0.2955
  337MOL0     O46427   7.538  11.005   1.019  0.4810  0.0311  0.0456
  337MOL0     C46428   7.434  11.018   0.921 -0.7342 -0.2225  0.6295
  337MOL0     C46429   7.331  10.907   0.929  0.4473 -0.1023 -0.5108
  337MOL0     C46430   7.277  10.866   1.074 -1.2226  0.7862  0.4699
  337MOL0     C46431   7.151  10.783   1.076  0.2656  1.3730  0.9502
  337MOL0     C46432   7.109  10.756   1.212 -0.7965 -0.3956 -0.5625
  337MOL0     C46433   7.080  10.727   1.323  1.3129  0.2302 -0.6304
  337MOL0     C46434   7.649  11.216   1.049 -0.2800 -0.0666  0.4418
  337MOL0     C46435   7.718  11.303   1.136  0.1481  0.3851 -0.1751
  337MOL0     C46436   7.832  11.380   1.072  0.5110 -0.1876  0.0340
  337MOL0     H46437   7.952  11.410   1.563 -0.1835 -0.2649  0.5811
  337MOL0     H46438   8.033  11.442   1.786  0.2719 -1.6246 -2.2226
  337MOL0     H46439   8.075  11.594   1.951  1.3079 -0.2795  0.9158
  337MOL0     H46440   8.063  11.438   2.017  0.1973 -0.3770 -2.2252
  337MOL0     H46441   7.992  11.708   2.153  0.7948  0.4290 -0.8425
  337MOL0     H46442   7.975  11.545   2.232 -0.2014 -2.1229 -2.1918
  337MOL0     H46443   8.174  11.580   2.327  0.9195 -2.3962  0.2449
  337MOL0     H46444   8.237  11.523   2.178 -1.7689 -1.2027 -0.7386
  337MOL0     H46445   8.278  11.744   2.093  1.8448  0.3407  1.2998
  337MOL0     H46446   8.174  11.818   2.209 -0.5777 -0.7140  2.2715
  337MOL0     H46447   8.433  11.840   2.232  2.5512 -1.2984  0.4262
  337MOL0     H46448   8.432  11.671   2.293  0.6910  1.3063  2.3027
  337MOL0     H46449   8.287  11.895   2.441  1.1879  1.0249 -2.6531
  337MOL0     H46450   8.272  11.727   2.464 -0.2377  0.7489 -0.0800
  337MOL0     H46451   8.529  11.900   2.469 -0.5897  0.3440 -1.2964
  337MOL0     H46452   8.534  11.732   2.470 -2.2519 -0.9026 -1.1200
  337MOL0     H46453   8.374  11.912   2.667 -0.7896 -1.0268 -3.2035
  337MOL0     H46454   8.395  11.743   2.691 -0.2611 -0.0714  1.8572
  337MOL0     H46455   8.653  11.671   2.742  1.1118  0.1946 -1.1967
  337MOL0     H46456   8.894  11.843   3.002  0.9333 -0.4861  1.4112
  337MOL0     H46457   8.862  11.688   2.924 -0.9194 -1.8577  2.6663
  337MOL0     H46458   8.848  11.705   3.166  1.1552  2.1774 -0.0944
  337MOL0     H46459   8.694  11.794   3.170 -2.6428 -1.0518 -1.1514
  337MOL0     H46460   8.618  11.588   3.216  0.0621 -0.8435  0.1492
  337MOL0     H46461   8.572  11.618   3.042  2.3967 -1.1540 -1.9763
  337MOL0     H46462   8.767  11.477   2.976  0.6920 -0.5984 -0.7012
  337MOL0     H46463   8.799  11.448   3.144 -0.7170 -0.7075  1.0800
  337MOL0     H46464   8.452  11.190   3.061  0.4447  0.7908  0.2270
  337MOL0     H46465   8.370  10.982   3.081  0.9818 -0.1745  1.3388
  337MOL0     H46466   8.465  10.868   3.157  0.3013 -1.1356 -0.1974
  337MOL0     H46467   8.433  10.855   2.982  0.0843  0.0857 -0.3886
  337MOL0     H46468   8.937  10.632   3.069  1.5166  1.9455 -0.0424
  337MOL0     H46469   8.972  10.413   3.046 -0.7537  3.4204  1.7591
  337MOL0     H46470   9.047  10.085   2.871 -0.9154 -1.1725  1.2377
  337MOL0     H46471   9.021  10.217   2.976  2.0113 -3.3528  0.4211
  337MOL0     H46472   8.841  10.097   3.016  3.2355  0.3060  0.3384
  337MOL0     H46473   8.772  10.214   2.901  1.6281  1.2417 -0.4792
  337MOL0     H46474   8.763   9.943   2.867 -0.5342  1.6862  1.2690
  337MOL0     H46475   8.894   9.977   2.747 -0.8347  0.3765 -0.8024
  337MOL0     H46476   8.623  10.106   2.756  1.3707 -1.6927  3.4028
  337MOL0     H46477   8.672   9.983   2.649  0.0765  0.0634  1.0577
  337MOL0     H46478   8.745  10.276   2.643  0.7081 -0.3736  0.4104
  337MOL0     H46479   8.864  10.169   2.584  0.0465 -0.8892  0.3684
  337MOL0     H46480   8.584  10.145   2.478 -0.1045 -2.2015 -0.3789
  337MOL0     H46481   8.744  10.107   2.395 -1.7407 -1.1301  0.2602
  337MOL0     H46482   8.784  10.362   2.449 -1.9311 -1.6629  3.5549
  337MOL0     H46483   8.618  10.377   2.467  1.8907 -1.0512  2.8132
  337MOL0     H46484   8.750  10.262   2.212  0.4895  0.3109 -0.9058
  337MOL0     H46485   8.684  10.431   2.228  0.9598  0.0342  0.6077
  337MOL0     H46486   8.946  10.461   2.605 -0.2800  0.2782 -0.0567
  337MOL0     H46487   8.892  10.704   2.653 -0.9340 -0.7279 -0.5642
  337MOL0     H46488   8.905  11.029   2.937 -0.7467 -3.7475 -0.9874
  337MOL0     H46489   8.866  11.262   2.980  0.0716  0.2359 -0.8042
  337MOL0     H46490   7.622  11.521   1.913 -0.8758 -0.0461 -0.5126
  337MOL0     H46491   7.548  11.432   1.683  1.4908 -1.1376 -0.9082
  337MOL0     H46492   7.591  11.175   1.427  0.7496  0.4843  0.5280
  337MOL0     H46493   7.497  11.019   1.279 -2.9312  0.4895 -0.4457
  337MOL0     H46494   7.387  11.115   0.934 -4.4661 -1.7664  0.0045
  337MOL0     H46495   7.479  11.025   0.822  0.3683 -1.0223  1.0477
  337MOL0     H46496   7.373  10.815   0.887 -1.4388 -0.6140 -1.3923
  337MOL0     H46497   7.250  10.934   0.861  0.7678  1.5956 -0.2653
  337MOL0     H46498   7.356  10.804   1.117 -3.3767 -2.1561  0.4610
  337MOL0     H46499   7.264  10.959   1.131 -0.6093  2.2467 -1.6301
  337MOL0     H46500   7.165  10.685   1.030 -2.4671  1.0302  0.6504
  337MOL0     H46501   7.075  10.836   1.017  0.5935 -0.6253 -1.4269
  337MOL0     H46502   7.053  10.675   1.413  1.4532 -3.6302 -2.5963
  337MOL0     H46503   7.675  11.208   0.945  0.1471 -1.4352  0.6439
  337MOL0     H46504   7.846  11.324   0.978  1.7534  0.8086 -0.4002
  337MOL0     H46505   7.815  11.488   1.065  3.4013  0.3311 -0.2448
  337MOL0     H46506   7.922  11.361   1.132 -1.3693 -2.7396  2.2683
  338MOL0     O46507   3.780   7.704   6.971  0.5687 -0.1477 -0.1183
  338MOL0     C46508   3.752   7.766   7.074  1.5004 -0.4388 -0.6465
  338MOL0     O46509   3.835   7.784   7.176 -0.0214  0.3097  0.4668
  338MOL0     C46510   3.935   7.697   7.189 -1.3087  0.0625  0.3444
  338MOL0     C46511   3.925   7.596   7.285 -0.5816 -0.1590 -0.8695
  338MOL0     C46512   4.017   7.491   7.280 -0.4284 -0.2773  0.4855
  338MOL0     C46513   4.122   7.490   7.190  0.3042  0.4043 -0.9750
  338MOL0     O46514   4.209   7.383   7.194  0.4446 -0.0917 -0.3555
  338MOL0     C46515   4.336   7.384   7.127 -0.0648 -0.0290 -0.5939
  338MOL0     C46516   4.416   7.255   7.148  0.1610  0.2180 -0.2865
  338MOL0     C46517   4.506   7.239   7.034 -0.2712 -0.6171 -0.1871
  338MOL0     C46518   4.578   7.101   7.043 -0.3659  0.3750 -0.5935
  338MOL0     C46519   4.644   7.055   6.912  0.2714 -0.4392 -0.6514
  338MOL0     C46520   4.752   7.154   6.869  0.3146  0.5953 -0.3459
  338MOL0     C46521   4.869   7.145   6.959 -0.4603  0.4366  0.7098
  338MOL0     C46522   5.002   7.101   6.882 -0.8493  0.2792  0.3116
  338MOL0     N46523   5.101   7.061   6.975 -0.1281 -0.8801 -1.0045
  338MOL0     C46524   5.196   7.149   7.040  0.7128  0.2556  0.2647
  338MOL0     C46525   5.264   7.071   7.124 -0.4634  0.6259  0.0667
  338MOL0     C46526   5.379   7.124   7.211  0.5094  0.4767 -0.4376
  338MOL0     C46527   5.483   7.010   7.257 -0.9311  0.3282  0.2358
  338MOL0     C46528   5.464   6.962   7.400  0.2516  0.1351 -0.1075
  338MOL0     C46529   5.548   7.032   7.504 -0.0053 -0.5040 -0.4254
  338MOL0     O46530   5.550   7.174   7.476  0.2784 -1.3873 -0.3943
  338MOL0     C46531   5.655   7.253   7.539  0.0142 -0.4712  0.1602
  338MOL0     C46532   5.717   7.215   7.663 -0.7561  0.0330  0.8839
  338MOL0     C46533   5.816   7.290   7.723  0.2371 -0.0374 -0.4881
  338MOL0     C46534   5.852   7.240   7.857  0.4133 -0.0326  0.5574
  338MOL0     C46535   5.849   7.416   7.668 -0.4565  0.0739 -0.2967
  338MOL0     C46536   5.934   7.513   7.745 -0.4096  0.4046  0.2883
  338MOL0     O46537   5.920   7.645   7.711 -0.9503  1.1523  0.3865
  338MOL0     C46538   6.003   7.733   7.780 -0.2919  0.1171 -0.4820
  338MOL0     C46539   6.137   7.765   7.739  0.0328  0.8624 -0.6321
  338MOL0     C46540   6.205   7.866   7.804 -0.1642  0.0157  0.5671
  338MOL0     C46541   6.141   7.938   7.916 -0.3485  1.1353 -0.2126
  338MOL0     O46542   6.205   8.034   7.987  0.6667  0.0594 -0.9490
  338MOL0     C46543   6.347   8.030   7.993 -0.3285 -0.4369 -0.0736
  338MOL0     C46544   6.404   8.157   8.048 -0.2214  0.2132  0.5642
  338MOL0     C46545   6.374   8.175   8.202 -0.2483 -1.1766 -0.2262
  338MOL0     C46546   6.419   8.317   8.272  0.5804 -0.2876 -0.0252
  338MOL0     C46547   6.567   8.328   8.289  0.3102  0.0678 -0.3820
  338MOL0     C46548   6.603   8.456   8.353 -0.2211 -0.1888  0.1406
  338MOL0     C46549   6.581   8.444   8.503 -0.3394 -0.6599 -1.3271
  338MOL0     C46550   6.638   8.562   8.587 -0.3389 -0.3002  0.5302
  338MOL0    Cl46551   6.540   8.708   8.580 -0.4369  0.0206  0.0625
  338MOL0     C46552   6.010   7.908   7.954 -1.0887 -0.4617  0.5150
  338MOL0     C46553   5.940   7.806   7.884  0.1550  0.1285  0.1363
  338MOL0     O46554   5.982   7.473   7.848 -0.9916  0.2980  1.0720
  338MOL0     C46555   5.800   7.447   7.542  0.0084 -0.3028  0.4658
  338MOL0     C46556   5.700   7.369   7.477  0.9576 -0.6252 -0.4153
  338MOL0     N46557   5.211   6.943   7.122 -0.2986 -0.4965 -0.6283
  338MOL0     N46558   5.115   6.940   7.028 -1.0712  0.5002  0.0050
  338MOL0     C46559   4.134   7.595   7.099 -0.2409 -0.3877 -0.2448
  338MOL0     C46560   4.048   7.706   7.093 -0.2950 -0.2449  0.2982
  338MOL0     C46561   3.613   7.832   7.093  0.6725 -0.0893  0.2697
  338MOL0     C46562   3.580   7.909   7.214  0.6156 -0.1368 -0.4603
  338MOL0     C46563   3.454   7.963   7.249 -0.8804  0.3102 -0.5163
  338MOL0     C46564   3.356   7.952   7.163  0.2966  0.2427 -0.0731
  338MOL0     O46565   3.220   7.993   7.186 -0.1937 -0.5129 -0.0802
  338MOL0     C46566   3.202   8.131   7.209  0.3284  0.2203  0.7431
  338MOL0     C46567   3.055   8.146   7.265 -0.0380  0.2988  0.6260
  338MOL0     C46568   3.028   8.293   7.277  0.0766 -0.3157  0.0576
  338MOL0     C46569   2.918   8.311   7.392 -1.2199 -0.0862  0.2393
  338MOL0     C46570   2.978   8.309   7.527  0.7297 -0.1254  0.6461
  338MOL0     C46571   3.017   8.306   7.642 -0.5788  0.8203  0.8525
  338MOL0     C46572   3.377   7.885   7.043 -0.4418  0.5896  0.3208
  338MOL0     C46573   3.501   7.821   7.009  0.2131 -0.3402 -0.1400
  338MOL0     C46574   3.503   7.736   6.879  1.4750 -0.5198 -0.3237
  338MOL0     H46575   3.842   7.603   7.355  0.8384 -1.4518  1.0219
  338MOL0     H46576   4.017   7.412   7.354  0.5446 -0.1729  0.6123
  338MOL0     H46577   4.391   7.473   7.158 -0.7929  1.4574 -3.2757
  338MOL0     H46578   4.314   7.396   7.021 -1.8468 -0.7954 -0.3479
  338MOL0     H46579   4.475   7.267   7.239 -0.6380 -1.0575  0.4307
  338MOL0     H46580   4.342   7.175   7.146 -0.3352  0.6879 -1.0078
  338MOL0     H46581   4.444   7.238   6.943  0.6509  0.6253 -0.8677
  338MOL0     H46582   4.569   7.329   7.029 -1.6403  0.3327 -2.0269
  338MOL0     H46583   4.655   7.102   7.121  0.8656 -1.1861 -1.7195
  338MOL0     H46584   4.509   7.022   7.074 -1.2141  1.7748  1.3446
  338MOL0     H46585   4.571   7.062   6.831 -0.6364 -0.3709  0.1579
  338MOL0     H46586   4.671   6.949   6.913 -1.9113 -1.0447 -0.4933
  338MOL0     H46587   4.779   7.129   6.766 -1.3543  0.9213 -0.8972
  338MOL0     H46588   4.725   7.259   6.881 -1.6873  0.3407 -2.0077
  338MOL0     H46589   4.859   7.071   7.038  0.0053 -2.8508 -2.0680
  338MOL0     H46590   4.893   7.242   7.003  1.5237  0.2631  0.1420
  338MOL0     H46591   4.985   7.016   6.815 -2.6854 -1.5133  2.8232
  338MOL0     H46592   5.040   7.184   6.823  0.9142 -0.2952  0.5974
  338MOL0     H46593   5.207   7.256   7.026 -1.2198  0.3706 -0.6546
  338MOL0     H46594   5.328   7.178   7.291 -1.1683 -0.6857 -0.6699
  338MOL0     H46595   5.421   7.201   7.145 -1.5219 -1.6186 -4.6054
  338MOL0     H46596   5.482   6.928   7.185 -0.5010  1.1562 -0.7315
  338MOL0     H46597   5.588   7.042   7.264 -0.6263 -0.6389  0.4062
  338MOL0     H46598   5.362   6.981   7.436 -0.2639  1.0857 -1.9350
  338MOL0     H46599   5.483   6.855   7.406  0.1023  0.0798 -0.5956
  338MOL0     H46600   5.515   7.008   7.605 -0.3794 -0.4101 -0.5248
  338MOL0     H46601   5.641   6.977   7.489 -1.6483 -3.7183  0.2965
  338MOL0     H46602   5.672   7.136   7.723  1.3516 -1.6451  0.3897
  338MOL0     H46603   5.833   7.315   7.934  2.0506 -0.8429  1.8326
  338MOL0     H46604   5.959   7.217   7.865  0.4040 -0.3282 -0.0608
  338MOL0     H46605   5.804   7.143   7.874  1.8506 -0.7227  0.8156
  338MOL0     H46606   6.177   7.713   7.653 -0.3152  0.6771 -0.6840
  338MOL0     H46607   6.305   7.889   7.769  0.9168 -2.4676  1.7749
  338MOL0     H46608   6.381   7.951   8.060  2.0212  1.0093  0.5320
  338MOL0     H46609   6.395   8.018   7.895 -1.2128 -2.3251 -0.3321
  338MOL0     H46610   6.511   8.163   8.027 -0.1101 -0.6758  0.8130
  338MOL0     H46611   6.361   8.237   7.988  1.0353  0.7421  0.3358
  338MOL0     H46612   6.427   8.093   8.251  2.7760  1.3590  1.0631
  338MOL0     H46613   6.266   8.184   8.219  0.0827  0.3505  1.3510
  338MOL0     H46614   6.373   8.330   8.370  0.6124  0.2670 -0.0768
  338MOL0     H46615   6.379   8.397   8.209  0.9410  0.7772  1.0637
  338MOL0     H46616   6.605   8.248   8.352  1.1110  0.8572  0.1488
  338MOL0     H46617   6.611   8.325   8.188 -1.9686 -1.0183 -1.4165
  338MOL0     H46618   6.551   8.543   8.311  2.9864  2.6858  1.5995
  338MOL0     H46619   6.708   8.467   8.324 -0.4180  0.9694 -0.2163
  338MOL0     H46620   6.636   8.355   8.536 -0.4107 -1.2060 -2.6396
  338MOL0     H46621   6.475   8.432   8.529 -0.2829  1.5174  0.1116
  338MOL0     H46622   6.740   8.575   8.550 -0.1743 -0.3616  0.9549
  338MOL0     H46623   6.639   8.515   8.686  1.3096 -0.3627  0.5144
  338MOL0     H46624   5.978   7.951   8.048 -1.4298  2.2063 -0.7474
  338MOL0     H46625   5.844   7.767   7.918  1.0414 -1.3946  1.0013
  338MOL0     H46626   5.824   7.542   7.495  3.7255 -2.2295 -2.0491
  338MOL0     H46627   5.644   7.406   7.392 -0.8286  1.8459  1.6777
  338MOL0     H46628   4.224   7.605   7.039  2.6486  1.6895  3.9897
  338MOL0     H46629   4.058   7.784   7.018  3.0781 -0.1832  0.6578
  338MOL0     H46630   3.666   7.918   7.280 -0.1966 -2.1646  0.9725
  338MOL0     H46631   3.439   8.015   7.343  0.5852 -1.3482  0.7087
  338MOL0     H46632   3.290   8.175   7.257  2.3678 -0.8502 -1.7687
  338MOL0     H46633   3.210   8.195   7.120  3.5344  0.3449  0.9930
  338MOL0     H46634   3.049   8.096   7.362 -0.1744  1.7803  1.4204
  338MOL0     H46635   2.986   8.116   7.186  2.3032 -0.0199 -1.3870
  338MOL0     H46636   3.120   8.341   7.314 -1.4497  0.9348  2.5305
  338MOL0     H46637   2.981   8.337   7.189 -2.4799 -0.6161  1.1824
  338MOL0     H46638   2.840   8.236   7.383 -2.2331  0.6733  2.0785
  338MOL0     H46639   2.870   8.409   7.380 -0.1321  0.5401  0.7966
  338MOL0     H46640   3.058   8.316   7.741 -1.4046  2.3815  1.0511
  338MOL0     H46641   3.296   7.880   6.971 -0.3450 -2.3502  0.2612
  338MOL0     H46642   3.412   7.738   6.818 -0.4362 -0.3319  2.3637
  338MOL0     H46643   3.585   7.769   6.815  1.6844 -2.1469 -0.9463
  338MOL0     H46644   3.528   7.634   6.911  2.9032 -0.4013 -0.9914
  339MOL0     O46645   9.672   1.529   9.388  0.5402  0.1822 -0.3907
  339MOL0     C46646   9.553   1.533   9.393  0.4265 -0.6661 -0.5086
  339MOL0     O46647   9.481   1.429   9.435  0.1355  0.2528 -0.7631
  339MOL0     C46648   9.342   1.436   9.435  0.3550 -0.2003  0.1623
  339MOL0     C46649   9.269   1.407   9.321  0.2370  0.0563 -1.2835
  339MOL0     C46650   9.130   1.412   9.329 -0.2394 -0.4364  0.5357
  339MOL0     C46651   9.062   1.422   9.453 -0.3100 -0.7914  0.2747
  339MOL0     O46652   8.924   1.420   9.484 -0.4075 -0.1720 -0.1093
  339MOL0     C46653   8.853   1.343   9.395  0.0340 -0.2011  0.0612
  339MOL0     C46654   8.743   1.286   9.478 -0.2515 -0.6253  0.5809
  339MOL0     C46655   8.707   1.150   9.408  0.1924 -0.1835  0.1956
  339MOL0     C46656   8.575   1.089   9.447  1.0511 -0.4202 -0.2006
  339MOL0     C46657   8.564   0.936   9.426  0.0846  0.4497  0.5834
  339MOL0     C46658   8.419   0.904   9.468  0.3277 -0.5760  0.3874
  339MOL0     C46659   8.389   0.756   9.474 -0.0516  0.6808 -0.2450
  339MOL0     C46660   8.428   0.685   9.342 -0.2930 -0.4808 -0.2698
  339MOL0     N46661   8.369   0.555   9.337  0.0061  0.6127 -1.7276
  339MOL0     C46662   8.241   0.519   9.381 -0.1092 -0.4009 -0.5971
  339MOL0     C46663   8.223   0.390   9.336 -1.0173  0.8455  0.0934
  339MOL0     C46664   8.119   0.287   9.356 -0.0432 -0.0110  0.5126
  339MOL0     C46665   8.124   0.215   9.487 -0.6193 -0.5455  0.0088
  339MOL0     C46666   8.052   0.278   9.598 -0.3159  0.0279  0.3200
  339MOL0     C46667   8.077   0.209   9.729 -0.0834 -0.2337 -0.1190
  339MOL0     O46668   8.204   0.156   9.743  0.2388  1.0666 -0.2034
  339MOL0     C46669   8.239   0.084   9.858  0.1812 -1.0940  0.1472
  339MOL0     C46670   8.157   0.072   9.973  0.7917 -0.9587  0.7930
  339MOL0     C46671   8.191  -0.013  10.077  0.0500 -0.1236  0.2791
  339MOL0     C46672   8.089  -0.025  10.188  0.5646  0.9080  0.9754
  339MOL0     C46673   8.319  -0.083  10.069  0.3759 -0.1418 -0.1534
  339MOL0     C46674   8.373  -0.162  10.179  0.2018  0.3207 -0.4826
  339MOL0     O46675   8.501  -0.133  10.208  0.3737  0.0242 -0.5299
  339MOL0     C46676   8.564  -0.178  10.331  0.9558  0.8066 -0.3520
  339MOL0     C46677   8.521  -0.288  10.417  0.2435  0.2589  0.6579
  339MOL0     C46678   8.595  -0.334  10.527  0.6278  0.2242  0.3816
  339MOL0     C46679   8.722  -0.288  10.550 -0.2358 -0.2686 -0.3982
  339MOL0     O46680   8.777  -0.328  10.670 -0.0480 -0.0415 -0.0152
  339MOL0     C46681   8.910  -0.306  10.720  0.6075  0.3238 -0.2561
  339MOL0     C46682   8.947  -0.383  10.855  0.5031  0.5631 -0.0457
  339MOL0     C46683   8.858  -0.360  10.981  0.1521  0.1394 -0.5188
  339MOL0     C46684   8.713  -0.420  10.971 -0.2669  0.1939  0.3526
  339MOL0     C46685   8.649  -0.389  11.102 -0.3806  0.7529 -0.2820
  339MOL0     C46686   8.489  -0.412  11.083  1.0399 -0.3074 -0.1348
  339MOL0     C46687   8.423  -0.287  11.012 -0.6487  0.4693 -0.6512
  339MOL0     C46688   8.278  -0.303  10.977  0.3285  0.0947  0.1315
  339MOL0    Cl46689   8.184  -0.309  11.134  0.0270 -0.0991 -0.3911
  339MOL0     C46690   8.774  -0.187  10.468  0.1556 -0.1534  0.8950
  339MOL0     C46691   8.684  -0.120  10.369 -0.5315  0.7887  0.1352
  339MOL0     O46692   8.299  -0.257  10.217  0.7334  0.0761 -0.5674
  339MOL0     C46693   8.399  -0.061   9.956 -0.1017  0.1850  0.4040
  339MOL0     C46694   8.355   0.013   9.851 -0.1580  0.3964  0.6956
  339MOL0     N46695   8.356   0.353   9.284 -0.1686  0.2830  0.1455
  339MOL0     N46696   8.443   0.447   9.289 -0.1900 -0.3766 -0.5454
  339MOL0     C46697   9.141   1.443   9.563  0.0992  0.2859 -0.1749
  339MOL0     C46698   9.276   1.460   9.555 -1.0815 -0.3996 -0.2014
  339MOL0     C46699   9.485   1.652   9.363 -0.3120  0.2004 -0.6297
  339MOL0     C46700   9.446   1.663   9.229 -0.2377 -0.2916 -0.6358
  339MOL0     C46701   9.377   1.774   9.188  0.4964  0.3807 -0.3940
  339MOL0     C46702   9.348   1.877   9.283 -0.7829 -0.6278 -0.1952
  339MOL0     O46703   9.289   1.994   9.242 -0.1525 -0.3654  0.1827
  339MOL0     C46704   9.261   2.022   9.102  0.3104 -0.7396 -0.3799
  339MOL0     C46705   9.205   2.161   9.089 -0.0805 -0.5849  0.8567
  339MOL0     C46706   9.268   2.261   9.185  0.7258 -0.2108  0.1194
  339MOL0     C46707   9.213   2.405   9.173  0.4015 -0.2339 -1.2761
  339MOL0     C46708   9.068   2.409   9.178 -0.5189  0.7923 -0.4683
  339MOL0     C46709   8.950   2.425   9.164 -0.4448 -0.3051  0.3159
  339MOL0     C46710   9.376   1.858   9.419  0.4287 -0.3685  0.1336
  339MOL0     C46711   9.443   1.743   9.464  0.6741 -0.6617 -0.5864
  339MOL0     C46712   9.460   1.734   9.614  0.7421 -0.8214  0.5522
  339MOL0     H46713   9.319   1.384   9.227  3.6439 -3.1900  1.0735
  339MOL0     H46714   9.075   1.382   9.240 -1.3901  0.2770  0.9846
  339MOL0     H46715   8.911   1.262   9.350  0.5162 -0.5999  1.3401
  339MOL0     H46716   8.799   1.409   9.327 -4.6050 -1.2722  2.3557
  339MOL0     H46717   8.770   1.270   9.583  2.7226  1.2604  0.2268
  339MOL0     H46718   8.666   1.363   9.484  2.3204  2.1574  0.1557
  339MOL0     H46719   8.715   1.169   9.301  2.5650  2.4745  0.7133
  339MOL0     H46720   8.782   1.072   9.423  1.2874  0.7314 -0.3302
  339MOL0     H46721   8.555   1.116   9.551  0.3593 -0.9473 -0.1870
  339MOL0     H46722   8.501   1.147   9.390  1.3822  2.2121  1.8521
  339MOL0     H46723   8.628   0.890   9.502  2.0819  0.8854 -0.7477
  339MOL0     H46724   8.580   0.900   9.323 -4.4652  0.2080 -0.2673
  339MOL0     H46725   8.386   0.954   9.560 -3.1817  0.2388 -1.1394
  339MOL0     H46726   8.358   0.950   9.390  0.0474 -0.3047  0.7648
  339MOL0     H46727   8.284   0.748   9.503  0.7546 -0.1657  2.8393
  339MOL0     H46728   8.442   0.707   9.557  1.6445  4.3818  1.0632
  339MOL0     H46729   8.395   0.747   9.258  1.5701  1.0224  0.0430
  339MOL0     H46730   8.537   0.684   9.335 -0.0464  1.0107  2.1933
  339MOL0     H46731   8.167   0.568   9.444 -0.9266 -1.9851 -0.2798
  339MOL0     H46732   8.125   0.213   9.276 -1.0707 -0.6189  0.9689
  339MOL0     H46733   8.014   0.318   9.352  0.0614  0.2100 -0.7472
  339MOL0     H46734   8.069   0.122   9.472 -1.2972 -0.1112 -0.2441
  339MOL0     H46735   8.230   0.190   9.499  0.0359  1.0792 -1.8694
  339MOL0     H46736   8.083   0.383   9.604 -2.0382  0.7166 -1.8126
  339MOL0     H46737   7.948   0.264   9.570  0.5407  1.4043 -4.4769
  339MOL0     H46738   8.049   0.283   9.804 -0.9471 -0.0854 -0.5753
  339MOL0     H46739   8.002   0.135   9.759 -1.2619  2.0687  3.1195
  339MOL0     H46740   8.061   0.121   9.986  1.6234  0.3878  2.1367
  339MOL0     H46741   8.124   0.038  10.271  1.1646 -0.1499  1.5478
  339MOL0     H46742   8.072  -0.127  10.224 -0.2315  1.3050  1.7417
  339MOL0     H46743   7.991   0.010  10.154  0.9277  1.1942  0.1788
  339MOL0     H46744   8.428  -0.338  10.394  0.0054  1.2871 -0.7904
  339MOL0     H46745   8.562  -0.425  10.575 -0.5746 -0.4202 -1.5829
  339MOL0     H46746   8.989  -0.337  10.651  3.3773  0.0607  2.8317
  339MOL0     H46747   8.923  -0.198  10.733 -1.1700  0.7668 -1.6011
  339MOL0     H46748   8.952  -0.491  10.840  1.4434  0.7121 -0.8854
  339MOL0     H46749   9.049  -0.354  10.881 -0.1917  1.4168  2.0088
  339MOL0     H46750   8.843  -0.255  11.004  1.6300 -0.2009  2.3966
  339MOL0     H46751   8.921  -0.400  11.061 -0.0657 -2.8765 -1.6885
  339MOL0     H46752   8.716  -0.529  10.963 -1.4107  0.2236 -0.7338
  339MOL0     H46753   8.663  -0.367  10.889  0.6281  1.3561  0.5315
  339MOL0     H46754   8.695  -0.455  11.176  1.1426  2.7862  0.6702
  339MOL0     H46755   8.666  -0.286  11.134 -2.4111  1.3518 -1.0045
  339MOL0     H46756   8.449  -0.427  11.184  0.3549 -0.9798 -0.4924
  339MOL0     H46757   8.474  -0.508  11.033 -2.1110 -1.8022  3.1948
  339MOL0     H46758   8.477  -0.263  10.920 -1.5908  0.9563 -1.0860
  339MOL0     H46759   8.430  -0.208  11.088  0.4985 -0.4259  0.2206
  339MOL0     H46760   8.257  -0.386  10.910 -2.1889  1.9299 -1.5427
  339MOL0     H46761   8.236  -0.228  10.910  1.0796 -1.5170 -2.2895
  339MOL0     H46762   8.863  -0.137  10.505 -0.8985  0.7030  2.3941
  339MOL0     H46763   8.726  -0.034  10.317 -1.1138 -0.1754 -2.0161
  339MOL0     H46764   8.501  -0.099   9.955  0.0237  0.5082  0.6809
  339MOL0     H46765   8.416   0.029   9.763 -1.9032  4.5715 -0.0245
  339MOL0     H46766   9.093   1.457   9.660 -2.8633 -0.2355 -1.4621
  339MOL0     H46767   9.343   1.461   9.641 -0.2457 -4.8387 -0.5665
  339MOL0     H46768   9.476   1.589   9.155  2.4559  0.8947 -0.8525
  339MOL0     H46769   9.351   1.781   9.083  1.3809 -1.9321 -0.8254
  339MOL0     H46770   9.352   2.022   9.041 -1.7092  0.7429 -3.6807
  339MOL0     H46771   9.194   1.957   9.045 -0.6725  1.6106 -2.0684
  339MOL0     H46772   9.097   2.157   9.103 -0.2660  0.3486 -0.1395
  339MOL0     H46773   9.218   2.211   8.992  1.3253  0.6483  1.6255
  339MOL0     H46774   9.257   2.229   9.289 -1.3933 -0.6747 -0.1963
  339MOL0     H46775   9.377   2.264   9.183  0.7767  1.2871  2.3519
  339MOL0     H46776   9.255   2.440   9.078  2.4947  1.7594  0.2854
  339MOL0     H46777   9.260   2.468   9.249  0.0519  1.9465 -2.7719
  339MOL0     H46778   8.848   2.450   9.144  0.2004  1.3775 -1.0655
  339MOL0     H46779   9.359   1.939   9.489 -1.4118  1.8372 -2.6566
  339MOL0     H46780   9.522   1.815   9.654  1.2725 -0.8467 -0.1934
  339MOL0     H46781   9.360   1.751   9.654  2.8736  4.0105  5.0848
  339MOL0     H46782   9.493   1.635   9.645 -0.6644 -1.6867 -0.6243
  340MOL0     O46783  10.729   5.568   5.971  0.2534 -0.2995 -0.7377
  340MOL0     C46784  10.720   5.579   5.849  0.5587  0.9017  0.2345
  340MOL0     O46785  10.831   5.566   5.767  0.0612 -0.2863 -0.1075
  340MOL0     C46786  10.954   5.600   5.824 -1.1375  1.3381  0.5252
  340MOL0     C46787  11.020   5.724   5.814 -0.0802  1.0577 -1.1927
  340MOL0     C46788  11.138   5.740   5.875 -0.1352  0.6043 -0.1047
  340MOL0     C46789  11.203   5.630   5.941  0.7433 -0.2530  0.0529
  340MOL0     O46790  11.326   5.637   5.991 -0.5316 -0.3699  0.5194
  340MOL0     C46791  11.330   5.601   6.126  0.2916 -0.2335  0.3168
  340MOL0     C46792  11.402   5.705   6.199 -0.0750  0.4996  1.4026
  340MOL0     C46793  11.544   5.728   6.153  0.5782  1.0209  0.4601
  340MOL0     C46794  11.626   5.787   6.263 -0.7004 -0.6331 -0.5253
  340MOL0     C46795  11.774   5.793   6.230 -0.2514 -0.6217  0.5003
  340MOL0     C46796  11.864   5.848   6.343  0.9794  0.7328  0.7024
  340MOL0     C46797  12.014   5.862   6.307 -0.1450  0.4237 -0.6887
  340MOL0     C46798  12.074   5.728   6.268  0.4164  0.3421  0.1866
  340MOL0     N46799  12.077   5.615   6.362  0.2774  0.1781  0.6265
  340MOL0     C46800  12.038   5.612   6.491 -0.1854  0.4145  0.0351
  340MOL0     C46801  12.071   5.488   6.531  0.7821 -0.4470 -0.8584
  340MOL0     C46802  12.045   5.428   6.672 -0.1253 -0.2103  1.0045
  340MOL0     C46803  11.917   5.344   6.690  0.3075  0.2230  0.1027
  340MOL0     C46804  11.888   5.341   6.842 -0.5490  0.1218 -0.4920
  340MOL0     C46805  11.756   5.256   6.868  0.4051  0.6268  0.1791
  340MOL0     O46806  11.798   5.122   6.845  0.6139  0.5311 -0.0343
  340MOL0     C46807  11.698   5.025   6.830 -0.6891  0.0935  0.4735
  340MOL0     C46808  11.564   5.039   6.861 -0.3327 -0.7481 -0.3059
  340MOL0     C46809  11.470   4.943   6.822  0.2065  0.0866 -0.0843
  340MOL0     C46810  11.333   4.996   6.851  0.1680 -0.6481 -0.3481
  340MOL0     C46811  11.518   4.823   6.764 -0.5932 -0.9747 -0.7585
  340MOL0     C46812  11.429   4.713   6.734  0.1877 -0.2429  0.0498
  340MOL0     O46813  11.476   4.639   6.629  0.2582  0.4136  0.1637
  340MOL0     C46814  11.381   4.540   6.585  0.0207 -0.6038 -0.1254
  340MOL0     C46815  11.236   4.557   6.557  0.0744  1.0914 -0.8461
  340MOL0     C46816  11.152   4.460   6.507 -0.6392  0.5292  0.2200
  340MOL0     C46817  11.212   4.332   6.483  0.6507 -0.3639 -1.2821
  340MOL0     O46818  11.129   4.233   6.444  0.4143 -0.0264  0.5589
  340MOL0     C46819  11.174   4.182   6.323 -0.0972 -0.6973  0.7545
  340MOL0     C46820  11.064   4.144   6.231  0.6537 -0.1841  0.1536
  340MOL0     C46821  10.987   4.256   6.169 -0.9014  1.1884 -0.2973
  340MOL0     C46822  10.851   4.199   6.111 -0.6200 -0.0616  0.0966
  340MOL0     C46823  10.770   4.312   6.066  0.2437  0.5575 -0.5670
  340MOL0     C46824  10.628   4.276   6.012 -0.5413  1.5523  0.2158
  340MOL0     C46825  10.574   4.398   5.942 -0.1296 -0.3440  0.9641
  340MOL0     C46826  10.420   4.381   5.905 -0.0203 -0.2968  0.9263
  340MOL0    Cl46827  10.354   4.510   5.795 -0.7384 -0.1779 -0.2079
  340MOL0     C46828  11.344   4.310   6.510  0.2376 -0.1640 -0.2873
  340MOL0     C46829  11.431   4.409   6.561  0.0365 -0.1751  0.8054
  340MOL0     O46830  11.332   4.693   6.805 -0.2438  1.0007 -0.1788
  340MOL0     C46831  11.655   4.814   6.735 -0.2221  0.4441 -0.5641
  340MOL0     C46832  11.750   4.915   6.772  0.1900  0.4960  0.1889
  340MOL0     N46833  12.128   5.421   6.428 -0.5391  0.1054 -0.2136
  340MOL0     N46834  12.127   5.501   6.325 -0.2223 -0.5296 -0.0990
  340MOL0     C46835  11.140   5.508   5.949  0.0177  0.9870 -0.8954
  340MOL0     C46836  11.012   5.489   5.894 -0.8904  0.0170  0.2527
  340MOL0     C46837  10.594   5.604   5.780  0.0233 -0.0536  0.9775
  340MOL0     C46838  10.601   5.660   5.654 -0.9342  0.6941 -0.5217
  340MOL0     C46839  10.492   5.685   5.572 -0.4117  0.5050 -0.6969
  340MOL0     C46840  10.367   5.665   5.621 -0.1927 -0.0254 -0.7375
  340MOL0     O46841  10.247   5.695   5.558 -0.4903 -1.2133  0.8246
  340MOL0     C46842  10.259   5.772   5.429  0.6263  0.1520  0.1640
  340MOL0     C46843  10.300   5.913   5.446  0.1111 -0.5792  0.0615
  340MOL0     C46844  10.309   5.987   5.311  0.0036 -0.5869 -0.1171
  340MOL0     C46845  10.305   6.138   5.327 -0.1116 -0.9343  0.5832
  340MOL0     C46846  10.394   6.202   5.228  0.2503  0.2757  0.6134
  340MOL0     C46847  10.459   6.255   5.144 -0.3851 -1.2320  0.7432
  340MOL0     C46848  10.355   5.609   5.751  0.6985 -0.6238  0.0845
  340MOL0     C46849  10.467   5.575   5.834 -0.7358 -0.0362  0.3211
  340MOL0     C46850  10.451   5.493   5.955  1.0718  0.1881 -0.2227
  340MOL0     H46851  10.976   5.811   5.766 -2.1793  2.0294  2.1702
  340MOL0     H46852  11.192   5.834   5.878 -1.0029  1.2999 -3.2714
  340MOL0     H46853  11.373   5.502   6.144 -0.2581 -1.3779 -3.5668
  340MOL0     H46854  11.233   5.593   6.176  1.1962  3.2355  2.9729
  340MOL0     H46855  11.354   5.801   6.183 -1.1239 -0.3098 -0.6787
  340MOL0     H46856  11.407   5.679   6.306  0.7902 -2.5279  0.7448
  340MOL0     H46857  11.587   5.632   6.124 -2.2689  0.3380 -1.9834
  340MOL0     H46858  11.544   5.787   6.061  0.4623  1.3782  0.6861
  340MOL0     H46859  11.580   5.876   6.307  0.3159 -1.4989  2.6030
  340MOL0     H46860  11.608   5.717   6.346 -2.1668 -0.2450 -0.4750
  340MOL0     H46861  11.789   5.855   6.142 -1.4696 -1.8867 -0.6657
  340MOL0     H46862  11.809   5.694   6.198  0.8637  0.5284 -2.1208
  340MOL0     H46863  11.819   5.942   6.376 -2.4298 -0.7173  0.6315
  340MOL0     H46864  11.846   5.773   6.421  0.9746 -2.5426 -2.2000
  340MOL0     H46865  12.075   5.898   6.391 -0.5950  1.1369 -0.6556
  340MOL0     H46866  12.029   5.925   6.218  2.0379  1.1993  0.1626
  340MOL0     H46867  12.030   5.686   6.178 -0.6127 -0.5557  1.0765
  340MOL0     H46868  12.182   5.737   6.250  0.7767  0.1923  2.0495
  340MOL0     H46869  11.998   5.698   6.544  1.4178  1.8277 -0.9425
  340MOL0     H46870  12.036   5.520   6.732  1.3554  0.0932  0.8095
  340MOL0     H46871  12.125   5.365   6.711  1.4190  1.2065  0.2570
  340MOL0     H46872  11.836   5.384   6.628 -0.6544  2.4040  2.5653
  340MOL0     H46873  11.942   5.244   6.653 -1.3146  0.4251 -1.7437
  340MOL0     H46874  11.970   5.290   6.894 -1.4226 -0.5622  0.2573
  340MOL0     H46875  11.877   5.441   6.884  2.7529 -0.3494  1.9052
  340MOL0     H46876  11.724   5.260   6.972 -0.1245 -0.8261  0.0882
  340MOL0     H46877  11.677   5.298   6.805  1.3248  0.3318 -1.2343
  340MOL0     H46878  11.533   5.130   6.911  1.2418 -0.5505  0.3834
  340MOL0     H46879  11.336   5.104   6.862 -1.4689 -0.6088 -0.0211
  340MOL0     H46880  11.291   4.952   6.943 -0.0174 -1.9803 -1.0373
  340MOL0     H46881  11.265   4.966   6.771  0.7013  1.4149 -1.6316
  340MOL0     H46882  11.180   4.648   6.575 -1.7507 -0.1459 -0.0376
  340MOL0     H46883  11.047   4.483   6.494 -0.1031  1.5565 -3.3284
  340MOL0     H46884  11.237   4.258   6.277 -0.7425 -0.4431  0.2708
  340MOL0     H46885  11.221   4.086   6.342  1.1388 -0.3699 -0.5538
  340MOL0     H46886  11.093   4.073   6.152 -0.9467 -1.2445  0.4636
  340MOL0     H46887  10.982   4.103   6.291 -0.6986  2.6862  0.4361
  340MOL0     H46888  11.056   4.303   6.098 -1.2599 -1.6077 -2.6907
  340MOL0     H46889  10.965   4.320   6.255 -1.2726 -2.4994  2.5958
  340MOL0     H46890  10.796   4.141   6.187 -0.1795 -1.1061 -0.3585
  340MOL0     H46891  10.874   4.131   6.028  0.1811  0.6431 -0.2768
  340MOL0     H46892  10.761   4.383   6.149 -2.2791  0.3085 -0.5549
  340MOL0     H46893  10.829   4.352   5.982  1.9000  2.3243  1.3246
  340MOL0     H46894  10.570   4.245   6.099 -1.3494  0.1176 -0.7994
  340MOL0     H46895  10.628   4.192   5.942 -0.3770 -0.4112  2.4565
  340MOL0     H46896  10.639   4.420   5.857 -2.0365 -0.2005 -0.5486
  340MOL0     H46897  10.582   4.486   6.007  0.3984  1.5367 -1.4742
  340MOL0     H46898  10.373   4.396   6.003 -0.6668  0.5614  0.5032
  340MOL0     H46899  10.396   4.281   5.869  0.1314 -0.4815  1.3383
  340MOL0     H46900  11.369   4.205   6.514  1.8373  0.2336  1.3296
  340MOL0     H46901  11.531   4.382   6.592  0.6384  1.9157  0.8635
  340MOL0     H46902  11.696   4.728   6.684  3.1622  2.1834 -1.1228
  340MOL0     H46903  11.855   4.907   6.746 -0.2361  3.1492 -3.0147
  340MOL0     H46904  11.181   5.421   6.000  1.1574  2.1472  0.2312
  340MOL0     H46905  10.959   5.396   5.910  0.1933 -0.4500  1.2723
  340MOL0     H46906  10.702   5.687   5.623  0.0002 -1.5521  0.3834
  340MOL0     H46907  10.510   5.722   5.471 -0.7432 -1.4412 -1.5174
  340MOL0     H46908  10.327   5.728   5.354  0.2556  1.2228 -0.8399
  340MOL0     H46909  10.158   5.763   5.390 -0.3751 -2.8775  3.0571
  340MOL0     H46910  10.398   5.930   5.493  1.0138  1.1413 -2.2308
  340MOL0     H46911  10.222   5.963   5.504  0.4670  0.6857 -0.5220
  340MOL0     H46912  10.401   5.962   5.257  0.5649  3.1329 -1.2134
  340MOL0     H46913  10.224   5.960   5.248  1.5815  0.7417 -3.0167
  340MOL0     H46914  10.337   6.172   5.425 -0.5774 -0.6616  0.6430
  340MOL0     H46915  10.202   6.173   5.317 -0.1747 -1.7450 -3.3787
  340MOL0     H46916  10.503   6.305   5.060 -1.4314 -2.4862 -0.6254
  340MOL0     H46917  10.252   5.582   5.774 -0.1711 -0.3492 -3.0561
  340MOL0     H46918  10.346   5.487   5.985  2.3165  1.9387  5.7116
  340MOL0     H46919  10.486   5.390   5.944 -1.9026 -1.0311  0.6419
  340MOL0     H46920  10.495   5.550   6.037 -1.5505  3.8628 -1.0715
  341MOL0     O46921   5.402   5.582   2.436 -0.5920 -0.5206  0.3822
  341MOL0     C46922   5.498   5.664   2.447  0.2019  0.6691  0.6732
  341MOL0     O46923   5.582   5.696   2.345  0.4679 -0.3492 -1.0073
  341MOL0     C46924   5.578   5.629   2.228  0.0413  1.0321  0.4078
  341MOL0     C46925   5.607   5.684   2.100 -0.0937 -0.1636 -0.2896
  341MOL0     C46926   5.606   5.615   1.979 -0.6021  0.1645 -0.4673
  341MOL0     C46927   5.592   5.480   1.982 -0.2845 -0.4177  0.6275
  341MOL0     O46928   5.599   5.425   1.847  0.7703  0.0822 -0.5422
  341MOL0     C46929   5.611   5.278   1.833 -1.0004  0.1417 -0.3496
  341MOL0     C46930   5.752   5.228   1.883  0.4556  0.0454 -1.3333
  341MOL0     C46931   5.769   5.076   1.859 -0.5196  1.7965  0.2249
  341MOL0     C46932   5.916   5.045   1.824  0.3824  0.3012 -0.7722
  341MOL0     C46933   5.936   4.894   1.789  0.8324  0.5125 -0.9606
  341MOL0     C46934   5.878   4.859   1.649 -0.0643  0.6790 -0.2710
  341MOL0     C46935   5.910   4.712   1.645  0.8717 -0.0167  0.5075
  341MOL0     C46936   5.825   4.619   1.735 -0.1125  0.4770 -0.0474
  341MOL0     N46937   5.701   4.591   1.673  0.8974 -0.3402 -0.2409
  341MOL0     C46938   5.673   4.493   1.580 -0.0346  0.4962  0.1122
  341MOL0     C46939   5.535   4.489   1.582  0.0363  0.5892  0.6655
  341MOL0     C46940   5.447   4.394   1.498  0.1975 -0.3771  0.1609
  341MOL0     C46941   5.340   4.472   1.420  0.0673 -0.5715 -0.2150
  341MOL0     C46942   5.214   4.390   1.441  0.2068 -0.0181 -0.3139
  341MOL0     C46943   5.104   4.465   1.362  0.0272  0.9377  0.2749
  341MOL0     O46944   4.990   4.387   1.371  0.3307  1.3431 -0.2367
  341MOL0     C46945   4.872   4.432   1.307  0.4352 -0.6018 -0.0287
  341MOL0     C46946   4.759   4.348   1.299 -0.1913  0.2028  1.3952
  341MOL0     C46947   4.641   4.387   1.227 -1.1302 -0.8427  0.0277
  341MOL0     C46948   4.544   4.276   1.216 -1.2164 -0.6706  0.3721
  341MOL0     C46949   4.642   4.524   1.173  0.0228  0.8043  0.0053
  341MOL0     C46950   4.521   4.590   1.108 -0.3704  0.0934 -0.0650
  341MOL0     O46951   4.540   4.717   1.049 -0.4628  1.1051 -0.2141
  341MOL0     C46952   4.443   4.793   0.986  0.0808  0.4718 -0.6449
  341MOL0     C46953   4.322   4.826   1.042  0.0824 -0.6580 -0.6451
  341MOL0     C46954   4.222   4.899   0.973 -0.0255 -0.1921 -0.6694
  341MOL0     C46955   4.239   4.939   0.840  0.2190 -0.3241 -0.8822
  341MOL0     O46956   4.147   5.010   0.762 -0.4198 -0.8536 -0.1690
  341MOL0     C46957   4.085   5.122   0.830 -0.0973  0.9141 -0.2699
  341MOL0     C46958   4.070   5.248   0.735  0.3450  0.3590 -0.0934
  341MOL0     C46959   4.044   5.382   0.814 -0.8802 -0.6417  0.5960
  341MOL0     C46960   4.045   5.504   0.724  0.5009 -0.2253 -0.0031
  341MOL0     C46961   4.090   5.637   0.801  0.3984 -0.2520 -0.0133
  341MOL0     C46962   3.970   5.711   0.862  0.7249  0.1958  0.1321
  341MOL0     C46963   3.998   5.862   0.856 -0.1676 -0.7567 -0.4093
  341MOL0     C46964   3.905   5.951   0.947 -0.0832  0.3542  0.7682
  341MOL0    Cl46965   3.871   5.859   1.099 -0.3013 -0.4184  0.0781
  341MOL0     C46966   4.352   4.891   0.786  0.6612  0.0349 -0.1085
  341MOL0     C46967   4.454   4.827   0.851 -0.5627  0.4900  0.0898
  341MOL0     O46968   4.411   4.539   1.112 -0.5391 -0.0439 -0.3447
  341MOL0     C46969   4.755   4.593   1.176 -0.4053  0.0487  0.4964
  341MOL0     C46970   4.867   4.547   1.243 -0.4919 -0.3842  0.6718
  341MOL0     N46971   5.484   4.593   1.650  0.3921 -1.0655  0.3490
  341MOL0     N46972   5.584   4.659   1.694  0.1265 -0.4770 -0.2500
  341MOL0     C46973   5.558   5.412   2.101 -0.9928  0.2682  0.5867
  341MOL0     C46974   5.558   5.484   2.224  0.4190 -0.0109  0.4644
  341MOL0     C46975   5.519   5.724   2.579 -0.3923 -0.3448 -0.2256
  341MOL0     C46976   5.449   5.656   2.681  0.1955 -0.1207  0.0280
  341MOL0     C46977   5.440   5.704   2.810 -1.0908  0.2179  0.0998
  341MOL0     C46978   5.529   5.798   2.849 -0.5848 -0.5568 -0.0854
  341MOL0     O46979   5.520   5.861   2.977 -0.2533  0.4350  0.2107
  341MOL0     C46980   5.387   5.906   3.015 -0.6742 -0.4661  0.0103
  341MOL0     C46981   5.394   6.040   3.093  0.0111 -0.2891 -0.4515
  341MOL0     C46982   5.405   6.167   3.012 -1.2385 -0.2700  0.2443
  341MOL0     C46983   5.440   6.279   3.111 -0.1270 -0.3803  0.4838
  341MOL0     C46984   5.348   6.289   3.222 -0.0838 -0.0455  0.6087
  341MOL0     C46985   5.277   6.304   3.322 -0.3728 -0.5106  0.3126
  341MOL0     C46986   5.612   5.863   2.752  0.1371  0.0898  1.4048
  341MOL0     C46987   5.601   5.832   2.616 -0.6110  0.4121  0.4059
  341MOL0     C46988   5.640   5.937   2.513 -0.2190 -0.1192  0.4257
  341MOL0     H46989   5.624   5.789   2.079 -0.3056 -0.7747 -4.4285
  341MOL0     H46990   5.618   5.675   1.889 -0.9853  0.0384 -0.6056
  341MOL0     H46991   5.607   5.256   1.725  0.6943  0.9039 -0.6038
  341MOL0     H46992   5.537   5.217   1.885  0.2349  1.6778  3.5455
  341MOL0     H46993   5.822   5.303   1.847 -0.0044 -0.0542 -2.4845
  341MOL0     H46994   5.758   5.242   1.991 -2.0390 -1.1199 -0.9529
  341MOL0     H46995   5.735   5.010   1.940  0.0974  0.4068 -0.6059
  341MOL0     H46996   5.713   5.058   1.767  2.1047 -0.4536 -1.0654
  341MOL0     H46997   5.942   5.118   1.747  2.2099  2.1466  1.4370
  341MOL0     H46998   5.982   5.072   1.907 -0.9323 -2.2559  1.2415
  341MOL0     H46999   5.887   4.834   1.867  1.8059  1.5643  0.5170
  341MOL0     H47000   6.042   4.871   1.790  0.4354 -1.5393 -0.1084
  341MOL0     H47001   5.771   4.870   1.633 -0.0032  1.4084 -0.2062
  341MOL0     H47002   5.939   4.916   1.579  0.7291 -0.1011 -0.2382
  341MOL0     H47003   6.013   4.693   1.679  1.3175  1.1662 -0.1397
  341MOL0     H47004   5.919   4.680   1.541 -2.3404  0.2759  0.0529
  341MOL0     H47005   5.883   4.528   1.750 -2.0372 -0.4111  2.9931
  341MOL0     H47006   5.809   4.648   1.840  1.8899 -0.9918  0.7276
  341MOL0     H47007   5.745   4.426   1.534  1.1675  2.3125 -0.7540
  341MOL0     H47008   5.407   4.326   1.574  0.4878  0.4488  1.0674
  341MOL0     H47009   5.516   4.335   1.437  0.7252  0.2496  0.1530
  341MOL0     H47010   5.320   4.574   1.455  0.3109 -1.0543  1.4154
  341MOL0     H47011   5.367   4.478   1.314  3.1273 -1.2286  0.4289
  341MOL0     H47012   5.234   4.289   1.405 -0.3936 -0.0003 -0.7131
  341MOL0     H47013   5.183   4.392   1.545  3.1429  0.6888  0.6650
  341MOL0     H47014   5.082   4.557   1.417  0.6910  0.7399  0.8858
  341MOL0     H47015   5.127   4.492   1.259  0.5420 -2.2010 -0.5206
  341MOL0     H47016   4.764   4.244   1.332  2.0056 -0.7641 -1.4868
  341MOL0     H47017   4.482   4.280   1.306 -1.8056 -1.1608 -0.0038
  341MOL0     H47018   4.594   4.179   1.214  0.7385  0.2609  1.0788
  341MOL0     H47019   4.483   4.299   1.129 -2.0070  5.7195  2.0998
  341MOL0     H47020   4.295   4.792   1.141  0.2530 -1.8768 -0.9971
  341MOL0     H47021   4.134   4.928   1.028  0.3657  3.8591 -1.8434
  341MOL0     H47022   3.994   5.086   0.879 -0.3549  2.0869  0.1498
  341MOL0     H47023   4.147   5.146   0.917 -1.5718  0.1854  1.0247
  341MOL0     H47024   4.154   5.265   0.667  0.2642 -0.0570 -0.3019
  341MOL0     H47025   3.979   5.233   0.676 -0.0274 -1.2542  0.8321
  341MOL0     H47026   4.121   5.401   0.890 -1.4536  1.5079  0.7140
  341MOL0     H47027   3.953   5.383   0.874  0.1130  0.4419  2.1698
  341MOL0     H47028   3.954   5.519   0.667  0.6772  1.3525  0.0742
  341MOL0     H47029   4.126   5.484   0.653 -0.8392 -3.3014 -0.8322
  341MOL0     H47030   4.157   5.605   0.882  1.3889  1.4979 -0.0820
  341MOL0     H47031   4.139   5.708   0.734  0.7791 -1.4308 -1.0268
  341MOL0     H47032   3.956   5.667   0.961 -2.2287 -0.7438 -0.6086
  341MOL0     H47033   3.883   5.681   0.802  1.1776 -1.4747  0.2445
  341MOL0     H47034   3.999   5.908   0.756 -2.5674 -1.4337 -0.8158
  341MOL0     H47035   4.098   5.851   0.899  0.3397 -5.3123 -2.2243
  341MOL0     H47036   3.815   5.978   0.892  0.3445 -3.0253 -1.9284
  341MOL0     H47037   3.959   6.045   0.961 -2.9906  2.4678 -1.2213
  341MOL0     H47038   4.355   4.902   0.679  1.4343 -3.6350 -0.6194
  341MOL0     H47039   4.542   4.785   0.802 -1.5795 -1.4704 -0.1646
  341MOL0     H47040   4.766   4.692   1.134  0.0571 -0.5287 -0.7900
  341MOL0     H47041   4.949   4.618   1.242 -1.5175  0.9833  3.5309
  341MOL0     H47042   5.536   5.307   2.087 -0.8929  0.4882 -1.4131
  341MOL0     H47043   5.538   5.410   2.301  1.4272 -1.3371 -0.4823
  341MOL0     H47044   5.385   5.570   2.663  1.2954 -1.1979  1.0750
  341MOL0     H47045   5.385   5.657   2.891  0.9020 -0.9056  0.8895
  341MOL0     H47046   5.331   5.919   2.922  1.7509  2.2139 -1.2413
  341MOL0     H47047   5.339   5.832   3.080 -0.2556  0.5407  1.5012
  341MOL0     H47048   5.480   6.012   3.154 -2.0029 -7.4605  0.0921
  341MOL0     H47049   5.306   6.054   3.157 -1.8256 -2.1034 -2.4013
  341MOL0     H47050   5.491   6.159   2.946 -1.4257 -2.6339  0.2203
  341MOL0     H47051   5.312   6.200   2.964 -1.2875 -2.4501 -1.3241
  341MOL0     H47052   5.450   6.375   3.061 -2.2003 -0.6139 -0.5089
  341MOL0     H47053   5.542   6.253   3.142  0.6825  1.3741 -0.5768
  341MOL0     H47054   5.224   6.328   3.413  1.6409 -0.0268  1.4342
  341MOL0     H47055   5.669   5.951   2.779 -1.8548  1.4881  1.2732
  341MOL0     H47056   5.711   5.897   2.440 -1.4842 -0.1220 -0.8524
  341MOL0     H47057   5.557   5.971   2.451  0.7315 -1.6001 -1.7660
  341MOL0     H47058   5.681   6.023   2.567 -1.2508  0.6527  0.0196
  342MOL0     O47059   8.491   0.771   1.822 -0.2255 -0.7595  0.7419
  342MOL0     C47060   8.416   0.708   1.897  0.2703 -0.4075 -0.2757
  342MOL0     O47061   8.426   0.708   2.034 -0.4155 -0.1722  0.1001
  342MOL0     C47062   8.497   0.811   2.093  0.7245  0.9373  0.5592
  342MOL0     C47063   8.425   0.892   2.188 -0.6725  0.3125 -0.6820
  342MOL0     C47064   8.501   0.995   2.256 -0.3517 -1.1159 -0.0313
  342MOL0     C47065   8.637   1.006   2.238  0.2266 -0.8995 -1.6161
  342MOL0     O47066   8.713   1.098   2.290 -0.5721 -0.2512 -0.6057
  342MOL0     C47067   8.692   1.154   2.428  0.2636 -0.0701  0.2243
  342MOL0     C47068   8.818   1.196   2.506 -0.6781 -0.4928 -0.7099
  342MOL0     C47069   8.792   1.284   2.622  0.8139  0.4156 -1.1303
  342MOL0     C47070   8.911   1.308   2.700 -0.4563  0.2095 -0.3698
  342MOL0     C47071   8.879   1.406   2.814 -0.1361 -0.4355  0.8750
  342MOL0     C47072   8.998   1.465   2.908 -0.0327  0.8701  0.5921
  342MOL0     C47073   9.082   1.344   2.976  0.1285 -0.9122  0.4572
  342MOL0     C47074   9.010   1.218   3.019  0.1602  0.0454  0.3025
  342MOL0     N47075   8.917   1.224   3.137  0.0356 -0.2658  0.5540
  342MOL0     C47076   8.870   1.131   3.221 -0.0431 -0.7826 -0.0276
  342MOL0     C47077   8.782   1.183   3.310 -0.5192  0.1098  0.1198
  342MOL0     C47078   8.711   1.104   3.414 -0.3797  0.2858  0.1503
  342MOL0     C47079   8.599   1.011   3.364 -0.7934  0.6852 -0.1878
  342MOL0     C47080   8.485   1.093   3.301 -0.4804 -0.6580  0.3062
  342MOL0     C47081   8.366   1.004   3.247  0.6875  0.0270 -0.3036
  342MOL0     O47082   8.271   1.102   3.205 -0.2026 -0.4160 -0.5926
  342MOL0     C47083   8.158   1.085   3.142  0.7532 -0.6909  0.2477
  342MOL0     C47084   8.081   1.198   3.121 -0.0629 -0.1806 -0.1258
  342MOL0     C47085   7.965   1.200   3.048 -0.4264  1.1061  1.0058
  342MOL0     C47086   7.901   1.331   3.037 -1.3181  0.7994  0.6045
  342MOL0     C47087   7.928   1.078   2.979  0.4140  0.8468  0.4959
  342MOL0     C47088   7.825   1.062   2.871 -0.7620 -0.8069 -0.6505
  342MOL0     O47089   7.724   1.154   2.884  0.1655  0.5276 -0.7805
  342MOL0     C47090   7.613   1.153   2.801 -0.4663 -0.2349 -0.5522
  342MOL0     C47091   7.519   1.052   2.795  0.2984  0.6181 -0.0910
  342MOL0     C47092   7.406   1.079   2.708  0.5910 -0.1148  0.6028
  342MOL0     C47093   7.395   1.195   2.629  0.5342 -0.5787  0.2849
  342MOL0     O47094   7.283   1.191   2.548  0.6808  0.2615  0.1688
  342MOL0     C47095   7.285   1.254   2.418 -0.2461  0.3911 -0.2323
  342MOL0     C47096   7.174   1.196   2.325  0.1251  0.8162 -0.3941
  342MOL0     C47097   7.039   1.187   2.393  0.4205 -0.3094 -0.0816
  342MOL0     C47098   6.978   1.322   2.436 -0.1879  0.2743  0.7062
  342MOL0     C47099   6.826   1.314   2.443  0.1520  0.6890  1.0442
  342MOL0     C47100   6.771   1.431   2.515  0.3420  0.4174 -0.8691
  342MOL0     C47101   6.618   1.423   2.525  0.0363 -0.2462  0.0670
  342MOL0     C47102   6.557   1.473   2.653 -0.5927  0.1594  0.3811
  342MOL0    Cl47103   6.368   1.464   2.631  0.1009 -0.1704 -0.6367
  342MOL0     C47104   7.491   1.297   2.645 -0.4048  0.2332 -0.4419
  342MOL0     C47105   7.600   1.272   2.734  0.4759 -0.4015  1.0470
  342MOL0     O47106   7.836   0.979   2.784  0.3950 -0.2229  0.1710
  342MOL0     C47107   7.998   0.963   3.006  0.9584 -0.1747  0.2492
  342MOL0     C47108   8.114   0.959   3.082 -0.2217 -0.3028 -0.4804
  342MOL0     N47109   8.778   1.322   3.266  0.8657  0.5841 -0.1114
  342MOL0     N47110   8.857   1.337   3.168 -0.3227 -0.8269  0.4456
  342MOL0     C47111   8.706   0.917   2.158 -0.1682 -0.4427  0.3392
  342MOL0     C47112   8.635   0.830   2.072 -0.1004  0.3812  0.5104
  342MOL0     C47113   8.300   0.631   1.856  1.3395  0.8235  0.2218
  342MOL0     C47114   8.210   0.584   1.957 -0.6658 -0.8069 -0.0252
  342MOL0     C47115   8.100   0.504   1.925  0.7725  0.1320  0.4179
  342MOL0     C47116   8.067   0.465   1.792 -0.7924  0.8656  0.1971
  342MOL0     O47117   7.970   0.376   1.750 -0.0858 -0.9853 -0.7680
  342MOL0     C47118   7.859   0.359   1.834 -0.4756 -1.7280  0.5579
  342MOL0     C47119   7.747   0.300   1.766  0.0201 -0.2563  0.1275
  342MOL0     C47120   7.668   0.396   1.676 -0.8689 -0.1656  0.2700
  342MOL0     C47121   7.544   0.328   1.610  0.7051  0.8689 -0.4069
  342MOL0     C47122   7.491   0.418   1.514  0.3524 -0.4532  0.4657
  342MOL0     C47123   7.443   0.490   1.425  0.2392  1.0321  0.1073
  342MOL0     C47124   8.157   0.504   1.693 -1.6448  0.1390 -0.7743
  342MOL0     C47125   8.276   0.588   1.725 -0.1784  0.8946  0.4324
  342MOL0     C47126   8.380   0.606   1.610  0.5798 -0.0438 -0.2414
  342MOL0     H47127   8.320   0.873   2.207 -0.7183 -0.4441 -1.6361
  342MOL0     H47128   8.456   1.073   2.316  2.4249  1.3784 -0.9241
  342MOL0     H47129   8.649   1.082   2.498  3.4933  0.5551  3.1746
  342MOL0     H47130   8.620   1.235   2.414 -3.0637 -2.5215  1.7747
  342MOL0     H47131   8.887   1.117   2.535  0.4972  0.7524  0.0387
  342MOL0     H47132   8.882   1.259   2.442  1.6179 -1.2253  0.7380
  342MOL0     H47133   8.737   1.372   2.588  1.4756  0.9153 -0.9316
  342MOL0     H47134   8.724   1.236   2.692 -1.3674  2.4718 -1.6764
  342MOL0     H47135   8.962   1.217   2.732 -1.3266 -0.3795 -0.6592
  342MOL0     H47136   8.986   1.363   2.642  0.5844 -0.8826 -0.0869
  342MOL0     H47137   8.805   1.366   2.884 -0.7259 -0.0929  0.4618
  342MOL0     H47138   8.816   1.488   2.777 -0.1727  0.0966  2.0668
  342MOL0     H47139   9.051   1.528   2.836  0.6955 -2.0681 -1.6411
  342MOL0     H47140   8.964   1.528   2.991  0.8385 -1.3756  2.7780
  342MOL0     H47141   9.141   1.380   3.060 -0.7084 -1.5494  1.3314
  342MOL0     H47142   9.150   1.318   2.894  0.7071  0.0397  0.6270
  342MOL0     H47143   8.955   1.171   2.937  2.1017 -0.0112 -1.0285
  342MOL0     H47144   9.090   1.151   3.055 -3.1982 -3.1574  2.6044
  342MOL0     H47145   8.912   1.032   3.212  0.7298 -0.3584 -1.2825
  342MOL0     H47146   8.663   1.177   3.479  0.5567  0.8796  0.1951
  342MOL0     H47147   8.772   1.043   3.481  0.2560  1.2717  0.4843
  342MOL0     H47148   8.637   0.938   3.293 -2.4116  0.1554 -0.5600
  342MOL0     H47149   8.571   0.959   3.456  0.6319 -0.4945 -0.3856
  342MOL0     H47150   8.455   1.159   3.382  0.2546 -1.3611  1.1677
  342MOL0     H47151   8.530   1.149   3.218 -3.0650  0.4564 -0.4683
  342MOL0     H47152   8.392   0.944   3.159 -0.0668 -1.2145  0.2923
  342MOL0     H47153   8.335   0.938   3.329  1.9484  1.5019  1.4409
  342MOL0     H47154   8.118   1.284   3.176 -0.4459  1.1409 -1.8302
  342MOL0     H47155   7.926   1.371   2.938  1.3053  1.8675  1.6194
  342MOL0     H47156   7.931   1.397   3.119 -0.6918  0.0485  0.9804
  342MOL0     H47157   7.795   1.311   3.056 -1.3446  2.5324  2.7469
  342MOL0     H47158   7.527   0.962   2.856  1.6790  1.6497  1.3083
  342MOL0     H47159   7.333   0.999   2.707 -1.2917  1.5159 -0.1105
  342MOL0     H47160   7.281   1.363   2.424  5.5830  0.9955 -0.8285
  342MOL0     H47161   7.377   1.222   2.367 -0.6716  0.0177 -0.7703
  342MOL0     H47162   7.165   1.267   2.242 -3.6105  1.8409  0.6719
  342MOL0     H47163   7.203   1.094   2.299 -1.5071 -0.2578  1.6863
  342MOL0     H47164   7.031   1.116   2.476 -4.9290 -0.8870 -0.7352
  342MOL0     H47165   6.963   1.141   2.329 -2.5621  1.8065  1.6145
  342MOL0     H47166   7.004   1.404   2.368  1.0449  1.0723  2.0766
  342MOL0     H47167   7.028   1.351   2.530  2.5293 -1.0754 -0.2105
  342MOL0     H47168   6.777   1.313   2.346  1.2814  1.2010  0.4501
  342MOL0     H47169   6.796   1.221   2.493  1.0748  0.9821  2.1925
  342MOL0     H47170   6.787   1.522   2.457 -1.1746  3.0904  2.5450
  342MOL0     H47171   6.821   1.440   2.612  1.4986  1.2783 -1.5119
  342MOL0     H47172   6.601   1.315   2.526  2.6130 -0.7322  0.9411
  342MOL0     H47173   6.578   1.480   2.440 -2.9474 -0.1197  1.4370
  342MOL0     H47174   6.589   1.577   2.666  3.0515 -0.5988 -1.2233
  342MOL0     H47175   6.571   1.415   2.745 -2.8838  0.5924  1.0499
  342MOL0     H47176   7.499   1.388   2.586 -0.4811  0.2014 -0.5003
  342MOL0     H47177   7.683   1.342   2.730  0.1946 -0.0184  1.6551
  342MOL0     H47178   7.977   0.868   2.957  0.7233  0.4423 -0.8734
  342MOL0     H47179   8.168   0.867   3.099  0.5706  0.3318  0.5074
  342MOL0     H47180   8.811   0.944   2.149 -0.8949  2.3853 -0.3476
  342MOL0     H47181   8.683   0.770   1.995 -1.1384  1.5447 -1.1202
  342MOL0     H47182   8.214   0.603   2.064  0.5264 -0.1187 -0.1703
  342MOL0     H47183   8.040   0.466   2.007 -1.5164 -0.7574 -1.5428
  342MOL0     H47184   7.889   0.300   1.921 -0.0287 -1.4171  0.6195
  342MOL0     H47185   7.828   0.449   1.888 -2.1886 -2.2386  0.4678
  342MOL0     H47186   7.686   0.261   1.848  0.9898 -0.7530  0.6401
  342MOL0     H47187   7.769   0.214   1.703 -0.1170 -1.1140  1.2188
  342MOL0     H47188   7.637   0.479   1.741 -0.2480 -0.1044  0.4907
  342MOL0     H47189   7.732   0.432   1.595 -2.3230  2.0281  0.0017
  342MOL0     H47190   7.469   0.305   1.686 -2.2841  2.5529 -2.6536
  342MOL0     H47191   7.579   0.232   1.570 -0.9255 -1.5990  3.5346
  342MOL0     H47192   7.380   0.546   1.359  0.1686  0.3975 -0.3704
  342MOL0     H47193   8.141   0.483   1.588  1.2705  1.4029 -1.5637
  342MOL0     H47194   8.334   0.580   1.514 -1.5257  1.4981  0.2660
  342MOL0     H47195   8.396   0.713   1.590 -1.8483  0.2200 -1.0662
  342MOL0     H47196   8.464   0.540   1.630  1.3700  0.9845 -0.0822
  343MOL0     O47197   9.572   9.777   4.975  1.0631  0.3643 -1.1331
  343MOL0     C47198   9.479   9.705   5.025 -0.6094  0.2488 -0.0533
  343MOL0     O47199   9.443   9.575   4.984 -0.5992  0.5395  0.1406
  343MOL0     C47200   9.517   9.528   4.869  0.1214  0.0975  0.1989
  343MOL0     C47201   9.656   9.497   4.886  0.4848 -0.3154  0.5807
  343MOL0     C47202   9.736   9.451   4.780 -1.0080 -0.3834  0.1847
  343MOL0     C47203   9.691   9.466   4.647 -0.1159  0.3643 -0.4267
  343MOL0     O47204   9.785   9.470   4.544  0.4278  0.5821 -0.6504
  343MOL0     C47205   9.746   9.385   4.429  0.3772  0.1189  0.0741
  343MOL0     C47206   9.875   9.319   4.388  0.1957 -0.0623  1.1801
  343MOL0     C47207   9.937   9.246   4.511 -0.5177 -1.0182  0.3348
  343MOL0     C47208   9.863   9.123   4.568 -0.1301 -0.7115 -0.1923
  343MOL0     C47209   9.914   9.104   4.704 -1.4642  0.5992 -1.0245
  343MOL0     C47210   9.847   8.988   4.776  0.5065 -0.3357  0.7481
  343MOL0     C47211   9.905   8.949   4.909 -0.1657 -0.5423  0.5683
  343MOL0     C47212   9.910   9.049   5.026 -0.9043  0.4409 -0.8935
  343MOL0     N47213  10.020   9.148   5.011 -0.2577  0.6564 -0.1520
  343MOL0     C47214  10.155   9.120   5.017  0.6025  0.4975  0.3434
  343MOL0     C47215  10.216   9.243   5.025  0.4381  0.5010 -0.7224
  343MOL0     C47216  10.360   9.269   5.052  0.2245 -0.2777 -0.5739
  343MOL0     C47217  10.441   9.218   4.929  0.1701 -0.2820  0.6688
  343MOL0     C47218  10.591   9.237   4.960  0.0194  0.1724 -0.1996
  343MOL0     C47219  10.686   9.222   4.837  0.3437 -0.3546  0.7632
  343MOL0     O47220  10.631   9.304   4.739  0.2533 -0.2545 -0.5951
  343MOL0     C47221  10.716   9.352   4.644 -0.3349 -0.6527 -0.2032
  343MOL0     C47222  10.674   9.475   4.593  0.7368  0.0146  1.0809
  343MOL0     C47223  10.735   9.525   4.483 -0.1935  0.0461  0.3128
  343MOL0     C47224  10.668   9.651   4.421  0.3949 -1.6427  0.4168
  343MOL0     C47225  10.856   9.466   4.436 -0.7690  0.5541 -0.0319
  343MOL0     C47226  10.940   9.529   4.325 -0.7552  0.1116 -0.1525
  343MOL0     O47227  11.072   9.496   4.310  0.0525  0.5705 -0.0385
  343MOL0     C47228  11.125   9.539   4.197 -0.3527 -0.3806  0.8934
  343MOL0     C47229  11.094   9.468   4.080 -0.1401  0.0643  0.9667
  343MOL0     C47230  11.128   9.524   3.956 -0.3977  0.1996 -0.4127
  343MOL0     C47231  11.213   9.633   3.951  0.0840 -1.1190  0.2510
  343MOL0     O47232  11.253   9.672   3.823 -0.0587  0.8292  0.0401
  343MOL0     C47233  11.162   9.769   3.763  0.5525  0.0908 -0.1680
  343MOL0     C47234  11.178   9.763   3.613  0.3174 -0.6474 -0.2520
  343MOL0     C47235  11.126   9.635   3.547 -0.0997  0.2455 -0.1792
  343MOL0     C47236  10.979   9.614   3.567 -0.0862 -0.1411 -0.1249
  343MOL0     C47237  10.884   9.714   3.491  0.2490 -0.0047  0.3959
  343MOL0     C47238  10.742   9.665   3.468 -0.2672 -0.0513  0.3971
  343MOL0     C47239  10.666   9.774   3.387 -0.3969 -0.2159 -0.4481
  343MOL0     C47240  10.530   9.717   3.360  0.0699 -0.8564 -0.4391
  343MOL0    Cl47241  10.445   9.700   3.523  0.0245  0.2112 -0.1355
  343MOL0     C47242  11.255   9.702   4.058  0.1815  0.7204 -0.9513
  343MOL0     C47243  11.211   9.655   4.182  0.1990  0.4587 -0.1166
  343MOL0     O47244  10.878   9.599   4.242  1.2591 -0.3354 -0.0501
  343MOL0     C47245  10.909   9.358   4.499  0.3442  0.9248  0.6970
  343MOL0     C47246  10.846   9.303   4.611  0.3817  0.3848  0.0039
  343MOL0     N47247  10.124   9.340   5.016 -0.1766  0.1044  0.1908
  343MOL0     N47248  10.008   9.280   5.004 -0.5675  0.0955 -0.3967
  343MOL0     C47249   9.566   9.523   4.633  1.1176  0.4105 -0.1443
  343MOL0     C47250   9.475   9.543   4.738  0.2809  0.4589  0.2295
  343MOL0     C47251   9.398   9.759   5.142  0.0532 -0.8094  0.1272
  343MOL0     C47252   9.334   9.666   5.224 -0.1598  0.0790  0.5522
  343MOL0     C47253   9.269   9.708   5.344 -0.8318 -0.0656  0.5688
  343MOL0     C47254   9.266   9.840   5.387  1.4470  0.3065  0.8957
  343MOL0     O47255   9.203   9.862   5.507  0.1777 -0.3066 -0.9766
  343MOL0     C47256   9.124   9.978   5.529 -0.2685  0.3745  0.4979
  343MOL0     C47257   8.983   9.961   5.468 -0.4964  0.1212  0.1516
  343MOL0     C47258   8.910   9.829   5.516  0.3285 -0.6699  0.9764
  343MOL0     C47259   8.911   9.796   5.662 -0.6470 -0.1099  0.0549
  343MOL0     C47260   8.861   9.912   5.742 -0.4305 -0.1503 -0.1456
  343MOL0     C47261   8.815  10.001   5.820  0.4655  0.6828  0.2645
  343MOL0     C47262   9.303   9.937   5.292 -0.0813  0.1904  0.2520
  343MOL0     C47263   9.374   9.896   5.173  0.1981 -1.0160 -0.0964
  343MOL0     C47264   9.415  10.008   5.078  0.8012 -0.6384 -0.7465
  343MOL0     H47265   9.688   9.478   4.988 -0.0979 -1.6539  0.5332
  343MOL0     H47266   9.840   9.426   4.797 -0.9445 -1.2291 -1.2539
  343MOL0     H47267   9.703   9.461   4.364 -1.2505  1.2058  2.2805
  343MOL0     H47268   9.661   9.316   4.437 -0.1305  0.2183 -3.0960
  343MOL0     H47269   9.859   9.247   4.307  2.5271  2.6966 -2.0776
  343MOL0     H47270   9.952   9.389   4.352  0.1041  0.5709  2.1748
  343MOL0     H47271  10.029   9.196   4.479  0.6480  1.3792 -0.2767
  343MOL0     H47272   9.960   9.304   4.601 -2.8364  2.4229 -1.0807
  343MOL0     H47273   9.755   9.141   4.575  0.0487 -0.0045  1.0072
  343MOL0     H47274   9.882   9.035   4.506  1.4026 -1.5790  1.4138
  343MOL0     H47275   9.904   9.191   4.769 -1.1525 -0.8099  1.0000
  343MOL0     H47276  10.022   9.087   4.691 -1.6461 -1.1929 -0.3932
  343MOL0     H47277   9.738   9.001   4.782  0.6043  0.2414  1.4469
  343MOL0     H47278   9.860   8.897   4.717 -0.7958  0.0881 -0.2475
  343MOL0     H47279  10.007   8.925   4.877  0.0370  1.8776 -0.8879
  343MOL0     H47280   9.853   8.864   4.953  2.1942 -2.5178 -0.2323
  343MOL0     H47281   9.812   9.096   5.035 -1.0802 -0.4278  3.6231
  343MOL0     H47282   9.925   8.997   5.121 -0.5119 -1.4225 -1.9300
  343MOL0     H47283  10.205   9.024   5.027 -0.4047 -0.5699 -3.2681
  343MOL0     H47284  10.405   9.211   5.133  2.3601  0.9059 -0.8335
  343MOL0     H47285  10.367   9.378   5.063 -0.1407 -0.4081  1.3760
  343MOL0     H47286  10.409   9.114   4.918 -1.5481  0.4753 -3.4117
  343MOL0     H47287  10.402   9.270   4.841 -0.0089  1.2589  1.6221
  343MOL0     H47288  10.602   9.344   4.980  0.1899  0.3875 -1.3359
  343MOL0     H47289  10.628   9.179   5.045  0.2234  1.0824  0.3480
  343MOL0     H47290  10.790   9.254   4.852  0.1795  3.1122 -3.6200
  343MOL0     H47291  10.685   9.120   4.797 -0.0169  1.0413 -3.1520
  343MOL0     H47292  10.575   9.516   4.609  1.1139  0.8628  1.2949
  343MOL0     H47293  10.599   9.699   4.491 -4.4892 -2.9190 -2.9842
  343MOL0     H47294  10.607   9.654   4.330 -1.3381  3.3590  1.4211
  343MOL0     H47295  10.742   9.729   4.400 -3.7612  2.5125 -0.4335
  343MOL0     H47296  11.033   9.380   4.066 -1.4205  1.3415 -3.2427
  343MOL0     H47297  11.087   9.492   3.860 -0.8289  0.1585 -0.2167
  343MOL0     H47298  11.058   9.760   3.797  0.8610  4.3954  2.6472
  343MOL0     H47299  11.193   9.864   3.806 -1.2714  0.9209 -0.6120
  343MOL0     H47300  11.118   9.842   3.567  0.9253 -0.6053 -1.0074
  343MOL0     H47301  11.280   9.788   3.582  0.7060 -1.7193  0.1429
  343MOL0     H47302  11.177   9.544   3.580 -0.4101 -0.6199 -1.9639
  343MOL0     H47303  11.145   9.644   3.440 -0.7857  1.0489 -0.2446
  343MOL0     H47304  10.963   9.631   3.674  2.0869  0.9730  0.0852
  343MOL0     H47305  10.944   9.515   3.537 -0.8697  0.8753 -2.8250
  343MOL0     H47306  10.877   9.808   3.546 -0.4853 -1.3244  2.6800
  343MOL0     H47307  10.932   9.737   3.395 -2.1080 -0.0166 -0.8659
  343MOL0     H47308  10.699   9.633   3.564  1.6227 -3.5343  0.2581
  343MOL0     H47309  10.755   9.575   3.407 -0.1228  1.6915 -2.3108
  343MOL0     H47310  10.717   9.796   3.293 -2.3785 -0.4514 -1.6470
  343MOL0     H47311  10.658   9.864   3.447 -0.6284 -1.8807  2.1704
  343MOL0     H47312  10.535   9.626   3.301  2.9536 -0.6963 -0.5448
  343MOL0     H47313  10.470   9.776   3.290  2.1588 -0.6772 -2.1640
  343MOL0     H47314  11.321   9.785   4.034  0.9382  0.3466 -0.2157
  343MOL0     H47315  11.234   9.710   4.273  2.5735  2.2735 -1.6954
  343MOL0     H47316  10.999   9.315   4.455 -1.5360 -1.0514 -1.4682
  343MOL0     H47317  10.887   9.212   4.653  1.2361  0.4159 -0.7277
  343MOL0     H47318   9.548   9.568   4.535 -1.9149  0.7569  0.4605
  343MOL0     H47319   9.370   9.571   4.736 -0.5644 -2.1089  2.8156
  343MOL0     H47320   9.328   9.560   5.202  2.7488 -0.6306  2.5259
  343MOL0     H47321   9.228   9.632   5.410 -3.9894 -0.8043 -1.9996
  343MOL0     H47322   9.113   9.985   5.637 -0.3126  0.8760  0.4652
  343MOL0     H47323   9.172  10.070   5.493  1.4822 -0.8129 -0.3676
  343MOL0     H47324   9.000   9.956   5.360  2.4323 -2.7218  0.6214
  343MOL0     H47325   8.920  10.047   5.497 -3.6048 -1.9934  0.2163
  343MOL0     H47326   8.808   9.844   5.480  1.4053 -1.1444 -2.6253
  343MOL0     H47327   8.955   9.746   5.462  1.4774  0.8858 -0.5825
  343MOL0     H47328   9.008   9.755   5.691 -0.2801  0.6605 -0.0497
  343MOL0     H47329   8.844   9.712   5.683  3.8602 -4.6110 -1.5427
  343MOL0     H47330   8.783  10.075   5.890 -0.9011 -0.7901  1.2718
  343MOL0     H47331   9.296  10.038   5.331 -3.5769  0.0712  0.2687
  343MOL0     H47332   9.359   9.999   4.985 -1.4056  2.4253  0.1277
  343MOL0     H47333   9.371  10.101   5.116  0.7777 -1.5937  1.8149
  343MOL0     H47334   9.522  10.025   5.064  0.6318  0.5382 -0.7338
  344MOL0     O47335   5.988   5.420   8.463 -0.0081 -0.7427 -0.9610
  344MOL0     C47336   6.041   5.335   8.397  0.3565  0.1709 -0.6420
  344MOL0     O47337   6.053   5.345   8.263  0.0230  0.0938  0.4655
  344MOL0     C47338   5.987   5.451   8.205  0.5378  0.0110 -0.3251
  344MOL0     C47339   6.066   5.560   8.157 -0.0712  0.1288 -0.2007
  344MOL0     C47340   6.007   5.680   8.110  0.0086  0.0861 -0.6501
  344MOL0     C47341   5.868   5.691   8.109 -0.6834 -1.0190  0.9746
  344MOL0     O47342   5.815   5.814   8.068 -0.2978 -0.2754 -0.0468
  344MOL0     C47343   5.680   5.840   8.100  0.0016  0.9398 -0.4881
  344MOL0     C47344   5.641   5.994   8.107 -0.4058 -0.8050 -0.1243
  344MOL0     C47345   5.681   6.060   7.976  0.0021 -0.2556  0.1481
  344MOL0     C47346   5.659   6.207   7.984  0.0178  0.3027 -0.1550
  344MOL0     C47347   5.671   6.268   7.849  0.0523  0.1169 -0.0540
  344MOL0     C47348   5.634   6.414   7.843  0.1354  0.0931  0.0329
  344MOL0     C47349   5.676   6.479   7.712 -1.1055  0.4243 -0.5400
  344MOL0     C47350   5.624   6.631   7.704 -0.1312  0.9553  0.3017
  344MOL0     N47351   5.734   6.727   7.690 -0.0597 -0.4891  0.2573
  344MOL0     C47352   5.847   6.706   7.617  0.3585  0.2667 -0.1975
  344MOL0     C47353   5.923   6.821   7.630  0.3884  0.6868 -0.4837
  344MOL0     C47354   6.063   6.852   7.590  0.2025 -0.0679 -0.2191
  344MOL0     C47355   6.155   6.872   7.708  0.4181  0.2842  0.3414
  344MOL0     C47356   6.285   6.935   7.656  0.2173 -0.2516  0.3896
  344MOL0     C47357   6.388   6.956   7.770  0.3952 -0.2910 -0.1707
  344MOL0     O47358   6.518   7.002   7.725  0.2002  0.1595  0.7032
  344MOL0     C47359   6.529   7.145   7.728  0.5740  0.2543  0.5221
  344MOL0     C47360   6.420   7.228   7.760 -0.3565 -0.2934  0.8265
  344MOL0     C47361   6.451   7.369   7.770  0.3419 -1.1811  1.0133
  344MOL0     C47362   6.327   7.458   7.791  0.9150  0.0756  0.2374
  344MOL0     C47363   6.583   7.421   7.733 -0.0528  0.3361  0.2033
  344MOL0     C47364   6.623   7.567   7.742  0.6563 -0.8890 -1.3948
  344MOL0     O47365   6.749   7.595   7.765 -0.3418 -0.4408 -0.1936
  344MOL0     C47366   6.774   7.732   7.780  0.4579  0.0465  0.2099
  344MOL0     C47367   6.831   7.793   7.672  0.7877 -0.0244  0.7267
  344MOL0     C47368   6.850   7.927   7.668 -1.1370 -0.7993  0.2009
  344MOL0     C47369   6.812   8.009   7.774 -0.4173  0.6624 -0.2537
  344MOL0     O47370   6.836   8.142   7.768  0.5782  0.4952  0.8312
  344MOL0     C47371   6.718   8.223   7.790 -0.1010  0.6543  0.3730
  344MOL0     C47372   6.720   8.352   7.694  0.6033  0.2052 -0.4528
  344MOL0     C47373   6.581   8.420   7.688 -0.4409 -0.2268 -0.9373
  344MOL0     C47374   6.567   8.525   7.580 -0.0689 -0.6310  1.2225
  344MOL0     C47375   6.571   8.463   7.443  0.2904  0.5959 -0.4983
  344MOL0     C47376   6.514   8.560   7.332  0.1791  0.8924  0.3916
  344MOL0     C47377   6.499   8.485   7.201 -0.1961  0.4368 -0.6348
  344MOL0     C47378   6.458   8.563   7.072 -0.1445  0.2089 -0.6278
  344MOL0    Cl47379   6.587   8.668   6.987 -0.1954  0.2330  0.2428
  344MOL0     C47380   6.754   7.947   7.888 -0.4580 -0.1894  0.4644
  344MOL0     C47381   6.741   7.814   7.890 -0.3228  0.6430  0.2873
  344MOL0     O47382   6.535   7.652   7.724 -0.3599  0.0472 -0.2360
  344MOL0     C47383   6.682   7.329   7.688 -0.1521 -0.2369 -1.3171
  344MOL0     C47384   6.654   7.197   7.687  0.1635  1.1427 -1.0784
  344MOL0     N47385   5.851   6.902   7.705 -0.1134  0.2501 -0.9406
  344MOL0     N47386   5.739   6.858   7.734  0.3802  0.2445  0.9895
  344MOL0     C47387   5.785   5.584   8.141  0.1669  1.1923  0.6703
  344MOL0     C47388   5.845   5.464   8.190 -0.1456  0.8920  1.2851
  344MOL0     C47389   6.089   5.211   8.470  0.5130 -0.1372 -0.3521
  344MOL0     C47390   6.138   5.105   8.389 -0.4640 -0.1756 -0.4678
  344MOL0     C47391   6.189   4.982   8.449  0.6879 -0.0968 -0.5782
  344MOL0     C47392   6.190   4.962   8.589 -0.4774  0.3118 -0.4901
  344MOL0     O47393   6.232   4.844   8.630  0.1876  0.4933 -0.3509
  344MOL0     C47394   6.276   4.834   8.763  0.2641  0.5108 -1.0642
  344MOL0     C47395   6.161   4.809   8.857 -1.2921 -0.3373 -0.4143
  344MOL0     C47396   6.120   4.671   8.878  0.0789 -0.7677 -0.5988
  344MOL0     C47397   6.024   4.658   8.992 -0.1357  0.9654 -0.8814
  344MOL0     C47398   6.104   4.640   9.114 -0.9505  0.2340 -0.6013
  344MOL0     C47399   6.172   4.611   9.212  0.2095 -0.8640  0.5747
  344MOL0     C47400   6.145   5.068   8.667  0.1479 -0.1281  0.1236
  344MOL0     C47401   6.093   5.189   8.615  0.0861 -0.4306 -0.6226
  344MOL0     C47402   6.043   5.291   8.718 -0.4559 -0.0700  0.3546
  344MOL0     H47403   6.175   5.562   8.159 -0.0150  4.0645 -0.0844
  344MOL0     H47404   6.078   5.754   8.073  1.4408 -1.0280 -0.2107
  344MOL0     H47405   5.650   5.795   8.196 -3.0200  0.0564 -1.7193
  344MOL0     H47406   5.614   5.788   8.030 -1.4864  2.3952 -0.2317
  344MOL0     H47407   5.534   5.992   8.130 -0.2848 -5.1043  0.8588
  344MOL0     H47408   5.695   6.029   8.196 -0.1816 -0.0020 -0.5662
  344MOL0     H47409   5.780   6.033   7.937 -0.2239 -0.9628  0.0605
  344MOL0     H47410   5.609   6.017   7.906 -1.9939 -0.0828  1.9976
  344MOL0     H47411   5.564   6.221   8.037  0.6510  1.0766  0.8179
  344MOL0     H47412   5.735   6.249   8.051  1.1115  1.5588 -2.0792
  344MOL0     H47413   5.593   6.231   7.781 -1.2222  0.8767  0.9458
  344MOL0     H47414   5.770   6.257   7.805 -0.2867  3.2210 -1.9201
  344MOL0     H47415   5.526   6.425   7.856  0.1453 -0.2987  0.4806
  344MOL0     H47416   5.678   6.470   7.926 -0.9041  0.5739  0.2701
  344MOL0     H47417   5.646   6.423   7.623  0.6556 -0.7545 -0.4540
  344MOL0     H47418   5.785   6.481   7.707 -0.9141  1.5627  2.1479
  344MOL0     H47419   5.546   6.650   7.629 -0.3149  0.0591  0.2612
  344MOL0     H47420   5.573   6.653   7.798 -2.9997  0.7327 -1.0685
  344MOL0     H47421   5.881   6.610   7.579 -1.5748 -0.7043  0.3598
  344MOL0     H47422   6.061   6.942   7.528  0.9441  0.4407  0.4680
  344MOL0     H47423   6.100   6.763   7.537 -0.0902  1.0452 -2.3876
  344MOL0     H47424   6.107   6.937   7.782  3.1501  2.6198  0.2104
  344MOL0     H47425   6.169   6.774   7.755  0.8858 -0.8758 -2.0730
  344MOL0     H47426   6.325   6.872   7.577  0.6441  0.4334  0.0498
  344MOL0     H47427   6.262   7.030   7.606  2.2057  0.8467  1.4499
  344MOL0     H47428   6.355   7.009   7.859 -4.6913 -1.5678 -0.9993
  344MOL0     H47429   6.396   6.858   7.819 -0.1822  1.5706  4.0950
  344MOL0     H47430   6.322   7.195   7.790  0.5267 -2.2148  1.8067
  344MOL0     H47431   6.293   7.490   7.692  1.7894 -0.0671 -0.1218
  344MOL0     H47432   6.337   7.537   7.866 -2.9685  1.4845 -0.5047
  344MOL0     H47433   6.244   7.411   7.845  0.2954  2.7920  1.7897
  344MOL0     H47434   6.856   7.733   7.585  1.9088  0.1149  0.9328
  344MOL0     H47435   6.883   7.976   7.577 -0.5699  1.4143  1.5245
  344MOL0     H47436   6.623   8.173   7.769 -0.5077  1.4113  0.3828
  344MOL0     H47437   6.717   8.260   7.893  2.3787 -0.1605  0.7661
  344MOL0     H47438   6.789   8.423   7.741 -0.3210 -1.0108  3.0382
  344MOL0     H47439   6.756   8.316   7.597  0.0841 -1.2525 -0.1269
  344MOL0     H47440   6.550   8.469   7.780 -1.3477 -1.9724 -0.2502
  344MOL0     H47441   6.506   8.340   7.692  1.1343 -1.7622  2.6241
  344MOL0     H47442   6.642   8.605   7.581 -0.2041 -0.4163 -1.3114
  344MOL0     H47443   6.465   8.562   7.589 -0.3111 -1.2366  0.9691
  344MOL0     H47444   6.676   8.444   7.416  0.5397  0.9940  0.1601
  344MOL0     H47445   6.517   8.368   7.444  1.0787  0.0774 -2.2678
  344MOL0     H47446   6.583   8.646   7.333 -0.6233  1.5494  0.4928
  344MOL0     H47447   6.416   8.590   7.369  0.1517  0.8026  0.3887
  344MOL0     H47448   6.426   8.405   7.215 -1.0241  1.2150 -0.3965
  344MOL0     H47449   6.593   8.434   7.177  0.5823 -0.0120  2.8368
  344MOL0     H47450   6.368   8.618   7.102 -0.2116 -0.9976  1.5559
  344MOL0     H47451   6.427   8.482   7.005 -4.7372 -0.5584  1.9881
  344MOL0     H47452   6.729   8.004   7.977  3.1268  1.0425  0.8152
  344MOL0     H47453   6.701   7.772   7.982 -2.1276  0.6620 -0.4561
  344MOL0     H47454   6.781   7.370   7.669 -1.0686  1.1913 -3.3435
  344MOL0     H47455   6.732   7.133   7.646 -0.9829  0.0840 -1.6895
  344MOL0     H47456   5.677   5.580   8.138  0.2066 -1.8130  0.8169
  344MOL0     H47457   5.778   5.387   8.226 -0.9698 -0.3137 -2.4480
  344MOL0     H47458   6.131   5.111   8.281 -2.7421 -0.4456 -0.3848
  344MOL0     H47459   6.233   4.899   8.395 -0.4268 -1.3719  0.4155
  344MOL0     H47460   6.339   4.745   8.769 -0.0946  0.3078 -0.1858
  344MOL0     H47461   6.332   4.924   8.791 -2.6446  2.9970 -2.6833
  344MOL0     H47462   6.072   4.868   8.832 -3.6290 -3.3272  0.2027
  344MOL0     H47463   6.210   4.828   8.953  0.3203  1.6926 -1.5724
  344MOL0     H47464   6.075   4.642   8.783 -3.7212 -1.0558  1.0959
  344MOL0     H47465   6.210   4.614   8.900 -0.5423 -1.3041  0.7052
  344MOL0     H47466   5.972   4.562   8.980  2.5324 -0.5430 -1.3828
  344MOL0     H47467   5.961   4.745   9.010 -3.3745 -1.5331  1.0285
  344MOL0     H47468   6.247   4.596   9.287 -0.1405  3.6253  2.1742
  344MOL0     H47469   6.146   5.058   8.775 -0.4960 -1.5711  0.0190
  344MOL0     H47470   5.935   5.298   8.699 -0.1851  3.4692 -0.6280
  344MOL0     H47471   6.065   5.266   8.823 -1.0712  2.2162  1.0956
  344MOL0     H47472   6.094   5.385   8.699 -0.5513 -0.1241 -0.1785
  345MOL0     O47473   3.454   6.196   3.240  0.7636  0.4726  0.3870
  345MOL0     C47474   3.572   6.163   3.240  0.3493  0.4726  0.4525
  345MOL0     O47475   3.674   6.242   3.205  0.3361  0.5643 -0.3599
  345MOL0     C47476   3.674   6.368   3.263  0.6205  0.1374  0.3808
  345MOL0     C47477   3.601   6.471   3.209  0.1084  0.2529 -0.0471
  345MOL0     C47478   3.611   6.593   3.279 -0.0101  0.1099 -0.1607
  345MOL0     C47479   3.682   6.611   3.394  0.6171  0.6517  0.3623
  345MOL0     O47480   3.685   6.729   3.445  0.1651  0.8558  0.1648
  345MOL0     C47481   3.748   6.747   3.567 -0.1989 -0.9268 -0.5712
  345MOL0     C47482   3.707   6.892   3.612  0.1224  0.2927  0.1708
  345MOL0     C47483   3.778   6.913   3.749 -0.5917 -0.0329 -0.3349
  345MOL0     C47484   3.702   6.976   3.873  0.1251 -0.4722  0.1535
  345MOL0     C47485   3.811   7.002   3.987 -0.1003  0.7096  1.0707
  345MOL0     C47486   3.771   7.058   4.121  1.1569  0.5291  0.5778
  345MOL0     C47487   3.890   7.117   4.202 -0.0799  0.0599  0.2963
  345MOL0     C47488   3.993   7.023   4.257  0.4392  0.4230  0.4719
  345MOL0     N47489   4.088   7.090   4.350  0.0847  0.2581  0.4708
  345MOL0     C47490   4.147   7.026   4.450 -1.3326 -0.0198  0.3546
  345MOL0     C47491   4.226   7.120   4.514 -0.3308 -0.0334  0.0600
  345MOL0     C47492   4.305   7.098   4.640  0.2988  0.1877  0.1115
  345MOL0     C47493   4.398   7.212   4.682 -0.6511  0.0561  0.6959
  345MOL0     C47494   4.463   7.193   4.817 -0.2542  0.1037 -0.2209
  345MOL0     C47495   4.598   7.263   4.840 -0.2498 -0.1438 -0.1245
  345MOL0     O47496   4.573   7.401   4.808  0.3741 -0.5552 -0.2304
  345MOL0     C47497   4.671   7.494   4.836 -0.1200 -0.0841  0.4112
  345MOL0     C47498   4.733   7.559   4.724 -1.1743 -0.2167  0.4796
  345MOL0     C47499   4.840   7.649   4.741 -0.5490  1.1564  0.0405
  345MOL0     C47500   4.885   7.730   4.609 -0.9074 -0.0272 -0.9455
  345MOL0     C47501   4.896   7.670   4.870 -1.0783 -0.2264 -0.3088
  345MOL0     C47502   5.013   7.764   4.896  0.8009  0.3429 -0.6283
  345MOL0     O47503   5.021   7.823   5.022  0.0919  0.2390  0.1403
  345MOL0     C47504   5.131   7.891   5.053 -0.4180 -0.8741 -0.5593
  345MOL0     C47505   5.222   7.967   4.971 -0.9770  0.4192  1.0671
  345MOL0     C47506   5.334   8.034   5.030 -0.9502 -0.7041 -0.6661
  345MOL0     C47507   5.347   8.043   5.175 -0.1096  0.4034  0.3838
  345MOL0     O47508   5.452   8.118   5.222  1.3041 -0.0458 -0.3540
  345MOL0     C47509   5.505   8.094   5.350  0.3882 -0.2535 -0.4659
  345MOL0     C47510   5.631   8.174   5.383  0.3794 -0.4961 -0.8529
  345MOL0     C47511   5.640   8.186   5.540 -0.0682 -0.2230 -0.8620
  345MOL0     C47512   5.790   8.232   5.569 -0.7124  0.2194  0.0418
  345MOL0     C47513   5.818   8.240   5.722 -0.1072 -0.0424 -0.1254
  345MOL0     C47514   5.752   8.364   5.785  1.4930  0.6135 -0.6501
  345MOL0     C47515   5.777   8.373   5.938  0.4952  0.0628  0.1065
  345MOL0     C47516   5.930   8.401   5.958 -0.5464 -0.1469  0.4337
  345MOL0    Cl47517   5.970   8.439   6.129 -0.1338  0.4367 -0.1705
  345MOL0     C47518   5.257   7.978   5.247  1.5765 -0.2526  0.6305
  345MOL0     C47519   5.150   7.898   5.188 -0.8966 -0.5878 -0.4694
  345MOL0     O47520   5.114   7.755   4.826 -0.5968 -0.5762 -0.0609
  345MOL0     C47521   4.842   7.593   4.977 -0.1865 -0.1623 -0.3055
  345MOL0     C47522   4.733   7.507   4.955  1.0876  0.0101 -0.0495
  345MOL0     N47523   4.212   7.239   4.454 -0.7903  0.2328  0.7925
  345MOL0     N47524   4.136   7.214   4.354  0.5937 -0.4406 -0.0405
  345MOL0     C47525   3.755   6.497   3.444 -0.1513 -1.2620 -0.2019
  345MOL0     C47526   3.751   6.375   3.382 -0.6002  0.1220 -0.9277
  345MOL0     C47527   3.604   6.029   3.294  0.1394  0.5400 -0.2570
  345MOL0     C47528   3.512   5.981   3.378  1.0588 -0.3686 -0.3057
  345MOL0     C47529   3.525   5.852   3.426 -0.8687  0.3744  0.2708
  345MOL0     C47530   3.642   5.771   3.407  0.2885  0.3096  1.1001
  345MOL0     O47531   3.666   5.636   3.436 -0.2593  0.0023 -0.9252
  345MOL0     C47532   3.553   5.561   3.480 -0.5104  0.7236  0.4315
  345MOL0     C47533   3.566   5.418   3.432  0.3639 -0.2209  1.3794
  345MOL0     C47534   3.536   5.391   3.284  0.7068 -0.1094 -1.0367
  345MOL0     C47535   3.585   5.255   3.226  0.0696 -0.2402  0.0317
  345MOL0     C47536   3.569   5.235   3.077  0.0964  0.3378 -0.0693
  345MOL0     C47537   3.572   5.233   2.960 -0.5116  0.2115  0.7085
  345MOL0     C47538   3.746   5.831   3.337  0.7130  0.0903  1.4026
  345MOL0     C47539   3.724   5.958   3.276  0.3445 -0.3000  0.8331
  345MOL0     C47540   3.835   6.003   3.180  0.2478 -0.1064  0.3008
  345MOL0     H47541   3.541   6.459   3.119  0.7917  0.5284 -0.5520
  345MOL0     H47542   3.559   6.680   3.242 -1.1514 -0.9517 -1.1619
  345MOL0     H47543   3.856   6.750   3.549  0.7930 -4.2116  3.3751
  345MOL0     H47544   3.726   6.673   3.645  3.7625 -0.7120  0.9897
  345MOL0     H47545   3.755   6.959   3.540  0.5832  1.1442  1.2437
  345MOL0     H47546   3.599   6.908   3.613  0.0838  0.0862 -0.3178
  345MOL0     H47547   3.821   6.821   3.791 -2.7700  0.5816  3.8667
  345MOL0     H47548   3.861   6.981   3.728 -0.7688  1.1219  2.2643
  345MOL0     H47549   3.650   7.068   3.847  1.3198 -0.4025 -2.3444
  345MOL0     H47550   3.627   6.902   3.904 -0.8762 -0.3600 -1.7829
  345MOL0     H47551   3.876   7.081   3.949  0.7699 -1.0364 -1.3173
  345MOL0     H47552   3.873   6.913   3.997 -1.6235 -0.3637  1.2595
  345MOL0     H47553   3.693   7.132   4.100 -0.5851 -1.4950 -0.4703
  345MOL0     H47554   3.728   6.972   4.172  1.9964 -2.8599 -3.8127
  345MOL0     H47555   3.851   7.165   4.292 -0.6892  0.1532 -0.0143
  345MOL0     H47556   3.948   7.189   4.143  0.9378 -0.5716  0.5011
  345MOL0     H47557   3.939   6.941   4.305  0.5283 -0.0595 -0.2250
  345MOL0     H47558   4.047   6.982   4.171 -0.1799  0.5457  0.0141
  345MOL0     H47559   4.140   6.925   4.489 -0.8973  0.0921  0.7207
  345MOL0     H47560   4.355   7.001   4.640 -2.9064 -1.6304  2.2508
  345MOL0     H47561   4.230   7.099   4.719  0.9648  0.2448  0.7544
  345MOL0     H47562   4.478   7.226   4.608 -0.8054 -0.1775  0.4843
  345MOL0     H47563   4.338   7.303   4.675  1.7553  1.6472 -0.8702
  345MOL0     H47564   4.401   7.228   4.900  1.2537  1.8812  0.2193
  345MOL0     H47565   4.471   7.086   4.841  2.9063 -0.0004 -1.2049
  345MOL0     H47566   4.629   7.246   4.943  0.5556 -0.7649 -0.4618
  345MOL0     H47567   4.670   7.219   4.771  0.3932  0.8533 -0.1186
  345MOL0     H47568   4.685   7.554   4.626 -0.4929 -2.3941  0.1884
  345MOL0     H47569   4.926   7.659   4.535 -0.3546 -0.3685 -0.3221
  345MOL0     H47570   4.956   7.811   4.631 -0.9097 -0.7999  2.3696
  345MOL0     H47571   4.802   7.782   4.560  0.2954  1.3618 -1.5875
  345MOL0     H47572   5.192   7.985   4.868 -0.7186  3.3219  1.4135
  345MOL0     H47573   5.405   8.095   4.976 -1.0356  0.4412  0.4634
  345MOL0     H47574   5.424   8.119   5.419  1.0139  0.6719 -0.0486
  345MOL0     H47575   5.531   7.988   5.359 -1.9976 -0.8215  0.8618
  345MOL0     H47576   5.719   8.121   5.346 -0.7931 -0.6771 -3.5997
  345MOL0     H47577   5.628   8.273   5.336 -1.6882  0.5948  1.3179
  345MOL0     H47578   5.643   8.091   5.593 -1.4937  1.6592  2.9898
  345MOL0     H47579   5.568   8.256   5.583 -0.1401 -0.1221 -1.1486
  345MOL0     H47580   5.831   8.321   5.521  0.1926  0.5080  1.2868
  345MOL0     H47581   5.841   8.145   5.528  0.4506  0.6024  0.6500
  345MOL0     H47582   5.796   8.152   5.783 -2.0188  2.6451  3.3987
  345MOL0     H47583   5.925   8.261   5.731 -0.6533  2.1805  2.5361
  345MOL0     H47584   5.645   8.378   5.765  1.2448  0.4989  0.4889
  345MOL0     H47585   5.804   8.448   5.739 -2.6455  1.7369 -3.8605
  345MOL0     H47586   5.747   8.280   5.988  0.6689 -1.3318 -2.2364
  345MOL0     H47587   5.728   8.460   5.983  1.8757 -0.1604  2.1661
  345MOL0     H47588   5.960   8.480   5.889 -0.7966  0.3029  0.8337
  345MOL0     H47589   5.992   8.314   5.934  3.7809  2.3132  1.4721
  345MOL0     H47590   5.275   7.988   5.354  1.5847  2.7213  0.4368
  345MOL0     H47591   5.076   7.852   5.252 -0.4114  0.0056  0.5298
  345MOL0     H47592   4.885   7.601   5.076 -0.8226 -0.4421  0.0021
  345MOL0     H47593   4.700   7.462   5.048 -0.8467 -2.0376 -1.5916
  345MOL0     H47594   3.825   6.523   3.522 -0.0249 -1.3646 -0.2818
  345MOL0     H47595   3.814   6.298   3.426 -0.4477  0.6071 -0.2898
  345MOL0     H47596   3.431   6.044   3.414  2.2049  1.5145 -0.8711
  345MOL0     H47597   3.456   5.811   3.499  2.2613  1.3664  4.1447
  345MOL0     H47598   3.549   5.563   3.589  1.3191  0.3126  0.5397
  345MOL0     H47599   3.464   5.603   3.432  0.5791  1.3262 -1.1611
  345MOL0     H47600   3.494   5.355   3.485  0.7127  0.0667  2.2231
  345MOL0     H47601   3.663   5.381   3.465  0.7064 -0.4896  0.1078
  345MOL0     H47602   3.428   5.390   3.269  0.5401 -1.4793 -0.0176
  345MOL0     H47603   3.575   5.472   3.222 -0.9134 -0.5134 -2.6823
  345MOL0     H47604   3.540   5.171   3.280  1.8084 -0.5276  1.1258
  345MOL0     H47605   3.693   5.253   3.243 -0.1544  0.6158  1.7836
  345MOL0     H47606   3.598   5.227   2.856 -0.5446  0.3149  0.6940
  345MOL0     H47607   3.830   5.769   3.308 -0.7638 -1.8971  1.1427
  345MOL0     H47608   3.918   6.051   3.232 -0.0146 -0.3075  0.9069
  345MOL0     H47609   3.876   5.912   3.135  0.7731  1.4706 -2.6934
  345MOL0     H47610   3.801   6.066   3.097  0.5365  0.5267  0.6608
  346MOL0     O47611   8.403   2.150   8.366  0.1768  0.2009 -0.1954
  346MOL0     C47612   8.320   2.211   8.437 -0.1429 -0.3481 -0.7399
  346MOL0     O47613   8.237   2.153   8.538  0.1310 -0.0650  0.8096
  346MOL0     C47614   8.283   2.038   8.602  0.6838  0.3635  0.2799
  346MOL0     C47615   8.198   1.951   8.677 -0.5840  0.5362  0.5266
  346MOL0     C47616   8.251   1.835   8.747 -0.7706  0.5338  0.8754
  346MOL0     C47617   8.389   1.814   8.756 -0.4944 -0.2406  0.9174
  346MOL0     O47618   8.451   1.710   8.825  0.2209 -0.0464 -0.2948
  346MOL0     C47619   8.384   1.587   8.854  0.2592 -0.6409  0.5835
  346MOL0     C47620   8.464   1.503   8.951 -1.4142  0.2320  0.2509
  346MOL0     C47621   8.614   1.499   8.915 -0.3262 -0.2871 -0.1764
  346MOL0     C47622   8.691   1.401   9.009  0.0995  0.2801 -0.2499
  346MOL0     C47623   8.845   1.413   8.992  0.4159 -0.0585 -0.3018
  346MOL0     C47624   8.897   1.550   9.023 -0.6659  0.3090 -0.0926
  346MOL0     C47625   9.036   1.541   8.962  0.4960 -0.0221 -0.1053
  346MOL0     C47626   9.036   1.561   8.806  0.1369 -0.0580  0.7147
  346MOL0     N47627   9.122   1.680   8.765  0.7708  0.2778  0.2970
  346MOL0     C47628   9.079   1.805   8.753 -0.0371  0.1438  0.0657
  346MOL0     C47629   9.193   1.877   8.716 -0.0406 -0.2867 -0.4657
  346MOL0     C47630   9.201   2.029   8.704 -0.2148  0.6352  0.9730
  346MOL0     C47631   9.197   2.080   8.557  0.1298  0.6330 -0.4237
  346MOL0     C47632   9.163   2.229   8.543 -0.1933 -0.3431 -0.2989
  346MOL0     C47633   9.026   2.284   8.584  0.3714 -0.2975  0.0406
  346MOL0     O47634   8.915   2.200   8.524  0.4789  0.1210  0.5154
  346MOL0     C47635   8.890   2.222   8.390  0.8235 -0.7071 -0.6925
  346MOL0     C47636   8.816   2.122   8.333 -0.6157 -0.7334  0.1283
  346MOL0     C47637   8.783   2.131   8.200 -0.2446  0.2478  1.1303
  346MOL0     C47638   8.704   2.009   8.157 -0.1650 -1.0262 -0.1442
  346MOL0     C47639   8.823   2.236   8.112 -0.4663 -0.2790 -0.3163
  346MOL0     C47640   8.780   2.261   7.978  0.6037 -0.5214 -0.3190
  346MOL0     O47641   8.813   2.379   7.915 -0.6976  1.5286  0.2051
  346MOL0     C47642   8.793   2.367   7.781  0.5356 -0.1369  0.1083
  346MOL0     C47643   8.859   2.282   7.689 -0.4545  0.0413 -0.2391
  346MOL0     C47644   8.839   2.288   7.545  0.0198 -0.0304 -0.7484
  346MOL0     C47645   8.738   2.371   7.507 -0.1283 -0.5700  0.3743
  346MOL0     O47646   8.699   2.369   7.374  0.2496 -0.5797  0.2054
  346MOL0     C47647   8.587   2.280   7.340 -1.2676  0.1408  0.6622
  346MOL0     C47648   8.467   2.379   7.306  0.2018  0.1254 -0.7218
  346MOL0     C47649   8.471   2.450   7.179 -0.2947 -0.0355  0.6502
  346MOL0     C47650   8.576   2.561   7.175  1.0982  0.2540 -0.1135
  346MOL0     C47651   8.533   2.672   7.070 -0.1345  0.0743 -0.8244
  346MOL0     C47652   8.653   2.740   6.999 -0.2948  1.1449 -0.8813
  346MOL0     C47653   8.671   2.688   6.861 -0.8490  0.3531  0.3254
  346MOL0     C47654   8.568   2.747   6.766 -0.0014  0.0342  0.9159
  346MOL0    Cl47655   8.605   2.687   6.603  0.2532 -0.0238  0.0553
  346MOL0     C47656   8.667   2.457   7.596  0.2295 -0.3356 -0.5577
  346MOL0     C47657   8.700   2.461   7.726 -0.2210  0.2724 -0.8335
  346MOL0     O47658   8.707   2.173   7.936 -0.0838 -0.2357  0.1992
  346MOL0     C47659   8.920   2.326   8.172 -0.2254  0.8599  0.0664
  346MOL0     C47660   8.952   2.321   8.306 -0.7989 -0.6942  0.4633
  346MOL0     N47661   9.303   1.789   8.707 -0.8823 -0.4728  0.2240
  346MOL0     N47662   9.254   1.673   8.734  0.2257  1.0916  0.0756
  346MOL0     C47663   8.469   1.904   8.684 -0.2538  0.1262 -0.8538
  346MOL0     C47664   8.422   2.009   8.616 -0.6844 -0.4853  0.4652
  346MOL0     C47665   8.307   2.353   8.440 -0.6022 -1.1098  0.5262
  346MOL0     C47666   8.199   2.413   8.512  0.3100 -0.0208  0.4385
  346MOL0     C47667   8.183   2.548   8.522 -0.4758 -0.5235 -0.1182
  346MOL0     C47668   8.279   2.636   8.459  0.0052 -0.3002  0.3882
  346MOL0     O47669   8.251   2.769   8.460 -0.3150  1.1533 -0.1464
  346MOL0     C47670   8.306   2.861   8.368 -0.6262  0.4251  0.1858
  346MOL0     C47671   8.241   2.993   8.391  0.1161  0.1156  0.1858
  346MOL0     C47672   8.319   3.060   8.506  0.6629  0.5317 -0.1125
  346MOL0     C47673   8.277   3.195   8.548  0.7414 -0.4948  0.6685
  346MOL0     C47674   8.290   3.297   8.437 -1.1154 -0.6198  0.7083
  346MOL0     C47675   8.304   3.380   8.348  0.7529 -0.6880  0.5329
  346MOL0     C47676   8.367   2.577   8.373  0.1701  0.0729 -0.8164
  346MOL0     C47677   8.376   2.443   8.355 -0.5381 -0.3439 -0.6260
  346MOL0     C47678   8.484   2.416   8.247  0.6049  1.1906 -0.2076
  346MOL0     H47679   8.091   1.972   8.675 -0.9177 -1.0492 -1.3428
  346MOL0     H47680   8.183   1.778   8.809 -2.2128 -1.6586 -2.4472
  346MOL0     H47681   8.393   1.531   8.761 -0.0258 -1.4825  1.0561
  346MOL0     H47682   8.282   1.595   8.892  0.1735  0.3643  0.1704
  346MOL0     H47683   8.455   1.538   9.054 -0.4596 -0.8807  0.7316
  346MOL0     H47684   8.444   1.396   8.950  2.0183 -0.5302 -1.7364
  346MOL0     H47685   8.630   1.481   8.808 -0.8528  3.4303 -1.0103
  346MOL0     H47686   8.664   1.596   8.920  2.1311 -1.2448 -3.2509
  346MOL0     H47687   8.665   1.401   9.116  1.8200 -1.1517  0.2230
  346MOL0     H47688   8.656   1.304   8.973 -4.8924  1.9908 -0.7518
  346MOL0     H47689   8.862   1.387   8.888 -1.6753 -0.8133 -0.5067
  346MOL0     H47690   8.899   1.343   9.057  3.0234  0.0943 -2.1563
  346MOL0     H47691   8.850   1.637   8.976  1.2400  1.2476 -0.3573
  346MOL0     H47692   8.913   1.555   9.131  2.3150 -0.9536 -0.3963
  346MOL0     H47693   9.079   1.442   8.979 -2.5323 -1.5806 -0.7291
  346MOL0     H47694   9.103   1.616   9.004 -1.0260  2.0635 -1.2228
  346MOL0     H47695   9.061   1.462   8.767 -0.8554  0.1751 -0.6222
  346MOL0     H47696   8.940   1.587   8.761  1.6732  1.9123 -1.6658
  346MOL0     H47697   8.979   1.845   8.768 -0.0663  0.0384  0.1607
  346MOL0     H47698   9.282   2.077   8.759  0.6432  2.3576 -1.6033
  346MOL0     H47699   9.109   2.073   8.745 -2.8078 -2.5125 -0.9981
  346MOL0     H47700   9.296   2.057   8.518 -0.7286 -2.4327 -1.0419
  346MOL0     H47701   9.116   2.022   8.513  3.0003 -2.7741 -1.6395
  346MOL0     H47702   9.246   2.279   8.594  2.0096 -5.3303  1.6307
  346MOL0     H47703   9.181   2.251   8.438 -0.7406  0.6240 -0.2021
  346MOL0     H47704   9.014   2.271   8.692  0.5681 -3.8213 -0.2346
  346MOL0     H47705   9.014   2.390   8.562  0.7317 -0.4298 -0.8303
  346MOL0     H47706   8.769   2.041   8.388 -1.1783  0.3778  1.3300
  346MOL0     H47707   8.602   2.045   8.163 -0.5284 -1.8102 -1.2026
  346MOL0     H47708   8.717   1.930   8.231 -3.6330  1.3543  3.3503
  346MOL0     H47709   8.738   1.983   8.056 -2.1486  3.6243 -2.3082
  346MOL0     H47710   8.933   2.211   7.725 -0.8632 -0.7275 -0.9085
  346MOL0     H47711   8.884   2.224   7.469  0.0143  0.8827 -1.5435
  346MOL0     H47712   8.622   2.220   7.255 -0.4981 -0.5791  1.4629
  346MOL0     H47713   8.561   2.211   7.421  1.8310 -2.2332 -0.1693
  346MOL0     H47714   8.379   2.315   7.301 -1.1954  1.9989 -1.4924
  346MOL0     H47715   8.461   2.433   7.401  2.4823 -0.8129  0.0285
  346MOL0     H47716   8.373   2.498   7.174 -1.8317 -2.3792  4.2850
  346MOL0     H47717   8.487   2.379   7.097 -1.3639 -0.8468  1.1356
  346MOL0     H47718   8.678   2.533   7.146  1.2195  1.0140 -0.4504
  346MOL0     H47719   8.578   2.607   7.274 -0.5775 -0.9038  0.5139
  346MOL0     H47720   8.464   2.627   6.998  1.0482 -2.5420 -0.4190
  346MOL0     H47721   8.471   2.741   7.129  1.6164  1.1032 -0.1169
  346MOL0     H47722   8.733   2.728   7.072 -1.3030 -3.3733 -0.2508
  346MOL0     H47723   8.631   2.847   6.996 -2.4156  0.7509 -0.7472
  346MOL0     H47724   8.642   2.583   6.877 -1.4311  0.4629  0.0196
  346MOL0     H47725   8.772   2.706   6.825  0.7973 -0.3462  4.0662
  346MOL0     H47726   8.576   2.856   6.765 -0.5491  0.0840  1.5185
  346MOL0     H47727   8.465   2.720   6.790 -0.6226 -0.7799 -2.2366
  346MOL0     H47728   8.607   2.542   7.565 -0.1105  0.2563  1.5702
  346MOL0     H47729   8.658   2.528   7.802 -1.7514 -2.2871  0.7158
  346MOL0     H47730   8.961   2.411   8.118  4.1580  0.1137  1.7666
  346MOL0     H47731   9.017   2.398   8.347  1.1946 -1.4139 -1.1916
  346MOL0     H47732   8.576   1.886   8.680 -0.0050  1.3924 -0.1572
  346MOL0     H47733   8.498   2.072   8.572  1.5583 -3.4845 -0.2681
  346MOL0     H47734   8.134   2.355   8.576  0.5771 -1.0465 -0.1991
  346MOL0     H47735   8.110   2.592   8.589 -0.5326 -2.5966  1.2667
  346MOL0     H47736   8.413   2.851   8.348 -0.6168 -4.0184  1.3548
  346MOL0     H47737   8.267   2.847   8.266  2.3213  1.3586 -1.1613
  346MOL0     H47738   8.134   2.989   8.415  0.3814  0.4572  1.5160
  346MOL0     H47739   8.243   3.058   8.302 -1.1388 -1.4072 -1.0084
  346MOL0     H47740   8.321   2.986   8.586 -2.3986  1.0932  0.6040
  346MOL0     H47741   8.424   3.061   8.477  1.1585  2.5577  1.5384
  346MOL0     H47742   8.337   3.236   8.630  2.9582 -1.1114 -0.5559
  346MOL0     H47743   8.172   3.191   8.577  0.3469  0.2259 -0.5994
  346MOL0     H47744   8.313   3.436   8.257 -0.5418 -2.4471 -0.7286
  346MOL0     H47745   8.425   2.646   8.313 -1.2167  2.5295  0.4551
  346MOL0     H47746   8.451   2.330   8.189 -2.4562  1.9373  0.2379
  346MOL0     H47747   8.488   2.500   8.177 -0.4683  1.1633 -0.3076
  346MOL0     H47748   8.584   2.394   8.287  1.0581  0.2088 -1.8093
  347MOL0     O47749   8.475   8.407   3.915  0.1320 -0.4641 -1.2237
  347MOL0     C47750   8.532   8.505   3.874  0.0919 -0.0637  0.8013
  347MOL0     O47751   8.590   8.593   3.949 -0.1935 -0.6754 -0.3475
  347MOL0     C47752   8.547   8.612   4.072 -0.9223 -0.2518  0.3924
  347MOL0     C47753   8.416   8.579   4.124 -0.3858  0.0985 -0.4271
  347MOL0     C47754   8.393   8.584   4.261  0.2934 -0.8698  0.7221
  347MOL0     C47755   8.480   8.649   4.349 -0.5473  0.4075 -0.0586
  347MOL0     O47756   8.451   8.647   4.487  0.2415 -0.7454  1.3950
  347MOL0     C47757   8.543   8.710   4.587 -0.1903  0.5731  0.3215
  347MOL0     C47758   8.513   8.661   4.733  0.8700  0.2706 -0.1492
  347MOL0     C47759   8.529   8.513   4.747  0.8031 -0.2564 -0.4509
  347MOL0     C47760   8.658   8.440   4.697 -0.6193 -0.4435  0.2728
  347MOL0     C47761   8.777   8.474   4.786  0.6948  0.4906 -0.0754
  347MOL0     C47762   8.900   8.373   4.773  0.0029  0.5842  0.0460
  347MOL0     C47763   8.932   8.337   4.631  0.1671  0.7248  0.0480
  347MOL0     C47764   9.045   8.244   4.613 -0.0657  0.2536 -1.6079
  347MOL0     N47765   9.180   8.293   4.624 -0.0203  0.1087 -0.6931
  347MOL0     C47766   9.238   8.321   4.746 -0.6923  0.0380 -0.8096
  347MOL0     C47767   9.371   8.356   4.717 -0.1668 -0.9018  0.1425
  347MOL0     C47768   9.464   8.405   4.817  0.0418 -0.0315  0.2170
  347MOL0     C47769   9.459   8.556   4.842 -0.1422  0.3279  0.0149
  347MOL0     C47770   9.542   8.603   4.973 -0.3896 -0.0860 -0.3441
  347MOL0     C47771   9.703   8.595   4.979 -0.4537 -0.6157  0.1176
  347MOL0     O47772   9.757   8.618   5.108  0.1558 -0.5875  0.3021
  347MOL0     C47773   9.894   8.628   5.124  0.3700 -0.5893  0.9187
  347MOL0     C47774   9.935   8.719   5.216  0.5285 -0.3330  0.6162
  347MOL0     C47775  10.065   8.760   5.222  0.5991  0.6321 -0.0217
  347MOL0     C47776  10.093   8.855   5.332 -0.8225  0.6924  0.4637
  347MOL0     C47777  10.171   8.702   5.136  0.1026  0.6955  0.7523
  347MOL0     C47778  10.309   8.759   5.129  0.2236  0.6700 -0.7622
  347MOL0     O47779  10.405   8.672   5.102 -1.0706  0.0623  0.9736
  347MOL0     C47780  10.532   8.718   5.111 -0.1014  0.7580  0.2200
  347MOL0     C47781  10.580   8.746   5.237 -0.2769  0.0896  0.5707
  347MOL0     C47782  10.700   8.818   5.258  0.2546 -0.1487  1.0648
  347MOL0     C47783  10.780   8.859   5.156 -0.1048 -0.6392  0.0360
  347MOL0     O47784  10.893   8.927   5.191  0.2364  0.0612  0.3460
  347MOL0     C47785  10.965   8.990   5.086  0.2977  0.0283  0.8840
  347MOL0     C47786  11.054   9.099   5.146 -1.0543  0.2183  0.0682
  347MOL0     C47787  11.161   9.041   5.240 -0.1139 -0.6626 -0.4335
  347MOL0     C47788  11.253   8.936   5.181 -0.1009 -0.9019  0.3491
  347MOL0     C47789  11.332   8.859   5.287 -0.0170 -0.9557 -0.3735
  347MOL0     C47790  11.251   8.785   5.400  0.0417  1.5313 -0.4573
  347MOL0     C47791  11.158   8.670   5.351 -0.4054  0.0593 -0.2247
  347MOL0     C47792  11.071   8.614   5.451  0.9428  0.6343 -0.7235
  347MOL0    Cl47793  10.967   8.742   5.509  0.3901 -0.1957 -0.5124
  347MOL0     C47794  10.735   8.831   5.029 -0.0918  0.0972 -0.0594
  347MOL0     C47795  10.612   8.758   5.003  0.6005  0.4128 -0.5198
  347MOL0     O47796  10.322   8.874   5.148 -0.4257  0.2293 -0.7857
  347MOL0     C47797  10.120   8.588   5.055  0.7844 -0.1941 -1.1536
  347MOL0     C47798   9.983   8.558   5.045  0.4228 -0.5100  0.3309
  347MOL0     N47799   9.389   8.343   4.580  0.3844 -0.0018  0.3597
  347MOL0     N47800   9.276   8.314   4.531  0.7899 -0.0585 -0.4094
  347MOL0     C47801   8.597   8.702   4.296  0.1663 -0.8033  0.6482
  347MOL0     C47802   8.633   8.674   4.165 -0.3108  0.0031  0.1111
  347MOL0     C47803   8.526   8.531   3.722  0.9988  0.7238 -0.4836
  347MOL0     C47804   8.420   8.461   3.657  0.2568  0.5236 -0.1199
  347MOL0     C47805   8.395   8.470   3.519  0.0431 -0.3069  0.0243
  347MOL0     C47806   8.474   8.562   3.448  0.2930 -0.0414 -0.8711
  347MOL0     O47807   8.448   8.615   3.327 -0.0161  0.5662  0.8352
  347MOL0     C47808   8.341   8.558   3.252  0.0527  0.4943  0.0519
  347MOL0     C47809   8.375   8.427   3.193  0.6452 -0.3904  0.4202
  347MOL0     C47810   8.515   8.435   3.121  0.0592 -0.4784  0.0452
  347MOL0     C47811   8.531   8.557   3.022  0.1554 -0.0592  0.2827
  347MOL0     C47812   8.470   8.510   2.901  1.1410  0.2559 -0.1596
  347MOL0     C47813   8.438   8.461   2.792  1.2089  0.4005 -0.0660
  347MOL0     C47814   8.585   8.617   3.505 -0.4020 -0.2399 -0.3722
  347MOL0     C47815   8.614   8.607   3.643  0.0104 -0.5159 -0.7998
  347MOL0     C47816   8.715   8.692   3.714 -0.6440 -1.1157  0.9427
  347MOL0     H47817   8.343   8.530   4.060 -2.3314 -0.2383  1.8914
  347MOL0     H47818   8.302   8.537   4.299 -2.1191  1.8264 -1.2081
  347MOL0     H47819   8.538   8.819   4.589 -1.1837  0.5608 -0.4265
  347MOL0     H47820   8.642   8.671   4.563 -1.9503 -4.0819 -0.2890
  347MOL0     H47821   8.579   8.719   4.798  0.6207  0.9611 -0.5061
  347MOL0     H47822   8.412   8.697   4.749 -0.2446 -2.6448  0.0006
  347MOL0     H47823   8.529   8.493   4.854  2.7379  1.1024 -0.1408
  347MOL0     H47824   8.443   8.455   4.713  1.2321 -1.7288  0.8685
  347MOL0     H47825   8.645   8.331   4.700 -2.9086 -0.2157 -0.0599
  347MOL0     H47826   8.661   8.466   4.591 -2.9407  0.6942  0.4206
  347MOL0     H47827   8.748   8.497   4.889  1.8250  2.1001 -0.0873
  347MOL0     H47828   8.812   8.574   4.761  3.4614  0.5853  3.4278
  347MOL0     H47829   8.985   8.427   4.815  2.1184 -1.8956 -0.8023
  347MOL0     H47830   8.872   8.277   4.817 -2.4684  0.5773 -1.3478
  347MOL0     H47831   8.953   8.425   4.569  1.5157  0.1511 -0.3543
  347MOL0     H47832   8.843   8.291   4.588 -0.1287  0.3840  1.0046
  347MOL0     H47833   9.035   8.171   4.694  0.6818  2.5171  0.6811
  347MOL0     H47834   9.035   8.187   4.521  1.1758  0.5718 -1.9620
  347MOL0     H47835   9.181   8.328   4.838  2.7998  1.8840  1.4362
  347MOL0     H47836   9.567   8.372   4.801  0.9729  3.1545 -1.0800
  347MOL0     H47837   9.433   8.355   4.909  2.5272  0.1841  1.2727
  347MOL0     H47838   9.497   8.611   4.755  0.6931  1.3717  0.9909
  347MOL0     H47839   9.355   8.586   4.852 -0.1279  0.9461 -1.3765
  347MOL0     H47840   9.518   8.709   4.987 -3.1386 -0.6237 -0.3604
  347MOL0     H47841   9.500   8.540   5.052 -1.8621  1.1195 -0.1113
  347MOL0     H47842   9.740   8.497   4.948  1.5108  0.0813  0.0768
  347MOL0     H47843   9.727   8.673   4.906 -2.1921  0.9231  1.1178
  347MOL0     H47844   9.867   8.755   5.293 -3.1358 -2.3679 -1.3540
  347MOL0     H47845  10.200   8.849   5.357 -0.4861  0.2776 -1.0256
  347MOL0     H47846  10.043   8.824   5.425  0.5722 -2.7141  0.2306
  347MOL0     H47847  10.067   8.955   5.295 -1.2508  0.2558 -0.4247
  347MOL0     H47848  10.518   8.696   5.310 -1.1170 -0.6825 -0.6203
  347MOL0     H47849  10.742   8.830   5.357 -0.9220 -1.2148  1.7310
  347MOL0     H47850  11.013   8.909   5.030  0.4346  0.9251 -0.3307
  347MOL0     H47851  10.901   9.038   5.012 -0.5846 -0.3464  1.3874
  347MOL0     H47852  11.110   9.133   5.059  0.9252 -2.7201  0.0566
  347MOL0     H47853  10.988   9.174   5.191 -0.7594 -1.6885  4.0743
  347MOL0     H47854  11.120   9.004   5.335 -0.0370 -0.5197 -0.3439
  347MOL0     H47855  11.208   9.136   5.265 -0.7117  0.3368 -2.8482
  347MOL0     H47856  11.332   8.985   5.125  1.3581 -3.3615  0.1151
  347MOL0     H47857  11.195   8.865   5.121  1.4612 -2.4484  0.5835
  347MOL0     H47858  11.399   8.787   5.240  2.0487  0.1000  0.8041
  347MOL0     H47859  11.402   8.928   5.335 -3.4006  1.4669  1.4655
  347MOL0     H47860  11.188   8.854   5.458  0.4874  0.0426  1.9569
  347MOL0     H47861  11.320   8.729   5.464 -0.2396 -0.7667 -2.0637
  347MOL0     H47862  11.208   8.599   5.285 -0.2685  0.3888 -0.4785
  347MOL0     H47863  11.083   8.727   5.295 -0.1278 -0.5218 -1.2031
  347MOL0     H47864  11.130   8.575   5.534 -0.1326  3.6984  1.6797
  347MOL0     H47865  11.010   8.531   5.412  0.1394 -0.0421  1.8020
  347MOL0     H47866  10.805   8.851   4.948  0.2659 -0.9590 -0.0189
  347MOL0     H47867  10.594   8.733   4.899  0.4065  4.1044 -1.5184
  347MOL0     H47868  10.187   8.533   4.990  3.0170  1.0108  0.0289
  347MOL0     H47869   9.952   8.478   4.978  0.9531 -0.9817  0.6332
  347MOL0     H47870   8.666   8.769   4.347  1.6157  1.0581 -3.3953
  347MOL0     H47871   8.731   8.704   4.128  1.4775 -3.8237  1.1867
  347MOL0     H47872   8.359   8.388   3.710  0.6602  1.2869  1.4645
  347MOL0     H47873   8.332   8.402   3.462  0.2673  1.5375 -2.5855
  347MOL0     H47874   8.252   8.554   3.315 -0.9229  1.2213 -1.2219
  347MOL0     H47875   8.308   8.633   3.179  0.0344  2.1807  1.7127
  347MOL0     H47876   8.293   8.399   3.125  1.1714  2.8965 -1.8365
  347MOL0     H47877   8.384   8.348   3.268  2.4684 -0.2177  0.4377
  347MOL0     H47878   8.594   8.451   3.195  2.6267 -0.4097 -2.5721
  347MOL0     H47879   8.547   8.338   3.083  1.6099  0.0289 -0.0316
  347MOL0     H47880   8.631   8.592   2.996  0.7018 -1.3083  0.6226
  347MOL0     H47881   8.470   8.645   3.042 -0.7120 -0.7698  0.9043
  347MOL0     H47882   8.421   8.411   2.699  2.5936 -0.5284  0.1432
  347MOL0     H47883   8.648   8.682   3.444 -0.8025  1.2366  0.7255
  347MOL0     H47884   8.676   8.774   3.775  0.0926 -0.6637  0.8243
  347MOL0     H47885   8.776   8.621   3.771  1.9763 -0.1618 -0.5421
  347MOL0     H47886   8.779   8.738   3.639 -1.4468 -0.1759  0.8089
  348MOL0     O47887   1.565   9.493   1.062 -0.1823 -0.8674  0.2846
  348MOL0     C47888   1.468   9.459   1.000 -0.1428  0.1492  1.6998
  348MOL0     O47889   1.345   9.518   1.003  0.0860  0.4258  0.1328
  348MOL0     C47890   1.320   9.629   1.087  0.2030 -0.1080  0.4663
  348MOL0     C47891   1.382   9.746   1.063 -0.5150 -0.9866  0.4028
  348MOL0     C47892   1.357   9.859   1.136 -0.1477  0.1322  0.3483
  348MOL0     C47893   1.269   9.854   1.240 -0.0606  0.7819  0.0229
  348MOL0     O47894   1.241   9.964   1.308 -0.2590  0.0622 -0.4342
  348MOL0     C47895   1.248  10.089   1.244  0.1963  0.8042 -0.2379
  348MOL0     C47896   1.221  10.192   1.350 -0.1034  0.6699  0.3248
  348MOL0     C47897   1.214  10.335   1.292 -0.0954 -0.4314 -0.8196
  348MOL0     C47898   1.158  10.437   1.391 -0.0282 -0.2543  0.4236
  348MOL0     C47899   1.157  10.571   1.322 -0.0966 -0.1147  0.5343
  348MOL0     C47900   1.046  10.592   1.214  0.0431 -0.3647  0.1756
  348MOL0     C47901   1.006  10.738   1.186 -0.3597 -0.1535  0.5238
  348MOL0     C47902   0.878  10.772   1.250  1.0684 -0.2303 -0.0594
  348MOL0     N47903   0.889  10.764   1.397  0.3629  0.1630  0.8697
  348MOL0     C47904   0.847  10.666   1.484 -0.3140  0.3714 -0.6852
  348MOL0     C47905   0.893  10.701   1.604  0.5275  0.0979  0.2086
  348MOL0     C47906   0.875  10.620   1.732  0.3793 -1.1276  0.5407
  348MOL0     C47907   0.941  10.482   1.735 -0.4654 -0.1321  0.0403
  348MOL0     C47908   1.089  10.476   1.762  0.1343  0.4108  0.2466
  348MOL0     C47909   1.125  10.326   1.741  0.2572 -0.2469 -0.6000
  348MOL0     O47910   1.259  10.299   1.756  0.1383 -0.2655  0.5256
  348MOL0     C47911   1.308  10.186   1.710  0.0498  0.7028 -0.0059
  348MOL0     C47912   1.449  10.177   1.694 -1.0011  0.4062  1.3639
  348MOL0     C47913   1.514  10.056   1.658  0.6762  0.8652 -0.1026
  348MOL0     C47914   1.665  10.039   1.643  0.7296  0.8689  0.4073
  348MOL0     C47915   1.433   9.943   1.626 -0.4757 -0.3964 -0.1796
  348MOL0     C47916   1.489   9.808   1.567  0.8254  0.3662 -0.4384
  348MOL0     O47917   1.403   9.706   1.586  0.8587  0.0024 -0.1014
  348MOL0     C47918   1.398   9.580   1.525  0.8682 -0.3277 -1.3826
  348MOL0     C47919   1.492   9.531   1.433 -0.0759  0.0369 -0.1227
  348MOL0     C47920   1.485   9.401   1.380 -0.2788  1.0894  0.5704
  348MOL0     C47921   1.386   9.318   1.426 -0.3938 -0.1978 -0.7232
  348MOL0     O47922   1.375   9.186   1.396 -0.3562 -0.5795  0.0363
  348MOL0     C47923   1.392   9.150   1.252  0.5063 -0.2732  0.1197
  348MOL0     C47924   1.250   9.106   1.202 -0.4264  0.1065 -0.2416
  348MOL0     C47925   1.169   9.230   1.166 -0.1207  0.4763  0.0851
  348MOL0     C47926   1.056   9.190   1.060 -0.8834 -0.3990 -0.9782
  348MOL0     C47927   0.952   9.307   1.043 -0.6658 -0.7588 -0.3949
  348MOL0     C47928   0.880   9.301   0.906 -0.8386 -0.4928 -0.3760
  348MOL0     C47929   0.805   9.431   0.862  0.8776  0.3052 -0.2012
  348MOL0     C47930   0.676   9.452   0.943 -0.3769 -0.1335  0.1054
  348MOL0    Cl47931   0.558   9.554   0.853  0.3546  0.2986 -0.1243
  348MOL0     C47932   1.302   9.363   1.524  0.5449 -0.3395  0.0351
  348MOL0     C47933   1.301   9.489   1.575 -0.4634  0.1324  0.6880
  348MOL0     O47934   1.590   9.803   1.502 -0.2013  0.4555 -0.3457
  348MOL0     C47935   1.296   9.949   1.648  0.2410 -0.7480 -0.3665
  348MOL0     C47936   1.233  10.069   1.681  0.2116  0.0605 -0.3613
  348MOL0     N47937   0.947  10.828   1.594  0.2599  1.4106 -0.3053
  348MOL0     N47938   0.941  10.865   1.469  0.4053 -0.2380  0.5604
  348MOL0     C47939   1.214   9.733   1.273  1.0330  0.2206  0.1090
  348MOL0     C47940   1.241   9.617   1.197  0.1098  1.4461 -0.2332
  348MOL0     C47941   1.482   9.342   0.905 -0.1153 -0.0884 -0.0310
  348MOL0     C47942   1.374   9.312   0.813 -0.7043 -0.1785 -0.4976
  348MOL0     C47943   1.384   9.197   0.729 -0.3747 -0.4020 -0.3660
  348MOL0     C47944   1.490   9.106   0.739  0.2305 -0.7237  0.2489
  348MOL0     O47945   1.498   8.987   0.670 -0.2984 -0.1500  0.6129
  348MOL0     C47946   1.392   8.940   0.581 -0.1091 -0.6053  0.5421
  348MOL0     C47947   1.276   8.875   0.659  0.5935  0.3741 -0.3906
  348MOL0     C47948   1.313   8.746   0.725 -0.3574  0.9107  0.3401
  348MOL0     C47949   1.211   8.659   0.790  0.1224 -0.2757 -0.4385
  348MOL0     C47950   1.129   8.734   0.886 -0.5740 -0.3041  0.6966
  348MOL0     C47951   1.073   8.794   0.969  0.1584 -0.2006  0.0672
  348MOL0     C47952   1.594   9.143   0.821  0.3407  1.0584  0.0382
  348MOL0     C47953   1.588   9.258   0.896 -0.9686  0.5081  0.0842
  348MOL0     C47954   1.710   9.278   0.993  0.5607  0.3428 -0.4209
  348MOL0     H47955   1.459   9.773   0.992 -0.4225 -0.4328  0.7045
  348MOL0     H47956   1.400   9.951   1.099 -0.1572 -0.1004 -0.2498
  348MOL0     H47957   1.170  10.093   1.168  0.1218  1.5718 -0.1274
  348MOL0     H47958   1.345  10.115   1.200 -0.9136 -0.0248 -3.3704
  348MOL0     H47959   1.119  10.170   1.385 -1.9396  2.2664 -3.5342
  348MOL0     H47960   1.292  10.175   1.432  0.6718  2.3473  0.0413
  348MOL0     H47961   1.310  10.360   1.244  0.8935 -2.1008  0.2051
  348MOL0     H47962   1.136  10.344   1.216 -2.8819  1.2441  2.0136
  348MOL0     H47963   1.063  10.401   1.432 -0.2853 -1.3196 -1.0019
  348MOL0     H47964   1.225  10.447   1.477 -0.0315  1.9146  0.2158
  348MOL0     H47965   1.258  10.588   1.284 -0.3997 -1.2613 -0.8932
  348MOL0     H47966   1.131  10.654   1.388 -3.4477  2.6409 -3.7423
  348MOL0     H47967   1.068  10.541   1.120 -0.5980 -0.8584  0.2912
  348MOL0     H47968   0.958  10.540   1.252 -0.1400  0.4835  0.9474
  348MOL0     H47969   0.991  10.747   1.078 -4.7450  0.6483  1.0349
  348MOL0     H47970   1.082  10.806   1.226 -1.9070  3.0366 -1.5624
  348MOL0     H47971   0.842  10.873   1.225 -2.6557 -1.6486 -1.0358
  348MOL0     H47972   0.808  10.697   1.211 -2.5487  2.7162  0.1852
  348MOL0     H47973   0.805  10.568   1.465  2.2969 -1.4175  1.9219
  348MOL0     H47974   0.772  10.585   1.744  0.6729 -2.9662 -1.5647
  348MOL0     H47975   0.890  10.684   1.819  0.2936  0.6465 -0.7110
  348MOL0     H47976   0.896  10.436   1.824 -2.0909 -0.9331 -1.1603
  348MOL0     H47977   0.916  10.420   1.649 -1.6391 -0.4330  0.5852
  348MOL0     H47978   1.142  10.543   1.693 -0.3809  1.6888  1.0587
  348MOL0     H47979   1.111  10.502   1.866 -0.9175 -1.1597  0.9030
  348MOL0     H47980   1.073  10.263   1.814  0.1653  2.3042  1.6763
  348MOL0     H47981   1.094  10.306   1.638 -2.1215 -1.5914  0.3093
  348MOL0     H47982   1.511  10.265   1.706  0.7014 -0.6905  1.0220
  348MOL0     H47983   1.726  10.108   1.701  2.2464 -0.3486  0.3118
  348MOL0     H47984   1.703  10.047   1.541  3.2829  0.9150  1.3002
  348MOL0     H47985   1.682   9.941   1.690 -2.4995  0.1270  0.3033
  348MOL0     H47986   1.573   9.600   1.407  2.2935 -1.8107  1.8677
  348MOL0     H47987   1.561   9.365   1.311 -2.7898 -0.9201 -1.3400
  348MOL0     H47988   1.430   9.219   1.176  0.6674 -2.1017 -1.5350
  348MOL0     H47989   1.455   9.061   1.239  1.5281  0.2973  0.9639
  348MOL0     H47990   1.261   9.044   1.112  0.9156 -1.8532  1.1995
  348MOL0     H47991   1.202   9.051   1.283 -0.6611  0.4202 -0.1656
  348MOL0     H47992   1.232   9.307   1.121 -0.2588  0.6206  0.1353
  348MOL0     H47993   1.121   9.269   1.257 -1.0408 -0.0845 -0.1478
  348MOL0     H47994   1.003   9.098   1.087  0.6048 -0.3266  2.7716
  348MOL0     H47995   1.112   9.178   0.967 -1.1760 -0.5863 -1.1312
  348MOL0     H47996   0.884   9.303   1.129  1.4136 -1.6067  1.2772
  348MOL0     H47997   1.009   9.400   1.044  1.3214 -1.9298  0.9334
  348MOL0     H47998   0.821   9.209   0.902 -0.8226 -0.4845 -0.7978
  348MOL0     H47999   0.960   9.286   0.833  0.9011  0.5284  1.2208
  348MOL0     H48000   0.796   9.402   0.757 -1.3520 -1.1254  0.3145
  348MOL0     H48001   0.864   9.523   0.874  2.0152 -0.3933 -0.2701
  348MOL0     H48002   0.689   9.488   1.046  0.0614 -1.6826  0.6215
  348MOL0     H48003   0.636   9.351   0.956  3.4508 -2.0438 -1.3054
  348MOL0     H48004   1.231   9.288   1.555  0.6601 -1.6437 -2.5746
  348MOL0     H48005   1.238   9.527   1.655 -0.7404  1.8468 -0.3145
  348MOL0     H48006   1.235   9.861   1.635 -1.3873 -0.1727  2.5755
  348MOL0     H48007   1.125  10.064   1.665  0.3606 -0.1323 -1.3808
  348MOL0     H48008   1.157   9.710   1.362  2.7551 -0.1368  1.1737
  348MOL0     H48009   1.200   9.518   1.214 -3.8058  2.7157 -1.0547
  348MOL0     H48010   1.281   9.369   0.810 -1.8440 -1.7146  2.2473
  348MOL0     H48011   1.295   9.173   0.672 -0.7778  0.5787 -0.1726
  348MOL0     H48012   1.353   9.022   0.520  0.7089  0.1854  1.0568
  348MOL0     H48013   1.425   8.866   0.507 -0.3597  0.2247 -0.4310
  348MOL0     H48014   1.203   8.846   0.582 -1.0129  0.6688  0.9569
  348MOL0     H48015   1.241   8.940   0.739  1.2212 -0.3298  0.4649
  348MOL0     H48016   1.376   8.687   0.658 -1.9831  1.5719 -1.8910
  348MOL0     H48017   1.375   8.787   0.806  0.4488 -1.0835  0.7873
  348MOL0     H48018   1.263   8.582   0.848  0.4911 -1.4937 -2.2821
  348MOL0     H48019   1.153   8.599   0.719  1.2187  0.9539 -2.5051
  348MOL0     H48020   1.027   8.859   1.041  3.5982  0.3772  1.9577
  348MOL0     H48021   1.668   9.066   0.838 -0.6648 -0.2308 -1.2321
  348MOL0     H48022   1.781   9.194   0.986 -1.0115 -1.0853  0.1510
  348MOL0     H48023   1.756   9.374   0.969  0.5020  0.3670 -0.4400
  348MOL0     H48024   1.682   9.285   1.098  3.6020 -2.0139  0.6976
  349MOL0     O48025   7.361   3.169  10.190  0.1128 -0.6481 -0.2078
  349MOL0     C48026   7.262   3.220  10.143 -0.3024  1.1073 -0.6836
  349MOL0     O48027   7.136   3.219  10.194 -0.3931 -1.1921 -0.1844
  349MOL0     C48028   7.112   3.140  10.306  0.3054 -0.2570 -0.3991
  349MOL0     C48029   7.098   3.204  10.428 -0.5969  1.4930  0.6291
  349MOL0     C48030   7.076   3.128  10.537 -0.3820 -0.7249  1.0110
  349MOL0     C48031   7.073   2.994  10.535  0.3385  0.3047  0.5421
  349MOL0     O48032   7.082   2.915  10.643 -0.0832 -0.3654 -0.1761
  349MOL0     C48033   6.963   2.929  10.712  0.6471  0.8077 -0.2923
  349MOL0     C48034   6.962   2.830  10.817  0.3656  0.3252 -0.6263
  349MOL0     C48035   6.989   2.684  10.784 -0.0082 -0.1973 -0.9518
  349MOL0     C48036   7.008   2.603  10.906  0.3577  0.0902  0.0138
  349MOL0     C48037   7.059   2.454  10.881  0.1771 -0.4753 -0.4195
  349MOL0     C48038   7.092   2.398  11.022 -0.2023 -0.0633  0.4560
  349MOL0     C48039   7.091   2.245  11.033 -0.5878 -0.4279 -0.7404
  349MOL0     C48040   7.051   2.195  11.170 -0.5620  0.2795  0.1658
  349MOL0     N48041   7.101   2.060  11.189 -1.0821  0.1917 -0.2867
  349MOL0     C48042   7.179   2.027  11.303 -0.1534 -0.1226 -0.3536
  349MOL0     C48043   7.189   1.895  11.295  0.0093  0.4671  0.3644
  349MOL0     C48044   7.266   1.812  11.395 -0.9797  0.4963 -0.7767
  349MOL0     C48045   7.420   1.817  11.349 -0.9168 -0.4669 -0.5741
  349MOL0     C48046   7.452   1.732  11.219  0.1038  0.3061 -0.4651
  349MOL0     C48047   7.389   1.597  11.211  0.7601  0.1669 -0.2936
  349MOL0     O48048   7.417   1.518  11.326 -0.5419 -0.1762 -0.2956
  349MOL0     C48049   7.396   1.384  11.333 -0.6150  0.3738 -0.4392
  349MOL0     C48050   7.337   1.314  11.227 -0.3316 -0.3135 -0.3290
  349MOL0     C48051   7.324   1.175  11.222 -0.2122  0.3919 -0.6058
  349MOL0     C48052   7.259   1.106  11.101  0.4056 -0.0910  0.2680
  349MOL0     C48053   7.370   1.099  11.334  0.7654 -0.7647  0.7942
  349MOL0     C48054   7.358   0.952  11.361 -0.3561 -0.0560  1.0061
  349MOL0     O48055   7.464   0.898  11.433  0.1913 -0.6227  0.1791
  349MOL0     C48056   7.453   0.796  11.515 -0.1835 -0.3150 -0.2699
  349MOL0     C48057   7.346   0.763  11.603  0.3550  0.2082  0.3444
  349MOL0     C48058   7.342   0.656  11.687 -0.5017  0.5778 -0.7306
  349MOL0     C48059   7.458   0.576  11.699  0.3924 -0.1620  1.4224
  349MOL0     O48060   7.454   0.464  11.781  0.7551 -0.2037 -0.0881
  349MOL0     C48061   7.573   0.403  11.836  0.5625  0.2591  0.2076
  349MOL0     C48062   7.524   0.263  11.865  0.0590  1.5920  0.3347
  349MOL0     C48063   7.533   0.183  11.734 -0.2211 -0.0338 -0.0093
  349MOL0     C48064   7.436   0.057  11.739 -0.7649  0.3631  0.4819
  349MOL0     C48065   7.428   0.031  11.595 -0.2102 -0.4998  0.6395
  349MOL0     C48066   7.336  -0.088  11.560  0.8775  1.1021 -0.2610
  349MOL0     C48067   7.406  -0.219  11.602 -0.7233  0.2113 -0.1695
  349MOL0     C48068   7.323  -0.339  11.648  0.7474 -0.1235  0.0684
  349MOL0    Cl48069   7.232  -0.304  11.804  0.0751  0.0105 -0.3164
  349MOL0     C48070   7.564   0.597  11.614 -0.4249  0.2738 -0.5154
  349MOL0     C48071   7.558   0.706  11.523  0.3057 -0.2860 -0.1114
  349MOL0     O48072   7.263   0.888  11.315 -0.0248 -0.2437 -1.2718
  349MOL0     C48073   7.425   1.173  11.441 -1.3979  0.2137  0.2612
  349MOL0     C48074   7.445   1.312  11.443  0.0447  0.2426 -0.8756
  349MOL0     N48075   7.125   1.851  11.185 -0.2017  1.0085 -0.0870
  349MOL0     N48076   7.070   1.953  11.114 -0.0850  0.5566 -0.6395
  349MOL0     C48077   7.080   2.926  10.417 -0.3270  0.0296  1.0377
  349MOL0     C48078   7.098   3.004  10.301  0.0403 -0.2233  0.7284
  349MOL0     C48079   7.271   3.292  10.021 -0.1122  0.6688  0.6537
  349MOL0     C48080   7.234   3.434  10.026 -0.9039  0.5441 -0.4655
  349MOL0     C48081   7.253   3.500   9.905  1.2451 -0.6107 -0.5292
  349MOL0     C48082   7.308   3.440   9.795  0.0665  0.1271  0.3470
  349MOL0     O48083   7.345   3.513   9.684 -0.7803 -0.4668  0.7959
  349MOL0     C48084   7.470   3.582   9.701  0.1718  0.4892  0.1160
  349MOL0     C48085   7.476   3.709   9.617 -0.5336  0.0380  1.0009
  349MOL0     C48086   7.461   3.682   9.470  0.9380  0.3413  0.6178
  349MOL0     C48087   7.483   3.814   9.392 -0.2795  0.3740  0.1492
  349MOL0     C48088   7.441   3.806   9.250  0.1949 -0.1667  0.5637
  349MOL0     C48089   7.405   3.782   9.135  0.3375 -0.2668  0.5041
  349MOL0     C48090   7.342   3.304   9.800 -0.7074 -0.6808  0.1041
  349MOL0     C48091   7.323   3.228   9.909 -0.3115 -0.4704  0.0016
  349MOL0     C48092   7.345   3.083   9.914 -0.3665  0.1937  0.4753
  349MOL0     H48093   7.107   3.312  10.434  1.6408  1.2558  3.1386
  349MOL0     H48094   7.061   3.179  10.632  1.3926  1.9940 -0.0687
  349MOL0     H48095   6.868   2.920  10.658 -0.5848  0.3847  1.8333
  349MOL0     H48096   6.952   3.029  10.754 -0.3959  1.2061 -1.4378
  349MOL0     H48097   7.039   2.861  10.888  1.1516 -3.2217  0.2628
  349MOL0     H48098   6.863   2.826  10.864 -0.9687 -2.6833 -3.2812
  349MOL0     H48099   6.911   2.653  10.714  0.6998 -1.3629 -1.2488
  349MOL0     H48100   7.083   2.674  10.729  0.0781 -2.5509 -0.4723
  349MOL0     H48101   7.088   2.657  10.958 -1.2303  2.2378  0.3433
  349MOL0     H48102   6.924   2.604  10.975  2.1880  1.4820  2.4095
  349MOL0     H48103   7.145   2.456  10.814 -0.0325 -2.9371 -0.8869
  349MOL0     H48104   6.983   2.402  10.822  0.4670 -0.9461 -0.3904
  349MOL0     H48105   7.191   2.442  11.033 -1.0644  3.2954 -2.9745
  349MOL0     H48106   7.033   2.425  11.110 -1.3367 -2.2799  0.4523
  349MOL0     H48107   7.199   2.228  11.027 -0.3359 -0.2878  2.1057
  349MOL0     H48108   7.033   2.190  10.958 -0.7277 -0.0910 -0.8802
  349MOL0     H48109   7.086   2.269  11.242 -1.8855  3.6423 -2.3715
  349MOL0     H48110   6.944   2.190  11.191  0.1345 -2.8947  4.2858
  349MOL0     H48111   7.218   2.087  11.385 -1.3493 -1.4845  1.2675
  349MOL0     H48112   7.228   1.710  11.408 -1.6182  0.9413  1.2594
  349MOL0     H48113   7.263   1.860  11.493 -3.8212  0.9826 -1.0223
  349MOL0     H48114   7.451   1.922  11.341  2.4237 -1.1083  2.0746
  349MOL0     H48115   7.473   1.762  11.427 -1.5436  3.2953  2.8394
  349MOL0     H48116   7.419   1.786  11.130 -1.1161  0.5190  0.0875
  349MOL0     H48117   7.558   1.721  11.199  0.0121 -1.1144 -0.2541
  349MOL0     H48118   7.281   1.603  11.193  0.8283 -2.6200 -2.3017
  349MOL0     H48119   7.433   1.543  11.127  0.8567 -1.2424  0.6136
  349MOL0     H48120   7.301   1.369  11.141  1.5354 -0.2796 -1.1417
  349MOL0     H48121   7.193   1.034  11.150  4.7462 -3.2862  2.0920
  349MOL0     H48122   7.323   1.034  11.049  2.0227  0.0095  2.0125
  349MOL0     H48123   7.213   1.175  11.029  2.0200  0.0497 -0.6794
  349MOL0     H48124   7.271   0.841  11.592  2.0052  1.7161 -0.6792
  349MOL0     H48125   7.251   0.634  11.740 -0.6035 -1.0958 -1.5478
  349MOL0     H48126   7.652   0.386  11.763  0.3993  2.1486 -0.4516
  349MOL0     H48127   7.603   0.457  11.926  1.8029 -1.5742  0.9684
  349MOL0     H48128   7.581   0.215  11.945 -3.1303 -0.9637  1.3196
  349MOL0     H48129   7.417   0.254  11.889 -0.1503 -1.5878 -1.1562
  349MOL0     H48130   7.635   0.146  11.720 -0.1937 -0.3586  0.9604
  349MOL0     H48131   7.515   0.249  11.649  0.2502 -1.8422 -1.5992
  349MOL0     H48132   7.337   0.070  11.785  0.3050  0.6103  2.8863
  349MOL0     H48133   7.489  -0.019  11.797  0.3109  0.0175 -0.9186
  349MOL0     H48134   7.387   0.117  11.540  0.9069 -0.3822 -0.0538
  349MOL0     H48135   7.524   0.004  11.549  0.3728  0.5637  1.1925
  349MOL0     H48136   7.298  -0.088  11.458  1.3303 -0.3252 -0.4527
  349MOL0     H48137   7.244  -0.083  11.619 -0.8450  0.8932 -2.7686
  349MOL0     H48138   7.480  -0.197  11.680 -0.6455 -1.5019  0.2672
  349MOL0     H48139   7.465  -0.248  11.514  1.3185 -1.0987  1.5326
  349MOL0     H48140   7.389  -0.423  11.674  0.9118 -1.2860 -3.5350
  349MOL0     H48141   7.239  -0.370  11.585  0.8167  0.6448 -0.4118
  349MOL0     H48142   7.655   0.538  11.612  0.2013  1.2123 -0.5484
  349MOL0     H48143   7.644   0.715  11.457  1.7343  1.2276  1.8331
  349MOL0     H48144   7.453   1.114  11.528  2.1589 -2.7933 -2.6461
  349MOL0     H48145   7.480   1.360  11.534 -2.1343 -1.0632  0.7493
  349MOL0     H48146   7.096   2.819  10.412  0.3195  0.1521  0.3870
  349MOL0     H48147   7.115   2.948  10.209 -3.1973 -0.6690  0.2831
  349MOL0     H48148   7.187   3.471  10.116  1.0786  1.1182  0.3699
  349MOL0     H48149   7.223   3.605   9.902 -1.8524 -1.2437  2.2065
  349MOL0     H48150   7.477   3.615   9.804  0.1751  2.8103 -0.5758
  349MOL0     H48151   7.552   3.513   9.680 -0.4787 -0.1435 -0.4341
  349MOL0     H48152   7.576   3.753   9.631 -0.4071 -0.0542  0.3888
  349MOL0     H48153   7.408   3.780   9.666  0.5486  0.9463  1.2531
  349MOL0     H48154   7.526   3.602   9.433  0.0387 -0.1314  0.0351
  349MOL0     H48155   7.359   3.650   9.449  1.3591 -1.0903  0.6510
  349MOL0     H48156   7.585   3.852   9.387  0.4680 -1.5477  0.1566
  349MOL0     H48157   7.424   3.896   9.436 -0.0457 -1.0394  3.4040
  349MOL0     H48158   7.382   3.764   9.032  2.5268  1.0165 -0.2549
  349MOL0     H48159   7.374   3.258   9.707 -0.4831 -1.7906  0.7138
  349MOL0     H48160   7.423   3.050   9.983 -0.2074  1.6522  1.0198
  349MOL0     H48161   7.250   3.035   9.940  0.2369 -1.5622 -0.3840
  349MOL0     H48162   7.361   3.050   9.811  1.0313 -1.5787  1.1969
  350MOL0     O48163   0.916   2.090   4.338 -0.0682 -0.2759  0.6273
  350MOL0     C48164   0.796   2.087   4.325 -0.1379 -0.7936  0.4047
  350MOL0     O48165   0.709   2.058   4.427 -0.5370 -0.4927 -0.6902
  350MOL0     C48166   0.743   2.026   4.561 -0.2634  0.1242  0.7669
  350MOL0     C48167   0.872   2.031   4.623 -0.2085 -0.3249  0.0551
  350MOL0     C48168   0.879   2.023   4.765 -0.6557 -0.5795 -0.6535
  350MOL0     C48169   0.777   1.984   4.845  0.1459 -1.1432  0.2354
  350MOL0     O48170   0.816   1.966   4.978 -0.3196  0.7521  0.7994
  350MOL0     C48171   0.734   2.036   5.080  0.8630 -0.3713  0.5130
  350MOL0     C48172   0.774   2.013   5.223 -0.5438 -0.0630 -0.3854
  350MOL0     C48173   0.912   2.069   5.253  0.6447 -0.4839  0.6434
  350MOL0     C48174   0.949   2.060   5.395 -0.0086 -0.2960  0.1613
  350MOL0     C48175   1.015   1.927   5.434  0.5005  0.2662  0.5306
  350MOL0     C48176   1.053   1.910   5.581 -1.1429  0.1549  0.3979
  350MOL0     C48177   1.149   2.022   5.628  0.0738  0.5070  0.2847
  350MOL0     C48178   1.217   1.981   5.771  0.8988 -0.5807  0.5053
  350MOL0     N48179   1.115   1.946   5.876 -0.3361  0.2613 -0.1375
  350MOL0     C48180   1.028   2.040   5.916 -1.3271  0.0783  0.2346
  350MOL0     C48181   0.931   1.970   5.973  0.4302 -0.0142  0.3717
  350MOL0     C48182   0.814   2.022   6.044  0.6454  0.0233 -0.2075
  350MOL0     C48183   0.693   2.025   5.946  0.1114  1.0087 -0.6882
  350MOL0     C48184   0.553   2.053   6.018 -0.0716 -0.4537  1.1150
  350MOL0     C48185   0.576   2.159   6.133  0.0369  0.2035  1.5253
  350MOL0     O48186   0.457   2.168   6.216  0.0141 -0.6234  0.2183
  350MOL0     C48187   0.434   2.269   6.309 -1.0552 -0.9666  0.1107
  350MOL0     C48188   0.495   2.397   6.321  0.3508 -0.4415  0.3742
  350MOL0     C48189   0.472   2.478   6.426  0.4573 -1.3538 -1.1589
  350MOL0     C48190   0.537   2.614   6.415 -0.6087 -0.3021 -1.0537
  350MOL0     C48191   0.395   2.438   6.530 -0.0592 -0.2329  0.2351
  350MOL0     C48192   0.359   2.532   6.652  1.0592  0.2955 -0.4876
  350MOL0     O48193   0.409   2.659   6.673  0.1068 -0.4896  0.3866
  350MOL0     C48194   0.393   2.699   6.804  0.0546 -0.1506 -0.4737
  350MOL0     C48195   0.330   2.814   6.837  0.4672 -0.0154 -0.2005
  350MOL0     C48196   0.322   2.865   6.966  0.5915 -0.1774  0.4272
  350MOL0     C48197   0.382   2.799   7.080  0.4203  1.0300  1.1046
  350MOL0     O48198   0.383   2.839   7.211  0.1416 -0.2550 -0.2221
  350MOL0     C48199   0.297   2.942   7.254  0.3887 -0.7660  0.2520
  350MOL0     C48200   0.260   2.929   7.403 -0.9794 -0.2549 -0.0342
  350MOL0     C48201   0.162   3.040   7.435  0.3661  0.1444  0.4177
  350MOL0     C48202   0.111   3.041   7.578 -0.4993 -0.0406  0.1949
  350MOL0     C48203  -0.017   3.126   7.592  0.7579  0.4986  0.5494
  350MOL0     C48204  -0.091   3.107   7.718  0.8610  1.0722 -0.0483
  350MOL0     C48205  -0.233   3.163   7.712  0.2623  0.0289 -0.1746
  350MOL0     C48206  -0.315   3.137   7.848  0.9546  0.7247 -0.9444
  350MOL0    Cl48207  -0.364   2.957   7.843 -0.1459 -0.5910  0.2860
  350MOL0     C48208   0.458   2.680   7.041  0.4536 -0.5778  0.2328
  350MOL0     C48209   0.467   2.642   6.912 -0.6321 -0.2810 -0.5475
  350MOL0     O48210   0.268   2.482   6.718 -0.3392 -0.3370 -0.8606
  350MOL0     C48211   0.337   2.313   6.525 -0.1063 -1.2598 -0.2108
  350MOL0     C48212   0.364   2.227   6.422  1.0096  0.0292  0.8005
  350MOL0     N48213   0.957   1.840   5.985 -0.6033  0.5395 -0.2223
  350MOL0     N48214   1.072   1.824   5.924  0.3711  0.1986 -0.1529
  350MOL0     C48215   0.647   1.967   4.789  0.5172 -0.2700  0.1499
  350MOL0     C48216   0.638   1.998   4.653  0.3625  0.8701  0.7652
  350MOL0     C48217   0.736   2.129   4.189  0.9478  0.2399  0.1137
  350MOL0     C48218   0.813   2.111   4.075  0.0648 -0.0187  0.5271
  350MOL0     C48219   0.769   2.144   3.951  0.1971  0.2776  0.0229
  350MOL0     C48220   0.642   2.209   3.931  0.1439  0.7473  1.1212
  350MOL0     O48221   0.583   2.246   3.812 -0.6000 -0.0779  0.3266
  350MOL0     C48222   0.654   2.248   3.689 -0.8530  0.5536 -0.4054
  350MOL0     C48223   0.579   2.319   3.588  0.9571  0.7892 -0.2071
  350MOL0     C48224   0.620   2.472   3.587 -0.1415 -0.0112  0.5986
  350MOL0     C48225   0.750   2.516   3.528 -0.9299 -0.5156 -0.3385
  350MOL0     C48226   0.750   2.450   3.396 -0.0291  0.1339 -0.8034
  350MOL0     C48227   0.750   2.395   3.290 -0.1735  0.2243  0.1642
  350MOL0     C48228   0.565   2.228   4.042 -0.6392  0.5969 -0.1538
  350MOL0     C48229   0.623   2.201   4.166  0.4984 -0.3019 -0.3043
  350MOL0     C48230   0.529   2.243   4.277  0.1736 -0.1380  0.3153
  350MOL0     H48231   0.970   2.050   4.580  0.8426 -3.3823  0.8874
  350MOL0     H48232   0.967   2.050   4.822 -0.6435 -0.9250 -0.5065
  350MOL0     H48233   0.629   2.006   5.076  1.0271 -0.9088  0.2141
  350MOL0     H48234   0.739   2.143   5.055 -1.9490  1.1983  5.4093
  350MOL0     H48235   0.692   2.067   5.272 -1.7982 -3.1694  1.1960
  350MOL0     H48236   0.765   1.908   5.252 -1.0137 -0.1368 -0.7899
  350MOL0     H48237   0.978   2.013   5.187  0.3016  1.2454 -1.2766
  350MOL0     H48238   0.904   2.167   5.204 -3.6469 -2.0395 -2.4321
  350MOL0     H48239   1.019   2.141   5.417 -1.7690  1.1521  0.7136
  350MOL0     H48240   0.864   2.075   5.463  0.2002  2.2049 -0.0202
  350MOL0     H48241   1.109   1.916   5.378 -0.0017  1.5780 -0.6041
  350MOL0     H48242   0.955   1.839   5.410  1.7604 -0.6180  0.4665
  350MOL0     H48243   0.958   1.914   5.634  0.3575  3.9147  3.3077
  350MOL0     H48244   1.114   1.821   5.601  3.6727  2.5844 -1.6232
  350MOL0     H48245   1.092   2.114   5.644 -0.4461  0.2044  0.2304
  350MOL0     H48246   1.230   2.045   5.559  2.2129 -1.0976  2.0947
  350MOL0     H48247   1.276   1.889   5.763 -1.8810 -2.4023 -0.3248
  350MOL0     H48248   1.286   2.058   5.807  0.3979 -1.1798  2.8720
  350MOL0     H48249   1.046   2.147   5.916  0.7946 -0.2319  0.0573
  350MOL0     H48250   0.830   2.119   6.094 -2.1193 -0.6351  2.2481
  350MOL0     H48251   0.784   1.964   6.132  3.1481  1.1908  1.5518
  350MOL0     H48252   0.706   2.104   5.872 -1.8053  3.3237  1.3126
  350MOL0     H48253   0.687   1.921   5.912 -1.6644 -0.3974  3.3914
  350MOL0     H48254   0.485   2.088   5.940 -0.1371 -1.6106  0.6423
  350MOL0     H48255   0.530   1.957   6.065  0.6579 -0.4944  1.4145
  350MOL0     H48256   0.644   2.116   6.207  0.6939  0.4257  1.0559
  350MOL0     H48257   0.603   2.256   6.092 -2.1252  1.3289  2.5646
  350MOL0     H48258   0.565   2.424   6.243 -0.7319 -1.2874 -0.9303
  350MOL0     H48259   0.635   2.620   6.463 -1.2727  0.3333  0.2872
  350MOL0     H48260   0.462   2.685   6.451 -2.8308 -1.5022 -3.0673
  350MOL0     H48261   0.536   2.631   6.307 -1.2744 -2.7020 -1.4769
  350MOL0     H48262   0.284   2.864   6.752  0.2047 -1.4420 -0.9260
  350MOL0     H48263   0.260   2.953   6.980 -1.4150 -1.4435 -0.0233
  350MOL0     H48264   0.341   3.042   7.242 -0.9322 -0.1924 -0.0590
  350MOL0     H48265   0.204   2.937   7.197 -0.3859 -0.0646  1.4112
  350MOL0     H48266   0.216   2.829   7.404  0.4660 -0.9184  1.0344
  350MOL0     H48267   0.345   2.924   7.471 -1.5760 -3.1378  0.6380
  350MOL0     H48268   0.078   3.032   7.365  1.5526  1.1173 -1.2040
  350MOL0     H48269   0.219   3.133   7.423  1.0616 -0.2865  0.3011
  350MOL0     H48270   0.189   3.076   7.647 -0.2579 -0.9095  0.3766
  350MOL0     H48271   0.089   2.937   7.601  3.6063 -0.8922  1.1646
  350MOL0     H48272   0.026   3.225   7.573  1.2588  0.3304  0.7937
  350MOL0     H48273  -0.081   3.099   7.508  3.4903 -4.5774 -0.3586
  350MOL0     H48274  -0.039   3.159   7.798  0.9634  0.6204  0.1797
  350MOL0     H48275  -0.104   3.000   7.738 -1.9078  1.4320  0.5019
  350MOL0     H48276  -0.299   3.121   7.636  0.0834 -1.9600  1.0139
  350MOL0     H48277  -0.228   3.271   7.695 -1.1947  0.4487  1.7244
  350MOL0     H48278  -0.402   3.203   7.853 -0.8916 -1.5887 -0.1701
  350MOL0     H48279  -0.258   3.150   7.941 -1.7424  2.1701  0.6370
  350MOL0     H48280   0.517   2.626   7.114  3.3064  1.6104 -0.3030
  350MOL0     H48281   0.528   2.555   6.890 -2.8045 -2.5246  1.5449
  350MOL0     H48282   0.275   2.284   6.609 -0.4884  3.0352  1.2706
  350MOL0     H48283   0.328   2.124   6.425  0.8811 -0.2449 -3.5807
  350MOL0     H48284   0.562   1.956   4.856  2.1788 -1.7663  2.1540
  350MOL0     H48285   0.542   1.991   4.603  1.4638 -0.3530 -1.3117
  350MOL0     H48286   0.909   2.062   4.089  0.1375 -0.2257 -0.5977
  350MOL0     H48287   0.828   2.119   3.863 -1.1883 -2.6370 -0.1879
  350MOL0     H48288   0.749   2.298   3.706  0.2250 -1.6393  0.3970
  350MOL0     H48289   0.684   2.146   3.662 -1.0031  0.6195 -0.8339
  350MOL0     H48290   0.476   2.300   3.617  1.4776 -1.3404  0.4456
  350MOL0     H48291   0.591   2.263   3.495  0.0404  0.2363  0.0047
  350MOL0     H48292   0.543   2.525   3.531 -0.9398 -2.3587 -0.6606
  350MOL0     H48293   0.605   2.511   3.688  0.4596 -1.9292  1.4684
  350MOL0     H48294   0.841   2.477   3.575 -1.5504 -1.8085 -0.1455
  350MOL0     H48295   0.767   2.623   3.519  0.6681 -0.2970  3.4732
  350MOL0     H48296   0.761   2.361   3.189  1.5328  0.3537  0.2759
  350MOL0     H48297   0.465   2.265   4.023 -0.1653  2.7589  1.1444
  350MOL0     H48298   0.477   2.338   4.263 -1.5932 -1.4449 -3.0237
  350MOL0     H48299   0.448   2.170   4.269  1.8061 -1.9683 -0.3064
  350MOL0     H48300   0.570   2.251   4.378 -3.5185  0.7514  1.9177
  351MOL0     O48301   3.199   5.838   0.658 -0.5740 -0.1357  0.1076
  351MOL0     C48302   3.319   5.833   0.685 -0.6198  0.5966 -0.2350
  351MOL0     O48303   3.384   5.929   0.758 -0.3983  0.1624  0.0531
  351MOL0     C48304   3.314   6.035   0.808 -0.3626  0.5585  0.5998
  351MOL0     C48305   3.374   6.089   0.920 -0.5057 -0.0258 -0.2010
  351MOL0     C48306   3.310   6.195   0.986  0.2787  1.0387 -0.3324
  351MOL0     C48307   3.201   6.264   0.930 -0.5069  0.2570 -0.0209
  351MOL0     O48308   3.140   6.361   1.007  0.1203 -0.0968  0.0638
  351MOL0     C48309   3.155   6.489   0.943  0.4983  0.1585  1.0140
  351MOL0     C48310   3.291   6.523   0.895  0.5241 -0.2232  0.2676
  351MOL0     C48311   3.337   6.669   0.906  0.4617  0.3783  0.0017
  351MOL0     C48312   3.477   6.684   0.848 -0.0274  0.2717  0.5045
  351MOL0     C48313   3.516   6.833   0.827  0.4552  0.2124 -0.2765
  351MOL0     C48314   3.556   6.893   0.961 -0.2766 -0.3358  0.2970
  351MOL0     C48315   3.600   7.041   0.942  1.0212 -0.7756  0.0671
  351MOL0     C48316   3.625   7.096   1.076 -0.4783 -0.1241 -0.0400
  351MOL0     N48317   3.675   7.232   1.064  0.1062  0.5755  0.0913
  351MOL0     C48318   3.621   7.342   1.009  1.0283  0.1477 -0.1444
  351MOL0     C48319   3.711   7.435   1.035 -0.1846  0.2243 -0.2394
  351MOL0     C48320   3.683   7.577   1.003 -0.7546 -0.6143 -0.1312
  351MOL0     C48321   3.579   7.651   1.084  0.0015 -0.6198  0.6486
  351MOL0     C48322   3.600   7.661   1.234  1.1889  0.6093 -0.5387
  351MOL0     C48323   3.710   7.754   1.274  0.0386  0.0631 -0.6163
  351MOL0     O48324   3.667   7.877   1.230  0.1951 -0.1664  0.0748
  351MOL0     C48325   3.687   8.005   1.287  0.8910 -0.3345  0.5369
  351MOL0     C48326   3.748   8.030   1.408  0.1671 -0.3790 -0.3939
  351MOL0     C48327   3.760   8.154   1.477  0.3435 -0.7834 -0.2147
  351MOL0     C48328   3.837   8.166   1.603  0.2083  0.8314 -0.7166
  351MOL0     C48329   3.699   8.265   1.417  0.0001 -0.2743  0.7396
  351MOL0     C48330   3.707   8.407   1.458 -0.6625 -0.0652 -0.6024
  351MOL0     O48331   3.819   8.435   1.532  0.4146  0.0563  0.1390
  351MOL0     C48332   3.834   8.557   1.580  0.9142 -0.5521  0.8350
  351MOL0     C48333   3.761   8.602   1.693  0.1049  0.0867 -0.0604
  351MOL0     C48334   3.807   8.727   1.730  0.7237  0.9793  0.0506
  351MOL0     C48335   3.899   8.807   1.659  0.5869  0.3169  0.2455
  351MOL0     O48336   3.936   8.933   1.696 -0.6056  0.2512 -0.2786
  351MOL0     C48337   3.868   8.995   1.806  0.2622 -0.2214  0.4326
  351MOL0     C48338   3.727   9.054   1.768  0.2176  0.5292  0.1921
  351MOL0     C48339   3.647   9.103   1.893 -0.1720 -0.3331 -0.1019
  351MOL0     C48340   3.512   9.165   1.848  0.5099  0.4575  0.2930
  351MOL0     C48341   3.459   9.266   1.947 -0.6633  0.0708  0.0717
  351MOL0     C48342   3.530   9.403   1.978 -0.8603 -0.2022 -0.2713
  351MOL0     C48343   3.472   9.465   2.101  0.4102 -0.4440 -0.5051
  351MOL0     C48344   3.531   9.608   2.120 -1.0106 -0.0631  0.3323
  351MOL0    Cl48345   3.691   9.606   2.200  0.0197 -0.0087  0.1589
  351MOL0     C48346   3.960   8.763   1.540  0.5204 -0.8524 -0.0689
  351MOL0     C48347   3.935   8.630   1.501  0.0985 -0.0207 -0.1667
  351MOL0     O48348   3.622   8.485   1.438  0.0492 -0.4426  0.7923
  351MOL0     C48349   3.628   8.238   1.294 -0.1713  0.6426  0.2272
  351MOL0     C48350   3.626   8.112   1.228 -0.3373  0.5429  0.0194
  351MOL0     N48351   3.826   7.383   1.093 -0.0108 -0.1550 -0.2002
  351MOL0     N48352   3.803   7.257   1.106  0.4699  0.2696 -0.4388
  351MOL0     C48353   3.157   6.217   0.802 -0.6137 -0.3713  0.3493
  351MOL0     C48354   3.214   6.110   0.740 -0.2036 -0.1068 -0.4425
  351MOL0     C48355   3.398   5.721   0.623 -1.2251 -0.2373  0.4874
  351MOL0     C48356   3.333   5.603   0.585 -0.7890 -0.1917 -0.0931
  351MOL0     C48357   3.405   5.503   0.515 -0.7655  0.7827 -1.1274
  351MOL0     C48358   3.549   5.507   0.485 -0.3015 -0.0010 -0.2615
  351MOL0     O48359   3.628   5.409   0.427  0.5607 -0.2262 -0.4502
  351MOL0     C48360   3.556   5.310   0.338 -0.2575  0.3388  0.1146
  351MOL0     C48361   3.470   5.373   0.225 -0.3894 -0.1597  0.1276
  351MOL0     C48362   3.399   5.278   0.136 -0.2438 -0.0327 -0.4325
  351MOL0     C48363   3.487   5.235   0.021 -0.7153  0.1815  0.3926
  351MOL0     C48364   3.583   5.126   0.050  0.2184 -0.1816 -1.0353
  351MOL0     C48365   3.675   5.046   0.072  0.4805  0.3268  0.0226
  351MOL0     C48366   3.610   5.622   0.529  0.3250 -1.3037  0.4240
  351MOL0     C48367   3.542   5.726   0.604  1.0944  0.6018 -0.6455
  351MOL0     C48368   3.622   5.836   0.666  0.2661 -0.7289  0.5678
  351MOL0     H48369   3.456   6.030   0.959 -0.3229  0.1023 -0.3881
  351MOL0     H48370   3.330   6.233   1.085 -1.7737 -1.4385  1.1839
  351MOL0     H48371   3.125   6.577   1.000 -0.9785  1.1975 -1.2131
  351MOL0     H48372   3.083   6.484   0.861  2.9605 -3.4222 -1.2403
  351MOL0     H48373   3.364   6.457   0.944 -1.5544 -1.8055  1.3826
  351MOL0     H48374   3.306   6.496   0.790  0.6407  3.2029 -0.7159
  351MOL0     H48375   3.258   6.721   0.853  1.7432  0.3333 -2.0550
  351MOL0     H48376   3.340   6.701   1.011  1.9755  0.0514  0.0933
  351MOL0     H48377   3.546   6.635   0.918 -2.8246  0.0483  3.3255
  351MOL0     H48378   3.487   6.641   0.748 -1.3819 -4.0239  2.0268
  351MOL0     H48379   3.434   6.883   0.774  0.7022 -1.2495 -2.1376
  351MOL0     H48380   3.604   6.834   0.763  0.1314 -2.2884 -0.8374
  351MOL0     H48381   3.466   6.893   1.023  0.5053  0.1848  1.4573
  351MOL0     H48382   3.640   6.836   1.002 -2.1758 -2.8359  0.9964
  351MOL0     H48383   3.519   7.096   0.894  0.1847 -1.4709  0.6393
  351MOL0     H48384   3.686   7.049   0.875 -1.3668  3.3703 -2.9183
  351MOL0     H48385   3.534   7.108   1.135  0.0787  1.1507  0.6025
  351MOL0     H48386   3.704   7.046   1.133  1.6737  1.1997 -1.6829
  351MOL0     H48387   3.527   7.341   0.954  1.3207 -0.1573 -0.6466
  351MOL0     H48388   3.664   7.588   0.896  2.7643  1.9664 -0.6664
  351MOL0     H48389   3.775   7.636   1.015 -2.5510  2.1063  1.1116
  351MOL0     H48390   3.567   7.754   1.052  2.2128 -0.2749  0.7568
  351MOL0     H48391   3.499   7.589   1.043 -1.0828  0.8781  0.4184
  351MOL0     H48392   3.512   7.717   1.270  3.3559  2.2286  2.7427
  351MOL0     H48393   3.604   7.559   1.274 -0.9942 -0.5394 -2.9021
  351MOL0     H48394   3.716   7.763   1.383 -2.6017  0.1009 -0.3934
  351MOL0     H48395   3.799   7.725   1.218 -0.3710 -3.4228  0.3399
  351MOL0     H48396   3.810   7.950   1.447  0.9645  0.3055 -0.2400
  351MOL0     H48397   3.877   8.069   1.633  0.7237  1.4151  0.5423
  351MOL0     H48398   3.780   8.211   1.685 -2.1473 -0.9577 -1.2477
  351MOL0     H48399   3.925   8.228   1.584 -0.1377  2.0012  1.1775
  351MOL0     H48400   3.692   8.542   1.753  0.0758  0.0494 -0.1303
  351MOL0     H48401   3.767   8.740   1.830 -1.5690 -2.1005 -0.3064
  351MOL0     H48402   3.859   8.930   1.893  1.8932  0.6699  1.3025
  351MOL0     H48403   3.920   9.087   1.833 -1.8714  1.6907 -1.5497
  351MOL0     H48404   3.749   9.139   1.703 -0.3594  1.5157  1.2542
  351MOL0     H48405   3.675   8.979   1.707 -0.7494  2.2526 -1.2100
  351MOL0     H48406   3.705   9.174   1.952 -3.6935  1.2824  1.7290
  351MOL0     H48407   3.633   9.015   1.956  0.0830 -2.2726 -2.5884
  351MOL0     H48408   3.438   9.085   1.851  0.2945  0.6837  1.5818
  351MOL0     H48409   3.519   9.215   1.750  0.8180 -1.6408 -0.8165
  351MOL0     H48410   3.357   9.290   1.917 -0.2794  0.2543 -1.1355
  351MOL0     H48411   3.462   9.205   2.038  1.0580 -2.0730 -1.3124
  351MOL0     H48412   3.511   9.476   1.899 -0.4626 -0.3207 -0.4789
  351MOL0     H48413   3.637   9.386   1.990 -0.6459  1.4568  0.4291
  351MOL0     H48414   3.479   9.398   2.188  1.1339  2.3515  1.7189
  351MOL0     H48415   3.369   9.495   2.082  0.5263  2.4578  2.5275
  351MOL0     H48416   3.465   9.670   2.181 -1.3013  0.5059 -0.5445
  351MOL0     H48417   3.550   9.660   2.026  1.1979  0.0329  0.7707
  351MOL0     H48418   4.034   8.824   1.489 -0.5259  0.7812  0.3055
  351MOL0     H48419   3.996   8.594   1.419 -0.1475 -0.6639 -0.0721
  351MOL0     H48420   3.591   8.323   1.238 -1.8298  0.7391  1.3965
  351MOL0     H48421   3.579   8.109   1.130 -1.6619  1.9536  0.5805
  351MOL0     H48422   3.070   6.265   0.758  0.6997  0.7331 -1.1531
  351MOL0     H48423   3.166   6.067   0.653  1.3435 -4.8199  0.6998
  351MOL0     H48424   3.229   5.586   0.608 -1.0517  2.5960  1.2350
  351MOL0     H48425   3.361   5.407   0.488  2.2813 -0.6269 -1.5435
  351MOL0     H48426   3.634   5.255   0.285 -1.1506  0.5532 -1.4954
  351MOL0     H48427   3.501   5.237   0.399  2.0513 -0.7608  0.9743
  351MOL0     H48428   3.531   5.434   0.159 -0.1351  1.1768  1.5591
  351MOL0     H48429   3.392   5.441   0.261  0.2745  1.9103 -2.0805
  351MOL0     H48430   3.342   5.202   0.190  0.1243  1.1471  1.7242
  351MOL0     H48431   3.324   5.340   0.086 -1.4798 -1.0525  0.0955
  351MOL0     H48432   3.529   5.325  -0.023 -1.6252  1.1118  1.3647
  351MOL0     H48433   3.423   5.198  -0.060 -0.5460 -1.4560  0.9502
  351MOL0     H48434   3.761   4.984   0.091  1.4280  0.6590 -2.6970
  351MOL0     H48435   3.712   5.640   0.498  0.2598 -0.4512  0.6816
  351MOL0     H48436   3.610   5.933   0.617  0.1704  0.5816  2.9998
  351MOL0     H48437   3.613   5.838   0.775 -1.4064  0.6716  0.4359
  351MOL0     H48438   3.731   5.825   0.659  0.2250 -1.8041  1.3280
  352MOL0     O48439   6.080   2.492   2.782  0.0005  0.2628 -0.4547
  352MOL0     C48440   6.160   2.472   2.875  0.1920  0.7904  0.7726
  352MOL0     O48441   6.137   2.491   3.017 -0.0534 -0.4659  0.3636
  352MOL0     C48442   6.060   2.595   3.061 -0.0311  0.5079 -0.3546
  352MOL0     C48443   6.011   2.579   3.189  0.3346 -0.2552  0.1471
  352MOL0     C48444   5.940   2.686   3.245  0.1851 -0.0624 -0.7623
  352MOL0     C48445   5.889   2.790   3.162 -0.1095 -0.4896 -0.1534
  352MOL0     O48446   5.791   2.864   3.225 -0.3661  0.1020 -0.7111
  352MOL0     C48447   5.794   3.004   3.220 -0.5146 -0.4273 -0.4910
  352MOL0     C48448   5.854   3.056   3.356 -0.1409  0.1670 -0.5145
  352MOL0     C48449   5.763   3.161   3.427 -0.2138 -0.2883 -0.6706
  352MOL0     C48450   5.641   3.095   3.471  0.6762  0.6579  0.1687
  352MOL0     C48451   5.555   3.183   3.562  0.2361  0.0130 -0.5288
  352MOL0     C48452   5.444   3.106   3.636 -0.4071  0.4391  0.0869
  352MOL0     C48453   5.351   3.198   3.714 -0.4399 -0.1906 -0.5088
  352MOL0     C48454   5.247   3.125   3.797  0.3599 -0.1736  0.3698
  352MOL0     N48455   5.163   3.227   3.868  0.0491  0.0797 -0.5609
  352MOL0     C48456   5.035   3.274   3.839 -0.9707 -0.8025 -0.8399
  352MOL0     C48457   5.003   3.346   3.950  0.8533  0.1419  0.8734
  352MOL0     C48458   4.887   3.433   3.974 -0.2297  0.6201  0.4254
  352MOL0     C48459   4.894   3.554   3.878  0.8977  0.8649 -0.8305
  352MOL0     C48460   5.027   3.638   3.917 -0.3528  0.1158  0.2378
  352MOL0     C48461   5.014   3.784   3.863  0.1931  0.8584  0.1348
  352MOL0     O48462   5.020   3.782   3.714  0.0308 -0.0115  0.2973
  352MOL0     C48463   5.002   3.899   3.643 -0.6493 -0.4211 -0.1886
  352MOL0     C48464   5.044   3.898   3.506  0.2718  0.8087 -0.5029
  352MOL0     C48465   5.032   4.008   3.423 -0.2148 -0.2075  0.7759
  352MOL0     C48466   5.094   3.999   3.287 -0.4139  0.8090  0.0486
  352MOL0     C48467   4.982   4.130   3.472 -0.1986  0.0845 -1.2885
  352MOL0     C48468   4.969   4.251   3.393 -0.7226  0.0244 -0.6513
  352MOL0     O48469   4.981   4.372   3.468 -0.5494  0.4470  0.3651
  352MOL0     C48470   4.962   4.486   3.392  0.3383  0.0576 -0.0094
  352MOL0     C48471   5.067   4.568   3.364  1.0387  0.2902  1.2312
  352MOL0     C48472   5.045   4.678   3.286 -0.5696 -1.2192 -0.2354
  352MOL0     C48473   4.920   4.709   3.228  0.4839  0.0370  0.5380
  352MOL0     O48474   4.887   4.824   3.156 -0.3786  0.2823  0.4519
  352MOL0     C48475   4.867   4.932   3.245  0.3007 -0.5616 -0.1620
  352MOL0     C48476   4.825   5.042   3.144 -1.0540  0.2240 -0.9142
  352MOL0     C48477   4.827   5.189   3.196 -0.1763 -0.1608  0.0861
  352MOL0     C48478   4.765   5.288   3.100 -1.8040 -0.3476 -0.2312
  352MOL0     C48479   4.772   5.428   3.157  1.0051 -0.0040 -0.5657
  352MOL0     C48480   4.912   5.486   3.177 -0.6116 -0.9157  0.0152
  352MOL0     C48481   5.016   5.467   3.065  0.4365  0.2838  0.3246
  352MOL0     C48482   5.142   5.547   3.065  0.3059  0.3169 -0.8466
  352MOL0    Cl48483   5.241   5.517   3.220 -0.1474 -0.0115  0.3161
  352MOL0     C48484   4.811   4.625   3.260  0.2135 -0.0112 -0.4975
  352MOL0     C48485   4.831   4.511   3.348  0.1214  0.3695 -0.4545
  352MOL0     O48486   4.954   4.244   3.271  0.3015 -0.0903  0.3837
  352MOL0     C48487   4.950   4.132   3.609  0.2797  0.6576  0.0156
  352MOL0     C48488   4.962   4.022   3.695 -0.2694  0.9095 -0.6888
  352MOL0     N48489   5.107   3.322   4.041  0.2234 -0.1480  0.0290
  352MOL0     N48490   5.199   3.253   3.993  0.4162 -0.0681 -0.4976
  352MOL0     C48491   5.940   2.800   3.030  0.5819 -0.3399 -0.7168
  352MOL0     C48492   6.027   2.705   2.982 -0.5800  0.0302  0.2309
  352MOL0     C48493   6.287   2.393   2.849  0.2639  0.0578  0.1339
  352MOL0     C48494   6.285   2.310   2.737 -0.5129  0.2406 -0.5341
  352MOL0     C48495   6.388   2.222   2.712  0.1134  0.2658 -0.3090
  352MOL0     C48496   6.490   2.210   2.803  0.4319 -0.1974 -0.3605
  352MOL0     O48497   6.595   2.135   2.792 -0.4474  0.2016  0.0268
  352MOL0     C48498   6.607   2.034   2.690 -0.1881  0.1889  0.7225
  352MOL0     C48499   6.740   1.960   2.717 -0.5646 -0.5186 -0.8249
  352MOL0     C48500   6.744   1.838   2.623 -0.3160  0.4659  0.1537
  352MOL0     C48501   6.871   1.747   2.642 -0.5719  0.6593 -0.3528
  352MOL0     C48502   6.860   1.659   2.766 -0.6455 -0.3804 -0.5802
  352MOL0     C48503   6.861   1.608   2.870  0.0332  0.1743  0.3045
  352MOL0     C48504   6.487   2.287   2.919  0.4304  1.1322  0.6092
  352MOL0     C48505   6.390   2.385   2.940  0.0121 -0.1089 -0.2487
  352MOL0     C48506   6.428   2.486   3.039 -0.7246  0.6000  0.1484
  352MOL0     H48507   6.017   2.486   3.245 -0.5518 -1.7469 -2.0504
  352MOL0     H48508   5.910   2.676   3.349 -5.2162 -3.0628 -2.2206
  352MOL0     H48509   5.690   3.038   3.215  0.4224  3.1408  1.0122
  352MOL0     H48510   5.853   3.043   3.137 -1.2692 -1.5256 -1.5684
  352MOL0     H48511   5.859   2.970   3.424  2.8671  0.9762  0.4315
  352MOL0     H48512   5.957   3.090   3.340  0.2202 -2.1113 -4.2719
  352MOL0     H48513   5.820   3.193   3.514 -2.0650 -4.5870  2.4609
  352MOL0     H48514   5.746   3.255   3.373  1.7371  1.2873  1.3073
  352MOL0     H48515   5.582   3.071   3.382  0.7012  1.7327 -0.1393
  352MOL0     H48516   5.653   2.994   3.512 -1.2224 -0.6350 -2.1923
  352MOL0     H48517   5.509   3.270   3.514 -0.7351  1.1198  2.2159
  352MOL0     H48518   5.624   3.222   3.637 -1.6429 -1.0815  1.9027
  352MOL0     H48519   5.388   3.062   3.552  1.0783 -2.0651  0.3044
  352MOL0     H48520   5.481   3.032   3.708  1.5144  1.1188 -0.1564
  352MOL0     H48521   5.305   3.272   3.648  2.8861  0.0102 -2.8992
  352MOL0     H48522   5.406   3.259   3.786 -2.0563  0.6802  0.0328
  352MOL0     H48523   5.184   3.078   3.721  1.3044 -1.0656  0.1242
  352MOL0     H48524   5.295   3.049   3.858 -2.3860 -0.3413  2.5129
  352MOL0     H48525   4.990   3.262   3.741  2.6315 -3.3146 -2.4164
  352MOL0     H48526   4.881   3.463   4.079 -0.6190  3.7637 -0.3824
  352MOL0     H48527   4.792   3.382   3.955  0.2761  0.2645 -1.3138
  352MOL0     H48528   4.877   3.536   3.771 -0.7094  0.6529 -0.5616
  352MOL0     H48529   4.803   3.611   3.899 -0.5646 -1.0759 -1.5767
  352MOL0     H48530   5.029   3.643   4.026 -1.6118  2.8890  0.2364
  352MOL0     H48531   5.118   3.590   3.880  0.9146  2.4489  0.0849
  352MOL0     H48532   4.917   3.813   3.904 -0.5467 -2.8125  1.2575
  352MOL0     H48533   5.098   3.849   3.890  2.3213 -2.1463  1.2303
  352MOL0     H48534   5.066   3.801   3.462  0.7907  0.9496 -0.5545
  352MOL0     H48535   5.160   3.912   3.277  1.0784  1.9038 -0.0540
  352MOL0     H48536   5.160   4.083   3.261  1.3740 -0.0086  1.6704
  352MOL0     H48537   5.021   3.985   3.206  0.9631 -1.7702 -0.8859
  352MOL0     H48538   5.164   4.543   3.408  1.3894 -1.2532 -0.3275
  352MOL0     H48539   5.125   4.750   3.278 -0.7818 -0.8299  0.9246
  352MOL0     H48540   4.793   4.907   3.322  0.2706  0.8477  0.2946
  352MOL0     H48541   4.955   4.973   3.295  1.3647 -3.9329  1.0453
  352MOL0     H48542   4.894   5.034   3.060 -1.7171  0.4271 -1.4897
  352MOL0     H48543   4.721   5.018   3.118 -1.8838 -1.9192  3.4114
  352MOL0     H48544   4.931   5.218   3.212  0.2665 -0.5356 -1.8835
  352MOL0     H48545   4.771   5.193   3.290 -1.0789 -0.4313 -0.4228
  352MOL0     H48546   4.660   5.258   3.091 -1.0602 -3.9034  1.4769
  352MOL0     H48547   4.818   5.282   3.004 -0.8836  2.9326 -0.0373
  352MOL0     H48548   4.724   5.493   3.084  0.3387  1.6612  1.2775
  352MOL0     H48549   4.717   5.440   3.251  0.9806  0.9391 -0.6909
  352MOL0     H48550   4.977   5.447   3.257 -0.1722 -0.7041 -0.2359
  352MOL0     H48551   4.909   5.592   3.205  2.1294 -0.9428  0.6542
  352MOL0     H48552   4.981   5.485   2.963  2.6881  1.6316 -0.2908
  352MOL0     H48553   5.049   5.363   3.057 -1.5308 -0.3160 -0.6479
  352MOL0     H48554   5.123   5.654   3.054 -1.0607  0.4426  1.8072
  352MOL0     H48555   5.202   5.511   2.982  0.8523  1.1277 -0.8138
  352MOL0     H48556   4.708   4.640   3.232  1.0131  1.8431 -2.7632
  352MOL0     H48557   4.747   4.446   3.366 -0.4045  1.2609  0.4505
  352MOL0     H48558   4.906   4.221   3.651 -0.2565  1.3345 -1.8932
  352MOL0     H48559   4.931   4.023   3.800  1.0792  0.2597 -0.2684
  352MOL0     H48560   5.901   2.879   2.967  0.4544 -0.7311 -1.1346
  352MOL0     H48561   6.085   2.719   2.891 -0.1799 -3.3214 -0.1722
  352MOL0     H48562   6.215   2.316   2.654  0.9538 -0.7469 -1.9134
  352MOL0     H48563   6.385   2.176   2.614 -0.0992 -2.0045  0.7004
  352MOL0     H48564   6.527   1.959   2.687  1.1341 -1.2363 -0.7361
  352MOL0     H48565   6.618   2.071   2.588 -1.7593  1.0576  0.8282
  352MOL0     H48566   6.741   1.928   2.821 -4.9172 -1.2143 -0.7883
  352MOL0     H48567   6.833   2.014   2.698  0.6497 -2.7873 -1.7006
  352MOL0     H48568   6.652   1.778   2.628 -1.6052  2.4344  1.6419
  352MOL0     H48569   6.761   1.882   2.524  2.8631 -2.0723 -0.5737
  352MOL0     H48570   6.949   1.821   2.659  1.0214 -1.1777  0.7652
  352MOL0     H48571   6.896   1.686   2.555  2.0440  0.2848  0.5641
  352MOL0     H48572   6.837   1.593   2.973 -2.1397  0.8183 -0.0666
  352MOL0     H48573   6.569   2.253   2.982  0.1906 -0.0786  0.3027
  352MOL0     H48574   6.343   2.517   3.100 -1.8841  1.5962 -1.8766
  352MOL0     H48575   6.512   2.452   3.100 -0.8227 -0.2678 -0.1979
  352MOL0     H48576   6.461   2.577   2.988  2.1150  0.1045  0.9207
  353MOL0     O48577   2.810   4.475  11.018  1.1867  0.7414 -0.6198
  353MOL0     C48578   2.853   4.462  10.903  0.8372  0.4554 -0.5257
  353MOL0     O48579   2.774   4.491  10.787  0.2825  0.9848 -0.9710
  353MOL0     C48580   2.653   4.560  10.805 -0.3604 -0.1269  0.7135
  353MOL0     C48581   2.532   4.498  10.781  0.4689 -0.6872 -0.1114
  353MOL0     C48582   2.411   4.575  10.802 -0.0225 -0.3485 -0.1288
  353MOL0     C48583   2.409   4.704  10.864  0.0521  1.2409 -0.3801
  353MOL0     O48584   2.294   4.769  10.879  0.7063 -0.6385  0.3756
  353MOL0     C48585   2.292   4.914  10.859 -0.8487  1.1132 -0.4399
  353MOL0     C48586   2.146   4.964  10.870  0.2385  0.0502 -0.2677
  353MOL0     C48587   2.074   4.911  10.999 -1.1014 -0.2369  0.8371
  353MOL0     C48588   1.935   4.971  11.002 -0.0845  0.2582  0.6321
  353MOL0     C48589   1.828   4.879  11.062  0.3298  0.5377 -0.6061
  353MOL0     C48590   1.860   4.796  11.191 -0.0390 -1.4274  0.4211
  353MOL0     C48591   1.895   4.900  11.303 -0.1324 -0.3467 -0.8058
  353MOL0     C48592   1.877   4.848  11.451  0.3275  0.4685  1.0957
  353MOL0     N48593   1.982   4.746  11.491 -0.0777  0.5159 -0.4864
  353MOL0     C48594   2.116   4.767  11.477 -0.5386 -0.7321 -0.0394
  353MOL0     C48595   2.169   4.645  11.526  0.3733  0.1902  0.4332
  353MOL0     C48596   2.320   4.611  11.536  0.2118 -0.1539  0.0373
  353MOL0     C48597   2.391   4.680  11.417  0.5483  0.1116 -0.0174
  353MOL0     C48598   2.524   4.623  11.405 -0.0489  1.0993  0.8047
  353MOL0     C48599   2.601   4.638  11.539  0.5011 -0.5721 -0.0805
  353MOL0     O48600   2.739   4.628  11.491 -0.4828  0.3019 -0.1046
  353MOL0     C48601   2.796   4.507  11.463  0.2522 -0.1405  0.3781
  353MOL0     C48602   2.736   4.377  11.456 -0.1510 -0.0052 -0.7429
  353MOL0     C48603   2.800   4.257  11.429 -0.0407 -0.6576  0.4657
  353MOL0     C48604   2.724   4.138  11.426 -0.3202  0.8247  0.4881
  353MOL0     C48605   2.941   4.258  11.411  0.8103 -0.4888  0.4766
  353MOL0     C48606   3.028   4.141  11.374  0.3158 -0.1068  0.1211
  353MOL0     O48607   3.159   4.162  11.383 -1.3775 -0.2715 -0.5248
  353MOL0     C48608   3.245   4.061  11.383  0.7395  0.0133 -0.5716
  353MOL0     C48609   3.378   4.097  11.382  0.5500 -0.1307 -0.5559
  353MOL0     C48610   3.483   4.006  11.400 -0.2494  0.2063 -0.4049
  353MOL0     C48611   3.443   3.872  11.405 -0.4695  0.2286  0.2445
  353MOL0     O48612   3.545   3.786  11.429 -0.7105 -0.3613  0.2970
  353MOL0     C48613   3.578   3.775  11.564  0.3206 -0.4465 -0.1000
  353MOL0     C48614   3.694   3.670  11.555  0.0098 -0.2848 -0.3204
  353MOL0     C48615   3.821   3.730  11.490 -1.0249 -0.3777 -0.3522
  353MOL0     C48616   3.943   3.631  11.502  0.4980 -0.3333 -0.1428
  353MOL0     C48617   4.058   3.651  11.400  0.2884  0.1867 -0.7832
  353MOL0     C48618   4.132   3.777  11.424 -0.2260 -0.3399 -1.2423
  353MOL0     C48619   4.209   3.821  11.302  0.6563 -0.2389  1.0112
  353MOL0     C48620   4.317   3.721  11.255 -0.9163 -0.6125 -0.6451
  353MOL0    Cl48621   4.391   3.738  11.098  0.0670  0.1790 -0.4223
  353MOL0     C48622   3.309   3.832  11.424  0.0364 -0.6874 -0.0053
  353MOL0     C48623   3.205   3.925  11.401 -0.3976 -0.7149 -0.3527
  353MOL0     O48624   2.975   4.049  11.308 -0.3428  0.2119  0.0481
  353MOL0     C48625   2.997   4.386  11.408 -0.1609 -0.7424 -0.3166
  353MOL0     C48626   2.929   4.510  11.424  0.1494 -0.3057 -0.0640
  353MOL0     N48627   2.068   4.563  11.565 -0.2712  0.0367 -0.0916
  353MOL0     N48628   1.954   4.632  11.556  0.3762  0.0028  0.0436
  353MOL0     C48629   2.529   4.753  10.906  0.1179 -0.5366  0.4284
  353MOL0     C48630   2.654   4.683  10.875 -0.6560  0.1008 -0.1477
  353MOL0     C48631   2.996   4.447  10.893 -0.2775  0.3395  0.7377
  353MOL0     C48632   3.052   4.526  10.792 -0.3427  0.8177  1.5392
  353MOL0     C48633   3.188   4.514  10.758 -0.4421 -0.2144  0.1563
  353MOL0     C48634   3.274   4.419  10.824  1.0194 -0.3125 -0.4972
  353MOL0     O48635   3.414   4.408  10.803  0.3873 -0.4130 -1.0020
  353MOL0     C48636   3.498   4.449  10.902 -1.0096 -0.2055 -0.3679
  353MOL0     C48637   3.565   4.320  10.958  0.4611 -0.1436  0.1531
  353MOL0     C48638   3.632   4.232  10.840  0.0650  0.5858  0.0756
  353MOL0     C48639   3.757   4.150  10.892 -0.1423  0.4158 -0.7541
  353MOL0     C48640   3.723   4.060  10.991  0.8864 -1.1834 -0.6925
  353MOL0     C48641   3.673   3.984  11.075  0.7959 -0.0363 -0.3023
  353MOL0     C48642   3.211   4.329  10.910 -0.1051  0.1076  0.5270
  353MOL0     C48643   3.077   4.347  10.945 -0.5109 -0.3513  0.9132
  353MOL0     C48644   3.030   4.242  11.041 -0.1882 -0.0184 -0.7875
  353MOL0     H48645   2.514   4.396  10.747  1.4917 -1.6366  1.9972
  353MOL0     H48646   2.313   4.530  10.786  0.4081 -1.6232  0.6978
  353MOL0     H48647   2.341   4.942  10.765  1.2865  0.1896  0.3155
  353MOL0     H48648   2.348   4.952  10.945  1.9153  0.9720 -2.0289
  353MOL0     H48649   2.134   5.072  10.875 -1.1619 -0.0165 -1.4849
  353MOL0     H48650   2.085   4.927  10.787  0.9095 -0.7268 -0.4331
  353MOL0     H48651   2.079   4.801  10.999 -1.8129 -0.2839  1.9922
  353MOL0     H48652   2.132   4.934  11.089  0.6609 -1.1860 -0.0031
  353MOL0     H48653   1.935   5.056  11.071  1.3502 -0.5877  1.7375
  353MOL0     H48654   1.895   5.013  10.909 -0.3506 -0.6206  0.3282
  353MOL0     H48655   1.799   4.804  10.988 -2.2664 -0.3181  1.1544
  353MOL0     H48656   1.739   4.940  11.077 -0.3242 -0.2604 -1.1150
  353MOL0     H48657   1.770   4.737  11.213 -0.3678 -0.9724  0.3144
  353MOL0     H48658   1.938   4.723  11.169  0.9648 -0.0256 -0.8541
  353MOL0     H48659   1.827   4.986  11.292  0.3215  0.1696  0.2000
  353MOL0     H48660   1.995   4.939  11.284 -1.2363  1.2505 -4.0148
  353MOL0     H48661   1.886   4.933  11.519 -0.1831  1.2367  0.2203
  353MOL0     H48662   1.779   4.801  11.467  0.9483 -2.1685 -1.8821
  353MOL0     H48663   2.170   4.850  11.433 -1.1708  1.3305  2.7976
  353MOL0     H48664   2.331   4.502  11.535 -1.9805 -0.4960  2.4427
  353MOL0     H48665   2.354   4.646  11.634  0.1179 -0.4404  0.1750
  353MOL0     H48666   2.333   4.663  11.326 -0.5580  0.5893  0.5792
  353MOL0     H48667   2.401   4.789  11.421  0.2691  0.2460 -1.9349
  353MOL0     H48668   2.526   4.515  11.385 -1.2410  1.4094 -1.3823
  353MOL0     H48669   2.581   4.676  11.328 -0.2743 -1.6298 -1.3902
  353MOL0     H48670   2.596   4.733  11.594  2.2301 -1.0253  0.9394
  353MOL0     H48671   2.560   4.562  11.606  0.6892  1.2804  2.2795
  353MOL0     H48672   2.633   4.369  11.491 -0.9654 -0.5598 -3.0822
  353MOL0     H48673   2.735   4.079  11.334 -0.4459  0.8257  0.4723
  353MOL0     H48674   2.617   4.162  11.433 -0.3472  1.2357 -1.0507
  353MOL0     H48675   2.746   4.070  11.509  1.0672  0.3311 -0.2526
  353MOL0     H48676   3.409   4.201  11.375  1.7205 -0.1610  2.8310
  353MOL0     H48677   3.587   4.035  11.401  0.3772 -1.9203  0.6266
  353MOL0     H48678   3.606   3.868  11.614 -1.2296 -0.4806  0.9068
  353MOL0     H48679   3.493   3.736  11.621  0.5754 -1.2530 -0.2556
  353MOL0     H48680   3.721   3.644  11.657 -1.4496 -3.8597 -0.7169
  353MOL0     H48681   3.653   3.580  11.509  3.5397 -1.9438 -0.5378
  353MOL0     H48682   3.851   3.822  11.542 -0.8565 -1.7306  2.1258
  353MOL0     H48683   3.811   3.746  11.383  1.3146 -1.3005 -0.7628
  353MOL0     H48684   3.908   3.527  11.496  0.0907 -0.6184  4.0097
  353MOL0     H48685   3.972   3.631  11.608 -2.8096 -2.2834  0.9446
  353MOL0     H48686   4.128   3.568  11.409  0.9288  0.8415  0.6393
  353MOL0     H48687   4.013   3.645  11.300 -2.1809  2.9259 -0.0048
  353MOL0     H48688   4.210   3.767  11.501  1.0278  3.0087 -1.9355
  353MOL0     H48689   4.071   3.860  11.460  0.7272 -0.4677  0.7901
  353MOL0     H48690   4.241   3.925  11.313 -0.2525 -0.0945  2.4440
  353MOL0     H48691   4.133   3.823  11.224  0.4156  3.9160  1.1730
  353MOL0     H48692   4.275   3.620  11.254  1.4208 -1.7969 -5.3999
  353MOL0     H48693   4.393   3.721  11.334  1.6403  2.9158 -2.8295
  353MOL0     H48694   3.284   3.731  11.454 -1.2854 -0.0418  1.1527
  353MOL0     H48695   3.108   3.875  11.399  0.0299 -1.6178  0.4849
  353MOL0     H48696   3.100   4.398  11.374 -0.7030  2.1714 -1.1393
  353MOL0     H48697   2.984   4.602  11.409  0.8328 -0.2663  2.2695
  353MOL0     H48698   2.538   4.842  10.967  0.0917  0.8226 -1.4688
  353MOL0     H48699   2.748   4.724  10.911 -1.2492  1.8713 -0.5346
  353MOL0     H48700   2.992   4.604  10.745  0.4917 -1.3047 -3.7506
  353MOL0     H48701   3.235   4.582  10.688 -0.6216 -1.5687 -1.3426
  353MOL0     H48702   3.573   4.525  10.878  0.1951 -0.1808  2.9103
  353MOL0     H48703   3.448   4.492  10.990  2.0857 -1.7172  2.3559
  353MOL0     H48704   3.494   4.269  11.023 -2.3300  1.7169 -1.2133
  353MOL0     H48705   3.651   4.364  11.009 -0.3980  2.3986 -0.4419
  353MOL0     H48706   3.548   4.171  10.804 -0.3140  1.8830 -1.3578
  353MOL0     H48707   3.671   4.293  10.758 -0.4198 -1.2306 -1.5853
  353MOL0     H48708   3.831   4.216  10.937 -1.2742  0.8635  0.4985
  353MOL0     H48709   3.809   4.095  10.812  2.4437  1.7086 -0.0776
  353MOL0     H48710   3.661   3.908  11.150  2.0445 -0.0791 -0.1309
  353MOL0     H48711   3.277   4.254  10.952  0.2149  0.2396  0.2673
  353MOL0     H48712   2.958   4.283  11.113  0.1597  2.5410 -1.7932
  353MOL0     H48713   2.974   4.161  10.991 -0.4892 -0.0420 -0.4182
  353MOL0     H48714   3.112   4.201  11.100  1.5356  0.0214 -2.9895
  354MOL0     O48715   1.492   1.306   8.484  0.0173  0.1236 -0.9595
  354MOL0     C48716   1.516   1.247   8.585  0.7411 -1.0376  0.6339
  354MOL0     O48717   1.519   1.115   8.597 -0.3906 -0.3184 -0.4629
  354MOL0     C48718   1.468   1.038   8.495  0.1326 -0.3138 -0.6708
  354MOL0     C48719   1.550   0.931   8.463  0.4358 -0.1649  1.3857
  354MOL0     C48720   1.496   0.832   8.365  0.2395 -0.1926 -0.2406
  354MOL0     C48721   1.376   0.858   8.298 -0.6369 -0.2509  0.1836
  354MOL0     O48722   1.323   0.780   8.199  0.6230 -0.1976  0.4396
  354MOL0     C48723   1.385   0.659   8.141  0.7003  0.3281 -0.0518
  354MOL0     C48724   1.307   0.607   8.022 -0.6129  0.5032 -1.1639
  354MOL0     C48725   1.306   0.706   7.904 -0.5188  1.1733 -0.1493
  354MOL0     C48726   1.439   0.708   7.824 -0.6797 -0.5823 -0.1486
  354MOL0     C48727   1.424   0.793   7.689  0.5074  0.2288 -0.0901
  354MOL0     C48728   1.538   0.783   7.584 -0.2502  0.8548  0.3037
  354MOL0     C48729   1.529   0.658   7.500 -0.2201 -0.1923  0.1452
  354MOL0     C48730   1.562   0.522   7.569 -0.0101 -0.5545 -0.7675
  354MOL0     N48731   1.551   0.421   7.465 -0.1527  0.0113 -0.3060
  354MOL0     C48732   1.431   0.359   7.426  0.5028 -0.3270 -0.3800
  354MOL0     C48733   1.464   0.301   7.311  0.5542 -0.6640  0.5420
  354MOL0     C48734   1.370   0.204   7.240 -0.4769  0.9168  0.7089
  354MOL0     C48735   1.350   0.262   7.097  0.0580  0.0817 -0.1718
  354MOL0     C48736   1.209   0.227   7.043 -1.2995 -0.4342 -0.7908
  354MOL0     C48737   1.193   0.284   6.900  0.2628  1.2436 -0.2659
  354MOL0     O48738   1.213   0.425   6.900  0.6515  0.8794 -0.3803
  354MOL0     C48739   1.198   0.487   6.780 -1.0015 -0.2683 -0.4965
  354MOL0     C48740   1.233   0.623   6.766  0.3621  0.3300 -0.9456
  354MOL0     C48741   1.213   0.704   6.649  0.3972  0.2691 -0.1163
  354MOL0     C48742   1.235   0.851   6.657 -0.3162  0.2641 -0.3612
  354MOL0     C48743   1.154   0.646   6.538 -0.3436 -0.1106 -0.2021
  354MOL0     C48744   1.122   0.708   6.414 -0.5937 -0.5974  0.0022
  354MOL0     O48745   1.081   0.837   6.421 -0.3491  0.2228 -0.2117
  354MOL0     C48746   1.066   0.905   6.305 -0.0023  0.0886  0.5803
  354MOL0     C48747   0.940   0.946   6.254 -0.1287  0.3459  0.1920
  354MOL0     C48748   0.927   1.011   6.128 -0.7956  1.4087 -0.2525
  354MOL0     C48749   1.047   1.051   6.058  0.3904  0.9792  0.0788
  354MOL0     O48750   1.017   1.125   5.942  0.6763 -0.1884 -0.1607
  354MOL0     C48751   1.106   1.223   5.903 -1.2299 -0.8084 -0.0407
  354MOL0     C48752   1.040   1.301   5.785  0.0867 -0.6812  0.1215
  354MOL0     C48753   1.097   1.445   5.777 -0.4386 -0.2253  0.2914
  354MOL0     C48754   1.066   1.533   5.653  0.9654 -0.1085 -0.7107
  354MOL0     C48755   1.070   1.454   5.523  0.4739  0.0821  0.2917
  354MOL0     C48756   1.026   1.539   5.401 -0.3825 -0.3841  0.3143
  354MOL0     C48757   1.087   1.497   5.270  0.3285 -0.2685 -0.0104
  354MOL0     C48758   1.096   1.611   5.182  0.1830  0.7907 -1.4584
  354MOL0    Cl48759   1.242   1.718   5.228  0.2934  0.2932  0.0672
  354MOL0     C48760   1.173   1.019   6.117  0.1481 -0.4329  0.1939
  354MOL0     C48761   1.187   0.958   6.250 -0.2836  0.0702 -0.2651
  354MOL0     O48762   1.125   0.643   6.313  0.5934 -0.7469 -0.2024
  354MOL0     C48763   1.121   0.510   6.540 -1.0729 -0.7334 -0.7197
  354MOL0     C48764   1.144   0.437   6.659 -0.3808  0.4102  0.7310
  354MOL0     N48765   1.594   0.334   7.276  0.2221  0.0494 -0.1254
  354MOL0     N48766   1.648   0.406   7.372 -0.1743  0.1250 -0.6255
  354MOL0     C48767   1.299   0.967   8.338 -0.5191  0.2690 -0.3688
  354MOL0     C48768   1.343   1.060   8.438 -0.5569  0.3705  0.4685
  354MOL0     C48769   1.545   1.328   8.703  0.2785  0.1350 -0.8797
  354MOL0     C48770   1.593   1.251   8.812 -0.2410  0.0397 -0.1336
  354MOL0     C48771   1.623   1.315   8.933  0.4392  0.6673 -0.0192
  354MOL0     C48772   1.603   1.451   8.942  0.8121  0.4629  0.1664
  354MOL0     O48773   1.640   1.501   9.062 -0.5749  0.0054 -0.3949
  354MOL0     C48774   1.647   1.643   9.083  1.3773  0.5091 -0.6310
  354MOL0     C48775   1.712   1.667   9.218  1.0309 -1.0941  0.0799
  354MOL0     C48776   1.859   1.626   9.232  0.4905  0.7424  0.2723
  354MOL0     C48777   1.945   1.683   9.117 -0.8005 -0.2965 -0.6355
  354MOL0     C48778   1.936   1.829   9.116 -0.8294 -0.5612 -1.6130
  354MOL0     C48779   1.920   1.940   9.102 -0.4026 -0.3871 -0.6458
  354MOL0     C48780   1.550   1.534   8.831  0.1008  0.2950 -0.6092
  354MOL0     C48781   1.521   1.466   8.711  0.7059 -0.2362  0.8544
  354MOL0     C48782   1.477   1.562   8.602  1.3457  0.1758 -0.0155
  354MOL0     H48783   1.631   0.902   8.529  3.6600  1.6351 -1.4590
  354MOL0     H48784   1.553   0.741   8.351 -0.2586 -1.0269  2.5503
  354MOL0     H48785   1.401   0.585   8.221 -0.9297 -0.2325 -0.2148
  354MOL0     H48786   1.488   0.676   8.107  0.5778  0.2040 -0.4843
  354MOL0     H48787   1.354   0.512   7.996  2.5042  1.6284 -0.0549
  354MOL0     H48788   1.204   0.599   8.058 -0.7208  2.1054 -1.0349
  354MOL0     H48789   1.231   0.660   7.839 -0.1731 -0.6158  0.6768
  354MOL0     H48790   1.277   0.806   7.940 -1.9847  0.1506  1.6912
  354MOL0     H48791   1.520   0.754   7.882  0.8279 -2.2579 -0.8140
  354MOL0     H48792   1.468   0.605   7.801  2.3616  0.2323 -0.4287
  354MOL0     H48793   1.423   0.898   7.720  0.6694  0.8532 -2.0730
  354MOL0     H48794   1.331   0.762   7.641 -0.4891  1.2536  1.0842
  354MOL0     H48795   1.526   0.872   7.521  0.0226  0.6866  0.0106
  354MOL0     H48796   1.633   0.795   7.637  0.1691  0.7688 -0.4099
  354MOL0     H48797   1.596   0.681   7.416 -1.3230  0.0034 -0.7062
  354MOL0     H48798   1.426   0.654   7.464 -0.4461  0.3145  0.7196
  354MOL0     H48799   1.668   0.533   7.592 -0.2191  1.9566 -0.7467
  354MOL0     H48800   1.496   0.499   7.653 -1.3682  0.8555 -1.4069
  354MOL0     H48801   1.333   0.352   7.472  0.6783  1.6167  0.3786
  354MOL0     H48802   1.273   0.195   7.291 -0.1897 -2.1063  0.9217
  354MOL0     H48803   1.403   0.103   7.215 -4.2528  0.2546 -2.8197
  354MOL0     H48804   1.359   0.371   7.092 -0.3342  0.0545 -2.3865
  354MOL0     H48805   1.426   0.214   7.035 -0.5179 -1.5514  0.3192
  354MOL0     H48806   1.212   0.118   7.034  2.9932 -0.5358 -0.2885
  354MOL0     H48807   1.132   0.261   7.114  0.5851 -3.2747  3.0064
  354MOL0     H48808   1.271   0.235   6.841  1.9470 -0.1504  2.8536
  354MOL0     H48809   1.092   0.252   6.870 -1.2988  0.4189  4.8252
  354MOL0     H48810   1.273   0.665   6.858 -2.0393  2.0299 -0.6128
  354MOL0     H48811   1.322   0.875   6.596  1.4971 -3.9335  0.2793
  354MOL0     H48812   1.250   0.884   6.761  1.9328 -3.2946  0.6271
  354MOL0     H48813   1.144   0.908   6.635 -0.6471  0.6786  1.7672
  354MOL0     H48814   0.846   0.915   6.300 -0.6837  1.1197 -0.3934
  354MOL0     H48815   0.830   1.054   6.104 -1.0951  0.8823 -0.0277
  354MOL0     H48816   1.132   1.285   5.990 -0.2322  1.3280 -1.7507
  354MOL0     H48817   1.205   1.180   5.881  0.1354  1.6437  0.8885
  354MOL0     H48818   1.049   1.252   5.688 -2.0479 -0.8506 -0.0221
  354MOL0     H48819   0.936   1.323   5.810  0.6795  0.8312  1.4699
  354MOL0     H48820   1.205   1.425   5.779 -0.3399  0.0815 -0.8990
  354MOL0     H48821   1.067   1.506   5.862  0.3207  0.8321 -0.1676
  354MOL0     H48822   1.136   1.617   5.649  0.5541  0.7026  3.7163
  354MOL0     H48823   0.964   1.571   5.666  1.8087  1.5085  2.1872
  354MOL0     H48824   1.170   1.411   5.508  0.2898  0.3821 -2.2505
  354MOL0     H48825   1.000   1.370   5.524  1.9750 -1.2137  0.8784
  354MOL0     H48826   1.066   1.639   5.415  0.8355 -0.3899 -2.5089
  354MOL0     H48827   0.917   1.545   5.400 -0.3452  0.3662  0.6709
  354MOL0     H48828   1.031   1.414   5.225 -2.1636  1.8288 -1.0775
  354MOL0     H48829   1.190   1.464   5.283  1.4363  3.0638  0.6499
  354MOL0     H48830   1.010   1.678   5.174  0.4660  1.5842  1.0640
  354MOL0     H48831   1.123   1.572   5.083  0.5330 -2.3317 -0.2304
  354MOL0     H48832   1.264   1.045   6.064 -0.8080 -2.0482 -2.4287
  354MOL0     H48833   1.282   0.938   6.299  0.5112  0.9202 -1.4112
  354MOL0     H48834   1.068   0.462   6.459 -0.6136 -2.8201  0.1631
  354MOL0     H48835   1.112   0.333   6.654 -0.4281  0.4623 -0.4611
  354MOL0     H48836   1.198   0.987   8.303 -0.8115 -0.0214  0.2977
  354MOL0     H48837   1.281   1.147   8.457 -0.6216  0.7437 -1.2864
  354MOL0     H48838   1.608   1.144   8.805  0.4732 -0.0568  1.9798
  354MOL0     H48839   1.666   1.263   9.018  2.0887  1.7029 -0.1921
  354MOL0     H48840   1.689   1.693   8.995 -2.3795  0.9658 -2.3933
  354MOL0     H48841   1.542   1.675   9.085 -0.5335 -4.8358 -0.4575
  354MOL0     H48842   1.648   1.614   9.290  1.8026 -0.7734  1.0151
  354MOL0     H48843   1.701   1.771   9.251  2.0508 -0.7015 -0.7353
  354MOL0     H48844   1.891   1.653   9.334 -0.0007  1.1523  0.3249
  354MOL0     H48845   1.861   1.517   9.236  0.0379  0.6873 -0.8646
  354MOL0     H48846   1.909   1.635   9.026 -0.4855 -0.8307 -0.4821
  354MOL0     H48847   2.051   1.667   9.135 -0.2000  2.6126 -1.0756
  354MOL0     H48848   1.929   2.044   9.076 -2.6599  0.3068  0.9667
  354MOL0     H48849   1.533   1.640   8.844 -0.0643 -0.0625  3.2964
  354MOL0     H48850   1.493   1.665   8.635  3.7271  0.4678 -1.8744
  354MOL0     H48851   1.540   1.545   8.514 -0.1581 -0.5124 -1.0080
  354MOL0     H48852   1.372   1.548   8.575  1.9385 -1.1609 -1.8576
  355MOL0     O48853   6.231   5.797  10.344 -0.3162 -0.5168  0.9798
  355MOL0     C48854   6.162   5.891  10.294 -0.1967  0.2114 -0.0199
  355MOL0     O48855   6.059   5.865  10.211 -0.5098 -0.6589  0.6230
  355MOL0     C48856   6.045   5.731  10.189 -0.1613 -0.7940 -0.4951
  355MOL0     C48857   6.074   5.676  10.062  0.0547 -0.4993 -0.1070
  355MOL0     C48858   6.074   5.537  10.034 -0.1386 -0.6773 -0.4036
  355MOL0     C48859   6.018   5.454  10.134 -0.1286  0.4117 -0.0325
  355MOL0     O48860   6.019   5.317  10.120 -0.1147 -0.4687 -0.0288
  355MOL0     C48861   6.146   5.275  10.171  0.9264 -0.0267  0.5794
  355MOL0     C48862   6.210   5.169  10.081  0.5938  0.2959  0.1164
  355MOL0     C48863   6.270   5.212   9.947  0.3376 -0.4267 -0.0078
  355MOL0     C48864   6.158   5.208   9.838 -0.0423  0.2320 -0.5415
  355MOL0     C48865   6.217   5.222   9.692 -0.5593 -0.3468 -0.4385
  355MOL0     C48866   6.309   5.341   9.690  0.3662 -0.0559  0.1242
  355MOL0     C48867   6.338   5.398   9.554 -0.5779 -1.1495 -0.0791
  355MOL0     C48868   6.430   5.515   9.583 -0.0738 -0.6596 -1.0628
  355MOL0     N48869   6.483   5.603   9.476 -0.1366 -0.2697  0.8175
  355MOL0     C48870   6.595   5.675   9.489 -0.0626  0.0808 -1.0291
  355MOL0     C48871   6.603   5.750   9.375  0.4087  0.0035 -0.1993
  355MOL0     C48872   6.728   5.832   9.332  0.4147 -0.6674  0.1008
  355MOL0     C48873   6.849   5.752   9.307 -0.5537  1.1047  0.2378
  355MOL0     C48874   6.918   5.716   9.438  0.2481  0.2588  0.0463
  355MOL0     C48875   7.060   5.683   9.419 -0.5918  0.2032  0.0614
  355MOL0     O48876   7.059   5.575   9.331 -0.2607 -0.6997  0.8761
  355MOL0     C48877   7.117   5.458   9.348 -0.1737  0.0579  0.3268
  355MOL0     C48878   7.111   5.370   9.241 -0.8784  0.2007 -0.8475
  355MOL0     C48879   7.177   5.244   9.249 -0.0923  0.0819  0.7649
  355MOL0     C48880   7.188   5.167   9.119  0.6628 -0.0418 -0.1754
  355MOL0     C48881   7.242   5.203   9.364 -0.6380  0.6494 -0.3283
  355MOL0     C48882   7.338   5.094   9.376 -0.3606 -0.1237  0.7821
  355MOL0     O48883   7.420   5.077   9.270 -0.4955 -0.0752 -0.5357
  355MOL0     C48884   7.486   4.959   9.256 -0.7748  0.2015  0.2120
  355MOL0     C48885   7.430   4.844   9.210 -0.4427  0.1571 -0.4276
  355MOL0     C48886   7.501   4.730   9.197  0.0455  0.8761  0.0212
  355MOL0     C48887   7.634   4.724   9.235 -0.0358 -0.1512 -0.4436
  355MOL0     O48888   7.701   4.599   9.226 -0.5372 -0.4906  0.2319
  355MOL0     C48889   7.844   4.587   9.251  0.2900 -0.4014 -0.1539
  355MOL0     C48890   7.923   4.646   9.131  0.9837 -0.9357  0.0612
  355MOL0     C48891   8.073   4.617   9.126  0.4815 -0.2479 -0.5057
  355MOL0     C48892   8.152   4.680   9.011  1.4414 -0.5047 -0.6663
  355MOL0     C48893   8.296   4.641   9.005 -0.1292 -0.4440  0.4683
  355MOL0     C48894   8.385   4.743   8.922  0.0303  0.5555 -0.2992
  355MOL0     C48895   8.356   4.700   8.779  0.4100  0.9654  0.0562
  355MOL0     C48896   8.442   4.748   8.663 -0.2816 -0.3023 -0.2027
  355MOL0    Cl48897   8.366   4.719   8.505 -0.4054 -0.2552 -0.2914
  355MOL0     C48898   7.691   4.840   9.284 -0.7095 -0.7266  0.7260
  355MOL0     C48899   7.624   4.959   9.289  0.1446 -0.6034 -0.0504
  355MOL0     O48900   7.331   5.029   9.473 -0.4644  0.5549  0.3099
  355MOL0     C48901   7.252   5.295   9.468 -0.0405  0.9220  0.6707
  355MOL0     C48902   7.189   5.421   9.456 -0.6690 -1.2060 -0.3366
  355MOL0     N48903   6.473   5.742   9.309 -0.3546 -0.0115 -0.1045
  355MOL0     N48904   6.412   5.652   9.368 -0.5600 -0.1134  0.2335
  355MOL0     C48905   5.969   5.508  10.257 -0.0270  0.7382  0.8900
  355MOL0     C48906   5.989   5.644  10.282 -1.3789  1.1122  1.0084
  355MOL0     C48907   6.194   6.036  10.330  0.4087 -0.6975 -0.3636
  355MOL0     C48908   6.108   6.140  10.285  0.4679 -0.7924 -0.4201
  355MOL0     C48909   6.134   6.275  10.306  0.1682 -0.3951  0.2619
  355MOL0     C48910   6.240   6.315  10.387 -0.6609 -0.1229  0.0619
  355MOL0     O48911   6.291   6.443  10.410 -0.2355 -0.4037  0.7193
  355MOL0     C48912   6.262   6.541  10.304  0.3420  1.2226  0.2626
  355MOL0     C48913   6.327   6.516  10.173 -0.0887 -0.6467  0.0119
  355MOL0     C48914   6.294   6.618  10.070  0.9518 -0.5413  0.4172
  355MOL0     C48915   6.350   6.607   9.925 -0.0765  0.2276  0.0129
  355MOL0     C48916   6.494   6.598   9.939  0.2695  1.1341  0.3242
  355MOL0     C48917   6.610   6.576   9.953 -0.1099  0.4619  0.3008
  355MOL0     C48918   6.323   6.216  10.434 -0.0867  0.6249 -0.7083
  355MOL0     C48919   6.301   6.082  10.416 -0.0902  1.0059 -0.4742
  355MOL0     C48920   6.404   5.994  10.486 -0.5994  0.7447 -0.8890
  355MOL0     H48921   6.116   5.744   9.989  0.0264  1.3432  1.5125
  355MOL0     H48922   6.119   5.488   9.949 -2.3363 -2.0009 -0.8955
  355MOL0     H48923   6.125   5.232  10.270  0.4506 -2.5256 -0.5156
  355MOL0     H48924   6.226   5.350  10.169  0.0592  0.9741 -3.3590
  355MOL0     H48925   6.285   5.117  10.141 -0.7410 -2.1421 -0.1734
  355MOL0     H48926   6.136   5.090  10.063  1.4956 -0.5844  0.1954
  355MOL0     H48927   6.318   5.309   9.961  0.8966 -0.6734 -0.1712
  355MOL0     H48928   6.354   5.151   9.913  3.9095  3.9800 -0.0388
  355MOL0     H48929   6.098   5.117   9.844 -1.7540  1.3211 -0.1782
  355MOL0     H48930   6.080   5.284   9.851 -1.2252 -1.0214 -0.0403
  355MOL0     H48931   6.129   5.247   9.632  0.6298  2.1743 -1.2893
  355MOL0     H48932   6.259   5.125   9.664  2.3515  0.7964 -0.4040
  355MOL0     H48933   6.261   5.419   9.749  1.7847  1.7003 -0.9528
  355MOL0     H48934   6.398   5.319   9.750  0.7413  3.7527  1.2326
  355MOL0     H48935   6.246   5.443   9.513  1.4955  1.0797 -2.6716
  355MOL0     H48936   6.359   5.334   9.468 -3.1734 -1.5257 -0.5201
  355MOL0     H48937   6.381   5.578   9.658  0.8659 -1.8577  0.6254
  355MOL0     H48938   6.515   5.476   9.639  1.2390  2.0635 -0.9778
  355MOL0     H48939   6.677   5.670   9.560  0.7138  1.2740 -1.7987
  355MOL0     H48940   6.748   5.920   9.394 -3.4872  2.6612 -2.8316
  355MOL0     H48941   6.697   5.878   9.238  3.4845  1.4356 -0.0261
  355MOL0     H48942   6.822   5.661   9.252 -2.0516  0.1417  2.3795
  355MOL0     H48943   6.920   5.807   9.244  2.9240 -2.5132  0.5772
  355MOL0     H48944   6.906   5.799   9.508  0.2519 -0.3899  0.8304
  355MOL0     H48945   6.862   5.635   9.486 -2.1728  1.5627 -0.4419
  355MOL0     H48946   7.115   5.768   9.379  1.3283  0.1525  2.3364
  355MOL0     H48947   7.100   5.654   9.517  0.1154  0.4375 -0.1554
  355MOL0     H48948   7.055   5.397   9.152 -0.0284 -0.7071 -1.6802
  355MOL0     H48949   7.291   5.167   9.082  0.9587 -2.3711  0.4751
  355MOL0     H48950   7.105   5.182   9.050 -0.4763  0.7439  1.3106
  355MOL0     H48951   7.174   5.061   9.144 -1.4722 -0.6374 -3.3038
  355MOL0     H48952   7.328   4.842   9.175 -0.0587 -0.3908 -1.5699
  355MOL0     H48953   7.462   4.631   9.176  0.2549  1.0962 -1.5293
  355MOL0     H48954   7.869   4.643   9.342 -1.6412  1.7697 -0.8652
  355MOL0     H48955   7.877   4.486   9.277 -0.9969 -0.4372  1.4827
  355MOL0     H48956   7.872   4.594   9.050 -3.1869  0.1270  1.7806
  355MOL0     H48957   7.893   4.750   9.119  0.4518 -1.0357  0.4753
  355MOL0     H48958   8.084   4.509   9.115  3.0052  0.0605 -1.7418
  355MOL0     H48959   8.109   4.648   9.225 -3.4383  2.2447  0.3624
  355MOL0     H48960   8.140   4.787   9.027  0.3072 -0.1251 -3.5889
  355MOL0     H48961   8.102   4.649   8.919  2.3699  2.1352 -2.1525
  355MOL0     H48962   8.344   4.634   9.103  0.1436  0.8200  0.4466
  355MOL0     H48963   8.293   4.542   8.959  0.7877 -0.6657  0.8481
  355MOL0     H48964   8.493   4.736   8.939  0.4951  5.7036  0.6139
  355MOL0     H48965   8.369   4.851   8.937  2.4223  1.2141 -1.9772
  355MOL0     H48966   8.254   4.736   8.768  0.6619  1.2999 -1.4456
  355MOL0     H48967   8.343   4.592   8.775 -1.4506  1.1929 -1.4194
  355MOL0     H48968   8.540   4.701   8.672  1.1507  1.9568 -2.6826
  355MOL0     H48969   8.461   4.855   8.672 -1.9818  0.3308 -2.9977
  355MOL0     H48970   7.799   4.850   9.295 -0.8940 -1.0857  3.2117
  355MOL0     H48971   7.668   5.050   9.329  2.1137 -1.1082 -0.9686
  355MOL0     H48972   7.324   5.268   9.545  0.8899 -0.5960 -0.6558
  355MOL0     H48973   7.222   5.493   9.530  1.8564  0.9950 -3.3510
  355MOL0     H48974   5.917   5.445  10.329  2.8379  1.6136  4.0362
  355MOL0     H48975   5.956   5.693  10.374 -1.1907 -0.3400  1.8839
  355MOL0     H48976   6.025   6.110  10.222  1.0330 -2.0557 -0.5993
  355MOL0     H48977   6.076   6.343  10.244  0.4196 -0.4885 -0.0772
  355MOL0     H48978   6.156   6.557  10.284  0.1367  2.6187  2.1134
  355MOL0     H48979   6.307   6.633  10.343 -1.4113  1.4270  2.0076
  355MOL0     H48980   6.296   6.417  10.138 -2.1187 -0.3544  0.8370
  355MOL0     H48981   6.435   6.528  10.185 -0.2134  0.4081  0.1169
  355MOL0     H48982   6.185   6.612  10.057  0.8000 -1.7438  2.0604
  355MOL0     H48983   6.312   6.715  10.118  0.6787  0.0195 -0.5760
  355MOL0     H48984   6.319   6.698   9.875 -1.8082 -0.7122 -0.7214
  355MOL0     H48985   6.321   6.518   9.868  2.0981 -1.6320  1.6088
  355MOL0     H48986   6.713   6.544   9.951 -0.0087  0.8003 -0.0839
  355MOL0     H48987   6.413   6.248  10.485  0.1202 -2.1881  0.8618
  355MOL0     H48988   6.358   5.968  10.581  3.0745  1.5725  1.3364
  355MOL0     H48989   6.433   5.905  10.430 -0.9177  0.4988 -0.6646
  355MOL0     H48990   6.499   6.047  10.503 -1.2381  1.4894  0.5079
  356MOL0     O48991   1.058   8.995   6.311  0.9449 -0.3634 -0.5664
  356MOL0     C48992   1.155   9.040   6.370  0.0609 -0.2380 -0.8215
  356MOL0     O48993   1.147   9.115   6.483  0.0944  0.6993  0.7393
  356MOL0     C48994   1.033   9.136   6.559  0.0257  0.7616  0.8447
  356MOL0     C48995   1.036   9.242   6.650  0.4373 -0.1366  0.9316
  356MOL0     C48996   0.940   9.250   6.745 -0.0637  0.7800 -0.3029
  356MOL0     C48997   0.843   9.145   6.754 -0.7997 -0.6114  1.1298
  356MOL0     O48998   0.754   9.172   6.857 -0.3881  0.5687 -0.2066
  356MOL0     C48999   0.635   9.090   6.860  0.0054  0.3383 -1.0252
  356MOL0     C49000   0.539   9.136   6.985 -0.0032  0.2402 -0.7469
  356MOL0     C49001   0.615   9.160   7.117 -1.1875 -1.2350 -0.0098
  356MOL0     C49002   0.519   9.139   7.241  0.3529 -0.3921 -0.6233
  356MOL0     C49003   0.430   9.266   7.269  0.0561  0.3138  0.1787
  356MOL0     C49004   0.328   9.320   7.162  0.0133 -0.6423 -0.1184
  356MOL0     C49005   0.230   9.223   7.114  0.6442 -0.4460  0.6283
  356MOL0     C49006   0.153   9.149   7.223  0.5467  0.0531 -0.4624
  356MOL0     N49007   0.050   9.055   7.173 -0.2851  0.2718 -0.2781
  356MOL0     C49008  -0.048   9.073   7.073  0.6806 -0.6546 -0.3534
  356MOL0     C49009  -0.130   8.965   7.083 -0.4986 -0.3553 -0.1975
  356MOL0     C49010  -0.237   8.924   6.990 -0.1535  0.4747  0.3367
  356MOL0     C49011  -0.196   8.794   6.907  0.7102 -0.2378 -0.6670
  356MOL0     C49012  -0.065   8.811   6.830  0.1010  0.5621  0.2568
  356MOL0     C49013  -0.029   8.682   6.758 -0.6076 -0.0546  0.2351
  356MOL0     O49014  -0.130   8.642   6.663 -0.0030 -0.9502 -0.0789
  356MOL0     C49015  -0.114   8.531   6.584  0.0698  0.2348 -1.0919
  356MOL0     C49016  -0.213   8.512   6.489  0.4298  0.0047 -0.1131
  356MOL0     C49017  -0.207   8.405   6.397 -0.3932 -0.3113  0.2923
  356MOL0     C49018  -0.310   8.383   6.283  0.2156 -0.3228 -0.8072
  356MOL0     C49019  -0.115   8.303   6.418 -0.0046  0.3804  0.2100
  356MOL0     C49020  -0.119   8.181   6.333 -0.3196 -0.5051 -0.5512
  356MOL0     O49021   0.002   8.133   6.291 -0.2051  0.3840  0.1894
  356MOL0     C49022  -0.005   8.049   6.182  0.6438 -0.0054 -0.5118
  356MOL0     C49023  -0.075   7.924   6.178 -0.2392  0.1589 -0.0263
  356MOL0     C49024  -0.066   7.836   6.068 -0.6461 -0.1788 -0.1721
  356MOL0     C49025   0.019   7.861   5.960  0.1584 -0.1155 -0.6344
  356MOL0     O49026   0.040   7.773   5.859 -0.5988 -0.1587  0.1175
  356MOL0     C49027  -0.002   7.825   5.726 -0.4183  0.5882 -0.4868
  356MOL0     C49028  -0.151   7.815   5.707 -0.8757  0.2281  0.1425
  356MOL0     C49029  -0.207   7.949   5.652 -0.8002  0.6863 -0.1708
  356MOL0     C49030  -0.352   7.937   5.604 -0.2682  0.2371 -0.7180
  356MOL0     C49031  -0.428   8.072   5.611  0.0415 -0.2455  0.1239
  356MOL0     C49032  -0.567   8.060   5.542  0.6662 -0.0962  0.7884
  356MOL0     C49033  -0.624   8.206   5.518 -0.5499  0.7925  0.7470
  356MOL0     C49034  -0.719   8.215   5.401  1.0308 -0.8981 -0.1140
  356MOL0    Cl49035  -0.762   8.386   5.377 -0.8534  0.1141  0.2676
  356MOL0     C49036   0.092   7.983   5.971  0.6174 -0.4706  1.2398
  356MOL0     C49037   0.074   8.072   6.070 -0.0258  0.3646 -1.4251
  356MOL0     O49038  -0.223   8.120   6.317 -0.2826  0.1673 -1.5774
  356MOL0     C49039  -0.021   8.314   6.521  0.3699 -0.7352  0.0375
  356MOL0     C49040  -0.018   8.428   6.603 -0.7379  0.6216  0.1712
  356MOL0     N49041  -0.086   8.886   7.184  0.7982 -0.0077  0.4745
  356MOL0     N49042   0.025   8.928   7.229  0.3964 -0.5016 -0.6065
  356MOL0     C49043   0.846   9.037   6.664 -0.5310  0.0596 -0.0253
  356MOL0     C49044   0.938   9.030   6.557  0.8206  0.0697 -1.0424
  356MOL0     C49045   1.288   9.014   6.311 -0.1148 -0.3595 -0.4277
  356MOL0     C49046   1.395   9.030   6.397 -1.0670  0.0797  0.1507
  356MOL0     C49047   1.531   9.008   6.366 -0.7819  0.2265  0.2130
  356MOL0     C49048   1.557   8.972   6.226 -0.6087  0.7441 -0.0560
  356MOL0     O49049   1.683   8.948   6.168  0.2938 -0.2374  0.1000
  356MOL0     C49050   1.794   8.913   6.260 -0.0865  0.3774  0.2345
  356MOL0     C49051   1.876   9.039   6.275  0.5499  0.1130  0.3266
  356MOL0     C49052   1.935   9.094   6.134  0.3609  0.4799  0.3415
  356MOL0     C49053   2.010   8.981   6.058  0.6691  0.9445 -0.9639
  356MOL0     C49054   2.133   8.925   6.131  0.4633 -0.0626 -0.0378
  356MOL0     C49055   2.234   8.903   6.199  0.3804 -0.0574  0.4791
  356MOL0     C49056   1.449   8.969   6.138 -0.2433  0.3699 -0.5238
  356MOL0     C49057   1.316   8.982   6.177  0.2222  1.3117 -0.1213
  356MOL0     C49058   1.225   9.004   6.062  0.2221 -0.3435 -0.6565
  356MOL0     H49059   1.119   9.311   6.645 -1.1519  1.9063  1.0798
  356MOL0     H49060   0.929   9.333   6.813  1.0109 -0.9254  2.1077
  356MOL0     H49061   0.669   8.985   6.861  1.9302  0.6772  4.3546
  356MOL0     H49062   0.575   9.110   6.771 -0.8873  2.2367 -0.0362
  356MOL0     H49063   0.487   9.228   6.957 -1.4075 -0.3377 -0.1355
  356MOL0     H49064   0.471   9.052   7.000  0.3545  0.3265  1.7705
  356MOL0     H49065   0.705   9.105   7.144 -0.5673  0.7703  2.4298
  356MOL0     H49066   0.641   9.267   7.113 -0.4790 -1.3685  0.8793
  356MOL0     H49067   0.462   9.049   7.217  1.2106 -0.2520 -3.5302
  356MOL0     H49068   0.584   9.127   7.328  0.0539 -1.3492 -0.5205
  356MOL0     H49069   0.498   9.347   7.296  1.0585 -1.3050  2.9412
  356MOL0     H49070   0.385   9.240   7.365  2.4280  0.4031  1.3800
  356MOL0     H49071   0.275   9.396   7.220  0.2308  2.2100 -3.3683
  356MOL0     H49072   0.374   9.374   7.080 -3.1056  1.6740 -0.5118
  356MOL0     H49073   0.271   9.160   7.034  3.0294  1.2145  0.4371
  356MOL0     H49074   0.154   9.278   7.058  2.1516 -0.3368 -1.4227
  356MOL0     H49075   0.224   9.075   7.261 -1.6383 -1.5616  0.7107
  356MOL0     H49076   0.116   9.214   7.302 -3.0477  0.1505 -2.0504
  356MOL0     H49077  -0.053   9.162   7.011 -1.6508 -1.8031 -1.9427
  356MOL0     H49078  -0.258   9.000   6.915 -3.4063  0.1883  0.8112
  356MOL0     H49079  -0.334   8.896   7.033 -0.5296  1.2445 -0.0162
  356MOL0     H49080  -0.199   8.709   6.976 -1.7622  1.8095  2.0253
  356MOL0     H49081  -0.277   8.787   6.834 -0.3070  6.5052 -0.7862
  356MOL0     H49082  -0.064   8.895   6.760  2.5329  0.5283  0.1809
  356MOL0     H49083   0.020   8.829   6.896 -0.1336 -1.1582  1.0634
  356MOL0     H49084   0.074   8.687   6.722  0.7675 -0.3800  3.7692
  356MOL0     H49085  -0.016   8.594   6.822  0.1112 -0.1475 -0.0280
  356MOL0     H49086  -0.285   8.592   6.498  1.7715  1.2139  0.0925
  356MOL0     H49087  -0.362   8.473   6.250  2.4983  0.5908 -2.1539
  356MOL0     H49088  -0.379   8.304   6.313  0.8324 -1.0128 -1.1610
  356MOL0     H49089  -0.269   8.364   6.184 -0.1580 -2.1947 -0.6301
  356MOL0     H49090  -0.133   7.891   6.264  0.3170 -0.5388  0.0898
  356MOL0     H49091  -0.120   7.742   6.078 -2.1106  0.7740  1.4354
  356MOL0     H49092   0.025   7.930   5.720 -1.9550  1.1832  1.5281
  356MOL0     H49093   0.042   7.769   5.643  2.9739  0.9806  0.8884
  356MOL0     H49094  -0.171   7.738   5.632 -0.5185  0.0875  0.1875
  356MOL0     H49095  -0.199   7.779   5.799  0.3211  1.9544  1.5283
  356MOL0     H49096  -0.146   7.992   5.572 -0.9118  0.9941 -0.0913
  356MOL0     H49097  -0.203   8.019   5.736  0.1308  0.9779 -0.4503
  356MOL0     H49098  -0.407   7.868   5.669  0.1764 -0.7154 -1.3150
  356MOL0     H49099  -0.355   7.888   5.506 -0.0712  1.6727 -1.4623
  356MOL0     H49100  -0.436   8.097   5.717 -0.3617 -0.7717  0.2203
  356MOL0     H49101  -0.357   8.142   5.567  0.5402  1.4476  3.3001
  356MOL0     H49102  -0.639   7.997   5.596 -1.1655  1.3797  0.2015
  356MOL0     H49103  -0.566   8.014   5.443 -0.2936  2.0889 -0.3226
  356MOL0     H49104  -0.548   8.278   5.486  0.1562 -0.2896 -0.1060
  356MOL0     H49105  -0.664   8.243   5.612 -0.3990 -0.0235  1.1493
  356MOL0     H49106  -0.814   8.164   5.417  0.8516 -1.1833 -1.8401
  356MOL0     H49107  -0.660   8.170   5.320  2.1931 -2.5887  1.5921
  356MOL0     H49108   0.165   8.008   5.895  0.1578 -1.8362  0.3162
  356MOL0     H49109   0.134   8.162   6.081 -1.6497  1.1824  3.9083
  356MOL0     H49110   0.050   8.233   6.535  2.5622  1.0042 -0.6034
  356MOL0     H49111   0.054   8.447   6.682 -1.2217 -2.2252  1.4251
  356MOL0     H49112   0.773   8.958   6.675  1.4932 -1.7088  1.4717
  356MOL0     H49113   0.937   8.941   6.494 -0.5816 -2.6286  2.3871
  356MOL0     H49114   1.386   9.053   6.503 -1.9000 -3.8654  1.0745
  356MOL0     H49115   1.595   9.014   6.454 -0.5345 -5.4856  0.7811
  356MOL0     H49116   1.758   8.888   6.361 -3.4303 -0.3518 -0.9874
  356MOL0     H49117   1.855   8.830   6.225 -0.4633  0.5255 -0.8105
  356MOL0     H49118   1.959   9.027   6.345 -0.2875 -0.5841  1.2299
  356MOL0     H49119   1.811   9.112   6.325  0.8117 -1.0641  2.5243
  356MOL0     H49120   1.862   9.144   6.071 -0.8333 -0.1422  1.2032
  356MOL0     H49121   2.017   9.158   6.167  1.8796 -0.8772 -0.6119
  356MOL0     H49122   2.043   9.043   5.975 -0.5831  0.7887 -1.6015
  356MOL0     H49123   1.943   8.902   6.023  1.5123 -1.4581  2.2789
  356MOL0     H49124   2.334   8.893   6.235  1.3690  1.3597 -1.6642
  356MOL0     H49125   1.481   8.973   6.034  3.6842 -4.3054  0.1350
  356MOL0     H49126   1.279   9.020   5.968 -0.0063  1.6736 -0.4975
  356MOL0     H49127   1.165   8.913   6.056 -2.6368  1.3331  0.4390
  356MOL0     H49128   1.164   9.095   6.072  2.3026  0.8106  4.2463
  357MOL0     O49129   4.187   7.783   9.508 -0.7028  0.5533  0.4200
  357MOL0     C49130   4.257   7.832   9.412  0.5237  0.1607  0.8838
  357MOL0     O49131   4.387   7.871   9.423  0.2328 -0.3954  0.4846
  357MOL0     C49132   4.421   7.879   9.559  0.3529  0.6971  1.2828
  357MOL0     C49133   4.381   7.991   9.634 -0.1700  1.2079  0.5584
  357MOL0     C49134   4.443   8.021   9.756  0.9387 -0.7885 -0.4478
  357MOL0     C49135   4.539   7.940   9.814 -0.7469 -0.8880  0.6729
  357MOL0     O49136   4.592   7.977   9.929 -0.3947 -0.2827  0.0372
  357MOL0     C49137   4.694   7.901   9.991  0.2854  0.1303 -0.1710
  357MOL0     C49138   4.760   7.957  10.126  0.2442  0.1646  0.8779
  357MOL0     C49139   4.787   8.109  10.129  0.3780 -0.5130 -0.9366
  357MOL0     C49140   4.844   8.155  10.270  0.2625  0.3479 -0.3077
  357MOL0     C49141   4.838   8.303  10.297  0.3115 -0.3732  0.2512
  357MOL0     C49142   4.922   8.392  10.210  0.2655 -0.4707 -0.0158
  357MOL0     C49143   4.902   8.536  10.225  0.3454  0.2295  0.8278
  357MOL0     C49144   4.773   8.599  10.155  0.4489  0.5345  0.6675
  357MOL0     N49145   4.770   8.548  10.020 -0.0994 -0.3958 -0.7381
  357MOL0     C49146   4.697   8.443   9.977  0.0351 -0.8773 -0.1970
  357MOL0     C49147   4.711   8.442   9.845  0.3144  0.2409 -0.1830
  357MOL0     C49148   4.634   8.335   9.769 -0.3441 -0.5590  1.7280
  357MOL0     C49149   4.695   8.340   9.623 -0.2619  0.6875  0.4556
  357MOL0     C49150   4.837   8.264   9.621  0.4931  0.1643 -0.0990
  357MOL0     C49151   4.832   8.117   9.634 -0.1821  0.8653  0.5677
  357MOL0     O49152   4.746   8.053   9.541  1.2184 -0.3643  0.3514
  357MOL0     C49153   4.778   8.061   9.405  0.4686  0.4217  0.2471
  357MOL0     C49154   4.899   8.098   9.346 -0.2762  0.4365 -0.1096
  357MOL0     C49155   4.916   8.083   9.206  1.0534  0.6865  0.2845
  357MOL0     C49156   5.046   8.138   9.147  0.2796  1.0366 -0.0873
  357MOL0     C49157   4.809   8.027   9.124  0.0077 -0.2921 -0.0930
  357MOL0     C49158   4.823   8.024   8.975 -0.5504 -0.2895 -1.0726
  357MOL0     O49159   4.704   8.017   8.912 -0.1541  0.5049 -0.2967
  357MOL0     C49160   4.701   8.022   8.778 -0.1484  0.1452 -0.1806
  357MOL0     C49161   4.648   7.914   8.711 -0.0799  0.2017  0.4173
  357MOL0     C49162   4.622   7.921   8.574 -0.5575  0.3955 -0.8641
  357MOL0     C49163   4.662   8.028   8.496 -1.1623 -0.6095  0.7504
  357MOL0     O49164   4.659   8.013   8.360 -0.3490 -0.4332 -0.2265
  357MOL0     C49165   4.736   8.118   8.290  0.1289  0.2823 -0.5044
  357MOL0     C49166   4.716   8.096   8.144  0.4696  0.5749  0.1021
  357MOL0     C49167   4.814   8.001   8.084  1.0930 -0.7782 -0.6499
  357MOL0     C49168   4.950   8.063   8.086  0.6826 -0.2578  0.3463
  357MOL0     C49169   5.044   8.013   7.973 -0.2031  0.3429 -0.3598
  357MOL0     C49170   5.188   8.076   7.992  0.5310  0.7659 -0.3276
  357MOL0     C49171   5.279   7.992   8.091 -0.2598  0.3118 -0.5570
  357MOL0     C49172   5.303   7.841   8.043  0.2611 -1.1172 -0.0621
  357MOL0    Cl49173   5.344   7.837   7.878 -0.1228 -1.2030 -0.3606
  357MOL0     C49174   4.717   8.147   8.560 -0.2188 -0.0897 -0.1520
  357MOL0     C49175   4.745   8.134   8.697 -0.7070  0.2564 -0.3124
  357MOL0     O49176   4.937   8.006   8.922 -0.1994  0.3316 -0.2449
  357MOL0     C49177   4.684   8.004   9.186 -0.4377 -0.0585 -0.6831
  357MOL0     C49178   4.666   8.019   9.328  0.9548 -0.1174  0.3090
  357MOL0     N49179   4.782   8.556   9.800  0.0541 -0.2850  0.0295
  357MOL0     N49180   4.819   8.616   9.911 -0.2325  0.2722 -0.4242
  357MOL0     C49181   4.579   7.829   9.739  0.3823 -0.3838  0.0209
  357MOL0     C49182   4.518   7.794   9.614 -0.6385  0.7491  0.1307
  357MOL0     C49183   4.196   7.850   9.276 -0.5245  0.5822 -0.3854
  357MOL0     C49184   4.269   7.914   9.177  0.4629  1.2699  0.0440
  357MOL0     C49185   4.222   7.938   9.053  0.1332 -0.4104 -0.1617
  357MOL0     C49186   4.092   7.907   9.009 -0.3999  0.0420 -0.8278
  357MOL0     O49187   4.037   7.912   8.881  1.0411 -0.2675  0.2330
  357MOL0     C49188   4.097   7.960   8.759  0.5898 -0.5339 -0.1248
  357MOL0     C49189   4.142   7.846   8.664  0.2641 -0.0737 -0.6473
  357MOL0     C49190   4.223   7.909   8.545 -0.4620  1.1306 -0.3845
  357MOL0     C49191   4.237   7.803   8.428  0.0623 -0.5186  0.3269
  357MOL0     C49192   4.106   7.795   8.359  0.1820 -0.0841 -0.0795
  357MOL0     C49193   3.994   7.803   8.320 -0.3221  0.0746  0.2519
  357MOL0     C49194   4.017   7.853   9.113  0.0758  0.3366  0.4795
  357MOL0     C49195   4.065   7.808   9.233  0.6279 -0.0571 -0.4612
  357MOL0     C49196   3.963   7.730   9.312 -0.0175 -0.1019 -0.2969
  357MOL0     H49197   4.323   8.067   9.583  0.2727  1.3952  0.3347
  357MOL0     H49198   4.417   8.117   9.799  1.5344 -0.7028 -0.2767
  357MOL0     H49199   4.774   7.885   9.918 -0.0091  0.5053 -0.5806
  357MOL0     H49200   4.647   7.805  10.016  1.8605 -0.3720  1.0417
  357MOL0     H49201   4.695   7.917  10.204  1.4574 -2.9819  0.3999
  357MOL0     H49202   4.851   7.903  10.153 -0.2174 -1.3554 -0.4894
  357MOL0     H49203   4.859   8.137  10.052  0.3226  0.9697 -0.4883
  357MOL0     H49204   4.693   8.161  10.113 -0.2199 -0.7084  1.4734
  357MOL0     H49205   4.777   8.105  10.341  1.5307 -1.9713 -0.6514
  357MOL0     H49206   4.945   8.115  10.282 -0.4142 -0.7569  2.6707
  357MOL0     H49207   4.879   8.320  10.397  2.4773 -4.6264  0.2958
  357MOL0     H49208   4.736   8.342  10.289  0.0107 -1.2662 -0.4256
  357MOL0     H49209   5.023   8.376  10.249  0.3491  1.5014  0.6826
  357MOL0     H49210   4.928   8.352  10.109 -1.8746 -0.6271 -0.1255
  357MOL0     H49211   4.995   8.579  10.186  1.9754 -3.0851  0.6692
  357MOL0     H49212   4.894   8.559  10.332 -0.0422  0.4189  0.7588
  357MOL0     H49213   4.676   8.575  10.201  0.0655 -2.2213 -1.3607
  357MOL0     H49214   4.788   8.707  10.164  0.4627  0.7003 -1.0719
  357MOL0     H49215   4.647   8.372  10.041 -4.2777  1.6207 -0.4219
  357MOL0     H49216   4.531   8.367   9.749  1.0213  3.6044  0.3151
  357MOL0     H49217   4.651   8.237   9.814  1.0979 -2.0918 -1.7999
  357MOL0     H49218   4.633   8.277   9.558 -1.3235 -2.1055  3.9033
  357MOL0     H49219   4.706   8.439   9.579  0.2839 -0.6221 -2.6338
  357MOL0     H49220   4.875   8.289   9.521  4.4546  0.1431  1.2392
  357MOL0     H49221   4.909   8.314   9.685 -2.6535  2.7415  1.7045
  357MOL0     H49222   4.933   8.077   9.621 -0.6320 -0.0228 -0.4388
  357MOL0     H49223   4.801   8.104   9.738  0.4725  0.0487  0.6715
  357MOL0     H49224   4.981   8.119   9.414 -0.9102  1.1069  0.4776
  357MOL0     H49225   5.103   8.179   9.231 -0.3610 -2.2048  2.0852
  357MOL0     H49226   5.036   8.214   9.068  4.1289  1.7938 -0.0429
  357MOL0     H49227   5.110   8.062   9.101  0.1979  1.2233 -0.5132
  357MOL0     H49228   4.625   7.819   8.758 -0.1930 -0.5543 -1.1174
  357MOL0     H49229   4.574   7.830   8.538  0.6072 -0.8873  0.6449
  357MOL0     H49230   4.708   8.218   8.326  1.0251 -0.3686  2.2410
  357MOL0     H49231   4.842   8.097   8.307  0.1759 -2.3257 -3.2111
  357MOL0     H49232   4.617   8.052   8.132  1.1143 -0.8912  0.0093
  357MOL0     H49233   4.713   8.190   8.088  2.0707  1.7707  1.8864
  357MOL0     H49234   4.783   7.969   7.984 -0.7585  1.6539 -0.9387
  357MOL0     H49235   4.820   7.903   8.132  0.1725 -0.7561 -0.4767
  357MOL0     H49236   4.997   8.043   8.183 -0.1254  1.4820  1.1309
  357MOL0     H49237   4.941   8.171   8.074  0.6481 -0.3420 -0.3969
  357MOL0     H49238   5.033   7.905   7.983  1.4970  0.2802  1.3870
  357MOL0     H49239   5.000   8.034   7.875 -0.6153  1.1698 -0.0089
  357MOL0     H49240   5.168   8.177   8.031  1.6641  1.1085 -0.6050
  357MOL0     H49241   5.239   8.092   7.897  4.6648 -3.6732  0.7866
  357MOL0     H49242   5.228   7.992   8.188  1.3641 -1.3671  0.3454
  357MOL0     H49243   5.374   8.044   8.100 -1.0389  1.5641  0.8864
  357MOL0     H49244   5.223   7.772   8.075 -0.4075  0.8306  2.8288
  357MOL0     H49245   5.388   7.809   8.104  1.7049  2.1232 -0.2005
  357MOL0     H49246   4.760   8.238   8.520  1.1482  0.0842  1.6427
  357MOL0     H49247   4.772   8.217   8.762  0.8299 -1.4713  1.3860
  357MOL0     H49248   4.598   7.993   9.120 -0.4068  3.3395 -1.4499
  357MOL0     H49249   4.571   7.993   9.373 -0.4428  1.1956 -1.7428
  357MOL0     H49250   4.654   7.761   9.778  1.5895 -0.0754 -1.6564
  357MOL0     H49251   4.572   7.726   9.549  1.4310  0.7650  1.7187
  357MOL0     H49252   4.369   7.948   9.205 -0.3650  1.6772  2.7952
  357MOL0     H49253   4.284   7.988   8.979 -0.1758 -1.7383 -1.3580
  357MOL0     H49254   4.030   8.022   8.700  0.8825  1.2981  1.3918
  357MOL0     H49255   4.186   8.019   8.782 -1.5922  2.6112  0.8266
  357MOL0     H49256   4.051   7.796   8.628  0.4563 -0.1104 -1.0954
  357MOL0     H49257   4.206   7.775   8.716  3.0084  2.1139 -0.8236
  357MOL0     H49258   4.186   8.006   8.513 -1.8277  1.0474  0.8338
  357MOL0     H49259   4.322   7.927   8.587 -0.4324 -2.2129  1.3123
  357MOL0     H49260   4.270   7.716   8.484  1.2859 -1.0456 -1.1508
  357MOL0     H49261   4.316   7.830   8.357 -0.2728 -1.6282 -0.4905
  357MOL0     H49262   3.897   7.811   8.275 -2.0764 -4.0779  2.7342
  357MOL0     H49263   3.916   7.822   9.087 -0.0383  2.1821 -1.6042
  357MOL0     H49264   4.008   7.668   9.391 -1.3249 -1.6226 -0.6833
  357MOL0     H49265   3.890   7.798   9.354 -1.6774 -0.9557 -1.6809
  357MOL0     H49266   3.913   7.662   9.242  0.7501 -0.0124 -0.9473
  358MOL0     O49267  11.517   2.712   7.791 -0.0440 -0.0768  0.0230
  358MOL0     C49268  11.441   2.630   7.845 -0.4945 -0.5069 -0.2358
  358MOL0     O49269  11.417   2.626   7.985 -0.3407  0.1083  0.7402
  358MOL0     C49270  11.496   2.705   8.066 -0.7931  0.9478 -0.6346
  358MOL0     C49271  11.571   2.659   8.168  0.2529  0.4227  0.3452
  358MOL0     C49272  11.650   2.747   8.249 -0.7753  0.5542 -0.3964
  358MOL0     C49273  11.659   2.884   8.224  0.2226 -0.1520  0.1072
  358MOL0     O49274  11.737   2.974   8.297 -0.2329 -0.3941  0.2817
  358MOL0     C49275  11.852   2.920   8.366  0.7433  0.0465 -0.2846
  358MOL0     C49276  11.980   3.008   8.344 -0.3032  0.4553 -0.0682
  358MOL0     C49277  11.961   3.130   8.434 -0.2769  0.1855  0.5810
  358MOL0     C49278  11.968   3.097   8.576 -0.4964  1.1293 -0.4495
  358MOL0     C49279  11.875   3.177   8.671  0.6538  0.3342  1.3749
  358MOL0     C49280  11.883   3.155   8.819 -0.2099 -0.4665 -0.7330
  358MOL0     C49281  11.808   3.023   8.857  0.2249  1.0870 -1.3074
  358MOL0     C49282  11.833   2.970   8.999  0.4138 -1.1693 -0.5422
  358MOL0     N49283  11.972   3.008   9.041 -0.3361  0.0051  0.9715
  358MOL0     C49284  12.013   3.110   9.131  0.2592 -0.7403  0.5427
  358MOL0     C49285  12.145   3.102   9.150  0.9202  0.3077 -0.2975
  358MOL0     C49286  12.231   3.191   9.231 -1.8635 -0.2161 -0.5458
  358MOL0     C49287  12.265   3.132   9.364  0.0870  0.0971 -0.6208
  358MOL0     C49288  12.366   3.220   9.441  0.3436  0.0120  0.3495
  358MOL0     C49289  12.394   3.161   9.574 -0.5623 -1.1504  0.0560
  358MOL0     O49290  12.321   3.222   9.687 -0.4166  0.5755 -0.1336
  358MOL0     C49291  12.222   3.157   9.758 -0.1890 -0.3070  1.1390
  358MOL0     C49292  12.169   3.037   9.717  0.4366 -0.5517 -0.4386
  358MOL0     C49293  12.054   2.983   9.782  0.8990 -0.2422 -0.1302
  358MOL0     C49294  11.992   2.850   9.716  0.6566 -1.1855 -0.4247
  358MOL0     C49295  12.004   3.030   9.905 -0.3761 -0.5606 -0.7121
  358MOL0     C49296  11.885   2.981   9.985  0.1826  0.1190  0.2978
  358MOL0     O49297  11.835   3.062  10.086 -0.5981 -0.2819 -0.1572
  358MOL0     C49298  11.697   3.062  10.102 -0.6423 -0.2521  0.0886
  358MOL0     C49299  11.631   3.183  10.096  0.7175 -0.0010  0.7449
  358MOL0     C49300  11.490   3.187  10.114 -0.0662  0.8087 -0.0661
  358MOL0     C49301  11.418   3.071  10.159 -1.2050 -0.4588 -0.6858
  358MOL0     O49302  11.284   3.058  10.174  0.4171  0.1425 -0.2430
  358MOL0     C49303  11.235   3.049  10.308 -0.4457 -0.3480  0.3615
  358MOL0     C49304  11.153   3.174  10.347  1.0223 -0.3265 -0.0887
  358MOL0     C49305  11.220   3.318  10.382 -0.4666 -0.1535 -0.3202
  358MOL0     C49306  11.159   3.371  10.508 -0.6049  0.2235  0.4807
  358MOL0     C49307  11.213   3.303  10.642 -0.6763 -0.9830 -0.9774
  358MOL0     C49308  11.143   3.373  10.763  0.2954 -0.0324 -0.0471
  358MOL0     C49309  11.215   3.511  10.788 -0.9828  0.6541  0.1837
  358MOL0     C49310  11.147   3.599  10.880 -0.9809  0.1527 -0.3857
  358MOL0    Cl49311  10.990   3.631  10.810 -0.3321 -0.1329  0.1179
  358MOL0     C49312  11.492   2.959  10.174 -0.6465  0.7136  0.6358
  358MOL0     C49313  11.632   2.948  10.149  0.8226 -0.2992  0.4392
  358MOL0     O49314  11.829   2.877   9.945 -0.3935 -0.0020 -0.6312
  358MOL0     C49315  12.065   3.150   9.939 -0.7334  1.3781 -0.3107
  358MOL0     C49316  12.171   3.208   9.876  0.5785  0.2462  0.0253
  358MOL0     N49317  12.183   2.977   9.111  0.0112  0.6552 -0.5097
  358MOL0     N49318  12.088   2.923   9.041 -0.4517 -0.8613 -0.9786
  358MOL0     C49319  11.567   2.930   8.130  0.0904 -0.9883 -0.3206
  358MOL0     C49320  11.490   2.845   8.056  0.2608 -0.9017  0.7958
  358MOL0     C49321  11.358   2.539   7.759 -0.4007  0.0408 -1.2336
  358MOL0     C49322  11.226   2.562   7.748  0.3961 -1.0425 -0.0697
  358MOL0     C49323  11.140   2.500   7.656  0.9227 -0.4816  0.5208
  358MOL0     C49324  11.177   2.393   7.583  0.5414  0.4296 -0.5841
  358MOL0     O49325  11.088   2.327   7.503  0.2632  0.3587  0.0114
  358MOL0     C49326  10.944   2.343   7.505  0.6085 -0.2531 -0.3815
  358MOL0     C49327  10.880   2.226   7.434 -0.2705 -0.4412 -0.3381
  358MOL0     C49328  10.904   2.210   7.294 -0.4243 -0.2163  0.2750
  358MOL0     C49329  10.844   2.326   7.220  0.2212  0.6410 -0.1107
  358MOL0     C49330  10.854   2.304   7.080  0.1733 -0.6395  0.4564
  358MOL0     C49331  10.859   2.276   6.958 -0.7795  1.0348  0.0311
  358MOL0     C49332  11.314   2.360   7.585 -0.1970  0.2016 -0.1050
  358MOL0     C49333  11.406   2.435   7.670 -0.1866 -0.4216 -0.3371
  358MOL0     C49334  11.564   2.410   7.668  1.0357  0.5094  0.1899
  358MOL0     H49335  11.581   2.551   8.178  0.3052  0.3972  0.0572
  358MOL0     H49336  11.696   2.707   8.339 -1.5574 -2.3153 -1.1540
  358MOL0     H49337  11.888   2.832   8.312 -2.4051 -1.0971 -0.7379
  358MOL0     H49338  11.840   2.889   8.470  1.3997 -0.2579 -0.2970
  358MOL0     H49339  12.065   2.947   8.374 -0.9493 -0.8072 -0.7367
  358MOL0     H49340  11.997   3.049   8.244 -0.8184  1.3398  0.1909
  358MOL0     H49341  12.044   3.199   8.415  0.3023 -1.0268 -1.6480
  358MOL0     H49342  11.864   3.179   8.418  1.1075  2.7445 -0.4609
  358MOL0     H49343  11.957   2.994   8.612 -0.7496  1.7164  1.2900
  358MOL0     H49344  12.066   3.112   8.623 -2.1527 -0.9821  4.4002
  358MOL0     H49345  11.770   3.167   8.644  0.0800  2.5855  2.5003
  358MOL0     H49346  11.892   3.283   8.652 -2.6530  0.3394 -2.7962
  358MOL0     H49347  11.989   3.150   8.846 -0.1843 -1.7692 -1.0326
  358MOL0     H49348  11.844   3.240   8.877 -0.8592 -1.8197  0.9044
  358MOL0     H49349  11.832   2.948   8.781 -2.3395  0.1080 -1.2412
  358MOL0     H49350  11.700   3.030   8.837 -0.0652 -0.5739 -0.4886
  358MOL0     H49351  11.755   3.015   9.060 -0.2439 -2.2493 -0.5480
  358MOL0     H49352  11.834   2.860   9.001  2.0579 -1.1904 -0.5034
  358MOL0     H49353  11.967   3.203   9.164  1.1675  0.7188 -2.0106
  358MOL0     H49354  12.183   3.288   9.243  0.9870  1.2303 -0.0292
  358MOL0     H49355  12.323   3.209   9.174 -0.8766 -0.3110  0.9774
  358MOL0     H49356  12.170   3.123   9.416 -0.9451 -3.4993 -2.7334
  358MOL0     H49357  12.311   3.034   9.346 -1.1828 -0.0682 -3.5926
  358MOL0     H49358  12.451   3.233   9.374 -0.2606 -0.8316 -0.6168
  358MOL0     H49359  12.316   3.316   9.451 -0.7057 -0.5853  1.1330
  358MOL0     H49360  12.399   3.051   9.580  0.4286 -1.0608  1.5869
  358MOL0     H49361  12.499   3.188   9.583 -1.2285  2.0529 -0.8599
  358MOL0     H49362  12.186   3.013   9.613 -1.2995 -1.5611 -0.5312
  358MOL0     H49363  11.883   2.843   9.726  0.4115  2.0799  0.3522
  358MOL0     H49364  12.040   2.766   9.768  0.2174 -0.3906  1.3120
  358MOL0     H49365  12.015   2.834   9.610  1.3605  2.8670 -1.0623
  358MOL0     H49366  11.694   3.266  10.064  1.4516  0.1488  2.4530
  358MOL0     H49367  11.439   3.282  10.106 -1.8979 -0.0120  1.2558
  358MOL0     H49368  11.151   2.979  10.303 -1.6084  1.1045 -1.2952
  358MOL0     H49369  11.306   3.028  10.390  1.3466  0.9810 -0.7780
  358MOL0     H49370  11.079   3.190  10.267  0.1897  0.8740  0.8850
  358MOL0     H49371  11.092   3.155  10.435  0.8341 -1.4213 -0.4426
  358MOL0     H49372  11.230   3.389  10.300  2.0391  2.8474  2.3208
  358MOL0     H49373  11.320   3.290  10.414 -1.5945 -1.4108  2.4252
  358MOL0     H49374  11.051   3.357  10.494 -0.1367 -2.9421 -1.0655
  358MOL0     H49375  11.178   3.478  10.511 -0.0621  0.1220  0.6784
  358MOL0     H49376  11.183   3.198  10.636 -1.1504 -0.8682 -0.7463
  358MOL0     H49377  11.322   3.310  10.643 -0.5585 -2.1931  1.2660
  358MOL0     H49378  11.160   3.309  10.849 -1.2526  1.1147  1.1731
  358MOL0     H49379  11.034   3.370  10.750  0.3652 -1.0210 -0.5313
  358MOL0     H49380  11.229   3.569  10.696 -1.1355  0.1818 -0.1421
  358MOL0     H49381  11.313   3.482  10.827 -2.6821 -1.7389  3.1087
  358MOL0     H49382  11.205   3.692  10.880 -0.0770 -0.3660 -2.2650
  358MOL0     H49383  11.141   3.550  10.978  1.4237 -2.0264 -1.2381
  358MOL0     H49384  11.436   2.870  10.197 -0.9854  0.2799 -1.6235
  358MOL0     H49385  11.691   2.863  10.181  2.4657  0.2980 -0.8375
  358MOL0     H49386  12.019   3.214  10.014  0.4226 -0.3066  1.9393
  358MOL0     H49387  12.199   3.311   9.895  0.0274  0.8094 -1.9344
  358MOL0     H49388  11.575   3.034   8.101 -2.9501 -0.9007 -1.2520
  358MOL0     H49389  11.438   2.902   7.979  0.3690  0.2495  1.5520
  358MOL0     H49390  11.194   2.649   7.806  0.9791  0.5328 -2.0118
  358MOL0     H49391  11.036   2.526   7.667  0.5166 -1.8047  0.0735
  358MOL0     H49392  10.911   2.355   7.609 -1.8370 -0.4432 -1.0818
  358MOL0     H49393  10.906   2.427   7.446  1.3609 -1.7157 -3.1096
  358MOL0     H49394  10.772   2.233   7.444 -0.0996  0.8690  0.9500
  358MOL0     H49395  10.918   2.139   7.489 -0.5176 -1.8709 -2.3299
  358MOL0     H49396  11.009   2.189   7.272 -1.0556 -2.2323 -1.1644
  358MOL0     H49397  10.854   2.121   7.253 -2.5050  0.6170  0.9066
  358MOL0     H49398  10.899   2.417   7.245  3.2031 -0.9200 -0.6541
  358MOL0     H49399  10.740   2.337   7.253 -0.0638  1.6664 -1.2868
  358MOL0     H49400  10.865   2.234   6.860  1.8963  2.2213 -0.4068
  358MOL0     H49401  11.347   2.274   7.527 -4.9771  0.0361 -3.0737
  358MOL0     H49402  11.613   2.508   7.664  1.3363  0.5212  2.6617
  358MOL0     H49403  11.602   2.360   7.758  0.9781  0.1396  0.0095
  358MOL0     H49404  11.586   2.340   7.587 -0.7475  0.9809 -0.7521
  359MOL0     O49405   6.587   7.824  11.034 -0.6657  0.2835 -0.0115
  359MOL0     C49406   6.466   7.811  11.045 -0.0469 -1.0104  0.8610
  359MOL0     O49407   6.396   7.696  11.022 -0.2238 -0.4065  0.6070
  359MOL0     C49408   6.459   7.573  11.031  0.1744 -0.4374 -0.2622
  359MOL0     C49409   6.402   7.467  10.964  0.5589  0.7597  0.1937
  359MOL0     C49410   6.446   7.337  10.982 -0.7864  0.1137  0.8794
  359MOL0     C49411   6.558   7.320  11.063  0.7739 -0.1836 -0.0471
  359MOL0     O49412   6.583   7.186  11.064 -0.0294 -0.8477 -0.6757
  359MOL0     C49413   6.716   7.141  11.088 -0.2026  0.5662  0.1485
  359MOL0     C49414   6.746   7.117  11.237  0.0659 -1.0897  0.9001
  359MOL0     C49415   6.851   7.003  11.249  0.2625 -0.8727  0.5922
  359MOL0     C49416   6.996   7.055  11.230 -0.9844  0.4740 -0.7055
  359MOL0     C49417   7.099   6.954  11.277 -0.3891  0.7257 -0.5899
  359MOL0     C49418   7.222   7.024  11.336  0.1608 -0.2309  1.0415
  359MOL0     C49419   7.343   6.939  11.393 -0.5548  0.0067  0.5025
  359MOL0     C49420   7.312   6.855  11.515  0.9690  0.2912 -0.0869
  359MOL0     N49421   7.253   6.922  11.631  0.4537  0.8822  0.4631
  359MOL0     C49422   7.297   7.035  11.700  0.8202  0.3539 -0.2240
  359MOL0     C49423   7.212   7.055  11.804 -0.2045 -0.6827  0.2087
  359MOL0     C49424   7.234   7.157  11.915  0.4629  0.1980  0.4276
  359MOL0     C49425   7.117   7.255  11.901 -0.9895  0.6031  0.0196
  359MOL0     C49426   7.100   7.340  12.026  0.0102  0.5322  0.3524
  359MOL0     C49427   7.039   7.273  12.153 -0.3979 -0.3040  0.1044
  359MOL0     O49428   6.918   7.225  12.104 -0.0015  0.0140 -0.1278
  359MOL0     C49429   6.811   7.303  12.094  0.3427  0.4659  0.5099
  359MOL0     C49430   6.694   7.259  12.025 -0.1442 -0.7340  0.5319
  359MOL0     C49431   6.578   7.336  12.002 -0.4010 -0.6656 -0.3322
  359MOL0     C49432   6.473   7.273  11.911  0.5149  0.0383 -0.7179
  359MOL0     C49433   6.560   7.459  12.071 -0.0399  0.5070 -0.5560
  359MOL0     C49434   6.448   7.556  12.066 -0.0036 -0.4504  0.3769
  359MOL0     O49435   6.451   7.664  12.153 -0.0985  0.5117  0.6390
  359MOL0     C49436   6.350   7.758  12.130  0.2991  0.8453  0.0086
  359MOL0     C49437   6.364   7.855  12.027 -0.0290 -0.3690 -0.1618
  359MOL0     C49438   6.268   7.943  11.995 -0.2197  1.0524  0.5281
  359MOL0     C49439   6.149   7.945  12.069 -0.4449 -0.2427  0.4417
  359MOL0     O49440   6.053   8.034  12.025  0.4337  0.2935  0.0287
  359MOL0     C49441   6.040   8.164  12.095  0.6253  0.4997 -0.6877
  359MOL0     C49442   5.930   8.149  12.200  0.8362  0.2792  0.6206
  359MOL0     C49443   5.787   8.176  12.140  0.8139  0.3266 -0.3943
  359MOL0     C49444   5.745   8.317  12.103  0.4810 -0.0072 -0.0057
  359MOL0     C49445   5.687   8.323  11.965  0.4746 -0.2541  0.3630
  359MOL0     C49446   5.627   8.459  11.934 -0.3455  0.1842  0.3822
  359MOL0     C49447   5.564   8.464  11.800  0.6611 -0.2011  0.2870
  359MOL0     C49448   5.496   8.597  11.775  0.0743  0.3515  0.3938
  359MOL0    Cl49449   5.616   8.721  11.772 -0.0999  0.1484  0.0257
  359MOL0     C49450   6.131   7.859  12.174 -0.7089 -0.6089 -0.9204
  359MOL0     C49451   6.235   7.773  12.205 -0.0134  0.0860 -0.2174
  359MOL0     O49452   6.359   7.536  11.990  0.1434 -0.0904  0.2279
  359MOL0     C49453   6.667   7.496  12.152  1.1865 -0.3194  0.4897
  359MOL0     C49454   6.789   7.431  12.154 -0.1719 -0.2104 -0.3182
  359MOL0     N49455   7.127   6.949  11.796 -0.4979  0.0976  0.1459
  359MOL0     N49456   7.151   6.869  11.696  0.1224  0.8565  0.4599
  359MOL0     C49457   6.626   7.419  11.126 -0.5479  0.5882  0.0639
  359MOL0     C49458   6.572   7.551  11.104  0.2585 -0.4861 -0.2974
  359MOL0     C49459   6.385   7.931  11.089 -0.2229  0.6873 -0.3090
  359MOL0     C49460   6.244   7.927  11.088  0.3367  0.5191  0.1314
  359MOL0     C49461   6.169   8.034  11.109 -1.1901  0.0432 -0.1080
  359MOL0     C49462   6.228   8.168  11.130 -0.1119  0.6280  0.7633
  359MOL0     O49463   6.155   8.283  11.149 -0.0741  0.0363 -0.7432
  359MOL0     C49464   6.004   8.271  11.144 -0.6332 -0.8749 -0.4725
  359MOL0     C49465   5.944   8.408  11.175 -0.2291  0.0072  1.0540
  359MOL0     C49466   5.995   8.468  11.311 -0.9809  0.2266 -0.0974
  359MOL0     C49467   5.988   8.625  11.327 -0.4560 -0.5003 -0.1221
  359MOL0     C49468   5.869   8.683  11.265 -0.2755 -0.3814 -0.2896
  359MOL0     C49469   5.771   8.746  11.224 -0.4322 -0.2155 -1.0920
  359MOL0     C49470   6.368   8.181  11.121 -0.2275 -0.6460  0.2101
  359MOL0     C49471   6.450   8.061  11.107  0.0334  0.1007  0.0222
  359MOL0     C49472   6.593   8.085  11.140  0.4763  1.0474  0.1596
  359MOL0     H49473   6.317   7.499  10.905  0.7961  4.0074  1.4246
  359MOL0     H49474   6.390   7.257  10.935 -2.4697  2.2549 -0.9738
  359MOL0     H49475   6.788   7.214  11.052 -0.5635  0.9968  0.2942
  359MOL0     H49476   6.724   7.047  11.032 -1.9126  0.6722 -0.3467
  359MOL0     H49477   6.787   7.210  11.277 -0.2785 -1.2850  1.7253
  359MOL0     H49478   6.654   7.084  11.287 -0.0904  0.0381  1.3759
  359MOL0     H49479   6.839   6.948  11.343  0.7750  1.1462  1.9099
  359MOL0     H49480   6.829   6.934  11.167 -1.1944  1.5485 -1.1887
  359MOL0     H49481   7.010   7.086  11.126 -0.6054  2.6741 -0.0348
  359MOL0     H49482   7.005   7.144  11.293 -0.6525 -1.9244  2.9551
  359MOL0     H49483   7.134   6.891  11.194  0.7022 -1.0240  1.0937
  359MOL0     H49484   7.052   6.884  11.347  0.8746 -0.1325 -0.5501
  359MOL0     H49485   7.261   7.093  11.261 -0.9045 -1.1655 -0.4113
  359MOL0     H49486   7.186   7.090  11.415  0.1442  0.0459  0.8032
  359MOL0     H49487   7.423   7.011  11.412  2.3780 -3.3759  2.0854
  359MOL0     H49488   7.381   6.866  11.322 -0.9334 -1.0826  1.3942
  359MOL0     H49489   7.245   6.774  11.484  1.2343  0.0374 -0.0025
  359MOL0     H49490   7.398   6.806  11.562  1.5603 -0.9241 -2.3071
  359MOL0     H49491   7.384   7.098  11.685  2.0314 -0.8994  1.1421
  359MOL0     H49492   7.337   7.192  11.902 -0.2409  1.5194 -2.5099
  359MOL0     H49493   7.216   7.108  12.011 -2.3874  1.4482  0.6330
  359MOL0     H49494   7.137   7.318  11.814  1.1342 -1.3308 -0.9949
  359MOL0     H49495   7.029   7.195  11.876 -0.8337  0.2285  0.3534
  359MOL0     H49496   7.196   7.385  12.054  1.6746 -2.6580  0.2871
  359MOL0     H49497   7.024   7.415  12.005 -4.2489 -3.4831 -0.1178
  359MOL0     H49498   7.108   7.193  12.182 -0.6772 -0.6941 -0.2877
  359MOL0     H49499   7.036   7.338  12.242  1.6541 -2.9402  2.2882
  359MOL0     H49500   6.681   7.155  11.997 -2.7152 -1.4253  3.7104
  359MOL0     H49501   6.475   7.169  11.876 -1.1113 -0.3215  0.1765
  359MOL0     H49502   6.465   7.336  11.822 -2.1010  1.3690  0.3755
  359MOL0     H49503   6.381   7.291  11.967 -0.0347  0.5804 -1.7701
  359MOL0     H49504   6.452   7.855  11.964  0.3192  1.6982  0.2549
  359MOL0     H49505   6.280   8.012  11.912 -2.8506  0.7696 -0.1568
  359MOL0     H49506   6.133   8.194  12.143  0.4955 -1.8729  1.2679
  359MOL0     H49507   6.019   8.250  12.031 -1.4942  1.8219  1.6499
  359MOL0     H49508   5.931   8.050  12.247  1.0675 -0.0281 -0.0175
  359MOL0     H49509   5.952   8.221  12.278  1.2014 -0.7441  1.4898
  359MOL0     H49510   5.718   8.121  12.205  1.0479 -1.9723 -1.9825
  359MOL0     H49511   5.780   8.116  12.049 -2.5169 -1.3793  0.8334
  359MOL0     H49512   5.828   8.385  12.127 -0.5261  0.5538  2.0890
  359MOL0     H49513   5.671   8.349  12.177  0.9212  1.2230 -0.0727
  359MOL0     H49514   5.759   8.307  11.884 -2.0795 -1.2638 -1.8542
  359MOL0     H49515   5.609   8.248  11.951  0.5449 -0.5855  1.6747
  359MOL0     H49516   5.711   8.529  11.935 -0.6231  0.5306 -0.1126
  359MOL0     H49517   5.564   8.486  12.019 -0.1978 -2.6267  1.4866
  359MOL0     H49518   5.490   8.383  11.789  1.3283 -0.9526  1.1848
  359MOL0     H49519   5.630   8.457  11.713 -0.8245  0.8891 -0.9823
  359MOL0     H49520   5.426   8.623  11.855 -1.4887  1.0467 -1.1376
  359MOL0     H49521   5.441   8.602  11.680 -2.5619  1.3616  1.8737
  359MOL0     H49522   6.039   7.857  12.232 -0.6129  0.4450 -0.7223
  359MOL0     H49523   6.212   7.699  12.281  0.0144  0.4310  0.1304
  359MOL0     H49524   6.673   7.589  12.208  1.4326 -0.5950  0.9241
  359MOL0     H49525   6.856   7.486  12.219 -1.5764  0.9402  0.1825
  359MOL0     H49526   6.713   7.409  11.189 -1.4341  0.7476  1.3485
  359MOL0     H49527   6.609   7.639  11.156 -1.8448  2.0260 -2.7699
  359MOL0     H49528   6.190   7.834  11.077  1.3759 -0.0872  0.0943
  359MOL0     H49529   6.067   8.016  11.141 -1.2700  0.9469  0.1834
  359MOL0     H49530   5.965   8.243  11.046 -0.5865  2.3016 -1.5108
  359MOL0     H49531   5.973   8.198  11.220  1.1860 -3.0191 -1.6509
  359MOL0     H49532   5.835   8.397  11.178 -0.5204  1.4066 -1.6938
  359MOL0     H49533   5.958   8.472  11.088 -1.5913  1.0137  1.5356
  359MOL0     H49534   5.928   8.429  11.388 -1.9644 -0.2022 -1.1507
  359MOL0     H49535   6.098   8.441  11.335 -0.8646 -0.3164 -1.1693
  359MOL0     H49536   6.076   8.673  11.283  1.3085 -1.4463  2.1837
  359MOL0     H49537   5.991   8.647  11.434  0.6397 -1.0953 -0.0293
  359MOL0     H49538   5.695   8.816  11.198  0.6969  1.9137  0.9469
  359MOL0     H49539   6.416   8.278  11.125 -3.3675  1.1519 -1.4331
  359MOL0     H49540   6.659   8.096  11.054  1.5146  0.5402  0.8789
  359MOL0     H49541   6.584   8.173  11.204 -3.1284  0.8269  0.1647
  359MOL0     H49542   6.627   8.000  11.198 -1.5195 -0.2138 -0.4034
  360MOL0     O49543   9.245  10.317  10.867 -0.8405  0.1536  0.3095
  360MOL0     C49544   9.308  10.277  10.968  0.5651 -0.2623  0.1667
  360MOL0     O49545   9.257  10.206  11.071  0.1322 -0.1782 -0.5661
  360MOL0     C49546   9.125  10.184  11.093 -0.4132  0.3541  0.3679
  360MOL0     C49547   9.027  10.274  11.063 -0.2979  0.2354 -0.9638
  360MOL0     C49548   8.896  10.238  11.072  0.8849 -0.1093 -1.0152
  360MOL0     C49549   8.860  10.109  11.121 -0.5292  0.6214  0.7303
  360MOL0     O49550   8.736  10.067  11.136  0.4064  0.2178 -0.3134
  360MOL0     C49551   8.657  10.145  11.228 -1.1513 -0.0673  0.3473
  360MOL0     C49552   8.523  10.141  11.164  0.1638  0.4675  0.2366
  360MOL0     C49553   8.418  10.237  11.238 -0.4226  0.6742 -0.1559
  360MOL0     C49554   8.277  10.240  11.169  0.2451  0.7400 -0.1591
  360MOL0     C49555   8.262  10.349  11.059  0.1544  0.1648  0.2247
  360MOL0     C49556   8.114  10.357  11.009  0.7420  0.3889 -1.3187
  360MOL0     C49557   8.020  10.400  11.117  0.7578  0.2070 -0.0946
  360MOL0     C49558   7.885  10.413  11.052 -0.5499 -0.2336 -0.7203
  360MOL0     N49559   7.792  10.327  11.120  0.3140 -0.1994  0.2499
  360MOL0     C49560   7.725  10.358  11.234 -0.2816 -0.4179 -0.2759
  360MOL0     C49561   7.660  10.236  11.271 -0.3490  0.2370 -0.1568
  360MOL0     C49562   7.577  10.230  11.388 -0.4342  0.4431  0.0303
  360MOL0     C49563   7.653  10.182  11.521 -0.2249  0.0104 -0.7106
  360MOL0     C49564   7.575  10.188  11.639 -0.5586  0.3254  0.3975
  360MOL0     C49565   7.666  10.180  11.762 -0.7055 -0.3914 -0.4775
  360MOL0     O49566   7.587  10.152  11.877 -0.6414 -0.4547 -0.2939
  360MOL0     C49567   7.497  10.234  11.934  1.1443  0.0100  0.3244
  360MOL0     C49568   7.513  10.370  11.939  0.3726  0.3828  0.3281
  360MOL0     C49569   7.418  10.454  11.990  0.9280  0.3559  0.9238
  360MOL0     C49570   7.426  10.604  11.992 -0.1774  0.3882 -0.8661
  360MOL0     C49571   7.311  10.400  12.058  1.0959  0.7004  0.0199
  360MOL0     C49572   7.205  10.475  12.131  0.3877  0.2490 -0.0844
  360MOL0     O49573   7.088  10.407  12.132  0.1282 -0.0346  0.8902
  360MOL0     C49574   6.988  10.446  12.222 -0.3098  0.1077  0.0687
  360MOL0     C49575   6.982  10.388  12.341 -0.4532 -0.2706  0.2638
  360MOL0     C49576   6.887  10.423  12.438 -0.0343  0.5753 -1.0628
  360MOL0     C49577   6.787  10.509  12.413 -0.6401 -0.2114  0.8103
  360MOL0     O49578   6.694  10.532  12.499  0.4614 -0.5836  0.0509
  360MOL0     C49579   6.718  10.546  12.646 -0.2867  0.4920 -0.7518
  360MOL0     C49580   6.584  10.572  12.706  0.6981 -0.5363 -0.2200
  360MOL0     C49581   6.591  10.615  12.848  0.2070 -0.0456  0.9018
  360MOL0     C49582   6.487  10.722  12.870  0.3333  0.7885  0.3667
  360MOL0     C49583   6.501  10.777  13.020  0.5023  1.3064  0.4395
  360MOL0     C49584   6.633  10.846  13.053  1.0303  0.9323  0.1485
  360MOL0     C49585   6.611  10.935  13.177  0.5613  0.0904  0.9949
  360MOL0     C49586   6.524  11.056  13.168 -0.8124 -1.3604 -0.1233
  360MOL0    Cl49587   6.617  11.184  13.071 -0.1753  0.1230 -0.1300
  360MOL0     C49588   6.777  10.553  12.280 -0.1667  0.9295  0.3370
  360MOL0     C49589   6.880  10.529  12.190 -0.3950 -0.7964  0.8960
  360MOL0     O49590   7.235  10.567  12.211  0.1942 -0.7735  0.2186
  360MOL0     C49591   7.300  10.260  12.062  0.1056 -1.1473  0.0805
  360MOL0     C49592   7.388  10.175  12.005  0.0584 -0.2166  0.5293
  360MOL0     N49593   7.679  10.137  11.172  0.7424 -0.9479  0.1473
  360MOL0     N49594   7.756  10.196  11.083  0.4727  0.4199  0.3582
  360MOL0     C49595   8.961  10.012  11.141  0.1428  0.5175  0.3072
  360MOL0     C49596   9.097  10.049  11.126  0.5418 -0.1094  0.2582
  360MOL0     C49597   9.452  10.279  10.967 -0.1024 -0.5052  0.0976
  360MOL0     C49598   9.539  10.178  10.913  0.8340 -0.2894 -0.6048
  360MOL0     C49599   9.673  10.177  10.947  0.6748 -0.4735 -0.2411
  360MOL0     C49600   9.721  10.283  11.024 -0.1999  0.8341 -0.7222
  360MOL0     O49601   9.851  10.267  11.072  0.3788  0.5770  0.0092
  360MOL0     C49602   9.966  10.249  10.983 -0.2093 -0.4565 -0.2510
  360MOL0     C49603  10.044  10.114  10.988  0.4863  0.5250  0.0880
  360MOL0     C49604  10.189  10.109  10.923 -0.8952  0.0098  0.5473
  360MOL0     C49605  10.241   9.964  10.905 -0.1549  0.0329  0.1750
  360MOL0     C49606  10.384   9.965  10.866  0.2658 -0.0118 -0.7269
  360MOL0     C49607  10.493   9.947  10.818  0.0019  0.2351  0.2395
  360MOL0     C49608   9.640  10.388  11.069 -0.3784  0.3159  1.5549
  360MOL0     C49609   9.506  10.375  11.049  0.0923  0.6347  0.6583
  360MOL0     C49610   9.420  10.477  11.124  0.6659  0.0822  0.6237
  360MOL0     H49611   9.059  10.373  11.030  1.6851 -0.5801 -1.7170
  360MOL0     H49612   8.814  10.309  11.065  0.0141 -0.5090  2.8791
  360MOL0     H49613   8.684  10.250  11.247 -1.9022 -0.0352  1.3569
  360MOL0     H49614   8.643  10.098  11.326 -1.9973 -1.6375 -0.5064
  360MOL0     H49615   8.539  10.176  11.062  2.5057  2.7257  1.2588
  360MOL0     H49616   8.484  10.039  11.166 -1.7035  1.1121 -1.0205
  360MOL0     H49617   8.410  10.202  11.341  0.5602  0.0578 -0.2811
  360MOL0     H49618   8.460  10.338  11.240 -0.8001  0.8168  0.7949
  360MOL0     H49619   8.248  10.137  11.146 -0.4493  0.3876  2.0818
  360MOL0     H49620   8.208  10.272  11.247 -3.0001  0.6011 -2.7979
  360MOL0     H49621   8.318  10.317  10.971 -0.3574 -2.5048  0.7899
  360MOL0     H49622   8.301  10.445  11.094 -0.3028 -0.2107  1.8690
  360MOL0     H49623   8.121  10.425  10.923 -2.4116  0.7428 -1.4126
  360MOL0     H49624   8.083  10.259  10.972 -1.2359 -1.0795  3.5185
  360MOL0     H49625   8.046  10.494  11.166  2.8350  0.2860 -1.2410
  360MOL0     H49626   8.012  10.330  11.201 -1.3663  1.5515  0.9235
  360MOL0     H49627   7.850  10.514  11.074 -0.4974 -0.1647 -0.9576
  360MOL0     H49628   7.888  10.404  10.943  0.4823 -2.8095 -0.5528
  360MOL0     H49629   7.738  10.452  11.286  0.6493 -2.3451  3.3513
  360MOL0     H49630   7.481  10.178  11.377 -1.0941  1.2108  1.7611
  360MOL0     H49631   7.542  10.331  11.410  1.0059  0.1691  4.3738
  360MOL0     H49632   7.684  10.077  11.516  2.2915  0.6412  0.2775
  360MOL0     H49633   7.747  10.233  11.540  0.9189 -2.5476  1.1381
  360MOL0     H49634   7.529  10.284  11.666  0.5960  0.7307  1.0263
  360MOL0     H49635   7.496  10.113  11.638 -2.4397  2.2133  0.0122
  360MOL0     H49636   7.742  10.103  11.750  1.0562  0.7940  2.1035
  360MOL0     H49637   7.727  10.270  11.771  0.6499 -1.3692  0.3270
  360MOL0     H49638   7.608  10.411  11.906  0.7114  0.4819  1.3811
  360MOL0     H49639   7.513  10.627  11.930  0.2279  1.0309 -0.0863
  360MOL0     H49640   7.456  10.632  12.094  1.7807 -2.8471 -0.3931
  360MOL0     H49641   7.333  10.644  11.952 -1.7036 -2.9978 -1.0725
  360MOL0     H49642   7.057  10.312  12.359  1.2148  1.6022  1.7205
  360MOL0     H49643   6.876  10.361  12.526  0.1142 -1.7928 -2.6204
  360MOL0     H49644   6.763  10.451  12.676 -0.1153  0.2643 -1.7190
  360MOL0     H49645   6.789  10.628  12.662  1.7209 -1.7302  3.5617
  360MOL0     H49646   6.523  10.637  12.642 -1.1131 -1.6521  0.2936
  360MOL0     H49647   6.523  10.481  12.701  0.5443 -0.3669 -2.3417
  360MOL0     H49648   6.686  10.663  12.872 -0.3967  2.4006 -1.1458
  360MOL0     H49649   6.571  10.529  12.912  0.0767  0.7979  2.0327
  360MOL0     H49650   6.387  10.695  12.832  0.8425  0.9309 -1.1357
  360MOL0     H49651   6.514  10.801  12.800  1.3315  1.8105  1.8739
  360MOL0     H49652   6.415  10.836  13.054 -3.0508 -1.6811 -2.5087
  360MOL0     H49653   6.487  10.683  13.074  2.0406  0.7966 -0.0135
  360MOL0     H49654   6.663  10.904  12.965  2.8373 -0.1569  0.0092
  360MOL0     H49655   6.702  10.765  13.079 -1.7658 -0.7190  3.1774
  360MOL0     H49656   6.704  10.977  13.215 -1.6287  2.0120  4.7490
  360MOL0     H49657   6.559  10.882  13.257 -1.0017 -0.3886 -0.2634
  360MOL0     H49658   6.505  11.089  13.270  1.8654 -2.9644  0.9990
  360MOL0     H49659   6.429  11.040  13.115 -1.8316  2.1369  0.4175
  360MOL0     H49660   6.693  10.620  12.269  0.1886  1.1999 -0.8858
  360MOL0     H49661   6.888  10.571  12.090  1.7655 -3.7492 -0.3095
  360MOL0     H49662   7.220  10.208  12.113  0.8018 -0.7385  1.6650
  360MOL0     H49663   7.357  10.072  11.993 -0.4362  0.1133 -1.3808
  360MOL0     H49664   8.930   9.910  11.165 -0.2459  1.0131  2.0631
  360MOL0     H49665   9.178   9.979  11.148  1.3332  0.8772  0.5763
  360MOL0     H49666   9.496  10.102  10.848  3.5519 -1.5496 -1.0628
  360MOL0     H49667   9.735  10.090  10.927  2.7709  1.0422 -0.6271
  360MOL0     H49668   9.936  10.267  10.880  0.7022  0.0666 -0.4294
  360MOL0     H49669  10.041  10.325  11.006 -2.0458  0.9184  1.5995
  360MOL0     H49670   9.975  10.041  10.944  0.9568 -1.5496  2.5981
  360MOL0     H49671  10.055  10.092  11.094 -1.0271 -0.1397  0.1282
  360MOL0     H49672  10.177  10.165  10.830  0.6461 -0.2281  0.1780
  360MOL0     H49673  10.266  10.159  10.981 -1.3682  0.9628  0.3804
  360MOL0     H49674  10.192   9.917  10.818  1.2090 -1.3255  0.0948
  360MOL0     H49675  10.230   9.904  10.995  0.4597 -0.2080  0.0953
  360MOL0     H49676  10.590   9.935  10.775 -0.5112 -1.9166 -0.4609
  360MOL0     H49677   9.686  10.465  11.130 -0.8156  0.7039  1.3998
  360MOL0     H49678   9.481  10.542  11.187  1.6398  1.8076 -1.9805
  360MOL0     H49679   9.371  10.536  11.047 -2.1347 -0.2659  1.9895
  360MOL0     H49680   9.338  10.427  11.177 -2.2729  3.1469 -0.6597
  361MOL0     O49681   7.942   4.408   8.126 -0.0018 -0.1869  0.0775
  361MOL0     C49682   7.857   4.384   8.042 -0.0162 -0.6549 -0.1120
  361MOL0     O49683   7.724   4.431   8.050  0.6598  0.7703 -0.1625
  361MOL0     C49684   7.628   4.379   7.963  0.0761 -0.0036 -0.3961
  361MOL0     C49685   7.520   4.303   8.008 -0.3502 -0.7203  0.1408
  361MOL0     C49686   7.420   4.250   7.929  0.6653 -0.0583  0.6290
  361MOL0     C49687   7.427   4.274   7.792  0.2041  1.2010  0.0266
  361MOL0     O49688   7.324   4.210   7.714 -0.1575 -0.8814 -0.3531
  361MOL0     C49689   7.300   4.259   7.575  0.1607 -0.1965  0.7755
  361MOL0     C49690   7.213   4.386   7.584  0.1257 -0.5965  0.6260
  361MOL0     C49691   7.063   4.356   7.624  0.3410 -0.0262 -0.2651
  361MOL0     C49692   6.963   4.432   7.547  0.7705 -0.2508  0.1377
  361MOL0     C49693   6.810   4.388   7.585 -1.1239  0.5593  0.8091
  361MOL0     C49694   6.699   4.442   7.494  0.0953  0.7044 -0.4380
  361MOL0     C49695   6.715   4.401   7.342  0.5196 -0.3685  0.9324
  361MOL0     C49696   6.581   4.427   7.274 -0.3249  0.0822  0.1564
  361MOL0     N49697   6.583   4.398   7.124  0.7611  0.2886 -0.7202
  361MOL0     C49698   6.681   4.358   7.038  0.1197 -0.7130 -0.5271
  361MOL0     C49699   6.620   4.343   6.916 -0.2728 -0.6827  0.4480
  361MOL0     C49700   6.711   4.291   6.803 -0.6220  0.1587  0.4797
  361MOL0     C49701   6.682   4.138   6.778 -0.0777 -0.0314 -0.3664
  361MOL0     C49702   6.814   4.056   6.801 -0.0193 -1.0548  0.4447
  361MOL0     C49703   6.933   4.084   6.711 -0.4665  1.3203 -0.1753
  361MOL0     O49704   7.049   4.023   6.778 -0.7528  0.2206 -0.2200
  361MOL0     C49705   7.178   4.002   6.722 -0.1353 -0.7058  0.7698
  361MOL0     C49706   7.267   3.906   6.771 -0.6664  0.8466  0.4708
  361MOL0     C49707   7.391   3.880   6.707  0.6403  0.4234  0.1468
  361MOL0     C49708   7.479   3.771   6.770 -0.3046  0.1008  0.0018
  361MOL0     C49709   7.434   3.957   6.597 -0.5546 -0.3931  0.2486
  361MOL0     C49710   7.571   3.946   6.532 -0.0029 -0.0720  0.4012
  361MOL0     O49711   7.611   4.058   6.467 -0.1619 -0.3414  0.4292
  361MOL0     C49712   7.698   4.065   6.353 -0.2407  0.1895 -0.3500
  361MOL0     C49713   7.762   4.181   6.312  0.4684 -0.5796 -0.1356
  361MOL0     C49714   7.839   4.192   6.191 -0.2583  0.6105  0.5433
  361MOL0     C49715   7.864   4.072   6.121  0.2515 -0.9967 -0.1233
  361MOL0     O49716   7.923   4.056   6.003 -0.4606 -0.6573  0.1537
  361MOL0     C49717   8.001   4.172   5.960 -0.5089  0.2505  0.3769
  361MOL0     C49718   8.064   4.166   5.817  0.8927 -0.1857 -0.6768
  361MOL0     C49719   7.954   4.165   5.704  0.6427 -0.6390 -0.6057
  361MOL0     C49720   8.019   4.112   5.576  0.6111  0.1003 -0.5491
  361MOL0     C49721   7.910   4.094   5.473 -0.1477 -0.0061  0.4153
  361MOL0     C49722   7.967   4.051   5.342  0.1366  0.4257 -1.0732
  361MOL0     C49723   7.865   4.075   5.231  0.3576  1.2479 -0.2342
  361MOL0     C49724   7.932   4.053   5.101 -0.7634 -1.4675  0.6642
  361MOL0    Cl49725   8.001   3.885   5.080  0.3151  0.6127 -0.2611
  361MOL0     C49726   7.813   3.956   6.167  0.3235  0.0815  0.6500
  361MOL0     C49727   7.742   3.947   6.284  0.3801 -1.7728 -0.5724
  361MOL0     O49728   7.626   3.835   6.533  0.4652 -0.2930  0.0474
  361MOL0     C49729   7.349   4.058   6.553 -0.0846 -0.1928  0.6155
  361MOL0     C49730   7.224   4.081   6.615 -0.2486  0.8904  0.7824
  361MOL0     N49731   6.487   4.377   6.922  0.4814  0.0306 -0.2282
  361MOL0     N49732   6.462   4.397   7.051 -0.3906  0.6484 -0.6595
  361MOL0     C49733   7.537   4.357   7.742  0.8768  0.2440  0.8122
  361MOL0     C49734   7.638   4.411   7.825 -0.8520 -0.3509 -0.2732
  361MOL0     C49735   7.909   4.300   7.936 -0.6701 -0.0278  0.8213
  361MOL0     C49736   7.900   4.161   7.943 -0.6275  0.4007 -0.8696
  361MOL0     C49737   7.978   4.081   7.866  0.7571  0.7303  0.8926
  361MOL0     C49738   8.059   4.136   7.767  0.4410  0.2019 -0.4499
  361MOL0     O49739   8.130   4.049   7.694  0.3944 -0.3094 -0.2223
  361MOL0     C49740   8.249   3.991   7.750 -0.1416 -0.1397 -0.7577
  361MOL0     C49741   8.375   4.065   7.734 -0.2596  0.0961  1.0712
  361MOL0     C49742   8.372   4.196   7.801  0.5611 -0.0012  0.9880
  361MOL0     C49743   8.520   4.221   7.847  0.7656 -0.9465 -0.1027
  361MOL0     C49744   8.550   4.364   7.874  0.2352 -0.1030 -0.0488
  361MOL0     C49745   8.575   4.478   7.917  0.4169 -0.3167 -0.1522
  361MOL0     C49746   8.069   4.275   7.747 -0.8422 -0.0136  0.3298
  361MOL0     C49747   7.999   4.359   7.840 -0.3900  0.1479 -0.6140
  361MOL0     C49748   8.022   4.506   7.823  0.4462 -0.8218  0.4039
  361MOL0     H49749   7.523   4.277   8.114  0.1396 -0.3217  0.2248
  361MOL0     H49750   7.349   4.183   7.977  2.5009 -1.1809  1.9031
  361MOL0     H49751   7.249   4.178   7.523  0.1719  0.4865 -0.3251
  361MOL0     H49752   7.393   4.283   7.522  0.0975  0.2518  0.8587
  361MOL0     H49753   7.251   4.458   7.657  1.7348 -0.2172 -0.5340
  361MOL0     H49754   7.215   4.445   7.492 -1.2134 -0.9945  0.3140
  361MOL0     H49755   7.045   4.248   7.625  1.4281 -0.2421  2.2425
  361MOL0     H49756   7.062   4.374   7.732  1.7850  0.7023 -0.3566
  361MOL0     H49757   6.967   4.541   7.542 -2.1776 -0.0994 -2.4512
  361MOL0     H49758   6.977   4.409   7.441  0.1593  1.1857 -0.2772
  361MOL0     H49759   6.774   4.409   7.686 -2.9363 -0.9949  0.5387
  361MOL0     H49760   6.810   4.279   7.579 -0.6209  0.6298 -1.2100
  361MOL0     H49761   6.601   4.426   7.541  0.7622 -0.0612  0.7559
  361MOL0     H49762   6.701   4.551   7.486  0.3614  0.7933  0.6408
  361MOL0     H49763   6.732   4.294   7.328 -0.9261 -0.2762 -2.5930
  361MOL0     H49764   6.797   4.444   7.284 -0.2739  0.7467  0.6027
  361MOL0     H49765   6.502   4.373   7.326  1.2386  1.1336  3.9817
  361MOL0     H49766   6.560   4.534   7.278 -0.0790  0.1003  1.2513
  361MOL0     H49767   6.787   4.344   7.051  0.0334 -1.7088 -0.8501
  361MOL0     H49768   6.816   4.306   6.831 -0.0853 -2.5051  0.1538
  361MOL0     H49769   6.691   4.340   6.707  1.4338 -1.1306 -0.6902
  361MOL0     H49770   6.596   4.103   6.837  1.3555  1.6678  2.9717
  361MOL0     H49771   6.653   4.127   6.673 -2.3945 -0.5747  0.2698
  361MOL0     H49772   6.838   4.079   6.905 -0.4523 -1.0474  0.5445
  361MOL0     H49773   6.803   3.948   6.805  1.3430 -1.1752  1.4313
  361MOL0     H49774   6.918   4.028   6.619  0.4033 -0.9289  0.9642
  361MOL0     H49775   6.943   4.191   6.689 -0.3648  1.0578 -1.4661
  361MOL0     H49776   7.227   3.841   6.848  2.9818 -3.3779 -0.7673
  361MOL0     H49777   7.507   3.698   6.693 -0.0133  0.9944 -0.7638
  361MOL0     H49778   7.426   3.711   6.844  1.1849 -0.6868  0.4742
  361MOL0     H49779   7.571   3.805   6.819 -0.7324 -0.5069  1.2679
  361MOL0     H49780   7.748   4.275   6.364  2.3284  0.7198 -1.8320
  361MOL0     H49781   7.871   4.290   6.155  0.4683  0.0327 -0.4298
  361MOL0     H49782   7.941   4.263   5.963  1.0602  1.3588  4.1760
  361MOL0     H49783   8.078   4.192   6.035 -1.5198  2.5027  0.8786
  361MOL0     H49784   8.123   4.258   5.813  0.2477  0.2523 -0.3922
  361MOL0     H49785   8.131   4.080   5.814  2.6415  1.1135 -0.2679
  361MOL0     H49786   7.912   4.266   5.702 -0.7049 -1.1776 -0.5490
  361MOL0     H49787   7.868   4.099   5.723  0.5948  0.1205  2.1537
  361MOL0     H49788   8.069   4.016   5.592  2.0353  0.5377 -2.0949
  361MOL0     H49789   8.084   4.183   5.526  1.6004 -0.5622 -0.2428
  361MOL0     H49790   7.840   4.017   5.506  2.2788 -1.3761  2.7685
  361MOL0     H49791   7.860   4.190   5.460 -0.9357 -0.7825 -8.3494
  361MOL0     H49792   7.986   3.945   5.359 -0.0177  0.8221  2.2441
  361MOL0     H49793   8.053   4.118   5.330  0.7273  0.0885  0.8572
  361MOL0     H49794   7.823   4.175   5.237  1.0727  1.5421  0.0088
  361MOL0     H49795   7.787   4.002   5.253  1.0560  0.4763 -0.2518
  361MOL0     H49796   8.013   4.126   5.097 -0.2641 -2.0293  0.3921
  361MOL0     H49797   7.856   4.075   5.026  0.8720 -2.2009 -1.2936
  361MOL0     H49798   7.831   3.859   6.124  2.3112  0.0898  1.3587
  361MOL0     H49799   7.700   3.854   6.319  0.3513 -0.6763  2.5819
  361MOL0     H49800   7.383   4.122   6.472  1.1252 -0.6029  0.7868
  361MOL0     H49801   7.171   4.155   6.556 -0.4697 -1.9605 -2.9451
  361MOL0     H49802   7.539   4.376   7.635 -1.3892 -4.3045 -0.2919
  361MOL0     H49803   7.716   4.473   7.784 -2.3946  1.1272 -1.1251
  361MOL0     H49804   7.839   4.108   8.015  0.0463  0.2142 -0.4256
  361MOL0     H49805   7.969   3.973   7.875  1.2386  0.8593  4.5055
  361MOL0     H49806   8.226   3.968   7.854 -1.8426  2.2039 -0.5392
  361MOL0     H49807   8.266   3.901   7.690  0.5645 -0.4007 -0.1813
  361MOL0     H49808   8.389   4.075   7.626  3.4035  2.2770  1.5826
  361MOL0     H49809   8.455   4.002   7.775 -0.3567  0.0833  1.2414
  361MOL0     H49810   8.327   4.280   7.748 -0.1556  0.9248  2.9630
  361MOL0     H49811   8.310   4.193   7.891 -1.1274 -0.3117 -0.1459
  361MOL0     H49812   8.601   4.179   7.786  2.4535 -0.3016  1.6195
  361MOL0     H49813   8.536   4.174   7.944  2.7381  0.5154  0.3461
  361MOL0     H49814   8.594   4.576   7.957 -1.9207 -0.3819  1.2765
  361MOL0     H49815   8.136   4.311   7.669 -2.0347 -1.9695 -1.7167
  361MOL0     H49816   7.949   4.571   7.872 -2.5483 -2.5789 -1.3910
  361MOL0     H49817   8.123   4.536   7.853  1.5071 -3.0914 -0.6364
  361MOL0     H49818   8.008   4.530   7.717  0.9522 -2.0835  0.0248
  362MOL0     O49819   1.210   2.195   1.539  1.2306 -0.2318 -0.0436
  362MOL0     C49820   1.187   2.086   1.596 -0.4409 -0.4484 -0.5389
  362MOL0     O49821   1.279   2.000   1.649 -0.3306  0.3249 -0.1505
  362MOL0     C49822   1.405   2.047   1.676  0.1723 -0.3783 -0.1279
  362MOL0     C49823   1.441   2.134   1.780  0.5998  1.1637 -0.3158
  362MOL0     C49824   1.575   2.175   1.792  0.5513  0.8257  0.0655
  362MOL0     C49825   1.676   2.119   1.714  0.1647  0.2104 -0.7490
  362MOL0     O49826   1.804   2.165   1.729  0.3687  0.3625  0.3000
  362MOL0     C49827   1.908   2.066   1.734  0.1484 -0.0172  0.2202
  362MOL0     C49828   1.922   2.014   1.887  0.2940  0.6890  0.7278
  362MOL0     C49829   1.817   1.909   1.926 -0.2288 -0.2069 -0.6984
  362MOL0     C49830   1.808   1.868   2.075 -0.1303  0.2148 -0.1926
  362MOL0     C49831   1.783   1.975   2.183 -0.1673 -0.6463 -0.3342
  362MOL0     C49832   1.658   2.054   2.153 -0.4074  0.2873  0.4271
  362MOL0     C49833   1.623   2.175   2.236 -0.1688  0.2918 -0.8756
  362MOL0     C49834   1.663   2.174   2.384 -0.6069 -1.0452  0.6308
  362MOL0     N49835   1.591   2.061   2.457 -1.2284 -0.8162 -0.1509
  362MOL0     C49836   1.467   2.056   2.495 -0.0202 -0.1833 -0.1561
  362MOL0     C49837   1.463   1.944   2.576 -0.9104 -1.3863  0.1166
  362MOL0     C49838   1.341   1.900   2.656 -0.8110  0.1086 -0.8946
  362MOL0     C49839   1.325   1.740   2.662 -0.8401 -0.2904 -0.3001
  362MOL0     C49840   1.199   1.700   2.740 -1.4875 -0.8404 -0.1342
  362MOL0     C49841   1.214   1.730   2.895 -0.7383  0.5472  0.8553
  362MOL0     O49842   1.085   1.696   2.945  0.1630 -0.0594  0.0054
  362MOL0     C49843   1.076   1.633   3.068 -0.4147 -0.0133 -0.0525
  362MOL0     C49844   1.013   1.672   3.185  0.9567  1.0830 -0.5445
  362MOL0     C49845   1.026   1.604   3.307 -0.2693 -0.0616 -0.9475
  362MOL0     C49846   0.942   1.663   3.414 -0.4494  0.2313 -0.1859
  362MOL0     C49847   1.117   1.500   3.315 -0.1609  0.7513  0.3554
  362MOL0     C49848   1.145   1.430   3.441  0.4954  0.6391 -0.5002
  362MOL0     O49849   1.161   1.296   3.435 -0.5846  0.8495 -0.2286
  362MOL0     C49850   1.181   1.243   3.556  0.1682 -0.1878 -0.6623
  362MOL0     C49851   1.305   1.232   3.624 -0.6014  0.3117 -0.2999
  362MOL0     C49852   1.312   1.126   3.726 -0.3674  0.8049  0.3210
  362MOL0     C49853   1.212   1.038   3.760  0.5152 -0.0026  0.0741
  362MOL0     O49854   1.234   0.958   3.862  0.5135 -0.2833 -0.6825
  362MOL0     C49855   1.203   0.825   3.837  0.4438 -0.5955 -0.1221
  362MOL0     C49856   1.193   0.737   3.970 -0.1437  0.5046  0.8327
  362MOL0     C49857   1.165   0.589   3.939  0.4487  0.5749 -0.0127
  362MOL0     C49858   1.182   0.495   4.064  0.1403  0.6124 -0.1123
  362MOL0     C49859   1.098   0.364   4.040 -0.6827  0.0502  0.3746
  362MOL0     C49860   1.172   0.264   3.941  0.0128  0.0120  0.4366
  362MOL0     C49861   1.086   0.141   3.939 -0.4876 -0.2916 -0.0334
  362MOL0     C49862   0.970   0.161   3.840 -0.9747  1.1795  0.5468
  362MOL0    Cl49863   0.830   0.058   3.880 -0.1331  0.4606 -0.4734
  362MOL0     C49864   1.089   1.067   3.708  0.7099  0.0653 -1.0680
  362MOL0     C49865   1.076   1.165   3.603  0.4428 -0.2511 -0.1175
  362MOL0     O49866   1.148   1.502   3.540  0.1470 -0.7780  0.6205
  362MOL0     C49867   1.160   1.438   3.201 -0.4401  0.1630 -0.4514
  362MOL0     C49868   1.160   1.521   3.090  0.1016 -0.5227  0.3403
  362MOL0     N49869   1.588   1.887   2.578 -0.1491  0.4032 -0.0657
  362MOL0     N49870   1.663   1.957   2.502 -0.5614  0.0798 -0.3915
  362MOL0     C49871   1.630   2.034   1.605 -0.1367 -0.1856 -1.5281
  362MOL0     C49872   1.504   2.001   1.591  0.5994 -0.1486  0.4027
  362MOL0     C49873   1.042   2.034   1.595 -0.4050  0.4490  0.5199
  362MOL0     C49874   0.936   2.118   1.550  0.3623  0.3075  0.1969
  362MOL0     C49875   0.807   2.071   1.539  0.1084  0.8730  0.2713
  362MOL0     C49876   0.776   1.933   1.560  0.2452 -0.8218  0.0818
  362MOL0     O49877   0.644   1.891   1.546  0.7400  0.2468 -0.3257
  362MOL0     C49878   0.554   1.972   1.633  0.1990 -0.0603 -0.8747
  362MOL0     C49879   0.507   1.872   1.734  0.0034  0.6302 -0.3009
  362MOL0     C49880   0.397   1.914   1.819 -0.6140  0.1533 -0.8650
  362MOL0     C49881   0.370   1.824   1.939 -0.9107  0.1925 -0.2142
  362MOL0     C49882   0.479   1.828   2.036 -0.1064  0.3463 -0.5496
  362MOL0     C49883   0.571   1.824   2.120  0.0321 -0.1935  0.9983
  362MOL0     C49884   0.874   1.848   1.605 -0.0715 -0.0324  0.6988
  362MOL0     C49885   1.002   1.899   1.627 -0.2159  0.7769 -0.2103
  362MOL0     C49886   1.090   1.780   1.671 -0.9669 -0.6621  0.0462
  362MOL0     H49887   1.356   2.176   1.833  0.1251 -1.3637  1.0943
  362MOL0     H49888   1.606   2.236   1.876  1.1305  0.0814  0.4047
  362MOL0     H49889   1.988   2.127   1.692 -1.0636  5.7897  4.9658
  362MOL0     H49890   1.890   1.989   1.659 -1.5616  2.9517 -2.6799
  362MOL0     H49891   2.018   1.964   1.904 -0.2329 -0.4556  0.4619
  362MOL0     H49892   1.911   2.090   1.965 -1.3821 -1.3485  2.6200
  362MOL0     H49893   1.718   1.941   1.892  0.5048  3.4380  0.2008
  362MOL0     H49894   1.845   1.815   1.877  4.1589 -0.7612  2.2773
  362MOL0     H49895   1.726   1.795   2.078 -1.0547  1.2150 -0.6034
  362MOL0     H49896   1.896   1.816   2.114 -2.6782 -2.9667  1.9174
  362MOL0     H49897   1.875   2.032   2.202 -1.1257  0.2924  1.7843
  362MOL0     H49898   1.774   1.917   2.275  2.1127 -1.4950 -0.5810
  362MOL0     H49899   1.660   2.085   2.049 -1.4354  4.1255  1.3975
  362MOL0     H49900   1.573   1.987   2.172 -0.6196  0.6656  0.8407
  362MOL0     H49901   1.515   2.193   2.238 -0.6249 -1.9652  2.3313
  362MOL0     H49902   1.664   2.267   2.194 -3.1271  2.2625  0.2113
  362MOL0     H49903   1.771   2.153   2.388 -0.5418 -1.2163 -1.0925
  362MOL0     H49904   1.645   2.267   2.438  1.4654 -0.0733 -0.2373
  362MOL0     H49905   1.382   2.120   2.472  0.7526  1.6389  1.7291
  362MOL0     H49906   1.249   1.931   2.604 -1.7889  0.7961  1.1215
  362MOL0     H49907   1.353   1.952   2.752  0.7510 -2.7905  0.6273
  362MOL0     H49908   1.323   1.690   2.564 -2.7775  1.7871 -1.4230
  362MOL0     H49909   1.419   1.705   2.704 -1.1861  1.6293  2.3365
  362MOL0     H49910   1.118   1.757   2.694 -0.5992  0.2405 -0.3768
  362MOL0     H49911   1.177   1.593   2.729 -1.2634 -0.7961 -1.0560
  362MOL0     H49912   1.297   1.664   2.925  2.0875  2.3579 -2.3376
  362MOL0     H49913   1.234   1.835   2.916 -1.2681  1.8511 -3.9937
  362MOL0     H49914   0.949   1.759   3.179 -1.8772 -0.9776 -3.8391
  362MOL0     H49915   1.014   1.721   3.474  0.4332 -2.2037  1.2268
  362MOL0     H49916   0.891   1.590   3.477 -2.1848 -0.8992 -2.7436
  362MOL0     H49917   0.869   1.731   3.368 -0.5066 -0.5947 -1.3544
  362MOL0     H49918   1.392   1.289   3.593  0.2685 -1.2010 -0.7341
  362MOL0     H49919   1.411   1.099   3.761 -0.9408 -1.6235  0.2693
  362MOL0     H49920   1.106   0.831   3.786  1.5947  0.6608 -2.2779
  362MOL0     H49921   1.281   0.780   3.776 -0.1372 -0.7407 -0.7726
  362MOL0     H49922   1.298   0.745   4.000  0.5830  2.2611 -1.8121
  362MOL0     H49923   1.119   0.770   4.043  2.0776  0.3044  3.3438
  362MOL0     H49924   1.237   0.567   3.860  0.6672  2.3609 -0.3639
  362MOL0     H49925   1.060   0.575   3.910  0.8632 -0.2654 -1.1800
  362MOL0     H49926   1.137   0.551   4.146  1.1762  0.1054  0.8295
  362MOL0     H49927   1.285   0.471   4.094  0.4424 -1.8395 -2.6812
  362MOL0     H49928   1.079   0.320   4.138 -2.9591  2.0610  0.9266
  362MOL0     H49929   1.000   0.391   4.000 -1.3007 -1.5389  0.7738
  362MOL0     H49930   1.273   0.235   3.972  0.3065 -2.0185 -2.0928
  362MOL0     H49931   1.185   0.307   3.841  2.0356 -0.4071  0.4650
  362MOL0     H49932   1.045   0.112   4.036 -2.2685  0.8913 -0.3611
  362MOL0     H49933   1.150   0.059   3.905 -2.9383 -2.5409  0.4278
  362MOL0     H49934   1.013   0.135   3.743 -2.7049 -0.1672  0.0993
  362MOL0     H49935   0.921   0.258   3.828 -1.7428  0.8379  0.9197
  362MOL0     H49936   0.994   1.026   3.743  0.0423  0.6848 -2.0976
  362MOL0     H49937   0.976   1.176   3.561 -0.9761 -2.2440  2.4272
  362MOL0     H49938   1.222   1.349   3.198  1.6806  1.5449  0.2720
  362MOL0     H49939   1.224   1.487   3.010  1.1931  0.0718  0.9365
  362MOL0     H49940   1.704   1.986   1.541  0.6421  1.2472 -1.7421
  362MOL0     H49941   1.483   1.934   1.509  1.2608 -0.0001  0.1116
  362MOL0     H49942   0.960   2.221   1.524 -1.6311  0.4890 -1.1490
  362MOL0     H49943   0.730   2.145   1.525 -2.5245 -0.9994  3.3312
  362MOL0     H49944   0.601   2.062   1.675  0.3740 -0.6610  0.2650
  362MOL0     H49945   0.468   2.011   1.579  0.2578 -1.0592 -1.7214
  362MOL0     H49946   0.593   1.849   1.798 -0.4352  0.2887  0.1813
  362MOL0     H49947   0.471   1.781   1.686 -3.0650  0.1527  2.5323
  362MOL0     H49948   0.422   2.017   1.847 -1.4439 -0.1206  1.0074
  362MOL0     H49949   0.304   1.911   1.761 -0.8288 -0.4736 -0.4961
  362MOL0     H49950   0.360   1.726   1.891  1.4978  0.6092 -1.6735
  362MOL0     H49951   0.276   1.858   1.984 -1.1400 -1.0340  0.2825
  362MOL0     H49952   0.654   1.801   2.183 -0.2965 -1.2065  1.0883
  362MOL0     H49953   0.848   1.744   1.618 -1.4341  0.2908  0.6674
  362MOL0     H49954   1.039   1.702   1.728 -1.0582 -1.2324 -0.7847
  362MOL0     H49955   1.134   1.731   1.583 -0.0965 -1.0835  0.7046
  362MOL0     H49956   1.171   1.805   1.740 -2.3449 -0.6889  1.7324
  363MOL0     O49957   6.604   4.079   5.401 -0.2616 -0.7728 -0.1738
  363MOL0     C49958   6.566   4.206   5.391 -0.0699  0.5659  0.6160
  363MOL0     O49959   6.522   4.277   5.494  0.2805 -0.3371 -0.2345
  363MOL0     C49960   6.507   4.217   5.612 -0.5080 -0.4764  0.1991
  363MOL0     C49961   6.374   4.214   5.661 -1.1347  0.3807  0.3476
  363MOL0     C49962   6.338   4.135   5.771 -0.4648  0.6345  0.2081
  363MOL0     C49963   6.433   4.062   5.842  0.7976  0.2943 -0.2940
  363MOL0     O49964   6.385   3.994   5.946 -0.1285 -0.2628  0.5162
  363MOL0     C49965   6.474   3.885   5.990  0.2793  0.0273 -1.0748
  363MOL0     C49966   6.394   3.779   6.076  0.0690  0.1237  0.0159
  363MOL0     C49967   6.329   3.841   6.204 -0.2758 -0.0312 -0.4231
  363MOL0     C49968   6.258   3.737   6.290 -0.0036 -0.4189  0.2041
  363MOL0     C49969   6.226   3.815   6.421 -0.6780  1.2107  0.0646
  363MOL0     C49970   6.187   3.707   6.519  0.0712 -0.0203 -0.8692
  363MOL0     C49971   6.183   3.763   6.669 -0.5577 -0.1105  0.5220
  363MOL0     C49972   6.105   3.892   6.690  0.6887 -0.3790  0.0158
  363MOL0     N49973   5.972   3.878   6.624 -0.0009 -0.2042  0.2611
  363MOL0     C49974   5.895   3.984   6.584  0.7357  0.3868 -1.0472
  363MOL0     C49975   5.766   3.946   6.585  0.0380 -0.1486  0.5853
  363MOL0     C49976   5.638   4.033   6.548 -0.3141 -0.0719 -0.1690
  363MOL0     C49977   5.595   4.015   6.403 -0.2318 -0.9895  0.9452
  363MOL0     C49978   5.554   4.159   6.340  0.3241  0.9422  0.6403
  363MOL0     C49979   5.419   4.202   6.400 -0.2733  0.4604  0.1015
  363MOL0     O49980   5.312   4.125   6.344  0.1517 -0.0558 -0.2013
  363MOL0     C49981   5.199   4.201   6.304 -1.0729  0.3491  0.0592
  363MOL0     C49982   5.108   4.248   6.400 -0.6627 -0.1150  0.1886
  363MOL0     C49983   5.003   4.338   6.371  1.5150  0.1303  0.7572
  363MOL0     C49984   4.905   4.369   6.480  0.1281 -0.0586  0.1612
  363MOL0     C49985   4.982   4.375   6.232 -0.3205  0.0288  0.5708
  363MOL0     C49986   4.879   4.470   6.179 -0.4054  0.3974  0.2045
  363MOL0     O49987   4.886   4.495   6.049  0.1127 -0.3359 -0.5525
  363MOL0     C49988   4.778   4.561   5.995 -0.2327  0.0857 -0.1234
  363MOL0     C49989   4.673   4.489   5.944 -0.2090 -0.1124  0.1375
  363MOL0     C49990   4.560   4.547   5.878 -0.8762  0.0176  0.0355
  363MOL0     C49991   4.556   4.686   5.873  1.1155 -0.0918  0.1277
  363MOL0     O49992   4.445   4.724   5.815  0.7143  0.0826  0.4603
  363MOL0     C49993   4.453   4.856   5.756  0.6193 -0.5605 -0.1249
  363MOL0     C49994   4.326   4.863   5.672 -1.1380 -0.6448  0.5664
  363MOL0     C49995   4.327   4.786   5.537  0.0362  0.6383 -0.2986
  363MOL0     C49996   4.457   4.804   5.451  0.5416 -0.3810 -0.0092
  363MOL0     C49997   4.547   4.686   5.446 -0.2168  0.4591  0.1390
  363MOL0     C49998   4.491   4.547   5.401 -0.3560 -0.6265 -0.6092
  363MOL0     C49999   4.593   4.436   5.382 -0.5891 -0.8030 -0.5721
  363MOL0     C50000   4.528   4.302   5.363  0.0221  0.2820 -0.8381
  363MOL0    Cl50001   4.438   4.266   5.210 -0.4077  0.5904  0.1800
  363MOL0     C50002   4.660   4.765   5.927  0.0131 -0.3636  0.0659
  363MOL0     C50003   4.769   4.706   5.989 -0.9132 -0.1729  0.2583
  363MOL0     O50004   4.801   4.525   6.257  0.0720 -0.3442  0.1652
  363MOL0     C50005   5.078   4.323   6.141 -0.6397 -0.5407 -0.2000
  363MOL0     C50006   5.175   4.223   6.172  0.4020 -0.3912  0.2797
  363MOL0     N50007   5.765   3.814   6.622  0.0515  0.0670 -0.9251
  363MOL0     N50008   5.888   3.773   6.641  0.2011  0.0600 -0.3691
  363MOL0     C50009   6.568   4.078   5.803  0.0541  0.2873  0.0417
  363MOL0     C50010   6.604   4.145   5.688 -0.0578 -0.1436  0.2429
  363MOL0     C50011   6.558   4.272   5.256  0.4527  0.4890  0.4639
  363MOL0     C50012   6.471   4.388   5.233 -0.0405  0.9737 -0.2179
  363MOL0     C50013   6.439   4.434   5.110 -0.1263  0.0053  0.1672
  363MOL0     C50014   6.507   4.396   5.004 -0.2142 -0.2959 -0.0249
  363MOL0     O50015   6.473   4.453   4.883 -0.0219 -0.0424 -0.2477
  363MOL0     C50016   6.347   4.408   4.831  0.2217 -0.1540 -0.1410
  363MOL0     C50017   6.316   4.421   4.681  0.0336  0.5801  0.6905
  363MOL0     C50018   6.333   4.572   4.651  0.4864  0.0592 -1.4050
  363MOL0     C50019   6.477   4.626   4.623  0.5982  0.2803  0.2932
  363MOL0     C50020   6.556   4.525   4.549 -0.7403  0.1877 -0.2062
  363MOL0     C50021   6.634   4.437   4.513  0.0431 -0.6654  0.3482
  363MOL0     C50022   6.608   4.305   5.016 -0.4576 -0.6065  0.2979
  363MOL0     C50023   6.629   4.232   5.137 -0.4234 -0.5969 -0.2918
  363MOL0     C50024   6.738   4.130   5.147  0.9362  0.9365 -0.8661
  363MOL0     H50025   6.297   4.260   5.600 -0.7975 -1.4979 -1.6541
  363MOL0     H50026   6.232   4.121   5.791 -0.5729  0.4810 -0.4480
  363MOL0     H50027   6.556   3.924   6.050  0.5369 -2.4002  0.2888
  363MOL0     H50028   6.509   3.823   5.906  0.0961 -0.4793 -0.7838
  363MOL0     H50029   6.317   3.734   6.013 -0.5704  2.7304 -1.2191
  363MOL0     H50030   6.447   3.687   6.103 -1.2047 -1.1859 -1.6878
  363MOL0     H50031   6.399   3.898   6.266 -0.6393  0.0953 -0.1212
  363MOL0     H50032   6.253   3.919   6.189 -1.1399 -0.5744  0.9119
  363MOL0     H50033   6.173   3.694   6.238  0.3212 -0.8991  0.0645
  363MOL0     H50034   6.328   3.656   6.311 -0.2316  0.1279  3.5011
  363MOL0     H50035   6.144   3.886   6.408  1.3409  3.8035  0.4924
  363MOL0     H50036   6.310   3.871   6.464 -1.2169  0.9179  1.5479
  363MOL0     H50037   6.088   3.669   6.491  1.5840 -2.5931 -3.1905
  363MOL0     H50038   6.260   3.626   6.518 -0.3134 -0.3725 -0.7689
  363MOL0     H50039   6.284   3.781   6.707 -0.6912 -0.4575  1.0600
  363MOL0     H50040   6.151   3.679   6.732 -1.5758 -0.3214 -0.2523
  363MOL0     H50041   6.098   3.904   6.798  0.3919 -0.4177  0.0014
  363MOL0     H50042   6.158   3.979   6.651 -0.7787 -0.2281 -1.7768
  363MOL0     H50043   5.932   4.085   6.571  1.6567  0.2886  0.5273
  363MOL0     H50044   5.674   4.136   6.561  0.4528  0.0164 -2.4947
  363MOL0     H50045   5.562   4.000   6.619  0.2103  0.7419  0.8037
  363MOL0     H50046   5.683   3.987   6.343 -0.6746  0.1351 -0.2691
  363MOL0     H50047   5.509   3.948   6.393 -1.1450  0.4212 -1.9345
  363MOL0     H50048   5.622   4.240   6.367  0.7610  0.5743  0.6537
  363MOL0     H50049   5.554   4.147   6.232 -0.1205 -0.6041  0.7817
  363MOL0     H50050   5.422   4.207   6.509 -1.5876  2.3726  0.0883
  363MOL0     H50051   5.410   4.308   6.376 -0.3830  0.7384  1.3205
  363MOL0     H50052   5.122   4.206   6.500  2.4022  2.3500  0.9656
  363MOL0     H50053   4.805   4.348   6.440  0.1967  0.3839 -0.2501
  363MOL0     H50054   4.905   4.476   6.500 -2.6196  0.1696 -0.6915
  363MOL0     H50055   4.923   4.311   6.571 -3.3468 -2.1921 -0.3336
  363MOL0     H50056   4.677   4.382   5.959  0.1963  0.1921  2.4788
  363MOL0     H50057   4.483   4.479   5.843  0.0987 -0.6766 -0.8352
  363MOL0     H50058   4.437   4.924   5.840  2.1635  1.0734 -1.0830
  363MOL0     H50059   4.545   4.888   5.707  0.7201  2.6580  1.8478
  363MOL0     H50060   4.243   4.832   5.735 -4.0200  1.0789 -2.0944
  363MOL0     H50061   4.308   4.968   5.647  4.2543  0.3932 -0.2049
  363MOL0     H50062   4.241   4.825   5.481  0.8539  0.6386 -1.6026
  363MOL0     H50063   4.314   4.679   5.559 -0.0221  0.6866 -0.0981
  363MOL0     H50064   4.505   4.901   5.467  0.0234  0.2956 -2.1344
  363MOL0     H50065   4.431   4.817   5.345 -2.8321  1.4723  0.9176
  363MOL0     H50066   4.626   4.709   5.374 -0.2454  2.2794  0.6506
  363MOL0     H50067   4.593   4.662   5.543  3.1806  0.4002 -1.3402
  363MOL0     H50068   4.447   4.563   5.302 -0.8484  0.3553 -0.2484
  363MOL0     H50069   4.420   4.524   5.481 -0.6480  1.3036 -0.2712
  363MOL0     H50070   4.661   4.438   5.468 -0.7741  0.0473 -0.4342
  363MOL0     H50071   4.645   4.459   5.289  0.3602  1.1617  0.3718
  363MOL0     H50072   4.465   4.268   5.445 -2.9467 -0.3256 -3.1800
  363MOL0     H50073   4.613   4.234   5.375  1.9775  2.8296  0.7547
  363MOL0     H50074   4.639   4.870   5.943 -0.1568 -0.1743 -1.3516
  363MOL0     H50075   4.838   4.769   6.045 -0.7509  0.7540 -0.9252
  363MOL0     H50076   5.068   4.341   6.035 -1.0114 -1.6407 -0.3606
  363MOL0     H50077   5.232   4.177   6.092  0.8856  0.1779  0.2916
  363MOL0     H50078   6.652   4.030   5.853  0.4008 -1.2023 -1.8687
  363MOL0     H50079   6.705   4.139   5.650 -0.4330  0.0090 -0.8221
  363MOL0     H50080   6.405   4.415   5.315  2.1955 -1.4127  2.5607
  363MOL0     H50081   6.364   4.513   5.111  2.2366  2.3982  0.7456
  363MOL0     H50082   6.335   4.305   4.868  3.6349  0.6239  3.9236
  363MOL0     H50083   6.272   4.461   4.890 -1.2995 -3.5775  1.3247
  363MOL0     H50084   6.218   4.382   4.650  0.9540 -1.4783  0.2310
  363MOL0     H50085   6.385   4.359   4.624  2.4898  4.3052 -0.7931
  363MOL0     H50086   6.271   4.599   4.564  0.5692 -0.9266 -1.7780
  363MOL0     H50087   6.289   4.622   4.737  4.0194  0.0514  0.5675
  363MOL0     H50088   6.532   4.634   4.717 -0.1299 -4.2461  1.3379
  363MOL0     H50089   6.469   4.718   4.564 -0.2100 -0.5775 -0.9791
  363MOL0     H50090   6.707   4.362   4.490  0.7371 -0.5545  2.0474
  363MOL0     H50091   6.682   4.294   4.937  1.4205  2.5467  1.4123
  363MOL0     H50092   6.803   4.166   5.228 -0.5061  0.4601  0.5558
  363MOL0     H50093   6.709   4.029   5.177 -0.5245  1.9264  1.3247
  363MOL0     H50094   6.791   4.129   5.051 -0.1222 -2.5392 -1.5572
  364MOL0     O50095  10.791   7.434   6.711  0.2070 -0.1412  0.3699
  364MOL0     C50096  10.816   7.552   6.682  1.0395  0.2741  0.4856
  364MOL0     O50097  10.940   7.612   6.687 -0.4343  0.7794 -0.1591
  364MOL0     C50098  11.054   7.541   6.685  0.3614  0.2162  0.3423
  364MOL0     C50099  11.081   7.435   6.776 -1.9466  0.5295  0.6205
  364MOL0     C50100  11.199   7.361   6.768 -0.1278 -0.3561 -0.0467
  364MOL0     C50101  11.299   7.407   6.682 -0.3582 -0.2854  0.9530
  364MOL0     O50102  11.408   7.326   6.666  0.3355  0.0626 -0.0642
  364MOL0     C50103  11.531   7.374   6.618  0.2739 -0.1254  0.7263
  364MOL0     C50104  11.625   7.272   6.651 -0.2095  0.4492 -0.3179
  364MOL0     C50105  11.773   7.317   6.659 -0.5188  0.3081 -0.7298
  364MOL0     C50106  11.842   7.249   6.773 -0.7043 -0.4458 -0.8526
  364MOL0     C50107  11.984   7.326   6.804 -0.1839  0.6676  0.4505
  364MOL0     C50108  12.098   7.287   6.700 -0.0064 -0.0528 -0.5784
  364MOL0     C50109  12.239   7.318   6.749  0.3359 -0.4187  0.5723
  364MOL0     C50110  12.350   7.267   6.649 -0.3488  0.8744 -0.1378
  364MOL0     N50111  12.366   7.121   6.635 -0.0863 -0.1204  0.1276
  364MOL0     C50112  12.340   7.029   6.732  0.1521 -0.1575  0.2964
  364MOL0     C50113  12.307   6.914   6.666 -0.8356  0.0872 -0.6214
  364MOL0     C50114  12.278   6.780   6.732 -0.0323  0.2079 -0.6460
  364MOL0     C50115  12.134   6.731   6.713 -0.4604 -0.1290 -0.5327
  364MOL0     C50116  12.039   6.817   6.805 -0.3448 -0.1491 -0.0907
  364MOL0     C50117  11.896   6.792   6.776 -0.8958  0.4528 -0.3465
  364MOL0     O50118  11.873   6.847   6.645 -0.6608  0.1355 -0.1406
  364MOL0     C50119  11.750   6.812   6.593  0.2709 -0.2769 -0.3202
  364MOL0     C50120  11.629   6.866   6.642  0.0913  0.4700  0.4313
  364MOL0     C50121  11.504   6.825   6.575  0.3991 -1.6072  0.4486
  364MOL0     C50122  11.377   6.883   6.645 -0.6538  0.7445  0.4021
  364MOL0     C50123  11.510   6.739   6.456  0.3739 -0.1354 -0.1632
  364MOL0     C50124  11.391   6.696   6.388 -0.4349  0.4147  0.2705
  364MOL0     O50125  11.388   6.564   6.355 -0.5244 -0.3174 -0.1566
  364MOL0     C50126  11.283   6.530   6.278  0.0288 -0.9451 -0.4367
  364MOL0     C50127  11.268   6.567   6.144  0.1217  0.0847 -0.6422
  364MOL0     C50128  11.161   6.512   6.075 -0.5481  0.2352 -0.2502
  364MOL0     C50129  11.059   6.437   6.134  0.5998  0.4546 -0.7014
  364MOL0     O50130  10.936   6.398   6.079  0.4237 -0.1713 -0.6456
  364MOL0     C50131  10.887   6.473   5.960 -0.0907  0.4722 -0.4542
  364MOL0     C50132  10.742   6.431   5.933  0.0090  1.5327  1.2154
  364MOL0     C50133  10.644   6.399   6.045 -0.2361 -0.2283 -0.1301
  364MOL0     C50134  10.641   6.251   6.087 -0.4766  0.0920 -0.8578
  364MOL0     C50135  10.501   6.227   6.158  0.9778  1.4428 -0.7787
  364MOL0     C50136  10.492   6.077   6.199  0.1165  0.1522  0.2355
  364MOL0     C50137  10.360   6.041   6.273 -0.1621 -0.0158  0.4581
  364MOL0     C50138  10.319   5.890   6.273 -0.1389  0.5371 -0.1498
  364MOL0    Cl50139  10.329   5.835   6.097  0.1448  0.6708  0.7370
  364MOL0     C50140  11.082   6.389   6.268 -0.1639 -0.6783 -0.3718
  364MOL0     C50141  11.192   6.442   6.336 -0.6226 -0.5436  0.5890
  364MOL0     O50142  11.300   6.776   6.374 -0.5393  0.1333 -0.5968
  364MOL0     C50143  11.631   6.689   6.420  0.5885 -0.4390  1.0156
  364MOL0     C50144  11.748   6.731   6.483 -0.3642 -0.9921 -0.0579
  364MOL0     N50145  12.308   6.936   6.533  0.0208 -0.6596  0.7896
  364MOL0     N50146  12.346   7.060   6.519  0.1461  0.7117 -0.1085
  364MOL0     C50147  11.284   7.520   6.599  0.5505  0.7729  0.3316
  364MOL0     C50148  11.160   7.589   6.602 -0.0880  0.3370  0.0980
  364MOL0     C50149  10.720   7.630   6.610  0.1870 -0.7237  0.2270
  364MOL0     C50150  10.755   7.683   6.474 -0.5078 -0.2663 -0.1538
  364MOL0     C50151  10.667   7.754   6.407  0.3043  0.7403  0.2620
  364MOL0     C50152  10.534   7.769   6.453 -0.3106 -0.2682 -0.8860
  364MOL0     O50153  10.439   7.842   6.381 -0.1223 -0.0943 -0.1816
  364MOL0     C50154  10.410   7.973   6.434  0.6363 -0.3131  0.6214
  364MOL0     C50155  10.264   7.971   6.474 -0.1598  0.6380 -0.0425
  364MOL0     C50156  10.222   8.089   6.561  0.1847  0.0621  0.0919
  364MOL0     C50157  10.238   8.217   6.491  0.5338 -0.1394 -0.3060
  364MOL0     C50158  10.169   8.320   6.564  1.0227 -0.7745 -0.7484
  364MOL0     C50159  10.108   8.412   6.612  1.2878 -0.1774 -0.5851
  364MOL0     C50160  10.498   7.725   6.579 -0.1750  0.4665  0.0625
  364MOL0     C50161  10.585   7.647   6.650  0.0886  0.8310 -0.3457
  364MOL0     C50162  10.530   7.584   6.776 -1.1959 -0.1011 -0.1698
  364MOL0     H50163  11.012   7.394   6.849  0.8779 -1.2554  2.4733
  364MOL0     H50164  11.227   7.280   6.834  2.7921  0.1100 -0.5759
  364MOL0     H50165  11.555   7.468   6.668  2.4404 -0.6362  0.7799
  364MOL0     H50166  11.518   7.392   6.511  2.4226  0.6575  0.5358
  364MOL0     H50167  11.589   7.236   6.748  1.4118  3.0266  1.3944
  364MOL0     H50168  11.611   7.187   6.585  1.4512  2.0139 -2.8458
  364MOL0     H50169  11.834   7.289   6.572  2.5822  0.2118  1.3088
  364MOL0     H50170  11.763   7.424   6.674 -2.9159  0.2206 -1.2852
  364MOL0     H50171  11.786   7.263   6.866  0.0554 -3.1473  0.0852
  364MOL0     H50172  11.847   7.141   6.762 -0.0508 -0.6371  0.9186
  364MOL0     H50173  12.019   7.288   6.900  0.2075 -0.5198 -0.1309
  364MOL0     H50174  11.968   7.433   6.794 -3.9230  0.0952 -1.7874
  364MOL0     H50175  12.087   7.180   6.679  1.8394 -0.4314  0.1931
  364MOL0     H50176  12.066   7.337   6.608 -1.3531  1.0131  0.4239
  364MOL0     H50177  12.238   7.264   6.844 -0.2229  0.8493  1.3134
  364MOL0     H50178  12.258   7.424   6.769  1.9933 -0.8098  1.1916
  364MOL0     H50179  12.325   7.300   6.548  4.0587  2.2902 -0.9824
  364MOL0     H50180  12.446   7.314   6.674  0.0778  0.1247 -0.3151
  364MOL0     H50181  12.361   7.050   6.836  2.8014  0.2431 -0.2435
  364MOL0     H50182  12.302   6.785   6.839  0.0098 -2.4590 -0.4833
  364MOL0     H50183  12.348   6.706   6.692  0.8636  0.6121  0.1299
  364MOL0     H50184  12.109   6.748   6.608 -0.5751  3.3154 -0.0741
  364MOL0     H50185  12.122   6.626   6.742 -2.4122  0.6161  1.7235
  364MOL0     H50186  12.060   6.770   6.902  1.7308 -0.9245 -0.8607
  364MOL0     H50187  12.047   6.926   6.800  0.9928 -0.2696 -1.1601
  364MOL0     H50188  11.882   6.684   6.781  1.1133  0.1717 -0.0121
  364MOL0     H50189  11.827   6.839   6.847 -1.5585  1.0877 -1.3784
  364MOL0     H50190  11.622   6.914   6.739  0.1787 -1.9839  1.7388
  364MOL0     H50191  11.336   6.966   6.588 -1.5121 -0.8894 -1.4799
  364MOL0     H50192  11.413   6.916   6.742  1.9501  3.3122 -1.3075
  364MOL0     H50193  11.304   6.803   6.664 -1.2901  1.0766 -0.5594
  364MOL0     H50194  11.327   6.652   6.109  0.0583  0.6149  0.4770
  364MOL0     H50195  11.147   6.546   5.973 -1.9766  1.3407  0.2713
  364MOL0     H50196  10.892   6.580   5.981  2.6479  0.4291 -0.5407
  364MOL0     H50197  10.944   6.448   5.869 -0.8758 -1.7283 -0.4182
  364MOL0     H50198  10.718   6.515   5.868 -2.3908 -2.7315 -4.1800
  364MOL0     H50199  10.744   6.342   5.870  2.8217  3.1467 -1.2116
  364MOL0     H50200  10.548   6.419   5.995 -1.3375 -1.1003  1.5431
  364MOL0     H50201  10.658   6.475   6.122 -4.2205  2.3470 -1.5972
  364MOL0     H50202  10.721   6.226   6.156 -1.4130  0.8612  0.5664
  364MOL0     H50203  10.648   6.182   6.002  1.1435 -0.2070 -0.4989
  364MOL0     H50204  10.508   6.291   6.246  3.3180  0.6985 -0.3534
  364MOL0     H50205  10.420   6.260   6.092  0.2148  0.8135 -0.1769
  364MOL0     H50206  10.578   6.037   6.254  1.2591  2.1869  0.0567
  364MOL0     H50207  10.495   6.020   6.106  0.9404 -0.8245  0.8472
  364MOL0     H50208  10.281   6.099   6.224  0.4085  0.0772 -0.3839
  364MOL0     H50209  10.358   6.068   6.379  0.6376  2.2642 -0.0597
  364MOL0     H50210  10.217   5.881   6.313 -0.0380  1.2336  0.2877
  364MOL0     H50211  10.392   5.837   6.334  0.0953  1.4386  0.3823
  364MOL0     H50212  11.010   6.320   6.312 -0.4895  0.1174  0.3844
  364MOL0     H50213  11.204   6.411   6.439 -1.8794  0.7358  1.1529
  364MOL0     H50214  11.634   6.611   6.344  1.2592 -0.0215  0.6004
  364MOL0     H50215  11.847   6.696   6.453  1.6715  3.9783 -0.0841
  364MOL0     H50216  11.369   7.552   6.539 -1.3200 -1.3352 -3.9006
  364MOL0     H50217  11.157   7.663   6.523 -0.0785  0.0714 -0.1541
  364MOL0     H50218  10.856   7.685   6.435 -1.0843  0.7495 -1.6820
  364MOL0     H50219  10.704   7.797   6.315  4.9481 -2.2143  0.3916
  364MOL0     H50220  10.483   8.008   6.508  0.9700  0.5444 -0.0921
  364MOL0     H50221  10.418   8.056   6.364  2.1985 -0.8051  0.1888
  364MOL0     H50222  10.247   7.886   6.540  2.3455  1.0760  1.2908
  364MOL0     H50223  10.201   7.972   6.384  0.4958 -1.6892 -0.5731
  364MOL0     H50224  10.113   8.074   6.559  0.4556 -2.0654 -0.7380
  364MOL0     H50225  10.277   8.075   6.654 -1.5376  2.4442  1.5664
  364MOL0     H50226  10.194   8.217   6.391 -0.6797 -1.1193  0.1956
  364MOL0     H50227  10.345   8.235   6.478  0.1541  2.3458 -0.5384
  364MOL0     H50228  10.070   8.503   6.654  2.9825  0.8989 -1.2530
  364MOL0     H50229  10.398   7.738   6.619  0.0979  0.4274  0.7739
  364MOL0     H50230  10.595   7.612   6.859 -0.5067  2.3594 -1.4249
  364MOL0     H50231  10.428   7.618   6.798 -1.6258 -1.2021 -0.3993
  364MOL0     H50232  10.527   7.475   6.771  0.1851 -0.1294 -0.5620
  365MOL0     O50233   8.019   6.998   7.139  0.2286 -0.0901  0.0778
  365MOL0     C50234   7.950   6.948   7.231 -0.3178 -0.1190 -0.5110
  365MOL0     O50235   7.905   6.820   7.235  0.2207 -0.5344  0.5735
  365MOL0     C50236   7.984   6.728   7.166  0.2534 -1.1340  0.4551
  365MOL0     C50237   8.085   6.648   7.223 -0.1243 -0.1654  0.2259
  365MOL0     C50238   8.162   6.558   7.151  0.7390 -0.7431 -0.4478
  365MOL0     C50239   8.135   6.544   7.021  0.3056 -1.5542 -0.2853
  365MOL0     O50240   8.202   6.456   6.951 -0.3504 -0.1018 -0.2428
  365MOL0     C50241   8.241   6.481   6.818 -0.3026 -0.3439 -0.3064
  365MOL0     C50242   8.283   6.351   6.742  0.4745 -0.5008 -0.3865
  365MOL0     C50243   8.329   6.371   6.589  0.2411  0.1362  0.1328
  365MOL0     C50244   8.228   6.316   6.471 -0.8336 -0.2362 -0.0101
  365MOL0     C50245   8.238   6.162   6.455 -0.4979 -0.3168  0.0942
  365MOL0     C50246   8.151   6.076   6.527 -0.1515  0.0643 -0.3640
  365MOL0     C50247   8.188   5.923   6.493  0.3502  0.0911  1.0062
  365MOL0     C50248   8.073   5.828   6.524  0.1743 -0.6562 -0.1474
  365MOL0     N50249   7.984   5.820   6.410 -0.5207  0.1741 -0.3702
  365MOL0     C50250   7.906   5.710   6.412  0.7960 -0.7578 -0.0552
  365MOL0     C50251   7.833   5.733   6.298 -0.4051 -0.4252  0.5315
  365MOL0     C50252   7.717   5.663   6.227  0.0521  0.0401 -0.4136
  365MOL0     C50253   7.590   5.669   6.316  0.6803  0.6690  0.2750
  365MOL0     C50254   7.621   5.589   6.446 -1.0359 -0.0870  0.2842
  365MOL0     C50255   7.490   5.550   6.506  0.7464 -0.3110  0.1514
  365MOL0     O50256   7.507   5.445   6.599  0.2981  0.6427  0.2322
  365MOL0     C50257   7.509   5.314   6.562  0.4143 -0.1973  0.7963
  365MOL0     C50258   7.521   5.226   6.662  0.0375  0.7665  1.0815
  365MOL0     C50259   7.522   5.084   6.633 -0.7265  1.6421 -0.0119
  365MOL0     C50260   7.525   4.977   6.746  0.0813 -0.7470 -0.3803
  365MOL0     C50261   7.492   5.033   6.499  0.4916 -0.6705 -0.3661
  365MOL0     C50262   7.472   4.891   6.464  0.6965 -0.5808 -0.0157
  365MOL0     O50263   7.544   4.844   6.358 -0.0446  0.5511 -0.1693
  365MOL0     C50264   7.675   4.874   6.341  0.1094  0.4953 -0.5663
  365MOL0     C50265   7.763   4.863   6.443  0.0498  0.2482 -0.8369
  365MOL0     C50266   7.902   4.896   6.425 -0.0529  0.4989 -0.5640
  365MOL0     C50267   7.958   4.934   6.303 -0.3018 -0.1553  0.3073
  365MOL0     O50268   8.091   4.967   6.294  0.0098 -0.1440  0.3273
  365MOL0     C50269   8.143   4.958   6.161 -0.2248  0.0223 -0.3004
  365MOL0     C50270   8.291   4.994   6.168  0.6891 -0.1739  0.8494
  365MOL0     C50271   8.376   4.870   6.207 -0.3861  0.3435  0.8708
  365MOL0     C50272   8.513   4.890   6.146  0.4451  0.6762 -0.7394
  365MOL0     C50273   8.607   4.781   6.194 -0.5081 -0.1618  0.1555
  365MOL0     C50274   8.753   4.818   6.155  0.2915 -0.0931 -0.1331
  365MOL0     C50275   8.846   4.703   6.200 -0.1488 -0.4913  0.7163
  365MOL0     C50276   8.993   4.752   6.214 -0.6311  0.6806  0.1889
  365MOL0    Cl50277   9.110   4.606   6.240 -0.2022 -0.1280 -0.4238
  365MOL0     C50278   7.862   4.933   6.192 -0.3239  0.3986 -0.0946
  365MOL0     C50279   7.730   4.901   6.220  0.3986 -0.2593  0.6045
  365MOL0     O50280   7.389   4.820   6.526  0.6849  0.8207  0.2279
  365MOL0     C50281   7.495   5.132   6.403  0.0158 -0.0027  0.3441
  365MOL0     C50282   7.512   5.265   6.435 -0.1905  0.7685 -0.7047
  365MOL0     N50283   7.869   5.861   6.242 -0.1035  1.1542  0.2724
  365MOL0     N50284   7.956   5.909   6.320  1.0196 -0.6404 -0.2377
  365MOL0     C50285   8.024   6.612   6.962 -0.0027 -0.0163  0.4081
  365MOL0     C50286   7.955   6.698   7.035 -0.0576  0.1628 -0.0801
  365MOL0     C50287   7.897   7.040   7.331 -0.6269 -0.5215  0.3562
  365MOL0     C50288   7.768   7.017   7.389 -0.2271 -0.3771  0.3788
  365MOL0     C50289   7.700   7.099   7.484 -0.8892  0.0274 -0.1528
  365MOL0     C50290   7.774   7.206   7.529 -0.2507 -0.0571  0.4256
  365MOL0     O50291   7.709   7.284   7.619  0.6548 -0.0248 -0.7597
  365MOL0     C50292   7.773   7.293   7.742  0.2185 -0.5141  0.2180
  365MOL0     C50293   7.668   7.236   7.837 -0.0627  0.1405 -0.4476
  365MOL0     C50294   7.558   7.325   7.885 -0.1108  1.1010  0.1595
  365MOL0     C50295   7.439   7.236   7.929 -0.2223 -0.2067  0.5648
  365MOL0     C50296   7.327   7.319   7.987 -0.2497 -0.0269  0.4424
  365MOL0     C50297   7.247   7.391   8.052  0.5616 -0.3657  0.7563
  365MOL0     C50298   7.895   7.236   7.477 -0.2463  0.8144  0.3606
  365MOL0     C50299   7.958   7.158   7.381  0.2642  0.1142 -0.1887
  365MOL0     C50300   8.110   7.188   7.349 -0.4315 -0.5004 -1.0469
  365MOL0     H50301   8.114   6.661   7.327  0.7525  1.8445 -0.2208
  365MOL0     H50302   8.252   6.518   7.195  2.1272  0.9831 -1.5924
  365MOL0     H50303   8.305   6.570   6.810 -0.2544 -0.2425  1.0340
  365MOL0     H50304   8.158   6.521   6.759 -0.6108  2.5010  1.8477
  365MOL0     H50305   8.375   6.318   6.792  1.9487  2.0090 -1.2479
  365MOL0     H50306   8.196   6.285   6.746 -1.6000  2.0860  0.0163
  365MOL0     H50307   8.341   6.479   6.577  0.6819  0.9206  5.3857
  365MOL0     H50308   8.430   6.332   6.576  0.5766  0.5157  1.4766
  365MOL0     H50309   8.136   6.358   6.513  0.8099  1.9069  1.7027
  365MOL0     H50310   8.254   6.363   6.376 -4.7795  3.0891  0.2246
  365MOL0     H50311   8.342   6.144   6.485  0.3456  1.5347 -1.4718
  365MOL0     H50312   8.242   6.122   6.353 -2.9319 -2.4169  0.7095
  365MOL0     H50313   8.163   6.086   6.636 -0.4844  0.9628 -0.4000
  365MOL0     H50314   8.048   6.107   6.507 -0.5782 -0.6694  0.5712
  365MOL0     H50315   8.270   5.888   6.557 -1.4642 -3.9840  1.3443
  365MOL0     H50316   8.208   5.911   6.386 -0.1111  0.9512  0.8118
  365MOL0     H50317   8.113   5.728   6.539  0.5201 -0.5468 -0.3305
  365MOL0     H50318   8.020   5.859   6.614  0.9932  0.9176 -0.1790
  365MOL0     H50319   7.912   5.636   6.492  3.3172 -1.9933 -1.2317
  365MOL0     H50320   7.745   5.560   6.202 -1.4659  0.2873 -3.5974
  365MOL0     H50321   7.693   5.720   6.137  3.2627  1.0367 -0.7512
  365MOL0     H50322   7.564   5.774   6.332  0.6612  0.4430  1.9874
  365MOL0     H50323   7.519   5.614   6.254 -0.0480  2.3489 -0.4199
  365MOL0     H50324   7.691   5.506   6.435 -2.0163 -0.8798 -0.1700
  365MOL0     H50325   7.664   5.655   6.521 -0.0902  1.7152 -1.7404
  365MOL0     H50326   7.449   5.634   6.563  2.6198  0.3461  0.6097
  365MOL0     H50327   7.415   5.526   6.430  0.7363 -1.0751  0.3950
  365MOL0     H50328   7.554   5.265   6.758 -0.7314  0.4299  1.4959
  365MOL0     H50329   7.614   4.915   6.728  2.7362  2.9989 -1.3401
  365MOL0     H50330   7.431   4.922   6.753 -0.3418  0.0395  0.2426
  365MOL0     H50331   7.529   5.033   6.839  0.5884 -0.4397 -0.5831
  365MOL0     H50332   7.715   4.814   6.527 -1.5850  2.6425 -0.2551
  365MOL0     H50333   7.970   4.891   6.509  0.4808 -0.4203 -1.0451
  365MOL0     H50334   8.141   4.852   6.133 -0.7612 -0.5008  1.5862
  365MOL0     H50335   8.090   5.030   6.098 -0.2020  1.9321  1.7365
  365MOL0     H50336   8.318   5.028   6.068  2.2670  0.6963  1.5470
  365MOL0     H50337   8.297   5.080   6.235 -1.9622  0.1914  0.7592
  365MOL0     H50338   8.339   4.773   6.173  1.7954 -1.2139  2.6629
  365MOL0     H50339   8.386   4.863   6.316  1.5707 -1.7591  0.6541
  365MOL0     H50340   8.555   4.983   6.187 -3.0886  1.8205  0.6778
  365MOL0     H50341   8.504   4.902   6.038 -5.5956 -2.5070 -0.9901
  365MOL0     H50342   8.601   4.771   6.303 -0.6071 -0.9803  0.0857
  365MOL0     H50343   8.579   4.686   6.146  0.6460 -0.9391  0.9685
  365MOL0     H50344   8.773   4.910   6.212 -1.1231 -0.4754  1.0566
  365MOL0     H50345   8.764   4.832   6.048 -0.9731 -1.5046 -0.4888
  365MOL0     H50346   8.834   4.633   6.117 -0.2321 -0.3790  0.6328
  365MOL0     H50347   8.812   4.656   6.293 -1.3324 -0.4349  0.3271
  365MOL0     H50348   8.990   4.807   6.309 -0.7034 -0.1988  0.7106
  365MOL0     H50349   9.023   4.807   6.125  1.4593 -0.0619  0.3709
  365MOL0     H50350   7.899   4.966   6.095  1.7778  0.5717  0.7283
  365MOL0     H50351   7.666   4.910   6.133 -2.4843 -0.9674  2.5201
  365MOL0     H50352   7.483   5.101   6.300  0.2673  1.5092 -0.1695
  365MOL0     H50353   7.508   5.334   6.351 -3.8672 -0.7592 -1.9927
  365MOL0     H50354   8.005   6.600   6.856  1.6423 -0.4523  0.1216
  365MOL0     H50355   7.867   6.748   6.997 -1.3885 -2.4156 -0.6180
  365MOL0     H50356   7.706   6.932   7.362 -2.2535  0.1471  2.9390
  365MOL0     H50357   7.599   7.096   7.525 -0.7546  3.2041  0.6526
  365MOL0     H50358   7.864   7.233   7.748  0.3381 -0.6900 -2.2508
  365MOL0     H50359   7.812   7.392   7.766  2.1469 -1.1676 -0.0253
  365MOL0     H50360   7.722   7.200   7.925  0.6536 -0.1006 -0.9708
  365MOL0     H50361   7.625   7.147   7.791 -1.8780  0.3225  0.8061
  365MOL0     H50362   7.599   7.397   7.957 -2.6536  2.3977  0.4275
  365MOL0     H50363   7.530   7.391   7.803  3.2850  1.6904 -0.6676
  365MOL0     H50364   7.469   7.156   7.998  3.1885  0.4251 -0.0524
  365MOL0     H50365   7.409   7.185   7.837  0.3133  1.4708 -0.5957
  365MOL0     H50366   7.163   7.435   8.102 -0.3449 -2.0025  0.7184
  365MOL0     H50367   7.948   7.317   7.526 -0.4818  2.1252 -1.4661
  365MOL0     H50368   8.162   7.095   7.322  1.3386  0.7681 -2.2434
  365MOL0     H50369   8.117   7.253   7.261  2.6016 -0.0806 -0.6028
  365MOL0     H50370   8.161   7.230   7.436  0.3430 -0.6870 -1.4020
  366MOL0     O50371  10.657   8.432   4.554 -0.4243 -0.0159 -0.9939
  366MOL0     C50372  10.610   8.331   4.503 -0.4992  0.2060 -0.4564
  366MOL0     O50373  10.619   8.299   4.372 -0.0575  0.3972  1.0932
  366MOL0     C50374  10.686   8.388   4.292  0.1160  0.3373  0.3126
  366MOL0     C50375  10.801   8.352   4.224  0.0914 -0.0877  0.6015
  366MOL0     C50376  10.871   8.440   4.137 -0.9542 -0.2167  0.4863
  366MOL0     C50377  10.817   8.568   4.117 -0.8287 -0.1439  0.6454
  366MOL0     O50378  10.876   8.653   4.027  0.3033 -0.4810  0.1538
  366MOL0     C50379  11.015   8.670   4.010  0.2635 -0.0173  0.4068
  366MOL0     C50380  11.059   8.769   3.896  0.8822  0.2968  0.5082
  366MOL0     C50381  11.208   8.797   3.904 -0.6893 -0.5979 -0.2540
  366MOL0     C50382  11.289   8.690   3.822 -0.1394  0.7136 -0.4595
  366MOL0     C50383  11.390   8.747   3.721  0.1310  0.3267 -0.4750
  366MOL0     C50384  11.340   8.757   3.582 -0.6057  0.6544  0.2949
  366MOL0     C50385  11.446   8.803   3.479 -0.2021  0.1284  0.5715
  366MOL0     C50386  11.506   8.684   3.398 -0.2703 -0.3690  0.5890
  366MOL0     N50387  11.597   8.741   3.291  0.3548  0.9639 -0.1781
  366MOL0     C50388  11.560   8.817   3.192 -0.2193 -0.1019 -0.9960
  366MOL0     C50389  11.670   8.858   3.133 -0.3303 -0.0782  0.7291
  366MOL0     C50390  11.683   8.964   3.021  1.3129  0.6282  0.6085
  366MOL0     C50391  11.603   9.088   3.058 -0.1761 -1.4551  0.4515
  366MOL0     C50392  11.616   9.185   2.935  0.3262 -0.5405  0.8693
  366MOL0     C50393  11.598   9.324   2.967  0.7219 -0.0241  0.4317
  366MOL0     O50394  11.628   9.392   2.842  0.2570 -0.6072  0.0427
  366MOL0     C50395  11.651   9.528   2.852 -1.2433  0.2883 -0.0079
  366MOL0     C50396  11.754   9.587   2.786  0.6130  0.6974  1.6031
  366MOL0     C50397  11.787   9.725   2.798  0.4368  0.8188  0.3242
  366MOL0     C50398  11.899   9.773   2.716  0.5452 -0.3678  0.1780
  366MOL0     C50399  11.702   9.805   2.887 -0.2984  0.4405  0.3848
  366MOL0     C50400  11.692   9.945   2.889 -0.6638 -0.1577 -0.0818
  366MOL0     O50401  11.574   9.997   2.934  0.0531 -0.5480  0.5270
  366MOL0     C50402  11.581  10.130   2.985 -0.9101 -0.8037  0.6000
  366MOL0     C50403  11.650  10.168   3.101  0.1360  0.2067  0.0125
  366MOL0     C50404  11.665  10.300   3.152  0.2817  0.0898 -0.6018
  366MOL0     C50405  11.601  10.400   3.079 -0.1711  0.2357  0.3852
  366MOL0     O50406  11.621  10.534   3.095  0.4509  0.4820  0.2121
  366MOL0     C50407  11.699  10.578   3.206  0.3691 -1.0326 -0.0530
  366MOL0     C50408  11.675  10.734   3.205  0.1760 -0.5462 -0.5805
  366MOL0     C50409  11.722  10.795   3.345  0.6561 -0.0439 -0.5645
  366MOL0     C50410  11.711  10.947   3.330  0.0917  0.7769 -0.2707
  366MOL0     C50411  11.746  11.021   3.457 -0.1546  0.2378 -0.9024
  366MOL0     C50412  11.697  11.162   3.440 -0.0165 -0.8929  0.3474
  366MOL0     C50413  11.747  11.256   3.544 -0.4363  0.0307 -0.2446
  366MOL0     C50414  11.724  11.402   3.516  1.1116  0.1357  0.2497
  366MOL0    Cl50415  11.786  11.495   3.377  0.4975  0.4861 -0.1914
  366MOL0     C50416  11.533  10.361   2.962 -0.1952 -0.0275 -0.2472
  366MOL0     C50417  11.524  10.235   2.914  0.7489  0.3861 -0.7059
  366MOL0     O50418  11.791  10.013   2.856  0.5017 -0.4293  0.3502
  366MOL0     C50419  11.604   9.739   2.957 -0.9347 -0.1112  0.6926
  366MOL0     C50420  11.575   9.605   2.936 -0.2951 -0.2182  0.0182
  366MOL0     N50421  11.775   8.789   3.189  0.7065 -1.0606 -0.6536
  366MOL0     N50422  11.727   8.715   3.289 -0.1590  0.8983  0.3658
  366MOL0     C50423  10.706   8.610   4.200 -0.0330  0.7559  0.2368
  366MOL0     C50424  10.645   8.525   4.282 -0.3998  0.3775 -0.2677
  366MOL0     C50425  10.559   8.227   4.590 -1.0605 -0.5806 -0.3649
  366MOL0     C50426  10.616   8.102   4.576  0.3436  0.5584  0.2183
  366MOL0     C50427  10.575   7.997   4.656 -0.2807  0.1955  0.7531
  366MOL0     C50428  10.481   8.017   4.758  0.5679 -0.3888 -0.7639
  366MOL0     O50429  10.453   7.902   4.837  0.2509  0.5693  0.0849
  366MOL0     C50430  10.338   7.901   4.920 -1.0681  0.0723  0.3372
  366MOL0     C50431  10.318   7.769   4.993  0.6035  0.7811  0.8267
  366MOL0     C50432  10.300   7.650   4.885 -0.6023  0.1485  1.0806
  366MOL0     C50433  10.244   7.523   4.940 -0.1256  0.5174  0.2729
  366MOL0     C50434  10.355   7.452   5.004  1.1129  0.1329  0.0436
  366MOL0     C50435  10.457   7.393   5.045 -0.5733 -0.1853  0.6328
  366MOL0     C50436  10.427   8.148   4.775  0.2637 -0.3780  0.8331
  366MOL0     C50437  10.465   8.250   4.693  0.9948 -0.3768 -0.6630
  366MOL0     C50438  10.403   8.392   4.717 -0.7677  0.9464 -0.7502
  366MOL0     H50439  10.829   8.248   4.227 -0.1696 -0.1837 -0.2714
  366MOL0     H50440  10.951   8.400   4.076 -0.3511  0.1074  1.0556
  366MOL0     H50441  11.065   8.576   3.986  2.4783  1.1348  0.3024
  366MOL0     H50442  11.062   8.699   4.104  2.2658  3.2819 -1.4494
  366MOL0     H50443  11.021   8.743   3.797 -1.8164  0.3202  1.4752
  366MOL0     H50444  11.006   8.864   3.912  0.6980  0.1399  0.8129
  366MOL0     H50445  11.221   8.899   3.868 -1.7586 -0.2010  0.4486
  366MOL0     H50446  11.223   8.802   4.012 -1.1862  0.1361 -0.2145
  366MOL0     H50447  11.340   8.625   3.894  0.5493 -0.9016 -2.3308
  366MOL0     H50448  11.235   8.612   3.767  0.3779  1.0642 -1.4774
  366MOL0     H50449  11.468   8.671   3.723 -1.3971 -1.4129 -2.6447
  366MOL0     H50450  11.437   8.842   3.750  2.5673 -0.7509 -0.7141
  366MOL0     H50451  11.311   8.655   3.556 -1.6963  1.0517 -0.1221
  366MOL0     H50452  11.251   8.821   3.574  0.9069  3.0356  1.3689
  366MOL0     H50453  11.523   8.860   3.531  1.0030  1.2905 -2.3085
  366MOL0     H50454  11.397   8.861   3.401 -0.7427 -0.7410  0.2439
  366MOL0     H50455  11.558   8.620   3.469 -2.4444 -3.7392 -0.6483
  366MOL0     H50456  11.433   8.624   3.344  0.4667 -1.6114  0.9541
  366MOL0     H50457  11.456   8.842   3.172 -0.8357 -0.4114  1.5250
  366MOL0     H50458  11.649   8.913   2.931  0.5005 -1.4297  2.0110
  366MOL0     H50459  11.790   8.986   3.032  1.5241 -0.4478  0.8407
  366MOL0     H50460  11.499   9.055   3.067 -0.7379 -0.0104 -0.5201
  366MOL0     H50461  11.652   9.133   3.145  2.4913  3.3206 -3.0963
  366MOL0     H50462  11.714   9.173   2.887 -1.1538 -0.1176 -2.5693
  366MOL0     H50463  11.540   9.167   2.859  0.8642 -1.4794  0.5286
  366MOL0     H50464  11.494   9.336   2.998 -0.2715 -2.0098 -1.7807
  366MOL0     H50465  11.671   9.370   3.035 -0.7238  1.2845  1.1685
  366MOL0     H50466  11.811   9.527   2.716 -2.1992  0.4803 -0.6620
  366MOL0     H50467  11.876   9.778   2.610 -2.0147 -1.7891  0.5815
  366MOL0     H50468  11.976   9.696   2.723 -0.2369 -1.4456 -2.2829
  366MOL0     H50469  11.945   9.868   2.747 -0.2513  0.3455 -0.7798
  366MOL0     H50470  11.697  10.086   3.155 -0.6098 -0.1286  0.1707
  366MOL0     H50471  11.712  10.314   3.248  0.6991 -6.1821  0.5065
  366MOL0     H50472  11.654  10.542   3.298  0.1912  2.4602  1.4034
  366MOL0     H50473  11.803  10.549   3.196 -0.0665 -2.1653 -1.7610
  366MOL0     H50474  11.736  10.781   3.128 -0.3573 -0.4858 -0.9728
  366MOL0     H50475  11.568  10.758   3.199 -0.4602 -2.8719  0.1117
  366MOL0     H50476  11.823  10.764   3.374  1.6035  0.8423 -2.7022
  366MOL0     H50477  11.652  10.770   3.426 -0.1297 -0.0524 -1.2268
  366MOL0     H50478  11.614  10.975   3.287  0.0297 -1.9169 -2.1695
  366MOL0     H50479  11.781  10.969   3.250 -0.3262  0.1247 -0.8335
  366MOL0     H50480  11.703  10.961   3.538 -1.0290  1.5103 -0.4019
  366MOL0     H50481  11.853  11.027   3.479 -0.1628  0.1937 -0.8507
  366MOL0     H50482  11.588  11.164   3.441 -0.0390  2.5956  1.0781
  366MOL0     H50483  11.733  11.185   3.340  0.5591 -4.4979 -0.4335
  366MOL0     H50484  11.856  11.249   3.552 -0.4332  0.2486 -0.1057
  366MOL0     H50485  11.699  11.224   3.636  0.0880 -0.0885 -0.0085
  366MOL0     H50486  11.757  11.470   3.595  0.5780  0.8224 -0.1108
  366MOL0     H50487  11.617  11.421   3.523  1.1772  0.7795 -0.4305
  366MOL0     H50488  11.498  10.446   2.904 -0.0142 -0.2698 -0.7118
  366MOL0     H50489  11.472  10.218   2.821 -1.8011 -1.6552  0.9519
  366MOL0     H50490  11.538   9.793   3.024 -1.8378 -0.2164 -0.0937
  366MOL0     H50491  11.506   9.544   2.994 -0.1766 -0.9575 -0.6163
  366MOL0     H50492  10.658   8.707   4.190 -0.0583  0.8123  0.8889
  366MOL0     H50493  10.569   8.562   4.350  1.4178  0.1186  2.0061
  366MOL0     H50494  10.689   8.077   4.500 -1.4742  0.6807 -1.6468
  366MOL0     H50495  10.614   7.896   4.642 -0.1491  0.2910  0.4134
  366MOL0     H50496  10.341   7.984   4.992 -1.8856  1.0317 -0.6945
  366MOL0     H50497  10.259   7.919   4.846 -0.6521 -0.1775 -0.1728
  366MOL0     H50498  10.240   7.782   5.069  2.0370  2.2224  2.1285
  366MOL0     H50499  10.415   7.755   5.041  0.5932  1.7325  1.1521
  366MOL0     H50500  10.244   7.691   4.800 -0.5001 -0.4296  0.7316
  366MOL0     H50501  10.391   7.627   4.828 -1.8637 -0.4382 -0.7978
  366MOL0     H50502  10.228   7.458   4.853  1.5474 -0.7780  0.8753
  366MOL0     H50503  10.154   7.528   5.001  0.3557  0.8620  0.9647
  366MOL0     H50504  10.550   7.363   5.089 -1.0951 -1.3805  0.9586
  366MOL0     H50505  10.348   8.166   4.847 -0.4415  4.1998 -0.7462
  366MOL0     H50506  10.461   8.456   4.784 -0.2550 -1.8854  1.7091
  366MOL0     H50507  10.399   8.446   4.622  0.9924 -0.9812 -2.0114
  366MOL0     H50508  10.302   8.375   4.755 -0.1803  0.1243  0.5062
  367MOL0     O50509   9.730   6.147   9.258 -0.1467 -0.1009 -0.7550
  367MOL0     C50510   9.832   6.202   9.307  0.0196  0.3953  0.1132
  367MOL0     O50511   9.949   6.140   9.327  0.5378  0.7110 -0.3228
  367MOL0     C50512   9.968   6.003   9.314  0.3396  0.1508 -0.0348
  367MOL0     C50513   9.998   5.929   9.426  0.3351 -0.5642  0.0304
  367MOL0     C50514  10.013   5.787   9.422 -0.0799 -0.5771 -0.2017
  367MOL0     C50515  10.027   5.726   9.301  0.4122 -0.1152  1.0756
  367MOL0     O50516  10.065   5.594   9.283 -0.2253  0.1758 -0.1663
  367MOL0     C50517   9.987   5.494   9.351 -0.3217  0.3244  0.4871
  367MOL0     C50518  10.049   5.361   9.311 -0.0760  0.4086  0.2363
  367MOL0     C50519  10.194   5.342   9.366  0.2504  0.7075 -0.6228
  367MOL0     C50520  10.238   5.200   9.325 -0.1324 -0.6224  0.1213
  367MOL0     C50521  10.366   5.168   9.397 -0.7225 -0.8862 -0.2360
  367MOL0     C50522  10.477   5.285   9.397  0.0237 -0.5170  0.5109
  367MOL0     C50523  10.519   5.338   9.252 -0.0876  0.1930 -0.5424
  367MOL0     C50524  10.642   5.424   9.245  0.1094  0.2563  0.0899
  367MOL0     N50525  10.597   5.556   9.304  0.0552 -0.3700 -0.0618
  367MOL0     C50526  10.508   5.640   9.245 -0.6917 -0.2643  0.0498
  367MOL0     C50527  10.495   5.740   9.338  0.1759  0.1257 -0.0102
  367MOL0     C50528  10.423   5.877   9.328  0.0027  0.6457 -0.5212
  367MOL0     C50529  10.469   5.953   9.206  0.2572 -0.2965 -0.2584
  367MOL0     C50530  10.402   5.905   9.074  0.4809  1.2085 -0.1689
  367MOL0     C50531  10.497   5.899   8.955 -0.4173 -0.4493 -0.1151
  367MOL0     O50532  10.447   5.813   8.847  0.4896 -0.0908 -0.0911
  367MOL0     C50533  10.470   5.679   8.854 -0.3951  0.1797 -0.4248
  367MOL0     C50534  10.368   5.589   8.877  0.0739 -0.3215 -0.8093
  367MOL0     C50535  10.387   5.456   8.881 -0.3903  0.1164 -0.5791
  367MOL0     C50536  10.262   5.370   8.892 -0.7772 -0.7672 -0.6202
  367MOL0     C50537  10.519   5.407   8.863 -0.9467 -0.1672  0.2436
  367MOL0     C50538  10.555   5.264   8.864 -0.3400  0.1396 -0.3562
  367MOL0     O50539  10.447   5.186   8.857  0.6373 -0.8371  0.2087
  367MOL0     C50540  10.461   5.045   8.855  0.0397 -0.8207  0.9180
  367MOL0     C50541  10.433   4.974   8.969  0.0211 -0.6978 -0.2889
  367MOL0     C50542  10.445   4.836   8.967  0.2979 -0.2857 -0.2406
  367MOL0     C50543  10.501   4.764   8.864 -1.1739  0.2488 -0.2024
  367MOL0     O50544  10.491   4.627   8.871 -0.1786 -0.1435  1.3573
  367MOL0     C50545  10.526   4.558   8.994 -0.6830  0.8524  0.3033
  367MOL0     C50546  10.422   4.439   9.014 -0.3133 -0.2447 -0.1620
  367MOL0     C50547  10.346   4.437   9.141  1.1104  0.1728  0.1165
  367MOL0     C50548  10.296   4.287   9.162 -0.9768  0.0113 -0.1629
  367MOL0     C50549  10.211   4.265   9.296 -0.6161 -0.2974  1.0262
  367MOL0     C50550  10.215   4.106   9.313  0.5148 -0.0311  0.1523
  367MOL0     C50551  10.111   4.079   9.425 -0.5712  0.4010  0.0303
  367MOL0     C50552  10.069   3.934   9.424  0.1661  0.7058 -0.1062
  367MOL0    Cl50553  10.211   3.806   9.411  0.1732  0.4043 -0.1503
  367MOL0     C50554  10.532   4.839   8.749  1.5315  0.6269 -0.3875
  367MOL0     C50555  10.514   4.980   8.740 -0.3612  0.7001 -0.0828
  367MOL0     O50556  10.668   5.229   8.860  0.2421 -0.0470  0.3821
  367MOL0     C50557  10.620   5.497   8.835  0.9544 -0.1799 -0.2981
  367MOL0     C50558  10.602   5.630   8.822 -0.3877  0.2827 -0.4563
  367MOL0     N50559  10.565   5.703   9.454 -0.7330  0.2048 -0.5091
  367MOL0     N50560  10.622   5.592   9.431 -0.4344 -0.0114 -0.4146
  367MOL0     C50561  10.009   5.800   9.183 -0.9222 -0.0677  0.2235
  367MOL0     C50562   9.973   5.933   9.193  1.1829  0.0510  0.1346
  367MOL0     C50563   9.819   6.334   9.364  0.1004  0.2172  0.4046
  367MOL0     C50564   9.883   6.368   9.491  1.0788  0.1002 -0.5954
  367MOL0     C50565   9.865   6.490   9.554  1.1142  0.2659 -0.3353
  367MOL0     C50566   9.783   6.590   9.500 -1.0729  0.1003  0.6820
  367MOL0     O50567   9.746   6.710   9.557 -0.3750 -0.5593  0.7416
  367MOL0     C50568   9.812   6.758   9.674  0.5183 -0.1347 -0.5461
  367MOL0     C50569   9.741   6.876   9.739  0.3657 -0.1262 -0.0240
  367MOL0     C50570   9.746   6.997   9.637  0.1255  1.1573  0.2962
  367MOL0     C50571   9.888   7.062   9.643  0.8901  0.7362 -0.2113
  367MOL0     C50572   9.894   7.153   9.748 -1.2083  0.8715  0.9215
  367MOL0     C50573   9.911   7.210   9.857 -0.3855  0.1198  0.8731
  367MOL0     C50574   9.731   6.565   9.372  0.6795 -0.2288 -0.5426
  367MOL0     C50575   9.738   6.434   9.306 -0.5076 -0.2030 -0.2364
  367MOL0     C50576   9.652   6.425   9.186 -0.5805 -0.2760  0.2279
  367MOL0     H50577   9.991   5.965   9.529 -0.4650 -1.3877  0.2766
  367MOL0     H50578  10.039   5.728   9.510  2.1911 -0.7244 -0.9040
  367MOL0     H50579   9.880   5.478   9.334 -0.4786  1.0936  0.6901
  367MOL0     H50580  10.014   5.504   9.457 -0.1167  0.8974  0.3823
  367MOL0     H50581   9.981   5.283   9.346 -0.0482  0.6431  0.8330
  367MOL0     H50582  10.057   5.350   9.203 -0.1707  0.9001  0.1753
  367MOL0     H50583  10.258   5.422   9.326  3.9078  0.0863  3.3358
  367MOL0     H50584  10.187   5.340   9.475  1.3073 -1.7112 -0.5525
  367MOL0     H50585  10.164   5.125   9.353 -0.9275  0.2143  0.3423
  367MOL0     H50586  10.274   5.194   9.222 -1.2271  1.8825 -0.4932
  367MOL0     H50587  10.406   5.074   9.359 -1.4444 -1.3991  0.2354
  367MOL0     H50588  10.343   5.145   9.501  0.0581  2.5882  0.8574
  367MOL0     H50589  10.457   5.367   9.468 -1.6760 -1.6489  1.4133
  367MOL0     H50590  10.572   5.239   9.426 -0.5118 -1.1677  1.2843
  367MOL0     H50591  10.437   5.387   9.199 -0.8937  0.5731  1.0090
  367MOL0     H50592  10.554   5.256   9.188  3.9664  0.8796  0.5617
  367MOL0     H50593  10.724   5.377   9.300 -2.1749 -2.7564  1.1669
  367MOL0     H50594  10.685   5.415   9.144  2.0516 -2.3805  1.0601
  367MOL0     H50595  10.465   5.628   9.146  1.0431 -1.8804 -0.5712
  367MOL0     H50596  10.453   5.931   9.417  0.1342  0.7048 -0.6023
  367MOL0     H50597  10.314   5.864   9.337 -0.3658  3.5270  0.1517
  367MOL0     H50598  10.441   6.059   9.208  1.6280  0.1246 -1.4841
  367MOL0     H50599  10.579   5.959   9.201  0.1616  2.0235 -0.9168
  367MOL0     H50600  10.361   5.806   9.098  2.7683  0.4044  0.7062
  367MOL0     H50601  10.318   5.970   9.048 -2.6718 -1.0431  3.2396
  367MOL0     H50602  10.500   5.994   8.901 -0.6145 -2.5448 -4.1581
  367MOL0     H50603  10.598   5.878   8.991 -0.2039  1.8172  0.7756
  367MOL0     H50604  10.268   5.630   8.891 -0.3548 -0.4966 -2.9958
  367MOL0     H50605  10.184   5.445   8.878 -0.1133 -0.2804 -1.9010
  367MOL0     H50606  10.267   5.336   8.996  0.6279  0.4329 -0.2654
  367MOL0     H50607  10.254   5.290   8.817  0.2365  1.4019 -3.1913
  367MOL0     H50608  10.387   5.028   9.051 -3.5172 -0.7037 -2.0832
  367MOL0     H50609  10.405   4.793   9.057 -3.1949  2.7814 -0.0832
  367MOL0     H50610  10.625   4.512   8.985 -1.0632  0.0935 -0.0952
  367MOL0     H50611  10.535   4.622   9.082 -0.8215  2.6249 -0.9099
  367MOL0     H50612  10.346   4.437   8.935  0.3173 -0.6390 -0.7771
  367MOL0     H50613  10.481   4.347   9.004  0.0807  0.0949 -1.0369
  367MOL0     H50614  10.257   4.500   9.127  1.0252 -0.0396 -0.3273
  367MOL0     H50615  10.405   4.466   9.228  2.2912  2.2461 -1.3025
  367MOL0     H50616  10.382   4.221   9.154  0.7571  2.1574 -0.2043
  367MOL0     H50617  10.233   4.256   9.078 -3.0438 -0.9957  1.6590
  367MOL0     H50618  10.260   4.315   9.380 -0.5506  2.2482 -0.4346
  367MOL0     H50619  10.106   4.295   9.290 -0.9803 -1.7415 -1.1826
  367MOL0     H50620  10.315   4.066   9.336  0.0525 -3.0612 -2.4618
  367MOL0     H50621  10.175   4.058   9.223 -2.2419  2.2868  0.0141
  367MOL0     H50622  10.018   4.132   9.402 -0.7081 -0.8047 -2.5292
  367MOL0     H50623  10.155   4.106   9.521 -0.3370  0.0654  0.0175
  367MOL0     H50624  10.019   3.920   9.328  0.3193  0.0204 -0.0889
  367MOL0     H50625   9.998   3.908   9.502 -0.7982  0.9897 -0.8684
  367MOL0     H50626  10.574   4.784   8.665  0.1181 -0.6969 -0.2832
  367MOL0     H50627  10.518   5.029   8.643 -1.5958  1.8689  0.4446
  367MOL0     H50628  10.722   5.463   8.816  0.6228 -0.1987 -2.2283
  367MOL0     H50629  10.678   5.705   8.803 -0.6859  0.8037  0.3603
  367MOL0     H50630  10.035   5.749   9.091  1.1285 -0.2816  0.8898
  367MOL0     H50631   9.962   5.976   9.094  0.0401  0.2606  0.3364
  367MOL0     H50632   9.927   6.285   9.546  1.6302  1.9908  2.0079
  367MOL0     H50633   9.895   6.509   9.657 -0.6510  1.9440 -0.0777
  367MOL0     H50634   9.823   6.679   9.748 -1.5177 -0.8573 -0.9333
  367MOL0     H50635   9.918   6.775   9.654  1.4621 -1.1539  2.8890
  367MOL0     H50636   9.778   6.901   9.839 -2.7088  0.8981  0.9812
  367MOL0     H50637   9.637   6.850   9.760 -0.0628 -2.4409 -4.0838
  367MOL0     H50638   9.723   6.969   9.534 -2.6204 -0.8042  1.3350
  367MOL0     H50639   9.673   7.075   9.660  1.4835  2.5778 -0.0199
  367MOL0     H50640   9.888   7.124   9.552  0.6135  0.4592 -0.4012
  367MOL0     H50641   9.970   6.992   9.658  1.0481  1.0445  0.3760
  367MOL0     H50642   9.948   7.247   9.950  3.2839 -0.3567 -0.2036
  367MOL0     H50643   9.672   6.648   9.334 -0.0032  0.6547  2.2142
  367MOL0     H50644   9.709   6.367   9.112 -0.7261 -1.1319  0.7760
  367MOL0     H50645   9.564   6.361   9.201 -2.3588  1.8307 -0.6548
  367MOL0     H50646   9.626   6.518   9.136 -0.4610 -1.9482 -3.2671
  368MOL0     O50647  11.429  11.315  10.214 -0.1913 -0.6771 -0.1345
  368MOL0     C50648  11.383  11.427  10.221 -0.0359 -0.0684 -0.7234
  368MOL0     O50649  11.456  11.535  10.280  0.4871  0.2833 -0.0815
  368MOL0     C50650  11.567  11.498  10.355 -1.2458  0.1289 -0.5888
  368MOL0     C50651  11.558  11.426  10.471 -0.4212  0.0146 -0.3115
  368MOL0     C50652  11.673  11.382  10.544 -0.4628 -0.1296  0.4439
  368MOL0     C50653  11.801  11.430  10.507  0.5963 -0.1830  1.2017
  368MOL0     O50654  11.910  11.379  10.568  0.4362  0.2648 -0.1164
  368MOL0     C50655  12.001  11.476  10.608 -0.3999 -0.1467 -0.3471
  368MOL0     C50656  12.118  11.417  10.699  0.6168  0.0545 -0.0513
  368MOL0     C50657  12.197  11.540  10.752  0.7807  0.2895 -0.2515
  368MOL0     C50658  12.224  11.648  10.644  0.0181  0.9086 -0.6449
  368MOL0     C50659  12.282  11.772  10.722  0.3973 -0.3162  0.2820
  368MOL0     C50660  12.309  11.881  10.617 -1.4768 -1.1103 -1.0749
  368MOL0     C50661  12.193  11.962  10.595  1.3075 -0.5802  0.2792
  368MOL0     C50662  12.220  12.050  10.466 -0.3092  0.7011  0.0134
  368MOL0     N50663  12.094  12.131  10.446 -0.8222 -0.2813 -0.5596
  368MOL0     C50664  12.042  12.237  10.517  0.4431  0.6027 -0.0624
  368MOL0     C50665  11.903  12.227  10.492 -0.2859 -0.3387 -0.0461
  368MOL0     C50666  11.786  12.309  10.547 -0.4465  0.2382  0.5156
  368MOL0     C50667  11.789  12.447  10.466  0.0130  0.2500 -0.0883
  368MOL0     C50668  11.662  12.534  10.445  0.6402  0.2675 -1.1983
  368MOL0     C50669  11.567  12.536  10.568 -0.6261 -0.3499  0.6196
  368MOL0     O50670  11.469  12.631  10.553 -0.7636  0.7701  0.4231
  368MOL0     C50671  11.347  12.600  10.508  0.2802  0.7897 -0.4349
  368MOL0     C50672  11.243  12.696  10.522 -0.8433  0.3659  0.0176
  368MOL0     C50673  11.107  12.645  10.509 -0.1782  0.5607 -0.1577
  368MOL0     C50674  11.001  12.746  10.547 -0.3186  0.5268  0.4377
  368MOL0     C50675  11.082  12.505  10.467 -0.0225 -0.4421 -0.4221
  368MOL0     C50676  10.947  12.444  10.438  0.3288 -1.4271  0.0774
  368MOL0     O50677  10.921  12.381  10.318 -0.2026 -0.4750 -0.5340
  368MOL0     C50678  10.816  12.292  10.328 -0.2465 -1.3908 -0.1671
  368MOL0     C50679  10.819  12.186  10.418 -0.2827  0.8745  0.4385
  368MOL0     C50680  10.714  12.096  10.428  0.7582 -0.1283 -0.2659
  368MOL0     C50681  10.594  12.127  10.364  0.3185  0.3531  0.0411
  368MOL0     O50682  10.478  12.043  10.376 -0.3265  0.4957  0.6024
  368MOL0     C50683  10.445  12.007  10.503 -0.2699 -0.3008 -0.1368
  368MOL0     C50684  10.346  11.890  10.493  0.0638 -0.3319  0.7288
  368MOL0     C50685  10.211  11.927  10.426 -0.8647 -0.7020 -0.2017
  368MOL0     C50686  10.095  11.842  10.470  0.0692 -0.1943 -0.0887
  368MOL0     C50687  10.026  11.884  10.603 -0.0811 -0.0982  0.1815
  368MOL0     C50688   9.988  12.039  10.626  0.0012  0.0750 -0.4919
  368MOL0     C50689   9.887  12.061  10.744  0.0734  0.9461  0.1134
  368MOL0     C50690   9.867  12.209  10.773  0.5845 -0.3240 -0.3493
  368MOL0    Cl50691   9.780  12.283  10.637 -0.0996 -0.4272  0.7582
  368MOL0     C50692  10.580  12.235  10.278  0.2161  0.4902 -0.5807
  368MOL0     C50693  10.687  12.314  10.264  0.8482 -0.6089 -0.7511
  368MOL0     O50694  10.864  12.456  10.527  0.7353  0.3563  0.0366
  368MOL0     C50695  11.192  12.429  10.432  0.2159 -0.8308  0.7731
  368MOL0     C50696  11.316  12.474  10.454 -0.6599 -0.4375  0.0251
  368MOL0     N50697  11.884  12.126  10.401  0.8471  0.5069  0.7882
  368MOL0     N50698  11.995  12.065  10.376  0.0074 -0.3411  0.8726
  368MOL0     C50699  11.812  11.520  10.401 -0.4206 -0.4087  0.4500
  368MOL0     C50700  11.697  11.548  10.327 -0.0190  0.9477  0.4161
  368MOL0     C50701  11.235  11.450  10.179  0.4186 -0.0713 -0.0231
  368MOL0     C50702  11.172  11.575  10.214 -0.1183  0.4306 -0.0177
  368MOL0     C50703  11.033  11.599  10.189  0.5118 -0.7239 -0.1926
  368MOL0     C50704  10.947  11.499  10.143  0.0533  0.0602 -1.1103
  368MOL0     O50705  10.813  11.524  10.125  0.5806 -0.2818 -0.2881
  368MOL0     C50706  10.731  11.416  10.074 -0.8803  0.7739 -0.0243
  368MOL0     C50707  10.763  11.388   9.921 -0.1167 -0.5925 -0.8378
  368MOL0     C50708  10.743  11.507   9.824 -0.4241  0.0493  0.0728
  368MOL0     C50709  10.827  11.492   9.700 -0.4847  1.2587 -0.0577
  368MOL0     C50710  10.867  11.353   9.657 -0.5435  0.4196  0.5035
  368MOL0     C50711  10.898  11.241   9.627  0.2138 -0.6654 -0.5136
  368MOL0     C50712  11.008  11.375  10.120  0.1099  1.3052 -1.5690
  368MOL0     C50713  11.150  11.352  10.129 -0.1668 -0.2002 -0.9896
  368MOL0     C50714  11.192  11.219  10.088 -0.9721  1.2031 -0.1823
  368MOL0     H50715  11.458  11.399  10.502  0.5093 -2.5853  0.7752
  368MOL0     H50716  11.669  11.319  10.633 -2.5507 -3.3222 -1.6900
  368MOL0     H50717  11.955  11.559  10.664  4.3273  0.2373  3.5913
  368MOL0     H50718  12.058  11.506  10.519  1.7385 -3.0549 -0.1084
  368MOL0     H50719  12.087  11.351  10.780  2.8925 -1.1596 -0.0886
  368MOL0     H50720  12.192  11.365  10.637  0.4140 -0.3835  0.0754
  368MOL0     H50721  12.140  11.593  10.829 -0.3394 -1.5449  0.2482
  368MOL0     H50722  12.294  11.509  10.792  0.3525 -2.9351 -1.3949
  368MOL0     H50723  12.301  11.605  10.579  0.7254  1.3672 -0.1199
  368MOL0     H50724  12.140  11.675  10.579  0.2552 -1.4244 -2.0335
  368MOL0     H50725  12.366  11.741  10.784 -1.0063  0.6133  2.8179
  368MOL0     H50726  12.212  11.813  10.795 -0.3820  0.0424 -0.6388
  368MOL0     H50727  12.381  11.948  10.666 -1.2059 -1.1425 -1.4253
  368MOL0     H50728  12.351  11.830  10.530  0.1970  1.5954 -1.9913
  368MOL0     H50729  12.166  12.044  10.663  0.4091  0.5691 -1.3977
  368MOL0     H50730  12.102  11.902  10.584 -1.1685  2.4529  2.2826
  368MOL0     H50731  12.313  12.108  10.464 -0.7088  1.4655 -3.6526
  368MOL0     H50732  12.225  11.976  10.385 -1.3552  2.4761 -1.7483
  368MOL0     H50733  12.095  12.313  10.573  0.2132  0.6197  0.1351
  368MOL0     H50734  11.809  12.318  10.654  2.0194 -0.8059  0.1312
  368MOL0     H50735  11.693  12.253  10.538  0.1155 -1.3252  3.2355
  368MOL0     H50736  11.868  12.513  10.504  0.8464  0.4002 -1.9324
  368MOL0     H50737  11.830  12.438  10.364 -0.1230 -2.3101  0.0140
  368MOL0     H50738  11.691  12.635  10.416  3.9678  0.8825  3.1569
  368MOL0     H50739  11.612  12.496  10.356  0.1955 -2.7627  0.2170
  368MOL0     H50740  11.526  12.436  10.584 -0.6911 -0.2906  0.8212
  368MOL0     H50741  11.631  12.559  10.653  1.9977 -2.8278 -0.4789
  368MOL0     H50742  11.264  12.790  10.573  0.4033  0.2974 -0.3449
  368MOL0     H50743  10.901  12.708  10.523  0.7108 -2.0279 -0.1758
  368MOL0     H50744  11.024  12.833  10.485 -1.3147 -0.7553 -1.8750
  368MOL0     H50745  11.005  12.777  10.652  2.3224  0.7007  0.3464
  368MOL0     H50746  10.907  12.155  10.473  1.5837  1.6035 -1.9966
  368MOL0     H50747  10.730  12.009  10.490  2.8867  1.2551  1.2806
  368MOL0     H50748  10.526  11.974  10.569 -1.3966 -1.9028  0.5228
  368MOL0     H50749  10.400  12.093  10.553  0.3404  1.7348 -2.8542
  368MOL0     H50750  10.399  11.811  10.439 -0.7402 -0.7416  0.5307
  368MOL0     H50751  10.318  11.853  10.592 -2.7571  0.4745  0.3034
  368MOL0     H50752  10.234  11.918  10.319  3.6275  4.8802 -0.1600
  368MOL0     H50753  10.181  12.029  10.450 -0.0789 -1.0488  2.6258
  368MOL0     H50754  10.127  11.738  10.485  3.3753  0.8817  1.0546
  368MOL0     H50755  10.020  11.850  10.390 -0.0461 -1.3737 -0.1260
  368MOL0     H50756   9.947  11.809  10.618  1.7260 -1.7938  2.0213
  368MOL0     H50757  10.093  11.879  10.690  0.9808  0.9539 -0.5490
  368MOL0     H50758   9.939  12.070  10.533  0.8778  0.6963 -0.7587
  368MOL0     H50759  10.073  12.102  10.652 -1.1733  0.7134  2.0863
  368MOL0     H50760   9.932  12.015  10.832  2.5398  1.9460 -0.5361
  368MOL0     H50761   9.788  12.014  10.735  0.2269  0.7555 -0.6660
  368MOL0     H50762   9.969  12.246  10.781  1.0826 -1.9087  1.4501
  368MOL0     H50763   9.815  12.219  10.869 -0.2982 -0.7807 -0.7576
  368MOL0     H50764  10.490  12.244  10.219  1.5729  0.1328 -2.7963
  368MOL0     H50765  10.672  12.406  10.209 -1.2917 -1.4212 -1.6138
  368MOL0     H50766  11.185  12.332  10.385 -0.1787 -0.4136 -0.0492
  368MOL0     H50767  11.395  12.400  10.444  0.5164  0.9180 -1.5087
  368MOL0     H50768  11.906  11.555  10.358 -0.5061  1.8204  1.9195
  368MOL0     H50769  11.707  11.631  10.257  0.4311  1.8743  1.5603
  368MOL0     H50770  11.230  11.663  10.241  0.0635  0.4099 -0.3270
  368MOL0     H50771  10.996  11.701  10.196  2.1534 -0.0706 -0.7595
  368MOL0     H50772  10.742  11.326  10.136 -1.0560  0.9001  0.1933
  368MOL0     H50773  10.628  11.451  10.084  0.1979  4.7888 -1.0925
  368MOL0     H50774  10.700  11.303   9.894  0.1120 -0.6032 -1.3472
  368MOL0     H50775  10.869  11.362   9.907  0.3141  0.2741  0.6299
  368MOL0     H50776  10.640  11.529   9.796 -0.5263 -0.7212 -0.1763
  368MOL0     H50777  10.770  11.597   9.879 -0.4362  1.1852 -1.6885
  368MOL0     H50778  10.915  11.549   9.732 -1.7374  1.8744  2.5144
  368MOL0     H50779  10.780  11.546   9.618  0.4367  2.9188  0.4574
  368MOL0     H50780  10.911  11.144   9.582  0.7748  0.2639 -2.4484
  368MOL0     H50781  10.956  11.283  10.093 -1.3342  1.8815 -0.8553
  368MOL0     H50782  11.237  11.155  10.165 -1.3363  0.8275 -0.2759
  368MOL0     H50783  11.112  11.156  10.047 -1.3971  3.6707 -3.5618
  368MOL0     H50784  11.272  11.221  10.013  0.0395  0.5062  0.8461
  369MOL0     O50785   6.636   2.907   8.568  0.2996 -0.2425 -0.3254
  369MOL0     C50786   6.642   2.891   8.691  0.4051 -0.9228 -1.0955
  369MOL0     O50787   6.608   2.771   8.753 -0.2697 -0.8559 -0.0932
  369MOL0     C50788   6.593   2.654   8.682 -0.1799  1.2178  0.0017
  369MOL0     C50789   6.468   2.619   8.637  0.7782 -0.4910  0.3123
  369MOL0     C50790   6.456   2.495   8.573  0.5844  0.4925  0.2507
  369MOL0     C50791   6.569   2.418   8.551 -0.8917  0.5548  0.3225
  369MOL0     O50792   6.572   2.298   8.493 -1.3368  0.7721  0.0905
  369MOL0     C50793   6.499   2.293   8.366 -0.0637 -0.0135 -0.0356
  369MOL0     C50794   6.585   2.366   8.266 -1.2540 -0.3969 -0.0665
  369MOL0     C50795   6.683   2.259   8.198 -0.3854 -1.1589 -0.7392
  369MOL0     C50796   6.777   2.328   8.097  0.4860 -0.4166  0.4006
  369MOL0     C50797   6.835   2.229   7.992  0.3079 -0.0958 -0.0337
  369MOL0     C50798   6.741   2.229   7.862 -0.1724  0.2875  0.1231
  369MOL0     C50799   6.722   2.086   7.803 -0.9155 -0.1467  0.6155
  369MOL0     C50800   6.659   1.999   7.912  0.2348 -0.2172  0.2927
  369MOL0     N50801   6.577   1.889   7.857  0.6805  0.6873  0.1822
  369MOL0     C50802   6.615   1.802   7.764  0.5693  0.4116 -0.1370
  369MOL0     C50803   6.505   1.733   7.725 -0.6122 -0.0896  0.0431
  369MOL0     C50804   6.477   1.623   7.622  0.1798 -0.1814 -0.4016
  369MOL0     C50805   6.435   1.493   7.698 -0.8743  0.6012 -1.0497
  369MOL0     C50806   6.543   1.436   7.789  0.3187  0.8358  0.0143
  369MOL0     C50807   6.497   1.291   7.848 -0.3186 -1.1943 -0.2938
  369MOL0     O50808   6.562   1.265   7.980  0.3540 -0.4563 -0.2858
  369MOL0     C50809   6.681   1.194   7.983 -0.3654  0.2732 -0.1121
  369MOL0     C50810   6.783   1.191   7.883 -0.1622 -0.3272 -0.4633
  369MOL0     C50811   6.892   1.102   7.898  0.4816  0.4869 -0.2725
  369MOL0     C50812   6.990   1.110   7.785  0.4155 -0.1944  0.3439
  369MOL0     C50813   6.920   1.030   8.020  1.5272 -0.3647  0.1365
  369MOL0     C50814   7.042   0.946   8.057  0.4464  0.0858 -1.2552
  369MOL0     O50815   7.022   0.856   8.157  0.5914 -0.2696 -0.4284
  369MOL0     C50816   7.127   0.788   8.229  0.7471 -0.6207  0.0143
  369MOL0     C50817   7.085   0.713   8.339  0.5493 -0.0779  0.1863
  369MOL0     C50818   7.167   0.631   8.414 -0.1106 -0.1005 -0.0105
  369MOL0     C50819   7.297   0.620   8.375 -0.0436  0.2669  0.6333
  369MOL0     O50820   7.373   0.529   8.438 -0.4750 -0.6915 -1.0888
  369MOL0     C50821   7.482   0.586   8.514 -0.0048  0.5557  0.8748
  369MOL0     C50822   7.492   0.508   8.651 -1.0458 -0.4387 -0.1624
  369MOL0     C50823   7.602   0.552   8.752 -0.1551  0.9751  0.3716
  369MOL0     C50824   7.746   0.558   8.687  1.0602 -0.0395 -0.3112
  369MOL0     C50825   7.859   0.533   8.797  0.1094 -0.1760  0.0443
  369MOL0     C50826   7.979   0.595   8.738  1.0400 -1.0790  1.1154
  369MOL0     C50827   8.109   0.550   8.812  0.5818 -0.6666 -0.0866
  369MOL0     C50828   8.120   0.594   8.957 -0.5136  0.6116  0.5185
  369MOL0    Cl50829   8.167   0.761   8.944 -0.0939 -0.0252  0.1970
  369MOL0     C50830   7.345   0.687   8.264 -0.3994 -0.0079  0.3162
  369MOL0     C50831   7.255   0.766   8.186 -0.7307  0.8035  0.0381
  369MOL0     O50832   7.153   0.985   8.017 -0.8106  0.1555  0.6172
  369MOL0     C50833   6.812   1.043   8.117 -1.2086  0.5267 -0.6640
  369MOL0     C50834   6.701   1.126   8.101 -0.2261 -0.3415  0.1304
  369MOL0     N50835   6.401   1.780   7.805 -0.8484  0.3256 -0.6525
  369MOL0     N50836   6.449   1.860   7.886  0.9781  0.0425 -0.0195
  369MOL0     C50837   6.694   2.458   8.600  0.2842 -0.3879  1.0723
  369MOL0     C50838   6.701   2.569   8.683  0.6311  0.9780 -0.5571
  369MOL0     C50839   6.670   3.007   8.783  0.1460  0.8135  0.1592
  369MOL0     C50840   6.636   2.985   8.921 -0.5162 -0.1517 -0.0794
  369MOL0     C50841   6.658   3.091   9.010  0.2537  0.1712  0.2743
  369MOL0     C50842   6.702   3.216   8.976  0.0535 -0.5618  0.2549
  369MOL0     O50843   6.712   3.321   9.066  0.2717  0.0327  0.4150
  369MOL0     C50844   6.653   3.294   9.195  0.2753 -0.0391  0.2027
  369MOL0     C50845   6.649   3.427   9.290 -0.0674 -0.0736  0.4963
  369MOL0     C50846   6.732   3.428   9.411 -0.3097 -0.4495 -0.3590
  369MOL0     C50847   6.685   3.351   9.532  1.1671 -0.1922  0.3472
  369MOL0     C50848   6.766   3.387   9.650  0.2623 -0.5325  0.3683
  369MOL0     C50849   6.835   3.406   9.748 -0.3432  0.4562 -1.3623
  369MOL0     C50850   6.713   3.235   8.836  0.0506  0.1142  0.3975
  369MOL0     C50851   6.712   3.132   8.745  0.2379 -0.5859 -0.0497
  369MOL0     C50852   6.745   3.169   8.603  0.2605  0.3644  0.9977
  369MOL0     H50853   6.378   2.678   8.650  1.8303  1.7752 -1.8802
  369MOL0     H50854   6.359   2.446   8.566  0.3083  0.8397  1.4988
  369MOL0     H50855   6.401   2.341   8.364 -1.0703 -1.8804  1.2016
  369MOL0     H50856   6.465   2.195   8.331 -1.5765  0.6754 -0.5753
  369MOL0     H50857   6.522   2.402   8.184  3.3412  0.5594 -3.5512
  369MOL0     H50858   6.648   2.440   8.316  1.2433 -1.6264 -1.2266
  369MOL0     H50859   6.747   2.210   8.272  0.0255 -0.1605 -0.4062
  369MOL0     H50860   6.616   2.186   8.153 -1.6044 -2.9274  3.5068
  369MOL0     H50861   6.730   2.414   8.047 -2.3182 -2.3482 -0.5227
  369MOL0     H50862   6.861   2.376   8.149  1.1617  2.0080 -2.6551
  369MOL0     H50863   6.848   2.128   8.030  2.2241 -0.8482 -2.4229
  369MOL0     H50864   6.935   2.264   7.964 -0.2095  1.7381  0.2905
  369MOL0     H50865   6.640   2.263   7.889  0.5394  3.8482 -1.1240
  369MOL0     H50866   6.773   2.304   7.789 -0.7163  0.4131  0.0050
  369MOL0     H50867   6.808   2.033   7.761 -0.4520 -0.3236  1.7425
  369MOL0     H50868   6.646   2.094   7.724 -3.8622 -0.0747  3.2566
  369MOL0     H50869   6.744   1.949   7.958  1.4497  1.4904 -0.0073
  369MOL0     H50870   6.593   2.043   7.987 -2.8512 -4.3470  0.3866
  369MOL0     H50871   6.717   1.785   7.731  0.9388  1.3423  0.4926
  369MOL0     H50872   6.564   1.588   7.567  2.0886 -1.0660  2.9120
  369MOL0     H50873   6.406   1.668   7.552 -1.4206 -0.6999  0.8119
  369MOL0     H50874   6.348   1.513   7.761  0.9279 -2.4918  2.8516
  369MOL0     H50875   6.410   1.421   7.620 -1.0149  0.0785 -0.5224
  369MOL0     H50876   6.637   1.436   7.734 -0.3873  2.2567 -1.2779
  369MOL0     H50877   6.560   1.512   7.866  0.2173  0.3959  0.4817
  369MOL0     H50878   6.388   1.278   7.855 -0.3759 -0.5187  0.1348
  369MOL0     H50879   6.525   1.214   7.776 -0.7631  1.0171 -3.0267
  369MOL0     H50880   6.771   1.262   7.801 -1.6180  0.9842  0.8300
  369MOL0     H50881   6.927   1.097   7.696 -1.3401  0.5775  1.4153
  369MOL0     H50882   7.076   1.042   7.786  1.5974  1.0245  4.6436
  369MOL0     H50883   7.036   1.209   7.777 -1.2769  0.4727 -3.0142
  369MOL0     H50884   6.986   0.720   8.381  1.4737  3.3288  2.1494
  369MOL0     H50885   7.138   0.583   8.507 -0.6315 -1.2003 -0.7172
  369MOL0     H50886   7.575   0.564   8.461 -0.1521  2.6431 -0.4094
  369MOL0     H50887   7.469   0.693   8.534 -1.2112  0.4658  0.6516
  369MOL0     H50888   7.398   0.521   8.706 -0.8421 -0.9285  0.3124
  369MOL0     H50889   7.517   0.403   8.631 -0.0273 -0.1618 -0.4090
  369MOL0     H50890   7.606   0.474   8.828 -0.9021 -0.8244 -1.3479
  369MOL0     H50891   7.582   0.649   8.797  0.1049  0.4843  1.5746
  369MOL0     H50892   7.757   0.658   8.645  0.0914  2.2232  4.2102
  369MOL0     H50893   7.764   0.478   8.614 -0.3176 -0.7360  0.0712
  369MOL0     H50894   7.823   0.575   8.891 -0.4343  0.9711 -0.6495
  369MOL0     H50895   7.876   0.426   8.814  0.2748  0.1662  2.2694
  369MOL0     H50896   7.952   0.697   8.765  2.2846 -0.4221  0.0243
  369MOL0     H50897   7.977   0.568   8.632 -0.5770 -2.6477  1.4935
  369MOL0     H50898   8.200   0.585   8.761 -0.7969  1.0192 -1.5251
  369MOL0     H50899   8.107   0.442   8.796  0.3058 -0.4033 -2.0204
  369MOL0     H50900   8.194   0.529   9.005 -1.2548  1.5350  3.0812
  369MOL0     H50901   8.025   0.576   9.009 -1.0083  1.8231  0.0828
  369MOL0     H50902   7.447   0.680   8.226 -0.2512 -0.3988  0.7643
  369MOL0     H50903   7.297   0.802   8.093 -0.3749 -2.0777 -1.0350
  369MOL0     H50904   6.823   0.997   8.215  1.9165 -1.2249 -1.6642
  369MOL0     H50905   6.636   1.126   8.188  1.0570 -2.1388  1.1567
  369MOL0     H50906   6.785   2.406   8.574  0.5681  0.9784 -0.8072
  369MOL0     H50907   6.798   2.587   8.730 -0.1861  3.0929  0.4297
  369MOL0     H50908   6.615   2.889   8.967  1.0451 -1.2513 -1.5329
  369MOL0     H50909   6.630   3.058   9.109 -2.9061 -2.7772 -1.3829
  369MOL0     H50910   6.550   3.266   9.169  0.5014  1.7198 -3.0444
  369MOL0     H50911   6.701   3.213   9.251  1.6327  1.0761  0.6945
  369MOL0     H50912   6.542   3.437   9.309 -1.5674  0.0784 -5.8410
  369MOL0     H50913   6.664   3.518   9.231  3.7414 -0.4433  0.6390
  369MOL0     H50914   6.827   3.377   9.389 -1.1357 -3.1766  1.7831
  369MOL0     H50915   6.754   3.535   9.414 -0.7457 -0.0587 -4.4152
  369MOL0     H50916   6.693   3.244   9.510 -1.8161 -0.6243  0.9094
  369MOL0     H50917   6.586   3.393   9.553  2.2853  2.9820 -0.0824
  369MOL0     H50918   6.891   3.429   9.836 -2.2137 -0.2163  0.0757
  369MOL0     H50919   6.729   3.337   8.801 -0.6515  1.3710  3.4138
  369MOL0     H50920   6.828   3.116   8.557  0.7467  1.1586  0.9426
  369MOL0     H50921   6.655   3.167   8.540  0.5987  0.3307  0.5106
  369MOL0     H50922   6.785   3.271   8.595 -0.9509  0.9714  2.1426
  370MOL0     O50923   5.147   7.525   4.071  0.2333 -0.1000 -0.0780
  370MOL0     C50924   5.173   7.428   4.142  1.4833  0.3878  0.2404
  370MOL0     O50925   5.252   7.434   4.257  0.1646 -0.0677 -0.2104
  370MOL0     C50926   5.285   7.550   4.310  0.3047 -0.2758  0.3723
  370MOL0     C50927   5.198   7.619   4.384  0.2754  0.3725 -1.3029
  370MOL0     C50928   5.238   7.744   4.450  0.7341  0.5733  0.2376
  370MOL0     C50929   5.369   7.796   4.421  0.4156 -0.7190 -0.2282
  370MOL0     O50930   5.413   7.922   4.455  0.0969 -0.4083  1.0261
  370MOL0     C50931   5.399   7.965   4.589  0.1724  0.6374 -0.4049
  370MOL0     C50932   5.445   8.116   4.589  0.6531 -0.3758  0.1725
  370MOL0     C50933   5.352   8.203   4.505 -0.2474 -0.0511 -0.8609
  370MOL0     C50934   5.416   8.351   4.489 -0.1011  0.4730  1.2441
  370MOL0     C50935   5.301   8.425   4.406 -0.4525 -0.1473 -0.2052
  370MOL0     C50936   5.293   8.371   4.258 -0.4451 -0.2171  0.0134
  370MOL0     C50937   5.230   8.480   4.160 -0.5783  0.8367  0.8174
  370MOL0     C50938   5.228   8.415   4.020 -0.0454  0.3039 -1.0991
  370MOL0     N50939   5.161   8.511   3.923 -0.5765  1.1263 -0.5326
  370MOL0     C50940   5.196   8.643   3.890  0.6032  0.0317  0.6141
  370MOL0     C50941   5.106   8.675   3.784  0.2075  0.4974  0.7346
  370MOL0     C50942   5.097   8.805   3.715 -0.1785 -0.5684  0.0324
  370MOL0     C50943   5.241   8.865   3.699  1.2302  0.6355 -0.1620
  370MOL0     C50944   5.244   8.973   3.590 -0.0553  0.8334  0.4353
  370MOL0     C50945   5.378   9.052   3.584  0.1011 -0.9334  0.5606
  370MOL0     O50946   5.420   9.121   3.700 -0.2143  0.0809  0.2489
  370MOL0     C50947   5.328   9.207   3.754 -1.0508 -0.5345  0.8264
  370MOL0     C50948   5.299   9.192   3.886 -0.3078  0.7966  0.0737
  370MOL0     C50949   5.223   9.288   3.949 -0.0268  0.5386  0.3785
  370MOL0     C50950   5.198   9.267   4.089 -0.8754 -0.4524  0.8069
  370MOL0     C50951   5.145   9.380   3.870 -0.0687 -0.2938 -0.2044
  370MOL0     C50952   5.034   9.455   3.918  0.8675 -1.0229 -0.0066
  370MOL0     O50953   5.018   9.573   3.872 -0.9828 -0.6340 -0.7223
  370MOL0     C50954   4.915   9.652   3.925 -0.6381 -0.1736  0.2829
  370MOL0     C50955   4.839   9.723   3.833  1.1030  0.2941  0.4419
  370MOL0     C50956   4.732   9.803   3.863  0.5129 -0.3915  0.1356
  370MOL0     C50957   4.705   9.822   4.000 -0.6501  0.8169 -0.0101
  370MOL0     O50958   4.596   9.884   4.045  0.0575 -0.0489 -0.4539
  370MOL0     C50959   4.622  10.021   4.029 -0.3555 -0.1022  0.2153
  370MOL0     C50960   4.520  10.126   4.095  0.6460  1.1902 -0.0282
  370MOL0     C50961   4.545  10.257   4.027 -0.1892  1.1849 -0.3202
  370MOL0     C50962   4.683  10.316   4.037  0.0457 -0.4012 -0.5547
  370MOL0     C50963   4.710  10.339   4.189  0.2136  0.7858  0.1344
  370MOL0     C50964   4.815  10.461   4.204  0.0102  0.3451  0.3616
  370MOL0     C50965   4.773  10.608   4.178 -0.0164  0.3015 -0.1456
  370MOL0     C50966   4.871  10.707   4.247  0.6226 -0.3779  0.1484
  370MOL0    Cl50967   4.838  10.728   4.414  0.2356 -0.5202 -0.0848
  370MOL0     C50968   4.781   9.763   4.097  0.1601 -0.3630 -0.0087
  370MOL0     C50969   4.892   9.675   4.055  0.5638  0.2525 -0.9532
  370MOL0     O50970   4.947   9.399   3.982  1.2264 -0.5518 -0.7245
  370MOL0     C50971   5.168   9.391   3.736  0.4898  1.0439 -0.1397
  370MOL0     C50972   5.269   9.310   3.680 -0.1486  0.0287 -0.4619
  370MOL0     N50973   5.002   8.572   3.779  0.7799 -0.7816  0.2204
  370MOL0     N50974   5.035   8.488   3.865  0.3939 -0.5762  0.0370
  370MOL0     C50975   5.449   7.730   4.338 -0.5643 -0.3792 -0.7313
  370MOL0     C50976   5.413   7.602   4.288 -0.5046  0.1793  0.0668
  370MOL0     C50977   5.115   7.296   4.117 -1.1830 -0.2180 -0.5006
  370MOL0     C50978   5.133   7.201   4.219 -0.6377 -0.0334 -0.1653
  370MOL0     C50979   5.079   7.076   4.211 -0.1362  0.2753  0.3994
  370MOL0     C50980   5.003   7.042   4.092 -0.1258 -0.0531 -0.7698
  370MOL0     O50981   4.931   6.922   4.102 -0.0756  0.6014  0.0584
  370MOL0     C50982   4.838   6.872   4.001  0.3526  0.8056 -0.5447
  370MOL0     C50983   4.790   6.728   4.026 -0.2112 -0.1554  0.5855
  370MOL0     C50984   4.740   6.664   3.893  0.6441 -0.4314 -0.1518
  370MOL0     C50985   4.663   6.535   3.906  0.2094 -0.7721 -0.7846
  370MOL0     C50986   4.607   6.498   3.785  1.2102  0.5732  0.9318
  370MOL0     C50987   4.550   6.454   3.683 -0.3120  0.7671 -0.3772
  370MOL0     C50988   4.984   7.134   3.994 -0.7434 -0.0270 -0.8134
  370MOL0     C50989   5.057   7.257   3.997 -0.5434 -0.6718 -0.0523
  370MOL0     C50990   5.058   7.343   3.865  0.0259  0.5232 -0.7177
  370MOL0     H50991   5.096   7.587   4.403  0.5707  1.1736  2.3437
  370MOL0     H50992   5.167   7.783   4.523 -0.5535  0.0807 -0.7170
  370MOL0     H50993   5.456   7.911   4.666  0.2527  1.9477  0.4987
  370MOL0     H50994   5.293   7.959   4.618  0.2551 -1.9116 -0.4140
  370MOL0     H50995   5.459   8.153   4.691 -2.5205 -1.6025  1.1750
  370MOL0     H50996   5.545   8.120   4.543  0.2144 -0.1718 -0.7864
  370MOL0     H50997   5.343   8.153   4.408  0.5971 -0.3161 -0.8174
  370MOL0     H50998   5.259   8.193   4.561  0.3033 -0.4690  0.0133
  370MOL0     H50999   5.437   8.412   4.577  0.4596  1.7549  0.2543
  370MOL0     H51000   5.508   8.344   4.431 -0.7600  1.3255  0.0397
  370MOL0     H51001   5.320   8.533   4.405  0.2747 -0.2643  0.0197
  370MOL0     H51002   5.205   8.429   4.457  0.4450  1.5995  1.4591
  370MOL0     H51003   5.391   8.329   4.233  1.4341  2.6242  1.9911
  370MOL0     H51004   5.234   8.279   4.252 -1.8687  0.7456 -2.3202
  370MOL0     H51005   5.295   8.568   4.147  0.0095  0.1272 -1.7331
  370MOL0     H51006   5.130   8.519   4.181 -2.2284  0.5255 -4.7367
  370MOL0     H51007   5.333   8.407   3.993  0.6136  0.1119  1.2995
  370MOL0     H51008   5.177   8.318   4.025  1.5628 -0.5259  0.1094
  370MOL0     H51009   5.288   8.693   3.922 -0.3146  3.8465 -1.9601
  370MOL0     H51010   5.030   8.874   3.768 -0.7159  0.7181 -2.2121
  370MOL0     H51011   5.052   8.785   3.618  3.9477  0.9224 -2.4341
  370MOL0     H51012   5.282   8.916   3.787 -0.2633  0.5494  0.6153
  370MOL0     H51013   5.307   8.783   3.671 -1.1473 -1.3282 -0.3204
  370MOL0     H51014   5.242   8.917   3.496  0.1709  1.0356  0.3093
  370MOL0     H51015   5.160   9.042   3.603 -1.1155 -0.2877 -0.2948
  370MOL0     H51016   5.460   8.994   3.539  0.5153  0.8181 -1.1002
  370MOL0     H51017   5.359   9.130   3.510  1.2129  0.5614  1.7901
  370MOL0     H51018   5.342   9.112   3.945 -0.6472  1.9315  1.9236
  370MOL0     H51019   5.100   9.222   4.107 -1.9197  0.3469 -2.2344
  370MOL0     H51020   5.190   9.364   4.140 -0.1834 -0.7628  1.5248
  370MOL0     H51021   5.287   9.218   4.128  0.3574  1.5132  0.5867
  370MOL0     H51022   4.853   9.698   3.728 -1.9911 -1.5871  0.3393
  370MOL0     H51023   4.668   9.844   3.786  1.6975 -1.3231 -1.4089
  370MOL0     H51024   4.719  10.050   4.071  0.1952 -2.4953  0.7641
  370MOL0     H51025   4.636  10.045   3.923 -1.0649  1.0654  0.3749
  370MOL0     H51026   4.416  10.108   4.066  0.7186  0.2231  0.2965
  370MOL0     H51027   4.524  10.140   4.203 -1.3658  3.6420 -0.1861
  370MOL0     H51028   4.464  10.325   4.057 -2.5726 -0.8771 -1.7536
  370MOL0     H51029   4.514  10.241   3.924 -4.4377  0.5751  0.8201
  370MOL0     H51030   4.688  10.411   3.981 -0.0390 -0.4555 -0.6565
  370MOL0     H51031   4.757  10.245   4.000 -1.9838 -1.7882 -2.2030
  370MOL0     H51032   4.618  10.362   4.244 -0.1366 -3.4085  1.6712
  370MOL0     H51033   4.742  10.246   4.236 -3.8196 -0.5809  0.5276
  370MOL0     H51034   4.901  10.446   4.138 -3.2794 -3.4651 -3.6853
  370MOL0     H51035   4.844  10.443   4.308  1.9386 -1.5474 -0.4246
  370MOL0     H51036   4.670  10.627   4.209 -1.0812 -0.4435 -2.9326
  370MOL0     H51037   4.782  10.626   4.070  0.8744 -0.3379 -0.1874
  370MOL0     H51038   4.862  10.802   4.194  0.5797 -0.8835 -0.7764
  370MOL0     H51039   4.975  10.673   4.235  0.1666 -1.1160 -2.3146
  370MOL0     H51040   4.759   9.786   4.201  0.3757 -0.3762  0.0401
  370MOL0     H51041   4.952   9.622   4.128 -0.5180  0.9029  0.4622
  370MOL0     H51042   5.116   9.466   3.678 -0.1884  0.6096 -0.0996
  370MOL0     H51043   5.298   9.344   3.581  3.9515  1.2333  0.9559
  370MOL0     H51044   5.540   7.783   4.313 -1.6738  1.3054 -1.3669
  370MOL0     H51045   5.474   7.558   4.210 -3.8452  0.5618 -3.0526
  370MOL0     H51046   5.173   7.219   4.319 -1.2989 -0.8635  0.2557
  370MOL0     H51047   5.083   7.012   4.298  3.2704  0.7064  0.6950
  370MOL0     H51048   4.749   6.935   4.003  0.2139  0.6679 -1.6955
  370MOL0     H51049   4.886   6.876   3.902  0.8321  0.6672 -0.3230
  370MOL0     H51050   4.712   6.732   4.104 -2.5203  2.6863 -1.6359
  370MOL0     H51051   4.885   6.686   4.060  0.6574 -0.6264 -2.1960
  370MOL0     H51052   4.680   6.733   3.833 -0.1672 -0.6794  0.3565
  370MOL0     H51053   4.826   6.632   3.833 -0.2618 -2.2195 -0.5643
  370MOL0     H51054   4.576   6.565   3.966  1.3905  1.4658 -0.0529
  370MOL0     H51055   4.722   6.453   3.948 -2.2136 -1.1518  2.2892
  370MOL0     H51056   4.526   6.432   3.581  2.6860  0.3354 -1.0807
  370MOL0     H51057   4.927   7.108   3.905  0.0171 -1.6445 -0.8691
  370MOL0     H51058   4.995   7.432   3.877 -0.8001  0.2377 -2.6036
  370MOL0     H51059   5.158   7.375   3.835  0.1580  2.1564  1.2023
  370MOL0     H51060   5.022   7.294   3.775 -1.5526  0.5516 -0.1384
  371MOL0     O51061   2.632   2.859   2.074  0.8226  0.4354 -0.0591
  371MOL0     C51062   2.723   2.784   2.033 -1.0735 -0.0833  0.1328
  371MOL0     O51063   2.835   2.821   1.955 -0.3713  0.3003  0.3058
  371MOL0     C51064   2.817   2.944   1.893  0.0070  0.5536 -0.6132
  371MOL0     C51065   2.931   3.014   1.870 -0.9451  0.3430  0.4003
  371MOL0     C51066   2.942   3.130   1.787  0.1122  0.7466 -0.2342
  371MOL0     C51067   2.822   3.177   1.732 -0.0749 -0.4580 -1.0062
  371MOL0     O51068   2.824   3.294   1.656  0.3375 -0.1152 -0.6943
  371MOL0     C51069   2.867   3.420   1.716  1.3297 -0.3953  0.5640
  371MOL0     C51070   2.829   3.534   1.620 -0.3978  0.5593 -0.4180
  371MOL0     C51071   2.912   3.663   1.652  0.4094  0.4220  0.1225
  371MOL0     C51072   2.869   3.787   1.574  1.1530 -0.2948  0.4214
  371MOL0     C51073   2.966   3.907   1.586 -1.3856 -0.2718  0.1050
  371MOL0     C51074   2.932   3.991   1.704  0.1293 -0.3994 -1.0655
  371MOL0     C51075   3.042   4.093   1.752  0.2879 -0.2374 -0.3383
  371MOL0     C51076   2.990   4.177   1.872  0.0498 -0.7892 -0.4822
  371MOL0     N51077   3.053   4.316   1.894  0.7089 -0.3521  0.2432
  371MOL0     C51078   3.036   4.425   1.814 -0.3090  0.3010 -0.5341
  371MOL0     C51079   3.093   4.533   1.883 -0.0747 -1.0060  0.1750
  371MOL0     C51080   3.123   4.676   1.830  0.5998 -0.1903 -0.2835
  371MOL0     C51081   3.239   4.662   1.731  0.3014 -0.0648 -1.0530
  371MOL0     C51082   3.376   4.614   1.792 -0.5482 -1.1032 -0.1997
  371MOL0     C51083   3.426   4.701   1.910  0.4494 -0.1433 -0.3560
  371MOL0     O51084   3.567   4.695   1.902  0.2124  0.6481 -0.1014
  371MOL0     C51085   3.627   4.776   1.998 -0.4487  0.1729  0.5442
  371MOL0     C51086   3.742   4.849   1.963  0.1719  0.4188  0.0224
  371MOL0     C51087   3.811   4.928   2.055  1.0986 -0.1452  0.7610
  371MOL0     C51088   3.927   5.003   1.987 -0.1305 -0.0133  0.3569
  371MOL0     C51089   3.760   4.947   2.186  0.1089  0.0351  0.6383
  371MOL0     C51090   3.811   5.051   2.289 -0.3537  0.8059  0.2366
  371MOL0     O51091   3.747   5.045   2.409  0.5232 -0.1613 -0.5569
  371MOL0     C51092   3.814   5.095   2.514 -1.1754  0.8366 -0.1663
  371MOL0     C51093   3.896   5.003   2.574  1.0097  0.0895 -0.8567
  371MOL0     C51094   3.965   5.038   2.688  0.4004 -1.4257 -0.6477
  371MOL0     C51095   3.962   5.171   2.735  0.4470 -0.2892  0.7879
  371MOL0     O51096   4.036   5.204   2.851  0.2505 -0.0105  0.4367
  371MOL0     C51097   4.048   5.120   2.958 -0.5394 -0.8044 -0.3863
  371MOL0     C51098   4.023   5.183   3.096  0.1168 -1.0565 -0.3094
  371MOL0     C51099   4.110   5.310   3.114 -0.3465  0.4954 -0.0255
  371MOL0     C51100   4.067   5.385   3.244  0.5256 -0.4380 -0.3340
  371MOL0     C51101   4.153   5.502   3.278 -0.2306  0.4069 -0.5620
  371MOL0     C51102   4.122   5.549   3.419 -0.7075  0.0953 -0.0237
  371MOL0     C51103   4.177   5.682   3.459 -1.0023  0.7756 -0.0537
  371MOL0     C51104   4.326   5.707   3.435  0.1603  1.5193 -0.0702
  371MOL0    Cl51105   4.447   5.607   3.530 -0.2235 -0.3215  0.3249
  371MOL0     C51106   3.881   5.271   2.668  0.1845 -0.3471 -0.5045
  371MOL0     C51107   3.805   5.232   2.554  0.3118  0.5367 -0.6709
  371MOL0     O51108   3.914   5.119   2.259  0.4040 -0.2098 -0.4483
  371MOL0     C51109   3.663   4.862   2.220 -0.1348  0.8937  0.0987
  371MOL0     C51110   3.588   4.783   2.134 -1.6350 -0.4821 -0.2716
  371MOL0     N51111   3.160   4.484   1.992 -0.4243  0.3682 -0.9073
  371MOL0     N51112   3.138   4.360   1.995  0.5473  0.5114 -0.6038
  371MOL0     C51113   2.694   3.116   1.754  0.2884 -0.3233 -0.9775
  371MOL0     C51114   2.695   2.998   1.835 -0.1924  0.3382 -0.3827
  371MOL0     C51115   2.733   2.644   2.095 -0.4972  0.2835 -1.5941
  371MOL0     C51116   2.861   2.586   2.099 -0.3452 -0.3131  0.6221
  371MOL0     C51117   2.883   2.460   2.164  0.1264 -0.4213  1.0124
  371MOL0     C51118   2.770   2.393   2.207 -0.1797 -1.1980  0.2454
  371MOL0     O51119   2.802   2.283   2.276  0.1306  0.7367 -0.4550
  371MOL0     C51120   2.741   2.294   2.412  0.3919 -0.1873 -0.3304
  371MOL0     C51121   2.811   2.183   2.490  0.5983  0.4421  0.0013
  371MOL0     C51122   2.789   2.186   2.642  0.8000  0.0554  0.6598
  371MOL0     C51123   2.885   2.092   2.716 -0.7561  0.7175  0.7008
  371MOL0     C51124   2.890   1.948   2.671  0.8538  0.0586  0.8145
  371MOL0     C51125   2.905   1.827   2.646 -0.0770  0.3958 -1.0187
  371MOL0     C51126   2.642   2.439   2.185  0.4256 -0.0075 -1.4555
  371MOL0     C51127   2.623   2.561   2.126 -0.2007  0.4092  0.0851
  371MOL0     C51128   2.482   2.600   2.094 -0.7686  0.8117  0.1589
  371MOL0     H51129   3.020   2.986   1.925  0.9609 -1.2570 -3.1755
  371MOL0     H51130   3.035   3.173   1.752 -0.5359  3.0345  0.7027
  371MOL0     H51131   2.970   3.445   1.742  0.2563  2.4420  2.6301
  371MOL0     H51132   2.798   3.441   1.798  0.0587  1.4116 -0.8712
  371MOL0     H51133   2.839   3.511   1.514  5.3988  1.4712 -0.4286
  371MOL0     H51134   2.724   3.562   1.629 -0.6976 -0.5861 -0.2451
  371MOL0     H51135   2.926   3.683   1.759  0.1152  4.3936 -0.4487
  371MOL0     H51136   3.012   3.646   1.611 -0.7622 -0.8674 -2.4602
  371MOL0     H51137   2.872   3.746   1.473  0.4730 -0.9848  0.6734
  371MOL0     H51138   2.768   3.815   1.606  0.2972 -0.8979 -1.5636
  371MOL0     H51139   2.964   3.970   1.496 -0.9295  1.4261  1.2233
  371MOL0     H51140   3.069   3.870   1.597 -0.8242  1.8934  4.3135
  371MOL0     H51141   2.841   4.044   1.676 -0.2851 -1.3117 -1.4879
  371MOL0     H51142   2.905   3.937   1.796 -2.2973  0.5884 -1.1403
  371MOL0     H51143   3.072   4.156   1.667 -3.3967  0.2290 -1.4566
  371MOL0     H51144   3.124   4.034   1.794  1.0712  1.1889  0.2180
  371MOL0     H51145   2.884   4.200   1.861 -0.2036  1.1100  3.9192
  371MOL0     H51146   3.015   4.119   1.961  2.2949 -0.2346 -0.6797
  371MOL0     H51147   2.999   4.427   1.712 -0.3867 -2.2579 -0.6134
  371MOL0     H51148   3.151   4.738   1.915 -1.8443 -0.3845  0.7403
  371MOL0     H51149   3.039   4.726   1.782 -0.2004 -0.1037  1.1473
  371MOL0     H51150   3.205   4.588   1.657  0.6867 -1.8361  0.4772
  371MOL0     H51151   3.248   4.764   1.692 -2.0129  0.2520 -0.9238
  371MOL0     H51152   3.373   4.509   1.821 -3.1406 -0.4132  2.5905
  371MOL0     H51153   3.446   4.622   1.709  0.5012  0.6597  0.7918
  371MOL0     H51154   3.383   4.802   1.905 -2.0134 -1.1374 -0.9460
  371MOL0     H51155   3.383   4.649   1.997 -0.6499 -0.6177 -1.1630
  371MOL0     H51156   3.772   4.832   1.860  0.0481 -0.1690  0.0811
  371MOL0     H51157   3.896   5.106   1.969  0.1562  0.5267  2.6308
  371MOL0     H51158   3.953   4.960   1.890  0.5882  0.6226  0.2575
  371MOL0     H51159   4.024   5.010   2.039 -0.0434  0.8803  0.0818
  371MOL0     H51160   3.925   4.902   2.544  0.5704 -0.0655 -0.7651
  371MOL0     H51161   4.028   4.962   2.732 -0.7725 -2.9713 -1.5395
  371MOL0     H51162   3.971   5.044   2.942 -1.0980  0.0534 -1.9698
  371MOL0     H51163   4.152   5.090   2.971  1.2126  4.1137 -0.9057
  371MOL0     H51164   3.921   5.223   3.105 -0.4977 -2.6334  0.1887
  371MOL0     H51165   4.058   5.115   3.174  1.2951 -1.6880 -1.3452
  371MOL0     H51166   4.109   5.381   3.030 -0.2772  0.5583  0.0273
  371MOL0     H51167   4.208   5.261   3.124 -0.5601  0.0552 -0.0490
  371MOL0     H51168   4.085   5.312   3.324 -4.5217  0.0596  1.6362
  371MOL0     H51169   3.961   5.411   3.247  0.8803  1.1061 -0.2720
  371MOL0     H51170   4.260   5.482   3.278 -0.0002  1.0876  2.4241
  371MOL0     H51171   4.139   5.580   3.204  2.5084  1.5847  0.0670
  371MOL0     H51172   4.158   5.478   3.494 -0.9731  0.0771  0.0851
  371MOL0     H51173   4.014   5.558   3.431 -0.4900 -1.0406  4.1251
  371MOL0     H51174   4.154   5.699   3.564 -0.8109 -0.7352  0.2660
  371MOL0     H51175   4.119   5.753   3.399  1.1829  0.0429 -3.3321
  371MOL0     H51176   4.342   5.811   3.464 -1.6308  1.7175  0.2962
  371MOL0     H51177   4.357   5.697   3.331 -0.8816  0.3054 -0.2903
  371MOL0     H51178   3.874   5.372   2.707 -0.2141 -1.1844  1.7900
  371MOL0     H51179   3.757   5.307   2.492  1.0620  1.7940  0.2356
  371MOL0     H51180   3.638   4.865   2.325  0.6140 -0.4232  0.3456
  371MOL0     H51181   3.510   4.716   2.169 -0.6527 -1.6092 -0.1960
  371MOL0     H51182   2.608   3.168   1.714 -0.3520  2.6707  3.5710
  371MOL0     H51183   2.599   2.951   1.853 -2.2434  4.2770  0.0671
  371MOL0     H51184   2.949   2.634   2.058 -1.9656  1.3075 -1.1442
  371MOL0     H51185   2.980   2.412   2.175  0.1632 -0.4832  0.4505
  371MOL0     H51186   2.749   2.393   2.456 -1.9506  0.7582 -1.8362
  371MOL0     H51187   2.635   2.270   2.404  0.4579 -1.0572  1.0701
  371MOL0     H51188   2.917   2.198   2.467  0.6647  1.5947  0.9542
  371MOL0     H51189   2.774   2.094   2.439  0.9351  1.5316 -2.2709
  371MOL0     H51190   2.803   2.292   2.668  2.2951  1.7843 -5.3906
  371MOL0     H51191   2.692   2.144   2.669  0.1904  0.5281 -0.6621
  371MOL0     H51192   2.850   2.091   2.820 -1.7999 -1.9009  0.3987
  371MOL0     H51193   2.988   2.130   2.714 -0.4373  0.1132  2.6476
  371MOL0     H51194   2.921   1.722   2.636  0.7568  0.4921 -0.8104
  371MOL0     H51195   2.553   2.385   2.218 -0.7608  2.5811 -0.1061
  371MOL0     H51196   2.410   2.532   2.141 -1.2096  2.1958  1.5876
  371MOL0     H51197   2.471   2.697   2.145  2.2434  1.5962 -0.4885
  371MOL0     H51198   2.468   2.599   1.986  0.0334 -0.9757  0.0463
  372MOL0     O51199   3.502   0.521   9.319 -0.1414 -0.5345  0.1551
  372MOL0     C51200   3.472   0.552   9.431 -0.1880 -0.8363  0.0456
  372MOL0     O51201   3.363   0.641   9.466 -0.1916 -0.5243  0.0212
  372MOL0     C51202   3.290   0.704   9.373  0.1804 -0.0557  0.4038
  372MOL0     C51203   3.347   0.744   9.239 -0.0673  0.6491 -0.9326
  372MOL0     C51204   3.269   0.793   9.140  0.3252  0.7962 -0.6868
  372MOL0     C51205   3.133   0.825   9.169  0.6320  0.1392 -0.0487
  372MOL0     O51206   3.067   0.880   9.063  0.0419 -0.0319 -0.1089
  372MOL0     C51207   3.033   1.013   9.079  0.6010 -0.5070 -0.2113
  372MOL0     C51208   2.884   1.027   9.088  1.0559 -0.0856 -0.2016
  372MOL0     C51209   2.837   1.161   9.040 -0.0620 -0.7088  0.4104
  372MOL0     C51210   2.867   1.275   9.132  0.6412  0.0855 -0.0806
  372MOL0     C51211   2.831   1.411   9.064 -0.2937 -0.2711 -0.0317
  372MOL0     C51212   2.822   1.515   9.177  0.5395  0.3815 -0.2369
  372MOL0     C51213   2.785   1.653   9.128 -0.7843  0.1911 -0.2176
  372MOL0     C51214   2.811   1.755   9.241  0.0368  0.8089  0.2758
  372MOL0     N51215   2.788   1.903   9.200  0.5464  0.6625  0.1521
  372MOL0     C51216   2.689   1.985   9.254  0.5319 -1.1113 -0.4166
  372MOL0     C51217   2.681   2.099   9.179  0.1269 -0.2484  0.3347
  372MOL0     C51218   2.588   2.210   9.185  1.3241 -0.8559  0.6072
  372MOL0     C51219   2.468   2.217   9.085 -0.9103  0.3371 -0.6484
  372MOL0     C51220   2.508   2.176   8.948 -0.0054  0.6740  0.6183
  372MOL0     C51221   2.389   2.166   8.854 -1.1379  0.6789 -0.5842
  372MOL0     O51222   2.345   2.305   8.839 -0.0832 -0.2526 -0.2567
  372MOL0     C51223   2.262   2.321   8.725  0.1413  0.1248  0.0613
  372MOL0     C51224   2.248   2.451   8.666 -0.3566  1.4296 -0.6575
  372MOL0     C51225   2.162   2.479   8.565  0.1546 -0.3191  0.0421
  372MOL0     C51226   2.147   2.627   8.522  0.7550  0.4652  0.2120
  372MOL0     C51227   2.088   2.369   8.512  0.1829 -0.0776 -0.6173
  372MOL0     C51228   2.003   2.391   8.403  0.8332 -0.5152  0.2843
  372MOL0     O51229   1.889   2.456   8.425  0.7953  0.2452 -0.4301
  372MOL0     C51230   1.805   2.513   8.328 -0.2402  0.2215 -0.8328
  372MOL0     C51231   1.854   2.610   8.242  0.0032  0.2345  0.2066
  372MOL0     C51232   1.779   2.641   8.130 -0.2378 -0.1820 -0.9836
  372MOL0     C51233   1.647   2.594   8.103 -0.2890 -0.8266 -0.3601
  372MOL0     O51234   1.562   2.615   7.994  0.3587 -0.0166 -0.0325
  372MOL0     C51235   1.592   2.720   7.902  0.4669 -0.1008 -1.0390
  372MOL0     C51236   1.495   2.731   7.793  0.0597 -0.9944 -0.5463
  372MOL0     C51237   1.373   2.807   7.832  0.8963 -0.3989 -0.2972
  372MOL0     C51238   1.264   2.800   7.718 -0.0315  0.5652 -1.0431
  372MOL0     C51239   1.186   2.932   7.750 -0.3314  0.4035  0.1608
  372MOL0     C51240   1.048   2.934   7.707  0.7140  0.1514  0.3499
  372MOL0     C51241   0.976   3.071   7.717 -0.4761  0.1277 -0.1194
  372MOL0     C51242   0.845   3.066   7.647  0.7878  0.0562  1.0271
  372MOL0    Cl51243   0.750   3.221   7.657  0.1804 -0.2201 -0.4268
  372MOL0     C51244   1.594   2.517   8.200  0.1035  0.5357 -0.0167
  372MOL0     C51245   1.670   2.475   8.313 -0.1030 -0.0607 -0.7715
  372MOL0     O51246   2.030   2.326   8.300  0.2578  0.2980 -0.2321
  372MOL0     C51247   2.095   2.240   8.564  0.5094  0.2993 -0.7863
  372MOL0     C51248   2.178   2.226   8.675 -0.5047  0.1951  0.1283
  372MOL0     N51249   2.792   2.082   9.101 -0.1541  0.2636  0.2034
  372MOL0     N51250   2.857   1.972   9.100  0.5595 -0.6588  0.1169
  372MOL0     C51251   3.072   0.789   9.294 -0.4724 -0.0516  0.2525
  372MOL0     C51252   3.152   0.724   9.390 -0.1227 -0.3049 -0.7319
  372MOL0     C51253   3.556   0.480   9.533 -0.3728 -0.3635  0.1186
  372MOL0     C51254   3.682   0.429   9.502  0.6091  0.1005 -0.2067
  372MOL0     C51255   3.770   0.360   9.584 -0.3908 -0.4878  0.4485
  372MOL0     C51256   3.732   0.337   9.719 -0.7769 -0.3256  0.4424
  372MOL0     O51257   3.800   0.275   9.813  0.3169  0.8793  0.8389
  372MOL0     C51258   3.914   0.193   9.770 -0.2523  0.7261 -0.7182
  372MOL0     C51259   3.929   0.070   9.866  0.2570  0.3439  0.5818
  372MOL0     C51260   4.059  -0.017   9.837  0.7617  0.8684 -0.7365
  372MOL0     C51261   4.083  -0.114   9.954 -1.1160 -0.4146  0.2888
  372MOL0     C51262   4.111  -0.041  10.080 -0.3113  0.4919  0.0789
  372MOL0     C51263   4.134   0.015  10.178 -0.0391  0.2676 -0.5424
  372MOL0     C51264   3.606   0.389   9.750  0.2474 -0.3402 -0.3499
  372MOL0     C51265   3.522   0.464   9.665 -0.1121 -0.0470  0.5124
  372MOL0     C51266   3.389   0.515   9.720  0.6649  0.2313 -0.9355
  372MOL0     H51267   3.454   0.742   9.216  0.0964  2.6971 -0.5183
  372MOL0     H51268   3.305   0.823   9.042  0.3472 -1.5366 -1.4674
  372MOL0     H51269   3.075   1.068   8.994  0.0309 -0.0384 -0.1963
  372MOL0     H51270   3.084   1.062   9.162 -3.1046  3.6696 -0.0289
  372MOL0     H51271   2.839   0.959   9.016 -0.5016  2.3847 -1.7056
  372MOL0     H51272   2.837   1.014   9.186  0.7870 -0.9246 -0.4277
  372MOL0     H51273   2.887   1.191   8.948 -2.1177  0.7018 -0.3234
  372MOL0     H51274   2.729   1.152   9.020  0.4958 -3.2415 -2.1356
  372MOL0     H51275   2.803   1.252   9.218 -0.4622  1.2475 -0.5735
  372MOL0     H51276   2.972   1.276   9.165 -0.0496  0.8397  2.3148
  372MOL0     H51277   2.737   1.398   9.009  1.0131 -2.5637 -1.9401
  372MOL0     H51278   2.919   1.445   9.010 -1.2045  2.7121  0.2052
  372MOL0     H51279   2.747   1.476   9.246  2.5397 -0.8904  1.3216
  372MOL0     H51280   2.914   1.518   9.235  2.2081 -0.4454 -2.7096
  372MOL0     H51281   2.681   1.663   9.093 -1.2861 -1.5889  0.6282
  372MOL0     H51282   2.845   1.684   9.042  1.1164  1.4648  1.4580
  372MOL0     H51283   2.745   1.729   9.325 -1.5110  1.6990 -0.6275
  372MOL0     H51284   2.912   1.739   9.279  0.4212  1.2969 -0.5253
  372MOL0     H51285   2.626   1.961   9.339  0.0136 -0.6516 -0.6632
  372MOL0     H51286   2.638   2.307   9.182  1.7868 -1.0827  0.7890
  372MOL0     H51287   2.541   2.225   9.282 -0.7445  1.0184 -0.5887
  372MOL0     H51288   2.390   2.153   9.126  0.9650  0.2696  3.3252
  372MOL0     H51289   2.416   2.314   9.083 -2.4093 -0.4613 -2.2872
  372MOL0     H51290   2.572   2.256   8.908  0.1149 -0.1140 -0.8324
  372MOL0     H51291   2.555   2.077   8.946 -0.8833  0.2540 -0.2493
  372MOL0     H51292   2.416   2.121   8.758  0.5078  0.2980  0.0276
  372MOL0     H51293   2.320   2.101   8.910  1.6562 -1.2323  0.8633
  372MOL0     H51294   2.305   2.524   8.723  0.3237  0.7616 -0.4606
  372MOL0     H51295   2.204   2.696   8.584 -3.9308  2.0744  3.2379
  372MOL0     H51296   2.044   2.662   8.535  0.9154  2.3827 -2.6812
  372MOL0     H51297   2.171   2.635   8.415  1.8987 -1.2953  0.2888
  372MOL0     H51298   1.949   2.660   8.257  0.3680  0.0391 -1.2988
  372MOL0     H51299   1.835   2.702   8.060 -1.0870 -1.0297 -2.4588
  372MOL0     H51300   1.602   2.816   7.953 -0.1930  1.4119 -3.5889
  372MOL0     H51301   1.690   2.697   7.860  1.1202 -1.6261  1.1033
  372MOL0     H51302   1.551   2.789   7.719  2.3509 -1.8104  0.4608
  372MOL0     H51303   1.479   2.634   7.746  2.5011 -0.8461 -1.8570
  372MOL0     H51304   1.411   2.908   7.847  2.4838 -1.3879  3.4131
  372MOL0     H51305   1.341   2.774   7.931  0.0411 -1.2842 -0.8467
  372MOL0     H51306   1.206   2.707   7.720 -2.1044  1.8015 -0.9333
  372MOL0     H51307   1.301   2.819   7.617  0.1919  1.5138 -0.7873
  372MOL0     H51308   1.180   2.944   7.859  0.6666  2.9322  0.0238
  372MOL0     H51309   1.242   3.019   7.713  1.3377 -1.9171 -3.3064
  372MOL0     H51310   0.987   2.859   7.758  1.8869  0.0496  1.6926
  372MOL0     H51311   1.034   2.908   7.602  0.7524  1.1896  0.0844
  372MOL0     H51312   1.039   3.147   7.670  1.4570 -0.8328  0.7878
  372MOL0     H51313   0.968   3.091   7.824  1.4389 -1.9101  0.5064
  372MOL0     H51314   0.786   2.979   7.678  0.5652 -1.0377 -2.1248
  372MOL0     H51315   0.873   3.056   7.541 -0.9854  0.2645  0.5093
  372MOL0     H51316   1.487   2.501   8.201 -0.3288  2.9366 -0.8350
  372MOL0     H51317   1.638   2.401   8.385  1.2602 -0.8892 -0.9916
  372MOL0     H51318   2.028   2.167   8.519 -5.5265  3.8128  1.4016
  372MOL0     H51319   2.184   2.124   8.710  4.5588  0.9321  2.2201
  372MOL0     H51320   2.969   0.819   9.308 -0.1914  0.9612  0.2412
  372MOL0     H51321   3.118   0.727   9.493 -1.7644  0.4447 -1.2701
  372MOL0     H51322   3.714   0.444   9.400 -2.2789  0.9335 -1.0826
  372MOL0     H51323   3.866   0.331   9.542 -0.4769  1.1830 -0.9875
  372MOL0     H51324   3.899   0.156   9.668 -1.2553 -1.0978  0.0531
  372MOL0     H51325   4.010   0.246   9.766 -0.2213  0.6824 -0.5494
  372MOL0     H51326   3.836   0.013   9.858 -0.6188  1.7495  0.3097
  372MOL0     H51327   3.926   0.109   9.968 -0.0681  1.9664 -0.0089
  372MOL0     H51328   4.050  -0.074   9.745 -0.1627 -2.9073  1.4953
  372MOL0     H51329   4.142   0.054   9.831  1.2902  0.5169  1.6304
  372MOL0     H51330   4.167  -0.180   9.930 -1.3535 -0.7310  0.3264
  372MOL0     H51331   3.996  -0.178   9.966 -0.8832 -0.9343 -0.6964
  372MOL0     H51332   4.156   0.078  10.262  1.2456  0.2551 -0.8469
  372MOL0     H51333   3.577   0.384   9.854  0.2837 -0.0231 -0.3231
  372MOL0     H51334   3.297   0.498   9.663  0.0101  1.2253 -0.1884
  372MOL0     H51335   3.384   0.454   9.810 -1.4032  0.7999 -0.6203
  372MOL0     H51336   3.395   0.623   9.729  3.9426 -0.0587  2.5184
  373MOL0     O51337  11.348  10.452   1.712  0.4979  0.4487 -0.4103
  373MOL0     C51338  11.391  10.358   1.779 -0.5479 -0.5948  0.4498
  373MOL0     O51339  11.401  10.359   1.907  0.5003 -0.0931 -0.3240
  373MOL0     C51340  11.422  10.475   1.972  0.5418 -0.4847  0.8657
  373MOL0     C51341  11.520  10.567   1.925 -0.1765 -0.7876 -0.2698
  373MOL0     C51342  11.565  10.668   2.013  0.5044  0.1314 -0.2163
  373MOL0     C51343  11.524  10.677   2.142  0.1739 -0.7051 -0.5313
  373MOL0     O51344  11.580  10.770   2.225  0.8361 -0.3368  0.0452
  373MOL0     C51345  11.483  10.835   2.319 -0.9945 -0.4701  0.5718
  373MOL0     C51346  11.371  10.912   2.246 -0.3394 -0.4034  0.3940
  373MOL0     C51347  11.274  10.989   2.336 -0.3631 -0.2328 -0.9745
  373MOL0     C51348  11.262  11.141   2.305 -0.6507  0.0142  0.5927
  373MOL0     C51349  11.182  11.220   2.403  0.5631  0.1723  0.1459
  373MOL0     C51350  11.032  11.177   2.392 -0.0147 -0.0933 -0.9857
  373MOL0     C51351  10.951  11.282   2.467  0.7473 -0.5382 -0.3909
  373MOL0     C51352  10.798  11.256   2.425 -0.7919 -0.1302 -0.0579
  373MOL0     N51353  10.702  11.355   2.469  0.2988 -0.5562  0.1236
  373MOL0     C51354  10.687  11.495   2.452  1.1650 -0.7386  0.2866
  373MOL0     C51355  10.562  11.528   2.498  0.0783  0.6910  0.2484
  373MOL0     C51356  10.482  11.657   2.476 -0.0854 -0.4265  0.0110
  373MOL0     C51357  10.555  11.785   2.531 -0.3897  0.3573 -0.1772
  373MOL0     C51358  10.458  11.896   2.539  0.4983 -1.2891  0.8125
  373MOL0     C51359  10.530  12.024   2.598 -0.0185 -0.0187  0.6781
  373MOL0     O51360  10.435  12.135   2.616  0.3100 -0.1484 -0.6556
  373MOL0     C51361  10.466  12.239   2.697 -0.7675 -0.0848  0.1397
  373MOL0     C51362  10.598  12.304   2.695 -0.2624  0.1531 -0.8404
  373MOL0     C51363  10.628  12.408   2.787 -0.5620 -0.7123 -0.0899
  373MOL0     C51364  10.765  12.461   2.791 -0.2042 -0.6158 -0.2663
  373MOL0     C51365  10.529  12.446   2.882  0.7150 -0.4234  0.9852
  373MOL0     C51366  10.539  12.548   2.988  0.2369  0.4410 -0.1855
  373MOL0     O51367  10.453  12.647   2.996  0.0232 -0.1540 -0.5872
  373MOL0     C51368  10.464  12.743   3.096 -0.0692  0.1740  0.2491
  373MOL0     C51369  10.343  12.758   3.173 -0.9597 -0.6712 -0.4936
  373MOL0     C51370  10.329  12.866   3.269  0.5731  0.2187  0.4192
  373MOL0     C51371  10.430  12.954   3.295 -0.4458 -0.2148  0.8063
  373MOL0     O51372  10.404  13.050   3.391  0.2911  0.0990 -0.2504
  373MOL0     C51373  10.498  13.153   3.440 -0.1921 -1.2935  0.2938
  373MOL0     C51374  10.491  13.278   3.350 -0.0302 -1.2516  0.0823
  373MOL0     C51375  10.512  13.416   3.422 -0.3869  0.5758 -0.3929
  373MOL0     C51376  10.377  13.492   3.459  0.5829  0.9852 -0.0278
  373MOL0     C51377  10.413  13.633   3.500 -0.1058  0.5153 -0.5424
  373MOL0     C51378  10.307  13.700   3.600  0.6797  0.1757 -1.0486
  373MOL0     C51379  10.218  13.805   3.529 -0.1331 -0.3980 -0.2219
  373MOL0     C51380  10.165  13.785   3.382  0.0769  0.3725 -1.2589
  373MOL0    Cl51381  10.075  13.637   3.367  0.3693 -0.4990  0.5270
  373MOL0     C51382  10.552  12.942   3.218  0.5589  0.3439 -0.2193
  373MOL0     C51383  10.560  12.845   3.115  0.3230 -1.0785 -0.2625
  373MOL0     O51384  10.642  12.544   3.055  0.0344 -0.8470 -0.2388
  373MOL0     C51385  10.400  12.383   2.875 -1.1230  0.3080 -0.6109
  373MOL0     C51386  10.372  12.277   2.790 -0.8181 -0.0872  0.2998
  373MOL0     N51387  10.511  11.415   2.544  0.6769  0.3871 -0.7840
  373MOL0     N51388  10.594  11.310   2.525  0.3354  0.0089 -0.2922
  373MOL0     C51389  11.423  10.592   2.189 -0.5162  0.0115  0.7745
  373MOL0     C51390  11.373  10.493   2.101  0.6910 -0.0937 -0.1045
  373MOL0     C51391  11.443  10.232   1.710 -0.0213 -0.4357  0.2962
  373MOL0     C51392  11.436  10.103   1.773  0.3205 -0.7632  0.7933
  373MOL0     C51393  11.462   9.982   1.696 -0.9209 -1.3797 -0.8615
  373MOL0     C51394  11.516   9.996   1.565 -0.1277  0.8161  0.2387
  373MOL0     O51395  11.549   9.890   1.476  0.3843 -0.3671  0.6082
  373MOL0     C51396  11.480   9.773   1.503  0.2480 -0.6744 -0.7301
  373MOL0     C51397  11.514   9.666   1.395  0.5124 -0.4949 -0.5302
  373MOL0     C51398  11.427   9.542   1.393 -0.6673  0.5322 -0.7131
  373MOL0     C51399  11.287   9.572   1.339 -0.1614  0.7898 -0.0389
  373MOL0     C51400  11.219   9.441   1.315  0.3534 -1.2288 -1.3892
  373MOL0     C51401  11.163   9.336   1.294  0.3460  0.4381  0.2302
  373MOL0     C51402  11.556  10.120   1.522 -0.6512  1.2838 -0.1990
  373MOL0     C51403  11.506  10.230   1.582 -0.4167 -0.1670  0.5759
  373MOL0     C51404  11.511  10.357   1.501 -0.6084  0.7114  0.1524
  373MOL0     H51405  11.562  10.564   1.825  0.6819 -0.1283  0.0585
  373MOL0     H51406  11.644  10.737   1.986  0.5108  0.8936  1.6370
  373MOL0     H51407  11.531  10.904   2.389  0.0830 -1.8020  1.1782
  373MOL0     H51408  11.429  10.768   2.386 -2.1282  0.2532  0.4184
  373MOL0     H51409  11.416  10.991   2.183 -1.1163  1.3915  1.9901
  373MOL0     H51410  11.298  10.851   2.192 -1.8484  0.8976  0.8833
  373MOL0     H51411  11.178  10.937   2.345 -0.7131  0.3355 -1.3054
  373MOL0     H51412  11.322  10.980   2.434 -0.4597 -1.7522 -1.0519
  373MOL0     H51413  11.364  11.180   2.301 -0.4682 -0.5532 -3.0400
  373MOL0     H51414  11.220  11.153   2.205 -0.8139 -0.0196  0.6583
  373MOL0     H51415  11.191  11.326   2.379 -0.6237  0.5611  1.3011
  373MOL0     H51416  11.213  11.210   2.507  2.8058  1.2798 -0.3434
  373MOL0     H51417  11.002  11.181   2.286 -1.2619  1.0815 -0.6208
  373MOL0     H51418  11.027  11.077   2.435 -1.7135  0.6324  0.6539
  373MOL0     H51419  10.981  11.382   2.434 -3.8304  0.6168 -1.9233
  373MOL0     H51420  10.980  11.271   2.572  1.3716 -0.3295 -0.5408
  373MOL0     H51421  10.801  11.255   2.315 -1.1482  2.0062 -0.1357
  373MOL0     H51422  10.762  11.161   2.465  0.2072  0.2958  1.9974
  373MOL0     H51423  10.756  11.564   2.404  0.8952 -0.8611 -0.2864
  373MOL0     H51424  10.382  11.635   2.514  1.5890 -3.6428  3.1812
  373MOL0     H51425  10.472  11.671   2.368 -2.1577  0.6392  0.2950
  373MOL0     H51426  10.601  11.759   2.627  0.1878  3.1474  0.3843
  373MOL0     H51427  10.634  11.815   2.462 -1.0053  0.7548 -0.7253
  373MOL0     H51428  10.420  11.904   2.437  2.7408  1.0712  0.0719
  373MOL0     H51429  10.379  11.870   2.609 -1.3524  0.0116 -0.7114
  373MOL0     H51430  10.569  12.004   2.699 -0.0471  3.5578  1.5183
  373MOL0     H51431  10.618  12.052   2.539  0.1464  1.5803  1.6039
  373MOL0     H51432  10.670  12.256   2.629  0.7511 -1.1064  1.0851
  373MOL0     H51433  10.762  12.568   2.811  2.2254  0.2166 -3.5099
  373MOL0     H51434  10.807  12.457   2.690 -0.0875  1.1785 -0.3173
  373MOL0     H51435  10.830  12.395   2.850  1.0807  1.0334  0.2202
  373MOL0     H51436  10.261  12.689   3.161 -0.7950 -1.2722  1.4043
  373MOL0     H51437  10.235  12.882   3.321  0.2263 -1.9474  0.5761
  373MOL0     H51438  10.460  13.187   3.538  0.6079 -0.5653  0.3644
  373MOL0     H51439  10.599  13.118   3.463  0.2250 -0.4196 -0.1540
  373MOL0     H51440  10.573  13.269   3.278  0.9659  0.5071  0.9480
  373MOL0     H51441  10.393  13.275   3.302 -1.7996  2.0469  3.0311
  373MOL0     H51442  10.571  13.471   3.348 -0.4160 -1.6493 -2.1489
  373MOL0     H51443  10.569  13.399   3.514  2.5040 -1.6199 -2.3872
  373MOL0     H51444  10.319  13.441   3.537 -1.0530  0.9264 -1.2351
  373MOL0     H51445  10.311  13.485   3.372  0.3227 -0.1420  0.2386
  373MOL0     H51446  10.502  13.626   3.563  0.7363  0.1346 -1.7339
  373MOL0     H51447  10.453  13.690   3.416  0.7390  0.8956  0.1045
  373MOL0     H51448  10.361  13.750   3.680  0.3097 -1.9505  0.6043
  373MOL0     H51449  10.236  13.636   3.652  0.0318  0.8875 -1.0265
  373MOL0     H51450  10.276  13.898   3.524 -1.4800  0.5105  0.4122
  373MOL0     H51451  10.135  13.840   3.592  1.3589  1.2224  0.9503
  373MOL0     H51452  10.251  13.772   3.316  0.6781  1.4757 -0.7047
  373MOL0     H51453  10.103  13.870   3.354  0.2003  0.8220 -0.2013
  373MOL0     H51454  10.638  12.996   3.256 -0.3110  1.5585  0.0635
  373MOL0     H51455  10.657  12.843   3.066 -0.6148 -1.8059 -2.1982
  373MOL0     H51456  10.327  12.396   2.954 -1.1831 -1.7118 -0.2855
  373MOL0     H51457  10.280  12.220   2.785 -0.5764 -0.4121 -0.7469
  373MOL0     H51458  11.398  10.596   2.294 -1.3082 -0.2709  0.5997
  373MOL0     H51459  11.303  10.420   2.139 -1.0370  2.6029  2.2995
  373MOL0     H51460  11.397  10.095   1.874  0.5955 -1.1956  0.8644
  373MOL0     H51461  11.458   9.883   1.739 -1.0500 -1.5485 -1.2558
  373MOL0     H51462  11.501   9.724   1.598 -1.6753 -1.5498 -0.7126
  373MOL0     H51463  11.374   9.797   1.513  0.2590  0.2779 -2.4362
  373MOL0     H51464  11.616   9.633   1.413 -0.0407 -1.5603  0.8916
  373MOL0     H51465  11.543   9.705   1.297  1.3773  0.7381  0.1996
  373MOL0     H51466  11.472   9.469   1.325  0.0221  1.6688 -1.5204
  373MOL0     H51467  11.410   9.487   1.485  1.1880 -2.6361 -2.1161
  373MOL0     H51468  11.289   9.630   1.246 -1.5194 -2.2426 -2.1268
  373MOL0     H51469  11.227   9.620   1.417  0.0993  1.3863 -0.1935
  373MOL0     H51470  11.116   9.243   1.271  0.0368  1.0991 -2.0417
  373MOL0     H51471  11.615  10.125   1.431  0.3173 -0.3220  0.2823
  373MOL0     H51472  11.560  10.340   1.405 -1.2876  1.2888 -0.3011
  373MOL0     H51473  11.417  10.400   1.466 -0.6292  1.1592  0.7348
  373MOL0     H51474  11.572  10.432   1.552 -0.1488 -0.5257  1.5049
  374MOL0     O51475   1.733   4.286   7.903 -0.5059 -0.1647  0.2723
  374MOL0     C51476   1.790   4.266   8.011 -0.2564  0.0651 -0.2324
  374MOL0     O51477   1.866   4.153   8.038  0.2800 -0.5399 -0.0289
  374MOL0     C51478   1.853   4.041   7.955 -0.0975  0.5689 -0.7317
  374MOL0     C51479   1.972   3.971   7.930 -0.0934 -0.0394  0.1111
  374MOL0     C51480   1.973   3.853   7.859  0.5301  0.4602  0.5490
  374MOL0     C51481   1.845   3.812   7.806  0.2021 -0.7270 -0.9644
  374MOL0     O51482   1.832   3.698   7.733 -0.4708  0.7613 -0.1143
  374MOL0     C51483   1.797   3.710   7.586  0.0080 -1.0656  0.6369
  374MOL0     C51484   1.913   3.747   7.488 -0.0654 -0.8145 -0.5179
  374MOL0     C51485   1.975   3.885   7.497 -0.4751  0.9308  0.4834
  374MOL0     C51486   2.046   3.927   7.366 -0.5946 -0.5730 -0.4272
  374MOL0     C51487   2.161   4.024   7.384  0.1953  0.0890  0.0460
  374MOL0     C51488   2.245   4.069   7.262  0.5892 -0.4449 -0.5408
  374MOL0     C51489   2.326   4.198   7.296  0.9082  0.8272  0.0282
  374MOL0     C51490   2.414   4.248   7.173  0.3826 -0.1472 -0.3347
  374MOL0     N51491   2.331   4.294   7.055 -0.7944  0.3578  0.2541
  374MOL0     C51492   2.256   4.222   6.963 -0.6859  0.5845 -0.3027
  374MOL0     C51493   2.219   4.311   6.870 -0.4874 -0.2036  0.3927
  374MOL0     C51494   2.130   4.283   6.757 -0.1717 -0.1837  0.1707
  374MOL0     C51495   2.213   4.314   6.627  0.3489  1.2429  0.3016
  374MOL0     C51496   2.135   4.257   6.499 -0.0474  0.2285 -0.5149
  374MOL0     C51497   2.002   4.324   6.475 -0.8510  0.6828 -1.5010
  374MOL0     O51498   2.016   4.465   6.459 -0.1901 -0.7537  0.6168
  374MOL0     C51499   1.913   4.528   6.402  0.1080  0.6721  0.3167
  374MOL0     C51500   1.893   4.533   6.267  0.7145  0.6229 -0.2422
  374MOL0     C51501   1.775   4.597   6.219 -0.4571  0.3453  0.8089
  374MOL0     C51502   1.749   4.559   6.068  0.0230 -0.4131 -0.9726
  374MOL0     C51503   1.685   4.656   6.309  0.2657 -0.2034 -0.6587
  374MOL0     C51504   1.550   4.713   6.265 -0.1896 -0.2036 -0.5502
  374MOL0     O51505   1.443   4.710   6.364  0.3969  0.3023 -0.0677
  374MOL0     C51506   1.338   4.793   6.353 -0.7694 -0.8465  0.8943
  374MOL0     C51507   1.220   4.747   6.306  0.5544  0.4993 -1.1669
  374MOL0     C51508   1.103   4.822   6.295 -0.4377  0.2296  0.1116
  374MOL0     C51509   1.112   4.962   6.314 -0.3267 -0.1384 -0.1503
  374MOL0     O51510   0.991   5.032   6.303 -0.1263  0.0038  0.1493
  374MOL0     C51511   0.989   5.173   6.315  1.1388 -0.2004 -0.6066
  374MOL0     C51512   1.013   5.226   6.170 -0.3841  0.2428  0.2806
  374MOL0     C51513   0.984   5.373   6.139  0.3102 -0.0668 -0.6269
  374MOL0     C51514   1.079   5.464   6.207 -0.4033  0.2593 -0.7801
  374MOL0     C51515   1.054   5.616   6.181  0.2623  0.4399 -0.0156
  374MOL0     C51516   1.077   5.652   6.031 -0.1993 -0.1415 -0.0062
  374MOL0     C51517   1.045   5.808   6.016 -0.8305  0.5725  0.1407
  374MOL0     C51518   0.911   5.843   5.952 -0.1338  1.2547  0.0315
  374MOL0    Cl51519   0.864   6.005   5.992  0.1246 -0.4730  0.0378
  374MOL0     C51520   1.241   5.015   6.343  0.6100  0.6483 -0.1762
  374MOL0     C51521   1.343   4.930   6.365  0.1745 -0.4923  0.3077
  374MOL0     O51522   1.552   4.779   6.167  0.4579  0.4231  0.4808
  374MOL0     C51523   1.711   4.653   6.450 -0.2725  0.3199 -0.4538
  374MOL0     C51524   1.822   4.586   6.498 -0.2437 -0.3632  0.5654
  374MOL0     N51525   2.275   4.436   6.904 -0.1768  0.0066 -0.1665
  374MOL0     N51526   2.356   4.418   7.004  0.1949  0.0005 -0.3088
  374MOL0     C51527   1.730   3.884   7.826 -0.1422  0.3707  0.0497
  374MOL0     C51528   1.727   3.993   7.905  0.0118 -0.5648 -1.2510
  374MOL0     C51529   1.775   4.365   8.128  0.4655 -0.3129 -0.8200
  374MOL0     C51530   1.870   4.363   8.225  1.1353 -0.3107  0.1621
  374MOL0     C51531   1.868   4.438   8.344  0.7552  1.4214  0.2924
  374MOL0     C51532   1.750   4.511   8.369 -0.7575  0.0948  0.5783
  374MOL0     O51533   1.732   4.592   8.471 -0.0041  0.4270 -1.1591
  374MOL0     C51534   1.830   4.605   8.578 -0.0131  0.2890 -0.1151
  374MOL0     C51535   1.795   4.729   8.665 -0.8646 -0.2714  0.8664
  374MOL0     C51536   1.896   4.742   8.774  0.0756  0.6649 -0.0154
  374MOL0     C51537   1.867   4.659   8.903  1.2724 -0.2742 -0.0573
  374MOL0     C51538   1.782   4.723   8.994 -0.1431 -0.6850 -0.0226
  374MOL0     C51539   1.691   4.764   9.068 -0.0153 -0.5283  0.1851
  374MOL0     C51540   1.652   4.502   8.280 -0.4597 -0.0812 -0.0289
  374MOL0     C51541   1.659   4.439   8.155 -0.7209  0.0943  0.5986
  374MOL0     C51542   1.544   4.447   8.060  0.0582 -0.4825 -0.5042
  374MOL0     H51543   2.064   4.012   7.970  0.0458 -1.0660  0.8672
  374MOL0     H51544   2.068   3.805   7.835  0.2995 -0.3054  1.1390
  374MOL0     H51545   1.731   3.795   7.570  2.3395  1.4163  3.1679
  374MOL0     H51546   1.750   3.618   7.550 -0.8231  0.2082 -1.7250
  374MOL0     H51547   1.987   3.670   7.514  1.1925  0.8973  1.2507
  374MOL0     H51548   1.893   3.727   7.382  1.2769 -1.8498 -0.5949
  374MOL0     H51549   1.910   3.967   7.528  1.8016  3.4783 -0.9747
  374MOL0     H51550   2.049   3.884   7.578 -0.9347 -1.7086  0.9381
  374MOL0     H51551   2.081   3.836   7.315 -1.1787 -0.0049 -1.8932
  374MOL0     H51552   1.962   3.973   7.313  0.3875 -0.1870 -1.7091
  374MOL0     H51553   2.231   3.975   7.452 -1.5270  1.2865  2.9321
  374MOL0     H51554   2.130   4.117   7.434 -2.1635 -0.3667 -0.4296
  374MOL0     H51555   2.316   3.988   7.245 -0.3611 -1.4177 -0.0441
  374MOL0     H51556   2.181   4.079   7.173 -0.0772  0.4058  0.0207
  374MOL0     H51557   2.395   4.177   7.378 -0.3874 -1.3693  0.6199
  374MOL0     H51558   2.257   4.276   7.330  2.6551  1.2121  3.0133
  374MOL0     H51559   2.487   4.325   7.200 -3.0341  2.9025  1.0822
  374MOL0     H51560   2.470   4.159   7.143 -1.8489 -0.9805 -2.3571
  374MOL0     H51561   2.232   4.116   6.966  1.2378  0.1147 -0.2950
  374MOL0     H51562   2.040   4.345   6.754 -0.0701 -0.0590 -0.4273
  374MOL0     H51563   2.090   4.182   6.768  1.0592 -0.5751  1.2470
  374MOL0     H51564   2.242   4.419   6.616  0.9008  0.8908 -2.2129
  374MOL0     H51565   2.300   4.248   6.629  1.4389  2.3289 -3.1982
  374MOL0     H51566   2.203   4.270   6.415  1.4956 -0.3387  0.5994
  374MOL0     H51567   2.118   4.149   6.497 -1.5651  0.4316  0.1483
  374MOL0     H51568   1.962   4.278   6.385 -1.8721 -3.3410  0.7858
  374MOL0     H51569   1.933   4.296   6.555 -1.0447  0.1401 -1.8561
  374MOL0     H51570   1.958   4.475   6.204  1.4520 -0.5524  1.5249
  374MOL0     H51571   1.643   4.536   6.050  0.6256 -3.2717 -1.3593
  374MOL0     H51572   1.801   4.468   6.038  0.3414 -0.8990  0.9689
  374MOL0     H51573   1.774   4.644   6.003 -1.3971  0.0173 -0.9872
  374MOL0     H51574   1.219   4.641   6.284 -2.7865  0.3912 -0.9457
  374MOL0     H51575   1.014   4.773   6.257 -0.4799 -0.0751  0.5917
  374MOL0     H51576   0.890   5.203   6.348  0.8279  0.2541 -1.9199
  374MOL0     H51577   1.060   5.207   6.392 -2.5819 -0.1126  3.1446
  374MOL0     H51578   1.116   5.204   6.140 -0.5692  1.5406 -1.5037
  374MOL0     H51579   0.947   5.156   6.118  2.0352 -1.1736 -1.1106
  374MOL0     H51580   0.876   5.393   6.147  0.4212  0.8776 -1.3056
  374MOL0     H51581   1.001   5.381   6.031 -0.8394 -2.4720 -1.0619
  374MOL0     H51582   1.181   5.432   6.184 -0.4314  1.4468 -2.8309
  374MOL0     H51583   1.060   5.451   6.314 -0.7809 -0.6427 -0.9470
  374MOL0     H51584   0.952   5.638   6.215 -0.4677 -1.0517 -1.1119
  374MOL0     H51585   1.127   5.677   6.235 -0.9111  1.5886  0.3213
  374MOL0     H51586   1.005   5.598   5.969  0.4279 -0.3816 -0.5378
  374MOL0     H51587   1.178   5.622   6.002 -1.3276 -2.9363 -1.4211
  374MOL0     H51588   1.110   5.860   5.946  0.3081 -1.7573 -0.6507
  374MOL0     H51589   1.037   5.841   6.120 -0.2575 -0.0582  0.3875
  374MOL0     H51590   0.837   5.769   5.983  0.6669 -0.1752 -1.2920
  374MOL0     H51591   0.910   5.821   5.844  0.7318  1.2336  0.0165
  374MOL0     H51592   1.272   5.119   6.345 -0.5420  1.0405 -1.0724
  374MOL0     H51593   1.437   4.978   6.390  0.7669 -2.5195  2.2505
  374MOL0     H51594   1.650   4.691   6.531  1.6042 -1.8652  2.1957
  374MOL0     H51595   1.843   4.583   6.604 -1.8578  0.7192  0.9600
  374MOL0     H51596   1.635   3.859   7.779  0.1653  0.2151 -0.4952
  374MOL0     H51597   1.630   4.039   7.920  0.1880  0.4537 -2.9578
  374MOL0     H51598   1.952   4.295   8.207  2.0223  0.7949 -0.0655
  374MOL0     H51599   1.958   4.422   8.401  2.0347  2.2954 -1.4002
  374MOL0     H51600   1.836   4.509   8.630  1.0593 -0.0186 -0.7743
  374MOL0     H51601   1.929   4.625   8.535 -0.6584 -2.3775 -3.1700
  374MOL0     H51602   1.697   4.718   8.711 -2.2218  1.2492 -1.4704
  374MOL0     H51603   1.791   4.813   8.595 -0.5851 -1.5915 -0.7931
  374MOL0     H51604   1.992   4.699   8.746  1.8648  1.9177  3.6723
  374MOL0     H51605   1.911   4.850   8.786  3.0906  0.3812 -0.4883
  374MOL0     H51606   1.953   4.625   8.960  2.1444 -1.5400 -2.0093
  374MOL0     H51607   1.820   4.569   8.862 -0.6450  1.2749 -1.4935
  374MOL0     H51608   1.602   4.793   9.120 -0.5776 -1.3547 -0.2907
  374MOL0     H51609   1.552   4.540   8.302 -1.7926 -4.0248  1.6643
  374MOL0     H51610   1.483   4.359   8.039 -1.8990  1.1753 -2.1878
  374MOL0     H51611   1.484   4.529   8.101  1.5527  0.0710  0.6332
  374MOL0     H51612   1.577   4.480   7.961  1.6731  0.4154  0.2981
  375MOL0     O51613   5.905   0.886   8.465 -0.5728 -0.5038 -0.2779
  375MOL0     C51614   5.882   0.976   8.377 -0.2180 -0.3944 -0.7367
  375MOL0     O51615   5.849   1.108   8.407  0.5167 -0.0027  0.4899
  375MOL0     C51616   5.798   1.124   8.533  0.8094  0.1502 -1.3291
  375MOL0     C51617   5.868   1.145   8.656 -0.2684  0.3692  0.7995
  375MOL0     C51618   5.797   1.177   8.773  0.3439  1.4631  0.5809
  375MOL0     C51619   5.649   1.192   8.774 -0.1536 -0.2017  0.0119
  375MOL0     O51620   5.586   1.227   8.900  0.6440  0.1402 -0.4761
  375MOL0     C51621   5.457   1.178   8.929 -0.0373 -0.3110 -0.1704
  375MOL0     C51622   5.344   1.274   8.882 -0.9373  0.5506 -0.1672
  375MOL0     C51623   5.371   1.415   8.830 -0.1296 -0.1491 -0.1511
  375MOL0     C51624   5.263   1.506   8.878  0.6261 -0.1633 -0.3780
  375MOL0     C51625   5.300   1.654   8.871 -0.4386 -0.2518  0.3057
  375MOL0     C51626   5.184   1.749   8.872 -0.0471 -0.3052  0.4984
  375MOL0     C51627   5.223   1.896   8.845 -0.2120  0.7569 -0.0277
  375MOL0     C51628   5.097   1.981   8.830 -0.0186  0.4614 -0.3967
  375MOL0     N51629   5.138   2.124   8.819  0.0205 -0.5332  0.3401
  375MOL0     C51630   5.187   2.191   8.926 -0.9641 -1.3433 -0.5761
  375MOL0     C51631   5.175   2.326   8.900  0.2517  0.5458 -0.2793
  375MOL0     C51632   5.208   2.440   8.990  0.8399  0.1769  0.0606
  375MOL0     C51633   5.342   2.439   9.067 -0.4295  0.4269 -0.8716
  375MOL0     C51634   5.462   2.427   8.978 -0.3743  0.1441  0.0976
  375MOL0     C51635   5.496   2.537   8.874  0.0109 -0.8045  0.2870
  375MOL0     O51636   5.629   2.521   8.822 -0.4516 -0.5382 -0.1639
  375MOL0     C51637   5.674   2.398   8.775 -0.4327 -0.5195 -0.5840
  375MOL0     C51638   5.593   2.318   8.696 -0.4472  0.3111 -0.5169
  375MOL0     C51639   5.625   2.186   8.676 -0.0980  0.5932  0.3886
  375MOL0     C51640   5.531   2.116   8.584  0.0318 -0.3818  0.8068
  375MOL0     C51641   5.735   2.125   8.747 -0.0383 -1.0809  0.4669
  375MOL0     C51642   5.764   1.978   8.728 -0.3500 -0.0042 -0.1078
  375MOL0     O51643   5.881   1.932   8.775  0.2725 -0.5335 -0.3925
  375MOL0     C51644   5.928   1.810   8.724  0.2818  0.2066 -0.3703
  375MOL0     C51645   6.010   1.794   8.612  0.5281  0.9950  0.2027
  375MOL0     C51646   6.051   1.668   8.571  0.6076  0.9373 -1.3781
  375MOL0     C51647   5.998   1.552   8.631 -0.1884  0.0467  0.4426
  375MOL0     O51648   6.018   1.423   8.588  0.8679 -0.2976  0.0221
  375MOL0     C51649   6.060   1.395   8.453  0.4542  0.3120 -0.4295
  375MOL0     C51650   6.194   1.324   8.462  0.4556 -0.5432  0.3731
  375MOL0     C51651   6.226   1.265   8.319  0.9000  0.8078  0.9837
  375MOL0     C51652   6.266   1.361   8.208 -0.3928  1.0820  1.2578
  375MOL0     C51653   6.401   1.446   8.221 -0.4911  0.2798 -0.1341
  375MOL0     C51654   6.399   1.597   8.194  0.1736  0.8110 -0.3603
  375MOL0     C51655   6.342   1.679   8.300  0.4623  0.2728  0.4506
  375MOL0     C51656   6.365   1.823   8.251 -0.2452 -0.7489 -0.0891
  375MOL0    Cl51657   6.293   1.949   8.370 -0.0595 -0.1254 -0.0232
  375MOL0     C51658   5.907   1.565   8.732  0.4385  0.7989  0.7098
  375MOL0     C51659   5.870   1.688   8.778 -0.0265  0.4571 -0.2961
  375MOL0     O51660   5.688   1.902   8.664 -0.7189 -0.2644 -0.8426
  375MOL0     C51661   5.827   2.208   8.816 -0.8040 -0.5501 -0.1241
  375MOL0     C51662   5.800   2.344   8.824 -0.1593 -0.3602 -0.1964
  375MOL0     N51663   5.101   2.339   8.784 -0.3653  0.2003 -0.5272
  375MOL0     N51664   5.091   2.220   8.736  0.4004  0.0137  0.1566
  375MOL0     C51665   5.596   1.172   8.645 -1.1074 -1.0024  0.9858
  375MOL0     C51666   5.667   1.135   8.527 -0.7344 -0.0193 -0.0065
  375MOL0     C51667   5.896   0.949   8.234 -0.5229  0.3825 -0.6003
  375MOL0     C51668   5.944   0.815   8.205  0.2329  0.9269  0.3982
  375MOL0     C51669   5.971   0.776   8.073  0.1927 -0.7526  0.4175
  375MOL0     C51670   5.928   0.860   7.965  0.0863  0.6490 -0.2514
  375MOL0     O51671   5.898   0.817   7.835  0.0218 -0.8415  0.0355
  375MOL0     C51672   5.907   0.679   7.788  1.0360  0.5054 -0.9120
  375MOL0     C51673   5.785   0.588   7.823  0.0686 -0.7369  0.3174
  375MOL0     C51674   5.648   0.666   7.786  0.3190  0.0893 -0.7442
  375MOL0     C51675   5.631   0.706   7.646 -0.4281  0.2451  1.7603
  375MOL0     C51676   5.669   0.593   7.563  0.0273  0.0321  0.6324
  375MOL0     C51677   5.699   0.506   7.487  0.4055  0.0789 -0.1221
  375MOL0     C51678   5.892   0.988   7.991 -0.9103  0.7797  0.9890
  375MOL0     C51679   5.888   1.037   8.120  0.3134 -0.0826 -0.4459
  375MOL0     C51680   5.862   1.184   8.124  0.2830  0.2474  0.5640
  375MOL0     H51681   5.976   1.158   8.661 -0.2969  1.4149 -0.5213
  375MOL0     H51682   5.860   1.216   8.852 -0.5897  0.2734  1.9830
  375MOL0     H51683   5.455   1.167   9.037 -0.1173 -0.5749 -0.1972
  375MOL0     H51684   5.444   1.081   8.879 -2.1895 -0.8849  1.3595
  375MOL0     H51685   5.298   1.225   8.795 -2.4367 -0.6530  1.2432
  375MOL0     H51686   5.272   1.279   8.964 -2.3732 -1.3413 -1.2279
  375MOL0     H51687   5.459   1.457   8.881 -1.3840  1.3110  0.8938
  375MOL0     H51688   5.388   1.415   8.722  2.0297 -2.3362  0.0878
  375MOL0     H51689   5.181   1.480   8.811  1.2921 -1.4050 -0.7570
  375MOL0     H51690   5.238   1.488   8.983  0.9187  0.8041 -0.1285
  375MOL0     H51691   5.362   1.673   8.783 -1.4330  1.3031 -0.1110
  375MOL0     H51692   5.364   1.680   8.955  1.1882 -0.6743 -0.7696
  375MOL0     H51693   5.120   1.710   8.793  4.2274 -2.0593 -2.5173
  375MOL0     H51694   5.136   1.755   8.969 -2.4584  1.6098 -0.7144
  375MOL0     H51695   5.273   1.916   8.750  0.2729  1.7314  0.4235
  375MOL0     H51696   5.287   1.929   8.928 -0.4280  1.3967 -0.1141
  375MOL0     H51697   5.043   1.954   8.739 -0.1919  0.1486 -0.2028
  375MOL0     H51698   5.026   1.960   8.910  0.7081  1.8755  0.6624
  375MOL0     H51699   5.234   2.152   9.016 -3.2105 -1.3941  0.6545
  375MOL0     H51700   5.130   2.451   9.065  0.0526  0.0252 -0.7254
  375MOL0     H51701   5.185   2.531   8.934  2.8186  0.0680 -1.0439
  375MOL0     H51702   5.355   2.538   9.113  0.0882  1.0579 -2.3248
  375MOL0     H51703   5.341   2.363   9.145  3.7663  2.1828  1.2209
  375MOL0     H51704   5.543   2.423   9.050 -1.3084  2.0336  1.3306
  375MOL0     H51705   5.461   2.329   8.930 -0.9005 -0.6028  1.5891
  375MOL0     H51706   5.419   2.538   8.796  1.5162  0.2812 -1.2684
  375MOL0     H51707   5.490   2.638   8.915  1.0951  0.6250 -2.7471
  375MOL0     H51708   5.497   2.353   8.661  0.5448  1.6967 -1.9751
  375MOL0     H51709   5.477   2.031   8.627 -2.6356  1.1736  0.7725
  375MOL0     H51710   5.589   2.077   8.500 -3.0272 -0.3824 -1.4815
  375MOL0     H51711   5.450   2.176   8.542  0.2678 -0.5449  0.1128
  375MOL0     H51712   6.045   1.887   8.568 -2.1300  0.7640 -2.7377
  375MOL0     H51713   6.110   1.673   8.480  0.6591  1.5558 -1.3131
  375MOL0     H51714   5.987   1.320   8.420  2.3600 -2.7229  1.7597
  375MOL0     H51715   6.052   1.480   8.385 -0.6002 -2.3417 -3.9948
  375MOL0     H51716   6.277   1.388   8.495  0.2292 -0.5814  1.0318
  375MOL0     H51717   6.190   1.242   8.535 -0.1695 -0.4625  0.4327
  375MOL0     H51718   6.139   1.211   8.280  0.7491  4.2100 -4.3690
  375MOL0     H51719   6.319   1.209   8.330 -0.0283 -1.4449 -1.5117
  375MOL0     H51720   6.181   1.423   8.177 -1.1009  0.3860  1.7656
  375MOL0     H51721   6.277   1.286   8.129  0.4366  0.4239  1.9776
  375MOL0     H51722   6.453   1.416   8.312 -1.8425 -3.2713 -0.3877
  375MOL0     H51723   6.473   1.396   8.157  0.7780  0.7984  0.8337
  375MOL0     H51724   6.343   1.601   8.101 -0.5977 -1.9438 -0.1101
  375MOL0     H51725   6.507   1.617   8.197  0.3512 -0.1702  0.2423
  375MOL0     H51726   6.394   1.654   8.393  0.6471 -0.5026  0.1396
  375MOL0     H51727   6.233   1.670   8.312  0.4693  0.7255  0.9223
  375MOL0     H51728   6.310   1.834   8.158  1.1021 -1.8069 -1.0585
  375MOL0     H51729   6.469   1.847   8.228 -1.2569  1.6132 -2.6838
  375MOL0     H51730   5.853   1.477   8.763 -0.9093  1.0876 -0.6951
  375MOL0     H51731   5.799   1.697   8.859 -0.0724 -0.5075 -0.2192
  375MOL0     H51732   5.919   2.175   8.863  1.5485  1.3242 -3.0892
  375MOL0     H51733   5.874   2.398   8.882  1.8941 -1.5480 -1.5658
  375MOL0     H51734   5.490   1.191   8.634 -0.3870  3.3977 -0.0485
  375MOL0     H51735   5.619   1.127   8.429  2.5843 -0.1234 -1.7653
  375MOL0     H51736   5.962   0.741   8.282 -2.1116 -0.2726 -0.1277
  375MOL0     H51737   6.006   0.675   8.055 -0.1760 -0.5955 -1.3939
  375MOL0     H51738   5.925   0.684   7.681 -2.7649  1.1449 -1.6508
  375MOL0     H51739   5.990   0.625   7.835  0.6966  0.3049 -0.5276
  375MOL0     H51740   5.787   0.568   7.931  0.1478 -2.2816  0.0445
  375MOL0     H51741   5.799   0.491   7.774  1.2722  1.3039 -3.8062
  375MOL0     H51742   5.559   0.606   7.808  0.5070 -1.6765 -4.1554
  375MOL0     H51743   5.630   0.752   7.851  1.9217 -2.0390  2.8515
  375MOL0     H51744   5.701   0.786   7.619  0.8780 -1.2527  0.5628
  375MOL0     H51745   5.529   0.737   7.621  0.6624  2.1017 -0.8212
  375MOL0     H51746   5.746   0.434   7.423 -1.2803 -0.8876 -0.3362
  375MOL0     H51747   5.854   1.057   7.916 -1.9128 -1.0784 -0.2795
  375MOL0     H51748   5.914   1.231   8.208  1.3241  2.0491 -1.0088
  375MOL0     H51749   5.904   1.239   8.039 -2.7099  3.8812  1.1871
  375MOL0     H51750   5.754   1.205   8.125  0.5646  2.2812 -1.7192
  376MOL0     O51751   0.898   1.341   1.880  0.0175 -0.2020  0.3758
  376MOL0     C51752   0.829   1.319   1.978  0.1900 -0.1807  0.6939
  376MOL0     O51753   0.765   1.197   1.993  0.6550 -0.0589 -0.3121
  376MOL0     C51754   0.767   1.100   1.896 -0.5389 -0.5376  0.9152
  376MOL0     C51755   0.866   1.061   1.800 -0.5125 -0.6169 -0.5129
  376MOL0     C51756   0.853   0.963   1.706  0.2787  0.3033 -0.5589
  376MOL0     C51757   0.722   0.907   1.695  0.0717 -0.5601 -0.5837
  376MOL0     O51758   0.680   0.813   1.603 -0.5148 -0.7058  0.1255
  376MOL0     C51759   0.721   0.681   1.630  0.4251  0.4720  0.2888
  376MOL0     C51760   0.599   0.594   1.622  0.8345  0.4916  0.3119
  376MOL0     C51761   0.545   0.584   1.484 -0.3511 -0.6293  0.4988
  376MOL0     C51762   0.649   0.539   1.378  0.4460  0.7046  0.4577
  376MOL0     C51763   0.585   0.532   1.242  0.0776  0.2628 -0.0429
  376MOL0     C51764   0.681   0.455   1.146 -0.0740 -0.0001 -0.0019
  376MOL0     C51765   0.667   0.498   1.000  0.2483 -0.6824  0.2015
  376MOL0     C51766   0.523   0.486   0.953 -0.0927 -0.6119  0.2224
  376MOL0     N51767   0.520   0.524   0.810  1.0703  0.5348  0.3073
  376MOL0     C51768   0.507   0.643   0.752 -0.3970 -0.8854  0.6064
  376MOL0     C51769   0.513   0.628   0.616  0.1610 -0.0024 -0.0465
  376MOL0     C51770   0.492   0.742   0.520 -1.0343 -0.0654  1.1501
  376MOL0     C51771   0.372   0.715   0.429  0.2136  0.3902  0.6971
  376MOL0     C51772   0.356   0.819   0.316  0.0681 -0.2187 -0.1120
  376MOL0     C51773   0.251   0.765   0.226 -0.1065  0.3899  0.3997
  376MOL0     O51774   0.211   0.872   0.139  0.0528 -0.1314 -0.1978
  376MOL0     C51775   0.137   0.843   0.024  0.2363  0.4299  0.0417
  376MOL0     C51776   0.168   0.913  -0.091 -0.2102  0.6891  1.1347
  376MOL0     C51777   0.095   0.900  -0.204  0.3763  0.8400  0.1580
  376MOL0     C51778   0.130   0.984  -0.325  0.2832  0.6923 -0.1032
  376MOL0     C51779  -0.019   0.808  -0.205  0.6323  1.1892 -0.0700
  376MOL0     C51780  -0.108   0.795  -0.321 -0.4331 -0.0903 -0.3994
  376MOL0     O51781  -0.044   0.762  -0.438  0.3172  0.3378 -0.8056
  376MOL0     C51782  -0.124   0.699  -0.529 -0.1074 -0.1777  0.4516
  376MOL0     C51783  -0.132   0.777  -0.650 -0.5764  0.3649  0.0533
  376MOL0     C51784  -0.229   0.752  -0.749  0.3323  0.2878  0.8378
  376MOL0     C51785  -0.309   0.634  -0.735  0.5142 -0.5372 -0.4904
  376MOL0     O51786  -0.407   0.611  -0.829  0.3818 -0.4028 -0.3831
  376MOL0     C51787  -0.496   0.508  -0.799 -0.6420  0.0461 -0.3436
  376MOL0     C51788  -0.592   0.531  -0.682  0.7674 -0.1363  0.1495
  376MOL0     C51789  -0.707   0.616  -0.736  0.2723  0.2340 -0.6638
  376MOL0     C51790  -0.822   0.644  -0.633 -0.0105  0.2048 -0.2456
  376MOL0     C51791  -0.904   0.777  -0.671 -0.0843  0.0611 -0.2419
  376MOL0     C51792  -0.997   0.763  -0.792 -0.1053  0.3513  0.3459
  376MOL0     C51793  -1.117   0.869  -0.807 -0.0464  0.0276  0.1303
  376MOL0     C51794  -1.179   0.875  -0.950  0.0437 -0.4399  0.0847
  376MOL0    Cl51795  -1.332   0.965  -0.939  0.0456 -0.1441  0.4592
  376MOL0     C51796  -0.292   0.550  -0.619 -0.1265  1.1195 -1.1793
  376MOL0     C51797  -0.205   0.585  -0.517  0.3814 -1.6614  0.0311
  376MOL0     O51798  -0.229   0.804  -0.305  0.6487  0.0940  1.1282
  376MOL0     C51799  -0.051   0.731  -0.090  0.2690  0.0753  0.6137
  376MOL0     C51800   0.030   0.753   0.023  0.3405  1.1672 -0.0357
  376MOL0     N51801   0.516   0.489   0.592 -0.2950 -0.2196  0.5211
  376MOL0     N51802   0.524   0.431   0.707 -0.1450  0.2419  0.5278
  376MOL0     C51803   0.622   0.947   1.784  0.1185  0.2007  0.0764
  376MOL0     C51804   0.642   1.041   1.884 -0.3356 -0.2835  0.0693
  376MOL0     C51805   0.838   1.413   2.094  0.4193  0.1040 -0.1216
  376MOL0     C51806   0.828   1.364   2.220  0.5980 -0.6517  0.3415
  376MOL0     C51807   0.826   1.450   2.332  0.2600 -0.4725 -0.3409
  376MOL0     C51808   0.851   1.588   2.312  0.1555  0.0730  0.3456
  376MOL0     O51809   0.851   1.677   2.416 -0.8550 -0.0810  0.2191
  376MOL0     C51810   0.888   1.628   2.547  0.8444 -0.3712 -0.5944
  376MOL0     C51811   0.768   1.605   2.639  0.2126  0.2829  0.5553
  376MOL0     C51812   0.801   1.603   2.793 -0.6189  0.1032  0.1885
  376MOL0     C51813   0.688   1.584   2.894 -0.4929 -0.1765 -0.0995
  376MOL0     C51814   0.572   1.664   2.852 -0.0451 -1.2036 -0.1693
  376MOL0     C51815   0.471   1.729   2.828 -0.1906  0.3443 -0.7758
  376MOL0     C51816   0.863   1.635   2.184  0.1047  0.4269  0.0977
  376MOL0     C51817   0.857   1.551   2.073 -0.6439 -0.6517 -0.1878
  376MOL0     C51818   0.859   1.620   1.934 -0.6178  0.4450  0.4372
  376MOL0     H51819   0.961   1.111   1.812 -2.8273  3.8694  1.8952
  376MOL0     H51820   0.932   0.930   1.640  0.3624 -1.5436  0.3735
  376MOL0     H51821   0.770   0.679   1.728  2.3235 -3.9262 -0.5037
  376MOL0     H51822   0.804   0.649   1.566  0.3047 -0.0226  0.3733
  376MOL0     H51823   0.613   0.487   1.642  0.2586  0.6918  1.9144
  376MOL0     H51824   0.524   0.644   1.683  0.0340 -0.2651 -0.0332
  376MOL0     H51825   0.464   0.511   1.478  0.8065 -1.8564 -1.0208
  376MOL0     H51826   0.516   0.688   1.466  0.3439 -0.0912  2.2765
  376MOL0     H51827   0.727   0.615   1.370 -0.5779  2.0766  2.4692
  376MOL0     H51828   0.688   0.438   1.396 -1.0381  0.1732  0.8936
  376MOL0     H51829   0.568   0.635   1.209 -0.1846  1.2183  2.8260
  376MOL0     H51830   0.490   0.479   1.254  1.0614 -1.2486  1.5352
  376MOL0     H51831   0.781   0.485   1.177 -0.1993  1.4518 -0.9064
  376MOL0     H51832   0.652   0.351   1.165 -4.3715  1.1781  1.1377
  376MOL0     H51833   0.742   0.451   0.936  1.0083 -0.1773  0.7003
  376MOL0     H51834   0.689   0.605   0.998  0.6107 -0.7708 -1.4598
  376MOL0     H51835   0.490   0.383   0.970  1.0998 -0.8572  1.2276
  376MOL0     H51836   0.450   0.546   1.008 -0.4855  0.5551 -1.4937
  376MOL0     H51837   0.486   0.735   0.806 -1.0916 -1.7845  1.9405
  376MOL0     H51838   0.581   0.756   0.458 -2.1179  0.1252 -0.4121
  376MOL0     H51839   0.489   0.831   0.584  1.5232 -0.0601  1.3607
  376MOL0     H51840   0.392   0.617   0.385  1.1791  0.3738  1.1510
  376MOL0     H51841   0.275   0.702   0.478 -1.4478  0.2724 -2.3696
  376MOL0     H51842   0.315   0.915   0.349 -1.6676 -0.4002 -1.5685
  376MOL0     H51843   0.447   0.838   0.258  0.3101  0.1531  0.3823
  376MOL0     H51844   0.294   0.677   0.177 -1.4805  0.2999 -0.6915
  376MOL0     H51845   0.156   0.745   0.277  0.5644 -2.6681  0.6118
  376MOL0     H51846   0.263   0.964  -0.106  0.1997 -0.4217 -0.3277
  376MOL0     H51847   0.213   1.054  -0.316 -0.0967  1.4415 -1.9741
  376MOL0     H51848   0.036   1.034  -0.352 -1.1281 -1.0952  1.2122
  376MOL0     H51849   0.162   0.918  -0.407  3.0717  1.4116  0.3195
  376MOL0     H51850  -0.075   0.869  -0.665  0.5897 -0.4063 -0.3765
  376MOL0     H51851  -0.251   0.812  -0.837  0.5242 -0.4494  0.2770
  376MOL0     H51852  -0.555   0.484  -0.888 -0.7036 -1.6350  0.1158
  376MOL0     H51853  -0.440   0.415  -0.786  1.4684  1.3150  0.2248
  376MOL0     H51854  -0.633   0.435  -0.649  1.8851  0.0483  2.2750
  376MOL0     H51855  -0.544   0.574  -0.594 -0.3255 -2.0342  1.7587
  376MOL0     H51856  -0.760   0.573  -0.821 -0.8190  1.8177 -0.8321
  376MOL0     H51857  -0.653   0.705  -0.770  1.3006  0.5060  1.5038
  376MOL0     H51858  -0.774   0.676  -0.541 -1.9942  3.3652 -0.1441
  376MOL0     H51859  -0.886   0.555  -0.629  1.6137 -1.0860 -1.5470
  376MOL0     H51860  -0.975   0.790  -0.589 -0.5735 -2.4128 -0.2136
  376MOL0     H51861  -0.829   0.858  -0.669  1.5566 -1.3661 -1.3557
  376MOL0     H51862  -1.045   0.667  -0.776  0.1429  0.4339  1.6614
  376MOL0     H51863  -0.943   0.752  -0.887 -3.2402  0.8455 -1.6412
  376MOL0     H51864  -1.075   0.964  -0.772  1.7373 -0.4798 -0.4890
  376MOL0     H51865  -1.191   0.824  -0.741 -0.0839  0.3489  0.3081
  376MOL0     H51866  -1.200   0.777  -0.994  2.1172 -0.5671 -0.7405
  376MOL0     H51867  -1.112   0.911  -1.029  0.6556 -0.3794  0.6202
  376MOL0     H51868  -0.341   0.454  -0.607  0.9526  0.8787  3.5085
  376MOL0     H51869  -0.204   0.524  -0.427  0.7558 -1.8507 -0.0995
  376MOL0     H51870  -0.144   0.677  -0.078 -1.4445  2.9910  1.4377
  376MOL0     H51871  -0.004   0.707   0.115  1.2322  0.4925 -0.0302
  376MOL0     H51872   0.531   0.887   1.782  0.1658  0.0186  1.6850
  376MOL0     H51873   0.561   1.077   1.947  0.9378  1.4106  0.8125
  376MOL0     H51874   0.824   1.259   2.248  4.0633 -1.1143 -0.4221
  376MOL0     H51875   0.817   1.394   2.424 -0.9252  0.2993  0.0284
  376MOL0     H51876   0.964   1.549   2.545 -0.0636 -1.2621 -2.5202
  376MOL0     H51877   0.939   1.713   2.594  0.5760 -1.7760  2.4609
  376MOL0     H51878   0.724   1.510   2.608 -0.0280  0.5074  0.1980
  376MOL0     H51879   0.694   1.684   2.622  4.2816  4.2444 -0.8607
  376MOL0     H51880   0.885   1.534   2.808 -1.7412 -0.9040  2.2507
  376MOL0     H51881   0.846   1.698   2.823 -2.3217  1.0461 -0.1242
  376MOL0     H51882   0.715   1.614   2.996  0.3476  0.0457 -0.3782
  376MOL0     H51883   0.663   1.477   2.891  0.5630 -0.4665  0.8070
  376MOL0     H51884   0.387   1.789   2.804  0.8197  2.0015 -0.3193
  376MOL0     H51885   0.866   1.743   2.167 -2.6712  0.6224  0.3411
  376MOL0     H51886   0.804   1.715   1.931  1.6934  1.8569 -1.9763
  376MOL0     H51887   0.965   1.633   1.912 -1.5032  3.3638 -3.0779
  376MOL0     H51888   0.825   1.554   1.854  1.8118 -1.6732  1.0479
  377MOL0     O51889   3.755   6.674   0.253  0.5138  0.0031 -0.2349
  377MOL0     C51890   3.670   6.733   0.312  0.1570  0.3520 -0.2887
  377MOL0     O51891   3.540   6.710   0.300 -0.0428 -0.0175  0.3602
  377MOL0     C51892   3.476   6.618   0.212 -0.1951  0.2268  0.9202
  377MOL0     C51893   3.341   6.590   0.221 -0.3937  0.4613 -0.5901
  377MOL0     C51894   3.285   6.489   0.141  0.3362  0.6857  0.4614
  377MOL0     C51895   3.357   6.424   0.036  0.4802 -0.8458  0.3126
  377MOL0     O51896   3.303   6.320  -0.045  0.2074  0.3649  0.2864
  377MOL0     C51897   3.160   6.314  -0.054  0.2565 -0.9939  0.4847
  377MOL0     C51898   3.113   6.232  -0.167  0.6664  0.3725  0.2885
  377MOL0     C51899   3.176   6.274  -0.306  0.5301  0.1122 -0.3518
  377MOL0     C51900   3.286   6.168  -0.345  0.0622 -0.6527  0.1763
  377MOL0     C51901   3.321   6.177  -0.503 -0.1355 -0.1434 -0.5984
  377MOL0     C51902   3.386   6.307  -0.547  0.6080  0.7695 -0.5589
  377MOL0     C51903   3.392   6.318  -0.701  0.2410 -0.3162  0.4809
  377MOL0     C51904   3.489   6.226  -0.774 -0.1554 -0.4934 -0.3509
  377MOL0     N51905   3.630   6.269  -0.744  0.4402  0.1695  0.2674
  377MOL0     C51906   3.742   6.183  -0.758 -0.1827 -0.0580  0.4776
  377MOL0     C51907   3.848   6.259  -0.743 -0.2681  0.4819  0.1114
  377MOL0     C51908   3.986   6.202  -0.766  0.1240 -0.5835 -0.8917
  377MOL0     C51909   4.066   6.272  -0.883  0.1507  0.6272 -0.3008
  377MOL0     C51910   4.122   6.405  -0.843  0.8412 -0.4051 -1.1991
  377MOL0     C51911   4.230   6.459  -0.935  0.3891 -0.0700 -0.1780
  377MOL0     O51912   4.342   6.378  -0.965 -0.0087  0.9091  0.0711
  377MOL0     C51913   4.461   6.373  -0.897  0.9592 -0.2249 -0.5489
  377MOL0     C51914   4.494   6.441  -0.771 -0.7533  0.4107 -0.0742
  377MOL0     C51915   4.615   6.422  -0.703  0.2535 -0.2062  0.4753
  377MOL0     C51916   4.633   6.504  -0.581  0.2664  0.1514 -0.2869
  377MOL0     C51917   4.712   6.334  -0.765  0.6038  0.9509  1.2556
  377MOL0     C51918   4.844   6.312  -0.715 -0.1330 -0.1220 -0.3987
  377MOL0     O51919   4.875   6.343  -0.586  0.5274  0.5208  0.0687
  377MOL0     C51920   4.996   6.324  -0.539 -0.4643  0.4591  0.9405
  377MOL0     C51921   5.015   6.213  -0.453 -0.4623 -0.2693  0.5852
  377MOL0     C51922   5.144   6.174  -0.408 -1.4212 -0.3973 -0.4634
  377MOL0     C51923   5.260   6.240  -0.454  0.8248  0.4673  0.7176
  377MOL0     O51924   5.378   6.185  -0.418 -0.0643  0.4093  0.6744
  377MOL0     C51925   5.463   6.245  -0.324  0.3046  0.6146 -0.7113
  377MOL0     C51926   5.509   6.156  -0.201 -0.0357  0.4667  0.4507
  377MOL0     C51927   5.553   6.006  -0.220 -0.0324 -0.3495  0.0407
  377MOL0     C51928   5.669   6.013  -0.320  0.0683 -0.4648  0.1165
  377MOL0     C51929   5.771   5.905  -0.287  1.2815 -0.4249  0.3126
  377MOL0     C51930   5.885   5.910  -0.391 -0.2610 -0.7580  0.3862
  377MOL0     C51931   6.005   5.811  -0.356 -0.1514  1.0136  0.0434
  377MOL0     C51932   5.951   5.672  -0.339 -0.3564  1.0833  0.1956
  377MOL0    Cl51933   5.876   5.603  -0.495 -0.5448  0.3552  0.3373
  377MOL0     C51934   5.240   6.355  -0.531  0.0254 -0.4003  0.1942
  377MOL0     C51935   5.108   6.404  -0.565 -1.0335  0.6250 -1.2666
  377MOL0     O51936   4.918   6.265  -0.795  0.6029  0.1895  0.7226
  377MOL0     C51937   4.666   6.255  -0.879 -0.3347  0.5857  0.2708
  377MOL0     C51938   4.547   6.282  -0.946 -0.7151  0.3558 -0.0554
  377MOL0     N51939   3.804   6.384  -0.706  0.3367 -0.2831 -0.6301
  377MOL0     N51940   3.674   6.397  -0.711  0.0182  0.4417 -0.4579
  377MOL0     C51941   3.487   6.461   0.019 -0.2586 -0.2370  1.2515
  377MOL0     C51942   3.548   6.557   0.102  0.0645 -0.3315 -0.3540
  377MOL0     C51943   3.700   6.856   0.393 -0.4552  0.4216 -0.0625
  377MOL0     C51944   3.592   6.929   0.439  0.5998  0.5132  0.2509
  377MOL0     C51945   3.615   7.051   0.509 -0.3450 -0.5339  0.0283
  377MOL0     C51946   3.737   7.096   0.557  0.4437  0.5324 -0.1511
  377MOL0     O51947   3.734   7.215   0.627 -0.2545 -0.1134  0.7141
  377MOL0     C51948   3.864   7.276   0.653 -0.3535 -0.1832  0.5757
  377MOL0     C51949   3.929   7.337   0.527  0.4128 -0.3599 -0.8741
  377MOL0     C51950   4.029   7.448   0.573 -0.4003 -0.5095  0.4348
  377MOL0     C51951   4.079   7.530   0.446  0.4109 -0.2037 -0.5143
  377MOL0     C51952   4.060   7.674   0.467  0.5559 -1.4431 -0.0986
  377MOL0     C51953   4.042   7.796   0.480 -0.2928 -0.7568 -0.8677
  377MOL0     C51954   3.846   7.007   0.523 -0.4290 -0.1428  0.5416
  377MOL0     C51955   3.825   6.899   0.440 -0.4523  0.4104 -0.0908
  377MOL0     C51956   3.955   6.821   0.416  0.2943 -0.9576  0.0509
  377MOL0     H51957   3.278   6.622   0.303 -0.9804 -3.9303  0.9459
  377MOL0     H51958   3.184   6.461   0.171 -0.0842 -0.6203 -1.9021
  377MOL0     H51959   3.108   6.410  -0.062  2.7842  0.3021 -3.0070
  377MOL0     H51960   3.125   6.278   0.043 -0.4515  1.7112  1.3336
  377MOL0     H51961   3.148   6.131  -0.142  1.0443  0.8191  1.6215
  377MOL0     H51962   3.004   6.239  -0.161  0.7511  1.3041  0.9283
  377MOL0     H51963   3.107   6.265  -0.391  1.4068 -3.0091 -0.8604
  377MOL0     H51964   3.207   6.378  -0.297  0.3522 -0.0007  2.5426
  377MOL0     H51965   3.374   6.168  -0.280  0.9952  0.6485 -1.0212
  377MOL0     H51966   3.239   6.069  -0.346 -1.5854  0.0798 -1.8865
  377MOL0     H51967   3.224   6.184  -0.554 -0.4376  2.4510  0.1812
  377MOL0     H51968   3.379   6.090  -0.537 -0.8212 -1.3785  1.2515
  377MOL0     H51969   3.304   6.378  -0.534 -0.7699 -1.0289  1.0812
  377MOL0     H51970   3.476   6.344  -0.498 -0.9854  2.7142  1.0720
  377MOL0     H51971   3.412   6.421  -0.731  1.8413 -0.8718 -0.4641
  377MOL0     H51972   3.295   6.295  -0.747  0.2517 -0.8930  0.7403
  377MOL0     H51973   3.474   6.126  -0.733  1.0538 -1.1428 -1.4204
  377MOL0     H51974   3.476   6.224  -0.883 -2.3076  1.0646 -0.1960
  377MOL0     H51975   3.741   6.082  -0.796 -2.2236  0.8695 -2.2508
  377MOL0     H51976   3.983   6.094  -0.780  0.4387 -1.2825  3.0842
  377MOL0     H51977   4.043   6.206  -0.673  0.4207 -0.3710 -1.0805
  377MOL0     H51978   4.146   6.206  -0.920 -1.9729 -0.6476 -2.9451
  377MOL0     H51979   4.002   6.282  -0.971  1.3202 -0.5723 -1.3334
  377MOL0     H51980   4.050   6.488  -0.846  1.6276  0.4355  1.2163
  377MOL0     H51981   4.168   6.398  -0.744 -2.9336  1.2490  0.8629
  377MOL0     H51982   4.176   6.475  -1.029 -1.3970  0.8422  0.9634
  377MOL0     H51983   4.253   6.557  -0.893 -0.3299 -0.3942  1.0266
  377MOL0     H51984   4.423   6.512  -0.731 -1.0385 -1.7964  3.7854
  377MOL0     H51985   4.731   6.552  -0.579  1.3132 -1.8098 -1.6245
  377MOL0     H51986   4.623   6.452  -0.485  0.4673  1.1606  0.2994
  377MOL0     H51987   4.565   6.590  -0.577  2.0404  1.5652  1.3217
  377MOL0     H51988   4.925   6.154  -0.437  0.7740 -2.4837 -0.2615
  377MOL0     H51989   5.168   6.097  -0.336 -1.2330  3.0063  3.4913
  377MOL0     H51990   5.553   6.286  -0.370  2.1018 -0.3299  1.7456
  377MOL0     H51991   5.399   6.326  -0.287 -0.5127 -0.4649  0.3497
  377MOL0     H51992   5.593   6.208  -0.155 -0.1891  1.3879 -0.2911
  377MOL0     H51993   5.426   6.155  -0.130 -1.6385 -1.4555 -1.3100
  377MOL0     H51994   5.475   5.947  -0.268  1.0733  1.9188 -5.3009
  377MOL0     H51995   5.584   5.954  -0.130  1.8250  1.1469  0.3298
  377MOL0     H51996   5.723   6.108  -0.308 -1.3089  0.0368  3.4545
  377MOL0     H51997   5.636   6.009  -0.424  1.4283  1.5950 -0.4591
  377MOL0     H51998   5.805   5.937  -0.189 -2.4743  2.2582  0.9973
  377MOL0     H51999   5.718   5.810  -0.294  0.9727 -0.2792  0.6368
  377MOL0     H52000   5.915   6.015  -0.395  0.2699 -0.8307  1.9646
  377MOL0     H52001   5.860   5.887  -0.495 -0.7462  2.3674 -0.2717
  377MOL0     H52002   6.051   5.847  -0.264  0.1846 -1.3281  0.8680
  377MOL0     H52003   6.073   5.808  -0.442  1.6004  0.8430  1.3900
  377MOL0     H52004   5.869   5.675  -0.266  1.4356 -0.3781  2.4072
  377MOL0     H52005   6.029   5.603  -0.304 -1.0539 -0.3867 -1.0294
  377MOL0     H52006   5.327   6.410  -0.567 -0.9399  0.4484 -0.8926
  377MOL0     H52007   5.089   6.497  -0.618  3.9385  1.3987 -2.2226
  377MOL0     H52008   4.725   6.176  -0.923 -1.8362  0.2877 -1.3125
  377MOL0     H52009   4.534   6.245  -1.047  1.0257 -1.0259  0.1759
  377MOL0     H52010   3.536   6.416  -0.066 -0.7245  0.4080  0.6300
  377MOL0     H52011   3.644   6.595   0.069 -0.9999  0.4524 -2.7325
  377MOL0     H52012   3.489   6.907   0.412  0.6246  0.9187 -0.2036
  377MOL0     H52013   3.528   7.101   0.551 -0.0930  0.8890 -1.0563
  377MOL0     H52014   3.848   7.349   0.733 -1.1592  0.2062  0.0595
  377MOL0     H52015   3.933   7.205   0.700  0.2957 -0.4833 -0.7756
  377MOL0     H52016   3.846   7.367   0.462  1.9332  0.8864 -2.3268
  377MOL0     H52017   3.984   7.253   0.482 -1.3144 -0.5420 -2.8006
  377MOL0     H52018   3.979   7.519   0.639  1.2898  1.7571 -0.6003
  377MOL0     H52019   4.112   7.407   0.631  1.9399  1.1840 -1.5248
  377MOL0     H52020   4.014   7.495   0.366 -2.5257 -2.2602  2.4780
  377MOL0     H52021   4.183   7.502   0.425  0.7831  0.6959  0.0203
  377MOL0     H52022   4.043   7.903   0.490  1.7833 -0.6505 -1.6124
  377MOL0     H52023   3.940   7.025   0.575 -0.2276 -0.9585  0.4685
  377MOL0     H52024   4.041   6.840   0.481  0.8327  0.9429 -1.1073
  377MOL0     H52025   3.928   6.716   0.425  0.6405 -1.2055 -1.4332
  377MOL0     H52026   3.991   6.855   0.318  0.0502  2.1721  0.9381
  378MOL0     O52027   4.633   7.976   4.573 -0.1625  0.3399 -0.4292
  378MOL0     C52028   4.594   7.941   4.691 -0.6016  0.1292  0.5434
  378MOL0     O52029   4.478   7.874   4.714 -0.6687  0.6863  0.2716
  378MOL0     C52030   4.419   7.809   4.603 -0.4954 -0.1043 -1.1255
  378MOL0     C52031   4.392   7.881   4.490 -0.0035  0.5543 -0.1738
  378MOL0     C52032   4.316   7.824   4.389 -0.6869 -0.7935 -0.4957
  378MOL0     C52033   4.272   7.690   4.405  0.2226 -0.2387  0.1087
  378MOL0     O52034   4.208   7.630   4.306  0.4291 -0.2954  0.2942
  378MOL0     C52035   4.250   7.665   4.170  0.4770 -0.8173  0.2553
  378MOL0     C52036   4.237   7.549   4.070 -0.1356  0.4512  0.5907
  378MOL0     C52037   4.307   7.563   3.929  0.0990 -0.2124 -0.7823
  378MOL0     C52038   4.241   7.685   3.869 -0.6132  0.8122  0.2946
  378MOL0     C52039   4.277   7.695   3.720 -0.8564  0.1130  0.3223
  378MOL0     C52040   4.159   7.618   3.649  0.7403  0.2057  0.3237
  378MOL0     C52041   4.163   7.648   3.505 -0.0846 -1.1937  0.5875
  378MOL0     C52042   4.054   7.583   3.415  0.3312  0.4614  0.6085
  378MOL0     N52043   4.115   7.586   3.275 -0.8401 -0.3561 -0.2145
  378MOL0     C52044   4.229   7.515   3.231  0.2558  0.2761 -1.0688
  378MOL0     C52045   4.237   7.546   3.096 -0.0251  0.1278  0.4805
  378MOL0     C52046   4.344   7.512   3.000  0.6835 -0.5455  0.0140
  378MOL0     C52047   4.420   7.640   2.978 -1.2943 -0.0838  0.0574
  378MOL0     C52048   4.525   7.621   2.866  0.7340 -0.0884 -0.5222
  378MOL0     C52049   4.477   7.637   2.728  0.5075 -0.2448 -0.1647
  378MOL0     O52050   4.574   7.674   2.637 -0.0195 -0.4477 -0.2925
  378MOL0     C52051   4.543   7.692   2.500 -0.2925 -0.6553 -1.1598
  378MOL0     C52052   4.406   7.687   2.458  0.4477  0.0507  0.4276
  378MOL0     C52053   4.374   7.702   2.315  0.6738  0.0600 -0.1577
  378MOL0     C52054   4.231   7.699   2.274  0.8586  0.0101  0.5525
  378MOL0     C52055   4.478   7.717   2.221  0.5922  0.5207  0.0011
  378MOL0     C52056   4.458   7.732   2.073  0.0239  0.7029 -0.8410
  378MOL0     O52057   4.568   7.725   1.985 -0.4319  0.4726  0.7143
  378MOL0     C52058   4.552   7.664   1.863  0.2127 -0.3296  0.5048
  378MOL0     C52059   4.442   7.581   1.835 -0.1609  0.3416 -0.1659
  378MOL0     C52060   4.437   7.510   1.710 -0.1943  1.2874 -0.1683
  378MOL0     C52061   4.538   7.529   1.609  0.6097  0.6041 -0.4393
  378MOL0     O52062   4.546   7.467   1.491  0.7167  0.6361  0.1036
  378MOL0     C52063   4.417   7.470   1.429 -0.5357 -0.3026 -0.2866
  378MOL0     C52064   4.428   7.450   1.277 -1.1280 -0.4524  0.5364
  378MOL0     C52065   4.519   7.559   1.216 -0.4151  0.0490  0.2694
  378MOL0     C52066   4.494   7.708   1.249  0.1159 -0.1072 -0.5347
  378MOL0     C52067   4.606   7.795   1.203 -0.0179  0.1304  0.0602
  378MOL0     C52068   4.734   7.761   1.276  0.6570 -0.1559  0.7669
  378MOL0     C52069   4.834   7.883   1.276 -0.1886 -0.2028  0.7729
  378MOL0     C52070   4.980   7.853   1.297  0.7980 -0.5162 -0.0801
  378MOL0    Cl52071   4.994   7.791   1.465 -0.2600  0.2477 -0.2275
  378MOL0     C52072   4.648   7.609   1.644  0.5607 -0.7485 -0.2813
  378MOL0     C52073   4.656   7.668   1.771  0.8728 -0.4449  0.8201
  378MOL0     O52074   4.345   7.756   2.034 -0.8245 -0.1658  0.2059
  378MOL0     C52075   4.604   7.722   2.274  0.4624  1.3492 -0.8611
  378MOL0     C52076   4.640   7.716   2.408  1.1064  0.0753 -0.0011
  378MOL0     N52077   4.134   7.625   3.062 -0.5358 -0.1439 -0.0013
  378MOL0     N52078   4.058   7.645   3.169  0.0766  0.1466  0.3462
  378MOL0     C52079   4.303   7.611   4.511 -0.0650 -0.9121  0.0115
  378MOL0     C52080   4.370   7.679   4.617 -0.2150 -0.2282  0.3032
  378MOL0     C52081   4.673   8.004   4.811  0.0517 -0.0476 -0.1236
  378MOL0     C52082   4.802   8.063   4.788 -0.4647  0.1128 -0.5143
  378MOL0     C52083   4.877   8.120   4.890  0.1822  0.1163 -0.6766
  378MOL0     C52084   4.838   8.109   5.022 -0.1114 -0.0196 -0.4472
  378MOL0     O52085   4.923   8.173   5.099  0.6878  0.0591 -0.0364
  378MOL0     C52086   4.904   8.163   5.242  0.0527  0.3057  0.0165
  378MOL0     C52087   4.809   8.275   5.291  0.8393  1.0481 -0.1928
  378MOL0     C52088   4.881   8.383   5.355 -0.9802  0.2163 -0.4178
  378MOL0     C52089   4.779   8.482   5.413  1.4636 -0.1201  0.2135
  378MOL0     C52090   4.864   8.596   5.446  0.4662 -0.2522  0.2824
  378MOL0     C52091   4.931   8.695   5.472  0.5029 -0.1916  0.4810
  378MOL0     C52092   4.713   8.053   5.050 -0.5717  0.3825 -0.9730
  378MOL0     C52093   4.630   8.004   4.951 -0.9267 -0.9445  0.5478
  378MOL0     C52094   4.492   7.954   4.993  0.8064 -0.8366 -0.2044
  378MOL0     H52095   4.431   7.981   4.475  0.2594  0.1216 -2.6930
  378MOL0     H52096   4.288   7.885   4.304  0.1448  0.6168  0.2205
  378MOL0     H52097   4.355   7.691   4.159  0.5651 -2.0803 -3.1803
  378MOL0     H52098   4.196   7.753   4.134  2.2280  1.0922  2.0735
  378MOL0     H52099   4.276   7.456   4.113 -0.0874 -0.0081 -0.4349
  378MOL0     H52100   4.132   7.528   4.048  0.6812 -1.0827 -2.2645
  378MOL0     H52101   4.411   7.586   3.952 -0.6318  3.1328 -0.2389
  378MOL0     H52102   4.280   7.477   3.866 -0.8222 -1.2856  1.0182
  378MOL0     H52103   4.136   7.700   3.896 -1.0629  1.1758 -1.5190
  378MOL0     H52104   4.284   7.771   3.921  0.4259 -0.5120  1.7022
  378MOL0     H52105   4.379   7.661   3.697 -0.5267  1.9855 -1.2041
  378MOL0     H52106   4.279   7.804   3.708 -0.5344  0.4580  2.8775
  378MOL0     H52107   4.162   7.511   3.673 -0.9281  0.4192  1.7230
  378MOL0     H52108   4.059   7.643   3.686  0.9562  0.3490  0.8193
  378MOL0     H52109   4.261   7.632   3.459 -0.6788  1.2123 -1.8115
  378MOL0     H52110   4.163   7.757   3.492  1.6670 -1.3802 -1.5306
  378MOL0     H52111   4.054   7.477   3.443 -2.1905 -0.2352 -1.6331
  378MOL0     H52112   3.954   7.625   3.427 -0.1054 -0.6068  0.8906
  378MOL0     H52113   4.296   7.463   3.298 -0.0975 -0.1935 -1.0750
  378MOL0     H52114   4.297   7.490   2.904 -0.5440  0.0289  0.4718
  378MOL0     H52115   4.415   7.441   3.044  0.0807 -1.3684 -0.3243
  378MOL0     H52116   4.352   7.723   2.955  2.0746  3.6716  2.3723
  378MOL0     H52117   4.472   7.666   3.071 -2.6804  1.6379  0.4118
  378MOL0     H52118   4.592   7.704   2.890  0.4204  0.5436 -1.7366
  378MOL0     H52119   4.577   7.525   2.871  3.4075  1.3015  3.8338
  378MOL0     H52120   4.437   7.539   2.700 -0.9080 -0.4028  2.1761
  378MOL0     H52121   4.398   7.712   2.715 -1.2847 -2.1619 -0.9788
  378MOL0     H52122   4.329   7.663   2.530 -1.8690 -1.1567 -2.2167
  378MOL0     H52123   4.170   7.667   2.359 -0.2580 -2.9099 -1.1836
  378MOL0     H52124   4.216   7.630   2.190  0.6655  2.2776 -1.3631
  378MOL0     H52125   4.200   7.801   2.249 -0.4959 -0.3424  0.7589
  378MOL0     H52126   4.373   7.556   1.915 -2.7210  0.3053 -2.2522
  378MOL0     H52127   4.363   7.433   1.695  0.5016  0.7502 -0.9479
  378MOL0     H52128   4.360   7.383   1.463 -5.5949  2.0228 -1.7230
  378MOL0     H52129   4.362   7.560   1.459 -1.3951 -0.8282 -0.2394
  378MOL0     H52130   4.472   7.353   1.251  0.1519  0.4778 -0.9016
  378MOL0     H52131   4.329   7.445   1.231 -1.1376  0.8008  0.3841
  378MOL0     H52132   4.519   7.555   1.106  3.4382  0.4893  0.1081
  378MOL0     H52133   4.618   7.526   1.249 -2.2040 -4.7116  1.5442
  378MOL0     H52134   4.483   7.722   1.357 -2.1221 -0.7986 -0.6430
  378MOL0     H52135   4.403   7.738   1.197 -0.4497 -1.0595 -0.1043
  378MOL0     H52136   4.623   7.801   1.095 -0.7879  0.8957 -0.0333
  378MOL0     H52137   4.579   7.895   1.240 -0.5802 -0.4907  1.4017
  378MOL0     H52138   4.789   7.683   1.222 -0.3667  1.7815 -3.4839
  378MOL0     H52139   4.715   7.711   1.371 -0.7058  0.7221  0.9751
  378MOL0     H52140   4.816   7.962   1.349  1.4326  0.4438  0.5168
  378MOL0     H52141   4.824   7.931   1.178  1.6759 -1.4022 -0.0461
  378MOL0     H52142   5.033   7.948   1.312 -1.6863  0.7122  1.5131
  378MOL0     H52143   5.025   7.787   1.223 -1.8472  1.2273 -3.4826
  378MOL0     H52144   4.737   7.632   1.587  0.3717  1.2684  0.1647
  378MOL0     H52145   4.745   7.722   1.801 -0.6563  4.5202 -2.3040
  378MOL0     H52146   4.693   7.731   2.213  1.1148  0.1808 -0.1198
  378MOL0     H52147   4.742   7.703   2.442  0.8742 -1.7217  0.0991
  378MOL0     H52148   4.279   7.505   4.515 -0.5854 -0.7667  2.6493
  378MOL0     H52149   4.395   7.614   4.700 -0.5290 -1.7369 -0.7520
  378MOL0     H52150   4.855   8.058   4.694  2.6559 -0.4563  1.1317
  378MOL0     H52151   4.972   8.167   4.869  0.6111 -0.7108 -0.6275
  378MOL0     H52152   4.868   8.062   5.265  1.1850  0.2675  1.8795
  378MOL0     H52153   4.995   8.161   5.303 -0.7967 -0.9634  1.3192
  378MOL0     H52154   4.740   8.219   5.355  1.5099 -2.1042 -2.0610
  378MOL0     H52155   4.760   8.322   5.205  1.0008  3.8579  1.1211
  378MOL0     H52156   4.958   8.353   5.427 -0.2994  0.0879 -1.1888
  378MOL0     H52157   4.935   8.428   5.271 -1.5684  0.8882 -0.4444
  378MOL0     H52158   4.719   8.446   5.497 -0.6938  0.1706 -1.1429
  378MOL0     H52159   4.715   8.516   5.332  0.6951  1.2490  1.3443
  378MOL0     H52160   4.993   8.776   5.503  4.5822 -0.8908 -4.4980
  378MOL0     H52161   4.666   8.054   5.148  0.4156  5.1601 -0.3192
  378MOL0     H52162   4.510   7.847   4.998  2.0086 -0.5971  1.4838
  378MOL0     H52163   4.469   7.997   5.091 -0.6757  0.7188 -1.1747
  378MOL0     H52164   4.406   7.974   4.929 -1.9551 -0.1348  3.3627
  379MOL0     O52165   9.158  10.241   9.269 -0.8910 -0.8627 -0.5636
  379MOL0     C52166   9.147  10.348   9.215 -0.3469 -0.4037  0.2698
  379MOL0     O52167   9.067  10.373   9.111  0.2178 -0.1940  0.8612
  379MOL0     C52168   9.020  10.264   9.042  0.1925 -0.4939  0.0003
  379MOL0     C52169   9.078  10.243   8.919 -0.9970  0.1190  0.7066
  379MOL0     C52170   9.026  10.148   8.836 -0.6592 -0.9483  0.5723
  379MOL0     C52171   8.932  10.057   8.875 -1.0179 -0.4110  0.3573
  379MOL0     O52172   8.883   9.964   8.788  0.0944 -0.9305  0.5124
  379MOL0     C52173   8.840   9.842   8.840  1.5102  0.0371 -0.9400
  379MOL0     C52174   8.855   9.736   8.731 -0.7518  0.1848 -0.3444
  379MOL0     C52175   8.775   9.778   8.613 -0.6647  0.8302  0.6182
  379MOL0     C52176   8.712   9.647   8.541  0.2716  0.0822 -1.0733
  379MOL0     C52177   8.809   9.597   8.435 -0.2642  0.1702  0.3149
  379MOL0     C52178   8.740   9.483   8.349  0.4045  0.2505  0.2036
  379MOL0     C52179   8.829   9.386   8.286  0.5199  1.0294  1.1269
  379MOL0     C52180   8.887   9.428   8.142 -0.5781  0.0108 -0.7534
  379MOL0     N52181   8.923   9.315   8.054 -0.1346 -0.3336 -0.0932
  379MOL0     C52182   8.837   9.256   7.965  0.5287  0.2760 -0.0073
  379MOL0     C52183   8.901   9.136   7.936 -1.0464  0.3877  0.2101
  379MOL0     C52184   8.867   9.035   7.834  0.5198  0.8384 -0.2389
  379MOL0     C52185   8.797   8.909   7.897 -0.2969 -0.3232 -0.6450
  379MOL0     C52186   8.880   8.838   8.002 -0.2146  0.5386 -0.7206
  379MOL0     C52187   9.014   8.784   7.985 -0.3649  0.0624  0.0003
  379MOL0     O52188   9.012   8.708   7.862  0.3016  0.3408 -0.3288
  379MOL0     C52189   9.078   8.579   7.853  0.2093  0.3730 -0.4075
  379MOL0     C52190   9.077   8.507   7.738 -0.1873  0.1439  0.5005
  379MOL0     C52191   9.149   8.389   7.712  0.1454 -1.0191  0.1198
  379MOL0     C52192   9.145   8.330   7.579 -0.4675  0.4875 -0.7313
  379MOL0     C52193   9.229   8.337   7.815  1.2987 -0.3909  0.6823
  379MOL0     C52194   9.308   8.219   7.803 -0.2395  1.7080 -0.2146
  379MOL0     O52195   9.403   8.205   7.899 -0.4952 -0.4539 -0.6094
  379MOL0     C52196   9.497   8.107   7.898 -1.2477 -0.2708  0.4352
  379MOL0     C52197   9.599   8.123   7.794  0.7299  0.2992  0.6317
  379MOL0     C52198   9.683   8.009   7.774  0.4036 -0.6135 -0.1008
  379MOL0     C52199   9.688   7.908   7.863 -0.7673 -0.1224 -0.4422
  379MOL0     O52200   9.775   7.804   7.858  0.2083 -0.0835  0.0981
  379MOL0     C52201   9.915   7.845   7.882 -0.2679  0.2566 -0.6678
  379MOL0     C52202   9.929   7.861   8.034  0.9315  0.3171  0.5086
  379MOL0     C52203  10.062   7.920   8.069  0.3397  0.2680 -0.3256
  379MOL0     C52204  10.082   7.927   8.225  0.2992 -0.8293  0.5265
  379MOL0     C52205  10.226   7.952   8.263 -0.2356 -0.1454  0.2541
  379MOL0     C52206  10.304   8.069   8.205 -0.2280  0.6439  0.2847
  379MOL0     C52207  10.259   8.196   8.277 -1.1947  0.9117 -0.3843
  379MOL0     C52208  10.372   8.304   8.273  0.6741  0.2273 -0.5735
  379MOL0    Cl52209  10.516   8.239   8.360 -0.5447 -0.3596 -0.2450
  379MOL0     C52210   9.600   7.904   7.971  0.5095 -0.3477  0.1119
  379MOL0     C52211   9.494   7.994   7.975 -0.0616  0.6414  0.1094
  379MOL0     O52212   9.289   8.139   7.715 -1.0492 -0.5394 -0.7443
  379MOL0     C52213   9.235   8.415   7.929 -1.0100 -0.5638 -0.2888
  379MOL0     C52214   9.160   8.530   7.958  1.0230 -0.8997 -0.6061
  379MOL0     N52215   9.020   9.135   8.013  0.1024  0.5293  0.4364
  379MOL0     N52216   9.033   9.230   8.084  0.7285 -0.4017 -0.8714
  379MOL0     C52217   8.875  10.075   9.006 -0.0963  0.2318  0.0996
  379MOL0     C52218   8.924  10.176   9.093 -0.1926 -0.0983  0.7902
  379MOL0     C52219   9.241  10.458   9.259 -0.9974  0.4407  0.7825
  379MOL0     C52220   9.347  10.416   9.340  0.3530 -0.1257 -0.1386
  379MOL0     C52221   9.433  10.517   9.399  0.9481  0.3641  1.5034
  379MOL0     C52222   9.416  10.645   9.362  0.1526 -1.1899  0.1087
  379MOL0     O52223   9.515  10.739   9.382 -0.1560 -0.2828 -0.4005
  379MOL0     C52224   9.611  10.723   9.493  0.7752 -0.1875  0.2710
  379MOL0     C52225   9.529  10.707   9.629 -0.6288  0.2716  0.6257
  379MOL0     C52226   9.592  10.596   9.712  0.5976  0.7438 -0.8502
  379MOL0     C52227   9.519  10.587   9.849  0.5987  0.5364 -0.9131
  379MOL0     C52228   9.588  10.504   9.952 -0.5999  0.0514 -0.1394
  379MOL0     C52229   9.650  10.448  10.040 -0.6344  0.6108  0.7461
  379MOL0     C52230   9.309  10.690   9.294  0.2051  0.9086 -0.4447
  379MOL0     C52231   9.216  10.601   9.250  0.0073  0.9476 -0.1408
  379MOL0     C52232   9.085  10.654   9.191  0.7972  0.1501 -0.7495
  379MOL0     H52233   9.168  10.299   8.894  0.0458 -1.8868 -0.3115
  379MOL0     H52234   9.060  10.125   8.736 -1.1512  0.2213  0.1242
  379MOL0     H52235   8.733   9.861   8.852  2.0203  2.3168  0.4338
  379MOL0     H52236   8.887   9.815   8.935  2.1929 -0.7590 -1.4915
  379MOL0     H52237   8.958   9.716   8.698 -1.0873 -1.9393 -0.2508
  379MOL0     H52238   8.813   9.641   8.764  2.3068 -0.4733  2.1792
  379MOL0     H52239   8.690   9.829   8.661  1.3372  1.4165  3.8613
  379MOL0     H52240   8.830   9.844   8.546  1.4251  2.0614  3.3252
  379MOL0     H52241   8.672   9.568   8.605  1.8435 -0.6145 -0.9066
  379MOL0     H52242   8.629   9.692   8.486  1.6190  0.7235 -2.6676
  379MOL0     H52243   8.898   9.548   8.476  0.4642 -0.3173 -1.6972
  379MOL0     H52244   8.853   9.682   8.382  2.3371  0.3647  2.5561
  379MOL0     H52245   8.674   9.428   8.417 -0.6203  1.1792 -0.0184
  379MOL0     H52246   8.678   9.534   8.275  0.0837 -0.3009  0.0899
  379MOL0     H52247   8.771   9.294   8.273 -0.5926  2.0515 -2.3395
  379MOL0     H52248   8.905   9.356   8.360  0.2038 -1.1990  0.6055
  379MOL0     H52249   8.817   9.491   8.086 -1.2457 -1.0929 -1.1964
  379MOL0     H52250   8.976   9.486   8.167 -1.9459  1.7770  0.1767
  379MOL0     H52251   8.744   9.289   7.920  0.2703  0.7161  0.8395
  379MOL0     H52252   8.958   9.001   7.784  0.6854 -0.8736  1.1309
  379MOL0     H52253   8.790   9.076   7.769 -0.6874 -0.5754  0.2545
  379MOL0     H52254   8.697   8.938   7.931 -0.7874 -3.2436  0.6987
  379MOL0     H52255   8.785   8.837   7.815  4.3214 -1.7588 -0.3236
  379MOL0     H52256   8.880   8.904   8.089 -1.9229  0.0895 -0.3445
  379MOL0     H52257   8.826   8.748   8.033 -1.1361 -1.1681 -6.2170
  379MOL0     H52258   9.076   8.874   7.995 -2.7528  1.7579  0.4360
  379MOL0     H52259   9.040   8.718   8.068  1.2172  0.1218 -0.4095
  379MOL0     H52260   9.025   8.549   7.652  2.0457  0.9144 -0.5717
  379MOL0     H52261   9.109   8.227   7.576  1.9085 -0.5659  2.1997
  379MOL0     H52262   9.250   8.327   7.548  0.3165  0.4011  1.7557
  379MOL0     H52263   9.092   8.394   7.507 -1.5519  0.3154 -0.0966
  379MOL0     H52264   9.596   8.213   7.734 -0.6823 -0.6896 -0.8724
  379MOL0     H52265   9.756   8.004   7.694  1.1811  0.1510  0.5490
  379MOL0     H52266   9.989   7.773   7.846  1.6375  2.1514 -0.8036
  379MOL0     H52267   9.939   7.946   7.845 -0.1367  1.6860  2.9650
  379MOL0     H52268   9.849   7.922   8.078  0.9626  0.9976 -0.3562
  379MOL0     H52269   9.914   7.761   8.076  4.3972 -0.2191  0.7220
  379MOL0     H52270  10.073   8.024   8.038 -1.4156  0.7630  0.5681
  379MOL0     H52271  10.139   7.859   8.021  0.2072  0.1662 -0.4081
  379MOL0     H52272  10.048   7.833   8.267  1.8384 -2.0164 -0.7725
  379MOL0     H52273  10.022   8.006   8.271  1.4022 -0.6721  1.7484
  379MOL0     H52274  10.240   7.962   8.371 -2.9997  0.6986  0.6184
  379MOL0     H52275  10.278   7.858   8.244 -0.7685 -0.6829  1.3439
  379MOL0     H52276  10.292   8.085   8.097 -0.4026  1.3913  0.4108
  379MOL0     H52277  10.411   8.046   8.215 -0.2906  0.2686  0.0873
  379MOL0     H52278  10.219   8.176   8.376 -3.2692 -2.3818 -1.7054
  379MOL0     H52279  10.175   8.235   8.219 -0.6335  1.2512 -0.9747
  379MOL0     H52280  10.333   8.383   8.337  0.0690 -1.8251  1.7496
  379MOL0     H52281  10.384   8.334   8.168 -1.5744  1.6696 -0.4642
  379MOL0     H52282   9.611   7.816   8.033 -1.0894 -1.1770 -0.7376
  379MOL0     H52283   9.417   7.972   8.048  1.0979 -1.3798  0.7978
  379MOL0     H52284   9.301   8.370   8.003  0.5567 -1.1521 -1.9923
  379MOL0     H52285   9.171   8.585   8.051  0.1005  0.6064 -1.3599
  379MOL0     H52286   8.789  10.019   9.039  1.8365 -1.6359  2.3256
  379MOL0     H52287   8.898  10.173   9.198  1.6613 -1.4316  1.2481
  379MOL0     H52288   9.349  10.311   9.364 -3.3349 -0.6324 -1.4489
  379MOL0     H52289   9.510  10.484   9.467 -1.1971 -1.7054  3.0745
  379MOL0     H52290   9.674  10.634   9.481  1.1182  0.0292  0.4500
  379MOL0     H52291   9.686  10.802   9.499 -1.7368  2.5877 -1.9268
  379MOL0     H52292   9.423  10.695   9.607  0.2189 -0.9756 -3.7549
  379MOL0     H52293   9.548  10.803   9.677  1.1492 -0.3384  1.2068
  379MOL0     H52294   9.581  10.502   9.658 -2.0821  0.8949 -0.7212
  379MOL0     H52295   9.696  10.623   9.734  0.6569  0.0850 -0.3143
  379MOL0     H52296   9.415  10.552   9.845 -0.2762  2.0967  3.3001
  379MOL0     H52297   9.516  10.689   9.888 -0.0264  0.5328 -0.9450
  379MOL0     H52298   9.706  10.394  10.113  0.4206  1.0045  0.2590
  379MOL0     H52299   9.294  10.797   9.288  1.5551  1.1700  0.4221
  379MOL0     H52300   9.077  10.760   9.215 -0.3582 -0.1575  0.3025
  379MOL0     H52301   9.093  10.634   9.083  5.1884 -0.1412 -0.5492
  379MOL0     H52302   9.000  10.598   9.231 -0.2633  1.6866 -0.8029
  380MOL0     O52303   0.745   7.926   7.956 -0.8948  0.2732 -0.0386
  380MOL0     C52304   0.720   8.034   7.992 -0.0624 -0.4191 -1.7389
  380MOL0     O52305   0.810   8.139   7.974 -0.2157 -0.2524  0.2950
  380MOL0     C52306   0.943   8.116   7.974  0.1770  0.0611  0.8805
  380MOL0     C52307   1.000   8.046   8.075 -0.2556  0.6130 -0.8845
  380MOL0     C52308   1.140   8.026   8.076  0.0341 -1.1297 -0.3705
  380MOL0     C52309   1.217   8.071   7.966  0.4801  0.2946  0.0390
  380MOL0     O52310   1.355   8.057   7.964 -0.0654 -0.3248  0.2334
  380MOL0     C52311   1.395   7.952   7.866 -0.1354  1.1765 -1.4884
  380MOL0     C52312   1.550   7.975   7.837  0.9541  0.1736  0.2230
  380MOL0     C52313   1.593   7.876   7.733  0.2076  0.4610  0.2653
  380MOL0     C52314   1.738   7.848   7.740 -0.3360 -0.8392 -0.5438
  380MOL0     C52315   1.824   7.963   7.691 -0.2858 -0.3430 -0.3914
  380MOL0     C52316   1.980   7.931   7.700  0.3097 -0.2229  0.5878
  380MOL0     C52317   2.029   7.807   7.611 -0.7715  0.2778  0.3035
  380MOL0     C52318   2.178   7.823   7.595  0.1999 -0.1421  0.0861
  380MOL0     N52319   2.225   7.690   7.545 -1.0573  0.0526 -0.2942
  380MOL0     C52320   2.333   7.619   7.591 -0.8651  0.3324 -0.1175
  380MOL0     C52321   2.335   7.499   7.527  1.0166  0.7220 -0.4225
  380MOL0     C52322   2.431   7.387   7.545  0.4275 -0.0596  0.1050
  380MOL0     C52323   2.554   7.397   7.445  0.6497 -0.1855 -1.1359
  380MOL0     C52324   2.544   7.310   7.321 -0.1173 -0.0860  0.0985
  380MOL0     C52325   2.447   7.365   7.219 -0.5449  0.2199  0.1877
  380MOL0     O52326   2.471   7.310   7.087 -0.4165 -0.2915 -0.3652
  380MOL0     C52327   2.442   7.175   7.062  0.0041  0.2992 -0.2672
  380MOL0     C52328   2.521   7.108   6.973 -0.2650  0.0841 -0.0889
  380MOL0     C52329   2.489   6.981   6.930 -0.6844  0.5123 -0.7448
  380MOL0     C52330   2.582   6.929   6.823  1.5406  0.8131 -0.1971
  380MOL0     C52331   2.376   6.917   6.970  0.1802  0.8136 -0.7670
  380MOL0     C52332   2.344   6.773   6.941 -0.1734  0.3090  0.7018
  380MOL0     O52333   2.431   6.692   6.865  0.2402  0.3253 -0.5042
  380MOL0     C52334   2.382   6.570   6.832  0.2478  0.4092  0.1649
  380MOL0     C52335   2.252   6.536   6.787 -0.5031  0.6634  0.5782
  380MOL0     C52336   2.228   6.407   6.753  0.0220  0.6904  0.0975
  380MOL0     C52337   2.321   6.303   6.772  0.2049 -0.0799  0.3895
  380MOL0     O52338   2.280   6.173   6.769 -0.6237 -0.9446 -0.0339
  380MOL0     C52339   2.336   6.079   6.852 -0.0347 -0.3490  0.5602
  380MOL0     C52340   2.240   5.958   6.843  0.4078 -0.6299 -0.6603
  380MOL0     C52341   2.106   5.975   6.915  0.0088 -0.1573 -0.7172
  380MOL0     C52342   2.037   5.842   6.944 -0.3049 -0.5468  0.1640
  380MOL0     C52343   2.102   5.749   7.042  0.5349 -0.0453 -0.8845
  380MOL0     C52344   2.012   5.625   7.061  0.3666  0.1231  0.5841
  380MOL0     C52345   2.066   5.533   7.159 -0.3338  0.9953 -0.0293
  380MOL0     C52346   2.036   5.579   7.300 -0.4108 -0.2507 -0.4299
  380MOL0    Cl52347   1.865   5.524   7.343  0.0247  0.1223 -0.0632
  380MOL0     C52348   2.445   6.335   6.809 -0.3207  0.6255 -0.1555
  380MOL0     C52349   2.475   6.469   6.830  0.5248 -0.4489 -0.2986
  380MOL0     O52350   2.240   6.736   6.996 -0.2507 -0.1034  0.0093
  380MOL0     C52351   2.298   6.987   7.065 -0.0539  0.8031  0.7488
  380MOL0     C52352   2.329   7.116   7.110  0.4215  0.6548 -0.1323
  380MOL0     N52353   2.227   7.507   7.439  0.4704  0.0981  0.3534
  380MOL0     N52354   2.170   7.617   7.446 -0.6780 -0.9722  0.4373
  380MOL0     C52355   1.156   8.139   7.863 -0.7110  0.2374 -0.6503
  380MOL0     C52356   1.018   8.157   7.862 -0.1519  0.2614  0.2609
  380MOL0     C52357   0.582   8.079   8.015 -0.1430 -0.0087 -0.7166
  380MOL0     C52358   0.542   8.215   8.005 -0.0230  0.0440 -0.2714
  380MOL0     C52359   0.401   8.247   8.004  0.7373 -0.0068 -0.0893
  380MOL0     C52360   0.302   8.145   8.016 -1.1542 -1.0386  0.4227
  380MOL0     O52361   0.172   8.184   8.012 -0.3406 -0.8267 -0.5307
  380MOL0     C52362   0.093   8.153   7.897 -0.7682  0.4207 -0.5869
  380MOL0     C52363  -0.053   8.171   7.915 -1.1482 -0.7938 -0.5047
  380MOL0     C52364  -0.074   8.300   8.000 -0.1219  0.9556  0.6169
  380MOL0     C52365  -0.224   8.329   8.018 -0.4093 -0.2852  0.3372
  380MOL0     C52366  -0.238   8.456   8.095  0.2827 -0.7822 -0.4128
  380MOL0     C52367  -0.257   8.554   8.166  0.6647 -0.7635  0.3418
  380MOL0     C52368   0.338   8.020   8.039  0.0014  0.3960  0.3754
  380MOL0     C52369   0.475   7.982   8.037  0.1826 -0.5258 -0.0955
  380MOL0     C52370   0.507   7.843   8.070 -0.0686  0.0857 -0.0063
  380MOL0     H52371   0.937   8.018   8.158 -1.2788  0.2941 -1.7451
  380MOL0     H52372   1.194   7.989   8.163  0.1857  5.1201  2.7975
  380MOL0     H52373   1.332   7.955   7.776 -1.2482 -0.8989 -0.8645
  380MOL0     H52374   1.383   7.850   7.903  1.8575  0.0598 -3.6435
  380MOL0     H52375   1.567   8.073   7.793 -1.3051  1.1615  1.3861
  380MOL0     H52376   1.598   7.970   7.935 -2.2627 -1.4490  1.8936
  380MOL0     H52377   1.529   7.790   7.749  0.3270  0.4815  0.8816
  380MOL0     H52378   1.573   7.925   7.637 -0.0326  0.3914  0.2805
  380MOL0     H52379   1.765   7.833   7.844  1.8343  2.0671 -0.5369
  380MOL0     H52380   1.770   7.762   7.680 -0.5773 -0.3668 -1.3624
  380MOL0     H52381   1.805   8.049   7.756  1.3157 -1.2342  1.3715
  380MOL0     H52382   1.802   7.985   7.586 -1.7783  0.5342  0.0749
  380MOL0     H52383   2.031   8.024   7.673 -0.1251 -0.0352  0.4053
  380MOL0     H52384   1.998   7.907   7.805  0.3071  1.1154  0.9097
  380MOL0     H52385   1.972   7.808   7.519 -2.1086  0.4399  1.1141
  380MOL0     H52386   2.013   7.712   7.664  2.8436 -0.4926  0.2727
  380MOL0     H52387   2.223   7.902   7.533  2.3702 -1.9684 -0.8126
  380MOL0     H52388   2.223   7.848   7.692  0.4125  1.4151 -0.3773
  380MOL0     H52389   2.402   7.639   7.671 -1.3325  1.6339 -0.0117
  380MOL0     H52390   2.378   7.291   7.540  1.5673 -0.8637  2.1487
  380MOL0     H52391   2.459   7.390   7.651  0.4416 -0.2464  0.1083
  380MOL0     H52392   2.570   7.503   7.425 -0.1397  0.9146  3.1071
  380MOL0     H52393   2.648   7.373   7.495  0.3749  0.6928 -0.1716
  380MOL0     H52394   2.639   7.306   7.267 -0.3284  2.0913 -0.5069
  380MOL0     H52395   2.521   7.207   7.351  0.1184 -0.6496 -1.5693
  380MOL0     H52396   2.348   7.348   7.262  0.2812 -1.2991  1.6001
  380MOL0     H52397   2.456   7.474   7.218  1.8013  0.0788  0.2502
  380MOL0     H52398   2.611   7.156   6.937  1.0810 -0.8237  1.8986
  380MOL0     H52399   2.529   6.932   6.727 -1.0096 -0.3826  1.0632
  380MOL0     H52400   2.620   6.835   6.864 -3.1284 -1.7752 -1.0379
  380MOL0     H52401   2.670   6.991   6.807  0.9806  1.2423 -1.9093
  380MOL0     H52402   2.175   6.612   6.790  0.0460  1.2821 -0.6063
  380MOL0     H52403   2.129   6.373   6.721  0.7213 -1.0082 -0.3612
  380MOL0     H52404   2.436   6.048   6.820 -0.1835  0.9270 -1.3114
  380MOL0     H52405   2.349   6.106   6.957 -2.8729  0.6858  0.7283
  380MOL0     H52406   2.232   5.941   6.735  2.0099  0.3835 -0.9898
  380MOL0     H52407   2.294   5.878   6.894 -0.3419 -0.1458  0.9646
  380MOL0     H52408   2.049   6.042   6.850 -1.9381 -1.8771 -0.8548
  380MOL0     H52409   2.129   6.028   7.008 -1.0235 -0.8111 -0.0790
  380MOL0     H52410   2.030   5.797   6.845  0.4554  0.9413 -0.5891
  380MOL0     H52411   1.940   5.874   6.984 -0.5427  1.2161 -1.6734
  380MOL0     H52412   2.199   5.717   7.003 -0.6545 -2.3282 -2.1677
  380MOL0     H52413   2.118   5.792   7.141  0.5057 -4.1737  1.0995
  380MOL0     H52414   2.001   5.563   6.972  0.2655 -2.0010  2.0096
  380MOL0     H52415   1.909   5.655   7.080 -0.1275  1.9515 -3.8804
  380MOL0     H52416   2.175   5.530   7.156  0.1430 -1.2224  6.0005
  380MOL0     H52417   2.025   5.431   7.154  0.6614  0.3552  2.9000
  380MOL0     H52418   2.045   5.687   7.311  0.3740 -0.3132 -0.3589
  380MOL0     H52419   2.110   5.525   7.360  1.2103  1.9790 -0.2970
  380MOL0     H52420   2.515   6.256   6.832 -2.5645 -2.1005 -2.0573
  380MOL0     H52421   2.579   6.486   6.855  0.7388 -2.7733  0.5835
  380MOL0     H52422   2.212   6.935   7.106 -2.0445  1.1059 -2.7119
  380MOL0     H52423   2.274   7.183   7.175  1.5761  0.3485  1.2076
  380MOL0     H52424   1.217   8.181   7.784  0.7192 -0.9510 -0.2199
  380MOL0     H52425   0.977   8.218   7.782 -0.4671 -2.7015 -1.9950
  380MOL0     H52426   0.617   8.293   8.005 -0.8603  0.8575  0.1391
  380MOL0     H52427   0.374   8.352   8.009 -2.4473 -0.7439  4.5910
  380MOL0     H52428   0.119   8.218   7.814 -0.0218  1.7681  0.6440
  380MOL0     H52429   0.102   8.048   7.869  0.4946  0.2811  0.2718
  380MOL0     H52430  -0.086   8.080   7.965 -0.3111 -0.4423  0.7388
  380MOL0     H52431  -0.093   8.188   7.814  2.0512  0.9722 -1.6354
  380MOL0     H52432  -0.021   8.282   8.094  0.8994 -2.3415 -0.4438
  380MOL0     H52433  -0.030   8.379   7.939  2.5249 -1.2711 -0.5656
  380MOL0     H52434  -0.273   8.248   8.072 -0.1067  0.9494  2.5747
  380MOL0     H52435  -0.268   8.341   7.919 -1.3477 -2.9475  0.3500
  380MOL0     H52436  -0.263   8.651   8.211 -3.9040 -0.3445 -0.6400
  380MOL0     H52437   0.275   7.932   8.033  0.1533  0.3518 -0.8906
  380MOL0     H52438   0.577   7.836   8.154 -0.1683  2.1526  0.3016
  380MOL0     H52439   0.416   7.796   8.109 -1.9080  0.6392 -3.3093
  380MOL0     H52440   0.544   7.781   7.988  1.0875 -0.8650  1.1915
  381MOL0     O52441   2.553   3.328   9.300  0.0996 -0.3274  0.6233
  381MOL0     C52442   2.489   3.227   9.326 -0.3611  0.5834 -0.3770
  381MOL0     O52443   2.536   3.126   9.386 -0.2420  1.1620 -0.8522
  381MOL0     C52444   2.665   3.114   9.438 -0.4224 -0.5792 -1.3153
  381MOL0     C52445   2.706   3.183   9.549 -0.7490  0.3472 -0.1538
  381MOL0     C52446   2.845   3.179   9.591  0.6918  0.7747 -0.9145
  381MOL0     C52447   2.933   3.084   9.528  0.1819  0.0760 -0.4521
  381MOL0     O52448   3.066   3.069   9.573  0.6089 -0.2767  0.1955
  381MOL0     C52449   3.144   3.178   9.537 -0.5627  0.0062 -0.9168
  381MOL0     C52450   3.152   3.225   9.388  0.4574  0.7195  0.1367
  381MOL0     C52451   3.231   3.352   9.377 -0.1797 -0.1181  0.1973
  381MOL0     C52452   3.248   3.402   9.232  0.8811 -0.5439 -0.2555
  381MOL0     C52453   3.347   3.519   9.213  0.1812  0.3777  0.6854
  381MOL0     C52454   3.490   3.498   9.249 -1.1901  0.5278  0.4774
  381MOL0     C52455   3.570   3.385   9.184  0.7325 -0.8795 -0.1406
  381MOL0     C52456   3.582   3.384   9.037 -0.7771  0.8992  0.1061
  381MOL0     N52457   3.610   3.502   8.973 -0.5662  0.0493  0.1337
  381MOL0     C52458   3.726   3.577   8.999 -0.6279  0.4134  0.0708
  381MOL0     C52459   3.699   3.697   8.951  0.2112 -0.2684  0.1769
  381MOL0     C52460   3.793   3.805   8.972  0.0471  0.9466 -0.8957
  381MOL0     C52461   3.817   3.841   9.119 -0.2605 -0.1610  1.1424
  381MOL0     C52462   3.748   3.974   9.136 -0.1339 -0.0893 -0.4748
  381MOL0     C52463   3.597   3.975   9.106 -0.4497 -0.0304  0.0868
  381MOL0     O52464   3.516   4.073   9.177 -0.4171  0.1572  0.4417
  381MOL0     C52465   3.386   4.035   9.222 -0.9369 -0.0391  0.2784
  381MOL0     C52466   3.300   3.966   9.142 -0.2097 -0.0805  0.2520
  381MOL0     C52467   3.166   3.936   9.176  0.2387  0.0931  0.3194
  381MOL0     C52468   3.087   3.858   9.080  0.8809  0.1800  0.4789
  381MOL0     C52469   3.114   3.989   9.298  0.0064  1.1367  0.9227
  381MOL0     C52470   2.981   3.964   9.353  0.4315 -0.1502 -0.2842
  381MOL0     O52471   2.875   3.953   9.270  0.0826 -0.5330  0.4653
  381MOL0     C52472   2.762   3.889   9.310  0.7969  0.7913 -0.8409
  381MOL0     C52473   2.742   3.754   9.268 -0.3785  0.2748  0.7743
  381MOL0     C52474   2.616   3.694   9.289 -0.1849  0.1520 -0.1577
  381MOL0     C52475   2.509   3.758   9.363 -0.6401 -0.3954  0.7078
  381MOL0     O52476   2.385   3.701   9.371  0.0655  0.6737 -0.0521
  381MOL0     C52477   2.269   3.761   9.308 -0.3706  0.7914 -1.0381
  381MOL0     C52478   2.143   3.695   9.356  0.7801  0.0524  0.6032
  381MOL0     C52479   2.010   3.768   9.317 -0.8247  0.6802  0.4028
  381MOL0     C52480   1.888   3.689   9.360 -0.0997  0.6937  0.7753
  381MOL0     C52481   1.763   3.771   9.321 -0.3376 -0.5848  0.4310
  381MOL0     C52482   1.622   3.711   9.350  0.5055  0.0366 -0.7960
  381MOL0     C52483   1.503   3.798   9.315 -0.2710 -0.0381 -1.1455
  381MOL0     C52484   1.509   3.930   9.387  0.0329 -1.1320  0.0314
  381MOL0    Cl52485   1.352   4.001   9.365  0.2560  0.1086 -0.2793
  381MOL0     C52486   2.546   3.883   9.424 -0.4563  0.8185  0.8404
  381MOL0     C52487   2.666   3.950   9.398 -0.3082  1.5245  0.4773
  381MOL0     O52488   2.972   3.955   9.481 -0.2433  0.1105  0.0280
  381MOL0     C52489   3.209   4.051   9.388  0.3480  0.4336  0.1757
  381MOL0     C52490   3.339   4.075   9.346 -1.0375 -0.6052  0.8668
  381MOL0     N52491   3.567   3.698   8.899 -0.0057  0.7988  0.6020
  381MOL0     N52492   3.516   3.584   8.918  0.2890  0.4209 -0.1487
  381MOL0     C52493   2.875   3.000   9.432  0.1679 -1.0487 -1.1812
  381MOL0     C52494   2.744   3.012   9.388  0.1459 -0.0706 -0.5829
  381MOL0     C52495   2.355   3.212   9.265 -1.1064 -0.5737  0.2367
  381MOL0     C52496   2.307   3.327   9.202 -0.0432  0.3438 -0.4009
  381MOL0     C52497   2.182   3.327   9.136  0.9602  0.6658  0.3695
  381MOL0     C52498   2.114   3.213   9.113  0.3517  0.2247  0.4866
  381MOL0     O52499   1.996   3.194   9.053 -0.2039  0.2102 -0.0180
  381MOL0     C52500   1.946   3.293   8.963  0.4038 -1.0162 -0.2953
  381MOL0     C52501   1.794   3.281   8.960 -0.6924 -0.2470  0.6425
  381MOL0     C52502   1.715   3.385   9.037  0.1463  0.5761 -0.1767
  381MOL0     C52503   1.568   3.338   9.025 -0.1425 -0.4984 -0.0741
  381MOL0     C52504   1.471   3.430   9.093 -0.6521 -0.2055 -0.2432
  381MOL0     C52505   1.412   3.514   9.161  0.3702  0.6645 -0.0015
  381MOL0     C52506   2.165   3.092   9.171  0.5468  0.5002  0.2135
  381MOL0     C52507   2.281   3.094   9.254 -1.0743 -0.4098  0.3933
  381MOL0     C52508   2.306   2.966   9.323  0.6569  0.2486  0.0995
  381MOL0     H52509   2.646   3.268   9.580 -3.2821 -1.7350  0.9948
  381MOL0     H52510   2.894   3.239   9.667  0.4871  1.0658 -1.0097
  381MOL0     H52511   3.248   3.168   9.571 -1.6934 -1.3283  2.6134
  381MOL0     H52512   3.118   3.253   9.612 -0.4741  0.5185 -1.3951
  381MOL0     H52513   3.197   3.144   9.330 -2.2413 -1.7861  1.3107
  381MOL0     H52514   3.048   3.246   9.360  0.1369  1.0712  1.5433
  381MOL0     H52515   3.186   3.440   9.424 -2.1500 -0.0898 -1.6022
  381MOL0     H52516   3.328   3.345   9.427 -1.3802  1.7798  3.0733
  381MOL0     H52517   3.277   3.310   9.180 -1.7102 -1.5356 -0.0943
  381MOL0     H52518   3.153   3.437   9.191  0.3691 -0.5906  0.8517
  381MOL0     H52519   3.321   3.613   9.263  0.0380  0.4968  0.3851
  381MOL0     H52520   3.341   3.546   9.107  0.7511 -4.1555 -0.7238
  381MOL0     H52521   3.542   3.585   9.207 -0.0485  0.3889  1.5455
  381MOL0     H52522   3.497   3.492   9.358  0.9433 -0.8108  0.3284
  381MOL0     H52523   3.540   3.287   9.224 -1.4650  0.8510  2.9336
  381MOL0     H52524   3.664   3.400   9.237  0.5767  1.2098 -0.3961
  381MOL0     H52525   3.655   3.303   9.022 -2.2903 -0.9798  2.1061
  381MOL0     H52526   3.489   3.350   8.991 -1.5797  0.4762  1.9494
  381MOL0     H52527   3.816   3.549   9.051 -0.1444 -0.1660 -1.0596
  381MOL0     H52528   3.763   3.892   8.913 -1.0407  0.7517 -0.6460
  381MOL0     H52529   3.889   3.785   8.924  1.3354  2.0886  1.0470
  381MOL0     H52530   3.760   3.774   9.183 -1.2770 -0.8695 -0.4512
  381MOL0     H52531   3.923   3.843   9.147 -0.0987 -2.0220  0.7472
  381MOL0     H52532   3.760   3.985   9.244  0.8732 -0.1423 -0.5762
  381MOL0     H52533   3.793   4.059   9.084 -0.0293  0.5718  0.6763
  381MOL0     H52534   3.587   4.004   9.001  0.3349 -2.4708 -0.7365
  381MOL0     H52535   3.553   3.877   9.125 -0.6949 -0.3195 -1.7770
  381MOL0     H52536   3.347   3.925   9.054  1.3559  0.4049  0.8325
  381MOL0     H52537   3.060   3.928   9.000 -0.0342 -1.6949 -0.9250
  381MOL0     H52538   2.996   3.818   9.125  0.5814 -0.5061 -0.7180
  381MOL0     H52539   3.143   3.774   9.038 -2.2096 -1.7599 -0.0393
  381MOL0     H52540   2.826   3.701   9.223 -0.8034 -2.1351  2.6080
  381MOL0     H52541   2.600   3.597   9.243 -3.3162  1.3226 -1.8441
  381MOL0     H52542   2.263   3.864   9.345 -0.8767 -0.2239  1.9753
  381MOL0     H52543   2.284   3.770   9.200 -0.1747  0.8396 -1.0072
  381MOL0     H52544   2.146   3.594   9.313  2.2203 -0.8825  2.7103
  381MOL0     H52545   2.146   3.691   9.465 -3.2467  0.3163  0.8652
  381MOL0     H52546   2.006   3.771   9.207 -3.2120  2.1810  0.4516
  381MOL0     H52547   2.011   3.874   9.345 -0.8337  1.2658 -1.6179
  381MOL0     H52548   1.878   3.644   9.459 -0.9694 -3.4835 -1.0072
  381MOL0     H52549   1.880   3.603   9.293 -0.1353  1.2331  0.0647
  381MOL0     H52550   1.763   3.855   9.391  0.9936 -0.1551 -0.0653
  381MOL0     H52551   1.773   3.807   9.219  1.8372 -1.5481  0.2588
  381MOL0     H52552   1.609   3.694   9.458 -1.0609  0.6137 -0.8583
  381MOL0     H52553   1.634   3.617   9.296 -0.7092 -0.6507  0.0710
  381MOL0     H52554   1.412   3.746   9.346 -0.6709  2.6674  2.9739
  381MOL0     H52555   1.506   3.801   9.206  0.9273 -0.6725 -1.1519
  381MOL0     H52556   1.585   4.001   9.354 -0.4900  0.4600  2.0329
  381MOL0     H52557   1.538   3.910   9.491  3.2369  1.3252 -0.2182
  381MOL0     H52558   2.484   3.940   9.493  0.4200  0.9450  1.5498
  381MOL0     H52559   2.692   4.048   9.437  0.9897  1.7014 -0.7299
  381MOL0     H52560   3.192   4.077   9.492 -1.9652 -0.3009  0.0392
  381MOL0     H52561   3.407   4.120   9.418  0.6087 -0.9039 -0.4407
  381MOL0     H52562   2.943   2.933   9.381  1.5966 -0.1995 -0.4691
  381MOL0     H52563   2.708   2.951   9.305  0.2818  0.2615 -0.8870
  381MOL0     H52564   2.349   3.426   9.218 -3.2468  2.0497 -1.7501
  381MOL0     H52565   2.155   3.425   9.097  0.7857 -0.4348 -2.5620
  381MOL0     H52566   1.978   3.394   8.991 -1.1649 -0.1623 -1.4972
  381MOL0     H52567   1.979   3.264   8.863  0.7017  0.0552 -0.5240
  381MOL0     H52568   1.770   3.185   9.007  1.0451 -0.3080  1.4752
  381MOL0     H52569   1.757   3.284   8.857 -2.3919 -0.5680  1.2076
  381MOL0     H52570   1.746   3.395   9.141 -1.1403  0.8831  0.1928
  381MOL0     H52571   1.731   3.480   8.985  2.5748 -0.9542 -2.4535
  381MOL0     H52572   1.566   3.233   9.055 -1.7489 -1.8837 -4.2625
  381MOL0     H52573   1.534   3.335   8.921 -1.9285  3.1741  0.2147
  381MOL0     H52574   1.356   3.584   9.219  2.7627  2.9376 -0.2745
  381MOL0     H52575   2.104   3.002   9.166 -3.2382  2.4259  4.3812
  381MOL0     H52576   2.400   2.921   9.291 -0.0546 -1.4578  0.3018
  381MOL0     H52577   2.317   2.978   9.432  0.9377  0.3863  0.0568
  381MOL0     H52578   2.222   2.896   9.312  3.0068 -3.0950  1.6677
  382MOL0     O52579   2.566   3.655  10.516  0.1096 -0.4732 -0.1226
  382MOL0     C52580   2.518   3.753  10.579  0.5380  0.2216  0.3580
  382MOL0     O52581   2.413   3.744  10.663  0.2145 -0.0151  0.3091
  382MOL0     C52582   2.354   3.620  10.664  0.7832 -0.2408  0.3000
  382MOL0     C52583   2.236   3.600  10.588 -0.4136 -0.1532  0.1981
  382MOL0     C52584   2.159   3.484  10.606 -0.1605 -0.1118 -0.4753
  382MOL0     C52585   2.207   3.392  10.703  0.6233 -0.6920  0.7079
  382MOL0     O52586   2.120   3.296  10.751  1.0637  0.5803  0.4152
  382MOL0     C52587   2.173   3.191  10.829 -0.0768  0.2349 -0.0917
  382MOL0     C52588   2.068   3.093  10.874  0.3582  1.0781 -0.4699
  382MOL0     C52589   2.021   3.113  11.018 -0.0952 -0.1108  0.8305
  382MOL0     C52590   1.950   3.252  11.038 -0.4750  0.7598  0.0672
  382MOL0     C52591   1.941   3.281  11.192  0.8378  0.6010  0.7035
  382MOL0     C52592   2.059   3.336  11.259 -0.2852  0.1366 -0.4218
  382MOL0     C52593   2.038   3.330  11.415  0.0365  0.0574  0.1378
  382MOL0     C52594   2.124   3.428  11.498 -0.7927 -0.5558  0.3739
  382MOL0     N52595   2.107   3.416  11.642  0.1139  1.1869 -0.6557
  382MOL0     C52596   2.196   3.348  11.727  0.3193  0.5616  0.1944
  382MOL0     C52597   2.152   3.355  11.854 -0.4613  0.1293 -0.0903
  382MOL0     C52598   2.195   3.253  11.963 -0.6051 -0.4802 -0.1350
  382MOL0     C52599   2.348   3.222  11.953 -0.3418  0.3022  0.4157
  382MOL0     C52600   2.433   3.344  11.928 -0.4544  0.0394 -1.6338
  382MOL0     C52601   2.412   3.458  12.023 -0.1725 -0.0098  0.1472
  382MOL0     O52602   2.421   3.422  12.165 -0.5846  0.7615 -0.2492
  382MOL0     C52603   2.410   3.527  12.258 -0.0181  1.1730 -0.0806
  382MOL0     C52604   2.341   3.491  12.376  0.6938 -0.6470  0.7208
  382MOL0     C52605   2.320   3.593  12.479  0.6158 -0.1558 -0.5066
  382MOL0     C52606   2.240   3.563  12.605 -0.1698 -0.2176  0.5639
  382MOL0     C52607   2.366   3.728  12.453  0.2983  0.0959  0.2445
  382MOL0     C52608   2.344   3.851  12.541  0.2370  0.0013 -0.5254
  382MOL0     O52609   2.397   3.964  12.490 -0.2437  0.7343 -0.8883
  382MOL0     C52610   2.383   4.087  12.552  1.3244  0.3146  0.5537
  382MOL0     C52611   2.488   4.178  12.554 -0.5670 -0.3452 -0.0980
  382MOL0     C52612   2.476   4.308  12.611  0.3965  0.2714  0.2397
  382MOL0     C52613   2.346   4.357  12.651  1.1763 -0.1994  0.7898
  382MOL0     O52614   2.322   4.492  12.699  0.1844  0.6516  0.0467
  382MOL0     C52615   2.443   4.541  12.755 -0.3021  0.4909 -0.3163
  382MOL0     C52616   2.408   4.664  12.839 -0.5091 -0.2856 -0.5072
  382MOL0     C52617   2.310   4.644  12.949  0.0775  0.0595  0.7804
  382MOL0     C52618   2.233   4.768  12.999 -0.1949  0.1472  0.8674
  382MOL0     C52619   2.122   4.743  13.100  0.2764 -0.3261 -0.3295
  382MOL0     C52620   2.088   4.875  13.161  0.4378 -0.5090  0.2434
  382MOL0     C52621   1.962   4.864  13.248  0.1894 -0.1079  0.0138
  382MOL0     C52622   1.917   5.003  13.290 -0.2683 -0.3499 -0.1469
  382MOL0    Cl52623   2.045   5.099  13.364 -0.0276 -0.0634 -0.2554
  382MOL0     C52624   2.235   4.268  12.633 -0.4790 -0.5735 -0.1828
  382MOL0     C52625   2.253   4.136  12.593 -0.6977 -0.9573 -0.3819
  382MOL0     O52626   2.276   3.847  12.647  0.5477 -0.4328  0.1760
  382MOL0     C52627   2.437   3.743  12.339 -0.6738 -0.8183 -0.3987
  382MOL0     C52628   2.463   3.648  12.239 -0.1706 -0.1702 -0.9376
  382MOL0     N52629   2.038   3.439  11.853 -0.6103 -0.0771 -0.2535
  382MOL0     N52630   2.012   3.464  11.725 -0.2610 -0.1673 -0.5872
  382MOL0     C52631   2.328   3.412  10.765 -0.1980 -0.6528 -0.5059
  382MOL0     C52632   2.407   3.524  10.753  0.1847  0.7680  1.2128
  382MOL0     C52633   2.582   3.888  10.551  0.7110  0.2532  0.4634
  382MOL0     C52634   2.507   4.001  10.582  0.7835 -0.7309 -1.2987
  382MOL0     C52635   2.553   4.132  10.562 -0.5727  0.0616  0.0446
  382MOL0     C52636   2.682   4.151  10.509 -0.2901  0.2654  0.0017
  382MOL0     O52637   2.721   4.279  10.487 -0.0437 -0.6514 -0.6573
  382MOL0     C52638   2.860   4.303  10.462  0.2182  0.2125  0.0519
  382MOL0     C52639   2.897   4.447  10.477  0.1794  0.5792 -1.4152
  382MOL0     C52640   2.789   4.534  10.391 -0.8055  0.0174 -0.0015
  382MOL0     C52641   2.810   4.505  10.235  1.0552 -0.1700 -0.6844
  382MOL0     C52642   2.772   4.618  10.159  0.7645 -0.3111  0.0443
  382MOL0     C52643   2.741   4.694  10.071 -1.3731 -0.1901  0.1675
  382MOL0     C52644   2.759   4.038  10.479 -0.4571  0.9835  1.5699
  382MOL0     C52645   2.718   3.902  10.509 -0.3405 -0.4667 -0.2567
  382MOL0     C52646   2.821   3.787  10.504 -0.4133 -0.6115  0.3535
  382MOL0     H52647   2.219   3.671  10.508 -0.1298 -0.0299  0.2432
  382MOL0     H52648   2.070   3.458  10.549 -1.3015  1.7288  0.3681
  382MOL0     H52649   2.212   3.243  10.918  2.1399  0.0240 -0.8834
  382MOL0     H52650   2.242   3.134  10.766 -0.7667 -0.0291 -0.6257
  382MOL0     H52651   1.983   3.092  10.805 -0.4275  1.0182  0.4805
  382MOL0     H52652   2.106   2.991  10.864  0.9484  1.0122  1.8951
  382MOL0     H52653   1.958   3.027  11.042  0.1944 -0.1616  1.4267
  382MOL0     H52654   2.111   3.110  11.081 -0.6055 -1.9346  1.5475
  382MOL0     H52655   1.998   3.333  10.983  0.5985 -1.1676 -2.0154
  382MOL0     H52656   1.850   3.238  10.996 -0.5623  0.2811  0.4172
  382MOL0     H52657   1.902   3.189  11.237 -2.2279  0.7971 -1.2580
  382MOL0     H52658   1.863   3.356  11.202 -1.5936 -1.9122  2.1312
  382MOL0     H52659   2.147   3.278  11.230 -0.4413 -1.5172  2.1122
  382MOL0     H52660   2.079   3.442  11.237 -1.0770  0.3027 -0.3484
  382MOL0     H52661   2.057   3.229  11.452 -3.5203  0.3232  3.1847
  382MOL0     H52662   1.930   3.339  11.430 -0.9296 -4.0863 -2.5791
  382MOL0     H52663   2.230   3.415  11.475 -1.3543 -0.9084 -2.2882
  382MOL0     H52664   2.100   3.527  11.459  0.9309 -1.0555 -2.1536
  382MOL0     H52665   2.281   3.287  11.698  0.4707  0.7697  0.1982
  382MOL0     H52666   2.141   3.162  11.936 -3.1286  1.1738 -1.0385
  382MOL0     H52667   2.167   3.288  12.063 -0.0061 -0.0873 -0.0946
  382MOL0     H52668   2.384   3.184  12.049 -0.7880  4.4319  2.4287
  382MOL0     H52669   2.368   3.152  11.871 -3.0485 -0.3202  0.1932
  382MOL0     H52670   2.540   3.327  11.943 -0.8622 -1.9155 -0.6780
  382MOL0     H52671   2.437   3.384  11.826 -1.2996 -0.2655 -1.7920
  382MOL0     H52672   2.482   3.537  11.994 -0.7613 -0.8997 -4.4200
  382MOL0     H52673   2.312   3.496  11.998 -0.2767 -1.3878 -1.7296
  382MOL0     H52674   2.288   3.397  12.387 -0.7170 -0.1484 -1.3482
  382MOL0     H52675   2.234   3.454  12.606 -1.0172 -0.2894 -2.2621
  382MOL0     H52676   2.141   3.611  12.601  0.0343  0.1348 -0.4371
  382MOL0     H52677   2.299   3.586  12.694  0.5338 -1.4310  0.4299
  382MOL0     H52678   2.587   4.153  12.517  0.3771 -0.4162  2.3084
  382MOL0     H52679   2.570   4.361  12.616  0.7416  0.0266 -2.3301
  382MOL0     H52680   2.505   4.462  12.798  0.8692  0.2256 -2.3571
  382MOL0     H52681   2.499   4.587  12.673  0.0615  0.9668  0.1914
  382MOL0     H52682   2.500   4.694  12.890 -1.7394  0.1149  1.5641
  382MOL0     H52683   2.382   4.736  12.760  1.3027  0.5891 -0.3671
  382MOL0     H52684   2.364   4.596  13.032  0.7618 -2.0725 -0.7935
  382MOL0     H52685   2.229   4.575  12.924 -0.3450  0.3234  1.3945
  382MOL0     H52686   2.193   4.818  12.911 -1.8389 -1.3011  0.7473
  382MOL0     H52687   2.301   4.845  13.035 -0.9647  1.0298  0.4551
  382MOL0     H52688   2.029   4.693  13.072  1.5510 -3.5683  0.7508
  382MOL0     H52689   2.172   4.686  13.178  2.6865  4.2830  1.9438
  382MOL0     H52690   2.071   4.942  13.076  2.2295 -0.6809 -0.2885
  382MOL0     H52691   2.174   4.907  13.219  2.0179  0.3954 -2.4485
  382MOL0     H52692   1.983   4.808  13.339 -2.3349  0.2119  0.8449
  382MOL0     H52693   1.875   4.816  13.204 -2.3997  1.9346  2.5482
  382MOL0     H52694   1.832   4.999  13.358 -3.2101  0.7364 -3.4752
  382MOL0     H52695   1.884   5.052  13.198  0.4055 -3.4598 -2.1836
  382MOL0     H52696   2.132   4.300  12.641 -0.4230 -0.1509 -1.0961
  382MOL0     H52697   2.180   4.055  12.590 -1.2216 -0.5010 -0.0030
  382MOL0     H52698   2.489   3.837  12.325  0.4861 -1.4155 -0.2709
  382MOL0     H52699   2.526   3.688  12.160 -0.7934  2.7961 -0.0665
  382MOL0     H52700   2.366   3.337  10.834 -0.0108  1.7298  2.1957
  382MOL0     H52701   2.496   3.545  10.812  0.4318  0.4001  0.9701
  382MOL0     H52702   2.409   3.984  10.626  1.5558  1.2774  1.5128
  382MOL0     H52703   2.490   4.214  10.595 -5.2420 -2.2361 -2.1415
  382MOL0     H52704   2.926   4.252  10.533  2.9181  1.7186 -1.2088
  382MOL0     H52705   2.885   4.268  10.361 -1.7788  0.1658 -0.4692
  382MOL0     H52706   3.002   4.454  10.449  0.1703  0.1171 -1.5781
  382MOL0     H52707   2.894   4.473  10.583  0.9661 -2.1006 -0.6478
  382MOL0     H52708   2.689   4.508  10.427 -0.1384 -1.1294  1.1116
  382MOL0     H52709   2.816   4.637  10.415 -2.6266  0.6571 -0.4966
  382MOL0     H52710   2.745   4.421  10.209 -2.8860  1.4713  2.6645
  382MOL0     H52711   2.910   4.465  10.213  1.3387  0.1422 -0.0058
  382MOL0     H52712   2.710   4.763   9.996  3.4315  0.0301 -1.9848
  382MOL0     H52713   2.854   4.059  10.432 -1.8290 -1.0760 -2.5853
  382MOL0     H52714   2.925   3.818  10.490 -0.9478  1.8984  1.3405
  382MOL0     H52715   2.822   3.737  10.602 -0.4132  0.0093  0.6758
  382MOL0     H52716   2.801   3.704  10.435 -0.6547 -0.5933  0.4003
  383MOL0     O52717   5.946   3.023   3.800  0.2384  0.0397  0.7016
  383MOL0     C52718   5.984   2.964   3.904  0.1072  0.0548  0.0064
  383MOL0     O52719   6.030   2.832   3.916  1.0758  0.0064  0.4041
  383MOL0     C52720   6.027   2.766   3.796 -0.9556  0.6245  0.0091
  383MOL0     C52721   5.924   2.672   3.773 -0.3515 -0.3420 -0.5012
  383MOL0     C52722   5.943   2.585   3.666 -0.0685 -0.5806  0.1780
  383MOL0     C52723   6.051   2.578   3.587  0.0546 -0.0542 -0.3370
  383MOL0     O52724   6.079   2.472   3.507 -1.0741 -1.2114  0.0345
  383MOL0     C52725   6.187   2.395   3.548  0.1741 -0.6033 -0.2219
  383MOL0     C52726   6.204   2.272   3.450 -0.0073  1.6251  0.1858
  383MOL0     C52727   6.081   2.193   3.418 -0.2559  0.2309  0.6139
  383MOL0     C52728   6.022   2.125   3.541  0.0554  0.4413  0.4425
  383MOL0     C52729   5.898   2.037   3.498 -0.1273  0.1899 -0.0403
  383MOL0     C52730   5.832   1.956   3.615  1.0174  0.7111  0.2923
  383MOL0     C52731   5.706   1.866   3.583 -0.1593  0.7093 -0.5140
  383MOL0     C52732   5.580   1.948   3.541 -0.4362 -0.3763  0.0763
  383MOL0     N52733   5.528   2.047   3.644  0.0162  0.3693 -0.4074
  383MOL0     C52734   5.542   2.187   3.644 -0.6118 -0.0734 -0.1952
  383MOL0     C52735   5.470   2.228   3.752 -0.4449  0.0129 -0.3352
  383MOL0     C52736   5.451   2.369   3.808 -0.2275  0.4806 -0.4846
  383MOL0     C52737   5.522   2.384   3.946  0.4795 -0.2557  0.2483
  383MOL0     C52738   5.668   2.388   3.929  0.7279  0.5241 -0.6970
  383MOL0     C52739   5.736   2.413   4.061 -0.3221 -0.3103 -0.0746
  383MOL0     O52740   5.710   2.545   4.110  0.5426 -0.2772  0.1665
  383MOL0     C52741   5.759   2.576   4.232 -0.9080 -0.1944 -0.2601
  383MOL0     C52742   5.804   2.709   4.250 -0.3105  0.1193 -0.2829
  383MOL0     C52743   5.851   2.755   4.372  0.5704  0.1561  0.3221
  383MOL0     C52744   5.888   2.902   4.375 -0.5514 -0.1010  0.8932
  383MOL0     C52745   5.865   2.657   4.475 -0.3719  0.3164 -0.3966
  383MOL0     C52746   5.926   2.696   4.611 -0.0620 -0.0962  0.3013
  383MOL0     O52747   6.009   2.809   4.626 -1.2098  0.1411  0.9353
  383MOL0     C52748   6.043   2.869   4.741 -0.1728  0.8172 -0.9430
  383MOL0     C52749   6.166   2.859   4.797 -0.6241 -0.5057  0.2221
  383MOL0     C52750   6.207   2.922   4.915 -0.0150  0.3040  0.3741
  383MOL0     C52751   6.107   2.991   4.991 -0.0545 -0.8671  0.7468
  383MOL0     O52752   6.142   3.046   5.107 -0.3960  0.2965  0.0707
  383MOL0     C52753   6.162   2.951   5.213  0.5884 -0.0022 -0.4906
  383MOL0     C52754   6.171   3.029   5.341  0.2450  0.4970 -0.2085
  383MOL0     C52755   6.042   3.106   5.393 -0.7725 -0.0660  0.2068
  383MOL0     C52756   5.957   3.011   5.479  0.6586 -0.5195  0.4009
  383MOL0     C52757   5.814   3.040   5.473  0.4672  0.8409  0.4937
  383MOL0     C52758   5.730   2.924   5.533 -0.4520 -0.0110  0.0163
  383MOL0     C52759   5.736   2.884   5.679 -0.7608  1.1911  0.2636
  383MOL0     C52760   5.649   2.983   5.757  0.1749 -0.4846  0.4294
  383MOL0    Cl52761   5.605   2.911   5.919  0.3210  0.3123  0.2241
  383MOL0     C52762   5.982   2.996   4.934 -0.3808 -0.8796 -0.7135
  383MOL0     C52763   5.951   2.941   4.805  0.3632  0.2076 -0.2244
  383MOL0     O52764   5.894   2.616   4.701 -0.6953 -0.0602 -0.0992
  383MOL0     C52765   5.825   2.525   4.457 -0.2087  0.5953 -0.5574
  383MOL0     C52766   5.768   2.482   4.335  0.8223  0.0783  0.2763
  383MOL0     N52767   5.409   2.125   3.814  0.1752 -0.3665 -0.2674
  383MOL0     N52768   5.440   2.018   3.742  0.0035 -0.5046 -0.5453
  383MOL0     C52769   6.148   2.681   3.609 -0.1011  0.0802  0.6201
  383MOL0     C52770   6.134   2.776   3.708  0.0367 -0.2055 -0.0093
  383MOL0     C52771   5.976   3.046   4.022 -0.1185 -0.6833 -0.1340
  383MOL0     C52772   6.078   3.047   4.113  0.0056 -0.3034  0.1652
  383MOL0     C52773   6.080   3.124   4.231 -0.2648  0.1961  0.1793
  383MOL0     C52774   5.977   3.218   4.254  0.2931 -0.5554  0.1515
  383MOL0     O52775   5.969   3.289   4.368 -0.2854  0.0062 -0.6335
  383MOL0     C52776   6.048   3.265   4.480 -0.8025  0.4587 -0.6487
  383MOL0     C52777   6.001   3.357   4.589  0.5622 -0.7528 -0.0113
  383MOL0     C52778   6.088   3.347   4.720 -0.4117  0.5556  0.2001
  383MOL0     C52779   6.026   3.451   4.820 -0.3535  0.4848  0.4391
  383MOL0     C52780   6.096   3.415   4.945 -0.5741 -0.2319 -0.7523
  383MOL0     C52781   6.140   3.372   5.052  0.0893  0.0739  0.8239
  383MOL0     C52782   5.872   3.216   4.167 -0.6653  0.0426 -0.4975
  383MOL0     C52783   5.866   3.137   4.054  0.6161 -0.5962  0.0323
  383MOL0     C52784   5.736   3.147   3.981  0.4252  0.0985  0.6633
  383MOL0     H52785   5.835   2.660   3.835  0.2644 -0.2885  0.4242
  383MOL0     H52786   5.876   2.500   3.658  0.5933 -1.1520  0.6309
  383MOL0     H52787   6.175   2.366   3.653  2.0088 -1.0170 -0.0882
  383MOL0     H52788   6.280   2.453   3.544 -0.4646  0.7535  2.3339
  383MOL0     H52789   6.243   2.306   3.354 -0.3131 -1.0671 -0.9936
  383MOL0     H52790   6.286   2.209   3.486  1.0348 -0.2298 -4.6237
  383MOL0     H52791   6.008   2.258   3.370  0.6522 -0.8320 -2.4032
  383MOL0     H52792   6.096   2.119   3.339 -2.0132  2.2203 -1.7241
  383MOL0     H52793   6.092   2.059   3.593 -0.1407  0.4924  0.7763
  383MOL0     H52794   5.985   2.192   3.619  1.5811  1.3166  0.4499
  383MOL0     H52795   5.932   1.964   3.424 -2.2297 -3.2499  2.0734
  383MOL0     H52796   5.829   2.109   3.452  0.3768  2.0468  1.9375
  383MOL0     H52797   5.912   1.888   3.647 -0.1370 -1.6459 -1.5098
  383MOL0     H52798   5.796   2.019   3.697 -2.0392  2.7834 -2.3732
  383MOL0     H52799   5.677   1.832   3.683  0.9614  0.0818 -0.3875
  383MOL0     H52800   5.727   1.782   3.516 -0.0983 -0.6928  1.2053
  383MOL0     H52801   5.599   1.994   3.443 -3.6778 -2.9275 -1.9703
  383MOL0     H52802   5.501   1.872   3.533  0.2521 -1.0525 -0.4649
  383MOL0     H52803   5.605   2.248   3.581 -0.0456 -1.6367 -1.2029
  383MOL0     H52804   5.344   2.389   3.820  0.3107  3.0039  0.8329
  383MOL0     H52805   5.480   2.442   3.732 -0.0213 -1.5190 -2.4288
  383MOL0     H52806   5.489   2.476   3.994 -0.7196 -0.1059 -0.8095
  383MOL0     H52807   5.489   2.300   4.007 -2.3385 -0.9694 -2.0276
  383MOL0     H52808   5.709   2.290   3.905 -1.4464 -0.6408  0.1525
  383MOL0     H52809   5.700   2.454   3.847 -0.2361  4.6725  1.9265
  383MOL0     H52810   5.694   2.331   4.120 -0.7350 -0.0304  0.0206
  383MOL0     H52811   5.842   2.396   4.038 -0.5864 -0.5265 -1.1967
  383MOL0     H52812   5.796   2.773   4.163  2.2599 -0.0276 -0.7068
  383MOL0     H52813   5.818   2.954   4.309 -0.7416 -2.4268 -0.8674
  383MOL0     H52814   5.993   2.925   4.355  0.9103 -5.0014  1.5501
  383MOL0     H52815   5.861   2.939   4.474 -3.4794 -0.3902  0.2939
  383MOL0     H52816   6.234   2.789   4.750 -0.3838 -0.6111  0.7112
  383MOL0     H52817   6.305   2.920   4.962  0.4747  1.5950 -0.5526
  383MOL0     H52818   6.088   2.870   5.209  2.0515 -1.6333  2.2964
  383MOL0     H52819   6.254   2.894   5.196 -0.2163 -1.5188  0.0065
  383MOL0     H52820   6.206   2.975   5.430 -0.3828  2.8265  1.5844
  383MOL0     H52821   6.252   3.101   5.327  4.4830 -3.5314  0.9442
  383MOL0     H52822   5.970   3.137   5.317 -0.6783  1.2801  0.6411
  383MOL0     H52823   6.068   3.201   5.441  0.4375 -1.0066  1.4759
  383MOL0     H52824   5.992   3.022   5.582  1.6785  2.2560 -0.1643
  383MOL0     H52825   5.966   2.909   5.441  1.2160 -0.3054 -0.0614
  383MOL0     H52826   5.794   3.136   5.520  1.1967  2.2534 -1.9208
  383MOL0     H52827   5.786   3.049   5.368  0.2784 -0.2411  0.4322
  383MOL0     H52828   5.751   2.834   5.474  0.0139 -1.1972  1.8698
  383MOL0     H52829   5.630   2.957   5.505  1.3528  4.0617 -2.4576
  383MOL0     H52830   5.843   2.879   5.700 -0.7269  0.5261 -0.0572
  383MOL0     H52831   5.688   2.786   5.683  2.4206 -0.6591 -2.2290
  383MOL0     H52832   5.552   2.988   5.708  1.6429  0.3269 -2.6693
  383MOL0     H52833   5.694   3.083   5.755 -1.6977  0.3839 -1.3148
  383MOL0     H52834   5.890   3.030   4.980  0.1119  2.1894 -1.7531
  383MOL0     H52835   5.852   2.946   4.760 -0.3252 -0.0370  1.2118
  383MOL0     H52836   5.834   2.451   4.536  0.5469  1.4853  0.2133
  383MOL0     H52837   5.737   2.379   4.324 -3.3977  1.2218 -0.3969
  383MOL0     H52838   6.242   2.679   3.554 -1.2808 -1.0719 -1.4997
  383MOL0     H52839   6.196   2.861   3.733  0.8086 -0.7595 -0.0295
  383MOL0     H52840   6.166   2.986   4.092  0.6977  1.6894 -3.7596
  383MOL0     H52841   6.161   3.113   4.303  2.0751 -0.5227 -2.3993
  383MOL0     H52842   6.049   3.162   4.518  1.2915  1.5922  2.7746
  383MOL0     H52843   6.155   3.276   4.462 -0.0849  3.8042  3.9115
  383MOL0     H52844   5.892   3.353   4.596  0.2953  2.7442 -0.2772
  383MOL0     H52845   6.019   3.453   4.540  0.1106 -0.4207  0.4556
  383MOL0     H52846   6.081   3.244   4.756  0.1729  0.2878 -0.4276
  383MOL0     H52847   6.197   3.354   4.706  0.0448 -2.0120  1.7616
  383MOL0     H52848   5.918   3.434   4.822 -0.0109 -2.0836  0.7550
  383MOL0     H52849   6.053   3.554   4.798  1.5106 -0.6443 -3.4232
  383MOL0     H52850   6.199   3.348   5.138 -1.0264 -0.3216  1.4962
  383MOL0     H52851   5.791   3.283   4.197  0.5032  1.3439 -0.1170
  383MOL0     H52852   5.740   3.225   3.904 -3.1133 -0.2721 -0.0946
  383MOL0     H52853   5.710   3.060   3.920 -3.6479  1.6945 -0.2066
  383MOL0     H52854   5.655   3.160   4.054 -1.8942 -4.0098 -0.8470
  384MOL0     O52855   9.692   5.550   1.921 -0.5328 -0.1763 -0.2970
  384MOL0     C52856   9.628   5.541   1.814 -0.3679  0.1602 -0.2089
  384MOL0     O52857   9.549   5.442   1.781 -0.2114  0.3519  0.1222
  384MOL0     C52858   9.507   5.354   1.873 -0.5646  0.0650 -0.9479
  384MOL0     C52859   9.512   5.221   1.847 -0.8630  0.0869 -0.3772
  384MOL0     C52860   9.458   5.130   1.934 -0.6248 -1.0446 -0.6352
  384MOL0     C52861   9.404   5.179   2.050  1.2726  0.0767  0.4332
  384MOL0     O52862   9.348   5.083   2.132 -0.2619 -0.0569 -0.2638
  384MOL0     C52863   9.215   5.093   2.176 -0.3419 -0.3153 -1.4929
  384MOL0     C52864   9.118   5.100   2.063 -0.1444 -0.4237  0.3101
  384MOL0     C52865   9.066   4.958   2.026 -0.8524  1.3433 -0.2137
  384MOL0     C52866   9.167   4.901   1.927  0.5152  0.4494  0.2097
  384MOL0     C52867   9.237   4.779   1.983  0.6247 -0.1508 -0.1744
  384MOL0     C52868   9.337   4.717   1.892 -0.4860 -0.3020 -0.0569
  384MOL0     C52869   9.391   4.592   1.950 -0.0768  0.9227 -1.3057
  384MOL0     C52870   9.503   4.618   2.045 -0.6471  0.3962  0.9293
  384MOL0     N52871   9.610   4.705   1.996 -0.3018 -1.0489 -0.3705
  384MOL0     C52872   9.639   4.834   2.038 -0.6980 -0.5100  0.0967
  384MOL0     C52873   9.746   4.882   1.966  0.1146 -0.4501  0.5614
  384MOL0     C52874   9.802   5.017   1.992  0.4479  0.4033 -0.3225
  384MOL0     C52875   9.858   5.071   1.862 -0.0642 -0.2679  1.1699
  384MOL0     C52876   9.879   5.222   1.872 -0.5401 -0.5036 -0.0811
  384MOL0     C52877   9.882   5.297   1.731  0.4133  0.0451 -0.2832
  384MOL0     O52878   9.774   5.247   1.651  0.3347 -0.1892 -0.5497
  384MOL0     C52879   9.735   5.306   1.532  0.6368 -0.4142  0.3449
  384MOL0     C52880   9.620   5.264   1.470 -0.4595  0.8614 -0.9417
  384MOL0     C52881   9.561   5.325   1.359  0.0144 -0.4048 -0.1692
  384MOL0     C52882   9.433   5.267   1.315 -0.0111  0.1180 -0.2214
  384MOL0     C52883   9.628   5.420   1.286 -0.4720  0.0206 -0.3071
  384MOL0     C52884   9.583   5.480   1.157  0.2994 -0.7889  0.7479
  384MOL0     O52885   9.522   5.401   1.066 -0.0768 -0.4986 -0.3093
  384MOL0     C52886   9.480   5.455   0.944  0.5272  0.2042  0.3231
  384MOL0     C52887   9.375   5.379   0.892 -1.3217  1.0492  0.6211
  384MOL0     C52888   9.335   5.396   0.757  0.0591  0.5435 -0.3772
  384MOL0     C52889   9.383   5.504   0.686 -0.4324 -1.2010  0.5297
  384MOL0     O52890   9.332   5.545   0.562  0.6591  0.6113  0.7767
  384MOL0     C52891   9.211   5.479   0.503  0.0773 -0.3869  0.2895
  384MOL0     C52892   9.081   5.517   0.586 -0.4699  0.6150 -0.1801
  384MOL0     C52893   9.034   5.668   0.571  0.3209  0.8248 -0.2090
  384MOL0     C52894   9.136   5.769   0.618  0.3851 -0.2351 -0.2153
  384MOL0     C52895   9.136   5.760   0.771 -0.0499 -0.4183  0.3579
  384MOL0     C52896   9.207   5.884   0.815 -0.3105 -0.4365 -0.3212
  384MOL0     C52897   9.273   5.870   0.960  0.2226 -0.1667  0.1380
  384MOL0     C52898   9.289   6.003   1.039  0.8233 -0.2063  0.3108
  384MOL0    Cl52899   9.342   5.953   1.208 -0.0101 -0.4152  0.0403
  384MOL0     C52900   9.475   5.590   0.738 -1.0348 -0.4847  0.6478
  384MOL0     C52901   9.540   5.552   0.861 -0.6993  0.7509 -0.6250
  384MOL0     O52902   9.605   5.600   1.128 -1.2844 -0.1463 -0.4122
  384MOL0     C52903   9.760   5.456   1.338  0.0303 -0.2168 -0.5354
  384MOL0     C52904   9.803   5.413   1.467  0.7184 -0.4762 -0.1836
  384MOL0     N52905   9.784   4.777   1.888 -0.2737 -0.7161 -0.2409
  384MOL0     N52906   9.708   4.675   1.911  0.3678 -0.5907 -0.4180
  384MOL0     C52907   9.400   5.319   2.077  0.7884  0.1973  1.1132
  384MOL0     C52908   9.460   5.405   1.992  1.1210  0.4102 -0.2951
  384MOL0     C52909   9.676   5.639   1.710 -0.7084 -0.7334 -0.2771
  384MOL0     C52910   9.811   5.677   1.713 -1.1456 -0.5260  0.3871
  384MOL0     C52911   9.859   5.769   1.611 -0.2698  0.1586 -0.7394
  384MOL0     C52912   9.773   5.823   1.510 -0.2773 -0.2052 -0.3337
  384MOL0     O52913   9.799   5.923   1.418 -0.2347  0.5281  1.3562
  384MOL0     C52914   9.930   5.940   1.361 -0.8400  0.7830  0.0977
  384MOL0     C52915   9.937   6.069   1.279 -0.1757  0.3837  0.4954
  384MOL0     C52916  10.083   6.093   1.240  0.3283 -0.4325  0.1021
  384MOL0     C52917  10.088   6.185   1.119 -0.5239  0.6216 -0.3399
  384MOL0     C52918  10.219   6.253   1.107  0.4273  0.4033 -0.3275
  384MOL0     C52919  10.335   6.277   1.085 -0.5929  0.2129 -0.4516
  384MOL0     C52920   9.644   5.777   1.500  0.0884 -0.7884  0.1707
  384MOL0     C52921   9.599   5.686   1.598  0.9424 -0.5458  0.1263
  384MOL0     C52922   9.456   5.638   1.564  0.6565  0.6635 -0.8755
  384MOL0     H52923   9.570   5.194   1.759  0.3965  2.1562 -0.2525
  384MOL0     H52924   9.450   5.027   1.902 -1.6292 -0.8681 -0.9994
  384MOL0     H52925   9.204   5.174   2.248 -3.8958 -1.9932  0.0962
  384MOL0     H52926   9.183   5.012   2.243 -4.1886  2.3775  0.2288
  384MOL0     H52927   9.028   5.148   2.101 -2.1389 -3.7586  0.1670
  384MOL0     H52928   9.152   5.156   1.975 -1.2115  1.6210  1.1353
  384MOL0     H52929   9.064   4.895   2.115  1.2944  0.2158 -0.8808
  384MOL0     H52930   8.967   4.964   1.980 -0.5492  1.3111 -0.8843
  384MOL0     H52931   9.110   4.875   1.837  0.8324  0.6415 -0.0523
  384MOL0     H52932   9.247   4.969   1.896  0.8473 -1.3247 -3.3429
  384MOL0     H52933   9.158   4.704   1.997  0.4823  0.3170  1.9261
  384MOL0     H52934   9.273   4.788   2.086  1.9234  1.2989 -0.7202
  384MOL0     H52935   9.284   4.707   1.796 -0.3905  1.3784 -0.3154
  384MOL0     H52936   9.412   4.793   1.868  0.1546  0.5784  4.0941
  384MOL0     H52937   9.443   4.536   1.872  0.1230 -0.9124  0.0869
  384MOL0     H52938   9.320   4.527   2.002 -0.0522  0.8596 -1.3511
  384MOL0     H52939   9.458   4.662   2.135 -0.5317  1.2122  0.5979
  384MOL0     H52940   9.546   4.522   2.072 -0.3649  0.4111  0.5391
  384MOL0     H52941   9.577   4.884   2.112 -2.9750 -0.1610 -1.9065
  384MOL0     H52942   9.888   5.004   2.059  2.8019 -0.0673 -3.2377
  384MOL0     H52943   9.720   5.080   2.028 -2.2519 -2.1584 -1.5830
  384MOL0     H52944   9.955   5.033   1.829 -0.8046  0.6124 -2.4116
  384MOL0     H52945   9.782   5.039   1.790 -1.5397 -0.5264  2.7707
  384MOL0     H52946   9.813   5.272   1.943 -0.0965  0.8234 -0.5680
  384MOL0     H52947   9.981   5.242   1.907 -1.3816 -0.9965  2.8829
  384MOL0     H52948   9.882   5.405   1.742 -2.3689 -0.0110  0.9598
  384MOL0     H52949   9.978   5.283   1.679  1.6627  0.8235  1.6830
  384MOL0     H52950   9.560   5.191   1.522  2.5940 -2.2068 -1.4272
  384MOL0     H52951   9.372   5.334   1.254  0.8740  0.4511 -0.7649
  384MOL0     H52952   9.376   5.249   1.406 -3.3124  0.0073 -2.1310
  384MOL0     H52953   9.437   5.169   1.265  1.0574  0.9087 -1.7880
  384MOL0     H52954   9.331   5.313   0.966 -2.6878  4.8360  3.5332
  384MOL0     H52955   9.259   5.326   0.722  0.8844 -1.1390  1.0650
  384MOL0     H52956   9.188   5.505   0.399 -0.4057  0.5565  0.6244
  384MOL0     H52957   9.231   5.372   0.498  3.0612  0.0949 -0.7820
  384MOL0     H52958   8.997   5.466   0.538  0.8260  0.2749 -2.1826
  384MOL0     H52959   9.068   5.483   0.689  0.1202  0.3723 -0.1810
  384MOL0     H52960   8.941   5.691   0.624 -0.6140  1.9708 -2.2195
  384MOL0     H52961   9.019   5.686   0.464  1.0927 -1.3923 -0.7356
  384MOL0     H52962   9.105   5.868   0.583 -0.3567 -1.2746 -2.7048
  384MOL0     H52963   9.240   5.756   0.590  0.9769 -0.6327  1.9677
  384MOL0     H52964   9.035   5.754   0.813 -0.3293  0.2344 -0.1953
  384MOL0     H52965   9.204   5.683   0.808 -0.1135 -0.4541  0.4011
  384MOL0     H52966   9.135   5.966   0.810  0.0701  0.2574  2.8592
  384MOL0     H52967   9.290   5.909   0.749 -0.4977  0.2055 -0.3164
  384MOL0     H52968   9.368   5.816   0.954 -0.7391 -1.7552 -3.4795
  384MOL0     H52969   9.210   5.799   1.014  4.4416 -2.9254  1.9661
  384MOL0     H52970   9.197   6.061   1.033  0.8179 -0.1302  1.0006
  384MOL0     H52971   9.375   6.058   0.999 -0.8632  0.4879 -2.6202
  384MOL0     H52972   9.509   5.681   0.689  1.3023 -0.4156  2.2164
  384MOL0     H52973   9.620   5.614   0.901 -0.0897 -0.6438  0.3804
  384MOL0     H52974   9.823   5.534   1.297  1.1919 -0.4456  0.7631
  384MOL0     H52975   9.898   5.442   1.511  0.9801 -0.3345 -0.8284
  384MOL0     H52976   9.363   5.356   2.172  3.2103  1.7194  1.5718
  384MOL0     H52977   9.442   5.511   2.008 -0.2430 -0.0154  1.2392
  384MOL0     H52978   9.873   5.628   1.786 -0.7009 -0.7274 -0.1203
  384MOL0     H52979   9.964   5.795   1.608 -0.1494 -0.3416 -1.0531
  384MOL0     H52980  10.008   5.940   1.437 -0.8330  4.3011  0.2509
  384MOL0     H52981   9.937   5.857   1.290  0.2925 -0.5854  1.7419
  384MOL0     H52982   9.901   6.152   1.340  2.9536  2.3256 -0.0571
  384MOL0     H52983   9.873   6.065   1.190  0.3093 -1.7708  0.1914
  384MOL0     H52984  10.149   6.137   1.317  2.4927 -0.8388 -1.4388
  384MOL0     H52985  10.126   5.995   1.218 -0.3040 -0.4378 -1.1930
  384MOL0     H52986  10.017   6.268   1.122  0.6607  1.6518  0.1660
  384MOL0     H52987  10.065   6.125   1.031  0.2804  1.5274 -1.1942
  384MOL0     H52988  10.437   6.310   1.086 -0.0346 -1.3660 -1.7521
  384MOL0     H52989   9.581   5.807   1.416  0.7147 -1.7191 -0.6528
  384MOL0     H52990   9.466   5.529   1.554  2.4491  0.7276 -0.2157
  384MOL0     H52991   9.386   5.661   1.645  1.6090  2.1929 -0.4416
  384MOL0     H52992   9.414   5.676   1.471 -1.1935 -0.7207 -0.6698
  385MOL0     O52993   4.735   9.438   9.452  0.1340  0.9934 -0.2226
  385MOL0     C52994   4.703   9.393   9.568 -0.1446 -0.6954  1.4211
  385MOL0     O52995   4.774   9.299   9.637  0.5513  0.6442  0.4277
  385MOL0     C52996   4.884   9.255   9.579  0.5610 -0.5300 -0.9811
  385MOL0     C52997   5.004   9.290   9.634 -0.6626  0.0297 -0.5216
  385MOL0     C52998   5.131   9.277   9.570  0.3837  0.6154  1.0757
  385MOL0     C52999   5.126   9.195   9.450 -0.3794  0.8430 -0.7388
  385MOL0     O53000   5.237   9.152   9.379 -0.3512 -0.0283  0.0961
  385MOL0     C53001   5.362   9.155   9.450  0.2204 -0.1460 -0.1307
  385MOL0     C53002   5.475   9.109   9.358 -0.3954  0.0241 -0.9123
  385MOL0     C53003   5.612   9.077   9.424  0.3504  0.4722 -0.2025
  385MOL0     C53004   5.693   9.197   9.468 -0.6951 -0.0748  0.0091
  385MOL0     C53005   5.827   9.177   9.541 -0.6560  0.6917  0.8115
  385MOL0     C53006   5.923   9.115   9.442 -0.9647 -0.1451 -0.0626
  385MOL0     C53007   5.966   8.970   9.481  1.0052 -0.3158  0.0092
  385MOL0     C53008   6.067   8.898   9.378 -0.5737  0.0799 -0.2541
  385MOL0     N53009   6.007   8.876   9.247 -1.1132 -0.1634 -0.0837
  385MOL0     C53010   5.908   8.782   9.239 -0.7075 -0.3154 -0.2912
  385MOL0     C53011   5.872   8.789   9.106  0.6766  0.6702  0.0076
  385MOL0     C53012   5.786   8.702   9.023  0.9116 -0.2997  0.3776
  385MOL0     C53013   5.653   8.777   8.992  0.3568  0.5152  0.5462
  385MOL0     C53014   5.544   8.685   8.924 -0.5443 -0.8145 -0.5217
  385MOL0     C53015   5.427   8.762   8.864 -0.0953 -0.2558 -0.2703
  385MOL0     O53016   5.351   8.818   8.975  0.3653  0.9055  0.7852
  385MOL0     C53017   5.263   8.919   8.939  0.1312  0.0674 -0.2180
  385MOL0     C53018   5.251   8.974   8.806 -0.4181  0.0349 -0.2866
  385MOL0     C53019   5.176   9.094   8.785  0.7927  0.3505 -1.2760
  385MOL0     C53020   5.186   9.152   8.648 -0.2014  0.1014  0.4679
  385MOL0     C53021   5.101   9.149   8.896  0.0056 -0.1255 -0.2996
  385MOL0     C53022   5.003   9.268   8.879  0.1135 -0.1108 -0.3502
  385MOL0     O53023   4.915   9.284   8.985 -0.0741 -0.1097  0.6426
  385MOL0     C53024   4.781   9.321   8.969 -0.1015 -0.0110 -0.3316
  385MOL0     C53025   4.723   9.369   9.091  0.2504  0.7936  0.4314
  385MOL0     C53026   4.591   9.408   9.097  0.0766 -0.0408  1.6176
  385MOL0     C53027   4.513   9.401   8.980  0.1870 -0.1026  0.1882
  385MOL0     O53028   4.376   9.437   9.006  0.7350 -0.8196  0.5654
  385MOL0     C53029   4.278   9.346   8.954  0.4087  0.1428  0.0456
  385MOL0     C53030   4.145   9.386   9.033  1.1153 -0.7748  0.4499
  385MOL0     C53031   4.135   9.354   9.184 -0.6470  1.1519  1.4311
  385MOL0     C53032   3.989   9.387   9.242 -0.0103 -0.4778 -0.6101
  385MOL0     C53033   3.978   9.348   9.392  1.0605 -0.1221  0.1663
  385MOL0     C53034   3.831   9.354   9.439 -0.3838 -0.5325  0.5257
  385MOL0     C53035   3.767   9.489   9.420  0.0135  0.4744  1.0449
  385MOL0     C53036   3.631   9.490   9.493  0.7558 -0.7247 -0.2585
  385MOL0    Cl53037   3.562   9.660   9.482  0.0503 -0.1671  0.1226
  385MOL0     C53038   4.577   9.364   8.855  0.2968 -0.3074 -0.2395
  385MOL0     C53039   4.708   9.329   8.850  0.0743 -0.9243  0.5405
  385MOL0     O53040   5.006   9.339   8.777  0.8587  0.0150 -0.8459
  385MOL0     C53041   5.111   9.085   9.026  0.2491 -0.1467 -0.7489
  385MOL0     C53042   5.203   8.988   9.048  0.8327  0.0813 -0.1258
  385MOL0     N53043   5.949   8.889   9.047  0.2612  0.4222 -0.2470
  385MOL0     N53044   6.022   8.947   9.131 -0.4466 -0.1081  0.6775
  385MOL0     C53045   4.997   9.151   9.402  0.2407 -0.2324  0.6134
  385MOL0     C53046   4.882   9.187   9.462 -0.4744  0.8411 -1.6080
  385MOL0     C53047   4.572   9.434   9.617 -0.3067 -0.7315  0.0581
  385MOL0     C53048   4.490   9.502   9.522  0.1446 -1.3837  0.3148
  385MOL0     C53049   4.364   9.538   9.565  0.0546  0.8854  1.0340
  385MOL0     C53050   4.314   9.514   9.690 -0.2069  0.2565 -0.0684
  385MOL0     O53051   4.183   9.557   9.712 -0.1075  0.2575 -0.2035
  385MOL0     C53052   4.107   9.505   9.822  0.5428 -0.3471  0.7818
  385MOL0     C53053   3.956   9.530   9.796 -0.6810 -1.0729  0.4196
  385MOL0     C53054   3.920   9.674   9.808  0.7585 -0.3484 -0.2317
  385MOL0     C53055   3.787   9.726   9.754 -0.9338  0.1111  0.8954
  385MOL0     C53056   3.685   9.640   9.815 -0.1814 -0.6996 -0.2462
  385MOL0     C53057   3.602   9.566   9.857  0.0470  0.2711  0.8087
  385MOL0     C53058   4.395   9.457   9.783  0.0134 -0.0963 -0.1013
  385MOL0     C53059   4.523   9.413   9.750  0.7138  0.7065  0.0668
  385MOL0     C53060   4.601   9.352   9.862 -0.8004 -0.5532  0.1877
  385MOL0     H53061   4.997   9.350   9.725 -0.2788  2.4939 -2.0176
  385MOL0     H53062   5.220   9.324   9.610  0.4102  1.4149  0.1194
  385MOL0     H53063   5.359   9.082   9.532  0.5272 -1.4488 -1.2316
  385MOL0     H53064   5.400   9.248   9.493 -1.0537 -0.6205  2.1565
  385MOL0     H53065   5.452   9.009   9.321 -2.4495  0.1142 -0.0382
  385MOL0     H53066   5.486   9.191   9.286  3.3606  0.0103 -0.5340
  385MOL0     H53067   5.603   9.023   9.519 -0.9373 -0.2837 -0.7259
  385MOL0     H53068   5.676   9.026   9.352  1.1710 -0.1990  0.9657
  385MOL0     H53069   5.715   9.276   9.396  0.5520 -1.1108 -0.7769
  385MOL0     H53070   5.637   9.252   9.544  0.4656 -0.3438  1.0865
  385MOL0     H53071   5.816   9.104   9.623 -5.5601 -1.3738 -1.3204
  385MOL0     H53072   5.868   9.268   9.585  1.1313  1.0724 -1.4239
  385MOL0     H53073   5.879   9.122   9.342  1.0690  3.3767 -0.9008
  385MOL0     H53074   6.015   9.173   9.426  0.3057 -2.2776 -1.0142
  385MOL0     H53075   5.876   8.908   9.479  1.7042 -1.3960  0.4966
  385MOL0     H53076   6.024   8.964   9.574  3.0974  1.7027 -1.0840
  385MOL0     H53077   6.162   8.949   9.362 -0.9786  0.1955 -2.7481
  385MOL0     H53078   6.084   8.799   9.421 -1.7814 -0.7873 -1.6516
  385MOL0     H53079   5.863   8.730   9.323 -0.8601 -1.0482 -0.8129
  385MOL0     H53080   5.768   8.618   9.091 -1.0053  1.6754  2.5396
  385MOL0     H53081   5.841   8.671   8.934  0.9892  1.4351 -0.2282
  385MOL0     H53082   5.612   8.824   9.081 -2.6835 -0.2581 -0.3199
  385MOL0     H53083   5.677   8.857   8.922 -1.7995  0.8622  0.1281
  385MOL0     H53084   5.601   8.631   8.848 -1.8153 -1.6770 -0.9074
  385MOL0     H53085   5.502   8.619   9.000 -0.0033 -0.1118  0.4113
  385MOL0     H53086   5.466   8.839   8.796 -0.2908 -3.3616 -4.2563
  385MOL0     H53087   5.367   8.695   8.803 -2.1440  2.1277 -1.0654
  385MOL0     H53088   5.300   8.938   8.717  0.3580 -1.9416  0.8834
  385MOL0     H53089   5.243   9.095   8.575 -1.4977 -0.7970  0.1228
  385MOL0     H53090   5.223   9.255   8.655  0.5235 -0.2476  2.8048
  385MOL0     H53091   5.085   9.153   8.606 -0.0235 -1.2278 -0.0346
  385MOL0     H53092   4.787   9.358   9.178 -1.2835 -0.2885  1.4765
  385MOL0     H53093   4.560   9.452   9.191 -2.0663  2.9820 -0.3051
  385MOL0     H53094   4.254   9.354   8.847 -1.0783 -0.2380  0.3285
  385MOL0     H53095   4.317   9.249   8.985  5.6989  1.8874 -0.0968
  385MOL0     H53096   4.126   9.493   9.017 -1.1172 -1.0084  1.1253
  385MOL0     H53097   4.067   9.333   8.977  1.4873  1.1277 -2.0636
  385MOL0     H53098   4.214   9.402   9.242 -1.4628  0.1872  3.4467
  385MOL0     H53099   4.149   9.245   9.190  0.8646  1.3472  1.7621
  385MOL0     H53100   3.914   9.339   9.178  1.7893  0.9485 -4.0486
  385MOL0     H53101   3.973   9.495   9.235  0.6947 -0.0927  2.5078
  385MOL0     H53102   4.020   9.248   9.406  1.4798  0.1579  1.0174
  385MOL0     H53103   4.046   9.407   9.455 -1.3059  2.0988  0.8066
  385MOL0     H53104   3.840   9.328   9.545  1.3418  0.5828  0.6940
  385MOL0     H53105   3.772   9.286   9.378  0.0815  1.2747 -2.1353
  385MOL0     H53106   3.746   9.509   9.314 -4.9093 -1.3651  1.3917
  385MOL0     H53107   3.829   9.574   9.450 -0.2736  0.4679  1.6608
  385MOL0     H53108   3.656   9.460   9.596 -2.7862  1.9240  1.6111
  385MOL0     H53109   3.556   9.420   9.456 -0.4078 -0.5826  1.6495
  385MOL0     H53110   4.518   9.353   8.765 -1.8213 -1.9651  1.2583
  385MOL0     H53111   4.756   9.322   8.753 -0.5658  2.8196 -0.2209
  385MOL0     H53112   5.047   9.121   9.106  0.2299  0.8946 -1.2173
  385MOL0     H53113   5.208   8.952   9.151 -1.8170  1.0200  0.4168
  385MOL0     H53114   5.001   9.087   9.314  0.4815 -1.2651  1.3609
  385MOL0     H53115   4.790   9.151   9.420 -0.1027 -2.5893  0.1534
  385MOL0     H53116   4.519   9.520   9.419 -0.7503 -1.5549  0.0248
  385MOL0     H53117   4.306   9.581   9.484 -0.2541 -1.0280  0.1861
  385MOL0     H53118   4.109   9.396   9.832 -1.0579 -0.4938 -0.1210
  385MOL0     H53119   4.151   9.541   9.916  0.8597  0.3096  0.3898
  385MOL0     H53120   3.904   9.467   9.868  1.2867 -2.2092  0.9116
  385MOL0     H53121   3.933   9.484   9.699 -0.0634  0.7640 -0.6622
  385MOL0     H53122   3.933   9.687   9.916  1.2980 -1.6630 -0.1217
  385MOL0     H53123   3.997   9.734   9.757  1.4607 -0.0635  1.1281
  385MOL0     H53124   3.795   9.719   9.645  0.8371  0.5503  0.9663
  385MOL0     H53125   3.778   9.830   9.786 -0.2951 -0.0695  1.7009
  385MOL0     H53126   3.524   9.499   9.886 -0.6596  0.9602  0.5190
  385MOL0     H53127   4.356   9.443   9.883 -0.8253 -0.0594 -0.4131
  385MOL0     H53128   4.550   9.327   9.956 -0.0339 -3.1039 -0.0128
  385MOL0     H53129   4.650   9.257   9.840  0.2433 -0.1249  0.5934
  385MOL0     H53130   4.671   9.425   9.904 -2.1186  0.4907  0.6633
  386MOL0     O53131   5.023   6.878   5.735  0.3881 -0.4562 -0.0290
  386MOL0     C53132   5.087   6.968   5.792  0.0079  0.3343 -0.0731
  386MOL0     O53133   5.206   6.938   5.864  1.2383  0.7522 -0.2012
  386MOL0     C53134   5.258   6.816   5.841 -0.7667  0.7196  0.1092
  386MOL0     C53135   5.291   6.758   5.712 -0.1199  0.5152  0.3669
  386MOL0     C53136   5.347   6.624   5.706 -0.8562 -0.0939 -0.1193
  386MOL0     C53137   5.346   6.545   5.818  0.7801 -1.0351 -0.2208
  386MOL0     O53138   5.409   6.427   5.796 -0.7033  0.2835 -0.0879
  386MOL0     C53139   5.527   6.394   5.879  0.7427 -0.0780  1.0932
  386MOL0     C53140   5.520   6.262   5.959  0.1609  0.2862 -0.1028
  386MOL0     C53141   5.461   6.137   5.876  0.2740  0.2564 -0.2871
  386MOL0     C53142   5.484   6.008   5.954  0.7789 -0.2978  0.6895
  386MOL0     C53143   5.389   5.894   5.906  0.4732 -0.3581 -0.1678
  386MOL0     C53144   5.411   5.861   5.756 -0.0438 -0.5428 -0.6766
  386MOL0     C53145   5.323   5.746   5.726  0.5917  0.3759 -0.6446
  386MOL0     C53146   5.349   5.691   5.586  1.3034 -0.4855  0.0082
  386MOL0     N53147   5.240   5.596   5.554  0.1697 -0.1347  0.0683
  386MOL0     C53148   5.160   5.613   5.443 -0.2677  0.2720 -0.1108
  386MOL0     C53149   5.080   5.505   5.448  0.2093  0.7200 -0.5198
  386MOL0     C53150   4.971   5.470   5.355 -0.0791  0.6700 -0.2251
  386MOL0     C53151   5.007   5.437   5.206  0.1216 -0.4790  0.1713
  386MOL0     C53152   4.893   5.454   5.106  1.2014  0.7254  0.6050
  386MOL0     C53153   4.856   5.598   5.064 -0.7502  1.1753  1.0669
  386MOL0     O53154   4.717   5.616   5.049 -0.1583  0.1282 -0.9657
  386MOL0     C53155   4.678   5.740   4.991 -0.2426  0.3874 -1.4039
  386MOL0     C53156   4.770   5.838   4.947 -0.1178  0.1226  0.0772
  386MOL0     C53157   4.716   5.951   4.878  0.4484 -0.6953 -0.2671
  386MOL0     C53158   4.817   6.054   4.825  0.3197 -0.0436 -0.9882
  386MOL0     C53159   4.572   5.968   4.876  0.1731 -0.5065  0.7214
  386MOL0     C53160   4.522   6.070   4.794  0.2407 -0.2667 -0.1985
  386MOL0     O53161   4.422   6.035   4.717 -0.4210 -0.3593  0.6671
  386MOL0     C53162   4.359   6.140   4.652 -0.7786  0.1972  0.8297
  386MOL0     C53163   4.265   6.218   4.727  0.8369 -0.3486 -0.3555
  386MOL0     C53164   4.212   6.328   4.657  0.8414 -1.0737  0.3478
  386MOL0     C53165   4.210   6.342   4.516  0.7591  1.0772 -0.6698
  386MOL0     O53166   4.139   6.431   4.432  0.3005 -0.1201 -0.4188
  386MOL0     C53167   4.027   6.506   4.482 -0.0897 -0.5427 -0.3436
  386MOL0     C53168   3.906   6.453   4.426 -0.6814 -0.1455 -0.0575
  386MOL0     C53169   3.870   6.311   4.475  0.3285 -0.0935  0.4790
  386MOL0     C53170   3.819   6.309   4.622  0.5488 -1.0812  0.4193
  386MOL0     C53171   3.744   6.176   4.637 -0.1873 -0.6440  0.4362
  386MOL0     C53172   3.819   6.042   4.636 -0.7965  0.2324  0.9249
  386MOL0     C53173   3.964   6.038   4.695 -1.2615  0.4151  0.0318
  386MOL0     C53174   4.024   5.899   4.687 -0.2028  0.5098  0.4336
  386MOL0    Cl53175   4.084   5.878   4.849 -0.7183  0.2653  0.1553
  386MOL0     C53176   4.288   6.240   4.448 -0.1533 -0.4031  0.0922
  386MOL0     C53177   4.370   6.151   4.516 -0.0985  0.0837 -0.1562
  386MOL0     O53178   4.557   6.187   4.825 -0.6282  0.1396 -0.0026
  386MOL0     C53179   4.485   5.885   4.941 -0.3573  0.7138  0.0831
  386MOL0     C53180   4.542   5.758   4.988  1.2999 -0.0336  0.2932
  386MOL0     N53181   5.124   5.427   5.560  0.8331 -0.1426  0.3002
  386MOL0     N53182   5.209   5.488   5.628 -0.4881 -0.9059  0.0149
  386MOL0     C53183   5.298   6.600   5.943  0.7107  0.0180  0.1633
  386MOL0     C53184   5.260   6.734   5.952 -0.5550 -0.3295  0.3487
  386MOL0     C53185   5.042   7.110   5.792  0.2687 -0.2950  0.3240
  386MOL0     C53186   5.123   7.209   5.852  0.1514 -1.2384 -0.5290
  386MOL0     C53187   5.091   7.344   5.857  0.8753  0.8784 -0.5664
  386MOL0     C53188   4.973   7.385   5.808 -0.0297 -0.3054 -0.0889
  386MOL0     O53189   4.942   7.519   5.807  0.6363 -0.1022  0.5047
  386MOL0     C53190   4.823   7.570   5.735 -0.3075  0.5207  1.1257
  386MOL0     C53191   4.838   7.718   5.727  0.0761  0.3067 -0.9989
  386MOL0     C53192   4.912   7.777   5.601 -0.0446  0.1886  0.2166
  386MOL0     C53193   4.870   7.920   5.563  0.5805 -0.5714 -1.5544
  386MOL0     C53194   4.732   7.929   5.513 -0.4072 -1.2719 -0.0333
  386MOL0     C53195   4.614   7.947   5.478  0.3385  0.0737  0.8336
  386MOL0     C53196   4.903   7.292   5.727 -0.7345 -0.4251  0.1212
  386MOL0     C53197   4.923   7.157   5.728 -0.0285  0.2164 -0.1281
  386MOL0     C53198   4.824   7.067   5.649 -1.0458  0.0019 -0.1726
  386MOL0     H53199   5.286   6.820   5.623 -0.4139  1.6088  1.1223
  386MOL0     H53200   5.384   6.589   5.610 -1.5386  1.1626 -0.8748
  386MOL0     H53201   5.548   6.475   5.949 -1.2498  0.0736  1.5841
  386MOL0     H53202   5.610   6.384   5.809 -0.5078  0.1525 -0.4716
  386MOL0     H53203   5.625   6.251   5.985  0.4114  3.1433  0.4947
  386MOL0     H53204   5.463   6.290   6.048 -1.2309  1.1404 -1.2166
  386MOL0     H53205   5.354   6.155   5.860 -0.1568  0.5001  2.2852
  386MOL0     H53206   5.514   6.136   5.781 -0.2676  0.7357 -0.6011
  386MOL0     H53207   5.590   5.983   5.941  1.0119  1.0076 -0.1250
  386MOL0     H53208   5.464   6.019   6.061  1.0146  2.4426  0.5282
  386MOL0     H53209   5.285   5.926   5.911  0.1454 -1.0461 -2.0286
  386MOL0     H53210   5.411   5.806   5.967 -1.7605 -0.8620 -0.0122
  386MOL0     H53211   5.385   5.945   5.691 -2.6558 -1.8034 -1.3692
  386MOL0     H53212   5.514   5.825   5.743  0.2700 -1.2838  2.9688
  386MOL0     H53213   5.222   5.770   5.759  1.3572 -1.4360  3.7610
  386MOL0     H53214   5.359   5.661   5.786  1.5551 -0.1595 -1.9148
  386MOL0     H53215   5.364   5.774   5.516  1.3955 -0.0002  0.5996
  386MOL0     H53216   5.439   5.630   5.591  0.2685 -2.0969 -0.4345
  386MOL0     H53217   5.173   5.693   5.372  0.7717 -0.1514 -0.4088
  386MOL0     H53218   4.896   5.550   5.359  0.5650  1.3981 -1.7069
  386MOL0     H53219   4.933   5.380   5.403 -0.5591 -0.4804 -2.6313
  386MOL0     H53220   5.099   5.490   5.181 -0.4316  1.8206  2.5644
  386MOL0     H53221   5.039   5.333   5.204 -0.5970 -0.7827 -3.9102
  386MOL0     H53222   4.930   5.399   5.020 -0.2651 -0.9910  0.9987
  386MOL0     H53223   4.802   5.407   5.144  0.5530  1.6876  0.2926
  386MOL0     H53224   4.899   5.671   5.133  1.2562  2.1766 -1.0905
  386MOL0     H53225   4.907   5.631   4.974 -0.4799  2.1938  1.5821
  386MOL0     H53226   4.877   5.828   4.960  0.0179  1.7493  0.3906
  386MOL0     H53227   4.816   6.140   4.893 -1.4064  0.2069 -1.2896
  386MOL0     H53228   4.818   6.093   4.723 -2.1182  0.4406 -0.8912
  386MOL0     H53229   4.918   6.013   4.836  0.7767  1.0100 -1.1445
  386MOL0     H53230   4.254   6.192   4.831  2.7887 -0.1095 -0.0530
  386MOL0     H53231   4.142   6.396   4.706 -1.8272 -3.8865  0.7898
  386MOL0     H53232   4.016   6.507   4.591 -3.5880  0.3572 -0.6118
  386MOL0     H53233   4.045   6.607   4.443 -1.2519 -0.6535 -1.2057
  386MOL0     H53234   3.824   6.514   4.464 -1.9704 -1.4359 -0.6336
  386MOL0     H53235   3.924   6.460   4.318  2.8725  2.8199  0.5397
  386MOL0     H53236   3.958   6.248   4.459 -1.2479 -2.0004 -1.2999
  386MOL0     H53237   3.802   6.272   4.398  1.9673 -2.6508  0.1885
  386MOL0     H53238   3.743   6.386   4.639 -0.3906 -1.9602  0.2537
  386MOL0     H53239   3.903   6.311   4.692 -1.2698 -2.6750  2.7988
  386MOL0     H53240   3.717   6.176   4.743  0.5958 -1.6530  0.6502
  386MOL0     H53241   3.650   6.178   4.581  0.8262  0.7120 -1.3130
  386MOL0     H53242   3.819   6.010   4.531  3.3227  1.3064  0.4497
  386MOL0     H53243   3.765   5.962   4.689  1.2018 -1.9115 -0.1281
  386MOL0     H53244   3.951   6.063   4.801 -1.6109  1.3906 -0.2356
  386MOL0     H53245   4.042   6.105   4.658 -0.8481  1.2460  2.2446
  386MOL0     H53246   4.103   5.898   4.611 -1.8522  0.9781 -1.3772
  386MOL0     H53247   3.950   5.820   4.677 -0.3342  0.5467  1.0528
  386MOL0     H53248   4.282   6.219   4.342 -1.9437 -0.9795  0.2710
  386MOL0     H53249   4.445   6.083   4.476  2.9032  2.5711  0.8868
  386MOL0     H53250   4.379   5.907   4.933 -1.0105 -1.6136  1.3444
  386MOL0     H53251   4.478   5.687   5.039 -1.0471  1.5780 -0.2359
  386MOL0     H53252   5.291   6.531   6.026  1.6731 -1.8227 -1.2187
  386MOL0     H53253   5.227   6.772   6.048  3.5482  0.2005  1.7581
  386MOL0     H53254   5.211   7.175   5.905 -0.2870 -2.1693 -0.3708
  386MOL0     H53255   5.153   7.416   5.910  2.0651 -0.0917 -0.6163
  386MOL0     H53256   4.801   7.522   5.640  1.6225 -2.5838  2.0867
  386MOL0     H53257   4.736   7.553   5.799 -0.7469  1.2866  0.7364
  386MOL0     H53258   4.887   7.757   5.817  3.5595 -2.0243 -1.6843
  386MOL0     H53259   4.737   7.757   5.714  0.5373  1.4109 -1.3538
  386MOL0     H53260   5.018   7.777   5.629 -0.2121  3.8101  1.3662
  386MOL0     H53261   4.892   7.714   5.514 -0.4560 -1.7194  1.6493
  386MOL0     H53262   4.948   7.954   5.494  2.6361  0.4581  1.0996
  386MOL0     H53263   4.884   7.989   5.647 -2.5794 -0.9654 -0.5436
  386MOL0     H53264   4.510   7.940   5.454  0.7345  1.9512 -1.7273
  386MOL0     H53265   4.816   7.323   5.670  1.6411  2.5306 -2.2628
  386MOL0     H53266   4.878   7.014   5.570 -0.5293  1.8092 -1.0899
  386MOL0     H53267   4.779   6.997   5.720 -1.6485 -0.1806 -0.7321
  386MOL0     H53268   4.754   7.132   5.597  1.2698  2.7704 -0.0989
  387MOL0     O53269   0.718   0.797   7.469 -0.7316  0.0909  0.0406
  387MOL0     C53270   0.673   0.878   7.394 -1.4707 -0.4113  0.5100
  387MOL0     O53271   0.604   0.844   7.277 -0.3232 -1.0296 -0.0128
  387MOL0     C53272   0.558   0.715   7.260 -0.2524 -1.0225 -0.3374
  387MOL0     C53273   0.580   0.661   7.135 -0.2415 -0.1058 -0.1271
  387MOL0     C53274   0.557   0.527   7.111  0.4101  0.6704  0.3785
  387MOL0     C53275   0.501   0.453   7.212 -1.3044  0.5453  0.2076
  387MOL0     O53276   0.466   0.326   7.180  0.3038  0.2555  0.2303
  387MOL0     C53277   0.362   0.251   7.244 -0.6068  0.3226 -0.3683
  387MOL0     C53278   0.214   0.293   7.200  0.1361 -0.0787  0.0440
  387MOL0     C53279   0.181   0.245   7.061  0.3610  0.7027  0.9508
  387MOL0     C53280   0.041   0.280   7.034 -0.5476  0.0983 -0.4051
  387MOL0     C53281   0.004   0.235   6.896  0.2284  0.1322  0.5398
  387MOL0     C53282  -0.145   0.247   6.867 -0.5226  0.4525 -0.2388
  387MOL0     C53283  -0.168   0.392   6.827  0.5213  0.3703  0.7880
  387MOL0     C53284  -0.142   0.434   6.683 -0.4632 -0.4558  0.2687
  387MOL0     N53285  -0.191   0.352   6.578  0.7546 -0.3162  0.7315
  387MOL0     C53286  -0.114   0.270   6.500  0.5728  0.2215  0.2904
  387MOL0     C53287  -0.192   0.218   6.406 -0.2318 -0.2641 -0.6922
  387MOL0     C53288  -0.143   0.134   6.284  0.1181  0.0144 -0.3901
  387MOL0     C53289  -0.240   0.142   6.164  0.0516  0.2238 -0.3120
  387MOL0     C53290  -0.217   0.271   6.086  0.4599 -0.2764  0.0024
  387MOL0     C53291  -0.122   0.265   5.964 -0.1884 -0.6497  1.3499
  387MOL0     O53292  -0.179   0.209   5.840 -0.1567 -0.4037 -0.7109
  387MOL0     C53293  -0.119   0.102   5.783 -0.3529  0.6263  0.2144
  387MOL0     C53294  -0.201  -0.001   5.725 -0.4307 -1.2468 -0.2740
  387MOL0     C53295  -0.149  -0.118   5.658  0.6180  0.0475  0.3860
  387MOL0     C53296  -0.259  -0.224   5.627 -0.6230  0.0656 -0.5742
  387MOL0     C53297  -0.014  -0.138   5.655 -0.8630  0.0692  0.6695
  387MOL0     C53298   0.063  -0.253   5.599  0.0941  0.0507  0.4210
  387MOL0     O53299   0.201  -0.262   5.628  0.2966 -0.2497 -0.3717
  387MOL0     C53300   0.275  -0.350   5.556 -0.9911 -0.2373 -0.2614
  387MOL0     C53301   0.394  -0.313   5.501 -0.4035  1.1573  0.8003
  387MOL0     C53302   0.476  -0.407   5.439 -0.0958 -0.3178 -0.6410
  387MOL0     C53303   0.449  -0.544   5.436 -0.3787 -0.1457 -0.1077
  387MOL0     O53304   0.548  -0.627   5.381  0.0330  0.8323 -0.4018
  387MOL0     C53305   0.518  -0.771   5.395  0.1189  0.8187 -0.6679
  387MOL0     C53306   0.651  -0.845   5.382  1.0486 -0.4159 -1.3655
  387MOL0     C53307   0.621  -0.996   5.359  0.4515  0.0406  0.1105
  387MOL0     C53308   0.738  -1.080   5.364  0.1919 -0.7994  0.9722
  387MOL0     C53309   0.717  -1.228   5.379  0.4029  0.0083 -0.5389
  387MOL0     C53310   0.602  -1.292   5.285  0.2661  0.1004  0.7064
  387MOL0     C53311   0.629  -1.283   5.130 -0.8918 -0.2807 -0.1016
  387MOL0     C53312   0.532  -1.369   5.056  0.4559 -0.6729  0.3420
  387MOL0    Cl53313   0.591  -1.403   4.886  0.1451 -0.0287  0.0049
  387MOL0     C53314   0.323  -0.577   5.488  0.0784 -0.4634 -0.4221
  387MOL0     C53315   0.244  -0.483   5.560 -0.2976  0.5731  0.1069
  387MOL0     O53316   0.002  -0.323   5.513  0.1296 -0.6753 -0.5865
  387MOL0     C53317   0.064  -0.040   5.714 -0.3646  0.0511  0.4103
  387MOL0     C53318   0.015   0.086   5.762 -0.2127 -0.0059  0.1641
  387MOL0     N53319  -0.322   0.275   6.426  0.1843 -0.2491  0.1428
  387MOL0     N53320  -0.313   0.364   6.520 -0.3632  0.1646  0.8746
  387MOL0     C53321   0.499   0.501   7.334  0.5261  0.7437  0.4090
  387MOL0     C53322   0.528   0.629   7.360  0.2057 -0.2690 -0.2614
  387MOL0     C53323   0.703   1.018   7.419  0.5373 -0.0563 -0.0053
  387MOL0     C53324   0.716   1.067   7.552 -0.3586 -0.4639  0.4565
  387MOL0     C53325   0.737   1.204   7.590  0.5796  0.0456 -0.0888
  387MOL0     C53326   0.757   1.292   7.489 -0.3355 -0.5455  0.2076
  387MOL0     O53327   0.790   1.425   7.510  0.3397  0.2503 -0.1088
  387MOL0     C53328   0.931   1.447   7.515  0.1819 -0.0554 -0.3526
  387MOL0     C53329   1.023   1.387   7.410 -0.3313 -0.5621  0.0911
  387MOL0     C53330   1.158   1.472   7.417  1.2094 -0.0511  0.1338
  387MOL0     C53331   1.257   1.424   7.308 -1.6401  0.4717 -0.1952
  387MOL0     C53332   1.394   1.463   7.342 -0.0731  0.4798 -0.5722
  387MOL0     C53333   1.509   1.492   7.347  0.1279  0.0983  0.4024
  387MOL0     C53334   0.737   1.247   7.353  1.0313  0.0339 -0.2509
  387MOL0     C53335   0.708   1.115   7.312  0.8674  0.3199 -1.2750
  387MOL0     C53336   0.695   1.088   7.156 -0.1059 -0.9022 -0.5517
  387MOL0     H53337   0.624   0.716   7.053  0.1682  1.3533  1.0255
  387MOL0     H53338   0.572   0.488   7.011 -3.2892  3.5553 -1.5249
  387MOL0     H53339   0.376   0.256   7.352  3.7580  0.8173 -0.7735
  387MOL0     H53340   0.384   0.147   7.220  0.2460  0.8448 -2.0698
  387MOL0     H53341   0.145   0.242   7.268 -0.0706 -1.1485 -0.9277
  387MOL0     H53342   0.206   0.402   7.204  2.4298  0.2345 -1.8695
  387MOL0     H53343   0.242   0.302   6.990 -3.7748  2.7778 -1.3055
  387MOL0     H53344   0.201   0.139   7.045  1.4492  1.1078 -0.6339
  387MOL0     H53345  -0.029   0.227   7.099 -0.9417  1.9895  0.7980
  387MOL0     H53346   0.036   0.389   7.042 -0.6277  0.0396  0.3691
  387MOL0     H53347   0.032   0.129   6.890 -1.7791 -0.3512 -2.3869
  387MOL0     H53348   0.069   0.286   6.825  1.9687 -0.9593  1.3033
  387MOL0     H53349  -0.164   0.182   6.781  2.3820 -2.8176  1.3506
  387MOL0     H53350  -0.199   0.212   6.955 -0.4589 -0.4752 -0.5507
  387MOL0     H53351  -0.090   0.444   6.884  3.8129 -0.5663 -2.4326
  387MOL0     H53352  -0.268   0.429   6.848  0.9322  1.2075  1.3483
  387MOL0     H53353  -0.174   0.537   6.666  1.1627 -0.2166 -1.7580
  387MOL0     H53354  -0.036   0.444   6.658  0.0242 -0.7619  2.0738
  387MOL0     H53355  -0.007   0.251   6.507  0.6612  0.7128  0.3618
  387MOL0     H53356  -0.139   0.030   6.319 -0.7353  0.0979 -0.0020
  387MOL0     H53357  -0.041   0.161   6.258  1.2324 -2.1451  1.4172
  387MOL0     H53358  -0.233   0.053   6.101 -1.0327 -2.9255  3.6480
  387MOL0     H53359  -0.342   0.134   6.201  0.6579 -0.6043  1.2776
  387MOL0     H53360  -0.310   0.313   6.048  1.0177  0.5591 -0.4611
  387MOL0     H53361  -0.172   0.338   6.160  0.8108 -2.5329  1.9382
  387MOL0     H53362  -0.094   0.369   5.945 -0.8496 -0.7012 -0.0101
  387MOL0     H53363  -0.030   0.211   5.990  0.5638  0.4042  0.9567
  387MOL0     H53364  -0.307   0.002   5.749 -0.8989  0.1587 -2.3110
  387MOL0     H53365  -0.233  -0.323   5.667  0.8293  1.5589  2.5274
  387MOL0     H53366  -0.273  -0.235   5.519 -2.8411 -2.3882 -0.1439
  387MOL0     H53367  -0.352  -0.201   5.680 -0.1520  1.1542 -0.1957
  387MOL0     H53368   0.426  -0.210   5.501  0.5729  0.8888 -0.6437
  387MOL0     H53369   0.566  -0.375   5.387  1.5032 -1.2488  1.3828
  387MOL0     H53370   0.476  -0.803   5.491 -1.2795  0.6947 -1.3019
  387MOL0     H53371   0.444  -0.793   5.317  0.1887  0.7307 -0.7096
  387MOL0     H53372   0.716  -0.791   5.313  0.3324  1.7935 -0.4022
  387MOL0     H53373   0.703  -0.845   5.478 -3.1451 -1.0236  1.1961
  387MOL0     H53374   0.574  -1.004   5.261  1.5955 -2.6115 -0.2983
  387MOL0     H53375   0.550  -1.027   5.436  2.1598  0.7997  2.1117
  387MOL0     H53376   0.791  -1.058   5.457  0.2195  1.8369  0.3974
  387MOL0     H53377   0.803  -1.060   5.278 -1.1046 -1.1620 -0.1139
  387MOL0     H53378   0.808  -1.285   5.359 -0.3322 -0.5566 -2.4662
  387MOL0     H53379   0.685  -1.247   5.482  0.0777  0.5406 -0.5379
  387MOL0     H53380   0.505  -1.246   5.308 -0.4217 -2.2586  2.9183
  387MOL0     H53381   0.583  -1.398   5.303 -4.2439 -0.5880 -5.0930
  387MOL0     H53382   0.720  -1.337   5.105 -1.5899 -0.5903 -2.1308
  387MOL0     H53383   0.618  -1.180   5.097  3.9481  0.7831  0.8230
  387MOL0     H53384   0.434  -1.320   5.050  0.5167 -0.6515 -0.6160
  387MOL0     H53385   0.522  -1.462   5.114 -0.4692 -0.5617  0.3830
  387MOL0     H53386   0.291  -0.680   5.493 -0.8722 -0.1213  0.9646
  387MOL0     H53387   0.144  -0.495   5.602 -0.6951  4.9762  0.9306
  387MOL0     H53388   0.173  -0.046   5.710 -0.3136  1.3611 -1.3231
  387MOL0     H53389   0.087   0.165   5.780 -3.4169  3.5188 -1.2665
  387MOL0     H53390   0.449   0.446   7.412 -0.8708  2.6216  0.8900
  387MOL0     H53391   0.526   0.661   7.464 -0.2108  1.3811 -0.7490
  387MOL0     H53392   0.700   1.000   7.636  0.4429  1.0084  1.8446
  387MOL0     H53393   0.735   1.244   7.691  1.2788  0.8541 -0.3888
  387MOL0     H53394   0.932   1.556   7.524  1.1503 -0.1797  1.9115
  387MOL0     H53395   0.959   1.412   7.615 -2.2710 -0.0184  0.4014
  387MOL0     H53396   0.989   1.399   7.306  1.1124 -0.8026 -0.4313
  387MOL0     H53397   1.046   1.283   7.432 -0.2614 -0.3799  0.9092
  387MOL0     H53398   1.134   1.579   7.409 -1.0431 -0.6162 -1.7784
  387MOL0     H53399   1.196   1.462   7.519  1.8516  3.6248  0.3812
  387MOL0     H53400   1.220   1.471   7.216 -0.6428  1.4979 -0.0950
  387MOL0     H53401   1.251   1.315   7.303 -0.0894  0.3991 -0.9619
  387MOL0     H53402   1.614   1.512   7.334 -0.4096  1.5233 -2.5887
  387MOL0     H53403   0.730   1.307   7.263  0.6881 -0.4450 -0.5503
  387MOL0     H53404   0.792   1.119   7.115  0.5009 -0.0682  1.4012
  387MOL0     H53405   0.684   0.983   7.126  0.2505 -1.4523  1.1039
  387MOL0     H53406   0.609   1.135   7.109  1.8009  1.2870 -2.0587
  388MOL0     O53407   0.651   7.099  10.839 -0.1788 -0.0565 -0.5464
  388MOL0     C53408   0.565   7.194  10.848 -0.7559  0.8213  1.1945
  388MOL0     O53409   0.489   7.204  10.945  0.5751 -0.3069 -0.3886
  388MOL0     C53410   0.455   7.096  11.016 -0.0849  0.1199  0.1186
  388MOL0     C53411   0.344   7.020  10.976 -0.0437 -0.1288 -0.7247
  388MOL0     C53412   0.301   6.905  11.059  0.5261 -0.6509  0.1080
  388MOL0     C53413   0.359   6.885  11.179  0.3519 -0.2107 -0.9787
  388MOL0     O53414   0.321   6.782  11.261 -0.6955 -0.1420  0.4027
  388MOL0     C53415   0.426   6.732  11.347 -0.3370  0.0486  0.5303
  388MOL0     C53416   0.400   6.577  11.351 -0.3392 -0.4432 -0.0500
  388MOL0     C53417   0.461   6.505  11.235  0.5367 -0.6366 -0.4629
  388MOL0     C53418   0.416   6.361  11.224 -0.2725 -0.1508  1.1595
  388MOL0     C53419   0.415   6.323  11.080  0.1410  0.0312  0.9473
  388MOL0     C53420   0.439   6.166  11.060  0.2985  0.2521 -1.3150
  388MOL0     C53421   0.428   6.102  10.918 -0.7387  0.1349 -0.1246
  388MOL0     C53422   0.391   5.953  10.915 -0.4894 -1.1765  0.3682
  388MOL0     N53423   0.281   5.915  10.833  0.4135  0.9132  0.0549
  388MOL0     C53424   0.299   5.843  10.712 -0.2895 -0.1151  0.4884
  388MOL0     C53425   0.177   5.842  10.656  0.1062  0.0911 -0.1676
  388MOL0     C53426   0.141   5.774  10.524 -1.1662 -0.8164 -0.2119
  388MOL0     C53427   0.051   5.656  10.550  0.9220 -0.1865 -0.6069
  388MOL0     C53428   0.027   5.574  10.418  0.2034 -0.1022  0.7332
  388MOL0     C53429  -0.046   5.442  10.431 -0.4165  0.4865 -0.0996
  388MOL0     O53430   0.024   5.365  10.536  0.7945  0.4971  0.0994
  388MOL0     C53431  -0.025   5.251  10.585  0.2602 -0.4294 -0.8050
  388MOL0     C53432   0.051   5.192  10.680 -1.3522  0.1133  0.6055
  388MOL0     C53433   0.016   5.076  10.746 -0.1286  0.7517  0.2549
  388MOL0     C53434   0.117   5.054  10.862 -0.4418  0.2616  0.4408
  388MOL0     C53435  -0.108   5.009  10.711  0.6262 -0.3240 -0.5269
  388MOL0     C53436  -0.154   4.886  10.776  0.0183  0.0890 -1.5490
  388MOL0     O53437  -0.062   4.800  10.814 -0.0401  0.5394 -0.4170
  388MOL0     C53438  -0.118   4.683  10.872 -1.2011 -0.2658 -0.8050
  388MOL0     C53439  -0.085   4.653  11.006 -0.0739 -0.4799 -0.4162
  388MOL0     C53440  -0.130   4.537  11.069 -0.5754 -0.3295 -0.9597
  388MOL0     C53441  -0.200   4.445  11.001 -0.1535  0.4865 -0.1299
  388MOL0     O53442  -0.223   4.320  11.057 -0.0371  0.5766 -0.4285
  388MOL0     C53443  -0.273   4.324  11.186 -0.9030 -0.7245 -0.2399
  388MOL0     C53444  -0.188   4.228  11.270  0.2073 -1.0914 -0.0657
  388MOL0     C53445  -0.229   4.248  11.410 -0.4900  1.1254 -0.0452
  388MOL0     C53446  -0.121   4.170  11.485  0.4114  0.3952  0.2379
  388MOL0     C53447  -0.157   4.167  11.636  0.7690  0.1837  0.9004
  388MOL0     C53448  -0.081   4.065  11.721  0.2838  0.3169  0.4588
  388MOL0     C53449  -0.128   4.062  11.865 -0.4167 -0.6054  0.8148
  388MOL0     C53450  -0.022   4.003  11.960 -0.0216  0.3694 -0.5880
  388MOL0    Cl53451  -0.030   3.825  11.965  0.3381  0.4973 -0.0961
  388MOL0     C53452  -0.235   4.462  10.869  0.2042 -0.2212 -0.2205
  388MOL0     C53453  -0.196   4.579  10.806  0.6799  0.6466 -0.8216
  388MOL0     O53454  -0.273   4.875  10.806  0.7884  0.6545 -0.2117
  388MOL0     C53455  -0.183   5.061  10.610 -0.4748  0.4261 -0.3736
  388MOL0     C53456  -0.148   5.185  10.553  0.4268  0.2018 -0.0319
  388MOL0     N53457   0.090   5.908  10.735 -0.1950  0.0658  0.8701
  388MOL0     N53458   0.154   5.952  10.837  0.0694  0.9448  0.6394
  388MOL0     C53459   0.453   6.980  11.227 -0.3522 -0.9909  0.4441
  388MOL0     C53460   0.507   7.080  11.142  0.0456 -0.6827 -0.2957
  388MOL0     C53461   0.577   7.297  10.748  0.0140 -1.2037 -0.1948
  388MOL0     C53462   0.671   7.293  10.641  0.7576  0.6660 -0.7978
  388MOL0     C53463   0.695   7.404  10.560 -0.4193 -0.5131 -0.4021
  388MOL0     C53464   0.621   7.520  10.570  0.3048  0.3140  0.5169
  388MOL0     O53465   0.632   7.612  10.477 -0.0318  0.3073 -0.1813
  388MOL0     C53466   0.541   7.722  10.460 -0.8155 -0.5739  0.2013
  388MOL0     C53467   0.580   7.808  10.342 -0.2155 -0.2211  0.2513
  388MOL0     C53468   0.669   7.927  10.376 -0.1821  0.3003  0.4324
  388MOL0     C53469   0.681   8.028  10.262  0.8178  0.0992 -0.3689
  388MOL0     C53470   0.773   8.140  10.268  0.3811 -1.0334  0.5610
  388MOL0     C53471   0.841   8.242  10.273  0.2240  0.8273 -0.2021
  388MOL0     C53472   0.513   7.524  10.656  0.9901 -0.9815  0.0999
  388MOL0     C53473   0.488   7.416  10.740  0.4984 -0.1734  0.2416
  388MOL0     C53474   0.368   7.433  10.834 -0.4103 -0.5567 -0.6958
  388MOL0     H53475   0.292   7.027  10.882 -2.7693  0.7871  0.7422
  388MOL0     H53476   0.229   6.829  11.031 -1.9322  1.2577  0.7907
  388MOL0     H53477   0.419   6.776  11.447 -1.6378 -2.5958  1.6950
  388MOL0     H53478   0.528   6.745  11.307  0.0106 -0.7332  1.1419
  388MOL0     H53479   0.451   6.548  11.444 -0.3862  2.2941  0.9301
  388MOL0     H53480   0.294   6.551  11.356 -0.7367  1.2425  1.2636
  388MOL0     H53481   0.439   6.556  11.141  1.0237 -0.4719 -0.4872
  388MOL0     H53482   0.569   6.504  11.249  0.8243 -1.8662 -2.3466
  388MOL0     H53483   0.490   6.296  11.271  3.0370 -0.4206 -3.6686
  388MOL0     H53484   0.315   6.356  11.264 -1.0366  0.1744 -0.6214
  388MOL0     H53485   0.480   6.383  11.016 -0.1112 -0.5335  0.1514
  388MOL0     H53486   0.314   6.347  11.045 -0.3475 -0.7989  1.7414
  388MOL0     H53487   0.538   6.151  11.105  0.6211 -0.1787 -2.1449
  388MOL0     H53488   0.366   6.124  11.130  1.3596  0.7376  0.1207
  388MOL0     H53489   0.522   6.118  10.865 -0.0119 -3.0927  0.0284
  388MOL0     H53490   0.348   6.156  10.866 -0.8573 -1.6450 -1.8846
  388MOL0     H53491   0.485   5.907  10.880  1.8225  1.4440  2.6529
  388MOL0     H53492   0.390   5.906  11.013 -0.4054 -5.5254 -1.4763
  388MOL0     H53493   0.390   5.804  10.668 -0.1040 -0.3853  1.1012
  388MOL0     H53494   0.232   5.756  10.467  0.3437  1.4961  1.2941
  388MOL0     H53495   0.097   5.852  10.461  0.3726 -0.1178 -0.4551
  388MOL0     H53496   0.100   5.596  10.626  1.4238  0.4934 -0.3855
  388MOL0     H53497  -0.042   5.677  10.605 -0.0381 -2.2993 -1.3088
  388MOL0     H53498  -0.032   5.640  10.354  0.3264 -0.0211  0.7031
  388MOL0     H53499   0.122   5.545  10.371 -0.4131 -3.6137  1.3784
  388MOL0     H53500  -0.151   5.459  10.457 -0.6001 -2.2711  1.3729
  388MOL0     H53501  -0.055   5.394  10.332 -2.7919  0.8134 -0.0940
  388MOL0     H53502   0.135   5.248  10.721 -0.5427 -1.8853  1.8463
  388MOL0     H53503   0.112   4.954  10.905  1.8689  1.1945  3.1971
  388MOL0     H53504   0.111   5.128  10.943  0.5454  2.3878 -1.3018
  388MOL0     H53505   0.220   5.064  10.826 -0.4421 -3.6535 -1.1605
  388MOL0     H53506  -0.024   4.721  11.066  0.4012  1.0552 -2.5251
  388MOL0     H53507  -0.084   4.512  11.164 -0.0630 -0.1453 -1.1555
  388MOL0     H53508  -0.274   4.424  11.230  2.9436 -0.9188  0.6257
  388MOL0     H53509  -0.378   4.298  11.172 -2.0422  3.3279 -0.4590
  388MOL0     H53510  -0.211   4.126  11.238  1.4676 -1.6703  0.8204
  388MOL0     H53511  -0.082   4.253  11.261  0.2793 -1.0995  0.7497
  388MOL0     H53512  -0.321   4.191  11.424  1.2634 -1.3727  2.2203
  388MOL0     H53513  -0.235   4.353  11.440  1.3920  1.0220  0.8399
  388MOL0     H53514  -0.024   4.214  11.459 -0.0619  1.0852 -0.3916
  388MOL0     H53515  -0.121   4.067  11.448  0.0056  1.1078 -1.8948
  388MOL0     H53516  -0.146   4.268  11.677 -1.7784  0.6993  0.4923
  388MOL0     H53517  -0.264   4.146  11.647  0.3491  2.4489  1.6797
  388MOL0     H53518   0.024   4.091  11.704 -0.0771  0.4115 -1.9796
  388MOL0     H53519  -0.094   3.960  11.693  2.3307 -0.0909  0.8984
  388MOL0     H53520  -0.224   4.010  11.868 -0.4454 -0.5997  0.1014
  388MOL0     H53521  -0.147   4.163  11.903  1.6807  0.0942  0.1938
  388MOL0     H53522  -0.048   4.051  12.054 -1.4512  2.0509 -1.7756
  388MOL0     H53523   0.084   4.019  11.937  0.0287 -2.3712 -2.9021
  388MOL0     H53524  -0.294   4.396  10.806  0.4086  0.7278 -1.4523
  388MOL0     H53525  -0.222   4.589  10.702 -2.4421 -4.0475 -0.7671
  388MOL0     H53526  -0.271   5.013  10.567 -0.0534  0.8577 -1.7750
  388MOL0     H53527  -0.209   5.222  10.471  0.7068  1.2348  0.2244
  388MOL0     H53528   0.496   6.977  11.326  3.1806  1.8058 -0.8038
  388MOL0     H53529   0.578   7.156  11.172  2.3859 -2.3957 -1.1493
  388MOL0     H53530   0.716   7.197  10.617 -2.5269 -1.0775 -0.5331
  388MOL0     H53531   0.769   7.401  10.481 -3.2343  0.7689 -3.2865
  388MOL0     H53532   0.442   7.681  10.438  1.0535 -4.3116 -2.5476
  388MOL0     H53533   0.532   7.776  10.555  1.1269 -0.9162  0.6336
  388MOL0     H53534   0.495   7.861  10.297 -1.7954 -1.5546  1.5428
  388MOL0     H53535   0.632   7.749  10.266  0.3600  0.3002  0.2339
  388MOL0     H53536   0.626   7.983  10.460 -0.1822 -0.7598  1.1645
  388MOL0     H53537   0.763   7.881  10.407  0.6365  2.4090  1.2704
  388MOL0     H53538   0.581   8.073  10.253  1.6937  2.9870  2.3664
  388MOL0     H53539   0.697   7.969  10.172 -1.3134 -2.3213  0.6805
  388MOL0     H53540   0.905   8.327  10.258 -0.6596  1.4934 -0.2955
  388MOL0     H53541   0.453   7.613  10.671 -2.0057 -2.9320  0.4667
  388MOL0     H53542   0.315   7.526  10.814 -1.1363 -0.0990  2.7329
  388MOL0     H53543   0.304   7.344  10.836 -0.6145 -0.4337 -1.3520
  388MOL0     H53544   0.408   7.436  10.936  0.1047 -4.1500 -0.6499
  389MOL0     O53545  10.375  11.461  10.462  0.3683 -0.0540 -0.6673
  389MOL0     C53546  10.251  11.464  10.457  0.5874  0.7354  0.2640
  389MOL0     O53547  10.179  11.434  10.344  0.0290 -0.0553 -0.5177
  389MOL0     C53548  10.251  11.371  10.249 -0.0416 -0.2829 -1.0745
  389MOL0     C53549  10.315  11.439  10.143 -0.7087 -0.0163 -0.0784
  389MOL0     C53550  10.388  11.373  10.042 -0.3190  0.4057 -0.2031
  389MOL0     C53551  10.411  11.230  10.051 -1.1264  0.0791 -0.3454
  389MOL0     O53552  10.496  11.178   9.957  0.3303  0.8445 -0.4515
  389MOL0     C53553  10.495  11.031   9.951 -0.0227  0.1544  0.1562
  389MOL0     C53554  10.597  10.987   9.852  0.2782 -0.2048 -0.0749
  389MOL0     C53555  10.588  10.838   9.815  0.1735 -0.0572  0.4583
  389MOL0     C53556  10.507  10.832   9.679  1.3760  0.9977 -0.1832
  389MOL0     C53557  10.418  10.707   9.667 -0.1133  0.2979  0.0204
  389MOL0     C53558  10.493  10.580   9.633  0.5245 -0.5171  0.1310
  389MOL0     C53559  10.514  10.554   9.489 -0.5532  0.8558  0.4553
  389MOL0     C53560  10.409  10.470   9.435 -0.3881 -0.2595 -0.5701
  389MOL0     N53561  10.424  10.470   9.288 -0.1213  0.2269  0.0030
  389MOL0     C53562  10.538  10.440   9.215 -1.5475  0.3465  0.5759
  389MOL0     C53563  10.502  10.459   9.086 -0.0532 -0.5345  0.4374
  389MOL0     C53564  10.579  10.461   8.957 -1.1902 -0.5042  0.8582
  389MOL0     C53565  10.550  10.336   8.873  0.0478 -0.4380  0.4200
  389MOL0     C53566  10.630  10.328   8.745  0.8985 -0.8265  0.5412
  389MOL0     C53567  10.609  10.208   8.648  0.4989  0.1506  0.7744
  389MOL0     O53568  10.609  10.082   8.717 -0.0817  0.4813 -1.2075
  389MOL0     C53569  10.700   9.980   8.688 -0.5989 -0.7513 -0.4689
  389MOL0     C53570  10.772   9.970   8.571 -1.0484 -1.0099  0.4836
  389MOL0     C53571  10.852   9.859   8.538  0.1681 -1.1499  0.4291
  389MOL0     C53572  10.916   9.852   8.402 -0.3081 -0.2460 -0.1691
  389MOL0     C53573  10.867   9.756   8.635  0.5955 -1.2606  0.3167
  389MOL0     C53574  10.953   9.634   8.611 -0.1069 -0.2995  0.2668
  389MOL0     O53575  10.920   9.520   8.676 -0.1493  0.4635 -0.3486
  389MOL0     C53576  10.983   9.409   8.644  1.0676  0.3897  0.9304
  389MOL0     C53577  10.962   9.326   8.528  0.7177  0.6374  0.3511
  389MOL0     C53578  11.050   9.225   8.489 -0.6890  0.0072 -0.5096
  389MOL0     C53579  11.163   9.201   8.569  0.6379  0.3909  0.1416
  389MOL0     O53580  11.254   9.102   8.536  0.2605  1.2319 -0.1296
  389MOL0     C53581  11.237   9.041   8.405 -0.0820 -0.5603  0.5006
  389MOL0     C53582  11.363   8.960   8.375  0.1536 -0.6422 -0.2387
  389MOL0     C53583  11.394   8.853   8.479 -0.3532  0.7548  0.4148
  389MOL0     C53584  11.510   8.765   8.445  0.0454 -0.2173 -0.1187
  389MOL0     C53585  11.655   8.818   8.464 -0.3068 -0.5333 -0.1642
  389MOL0     C53586  11.765   8.757   8.372  0.2684  0.5239  0.1824
  389MOL0     C53587  11.746   8.597   8.348  0.1130  0.2036  0.6478
  389MOL0     C53588  11.851   8.524   8.260  0.0784 -0.6449  0.2720
  389MOL0    Cl53589  12.010   8.474   8.330  0.3647 -0.2377  0.5012
  389MOL0     C53590  11.176   9.274   8.688 -0.0618  0.7883 -0.3005
  389MOL0     C53591  11.092   9.378   8.721  0.1521  0.4871  0.0506
  389MOL0     O53592  11.061   9.651   8.548 -0.1678 -0.3869 -0.2959
  389MOL0     C53593  10.794   9.771   8.757  0.4042  0.1473  0.0907
  389MOL0     C53594  10.709   9.878   8.782  1.6576 -0.1942 -0.0719
  389MOL0     N53595  10.380  10.519   9.083 -0.6158  0.3475 -0.7864
  389MOL0     N53596  10.334  10.526   9.206  0.2191  0.0725 -0.5208
  389MOL0     C53597  10.339  11.159  10.144 -0.4017  0.1804 -0.0771
  389MOL0     C53598  10.263  11.233  10.239  0.2126 -0.4911 -0.0618
  389MOL0     C53599  10.170  11.493  10.574 -1.0644  0.5235 -0.7988
  389MOL0     C53600  10.026  11.493  10.556  0.2329 -0.0847  0.1682
  389MOL0     C53601   9.944  11.525  10.660 -0.0818 -0.2533  0.6089
  389MOL0     C53602   9.992  11.551  10.790  0.3125 -0.1392  0.4703
  389MOL0     O53603   9.914  11.567  10.902 -0.1929 -0.3267 -0.4209
  389MOL0     C53604   9.776  11.572  10.891 -0.1203  0.3888 -0.8294
  389MOL0     C53605   9.721  11.571  11.041 -0.1144  0.5358  0.1978
  389MOL0     C53606   9.759  11.441  11.108 -0.5376 -0.6752 -0.1736
  389MOL0     C53607   9.705  11.319  11.024  0.0361 -0.7959 -0.0016
  389MOL0     C53608   9.740  11.186  11.074  0.0752  0.3041 -0.5711
  389MOL0     C53609   9.765  11.072  11.116 -0.5630 -0.6012 -0.0365
  389MOL0     C53610  10.126  11.561  10.812  0.5153  0.7271  0.0223
  389MOL0     C53611  10.217  11.530  10.705 -0.2081 -0.0235  0.4089
  389MOL0     C53612  10.364  11.544  10.734 -0.1515 -0.2184 -0.4788
  389MOL0     H53613  10.311  11.546  10.129 -2.1498 -0.0618 -0.1383
  389MOL0     H53614  10.441  11.433   9.969  1.1616  1.8659  1.9413
  389MOL0     H53615  10.402  11.001   9.902  1.3370  0.3383 -2.7173
  389MOL0     H53616  10.504  10.981  10.048  0.2414 -1.7337 -0.8031
  389MOL0     H53617  10.584  11.051   9.765 -1.4762 -1.1699 -0.5673
  389MOL0     H53618  10.694  11.013   9.894 -0.3522  0.7600  0.8240
  389MOL0     H53619  10.684  10.789   9.797  0.5139  1.5173 -2.9154
  389MOL0     H53620  10.548  10.776   9.895  0.3043 -1.7455 -0.7301
  389MOL0     H53621  10.447  10.923   9.668 -0.6368 -0.1359  0.6819
  389MOL0     H53622  10.567  10.832   9.588  0.3093  0.5603 -0.9157
  389MOL0     H53623  10.350  10.724   9.582  0.9678 -0.7349 -1.0907
  389MOL0     H53624  10.351  10.697   9.753 -1.7991 -0.2140 -1.2908
  389MOL0     H53625  10.591  10.594   9.680  0.3287 -2.5393  1.2447
  389MOL0     H53626  10.449  10.496   9.687  1.1676  0.4551  2.3019
  389MOL0     H53627  10.605  10.497   9.468 -1.3354 -1.9953  3.7153
  389MOL0     H53628  10.524  10.643   9.427  1.9411  0.9903  0.9517
  389MOL0     H53629  10.404  10.369   9.477 -1.2024  0.0355  0.0725
  389MOL0     H53630  10.313  10.513   9.467  1.9885  2.6974  3.6534
  389MOL0     H53631  10.638  10.416   9.249 -1.1715  1.7812  0.5356
  389MOL0     H53632  10.687  10.465   8.975 -0.8109 -0.6160 -1.1336
  389MOL0     H53633  10.545  10.550   8.902 -0.0592  0.7357  2.0874
  389MOL0     H53634  10.581  10.254   8.938 -1.0048 -0.4332  0.9412
  389MOL0     H53635  10.448  10.321   8.837 -0.0271  0.6715  0.1341
  389MOL0     H53636  10.629  10.426   8.698  1.9796  0.3050  2.7538
  389MOL0     H53637  10.737  10.322   8.767  0.7809 -0.1121  1.3202
  389MOL0     H53638  10.519  10.235   8.593  1.2485 -2.3953 -1.9542
  389MOL0     H53639  10.691  10.213   8.576  1.0592  0.3534  1.4162
  389MOL0     H53640  10.765  10.042   8.490  0.9973 -2.2244 -0.8741
  389MOL0     H53641  10.883   9.935   8.339 -3.7279  0.4174  2.2016
  389MOL0     H53642  10.883   9.759   8.355  0.5085  0.1008 -1.4578
  389MOL0     H53643  11.025   9.846   8.403 -0.3826 -2.5097  0.1158
  389MOL0     H53644  10.889   9.345   8.449  1.7225  2.1495 -0.2673
  389MOL0     H53645  11.035   9.179   8.392  0.6528  0.7737 -1.1211
  389MOL0     H53646  11.157   8.968   8.392 -1.1745  0.7429 -0.4848
  389MOL0     H53647  11.221   9.123   8.334  0.1318 -0.1014  0.9727
  389MOL0     H53648  11.350   8.917   8.275 -0.5143  1.7783 -1.2612
  389MOL0     H53649  11.449   9.026   8.366  1.3806 -2.1871 -0.3304
  389MOL0     H53650  11.304   8.790   8.484  0.2360 -0.0174  1.6852
  389MOL0     H53651  11.403   8.889   8.582 -0.8827  1.0265  0.3721
  389MOL0     H53652  11.486   8.722   8.348  0.6583  0.3128 -0.5129
  389MOL0     H53653  11.508   8.668   8.496 -0.5696  0.0440  0.3658
  389MOL0     H53654  11.658   8.918   8.421 -0.9918 -1.9230 -3.8105
  389MOL0     H53655  11.686   8.817   8.569  2.6342 -0.8270 -0.9528
  389MOL0     H53656  11.859   8.756   8.428 -0.1811 -0.1654  0.9513
  389MOL0     H53657  11.774   8.817   8.281  0.7112  0.9594  0.5075
  389MOL0     H53658  11.650   8.581   8.300  1.0707  2.1299 -2.1387
  389MOL0     H53659  11.753   8.561   8.451 -1.8740  2.7157  1.7750
  389MOL0     H53660  11.884   8.585   8.176  0.8945 -0.3136  0.8180
  389MOL0     H53661  11.802   8.441   8.209 -2.7100  1.1283 -0.1411
  389MOL0     H53662  11.262   9.257   8.752 -3.0087  1.2693  4.2325
  389MOL0     H53663  11.126   9.439   8.803  0.7951 -2.0854  1.7974
  389MOL0     H53664  10.798   9.691   8.830  1.8318 -1.1288 -1.3220
  389MOL0     H53665  10.653   9.885   8.874 -0.5431 -1.2729 -1.2421
  389MOL0     H53666  10.329  11.054  10.169 -4.2209  0.9028  2.1381
  389MOL0     H53667  10.243  11.172  10.327  2.1911 -0.0930  0.7127
  389MOL0     H53668   9.997  11.473  10.454 -1.7679 -1.9938  1.0234
  389MOL0     H53669   9.839  11.510  10.635  0.6814 -1.4583 -2.2177
  389MOL0     H53670   9.758  11.666  10.838 -0.7374 -0.8609 -2.9606
  389MOL0     H53671   9.727  11.499  10.825 -3.2573  4.1135 -3.0711
  389MOL0     H53672   9.613  11.574  11.028 -0.1003  3.0443  0.1714
  389MOL0     H53673   9.761  11.647  11.109  4.1968 -0.7161 -0.6132
  389MOL0     H53674   9.869  11.442  11.113 -0.4638 -0.4000 -1.4777
  389MOL0     H53675   9.729  11.431  11.212  2.0966 -3.7792  0.4714
  389MOL0     H53676   9.752  11.313  10.926 -1.6856  0.4187 -0.9587
  389MOL0     H53677   9.597  11.323  11.005 -0.1100 -0.6607  0.8245
  389MOL0     H53678   9.773  10.976  11.164 -2.4325 -2.9325 -3.9470
  389MOL0     H53679  10.174  11.601  10.901  1.6451 -3.4917  1.5660
  389MOL0     H53680  10.372  11.576  10.838 -0.0524 -3.4766  0.5980
  389MOL0     H53681  10.414  11.449  10.716 -0.6807 -1.3849  3.4772
  389MOL0     H53682  10.410  11.617  10.666 -0.9987  0.5922 -0.2023
  390MOL0     O53683  11.141   4.217   8.536  0.9966  0.1649 -0.3052
  390MOL0     C53684  11.256   4.244   8.560 -0.8132 -0.9086 -0.2033
  390MOL0     O53685  11.297   4.371   8.583 -0.4158 -0.5031  0.4092
  390MOL0     C53686  11.192   4.463   8.597 -0.5925 -0.1545 -0.4271
  390MOL0     C53687  11.166   4.522   8.726 -0.9242  0.3770  0.1173
  390MOL0     C53688  11.066   4.620   8.736 -0.0495 -0.7557  0.3682
  390MOL0     C53689  10.990   4.665   8.630  0.7251 -0.6642 -0.5104
  390MOL0     O53690  10.891   4.767   8.661  0.0484 -0.6389  0.0354
  390MOL0     C53691  10.880   4.879   8.566 -0.5966  0.1364 -0.6603
  390MOL0     C53692  10.879   5.020   8.636  0.6881  1.1527  0.1620
  390MOL0     C53693  10.972   5.113   8.576  0.2687 -0.4869 -0.2949
  390MOL0     C53694  10.929   5.261   8.604  1.5015  0.0569 -0.6454
  390MOL0     C53695  11.017   5.361   8.543 -0.8878 -1.0693  0.5284
  390MOL0     C53696  11.000   5.495   8.608 -0.2985  0.4264  0.2023
  390MOL0     C53697  11.066   5.607   8.514  0.2588  0.2090 -0.0596
  390MOL0     C53698  11.070   5.734   8.589 -0.2912  0.3647  0.3226
  390MOL0     N53699  11.134   5.828   8.511  0.9142 -0.2275  0.5115
  390MOL0     C53700  11.073   5.935   8.458  0.4625  0.1969  0.1424
  390MOL0     C53701  11.179   6.003   8.397  0.3163 -0.0286 -0.3839
  390MOL0     C53702  11.165   6.132   8.325 -0.4821  0.6212  0.2946
  390MOL0     C53703  11.063   6.232   8.390 -1.3534  0.0053 -0.0451
  390MOL0     C53704  11.125   6.299   8.518 -0.2589 -0.6369  0.9212
  390MOL0     C53705  11.044   6.407   8.567 -0.8632  0.1102  0.7681
  390MOL0     O53706  11.057   6.527   8.485 -0.2947  0.2203 -0.3425
  390MOL0     C53707  11.165   6.611   8.508 -0.3194 -0.1729  0.0543
  390MOL0     C53708  11.260   6.582   8.606 -0.6162 -0.0471  0.5036
  390MOL0     C53709  11.389   6.647   8.609  1.2783 -0.1446 -0.4754
  390MOL0     C53710  11.500   6.581   8.690  0.3830 -0.5008  0.5512
  390MOL0     C53711  11.404   6.769   8.539 -0.3870  0.8215  0.7690
  390MOL0     C53712  11.516   6.867   8.566  0.2582 -0.1756 -0.2984
  390MOL0     O53713  11.528   6.963   8.470  0.1724 -0.5430 -0.5384
  390MOL0     C53714  11.580   7.080   8.519  0.5039 -0.9218 -0.0714
  390MOL0     C53715  11.496   7.187   8.561  0.3691 -0.4404  0.1035
  390MOL0     C53716  11.544   7.299   8.618  0.0983 -0.1467 -0.1606
  390MOL0     C53717  11.688   7.311   8.640 -0.8284 -0.1468  0.5678
  390MOL0     O53718  11.743   7.420   8.701  0.0828 -0.0061  0.6470
  390MOL0     C53719  11.672   7.537   8.698  0.2595 -0.8667 -0.5352
  390MOL0     C53720  11.758   7.645   8.770  0.0845  0.2508  0.1649
  390MOL0     C53721  11.724   7.640   8.915  0.1329  1.0725 -0.4340
  390MOL0     C53722  11.729   7.770   8.994 -1.2975  0.1247  0.7295
  390MOL0     C53723  11.743   7.769   9.147 -0.3406 -0.2999 -0.5427
  390MOL0     C53724  11.618   7.705   9.201 -0.0707 -1.1533  0.0122
  390MOL0     C53725  11.637   7.658   9.342  0.7961 -0.7059 -0.7591
  390MOL0     C53726  11.503   7.660   9.402  0.6619  0.0530 -0.5776
  390MOL0    Cl53727  11.502   7.606   9.579  0.6821 -0.1026  0.0571
  390MOL0     C53728  11.774   7.208   8.604 -0.2229 -0.1359 -0.0324
  390MOL0     C53729  11.714   7.099   8.539  0.1102 -0.0711 -0.4833
  390MOL0     O53730  11.591   6.847   8.658 -0.6837 -0.6755  0.5286
  390MOL0     C53731  11.300   6.799   8.451  0.3023 -0.0341  0.4679
  390MOL0     C53732  11.194   6.721   8.425  0.1183  0.7510  0.1316
  390MOL0     N53733  11.298   5.937   8.427  0.4297 -0.1096 -0.3387
  390MOL0     N53734  11.266   5.830   8.487 -1.0931 -0.2040 -0.5614
  390MOL0     C53735  11.019   4.617   8.499  0.0035  0.0525  0.1638
  390MOL0     C53736  11.119   4.520   8.482 -0.5523 -0.1839  0.5240
  390MOL0     C53737  11.365   4.137   8.552  0.3974 -0.1573 -0.5409
  390MOL0     C53738  11.500   4.177   8.553 -0.0189 -0.3726  0.7672
  390MOL0     C53739  11.599   4.085   8.538  0.8589  0.7322 -0.5366
  390MOL0     C53740  11.573   3.942   8.513  1.2539 -0.9842 -1.1603
  390MOL0     O53741  11.673   3.864   8.481 -0.6814  0.1896 -0.2549
  390MOL0     C53742  11.672   3.819   8.340 -0.6712 -0.1300 -0.5642
  390MOL0     C53743  11.738   3.924   8.247  0.1030  0.6209  0.5121
  390MOL0     C53744  11.719   3.894   8.096  1.0577  0.7484  0.8867
  390MOL0     C53745  11.594   3.952   8.030  0.1973 -0.6779  0.0868
  390MOL0     C53746  11.477   3.966   8.116  0.0691 -0.4718 -0.3958
  390MOL0     C53747  11.379   4.000   8.178  0.8168 -0.4299 -0.4584
  390MOL0     C53748  11.430   3.909   8.505 -0.0570  0.1254  0.5536
  390MOL0     C53749  11.336   4.000   8.539 -0.5037  0.5814  0.5918
  390MOL0     C53750  11.192   3.938   8.544  0.7765  0.1403 -0.5789
  390MOL0     H53751  11.209   4.491   8.821  0.7040  0.0055 -0.7077
  390MOL0     H53752  11.040   4.666   8.830 -1.0118  2.7711 -1.4741
  390MOL0     H53753  10.792   4.870   8.502 -0.5037  2.6129 -1.2181
  390MOL0     H53754  10.969   4.875   8.502 -1.4259  3.3429 -2.2113
  390MOL0     H53755  10.776   5.051   8.621 -0.2922 -1.5803  0.6153
  390MOL0     H53756  10.885   4.996   8.743 -0.9235 -3.4332 -0.5393
  390MOL0     H53757  11.076   5.099   8.607  0.7381  1.9906 -0.5494
  390MOL0     H53758  10.966   5.090   8.470  1.0694 -2.1730 -0.0073
  390MOL0     H53759  10.828   5.269   8.562  2.2127 -2.5289 -3.1790
  390MOL0     H53760  10.905   5.294   8.706  1.0985  3.4168 -1.6983
  390MOL0     H53761  10.977   5.373   8.442 -2.1451 -0.7706  1.0393
  390MOL0     H53762  11.121   5.330   8.535 -0.2111  1.0967  0.2310
  390MOL0     H53763  10.894   5.520   8.624  0.1011  1.9759  0.5952
  390MOL0     H53764  11.062   5.494   8.698  3.7619 -2.7527 -2.2386
  390MOL0     H53765  11.004   5.617   8.424 -0.9681  3.1845  0.9942
  390MOL0     H53766  11.170   5.577   8.496  0.8423  1.6605  0.7463
  390MOL0     H53767  10.975   5.779   8.619 -0.1686  0.0500  1.2297
  390MOL0     H53768  11.127   5.719   8.682  1.3665 -1.0026 -0.8393
  390MOL0     H53769  10.966   5.937   8.443  0.8321 -1.8193 -4.6299
  390MOL0     H53770  11.118   6.106   8.230 -0.9114  1.2188  0.3374
  390MOL0     H53771  11.258   6.185   8.302 -0.4222  0.4644  0.1749
  390MOL0     H53772  11.039   6.314   8.321  2.4785  1.5985  0.2929
  390MOL0     H53773  10.970   6.183   8.421 -1.5669  0.3572 -0.1203
  390MOL0     H53774  11.120   6.222   8.596  0.5424 -0.0060  1.6181
  390MOL0     H53775  11.227   6.327   8.492 -0.3707 -1.1169 -0.0863
  390MOL0     H53776  10.941   6.371   8.569 -0.8285 -0.0333  2.8153
  390MOL0     H53777  11.070   6.433   8.670 -0.9065  3.8385 -0.0334
  390MOL0     H53778  11.253   6.495   8.670  4.2203 -0.7661  0.4527
  390MOL0     H53779  11.455   6.510   8.760  0.6957 -2.3846 -1.0820
  390MOL0     H53780  11.569   6.640   8.751 -1.6595  0.2442  2.2454
  390MOL0     H53781  11.550   6.520   8.615 -1.2663  0.0585 -1.0929
  390MOL0     H53782  11.388   7.180   8.549  0.3157  0.2904  0.0830
  390MOL0     H53783  11.465   7.360   8.660 -0.5764 -1.3727  0.3917
  390MOL0     H53784  11.663   7.559   8.591  1.3216 -0.0182 -0.4654
  390MOL0     H53785  11.571   7.533   8.741  0.5229 -1.2900  0.0597
  390MOL0     H53786  11.864   7.638   8.745  0.1134 -1.0251  0.5994
  390MOL0     H53787  11.726   7.741   8.729 -1.9507  1.0652  3.2521
  390MOL0     H53788  11.797   7.575   8.965 -0.7339  1.2644  1.1425
  390MOL0     H53789  11.625   7.597   8.934  0.4436  0.8313  0.6953
  390MOL0     H53790  11.648   7.838   8.964 -0.7620  0.9969  1.2229
  390MOL0     H53791  11.809   7.832   8.953 -1.5123 -0.9800 -1.5166
  390MOL0     H53792  11.833   7.719   9.185 -0.1057  1.8533  2.0129
  390MOL0     H53793  11.751   7.871   9.185  1.0652 -0.7610  0.4855
  390MOL0     H53794  11.593   7.616   9.144  0.0179 -0.2384 -1.5147
  390MOL0     H53795  11.530   7.768   9.183  0.7881 -0.3680 -1.6741
  390MOL0     H53796  11.704   7.704   9.415  0.9439  0.8778 -1.8532
  390MOL0     H53797  11.674   7.555   9.333  2.6709 -0.0055 -1.5087
  390MOL0     H53798  11.441   7.595   9.341 -0.0789  0.6417 -0.4640
  390MOL0     H53799  11.458   7.760   9.404 -1.0437 -0.5890 -2.9106
  390MOL0     H53800  11.877   7.206   8.638 -0.0785 -2.9161 -0.3721
  390MOL0     H53801  11.788   7.023   8.515  0.6215 -0.1401  1.2168
  390MOL0     H53802  11.314   6.885   8.386  0.9978 -0.4861  0.0180
  390MOL0     H53803  11.131   6.752   8.341 -2.6079  0.0188  1.7778
  390MOL0     H53804  10.955   4.649   8.418 -0.9863  0.3754  1.0460
  390MOL0     H53805  11.121   4.465   8.388 -3.1859 -2.6025  1.7478
  390MOL0     H53806  11.527   4.280   8.573  2.1388  0.2461 -3.9646
  390MOL0     H53807  11.705   4.106   8.552  0.4840  1.0941  2.3183
  390MOL0     H53808  11.719   3.721   8.330  0.8484  0.6234 -1.1808
  390MOL0     H53809  11.571   3.814   8.299 -1.9273  2.0168  1.9932
  390MOL0     H53810  11.844   3.929   8.272  0.5432 -4.6519  0.7778
  390MOL0     H53811  11.690   4.018   8.277 -0.2786  0.9682 -1.1010
  390MOL0     H53812  11.800   3.940   8.039 -0.1135  0.9204 -0.7029
  390MOL0     H53813  11.731   3.785   8.084  2.0189  0.9038  0.3764
  390MOL0     H53814  11.564   3.891   7.944  0.7195 -3.1304  1.5336
  390MOL0     H53815  11.617   4.051   7.989 -2.5050  0.1131  0.2474
  390MOL0     H53816  11.285   4.022   8.224 -0.0213 -3.5295 -0.4486
  390MOL0     H53817  11.407   3.806   8.479 -3.4057  0.5543  1.3714
  390MOL0     H53818  11.137   3.969   8.633 -2.0110  1.1588 -2.5196
  390MOL0     H53819  11.127   3.976   8.465 -1.4634 -3.0888 -0.4625
  390MOL0     H53820  11.194   3.829   8.545 -0.0230  0.1176  0.4822
  391MOL0     O53821   4.891   7.299   9.433 -0.3907 -0.5922 -0.1188
  391MOL0     C53822   4.809   7.201   9.433  0.1577  0.0781 -0.2427
  391MOL0     O53823   4.772   7.144   9.553  0.3070 -0.4042 -0.4098
  391MOL0     C53824   4.840   7.175   9.678  1.1819  0.2007 -0.5477
  391MOL0     C53825   4.799   7.089   9.792  0.4755  0.0652 -0.8534
  391MOL0     C53826   4.855   7.093   9.919 -0.4970 -0.4087 -0.8491
  391MOL0     C53827   4.952   7.186   9.943 -0.7288 -0.7339  0.1257
  391MOL0     O53828   5.023   7.204  10.064 -0.4286  0.4634 -0.0337
  391MOL0     C53829   5.058   7.071  10.117  0.7320  0.9234  0.1562
  391MOL0     C53830   5.166   7.069  10.220 -0.5347  0.6976 -0.4010
  391MOL0     C53831   5.102   7.140  10.337 -0.0654  0.3684 -1.2170
  391MOL0     C53832   5.208   7.201  10.442 -0.2314 -0.3220 -0.3531
  391MOL0     C53833   5.155   7.217  10.593 -0.4618 -0.0377 -0.8247
  391MOL0     C53834   5.260   7.304  10.664 -0.5907 -0.2751 -0.0299
  391MOL0     C53835   5.395   7.246  10.704 -0.1003  0.0650  0.0706
  391MOL0     C53836   5.381   7.136  10.818 -0.0804  0.3199 -0.0150
  391MOL0     N53837   5.513   7.077  10.872 -0.2751  0.3741 -0.0890
  391MOL0     C53838   5.631   7.073  10.801  0.4273 -0.1100  0.4750
  391MOL0     C53839   5.727   7.045  10.889 -0.5317  0.7758  0.1898
  391MOL0     C53840   5.867   7.010  10.858  0.5087 -0.0780  0.2532
  391MOL0     C53841   5.929   7.130  10.791 -0.3098  0.8706 -0.5937
  391MOL0     C53842   6.078   7.110  10.790  0.1931 -0.6808 -0.5069
  391MOL0     C53843   6.148   7.222  10.705  0.3765 -0.4089  0.5318
  391MOL0     O53844   6.093   7.208  10.576  0.5241 -0.4079 -0.5357
  391MOL0     C53845   6.176   7.177  10.476  1.1627  0.3048  0.6512
  391MOL0     C53846   6.271   7.263  10.423 -1.0821  1.0799 -0.5589
  391MOL0     C53847   6.348   7.228  10.311  0.7360  0.2229 -0.1449
  391MOL0     C53848   6.439   7.332  10.248 -0.0953 -0.3411  0.0527
  391MOL0     C53849   6.339   7.094  10.259  0.1255 -0.2956  0.1263
  391MOL0     C53850   6.407   7.048  10.135  0.0979  0.9417 -0.0311
  391MOL0     O53851   6.368   7.120  10.025  0.2966  0.2225  0.9116
  391MOL0     C53852   6.427   7.113   9.904 -0.2297 -0.6535  0.5069
  391MOL0     C53853   6.434   7.222   9.823  0.0693  1.0258 -0.4452
  391MOL0     C53854   6.474   7.215   9.689  0.1809  0.2194  0.1870
  391MOL0     C53855   6.519   7.092   9.629 -0.3069 -0.0082 -0.8961
  391MOL0     O53856   6.569   7.097   9.497  0.2963  0.1388  0.3921
  391MOL0     C53857   6.606   6.973   9.440 -0.0795 -0.5438  0.1137
  391MOL0     C53858   6.656   6.996   9.302 -0.2839  0.2894 -0.6670
  391MOL0     C53859   6.648   6.879   9.202  0.4480 -0.3253  0.1390
  391MOL0     C53860   6.531   6.899   9.107 -0.0289  1.0000  0.0471
  391MOL0     C53861   6.509   6.795   8.998  0.2666 -0.6716 -0.1851
  391MOL0     C53862   6.626   6.804   8.900  0.3658 -0.7109 -0.8979
  391MOL0     C53863   6.629   6.942   8.834 -0.2825 -0.2703 -0.4853
  391MOL0     C53864   6.720   6.927   8.708  0.5028  0.1819 -0.4684
  391MOL0    Cl53865   6.660   6.833   8.574  0.2955  0.0832 -0.3932
  391MOL0     C53866   6.516   6.976   9.712  0.5844 -0.3418  0.0327
  391MOL0     C53867   6.472   6.989   9.842 -0.2783 -0.2325 -0.5612
  391MOL0     O53868   6.472   6.943  10.135 -0.3160  0.7054 -0.5836
  391MOL0     C53869   6.250   7.006  10.319 -0.2075  0.3702 -0.7424
  391MOL0     C53870   6.166   7.047  10.421 -0.6948 -0.4158  1.0493
  391MOL0     N53871   5.674   7.041  11.018  0.3177  0.4468  0.8016
  391MOL0     N53872   5.545   7.063  11.003 -0.0542  0.1973  0.5606
  391MOL0     C53873   4.988   7.270   9.837  0.3766 -0.9367 -0.2354
  391MOL0     C53874   4.937   7.268   9.708  0.0382 -0.2093  0.1237
  391MOL0     C53875   4.749   7.145   9.307  0.8143  0.4041 -0.6464
  391MOL0     C53876   4.646   7.048   9.318  0.0690  0.4393 -0.2737
  391MOL0     C53877   4.593   6.966   9.213 -0.0598 -0.3273  0.5925
  391MOL0     C53878   4.631   7.001   9.082 -0.0633 -0.4539  0.5500
  391MOL0     O53879   4.577   6.926   8.981 -0.3947  0.1655  0.3916
  391MOL0     C53880   4.667   6.857   8.899 -0.7232 -0.4175 -0.2539
  391MOL0     C53881   4.584   6.775   8.804  0.4132 -1.5140  0.6274
  391MOL0     C53882   4.476   6.688   8.871 -0.7431  0.6372 -0.7246
  391MOL0     C53883   4.431   6.569   8.776  0.3406 -0.9508  0.7675
  391MOL0     C53884   4.538   6.502   8.697  1.1212 -0.7319  0.0253
  391MOL0     C53885   4.603   6.462   8.611 -0.4122 -1.2409 -0.0135
  391MOL0     C53886   4.734   7.097   9.067  0.7807 -0.4149  0.2003
  391MOL0     C53887   4.788   7.165   9.169  0.6851  0.4663 -0.7701
  391MOL0     C53888   4.879   7.271   9.138  0.1943 -0.1849  0.2838
  391MOL0     H53889   4.744   7.001   9.761  0.5359 -0.2216 -0.1459
  391MOL0     H53890   4.822   7.023   9.995  1.4993  0.7761  1.2750
  391MOL0     H53891   5.096   7.002  10.042 -0.4354  0.0493  0.3357
  391MOL0     H53892   4.964   7.033  10.158  1.1289  1.8230  2.0108
  391MOL0     H53893   5.209   6.971  10.243  2.4329  2.2152  0.9891
  391MOL0     H53894   5.258   7.120  10.188  0.7162 -1.3044 -0.1887
  391MOL0     H53895   5.044   7.229  10.310 -2.0710  0.2982  2.2470
  391MOL0     H53896   5.029   7.077  10.389  0.6863  0.5027  0.0652
  391MOL0     H53897   5.295   7.136  10.457 -0.1544  0.1370  1.4022
  391MOL0     H53898   5.244   7.299  10.408 -1.7824  0.2556 -0.4041
  391MOL0     H53899   5.122   7.125  10.641 -0.4544  1.7568  3.0128
  391MOL0     H53900   5.055   7.263  10.589 -2.1305 -3.4575 -1.7526
  391MOL0     H53901   5.262   7.403  10.617 -0.4052 -1.0042 -1.6233
  391MOL0     H53902   5.211   7.325  10.760 -3.8411  0.1320 -1.6291
  391MOL0     H53903   5.458   7.330  10.734  0.3815  0.5529 -2.1245
  391MOL0     H53904   5.449   7.210  10.617 -1.6926  2.3647 -2.0142
  391MOL0     H53905   5.326   7.179  10.902 -1.1365  2.4882 -1.7181
  391MOL0     H53906   5.325   7.051  10.776 -1.9164  0.5049  1.8957
  391MOL0     H53907   5.646   7.078  10.693  0.9323  0.2443  0.5585
  391MOL0     H53908   5.880   6.921  10.795  1.9424  0.7520 -0.6922
  391MOL0     H53909   5.912   6.987  10.955  0.1153  0.0064  0.4537
  391MOL0     H53910   5.889   7.146  10.691 -0.4428  1.3999 -0.4619
  391MOL0     H53911   5.900   7.219  10.848 -1.9321  0.2364 -0.3897
  391MOL0     H53912   6.111   7.112  10.894 -3.2551 -1.8245  0.7464
  391MOL0     H53913   6.100   7.006  10.765 -0.6683 -1.5817  2.1201
  391MOL0     H53914   6.134   7.325  10.738  0.7331 -0.6515  1.4704
  391MOL0     H53915   6.254   7.198  10.695  0.1302 -1.0390 -0.7820
  391MOL0     H53916   6.289   7.361  10.466 -1.5982  1.2407 -0.7125
  391MOL0     H53917   6.530   7.324  10.309 -0.8261  1.2151  1.4251
  391MOL0     H53918   6.401   7.434  10.260  2.4288  0.7608 -0.6223
  391MOL0     H53919   6.459   7.302  10.145 -0.8192 -1.3044  0.1712
  391MOL0     H53920   6.407   7.311   9.878 -0.4803 -0.0281  1.0727
  391MOL0     H53921   6.488   7.303   9.628  1.9014 -0.6504 -0.7739
  391MOL0     H53922   6.675   6.918   9.505 -0.5861  0.4314  1.4976
  391MOL0     H53923   6.512   6.917   9.429 -2.1165  2.5495  0.6050
  391MOL0     H53924   6.600   7.081   9.264  3.2717  3.2649  0.1292
  391MOL0     H53925   6.760   7.028   9.317 -0.8154  1.1183  1.6316
  391MOL0     H53926   6.644   6.779   9.246 -0.4974 -1.0621 -1.5392
  391MOL0     H53927   6.732   6.889   9.134  0.6144  0.8812  0.4835
  391MOL0     H53928   6.532   7.000   9.065  0.2059  0.9102 -0.1632
  391MOL0     H53929   6.432   6.893   9.153 -0.2242 -3.5839 -0.5682
  391MOL0     H53930   6.505   6.699   9.050  3.2210 -0.9126 -0.2161
  391MOL0     H53931   6.416   6.806   8.941  0.9823 -3.5058 -2.0996
  391MOL0     H53932   6.609   6.733   8.818  0.0987 -2.1977  0.4055
  391MOL0     H53933   6.718   6.793   8.958 -0.5880 -0.0603  0.8219
  391MOL0     H53934   6.683   7.006   8.905  0.5159 -1.9929  0.5435
  391MOL0     H53935   6.532   6.984   8.808 -0.6701 -0.5064  0.5198
  391MOL0     H53936   6.813   6.878   8.739 -0.4672 -2.6988 -1.8363
  391MOL0     H53937   6.734   7.032   8.682 -0.0440 -0.0571 -1.7792
  391MOL0     H53938   6.537   6.874   9.684 -0.9560 -0.5674 -0.3665
  391MOL0     H53939   6.457   6.907   9.911 -1.4218 -0.4723 -1.0759
  391MOL0     H53940   6.260   6.906  10.278  1.2401  1.1657 -2.4901
  391MOL0     H53941   6.105   6.973  10.472 -1.7721 -0.7350 -0.6558
  391MOL0     H53942   5.070   7.339   9.853 -0.2901  0.5813 -2.7589
  391MOL0     H53943   4.986   7.326   9.631  1.5924 -2.5959 -0.7842
  391MOL0     H53944   4.604   7.022   9.415 -0.0250 -1.9167 -0.8769
  391MOL0     H53945   4.522   6.887   9.236  0.2748 -1.5284 -2.1556
  391MOL0     H53946   4.738   6.927   8.853 -0.4203  1.4855  2.8178
  391MOL0     H53947   4.710   6.778   8.960 -0.0196  0.1423 -0.0068
  391MOL0     H53948   4.659   6.706   8.765 -1.2935 -4.2339  1.8180
  391MOL0     H53949   4.542   6.834   8.721 -0.1084 -0.3143  1.7078
  391MOL0     H53950   4.526   6.639   8.955  1.6487 -4.9406 -4.7798
  391MOL0     H53951   4.390   6.742   8.911  0.4254  1.7700  0.3968
  391MOL0     H53952   4.357   6.608   8.706 -0.6852  2.1060  3.2863
  391MOL0     H53953   4.374   6.489   8.824 -0.2267 -2.2365 -1.8864
  391MOL0     H53954   4.670   6.432   8.534 -0.0341  2.3773 -1.2834
  391MOL0     H53955   4.766   7.123   8.967 -0.5916 -0.8243 -0.3629
  391MOL0     H53956   4.864   7.314   9.039 -2.6358  1.2341  1.2501
  391MOL0     H53957   4.865   7.346   9.216 -2.6192 -1.8805  1.5776
  391MOL0     H53958   4.983   7.235   9.147 -0.4279 -1.7312  2.1450
  392MOL0     O53959   3.875   7.903   3.930  0.1467  0.5395 -0.2988
  392MOL0     C53960   3.875   7.990   3.840 -0.5240 -0.1179  0.3923
  392MOL0     O53961   3.964   8.094   3.833 -0.2714 -0.3035  0.3286
  392MOL0     C53962   4.072   8.095   3.914  0.7838  0.0545  0.5494
  392MOL0     C53963   4.193   8.050   3.870  0.2357  0.1293  0.6034
  392MOL0     C53964   4.306   8.072   3.952 -0.0503  0.2508 -0.6753
  392MOL0     C53965   4.297   8.113   4.083  0.7245 -0.9227  1.5366
  392MOL0     O53966   4.411   8.124   4.143 -0.8030 -1.1882  0.4265
  392MOL0     C53967   4.417   8.172   4.283  0.0380 -0.9465  0.5555
  392MOL0     C53968   4.409   8.325   4.300  0.3103 -0.0013  0.1782
  392MOL0     C53969   4.511   8.389   4.222 -1.1335 -0.1270  0.0504
  392MOL0     C53970   4.519   8.539   4.251  0.8863  0.7239 -0.3438
  392MOL0     C53971   4.609   8.602   4.142  0.4982 -0.1722  0.5437
  392MOL0     C53972   4.608   8.755   4.139  0.7406 -0.3278 -0.4481
  392MOL0     C53973   4.693   8.831   4.041 -0.4502  0.3847 -0.7650
  392MOL0     C53974   4.839   8.808   4.058 -0.1297  0.3024  0.2294
  392MOL0     N53975   4.901   8.871   4.177  0.3770  0.5759 -0.3458
  392MOL0     C53976   5.008   8.953   4.173  1.0609  0.0306  0.5055
  392MOL0     C53977   5.040   8.982   4.304 -0.6324 -0.1718 -0.1808
  392MOL0     C53978   5.147   9.066   4.363  0.6004  0.4739 -0.4865
  392MOL0     C53979   5.211   8.997   4.476  0.2213  0.1421 -0.3346
  392MOL0     C53980   5.294   8.870   4.421  0.4401 -0.3299 -1.0478
  392MOL0     C53981   5.356   8.819   4.554  0.3840  0.6387 -0.1246
  392MOL0     O53982   5.448   8.915   4.610 -0.2840  0.5764 -0.8298
  392MOL0     C53983   5.480   8.890   4.743 -0.5445  0.2603  0.6466
  392MOL0     C53984   5.542   8.999   4.799 -0.1530 -0.5972 -0.3659
  392MOL0     C53985   5.592   9.007   4.925 -0.2417 -1.1417 -0.7118
  392MOL0     C53986   5.662   9.139   4.950 -0.6394  0.8523 -0.3115
  392MOL0     C53987   5.599   8.890   5.004  1.0247  1.2621 -0.1208
  392MOL0     C53988   5.644   8.896   5.145  0.0001 -0.7598  0.3153
  392MOL0     O53989   5.550   8.892   5.237 -0.4083  0.0060  0.5239
  392MOL0     C53990   5.572   8.853   5.370 -0.2714 -0.6377  0.0898
  392MOL0     C53991   5.651   8.739   5.397  1.0444  0.0544  0.0240
  392MOL0     C53992   5.685   8.708   5.528  0.0134  0.1511  0.0373
  392MOL0     C53993   5.648   8.781   5.639 -0.2281  0.1011 -1.5619
  392MOL0     O53994   5.670   8.734   5.766 -0.0739 -0.8007  0.2572
  392MOL0     C53995   5.636   8.826   5.866  0.5601  0.1443 -0.2971
  392MOL0     C53996   5.684   8.764   5.993  0.9539  0.1863 -0.4959
  392MOL0     C53997   5.679   8.866   6.112  0.2980 -0.3242  0.4313
  392MOL0     C53998   5.652   8.777   6.236 -0.3629 -0.4986 -0.8646
  392MOL0     C53999   5.633   8.863   6.357  0.0776 -0.8165  0.1910
  392MOL0     C54000   5.506   8.943   6.373 -0.4184  0.1227  0.2789
  392MOL0     C54001   5.500   8.987   6.514  0.3615 -0.1044 -0.4560
  392MOL0     C54002   5.353   9.027   6.547 -0.5574 -0.5396 -0.8661
  392MOL0    Cl54003   5.228   8.897   6.534  0.0346 -0.2464 -0.0954
  392MOL0     C54004   5.567   8.892   5.613 -0.8147  0.2779  0.3780
  392MOL0     C54005   5.525   8.921   5.478  0.4129  0.6443  0.0786
  392MOL0     O54006   5.768   8.881   5.165  0.2029  0.1399 -0.4920
  392MOL0     C54007   5.541   8.772   4.953 -0.8498  0.0026 -0.3710
  392MOL0     C54008   5.476   8.775   4.828 -0.0200  0.0159 -0.1688
  392MOL0     N54009   4.944   8.921   4.385  0.0949 -0.2697  0.6338
  392MOL0     N54010   4.862   8.860   4.309 -0.4966 -0.8379  0.4637
  392MOL0     C54011   4.170   8.151   4.134  1.1688  1.2052  0.0627
  392MOL0     C54012   4.061   8.159   4.034 -0.6468  0.5232  0.7683
  392MOL0     C54013   3.774   7.976   3.730 -0.9883  0.0128 -0.5322
  392MOL0     C54014   3.812   7.970   3.597  0.0481 -0.7227 -0.0047
  392MOL0     C54015   3.728   7.952   3.491  0.7713  0.3763  0.2723
  392MOL0     C54016   3.592   7.938   3.516  0.1600  0.1956  0.5371
  392MOL0     O54017   3.520   7.903   3.404  0.2257  0.0742  0.0295
  392MOL0     C54018   3.373   7.892   3.403 -0.2400  0.7447 -0.0400
  392MOL0     C54019   3.322   7.750   3.411  0.3585 -0.3821 -0.5908
  392MOL0     C54020   3.357   7.664   3.300 -1.0502  0.5379  0.0648
  392MOL0     C54021   3.320   7.525   3.326  0.1733  0.2059 -0.5645
  392MOL0     C54022   3.179   7.490   3.295  0.5656 -0.2062 -0.5664
  392MOL0     C54023   3.057   7.456   3.281 -0.4506  0.7842 -0.0457
  392MOL0     C54024   3.546   7.941   3.645  0.1007  0.3193 -0.4607
  392MOL0     C54025   3.635   7.961   3.754  0.5336  0.2420 -0.1158
  392MOL0     C54026   3.580   7.953   3.897 -0.4441  0.0802  0.4356
  392MOL0     H54027   4.194   8.012   3.769  1.2534  1.3474  0.1257
  392MOL0     H54028   4.404   8.062   3.907 -0.1008 -0.6064 -0.5976
  392MOL0     H54029   4.515   8.148   4.326  1.0780 -0.9073 -1.6548
  392MOL0     H54030   4.345   8.129   4.353  0.5034 -2.1463  0.3220
  392MOL0     H54031   4.312   8.364   4.266  1.0140  1.2031 -0.5264
  392MOL0     H54032   4.415   8.353   4.406  2.2279 -3.2158  1.0501
  392MOL0     H54033   4.603   8.339   4.253 -2.0304 -3.7174 -2.4803
  392MOL0     H54034   4.504   8.375   4.114 -1.9082  1.5871 -0.1445
  392MOL0     H54035   4.424   8.584   4.225  0.8981 -0.5083 -2.7317
  392MOL0     H54036   4.542   8.573   4.353  1.6269 -1.3554  0.2394
  392MOL0     H54037   4.577   8.564   4.044 -0.4427  3.8421 -0.8881
  392MOL0     H54038   4.709   8.557   4.142 -0.1822 -1.7723 -0.2835
  392MOL0     H54039   4.503   8.786   4.130  1.0197  1.3974  1.6529
  392MOL0     H54040   4.631   8.790   4.240 -0.8325 -0.0686 -0.1485
  392MOL0     H54041   4.686   8.938   4.061  0.8077 -0.0608  2.6086
  392MOL0     H54042   4.659   8.803   3.940 -0.8553 -1.0721 -0.2497
  392MOL0     H54043   4.860   8.701   4.052  1.0025  0.4993  0.3873
  392MOL0     H54044   4.886   8.854   3.971 -2.4482 -0.1889 -1.3622
  392MOL0     H54045   5.069   8.978   4.086 -0.7891 -5.5682 -2.8958
  392MOL0     H54046   5.101   9.165   4.375  3.4836  1.8296  0.2959
  392MOL0     H54047   5.225   9.084   4.288 -0.3740  2.4517 -1.1175
  392MOL0     H54048   5.287   9.065   4.515 -2.5006  2.0802  2.0029
  392MOL0     H54049   5.142   8.963   4.554 -0.0923 -2.7716 -1.7305
  392MOL0     H54050   5.235   8.785   4.385  0.1919 -1.6665  2.1541
  392MOL0     H54051   5.364   8.900   4.343  1.7410 -1.8443 -0.5105
  392MOL0     H54052   5.273   8.805   4.624 -0.8827  1.8168 -1.3220
  392MOL0     H54053   5.414   8.727   4.545 -1.2797 -0.6541  1.5647
  392MOL0     H54054   5.547   9.089   4.738  2.4998 -0.1152  0.4220
  392MOL0     H54055   5.739   9.122   5.025  1.0985  1.8025 -1.7922
  392MOL0     H54056   5.603   9.230   4.967 -1.2284  1.1649 -3.4545
  392MOL0     H54057   5.720   9.162   4.860  1.7951  0.0145  0.9793
  392MOL0     H54058   5.676   8.686   5.306 -1.2880 -0.3293 -0.4649
  392MOL0     H54059   5.738   8.615   5.546  0.5136  0.5885  0.9283
  392MOL0     H54060   5.681   8.925   5.849  1.9153 -0.1939  1.0412
  392MOL0     H54061   5.529   8.837   5.880  0.1176 -1.1987 -2.2466
  392MOL0     H54062   5.620   8.676   6.001 -0.2983  0.7724 -2.9373
  392MOL0     H54063   5.784   8.724   5.977  1.3316  1.0373 -0.3321
  392MOL0     H54064   5.604   8.945   6.103  1.0147  0.2026 -1.2938
  392MOL0     H54065   5.780   8.907   6.119  0.1802  0.2736 -0.9110
  392MOL0     H54066   5.733   8.704   6.246 -1.2149 -1.3033  0.4851
  392MOL0     H54067   5.562   8.715   6.235 -0.4356 -0.3915 -1.1766
  392MOL0     H54068   5.650   8.791   6.438  0.9528 -0.7959  0.0426
  392MOL0     H54069   5.714   8.937   6.358  0.5361 -1.3159  1.2227
  392MOL0     H54070   5.425   8.873   6.349 -1.0036  0.6451  0.6750
  392MOL0     H54071   5.506   9.031   6.309  4.4875 -1.4549 -2.3998
  392MOL0     H54072   5.565   9.069   6.544  3.4150 -2.9607  1.4623
  392MOL0     H54073   5.536   8.905   6.576  4.3416  0.8051 -1.3107
  392MOL0     H54074   5.332   9.115   6.485  2.4592  0.6390 -0.3946
  392MOL0     H54075   5.355   9.084   6.640 -0.6173  2.3755 -2.5010
  392MOL0     H54076   5.515   8.959   5.680 -0.4598  1.5974 -0.6270
  392MOL0     H54077   5.461   9.007   5.458 -3.1897 -2.2460 -2.2634
  392MOL0     H54078   5.554   8.681   5.011 -0.1524 -0.2276 -0.8679
  392MOL0     H54079   5.431   8.681   4.800  3.1011 -1.4809 -0.5658
  392MOL0     H54080   4.148   8.175   4.237 -3.5069 -0.8727 -0.2122
  392MOL0     H54081   3.967   8.209   4.054 -0.4906  1.7353 -1.2603
  392MOL0     H54082   3.919   7.986   3.593 -0.0334  0.0254  0.5178
  392MOL0     H54083   3.755   7.949   3.386 -0.9876  2.0301 -0.2892
  392MOL0     H54084   3.336   7.960   3.481 -0.1286  1.0942 -0.2896
  392MOL0     H54085   3.340   7.948   3.315  0.7600 -1.1267 -1.6574
  392MOL0     H54086   3.213   7.746   3.410  0.4018 -2.7318 -1.4416
  392MOL0     H54087   3.354   7.707   3.506 -0.2217 -1.2649 -0.7896
  392MOL0     H54088   3.318   7.698   3.204  1.0321  1.3121 -0.5658
  392MOL0     H54089   3.465   7.677   3.295 -0.7895  0.1914  2.9287
  392MOL0     H54090   3.358   7.481   3.419 -1.1650 -1.0777 -0.5813
  392MOL0     H54091   3.360   7.458   3.249 -0.2959  0.3930 -0.9789
  392MOL0     H54092   2.956   7.426   3.259 -0.3551  0.5059 -0.1091
  392MOL0     H54093   3.441   7.919   3.654  0.3818 -1.1031 -0.5313
  392MOL0     H54094   3.654   8.004   3.959 -0.9180  0.4281  0.7157
  392MOL0     H54095   3.483   8.002   3.907 -0.6859 -0.4545  0.8023
  392MOL0     H54096   3.565   7.848   3.927 -1.8744  0.6390  1.8147
  393MOL0     O54097   7.768   6.100   0.907  0.3196  0.3242 -0.2121
  393MOL0     C54098   7.751   6.009   0.985 -0.7467 -0.7817 -0.2054
  393MOL0     O54099   7.854   5.952   1.053  0.1556  0.2638  1.0772
  393MOL0     C54100   7.985   6.010   1.052 -0.0180 -0.3697  0.1480
  393MOL0     C54101   8.062   6.011   1.173 -0.1589  0.1743  0.7074
  393MOL0     C54102   8.195   6.060   1.181  0.2092  0.0429  0.0322
  393MOL0     C54103   8.262   6.108   1.068 -0.4050 -0.3597  0.6213
  393MOL0     O54104   8.386   6.155   1.075 -0.4551 -0.0964  0.3920
  393MOL0     C54105   8.391   6.267   1.168 -0.9448  0.5138 -0.5232
  393MOL0     C54106   8.539   6.299   1.172  0.4140 -0.4731  0.4666
  393MOL0     C54107   8.593   6.381   1.051 -0.0680  0.1474 -0.4246
  393MOL0     C54108   8.484   6.453   0.976  0.2042  0.0165  0.7655
  393MOL0     C54109   8.543   6.539   0.855  1.0189 -0.1717 -0.2677
  393MOL0     C54110   8.582   6.457   0.732  0.0403 -0.3992  0.2541
  393MOL0     C54111   8.471   6.364   0.677  0.1149  0.4332 -0.1710
  393MOL0     C54112   8.515   6.322   0.544 -0.6763  0.0236  0.3884
  393MOL0     N54113   8.459   6.401   0.436 -0.3027 -0.2855 -0.4924
  393MOL0     C54114   8.475   6.533   0.419  0.5518 -1.3152  0.2220
  393MOL0     C54115   8.414   6.571   0.303  0.4866  0.0017  0.0421
  393MOL0     C54116   8.384   6.710   0.237 -0.6045 -0.0634 -1.5675
  393MOL0     C54117   8.293   6.793   0.325  0.7810  0.5916 -0.7320
  393MOL0     C54118   8.140   6.749   0.315 -0.0792  0.4300 -0.4061
  393MOL0     C54119   8.034   6.860   0.310  0.7867 -0.3603 -0.5000
  393MOL0     O54120   8.036   6.950   0.207 -0.2498 -0.7159  0.5085
  393MOL0     C54121   7.995   6.936   0.078  0.5845  0.2365 -0.4259
  393MOL0     C54122   7.894   6.846   0.053  0.2434 -0.7996 -0.1939
  393MOL0     C54123   7.836   6.848  -0.080 -0.3205  0.1668 -0.2128
  393MOL0     C54124   7.754   6.724  -0.123 -0.7125 -0.0171 -0.0447
  393MOL0     C54125   7.867   6.948  -0.171 -0.7013  0.1621  1.3542
  393MOL0     C54126   7.820   6.962  -0.308 -0.3948  0.8473 -0.2327
  393MOL0     O54127   7.926   6.987  -0.394  0.2461 -0.3253 -0.1474
  393MOL0     C54128   7.902   7.041  -0.513 -0.0536 -0.4439  0.1802
  393MOL0     C54129   7.815   7.150  -0.532 -0.8015  0.0174 -0.0661
  393MOL0     C54130   7.785   7.191  -0.660 -0.6692 -0.0669  0.4678
  393MOL0     C54131   7.866   7.156  -0.770  0.4324  0.6758  0.5232
  393MOL0     O54132   7.850   7.208  -0.896  0.2040  0.6890  0.3934
  393MOL0     C54133   7.765   7.324  -0.918  0.2366  0.0680 -0.4672
  393MOL0     C54134   7.828   7.459  -0.912 -0.0085 -0.5793  0.5454
  393MOL0     C54135   7.749   7.569  -0.985 -0.4264 -0.1318 -0.3387
  393MOL0     C54136   7.626   7.619  -0.903  0.1240  0.5288 -0.6109
  393MOL0     C54137   7.549   7.738  -0.970  0.9778 -1.0874 -0.5839
  393MOL0     C54138   7.434   7.779  -0.887  0.3122 -0.2168  0.0573
  393MOL0     C54139   7.358   7.906  -0.936  0.4036  0.7281 -0.7440
  393MOL0     C54140   7.292   7.885  -1.072 -0.1043  0.3886  0.0780
  393MOL0    Cl54141   7.174   7.744  -1.061  0.3626  0.5089  0.3597
  393MOL0     C54142   7.949   7.044  -0.756 -0.7164 -0.2057  0.7505
  393MOL0     C54143   7.970   6.990  -0.627 -0.6978 -0.4769  0.5745
  393MOL0     O54144   7.699   6.986  -0.331 -0.0989  0.0486 -0.6225
  393MOL0     C54145   7.960   7.044  -0.135  0.3282  0.8423 -0.1366
  393MOL0     C54146   8.037   7.028  -0.015 -0.3612  0.0014  1.4226
  393MOL0     N54147   8.345   6.458   0.272  0.1318 -0.2510  1.2028
  393MOL0     N54148   8.378   6.358   0.340 -0.2486 -0.7779  0.0998
  393MOL0     C54149   8.197   6.099   0.944  0.2849 -0.7443 -0.2225
  393MOL0     C54150   8.066   6.052   0.945  0.3053 -0.0561 -0.2765
  393MOL0     C54151   7.612   5.974   1.025 -0.6855  0.2864 -0.1156
  393MOL0     C54152   7.597   5.924   1.158  0.1048  0.7363 -0.2546
  393MOL0     C54153   7.469   5.886   1.196 -0.4818  0.8180 -0.0717
  393MOL0     C54154   7.362   5.892   1.118  0.6648 -0.1608  1.1572
  393MOL0     O54155   7.245   5.865   1.179  0.0326 -0.2440 -0.0034
  393MOL0     C54156   7.148   5.788   1.107 -0.5062  0.4256  0.0041
  393MOL0     C54157   7.199   5.660   1.041 -0.1271  0.1883 -0.0955
  393MOL0     C54158   7.101   5.586   0.951  0.0085  0.5655  1.3692
  393MOL0     C54159   7.165   5.463   0.893 -0.6820 -0.0671 -0.4801
  393MOL0     C54160   7.088   5.409   0.777 -0.4075 -1.1007 -1.0689
  393MOL0     C54161   7.011   5.394   0.691  0.7518  0.0848  0.0464
  393MOL0     C54162   7.377   5.951   0.991 -0.0245 -0.3759 -0.8556
  393MOL0     C54163   7.501   5.994   0.937 -0.4550 -0.0583 -0.1016
  393MOL0     C54164   7.516   6.032   0.791 -0.0077  0.2466  0.3771
  393MOL0     H54165   8.023   5.975   1.268  2.1923  3.6626  3.2130
  393MOL0     H54166   8.253   6.071   1.272  0.1872 -0.5812  0.1239
  393MOL0     H54167   8.355   6.242   1.268 -1.1103  1.0340 -0.4515
  393MOL0     H54168   8.333   6.353   1.135 -1.5017  0.9961  1.5731
  393MOL0     H54169   8.541   6.355   1.266 -0.4965 -0.6508  0.5986
  393MOL0     H54170   8.601   6.210   1.178  0.1071 -0.6122  1.8787
  393MOL0     H54171   8.674   6.445   1.088  0.2186  0.3621 -1.3973
  393MOL0     H54172   8.631   6.308   0.980 -0.4766 -0.2629 -0.2245
  393MOL0     H54173   8.407   6.390   0.931 -0.3481  1.4575 -0.3926
  393MOL0     H54174   8.439   6.521   1.048 -2.2841  0.1632 -0.8140
  393MOL0     H54175   8.629   6.603   0.875 -0.3703  3.3126 -4.0467
  393MOL0     H54176   8.465   6.612   0.831  1.9554  0.7610 -0.5613
  393MOL0     H54177   8.607   6.534   0.658  3.6430 -0.3762  1.3170
  393MOL0     H54178   8.681   6.411   0.734 -0.4405 -2.2412 -4.6470
  393MOL0     H54179   8.374   6.414   0.678 -0.0724  0.2550  3.0270
  393MOL0     H54180   8.466   6.276   0.742 -0.5443  0.2261 -0.4936
  393MOL0     H54181   8.623   6.326   0.527 -1.0670  0.0309 -2.5542
  393MOL0     H54182   8.497   6.214   0.541 -1.7705  0.1153  2.1836
  393MOL0     H54183   8.531   6.600   0.484 -1.3401 -0.4907  1.0694
  393MOL0     H54184   8.335   6.716   0.139 -1.0178 -0.2825 -1.3764
  393MOL0     H54185   8.478   6.765   0.227 -0.8210  0.7914  0.5339
  393MOL0     H54186   8.325   6.780   0.429 -2.2635  0.3395  0.2728
  393MOL0     H54187   8.298   6.901   0.305 -2.5172  1.0689  0.4119
  393MOL0     H54188   8.127   6.689   0.225 -0.6735  1.3547 -0.9538
  393MOL0     H54189   8.119   6.690   0.405 -1.5357 -0.5385 -1.3198
  393MOL0     H54190   7.932   6.825   0.328  0.8795  0.0960  1.1490
  393MOL0     H54191   8.063   6.914   0.401  2.6122  1.9820 -2.3505
  393MOL0     H54192   7.853   6.782   0.130  1.8860 -0.7356  0.7808
  393MOL0     H54193   7.656   6.765  -0.152 -0.1348  1.6326  0.2582
  393MOL0     H54194   7.748   6.651  -0.042  2.2031 -0.9622 -0.5970
  393MOL0     H54195   7.794   6.672  -0.210  1.7468  1.6461  0.0044
  393MOL0     H54196   7.777   7.198  -0.443  0.8546  2.3868 -0.5368
  393MOL0     H54197   7.703   7.261  -0.669 -1.9094 -1.5067  0.0773
  393MOL0     H54198   7.722   7.310  -1.018  0.1239 -1.9436 -0.1891
  393MOL0     H54199   7.676   7.317  -0.855 -1.4812 -1.4609 -2.8551
  393MOL0     H54200   7.861   7.503  -0.817 -0.1306  0.1621  0.2571
  393MOL0     H54201   7.921   7.446  -0.968 -1.8030  1.2452 -3.2191
  393MOL0     H54202   7.723   7.529  -1.084  0.1153 -1.5950  0.0961
  393MOL0     H54203   7.812   7.657  -1.003 -0.0114 -0.7553 -2.2315
  393MOL0     H54204   7.643   7.631  -0.795  1.0208 -2.5259 -0.3309
  393MOL0     H54205   7.563   7.530  -0.896  1.0261  0.0019  1.9612
  393MOL0     H54206   7.618   7.823  -0.978 -0.5940  0.3323  0.3014
  393MOL0     H54207   7.510   7.704  -1.066 -3.2734  0.1708  0.4837
  393MOL0     H54208   7.474   7.797  -0.787  0.0466  0.3491  0.0619
  393MOL0     H54209   7.359   7.700  -0.891  0.4490 -0.3190 -0.5124
  393MOL0     H54210   7.422   7.995  -0.941  0.1279  1.0669  1.2203
  393MOL0     H54211   7.271   7.925  -0.874  0.4920  0.5923 -0.5792
  393MOL0     H54212   7.368   7.869  -1.150 -0.8417  0.7532 -0.7358
  393MOL0     H54213   7.251   7.980  -1.109 -2.4821 -1.1452 -1.4515
  393MOL0     H54214   8.002   7.019  -0.847 -1.6010 -3.0124  0.9264
  393MOL0     H54215   8.029   6.901  -0.605 -0.7077 -0.3039  1.3283
  393MOL0     H54216   7.993   7.126  -0.199 -0.6287 -0.2400 -2.1134
  393MOL0     H54217   8.113   7.105  -0.001  0.1975 -0.3549  0.4768
  393MOL0     H54218   8.242   6.144   0.856  1.4974  1.5425  1.4498
  393MOL0     H54219   8.023   6.046   0.846 -0.8275  3.4484 -0.1099
  393MOL0     H54220   7.680   5.917   1.228  2.8918  0.2760 -3.3488
  393MOL0     H54221   7.447   5.868   1.301 -2.2153 -0.5538 -0.6249
  393MOL0     H54222   7.069   5.763   1.179  0.8394  0.1412  1.4120
  393MOL0     H54223   7.117   5.856   1.027  1.9112  2.4298  0.6609
  393MOL0     H54224   7.235   5.592   1.119 -0.6985 -1.6741 -1.3752
  393MOL0     H54225   7.293   5.685   0.991  1.8661 -3.7227  1.2384
  393MOL0     H54226   7.015   5.549   1.008 -0.3746 -1.6666 -0.4858
  393MOL0     H54227   7.065   5.650   0.871 -3.5059 -3.8339 -1.0802
  393MOL0     H54228   7.180   5.381   0.964 -0.8978  1.1151  0.9782
  393MOL0     H54229   7.260   5.494   0.847  1.6184 -2.8042  2.0215
  393MOL0     H54230   6.940   5.384   0.612  0.5718  0.7713  0.1102
  393MOL0     H54231   7.280   5.972   0.946  0.2457 -0.2619 -1.3875
  393MOL0     H54232   7.434   5.990   0.733 -0.8680 -1.0674  2.4445
  393MOL0     H54233   7.515   6.142   0.784  1.0809  0.4740  2.6796
  393MOL0     H54234   7.604   5.987   0.744  0.0869  0.4522  0.3527
  394MOL0     O54235   9.690   4.425   8.034 -0.5887 -0.1553  0.8796
  394MOL0     C54236   9.733   4.339   7.959 -0.3567 -0.0698  0.6619
  394MOL0     O54237   9.865   4.332   7.916 -0.0155  0.3152 -0.0075
  394MOL0     C54238   9.963   4.386   7.989  0.4660 -0.4277 -0.4400
  394MOL0     C54239  10.064   4.464   7.935 -0.0714 -0.0475  0.5057
  394MOL0     C54240  10.177   4.497   8.011 -0.0731 -0.0203 -0.0154
  394MOL0     C54241  10.198   4.458   8.144 -0.0845  0.4683 -0.6255
  394MOL0     O54242  10.304   4.506   8.211  0.5620  0.5103 -0.1450
  394MOL0     C54243  10.307   4.506   8.363  0.3833 -0.3778 -0.3083
  394MOL0     C54244  10.437   4.542   8.421  0.4491 -0.3104  0.2585
  394MOL0     C54245  10.513   4.429   8.491  0.2820 -0.7061  0.0607
  394MOL0     C54246  10.628   4.499   8.567  1.2869 -0.1382  0.0511
  394MOL0     C54247  10.687   4.395   8.677  0.2149 -1.3652  0.1011
  394MOL0     C54248  10.791   4.302   8.614  0.3096  0.3561 -0.5651
  394MOL0     C54249  10.842   4.205   8.717  0.4291 -0.9838 -0.8401
  394MOL0     C54250  10.930   4.261   8.831 -0.6198 -0.6060 -0.1313
  394MOL0     N54251  10.869   4.250   8.966 -0.2263 -0.2307  0.6736
  394MOL0     C54252  10.810   4.130   9.018  0.2614  0.5093  0.2600
  394MOL0     C54253  10.759   4.167   9.133  1.3136  0.7249 -0.4276
  394MOL0     C54254  10.679   4.088   9.231  0.1198 -0.3805  1.3343
  394MOL0     C54255  10.759   4.016   9.339 -0.0376  1.1482 -0.7048
  394MOL0     C54256  10.669   3.933   9.437 -0.5384  0.4355 -0.2691
  394MOL0     C54257  10.576   4.022   9.519 -0.4973 -1.4004 -0.4733
  394MOL0     O54258  10.652   4.117   9.608  0.6586 -0.1065 -0.0163
  394MOL0     C54259  10.737   4.081   9.710  0.5992  0.1718 -0.3135
  394MOL0     C54260  10.839   4.164   9.741 -0.4577 -1.1753  0.4935
  394MOL0     C54261  10.952   4.135   9.826  0.1542  0.4340 -0.2753
  394MOL0     C54262  11.071   4.229   9.834 -0.8395  0.4067 -0.0146
  394MOL0     C54263  10.943   4.017   9.906 -0.7422  0.5878 -0.2372
  394MOL0     C54264  11.058   3.968   9.993  0.1077 -0.6942  0.7349
  394MOL0     O54265  11.022   3.878  10.093 -1.2118  0.2266  0.1111
  394MOL0     C54266  11.115   3.841  10.186  0.0118  0.0140  0.1693
  394MOL0     C54267  11.088   3.880  10.317  0.0717  0.5499 -0.1171
  394MOL0     C54268  11.192   3.861  10.411  1.3483  0.1027  0.7821
  394MOL0     C54269  11.290   3.778  10.382 -0.0982 -0.2701 -0.1609
  394MOL0     O54270  11.372   3.743  10.486 -0.0581 -0.9514  0.2848
  394MOL0     C54271  11.509   3.707  10.455  0.9779 -0.4229  0.9282
  394MOL0     C54272  11.604   3.736  10.573 -0.9135  0.0064 -0.1938
  394MOL0     C54273  11.591   3.623  10.678 -0.1883  0.3733 -0.5483
  394MOL0     C54274  11.681   3.673  10.796  0.5969 -0.3706 -0.3700
  394MOL0     C54275  11.706   3.572  10.904 -0.3681 -0.5906  0.2141
  394MOL0     C54276  11.579   3.509  10.970  0.2083 -0.3928  0.7450
  394MOL0     C54277  11.608   3.393  11.065  0.9776 -0.4888  0.1873
  394MOL0     C54278  11.515   3.410  11.175  0.6826  0.2156  0.0445
  394MOL0    Cl54279  11.573   3.538  11.286 -0.2052 -0.2704  0.1273
  394MOL0     C54280  11.303   3.717  10.257 -0.9227  1.0864  0.5263
  394MOL0     C54281  11.217   3.749  10.150  0.3967 -0.5726 -0.2208
  394MOL0     O54282  11.181   4.004   9.976  0.2227  0.1881  0.4875
  394MOL0     C54283  10.828   3.938   9.885  0.3796  0.4528 -0.4117
  394MOL0     C54284  10.730   3.969   9.789 -0.6974  0.2117  0.4339
  394MOL0     N54285  10.795   4.301   9.157 -0.3112 -0.3075  0.0320
  394MOL0     N54286  10.870   4.344   9.067  0.8162 -0.2743 -0.0478
  394MOL0     C54287  10.094   4.383   8.196  0.5816 -0.5343  0.5518
  394MOL0     C54288   9.981   4.338   8.120 -0.6752 -0.0792  0.2360
  394MOL0     C54289   9.637   4.274   7.866  0.3445  1.0009  0.5149
  394MOL0     C54290   9.679   4.201   7.759 -0.7999 -0.2163  0.4530
  394MOL0     C54291   9.598   4.123   7.682  0.3080  0.5456 -0.4096
  394MOL0     C54292   9.460   4.102   7.706  0.0454  0.1538  0.7991
  394MOL0     O54293   9.378   4.016   7.640  0.0453 -0.5285 -0.3295
  394MOL0     C54294   9.391   3.998   7.499  0.0186  0.6149 -0.3852
  394MOL0     C54295   9.322   3.874   7.454 -0.0098  0.5212  0.2395
  394MOL0     C54296   9.381   3.752   7.514 -0.2092 -0.4144 -0.1055
  394MOL0     C54297   9.351   3.614   7.457  0.5847  0.4161  0.0084
  394MOL0     C54298   9.207   3.590   7.457  1.4490 -0.2807  1.3190
  394MOL0     C54299   9.084   3.566   7.443 -0.3231  1.1367  0.1846
  394MOL0     C54300   9.415   4.176   7.814  0.8249  0.4776 -0.2643
  394MOL0     C54301   9.496   4.257   7.893 -0.2164  0.7477  0.2201
  394MOL0     C54302   9.436   4.315   8.011 -1.3782  0.3109 -0.6798
  394MOL0     H54303  10.055   4.498   7.833  3.3121  1.3402  0.5257
  394MOL0     H54304  10.254   4.556   7.964 -2.8990  2.3645 -2.0353
  394MOL0     H54305  10.278   4.411   8.409  0.1238 -0.6913 -1.1008
  394MOL0     H54306  10.226   4.573   8.395 -0.3018 -0.3964 -1.8884
  394MOL0     H54307  10.497   4.584   8.339  3.1818 -4.1281  0.0027
  394MOL0     H54308  10.412   4.623   8.490  1.2160 -0.3026  0.5444
  394MOL0     H54309  10.458   4.364   8.559 -0.0610 -1.6736 -1.1079
  394MOL0     H54310  10.559   4.364   8.417 -1.8620 -1.9145 -0.3052
  394MOL0     H54311  10.707   4.524   8.496 -0.2154  0.4261 -1.4975
  394MOL0     H54312  10.592   4.594   8.607  4.7648  1.7149 -0.8286
  394MOL0     H54313  10.609   4.336   8.725 -1.8731  0.7259 -0.5551
  394MOL0     H54314  10.742   4.440   8.760  0.5667 -1.9965  0.2193
  394MOL0     H54315  10.745   4.256   8.527 -0.2562  0.4391 -0.3143
  394MOL0     H54316  10.871   4.368   8.578 -0.4844  2.3294  1.0590
  394MOL0     H54317  10.897   4.122   8.673 -0.0907 -0.8046 -1.8667
  394MOL0     H54318  10.757   4.149   8.758  2.5194 -3.5734  0.2266
  394MOL0     H54319  11.017   4.196   8.844 -0.4883 -0.1910  1.1524
  394MOL0     H54320  10.956   4.362   8.798 -1.4457 -0.6226 -0.8649
  394MOL0     H54321  10.807   4.029   8.980  1.0842  0.2570  0.8400
  394MOL0     H54322  10.612   4.022   9.176  0.3956  0.7044 -0.3819
  394MOL0     H54323  10.610   4.161   9.273 -1.9617 -0.7918 -1.1537
  394MOL0     H54324  10.833   3.962   9.281  0.7396 -0.1417  1.3997
  394MOL0     H54325  10.818   4.081   9.404  2.7903 -0.9228 -1.0410
  394MOL0     H54326  10.604   3.868   9.378 -2.3495  2.8226 -1.0570
  394MOL0     H54327  10.730   3.868   9.501 -0.5556 -0.3093 -0.9849
  394MOL0     H54328  10.511   4.087   9.460 -1.4371  1.3535  3.2285
  394MOL0     H54329  10.507   3.968   9.584 -0.8372  0.4207  0.7461
  394MOL0     H54330  10.844   4.248   9.673 -1.2647 -3.1160 -2.1570
  394MOL0     H54331  11.164   4.185   9.797 -0.2300  3.8492 -3.1302
  394MOL0     H54332  11.079   4.247   9.942 -2.1078 -1.0947  0.3638
  394MOL0     H54333  11.070   4.322   9.776  1.9165 -0.1592 -1.1035
  394MOL0     H54334  11.004   3.946  10.338  0.7990  1.4268  0.0490
  394MOL0     H54335  11.168   3.895  10.512 -0.4753 -0.3367  0.5280
  394MOL0     H54336  11.517   3.602  10.428  0.8794 -0.7233  2.0348
  394MOL0     H54337  11.541   3.764  10.367 -2.7588 -0.7959 -0.9146
  394MOL0     H54338  11.710   3.745  10.550 -0.9032 -0.0036 -0.1493
  394MOL0     H54339  11.571   3.829  10.620  1.9140  1.7992 -1.5459
  394MOL0     H54340  11.622   3.521  10.653 -1.0254 -0.4468  1.5150
  394MOL0     H54341  11.489   3.614  10.716 -0.8517  4.6412 -0.9422
  394MOL0     H54342  11.631   3.759  10.843 -0.9427 -2.8970  2.9844
  394MOL0     H54343  11.775   3.722  10.768 -1.1988  2.9580 -1.2538
  394MOL0     H54344  11.763   3.486  10.867  0.8910 -0.1350  1.0622
  394MOL0     H54345  11.764   3.613  10.987  0.3983 -0.6194 -0.3002
  394MOL0     H54346  11.510   3.462  10.899  1.4197 -0.7879 -0.1951
  394MOL0     H54347  11.528   3.589  11.025  1.5777  1.0767 -0.0417
  394MOL0     H54348  11.710   3.402  11.104  1.5442  0.1190 -1.3712
  394MOL0     H54349  11.604   3.300  11.008 -0.0420  0.3629 -1.1819
  394MOL0     H54350  11.507   3.315  11.230  2.6275  0.6336  1.1411
  394MOL0     H54351  11.414   3.428  11.137  0.7043 -1.7985 -1.0918
  394MOL0     H54352  11.378   3.648  10.220 -2.9661  0.4902 -3.0040
  394MOL0     H54353  11.232   3.717  10.047 -0.5660 -0.8876 -0.2744
  394MOL0     H54354  10.831   3.842   9.937 -2.7821  0.5617  0.1793
  394MOL0     H54355  10.647   3.900   9.789 -0.5833  0.0449  1.8458
  394MOL0     H54356  10.087   4.358   8.302 -3.2702 -0.6371  0.4218
  394MOL0     H54357   9.910   4.267   8.163 -1.2154 -0.0724 -0.6291
  394MOL0     H54358   9.781   4.191   7.724 -1.0805 -2.0104  0.0370
  394MOL0     H54359   9.647   4.069   7.601  0.5385  0.9346 -0.5308
  394MOL0     H54360   9.352   4.086   7.448 -0.2323  1.6062  1.4643
  394MOL0     H54361   9.495   3.986   7.465 -0.0724 -0.1230 -0.4148
  394MOL0     H54362   9.322   3.858   7.346  2.5078  0.3870  0.1845
  394MOL0     H54363   9.219   3.879   7.491 -0.2758  1.3526 -0.5892
  394MOL0     H54364   9.490   3.758   7.518 -0.1179 -1.4766 -0.4834
  394MOL0     H54365   9.348   3.746   7.618 -1.2274  1.5343 -0.2715
  394MOL0     H54366   9.393   3.530   7.513 -1.1844  0.7882  2.0143
  394MOL0     H54367   9.376   3.614   7.351  2.2911  1.6620  0.3741
  394MOL0     H54368   8.980   3.549   7.423 -0.2713  1.5106 -0.4182
  394MOL0     H54369   9.323   4.137   7.855  1.3466 -3.5693 -2.4753
  394MOL0     H54370   9.444   4.424   8.005 -0.2155  0.2614 -0.3923
  394MOL0     H54371   9.334   4.277   8.011 -1.2789  0.0285 -1.2559
  394MOL0     H54372   9.489   4.278   8.100  1.1212 -1.8460 -2.9017
  395MOL0     O54373   3.772   1.809   7.490  0.3412  0.6172  0.6746
  395MOL0     C54374   3.748   1.719   7.413 -0.3866  0.1409 -0.3950
  395MOL0     O54375   3.829   1.683   7.303 -0.0095 -0.1733 -0.0748
  395MOL0     C54376   3.949   1.747   7.278 -0.7394 -0.4500 -0.0522
  395MOL0     C54377   4.047   1.748   7.371 -0.3064  0.3533 -0.2843
  395MOL0     C54378   4.179   1.793   7.351 -0.1073 -1.0379  0.4058
  395MOL0     C54379   4.217   1.848   7.227 -0.1138  0.0730 -1.1284
  395MOL0     O54380   4.342   1.899   7.199  0.2960 -0.0785  0.4793
  395MOL0     C54381   4.397   2.002   7.279  0.4457 -0.0563 -0.5140
  395MOL0     C54382   4.305   2.129   7.284 -0.3730 -0.8130  0.9446
  395MOL0     C54383   4.395   2.251   7.287 -0.5545  0.3676  0.4177
  395MOL0     C54384   4.385   2.322   7.414 -0.0007 -0.1135  0.1554
  395MOL0     C54385   4.483   2.445   7.402  0.3298  0.6061 -0.2615
  395MOL0     C54386   4.471   2.555   7.499  0.2219 -0.3335  0.2669
  395MOL0     C54387   4.501   2.506   7.655 -0.5458 -0.1566  1.7145
  395MOL0     C54388   4.572   2.621   7.731 -0.3284  0.1928  0.7762
  395MOL0     N54389   4.492   2.738   7.756 -0.4555 -0.6947 -0.0137
  395MOL0     C54390   4.474   2.835   7.666 -0.1115  0.3485  0.0713
  395MOL0     C54391   4.446   2.948   7.738  0.5790 -0.1032 -0.7761
  395MOL0     C54392   4.409   3.080   7.682  0.5161  0.0299 -0.0197
  395MOL0     C54393   4.267   3.114   7.686  0.7510 -0.0203 -0.0416
  395MOL0     C54394   4.228   3.145   7.828  0.0929 -0.4276 -0.1517
  395MOL0     C54395   4.081   3.176   7.846  0.9272 -0.5003  0.6059
  395MOL0     O54396   4.066   3.201   7.980  0.3530 -0.6024 -0.3255
  395MOL0     C54397   3.938   3.221   8.025  0.1735 -0.0408 -0.5409
  395MOL0     C54398   3.933   3.222   8.167 -0.1515 -0.3742  0.5053
  395MOL0     C54399   3.808   3.225   8.235  0.6684  1.1830 -1.3836
  395MOL0     C54400   3.805   3.234   8.387 -0.2659  0.1847  0.2969
  395MOL0     C54401   3.691   3.218   8.161 -0.2960  1.1314 -0.4635
  395MOL0     C54402   3.559   3.211   8.225 -0.5871  0.0288 -0.2044
  395MOL0     O54403   3.510   3.090   8.209  0.1069  0.2484  0.1831
  395MOL0     C54404   3.377   3.063   8.241  0.9795 -0.4565  1.0131
  395MOL0     C54405   3.271   3.092   8.156  1.0379 -0.6390  0.4457
  395MOL0     C54406   3.140   3.084   8.200 -0.4935  0.5814 -0.3730
  395MOL0     C54407   3.113   3.024   8.322  0.1799  0.0689  0.4833
  395MOL0     O54408   2.975   3.011   8.347  0.3383 -0.1776 -0.2995
  395MOL0     C54409   2.943   2.947   8.466 -0.4082 -0.1499 -0.6523
  395MOL0     C54410   2.794   2.938   8.478  0.0775  0.8983  0.2002
  395MOL0     C54411   2.730   2.820   8.396  0.4721  1.0056 -0.9259
  395MOL0     C54412   2.580   2.809   8.412  0.6816 -0.1007 -0.0182
  395MOL0     C54413   2.533   2.720   8.273 -0.2068  0.3516 -0.7733
  395MOL0     C54414   2.547   2.572   8.296 -0.5706  1.3822 -0.1507
  395MOL0     C54415   2.493   2.488   8.167 -0.1234 -0.7702 -0.3816
  395MOL0     C54416   2.362   2.429   8.193 -0.1968 -0.0318  0.2768
  395MOL0    Cl54417   2.375   2.285   8.292 -0.0879  0.1635 -0.1286
  395MOL0     C54418   3.218   2.980   8.396 -0.2673  0.3236 -0.5458
  395MOL0     C54419   3.354   2.997   8.357  0.4704  0.3949 -0.0148
  395MOL0     O54420   3.504   3.313   8.254  0.3142  0.0337  0.0652
  395MOL0     C54421   3.696   3.222   8.023 -0.3457  0.6083 -0.7126
  395MOL0     C54422   3.820   3.232   7.951 -0.1074  0.3215 -0.1503
  395MOL0     N54423   4.457   2.918   7.868  0.7526 -0.4978 -0.3602
  395MOL0     N54424   4.481   2.785   7.883  0.0705 -0.0334 -0.5804
  395MOL0     C54425   4.118   1.838   7.125  0.3284 -0.0871 -0.3990
  395MOL0     C54426   3.989   1.776   7.150  0.7865  0.9288 -0.1940
  395MOL0     C54427   3.617   1.654   7.443  0.1281 -0.5181  0.8147
  395MOL0     C54428   3.584   1.548   7.353  0.1629  0.2789  0.2787
  395MOL0     C54429   3.465   1.469   7.361  0.6047 -0.4119  0.2718
  395MOL0     C54430   3.379   1.497   7.462 -0.2343  0.3227 -0.8292
  395MOL0     O54431   3.265   1.423   7.458 -0.3642  0.3399  0.4584
  395MOL0     C54432   3.173   1.455   7.557 -0.0156  1.3505  0.5144
  395MOL0     C54433   3.048   1.360   7.551  0.3749  0.5876 -0.5749
  395MOL0     C54434   2.979   1.388   7.409  0.6737 -0.3686 -0.5500
  395MOL0     C54435   2.994   1.279   7.303  0.8096 -0.1335 -0.4888
  395MOL0     C54436   2.966   1.139   7.333  0.0672 -0.1665  0.1731
  395MOL0     C54437   2.932   1.023   7.375  0.5180 -0.2617  0.1099
  395MOL0     C54438   3.410   1.599   7.557 -0.2809  0.0751  0.9652
  395MOL0     C54439   3.528   1.679   7.553 -0.3096  0.5690  0.1907
  395MOL0     C54440   3.560   1.770   7.661 -0.6405 -0.0911  0.7355
  395MOL0     H54441   4.023   1.718   7.472  2.2119 -1.0881 -0.0593
  395MOL0     H54442   4.240   1.800   7.441  1.0935 -2.0312 -0.3149
  395MOL0     H54443   4.491   2.035   7.233 -0.6235  1.0631 -2.0145
  395MOL0     H54444   4.417   1.991   7.386  0.3886 -1.1503 -0.6035
  395MOL0     H54445   4.238   2.145   7.199 -1.2191  1.2645  1.9311
  395MOL0     H54446   4.254   2.110   7.379  4.2129 -6.6167  2.8472
  395MOL0     H54447   4.500   2.231   7.266 -0.6176  0.4505  0.0023
  395MOL0     H54448   4.368   2.302   7.194  2.6629  0.4405 -0.5827
  395MOL0     H54449   4.283   2.360   7.425  0.0376 -0.4939  2.3287
  395MOL0     H54450   4.418   2.255   7.494 -0.0147 -2.2445 -1.5257
  395MOL0     H54451   4.466   2.489   7.303  1.2114  4.0072  0.9425
  395MOL0     H54452   4.588   2.415   7.395  1.4207  3.9344  0.0415
  395MOL0     H54453   4.524   2.638   7.451 -4.4691  4.1242  1.7732
  395MOL0     H54454   4.371   2.601   7.506  0.9440  1.5490 -0.8606
  395MOL0     H54455   4.573   2.424   7.666  1.6772  0.7831 -3.0989
  395MOL0     H54456   4.408   2.477   7.705 -1.7082  1.2835  0.4936
  395MOL0     H54457   4.598   2.588   7.832 -0.5931  0.8181  1.0533
  395MOL0     H54458   4.670   2.646   7.688  1.0669 -0.9010  3.1241
  395MOL0     H54459   4.488   2.837   7.559  0.5647 -1.0060  0.1098
  395MOL0     H54460   4.455   3.096   7.584 -1.0851  0.3686 -0.7497
  395MOL0     H54461   4.458   3.149   7.752 -1.3594 -0.8499  2.2972
  395MOL0     H54462   4.256   3.205   7.626  5.0235 -0.1168 -1.2921
  395MOL0     H54463   4.203   3.035   7.645  1.7133 -0.1454 -1.3939
  395MOL0     H54464   4.249   3.059   7.893 -1.2134 -2.3862 -2.1851
  395MOL0     H54465   4.275   3.237   7.864 -1.4375  1.6021 -2.9412
  395MOL0     H54466   4.048   3.266   7.793  0.0420 -0.4050  1.2795
  395MOL0     H54467   4.026   3.085   7.820  2.6332 -0.5447 -3.5211
  395MOL0     H54468   4.026   3.218   8.222 -0.6453  0.5160  1.4515
  395MOL0     H54469   3.794   3.343   8.396  0.2074  0.6009 -3.1023
  395MOL0     H54470   3.894   3.206   8.444  1.1489 -2.0726 -2.7613
  395MOL0     H54471   3.719   3.185   8.435 -0.7061  1.9443  1.4270
  395MOL0     H54472   3.299   3.134   8.060  4.3067 -1.5756  0.8665
  395MOL0     H54473   3.057   3.100   8.132  1.4746 -1.6514 -3.6259
  395MOL0     H54474   2.982   2.845   8.474 -1.4527 -0.5655 -0.7675
  395MOL0     H54475   2.980   3.002   8.553  1.1091 -2.5838  0.3761
  395MOL0     H54476   2.767   2.935   8.584 -2.0478 -2.1792 -0.3113
  395MOL0     H54477   2.748   3.032   8.446  3.2872  2.5348 -0.0442
  395MOL0     H54478   2.763   2.721   8.430 -1.3104  0.6730 -0.0313
  395MOL0     H54479   2.753   2.830   8.290  0.4440  0.7647 -0.9558
  395MOL0     H54480   2.534   2.908   8.401  0.9306 -0.0478 -0.6398
  395MOL0     H54481   2.567   2.755   8.506  0.0997 -0.4087 -0.2673
  395MOL0     H54482   2.429   2.750   8.255 -0.4885 -0.7828 -1.0908
  395MOL0     H54483   2.591   2.753   8.186 -0.7255  4.5644  0.2414
  395MOL0     H54484   2.475   2.554   8.376 -0.2605  0.4240 -0.0825
  395MOL0     H54485   2.646   2.535   8.325 -1.9214 -4.0445 -1.3353
  395MOL0     H54486   2.561   2.407   8.136  1.6292  0.5571 -0.1809
  395MOL0     H54487   2.473   2.552   8.080 -3.1517  0.3879  1.0345
  395MOL0     H54488   2.320   2.403   8.096  2.7921 -1.6581 -0.6952
  395MOL0     H54489   2.287   2.494   8.239  0.1934 -1.1105  2.5945
  395MOL0     H54490   3.213   2.927   8.491  0.1263  1.1538 -0.0547
  395MOL0     H54491   3.424   2.968   8.434  0.5016  3.4002  1.2191
  395MOL0     H54492   3.603   3.212   7.968 -0.1227  0.4751 -1.0664
  395MOL0     H54493   3.831   3.226   7.843  1.4646  0.3459 -0.0216
  395MOL0     H54494   4.168   1.870   7.033  1.6602  1.5269  0.8250
  395MOL0     H54495   3.921   1.741   7.073  0.0946  0.0789  0.7833
  395MOL0     H54496   3.644   1.517   7.269 -1.9097  1.6717 -1.8800
  395MOL0     H54497   3.440   1.391   7.289 -3.1169  0.1061  0.8025
  395MOL0     H54498   3.227   1.445   7.652  2.4810  1.4953 -0.7966
  395MOL0     H54499   3.128   1.554   7.545 -0.6495  0.7042 -4.1529
  395MOL0     H54500   2.972   1.378   7.627  0.1935  1.4318 -0.9495
  395MOL0     H54501   3.084   1.259   7.575  2.1231  1.6061  1.4961
  395MOL0     H54502   2.871   1.395   7.425  0.9351  0.5381  1.0193
  395MOL0     H54503   3.012   1.485   7.372  0.6779 -1.2613 -3.0793
  395MOL0     H54504   3.095   1.276   7.261  1.7193 -0.5816  1.5852
  395MOL0     H54505   2.920   1.314   7.231 -0.4655  1.3167  1.4194
  395MOL0     H54506   2.889   0.934   7.415  1.7283  0.4255  3.1935
  395MOL0     H54507   3.347   1.622   7.643  2.3089 -0.7112  3.2037
  395MOL0     H54508   3.661   1.769   7.704 -1.2116  1.2695  2.2116
  395MOL0     H54509   3.540   1.872   7.628 -4.0724 -0.7457  0.3927
  395MOL0     H54510   3.500   1.742   7.748  1.4777 -0.9146  2.0087
  396MOL0     O54511   2.665   6.041   0.250 -0.1966 -0.9118 -0.0548
  396MOL0     C54512   2.653   6.083   0.137 -0.5669  0.8084  0.3050
  396MOL0     O54513   2.704   6.199   0.098  0.9460 -0.1413  0.5364
  396MOL0     C54514   2.795   6.266   0.172  1.0699  0.1308  0.0048
  396MOL0     C54515   2.871   6.223   0.286  1.4312  0.0407 -0.1192
  396MOL0     C54516   2.953   6.321   0.346  0.4122 -0.0476 -0.0345
  396MOL0     C54517   2.958   6.455   0.309  0.3875  0.6806  0.3743
  396MOL0     O54518   3.028   6.554   0.378 -1.0651 -0.5385 -0.2568
  396MOL0     C54519   3.081   6.521   0.507 -1.5550 -0.0599  0.2700
  396MOL0     C54520   3.126   6.659   0.568 -0.1377  0.6065 -0.0372
  396MOL0     C54521   3.048   6.788   0.537 -0.0600 -1.0404 -0.1706
  396MOL0     C54522   3.070   6.896   0.639 -0.2928 -0.2274 -0.0007
  396MOL0     C54523   3.009   7.030   0.596  1.4908 -0.3533 -0.9346
  396MOL0     C54524   3.047   7.138   0.707  0.4637 -0.4061 -0.8656
  396MOL0     C54525   2.961   7.265   0.696 -0.1331  0.2111  0.6408
  396MOL0     C54526   2.808   7.250   0.696  0.1115 -0.1054 -0.0659
  396MOL0     N54527   2.767   7.177   0.817 -0.1903 -0.0924 -0.1858
  396MOL0     C54528   2.758   7.219   0.949 -0.3734  0.1606  0.3821
  396MOL0     C54529   2.733   7.108   1.029 -0.1806  0.4525 -0.3566
  396MOL0     C54530   2.687   7.109   1.173 -0.0297  0.2012 -0.2480
  396MOL0     C54531   2.688   6.968   1.237  0.0911  0.4799  0.5248
  396MOL0     C54532   2.574   6.879   1.185 -0.0184  0.1117 -0.3967
  396MOL0     C54533   2.466   6.866   1.291 -0.1131 -0.5229 -0.0872
  396MOL0     O54534   2.349   6.786   1.252  0.3342  0.1755  0.2660
  396MOL0     C54535   2.238   6.784   1.331  0.1175 -0.5999 -0.0991
  396MOL0     C54536   2.235   6.818   1.464 -0.0113  0.2737  0.1178
  396MOL0     C54537   2.126   6.819   1.550 -0.2310 -0.8509  1.0307
  396MOL0     C54538   2.132   6.862   1.695 -1.1954  0.3734  0.1263
  396MOL0     C54539   1.999   6.799   1.491 -0.0942 -0.3192 -0.1966
  396MOL0     C54540   1.873   6.825   1.559 -0.3450 -0.8761  0.3249
  396MOL0     O54541   1.757   6.815   1.484 -0.1800  0.5109 -0.6365
  396MOL0     C54542   1.646   6.874   1.541  0.1040 -0.1770 -0.1534
  396MOL0     C54543   1.540   6.798   1.588  0.4827  0.0165  0.9606
  396MOL0     C54544   1.432   6.861   1.641 -0.7056 -0.3514 -0.0059
  396MOL0     C54545   1.417   7.002   1.646  0.4044  0.4096  0.2991
  396MOL0     O54546   1.291   7.046   1.668 -0.0657 -0.4210  0.5569
  396MOL0     C54547   1.289   7.153   1.767  0.2806 -0.1311 -0.0108
  396MOL0     C54548   1.142   7.204   1.790  0.1563 -0.5465 -0.4888
  396MOL0     C54549   1.062   7.227   1.658  0.4096  0.0021  0.1996
  396MOL0     C54550   0.911   7.253   1.694 -0.9872  0.7752  0.8049
  396MOL0     C54551   0.830   7.263   1.559  0.3333 -0.0061 -0.9448
  396MOL0     C54552   0.806   7.126   1.496  0.5530 -0.5557 -0.5400
  396MOL0     C54553   0.771   7.144   1.350 -0.3237 -0.8300  1.0032
  396MOL0     C54554   0.776   7.007   1.275 -0.1572  0.0007  0.1959
  396MOL0    Cl54555   0.771   7.038   1.100 -0.2286  0.3602  0.0151
  396MOL0     C54556   1.527   7.082   1.605 -0.1015  0.2465  0.3960
  396MOL0     C54557   1.635   7.014   1.548  0.1824 -0.3420  0.5557
  396MOL0     O54558   1.876   6.873   1.670 -0.7442  0.6648 -1.0516
  396MOL0     C54559   1.994   6.756   1.356  0.0996  0.7696  0.7346
  396MOL0     C54560   2.112   6.745   1.276  0.2413 -0.2721  0.6589
  396MOL0     N54561   2.735   6.999   0.942  1.0020 -0.2687 -0.4305
  396MOL0     N54562   2.761   7.041   0.816 -0.2108  0.2961 -0.2821
  396MOL0     C54563   2.887   6.494   0.200 -0.3944 -0.6511 -0.4296
  396MOL0     C54564   2.803   6.401   0.138  0.0283  0.6006  0.5307
  396MOL0     C54565   2.558   6.018   0.056 -0.5196 -0.0065 -0.0567
  396MOL0     C54566   2.466   6.094  -0.018 -0.2001  0.8851  0.2891
  396MOL0     C54567   2.374   6.022  -0.097  0.3930 -0.0164 -1.1397
  396MOL0     C54568   2.379   5.883  -0.115  0.0002 -0.5889  0.1371
  396MOL0     O54569   2.306   5.823  -0.219  0.6851 -0.2485  0.0995
  396MOL0     C54570   2.161   5.832  -0.216  0.6277 -0.2327  0.7311
  396MOL0     C54571   2.089   5.702  -0.195  0.2774 -0.5291 -0.4759
  396MOL0     C54572   2.130   5.619  -0.071  0.2326 -0.0122 -0.0978
  396MOL0     C54573   2.124   5.700   0.059  0.2349 -0.9329  0.1606
  396MOL0     C54574   2.005   5.783   0.062  0.1674  0.4857 -0.2152
  396MOL0     C54575   1.891   5.830   0.059 -0.2326 -0.4202  0.5603
  396MOL0     C54576   2.468   5.807  -0.039  0.4024 -0.5375  0.3541
  396MOL0     C54577   2.564   5.875   0.042  0.5144 -0.0202  0.5249
  396MOL0     C54578   2.666   5.792   0.113  0.0294 -0.2615 -0.6420
  396MOL0     H54579   2.865   6.123   0.326 -1.3404 -1.0460 -2.8288
  396MOL0     H54580   2.999   6.286   0.438  1.0327  1.2589  0.1776
  396MOL0     H54581   3.169   6.455   0.505  1.1517  3.1822  1.5008
  396MOL0     H54582   3.008   6.478   0.577 -0.2216 -0.8315  1.2524
  396MOL0     H54583   3.127   6.639   0.676 -1.6478  2.8404  0.4507
  396MOL0     H54584   3.224   6.674   0.521  0.7584  3.2610  2.3667
  396MOL0     H54585   3.091   6.834   0.447  1.8024 -0.0612  1.1603
  396MOL0     H54586   2.941   6.775   0.519 -0.7486  4.1695 -1.4735
  396MOL0     H54587   3.019   6.861   0.729  2.0387 -2.0484  0.7326
  396MOL0     H54588   3.176   6.900   0.665 -0.7472 -0.2490  2.0283
  396MOL0     H54589   2.902   7.009   0.592  1.6974 -1.7947  0.2482
  396MOL0     H54590   3.053   7.059   0.500 -0.8608 -1.1433 -2.3494
  396MOL0     H54591   3.040   7.097   0.808  0.6945  2.9780  0.6329
  396MOL0     H54592   3.148   7.178   0.696 -0.3579  1.5972 -1.4955
  396MOL0     H54593   2.999   7.319   0.609 -1.6175  3.6070  1.9290
  396MOL0     H54594   2.988   7.342   0.769  0.8641  1.9635 -1.4636
  396MOL0     H54595   2.768   7.352   0.691  2.5775  0.9191 -0.8753
  396MOL0     H54596   2.783   7.195   0.605 -1.4255  0.1613  0.1830
  396MOL0     H54597   2.760   7.322   0.985  0.8386 -0.2365  1.5250
  396MOL0     H54598   2.586   7.150   1.187 -0.0449 -0.3139  1.3108
  396MOL0     H54599   2.751   7.175   1.231 -0.3476  1.3900 -1.1947
  396MOL0     H54600   2.785   6.921   1.218 -0.3951  0.1214 -1.2722
  396MOL0     H54601   2.686   6.976   1.346  0.1324  0.9943  0.4887
  396MOL0     H54602   2.533   6.918   1.091  2.2576  1.4639 -0.9169
  396MOL0     H54603   2.610   6.779   1.156  1.4552  0.4699  0.1229
  396MOL0     H54604   2.500   6.827   1.387 -0.9561 -1.4335 -0.1409
  396MOL0     H54605   2.432   6.969   1.297  0.0578 -0.4484 -0.3589
  396MOL0     H54606   2.321   6.847   1.524 -0.0062 -0.1497  0.3181
  396MOL0     H54607   2.233   6.859   1.736 -0.8589  1.8610 -0.5273
  396MOL0     H54608   2.079   6.799   1.766  0.9244  1.9862  3.4124
  396MOL0     H54609   2.100   6.967   1.700  0.6360  0.9072  1.9526
  396MOL0     H54610   1.549   6.690   1.586 -1.7829 -0.2099 -1.1680
  396MOL0     H54611   1.356   6.794   1.680 -1.1897  0.7741  1.0222
  396MOL0     H54612   1.324   7.114   1.863 -3.3569  0.6749  1.8226
  396MOL0     H54613   1.356   7.233   1.736  1.3489 -0.5273  1.1881
  396MOL0     H54614   1.091   7.138   1.860  1.1320  0.0946  0.8643
  396MOL0     H54615   1.128   7.298   1.844  0.3872 -1.0903  0.5308
  396MOL0     H54616   1.067   7.141   1.591  0.7103  0.7165 -0.7201
  396MOL0     H54617   1.111   7.306   1.600  1.0535 -0.7515 -0.3018
  396MOL0     H54618   0.897   7.350   1.742 -0.7747  0.0143  2.5055
  396MOL0     H54619   0.873   7.173   1.758  0.0352 -0.4017 -0.0039
  396MOL0     H54620   0.731   7.297   1.590 -0.3926 -1.4533 -1.5996
  396MOL0     H54621   0.886   7.339   1.503 -4.3749  2.5046 -2.8687
  396MOL0     H54622   0.727   7.082   1.558 -1.0072  0.2972 -1.8682
  396MOL0     H54623   0.898   7.068   1.509  0.4067 -0.5115  0.8677
  396MOL0     H54624   0.849   7.203   1.301 -0.6087 -0.7363  0.6566
  396MOL0     H54625   0.678   7.196   1.326 -0.1529 -0.7936  0.3983
  396MOL0     H54626   0.687   6.955   1.312 -0.3574  0.4876  0.3979
  396MOL0     H54627   0.867   6.951   1.300  0.0264  1.7966  4.2467
  396MOL0     H54628   1.527   7.190   1.609  1.3623  0.3525 -1.1526
  396MOL0     H54629   1.718   7.066   1.500 -1.8308 -0.3563 -3.3144
  396MOL0     H54630   1.906   6.722   1.303  2.0969 -0.7656 -1.8810
  396MOL0     H54631   2.096   6.709   1.175  0.1045  1.6995 -0.0644
  396MOL0     H54632   2.892   6.595   0.161  0.0063 -0.4719  0.0653
  396MOL0     H54633   2.752   6.446   0.053 -3.4673 -0.7145  1.7259
  396MOL0     H54634   2.464   6.202  -0.015 -0.5646  0.8763  0.3582
  396MOL0     H54635   2.295   6.083  -0.140 -3.4443 -1.7194  2.6895
  396MOL0     H54636   2.124   5.911  -0.149 -1.7779 -2.1227  1.7745
  396MOL0     H54637   2.136   5.872  -0.315  2.0894 -1.7220 -0.2970
  396MOL0     H54638   2.097   5.632  -0.279  0.2033 -0.2199 -0.7437
  396MOL0     H54639   1.989   5.747  -0.196  0.6015  0.3092  1.2006
  396MOL0     H54640   2.061   5.534  -0.064  0.2441  0.0653  1.2047
  396MOL0     H54641   2.234   5.588  -0.088  0.6508  1.7670 -0.9383
  396MOL0     H54642   2.206   5.771   0.069 -2.2877  2.3411 -0.3819
  396MOL0     H54643   2.106   5.637   0.146 -2.7151  0.7398  0.8850
  396MOL0     H54644   1.798   5.884   0.067  0.8308  1.9776 -1.8305
  396MOL0     H54645   2.465   5.700  -0.059  3.8989 -1.0462  1.7254
  396MOL0     H54646   2.768   5.832   0.114  0.3405 -0.9855 -1.5356
  396MOL0     H54647   2.638   5.783   0.218  0.6212 -0.9770 -0.5314
  396MOL0     H54648   2.670   5.696   0.059  0.9916 -0.2465 -0.6204
  397MOL0     O54649   0.472   4.924   7.884 -0.0839  0.6339  0.1200
  397MOL0     C54650   0.576   4.864   7.928  0.0993 -0.3830  0.6943
  397MOL0     O54651   0.694   4.858   7.865  0.2103 -0.5706 -0.3179
  397MOL0     C54652   0.703   4.928   7.752  0.2347  0.7132  0.9866
  397MOL0     C54653   0.687   4.861   7.632  1.3523 -0.4920 -0.0604
  397MOL0     C54654   0.731   4.928   7.517 -0.0929 -0.2504  0.8642
  397MOL0     C54655   0.751   5.063   7.527  0.4185 -0.3180 -0.8891
  397MOL0     O54656   0.803   5.137   7.423 -0.5108  0.5808 -0.4164
  397MOL0     C54657   0.737   5.255   7.381  0.4709 -0.3742 -0.3337
  397MOL0     C54658   0.821   5.383   7.359 -0.3067  0.3319  0.5760
  397MOL0     C54659   0.863   5.459   7.480  0.4561  0.1603  0.4185
  397MOL0     C54660   0.973   5.559   7.453 -0.4011 -1.1702 -0.5407
  397MOL0     C54661   0.930   5.692   7.370 -0.6845  0.1932 -0.7849
  397MOL0     C54662   1.050   5.787   7.393 -0.0753 -0.1229  0.2420
  397MOL0     C54663   1.039   5.901   7.284 -0.8014 -0.1898  0.5048
  397MOL0     C54664   1.148   6.002   7.300 -0.0056 -0.2845 -0.6391
  397MOL0     N54665   1.281   5.963   7.240  0.7183 -0.1786  0.3353
  397MOL0     C54666   1.368   5.897   7.323  0.3667  0.0668  0.9522
  397MOL0     C54667   1.478   5.863   7.243  0.5158 -0.2788 -0.2396
  397MOL0     C54668   1.603   5.807   7.295 -0.6758  0.3834  0.3974
  397MOL0     C54669   1.723   5.880   7.232 -0.0058 -0.2920 -1.2908
  397MOL0     C54670   1.746   6.020   7.290  0.1804 -0.5694 -0.0550
  397MOL0     C54671   1.869   6.099   7.229  0.2007 -0.5220  1.0352
  397MOL0     O54672   1.914   6.215   7.304 -0.1428  0.3318 -0.8019
  397MOL0     C54673   2.050   6.244   7.288  0.9665  0.4284 -0.7001
  397MOL0     C54674   2.139   6.238   7.397 -0.6928 -0.5575  0.3511
  397MOL0     C54675   2.281   6.269   7.390  0.5999  0.0940 -0.3019
  397MOL0     C54676   2.360   6.244   7.516  0.2201  0.7693  0.4984
  397MOL0     C54677   2.331   6.325   7.271 -0.6164 -0.6556  0.2171
  397MOL0     C54678   2.471   6.390   7.257  0.5734  1.0075  0.4814
  397MOL0     O54679   2.509   6.417   7.130 -0.2423 -0.8064  0.2363
  397MOL0     C54680   2.591   6.531   7.120 -0.3774  0.1031  0.1277
  397MOL0     C54681   2.727   6.513   7.070 -1.1913 -0.0318 -0.5843
  397MOL0     C54682   2.810   6.628   7.070 -0.5527  0.7055 -0.5591
  397MOL0     C54683   2.780   6.759   7.118  0.0497  0.4888  0.5449
  397MOL0     O54684   2.881   6.853   7.116 -0.2113 -0.1827 -0.6730
  397MOL0     C54685   2.838   6.981   7.165  0.6375 -0.5666  0.6275
  397MOL0     C54686   2.945   7.080   7.129 -1.3042  0.2981  0.7493
  397MOL0     C54687   3.078   7.043   7.206 -0.0779 -1.0248  0.2913
  397MOL0     C54688   3.209   7.100   7.138  0.1276 -0.3602 -0.6283
  397MOL0     C54689   3.332   7.128   7.227 -0.1221  0.0823  0.7548
  397MOL0     C54690   3.450   7.192   7.161 -0.2569  0.5067  0.4654
  397MOL0     C54691   3.575   7.187   7.246  0.0368 -0.0946  0.0612
  397MOL0     C54692   3.666   7.304   7.204 -0.0857 -0.9067  0.0900
  397MOL0    Cl54693   3.600   7.472   7.245  0.1239  0.3794  0.6183
  397MOL0     C54694   2.645   6.766   7.173  0.6889 -0.1590 -1.1276
  397MOL0     C54695   2.556   6.656   7.168 -0.3460  0.0843  0.5998
  397MOL0     O54696   2.537   6.421   7.354  1.3286  0.7113 -0.1106
  397MOL0     C54697   2.235   6.355   7.167  0.1446  0.5601  0.5486
  397MOL0     C54698   2.103   6.306   7.173  1.1846 -0.6593  0.0066
  397MOL0     N54699   1.440   5.915   7.118  0.0592 -0.6731  0.2584
  397MOL0     N54700   1.332   5.980   7.112  0.0989  0.5137 -0.5077
  397MOL0     C54701   0.735   5.134   7.645 -0.6119 -0.5266 -0.2570
  397MOL0     C54702   0.716   5.068   7.760 -0.3812  0.1240 -1.0518
  397MOL0     C54703   0.571   4.797   8.058  1.4222  0.2108  0.6646
  397MOL0     C54704   0.661   4.695   8.088 -1.0745 -0.4230  0.0106
  397MOL0     C54705   0.668   4.626   8.217 -0.5756  0.7975 -0.1870
  397MOL0     C54706   0.574   4.660   8.317 -0.0052  0.9384  0.2257
  397MOL0     O54707   0.578   4.619   8.447 -0.5250  0.2409  0.5782
  397MOL0     C54708   0.659   4.695   8.539 -0.9580  0.0096 -1.0340
  397MOL0     C54709   0.789   4.628   8.574 -0.3044  0.1842 -1.0534
  397MOL0     C54710   0.780   4.488   8.618 -1.6938 -0.7692 -0.8318
  397MOL0     C54711   0.911   4.434   8.677 -0.9956 -0.6468 -0.3252
  397MOL0     C54712   1.002   4.385   8.568  0.0679  0.1414  0.6028
  397MOL0     C54713   1.074   4.333   8.481 -0.2847 -0.3008  0.3743
  397MOL0     C54714   0.485   4.763   8.294  0.2343 -0.6892  0.9202
  397MOL0     C54715   0.480   4.836   8.163 -0.3848 -0.0974  0.4374
  397MOL0     C54716   0.379   4.935   8.148 -0.2878 -0.6902 -0.8160
  397MOL0     H54717   0.654   4.757   7.631 -1.1258  0.2071 -1.6014
  397MOL0     H54718   0.740   4.880   7.420 -0.0395 -2.0616  1.7176
  397MOL0     H54719   0.652   5.286   7.442 -1.2946 -0.3223 -2.6777
  397MOL0     H54720   0.690   5.225   7.287 -1.2329 -0.1160  0.4080
  397MOL0     H54721   0.910   5.352   7.302  0.5370  1.4774  1.2349
  397MOL0     H54722   0.766   5.452   7.295 -0.9724  1.8275  2.6407
  397MOL0     H54723   0.784   5.508   7.537  0.4035  0.2383  0.2790
  397MOL0     H54724   0.906   5.383   7.546 -0.9463 -0.3479  0.7859
  397MOL0     H54725   1.010   5.584   7.553 -0.0300  1.8456 -1.3321
  397MOL0     H54726   1.062   5.521   7.402  0.1309 -0.8641  0.1347
  397MOL0     H54727   0.839   5.732   7.416 -1.2027 -1.2941 -0.4639
  397MOL0     H54728   0.916   5.660   7.266 -0.1686  0.2362 -0.8675
  397MOL0     H54729   1.050   5.833   7.492 -0.8414  3.5790 -1.2799
  397MOL0     H54730   1.141   5.730   7.371  0.5807  1.3154 -0.9818
  397MOL0     H54731   0.944   5.953   7.302 -1.2153  0.1251 -2.1942
  397MOL0     H54732   1.034   5.864   7.181 -0.7440 -0.5672  0.6370
  397MOL0     H54733   1.128   6.099   7.253  0.2343  0.3642  0.5465
  397MOL0     H54734   1.170   6.013   7.407  1.0096  0.2868 -0.8853
  397MOL0     H54735   1.351   5.872   7.427 -0.2242  3.0550  1.6673
  397MOL0     H54736   1.621   5.706   7.257  2.3686  0.6989  0.8053
  397MOL0     H54737   1.613   5.809   7.404  1.8544  2.2606  0.2215
  397MOL0     H54738   1.808   5.812   7.245 -1.5119 -2.5043 -2.2798
  397MOL0     H54739   1.709   5.896   7.125  1.3658  2.2981 -1.1584
  397MOL0     H54740   1.654   6.077   7.277  0.1458 -0.5114  0.4347
  397MOL0     H54741   1.758   6.005   7.398  0.5875  1.6999  0.2659
  397MOL0     H54742   1.953   6.032   7.205  2.1040  1.3914  1.9949
  397MOL0     H54743   1.844   6.129   7.126 -1.4601 -0.7414  1.3491
  397MOL0     H54744   2.116   6.211   7.500 -0.1573 -4.8786 -0.4351
  397MOL0     H54745   2.421   6.154   7.516 -0.6287  0.1784  0.7823
  397MOL0     H54746   2.294   6.250   7.604  0.2266  4.4954  0.4154
  397MOL0     H54747   2.431   6.326   7.530 -1.5803  2.5597 -0.2751
  397MOL0     H54748   2.769   6.423   7.025  1.4967  1.2910 -0.9292
  397MOL0     H54749   2.908   6.603   7.031  0.0858  0.4859  1.0795
  397MOL0     H54750   2.755   7.013   7.100  0.7706  1.3597  1.3402
  397MOL0     H54751   2.824   6.999   7.272  2.0240 -0.5084  0.8054
  397MOL0     H54752   2.979   7.066   7.026  0.0475 -1.9061  1.4198
  397MOL0     H54753   2.927   7.187   7.144  1.6870  1.1111 -0.6346
  397MOL0     H54754   3.080   6.934   7.220 -0.1518 -0.8385  2.0517
  397MOL0     H54755   3.071   7.091   7.304 -2.9964  0.8591 -0.7322
  397MOL0     H54756   3.181   7.191   7.085  1.1115 -0.4771 -1.3653
  397MOL0     H54757   3.241   7.029   7.062 -0.5840 -1.3519 -0.0287
  397MOL0     H54758   3.300   7.197   7.306 -0.3733 -0.1256  0.8379
  397MOL0     H54759   3.364   7.034   7.275  0.4477 -1.1165 -1.8127
  397MOL0     H54760   3.425   7.297   7.144 -0.7202 -0.0479 -2.9589
  397MOL0     H54761   3.475   7.153   7.062  0.7593  2.6417 -0.1819
  397MOL0     H54762   3.620   7.089   7.228 -2.1434 -1.8150  3.0153
  397MOL0     H54763   3.545   7.194   7.351  0.4174 -1.8767  0.3156
  397MOL0     H54764   3.676   7.298   7.095 -0.1179 -1.2575  0.1069
  397MOL0     H54765   3.760   7.299   7.261  1.7583 -0.6221 -2.7029
  397MOL0     H54766   2.612   6.856   7.223 -1.1476 -1.6659  0.5316
  397MOL0     H54767   2.461   6.688   7.210 -1.0969  1.8828 -2.1997
  397MOL0     H54768   2.250   6.399   7.069 -0.7110  0.4700  0.3695
  397MOL0     H54769   2.049   6.319   7.080 -0.0804 -0.4874  0.7411
  397MOL0     H54770   0.739   5.242   7.653 -1.7289 -0.3507 -1.7169
  397MOL0     H54771   0.700   5.130   7.848 -1.2044 -2.4931  0.7537
  397MOL0     H54772   0.725   4.651   8.011 -2.3897  1.5773 -2.3517
  397MOL0     H54773   0.741   4.548   8.231  0.6688  1.5921 -1.9393
  397MOL0     H54774   0.675   4.786   8.481 -2.0974  1.6938  1.1127
  397MOL0     H54775   0.599   4.715   8.629 -0.8685  2.6772 -1.4766
  397MOL0     H54776   0.847   4.678   8.652  1.3750 -2.1161 -0.7215
  397MOL0     H54777   0.853   4.628   8.486  2.0598  2.0149  0.5353
  397MOL0     H54778   0.701   4.485   8.694 -0.8348  2.4076  0.3394
  397MOL0     H54779   0.745   4.427   8.534 -0.5089 -1.1408 -1.0737
  397MOL0     H54780   0.902   4.346   8.741  1.0344  0.3628  1.5039
  397MOL0     H54781   0.960   4.505   8.745  1.3061 -2.4622  0.0199
  397MOL0     H54782   1.130   4.277   8.408 -1.7646  1.5789 -2.4013
  397MOL0     H54783   0.425   4.798   8.377  1.3408 -1.5034  2.1168
  397MOL0     H54784   0.308   4.926   8.066 -1.8367  4.4260 -0.4251
  397MOL0     H54785   0.307   4.939   8.231  0.8918 -0.6208  0.2276
  397MOL0     H54786   0.424   5.035   8.152 -1.2865 -0.1991  3.0548
  398MOL0     O54787   2.897   4.798   9.801 -0.6321 -0.2863 -0.2726
  398MOL0     C54788   2.911   4.849   9.693  0.1652 -0.2631  0.3373
  398MOL0     O54789   2.934   4.990   9.668  0.2704  0.1105  0.0596
  398MOL0     C54790   2.877   5.073   9.758 -0.5361  0.2783  0.0306
  398MOL0     C54791   2.741   5.074   9.775  0.3640 -0.2182 -0.1134
  398MOL0     C54792   2.683   5.143   9.873  0.1969 -1.0139 -0.3565
  398MOL0     C54793   2.758   5.239   9.941  0.6483 -0.0200 -0.3462
  398MOL0     O54794   2.694   5.314  10.035 -0.0112  0.4426  0.1539
  398MOL0     C54795   2.634   5.265  10.159 -0.3058  0.2986  0.7976
  398MOL0     C54796   2.517   5.345  10.203 -0.3599  0.0085 -0.6708
  398MOL0     C54797   2.397   5.351  10.098 -0.1152 -0.2682 -0.6800
  398MOL0     C54798   2.284   5.443  10.149  0.3175 -0.3118 -0.8618
  398MOL0     C54799   2.184   5.483  10.048  0.2976 -0.0627 -0.3780
  398MOL0     C54800   2.132   5.626  10.076 -0.2342 -0.4068  0.1625
  398MOL0     C54801   1.989   5.646  10.012 -0.6201  0.2817 -0.3561
  398MOL0     C54802   1.878   5.717  10.092  0.0518  1.0437  0.4506
  398MOL0     N54803   1.782   5.778  10.001  0.5174  0.3669 -0.0221
  398MOL0     C54804   1.699   5.713   9.918 -0.3561  0.5412  0.6916
  398MOL0     C54805   1.652   5.804   9.833 -0.2662  0.3743  0.6751
  398MOL0     C54806   1.564   5.798   9.707  0.0590  0.1051 -0.0181
  398MOL0     C54807   1.632   5.768   9.569 -0.2231  0.3745  0.4927
  398MOL0     C54808   1.722   5.644   9.559 -0.4808 -1.1103  0.0867
  398MOL0     C54809   1.713   5.582   9.421  0.4638 -0.3862  0.5280
  398MOL0     O54810   1.802   5.469   9.422 -0.3898  0.4653 -0.8236
  398MOL0     C54811   1.843   5.424   9.299  0.7043  0.3858  0.1616
  398MOL0     C54812   1.831   5.285   9.275  0.3511  0.4865 -0.8470
  398MOL0     C54813   1.850   5.232   9.150  0.1501 -0.1216  0.0072
  398MOL0     C54814   1.865   5.080   9.144 -0.5129 -0.0530 -0.1032
  398MOL0     C54815   1.898   5.317   9.042  0.7049 -0.1264  1.0786
  398MOL0     C54816   1.936   5.274   8.908  0.3536 -0.4455 -0.4367
  398MOL0     O54817   2.004   5.372   8.823 -0.4417  0.5938 -0.7862
  398MOL0     C54818   2.063   5.349   8.705  0.7208  0.5100  0.4638
  398MOL0     C54819   2.157   5.435   8.668 -0.9393  0.0504  0.5930
  398MOL0     C54820   2.203   5.432   8.534  0.9544  0.0662 -0.4020
  398MOL0     C54821   2.166   5.334   8.442  0.5918 -1.6462 -0.4459
  398MOL0     O54822   2.202   5.322   8.312  0.7148 -0.0567  0.4619
  398MOL0     C54823   2.306   5.397   8.258 -0.7185 -0.6146  0.4738
  398MOL0     C54824   2.448   5.358   8.315 -0.8743 -0.0594 -0.6498
  398MOL0     C54825   2.456   5.212   8.354  0.3377 -0.6006  0.6520
  398MOL0     C54826   2.603   5.179   8.375 -0.1336  0.2759  0.1456
  398MOL0     C54827   2.603   5.055   8.466  0.7746  0.0815 -0.2625
  398MOL0     C54828   2.517   4.939   8.427  0.2971  0.3349  0.8960
  398MOL0     C54829   2.559   4.853   8.306  0.2645  0.2626  0.4331
  398MOL0     C54830   2.435   4.777   8.252  0.2064 -0.4363  0.1103
  398MOL0    Cl54831   2.501   4.682   8.104 -0.0495 -0.0918  0.2988
  398MOL0     C54832   2.057   5.258   8.479  0.2083  0.7155 -0.9980
  398MOL0     C54833   2.009   5.257   8.616 -0.6360 -0.2874 -0.1577
  398MOL0     O54834   1.891   5.168   8.867 -0.3022  0.6644  0.3523
  398MOL0     C54835   1.897   5.454   9.077 -0.0954  0.1464  0.5575
  398MOL0     C54836   1.870   5.505   9.201 -0.2538  0.0885 -0.9109
  398MOL0     N54837   1.700   5.928   9.870 -0.0577  0.1594  0.4296
  398MOL0     N54838   1.785   5.908   9.967  1.1694 -1.3361  0.2022
  398MOL0     C54839   2.894   5.264   9.913 -0.2848 -0.0109 -0.6949
  398MOL0     C54840   2.953   5.179   9.819 -0.1906  0.1216  0.0660
  398MOL0     C54841   2.929   4.766   9.577  0.2115  0.2173  0.5811
  398MOL0     C54842   2.961   4.824   9.443 -0.5080 -1.3527 -0.3370
  398MOL0     C54843   2.982   4.753   9.330  0.1380 -0.3718  0.0305
  398MOL0     C54844   2.971   4.621   9.333  0.7407  0.1083  0.1802
  398MOL0     O54845   3.000   4.538   9.222 -0.3678  0.2413 -0.8688
  398MOL0     C54846   2.993   4.397   9.223 -0.0712  0.2230 -0.4434
  398MOL0     C54847   2.851   4.332   9.203  1.2030 -1.8628  0.6710
  398MOL0     C54848   2.845   4.243   9.077  0.2667  0.2299  0.0543
  398MOL0     C54849   2.724   4.142   9.056  0.7941 -1.2113 -0.0196
  398MOL0     C54850   2.734   4.082   8.922  0.0434 -0.0956 -0.0008
  398MOL0     C54851   2.763   4.035   8.817  1.8736  1.0380 -0.0089
  398MOL0     C54852   2.928   4.551   9.459  0.4068 -0.3727  0.2354
  398MOL0     C54853   2.909   4.624   9.576 -1.3205  0.1821  0.4232
  398MOL0     C54854   2.868   4.548   9.696 -0.4585  0.2140  0.0598
  398MOL0     H54855   2.695   4.997   9.714  2.6119 -0.9378 -1.0267
  398MOL0     H54856   2.578   5.139   9.900  0.0586  2.3093  0.0611
  398MOL0     H54857   2.701   5.275  10.244  0.6566  1.8158 -0.0933
  398MOL0     H54858   2.599   5.162  10.148 -1.7015  0.8403 -0.1972
  398MOL0     H54859   2.478   5.296  10.293  0.3890  1.4391  0.4796
  398MOL0     H54860   2.548   5.448  10.222  1.1705 -0.7141  1.0462
  398MOL0     H54861   2.448   5.404  10.017  1.2917  3.0483  2.1065
  398MOL0     H54862   2.349   5.254  10.082 -0.8313  0.2626 -1.8315
  398MOL0     H54863   2.225   5.395  10.227  0.3446 -2.4538 -2.0973
  398MOL0     H54864   2.333   5.532  10.190  1.7106 -1.4797  0.1104
  398MOL0     H54865   2.106   5.407  10.048 -0.7297  0.8525  2.6040
  398MOL0     H54866   2.218   5.488   9.944  3.5851 -0.6274  0.5441
  398MOL0     H54867   2.107   5.651  10.180 -1.3233 -0.3736 -0.0972
  398MOL0     H54868   2.207   5.702  10.052  0.8926 -2.0548 -1.8517
  398MOL0     H54869   1.951   5.544   9.996  0.5733  0.0304 -1.7464
  398MOL0     H54870   2.015   5.691   9.916  0.3913 -4.5129 -2.6753
  398MOL0     H54871   1.820   5.647  10.153 -2.7322  2.4667 -0.3819
  398MOL0     H54872   1.907   5.805  10.150  0.7062  1.9900 -1.2367
  398MOL0     H54873   1.684   5.606   9.912 -2.6234  0.7367  1.8119
  398MOL0     H54874   1.528   5.901   9.711  2.7815  1.0865  1.4319
  398MOL0     H54875   1.485   5.723   9.720  0.5643 -0.6094 -0.9389
  398MOL0     H54876   1.553   5.773   9.493 -0.3246  0.2153  0.5873
  398MOL0     H54877   1.698   5.854   9.554 -0.8686  1.3145  2.6731
  398MOL0     H54878   1.819   5.684   9.587 -0.9504  0.1172  0.0044
  398MOL0     H54879   1.695   5.569   9.634  0.7378 -1.1552  0.5005
  398MOL0     H54880   1.611   5.544   9.409 -0.8555  3.3175 -1.6830
  398MOL0     H54881   1.735   5.654   9.342  1.5688  0.0870  1.2551
  398MOL0     H54882   1.810   5.217   9.357  1.3239  0.4888 -0.5824
  398MOL0     H54883   1.972   5.067   9.126 -0.5350 -0.6461  0.1919
  398MOL0     H54884   1.804   5.028   9.070  1.5966 -4.2409  0.8469
  398MOL0     H54885   1.839   5.032   9.238  2.3685 -1.0259  0.2798
  398MOL0     H54886   2.215   5.494   8.739  2.1169 -0.3410 -1.4346
  398MOL0     H54887   2.280   5.498   8.496  1.5003 -1.6365 -2.4296
  398MOL0     H54888   2.312   5.366   8.153  0.9819 -1.1624  0.6920
  398MOL0     H54889   2.281   5.503   8.243 -1.6932 -1.0730 -1.5096
  398MOL0     H54890   2.522   5.381   8.238 -1.6040  4.4785 -0.2963
  398MOL0     H54891   2.474   5.434   8.389 -1.5666  0.6138 -1.0757
  398MOL0     H54892   2.424   5.145   8.274 -1.9842  0.1668  0.8584
  398MOL0     H54893   2.391   5.192   8.440  1.3983 -0.2283  1.5592
  398MOL0     H54894   2.649   5.254   8.439 -2.1670 -0.1382  2.2498
  398MOL0     H54895   2.647   5.147   8.280 -4.3447 -3.7900 -0.8164
  398MOL0     H54896   2.699   5.002   8.469  0.8387 -0.0910 -2.9919
  398MOL0     H54897   2.572   5.085   8.567 -1.8500  0.6691 -1.1707
  398MOL0     H54898   2.417   4.973   8.397  0.8848 -0.2980 -2.0732
  398MOL0     H54899   2.508   4.877   8.517 -0.1866 -0.1958  0.4905
  398MOL0     H54900   2.628   4.774   8.337  0.0684 -1.1707 -2.5232
  398MOL0     H54901   2.600   4.922   8.231 -1.0370  0.8542  0.2426
  398MOL0     H54902   2.361   4.847   8.212  1.6840  1.8582  1.2435
  398MOL0     H54903   2.379   4.708   8.316 -3.1775  1.8875 -0.0659
  398MOL0     H54904   2.015   5.188   8.408 -0.4765 -1.1056  1.0665
  398MOL0     H54905   1.919   5.204   8.646 -0.7891 -0.0959 -0.2731
  398MOL0     H54906   1.928   5.533   9.009 -1.0210 -0.1145 -0.1890
  398MOL0     H54907   1.888   5.607   9.232  1.2195 -1.3720  3.8210
  398MOL0     H54908   2.956   5.342   9.958  0.5976 -1.4609  0.7345
  398MOL0     H54909   3.055   5.196   9.786  0.0919 -1.2999  0.1772
  398MOL0     H54910   2.979   4.929   9.423 -0.9888 -1.6120 -2.3035
  398MOL0     H54911   3.016   4.800   9.238 -2.7956 -2.2428 -2.1645
  398MOL0     H54912   3.051   4.365   9.136  0.1130 -2.5449  0.5689
  398MOL0     H54913   3.037   4.357   9.315  0.4308  3.2619  0.7494
  398MOL0     H54914   2.778   4.413   9.193  0.3048 -2.1468  3.6938
  398MOL0     H54915   2.825   4.277   9.294 -1.3683 -1.2038  0.4411
  398MOL0     H54916   2.849   4.319   8.998 -2.0751  0.7574  0.3692
  398MOL0     H54917   2.935   4.181   9.078  1.4186  1.8398  1.1451
  398MOL0     H54918   2.629   4.197   9.064  2.0485  1.0475  0.2777
  398MOL0     H54919   2.722   4.061   9.130 -1.5054 -1.4375 -0.2385
  398MOL0     H54920   2.783   3.994   8.721 -0.3812 -2.0457  0.6988
  398MOL0     H54921   2.936   4.443   9.467 -2.0306 -0.5987  0.2930
  398MOL0     H54922   2.781   4.593   9.746 -1.2139 -0.0741 -0.9648
  398MOL0     H54923   2.833   4.450   9.664  2.0920 -0.7152 -0.0822
  398MOL0     H54924   2.954   4.538   9.763 -0.1650 -0.4284 -0.4127
  399MOL0     O54925   4.870   1.989  10.623 -0.2494 -0.6818  0.6401
  399MOL0     C54926   4.961   2.068  10.595 -0.5304 -0.1318  0.6395
  399MOL0     O54927   4.986   2.136  10.475 -0.7187 -0.1403  0.0379
  399MOL0     C54928   4.898   2.127  10.372 -0.0801 -0.0034 -0.0320
  399MOL0     C54929   4.799   2.226  10.360  0.3317  0.7056  0.1393
  399MOL0     C54930   4.715   2.227  10.246 -0.4690  0.2008 -0.4484
  399MOL0     C54931   4.727   2.129  10.147  0.8214  0.6177 -0.0102
  399MOL0     O54932   4.630   2.140  10.050 -0.3870 -0.4176  0.1896
  399MOL0     C54933   4.625   2.050   9.946  0.5618  1.0636 -0.0448
  399MOL0     C54934   4.517   2.078   9.828 -0.6140 -0.2524 -0.3643
  399MOL0     C54935   4.371   2.068   9.890 -0.3273  0.3911  0.2413
  399MOL0     C54936   4.261   2.109   9.792 -0.1181 -0.6568 -0.0950
  399MOL0     C54937   4.125   2.132   9.866  0.2181 -0.9226  0.3397
  399MOL0     C54938   4.012   2.150   9.769  0.2996  0.5699 -0.2312
  399MOL0     C54939   4.019   2.269   9.677  0.7467 -0.0007 -0.5993
  399MOL0     C54940   3.897   2.260   9.581 -0.0726  0.8032 -0.1070
  399MOL0     N54941   3.949   2.202   9.461 -0.3599  0.2707 -0.6149
  399MOL0     C54942   3.988   2.268   9.345 -0.5514  0.3649 -0.3080
  399MOL0     C54943   4.024   2.183   9.248 -1.0618  0.3787  0.6890
  399MOL0     C54944   4.049   2.220   9.109  0.7276  0.1398  0.1924
  399MOL0     C54945   3.904   2.234   9.041 -0.0677 -0.5822 -0.2119
  399MOL0     C54946   3.908   2.293   8.899  1.1624 -0.4455 -0.7551
  399MOL0     C54947   3.793   2.226   8.815 -0.2415 -0.1579 -0.1088
  399MOL0     O54948   3.819   2.271   8.678  0.5908 -0.2764  0.4052
  399MOL0     C54949   3.720   2.234   8.589  0.8897 -1.2457  0.0371
  399MOL0     C54950   3.721   2.303   8.467  0.4051 -0.3366 -0.3213
  399MOL0     C54951   3.659   2.249   8.346  0.2411 -0.0001  0.0409
  399MOL0     C54952   3.652   2.350   8.229  0.4605  0.6431 -0.5158
  399MOL0     C54953   3.592   2.128   8.357 -0.0265  0.0376  0.3581
  399MOL0     C54954   3.532   2.064   8.235  1.4270 -0.0266  0.4330
  399MOL0     O54955   3.570   1.951   8.176 -0.6933 -0.1229  0.3493
  399MOL0     C54956   3.705   1.931   8.189 -0.3631  0.5213  0.9595
  399MOL0     C54957   3.760   1.863   8.296  0.2806 -1.4234  0.7150
  399MOL0     C54958   3.898   1.834   8.295 -0.0900  0.3576  0.8759
  399MOL0     C54959   3.988   1.887   8.188  0.1883 -0.2555 -0.1043
  399MOL0     O54960   4.120   1.869   8.213 -0.0476 -0.2666  0.3881
  399MOL0     C54961   4.209   1.895   8.108 -0.2094 -0.2514  0.8760
  399MOL0     C54962   4.350   1.836   8.131  0.1046  0.1949 -0.0765
  399MOL0     C54963   4.426   1.911   8.234  0.2127 -0.1366  0.1000
  399MOL0     C54964   4.563   1.852   8.246  0.3770 -0.0274  0.3871
  399MOL0     C54965   4.651   1.896   8.129  0.4525 -1.2343 -0.4135
  399MOL0     C54966   4.763   1.801   8.106 -0.6557 -0.3206  0.4457
  399MOL0     C54967   4.864   1.849   7.988  0.5259 -0.4659  0.0640
  399MOL0     C54968   4.951   1.962   8.055 -0.7264  0.5917 -0.7152
  399MOL0    Cl54969   5.079   1.987   7.945  0.0323  0.2339  0.0228
  399MOL0     C54970   3.929   1.947   8.081 -0.2467 -0.3070 -0.2257
  399MOL0     C54971   3.790   1.963   8.072  0.5779 -0.6453  0.9817
  399MOL0     O54972   3.439   2.128   8.192 -0.2025  0.7911 -0.0236
  399MOL0     C54973   3.586   2.069   8.482 -0.0008 -0.0433  0.4529
  399MOL0     C54974   3.640   2.115   8.595 -0.7333 -0.5003 -0.0239
  399MOL0     N54975   4.000   2.056   9.308 -0.4751  0.2010 -0.1333
  399MOL0     N54976   3.964   2.073   9.430 -0.1842  0.1693 -0.5830
  399MOL0     C54977   4.825   2.034  10.158 -1.0739 -0.3921 -0.5080
  399MOL0     C54978   4.918   2.042  10.264 -0.3687  0.0298  0.5063
  399MOL0     C54979   5.052   2.096  10.697 -0.0823  0.6368 -0.8944
  399MOL0     C54980   5.081   2.235  10.717 -0.4275 -0.0981  0.7047
  399MOL0     C54981   5.161   2.279  10.823 -0.8913  0.1697  0.9535
  399MOL0     C54982   5.199   2.191  10.920  0.6043  0.2311 -0.0978
  399MOL0     O54983   5.266   2.226  11.037  0.6685  0.6980  0.1221
  399MOL0     C54984   5.250   2.364  11.074 -0.3720  0.4533  0.6193
  399MOL0     C54985   5.316   2.386  11.213  0.8863  0.2673 -0.0960
  399MOL0     C54986   5.268   2.305  11.332 -0.8541 -0.1318  0.6332
  399MOL0     C54987   5.358   2.316  11.452 -0.7837 -0.1128 -0.4146
  399MOL0     C54988   5.342   2.201  11.548 -0.5736  0.3489  0.8090
  399MOL0     C54989   5.331   2.122  11.637  0.0343  0.1812 -0.3854
  399MOL0     C54990   5.171   2.056  10.904  1.0403  0.1598  0.4034
  399MOL0     C54991   5.097   2.005  10.799 -0.4228 -0.7601 -0.8061
  399MOL0     C54992   5.079   1.853  10.808  0.9328  0.2326  0.2354
  399MOL0     H54993   4.800   2.298  10.441  2.3850 -0.6635  1.4177
  399MOL0     H54994   4.639   2.301  10.228 -0.1609  0.1166 -2.2162
  399MOL0     H54995   4.589   1.953   9.982  2.3342  0.3273 -0.1307
  399MOL0     H54996   4.721   2.035   9.896  1.5946 -2.1501  2.5298
  399MOL0     H54997   4.544   2.179   9.795  2.6543 -1.1193 -0.6939
  399MOL0     H54998   4.534   2.008   9.746  1.4091 -2.0395  1.4291
  399MOL0     H54999   4.344   1.968   9.922 -0.4699  0.2781 -0.2224
  399MOL0     H55000   4.368   2.122   9.985 -0.3740  1.8671 -0.5618
  399MOL0     H55001   4.289   2.204   9.747 -0.1339  1.1200  3.3234
  399MOL0     H55002   4.254   2.036   9.711  0.0610 -1.3499  0.5008
  399MOL0     H55003   4.120   2.209   9.943  1.9391  4.0950 -3.9995
  399MOL0     H55004   4.112   2.033   9.911  2.4405 -1.4257  0.0428
  399MOL0     H55005   4.025   2.062   9.704  1.5242  0.2687  0.3905
  399MOL0     H55006   3.915   2.162   9.818 -0.3015  3.4341 -1.9234
  399MOL0     H55007   4.109   2.273   9.615  0.5967  1.4595 -0.7546
  399MOL0     H55008   4.027   2.356   9.742  0.3803  0.7324 -1.5168
  399MOL0     H55009   3.816   2.200   9.623  0.8398  1.6853  3.2634
  399MOL0     H55010   3.858   2.360   9.561  1.1273  0.8737 -2.5098
  399MOL0     H55011   3.981   2.373   9.317 -1.9719 -0.3321 -2.8958
  399MOL0     H55012   4.092   2.138   9.050 -2.9224 -0.4820 -1.9628
  399MOL0     H55013   4.101   2.315   9.097  3.7501 -1.2501  1.1938
  399MOL0     H55014   3.863   2.133   9.055 -0.3130 -0.3522  0.7689
  399MOL0     H55015   3.846   2.308   9.096  2.9318  0.5635  1.6432
  399MOL0     H55016   3.917   2.400   8.879  1.1096  0.2038  2.1965
  399MOL0     H55017   4.006   2.258   8.868  2.7459  2.3621  0.6984
  399MOL0     H55018   3.801   2.118   8.828  0.4973 -0.3233 -1.6602
  399MOL0     H55019   3.692   2.247   8.853 -0.7352 -0.0935 -1.3762
  399MOL0     H55020   3.788   2.388   8.459  1.1183 -1.0720 -3.1881
  399MOL0     H55021   3.704   2.441   8.258  2.7204 -2.0995  6.1441
  399MOL0     H55022   3.549   2.366   8.196  0.3453  5.5228  1.5051
  399MOL0     H55023   3.697   2.301   8.142  0.0720 -2.9064  1.1086
  399MOL0     H55024   3.695   1.832   8.377  1.7058  0.5585  2.7091
  399MOL0     H55025   3.946   1.767   8.366  1.4405 -0.6125 -0.9914
  399MOL0     H55026   4.174   1.849   8.015 -0.5830 -2.7115  2.1687
  399MOL0     H55027   4.216   1.998   8.070 -0.2363 -1.5732 -3.1646
  399MOL0     H55028   4.355   1.729   8.155  2.3672  0.3119  0.1774
  399MOL0     H55029   4.401   1.846   8.034  1.5460  1.2332  0.7499
  399MOL0     H55030   4.368   1.910   8.327  2.6164  0.0834  1.6868
  399MOL0     H55031   4.437   2.012   8.194  1.2737 -0.5873 -0.8086
  399MOL0     H55032   4.552   1.744   8.254 -1.2747  0.2478  4.4478
  399MOL0     H55033   4.611   1.896   8.334  1.8496  0.6573 -0.7181
  399MOL0     H55034   4.592   1.906   8.037  1.7614 -0.8090 -1.2315
  399MOL0     H55035   4.683   1.998   8.151 -0.0505 -1.5228  1.8760
  399MOL0     H55036   4.718   1.704   8.084 -2.3472  0.7383 -1.0110
  399MOL0     H55037   4.813   1.801   8.203 -1.2701  1.9113  0.8216
  399MOL0     H55038   4.816   1.881   7.895 -0.9049 -3.9704 -0.5490
  399MOL0     H55039   4.923   1.763   7.956  1.4920  0.7499 -1.5835
  399MOL0     H55040   4.990   1.945   8.156  0.4821 -0.0676 -1.2806
  399MOL0     H55041   4.890   2.052   8.070  1.6114  1.9443  1.8031
  399MOL0     H55042   3.995   1.978   8.001  1.8853  0.4360  1.7152
  399MOL0     H55043   3.756   2.020   7.986  3.1654  0.1663  0.4028
  399MOL0     H55044   3.541   1.971   8.496 -1.8501  0.9119  1.6073
  399MOL0     H55045   3.656   2.068   8.691 -1.4522 -0.3552  0.1677
  399MOL0     H55046   4.834   1.956  10.083  0.2017 -1.1355  0.3861
  399MOL0     H55047   5.014   1.992  10.278 -1.1844 -1.3648  1.4236
  399MOL0     H55048   5.042   2.319  10.659  3.7770  3.2478  2.1879
  399MOL0     H55049   5.186   2.385  10.825  1.5957 -0.2087 -2.1074
  399MOL0     H55050   5.283   2.436  10.998 -0.3718 -1.4557 -1.2978
  399MOL0     H55051   5.142   2.380  11.079 -0.4465  0.9902 -1.5518
  399MOL0     H55052   5.304   2.491  11.239 -0.6066  1.0478 -3.4125
  399MOL0     H55053   5.425   2.385  11.196  0.8004  1.5884 -0.8160
  399MOL0     H55054   5.171   2.350  11.356 -1.5654 -0.4132 -1.5017
  399MOL0     H55055   5.259   2.202  11.297  0.7370 -1.3723  3.4754
  399MOL0     H55056   5.327   2.404  11.508  0.6271  1.2069 -1.6478
  399MOL0     H55057   5.464   2.330  11.430 -0.9310  4.0364  0.6736
  399MOL0     H55058   5.306   2.068  11.726  0.7711 -0.0795 -0.3298
  399MOL0     H55059   5.212   1.987  10.977 -0.7953 -2.2950 -0.7274
  399MOL0     H55060   5.178   1.808  10.824  1.1981  0.7134 -0.0205
  399MOL0     H55061   5.023   1.831  10.899 -2.3917  0.9064 -1.5159
  399MOL0     H55062   5.023   1.813  10.724  2.4009 -0.5053 -0.4385
  400MOL0     O55063   1.584   7.340   6.804 -0.2313 -0.0421 -0.4156
  400MOL0     C55064   1.609   7.393   6.697 -0.1910  0.4623  0.1558
  400MOL0     O55065   1.639   7.528   6.672  0.2203 -0.4978 -0.3494
  400MOL0     C55066   1.579   7.618   6.767 -0.5957  0.0109 -0.6981
  400MOL0     C55067   1.457   7.605   6.825  0.7344  0.2338  0.4923
  400MOL0     C55068   1.394   7.711   6.898 -0.6369  0.4901 -1.0560
  400MOL0     C55069   1.465   7.824   6.930  0.3150 -0.6426 -0.8466
  400MOL0     O55070   1.394   7.920   6.999  0.4139  0.4248 -0.7560
  400MOL0     C55071   1.471   8.000   7.086  0.0567  0.4897  0.1118
  400MOL0     C55072   1.389   8.024   7.210  0.4055 -0.5863 -1.6028
  400MOL0     C55073   1.343   7.908   7.293  1.2579  0.4079  0.0482
  400MOL0     C55074   1.241   7.960   7.403 -0.1994  0.1615  0.6305
  400MOL0     C55075   1.177   7.846   7.480 -0.6015 -0.7915 -1.1133
  400MOL0     C55076   1.085   7.898   7.591 -0.2408  1.4066  0.1209
  400MOL0     C55077   1.005   7.788   7.669  0.7492  0.5383  1.2939
  400MOL0     C55078   1.075   7.705   7.776  0.2749 -0.6540 -0.0888
  400MOL0     N55079   1.177   7.614   7.729 -0.3038 -0.0512  0.4846
  400MOL0     C55080   1.150   7.490   7.691 -1.1986  0.3861 -0.1517
  400MOL0     C55081   1.275   7.424   7.693  0.2869 -0.5566  0.2279
  400MOL0     C55082   1.301   7.270   7.661  0.1102 -0.9188 -0.8216
  400MOL0     C55083   1.348   7.202   7.789  0.1164  0.4940  0.6459
  400MOL0     C55084   1.336   7.053   7.762 -0.5806  0.6491  0.8493
  400MOL0     C55085   1.416   6.971   7.858 -0.0062 -0.3004 -0.9524
  400MOL0     O55086   1.539   6.920   7.808  0.0689 -0.5082 -0.7322
  400MOL0     C55087   1.625   6.885   7.900  0.0381  0.1932 -0.3058
  400MOL0     C55088   1.606   6.792   8.001  0.2283 -0.3488 -0.1437
  400MOL0     C55089   1.700   6.772   8.104 -0.4063  0.2239  0.0474
  400MOL0     C55090   1.656   6.670   8.206 -0.2459  0.7227  0.2873
  400MOL0     C55091   1.819   6.851   8.107  0.5889 -0.6171  0.5232
  400MOL0     C55092   1.924   6.826   8.205 -1.0372  0.2542  0.6199
  400MOL0     O55093   2.023   6.923   8.192 -0.1563  0.0518  0.8589
  400MOL0     C55094   2.152   6.897   8.237  0.3578  0.0288  0.1184
  400MOL0     C55095   2.221   6.778   8.207 -0.6952  0.2404 -0.5803
  400MOL0     C55096   2.351   6.768   8.265  0.6879 -0.6448  0.4220
  400MOL0     C55097   2.410   6.865   8.356 -0.2984 -0.3519  0.2401
  400MOL0     O55098   2.541   6.855   8.404  1.2272 -0.3431 -0.3685
  400MOL0     C55099   2.556   6.743   8.483 -0.1496 -0.3441 -0.2505
  400MOL0     C55100   2.666   6.784   8.595  0.6199  0.9053 -0.7104
  400MOL0     C55101   2.798   6.792   8.510 -0.0122 -0.5291  0.6011
  400MOL0     C55102   2.909   6.800   8.611  0.1354 -0.7726 -0.5452
  400MOL0     C55103   3.048   6.787   8.537  0.5263 -0.4668 -0.3040
  400MOL0     C55104   3.165   6.784   8.635  0.9111 -0.8636  0.9811
  400MOL0     C55105   3.163   6.917   8.714  0.0413  0.6603  0.2256
  400MOL0     C55106   3.284   6.950   8.791 -0.3178 -0.6469  0.1656
  400MOL0    Cl55107   3.283   7.113   8.857  0.2935 -0.1373  0.0842
  400MOL0     C55108   2.347   6.987   8.369  0.2153  1.1019 -0.0631
  400MOL0     C55109   2.220   6.996   8.311  0.4579  0.2682  0.5219
  400MOL0     O55110   1.931   6.716   8.266  0.2565 -0.0078 -0.0825
  400MOL0     C55111   1.839   6.934   7.991  0.7560 -0.4641  0.7714
  400MOL0     C55112   1.739   6.958   7.892  0.0379  0.0318 -0.2703
  400MOL0     N55113   1.364   7.523   7.728  0.0924 -0.7964  0.1422
  400MOL0     N55114   1.311   7.639   7.748  0.4147  0.2639 -0.4805
  400MOL0     C55115   1.601   7.830   6.891 -0.2139  0.3428  1.0379
  400MOL0     C55116   1.647   7.730   6.806 -0.0526 -0.4285  0.0993
  400MOL0     C55117   1.630   7.299   6.588  0.2175  0.0202 -0.2175
  400MOL0     C55118   1.671   7.355   6.468  0.0340  0.8001 -0.2945
  400MOL0     C55119   1.702   7.286   6.352  0.0768 -0.0535 -0.2202
  400MOL0     C55120   1.683   7.145   6.361 -0.5173  0.3395 -0.3155
  400MOL0     O55121   1.696   7.076   6.245 -1.1348 -0.0879 -0.3255
  400MOL0     C55122   1.795   6.965   6.250  0.5071 -0.5122 -1.1569
  400MOL0     C55123   1.937   7.022   6.252 -0.7982  0.9605  0.1047
  400MOL0     C55124   1.974   7.123   6.144  0.6608 -1.0642 -0.7343
  400MOL0     C55125   1.985   7.084   6.001  0.6441  0.2835  0.6340
  400MOL0     C55126   2.094   6.994   5.978  1.0057  0.6986  0.2644
  400MOL0     C55127   2.174   6.905   5.962  0.2089 -0.1670  0.3209
  400MOL0     C55128   1.631   7.081   6.470 -0.0074  0.2154  0.1290
  400MOL0     C55129   1.611   7.156   6.584  0.3178  0.8284  0.3155
  400MOL0     C55130   1.569   7.066   6.699 -0.3126  0.2454  0.5601
  400MOL0     H55131   1.394   7.520   6.799  0.6171  0.6961 -0.8142
  400MOL0     H55132   1.295   7.693   6.939 -0.3024  1.5078  0.2738
  400MOL0     H55133   1.507   8.092   7.038  1.0877 -0.8474 -1.7947
  400MOL0     H55134   1.561   7.944   7.114 -1.0066 -2.1928 -1.4343
  400MOL0     H55135   1.453   8.075   7.283 -2.1289  2.1639 -1.1070
  400MOL0     H55136   1.301   8.084   7.188 -3.2832 -5.2484 -1.2214
  400MOL0     H55137   1.302   7.838   7.219 -1.1147  1.1657  0.5555
  400MOL0     H55138   1.425   7.856   7.344  1.3152  3.2464  3.1810
  400MOL0     H55139   1.286   8.023   7.480 -2.1161 -0.9192  2.7634
  400MOL0     H55140   1.156   8.012   7.356  1.3750  0.2102 -2.3783
  400MOL0     H55141   1.259   7.798   7.535 -0.7016 -0.9651 -1.1158
  400MOL0     H55142   1.127   7.780   7.408 -2.0934 -0.2116 -0.6390
  400MOL0     H55143   1.151   7.944   7.665  1.4576 -1.1042  0.3261
  400MOL0     H55144   1.014   7.972   7.553 -0.9041  1.2252  0.9703
  400MOL0     H55145   0.969   7.717   7.594  0.3043  2.1820 -0.1073
  400MOL0     H55146   0.917   7.841   7.708 -2.9493 -1.6069 -3.1529
  400MOL0     H55147   1.129   7.773   7.842 -1.6567  1.8620 -0.9314
  400MOL0     H55148   1.006   7.646   7.837  0.0983 -0.0386  0.3103
  400MOL0     H55149   1.054   7.442   7.678 -4.0745  5.0506  1.3969
  400MOL0     H55150   1.384   7.270   7.590  1.5193 -0.4027  0.7515
  400MOL0     H55151   1.211   7.231   7.613  0.2376 -1.0285 -0.9690
  400MOL0     H55152   1.451   7.230   7.815 -0.1262  0.4040  1.7379
  400MOL0     H55153   1.279   7.231   7.869 -0.0793  0.8601  0.3497
  400MOL0     H55154   1.231   7.024   7.770 -0.4523 -0.3216 -0.5617
  400MOL0     H55155   1.362   7.028   7.659 -1.1484 -0.4756  0.9550
  400MOL0     H55156   1.448   7.038   7.938 -3.3170 -0.3332  0.5921
  400MOL0     H55157   1.348   6.899   7.905  0.8098 -0.2053  0.4067
  400MOL0     H55158   1.523   6.722   8.003 -0.5448  0.5329 -0.6789
  400MOL0     H55159   1.722   6.584   8.211 -2.6433 -1.1937  0.8239
  400MOL0     H55160   1.562   6.624   8.174 -0.0354  0.2880  0.2889
  400MOL0     H55161   1.643   6.711   8.306 -0.1853 -0.9635  1.0032
  400MOL0     H55162   2.185   6.716   8.125  2.4456 -1.6544 -0.6809
  400MOL0     H55163   2.422   6.688   8.249  2.1819  0.6882  0.1123
  400MOL0     H55164   2.465   6.708   8.534  0.4416  1.6763  2.4713
  400MOL0     H55165   2.581   6.661   8.416 -0.8851 -1.7806  1.1486
  400MOL0     H55166   2.624   6.869   8.650 -2.3526 -2.4737  2.8500
  400MOL0     H55167   2.680   6.703   8.667 -2.3199  3.2419  2.9108
  400MOL0     H55168   2.808   6.874   8.438  2.1002 -2.5274 -1.5604
  400MOL0     H55169   2.807   6.701   8.450  1.2041 -0.5388  0.7689
  400MOL0     H55170   2.894   6.725   8.689 -1.7803 -0.9603 -1.0386
  400MOL0     H55171   2.906   6.891   8.672  1.7826 -0.9169 -0.1878
  400MOL0     H55172   3.063   6.695   8.480  0.5850 -1.6311  1.5136
  400MOL0     H55173   3.062   6.876   8.474  2.0752  0.1021  0.7681
  400MOL0     H55174   3.258   6.771   8.579  0.3638  0.7522 -0.4038
  400MOL0     H55175   3.145   6.701   8.702  0.3563 -1.5556 -0.0144
  400MOL0     H55176   3.078   6.919   8.782  0.7338 -0.9593  1.1921
  400MOL0     H55177   3.148   6.991   8.635  0.2801  2.1708  1.5482
  400MOL0     H55178   3.379   6.931   8.740  0.4528  0.5332  1.0828
  400MOL0     H55179   3.298   6.880   8.874  1.5457 -0.7323 -0.1826
  400MOL0     H55180   2.395   7.077   8.408  0.8873  0.9526 -0.5222
  400MOL0     H55181   2.166   7.090   8.304  2.6968  1.5085 -1.2005
  400MOL0     H55182   1.924   6.999   7.974  0.0925  0.3787  0.6136
  400MOL0     H55183   1.752   7.023   7.806 -0.9868 -0.2255 -0.6266
  400MOL0     H55184   1.663   7.919   6.904 -0.4000  0.8192 -0.9328
  400MOL0     H55185   1.749   7.743   6.770 -0.1639  3.6248  0.7388
  400MOL0     H55186   1.694   7.458   6.444  1.8857  0.4056 -0.4140
  400MOL0     H55187   1.737   7.333   6.261  0.7610  0.0030  0.0627
  400MOL0     H55188   1.777   6.897   6.334  1.8802 -0.8284 -1.1015
  400MOL0     H55189   1.784   6.906   6.159 -0.6770  2.1905 -2.8960
  400MOL0     H55190   2.005   6.940   6.229 -2.7355 -0.3230 -1.3487
  400MOL0     H55191   1.952   7.051   6.356  2.1170  0.9088 -0.2092
  400MOL0     H55192   1.908   7.209   6.155 -1.0663 -2.3364 -0.7627
  400MOL0     H55193   2.070   7.166   6.175 -0.7365  1.3934  0.4799
  400MOL0     H55194   2.008   7.178   5.950 -2.4962  2.1186  2.2648
  400MOL0     H55195   1.897   7.037   5.954  1.3449 -0.1988 -0.2232
  400MOL0     H55196   2.237   6.827   5.923 -0.5743 -1.6122  1.8144
  400MOL0     H55197   1.617   6.975   6.486  1.0548  0.4069  2.8048
  400MOL0     H55198   1.658   7.029   6.752 -1.7661 -2.6236  1.1507
  400MOL0     H55199   1.500   7.109   6.772 -0.3961 -0.9544  1.2172
  400MOL0     H55200   1.529   6.968   6.671  2.3344 -0.5836 -0.6938
  401MOL0     O55201   7.333   2.886   1.439 -0.0307 -0.3719  0.1850
  401MOL0     C55202   7.240   2.883   1.352 -0.0482  0.4811 -0.1286
  401MOL0     O55203   7.243   2.941   1.228 -0.6014 -0.8331  0.5454
  401MOL0     C55204   7.338   3.037   1.215  0.0467 -0.8944 -0.3169
  401MOL0     C55205   7.435   3.007   1.124 -0.2565  0.2753 -1.1762
  401MOL0     C55206   7.549   3.086   1.115 -0.7048  0.3320 -0.9019
  401MOL0     C55207   7.571   3.185   1.211  0.5857 -0.0425  0.2133
  401MOL0     O55208   7.688   3.258   1.217 -0.6286  0.0123  1.1386
  401MOL0     C55209   7.689   3.389   1.183  1.0216 -0.7971  0.0488
  401MOL0     C55210   7.833   3.444   1.173  0.8282  0.0202  0.3955
  401MOL0     C55211   7.890   3.494   1.304  0.5298  0.6617 -0.2160
  401MOL0     C55212   8.035   3.520   1.281 -0.0831 -0.5387 -0.7189
  401MOL0     C55213   8.075   3.598   1.416  0.2258  0.4538  0.6265
  401MOL0     C55214   8.202   3.672   1.376 -0.2567 -0.3133  0.2020
  401MOL0     C55215   8.239   3.773   1.485 -0.2213 -0.3804  1.0275
  401MOL0     C55216   8.367   3.870   1.472  1.0276  0.8003 -0.2894
  401MOL0     N55217   8.470   3.795   1.543 -0.3133  0.1624  1.1120
  401MOL0     C55218   8.568   3.714   1.480 -0.6272 -0.7819 -1.3343
  401MOL0     C55219   8.640   3.670   1.582  0.6181 -0.3776  0.0489
  401MOL0     C55220   8.758   3.583   1.582 -0.5809 -0.1632  0.2087
  401MOL0     C55221   8.741   3.447   1.646 -0.0159  0.3654 -0.3969
  401MOL0     C55222   8.787   3.425   1.788 -0.0435 -1.0293 -0.4982
  401MOL0     C55223   8.732   3.296   1.847 -0.1078  0.3331  0.3611
  401MOL0     O55224   8.794   3.179   1.801  0.0226  1.2621  0.2259
  401MOL0     C55225   8.725   3.058   1.811 -0.2074 -0.2190 -0.5603
  401MOL0     C55226   8.661   3.006   1.693  0.2125 -0.2238 -0.6126
  401MOL0     C55227   8.602   2.872   1.693 -0.2583  0.1167 -0.5376
  401MOL0     C55228   8.545   2.808   1.560 -0.3959 -0.3769  0.1890
  401MOL0     C55229   8.625   2.795   1.809 -0.3489  0.1088  0.2110
  401MOL0     C55230   8.568   2.656   1.827  1.2986 -0.7525  0.7624
  401MOL0     O55231   8.441   2.627   1.766  0.9078  0.4345 -0.0329
  401MOL0     C55232   8.402   2.496   1.780 -0.1378  0.3937  0.7920
  401MOL0     C55233   8.356   2.434   1.902 -0.2382  0.0554 -0.2024
  401MOL0     C55234   8.317   2.296   1.912  0.1908 -0.2029  0.0976
  401MOL0     C55235   8.326   2.219   1.790  0.1354 -0.5847 -0.6960
  401MOL0     O55236   8.261   2.094   1.785  0.1114  0.8300 -0.2603
  401MOL0     C55237   8.124   2.092   1.810 -0.1914 -0.4930 -0.3509
  401MOL0     C55238   8.069   1.954   1.809  0.9575 -0.9676  0.0573
  401MOL0     C55239   7.917   1.962   1.842  0.8871  0.6264  0.4304
  401MOL0     C55240   7.845   1.834   1.909 -0.3666 -0.5305 -0.9714
  401MOL0     C55241   7.695   1.831   1.911  0.7509 -0.3599 -0.1688
  401MOL0     C55242   7.642   1.895   2.043 -0.2270 -0.3288 -0.3377
  401MOL0     C55243   7.486   1.895   2.056 -0.5686  0.0292 -0.7596
  401MOL0     C55244   7.422   1.989   2.162 -0.0552 -0.3750  0.3610
  401MOL0    Cl55245   7.466   1.937   2.329  0.3945 -0.0494 -0.1839
  401MOL0     C55246   8.368   2.278   1.676  0.2581  0.6880  0.1256
  401MOL0     C55247   8.408   2.409   1.669 -0.4343 -0.9794  1.2170
  401MOL0     O55248   8.626   2.584   1.895 -0.0575  0.4130  0.6899
  401MOL0     C55249   8.686   2.849   1.923  0.2685  0.7244 -0.2970
  401MOL0     C55250   8.743   2.974   1.921 -0.2217 -0.6479  1.1145
  401MOL0     N55251   8.592   3.724   1.704  0.5513  0.4872  0.5137
  401MOL0     N55252   8.493   3.798   1.676 -1.0870 -0.0872  0.1584
  401MOL0     C55253   7.472   3.206   1.311  0.2312  0.5193  0.6330
  401MOL0     C55254   7.348   3.137   1.304  0.6068  0.0493  0.8113
  401MOL0     C55255   7.123   2.796   1.391 -0.0476 -0.4778  0.1913
  401MOL0     C55256   7.042   2.748   1.286 -0.3328 -0.7882 -0.7262
  401MOL0     C55257   6.941   2.670   1.314  0.5445  0.6103  0.8353
  401MOL0     C55258   6.916   2.617   1.440 -0.2116  0.4690  0.2921
  401MOL0     O55259   6.808   2.531   1.479 -0.0321 -0.4153  0.6375
  401MOL0     C55260   6.700   2.506   1.388  0.9452 -0.0333  0.0826
  401MOL0     C55261   6.565   2.494   1.469  1.0110 -0.6021  0.3597
  401MOL0     C55262   6.576   2.378   1.572 -0.2158 -0.1116 -0.0944
  401MOL0     C55263   6.432   2.348   1.617 -1.0169 -0.6901  0.1823
  401MOL0     C55264   6.421   2.217   1.682  0.1204 -0.5691 -0.5639
  401MOL0     C55265   6.384   2.128   1.763  0.8723  0.3638 -0.1073
  401MOL0     C55266   6.995   2.665   1.547 -0.6846 -0.0173  0.5346
  401MOL0     C55267   7.099   2.757   1.524 -0.2617 -0.0178  0.0761
  401MOL0     C55268   7.177   2.798   1.645 -0.4647  0.7001  0.3142
  401MOL0     H55269   7.423   2.917   1.065  0.3736  0.7925 -2.1238
  401MOL0     H55270   7.624   3.069   1.039  1.2815  0.6530  0.9048
  401MOL0     H55271   7.628   3.453   1.248  3.2084  0.1566  1.3055
  401MOL0     H55272   7.641   3.390   1.085  2.3649  0.3334 -0.6411
  401MOL0     H55273   7.895   3.370   1.122  0.2598  0.4286 -0.9315
  401MOL0     H55274   7.833   3.536   1.114 -0.4170 -1.1799 -1.6206
  401MOL0     H55275   7.824   3.572   1.343 -1.1733 -1.0719  0.5791
  401MOL0     H55276   7.883   3.419   1.383  4.1513 -0.3600 -0.6967
  401MOL0     H55277   8.093   3.427   1.276 -2.3420 -2.0235 -0.5744
  401MOL0     H55278   8.042   3.589   1.197 -2.5739  1.4123  0.5447
  401MOL0     H55279   8.090   3.521   1.491 -1.2989 -2.8282 -2.1551
  401MOL0     H55280   7.996   3.667   1.446 -2.4961 -2.4492  0.5879
  401MOL0     H55281   8.282   3.601   1.351 -0.2611 -1.0272  2.0876
  401MOL0     H55282   8.173   3.725   1.285 -1.5152 -0.2015  0.6472
  401MOL0     H55283   8.240   3.728   1.584  1.4841  1.2458  1.8211
  401MOL0     H55284   8.150   3.837   1.477  0.9514  1.0947 -1.2503
  401MOL0     H55285   8.390   3.877   1.365  3.4412 -1.3626 -0.0255
  401MOL0     H55286   8.342   3.971   1.505 -0.5899  0.0805  0.7782
  401MOL0     H55287   8.576   3.688   1.375 -0.0977 -1.8741 -1.0368
  401MOL0     H55288   8.837   3.643   1.626 -1.4048  1.6404 -0.6933
  401MOL0     H55289   8.783   3.561   1.477 -0.4036  0.4203  0.1261
  401MOL0     H55290   8.634   3.425   1.653  0.1008 -0.2626 -0.5634
  401MOL0     H55291   8.789   3.366   1.591  2.2206  2.1756 -1.3099
  401MOL0     H55292   8.895   3.427   1.805  0.2597  0.9284 -2.2338
  401MOL0     H55293   8.736   3.502   1.847  1.1399  1.8054 -2.8860
  401MOL0     H55294   8.752   3.300   1.954  0.2085 -0.9637  0.3740
  401MOL0     H55295   8.623   3.305   1.842 -0.2171  0.3817  2.2315
  401MOL0     H55296   8.659   3.070   1.605  1.2510 -0.6152 -0.9431
  401MOL0     H55297   8.570   2.852   1.463  0.5909 -1.8531 -0.2528
  401MOL0     H55298   8.438   2.831   1.565  0.0077  1.6117  0.6712
  401MOL0     H55299   8.579   2.705   1.547 -1.1576 -0.4377 -1.5496
  401MOL0     H55300   8.345   2.498   1.988 -1.5259 -0.8647  0.3395
  401MOL0     H55301   8.297   2.244   2.005 -0.7568  2.3577  1.4044
  401MOL0     H55302   8.113   2.125   1.913  4.0479 -0.2432  0.2191
  401MOL0     H55303   8.078   2.153   1.732 -1.5063  0.4134  1.0901
  401MOL0     H55304   8.088   1.912   1.710  1.3460 -0.6534 -0.0029
  401MOL0     H55305   8.127   1.890   1.878  0.6876 -2.0586 -0.6960
  401MOL0     H55306   7.868   1.978   1.745  1.6806 -5.2119 -1.3097
  401MOL0     H55307   7.895   2.049   1.905  1.4225  3.3412 -2.8235
  401MOL0     H55308   7.885   1.814   2.009 -1.9828 -0.5773 -0.3107
  401MOL0     H55309   7.869   1.741   1.856 -0.6330 -0.6334 -0.9117
  401MOL0     H55310   7.659   1.880   1.820 -0.4355 -0.6721  0.1108
  401MOL0     H55311   7.668   1.725   1.907 -1.9280  0.2601 -0.3445
  401MOL0     H55312   7.686   1.995   2.049  0.8148 -0.5329 -3.0375
  401MOL0     H55313   7.674   1.832   2.127  0.2157 -0.2881 -0.4700
  401MOL0     H55314   7.448   1.796   2.082 -0.7962  0.3936  0.3866
  401MOL0     H55315   7.444   1.932   1.963 -1.5774  0.7633 -0.0325
  401MOL0     H55316   7.316   1.992   2.135  0.5828  1.7490 -2.4475
  401MOL0     H55317   7.453   2.094   2.153 -0.4244 -0.1578  1.4855
  401MOL0     H55318   8.351   2.217   1.588  1.0368 -1.8570  1.6440
  401MOL0     H55319   8.428   2.456   1.573 -3.0444 -1.2914  0.4515
  401MOL0     H55320   8.708   2.777   2.001 -0.2755 -0.4449 -1.1895
  401MOL0     H55321   8.800   3.004   2.008 -1.1122 -2.4916  2.4201
  401MOL0     H55322   7.499   3.281   1.384  1.7188 -0.1965  0.8610
  401MOL0     H55323   7.271   3.147   1.379 -1.1563  0.5816 -0.9821
  401MOL0     H55324   7.063   2.774   1.183 -3.8520  0.4989 -1.2699
  401MOL0     H55325   6.883   2.653   1.224  3.3566  0.2721 -1.0274
  401MOL0     H55326   6.683   2.580   1.310  4.2436 -0.4630 -1.1712
  401MOL0     H55327   6.719   2.409   1.341  3.4354 -0.2182  1.3053
  401MOL0     H55328   6.482   2.482   1.399  0.4059 -2.5225  1.3361
  401MOL0     H55329   6.540   2.572   1.541 -1.2029 -0.8288 -0.0886
  401MOL0     H55330   6.611   2.292   1.515  1.5086  0.8516 -0.5602
  401MOL0     H55331   6.643   2.416   1.649  2.9140 -1.5016 -1.9357
  401MOL0     H55332   6.359   2.358   1.536 -0.0772 -0.3567 -0.6420
  401MOL0     H55333   6.400   2.420   1.692 -0.8597 -0.7346  0.2923
  401MOL0     H55334   6.347   2.062   1.839 -0.4765  1.3541  0.1425
  401MOL0     H55335   6.981   2.621   1.645  1.3580 -0.4713  0.6632
  401MOL0     H55336   7.266   2.734   1.647 -1.9406 -1.4382  1.0574
  401MOL0     H55337   7.206   2.903   1.642  1.2095  0.3024  1.3163
  401MOL0     H55338   7.117   2.781   1.734  0.3802 -3.1479  0.3320
  402MOL0     O55339   5.048  10.274   0.807  0.0104  0.4021 -0.1020
  402MOL0     C55340   5.030  10.277   0.685 -0.0831 -0.8068  0.2833
  402MOL0     O55341   5.105  10.343   0.595  0.0947 -1.0016 -0.3515
  402MOL0     C55342   5.216  10.424   0.634  0.7094 -0.0721  0.3568
  402MOL0     C55343   5.232  10.536   0.551 -0.1563  0.3444  0.0520
  402MOL0     C55344   5.354  10.605   0.564  0.2344  0.3327 -0.3977
  402MOL0     C55345   5.460  10.558   0.642  0.2520  0.4886 -0.9210
  402MOL0     O55346   5.574  10.632   0.655  0.2398  0.0931 -0.9713
  402MOL0     C55347   5.589  10.689   0.786 -0.5881  0.5580 -1.3667
  402MOL0     C55348   5.737  10.710   0.813 -0.5601  0.0695 -1.2865
  402MOL0     C55349   5.791  10.813   0.722 -0.4980 -0.4438 -0.3115
  402MOL0     C55350   5.938  10.830   0.734  0.3958 -0.3364  0.2601
  402MOL0     C55351   5.985  10.920   0.623  0.2530 -1.1129 -0.1050
  402MOL0     C55352   6.138  10.934   0.618  0.1167  0.5169  0.2410
  402MOL0     C55353   6.201  11.006   0.499  0.3891  0.2781  0.0384
  402MOL0     C55354   6.176  11.155   0.513  0.6056  0.6565  0.1063
  402MOL0     N55355   6.208  11.218   0.393 -0.2629 -0.2112  0.4618
  402MOL0     C55356   6.128  11.230   0.288  0.3380  0.2810  0.2051
  402MOL0     C55357   6.193  11.299   0.196  0.1943 -0.0243  0.6233
  402MOL0     C55358   6.136  11.357   0.074  0.0321 -0.3381 -0.4198
  402MOL0     C55359   6.223  11.464   0.010 -0.2988  0.3275 -0.2467
  402MOL0     C55360   6.354  11.435  -0.054 -0.3902 -0.8206  0.1084
  402MOL0     C55361   6.345  11.339  -0.174  0.1128 -1.0108 -0.8273
  402MOL0     O55362   6.473  11.310  -0.237 -0.2786  0.4444 -0.0583
  402MOL0     C55363   6.533  11.414  -0.291 -0.3356 -0.6265 -0.7287
  402MOL0     C55364   6.469  11.513  -0.371 -0.4577 -0.0460  0.7500
  402MOL0     C55365   6.530  11.617  -0.434  0.0166 -0.3674  0.0230
  402MOL0     C55366   6.446  11.702  -0.526 -0.6969  0.1973 -0.2219
  402MOL0     C55367   6.669  11.634  -0.422 -0.4664 -0.8198  0.7789
  402MOL0     C55368   6.753  11.734  -0.492  0.2773  0.2042  0.0769
  402MOL0     O55369   6.880  11.701  -0.510 -0.0678  0.1093  0.2494
  402MOL0     C55370   6.964  11.809  -0.527 -0.3447 -0.2654  0.0299
  402MOL0     C55371   7.028  11.841  -0.656  0.7239  0.7800 -0.9809
  402MOL0     C55372   7.132  11.935  -0.658  0.5261  0.3867  0.3237
  402MOL0     C55373   7.166  12.007  -0.544 -0.7454  0.6208 -0.5976
  402MOL0     O55374   7.279  12.082  -0.557 -0.1269  0.1941  0.0382
  402MOL0     C55375   7.320  12.154  -0.445  0.3400 -1.2135  0.3676
  402MOL0     C55376   7.440  12.243  -0.479 -1.0766  0.0568  0.5561
  402MOL0     C55377   7.579  12.161  -0.484  1.3942 -0.1962  0.1649
  402MOL0     C55378   7.705  12.253  -0.513  0.7278 -0.0565 -0.2075
  402MOL0     C55379   7.830  12.191  -0.443  0.8922  0.1753  0.0245
  402MOL0     C55380   7.945  12.291  -0.475 -1.1714  0.2447  1.0227
  402MOL0     C55381   8.066  12.248  -0.391 -0.5584  0.7830  0.1676
  402MOL0     C55382   8.141  12.135  -0.464  0.0602  0.1386 -0.6068
  402MOL0    Cl55383   8.290  12.096  -0.376 -0.1382  0.0531  0.0515
  402MOL0     C55384   7.097  11.989  -0.428  0.0352 -1.0834  0.4515
  402MOL0     C55385   7.002  11.888  -0.420 -0.3767 -0.7413 -0.1737
  402MOL0     O55386   6.702  11.843  -0.513 -0.0523  0.6179  0.5013
  402MOL0     C55387   6.727  11.533  -0.343  0.0278 -0.1350  0.0849
  402MOL0     C55388   6.670  11.420  -0.281  0.4967  0.7786  0.3070
  402MOL0     N55389   6.326  11.321   0.251  1.4192 -0.5030 -0.0205
  402MOL0     N55390   6.322  11.275   0.373 -0.6855  0.5509 -0.1629
  402MOL0     C55391   5.437  10.440   0.721  0.4910 -0.3621  0.3036
  402MOL0     C55392   5.317  10.372   0.716 -0.1760  0.3345  0.4486
  402MOL0     C55393   4.900  10.233   0.643  0.5403  0.1258  0.0692
  402MOL0     C55394   4.868  10.098   0.658  0.4401 -0.1321  0.4939
  402MOL0     C55395   4.746  10.053   0.602 -0.2611 -0.3125 -0.3661
  402MOL0     C55396   4.656  10.136   0.533 -0.6914 -1.2494  0.2121
  402MOL0     O55397   4.541  10.083   0.483 -0.1510  0.2824 -0.5157
  402MOL0     C55398   4.442  10.168   0.413 -0.3149  0.9291  0.2041
  402MOL0     C55399   4.319  10.089   0.367 -0.9162 -0.8721 -0.5210
  402MOL0     C55400   4.339   9.965   0.286 -0.0448  0.5926  0.1409
  402MOL0     C55401   4.427   9.999   0.163 -0.3925  0.5343  0.3437
  402MOL0     C55402   4.356  10.100   0.080 -0.2157  0.7336  0.3219
  402MOL0     C55403   4.308  10.192   0.022 -0.2116 -0.2187 -0.1574
  402MOL0     C55404   4.688  10.278   0.526  0.4149  0.6777  0.3286
  402MOL0     C55405   4.808  10.320   0.579 -0.1512 -0.7041  0.2395
  402MOL0     C55406   4.821  10.472   0.572  0.0041 -0.2562  0.1023
  402MOL0     H55407   5.150  10.568   0.487  0.0441 -0.6853 -0.7596
  402MOL0     H55408   5.367  10.702   0.518  3.3576  0.0432 -0.3503
  402MOL0     H55409   5.566  10.615   0.863  4.5373 -0.3511 -0.3549
  402MOL0     H55410   5.534  10.783   0.798 -2.1024 -0.5900  1.4348
  402MOL0     H55411   5.754  10.742   0.916  0.1112 -1.8050 -0.7673
  402MOL0     H55412   5.793  10.617   0.803  0.8416  0.7780 -0.3515
  402MOL0     H55413   5.780  10.786   0.617  2.5702  1.7815 -1.3767
  402MOL0     H55414   5.736  10.906   0.741 -1.5866 -1.0847 -0.2164
  402MOL0     H55415   5.965  10.857   0.837 -0.7887 -1.9898  1.0590
  402MOL0     H55416   5.983  10.735   0.704 -1.7332 -1.1754 -0.4403
  402MOL0     H55417   5.946  11.021   0.640 -0.1303 -1.2630 -0.0725
  402MOL0     H55418   5.952  10.882   0.525  3.6937 -1.8709 -1.1098
  402MOL0     H55419   6.178  10.987   0.705  1.3663  2.2675 -1.3043
  402MOL0     H55420   6.187  10.838   0.636 -0.6266  0.3567  1.5486
  402MOL0     H55421   6.157  10.957   0.411  0.4237  0.3742 -0.0319
  402MOL0     H55422   6.310  10.997   0.504  0.2962 -0.0976  2.7434
  402MOL0     H55423   6.068  11.164   0.532  0.2994  0.3306 -1.3487
  402MOL0     H55424   6.222  11.189   0.606 -1.2450 -1.4903  1.9404
  402MOL0     H55425   6.025  11.196   0.275 -1.1224  2.0892  4.8863
  402MOL0     H55426   6.036  11.397   0.090  0.1285  0.4346 -1.5960
  402MOL0     H55427   6.133  11.281  -0.005 -0.7305  0.4103 -1.1270
  402MOL0     H55428   6.160  11.516  -0.063 -0.9356 -1.6514 -1.1572
  402MOL0     H55429   6.238  11.542   0.085  0.1622 -0.5680  0.6101
  402MOL0     H55430   6.399  11.528  -0.089 -1.3850 -0.7249 -0.9805
  402MOL0     H55431   6.430  11.389   0.010  2.4106 -1.9353 -3.6497
  402MOL0     H55432   6.308  11.245  -0.133 -3.2863 -1.1707 -3.7781
  402MOL0     H55433   6.279  11.383  -0.249  1.0354  3.2597  0.5434
  402MOL0     H55434   6.372  11.489  -0.413 -0.0989  1.3242 -0.9800
  402MOL0     H55435   6.489  11.787  -0.580 -0.1562  0.0828  0.0205
  402MOL0     H55436   6.352  11.733  -0.479 -0.0051  0.9929  0.6690
  402MOL0     H55437   6.428  11.638  -0.613  2.0623 -2.8578  1.2165
  402MOL0     H55438   7.008  11.788  -0.749 -2.3259  0.4611 -0.2366
  402MOL0     H55439   7.194  11.971  -0.739  3.7402  1.4495  3.0196
  402MOL0     H55440   7.232  12.218  -0.432  0.3255 -0.6975 -1.8690
  402MOL0     H55441   7.338  12.089  -0.358  0.2728 -0.3750  1.0199
  402MOL0     H55442   7.417  12.307  -0.565 -3.4062 -1.0684  0.2357
  402MOL0     H55443   7.451  12.308  -0.392  4.1854 -0.0329  0.2804
  402MOL0     H55444   7.548  12.079  -0.550 -2.9431  0.3538  1.2260
  402MOL0     H55445   7.598  12.114  -0.386 -1.1586 -0.2576  0.6823
  402MOL0     H55446   7.689  12.349  -0.462  1.1986 -0.4323  0.6791
  402MOL0     H55447   7.725  12.265  -0.620  1.6724  1.9386  0.1403
  402MOL0     H55448   7.807  12.189  -0.336  2.2181  0.3499  0.3238
  402MOL0     H55449   7.851  12.089  -0.475 -0.4205  0.0925 -0.6324
  402MOL0     H55450   7.926  12.399  -0.470 -0.5449  0.4862 -0.9736
  402MOL0     H55451   7.976  12.273  -0.579  1.2047 -0.1237  1.7358
  402MOL0     H55452   8.042  12.217  -0.289 -2.0178  0.7311 -0.1665
  402MOL0     H55453   8.137  12.331  -0.387  0.3287  0.0942 -0.7513
  402MOL0     H55454   8.170  12.166  -0.565  0.0211 -1.9969 -1.3450
  402MOL0     H55455   8.091  12.038  -0.474  2.3198 -1.0707 -1.0433
  402MOL0     H55456   7.118  12.050  -0.340  1.8939 -1.0453  0.0208
  402MOL0     H55457   6.955  11.867  -0.324 -0.4478 -2.4607 -0.5690
  402MOL0     H55458   6.835  11.529  -0.353  0.0022  1.6279 -1.1902
  402MOL0     H55459   6.723  11.335  -0.240  0.4505  0.4134 -0.3822
  402MOL0     H55460   5.516  10.406   0.788  1.9939 -2.2912 -2.2450
  402MOL0     H55461   5.308  10.279   0.772  1.0187 -0.5041 -0.7099
  402MOL0     H55462   4.928  10.035   0.723  0.8082 -0.2714  0.0309
  402MOL0     H55463   4.712   9.949   0.599 -0.5606 -0.2084 -0.6629
  402MOL0     H55464   4.391  10.246   0.471  1.6480  2.2203  0.2732
  402MOL0     H55465   4.490  10.205   0.322  1.2205 -1.9102 -0.2447
  402MOL0     H55466   4.261  10.156   0.304  0.1575 -1.5756 -2.3152
  402MOL0     H55467   4.261  10.066   0.457  1.3553 -0.2418  1.1989
  402MOL0     H55468   4.403   9.889   0.332  2.3945  2.6608  0.3749
  402MOL0     H55469   4.243   9.920   0.259 -0.2346  0.4876  0.9723
  402MOL0     H55470   4.437   9.905   0.106 -0.0549  1.1989 -0.7329
  402MOL0     H55471   4.530  10.033   0.179 -0.8110  3.1896 -1.8693
  402MOL0     H55472   4.257  10.261  -0.042 -0.2843  0.3987  0.5491
  402MOL0     H55473   4.622  10.353   0.484  0.7830  0.8149 -0.0175
  402MOL0     H55474   4.913  10.505   0.524  0.5500 -0.6277  0.8855
  402MOL0     H55475   4.741  10.519   0.512  0.0406 -1.2790 -0.7895
  402MOL0     H55476   4.828  10.499   0.677  0.4606 -0.9039  0.2389
  403MOL0     O55477   9.658   0.171   0.787  0.2859  0.3265 -0.4035
  403MOL0     C55478   9.734   0.077   0.829 -0.5218 -0.8691 -0.6727
  403MOL0     O55479   9.798  -0.007   0.747 -0.8290 -0.3310  0.3769
  403MOL0     C55480   9.785   0.015   0.614  0.4705 -0.0298 -0.3118
  403MOL0     C55481   9.692  -0.059   0.533 -0.5667 -0.6386  0.1039
  403MOL0     C55482   9.678  -0.038   0.401  0.0964  0.6878 -0.3728
  403MOL0     C55483   9.753   0.045   0.319 -0.4141 -0.3962  0.2779
  403MOL0     O55484   9.758   0.064   0.187  0.1882 -0.6782 -0.0885
  403MOL0     C55485   9.695  -0.027   0.098 -0.5269 -0.5357 -0.3718
  403MOL0     C55486   9.564   0.042   0.054  0.6149  0.6477 -0.0855
  403MOL0     C55487   9.445   0.016   0.147 -0.6741 -0.0524  0.2795
  403MOL0     C55488   9.318   0.080   0.096  0.3274  0.8593 -0.6069
  403MOL0     C55489   9.214   0.061   0.203  0.2374 -0.4755 -0.0480
  403MOL0     C55490   9.084   0.147   0.171 -0.9470  0.5356 -1.0480
  403MOL0     C55491   9.001   0.151   0.304 -0.7406  0.0579 -0.7161
  403MOL0     C55492   8.930   0.284   0.312 -0.0625  0.5325  0.0228
  403MOL0     N55493   8.812   0.292   0.222 -0.0332  0.1429 -0.3096
  403MOL0     C55494   8.741   0.403   0.173 -0.4978 -0.0724 -0.3479
  403MOL0     C55495   8.630   0.363   0.109  0.7825  0.4845  0.5488
  403MOL0     C55496   8.528   0.461   0.055  0.3150  0.2668  0.2995
  403MOL0     C55497   8.428   0.394  -0.042 -0.1567  0.2639  0.0192
  403MOL0     C55498   8.288   0.468  -0.051 -0.7891  0.0298 -0.1070
  403MOL0     C55499   8.189   0.445   0.060  0.7882 -0.2509  0.3108
  403MOL0     O55500   8.079   0.532   0.034  0.4027  0.2749 -0.0281
  403MOL0     C55501   8.091   0.664   0.060 -0.9378  1.0185  0.1873
  403MOL0     C55502   8.007   0.748  -0.001  0.4174 -0.8392 -0.2068
  403MOL0     C55503   8.001   0.891   0.015  0.9073 -0.6055 -0.4046
  403MOL0     C55504   7.885   0.957  -0.061 -0.3065 -0.1566 -1.0447
  403MOL0     C55505   8.097   0.946   0.102  0.3133  0.1524 -1.0850
  403MOL0     C55506   8.108   1.092   0.143  0.8423  0.4702  0.5255
  403MOL0     O55507   8.026   1.189   0.083  0.1479 -0.4957  0.1684
  403MOL0     C55508   8.063   1.317   0.107  0.1803  0.1424  0.0918
  403MOL0     C55509   7.968   1.392   0.177  0.0547  0.0706 -0.6833
  403MOL0     C55510   7.997   1.524   0.213  0.0337 -0.2563 -0.0792
  403MOL0     C55511   8.122   1.581   0.179 -0.6532  0.3055 -0.2756
  403MOL0     O55512   8.151   1.706   0.217  0.1874  0.3498  0.0068
  403MOL0     C55513   8.265   1.717   0.298 -0.5526  0.8997  0.2294
  403MOL0     C55514   8.255   1.861   0.355 -0.0860 -0.1446 -0.5333
  403MOL0     C55515   8.360   1.897   0.463 -0.0091  1.1062  1.2438
  403MOL0     C55516   8.333   2.036   0.508  0.3790  1.2863 -0.5010
  403MOL0     C55517   8.367   2.137   0.401 -0.8819  0.0850  0.4346
  403MOL0     C55518   8.408   2.274   0.470 -0.5840 -0.8116 -0.3259
  403MOL0     C55519   8.470   2.370   0.368  1.3846 -0.7653  0.8781
  403MOL0     C55520   8.590   2.448   0.417  0.6226  0.0715 -1.1129
  403MOL0    Cl55521   8.634   2.550   0.290  0.0012  0.1946 -0.0682
  403MOL0     C55522   8.215   1.503   0.106 -0.6205  0.7519  0.5031
  403MOL0     C55523   8.191   1.366   0.073  1.1276 -0.6781 -0.3153
  403MOL0     O55524   8.189   1.115   0.235  0.5053  0.2664  0.0007
  403MOL0     C55525   8.194   0.860   0.161 -0.0967  0.2168  0.0471
  403MOL0     C55526   8.193   0.723   0.132 -0.2036  0.2415 -0.2606
  403MOL0     N55527   8.634   0.222   0.113  0.0688  0.5303  0.1737
  403MOL0     N55528   8.738   0.183   0.182 -0.2169 -0.5866 -0.2023
  403MOL0     C55529   9.840   0.124   0.395 -0.0762 -0.2773  0.3445
  403MOL0     C55530   9.854   0.109   0.538  0.4219 -1.1725  0.2353
  403MOL0     C55531   9.752   0.049   0.979  1.4618 -0.2344 -0.4982
  403MOL0     C55532   9.856  -0.030   1.031  0.7314 -0.0960  0.0179
  403MOL0     C55533   9.851  -0.074   1.162  0.0746  0.0770 -0.2985
  403MOL0     C55534   9.763  -0.024   1.255  0.8157 -0.0519  0.1443
  403MOL0     O55535   9.771  -0.085   1.380  1.0748 -0.3795  0.4471
  403MOL0     C55536   9.739   0.004   1.490 -0.0507 -0.0771 -0.8577
  403MOL0     C55537   9.783  -0.025   1.637 -0.3092  0.7715  0.0138
  403MOL0     C55538   9.926  -0.067   1.640 -0.4749  0.3627 -0.3284
  403MOL0     C55539   9.971  -0.074   1.785 -0.8188 -0.5493 -0.1889
  403MOL0     C55540  10.114  -0.039   1.795  0.4005  0.5716  0.1058
  403MOL0     C55541  10.234  -0.014   1.818  0.6428  0.9175 -0.0087
  403MOL0     C55542   9.669   0.064   1.212  0.4962 -0.1974  0.0937
  403MOL0     C55543   9.664   0.110   1.077 -0.2925 -0.5479  0.5285
  403MOL0     C55544   9.540   0.185   1.046 -0.0136  1.4674  0.4008
  403MOL0     H55545   9.639  -0.137   0.587 -4.0262 -0.0854 -2.2015
  403MOL0     H55546   9.604  -0.097   0.347  2.7168 -1.5031 -1.8679
  403MOL0     H55547   9.667  -0.119   0.150 -0.5014 -1.2087 -1.5066
  403MOL0     H55548   9.752  -0.046   0.007 -0.6582 -0.5179 -0.4588
  403MOL0     H55549   9.572   0.149   0.031 -0.4066  1.3324  2.4615
  403MOL0     H55550   9.546   0.004  -0.048  1.1104  2.0201 -0.7083
  403MOL0     H55551   9.440  -0.090   0.173  0.8594 -0.4733 -0.9859
  403MOL0     H55552   9.457   0.064   0.245 -4.5946  1.1435  0.3599
  403MOL0     H55553   9.343   0.184   0.075  3.6552  0.0582 -1.1577
  403MOL0     H55554   9.286   0.040  -0.001  0.5651  3.3831 -1.7865
  403MOL0     H55555   9.256   0.088   0.301 -0.9008  3.4870 -0.4936
  403MOL0     H55556   9.185  -0.044   0.208 -1.9200  0.0814  0.2546
  403MOL0     H55557   9.115   0.246   0.135  0.4027  0.5547  0.0938
  403MOL0     H55558   9.024   0.108   0.088 -1.1221  0.3431 -0.8299
  403MOL0     H55559   9.066   0.151   0.392  0.6679 -0.1466 -1.7066
  403MOL0     H55560   8.943   0.059   0.307  1.1655 -1.2512  3.5085
  403MOL0     H55561   8.904   0.306   0.416  0.5665 -0.9819  0.5229
  403MOL0     H55562   8.998   0.366   0.286  1.3702 -0.9591 -1.2022
  403MOL0     H55563   8.766   0.509   0.166  0.1507 -0.2821 -1.6631
  403MOL0     H55564   8.594   0.535   0.009  3.0674 -2.3383 -0.2712
  403MOL0     H55565   8.465   0.507   0.132  0.0625 -1.0113  0.8971
  403MOL0     H55566   8.459   0.397  -0.147 -2.3821 -0.5985 -0.7327
  403MOL0     H55567   8.410   0.292  -0.008 -0.7792 -0.0480 -1.2158
  403MOL0     H55568   8.304   0.572  -0.079 -0.8020 -0.4061 -1.8897
  403MOL0     H55569   8.253   0.440  -0.151  1.7162  0.0861 -1.0752
  403MOL0     H55570   8.148   0.344   0.063 -1.2022  0.5265  2.3610
  403MOL0     H55571   8.232   0.444   0.161  0.1268  1.9916  0.6678
  403MOL0     H55572   7.922   0.708  -0.054  0.2882 -0.8304 -0.0061
  403MOL0     H55573   7.791   0.941  -0.009 -0.4179  2.7027 -0.2221
  403MOL0     H55574   7.873   0.916  -0.162 -0.3514 -1.2543 -0.6111
  403MOL0     H55575   7.903   1.063  -0.078 -0.7284 -0.4205 -3.6636
  403MOL0     H55576   7.873   1.347   0.205 -1.0992  2.9939  0.5959
  403MOL0     H55577   7.929   1.586   0.270  1.7588  3.6335 -1.8364
  403MOL0     H55578   8.267   1.659   0.391  1.8746  0.4671 -0.0426
  403MOL0     H55579   8.358   1.702   0.243 -0.2320  3.6039 -0.1128
  403MOL0     H55580   8.261   1.931   0.272  0.8559 -1.0749 -1.2852
  403MOL0     H55581   8.166   1.881   0.414  0.6363  4.0331 -0.5879
  403MOL0     H55582   8.465   1.896   0.432 -0.9401  1.3792 -2.3311
  403MOL0     H55583   8.344   1.839   0.555 -1.9154 -1.4048 -0.5546
  403MOL0     H55584   8.390   2.040   0.602 -0.0182  0.5504 -0.2186
  403MOL0     H55585   8.226   2.046   0.532  0.0907 -2.9450  0.7969
  403MOL0     H55586   8.452   2.093   0.349  0.0809  0.7908  1.3725
  403MOL0     H55587   8.287   2.156   0.329 -0.9749 -0.6638  0.3375
  403MOL0     H55588   8.500   2.257   0.528 -2.3820  1.1016  3.4654
  403MOL0     H55589   8.335   2.333   0.526 -1.3533  0.4124 -2.5002
  403MOL0     H55590   8.400   2.447   0.332  1.0504 -0.8132  1.4162
  403MOL0     H55591   8.506   2.304   0.289 -1.6318 -1.9505  0.3789
  403MOL0     H55592   8.670   2.388   0.461  0.4112 -0.3169 -1.2532
  403MOL0     H55593   8.578   2.509   0.507  2.6708 -2.9667  1.4925
  403MOL0     H55594   8.312   1.543   0.078  0.7008 -2.9731 -0.9845
  403MOL0     H55595   8.263   1.306   0.018  0.4852 -0.8036 -1.0382
  403MOL0     H55596   8.269   0.901   0.228 -0.9875 -1.5380  2.2527
  403MOL0     H55597   8.275   0.663   0.170 -0.1135  1.1573  1.0778
  403MOL0     H55598   9.897   0.205   0.352 -1.2398 -1.3733 -3.7455
  403MOL0     H55599   9.928   0.180   0.575  1.1710 -0.7843 -1.9043
  403MOL0     H55600   9.932  -0.076   0.968  0.4616  0.1296 -0.4793
  403MOL0     H55601   9.921  -0.145   1.205  0.7662  1.6861  1.3535
  403MOL0     H55602   9.774   0.105   1.467 -2.2178  0.6806 -0.9990
  403MOL0     H55603   9.632   0.014   1.507 -0.1817 -0.4848 -1.4362
  403MOL0     H55604   9.712  -0.102   1.666 -0.9452  1.2623 -0.1957
  403MOL0     H55605   9.765   0.059   1.705 -0.8927 -1.3242  2.5828
  403MOL0     H55606   9.946  -0.164   1.593  2.6006  1.6424 -1.9748
  403MOL0     H55607   9.983   0.008   1.585 -1.5682  1.0239 -0.5892
  403MOL0     H55608   9.947  -0.173   1.825 -0.3836 -0.6803 -0.2561
  403MOL0     H55609   9.922  -0.003   1.854  1.4672 -0.4901  1.4876
  403MOL0     H55610  10.334   0.017   1.842  0.0197  1.2290  2.4538
  403MOL0     H55611   9.590   0.082   1.284 -1.1404 -1.0980 -1.3829
  403MOL0     H55612   9.470   0.117   0.998  0.4721  0.4931  1.0493
  403MOL0     H55613   9.484   0.232   1.127  0.8989  0.5335  1.6199
  403MOL0     H55614   9.562   0.264   0.973  0.9988  0.0192 -0.9369
  404MOL0     O55615  10.041   2.273   1.235  0.1965 -0.5926  0.2354
  404MOL0     C55616  10.143   2.301   1.169  0.2510  1.1053  0.0143
  404MOL0     O55617  10.263   2.243   1.194 -0.2777 -0.0623  0.2703
  404MOL0     C55618  10.281   2.128   1.275  0.4283  0.5725  0.5218
  404MOL0     C55619  10.402   2.110   1.343  0.4967  0.0801  0.6091
  404MOL0     C55620  10.419   2.002   1.426  0.2595 -0.4967 -1.0326
  404MOL0     C55621  10.330   1.907   1.457  0.2880 -0.2429  0.5229
  404MOL0     O55622  10.344   1.804   1.549  0.4587 -0.1244  0.5259
  404MOL0     C55623  10.275   1.841   1.671  0.0113  0.0825 -0.7024
  404MOL0     C55624  10.302   1.724   1.774  0.2095 -0.3857  0.2953
  404MOL0     C55625  10.212   1.614   1.737  0.8763 -1.2128  0.2057
  404MOL0     C55626  10.180   1.497   1.832  0.1384  0.1146 -0.6463
  404MOL0     C55627  10.112   1.376   1.764 -0.3241  0.8382 -1.2719
  404MOL0     C55628  10.054   1.280   1.865  0.6392 -0.0167 -0.4518
  404MOL0     C55629  10.154   1.203   1.946 -1.1885 -0.2908 -0.4305
  404MOL0     C55630  10.120   1.116   2.065  0.1946 -0.3671 -0.4390
  404MOL0     N55631   9.998   1.038   2.041  0.0151  0.2215 -0.4387
  404MOL0     C55632   9.870   1.058   2.083 -0.2290 -0.8813 -0.7420
  404MOL0     C55633   9.783   0.968   2.040  0.0398 -0.3639 -0.4225
  404MOL0     C55634   9.645   0.958   2.090  0.5206  0.0948  0.1311
  404MOL0     C55635   9.590   0.817   2.102  0.8440  0.0197  0.1239
  404MOL0     C55636   9.445   0.827   2.160  0.2063  0.0695 -0.8530
  404MOL0     C55637   9.414   0.751   2.287 -0.8229  0.0305 -0.3163
  404MOL0     O55638   9.357   0.621   2.249 -0.2458 -0.4453 -0.2313
  404MOL0     C55639   9.395   0.501   2.299  0.2872  0.2359  0.3433
  404MOL0     C55640   9.520   0.483   2.355 -0.6440  0.3006 -0.3557
  404MOL0     C55641   9.544   0.364   2.427 -0.2539  0.1895 -1.1827
  404MOL0     C55642   9.677   0.350   2.499  0.0067 -0.0732 -0.9175
  404MOL0     C55643   9.446   0.260   2.434 -0.0642 -0.8283  0.5492
  404MOL0     C55644   9.465   0.129   2.503 -0.4479  0.4779  0.1924
  404MOL0     O55645   9.351   0.068   2.542 -0.1436 -0.4451  0.5265
  404MOL0     C55646   9.349  -0.059   2.594  0.2166  0.4520 -0.3840
  404MOL0     C55647   9.219  -0.108   2.622  0.4622  0.9648 -0.1239
  404MOL0     C55648   9.209  -0.229   2.698  1.2534 -0.2840  0.3412
  404MOL0     C55649   9.321  -0.307   2.742  0.0191  0.7151 -0.1717
  404MOL0     O55650   9.319  -0.418   2.823  0.1355  0.9019 -0.7911
  404MOL0     C55651   9.192  -0.450   2.895 -0.4111  0.2579  1.1932
  404MOL0     C55652   9.196  -0.592   2.941 -0.8840 -0.2821 -0.2661
  404MOL0     C55653   9.233  -0.706   2.832 -0.1058  0.0370  0.5022
  404MOL0     C55654   9.285  -0.831   2.892  0.5523 -0.3203 -1.0290
  404MOL0     C55655   9.317  -0.934   2.785  0.6922 -0.7128 -0.6393
  404MOL0     C55656   9.354  -1.055   2.873  0.0387  1.0656 -0.1131
  404MOL0     C55657   9.401  -1.176   2.781 -0.4504 -0.0966  0.5604
  404MOL0     C55658   9.396  -1.303   2.855  0.4977  0.0218  0.6394
  404MOL0    Cl55659   9.426  -1.442   2.745  0.1758 -0.1544 -0.0616
  404MOL0     C55660   9.448  -0.258   2.698  0.2702 -0.1064 -0.1161
  404MOL0     C55661   9.455  -0.137   2.629 -0.6926 -0.2259  0.0266
  404MOL0     O55662   9.581   0.088   2.506  0.3442 -0.2675  0.1919
  404MOL0     C55663   9.315   0.292   2.380  0.3946  0.3834 -0.1877
  404MOL0     C55664   9.291   0.411   2.317  0.6527  0.4344  0.6603
  404MOL0     N55665   9.860   0.888   1.962 -0.4022  0.4801 -0.1471
  404MOL0     N55666   9.989   0.923   1.961  0.0164 -0.1787 -0.0661
  404MOL0     C55667  10.197   1.923   1.392 -1.2980  0.1145  0.0524
  404MOL0     C55668  10.175   2.024   1.302  1.4017 -0.9456 -0.4688
  404MOL0     C55669  10.130   2.399   1.053  0.4761 -0.3548 -1.0251
  404MOL0     C55670  10.237   2.412   0.966 -0.1817  0.4651  0.5691
  404MOL0     C55671  10.230   2.486   0.855  0.2855 -0.8529  0.0587
  404MOL0     C55672  10.117   2.549   0.819  0.3602 -0.9110  0.4542
  404MOL0     O55673  10.114   2.636   0.715  0.5521  1.0252 -0.7943
  404MOL0     C55674  10.225   2.651   0.627  0.7053  0.1030 -0.5932
  404MOL0     C55675  10.186   2.736   0.502  0.6253 -0.4461  0.2041
  404MOL0     C55676  10.069   2.662   0.421  0.2715 -0.3710 -0.2563
  404MOL0     C55677  10.124   2.531   0.359  0.8018 -0.1948 -0.3518
  404MOL0     C55678  10.030   2.470   0.266 -0.0389  0.2999 -0.1487
  404MOL0     C55679   9.944   2.431   0.183  0.6828 -0.1926 -0.3510
  404MOL0     C55680  10.008   2.555   0.911 -0.4214 -1.0080  1.1289
  404MOL0     C55681  10.012   2.482   1.030 -1.3122 -0.4340  0.1180
  404MOL0     C55682   9.907   2.506   1.134 -0.3388 -0.6269 -0.1971
  404MOL0     H55683  10.481   2.182   1.327  0.1193  0.2465 -0.5614
  404MOL0     H55684  10.517   1.981   1.469 -0.4362 -1.0603  0.3397
  404MOL0     H55685  10.166   1.853   1.677  0.0057  0.0414 -0.7364
  404MOL0     H55686  10.317   1.930   1.717 -1.8698  1.2378 -1.1333
  404MOL0     H55687  10.402   1.679   1.772  2.8690  4.7536  1.5432
  404MOL0     H55688  10.262   1.757   1.870 -3.3432  0.8196 -1.4453
  404MOL0     H55689  10.115   1.655   1.708  0.7997 -0.3142  1.6351
  404MOL0     H55690  10.252   1.574   1.644  1.6775  0.8173 -0.3796
  404MOL0     H55691  10.276   1.459   1.868 -1.6288 -2.8697  1.3635
  404MOL0     H55692  10.133   1.543   1.918  2.6209  3.8636 -1.0548
  404MOL0     H55693  10.185   1.321   1.703 -0.7232 -2.3878  0.8816
  404MOL0     H55694  10.032   1.426   1.709 -1.1718 -0.1725 -0.9864
  404MOL0     H55695   9.978   1.326   1.930  2.0673  0.4440  0.9458
  404MOL0     H55696   9.998   1.203   1.809 -0.0064 -1.0093  1.4458
  404MOL0     H55697  10.226   1.277   1.983  2.6126 -3.8119 -0.1215
  404MOL0     H55698  10.206   1.136   1.878  0.3937  0.4402  0.0126
  404MOL0     H55699  10.193   1.039   2.090 -3.7378 -3.9471  1.3614
  404MOL0     H55700  10.093   1.182   2.148 -1.6281 -1.8333  0.2210
  404MOL0     H55701   9.828   1.136   2.145  1.3362  0.4770 -1.3038
  404MOL0     H55702   9.586   1.021   2.023  1.0390  1.8474  1.2422
  404MOL0     H55703   9.631   1.018   2.181  0.1033  1.3090 -0.7143
  404MOL0     H55704   9.583   0.778   2.000 -2.9226  1.0021 -0.1371
  404MOL0     H55705   9.648   0.754   2.169  0.3998 -0.0613  0.4367
  404MOL0     H55706   9.425   0.930   2.188 -0.8973 -0.3964  0.1852
  404MOL0     H55707   9.369   0.791   2.090 -2.7818  1.2915  1.5102
  404MOL0     H55708   9.498   0.752   2.356  0.8917  3.5115 -2.2012
  404MOL0     H55709   9.330   0.801   2.336  1.7348  0.5436  4.0296
  404MOL0     H55710   9.594   0.562   2.355 -2.1302  1.7354 -0.4651
  404MOL0     H55711   9.672   0.327   2.605  0.1595  1.5340 -0.5400
  404MOL0     H55712   9.729   0.447   2.495 -2.9637  1.6006 -4.3835
  404MOL0     H55713   9.741   0.274   2.452  1.3204 -1.8228  3.2303
  404MOL0     H55714   9.137  -0.045   2.592 -0.2341  0.0165 -0.2737
  404MOL0     H55715   9.104  -0.248   2.718  0.7356  2.3741  0.5714
  404MOL0     H55716   9.161  -0.379   2.973 -1.5134  0.0279  0.9772
  404MOL0     H55717   9.111  -0.448   2.822 -0.7579 -1.8481  1.4787
  404MOL0     H55718   9.267  -0.586   3.024 -0.1073 -0.6748 -0.8806
  404MOL0     H55719   9.094  -0.618   2.971 -1.2355 -0.2394 -1.3767
  404MOL0     H55720   9.314  -0.667   2.770  0.6526 -1.6148  0.4059
  404MOL0     H55721   9.138  -0.732   2.785  0.5155  1.2899 -1.5660
  404MOL0     H55722   9.210  -0.869   2.963 -2.4599  2.4488 -2.4462
  404MOL0     H55723   9.374  -0.800   2.947 -2.2817  2.7085  2.4047
  404MOL0     H55724   9.232  -0.966   2.723  1.4264 -1.3160 -1.3673
  404MOL0     H55725   9.387  -0.890   2.712 -2.6367  1.4631 -2.7727
  404MOL0     H55726   9.261  -1.080   2.925  1.7676 -1.3707  1.9970
  404MOL0     H55727   9.435  -1.035   2.943  1.8661 -3.1048 -0.7837
  404MOL0     H55728   9.503  -1.157   2.747 -0.0465 -2.5317  0.2632
  404MOL0     H55729   9.341  -1.180   2.690  1.2784 -0.4307 -0.5957
  404MOL0     H55730   9.298  -1.311   2.903 -0.3617 -1.0141 -1.1876
  404MOL0     H55731   9.476  -1.299   2.929 -0.1986 -1.2793  1.4898
  404MOL0     H55732   9.534  -0.314   2.734  0.4714  0.3188  0.0721
  404MOL0     H55733   9.559  -0.109   2.616 -0.5358 -1.4609 -1.7696
  404MOL0     H55734   9.238   0.217   2.363 -0.8854  1.9325 -1.6711
  404MOL0     H55735   9.196   0.432   2.270  1.6918  1.7964 -0.9616
  404MOL0     H55736  10.115   1.865   1.432 -0.7876 -1.1315 -0.6669
  404MOL0     H55737  10.077   2.039   1.257  0.9976 -3.5006 -0.5478
  404MOL0     H55738  10.325   2.349   0.973 -0.7889 -0.7615 -1.7632
  404MOL0     H55739  10.315   2.499   0.789 -2.9233  1.7877 -4.0829
  404MOL0     H55740  10.310   2.696   0.678  0.1984  1.6196 -1.0509
  404MOL0     H55741  10.260   2.550   0.602 -0.9377 -0.6797  0.1214
  404MOL0     H55742  10.267   2.754   0.431 -0.0079  2.7202  0.1791
  404MOL0     H55743  10.164   2.835   0.541 -1.0564 -0.2175 -1.2403
  404MOL0     H55744   9.978   2.652   0.480  1.2072  1.2810  1.5790
  404MOL0     H55745  10.047   2.733   0.341  0.2693  1.5414  1.3892
  404MOL0     H55746  10.152   2.458   0.436  1.9370  1.8318  1.2687
  404MOL0     H55747  10.216   2.550   0.302  0.2903 -1.8830 -1.8345
  404MOL0     H55748   9.887   2.405   0.096 -1.1352  4.0732 -0.6903
  404MOL0     H55749   9.923   2.616   0.883 -0.3275 -1.4292 -0.1534
  404MOL0     H55750   9.821   2.564   1.100  0.0387  0.2497  0.3208
  404MOL0     H55751   9.877   2.405   1.166  2.7446 -1.5538  0.0784
  404MOL0     H55752   9.960   2.565   1.208  0.3184 -1.9257  0.4062
  405MOL0     O55753  10.508   3.529  10.096 -0.1954  0.4303 -0.5812
  405MOL0     C55754  10.408   3.587  10.053  0.0562 -0.4443  0.1108
  405MOL0     O55755  10.386   3.626   9.919  0.2118 -0.7824  0.2449
  405MOL0     C55756  10.470   3.599   9.821 -0.3329  0.3276 -0.1438
  405MOL0     C55757  10.605   3.601   9.831 -0.1279 -0.5387 -0.8997
  405MOL0     C55758  10.684   3.574   9.723  0.4630  0.6070  1.1187
  405MOL0     C55759  10.624   3.555   9.593 -0.6005  0.4554  0.0704
  405MOL0     O55760  10.702   3.537   9.475 -0.2746 -0.1005  0.4732
  405MOL0     C55761  10.708   3.405   9.426  0.3149  0.0435  1.5826
  405MOL0     C55762  10.765   3.406   9.271  0.5595  0.6316 -0.8001
  405MOL0     C55763  10.807   3.266   9.221 -0.2223  0.2401  0.1605
  405MOL0     C55764  10.700   3.189   9.144  0.0974 -0.5152  0.1759
  405MOL0     C55765  10.742   3.034   9.109 -1.0126  0.7898 -0.4615
  405MOL0     C55766  10.896   3.011   9.066  0.6946  0.6194 -0.1783
  405MOL0     C55767  10.928   2.862   9.058  0.4729 -0.4675  0.6518
  405MOL0     C55768  11.033   2.850   8.941  0.7305  0.1312 -0.6619
  405MOL0     N55769  11.061   2.712   8.924 -0.6120  0.7908  0.2968
  405MOL0     C55770  10.983   2.623   8.852 -0.2933 -0.5387 -1.6735
  405MOL0     C55771  11.057   2.508   8.851  0.2994  0.0475  0.3103
  405MOL0     C55772  11.003   2.380   8.794 -0.4828  0.1276 -0.8821
  405MOL0     C55773  11.046   2.253   8.862  0.3720  0.7236 -0.6382
  405MOL0     C55774  11.005   2.121   8.787 -0.2010  0.3845 -0.3962
  405MOL0     C55775  11.112   2.091   8.684 -0.4163  0.1034 -0.0365
  405MOL0     O55776  11.175   2.191   8.609 -0.0408 -0.0808  0.5390
  405MOL0     C55777  11.306   2.170   8.584 -0.4004  0.0625 -0.0720
  405MOL0     C55778  11.399   2.258   8.632 -1.0801 -0.2654  0.1602
  405MOL0     C55779  11.535   2.254   8.594  0.0015  0.0520 -0.2459
  405MOL0     C55780  11.618   2.369   8.648  0.2381  1.1553 -0.1684
  405MOL0     C55781  11.584   2.152   8.512  0.3182  0.2625  0.8378
  405MOL0     C55782  11.730   2.144   8.463 -0.2399 -0.1559 -1.2439
  405MOL0     O55783  11.759   2.034   8.387 -0.0078  0.6152 -0.3177
  405MOL0     C55784  11.885   2.003   8.346  0.7228 -1.1470 -0.0236
  405MOL0     C55785  11.981   1.988   8.443  0.3521 -0.1271 -0.0231
  405MOL0     C55786  12.111   1.956   8.390  0.0917  0.2681 -0.6532
  405MOL0     C55787  12.145   1.932   8.260 -0.6939 -0.2995  0.5712
  405MOL0     O55788  12.271   1.891   8.223  0.3242 -0.4925 -0.7435
  405MOL0     C55789  12.324   1.916   8.091 -0.1158 -0.1283  1.4228
  405MOL0     C55790  12.471   1.875   8.074 -0.1643 -0.7501  0.2579
  405MOL0     C55791  12.519   1.874   7.922 -0.7329 -0.7733 -0.1064
  405MOL0     C55792  12.572   1.735   7.886 -0.0613 -0.8832 -0.4892
  405MOL0     C55793  12.669   1.712   7.773  0.3766 -0.3301  0.0575
  405MOL0     C55794  12.799   1.790   7.782 -0.4340  0.2649  0.7356
  405MOL0     C55795  12.912   1.738   7.680 -0.2549 -0.1028 -0.8489
  405MOL0     C55796  13.045   1.723   7.750 -0.8061 -0.6655  0.3452
  405MOL0    Cl55797  13.119   1.881   7.819  0.3200 -0.4605  0.0168
  405MOL0     C55798  12.045   1.954   8.159  0.5745 -0.5052  0.0002
  405MOL0     C55799  11.917   1.999   8.208  0.5370  0.7703  0.6263
  405MOL0     O55800  11.811   2.236   8.492  0.3302  0.1450  0.4325
  405MOL0     C55801  11.486   2.062   8.466 -0.2162  0.1403  0.0228
  405MOL0     C55802  11.352   2.078   8.499  1.0318  0.6882 -0.5290
  405MOL0     N55803  11.181   2.527   8.913 -0.1680 -1.2241 -0.4476
  405MOL0     N55804  11.177   2.650   8.964 -0.4467  0.5577 -0.4813
  405MOL0     C55805  10.492   3.573   9.589  0.7314 -0.4534  0.4090
  405MOL0     C55806  10.409   3.584   9.700  0.7132 -1.2054 -0.5777
  405MOL0     C55807  10.299   3.619  10.148  0.1199 -0.4236 -0.4625
  405MOL0     C55808  10.205   3.716  10.109 -0.6961  0.6009 -0.4332
  405MOL0     C55809  10.092   3.736  10.192  0.9010 -0.6683  0.6974
  405MOL0     C55810  10.072   3.691  10.322 -0.8342  1.0873  0.2437
  405MOL0     O55811   9.955   3.716  10.385  0.9944  0.0539 -0.7547
  405MOL0     C55812   9.938   3.678  10.524 -0.1840 -0.8536 -0.1893
  405MOL0     C55813   9.829   3.772  10.589  0.0440 -0.0753  0.3409
  405MOL0     C55814   9.850   3.922  10.557 -0.2937 -0.2135 -0.8030
  405MOL0     C55815   9.980   4.000  10.598  0.3080  0.4375  0.0528
  405MOL0     C55816   9.977   4.145  10.579  0.0471 -0.2766  1.0482
  405MOL0     C55817  10.002   4.263  10.555  0.2205  0.2296  0.2280
  405MOL0     C55818  10.168   3.597  10.358  0.3656  0.3788 -0.3964
  405MOL0     C55819  10.284   3.569  10.283  0.2526  0.7593  0.4828
  405MOL0     C55820  10.375   3.475  10.341 -1.6304 -0.8276  0.2828
  405MOL0     H55821  10.655   3.620   9.926 -3.4484 -0.9239  1.1090
  405MOL0     H55822  10.789   3.560   9.746 -0.0194 -2.9014  1.6461
  405MOL0     H55823  10.608   3.361   9.417  0.9969 -1.2741 -0.0263
  405MOL0     H55824  10.777   3.337   9.476  4.1548  0.3316 -2.6601
  405MOL0     H55825  10.684   3.452   9.213  0.3148 -1.3679 -2.1410
  405MOL0     H55826  10.849   3.473   9.254  0.7451  1.2623  2.1536
  405MOL0     H55827  10.891   3.278   9.152 -0.2092  0.2066  0.1699
  405MOL0     H55828  10.838   3.199   9.302  0.3269 -2.4395 -2.0868
  405MOL0     H55829  10.608   3.183   9.203  0.4690 -0.0341  0.8142
  405MOL0     H55830  10.673   3.250   9.058  0.1525  2.9222  2.4274
  405MOL0     H55831  10.689   3.001   9.019 -0.1989 -0.3746 -0.5459
  405MOL0     H55832  10.711   2.964   9.187 -2.9555 -1.3753 -2.9960
  405MOL0     H55833  10.903   3.070   8.974 -1.7199  0.7412 -0.3362
  405MOL0     H55834  10.959   3.043   9.150 -1.4018  0.5567  1.5112
  405MOL0     H55835  10.842   2.800   9.030 -0.2671  1.5622 -2.0392
  405MOL0     H55836  10.985   2.822   9.142  2.7234 -0.0423 -0.5897
  405MOL0     H55837  10.993   2.892   8.848 -2.3956 -0.0881  0.4831
  405MOL0     H55838  11.121   2.909   8.969 -0.2351  1.5671 -0.5437
  405MOL0     H55839  10.899   2.659   8.794  0.2554  0.1576 -2.0386
  405MOL0     H55840  11.034   2.366   8.690  2.4005  0.0654 -0.0947
  405MOL0     H55841  10.894   2.392   8.800 -0.3096  1.0223  1.4500
  405MOL0     H55842  11.155   2.246   8.870  0.4048  0.3078 -1.3628
  405MOL0     H55843  10.984   2.262   8.952  1.7566 -0.4279  0.4735
  405MOL0     H55844  10.993   2.038   8.858 -1.3492  1.2009  0.4045
  405MOL0     H55845  10.914   2.142   8.730 -0.5331  0.1795  0.0544
  405MOL0     H55846  11.188   2.025   8.727 -1.3615 -1.2976 -0.4425
  405MOL0     H55847  11.055   2.028   8.615  0.8679  0.9156 -1.9312
  405MOL0     H55848  11.362   2.342   8.690 -1.1018 -0.0233 -0.2015
  405MOL0     H55849  11.568   2.424   8.728  0.2146 -0.4453  0.9620
  405MOL0     H55850  11.645   2.438   8.568  0.2304 -0.1703 -1.3639
  405MOL0     H55851  11.705   2.324   8.697 -1.1459 -0.6018  0.7700
  405MOL0     H55852  11.962   2.014   8.547  0.9169  1.3371 -0.2611
  405MOL0     H55853  12.193   1.938   8.458  3.0429  2.9305 -3.1765
  405MOL0     H55854  12.273   1.845   8.025 -0.5608 -0.7606  2.4278
  405MOL0     H55855  12.306   2.015   8.049 -0.2633 -0.7506 -0.0865
  405MOL0     H55856  12.547   1.935   8.125  0.6855  0.5948 -2.3786
  405MOL0     H55857  12.481   1.769   8.099  0.7658 -1.2370 -1.9150
  405MOL0     H55858  12.605   1.937   7.899  0.5158 -2.8245 -1.4050
  405MOL0     H55859  12.435   1.896   7.856 -1.7881  3.6124  2.3205
  405MOL0     H55860  12.478   1.679   7.877 -1.7716  1.6284  0.5393
  405MOL0     H55861  12.617   1.689   7.975  0.2981  1.1606  0.4430
  405MOL0     H55862  12.703   1.609   7.789  0.6966 -0.0610  1.1797
  405MOL0     H55863  12.618   1.741   7.680 -2.4763  2.7570  2.3442
  405MOL0     H55864  12.837   1.785   7.884 -0.2097 -0.9026  0.6092
  405MOL0     H55865  12.768   1.892   7.759  2.2817  1.0861  0.3655
  405MOL0     H55866  12.912   1.808   7.596  0.7362  0.4239 -0.4285
  405MOL0     H55867  12.887   1.638   7.644  0.2454 -0.4359 -0.2945
  405MOL0     H55868  13.114   1.674   7.680 -2.1349 -0.0508 -1.4963
  405MOL0     H55869  13.035   1.650   7.831  0.1519 -1.5597 -0.3130
  405MOL0     H55870  12.049   1.940   8.051  1.7236  0.4021 -0.0928
  405MOL0     H55871  11.836   2.025   8.141  0.3372 -1.8681 -0.2803
  405MOL0     H55872  11.511   1.982   8.396 -0.5258  1.6486 -1.8952
  405MOL0     H55873  11.275   2.014   8.457  1.9932 -0.6847 -0.2486
  405MOL0     H55874  10.440   3.584   9.495 -1.6535  0.5805  1.7654
  405MOL0     H55875  10.302   3.605   9.691  0.6510 -0.4487  1.3903
  405MOL0     H55876  10.195   3.761  10.011 -2.3604 -3.9280 -2.6007
  405MOL0     H55877  10.009   3.792  10.150  1.7845 -0.9123 -1.5513
  405MOL0     H55878   9.906   3.573  10.525 -0.6189 -0.7417 -1.1245
  405MOL0     H55879  10.035   3.673  10.574  2.1964 -1.3100 -4.4284
  405MOL0     H55880   9.825   3.745  10.695  1.7354 -0.1181  0.4083
  405MOL0     H55881   9.739   3.733  10.541  1.3327 -2.1252 -0.5312
  405MOL0     H55882   9.845   3.935  10.449  1.3369  0.7414 -0.8033
  405MOL0     H55883   9.766   3.971  10.608  0.7848  0.3128  0.5607
  405MOL0     H55884  10.058   3.947  10.543  0.1915  0.8269 -0.4895
  405MOL0     H55885  10.006   3.989  10.704  3.3749 -5.4253 -0.8786
  405MOL0     H55886  10.030   4.361  10.521 -1.7680 -0.8189 -5.4994
  405MOL0     H55887  10.145   3.544  10.450 -2.4074 -1.6069 -2.0648
  405MOL0     H55888  10.349   3.438  10.440  1.3251  1.4336  2.0429
  405MOL0     H55889  10.379   3.394  10.267  2.1349 -0.0929 -0.5415
  405MOL0     H55890  10.473   3.522  10.351 -2.1170  0.1245  0.7224
  406MOL0     O55891   5.887   1.963   8.011  0.2405 -0.1893 -0.1009
  406MOL0     C55892   6.009   1.974   8.036  0.5987  1.1578  0.0109
  406MOL0     O55893   6.115   1.910   7.965 -0.4455 -0.3496 -0.2544
  406MOL0     C55894   6.088   1.808   7.877 -0.1961  0.4460 -0.7488
  406MOL0     C55895   6.094   1.681   7.939 -0.2378 -0.1345 -0.5685
  406MOL0     C55896   6.081   1.566   7.860 -0.6458 -0.9027 -0.7192
  406MOL0     C55897   6.052   1.574   7.727  0.1460 -0.5466  0.2432
  406MOL0     O55898   6.027   1.458   7.656  0.4734  0.0474  0.4556
  406MOL0     C55899   5.935   1.462   7.543 -0.1767  0.2880 -0.1228
  406MOL0     C55900   6.011   1.491   7.419  0.9748 -0.2426  0.4487
  406MOL0     C55901   6.062   1.357   7.353  0.2605 -0.2318 -0.3988
  406MOL0     C55902   6.095   1.392   7.206 -0.1387  0.3087  0.2535
  406MOL0     C55903   6.118   1.273   7.106 -0.7667  0.5557 -1.2554
  406MOL0     C55904   6.242   1.191   7.136  0.1132 -0.8867 -1.0139
  406MOL0     C55905   6.374   1.283   7.133  0.6651 -0.1393 -0.4095
  406MOL0     C55906   6.509   1.217   7.163  0.8764 -0.9592  1.1435
  406MOL0     N55907   6.516   1.169   7.298  0.1585 -0.7819  0.1732
  406MOL0     C55908   6.522   1.041   7.342 -0.6687 -0.2359  0.6835
  406MOL0     C55909   6.572   1.056   7.471 -1.0554  0.4749 -0.8816
  406MOL0     C55910   6.589   0.940   7.564  0.0200  0.2403  0.7351
  406MOL0     C55911   6.610   0.797   7.497  0.0016 -0.4458 -0.4480
  406MOL0     C55912   6.648   0.690   7.606 -0.0924 -0.5823 -0.3642
  406MOL0     C55913   6.640   0.539   7.551 -0.2245 -0.1659 -0.1609
  406MOL0     O55914   6.752   0.504   7.461  0.1382 -0.2375 -0.1721
  406MOL0     C55915   6.770   0.363   7.448 -0.2166 -0.5524 -0.2725
  406MOL0     C55916   6.898   0.319   7.442  1.3197  0.0472 -0.4998
  406MOL0     C55917   6.937   0.186   7.461  0.0121  0.6227 -0.0299
  406MOL0     C55918   7.096   0.167   7.457  0.1809 -0.1898  0.9414
  406MOL0     C55919   6.833   0.091   7.463 -0.1983 -0.1661  0.8589
  406MOL0     C55920   6.852  -0.052   7.477  0.5374  0.1047 -0.6547
  406MOL0     O55921   6.741  -0.144   7.473  0.8420  0.4774 -0.2813
  406MOL0     C55922   6.744  -0.284   7.494 -0.6346 -0.2043 -0.1310
  406MOL0     C55923   6.624  -0.347   7.520  0.6961 -0.2857 -0.7735
  406MOL0     C55924   6.607  -0.483   7.537 -1.0222  0.2751  0.0778
  406MOL0     C55925   6.720  -0.573   7.517  0.7532 -0.4852  0.1317
  406MOL0     O55926   6.716  -0.707   7.544  0.1562 -0.2347 -0.6110
  406MOL0     C55927   6.623  -0.761   7.633 -0.9592  0.3104 -0.4056
  406MOL0     C55928   6.684  -0.879   7.700  0.9309 -1.0689 -0.0638
  406MOL0     C55929   6.594  -0.984   7.756  0.7546  1.0485  0.6670
  406MOL0     C55930   6.669  -1.086   7.839 -0.2356 -0.0086  0.3095
  406MOL0     C55931   6.771  -1.174   7.767 -0.4642 -0.7593  0.7361
  406MOL0     C55932   6.920  -1.138   7.816  0.2927 -1.2413  0.2764
  406MOL0     C55933   7.023  -1.250   7.792  0.4335  0.3363  0.5991
  406MOL0     C55934   7.154  -1.189   7.843  0.1014  0.7401  0.8624
  406MOL0    Cl55935   7.234  -1.117   7.697  0.2018  0.1725  0.2169
  406MOL0     C55936   6.843  -0.506   7.506 -0.8035  1.4469 -0.2467
  406MOL0     C55937   6.856  -0.371   7.501  0.2350 -0.1156 -0.5510
  406MOL0     O55938   6.968  -0.093   7.503 -0.3727 -0.2285  1.1594
  406MOL0     C55939   6.697   0.135   7.441  0.3313  0.2524  0.2250
  406MOL0     C55940   6.667   0.269   7.461  0.6540  0.0191 -0.1614
  406MOL0     N55941   6.586   1.188   7.502 -1.0039 -0.7781  0.0252
  406MOL0     N55942   6.540   1.258   7.403 -0.2117  0.6469  0.1222
  406MOL0     C55943   6.034   1.703   7.676  0.2682  0.4505 -0.1819
  406MOL0     C55944   6.052   1.821   7.746 -0.3876 -0.0290 -0.1234
  406MOL0     C55945   6.056   2.051   8.144 -0.5925 -0.5668  0.1968
  406MOL0     C55946   6.156   2.147   8.114 -0.2426 -0.4692  0.3960
  406MOL0     C55947   6.187   2.247   8.203 -0.5547  0.0912 -0.2534
  406MOL0     C55948   6.108   2.270   8.317 -0.6798 -0.2720  1.3459
  406MOL0     O55949   6.139   2.382   8.395  0.1747  0.0426 -0.7262
  406MOL0     C55950   6.040   2.420   8.485 -0.5872  0.7567 -0.2025
  406MOL0     C55951   6.046   2.566   8.525  0.0110  0.3652 -0.2576
  406MOL0     C55952   5.935   2.607   8.629  0.4904 -0.0657  0.1314
  406MOL0     C55953   5.950   2.757   8.656  0.5260 -0.3036 -0.8315
  406MOL0     C55954   6.050   2.770   8.757  0.2399 -0.1647 -0.5766
  406MOL0     C55955   6.144   2.800   8.836  0.5261  0.3342 -0.6107
  406MOL0     C55956   6.009   2.173   8.344  0.4360 -0.0101 -1.1644
  406MOL0     C55957   5.981   2.063   8.266 -0.3468 -0.6166 -0.4592
  406MOL0     C55958   5.872   1.970   8.301  1.8907  0.2623 -0.3199
  406MOL0     H55959   6.103   1.684   8.047  1.2775 -0.0400 -0.6799
  406MOL0     H55960   6.073   1.466   7.902 -0.4953 -1.3797 -1.8167
  406MOL0     H55961   5.865   1.546   7.552 -0.3817  0.4523 -2.6007
  406MOL0     H55962   5.878   1.369   7.541 -0.3127  0.2694  1.8269
  406MOL0     H55963   5.933   1.525   7.351 -0.3655 -2.1793  0.9273
  406MOL0     H55964   6.096   1.559   7.431  0.1840  1.1152 -1.2259
  406MOL0     H55965   6.158   1.326   7.395 -0.3387 -1.1985  0.2936
  406MOL0     H55966   5.980   1.285   7.360 -0.4196  0.6854  3.0217
  406MOL0     H55967   6.010   1.447   7.166  0.2024  2.3253  2.1367
  406MOL0     H55968   6.169   1.472   7.192 -1.8031  1.9560  0.5682
  406MOL0     H55969   6.122   1.303   7.001 -0.5699 -3.6525 -2.6399
  406MOL0     H55970   6.032   1.205   7.103 -0.1993 -0.1863 -1.0835
  406MOL0     H55971   6.232   1.145   7.235 -3.8699 -2.8352 -2.1275
  406MOL0     H55972   6.246   1.106   7.067  0.2457 -2.2055  0.5570
  406MOL0     H55973   6.367   1.371   7.198  2.2816 -0.1300 -0.2206
  406MOL0     H55974   6.377   1.323   7.031 -1.2852 -0.7432 -0.7551
  406MOL0     H55975   6.535   1.144   7.085  5.3985 -1.5859  2.9019
  406MOL0     H55976   6.582   1.298   7.154  0.0668 -0.3139  0.1961
  406MOL0     H55977   6.493   0.954   7.284  0.2550  0.4734 -0.9188
  406MOL0     H55978   6.506   0.941   7.635 -0.1397 -0.3711  0.5602
  406MOL0     H55979   6.680   0.958   7.621 -1.3157  0.3854  2.9318
  406MOL0     H55980   6.517   0.760   7.455  0.8762 -1.3740 -1.6240
  406MOL0     H55981   6.690   0.800   7.423 -0.9997  2.4061 -1.5661
  406MOL0     H55982   6.750   0.705   7.644 -0.4409  0.9208  0.0533
  406MOL0     H55983   6.586   0.698   7.696  3.0885 -2.3136  2.1927
  406MOL0     H55984   6.631   0.464   7.631  1.7115  0.2220  0.4771
  406MOL0     H55985   6.545   0.532   7.498  0.0215  1.4235 -0.8866
  406MOL0     H55986   6.974   0.394   7.425  0.0747  1.1510 -1.4238
  406MOL0     H55987   7.132   0.133   7.555  0.7639 -2.0986  0.1039
  406MOL0     H55988   7.155   0.256   7.430 -0.4854  0.9068  2.8469
  406MOL0     H55989   7.110   0.086   7.385 -2.0298  0.8213 -0.7517
  406MOL0     H55990   6.534  -0.287   7.531 -1.1811 -3.0640 -0.2335
  406MOL0     H55991   6.508  -0.529   7.534 -0.5781 -0.6848 -1.4523
  406MOL0     H55992   6.592  -0.683   7.703  1.2616 -0.2945  1.3627
  406MOL0     H55993   6.538  -0.793   7.570  0.5702 -0.3544 -2.2280
  406MOL0     H55994   6.763  -0.914   7.632  1.5156  3.7035 -2.2544
  406MOL0     H55995   6.728  -0.839   7.792  1.9857 -5.6067  1.6611
  406MOL0     H55996   6.545  -1.027   7.667 -1.0255 -2.5553  3.1199
  406MOL0     H55997   6.515  -0.941   7.818  1.8462  2.0841  1.3709
  406MOL0     H55998   6.592  -1.153   7.879 -1.2075  0.5379 -0.6245
  406MOL0     H55999   6.710  -1.032   7.925 -0.4355 -1.8853  1.6394
  406MOL0     H56000   6.752  -1.282   7.775  1.3399 -1.0911  0.9829
  406MOL0     H56001   6.763  -1.156   7.659 -1.7984 -0.7077  0.8275
  406MOL0     H56002   6.920  -1.105   7.921  0.7945  1.3446 -0.4526
  406MOL0     H56003   6.954  -1.051   7.759 -1.6787  0.0891  1.0209
  406MOL0     H56004   7.022  -1.266   7.683 -0.2141 -1.1016  0.8017
  406MOL0     H56005   6.993  -1.343   7.840  0.1008  1.6386  3.0512
  406MOL0     H56006   7.211  -1.269   7.890 -0.9750 -2.2031 -2.4019
  406MOL0     H56007   7.138  -1.110   7.917 -1.9920  1.6211 -0.4187
  406MOL0     H56008   6.927  -0.575   7.507 -1.6562  0.3499 -0.7810
  406MOL0     H56009   6.959  -0.337   7.498  0.2850  0.1944  2.1794
  406MOL0     H56010   6.606   0.076   7.438 -0.8462  1.8701  1.7330
  406MOL0     H56011   6.565   0.302   7.478 -0.1275 -2.5506  0.5956
  406MOL0     H56012   6.007   1.710   7.571 -0.5175  0.4361  0.0111
  406MOL0     H56013   6.057   1.919   7.700  0.0357 -0.0985 -0.2278
  406MOL0     H56014   6.216   2.162   8.025  3.5534  0.1603  2.8516
  406MOL0     H56015   6.259   2.324   8.179  1.1164 -1.6808 -1.2078
  406MOL0     H56016   5.943   2.391   8.445 -2.0188  2.0076  2.0839
  406MOL0     H56017   6.048   2.358   8.575  2.3827  0.1871 -0.7761
  406MOL0     H56018   6.027   2.635   8.442  5.3584 -0.1549 -2.3655
  406MOL0     H56019   6.141   2.599   8.568 -1.9386  4.1581  1.6787
  406MOL0     H56020   5.837   2.592   8.583  0.6024  1.6223 -0.7330
  406MOL0     H56021   5.941   2.544   8.718  1.2157 -0.4490 -0.1832
  406MOL0     H56022   5.853   2.796   8.689  0.2279 -0.0186 -2.0143
  406MOL0     H56023   5.979   2.827   8.578 -1.6183  0.7379 -0.7512
  406MOL0     H56024   6.221   2.844   8.897 -0.2368  0.7343  0.0785
  406MOL0     H56025   5.959   2.175   8.440  0.2944 -0.7604 -1.2127
  406MOL0     H56026   5.914   1.872   8.327  1.2947  0.6323  2.3385
  406MOL0     H56027   5.833   1.994   8.400  2.0041 -1.6835  0.2415
  406MOL0     H56028   5.797   1.977   8.221  0.8786  1.3268  0.6874
  407MOL0     O56029   9.443   1.400  10.771 -0.1292 -0.4205  0.2993
  407MOL0     C56030   9.335   1.369  10.815 -0.6771 -0.2907 -0.2698
  407MOL0     O56031   9.308   1.357  10.947 -0.0258  0.6420  0.2212
  407MOL0     C56032   9.402   1.377  11.040 -0.0170 -1.0729 -0.4985
  407MOL0     C56033   9.539   1.346  11.034 -0.8765  0.8501  0.3378
  407MOL0     C56034   9.627   1.334  11.145  1.0481  0.5106  0.3417
  407MOL0     C56035   9.577   1.378  11.266  0.9411 -0.4188 -0.3070
  407MOL0     O56036   9.674   1.384  11.366 -0.0647  0.0024  0.0414
  407MOL0     C56037   9.625   1.400  11.503  0.2950 -0.1944 -0.9354
  407MOL0     C56038   9.561   1.266  11.531  0.2106  0.2861  0.1091
  407MOL0     C56039   9.549   1.231  11.686  0.1731 -0.7883  0.6806
  407MOL0     C56040   9.480   1.097  11.708  0.0689 -0.0275  0.4387
  407MOL0     C56041   9.488   1.052  11.862  0.6240  0.3083  0.5260
  407MOL0     C56042   9.423   0.907  11.877  0.5703 -0.5399  0.0260
  407MOL0     C56043   9.390   0.878  12.023 -0.8382 -0.1640 -0.8840
  407MOL0     C56044   9.276   0.776  12.034  0.8708 -0.7154 -0.5129
  407MOL0     N56045   9.220   0.757  12.165 -0.1736 -0.2559 -0.6726
  407MOL0     C56046   9.288   0.713  12.280 -0.3089  0.6785 -1.3002
  407MOL0     C56047   9.198   0.734  12.380 -0.6975 -0.3040 -0.4672
  407MOL0     C56048   9.205   0.704  12.526 -0.7760  0.0390  0.9727
  407MOL0     C56049   9.073   0.666  12.573 -0.5628 -0.7863 -0.5291
  407MOL0     C56050   9.076   0.593  12.712 -1.0322 -0.2305  0.4591
  407MOL0     C56051   9.166   0.669  12.812  0.1576  1.1337 -0.2180
  407MOL0     O56052   9.155   0.632  12.952  0.0916 -0.0362 -0.3404
  407MOL0     C56053   9.207   0.517  12.989  0.0870 -0.1637 -0.3200
  407MOL0     C56054   9.339   0.481  12.973  0.1233  0.2649  0.3294
  407MOL0     C56055   9.384   0.354  13.015 -0.0073  1.0671  0.3374
  407MOL0     C56056   9.536   0.312  13.013 -0.0924 -0.5797 -0.2192
  407MOL0     C56057   9.287   0.260  13.065  0.2972 -0.8758 -0.7803
  407MOL0     C56058   9.322   0.124  13.110 -0.0721  0.7363 -0.3664
  407MOL0     O56059   9.237   0.066  13.201  0.1774 -0.3400  0.7805
  407MOL0     C56060   9.250  -0.069  13.220  0.3237  0.3947 -0.4558
  407MOL0     C56061   9.169  -0.161  13.148 -0.4354  0.1588  0.1853
  407MOL0     C56062   9.181  -0.300  13.161 -0.2431  0.4122 -0.1727
  407MOL0     C56063   9.281  -0.353  13.252  0.8783 -0.8964  0.2141
  407MOL0     O56064   9.296  -0.485  13.268 -0.3967  0.2359 -0.6898
  407MOL0     C56065   9.176  -0.556  13.299 -0.4611 -0.3197 -0.4327
  407MOL0     C56066   9.205  -0.682  13.381 -0.1887  0.6574  0.0983
  407MOL0     C56067   9.073  -0.719  13.450  0.1445  0.2274 -0.0528
  407MOL0     C56068   9.093  -0.856  13.532  0.5295  0.1743  0.3297
  407MOL0     C56069   9.157  -0.981  13.460  0.3145 -0.3945  1.0816
  407MOL0     C56070   9.056  -1.050  13.366  0.8660 -0.0654 -0.2590
  407MOL0     C56071   9.125  -1.172  13.298  0.3313  0.5897  0.0985
  407MOL0     C56072   9.036  -1.299  13.266  0.2526  0.1065 -1.0311
  407MOL0    Cl56073   8.943  -1.353  13.408 -0.0557  0.0681  0.5505
  407MOL0     C56074   9.360  -0.264  13.325 -0.7360  1.1773 -0.1729
  407MOL0     C56075   9.336  -0.123  13.313 -0.1294  0.6053 -0.6130
  407MOL0     O56076   9.402   0.065  13.039  0.4006 -0.2367 -0.1079
  407MOL0     C56077   9.155   0.295  13.085  0.0145  0.9054 -0.2311
  407MOL0     C56078   9.118   0.423  13.047  0.2739 -0.6890 -0.6616
  407MOL0     N56079   9.078   0.779  12.325  0.5665 -0.1098  0.1966
  407MOL0     N56080   9.093   0.793  12.202 -0.4490  0.1254  0.0959
  407MOL0     C56081   9.443   1.439  11.275  1.1627  0.4976 -0.1784
  407MOL0     C56082   9.355   1.426  11.163 -0.6797  0.3139  0.3499
  407MOL0     C56083   9.228   1.325  10.724 -0.1379 -0.3294  0.7608
  407MOL0     C56084   9.138   1.233  10.781  1.3733  0.3028  0.0541
  407MOL0     C56085   9.031   1.177  10.702  0.1644 -0.5830  0.6528
  407MOL0     C56086   9.031   1.200  10.559  0.7672 -0.5124  0.1605
  407MOL0     O56087   8.926   1.137  10.491 -0.4170 -0.4312 -0.1992
  407MOL0     C56088   8.923   1.121  10.348  0.2571 -0.4480 -0.0851
  407MOL0     C56089   8.880   1.255  10.288 -0.1412 -0.7744 -0.3812
  407MOL0     C56090   8.801   1.224  10.164  0.5683  0.3504 -0.0058
  407MOL0     C56091   8.882   1.223  10.034  0.6140  0.0177 -1.0444
  407MOL0     C56092   8.795   1.185   9.924 -0.0110 -0.4227  0.1587
  407MOL0     C56093   8.735   1.148   9.830  0.0447 -0.1918 -0.3817
  407MOL0     C56094   9.134   1.286  10.505 -0.3782  0.2713  0.3853
  407MOL0     C56095   9.221   1.360  10.583  0.1756  0.0179 -0.2723
  407MOL0     C56096   9.313   1.466  10.519 -0.2968 -0.9453  0.1315
  407MOL0     H56097   9.584   1.307  10.943 -0.4524 -2.6625  1.8911
  407MOL0     H56098   9.724   1.287  11.130  0.8614  0.5062 -0.9783
  407MOL0     H56099   9.563   1.487  11.523  0.9019 -0.3510  2.0410
  407MOL0     H56100   9.704   1.424  11.575 -0.7356  0.8480 -0.1145
  407MOL0     H56101   9.460   1.276  11.489  0.8875 -0.0674 -1.7141
  407MOL0     H56102   9.610   1.188  11.472  1.0466  0.5555  0.4417
  407MOL0     H56103   9.650   1.227  11.726  2.1583  1.5549 -3.4210
  407MOL0     H56104   9.491   1.311  11.731 -1.2325 -2.4342  1.9546
  407MOL0     H56105   9.379   1.093  11.666  0.9623 -0.3481 -1.8371
  407MOL0     H56106   9.533   1.023  11.647 -0.8090 -0.9850  0.8015
  407MOL0     H56107   9.438   1.122  11.929 -2.8413  1.2291 -2.7270
  407MOL0     H56108   9.591   1.042  11.900  0.4487  3.1018  2.0405
  407MOL0     H56109   9.333   0.902  11.816  0.5230  0.3971  0.0037
  407MOL0     H56110   9.491   0.828  11.842  0.0774 -1.1012  0.3393
  407MOL0     H56111   9.368   0.969  12.081 -0.5568 -0.3626 -0.4579
  407MOL0     H56112   9.477   0.841  12.079 -2.1891 -2.1255  0.0109
  407MOL0     H56113   9.194   0.817  11.973  0.4608 -2.1797 -0.9872
  407MOL0     H56114   9.319   0.682  12.001  1.2837 -0.6771 -0.0876
  407MOL0     H56115   9.395   0.697  12.291 -0.3365  0.7200 -0.9445
  407MOL0     H56116   9.239   0.795  12.576  2.9960  0.3932 -1.8248
  407MOL0     H56117   9.287   0.633  12.527  2.0317  3.0442  0.5203
  407MOL0     H56118   9.015   0.758  12.579  1.7604  0.7807 -1.0171
  407MOL0     H56119   9.018   0.608  12.498 -1.4642 -0.0338 -0.4591
  407MOL0     H56120   8.978   0.597  12.760 -0.0957 -0.1129  2.4722
  407MOL0     H56121   9.113   0.491  12.697  2.3199  0.5994  2.0696
  407MOL0     H56122   9.264   0.646  12.769 -0.4584  1.8025 -2.0572
  407MOL0     H56123   9.142   0.776  12.810  2.0015  1.5655 -1.6954
  407MOL0     H56124   9.403   0.568  12.957 -2.6161  2.0552 -2.0141
  407MOL0     H56125   9.593   0.404  13.027 -0.4936 -0.6866  2.6049
  407MOL0     H56126   9.563   0.267  12.917 -1.0045  2.8836 -2.2861
  407MOL0     H56127   9.553   0.251  13.102  1.2485  0.6189  0.3778
  407MOL0     H56128   9.094  -0.126  13.077 -0.9778  2.5062  1.7945
  407MOL0     H56129   9.116  -0.372  13.114  0.3683 -1.1825  1.2845
  407MOL0     H56130   9.104  -0.496  13.356  2.2711  0.2417  2.7533
  407MOL0     H56131   9.129  -0.585  13.204  1.6767 -2.2477 -1.0092
  407MOL0     H56132   9.234  -0.756  13.306  0.2020  1.4846 -0.5784
  407MOL0     H56133   9.294  -0.664  13.442  0.9301  0.4025 -1.4226
  407MOL0     H56134   8.999  -0.741  13.372  1.3480 -1.4518 -0.7795
  407MOL0     H56135   9.038  -0.648  13.525 -1.6527 -2.0949  1.4285
  407MOL0     H56136   9.005  -0.884  13.590  0.1372  0.7380  0.0181
  407MOL0     H56137   9.171  -0.827  13.603  1.7342 -0.2837 -0.7664
  407MOL0     H56138   9.247  -0.954  13.403  0.1696 -0.1146  0.9827
  407MOL0     H56139   9.180  -1.047  13.544 -0.3099 -2.6566 -0.4456
  407MOL0     H56140   9.032  -0.981  13.285  0.9704  1.4004  0.9243
  407MOL0     H56141   8.968  -1.077  13.424  0.2630  0.9250 -0.6781
  407MOL0     H56142   9.207  -1.203  13.364 -0.4975  1.7443  1.7760
  407MOL0     H56143   9.181  -1.139  13.210  0.8134 -0.3729  0.0313
  407MOL0     H56144   9.102  -1.380  13.234  2.1284  1.2146 -0.1204
  407MOL0     H56145   8.960  -1.281  13.188 -3.0241 -0.4170  1.7904
  407MOL0     H56146   9.444  -0.306  13.379 -1.9242 -2.3865 -0.7886
  407MOL0     H56147   9.399  -0.055  13.369  1.1298  0.9389 -2.3284
  407MOL0     H56148   9.089   0.220  13.128 -0.0807  0.6823 -0.7605
  407MOL0     H56149   9.016   0.450  13.069 -0.9482 -4.9318 -0.3045
  407MOL0     H56150   9.403   1.471  11.370  0.2874 -1.8651  0.3111
  407MOL0     H56151   9.247   1.437  11.172 -0.4949  1.0057  2.1423
  407MOL0     H56152   9.149   1.193  10.882 -1.2878 -3.1496 -0.8370
  407MOL0     H56153   8.946   1.124  10.743 -1.0985 -1.0586 -2.3433
  407MOL0     H56154   9.015   1.095  10.295  0.7433  0.0522  0.4980
  407MOL0     H56155   8.850   1.044  10.321 -1.0379  1.1602 -1.5072
  407MOL0     H56156   8.961   1.319  10.253 -1.1177  0.2055 -0.9438
  407MOL0     H56157   8.806   1.308  10.350 -0.9180 -1.1525 -0.9734
  407MOL0     H56158   8.743   1.134  10.183 -2.8381  2.1934 -0.9125
  407MOL0     H56159   8.717   1.294  10.168 -0.1882 -0.6044  2.1217
  407MOL0     H56160   8.963   1.151  10.046 -0.6399 -1.5108 -1.3383
  407MOL0     H56161   8.921   1.321  10.007 -0.4214 -0.2054 -3.6839
  407MOL0     H56162   8.682   1.116   9.743 -1.5395  0.8947  0.1228
  407MOL0     H56163   9.122   1.304  10.399  3.4098  0.8883 -0.0650
  407MOL0     H56164   9.263   1.501  10.428 -1.5343 -3.1818 -0.1270
  407MOL0     H56165   9.318   1.555  10.582 -3.8169 -0.1822 -0.4352
  407MOL0     H56166   9.412   1.425  10.498  0.8557  1.1044  1.2494
  408MOL0     O56167   9.194   6.809   4.379 -0.6809 -0.2244  0.1643
  408MOL0     C56168   9.296   6.776   4.444  0.2235  0.7003  0.0004
  408MOL0     O56169   9.288   6.741   4.578  0.1689 -0.3220 -0.7056
  408MOL0     C56170   9.161   6.756   4.627 -0.2046  0.4416 -0.2148
  408MOL0     C56171   9.115   6.878   4.670  0.2927  0.6514  0.7243
  408MOL0     C56172   8.989   6.894   4.723  0.4314 -0.0181 -0.2237
  408MOL0     C56173   8.897   6.790   4.715 -0.3862  0.2503 -0.0992
  408MOL0     O56174   8.770   6.812   4.782 -0.3474 -0.5208  0.3416
  408MOL0     C56175   8.683   6.699   4.784 -0.5933 -0.2232 -0.1931
  408MOL0     C56176   8.549   6.726   4.860  0.1430  0.7932 -0.0631
  408MOL0     C56177   8.475   6.843   4.805 -0.5496  0.1124  0.0974
  408MOL0     C56178   8.337   6.881   4.867  0.2825  0.0090  0.1341
  408MOL0     C56179   8.276   7.002   4.794 -0.3061  0.1088  0.3185
  408MOL0     C56180   8.127   7.023   4.822  0.4570  0.1110 -0.3156
  408MOL0     C56181   8.090   7.060   4.969  0.0638  0.0327 -0.7600
  408MOL0     C56182   8.101   7.209   4.991 -1.1144  0.8029  0.2193
  408MOL0     N56183   8.044   7.247   5.118  0.2922 -0.2713 -0.4183
  408MOL0     C56184   8.070   7.367   5.174  0.2662 -0.3671 -0.9466
  408MOL0     C56185   7.996   7.360   5.285  0.7241  0.3132 -0.3224
  408MOL0     C56186   7.991   7.461   5.394  0.5182  0.7501 -0.3526
  408MOL0     C56187   8.036   7.610   5.354 -0.5571  0.4151  0.6081
  408MOL0     C56188   7.970   7.660   5.218 -0.3915  0.2341 -0.1135
  408MOL0     C56189   7.990   7.816   5.209 -0.5738 -0.1873 -0.2582
  408MOL0     O56190   8.030   7.856   5.076 -0.6821  0.5006 -0.2423
  408MOL0     C56191   8.074   7.995   5.068 -0.1487  0.6964 -0.7719
  408MOL0     C56192   8.111   8.036   4.942  0.5334 -0.5234 -0.8190
  408MOL0     C56193   8.137   8.167   4.907 -0.4478 -0.1818  1.0632
  408MOL0     C56194   8.172   8.189   4.755  0.4600  0.0915 -0.1085
  408MOL0     C56195   8.140   8.258   5.012 -0.4087 -0.7961  0.8449
  408MOL0     C56196   8.167   8.405   4.989 -0.8859  0.3306  0.1611
  408MOL0     O56197   8.154   8.486   5.102 -0.4099  0.0101 -0.0163
  408MOL0     C56198   8.165   8.624   5.099 -0.4142  0.0289 -0.6094
  408MOL0     C56199   8.273   8.674   5.035 -0.5535 -0.0114  0.2355
  408MOL0     C56200   8.288   8.816   5.018  0.6397 -0.2121  0.0252
  408MOL0     C56201   8.203   8.901   5.092 -0.1608 -1.1436 -0.1249
  408MOL0     O56202   8.210   9.039   5.086  1.2897 -0.6534 -0.2261
  408MOL0     C56203   8.268   9.114   5.197 -0.8912  0.2185 -0.0980
  408MOL0     C56204   8.400   9.171   5.168  0.4836 -0.7429 -1.0587
  408MOL0     C56205   8.521   9.075   5.162 -0.1027  0.5852 -0.0896
  408MOL0     C56206   8.598   9.114   5.027  0.7418 -0.9456  0.4125
  408MOL0     C56207   8.734   9.042   5.020 -0.1396 -0.0031  0.3947
  408MOL0     C56208   8.740   8.987   4.879  0.2660 -0.2527 -0.0012
  408MOL0     C56209   8.884   8.938   4.850  0.5462  0.5795 -0.2695
  408MOL0     C56210   8.927   8.830   4.949 -0.1717  0.8505 -0.6437
  408MOL0    Cl56211   9.082   8.756   4.910  0.0735 -0.2246 -0.0305
  408MOL0     C56212   8.101   8.844   5.169  0.6235 -0.6577  0.0530
  408MOL0     C56213   8.082   8.709   5.173 -1.0691  0.2437  0.3995
  408MOL0     O56214   8.208   8.444   4.879 -1.2744  0.4136 -0.2953
  408MOL0     C56215   8.120   8.224   5.147 -0.5987 -0.4877 -0.4067
  408MOL0     C56216   8.069   8.098   5.172  0.1666 -0.3443  0.1445
  408MOL0     N56217   7.916   7.247   5.286  0.4767  0.1784  0.6274
  408MOL0     N56218   7.951   7.183   5.186  0.3850 -0.5905  1.0531
  408MOL0     C56219   8.950   6.664   4.667  0.6161 -0.0736 -0.9538
  408MOL0     C56220   9.077   6.645   4.621  0.2506 -0.2382 -0.5354
  408MOL0     C56221   9.430   6.785   4.375  0.2340 -0.0902 -0.6770
  408MOL0     C56222   9.535   6.748   4.458  0.1992 -0.3028  0.3896
  408MOL0     C56223   9.675   6.759   4.423  0.8117 -0.6927 -0.1109
  408MOL0     C56224   9.704   6.808   4.297 -0.6212  0.1577 -0.6492
  408MOL0     O56225   9.824   6.790   4.242 -0.4928  0.0223  0.3146
  408MOL0     C56226   9.940   6.775   4.321 -0.2792  1.7712  0.1479
  408MOL0     C56227   9.993   6.912   4.369  0.2535 -0.3592 -0.1817
  408MOL0     C56228  10.029   7.000   4.242 -0.3331  0.0016 -0.0465
  408MOL0     C56229  10.144   7.103   4.279  0.3567 -0.3138  0.0445
  408MOL0     C56230  10.123   7.188   4.400  0.4687 -0.3241 -0.2842
  408MOL0     C56231  10.103   7.265   4.500 -0.0861  0.4764  0.2113
  408MOL0     C56232   9.597   6.845   4.216 -0.3500 -0.0214  0.1116
  408MOL0     C56233   9.464   6.841   4.251  0.7669  0.6218 -0.5470
  408MOL0     C56234   9.365   6.875   4.143 -0.2870 -0.2279  0.6728
  408MOL0     H56235   9.171   6.971   4.661 -0.3875  0.9873 -0.1855
  408MOL0     H56236   8.969   6.988   4.773 -2.9737 -0.8391  0.1670
  408MOL0     H56237   8.731   6.612   4.830 -1.3106  0.1910  1.3949
  408MOL0     H56238   8.656   6.671   4.681 -0.7044  0.2345 -0.2929
  408MOL0     H56239   8.471   6.649   4.859  0.0398  0.8711 -2.0697
  408MOL0     H56240   8.572   6.729   4.967 -3.4059 -2.0748  0.9833
  408MOL0     H56241   8.534   6.935   4.808  0.0170 -0.2495  0.2132
  408MOL0     H56242   8.445   6.830   4.701 -1.8907  2.9073  0.0256
  408MOL0     H56243   8.266   6.798   4.861  0.3153 -0.2706  2.5685
  408MOL0     H56244   8.358   6.903   4.972  2.6676  1.3079 -0.5458
  408MOL0     H56245   8.289   6.989   4.686  0.4191 -3.6706  0.7172
  408MOL0     H56246   8.339   7.092   4.803  1.3549 -0.5954 -2.9582
  408MOL0     H56247   8.089   7.100   4.756  1.3800  0.3927 -0.5364
  408MOL0     H56248   8.084   6.925   4.797  0.2578 -0.2089  1.1442
  408MOL0     H56249   8.156   7.005   5.037  0.2285  0.4894 -0.5461
  408MOL0     H56250   7.985   7.033   4.982  0.2743 -0.1039  0.7740
  408MOL0     H56251   8.199   7.255   4.982 -1.4658  1.1351 -3.0467
  408MOL0     H56252   8.031   7.254   4.920  0.7009  2.0068 -0.8705
  408MOL0     H56253   8.134   7.449   5.143 -1.1986  0.8322 -0.9099
  408MOL0     H56254   8.059   7.430   5.474  0.9099 -1.8155 -1.5842
  408MOL0     H56255   7.892   7.464   5.441 -0.1709  1.4335 -1.7851
  408MOL0     H56256   8.013   7.682   5.432 -2.1499  3.2919 -2.2613
  408MOL0     H56257   8.145   7.615   5.341 -0.6886  3.5451 -0.2871
  408MOL0     H56258   7.991   7.603   5.127 -1.4006  2.9055 -2.1512
  408MOL0     H56259   7.861   7.658   5.223 -0.3882  0.7745  0.3675
  408MOL0     H56260   7.896   7.866   5.233 -1.3117 -0.7935 -1.7258
  408MOL0     H56261   8.071   7.851   5.273 -0.0303 -1.9649  0.0724
  408MOL0     H56262   8.111   7.957   4.868  0.8919 -0.5432 -0.8012
  408MOL0     H56263   8.133   8.109   4.691  1.1367 -0.7241  0.4834
  408MOL0     H56264   8.273   8.218   4.723  0.4274  2.1651  1.4065
  408MOL0     H56265   8.114   8.279   4.734  0.5597  0.3459  0.6765
  408MOL0     H56266   8.349   8.605   4.997 -2.3826 -1.0819 -1.6767
  408MOL0     H56267   8.363   8.864   4.956 -0.0067  1.4184  0.4434
  408MOL0     H56268   8.192   9.187   5.225 -0.8984  0.4615 -0.7327
  408MOL0     H56269   8.266   9.051   5.287 -0.9298  1.9896  1.1857
  408MOL0     H56270   8.388   9.225   5.073  1.1334 -0.3872 -0.9458
  408MOL0     H56271   8.414   9.239   5.252 -2.0630  0.2081 -1.3303
  408MOL0     H56272   8.497   8.970   5.182  2.5375 -0.1131 -0.1385
  408MOL0     H56273   8.590   9.103   5.242  1.5704  2.4260 -2.0478
  408MOL0     H56274   8.614   9.222   5.032 -0.2390 -0.7694 -0.0474
  408MOL0     H56275   8.531   9.090   4.945 -1.3186  3.0001  0.6909
  408MOL0     H56276   8.820   9.105   5.045  1.4261 -2.2722  1.0588
  408MOL0     H56277   8.742   8.960   5.092  2.0334  0.8333  1.2024
  408MOL0     H56278   8.705   9.071   4.818 -1.8713 -0.5587  0.7029
  408MOL0     H56279   8.666   8.909   4.860  1.4416 -1.6306  0.8945
  408MOL0     H56280   8.948   9.027   4.851 -2.8984  3.3872 -3.3436
  408MOL0     H56281   8.882   8.891   4.751 -2.1849  0.2266 -0.1136
  408MOL0     H56282   8.855   8.748   4.951  1.6097 -0.8545 -2.6910
  408MOL0     H56283   8.938   8.881   5.046 -2.1612 -0.9345  0.6184
  408MOL0     H56284   8.040   8.909   5.230 -2.9241 -1.1483 -2.6807
  408MOL0     H56285   7.999   8.659   5.222 -2.4125 -0.0951 -2.0526
  408MOL0     H56286   8.124   8.290   5.233 -0.4835 -2.3907  1.1331
  408MOL0     H56287   8.038   8.068   5.272 -0.9422 -1.6904 -0.5677
  408MOL0     H56288   8.880   6.581   4.669 -0.2251  0.6006 -1.4456
  408MOL0     H56289   9.104   6.545   4.590 -3.8529 -2.2986  1.7190
  408MOL0     H56290   9.521   6.706   4.557  1.1569  1.4020  1.2925
  408MOL0     H56291   9.743   6.725   4.500  0.7419 -0.8493 -0.1176
  408MOL0     H56292   9.917   6.708   4.405 -1.9990  0.0397 -1.5992
  408MOL0     H56293  10.026   6.732   4.270  0.8538  3.1020  0.8658
  408MOL0     H56294  10.083   6.882   4.424  0.0910 -2.0405 -0.7729
  408MOL0     H56295   9.922   6.966   4.432  0.6754 -0.2286  0.1909
  408MOL0     H56296  10.060   6.942   4.155 -2.4363 -2.1111  0.5007
  408MOL0     H56297   9.947   7.059   4.200 -0.2788 -0.6065 -1.0454
  408MOL0     H56298  10.155   7.179   4.202 -0.8903  0.3056  0.4578
  408MOL0     H56299  10.240   7.052   4.275 -0.0442 -1.2452  1.5720
  408MOL0     H56300  10.091   7.339   4.577 -0.1413  1.2990 -0.5598
  408MOL0     H56301   9.617   6.880   4.116 -1.0145  2.0425  0.6443
  408MOL0     H56302   9.342   6.777   4.099  2.0316 -0.9112  0.8232
  408MOL0     H56303   9.274   6.921   4.181  0.1195 -0.5612  2.1168
  408MOL0     H56304   9.414   6.942   4.072  0.1121 -0.1790  0.9857
  409MOL0     O56305   7.286   8.832   9.020 -0.0691  1.0207 -0.6739
  409MOL0     C56306   7.175   8.807   8.976  0.4354 -0.1714 -0.1712
  409MOL0     O56307   7.069   8.895   8.969 -0.3793 -0.3004 -0.0759
  409MOL0     C56308   7.084   9.025   8.985 -0.0394  0.5615  0.2681
  409MOL0     C56309   7.191   9.112   8.956 -0.0825  0.3410  0.8764
  409MOL0     C56310   7.186   9.248   8.965 -0.0735 -0.0670 -0.0779
  409MOL0     C56311   7.081   9.305   9.020  0.4714  0.0834 -0.5868
  409MOL0     O56312   7.084   9.439   9.047 -0.1536 -0.2694 -0.0376
  409MOL0     C56313   6.984   9.506   9.121  0.4396  0.5625 -1.1109
  409MOL0     C56314   7.014   9.660   9.141 -0.5155  0.0614 -0.7837
  409MOL0     C56315   6.897   9.717   9.226  0.2107 -0.2463 -0.6377
  409MOL0     C56316   6.922   9.853   9.289 -0.5142  0.5173 -0.5395
  409MOL0     C56317   6.803   9.912   9.351  1.3074  0.6558 -0.3348
  409MOL0     C56318   6.833  10.026   9.451  0.2286 -0.5171 -0.1819
  409MOL0     C56319   6.716  10.071   9.538  0.0316 -0.3672  0.1945
  409MOL0     C56320   6.751  10.210   9.607  0.2927  0.2691 -0.1107
  409MOL0     N56321   6.861  10.197   9.706  0.1417  0.2028  0.0767
  409MOL0     C56322   6.994  10.250   9.704 -0.2144 -0.2832  0.2417
  409MOL0     C56323   7.053  10.202   9.816 -0.6480 -0.0765  0.1548
  409MOL0     C56324   7.203  10.221   9.839 -0.4148 -0.4693  0.6260
  409MOL0     C56325   7.229  10.313   9.967  0.3813  1.3084 -0.0424
  409MOL0     C56326   7.189  10.255  10.104  0.0972 -0.2299 -0.1052
  409MOL0     C56327   7.304  10.154  10.142  0.5680 -0.3370 -0.2621
  409MOL0     O56328   7.288  10.092  10.278 -0.0118  0.3149  0.2491
  409MOL0     C56329   7.222   9.973  10.301 -0.1306 -0.0681  1.1672
  409MOL0     C56330   7.208   9.932  10.430 -0.3896  0.7351 -0.3734
  409MOL0     C56331   7.151   9.804  10.463  0.4994 -0.1086 -0.3186
  409MOL0     C56332   7.164   9.754  10.611  0.3425 -0.2501  0.9511
  409MOL0     C56333   7.087   9.728  10.356 -0.0361 -0.7567  0.0440
  409MOL0     C56334   7.019   9.596  10.366  0.1803 -0.3535 -0.3256
  409MOL0     O56335   6.959   9.536  10.253 -0.4837 -0.0693 -0.3451
  409MOL0     C56336   6.873   9.438  10.274  0.5919 -0.3169 -0.1840
  409MOL0     C56337   6.751   9.451  10.207 -0.3950  0.1509 -0.2358
  409MOL0     C56338   6.654   9.353  10.209  1.1077 -1.4130 -0.1590
  409MOL0     C56339   6.666   9.250  10.296  0.0982  0.1934  0.4175
  409MOL0     O56340   6.574   9.142  10.307  0.0703  0.5635 -0.5840
  409MOL0     C56341   6.498   9.117  10.185 -0.7039 -0.3429 -0.3332
  409MOL0     C56342   6.417   9.000  10.215 -0.1037  0.4871  0.5989
  409MOL0     C56343   6.322   8.976  10.099  0.6189  0.1199 -0.0110
  409MOL0     C56344   6.237   8.843  10.128 -0.9024 -0.7889 -0.7214
  409MOL0     C56345   6.178   8.792  10.001 -0.0121 -0.3014 -0.3626
  409MOL0     C56346   6.084   8.880   9.931 -0.3042  0.1078  0.9156
  409MOL0     C56347   6.003   8.810   9.819 -0.2287 -0.8583 -0.3863
  409MOL0     C56348   5.892   8.727   9.881 -0.6066  0.1584  0.2625
  409MOL0    Cl56349   5.745   8.701   9.765  0.3423  0.0185  0.1399
  409MOL0     C56350   6.783   9.242  10.378  0.2725  0.0429 -0.3805
  409MOL0     C56351   6.889   9.331  10.356 -0.2747  0.9472 -0.4930
  409MOL0     O56352   6.986   9.570  10.479  1.5425  0.5557  0.4333
  409MOL0     C56353   7.102   9.767  10.224 -0.0792 -0.3113  0.2525
  409MOL0     C56354   7.168   9.890  10.195 -0.6101  0.6096 -0.8654
  409MOL0     N56355   6.970  10.127   9.886  0.3245 -0.0972 -0.5287
  409MOL0     N56356   6.856  10.118   9.819  1.1826 -0.7118 -0.9535
  409MOL0     C56357   6.965   9.228   9.035 -0.3537  0.5844  0.1898
  409MOL0     C56358   6.965   9.085   9.032 -0.3735 -0.4514 -0.4098
  409MOL0     C56359   7.149   8.674   8.920 -0.5591  0.5017 -0.0449
  409MOL0     C56360   7.263   8.574   8.931  0.5888 -0.1375 -0.2972
  409MOL0     C56361   7.239   8.443   8.900 -0.1304 -0.1828  0.1544
  409MOL0     C56362   7.129   8.403   8.833  0.2330  0.3945  0.1392
  409MOL0     O56363   7.107   8.269   8.795 -0.1159  0.0813 -0.2033
  409MOL0     C56364   7.168   8.231   8.679  0.2927  1.3604  0.1494
  409MOL0     C56365   7.194   8.089   8.668  0.4548 -0.3293 -0.8943
  409MOL0     C56366   7.064   8.017   8.691 -0.0470 -0.6441 -0.7450
  409MOL0     C56367   7.101   7.875   8.683 -0.6126 -0.0407 -0.2739
  409MOL0     C56368   6.994   7.779   8.707  0.5238  0.8920 -0.9094
  409MOL0     C56369   6.909   7.691   8.734 -0.2835  0.3026 -0.7361
  409MOL0     C56370   7.022   8.494   8.813 -0.4677  0.8934 -0.1059
  409MOL0     C56371   7.034   8.626   8.846 -0.3370 -0.7978 -0.5519
  409MOL0     C56372   6.914   8.710   8.809  0.4891 -0.0165 -0.5735
  409MOL0     H56373   7.284   9.076   8.913 -0.1895 -1.5600  2.0917
  409MOL0     H56374   7.272   9.307   8.933 -0.4075  0.4035 -0.1004
  409MOL0     H56375   6.983   9.463   9.222  4.0110  4.8286  1.0896
  409MOL0     H56376   6.887   9.494   9.072  0.2423 -2.2923 -0.1839
  409MOL0     H56377   7.095   9.665   9.215 -2.8771 -1.6491  2.1494
  409MOL0     H56378   7.064   9.710   9.058  0.6142 -1.5335 -1.1081
  409MOL0     H56379   6.808   9.730   9.165 -0.0121  1.9141  0.0270
  409MOL0     H56380   6.867   9.641   9.298  0.3259  2.3155  2.3441
  409MOL0     H56381   7.006   9.855   9.359  1.9211  1.3682 -3.2812
  409MOL0     H56382   6.973   9.927   9.225 -1.2373  3.3026  1.8962
  409MOL0     H56383   6.768   9.825   9.409  4.5034 -1.4200 -1.2569
  409MOL0     H56384   6.729   9.942   9.276 -1.0876 -0.8279  1.2717
  409MOL0     H56385   6.904   9.986   9.524 -0.5293 -0.6594  0.4922
  409MOL0     H56386   6.875  10.118   9.409 -0.7019 -1.0669 -2.4899
  409MOL0     H56387   6.698   9.994   9.614 -2.8155 -0.6385 -0.6373
  409MOL0     H56388   6.623  10.086   9.481 -0.0693 -2.3024 -0.2289
  409MOL0     H56389   6.767  10.292   9.537 -0.5879  1.4362  1.0142
  409MOL0     H56390   6.667  10.248   9.666 -0.3240  2.3784 -2.1900
  409MOL0     H56391   7.045  10.318   9.636 -0.5286  0.6190  0.8891
  409MOL0     H56392   7.237  10.265   9.745 -1.4036 -1.0605 -0.0267
  409MOL0     H56393   7.254  10.129   9.870 -0.7997 -0.4204  1.4175
  409MOL0     H56394   7.335  10.338   9.974  0.8509  0.3998 -2.6058
  409MOL0     H56395   7.168  10.401   9.950 -0.8458  0.4474 -0.2160
  409MOL0     H56396   7.202  10.334  10.180 -1.1343  0.1343 -0.2486
  409MOL0     H56397   7.086  10.219  10.106 -0.1727  0.5147 -0.3067
  409MOL0     H56398   7.315  10.084  10.060 -0.4398  0.9808 -1.5684
  409MOL0     H56399   7.397  10.212  10.139  0.4691 -0.0958  0.6712
  409MOL0     H56400   7.256   9.991  10.507 -2.0979 -0.2163  1.5307
  409MOL0     H56401   7.180   9.647  10.627  1.4393  0.0277  1.7899
  409MOL0     H56402   7.087   9.792  10.678  1.7074  1.1059  1.8134
  409MOL0     H56403   7.255   9.803  10.644 -0.4325  1.2329  0.9568
  409MOL0     H56404   6.729   9.543  10.152  0.4565  0.7778  0.4345
  409MOL0     H56405   6.558   9.383  10.168  1.3209 -0.0177  0.3016
  409MOL0     H56406   6.420   9.194  10.178 -1.9319 -1.5176 -0.0351
  409MOL0     H56407   6.556   9.113  10.092  0.5523  0.0254  0.4205
  409MOL0     H56408   6.485   8.916  10.233  2.4015  1.6412 -2.5372
  409MOL0     H56409   6.358   9.021  10.305 -0.4026  0.2587  0.4604
  409MOL0     H56410   6.376   8.964  10.005 -0.1498  0.8607 -0.5670
  409MOL0     H56411   6.256   9.063  10.088 -0.0485 -0.3291  0.3443
  409MOL0     H56412   6.167   8.870  10.207 -0.0628  1.7847 -0.7596
  409MOL0     H56413   6.295   8.759  10.166 -0.5870  0.7355  2.4966
  409MOL0     H56414   6.265   8.761   9.943  1.2689  1.5266  0.5051
  409MOL0     H56415   6.108   8.710  10.023  0.0856 -0.5588 -0.9776
  409MOL0     H56416   6.134   8.951   9.864 -2.7645 -0.7704 -2.0799
  409MOL0     H56417   6.020   8.940   9.995  0.0472  3.4463 -1.5718
  409MOL0     H56418   6.080   8.759   9.761  2.4376  0.5595  1.6831
  409MOL0     H56419   5.959   8.883   9.751  1.6194 -1.1729 -1.9860
  409MOL0     H56420   5.860   8.784   9.968 -0.4891  0.3915  0.1536
  409MOL0     H56421   5.918   8.630   9.925 -3.2059  0.3320  2.5019
  409MOL0     H56422   6.794   9.173  10.461  2.6772  3.1165  2.1359
  409MOL0     H56423   6.966   9.322  10.432 -1.6709  0.4466  0.9248
  409MOL0     H56424   7.062   9.709  10.142  0.1301 -1.9881  1.2952
  409MOL0     H56425   7.164   9.915  10.090  0.2852 -1.6445 -1.4998
  409MOL0     H56426   6.870   9.270   9.067  0.4305  1.8528  0.9349
  409MOL0     H56427   6.889   9.021   9.073 -1.4754  1.4474  0.6561
  409MOL0     H56428   7.354   8.595   8.986  2.3593  1.0084 -3.4369
  409MOL0     H56429   7.320   8.372   8.904 -0.2181 -0.2923 -0.0035
  409MOL0     H56430   7.097   8.261   8.601  0.2829  4.0775  1.0931
  409MOL0     H56431   7.264   8.282   8.670  1.3384 -0.6997 -1.2878
  409MOL0     H56432   7.275   8.065   8.738 -2.1809 -2.5575  1.6589
  409MOL0     H56433   7.232   8.066   8.568 -2.2781 -0.2108 -2.0311
  409MOL0     H56434   7.026   8.041   8.791  1.7441 -0.3258 -0.0943
  409MOL0     H56435   6.994   8.041   8.610  0.2972 -3.8897 -2.1569
  409MOL0     H56436   7.193   7.840   8.729 -0.5237 -0.2372 -0.6010
  409MOL0     H56437   7.132   7.869   8.579  2.5682  0.4241  0.5412
  409MOL0     H56438   6.823   7.629   8.744 -1.8487  2.5229  0.3426
  409MOL0     H56439   6.939   8.455   8.754  0.8466 -1.2313 -0.6353
  409MOL0     H56440   6.880   8.772   8.892 -0.7633 -0.3905 -0.7799
  409MOL0     H56441   6.944   8.764   8.718 -3.2734  1.7621 -0.9612
  409MOL0     H56442   6.823   8.655   8.783 -1.3048  1.5676  1.9936
  410MOL0     O56443  10.408   1.081   4.681 -0.1305  1.2230 -0.0014
  410MOL0     C56444  10.421   0.967   4.734  0.5770 -0.4985  0.8762
  410MOL0     O56445  10.348   0.929   4.843  1.4105 -0.3602 -0.4260
  410MOL0     C56446  10.214   0.967   4.880 -0.2704  0.2785 -0.3856
  410MOL0     C56447  10.150   1.091   4.860  0.2950 -0.3670  0.0065
  410MOL0     C56448  10.011   1.107   4.895 -0.6567  0.2212 -0.5906
  410MOL0     C56449   9.938   1.012   4.974 -0.3846 -0.1999 -0.4733
  410MOL0     O56450   9.807   1.048   5.006 -0.7130 -0.3436  0.2966
  410MOL0     C56451   9.726   0.933   5.029  0.8596 -0.1932 -0.1424
  410MOL0     C56452   9.580   0.962   5.037  0.4849 -1.2498  0.8334
  410MOL0     C56453   9.525   1.006   4.896 -0.5495  0.3402  0.3664
  410MOL0     C56454   9.522   0.883   4.793  1.1080 -0.4153 -0.4080
  410MOL0     C56455   9.447   0.911   4.657 -0.3388  0.1596  0.4767
  410MOL0     C56456   9.466   0.788   4.575  1.1836  0.0490  0.1314
  410MOL0     C56457   9.396   0.659   4.643 -1.2338  0.5741 -0.1626
  410MOL0     C56458   9.334   0.561   4.541 -0.4259 -0.6903  0.1901
  410MOL0     N56459   9.312   0.434   4.619  0.5414  0.2404 -0.2837
  410MOL0     C56460   9.402   0.331   4.631 -1.1333  0.7684  0.7210
  410MOL0     C56461   9.358   0.245   4.724 -0.2183 -0.0409  0.7413
  410MOL0     C56462   9.405   0.113   4.764 -0.3697 -0.1535  1.1353
  410MOL0     C56463   9.296   0.018   4.735 -0.3890 -0.3207 -0.1979
  410MOL0     C56464   9.345  -0.121   4.782  0.0647 -0.4398 -0.1781
  410MOL0     C56465   9.239  -0.231   4.757 -0.2380  0.2564  0.0039
  410MOL0     O56466   9.295  -0.333   4.679 -0.1039  0.1005 -0.2371
  410MOL0     C56467   9.394  -0.418   4.719  0.3788  1.1613  0.5812
  410MOL0     C56468   9.435  -0.518   4.627 -0.8282  0.0249  0.6649
  410MOL0     C56469   9.531  -0.623   4.660  0.6452 -0.2042  0.0174
  410MOL0     C56470   9.561  -0.726   4.549  0.3659  0.2063 -0.7685
  410MOL0     C56471   9.591  -0.616   4.784 -0.2863 -0.3591  0.4579
  410MOL0     C56472   9.687  -0.717   4.841 -0.7982  0.2825 -0.5656
  410MOL0     O56473   9.729  -0.703   4.976  0.5039 -0.1362 -0.3270
  410MOL0     C56474   9.818  -0.804   5.024  0.3318  0.7011  0.9157
  410MOL0     C56475   9.787  -0.858   5.148 -0.7406  0.4562  0.0394
  410MOL0     C56476   9.881  -0.942   5.206  1.0460  0.5309 -0.7734
  410MOL0     C56477   9.996  -0.992   5.139 -0.6261  0.2213 -0.0559
  410MOL0     O56478  10.088  -1.074   5.194  0.1411 -0.3743 -0.1532
  410MOL0     C56479  10.083  -1.120   5.330  0.4993  0.1967 -0.1117
  410MOL0     C56480  10.195  -1.221   5.357 -0.0683 -0.1298 -0.1774
  410MOL0     C56481  10.337  -1.177   5.326 -1.1159  1.0236  0.5740
  410MOL0     C56482  10.376  -1.255   5.202  0.2599 -0.5236  0.0416
  410MOL0     C56483  10.501  -1.206   5.135 -0.5410  0.1611 -0.4051
  410MOL0     C56484  10.623  -1.258   5.215 -0.2696 -0.3910 -0.2695
  410MOL0     C56485  10.744  -1.212   5.128 -0.2495  0.7935 -0.1196
  410MOL0     C56486  10.873  -1.246   5.207 -0.3188 -0.5056 -0.2974
  410MOL0    Cl56487  10.904  -1.108   5.323 -0.1962  0.0837  0.4041
  410MOL0     C56488  10.026  -0.933   5.016 -0.1709  0.6161 -0.0350
  410MOL0     C56489   9.938  -0.846   4.958  0.0095  0.0116 -0.5591
  410MOL0     O56490   9.704  -0.818   4.768  0.6548  0.2600 -0.0875
  410MOL0     C56491   9.555  -0.513   4.876 -0.1971  1.1247  0.0116
  410MOL0     C56492   9.456  -0.422   4.845  0.1967 -0.6514 -1.0135
  410MOL0     N56493   9.252   0.300   4.782  0.8595 -0.9957  0.1379
  410MOL0     N56494   9.215   0.408   4.717 -0.7562  0.0748 -0.6901
  410MOL0     C56495  10.015   0.897   5.014  0.6683  0.3935  0.1133
  410MOL0     C56496  10.148   0.880   4.965  0.8488  0.0090 -0.2141
  410MOL0     C56497  10.522   0.869   4.680  0.2297 -0.0355 -0.2853
  410MOL0     C56498  10.538   0.748   4.748 -0.4501  0.9068  0.0129
  410MOL0     C56499  10.619   0.652   4.702 -0.3381 -0.1752 -0.0653
  410MOL0     C56500  10.703   0.665   4.591  1.3662  1.7426 -0.2857
  410MOL0     O56501  10.774   0.555   4.550 -0.5594 -0.5525  0.1563
  410MOL0     C56502  10.884   0.585   4.463 -0.8661  0.2157  0.0198
  410MOL0     C56503  11.001   0.492   4.491  0.1096  0.2487  0.2012
  410MOL0     C56504  10.976   0.345   4.460 -0.4256  0.5107 -0.6707
  410MOL0     C56505  11.082   0.252   4.510  0.6047  0.1205  0.0618
  410MOL0     C56506  11.098   0.127   4.434 -1.0690  1.1613  0.3242
  410MOL0     C56507  11.101   0.013   4.382 -0.5205  1.1174 -0.1915
  410MOL0     C56508  10.687   0.779   4.520 -1.0486  0.7488 -1.9327
  410MOL0     C56509  10.604   0.886   4.564 -0.0481 -0.3232  0.0938
  410MOL0     C56510  10.620   1.019   4.487  0.1529 -0.2228  0.1293
  410MOL0     H56511  10.201   1.170   4.806 -2.9301  2.9211  1.3487
  410MOL0     H56512   9.952   1.198   4.886 -0.9955 -0.0081 -0.7002
  410MOL0     H56513   9.758   0.892   5.126  0.7231 -2.3652 -0.9664
  410MOL0     H56514   9.741   0.865   4.946  1.1715 -1.6720  1.0811
  410MOL0     H56515   9.533   0.870   5.074  0.8546 -1.1911  1.4486
  410MOL0     H56516   9.558   1.041   5.109 -1.3498 -0.1340 -0.8310
  410MOL0     H56517   9.426   1.046   4.918 -1.3880 -2.3654  2.0182
  410MOL0     H56518   9.597   1.075   4.851  0.9643 -0.9621  0.6823
  410MOL0     H56519   9.621   0.842   4.773  1.7323 -0.6180  2.5196
  410MOL0     H56520   9.470   0.804   4.848  1.3074 -1.0218 -1.0874
  410MOL0     H56521   9.484   1.003   4.612 -1.5643 -0.6112 -2.3620
  410MOL0     H56522   9.342   0.936   4.674 -0.9751 -1.8914 -0.0366
  410MOL0     H56523   9.427   0.803   4.474  0.1181  3.6182  0.9322
  410MOL0     H56524   9.573   0.764   4.566  1.1755  0.0697 -0.0201
  410MOL0     H56525   9.312   0.695   4.702 -1.0234  1.9245 -0.6474
  410MOL0     H56526   9.472   0.604   4.700 -3.9132 -3.8399 -0.3973
  410MOL0     H56527   9.245   0.611   4.500  0.6502  0.5493 -0.7244
  410MOL0     H56528   9.411   0.562   4.464 -2.3935 -1.3222 -1.8910
  410MOL0     H56529   9.489   0.310   4.571 -2.1177  2.9866 -1.6788
  410MOL0     H56530   9.431   0.126   4.869  3.2245  1.3948  0.1915
  410MOL0     H56531   9.501   0.094   4.715  0.0352  2.5035  0.7362
  410MOL0     H56532   9.209   0.042   4.796  0.9951 -1.1836  2.2705
  410MOL0     H56533   9.259   0.011   4.633 -0.8168 -0.7679 -0.0170
  410MOL0     H56534   9.445  -0.148   4.746  1.3588 -2.0995  4.0482
  410MOL0     H56535   9.364  -0.112   4.890  0.5042  2.0216 -0.4078
  410MOL0     H56536   9.222  -0.269   4.858  1.2963  0.0210  0.1930
  410MOL0     H56537   9.148  -0.192   4.708 -0.8640  0.5642  1.3757
  410MOL0     H56538   9.384  -0.520   4.532  0.7746 -0.4797 -0.2196
  410MOL0     H56539   9.651  -0.704   4.491 -0.4811  3.0157 -1.1763
  410MOL0     H56540   9.476  -0.747   4.484  0.3035 -0.7870 -0.3803
  410MOL0     H56541   9.581  -0.825   4.589  2.9890  0.0716 -2.1830
  410MOL0     H56542   9.695  -0.827   5.197 -0.8805 -0.0332  0.0926
  410MOL0     H56543   9.851  -0.976   5.305 -1.9380  3.3782 -0.5393
  410MOL0     H56544  10.083  -1.032   5.396 -0.0035  1.1909 -1.4021
  410MOL0     H56545   9.983  -1.159   5.351 -0.6708  3.0823  0.1225
  410MOL0     H56546  10.187  -1.265   5.457  2.1261 -1.4316 -0.5130
  410MOL0     H56547  10.176  -1.316   5.307  0.1442 -0.3685  0.1806
  410MOL0     H56548  10.403  -1.207   5.409 -0.5777  0.2516 -0.1149
  410MOL0     H56549  10.334  -1.069   5.313  0.2480  1.5842  3.8724
  410MOL0     H56550  10.301  -1.245   5.123 -1.5806  1.7099  1.9500
  410MOL0     H56551  10.392  -1.359   5.230 -1.5007 -1.5208 -2.3207
  410MOL0     H56552  10.500  -1.263   5.041  2.0782 -1.3873  0.3963
  410MOL0     H56553  10.509  -1.098   5.129  2.2712  0.0623  0.2642
  410MOL0     H56554  10.634  -1.366   5.222  2.8521 -0.3008 -1.7962
  410MOL0     H56555  10.625  -1.230   5.320  2.3616 -5.8571  1.4867
  410MOL0     H56556  10.745  -1.105   5.103 -1.4271  0.2801 -2.7982
  410MOL0     H56557  10.749  -1.260   5.030  3.1524  0.1825  0.2495
  410MOL0     H56558  10.954  -1.259   5.135 -0.3684  1.7007 -0.8007
  410MOL0     H56559  10.860  -1.336   5.268 -0.4590  1.0025  2.0349
  410MOL0     H56560  10.112  -0.958   4.953  0.1759 -0.9689  1.0205
  410MOL0     H56561   9.965  -0.813   4.858  2.4611  3.3078  0.9994
  410MOL0     H56562   9.602  -0.505   4.974  1.3767 -2.0999 -0.3388
  410MOL0     H56563   9.435  -0.346   4.919 -0.5684 -1.6543 -0.1759
  410MOL0     H56564   9.964   0.814   5.062 -0.2361 -0.6938 -2.5463
  410MOL0     H56565  10.193   0.787   4.999  0.2347 -0.6560 -1.1580
  410MOL0     H56566  10.485   0.730   4.840  0.0526  1.9860  0.5292
  410MOL0     H56567  10.622   0.556   4.753 -1.1899  0.0685  0.4645
  410MOL0     H56568  10.844   0.586   4.361 -0.9705  2.7836  0.0187
  410MOL0     H56569  10.921   0.685   4.486  0.6255 -1.0034  3.5450
  410MOL0     H56570  11.035   0.498   4.594  1.3331 -0.0221 -0.1761
  410MOL0     H56571  11.083   0.526   4.427 -0.2034  0.5715 -0.0315
  410MOL0     H56572  10.885   0.310   4.508 -0.8391  0.9226 -1.1455
  410MOL0     H56573  10.970   0.329   4.351  2.2775  1.1917 -1.0100
  410MOL0     H56574  11.067   0.227   4.615  2.1777 -1.2594  0.0042
  410MOL0     H56575  11.177   0.305   4.510  2.4955 -3.0189  1.0366
  410MOL0     H56576  11.097  -0.084   4.336  1.2124  0.2034  1.4262
  410MOL0     H56577  10.737   0.792   4.425  3.9153 -1.6747  0.0145
  410MOL0     H56578  10.557   1.049   4.403  2.3996  0.3113 -1.4392
  410MOL0     H56579  10.613   1.099   4.561 -0.8012 -2.1962  2.3323
  410MOL0     H56580  10.719   1.037   4.443 -0.1187  0.8204 -0.0664
  411MOL0     O56581  10.459  11.147   1.837 -0.4614  0.2999 -0.2217
  411MOL0     C56582  10.482  11.025   1.863 -0.3289  0.0297 -0.4302
  411MOL0     O56583  10.603  10.956   1.860  0.0904 -0.2613 -0.7974
  411MOL0     C56584  10.703  11.024   1.804  0.0496 -1.0936  0.6496
  411MOL0     C56585  10.740  11.156   1.838 -0.6825  0.3990 -0.4676
  411MOL0     C56586  10.854  11.203   1.782  0.2964  0.0552 -0.1881
  411MOL0     C56587  10.921  11.136   1.684  0.5767 -0.8810 -0.0752
  411MOL0     O56588  11.018  11.208   1.639  0.4005 -0.9048  0.8231
  411MOL0     C56589  11.090  11.157   1.529 -0.3675 -0.6651  1.1737
  411MOL0     C56590  11.201  11.261   1.499  0.2482  0.3046  0.8050
  411MOL0     C56591  11.284  11.204   1.378 -0.6116  0.1818  0.9091
  411MOL0     C56592  11.412  11.292   1.350  0.7607  0.2349 -0.5838
  411MOL0     C56593  11.463  11.243   1.213 -0.5767 -0.2859 -0.0299
  411MOL0     C56594  11.603  11.303   1.197  0.6145 -0.2192 -0.4181
  411MOL0     C56595  11.695  11.197   1.252 -0.3389  0.6308  0.0578
  411MOL0     C56596  11.840  11.234   1.239 -1.1815 -0.1303 -0.7388
  411MOL0     N56597  11.933  11.137   1.297 -0.2067  0.8657 -0.1228
  411MOL0     C56598  11.912  11.074   1.416 -0.3106  0.7301  0.2149
  411MOL0     C56599  12.014  10.978   1.416  0.7714  0.4024  0.8311
  411MOL0     C56600  12.034  10.864   1.516 -0.4187 -0.3495 -0.0441
  411MOL0     C56601  12.004  10.726   1.454 -0.4696 -0.0589 -0.3306
  411MOL0     C56602  12.002  10.612   1.547 -0.1227  0.2927 -0.5998
  411MOL0     C56603  11.885  10.593   1.639 -0.7971 -0.1492 -0.7175
  411MOL0     O56604  11.874  10.446   1.665 -0.3680  0.7479  0.2162
  411MOL0     C56605  11.977  10.380   1.734 -0.0894 -0.3331  0.0128
  411MOL0     C56606  12.044  10.423   1.854  0.5506  0.3615  0.4825
  411MOL0     C56607  12.150  10.352   1.902 -0.6272  1.0463 -0.1209
  411MOL0     C56608  12.198  10.398   2.035  0.2703 -0.0094 -0.6195
  411MOL0     C56609  12.197  10.239   1.841  0.2731 -0.2325  0.4941
  411MOL0     C56610  12.302  10.142   1.897  0.2832  0.0140  0.4870
  411MOL0     O56611  12.402  10.189   1.982 -0.2158 -0.3793  0.1916
  411MOL0     C56612  12.459  10.106   2.078 -0.2954  0.5777  0.2739
  411MOL0     C56613  12.585  10.158   2.127  0.1379  0.1797  0.0097
  411MOL0     C56614  12.652  10.093   2.220  0.1894 -0.1427 -0.3272
  411MOL0     C56615  12.615   9.978   2.273 -0.5855  0.2658 -0.1398
  411MOL0     O56616  12.698   9.915   2.366 -0.1852  0.9165 -0.5031
  411MOL0     C56617  12.645   9.811   2.450  0.5889  0.1197 -0.5817
  411MOL0     C56618  12.565   9.876   2.559 -0.4829 -0.2891 -0.2670
  411MOL0     C56619  12.550   9.790   2.687 -0.5593 -0.7601 -0.7185
  411MOL0     C56620  12.665   9.808   2.786  0.1755 -0.2791  0.6681
  411MOL0     C56621  12.649   9.732   2.907  0.1063  0.0392  0.4099
  411MOL0     C56622  12.764   9.744   3.006  0.3885  0.0455  0.2213
  411MOL0     C56623  12.722   9.660   3.128 -0.7537  0.1436  0.1378
  411MOL0     C56624  12.830   9.647   3.238 -0.2179 -0.2126  0.3750
  411MOL0    Cl56625  12.948   9.522   3.172 -0.4505 -0.1773 -0.5306
  411MOL0     C56626  12.496   9.917   2.224  0.1422 -0.3073 -0.5401
  411MOL0     C56627  12.419   9.982   2.126 -0.1619 -0.5865 -0.2262
  411MOL0     O56628  12.292  10.023   1.857  0.2228  0.4058 -0.3887
  411MOL0     C56629  12.129  10.198   1.725 -0.2365 -0.4154  0.0787
  411MOL0     C56630  12.021  10.267   1.671 -0.2457 -0.0522 -0.3364
  411MOL0     N56631  12.084  10.985   1.300 -0.8285 -0.5576  0.2837
  411MOL0     N56632  12.036  11.086   1.221 -0.1850 -0.9792 -0.2547
  411MOL0     C56633  10.887  11.009   1.646  0.2465 -0.2978 -0.3247
  411MOL0     C56634  10.773  10.954   1.707 -0.0759 -0.4389 -0.4356
  411MOL0     C56635  10.364  10.953   1.926 -0.1221  0.2181 -0.0984
  411MOL0     C56636  10.396  10.853   2.017 -0.4289  0.6404 -0.9803
  411MOL0     C56637  10.298  10.769   2.081  0.2597  0.4989  0.2567
  411MOL0     C56638  10.163  10.783   2.039  0.3949 -1.4913  0.1214
  411MOL0     O56639  10.063  10.701   2.082  0.2106 -0.6639 -0.2733
  411MOL0     C56640  10.100  10.587   2.151 -0.6454 -0.0480  0.4626
  411MOL0     C56641   9.979  10.487   2.163 -0.0904 -0.0515  0.0651
  411MOL0     C56642   9.927  10.433   2.029  0.5428 -0.7755 -0.4260
  411MOL0     C56643   9.822  10.326   2.054  0.1396 -0.2348  0.4362
  411MOL0     C56644   9.885  10.193   2.073  0.1777 -0.0032  0.1962
  411MOL0     C56645   9.945  10.093   2.099  0.3325 -0.5590 -0.6225
  411MOL0     C56646  10.131  10.893   1.962 -0.5995  1.7385  0.5903
  411MOL0     C56647  10.222  10.973   1.901 -0.7288 -0.2911 -0.2797
  411MOL0     C56648  10.161  11.094   1.821 -0.2303 -0.3028 -0.3024
  411MOL0     H56649  10.700  11.209   1.923 -1.6830 -1.1873  0.0857
  411MOL0     H56650  10.898  11.295   1.819  3.6863 -1.8308  0.9630
  411MOL0     H56651  11.022  11.147   1.444  2.6702  0.6084 -1.6224
  411MOL0     H56652  11.147  11.065   1.548  2.4658  0.1899 -2.1829
  411MOL0     H56653  11.165  11.356   1.458  0.2205  1.1993  2.7804
  411MOL0     H56654  11.264  11.281   1.586  0.3217 -0.7245  0.9998
  411MOL0     H56655  11.323  11.105   1.403 -1.4075 -0.2959  0.3009
  411MOL0     H56656  11.228  11.206   1.284 -1.3248  0.7192  1.3378
  411MOL0     H56657  11.382  11.397   1.345  1.7361  0.4703 -2.0388
  411MOL0     H56658  11.479  11.283   1.436  0.7792 -1.8890 -0.7781
  411MOL0     H56659  11.390  11.279   1.140  0.2427  0.5307 -0.4634
  411MOL0     H56660  11.466  11.135   1.192 -0.9456 -0.0576 -1.3461
  411MOL0     H56661  11.621  11.322   1.090  1.4393 -2.4276 -0.7243
  411MOL0     H56662  11.616  11.395   1.254  0.8949 -0.2293 -0.4657
  411MOL0     H56663  11.677  11.104   1.197  0.7372  2.0726 -2.9881
  411MOL0     H56664  11.672  11.186   1.358  0.5069  0.7060  0.2496
  411MOL0     H56665  11.854  11.239   1.130 -1.3070 -1.0618 -0.8092
  411MOL0     H56666  11.871  11.324   1.292 -3.7165 -1.8931  4.3240
  411MOL0     H56667  11.833  11.066   1.490  0.8798  1.2306  1.5922
  411MOL0     H56668  11.987  10.887   1.611 -1.7347  0.5150 -0.8743
  411MOL0     H56669  12.143  10.857   1.525 -0.1406 -0.0398 -2.4138
  411MOL0     H56670  11.903  10.719   1.414 -0.1630 -2.5987 -0.8553
  411MOL0     H56671  12.072  10.702   1.372  0.0780 -0.8916  0.3483
  411MOL0     H56672  12.014  10.521   1.488  0.0706 -0.8011  1.0514
  411MOL0     H56673  12.090  10.613   1.612  0.2392  0.0744 -1.0840
  411MOL0     H56674  11.909  10.660   1.722 -1.3350 -0.6742 -0.1290
  411MOL0     H56675  11.791  10.627   1.594 -1.1571  0.1410  0.2401
  411MOL0     H56676  12.007  10.508   1.910  0.3468 -0.9348  2.4000
  411MOL0     H56677  12.142  10.489   2.062 -1.1079 -0.1185 -2.8116
  411MOL0     H56678  12.306  10.416   2.032  1.0514 -3.6889  0.7162
  411MOL0     H56679  12.190  10.315   2.106 -1.8321  0.5687 -0.0892
  411MOL0     H56680  12.629  10.246   2.082 -0.5629 -0.5426 -2.2856
  411MOL0     H56681  12.750  10.136   2.237  0.0551 -1.0578  3.8282
  411MOL0     H56682  12.588   9.740   2.389  2.2008 -3.1572  1.4091
  411MOL0     H56683  12.734   9.756   2.484  1.9939  1.5775 -1.7393
  411MOL0     H56684  12.621   9.967   2.582 -1.7257  0.3845  0.1291
  411MOL0     H56685  12.467   9.901   2.518 -1.1528  1.2542  2.0572
  411MOL0     H56686  12.556   9.686   2.654  1.3834  0.0659 -3.3218
  411MOL0     H56687  12.455   9.820   2.732  0.5938 -0.2397  1.4994
  411MOL0     H56688  12.665   9.911   2.823 -1.9031 -0.9229  2.6314
  411MOL0     H56689  12.764   9.793   2.741 -1.6026 -1.6407 -3.2202
  411MOL0     H56690  12.563   9.757   2.969  1.4742  0.0318  2.3861
  411MOL0     H56691  12.644   9.626   2.879  2.6608 -0.2009  0.6492
  411MOL0     H56692  12.776   9.846   3.044 -1.1068  1.4708 -2.7233
  411MOL0     H56693  12.852   9.711   2.952  1.3052  0.9023  1.1471
  411MOL0     H56694  12.691   9.560   3.097  0.9618 -1.5486  3.3390
  411MOL0     H56695  12.638   9.704   3.182  1.2716  2.4067  1.6584
  411MOL0     H56696  12.792   9.609   3.333 -0.5441  2.6098  1.4623
  411MOL0     H56697  12.885   9.741   3.252 -2.5199  1.4566 -1.1119
  411MOL0     H56698  12.453   9.823   2.258 -1.9833  0.9773  0.5221
  411MOL0     H56699  12.327   9.933   2.095 -0.7131  0.5054 -0.3519
  411MOL0     H56700  12.166  10.114   1.668  0.5957  0.8798 -1.3541
  411MOL0     H56701  11.965  10.245   1.580 -2.9253  3.1876  0.3680
  411MOL0     H56702  10.939  10.946   1.574  0.5241 -2.1654  1.4101
  411MOL0     H56703  10.759  10.848   1.692  3.4334 -2.1074  5.0368
  411MOL0     H56704  10.500  10.835   2.043 -0.3904 -2.6268 -2.7933
  411MOL0     H56705  10.328  10.691   2.151  1.4400  1.4442  0.8611
  411MOL0     H56706  10.179  10.532   2.098  1.3257  1.9216  1.1680
  411MOL0     H56707  10.137  10.619   2.249 -1.5063 -1.4472  1.2821
  411MOL0     H56708   9.899  10.526   2.227 -2.4150  0.3982 -2.9135
  411MOL0     H56709  10.014  10.402   2.222 -0.2834  0.9737  1.7259
  411MOL0     H56710   9.887  10.519   1.975  1.3798 -0.6030 -0.7900
  411MOL0     H56711  10.011  10.389   1.974  0.5126 -0.1342 -0.9978
  411MOL0     H56712   9.746  10.307   1.978 -1.4861 -1.1298  2.1775
  411MOL0     H56713   9.759  10.341   2.142 -1.7389 -0.8889 -0.7309
  411MOL0     H56714   9.992   9.998   2.111  2.0540  0.1884 -1.0324
  411MOL0     H56715  10.026  10.907   1.938 -0.7335 -2.0860 -1.8892
  411MOL0     H56716  10.053  11.098   1.808 -0.2404  0.8282  0.0367
  411MOL0     H56717  10.168  11.176   1.893  2.5558  0.5268 -1.3622
  411MOL0     H56718  10.218  11.118   1.731 -2.5537  2.4072 -1.1613
  412MOL0     O56719   0.295   4.661   5.408  0.4299 -0.0583 -1.2342
  412MOL0     C56720   0.412   4.656   5.459  0.3449 -0.2546  0.2890
  412MOL0     O56721   0.503   4.554   5.443 -0.6385  0.4957 -0.5305
  412MOL0     C56722   0.453   4.432   5.415 -0.2187  0.0880 -1.1749
  412MOL0     C56723   0.404   4.405   5.282  0.4004  0.2981 -0.1344
  412MOL0     C56724   0.359   4.277   5.249 -0.4014  1.1493  0.0489
  412MOL0     C56725   0.364   4.178   5.348  0.1017  0.0650  0.3838
  412MOL0     O56726   0.323   4.046   5.302 -0.1708  0.0650 -0.2493
  412MOL0     C56727   0.272   3.945   5.389  0.9765  1.0843 -0.0578
  412MOL0     C56728   0.267   3.816   5.305 -0.3160  0.4480 -0.1617
  412MOL0     C56729   0.166   3.803   5.191 -0.7568  0.3459 -1.0869
  412MOL0     C56730   0.185   3.668   5.107 -0.4864  0.1402  0.0722
  412MOL0     C56731   0.056   3.627   5.035 -0.4578  0.6890  0.3412
  412MOL0     C56732   0.052   3.488   4.963 -1.1833 -0.0477 -0.0949
  412MOL0     C56733   0.192   3.451   4.904  0.2719 -0.6722  0.6109
  412MOL0     C56734   0.218   3.530   4.776  0.4878 -0.4678  0.4107
  412MOL0     N56735   0.338   3.490   4.705 -0.3581  0.0114  0.0137
  412MOL0     C56736   0.346   3.474   4.567  0.9360  0.4948 -0.7338
  412MOL0     C56737   0.474   3.448   4.535  0.3747  0.2756  1.0592
  412MOL0     C56738   0.512   3.383   4.399 -0.3759 -0.1629  0.6694
  412MOL0     C56739   0.468   3.231   4.374 -0.5455 -0.4573  0.1039
  412MOL0     C56740   0.485   3.188   4.220 -0.4777  0.1486  0.3476
  412MOL0     C56741   0.384   3.235   4.113 -0.9838  0.0195 -1.3293
  412MOL0     O56742   0.282   3.119   4.109  0.2228 -0.4008 -0.2616
  412MOL0     C56743   0.220   3.109   3.989 -0.4989 -0.3841 -0.7014
  412MOL0     C56744   0.146   3.212   3.934 -0.5045 -0.4270 -0.6856
  412MOL0     C56745   0.087   3.213   3.810  0.1403 -0.7827  0.2202
  412MOL0     C56746   0.016   3.336   3.758  0.2825  0.9327  0.0040
  412MOL0     C56747   0.106   3.097   3.732 -0.1684  0.2844 -0.1865
  412MOL0     C56748   0.047   3.076   3.588 -0.3305 -0.1922 -0.4165
  412MOL0     O56749   0.038   2.948   3.540  0.1884 -0.1728  0.1875
  412MOL0     C56750   0.035   2.933   3.405 -0.5024 -0.3847  0.9342
  412MOL0     C56751   0.130   2.982   3.311 -0.7673 -0.6432  0.1861
  412MOL0     C56752   0.113   2.959   3.174 -0.3598 -0.0271  0.5257
  412MOL0     C56753   0.016   2.876   3.128 -0.0100 -0.2032  0.6403
  412MOL0     O56754   0.007   2.842   2.994 -0.5594  0.0160 -0.1397
  412MOL0     C56755  -0.107   2.787   2.941  0.4561 -0.2223  0.0398
  412MOL0     C56756  -0.107   2.813   2.793 -0.2924 -0.1839  0.1019
  412MOL0     C56757  -0.205   2.706   2.713  0.0071 -0.1646  0.3611
  412MOL0     C56758  -0.352   2.756   2.725 -0.0260  0.2987  0.3035
  412MOL0     C56759  -0.453   2.683   2.630 -1.0873  0.2204  0.3704
  412MOL0     C56760  -0.598   2.694   2.678  0.6370 -0.5946  0.6079
  412MOL0     C56761  -0.693   2.593   2.614  0.6005  0.3134 -0.0697
  412MOL0     C56762  -0.837   2.602   2.659  0.4810  0.7953  0.2047
  412MOL0    Cl56763  -0.941   2.470   2.606 -0.0583  1.0198  0.2083
  412MOL0     C56764  -0.069   2.822   3.221 -0.0427  0.0268  0.1004
  412MOL0     C56765  -0.065   2.850   3.357 -0.3004 -0.2368 -0.3295
  412MOL0     O56766   0.027   3.174   3.519 -0.3810  0.3068  0.4878
  412MOL0     C56767   0.177   2.983   3.785 -0.8378 -0.8548 -0.5255
  412MOL0     C56768   0.239   2.995   3.913 -0.4645 -1.0679 -0.1748
  412MOL0     N56769   0.539   3.450   4.663  0.1023  1.0369  0.8854
  412MOL0     N56770   0.464   3.491   4.761 -0.1006  0.4593 -0.0777
  412MOL0     C56771   0.409   4.203   5.485 -0.5940  0.0475  0.4675
  412MOL0     C56772   0.456   4.329   5.516 -0.6679 -0.1659  0.8242
  412MOL0     C56773   0.467   4.777   5.519 -0.5766 -0.3684  0.0168
  412MOL0     C56774   0.581   4.763   5.606 -0.4452 -0.2608  0.6653
  412MOL0     C56775   0.624   4.867   5.694 -0.3685 -0.0278  0.3933
  412MOL0     C56776   0.564   4.997   5.683 -0.4812 -1.0360  0.0581
  412MOL0     O56777   0.596   5.105   5.766 -0.3098  0.1617 -0.1519
  412MOL0     C56778   0.726   5.097   5.824 -0.9164 -0.3829 -0.1046
  412MOL0     C56779   0.784   5.236   5.861 -0.5368 -0.6612  0.3021
  412MOL0     C56780   0.758   5.331   5.741 -0.2414 -0.3754  0.4850
  412MOL0     C56781   0.850   5.455   5.767 -0.2720 -0.1964 -0.1459
  412MOL0     C56782   0.847   5.525   5.637 -0.2762  0.3037 -0.6949
  412MOL0     C56783   0.864   5.576   5.531 -0.3120 -0.4439  0.2913
  412MOL0     C56784   0.463   5.016   5.588  0.3202  1.1038 -0.4943
  412MOL0     C56785   0.417   4.907   5.509 -0.4523  1.2439 -0.2641
  412MOL0     C56786   0.318   4.955   5.411  0.4549 -0.6418  0.2375
  412MOL0     H56787   0.395   4.489   5.214  2.8709 -0.3527 -1.4025
  412MOL0     H56788   0.329   4.255   5.147  3.2778 -4.3143 -0.3061
  412MOL0     H56789   0.175   3.994   5.401  0.3764  0.1733 -1.0105
  412MOL0     H56790   0.319   3.926   5.486  0.3679  1.5519  0.3462
  412MOL0     H56791   0.365   3.798   5.260 -0.2959  1.1947 -0.4214
  412MOL0     H56792   0.243   3.732   5.372 -1.2219 -0.6096 -1.7321
  412MOL0     H56793   0.069   3.808   5.239  0.1607 -0.0299  0.9079
  412MOL0     H56794   0.159   3.888   5.123 -1.8892  0.5677 -0.7072
  412MOL0     H56795   0.265   3.687   5.035 -0.3341  2.4515  0.7680
  412MOL0     H56796   0.205   3.588   5.179 -2.7508 -1.5090 -1.0224
  412MOL0     H56797   0.035   3.705   4.962 -3.1601  1.4866  1.8267
  412MOL0     H56798  -0.023   3.636   5.110  0.9128 -0.7449  2.0645
  412MOL0     H56799   0.026   3.410   5.035  0.9597 -0.2039  0.5932
  412MOL0     H56800  -0.017   3.493   4.878  0.0763 -0.3314 -1.1661
  412MOL0     H56801   0.192   3.343   4.887 -0.0644 -0.7808  1.2455
  412MOL0     H56802   0.272   3.461   4.978  0.1401 -4.8542  1.5707
  412MOL0     H56803   0.136   3.499   4.710 -0.1260 -0.7295  1.2761
  412MOL0     H56804   0.228   3.638   4.787  3.2348 -0.9081  4.2400
  412MOL0     H56805   0.263   3.456   4.500 -0.2732 -1.3894  1.1396
  412MOL0     H56806   0.619   3.402   4.384 -0.2123  1.5480  3.3705
  412MOL0     H56807   0.472   3.442   4.315  0.0122  1.3461  1.5131
  412MOL0     H56808   0.530   3.166   4.436  0.9929 -0.5506 -1.4584
  412MOL0     H56809   0.362   3.237   4.402 -1.3964  0.8868 -2.8866
  412MOL0     H56810   0.581   3.227   4.183  0.2794 -0.8077  1.2568
  412MOL0     H56811   0.497   3.080   4.215  0.6154  0.1129  2.3395
  412MOL0     H56812   0.339   3.330   4.142 -2.2639 -0.5832 -1.2607
  412MOL0     H56813   0.430   3.252   4.016 -1.6316 -0.2221 -1.6883
  412MOL0     H56814   0.133   3.304   3.992 -3.3883 -1.0410 -0.1849
  412MOL0     H56815   0.089   3.389   3.696  2.2517 -0.4081  1.0925
  412MOL0     H56816  -0.017   3.402   3.839 -0.3429  2.9617 -1.8034
  412MOL0     H56817  -0.076   3.311   3.705 -0.0383 -1.3404  1.5111
  412MOL0     H56818   0.210   3.050   3.341  1.0209 -2.0941 -1.0327
  412MOL0     H56819   0.173   3.007   3.097 -3.3799  0.8079 -1.5047
  412MOL0     H56820  -0.117   2.679   2.954 -2.0356 -0.4026 -2.4003
  412MOL0     H56821  -0.193   2.837   2.988 -0.3369 -2.2072  0.8293
  412MOL0     H56822  -0.138   2.915   2.770 -1.5569 -0.7357 -0.7183
  412MOL0     H56823  -0.004   2.800   2.758  0.9528 -0.7766  3.4990
  412MOL0     H56824  -0.198   2.598   2.723 -1.5026 -0.6706 -2.6933
  412MOL0     H56825  -0.184   2.715   2.606 -2.6019 -1.5317 -0.3683
  412MOL0     H56826  -0.369   2.864   2.717 -0.2981  0.3981  1.7813
  412MOL0     H56827  -0.382   2.728   2.827 -0.2849  1.5845  0.6047
  412MOL0     H56828  -0.460   2.750   2.544 -3.7633  1.9158  1.7668
  412MOL0     H56829  -0.424   2.578   2.618 -2.3329 -0.2400  1.1904
  412MOL0     H56830  -0.626   2.795   2.649 -2.0636 -1.5580 -0.4969
  412MOL0     H56831  -0.614   2.683   2.786 -0.3871  2.6892  0.8811
  412MOL0     H56832  -0.658   2.495   2.646  2.5811  1.3660  1.1396
  412MOL0     H56833  -0.686   2.597   2.505  0.6654 -0.9761 -0.1267
  412MOL0     H56834  -0.876   2.698   2.623  1.2437  0.6076 -1.1804
  412MOL0     H56835  -0.844   2.601   2.768 -2.3055  1.5940  0.1182
  412MOL0     H56836  -0.147   2.750   3.197 -1.4292  1.4698  0.1004
  412MOL0     H56837  -0.125   2.822   3.442  0.1977  0.4356  0.2549
  412MOL0     H56838   0.194   2.895   3.723 -2.6268 -0.8760 -1.0514
  412MOL0     H56839   0.295   2.913   3.958  1.0418  0.2204  0.4201
  412MOL0     H56840   0.419   4.115   5.548 -0.1251 -2.4665 -2.8341
  412MOL0     H56841   0.499   4.349   5.613  1.8169 -2.4870  0.3334
  412MOL0     H56842   0.627   4.666   5.619 -2.4196 -1.0087  2.7134
  412MOL0     H56843   0.711   4.841   5.754  0.5276 -0.3292 -1.0017
  412MOL0     H56844   0.716   5.025   5.906 -0.1372 -2.6706 -1.9107
  412MOL0     H56845   0.793   5.044   5.756 -0.6481 -2.7630  1.8667
  412MOL0     H56846   0.891   5.215   5.866 -0.8826 -2.2249  2.0813
  412MOL0     H56847   0.753   5.271   5.960  3.6980 -0.7288  1.8780
  412MOL0     H56848   0.785   5.279   5.649 -0.5565 -1.4178  0.9637
  412MOL0     H56849   0.652   5.357   5.728  0.6844  2.2677 -3.3771
  412MOL0     H56850   0.948   5.424   5.804  2.5335  3.6701 -3.5063
  412MOL0     H56851   0.804   5.523   5.839 -1.2147  0.7509 -1.5760
  412MOL0     H56852   0.845   5.624   5.437  0.6323  1.1045  0.8566
  412MOL0     H56853   0.420   5.114   5.574  0.2906  1.4714  1.7381
  412MOL0     H56854   0.225   4.984   5.460 -0.9624 -0.6742 -2.2320
  412MOL0     H56855   0.358   5.042   5.358 -1.5212  0.0641 -0.2077
  412MOL0     H56856   0.297   4.889   5.326  1.7635  1.0187 -1.4798
  413MOL0     O56857   4.176   9.625   2.026 -0.3618  0.2569 -0.3207
  413MOL0     C56858   4.114   9.670   2.119  1.1026 -0.1008 -0.5589
  413MOL0     O56859   4.115   9.811   2.153 -0.3895  0.6969  0.0831
  413MOL0     C56860   4.228   9.874   2.096 -0.6137  0.2600  0.0309
  413MOL0     C56861   4.219   9.947   1.980  0.0413  0.5986 -0.2230
  413MOL0     C56862   4.331  10.015   1.934  0.7450 -0.1519  0.6843
  413MOL0     C56863   4.447  10.012   2.010 -0.0277  0.0470 -0.5105
  413MOL0     O56864   4.563  10.074   1.962  0.4977  1.2068  0.4650
  413MOL0     C56865   4.629  10.168   2.053  0.7386  0.7936 -1.0191
  413MOL0     C56866   4.639  10.301   1.984  0.8024 -0.1393  0.2613
  413MOL0     C56867   4.517  10.392   2.014  0.7306  0.4291 -0.6151
  413MOL0     C56868   4.514  10.527   1.946 -0.4358 -0.1123  0.0939
  413MOL0     C56869   4.368  10.561   1.888 -0.1310  0.8023  0.7458
  413MOL0     C56870   4.330  10.475   1.756  0.4417 -0.6368 -0.3604
  413MOL0     C56871   4.217  10.555   1.693 -0.4599 -0.5285 -1.3249
  413MOL0     C56872   4.183  10.486   1.563  0.2487  0.0565  0.5427
  413MOL0     N56873   4.078  10.564   1.499 -0.7769 -0.7545 -0.1247
  413MOL0     C56874   3.948  10.564   1.551 -0.4983 -0.1236 -0.0592
  413MOL0     C56875   3.879  10.637   1.458  0.1103 -0.6336  0.0795
  413MOL0     C56876   3.730  10.668   1.459  0.9836 -0.2803  0.0414
  413MOL0     C56877   3.649  10.551   1.495 -0.3165 -0.6352 -0.4595
  413MOL0     C56878   3.562  10.506   1.370  0.1265 -0.6992 -0.2941
  413MOL0     C56879   3.466  10.396   1.406  0.5821 -0.3685  0.4393
  413MOL0     O56880   3.374  10.400   1.301  0.3617 -0.1308  0.0819
  413MOL0     C56881   3.246  10.366   1.324 -0.0406  0.2389  0.3240
  413MOL0     C56882   3.152  10.401   1.232  0.5602  0.0140  0.0773
  413MOL0     C56883   3.024  10.337   1.242 -0.7413 -0.1731  0.8641
  413MOL0     C56884   2.923  10.388   1.147  0.0972  0.2938 -0.1704
  413MOL0     C56885   2.990  10.271   1.361  0.7835  0.3628  0.5041
  413MOL0     C56886   2.849  10.241   1.398 -0.0724  0.9277  0.5881
  413MOL0     O56887   2.836  10.167   1.514 -0.1294 -0.3093 -0.4724
  413MOL0     C56888   2.717  10.102   1.549  0.2518 -0.4756 -0.4843
  413MOL0     C56889   2.698  10.082   1.683 -0.4176 -0.6423 -0.4939
  413MOL0     C56890   2.579  10.051   1.737  0.0308  0.0984  0.4592
  413MOL0     C56891   2.471  10.009   1.655 -0.0670 -0.3301  0.2689
  413MOL0     O56892   2.353   9.977   1.722  0.3519 -1.0896 -0.7497
  413MOL0     C56893   2.232   9.986   1.656  0.6966 -0.4661 -0.5271
  413MOL0     C56894   2.131   9.966   1.760  0.3831 -0.2587  0.2200
  413MOL0     C56895   2.129   9.814   1.815  0.5719 -0.3980  0.1971
  413MOL0     C56896   2.227   9.796   1.932  0.5582  0.7530  0.1498
  413MOL0     C56897   2.235   9.656   1.987  0.5416  0.8818  0.1860
  413MOL0     C56898   2.310   9.566   1.881 -0.2952  0.6505 -0.1503
  413MOL0     C56899   2.426   9.635   1.811 -0.7543  0.0652  0.5534
  413MOL0     C56900   2.486   9.527   1.725 -0.0754 -0.1487 -0.5992
  413MOL0    Cl56901   2.595   9.581   1.601  0.4106 -0.0896 -0.6704
  413MOL0     C56902   2.494   9.997   1.521  0.3275 -0.5789  0.0636
  413MOL0     C56903   2.614  10.048   1.471 -0.2908 -0.0333  1.0309
  413MOL0     O56904   2.754  10.262   1.323  0.5464  1.2972 -0.1711
  413MOL0     C56905   3.088  10.226   1.448  1.1356 -0.5952 -0.7344
  413MOL0     C56906   3.216  10.267   1.427  0.2411 -0.5279  0.0565
  413MOL0     N56907   3.967  10.684   1.355 -0.2286 -0.9089 -0.6535
  413MOL0     N56908   4.089  10.641   1.387 -0.0851 -1.1756 -0.1949
  413MOL0     C56909   4.459   9.942   2.134  0.3973  0.6400 -0.2412
  413MOL0     C56910   4.348   9.867   2.173 -0.7189  1.1185  0.0008
  413MOL0     C56911   4.034   9.579   2.203  0.1843 -0.9054 -0.6052
  413MOL0     C56912   4.004   9.627   2.336  0.4814  0.2642  0.3546
  413MOL0     C56913   3.934   9.546   2.425 -0.5866  0.7617 -0.5099
  413MOL0     C56914   3.905   9.415   2.391 -0.3431  0.8061  0.3067
  413MOL0     O56915   3.843   9.333   2.481 -1.2874  0.2855  0.6133
  413MOL0     C56916   3.879   9.310   2.612  0.1336 -0.0698  0.3669
  413MOL0     C56917   3.988   9.207   2.627 -0.0809  1.1919  0.9468
  413MOL0     C56918   3.944   9.072   2.563 -0.4338  0.1003  0.1832
  413MOL0     C56919   3.825   9.002   2.626 -0.5918  0.3692 -0.4525
  413MOL0     C56920   3.811   8.858   2.571  0.3441 -0.4201 -0.5154
  413MOL0     C56921   3.802   8.745   2.529 -0.2511 -0.3606 -0.6349
  413MOL0     C56922   3.922   9.368   2.259 -0.3803 -1.0904 -0.8320
  413MOL0     C56923   3.991   9.450   2.168 -0.2414  0.5570  0.0872
  413MOL0     C56924   3.988   9.388   2.024  0.1057  0.1027 -0.6881
  413MOL0     H56925   4.131   9.950   1.917  0.8312  1.6702 -1.3270
  413MOL0     H56926   4.329  10.068   1.839 -1.8879 -1.0449  0.1480
  413MOL0     H56927   4.726  10.118   2.059 -0.1931 -0.9622  0.7368
  413MOL0     H56928   4.579  10.180   2.150 -1.6166 -2.9244 -1.5659
  413MOL0     H56929   4.732  10.352   2.011 -0.0717  1.9714 -0.4749
  413MOL0     H56930   4.650  10.287   1.876 -1.5801 -2.8883  0.2628
  413MOL0     H56931   4.430  10.327   2.002  0.7014  0.5499 -1.0695
  413MOL0     H56932   4.530  10.426   2.117  2.5050  1.5207 -1.1512
  413MOL0     H56933   4.541  10.612   2.008  0.1120  1.7267 -2.4924
  413MOL0     H56934   4.588  10.511   1.867 -0.3309 -0.1382  0.1983
  413MOL0     H56935   4.377  10.669   1.870  1.8206  1.1273  3.2037
  413MOL0     H56936   4.295  10.549   1.968  0.0032  0.5433  0.8283
  413MOL0     H56937   4.419  10.463   1.693  1.1509 -1.9758  0.8441
  413MOL0     H56938   4.289  10.376   1.779  2.0590 -1.2938 -0.1925
  413MOL0     H56939   4.249  10.656   1.667 -0.1279 -0.1000  0.6192
  413MOL0     H56940   4.142  10.559   1.773  0.5605 -0.3989 -0.3499
  413MOL0     H56941   4.269  10.480   1.496 -0.3175 -2.1770 -0.0602
  413MOL0     H56942   4.142  10.387   1.583 -2.4137  1.0874  0.6437
  413MOL0     H56943   3.910  10.517   1.642 -2.9527  3.5098  1.0108
  413MOL0     H56944   3.693  10.698   1.360 -0.1635  0.1253  0.5790
  413MOL0     H56945   3.705  10.745   1.532 -2.7135 -1.3993  0.1483
  413MOL0     H56946   3.703  10.469   1.543 -0.1850 -0.4033 -0.2131
  413MOL0     H56947   3.578  10.575   1.574 -0.0782  0.8297 -0.6714
  413MOL0     H56948   3.500  10.589   1.334 -0.4383 -0.2383  1.5816
  413MOL0     H56949   3.621  10.465   1.287  1.0208  0.1948 -0.1201
  413MOL0     H56950   3.507  10.296   1.420  0.7861 -0.5395 -1.1697
  413MOL0     H56951   3.419  10.415   1.503 -0.4577 -5.6493  1.2678
  413MOL0     H56952   3.167  10.473   1.152 -2.8813 -0.4625 -1.1822
  413MOL0     H56953   2.867  10.468   1.196  0.6090 -0.0513  1.0129
  413MOL0     H56954   2.853  10.308   1.118  2.0495 -2.4851  2.2965
  413MOL0     H56955   2.968  10.432   1.058 -1.2806 -0.7748 -1.4595
  413MOL0     H56956   2.769  10.136   1.744 -1.4801 -2.2227  2.3284
  413MOL0     H56957   2.560  10.065   1.843 -1.4010  1.5041  0.0681
  413MOL0     H56958   2.225  10.082   1.604  3.3712 -0.8246 -1.7237
  413MOL0     H56959   2.225   9.913   1.576 -0.3917 -1.2063  0.2204
  413MOL0     H56960   2.151  10.023   1.851  0.8504 -0.3062  0.1486
  413MOL0     H56961   2.033  10.000   1.727  1.1234  2.3729  0.5181
  413MOL0     H56962   2.155   9.744   1.734 -0.1409 -2.0273  1.3344
  413MOL0     H56963   2.029   9.783   1.844  0.2179 -2.6541 -2.8460
  413MOL0     H56964   2.184   9.865   2.005 -1.9127 -0.2462 -0.2583
  413MOL0     H56965   2.325   9.842   1.919  0.7194  0.7490  1.2159
  413MOL0     H56966   2.297   9.662   2.077  0.8033  1.0884 -0.0064
  413MOL0     H56967   2.144   9.601   2.013  1.1450 -0.6250 -0.7453
  413MOL0     H56968   2.231   9.521   1.820 -1.1162  0.5052  0.9790
  413MOL0     H56969   2.364   9.487   1.933 -1.9039  0.9268  2.0893
  413MOL0     H56970   2.498   9.681   1.880  0.1745  0.5196 -0.6914
  413MOL0     H56971   2.396   9.720   1.749 -1.9938  0.5777  1.7857
  413MOL0     H56972   2.405   9.477   1.670  0.6113 -0.9580 -0.8974
  413MOL0     H56973   2.534   9.453   1.790 -2.0584 -0.0284  1.0856
  413MOL0     H56974   2.431   9.949   1.447  0.6101 -1.0082  0.0949
  413MOL0     H56975   2.631  10.053   1.364  1.8959  1.1445  1.3594
  413MOL0     H56976   3.065  10.160   1.531 -0.8967  0.7302 -0.1824
  413MOL0     H56977   3.289  10.229   1.498 -1.0616 -2.2602  0.5260
  413MOL0     H56978   4.547   9.943   2.197  0.2905 -1.7710  0.0512
  413MOL0     H56979   4.347   9.818   2.269 -1.7243  2.2075  0.5648
  413MOL0     H56980   4.044   9.725   2.360 -0.5461  1.0369 -1.0103
  413MOL0     H56981   3.903   9.574   2.525 -3.1713 -3.2892  0.0357
  413MOL0     H56982   3.909   9.409   2.648 -0.8721 -0.6473  3.0557
  413MOL0     H56983   3.783   9.294   2.661 -0.2959 -1.1369 -0.8002
  413MOL0     H56984   4.007   9.187   2.732  2.9061 -2.2113 -0.0657
  413MOL0     H56985   4.083   9.242   2.586 -0.9656  1.4670 -1.0006
  413MOL0     H56986   3.907   9.088   2.461 -0.7624  0.1227  0.3066
  413MOL0     H56987   4.040   9.018   2.567 -0.1703  0.5207 -0.2709
  413MOL0     H56988   3.744   9.072   2.611  2.0492  4.3520  1.8667
  413MOL0     H56989   3.847   9.003   2.734  2.0088  0.9692 -0.9221
  413MOL0     H56990   3.794   8.649   2.484 -1.8465 -1.5615  1.9679
  413MOL0     H56991   3.905   9.264   2.232  1.0202 -1.7616  0.6674
  413MOL0     H56992   4.042   9.447   1.949  1.9768 -0.6738 -0.0132
  413MOL0     H56993   4.040   9.293   2.033 -0.4265  0.0164  2.8754
  413MOL0     H56994   3.888   9.364   1.988  0.3358  2.4246 -3.2254
  414MOL0     O56995   1.845   4.547   9.950  0.1433 -1.1451  0.1104
  414MOL0     C56996   1.892   4.543  10.070  1.1997  0.2045  0.5877
  414MOL0     O56997   1.929   4.425  10.133  0.0704  0.3963  0.2208
  414MOL0     C56998   1.937   4.315  10.057 -0.4735 -0.4810 -0.1145
  414MOL0     C56999   2.042   4.290   9.968 -0.0122  1.2011 -0.1900
  414MOL0     C57000   2.053   4.164   9.902 -0.3364 -0.3337 -0.9706
  414MOL0     C57001   1.961   4.063   9.948 -0.0675 -0.2693 -0.6527
  414MOL0     O57002   1.962   3.935   9.899 -0.1366 -0.5675 -0.2057
  414MOL0     C57003   1.994   3.833   9.993  0.1638 -0.2175  0.3124
  414MOL0     C57004   2.062   3.718   9.919 -0.2084 -0.1124 -0.1932
  414MOL0     C57005   2.157   3.627  10.005  0.8908  0.0709 -0.4489
  414MOL0     C57006   2.081   3.511  10.064  0.7114 -0.1047  0.2549
  414MOL0     C57007   2.166   3.432  10.163 -0.0056  0.1150  0.5486
  414MOL0     C57008   2.109   3.281  10.189  0.0206 -0.1528 -0.6398
  414MOL0     C57009   2.229   3.211  10.260  0.2175  0.4617 -0.3405
  414MOL0     C57010   2.182   3.125  10.373  0.3025 -0.3491  0.0417
  414MOL0     N57011   2.275   3.077  10.475  0.4821  0.7410  0.4012
  414MOL0     C57012   2.393   3.137  10.492  0.2844  1.0257 -1.7539
  414MOL0     C57013   2.460   3.065  10.590 -0.3231  0.0525 -0.3687
  414MOL0     C57014   2.592   3.081  10.655 -0.2377 -0.1226  0.4791
  414MOL0     C57015   2.678   2.955  10.683 -0.0163  0.7055  0.8016
  414MOL0     C57016   2.801   2.996  10.759 -0.0073 -0.0461 -0.2319
  414MOL0     C57017   2.902   3.082  10.687 -0.0511  0.7643  0.7366
  414MOL0     O57018   3.030   3.072  10.757 -0.7433  0.5045 -0.5987
  414MOL0     C57019   3.120   3.174  10.738 -0.8514  0.2307  0.3593
  414MOL0     C57020   3.090   3.309  10.702 -0.2978  0.5469 -0.2886
  414MOL0     C57021   3.195   3.408  10.680  0.2219 -1.1728 -0.1943
  414MOL0     C57022   3.140   3.538  10.622 -0.9175  0.1704 -0.0142
  414MOL0     C57023   3.332   3.377  10.688  0.4157 -0.5087  0.0421
  414MOL0     C57024   3.444   3.460  10.632  0.3341  0.4203 -0.5035
  414MOL0     O57025   3.413   3.593  10.624  0.2085 -0.2112 -0.0628
  414MOL0     C57026   3.520   3.668  10.588 -0.3544 -0.6260 -0.0402
  414MOL0     C57027   3.524   3.737  10.464 -0.0229 -0.6266  0.1171
  414MOL0     C57028   3.631   3.811  10.428 -0.7397 -0.1944 -0.7403
  414MOL0     C57029   3.732   3.825  10.520 -0.4225  0.3448 -0.7976
  414MOL0     O57030   3.839   3.908  10.506  0.7336 -0.5323 -0.2636
  414MOL0     C57031   3.904   3.932  10.379  0.2230 -0.1367  1.0203
  414MOL0     C57032   4.035   4.001  10.411 -0.3587  0.0247  0.3765
  414MOL0     C57033   4.054   4.139  10.350 -1.1853 -1.1339  0.5156
  414MOL0     C57034   4.191   4.208  10.397  0.4367  0.3575  0.6818
  414MOL0     C57035   4.190   4.355  10.357 -0.9664  0.7661  0.0593
  414MOL0     C57036   4.137   4.380  10.212  0.2122 -0.7123 -0.5509
  414MOL0     C57037   4.235   4.321  10.102  0.1164  0.6709 -0.3469
  414MOL0     C57038   4.195   4.361   9.960 -0.1258  0.0381 -0.1544
  414MOL0    Cl57039   4.053   4.251   9.915  0.1171  0.2295 -0.0997
  414MOL0     C57040   3.724   3.770  10.647  0.2219 -0.1818 -0.0797
  414MOL0     C57041   3.614   3.697  10.686 -0.0159  0.1159  0.3616
  414MOL0     O57042   3.550   3.402  10.602 -0.3424  0.2172 -0.3256
  414MOL0     C57043   3.362   3.247  10.722  0.3632  0.6828  0.0730
  414MOL0     C57044   3.258   3.151  10.756  0.1991 -1.0740  0.6866
  414MOL0     N57045   2.374   2.960  10.625 -1.0338 -0.2123  0.6915
  414MOL0     N57046   2.266   2.972  10.562  0.7128 -0.1846 -0.3770
  414MOL0     C57047   1.851   4.085  10.032  0.3589 -0.7770 -0.4725
  414MOL0     C57048   1.840   4.215  10.089 -0.1114  0.5257  1.3259
  414MOL0     C57049   1.894   4.661  10.157 -0.5047  0.2775  0.0290
  414MOL0     C57050   1.979   4.655  10.278 -0.1812  0.1554 -0.2548
  414MOL0     C57051   2.003   4.767  10.361 -0.4934  0.7153 -0.3665
  414MOL0     C57052   1.937   4.888  10.333  0.0615  0.3823 -0.3501
  414MOL0     O57053   1.946   4.999  10.409 -0.2092  0.0853  1.0366
  414MOL0     C57054   2.010   5.000  10.539 -0.3802  0.6310  0.1398
  414MOL0     C57055   1.981   5.142  10.597  0.2992 -0.1968 -0.0181
  414MOL0     C57056   2.096   5.246  10.570  0.5659  0.1784  0.8506
  414MOL0     C57057   2.075   5.381  10.634  0.6297 -0.4672  0.7221
  414MOL0     C57058   2.115   5.366  10.775 -0.4083 -0.2881  0.0990
  414MOL0     C57059   2.146   5.350  10.893  0.6114 -1.2954 -0.3412
  414MOL0     C57060   1.857   4.898  10.226 -0.0995  0.0571  0.3813
  414MOL0     C57061   1.834   4.788  10.138  0.1608  0.9041  0.0257
  414MOL0     C57062   1.738   4.817  10.025 -0.9529  0.4778 -0.6347
  414MOL0     H57063   2.115   4.368   9.945  1.2438 -0.2140 -1.2061
  414MOL0     H57064   2.134   4.152   9.831 -0.2555  1.9661 -1.3394
  414MOL0     H57065   1.909   3.798  10.052  0.3701  0.2669  0.9065
  414MOL0     H57066   2.064   3.865  10.072  2.4852 -2.1415 -0.8196
  414MOL0     H57067   1.987   3.666   9.857 -1.8950  3.1539 -1.0908
  414MOL0     H57068   2.140   3.761   9.856 -0.5332  2.6449  1.1699
  414MOL0     H57069   2.214   3.577   9.926 -3.0837 -3.5328 -1.3707
  414MOL0     H57070   2.206   3.698  10.072  1.3176 -2.0936  1.6147
  414MOL0     H57071   1.989   3.538  10.116 -1.4112 -3.2420 -1.4762
  414MOL0     H57072   2.046   3.454   9.977 -0.9608  0.7401  0.3409
  414MOL0     H57073   2.160   3.481  10.261  0.0469 -0.4646  0.8452
  414MOL0     H57074   2.266   3.421  10.120 -0.7075  0.8878 -1.4328
  414MOL0     H57075   2.014   3.260  10.239  0.8319  0.6040  1.3046
  414MOL0     H57076   2.084   3.227  10.097 -3.0273  0.4198 -0.2641
  414MOL0     H57077   2.294   3.290  10.300 -2.1301  2.4834 -0.2861
  414MOL0     H57078   2.281   3.145  10.190  1.5900 -1.3043  2.1735
  414MOL0     H57079   2.125   3.188  10.441  0.7649  0.1741 -0.0523
  414MOL0     H57080   2.123   3.047  10.324 -0.5735  1.4651 -1.9619
  414MOL0     H57081   2.445   3.222  10.449  0.9239  1.2524 -0.5765
  414MOL0     H57082   2.567   3.133  10.748  2.1545  1.7775  0.1451
  414MOL0     H57083   2.651   3.151  10.596 -0.6116 -0.4000 -0.2378
  414MOL0     H57084   2.611   2.886  10.734  0.7529 -1.1174 -0.5544
  414MOL0     H57085   2.713   2.910  10.590 -0.3298  0.9527  0.5608
  414MOL0     H57086   2.770   3.062  10.841  2.7177  4.1987 -2.2722
  414MOL0     H57087   2.849   2.907  10.799  1.9607  0.5945 -1.0350
  414MOL0     H57088   2.908   3.041  10.586 -2.1424  1.0190  0.4640
  414MOL0     H57089   2.861   3.183  10.676 -1.3409  0.2310  0.4804
  414MOL0     H57090   2.984   3.332  10.688 -1.9281 -4.2195  1.9677
  414MOL0     H57091   3.186   3.617  10.682 -0.3315  1.7213 -2.3804
  414MOL0     H57092   3.033   3.560  10.635 -1.0781  1.5171 -2.8525
  414MOL0     H57093   3.182   3.555  10.522  3.2214  0.5839  1.6086
  414MOL0     H57094   3.443   3.732  10.392  1.0721  3.2896 -1.6881
  414MOL0     H57095   3.644   3.859  10.332  2.2334 -0.1278 -0.3963
  414MOL0     H57096   3.926   3.836  10.331 -0.8611 -1.8103  3.6591
  414MOL0     H57097   3.847   3.993  10.309 -0.1323  1.6726  2.7925
  414MOL0     H57098   4.039   4.012  10.519  2.4973 -0.6966  0.4302
  414MOL0     H57099   4.115   3.933  10.381  0.2117  1.5670 -1.8895
  414MOL0     H57100   3.971   4.206  10.375 -1.1765 -1.2154  0.7731
  414MOL0     H57101   4.058   4.127  10.242  1.8497 -2.2738  0.6570
  414MOL0     H57102   4.274   4.161  10.343 -0.1052  2.0062 -1.7068
  414MOL0     H57103   4.187   4.195  10.506 -3.9869  1.9917  0.8861
  414MOL0     H57104   4.128   4.408  10.429  1.1065  2.2940  0.7975
  414MOL0     H57105   4.291   4.394  10.369  0.1092 -1.2258 -1.7442
  414MOL0     H57106   4.121   4.488  10.207 -1.2077 -0.9354 -1.2329
  414MOL0     H57107   4.033   4.348  10.201 -0.5906  1.0093  1.4075
  414MOL0     H57108   4.255   4.214  10.102 -1.0967  0.4235  0.0329
  414MOL0     H57109   4.331   4.370  10.120  0.8926 -0.3685 -1.5987
  414MOL0     H57110   4.281   4.357   9.891  1.1167  2.4435  1.1029
  414MOL0     H57111   4.158   4.464   9.964 -1.0335 -0.2970  0.0769
  414MOL0     H57112   3.811   3.786  10.709 -1.1776  2.9141  1.2779
  414MOL0     H57113   3.603   3.647  10.781 -0.7134 -1.3178 -0.4293
  414MOL0     H57114   3.465   3.213  10.730 -0.0082 -1.2128 -2.1537
  414MOL0     H57115   3.283   3.046  10.764  1.1277 -1.1061 -1.7047
  414MOL0     H57116   1.791   4.008  10.078  0.2157  0.1079  0.8869
  414MOL0     H57117   1.754   4.221  10.155 -1.4241 -2.5225  0.0493
  414MOL0     H57118   2.032   4.565  10.307 -1.3967 -0.3115  0.6495
  414MOL0     H57119   2.077   4.750  10.439  0.3769 -1.4101 -1.5598
  414MOL0     H57120   1.974   4.926  10.612  1.5426 -0.3191  0.1880
  414MOL0     H57121   2.118   4.987  10.539 -0.3087  1.1408  1.2013
  414MOL0     H57122   1.974   5.135  10.706 -2.1207 -0.7075 -0.1745
  414MOL0     H57123   1.881   5.172  10.566  0.1294 -0.5561  0.1780
  414MOL0     H57124   2.192   5.203  10.600  1.9821  0.1745 -3.0986
  414MOL0     H57125   2.091   5.258  10.462 -0.8121 -1.6802  0.6622
  414MOL0     H57126   1.970   5.412  10.629  0.4802 -1.0905 -0.7698
  414MOL0     H57127   2.142   5.447  10.578  1.0594 -2.4348 -1.2490
  414MOL0     H57128   2.170   5.338  10.997 -1.8908  0.0061  0.4484
  414MOL0     H57129   1.807   4.993  10.214  1.7502  1.0016 -0.3277
  414MOL0     H57130   1.790   4.805   9.930 -2.7572  0.8703 -1.7090
  414MOL0     H57131   1.647   4.757  10.018 -0.2628 -0.6620 -0.1373
  414MOL0     H57132   1.706   4.921  10.028  1.4788  1.2662 -0.2766
  415MOL0     O57133   9.684   5.764   6.715 -0.7146 -0.6854 -0.0783
  415MOL0     C57134   9.651   5.813   6.823 -0.0674  0.2193 -0.9565
  415MOL0     O57135   9.738   5.855   6.913 -0.1934 -0.3340  0.3686
  415MOL0     C57136   9.876   5.851   6.891  0.0769  0.1773 -0.1441
  415MOL0     C57137   9.939   5.943   6.806 -0.4091  0.0041  0.3637
  415MOL0     C57138  10.071   5.923   6.754 -0.3363 -0.1607  0.3672
  415MOL0     C57139  10.145   5.808   6.803 -0.0465 -1.0547 -0.2671
  415MOL0     O57140  10.276   5.777   6.762  0.0297 -0.3762  0.1586
  415MOL0     C57141  10.358   5.888   6.741 -0.3055  0.1318 -0.2921
  415MOL0     C57142  10.510   5.846   6.758 -0.1142 -0.2082  1.3308
  415MOL0     C57143  10.578   5.794   6.624 -1.1510 -1.0515  0.3605
  415MOL0     C57144  10.734   5.837   6.619  1.3044 -0.4057  0.1042
  415MOL0     C57145  10.795   5.766   6.498 -0.2226  0.6306 -0.7777
  415MOL0     C57146  10.757   5.808   6.361 -0.0619 -0.4817 -0.5147
  415MOL0     C57147  10.835   5.744   6.251 -0.0504 -0.0167 -0.2503
  415MOL0     C57148  10.975   5.802   6.217 -0.0489 -0.3734 -1.0265
  415MOL0     N57149  11.068   5.770   6.320  0.4944 -0.0162  0.1214
  415MOL0     C57150  11.137   5.855   6.404 -0.1348 -0.6343 -0.1664
  415MOL0     C57151  11.189   5.773   6.498  0.1969  0.7724  0.3176
  415MOL0     C57152  11.279   5.807   6.615  0.6334 -0.0862  0.0790
  415MOL0     C57153  11.198   5.866   6.726  0.8323  0.5542  0.0493
  415MOL0     C57154  11.126   5.748   6.797  0.4770  0.2100 -0.6544
  415MOL0     C57155  11.057   5.788   6.931 -0.0897  0.1306  0.2946
  415MOL0     O57156  11.032   5.925   6.939 -0.0215  0.4528 -0.5469
  415MOL0     C57157  10.903   5.958   6.968  0.1162 -0.0313  0.1539
  415MOL0     C57158  10.838   5.911   7.080 -0.3581  0.0331  0.0032
  415MOL0     C57159  10.717   5.953   7.124 -0.2187  0.5937  0.3490
  415MOL0     C57160  10.676   5.903   7.266  1.2651  0.0800  0.5096
  415MOL0     C57161  10.651   6.066   7.062 -0.5400  0.2499  0.2384
  415MOL0     C57162  10.510   6.121   7.090 -0.3336 -0.2311  0.1433
  415MOL0     O57163  10.455   6.211   7.002 -1.2456  0.4293 -0.2886
  415MOL0     C57164  10.325   6.241   6.995 -0.4208  0.0635  0.2714
  415MOL0     C57165  10.226   6.154   7.031  0.2529  0.1755 -0.7136
  415MOL0     C57166  10.095   6.193   7.008  0.5121  1.3739 -0.6531
  415MOL0     C57167  10.060   6.304   6.948 -0.0528 -0.3525  1.0989
  415MOL0     O57168   9.940   6.345   6.918  0.2894 -0.1658 -0.2261
  415MOL0     C57169   9.836   6.355   7.017 -0.3316  0.1106 -0.1308
  415MOL0     C57170   9.831   6.505   7.062 -0.3310  0.8429  0.0490
  415MOL0     C57171   9.716   6.519   7.164  0.1211  0.6478 -0.8008
  415MOL0     C57172   9.718   6.664   7.232  0.7255  0.0064  0.8877
  415MOL0     C57173   9.610   6.689   7.330  0.3584  0.4972  0.2048
  415MOL0     C57174   9.608   6.822   7.403  0.1350 -0.1745 -1.2794
  415MOL0     C57175   9.714   6.836   7.514 -0.0328  0.1369 -0.0185
  415MOL0     C57176   9.689   6.978   7.567  0.4915  0.7688  0.4358
  415MOL0    Cl57177   9.539   6.980   7.679 -0.6697 -0.0711 -0.4885
  415MOL0     C57178  10.165   6.396   6.923  0.3831  0.0419  0.2642
  415MOL0     C57179  10.296   6.363   6.941  0.3891 -0.4685 -0.1246
  415MOL0     O57180  10.455   6.081   7.193 -0.8798 -0.7827 -0.3893
  415MOL0     C57181  10.729   6.136   6.968  0.2833 -0.0479  0.6328
  415MOL0     C57182  10.846   6.073   6.914 -0.5540 -1.3417 -0.3009
  415MOL0     N57183  11.166   5.647   6.457  0.2684  0.5441  0.8895
  415MOL0     N57184  11.083   5.642   6.358  0.1154 -1.0906  0.2700
  415MOL0     C57185  10.076   5.721   6.891 -0.1139 -0.1395  0.1039
  415MOL0     C57186   9.942   5.739   6.934 -0.5634  0.0570 -0.9594
  415MOL0     C57187   9.507   5.819   6.851  0.5474 -0.0562 -0.0137
  415MOL0     C57188   9.415   5.869   6.754  0.8322  0.4439 -0.3623
  415MOL0     C57189   9.277   5.874   6.766  0.1077 -0.4059 -0.0875
  415MOL0     C57190   9.212   5.849   6.885 -0.1608 -0.0642 -0.0528
  415MOL0     O57191   9.075   5.842   6.908 -0.1214 -0.0477  1.1012
  415MOL0     C57192   8.973   5.911   6.833 -0.2534  0.2466  0.4165
  415MOL0     C57193   8.850   5.945   6.923 -0.3461 -0.3741  0.2358
  415MOL0     C57194   8.866   6.064   7.013  0.4739 -0.1104  0.4476
  415MOL0     C57195   8.982   6.050   7.122 -0.3236  0.1606 -0.0143
  415MOL0     C57196   9.020   6.168   7.188  0.4851 -0.7463 -0.4878
  415MOL0     C57197   9.065   6.268   7.231 -0.8761  0.5901 -0.2046
  415MOL0     C57198   9.297   5.797   6.984 -0.5714  0.2674 -0.6116
  415MOL0     C57199   9.438   5.774   6.966 -0.8469  0.0956  0.2458
  415MOL0     C57200   9.515   5.703   7.069  0.2748  0.1398 -0.1723
  415MOL0     H57201   9.890   6.032   6.766 -2.7720 -0.4171  2.1487
  415MOL0     H57202  10.124   5.997   6.694  0.6005  0.2250  1.6213
  415MOL0     H57203  10.336   5.963   6.818 -1.7519  0.9092 -1.3899
  415MOL0     H57204  10.329   5.932   6.645 -1.5053  1.3291  0.5679
  415MOL0     H57205  10.553   5.943   6.786 -2.1684  0.6150  1.7967
  415MOL0     H57206  10.511   5.775   6.841 -0.8658  0.5331  1.9922
  415MOL0     H57207  10.572   5.686   6.612  1.7316 -1.0069 -3.6064
  415MOL0     H57208  10.532   5.829   6.531  1.5660 -2.1543 -1.5421
  415MOL0     H57209  10.744   5.945   6.606 -1.4623  0.0206  0.9805
  415MOL0     H57210  10.783   5.818   6.715  1.6159 -3.2372 -0.5212
  415MOL0     H57211  10.791   5.656   6.505  3.9593  0.3925  4.0340
  415MOL0     H57212  10.899   5.795   6.513 -1.0290  4.5548 -1.8255
  415MOL0     H57213  10.657   5.768   6.341 -0.3949  1.0286 -2.2129
  415MOL0     H57214  10.745   5.917   6.367  1.3513 -0.2991 -0.7564
  415MOL0     H57215  10.778   5.751   6.158  0.1203  1.8406 -0.2348
  415MOL0     H57216  10.831   5.637   6.275 -0.3187  0.2346  0.9010
  415MOL0     H57217  11.015   5.760   6.124  4.2331  0.9189  0.0338
  415MOL0     H57218  10.975   5.911   6.217  1.9453 -0.2559  2.4643
  415MOL0     H57219  11.133   5.963   6.400 -0.1331 -0.6156  0.2885
  415MOL0     H57220  11.344   5.887   6.579 -2.4380  1.4856 -2.4749
  415MOL0     H57221  11.335   5.720   6.651  1.4353  0.8090  1.0778
  415MOL0     H57222  11.269   5.923   6.786  0.8499  0.9873 -0.3779
  415MOL0     H57223  11.124   5.938   6.690  1.3802 -0.4740 -3.5848
  415MOL0     H57224  11.044   5.719   6.730  0.1379 -1.0923  0.2818
  415MOL0     H57225  11.191   5.662   6.817 -2.2026 -1.7687  0.2100
  415MOL0     H57226  10.964   5.731   6.926  0.1577 -0.1629 -1.5592
  415MOL0     H57227  11.123   5.762   7.014 -1.8639  0.8257  2.0205
  415MOL0     H57228  10.892   5.835   7.136  0.9534  1.1932  0.3936
  415MOL0     H57229  10.723   5.810   7.297 -0.8810 -1.3319 -0.2535
  415MOL0     H57230  10.570   5.877   7.261  0.2445  3.3160  2.0773
  415MOL0     H57231  10.673   5.980   7.344  0.5924 -0.7567  1.3405
  415MOL0     H57232  10.253   6.058   7.072 -2.8812 -0.2601  0.6070
  415MOL0     H57233  10.025   6.113   7.031  0.5164  1.5065 -0.1730
  415MOL0     H57234   9.745   6.334   6.960 -0.3056  1.0196 -0.5281
  415MOL0     H57235   9.838   6.283   7.100 -2.0156  0.3444  0.1488
  415MOL0     H57236   9.921   6.532   7.117  1.3731  1.1032 -2.7105
  415MOL0     H57237   9.809   6.577   6.982 -1.7592  3.4906  2.5948
  415MOL0     H57238   9.725   6.455   7.253  0.2867  0.2655 -1.0919
  415MOL0     H57239   9.614   6.505   7.128  0.3576  2.3635 -2.2733
  415MOL0     H57240   9.704   6.741   7.156 -1.2239  1.0388  2.2134
  415MOL0     H57241   9.813   6.677   7.284  1.7788 -2.2009 -0.3456
  415MOL0     H57242   9.516   6.670   7.278  0.2537 -0.3806  0.6900
  415MOL0     H57243   9.616   6.607   7.403 -1.2777 -1.2224 -1.4743
  415MOL0     H57244   9.506   6.827   7.441  0.6506 -1.6882  0.4567
  415MOL0     H57245   9.615   6.895   7.322 -0.5913 -4.3029 -5.5184
  415MOL0     H57246   9.813   6.827   7.469 -0.1747  1.5537 -0.6883
  415MOL0     H57247   9.691   6.758   7.587  0.8341  0.5362  0.7003
  415MOL0     H57248   9.664   7.052   7.490 -1.3164 -0.3296 -0.1229
  415MOL0     H57249   9.773   7.010   7.629  0.7725 -2.3842  1.8594
  415MOL0     H57250  10.139   6.492   6.880 -1.1341 -0.2982  0.3595
  415MOL0     H57251  10.368   6.433   6.900  0.5676 -0.7566 -0.2987
  415MOL0     H57252  10.696   6.224   6.913  0.3641 -0.1236  0.4602
  415MOL0     H57253  10.894   6.114   6.826 -0.0717 -2.5030 -0.5981
  415MOL0     H57254  10.122   5.628   6.922 -1.0919 -1.5129 -2.3369
  415MOL0     H57255   9.896   5.651   6.977  0.6887  0.5875  1.6786
  415MOL0     H57256   9.451   5.901   6.657  0.0070  0.1223 -0.7871
  415MOL0     H57257   9.226   5.908   6.676  0.1471 -0.7707 -0.2473
  415MOL0     H57258   9.003   6.010   6.799 -0.8946  0.6217  0.9402
  415MOL0     H57259   8.939   5.835   6.762 -2.3349  0.0633  1.5277
  415MOL0     H57260   8.832   5.857   6.985 -0.9674 -1.3492 -1.2694
  415MOL0     H57261   8.759   5.964   6.866  0.9586  1.4671 -1.4024
  415MOL0     H57262   8.885   6.155   6.955 -1.1838  0.2977  0.4940
  415MOL0     H57263   8.768   6.077   7.061 -0.3845 -2.3090 -0.5813
  415MOL0     H57264   9.074   6.016   7.076 -0.7917  1.2512 -1.8703
  415MOL0     H57265   8.943   5.977   7.194  0.0936 -0.5968 -0.5518
  415MOL0     H57266   9.109   6.363   7.254 -0.9738  2.6556 -6.5192
  415MOL0     H57267   9.243   5.770   7.074 -0.5996  0.0038 -0.7066
  415MOL0     H57268   9.532   5.600   7.036  0.9004 -0.3113  1.5080
  415MOL0     H57269   9.611   5.753   7.085 -0.3129  1.1575  0.2921
  415MOL0     H57270   9.465   5.702   7.166  0.2139  1.3260 -0.1691
  416MOL0     O57271   7.557   6.973  10.186 -0.1774  1.0767 -0.6570
  416MOL0     C57272   7.449   6.930  10.236 -0.1024  0.1383  0.4784
  416MOL0     O57273   7.357   6.860  10.177  0.2109  0.1034 -0.4604
  416MOL0     C57274   7.392   6.821  10.050 -0.0614  0.6183  0.3866
  416MOL0     C57275   7.345   6.895   9.943 -0.3137  0.0660 -0.2801
  416MOL0     C57276   7.381   6.861   9.813 -0.0557  0.1532  0.2133
  416MOL0     C57277   7.437   6.731   9.782 -0.3101  0.2408  0.1890
  416MOL0     O57278   7.472   6.692   9.656 -0.1002 -0.3194 -0.4455
  416MOL0     C57279   7.365   6.653   9.569 -0.1196 -0.9330  0.4493
  416MOL0     C57280   7.306   6.784   9.507 -0.5681 -0.0494  0.9148
  416MOL0     C57281   7.418   6.869   9.442 -0.8273 -0.6144 -0.3872
  416MOL0     C57282   7.460   6.796   9.320 -0.0796 -0.2832 -0.2688
  416MOL0     C57283   7.465   6.898   9.208 -0.1097  0.3995 -0.0535
  416MOL0     C57284   7.588   6.988   9.204  0.1990  0.0590  0.2456
  416MOL0     C57285   7.733   6.926   9.190 -0.8106  0.9660 -0.8525
  416MOL0     C57286   7.850   7.008   9.230 -0.4690 -0.2635 -0.3244
  416MOL0     N57287   7.861   7.129   9.131 -0.3657  0.9893  0.0758
  416MOL0     C57288   7.977   7.157   9.073 -0.2437  0.4185 -0.7831
  416MOL0     C57289   7.970   7.290   9.054  0.4251 -0.3188  0.2327
  416MOL0     C57290   8.081   7.384   9.008 -0.4052 -0.4639 -0.2236
  416MOL0     C57291   8.045   7.463   8.878 -0.1231 -0.1225 -0.6271
  416MOL0     C57292   7.985   7.603   8.911 -0.0606 -0.4594  0.3385
  416MOL0     C57293   7.896   7.651   8.797 -0.5130 -0.8660 -0.5049
  416MOL0     O57294   7.767   7.693   8.850 -0.2724  0.9123  0.2122
  416MOL0     C57295   7.763   7.823   8.898  0.1403  0.6029 -0.5038
  416MOL0     C57296   7.876   7.906   8.914  0.6720 -0.5742 -0.2097
  416MOL0     C57297   7.857   8.041   8.951  1.4406  0.3320  0.0242
  416MOL0     C57298   7.976   8.133   8.953 -0.5634 -0.2902 -0.0679
  416MOL0     C57299   7.722   8.100   8.972 -0.4409  1.0586  0.1100
  416MOL0     C57300   7.701   8.237   9.007 -0.1864 -0.5225 -0.0546
  416MOL0     O57301   7.770   8.286   9.119 -0.5088 -0.1239 -0.2164
  416MOL0     C57302   7.749   8.411   9.165  0.5750 -0.1190 -0.0678
  416MOL0     C57303   7.845   8.477   9.245  1.0125  0.3792 -0.4744
  416MOL0     C57304   7.826   8.601   9.303 -0.3503 -0.1859 -1.2175
  416MOL0     C57305   7.714   8.677   9.278  0.7422 -0.0038  0.7659
  416MOL0     O57306   7.696   8.803   9.328 -0.3440 -0.2679 -0.4387
  416MOL0     C57307   7.571   8.883   9.301 -0.4603 -0.6450  0.2917
  416MOL0     C57308   7.580   9.031   9.344 -1.3030  0.4047 -0.3312
  416MOL0     C57309   7.716   9.113   9.286  0.1120 -0.3093 -1.1604
  416MOL0     C57310   7.747   9.072   9.141 -0.6628  0.5251  0.7078
  416MOL0     C57311   7.854   9.160   9.079 -0.0558  0.7391  0.3115
  416MOL0     C57312   7.795   9.283   9.022 -0.4167  0.0520 -0.0374
  416MOL0     C57313   7.904   9.371   8.957 -0.2604 -0.1477  0.2090
  416MOL0     C57314   7.836   9.503   8.903  0.8604 -0.0519  0.1078
  416MOL0    Cl57315   7.714   9.455   8.773  0.5118  0.5167  0.0821
  416MOL0     C57316   7.608   8.616   9.199 -0.9552 -0.7399 -0.3706
  416MOL0     C57317   7.625   8.483   9.149  0.9553  0.5713  0.4002
  416MOL0     O57318   7.622   8.296   8.934  0.2269 -0.4060  0.0831
  416MOL0     C57319   7.615   8.014   8.956 -0.2475  0.3918 -0.8086
  416MOL0     C57320   7.629   7.880   8.915 -0.9284 -0.5118 -0.6361
  416MOL0     N57321   7.850   7.345   9.103  0.6856 -0.5431  0.7119
  416MOL0     N57322   7.791   7.244   9.146  0.1931  0.9158 -0.0096
  416MOL0     C57323   7.466   6.651   9.892  0.4464 -0.3311  0.1134
  416MOL0     C57324   7.450   6.696  10.028 -0.5765 -0.8491  0.6768
  416MOL0     C57325   7.446   6.953  10.387 -0.0780 -0.2541  0.8407
  416MOL0     C57326   7.564   6.979  10.449 -0.6050 -0.2646 -0.4107
  416MOL0     C57327   7.557   6.992  10.583 -0.6232 -0.6333 -0.6053
  416MOL0     C57328   7.450   6.976  10.668 -1.3491 -0.2532  0.3689
  416MOL0     O57329   7.454   6.969  10.802  0.4633 -0.0273 -0.3239
  416MOL0     C57330   7.539   6.868  10.860 -0.4936 -0.1590  0.5977
  416MOL0     C57331   7.463   6.739  10.882  0.2323 -0.0010 -0.3509
  416MOL0     C57332   7.356   6.750  10.998  0.2912 -0.7628  0.1701
  416MOL0     C57333   7.330   6.611  11.061 -0.2184  0.7091 -0.4086
  416MOL0     C57334   7.193   6.606  11.114  0.5429  0.3254  0.1613
  416MOL0     C57335   7.088   6.605  11.172 -0.5870  0.0309 -0.4890
  416MOL0     C57336   7.329   6.958  10.602  0.2447 -0.1196 -0.2975
  416MOL0     C57337   7.328   6.952  10.462  0.2577 -0.5907 -1.7919
  416MOL0     C57338   7.187   6.952  10.408  0.2128 -0.3663 -0.0974
  416MOL0     H57339   7.292   6.986   9.967  0.3012  0.2048  0.5724
  416MOL0     H57340   7.352   6.933   9.738  0.3161 -1.5662 -1.6705
  416MOL0     H57341   7.286   6.592   9.613 -1.7360 -0.0314 -1.0602
  416MOL0     H57342   7.413   6.601   9.485  3.0297  3.0167 -0.5217
  416MOL0     H57343   7.229   6.760   9.434 -1.2273 -0.0725  1.6002
  416MOL0     H57344   7.248   6.843   9.579 -0.3235  1.4400 -0.0682
  416MOL0     H57345   7.387   6.974   9.435  1.6809  0.1153 -2.0967
  416MOL0     H57346   7.505   6.882   9.507  0.4846 -0.2819 -2.1131
  416MOL0     H57347   7.552   6.740   9.339 -1.0205 -1.9156 -0.4265
  416MOL0     H57348   7.388   6.718   9.295  1.4293 -1.2642 -1.8201
  416MOL0     H57349   7.382   6.962   9.236 -0.2071 -0.2132  1.1466
  416MOL0     H57350   7.446   6.852   9.111  0.9357  4.9389 -2.7150
  416MOL0     H57351   7.567   7.057   9.122 -1.3549  0.9417  1.3207
  416MOL0     H57352   7.591   7.052   9.293  0.6274 -0.9441  0.9649
  416MOL0     H57353   7.755   6.896   9.087  0.6435 -1.2655  0.0326
  416MOL0     H57354   7.745   6.835   9.251 -1.1948  1.3080 -0.2509
  416MOL0     H57355   7.819   7.055   9.324  3.4109  1.1487  0.4193
  416MOL0     H57356   7.950   6.967   9.245  0.8021  1.7119 -2.6315
  416MOL0     H57357   8.052   7.085   9.041  0.1070  0.9308 -1.1395
  416MOL0     H57358   8.172   7.325   8.999  0.5737  0.4321  2.6380
  416MOL0     H57359   8.100   7.453   9.091 -0.4296 -1.2639  0.4647
  416MOL0     H57360   8.129   7.484   8.811  0.3354 -0.8779 -0.3143
  416MOL0     H57361   7.971   7.411   8.818 -1.1580  1.4916 -0.7968
  416MOL0     H57362   7.925   7.616   9.002  1.7506  1.6653  1.3401
  416MOL0     H57363   8.062   7.681   8.912 -1.8225  1.4600 -1.6746
  416MOL0     H57364   7.945   7.730   8.739 -1.1217  0.9158  1.2590
  416MOL0     H57365   7.886   7.581   8.714  1.2415 -0.5994 -0.9838
  416MOL0     H57366   7.978   7.875   8.896  1.0402  0.8819 -0.7428
  416MOL0     H57367   8.031   8.127   9.048  2.4559  3.0160 -1.3777
  416MOL0     H57368   7.956   8.241   8.952  1.9909  0.2831  0.8758
  416MOL0     H57369   8.040   8.108   8.868  2.6403  0.0920  2.0538
  416MOL0     H57370   7.929   8.411   9.260 -1.2538 -3.0658 -1.7289
  416MOL0     H57371   7.899   8.643   9.371  0.7688 -0.1141 -2.4340
  416MOL0     H57372   7.545   8.875   9.195 -2.8462 -0.1565  0.7834
  416MOL0     H57373   7.487   8.844   9.359  0.3131 -1.3777  0.9589
  416MOL0     H57374   7.490   9.082   9.309 -1.9938 -1.3567 -1.2532
  416MOL0     H57375   7.580   9.048   9.452  0.4405 -1.1793 -0.0139
  416MOL0     H57376   7.794   9.091   9.359 -1.1198 -2.3000 -0.3610
  416MOL0     H57377   7.699   9.220   9.299  2.3416  0.1201 -1.4405
  416MOL0     H57378   7.661   9.065   9.073  0.6032 -2.2040 -0.7736
  416MOL0     H57379   7.789   8.972   9.156 -2.0914 -0.8990 -3.3936
  416MOL0     H57380   7.932   9.169   9.155  1.8190 -2.8918 -0.9605
  416MOL0     H57381   7.892   9.098   8.997  1.2195  0.2776  1.2286
  416MOL0     H57382   7.745   9.327   9.108  1.0347  0.3058  0.7096
  416MOL0     H57383   7.734   9.238   8.943  1.5893 -2.2788 -0.3946
  416MOL0     H57384   7.947   9.329   8.866 -2.7303 -0.7024 -0.7880
  416MOL0     H57385   7.973   9.402   9.036 -0.9483  2.2854 -0.0438
  416MOL0     H57386   7.909   9.575   8.866  0.5136 -0.7180 -1.9937
  416MOL0     H57387   7.774   9.552   8.978  2.6590  2.3919  0.1122
  416MOL0     H57388   7.521   8.668   9.161  1.2143  0.4671 -4.2241
  416MOL0     H57389   7.546   8.445   9.086  1.3627  1.3046 -0.5879
  416MOL0     H57390   7.517   8.059   8.970 -1.0233 -2.0036  2.7126
  416MOL0     H57391   7.547   7.813   8.892  0.2205 -1.5573 -1.8242
  416MOL0     H57392   7.513   6.553   9.881  1.3140  0.1012 -0.0983
  416MOL0     H57393   7.482   6.627  10.105  1.9124 -1.4341 -0.7752
  416MOL0     H57394   7.662   7.000  10.407 -1.8998  1.8662 -2.6568
  416MOL0     H57395   7.652   7.003  10.635  0.5627  1.8305 -3.0305
  416MOL0     H57396   7.629   6.848  10.802  0.1254  0.5348  1.3121
  416MOL0     H57397   7.573   6.903  10.958 -1.0482 -1.7507  1.3836
  416MOL0     H57398   7.537   6.664  10.914 -1.1415 -1.1936  0.1372
  416MOL0     H57399   7.410   6.712  10.791 -2.1232 -1.7586  1.4204
  416MOL0     H57400   7.384   6.821  11.077 -1.1253 -2.7323  2.5670
  416MOL0     H57401   7.263   6.786  10.954 -0.7678  0.2834  3.0505
  416MOL0     H57402   7.401   6.580  11.138 -1.3677 -1.6002 -0.1797
  416MOL0     H57403   7.340   6.528  10.990 -2.7777 -1.2554  1.3169
  416MOL0     H57404   6.983   6.608  11.191 -0.8049 -1.4330 -1.3767
  416MOL0     H57405   7.236   6.970  10.656  0.8310 -1.1021  0.9838
  416MOL0     H57406   7.142   6.853  10.413 -0.1158 -0.1784  4.6011
  416MOL0     H57407   7.128   7.026  10.463 -0.5156 -0.7696 -0.3224
  416MOL0     H57408   7.181   6.991  10.306 -0.7173 -1.4342 -0.4682
  417MOL0     O57409   0.370   3.570   8.583 -0.0965  0.0352 -0.9466
  417MOL0     C57410   0.486   3.611   8.556  0.1755  0.5669  0.6178
  417MOL0     O57411   0.582   3.622   8.648 -0.0076  0.0816  0.1185
  417MOL0     C57412   0.558   3.583   8.777  0.1745  0.4550  0.1449
  417MOL0     C57413   0.581   3.453   8.818 -0.3754 -0.5516 -0.5596
  417MOL0     C57414   0.564   3.415   8.953  0.5106  0.4663  0.3030
  417MOL0     C57415   0.500   3.503   9.045  0.1207 -0.6987 -0.0983
  417MOL0     O57416   0.486   3.459   9.171  0.2715 -0.3734  0.6905
  417MOL0     C57417   0.453   3.553   9.273 -0.0723  0.2248  0.3451
  417MOL0     C57418   0.450   3.469   9.403  0.0361 -0.5778 -0.3107
  417MOL0     C57419   0.338   3.360   9.405  0.2737 -0.7539 -0.6576
  417MOL0     C57420   0.338   3.305   9.550 -0.4976  0.2850 -0.1216
  417MOL0     C57421   0.247   3.186   9.566  1.0681 -0.4279 -0.3402
  417MOL0     C57422   0.101   3.215   9.543 -0.7162  0.2631  1.0244
  417MOL0     C57423   0.010   3.136   9.632 -0.1940  0.0980 -0.4836
  417MOL0     C57424   0.055   2.986   9.635  0.3919  0.0896 -0.2668
  417MOL0     N57425  -0.057   2.908   9.684 -0.9240 -0.0638 -0.7947
  417MOL0     C57426  -0.064   2.854   9.812  0.7141  0.0261  0.5691
  417MOL0     C57427  -0.171   2.774   9.808 -0.2325 -0.1922  0.9575
  417MOL0     C57428  -0.227   2.679   9.907  0.5607  0.1421 -0.0876
  417MOL0     C57429  -0.146   2.551   9.922  0.4182  0.7887  1.0686
  417MOL0     C57430  -0.206   2.436  10.011 -0.1063 -0.6389 -0.0896
  417MOL0     C57431  -0.275   2.487  10.146 -0.8833 -0.0606 -0.3193
  417MOL0     O57432  -0.172   2.541  10.232  1.0774  0.8387 -0.8957
  417MOL0     C57433  -0.215   2.621  10.330  1.0767  0.3924 -0.3970
  417MOL0     C57434  -0.103   2.652  10.411  0.2190 -0.9226  1.2495
  417MOL0     C57435  -0.119   2.723  10.529 -0.7932  1.3014 -0.8554
  417MOL0     C57436  -0.001   2.778  10.602 -0.7364  0.2661 -0.6780
  417MOL0     C57437  -0.250   2.755  10.570 -1.0475 -0.3441 -0.2037
  417MOL0     C57438  -0.286   2.809  10.702  0.1778  0.2851  0.8842
  417MOL0     O57439  -0.210   2.778  10.809  0.3480 -0.0631 -0.3906
  417MOL0     C57440  -0.218   2.858  10.912  0.6534  0.5553  0.0870
  417MOL0     C57441  -0.201   2.999  10.907  0.2286  1.1104  0.2501
  417MOL0     C57442  -0.183   3.073  11.023  0.1641  0.4071 -0.1266
  417MOL0     C57443  -0.170   3.013  11.148  0.1994 -0.3137 -0.9263
  417MOL0     O57444  -0.138   3.091  11.258 -0.7677 -0.8485  0.3858
  417MOL0     C57445  -0.257   3.135  11.321 -0.3819  0.3752 -0.8724
  417MOL0     C57446  -0.225   3.165  11.462  0.0208 -0.2858 -0.9507
  417MOL0     C57447  -0.186   3.041  11.541  0.3424  0.1183  0.1103
  417MOL0     C57448  -0.172   3.086  11.689 -0.2818  0.7221 -0.9446
  417MOL0     C57449  -0.090   2.969  11.752 -0.1743  1.1361  0.9939
  417MOL0     C57450  -0.077   2.970  11.908  0.1157  0.6176 -0.6208
  417MOL0     C57451   0.043   2.886  11.955 -0.2656 -0.8835 -0.7655
  417MOL0     C57452   0.080   2.921  12.107 -0.0393 -0.3268  0.9264
  417MOL0    Cl57453   0.153   3.081  12.108 -0.0696 -0.2048 -0.7222
  417MOL0     C57454  -0.175   2.873  11.149 -0.0789 -0.7149  0.0427
  417MOL0     C57455  -0.204   2.797  11.037  0.7013  0.4900 -0.5507
  417MOL0     O57456  -0.393   2.875  10.703  0.1853 -0.0469 -0.1046
  417MOL0     C57457  -0.362   2.732  10.476 -0.2086 -0.8214 -0.5097
  417MOL0     C57458  -0.344   2.666  10.362  0.1419 -0.1944 -0.4636
  417MOL0     N57459  -0.230   2.783   9.677  0.2667  0.0677  0.0019
  417MOL0     N57460  -0.150   2.851   9.610 -0.0151 -0.3331 -0.0890
  417MOL0     C57461   0.475   3.640   9.004  0.0861 -0.7690 -0.3825
  417MOL0     C57462   0.500   3.681   8.869 -0.2314  0.6409 -0.3150
  417MOL0     C57463   0.523   3.664   8.421 -0.2022 -0.3865 -0.4309
  417MOL0     C57464   0.618   3.768   8.408  0.6479  0.9725  0.7354
  417MOL0     C57465   0.649   3.822   8.280  0.4839 -0.0811 -0.4983
  417MOL0     C57466   0.567   3.771   8.175 -0.1263 -0.4251  1.7228
  417MOL0     O57467   0.603   3.851   8.063  0.4152  0.5236 -0.3067
  417MOL0     C57468   0.568   3.811   7.929 -0.2659 -0.1630 -1.0222
  417MOL0     C57469   0.669   3.708   7.872  0.2268  0.7132 -0.5683
  417MOL0     C57470   0.810   3.759   7.881  1.1839 -0.1644  0.3143
  417MOL0     C57471   0.905   3.707   7.776  0.2038  0.3014 -0.2946
  417MOL0     C57472   0.903   3.779   7.648  0.1239  1.1459 -0.1175
  417MOL0     C57473   0.875   3.835   7.545 -0.1628 -0.4547  0.4077
  417MOL0     C57474   0.488   3.662   8.186  0.2031  0.6806  0.2368
  417MOL0     C57475   0.468   3.603   8.309  0.6073 -1.0956  0.6579
  417MOL0     C57476   0.403   3.465   8.316 -0.1021  0.1488  0.1517
  417MOL0     H57477   0.615   3.377   8.749 -0.4566 -1.6612  0.5981
  417MOL0     H57478   0.587   3.312   8.979 -2.7204 -0.3940  0.0999
  417MOL0     H57479   0.354   3.595   9.254 -0.6360 -0.1481  2.2156
  417MOL0     H57480   0.536   3.624   9.271 -0.3297  0.5039 -1.4350
  417MOL0     H57481   0.547   3.420   9.415  0.0506 -0.3499  0.5966
  417MOL0     H57482   0.446   3.534   9.491 -0.8338 -0.5179 -0.3903
  417MOL0     H57483   0.239   3.397   9.377  0.2884  0.5784  0.8904
  417MOL0     H57484   0.372   3.273   9.349 -1.5442 -1.6641 -0.3970
  417MOL0     H57485   0.442   3.277   9.568  1.0074  4.2283 -1.5619
  417MOL0     H57486   0.307   3.382   9.622 -1.9818  0.4943 -0.9565
  417MOL0     H57487   0.247   3.163   9.673  1.7412  1.4028  0.0835
  417MOL0     H57488   0.272   3.100   9.504  1.6613  1.4521 -2.8286
  417MOL0     H57489   0.086   3.322   9.562 -2.4918  0.0417  0.9865
  417MOL0     H57490   0.063   3.199   9.442 -3.3684 -0.8874  2.1136
  417MOL0     H57491  -0.096   3.141   9.604 -0.4095  0.0867  0.2959
  417MOL0     H57492   0.036   3.171   9.732  2.6049 -1.7917 -0.4499
  417MOL0     H57493   0.074   2.951   9.533  3.1579  1.1694 -0.1913
  417MOL0     H57494   0.139   2.970   9.703 -1.4455  2.9841  3.0028
  417MOL0     H57495  -0.004   2.871   9.900 -1.0400 -0.1333  1.8411
  417MOL0     H57496  -0.330   2.652   9.881  0.7199 -0.8028  0.2130
  417MOL0     H57497  -0.247   2.726  10.004 -4.3894 -0.6599 -0.4647
  417MOL0     H57498  -0.122   2.505   9.825 -2.3855  2.0754 -0.3752
  417MOL0     H57499  -0.045   2.566   9.962  1.3603  1.9904 -1.5096
  417MOL0     H57500  -0.282   2.376   9.961  0.3321  0.0773 -1.6929
  417MOL0     H57501  -0.129   2.361  10.030 -1.3346 -1.8113  0.4205
  417MOL0     H57502  -0.344   2.569  10.123 -1.2010  0.5925  2.5664
  417MOL0     H57503  -0.336   2.407  10.191 -1.1008  0.4816  0.3642
  417MOL0     H57504  -0.006   2.613  10.380  0.1221  1.2225 -2.4293
  417MOL0     H57505   0.087   2.726  10.561  0.1190 -1.5637  3.1102
  417MOL0     H57506   0.006   2.756  10.708  1.4278  0.3571 -0.7454
  417MOL0     H57507   0.009   2.886  10.587 -1.3621  0.3378 -0.5978
  417MOL0     H57508  -0.205   3.053  10.813  1.2805  1.3142  0.3148
  417MOL0     H57509  -0.170   3.181  11.013 -0.9760  0.8962  2.5801
  417MOL0     H57510  -0.304   3.224  11.278  0.9697  1.6896  0.2866
  417MOL0     H57511  -0.325   3.050  11.308  1.5605 -1.1530 -1.6676
  417MOL0     H57512  -0.144   3.238  11.469 -0.0339 -0.2389 -0.8022
  417MOL0     H57513  -0.311   3.207  11.513  2.1663 -0.7691  3.5114
  417MOL0     H57514  -0.089   3.003  11.507 -0.1478  1.3864 -2.9915
  417MOL0     H57515  -0.263   2.964  11.546  0.6936 -0.1774  2.5950
  417MOL0     H57516  -0.273   3.093  11.731 -0.7753  1.2470 -2.1659
  417MOL0     H57517  -0.115   3.175  11.716  1.3081 -0.3596 -0.5683
  417MOL0     H57518  -0.136   2.875  11.719  0.8754  0.7222  0.6611
  417MOL0     H57519   0.008   2.972  11.704 -1.9906  0.7114 -3.2443
  417MOL0     H57520  -0.165   2.944  11.967  0.0568  3.6717  0.8686
  417MOL0     H57521  -0.057   3.076  11.930  1.6232  0.3093 -0.3949
  417MOL0     H57522   0.133   2.901  11.895 -0.5021  0.2468 -0.8599
  417MOL0     H57523   0.017   2.780  11.946 -1.5157 -0.5672 -1.0624
  417MOL0     H57524   0.157   2.851  12.142 -0.9621 -0.9453  1.7496
  417MOL0     H57525  -0.007   2.924  12.173  0.0581  1.2987  1.0239
  417MOL0     H57526  -0.137   2.817  11.234 -1.0180  0.4953  1.3051
  417MOL0     H57527  -0.201   2.688  11.031  0.8500  0.5218 -1.1840
  417MOL0     H57528  -0.463   2.768  10.492  0.4028  0.9031 -0.3013
  417MOL0     H57529  -0.437   2.647  10.309 -1.1086  2.0658  0.7475
  417MOL0     H57530   0.431   3.720   9.064  2.9072 -0.5114  1.5590
  417MOL0     H57531   0.486   3.782   8.832  0.4843  0.5525 -0.8689
  417MOL0     H57532   0.670   3.797   8.499  1.2823 -1.8371  1.3592
  417MOL0     H57533   0.703   3.916   8.269  0.4376 -0.0346 -0.3294
  417MOL0     H57534   0.468   3.767   7.922  0.0822 -1.4514  1.0342
  417MOL0     H57535   0.571   3.899   7.864  0.3823 -0.8109 -1.8981
  417MOL0     H57536   0.642   3.689   7.767  4.0049  0.9673 -1.7405
  417MOL0     H57537   0.640   3.618   7.927  0.2234  0.0595 -1.6021
  417MOL0     H57538   0.810   3.868   7.878 -0.4548 -0.1398  0.3772
  417MOL0     H57539   0.848   3.720   7.976 -0.6056 -0.2112  1.0479
  417MOL0     H57540   0.904   3.598   7.772 -1.1740  0.3276 -1.9581
  417MOL0     H57541   1.003   3.728   7.819  0.5185 -4.0231  1.6523
  417MOL0     H57542   0.857   3.897   7.459  3.5128  0.6973  0.2755
  417MOL0     H57543   0.454   3.610   8.097  3.2485 -1.2348  0.0205
  417MOL0     H57544   0.450   3.400   8.242 -2.3499  1.9230 -3.0887
  417MOL0     H57545   0.415   3.418   8.415 -1.3532  1.3895  0.9391
  417MOL0     H57546   0.294   3.479   8.310 -0.1087  1.6267  2.3168
  418MOL0     O57547   9.433   2.918   7.802 -0.1280  0.0624 -0.2181
  418MOL0     C57548   9.388   2.885   7.695 -0.3009  0.1111 -0.6809
  418MOL0     O57549   9.262   2.831   7.673  0.9033  0.6790 -0.8890
  418MOL0     C57550   9.189   2.801   7.786  0.4086 -0.0385 -0.0353
  418MOL0     C57551   9.237   2.731   7.895  1.2039  0.7611 -0.0497
  418MOL0     C57552   9.142   2.713   8.007 -0.3849  0.5660  0.8785
  418MOL0     C57553   9.015   2.775   8.014  0.8105 -0.7090  0.3808
  418MOL0     O57554   8.933   2.749   8.116  0.6849  0.8288 -0.3890
  418MOL0     C57555   8.997   2.763   8.242  0.0592 -0.2981  0.0428
  418MOL0     C57556   8.886   2.773   8.348 -0.5150  0.8602 -0.4755
  418MOL0     C57557   8.793   2.653   8.364 -0.6714  0.8956 -0.4109
  418MOL0     C57558   8.677   2.676   8.461  1.4075  1.0051 -0.4694
  418MOL0     C57559   8.724   2.723   8.596 -0.2036 -0.5410  0.2221
  418MOL0     C57560   8.634   2.691   8.712  0.5882  0.6418 -0.1060
  418MOL0     C57561   8.514   2.778   8.719 -0.4109 -0.4103  0.1329
  418MOL0     C57562   8.407   2.737   8.821  0.7752  0.0734 -0.6608
  418MOL0     N57563   8.312   2.843   8.831 -0.1729 -0.2453 -0.3532
  418MOL0     C57564   8.340   2.973   8.875 -0.0545  0.3915 -0.1226
  418MOL0     C57565   8.218   3.036   8.884 -0.3689 -0.0620 -0.6746
  418MOL0     C57566   8.179   3.176   8.924 -0.2190 -0.9007  0.0087
  418MOL0     C57567   8.299   3.268   8.958  0.5290  0.2312  0.4800
  418MOL0     C57568   8.253   3.405   9.013 -0.8280 -0.6912 -0.0982
  418MOL0     C57569   8.365   3.501   8.987 -1.0101 -0.8242  0.0463
  418MOL0     O57570   8.387   3.541   8.845 -0.2588 -0.2771 -0.3468
  418MOL0     C57571   8.303   3.636   8.792 -0.3212  0.0118 -0.6054
  418MOL0     C57572   8.236   3.589   8.674 -0.8980 -1.1310 -0.3564
  418MOL0     C57573   8.130   3.662   8.617 -0.1810  0.7682 -0.0258
  418MOL0     C57574   8.037   3.593   8.514  0.2240  0.1495  0.3082
  418MOL0     C57575   8.096   3.788   8.663 -0.1450 -0.0862 -0.4312
  418MOL0     C57576   7.987   3.876   8.603  0.6929  0.1394 -1.4819
  418MOL0     O57577   7.940   3.981   8.684 -0.2067 -0.3010 -0.3318
  418MOL0     C57578   7.860   4.078   8.628  0.1049  0.3227  1.2005
  418MOL0     C57579   7.902   4.156   8.517  0.2841 -0.7484  0.2767
  418MOL0     C57580   7.822   4.267   8.463  0.2510  0.1039  0.2355
  418MOL0     C57581   7.700   4.287   8.518 -0.4052 -1.0829 -0.1944
  418MOL0     O57582   7.623   4.395   8.491  0.2695  0.3240  0.6476
  418MOL0     C57583   7.672   4.518   8.533 -0.1202 -0.1707 -0.2963
  418MOL0     C57584   7.706   4.598   8.394  0.1916  0.2473  0.8040
  418MOL0     C57585   7.754   4.746   8.428  0.9402  0.2109 -0.2481
  418MOL0     C57586   7.817   4.822   8.307 -0.0324  0.2320 -0.3808
  418MOL0     C57587   7.877   4.958   8.347 -0.2658 -0.2566  0.2173
  418MOL0     C57588   7.917   5.053   8.231 -0.2225  0.3050  0.9525
  418MOL0     C57589   8.033   4.993   8.145  0.9989  0.4159  0.2355
  418MOL0     C57590   8.102   5.093   8.046  0.5170  0.0599  0.2302
  418MOL0    Cl57591   7.991   5.161   7.929 -0.3938 -0.8956  0.2149
  418MOL0     C57592   7.652   4.211   8.628 -0.2948  0.2388  0.4066
  418MOL0     C57593   7.727   4.095   8.672  0.1817  0.4964 -0.6563
  418MOL0     O57594   7.952   3.862   8.492  0.3368  0.3737 -0.0141
  418MOL0     C57595   8.167   3.833   8.777 -0.4988 -0.0887 -0.4127
  418MOL0     C57596   8.272   3.761   8.838 -0.5923 -0.1686  0.1887
  418MOL0     N57597   8.123   2.935   8.864 -0.3752  0.4151 -0.7383
  418MOL0     N57598   8.175   2.822   8.830 -0.1609 -0.2095 -0.2998
  418MOL0     C57599   8.967   2.825   7.895  0.1045  0.0557 -0.6812
  418MOL0     C57600   9.052   2.830   7.785  0.5487  0.2429 -0.6057
  418MOL0     C57601   9.482   2.912   7.575  0.5672  0.1282  0.7838
  418MOL0     C57602   9.429   2.938   7.450  0.2664  0.6908 -0.1593
  418MOL0     C57603   9.514   2.952   7.340  0.1308 -0.5843  0.3197
  418MOL0     C57604   9.653   2.941   7.354 -0.7617 -1.4607  0.0074
  418MOL0     O57605   9.745   2.939   7.250  0.8512  0.5468 -0.7080
  418MOL0     C57606   9.693   2.938   7.120 -1.3977 -0.6431  1.1012
  418MOL0     C57607   9.801   2.955   7.009  0.1726  0.6187  0.0158
  418MOL0     C57608   9.867   2.820   6.973 -0.6894 -0.2741 -0.2553
  418MOL0     C57609   9.976   2.844   6.867  0.0396 -0.0933 -0.4075
  418MOL0     C57610  10.067   2.721   6.873  0.4468 -0.2536 -1.1798
  418MOL0     C57611  10.137   2.627   6.893 -0.7193 -0.2920  0.3847
  418MOL0     C57612   9.706   2.918   7.478 -0.4858 -0.4761  0.1010
  418MOL0     C57613   9.621   2.909   7.589 -0.0601 -0.2414  0.2164
  418MOL0     C57614   9.695   2.883   7.719  0.3739 -0.7125 -0.9261
  418MOL0     H57615   9.344   2.716   7.895  1.5117  2.4599  2.3700
  418MOL0     H57616   9.187   2.674   8.098  0.9319  0.8860  0.3813
  418MOL0     H57617   9.052   2.857   8.252 -1.2626  0.4957  0.0738
  418MOL0     H57618   9.069   2.683   8.259  1.0106  0.0119 -2.1934
  418MOL0     H57619   8.931   2.786   8.447 -1.5493  3.4001 -0.2523
  418MOL0     H57620   8.825   2.863   8.338  1.8052  2.3016 -3.1477
  418MOL0     H57621   8.753   2.621   8.267 -2.0502  0.4958  0.2676
  418MOL0     H57622   8.857   2.574   8.404 -1.0530  0.4430 -0.6884
  418MOL0     H57623   8.604   2.747   8.421  1.0927  1.9947  1.7337
  418MOL0     H57624   8.620   2.583   8.473  1.6442  1.2197  4.2494
  418MOL0     H57625   8.734   2.831   8.597  3.9602 -0.6888 -2.0754
  418MOL0     H57626   8.826   2.686   8.613  0.0631 -0.5796 -1.2679
  418MOL0     H57627   8.625   2.582   8.709  1.7454  0.5343 -2.0140
  418MOL0     H57628   8.696   2.709   8.800  0.8300 -0.4014 -0.0378
  418MOL0     H57629   8.460   2.796   8.625 -2.0393  0.4281  1.1726
  418MOL0     H57630   8.553   2.878   8.741 -1.3060  0.1298 -0.6489
  418MOL0     H57631   8.362   2.641   8.794 -2.3443  0.2470  3.0917
  418MOL0     H57632   8.459   2.732   8.917  1.2503 -1.0731 -0.9518
  418MOL0     H57633   8.439   3.018   8.876  0.5839 -0.8777  1.8017
  418MOL0     H57634   8.106   3.184   9.005 -0.8383  0.8812 -0.6735
  418MOL0     H57635   8.135   3.226   8.837  1.8085  1.7632  0.3800
  418MOL0     H57636   8.378   3.216   9.014  1.0527  0.6439  0.1325
  418MOL0     H57637   8.345   3.294   8.863  0.4665 -1.9611 -0.2005
  418MOL0     H57638   8.162   3.452   8.973 -1.7003 -0.0041  2.5266
  418MOL0     H57639   8.236   3.393   9.120 -0.4936  0.4178  0.0860
  418MOL0     H57640   8.344   3.591   9.045 -2.5855 -1.6795  0.8684
  418MOL0     H57641   8.465   3.471   9.019  0.2453  2.5596 -0.2855
  418MOL0     H57642   8.263   3.492   8.634 -0.8422 -1.1562 -0.2579
  418MOL0     H57643   8.047   3.485   8.527 -1.4579 -0.3744 -2.0730
  418MOL0     H57644   8.069   3.614   8.412 -2.1657 -1.5054 -0.8796
  418MOL0     H57645   7.930   3.616   8.515 -0.8339 -3.9839  0.1859
  418MOL0     H57646   8.003   4.138   8.483  0.4296  0.7733 -0.1829
  418MOL0     H57647   7.855   4.331   8.382  3.4377 -0.9020  0.6017
  418MOL0     H57648   7.601   4.575   8.593  2.9124  0.8466  2.6475
  418MOL0     H57649   7.765   4.511   8.590 -0.3332  0.9239  0.2044
  418MOL0     H57650   7.782   4.546   8.336  0.0455  3.4008 -2.5296
  418MOL0     H57651   7.619   4.595   8.327  1.0766 -2.4685 -0.3485
  418MOL0     H57652   7.828   4.733   8.508 -0.1917  1.8328  1.1540
  418MOL0     H57653   7.668   4.803   8.466 -0.2471  1.1955 -3.9700
  418MOL0     H57654   7.727   4.849   8.252  0.6105  2.0698 -0.6255
  418MOL0     H57655   7.888   4.757   8.256  0.4212 -2.1699  2.9664
  418MOL0     H57656   7.815   5.008   8.421  2.3701  0.4954  2.0499
  418MOL0     H57657   7.964   4.936   8.410 -1.8969 -2.1388  1.9574
  418MOL0     H57658   7.943   5.151   8.272  2.0505 -0.0067  0.3793
  418MOL0     H57659   7.825   5.065   8.172 -0.3310  0.9886  1.2500
  418MOL0     H57660   7.995   4.903   8.098  0.2055 -1.6218  4.2944
  418MOL0     H57661   8.103   4.951   8.219 -0.1181  1.8267  2.2075
  418MOL0     H57662   8.191   5.047   8.000  2.0042  0.6526  2.3797
  418MOL0     H57663   8.140   5.173   8.110  0.5985  0.0267  0.2237
  418MOL0     H57664   7.563   4.244   8.679  0.3751 -1.4407  2.8546
  418MOL0     H57665   7.697   4.032   8.755  2.9333 -0.0780 -0.0005
  418MOL0     H57666   8.145   3.925   8.831  1.3579  0.1813 -0.0751
  418MOL0     H57667   8.320   3.806   8.924 -2.7617 -0.2536  1.5154
  418MOL0     H57668   8.868   2.870   7.897 -0.0453 -0.2884 -0.0318
  418MOL0     H57669   9.014   2.872   7.692  3.8278 -1.8939 -3.1773
  418MOL0     H57670   9.323   2.936   7.431  0.5975 -2.3245 -2.5651
  418MOL0     H57671   9.467   2.978   7.245 -1.4074  1.7159  1.6066
  418MOL0     H57672   9.630   2.849   7.109  1.1096 -2.2396 -1.4191
  418MOL0     H57673   9.634   3.030   7.120  1.7409  1.5309  1.4585
  418MOL0     H57674   9.869   3.037   7.033 -2.4704  3.8071 -2.2816
  418MOL0     H57675   9.758   2.986   6.913  1.4602 -2.2795 -1.6280
  418MOL0     H57676   9.918   2.778   7.060  2.0219  0.2519 -1.4847
  418MOL0     H57677   9.800   2.738   6.948 -2.4581  0.2588  2.2360
  418MOL0     H57678  10.043   2.929   6.878  0.2475 -0.0969 -1.5301
  418MOL0     H57679   9.925   2.852   6.770 -2.4529 -2.3404  0.5921
  418MOL0     H57680  10.204   2.548   6.917  2.6384  0.5956 -4.6528
  418MOL0     H57681   9.809   2.886   7.489 -1.8274 -5.2292  1.2628
  418MOL0     H57682   9.643   2.817   7.789 -0.5174  3.6092  3.0146
  418MOL0     H57683   9.787   2.825   7.713 -0.8103 -2.5676 -2.6885
  418MOL0     H57684   9.727   2.973   7.772  1.4233 -0.6201 -1.6916
  419MOL0     O57685   6.123   4.020   8.039 -0.1301 -0.0412  0.0974
  419MOL0     C57686   6.172   4.127   8.074  0.7771  0.4544  0.2733
  419MOL0     O57687   6.125   4.250   8.034  0.3062 -0.1086 -0.3712
  419MOL0     C57688   6.032   4.275   7.937  1.2866  0.5232 -0.2134
  419MOL0     C57689   5.973   4.180   7.851 -0.6975 -0.0972  0.6054
  419MOL0     C57690   5.877   4.217   7.763 -0.1391 -0.5550 -0.6128
  419MOL0     C57691   5.835   4.349   7.766 -1.2143 -0.1817  0.6159
  419MOL0     O57692   5.742   4.392   7.676  0.1251  0.6546 -0.0240
  419MOL0     C57693   5.740   4.325   7.548  0.3487 -0.4667  0.6666
  419MOL0     C57694   5.618   4.375   7.474 -0.5541  0.6538  0.3778
  419MOL0     C57695   5.494   4.376   7.554  0.6264  0.4962  0.6199
  419MOL0     C57696   5.363   4.351   7.465  0.2999 -0.3784 -0.0146
  419MOL0     C57697   5.238   4.323   7.555 -0.2058 -0.9115  0.8164
  419MOL0     C57698   5.117   4.324   7.459  0.8269 -0.4192  1.0300
  419MOL0     C57699   4.999   4.250   7.519 -0.1942  0.9314  0.4328
  419MOL0     C57700   4.871   4.261   7.423 -0.9433  0.9128 -0.8953
  419MOL0     N57701   4.807   4.393   7.406  0.4532  0.5554 -0.0517
  419MOL0     C57702   4.772   4.482   7.508  0.2236 -0.5586 -0.3821
  419MOL0     C57703   4.709   4.582   7.432 -0.0571  0.2320 -0.4977
  419MOL0     C57704   4.632   4.692   7.499 -0.2311 -0.2964 -0.7743
  419MOL0     C57705   4.492   4.702   7.452  0.1085 -0.4113 -0.4460
  419MOL0     C57706   4.441   4.848   7.478 -1.2075 -0.2721  0.8168
  419MOL0     C57707   4.410   4.887   7.620  0.6337  0.3630 -0.5847
  419MOL0     O57708   4.319   5.003   7.621 -0.4434 -0.6270  0.8428
  419MOL0     C57709   4.202   4.986   7.691  0.1701  0.4864 -0.3250
  419MOL0     C57710   4.177   5.058   7.809 -0.0634 -0.3046  0.3692
  419MOL0     C57711   4.070   5.026   7.887  1.0530 -0.8298  0.4210
  419MOL0     C57712   4.071   5.096   8.017  1.2074  0.1046 -0.6652
  419MOL0     C57713   3.957   4.948   7.822  0.7879  0.0259 -0.3073
  419MOL0     C57714   3.820   4.929   7.877  0.1341  0.5445  0.2960
  419MOL0     O57715   3.721   4.924   7.791 -0.5220 -0.4211 -0.2249
  419MOL0     C57716   3.597   4.887   7.834  0.4018 -0.0514  0.6273
  419MOL0     C57717   3.535   4.781   7.780  0.5531 -0.5786 -0.2047
  419MOL0     C57718   3.402   4.740   7.814 -0.2598 -0.8925  0.2928
  419MOL0     C57719   3.334   4.820   7.907  0.7697  0.1410  0.3259
  419MOL0     O57720   3.204   4.805   7.951  0.2773  0.5323 -0.1013
  419MOL0     C57721   3.117   4.739   7.853  1.0219 -0.1479 -0.1817
  419MOL0     C57722   2.990   4.718   7.936 -0.2393  0.2527 -1.2392
  419MOL0     C57723   2.875   4.660   7.856 -0.1201  0.3482  0.5941
  419MOL0     C57724   2.916   4.529   7.787 -0.2729  0.3026  0.2084
  419MOL0     C57725   2.798   4.495   7.687  0.3446  0.0956  0.3397
  419MOL0     C57726   2.806   4.360   7.625  0.5078 -0.1010 -0.8249
  419MOL0     C57727   2.687   4.307   7.539  1.0959  0.1489  0.5614
  419MOL0     C57728   2.717   4.313   7.386 -1.2901 -0.0552 -0.0498
  419MOL0    Cl57729   2.677   4.472   7.315 -0.7092  0.0004  0.0640
  419MOL0     C57730   3.405   4.929   7.961 -0.1297  0.2676 -0.5743
  419MOL0     C57731   3.531   4.962   7.917  0.0374 -0.4075  0.3187
  419MOL0     O57732   3.813   4.922   7.999  0.6134 -1.1001 -0.0585
  419MOL0     C57733   3.978   4.887   7.698  0.3839 -0.0815 -0.0337
  419MOL0     C57734   4.101   4.906   7.638  0.8073  0.8752  0.4808
  419MOL0     N57735   4.716   4.555   7.299  0.2572  0.3769  0.7803
  419MOL0     N57736   4.772   4.444   7.282 -0.6083  0.2260 -0.0556
  419MOL0     C57737   5.892   4.445   7.843 -0.4366  0.9933  0.6018
  419MOL0     C57738   5.990   4.408   7.930 -0.4180  0.3308 -0.0337
  419MOL0     C57739   6.278   4.123   8.177 -0.1105  0.1603  0.4160
  419MOL0     C57740   6.331   4.243   8.214 -0.5876 -0.2468  0.0294
  419MOL0     C57741   6.443   4.243   8.305  0.3294  0.5977 -0.3762
  419MOL0     C57742   6.493   4.123   8.359 -0.2257 -1.0005  0.3033
  419MOL0     O57743   6.609   4.124   8.437 -0.1111 -0.0069  0.1156
  419MOL0     C57744   6.680   4.000   8.474 -0.2201 -0.9268 -0.0427
  419MOL0     C57745   6.773   3.953   8.363 -0.7307 -0.2659 -0.1685
  419MOL0     C57746   6.864   4.070   8.317  0.0287 -0.3394  0.4093
  419MOL0     C57747   6.969   4.003   8.226  0.2063 -1.2330 -0.5771
  419MOL0     C57748   7.049   4.103   8.140 -0.1926  0.6680 -0.1652
  419MOL0     C57749   7.091   4.198   8.069 -0.2498 -0.0078 -0.4536
  419MOL0     C57750   6.426   4.008   8.326 -0.1730 -0.0665 -0.5524
  419MOL0     C57751   6.321   4.000   8.232  0.0247 -0.3633  1.2107
  419MOL0     C57752   6.272   3.862   8.202  0.2630  0.3663 -0.7456
  419MOL0     H57753   5.989   4.075   7.828 -0.3427  0.3691 -1.4658
  419MOL0     H57754   5.822   4.137   7.717 -0.8474 -0.8169  0.6402
  419MOL0     H57755   5.724   4.217   7.557 -0.2781 -0.3954  0.4528
  419MOL0     H57756   5.827   4.337   7.484 -3.0179  1.5313 -4.1418
  419MOL0     H57757   5.643   4.472   7.430 -0.4808  0.4506 -0.0330
  419MOL0     H57758   5.610   4.319   7.380 -0.6624  2.7916 -0.9631
  419MOL0     H57759   5.499   4.302   7.635  0.4887  1.7381  1.8003
  419MOL0     H57760   5.487   4.474   7.602  1.2901  0.7216  0.2718
  419MOL0     H57761   5.350   4.429   7.390  2.7581 -1.3609 -1.5934
  419MOL0     H57762   5.380   4.255   7.414  1.1296  0.5325 -1.5222
  419MOL0     H57763   5.225   4.404   7.628 -0.3529 -1.0040  0.8931
  419MOL0     H57764   5.254   4.229   7.608 -1.0015 -1.2752  0.4290
  419MOL0     H57765   5.105   4.430   7.434  1.4842 -0.4911  0.3635
  419MOL0     H57766   5.149   4.268   7.371  0.3832  3.8329 -2.1850
  419MOL0     H57767   4.966   4.301   7.609 -3.1368 -1.8211  1.0852
  419MOL0     H57768   5.018   4.146   7.545 -0.6285  0.9661  0.9010
  419MOL0     H57769   4.891   4.208   7.329  1.5326 -3.6260  1.7878
  419MOL0     H57770   4.795   4.193   7.462  3.0930 -4.0405 -0.4406
  419MOL0     H57771   4.791   4.461   7.612  1.4785  1.2566 -0.2029
  419MOL0     H57772   4.687   4.781   7.467 -3.7785  2.5229  0.3280
  419MOL0     H57773   4.637   4.684   7.608 -0.4751  0.7680 -0.6814
  419MOL0     H57774   4.486   4.667   7.349 -1.1945  0.1955 -0.6023
  419MOL0     H57775   4.439   4.628   7.514 -0.7607  1.8814  1.7534
  419MOL0     H57776   4.525   4.911   7.446 -1.7521 -1.0239 -2.4555
  419MOL0     H57777   4.358   4.861   7.408  0.2372 -2.7279 -1.5113
  419MOL0     H57778   4.365   4.799   7.669 -0.0789  1.0349 -0.0062
  419MOL0     H57779   4.503   4.907   7.674 -0.9121  5.0419  0.8088
  419MOL0     H57780   4.255   5.132   7.826 -0.6568  0.5743 -0.6096
  419MOL0     H57781   4.169   5.087   8.065  0.6345 -1.0049  0.3566
  419MOL0     H57782   4.006   5.062   8.098  3.3972  4.1726  3.2905
  419MOL0     H57783   4.048   5.203   8.005 -2.7807 -0.8965 -4.6062
  419MOL0     H57784   3.585   4.723   7.703 -0.8051 -1.3577 -0.5319
  419MOL0     H57785   3.360   4.656   7.760 -0.2010  0.0413 -1.2685
  419MOL0     H57786   3.114   4.797   7.760 -0.0220 -4.3393 -3.0235
  419MOL0     H57787   3.155   4.645   7.814 -1.7997 -0.4051 -2.6501
  419MOL0     H57788   3.020   4.646   8.013  1.4965  1.1012 -1.0708
  419MOL0     H57789   2.957   4.814   7.977 -1.0767 -0.7703  0.6187
  419MOL0     H57790   2.857   4.737   7.780  0.6716  0.3112  0.3615
  419MOL0     H57791   2.779   4.651   7.909 -1.5256  2.3293 -1.4401
  419MOL0     H57792   2.925   4.448   7.861 -3.2196  1.0069  1.4930
  419MOL0     H57793   3.007   4.520   7.727 -0.7671 -0.7337 -0.4270
  419MOL0     H57794   2.702   4.504   7.739  0.9447  0.1023  1.4906
  419MOL0     H57795   2.811   4.567   7.606  2.3697  0.9638  1.3712
  419MOL0     H57796   2.817   4.279   7.698 -3.0218  0.3374  0.3713
  419MOL0     H57797   2.896   4.367   7.564 -0.0716  2.6456 -1.5037
  419MOL0     H57798   2.598   4.370   7.553  0.0829 -0.5377 -2.1283
  419MOL0     H57799   2.663   4.206   7.572  1.5072 -0.1270  0.0134
  419MOL0     H57800   2.659   4.227   7.351 -3.5126  0.4014  2.2423
  419MOL0     H57801   2.825   4.293   7.382 -1.4648 -1.2001  0.3220
  419MOL0     H57802   3.368   4.978   8.051  1.2229 -1.5618  1.0467
  419MOL0     H57803   3.594   5.041   7.956  1.8965 -0.5952 -2.0773
  419MOL0     H57804   3.906   4.822   7.648  1.1317 -1.3511  0.4908
  419MOL0     H57805   4.114   4.861   7.540  0.0574  1.4030  0.1315
  419MOL0     H57806   5.856   4.547   7.834 -1.4302  0.5652 -0.5203
  419MOL0     H57807   6.028   4.480   8.002  1.6901 -0.7240 -0.0218
  419MOL0     H57808   6.303   4.341   8.175  1.9204  1.5950  2.4274
  419MOL0     H57809   6.486   4.338   8.335  1.6325  0.1837 -0.8837
  419MOL0     H57810   6.740   4.004   8.565  0.6035 -1.7641 -0.5299
  419MOL0     H57811   6.603   3.927   8.502  0.6255 -2.1801 -0.8884
  419MOL0     H57812   6.708   3.930   8.277 -0.1895  1.1089 -0.9784
  419MOL0     H57813   6.819   3.857   8.388  0.2056  0.1739 -0.1598
  419MOL0     H57814   6.805   4.145   8.262 -2.6705 -2.7715 -0.2972
  419MOL0     H57815   6.906   4.121   8.404  2.6139 -3.7053  1.3196
  419MOL0     H57816   6.920   3.937   8.154  1.0949 -0.4757 -1.9117
  419MOL0     H57817   7.035   3.931   8.276  2.4265 -1.8395 -4.0383
  419MOL0     H57818   7.110   4.281   8.004  1.7857  0.2268  0.3753
  419MOL0     H57819   6.439   3.915   8.381 -1.9105  1.3101  2.4650
  419MOL0     H57820   6.302   3.795   8.282  1.4303 -0.1522 -1.5935
  419MOL0     H57821   6.164   3.845   8.199 -0.0272  1.8072  0.4169
  419MOL0     H57822   6.314   3.833   8.105  0.2237 -0.1107 -0.6213
  420MOL0     O57823  10.477  10.112   9.723  0.3676  0.1838 -0.1288
  420MOL0     C57824  10.467  10.042   9.621  0.6278 -0.9669  0.4563
  420MOL0     O57825  10.525   9.929   9.593  0.6025  0.0659 -0.1192
  420MOL0     C57826  10.635   9.896   9.670 -0.7590 -1.0679  0.4606
  420MOL0     C57827  10.628   9.876   9.804  0.3324  0.0734 -0.2385
  420MOL0     C57828  10.740   9.863   9.878  0.6836  0.8679 -0.4277
  420MOL0     C57829  10.870   9.862   9.819 -0.7399 -0.2778  0.4246
  420MOL0     O57830  10.973   9.857   9.909 -0.2581 -0.0255 -0.7845
  420MOL0     C57831  11.108   9.809   9.866 -0.9213 -0.0821  0.7950
  420MOL0     C57832  11.122   9.664   9.835  0.1992  0.6175 -0.0355
  420MOL0     C57833  11.053   9.575   9.941 -0.4227 -0.0002 -0.6790
  420MOL0     C57834  11.066   9.437   9.884  0.4339 -0.0812  0.6497
  420MOL0     C57835  11.099   9.324   9.977  1.0936 -0.2181  0.4918
  420MOL0     C57836  11.018   9.320  10.109 -0.3045 -0.8049  0.6249
  420MOL0     C57837  11.072   9.211  10.207  0.1582  1.2747  0.2305
  420MOL0     C57838  10.972   9.092  10.205 -0.0548  0.4565  0.6422
  420MOL0     N57839  10.980   9.005  10.320  0.1115 -0.6797  0.2842
  420MOL0     C57840  11.063   8.894  10.329 -0.8820  0.1515 -0.2252
  420MOL0     C57841  11.054   8.850  10.457 -0.5729 -0.5287 -0.2843
  420MOL0     C57842  11.116   8.721  10.505 -0.4164 -0.5139  0.8872
  420MOL0     C57843  11.269   8.724  10.498 -0.1055 -0.1583  0.7542
  420MOL0     C57844  11.327   8.857  10.554 -0.1347  0.1928 -0.2011
  420MOL0     C57845  11.280   8.898  10.694  0.6463 -0.9242 -0.5013
  420MOL0     O57846  11.374   8.994  10.751 -0.0397 -0.1201 -0.4419
  420MOL0     C57847  11.485   8.937  10.807 -0.9323 -0.1735  0.3545
  420MOL0     C57848  11.463   8.873  10.934 -0.1426 -0.2057 -0.8327
  420MOL0     C57849  11.566   8.831  11.017 -0.3811 -0.7963 -0.0555
  420MOL0     C57850  11.529   8.787  11.166  0.2633 -0.3512 -0.8123
  420MOL0     C57851  11.700   8.847  10.974  0.1855 -0.1745  0.1706
  420MOL0     C57852  11.826   8.808  11.053 -0.4180  0.1311 -0.7688
  420MOL0     O57853  11.945   8.841  10.994 -0.4050 -0.0944 -0.5670
  420MOL0     C57854  12.063   8.822  11.063 -0.3263 -0.4824  0.1972
  420MOL0     C57855  12.087   8.730  11.162  0.2194 -0.4879  0.6163
  420MOL0     C57856  12.198   8.739  11.248 -0.0200  0.0071  0.7293
  420MOL0     C57857  12.291   8.845  11.227 -0.5474  0.4424  0.3222
  420MOL0     O57858  12.403   8.857  11.297  0.4064 -0.0714  0.0652
  420MOL0     C57859  12.394   8.825  11.440 -0.0960  0.5150 -0.1441
  420MOL0     C57860  12.423   8.953  11.523  0.3491 -1.0239 -0.2164
  420MOL0     C57861  12.574   8.999  11.526  0.2947 -0.9128 -0.4256
  420MOL0     C57862  12.570   9.156  11.552  0.1575  0.0737 -0.0164
  420MOL0     C57863  12.699   9.225  11.566 -0.5839 -0.8077  0.0370
  420MOL0     C57864  12.800   9.200  11.453 -0.4019  0.4698  0.3504
  420MOL0     C57865  12.936   9.259  11.473  1.1222 -0.5493 -0.3556
  420MOL0     C57866  13.007   9.276  11.336 -0.7173 -0.7856  0.2904
  420MOL0    Cl57867  12.935   9.420  11.260  0.0574  0.2734 -0.1544
  420MOL0     C57868  12.286   8.908  11.096  0.4401 -0.5908  0.2205
  420MOL0     C57869  12.169   8.901  11.029  0.0179 -0.8100  0.2318
  420MOL0     O57870  11.811   8.777  11.171  0.1425 -0.0923  0.4309
  420MOL0     C57871  11.731   8.906  10.848 -0.3792  0.5998 -0.4124
  420MOL0     C57872  11.619   8.950  10.769 -0.6429  0.1697 -0.9590
  420MOL0     N57873  10.965   8.939  10.522 -0.6113  0.1925  0.1064
  420MOL0     N57874  10.915   9.025  10.433  0.4863  0.2185  0.9635
  420MOL0     C57875  10.878   9.877   9.682  0.0677 -0.2357 -0.0444
  420MOL0     C57876  10.761   9.898   9.605  0.0415  0.0590  0.9430
  420MOL0     C57877  10.372  10.093   9.519  1.1009  0.3343 -0.1215
  420MOL0     C57878  10.255  10.154   9.573 -0.0236 -0.5769 -0.3127
  420MOL0     C57879  10.163  10.213   9.487  0.4136 -0.0865 -0.2304
  420MOL0     C57880  10.171  10.193   9.346 -0.2055  0.2176  0.8991
  420MOL0     O57881  10.073  10.246   9.265  0.1491 -0.5573  0.2025
  420MOL0     C57882  10.060  10.222   9.121  0.7598  0.1085 -0.0426
  420MOL0     C57883  10.021  10.075   9.105  0.0006 -0.3464  0.0292
  420MOL0     C57884   9.977  10.028   8.965 -0.0544 -0.0338 -0.4166
  420MOL0     C57885  10.091  10.073   8.866 -0.5470 -0.0876  0.6885
  420MOL0     C57886  10.222  10.025   8.900 -0.6449  0.0654  0.0682
  420MOL0     C57887  10.341   9.999   8.922 -0.0867 -0.6954  0.5771
  420MOL0     C57888  10.288  10.136   9.300 -0.4051  0.1039 -0.8221
  420MOL0     C57889  10.396  10.093   9.383 -0.0044 -0.8682  0.5594
  420MOL0     C57890  10.531  10.065   9.316  0.6258  0.0099  0.5459
  420MOL0     H57891  10.537   9.859   9.861  2.0872 -1.8430  2.2219
  420MOL0     H57892  10.740   9.843   9.985 -0.4784  2.6850 -0.0422
  420MOL0     H57893  11.162   9.819   9.960 -0.3856 -1.5872  0.6595
  420MOL0     H57894  11.152   9.869   9.786 -1.1815  1.1864  1.5698
  420MOL0     H57895  11.091   9.639   9.733 -1.2829 -1.0816  0.7730
  420MOL0     H57896  11.227   9.637   9.847 -0.4776 -2.9580 -1.0716
  420MOL0     H57897  11.112   9.585  10.033  3.6911  1.3169 -3.1843
  420MOL0     H57898  10.949   9.598   9.966  0.1318 -0.7796  2.9147
  420MOL0     H57899  10.975   9.408   9.829  0.0998 -1.0848  1.6898
  420MOL0     H57900  11.142   9.436   9.806 -0.9201 -0.7800 -0.7298
  420MOL0     H57901  11.204   9.341  10.001  1.0028  0.8725  0.2132
  420MOL0     H57902  11.104   9.225   9.931 -0.4835 -0.4505  0.7571
  420MOL0     H57903  11.022   9.416  10.162  0.8441 -0.8315  0.6054
  420MOL0     H57904  10.917   9.311  10.070 -0.1052  0.7074 -0.3143
  420MOL0     H57905  11.080   9.256  10.306  3.4310  2.7282 -0.5714
  420MOL0     H57906  11.174   9.177  10.187  1.0007  3.5490  0.3521
  420MOL0     H57907  10.875   9.142  10.201 -0.1240  0.2497 -1.0985
  420MOL0     H57908  10.991   9.029  10.118  1.0588  3.2821 -1.3065
  420MOL0     H57909  11.123   8.851  10.249  0.6537  1.0322  0.4005
  420MOL0     H57910  11.083   8.645  10.433  3.6955  0.4610 -2.3747
  420MOL0     H57911  11.092   8.690  10.607  0.3616  0.3143  1.3383
  420MOL0     H57912  11.309   8.642  10.558 -0.5916 -2.7871 -2.2649
  420MOL0     H57913  11.291   8.704  10.393 -2.7279 -1.1486  0.3079
  420MOL0     H57914  11.435   8.839  10.555 -0.3812 -1.4635 -0.2484
  420MOL0     H57915  11.313   8.945  10.491  4.0511  0.9882 -0.3369
  420MOL0     H57916  11.179   8.939  10.697  1.5693  1.4469  0.5090
  420MOL0     H57917  11.273   8.815  10.765  0.8849 -1.9636 -1.6637
  420MOL0     H57918  11.362   8.869  10.973  0.4575 -0.6730  0.7617
  420MOL0     H57919  11.568   8.687  11.190  0.3787 -0.7230 -2.4378
  420MOL0     H57920  11.423   8.789  11.190  0.7951  1.3855  1.8087
  420MOL0     H57921  11.570   8.861  11.236  3.8972 -1.1081 -1.8999
  420MOL0     H57922  12.012   8.654  11.183 -0.4558  0.0806  0.2971
  420MOL0     H57923  12.207   8.669  11.330  1.0861 -2.0151 -1.0011
  420MOL0     H57924  12.295   8.798  11.477 -0.2089  1.3482  0.1809
  420MOL0     H57925  12.458   8.737  11.454  1.2141  0.5746 -4.1873
  420MOL0     H57926  12.353   9.028  11.485 -1.4956 -1.5844  1.9405
  420MOL0     H57927  12.389   8.933  11.624 -3.8363 -1.6750 -1.5837
  420MOL0     H57928  12.621   8.982  11.429 -0.1161 -0.4908 -0.7027
  420MOL0     H57929  12.625   8.958  11.614 -0.4867  2.0615  1.5763
  420MOL0     H57930  12.500   9.173  11.634  0.4616 -2.1269  0.7841
  420MOL0     H57931  12.530   9.196  11.458  0.0538  3.1885  1.2373
  420MOL0     H57932  12.664   9.328  11.569  1.9601  0.1424  0.0228
  420MOL0     H57933  12.742   9.196  11.663 -3.7319 -1.8100  1.2521
  420MOL0     H57934  12.767   9.224  11.351  0.0629  3.6308  0.8372
  420MOL0     H57935  12.818   9.092  11.456  0.6593  0.6240  0.1734
  420MOL0     H57936  13.001   9.204  11.541 -1.2957 -2.9457  0.1848
  420MOL0     H57937  12.932   9.357  11.522 -1.5879 -0.6616 -0.2193
  420MOL0     H57938  12.994   9.190  11.269 -2.2046 -0.6400  0.3421
  420MOL0     H57939  13.112   9.296  11.355 -0.2766 -1.8168 -0.9265
  420MOL0     H57940  12.368   8.970  11.062  1.4539 -1.7022  0.5937
  420MOL0     H57941  12.154   8.975  10.951 -1.4920 -2.6044 -1.2960
  420MOL0     H57942  11.833   8.926  10.817 -0.6873  1.6625 -0.7897
  420MOL0     H57943  11.635   8.998  10.673 -2.0058  0.2572 -1.1669
  420MOL0     H57944  10.977   9.893   9.640 -0.1560  2.3699  0.2499
  420MOL0     H57945  10.758   9.933   9.502  1.1016 -0.5754  0.6710
  420MOL0     H57946  10.244  10.163   9.681  1.0810  0.1484 -0.2450
  420MOL0     H57947  10.069  10.254   9.523 -0.6706 -2.1482 -0.5355
  420MOL0     H57948   9.983  10.288   9.080  1.2793  1.5679  1.2497
  420MOL0     H57949  10.154  10.236   9.067  2.1144  0.1287  2.1974
  420MOL0     H57950   9.951  10.049   9.185 -0.1868 -1.5314 -0.5059
  420MOL0     H57951  10.110  10.015   9.127  2.4436  3.1836  0.6212
  420MOL0     H57952   9.981   9.920   8.973  0.0292  0.0768  1.2210
  420MOL0     H57953   9.882  10.075   8.934 -0.0055  1.9171  2.0744
  420MOL0     H57954  10.102  10.181   8.849  1.3683 -0.5496 -1.5185
  420MOL0     H57955  10.070  10.026   8.770  0.1069  4.0152 -1.7361
  420MOL0     H57956  10.443   9.966   8.933  0.5394  0.3443 -1.6261
  420MOL0     H57957  10.304  10.137   9.193 -2.0776  1.0629 -1.0958
  420MOL0     H57958  10.516  10.063   9.208 -0.3094 -2.2542  0.6596
  420MOL0     H57959  10.613  10.124   9.358  3.3169 -1.7340 -1.8889
  420MOL0     H57960  10.560   9.960   9.324  1.2013  0.0435 -0.8830
  421MOL0     O57961  10.418   6.710   8.731 -1.0806  0.8544  0.0874
  421MOL0     C57962  10.347   6.714   8.629  0.5993  0.0044  0.0165
  421MOL0     O57963  10.306   6.834   8.557 -0.1193 -0.0857 -0.2087
  421MOL0     C57964  10.364   6.947   8.607 -0.0864 -0.0849 -0.8188
  421MOL0     C57965  10.300   7.028   8.709 -0.1612  0.1071 -0.5535
  421MOL0     C57966  10.363   7.148   8.743 -0.3067  0.0483 -0.0902
  421MOL0     C57967  10.486   7.184   8.684 -0.0728 -0.2346  1.0149
  421MOL0     O57968  10.541   7.305   8.706 -0.8367  0.1758  0.5078
  421MOL0     C57969  10.630   7.381   8.619  0.6484 -0.1367  0.0115
  421MOL0     C57970  10.773   7.364   8.669  1.0933  1.0227 -0.3222
  421MOL0     C57971  10.868   7.398   8.555 -0.1389  0.5654  0.4135
  421MOL0     C57972  11.009   7.407   8.599 -0.2848 -0.3850 -0.1272
  421MOL0     C57973  11.102   7.454   8.482 -0.1247 -0.4395 -0.6730
  421MOL0     C57974  11.163   7.341   8.397 -0.1042  0.2529  0.4534
  421MOL0     C57975  11.256   7.389   8.287 -0.2391  0.1115 -0.3630
  421MOL0     C57976  11.240   7.313   8.152 -0.6286  0.0992 -0.0562
  421MOL0     N57977  11.310   7.185   8.150 -0.3365  0.7005 -0.5980
  421MOL0     C57978  11.446   7.154   8.157  0.1098 -1.0052  0.4725
  421MOL0     C57979  11.458   7.018   8.146  0.6069 -0.1100  1.2230
  421MOL0     C57980  11.591   6.941   8.124 -0.1099 -0.4410  0.2762
  421MOL0     C57981  11.632   6.947   7.981 -1.0502 -0.8773  0.2904
  421MOL0     C57982  11.753   6.856   7.952  0.0380  0.5615 -0.2110
  421MOL0     C57983  11.794   6.895   7.807  0.4894  0.2804 -0.9026
  421MOL0     O57984  11.929   6.928   7.803  0.0082  1.0997 -0.2824
  421MOL0     C57985  11.974   7.045   7.745  0.1870 -0.0239 -0.4575
  421MOL0     C57986  11.994   7.158   7.824  0.4624  0.4043  0.1311
  421MOL0     C57987  12.072   7.263   7.781 -0.1472  0.1172  0.2138
  421MOL0     C57988  12.101   7.375   7.877  0.5549 -0.6753 -0.3964
  421MOL0     C57989  12.128   7.263   7.655  0.7205 -0.0483  0.2958
  421MOL0     C57990  12.241   7.339   7.608 -0.2564  0.1947 -0.5700
  421MOL0     O57991  12.252   7.362   7.473  0.5223 -0.7864  0.3554
  421MOL0     C57992  12.367   7.399   7.418 -0.3752 -0.5706 -0.5029
  421MOL0     C57993  12.380   7.525   7.358  0.6588 -0.2022 -0.5027
  421MOL0     C57994  12.511   7.578   7.318  0.1279  1.0209  0.2966
  421MOL0     C57995  12.620   7.497   7.320 -0.8997  0.0166 -0.0814
  421MOL0     O57996  12.739   7.541   7.264 -0.4003  0.0083  0.4019
  421MOL0     C57997  12.856   7.542   7.346  0.5269 -1.3050  0.2982
  421MOL0     C57998  12.989   7.557   7.252  0.4431 -0.0781 -0.1526
  421MOL0     C57999  12.992   7.454   7.138  0.4551 -0.1372 -0.5157
  421MOL0     C58000  13.012   7.316   7.204  0.4744  0.6081  0.8280
  421MOL0     C58001  13.042   7.211   7.091  0.1296 -0.4900 -0.3800
  421MOL0     C58002  13.066   7.068   7.145  0.4562  0.1112 -0.8337
  421MOL0     C58003  13.203   7.058   7.217  0.4689  0.0907  0.9353
  421MOL0     C58004  13.248   6.920   7.260 -0.0773  0.1875  1.0460
  421MOL0    Cl58005  13.282   6.827   7.115  0.2077 -0.1896 -0.2888
  421MOL0     C58006  12.610   7.367   7.377  0.2541  0.8002 -0.4561
  421MOL0     C58007  12.482   7.312   7.421  0.8129 -0.2674  0.8780
  421MOL0     O58008  12.323   7.375   7.688  0.6059  0.3221  0.1541
  421MOL0     C58009  12.104   7.146   7.575 -0.4929 -0.3992 -1.1167
  421MOL0     C58010  12.025   7.042   7.617 -0.3621  0.1788  0.3603
  421MOL0     N58011  11.327   6.975   8.148 -0.3641 -0.1034  0.7550
  421MOL0     N58012  11.244   7.067   8.154  0.4040 -0.3087 -0.0723
  421MOL0     C58013  10.552   7.099   8.594 -0.4115 -0.1372  0.1853
  421MOL0     C58014  10.486   6.984   8.555  0.1380 -0.6540 -0.1181
  421MOL0     C58015  10.285   6.587   8.582  0.0645 -0.7689 -0.6613
  421MOL0     C58016  10.193   6.598   8.474 -0.1537  0.3002  0.1952
  421MOL0     C58017  10.130   6.479   8.424  0.3962 -1.2199  0.3237
  421MOL0     C58018  10.160   6.357   8.478  0.8659 -0.6864  0.6480
  421MOL0     O58019  10.106   6.236   8.435  0.2647 -0.0318  0.1420
  421MOL0     C58020  10.202   6.142   8.388 -0.1303  0.6486 -0.0600
  421MOL0     C58021  10.172   6.105   8.243  0.1642  0.7367 -0.3469
  421MOL0     C58022  10.172   6.229   8.157 -0.4050 -1.0279 -1.7786
  421MOL0     C58023  10.302   6.299   8.132  0.6570 -1.1846  0.2702
  421MOL0     C58024  10.292   6.448   8.112 -0.5234  0.6353  0.2953
  421MOL0     C58025  10.297   6.570   8.107 -0.0984  0.2528 -0.6844
  421MOL0     C58026  10.251   6.347   8.579 -0.7241 -0.1598 -0.2365
  421MOL0     C58027  10.317   6.457   8.634  0.1690  0.1688 -0.0133
  421MOL0     C58028  10.415   6.426   8.745  0.5341  0.0243 -0.1672
  421MOL0     H58029  10.204   6.993   8.745 -0.2923 -0.1551 -1.1582
  421MOL0     H58030  10.309   7.218   8.807 -2.2909 -1.0095 -0.5097
  421MOL0     H58031  10.599   7.485   8.625 -1.9425 -0.6516 -2.4426
  421MOL0     H58032  10.614   7.352   8.515  1.6793  3.5833 -1.3114
  421MOL0     H58033  10.796   7.422   8.759  2.1451 -1.0322  0.8006
  421MOL0     H58034  10.783   7.259   8.697 -1.1913  0.9234  0.3627
  421MOL0     H58035  10.858   7.318   8.481 -1.3353  0.7079  0.3920
  421MOL0     H58036  10.840   7.495   8.513  0.6023  0.6735  0.1485
  421MOL0     H58037  11.014   7.463   8.693  0.9908 -3.9925  2.2225
  421MOL0     H58038  11.055   7.309   8.615 -0.5882 -0.6328 -0.7254
  421MOL0     H58039  11.183   7.515   8.522 -0.4217 -1.6364  1.9586
  421MOL0     H58040  11.047   7.516   8.410  1.4721  0.1651 -1.3996
  421MOL0     H58041  11.226   7.288   8.470  0.3292 -1.4527 -1.0636
  421MOL0     H58042  11.081   7.273   8.372 -2.3873  2.8758  0.3958
  421MOL0     H58043  11.359   7.379   8.324 -0.4791  4.2377  1.9866
  421MOL0     H58044  11.224   7.493   8.277 -1.9101 -0.5453 -2.7426
  421MOL0     H58045  11.135   7.304   8.124 -1.2896  0.9212  2.0116
  421MOL0     H58046  11.287   7.378   8.077 -0.2622 -0.6749 -0.5146
  421MOL0     H58047  11.531   7.222   8.155  0.6378 -1.6256 -2.5661
  421MOL0     H58048  11.579   6.837   8.155  0.2406 -0.3045  0.8914
  421MOL0     H58049  11.667   6.979   8.193  0.2054 -2.5171  1.1411
  421MOL0     H58050  11.549   6.918   7.915 -0.0717 -0.6731 -1.0895
  421MOL0     H58051  11.656   7.053   7.968  1.0958 -1.0704  2.1362
  421MOL0     H58052  11.837   6.879   8.019  1.3125  0.7368 -1.7976
  421MOL0     H58053  11.730   6.750   7.964  1.0235  0.4966  1.4051
  421MOL0     H58054  11.775   6.820   7.729  1.0878 -0.3669 -0.4481
  421MOL0     H58055  11.741   6.985   7.775 -1.6247 -1.0106 -1.2364
  421MOL0     H58056  11.969   7.154   7.929  1.8899 -1.1808  0.4631
  421MOL0     H58057  12.197   7.360   7.927 -0.6098  0.7195  2.4225
  421MOL0     H58058  12.024   7.393   7.952  0.8157 -1.1050 -0.0191
  421MOL0     H58059  12.104   7.465   7.814 -1.0719 -1.1894 -1.2737
  421MOL0     H58060  12.302   7.600   7.355 -0.4206 -1.3051 -1.2877
  421MOL0     H58061  12.525   7.673   7.267 -0.9195 -1.2368 -4.8430
  421MOL0     H58062  12.843   7.615   7.426  1.7970 -0.5513 -0.1514
  421MOL0     H58063  12.884   7.445   7.389  2.6890 -0.0110  2.0398
  421MOL0     H58064  12.991   7.663   7.225 -1.1511  0.7703  2.6354
  421MOL0     H58065  13.086   7.555   7.303  0.4359 -0.9204 -0.1422
  421MOL0     H58066  13.062   7.479   7.058  1.3759 -2.1872 -0.4057
  421MOL0     H58067  12.895   7.453   7.087 -0.7671  0.6774  1.6610
  421MOL0     H58068  12.924   7.278   7.257 -0.4501  1.5693  0.0161
  421MOL0     H58069  13.087   7.311   7.283 -1.1420  0.1080  2.4015
  421MOL0     H58070  12.962   7.192   7.019  1.9162 -0.6053 -2.4421
  421MOL0     H58071  13.124   7.252   7.031 -3.7735  4.1786 -3.2415
  421MOL0     H58072  13.065   6.998   7.061 -0.7244 -3.3512  1.8261
  421MOL0     H58073  12.973   7.050   7.199  1.0688 -2.6672 -0.5658
  421MOL0     H58074  13.199   7.114   7.311 -2.0640 -0.9887  1.5702
  421MOL0     H58075  13.276   7.100   7.147  0.1836 -0.3718  0.3517
  421MOL0     H58076  13.178   6.868   7.326 -0.3565 -1.0052 -0.1516
  421MOL0     H58077  13.345   6.920   7.312  1.0966 -1.2222 -1.0115
  421MOL0     H58078  12.696   7.302   7.387 -1.7880 -1.8368  1.3235
  421MOL0     H58079  12.476   7.212   7.463  2.7836 -0.9387 -0.2767
  421MOL0     H58080  12.152   7.121   7.481  1.1607  1.4631 -0.8258
  421MOL0     H58081  12.021   6.946   7.565  1.5179  0.6704 -0.7854
  421MOL0     H58082  10.652   7.113   8.553 -1.0887  1.2330 -1.0943
  421MOL0     H58083  10.523   6.911   8.484  0.4659 -2.6939  2.0301
  421MOL0     H58084  10.168   6.692   8.427  0.8997  0.4544 -0.0694
  421MOL0     H58085  10.061   6.496   8.342  1.7519  3.3553 -0.1377
  421MOL0     H58086  10.303   6.184   8.389  0.0982  0.1183 -0.4019
  421MOL0     H58087  10.207   6.050   8.448  1.5768 -0.4023 -1.7054
  421MOL0     H58088  10.077   6.051   8.238  0.5058 -0.1538  1.7105
  421MOL0     H58089  10.259   6.043   8.219  0.6513  1.9179 -1.8235
  421MOL0     H58090  10.128   6.205   8.059  0.6097 -2.9809 -1.8095
  421MOL0     H58091  10.100   6.301   8.197 -1.0871 -1.0934 -2.8293
  421MOL0     H58092  10.364   6.258   8.052 -0.6043 -2.5725 -0.0375
  421MOL0     H58093  10.351   6.285   8.229 -2.4667 -2.1747  1.8666
  421MOL0     H58094  10.309   6.675   8.088 -0.4382  1.3681  3.9365
  421MOL0     H58095  10.263   6.251   8.628 -1.6392 -0.0919  0.1273
  421MOL0     H58096  10.430   6.318   8.761  0.1247 -0.4738 -2.7402
  421MOL0     H58097  10.516   6.456   8.715  0.5202 -0.1884 -0.4336
  421MOL0     H58098  10.388   6.476   8.838  2.7780  2.1563 -0.5616
  422MOL0     O58099   0.516   3.910   2.785  0.1492  0.9422 -0.8162
  422MOL0     C58100   0.400   3.898   2.822 -0.2701  0.8062  0.0045
  422MOL0     O58101   0.313   3.817   2.755 -0.7264 -0.0350 -0.0962
  422MOL0     C58102   0.343   3.763   2.635 -0.4797  0.3691  0.6969
  422MOL0     C58103   0.414   3.823   2.529 -0.9404 -0.1002 -0.4300
  422MOL0     C58104   0.426   3.758   2.408 -0.4627  0.3518 -0.2519
  422MOL0     C58105   0.355   3.643   2.378  0.2993  0.2618  0.4486
  422MOL0     O58106   0.329   3.586   2.253 -0.0717 -0.6053  1.0412
  422MOL0     C58107   0.405   3.632   2.150 -0.0206  0.6022  0.3146
  422MOL0     C58108   0.370   3.565   2.022 -1.0313 -0.1283  0.7576
  422MOL0     C58109   0.468   3.582   1.909 -0.5396 -0.0556 -1.3263
  422MOL0     C58110   0.429   3.494   1.800 -0.2848  0.2548 -0.5390
  422MOL0     C58111   0.546   3.464   1.705  0.6356  0.7713 -0.6453
  422MOL0     C58112   0.493   3.387   1.587  0.2791  0.4469 -0.4239
  422MOL0     C58113   0.595   3.355   1.476  0.3491  0.1020  0.5713
  422MOL0     C58114   0.676   3.477   1.418  0.4430 -0.4397 -0.4681
  422MOL0     N58115   0.715   3.446   1.276  0.4045 -0.0945 -0.2429
  422MOL0     C58116   0.762   3.323   1.228 -0.2372 -0.6342 -0.3186
  422MOL0     C58117   0.751   3.335   1.095  0.0214  0.3474 -0.5679
  422MOL0     C58118   0.785   3.227   1.000 -1.1300  1.0013  0.2727
  422MOL0     C58119   0.674   3.129   0.981  0.2500  0.6626  0.8909
  422MOL0     C58120   0.715   3.001   0.905 -0.7963 -0.6507  0.4834
  422MOL0     C58121   0.603   2.891   0.887  0.2528 -0.1903 -0.3932
  422MOL0     O58122   0.493   2.959   0.830  0.5446 -0.0575 -0.9872
  422MOL0     C58123   0.385   2.948   0.909  0.8960  0.2536  0.1414
  422MOL0     C58124   0.309   3.067   0.925 -0.3798  0.8894 -0.5625
  422MOL0     C58125   0.181   3.076   0.984  0.1077  0.4648 -0.0348
  422MOL0     C58126   0.099   3.199   0.967  0.4425  0.2419  0.2973
  422MOL0     C58127   0.141   2.947   1.036  0.5140 -0.2335  0.0446
  422MOL0     C58128   0.004   2.930   1.101  0.1107  0.8158  0.0241
  422MOL0     O58129   0.003   2.828   1.196 -0.9538  0.6459  0.0562
  422MOL0     C58130  -0.121   2.813   1.264 -0.2817 -0.1146  0.7354
  422MOL0     C58131  -0.176   2.907   1.349  0.3215  0.1006  0.2143
  422MOL0     C58132  -0.285   2.881   1.437 -0.1644 -0.1392 -1.1963
  422MOL0     C58133  -0.353   2.755   1.425  0.9704 -0.0370 -0.2859
  422MOL0     O58134  -0.468   2.716   1.474  0.3471  0.3339 -0.0515
  422MOL0     C58135  -0.510   2.773   1.599 -0.0689 -0.3073 -0.8782
  422MOL0     C58136  -0.654   2.738   1.630 -0.3037  0.0372  0.6338
  422MOL0     C58137  -0.755   2.803   1.532 -0.7882  0.6798  1.1276
  422MOL0     C58138  -0.787   2.951   1.573 -0.1009 -0.5558 -1.0161
  422MOL0     C58139  -0.919   3.006   1.521 -0.1038 -0.4321 -0.0634
  422MOL0     C58140  -1.048   2.933   1.566 -0.0329  0.2324 -0.7388
  422MOL0     C58141  -1.054   2.872   1.713  0.5391  0.4576  0.4938
  422MOL0     C58142  -1.189   2.806   1.730  0.7901 -0.0139  0.2245
  422MOL0    Cl58143  -1.307   2.903   1.826  0.3045 -0.7936 -0.4148
  422MOL0     C58144  -0.295   2.667   1.333  0.0469 -0.1629  0.1992
  422MOL0     C58145  -0.181   2.687   1.263  0.4068  0.9726  0.2743
  422MOL0     O58146  -0.099   3.000   1.076  0.2844  0.5480  0.2729
  422MOL0     C58147   0.217   2.834   1.038 -0.0446  0.1556  0.4353
  422MOL0     C58148   0.337   2.831   0.959  0.0508 -0.8067  0.3738
  422MOL0     N58149   0.689   3.454   1.065 -0.1537  0.5719 -0.1782
  422MOL0     N58150   0.664   3.516   1.172 -0.7160  0.6880  0.3934
  422MOL0     C58151   0.266   3.589   2.476 -1.2359 -0.1882 -0.1872
  422MOL0     C58152   0.277   3.642   2.613  0.3382 -1.0727  1.0767
  422MOL0     C58153   0.344   3.976   2.939 -0.1702  0.0282  0.1104
  422MOL0     C58154   0.207   3.981   2.959  0.9809  0.4042  0.3071
  422MOL0     C58155   0.160   4.049   3.072  0.1866 -0.7547  0.8782
  422MOL0     C58156   0.239   4.105   3.163 -0.2163 -0.4295 -0.8235
  422MOL0     O58157   0.189   4.191   3.265  0.0189  0.5839 -0.2796
  422MOL0     C58158   0.203   4.130   3.396 -0.0958 -0.4735 -0.0250
  422MOL0     C58159   0.074   4.162   3.487  0.2287  0.3630  0.0412
  422MOL0     C58160  -0.059   4.146   3.402  0.2762  0.4026 -0.9400
  422MOL0     C58161  -0.187   4.157   3.487 -0.3923 -0.7861  0.3280
  422MOL0     C58162  -0.210   4.295   3.546  0.5445 -0.4415 -0.2575
  422MOL0     C58163  -0.198   4.416   3.574 -0.0393  0.2722 -0.1313
  422MOL0     C58164   0.379   4.092   3.147 -0.4364 -0.0079 -0.1832
  422MOL0     C58165   0.439   4.030   3.032  1.0339  0.0466 -1.4348
  422MOL0     C58166   0.589   4.058   3.026 -0.1265 -0.3908 -0.5474
  422MOL0     H58167   0.456   3.922   2.543  1.1538 -1.3576  3.5296
  422MOL0     H58168   0.487   3.810   2.336 -2.5193  1.6746 -1.1305
  422MOL0     H58169   0.512   3.624   2.173  0.6037 -2.1632 -2.8715
  422MOL0     H58170   0.384   3.738   2.129 -0.8728  0.2355 -0.7754
  422MOL0     H58171   0.365   3.460   2.052 -0.0578 -0.7633 -1.1151
  422MOL0     H58172   0.274   3.600   1.983 -0.1729  1.3457 -0.1305
  422MOL0     H58173   0.483   3.684   1.874  0.2355 -0.9242 -3.7519
  422MOL0     H58174   0.566   3.542   1.937  0.6370  2.2675 -1.9326
  422MOL0     H58175   0.372   3.404   1.825  0.0066  0.7698  2.3746
  422MOL0     H58176   0.350   3.550   1.748 -0.4845  0.0998 -0.4022
  422MOL0     H58177   0.607   3.391   1.760 -1.9045  0.5878  2.1586
  422MOL0     H58178   0.606   3.550   1.673  1.9204  0.0371 -0.2779
  422MOL0     H58179   0.442   3.299   1.626 -1.0363  1.0836 -0.6264
  422MOL0     H58180   0.408   3.438   1.540 -0.5265  1.4222  1.9106
  422MOL0     H58181   0.553   3.285   1.404 -3.5945  2.3737  0.3680
  422MOL0     H58182   0.670   3.293   1.527  0.7643 -0.8455 -1.1196
  422MOL0     H58183   0.605   3.560   1.418  0.0245 -0.7689 -1.8473
  422MOL0     H58184   0.759   3.499   1.486  1.1748 -0.6597 -1.2567
  422MOL0     H58185   0.802   3.243   1.289 -0.4505  1.1929  2.3934
  422MOL0     H58186   0.877   3.178   1.032  0.5193  3.2056 -0.7634
  422MOL0     H58187   0.817   3.267   0.903  0.5558 -1.6192 -0.3489
  422MOL0     H58188   0.642   3.099   1.081  0.9139  0.1225  0.9465
  422MOL0     H58189   0.601   3.178   0.915  1.4836 -1.3016 -2.1723
  422MOL0     H58190   0.749   3.036   0.807  1.4359 -0.6878  1.1805
  422MOL0     H58191   0.794   2.949   0.960 -0.2694  0.1175  0.4634
  422MOL0     H58192   0.633   2.813   0.817 -3.4737  0.0669 -2.5704
  422MOL0     H58193   0.575   2.849   0.985 -1.7363 -0.4231 -1.0142
  422MOL0     H58194   0.342   3.161   0.882  0.6243  1.8706  2.1353
  422MOL0     H58195   0.033   3.209   1.054 -0.9536  1.0584 -0.8053
  422MOL0     H58196   0.037   3.194   0.876  0.8629  0.8469 -0.0288
  422MOL0     H58197   0.162   3.288   0.965  4.6328 -2.4669 -0.8516
  422MOL0     H58198  -0.110   2.993   1.350  1.8897 -1.0295 -0.6740
  422MOL0     H58199  -0.328   2.959   1.499  2.1971 -0.8482  1.5235
  422MOL0     H58200  -0.456   2.745   1.690 -1.1115  1.0910  0.2081
  422MOL0     H58201  -0.506   2.881   1.586  6.7203 -0.0951 -0.6320
  422MOL0     H58202  -0.662   2.632   1.605 -4.2673  0.6125 -1.3201
  422MOL0     H58203  -0.672   2.759   1.736 -0.4476  2.2349  0.2128
  422MOL0     H58204  -0.838   2.733   1.518  2.4297 -3.3958  0.6825
  422MOL0     H58205  -0.717   2.809   1.430 -0.1904 -2.3810  1.0734
  422MOL0     H58206  -0.705   3.016   1.543 -2.9594  1.6213 -5.1046
  422MOL0     H58207  -0.798   2.958   1.682 -1.0756 -2.4203 -0.9404
  422MOL0     H58208  -0.935   3.111   1.548  2.3530  0.0441 -0.2858
  422MOL0     H58209  -0.910   3.001   1.412 -1.9207 -2.4629 -0.1964
  422MOL0     H58210  -1.055   2.847   1.499  1.4456 -0.3108 -0.2491
  422MOL0     H58211  -1.135   2.994   1.538 -0.2919 -0.4857 -1.5362
  422MOL0     H58212  -1.028   2.941   1.793  0.1255 -1.0769  2.0026
  422MOL0     H58213  -0.989   2.786   1.724 -0.3768  0.1195  4.8071
  422MOL0     H58214  -1.174   2.708   1.776  3.8477 -1.0852 -2.6368
  422MOL0     H58215  -1.236   2.790   1.633 -0.6298  5.5002 -0.3434
  422MOL0     H58216  -0.329   2.566   1.353  0.6541 -0.0600  1.9415
  422MOL0     H58217  -0.153   2.605   1.198 -2.4491 -0.4206  0.6659
  422MOL0     H58218   0.180   2.736   1.069 -0.7470 -0.0756 -1.0478
  422MOL0     H58219   0.399   2.744   0.934 -1.2351 -0.9478 -2.7690
  422MOL0     H58220   0.200   3.506   2.453 -1.6989  0.3778 -0.9217
  422MOL0     H58221   0.214   3.604   2.693  0.0672 -0.2039  1.2923
  422MOL0     H58222   0.135   3.945   2.886  2.0068 -0.1361 -0.4683
  422MOL0     H58223   0.053   4.050   3.085  0.2600 -1.7291  1.7124
  422MOL0     H58224   0.217   4.023   3.378  0.7236 -0.5355  0.9338
  422MOL0     H58225   0.291   4.169   3.448  1.2965 -2.4463 -0.7727
  422MOL0     H58226   0.073   4.261   3.532 -2.8795  0.9077 -1.0049
  422MOL0     H58227   0.060   4.093   3.571 -0.5343  0.1400 -0.2634
  422MOL0     H58228  -0.073   4.215   3.319 -0.9838 -1.9333 -2.8004
  422MOL0     H58229  -0.059   4.043   3.365  0.3119 -0.7695  1.9948
  422MOL0     H58230  -0.182   4.088   3.572  0.6406  0.0653  0.9778
  422MOL0     H58231  -0.275   4.136   3.425  0.6374  0.6313 -1.7408
  422MOL0     H58232  -0.195   4.521   3.594 -1.3130  0.8545 -2.6412
  422MOL0     H58233   0.450   4.140   3.214  0.1702  1.7250 -1.9566
  422MOL0     H58234   0.618   4.120   2.941  0.6471 -1.2753 -0.9423
  422MOL0     H58235   0.635   4.106   3.112 -0.4866  1.6937 -1.4662
  422MOL0     H58236   0.645   3.966   3.009  1.0571  0.2819 -0.3437
  423MOL0     O58237   6.555   1.387   6.882  0.3483  0.5742  0.2250
  423MOL0     C58238   6.530   1.510   6.880  0.1795  0.5323 -0.8464
  423MOL0     O58239   6.543   1.586   6.772 -0.4089  0.9627 -0.2946
  423MOL0     C58240   6.577   1.515   6.656  0.7890 -0.0246 -0.4848
  423MOL0     C58241   6.700   1.477   6.615  0.3937  0.2241  0.9037
  423MOL0     C58242   6.723   1.404   6.495 -0.0947 -0.0732 -0.2574
  423MOL0     C58243   6.619   1.378   6.410  0.4033 -0.5814  0.0860
  423MOL0     O58244   6.653   1.321   6.287  0.4125 -0.7194  0.5987
  423MOL0     C58245   6.566   1.345   6.179  0.7635 -0.7064  0.1670
  423MOL0     C58246   6.647   1.311   6.050  0.6655  0.2257  1.0296
  423MOL0     C58247   6.560   1.320   5.914  0.0113  0.4251 -0.8416
  423MOL0     C58248   6.652   1.283   5.793 -0.0615  0.6485  0.2622
  423MOL0     C58249   6.694   1.142   5.781 -0.7564  0.0555  0.4557
  423MOL0     C58250   6.780   1.129   5.662 -0.7125  0.3635 -0.5211
  423MOL0     C58251   6.855   0.992   5.668  0.8833 -0.0125  0.5355
  423MOL0     C58252   6.939   0.951   5.794 -0.5526  0.4160 -0.7792
  423MOL0     N58253   7.056   1.038   5.817  0.3962 -0.5214 -1.2102
  423MOL0     C58254   7.184   0.993   5.839  0.8128 -0.4072 -0.6411
  423MOL0     C58255   7.256   1.098   5.887 -0.0626 -0.3359  0.6254
  423MOL0     C58256   7.413   1.097   5.908  0.9959 -0.6199 -0.3816
  423MOL0     C58257   7.471   1.032   6.033  0.4861 -0.1054 -0.4077
  423MOL0     C58258   7.413   1.067   6.173 -0.3456 -0.5262  0.0888
  423MOL0     C58259   7.285   0.998   6.206  0.0862 -0.3213  0.5645
  423MOL0     O58260   7.165   1.068   6.158 -0.4179  0.1658 -0.2170
  423MOL0     C58261   7.124   1.181   6.221  0.4217 -0.3152 -0.2401
  423MOL0     C58262   7.197   1.236   6.332 -0.5120 -0.0794 -0.4568
  423MOL0     C58263   7.161   1.359   6.388  0.0683 -0.1827  0.4588
  423MOL0     C58264   7.244   1.412   6.505  0.5666 -0.3708  0.2338
  423MOL0     C58265   7.048   1.428   6.341  0.1669 -0.8856 -0.6859
  423MOL0     C58266   6.996   1.560   6.386 -0.2898 -1.0255 -0.3422
  423MOL0     O58267   6.888   1.615   6.323 -0.3612  0.5672  0.0232
  423MOL0     C58268   6.863   1.742   6.355  0.9378  0.4561  0.2717
  423MOL0     C58269   6.739   1.778   6.414 -0.1600  0.0581 -0.0236
  423MOL0     C58270   6.725   1.919   6.454 -0.3353  0.0502  0.0492
  423MOL0     C58271   6.809   2.019   6.404 -0.8190 -0.0621  0.6826
  423MOL0     O58272   6.798   2.150   6.434 -0.2591  0.3329 -0.0275
  423MOL0     C58273   6.727   2.222   6.335  0.4634 -0.0746 -0.7001
  423MOL0     C58274   6.643   2.316   6.415 -0.2355  0.3621 -1.2943
  423MOL0     C58275   6.555   2.388   6.314 -0.2853  0.0583  0.1006
  423MOL0     C58276   6.462   2.497   6.383  0.2236 -0.1954 -0.0381
  423MOL0     C58277   6.399   2.581   6.262 -0.7766  0.7621 -1.0848
  423MOL0     C58278   6.297   2.504   6.175 -0.6486  0.1522  0.6007
  423MOL0     C58279   6.170   2.469   6.250 -0.2633  0.3636  0.3033
  423MOL0     C58280   6.087   2.363   6.174 -0.3755 -0.8226  0.0686
  423MOL0    Cl58281   6.042   2.437   6.015  0.2422  0.1315 -0.0978
  423MOL0     C58282   6.927   1.975   6.348 -0.8555  0.1861  0.2441
  423MOL0     C58283   6.956   1.838   6.321 -0.2203 -0.0567  0.3763
  423MOL0     O58284   7.046   1.610   6.486  0.9641 -0.9752  0.4933
  423MOL0     C58285   6.982   1.367   6.230  0.6992  0.8794 -0.2081
  423MOL0     C58286   7.018   1.240   6.179 -0.2651  0.0702  0.0734
  423MOL0     N58287   7.179   1.208   5.860 -0.3557 -0.7932  0.3437
  423MOL0     N58288   7.066   1.174   5.811 -0.4267 -0.5587  0.3994
  423MOL0     C58289   6.481   1.410   6.452 -0.4907  0.1738 -0.5075
  423MOL0     C58290   6.466   1.481   6.572  0.2940 -0.3106 -1.2177
  423MOL0     C58291   6.487   1.576   7.001 -0.8144  0.3534  0.6381
  423MOL0     C58292   6.359   1.630   6.996 -0.4875  0.1837 -0.4852
  423MOL0     C58293   6.304   1.683   7.115  0.7144  0.0867 -0.8863
  423MOL0     C58294   6.380   1.684   7.238  0.2196 -0.1105  0.3422
  423MOL0     O58295   6.341   1.744   7.357 -0.0385  0.8941  0.1854
  423MOL0     C58296   6.231   1.839   7.376 -0.2818 -0.8596 -0.5092
  423MOL0     C58297   6.279   1.982   7.402  0.0287  0.1057 -0.1561
  423MOL0     C58298   6.372   2.034   7.295 -0.3026  0.8764  0.2033
  423MOL0     C58299   6.418   2.181   7.304  0.9745 -0.6385  0.0919
  423MOL0     C58300   6.485   2.212   7.431 -0.2372 -0.3073  0.5767
  423MOL0     C58301   6.511   2.244   7.540 -0.0247  0.1130  0.8510
  423MOL0     C58302   6.510   1.639   7.233  0.0014 -0.8777  0.1573
  423MOL0     C58303   6.565   1.585   7.116  0.3326 -0.9903 -0.2551
  423MOL0     C58304   6.707   1.531   7.124 -0.3772 -0.0882 -0.3344
  423MOL0     H58305   6.789   1.505   6.671 -0.1352 -0.7339  2.2586
  423MOL0     H58306   6.827   1.381   6.473 -0.9014 -2.6955 -1.7198
  423MOL0     H58307   6.514   1.440   6.165 -1.9181 -2.2644 -1.2972
  423MOL0     H58308   6.489   1.268   6.194 -1.0877  1.5566  3.4373
  423MOL0     H58309   6.731   1.380   6.040 -0.4039  1.3121 -1.2118
  423MOL0     H58310   6.692   1.212   6.060  1.7724  0.6918  0.7901
  423MOL0     H58311   6.474   1.252   5.920 -1.4249  2.2599  0.6329
  423MOL0     H58312   6.535   1.426   5.902  0.1685  0.7646  1.3986
  423MOL0     H58313   6.597   1.317   5.705 -0.6298  2.2421  1.1870
  423MOL0     H58314   6.732   1.358   5.787  2.8533 -2.3473 -1.8242
  423MOL0     H58315   6.607   1.077   5.782  0.1473 -1.3891 -2.6198
  423MOL0     H58316   6.754   1.121   5.870  1.0705 -1.9572 -1.1302
  423MOL0     H58317   6.711   1.140   5.578  1.1685 -0.1624 -2.2094
  423MOL0     H58318   6.849   1.213   5.655  0.1350 -0.3969 -1.7101
  423MOL0     H58319   6.921   0.999   5.582 -1.0808  2.9117 -0.9136
  423MOL0     H58320   6.781   0.914   5.647 -2.0503  1.7384  3.4988
  423MOL0     H58321   6.868   0.945   5.877  0.3100  0.3689 -0.0223
  423MOL0     H58322   6.978   0.849   5.789 -0.9999 -0.0175  2.4736
  423MOL0     H58323   7.217   0.890   5.830  1.0224 -0.3878 -0.1861
  423MOL0     H58324   7.438   1.202   5.888  0.5279 -1.0747 -3.9175
  423MOL0     H58325   7.457   1.044   5.823  2.2103 -2.0924  1.1015
  423MOL0     H58326   7.475   0.923   6.030  1.9827 -0.2269  2.3699
  423MOL0     H58327   7.573   1.070   6.018  0.4522 -0.1066 -0.6556
  423MOL0     H58328   7.492   1.031   6.241 -0.3285 -0.2065  0.2418
  423MOL0     H58329   7.404   1.175   6.184  2.2447 -0.3679  1.4780
  423MOL0     H58330   7.294   0.899   6.162 -0.2477 -0.4127  0.6990
  423MOL0     H58331   7.280   0.976   6.313  0.8099  0.3941  0.7552
  423MOL0     H58332   7.285   1.191   6.376 -0.1189 -0.3866 -1.5343
  423MOL0     H58333   7.342   1.370   6.528 -0.2400 -0.4113  4.5191
  423MOL0     H58334   7.180   1.386   6.590 -2.2336 -0.2218 -1.6678
  423MOL0     H58335   7.271   1.518   6.502  1.7321 -0.6769 -1.6266
  423MOL0     H58336   6.661   1.709   6.445  0.5853 -0.9923 -0.4202
  423MOL0     H58337   6.636   1.962   6.500 -1.5187  0.9556 -2.8145
  423MOL0     H58338   6.803   2.283   6.286  0.3626 -1.6550 -2.9809
  423MOL0     H58339   6.673   2.168   6.256 -0.2366  2.5662 -2.1548
  423MOL0     H58340   6.585   2.250   6.480 -0.8037  0.4941 -1.6577
  423MOL0     H58341   6.708   2.384   6.471 -1.8601  3.4179 -2.8568
  423MOL0     H58342   6.485   2.319   6.264 -0.7941  2.5378 -2.8925
  423MOL0     H58343   6.616   2.438   6.239 -0.4333 -0.1443 -0.1574
  423MOL0     H58344   6.525   2.563   6.444  0.0078  0.2127 -0.2589
  423MOL0     H58345   6.393   2.446   6.451 -1.8006  1.0177 -1.0778
  423MOL0     H58346   6.349   2.663   6.315  2.2502  1.4513  0.9321
  423MOL0     H58347   6.478   2.620   6.198  0.0237 -0.6865 -1.0063
  423MOL0     H58348   6.346   2.409   6.153  3.0101  1.3411  2.7882
  423MOL0     H58349   6.266   2.564   6.089 -1.3159  1.5063  1.7458
  423MOL0     H58350   6.109   2.559   6.264  0.2212  0.6505  0.5829
  423MOL0     H58351   6.204   2.431   6.347  3.9924  0.7220 -0.8658
  423MOL0     H58352   5.999   2.335   6.233 -0.1390  0.2733  0.9910
  423MOL0     H58353   6.143   2.275   6.143  0.7669  0.0145 -0.3173
  423MOL0     H58354   7.002   2.052   6.330  2.4773 -2.5355  1.5415
  423MOL0     H58355   7.053   1.817   6.278  0.3539  2.6473  0.1520
  423MOL0     H58356   6.886   1.403   6.194  1.2811 -0.9480 -4.0839
  423MOL0     H58357   6.951   1.201   6.103  2.1226  2.3407 -3.4665
  423MOL0     H58358   6.401   1.398   6.380 -0.4929  2.4569 -0.9783
  423MOL0     H58359   6.373   1.522   6.609  1.1804  0.7063  0.0151
  423MOL0     H58360   6.306   1.624   6.901 -3.5797  2.0073  0.9770
  423MOL0     H58361   6.203   1.723   7.107 -0.8648 -3.2571  0.5659
  423MOL0     H58362   6.166   1.845   7.288 -1.0340  1.2459  0.1320
  423MOL0     H58363   6.169   1.820   7.464 -0.8133 -1.0156 -0.9114
  423MOL0     H58364   6.333   1.975   7.497  1.6295 -1.8537 -1.1249
  423MOL0     H58365   6.194   2.050   7.413  0.0360  0.1492 -0.3684
  423MOL0     H58366   6.463   1.973   7.290 -0.7736  0.0502  1.3422
  423MOL0     H58367   6.315   2.013   7.204 -1.5460  1.0755  0.9161
  423MOL0     H58368   6.333   2.250   7.307 -0.3950 -2.2160 -0.0844
  423MOL0     H58369   6.486   2.207   7.223  0.8224 -1.4239 -0.3066
  423MOL0     H58370   6.529   2.282   7.638 -0.1821  1.4522  0.3801
  423MOL0     H58371   6.563   1.619   7.326 -1.5287 -3.5030  0.5661
  423MOL0     H58372   6.711   1.438   7.065  2.5463 -0.2193 -0.0406
  423MOL0     H58373   6.770   1.610   7.083 -1.0524  1.4204  1.3804
  423MOL0     H58374   6.732   1.504   7.227 -3.0227 -1.0254  0.1596
  424MOL0     O58375   3.055   5.718   4.421 -0.1110  0.0012  0.0962
  424MOL0     C58376   2.980   5.629   4.474  0.4951  0.3871  0.2540
  424MOL0     O58377   2.848   5.618   4.463  0.4909  0.5242 -0.1672
  424MOL0     C58378   2.756   5.690   4.387  0.2355 -0.2001 -0.8593
  424MOL0     C58379   2.619   5.686   4.429 -0.4255 -0.7303 -0.7334
  424MOL0     C58380   2.524   5.765   4.364  0.7459 -0.9867 -0.5587
  424MOL0     C58381   2.558   5.864   4.273 -0.5703 -0.2700 -0.7268
  424MOL0     O58382   2.473   5.962   4.229 -0.4842 -0.1715  0.3860
  424MOL0     C58383   2.351   5.915   4.176  0.1819 -0.0680  0.9095
  424MOL0     C58384   2.287   6.028   4.084 -1.0352  0.0556  0.2341
  424MOL0     C58385   2.346   6.031   3.951  0.1305 -0.5516  0.7547
  424MOL0     C58386   2.287   6.148   3.866  0.0632  0.0625  0.4332
  424MOL0     C58387   2.348   6.132   3.730 -0.1608 -1.5159  0.0954
  424MOL0     C58388   2.269   6.224   3.636 -0.2640  0.5085  0.1893
  424MOL0     C58389   2.351   6.358   3.608 -0.2922  0.9349  0.0370
  424MOL0     C58390   2.255   6.450   3.538 -0.3018 -0.6402  1.3296
  424MOL0     N58391   2.333   6.575   3.512  0.3447 -0.5062 -0.4555
  424MOL0     C58392   2.442   6.590   3.429  0.0921 -0.5604  1.5138
  424MOL0     C58393   2.453   6.728   3.422  0.5007  0.1806 -0.1058
  424MOL0     C58394   2.548   6.806   3.340  0.5772  0.5497 -0.2661
  424MOL0     C58395   2.599   6.730   3.218 -0.2050  0.1744 -0.0308
  424MOL0     C58396   2.680   6.834   3.136 -0.5812 -0.0172 -0.2771
  424MOL0     C58397   2.832   6.830   3.181 -1.1178 -1.0728 -0.2534
  424MOL0     O58398   2.906   6.950   3.156  0.4923 -0.4072 -0.1982
  424MOL0     C58399   2.934   7.003   3.036  0.3232 -0.1534 -0.2639
  424MOL0     C58400   2.993   7.131   3.028  0.2007 -0.4936  0.0994
  424MOL0     C58401   3.028   7.194   2.908 -0.3890  0.1123 -0.8325
  424MOL0     C58402   3.104   7.329   2.922  1.5598  0.6825 -0.4790
  424MOL0     C58403   2.993   7.129   2.790  0.1951  0.3145  0.1796
  424MOL0     C58404   3.028   7.182   2.658 -0.5961  0.2697  0.2236
  424MOL0     O58405   3.017   7.319   2.648  0.2632  0.2615  0.5379
  424MOL0     C58406   3.072   7.390   2.539  0.9064 -0.0827 -0.2487
  424MOL0     C58407   3.073   7.532   2.545  0.2066  0.0644  1.1672
  424MOL0     C58408   3.110   7.609   2.439 -0.4223  0.1505  0.0161
  424MOL0     C58409   3.170   7.552   2.324 -0.5308 -0.7819  0.9758
  424MOL0     O58410   3.227   7.648   2.238 -0.0627 -0.3967 -0.0951
  424MOL0     C58411   3.338   7.606   2.164 -0.1892  0.5120 -0.5453
  424MOL0     C58412   3.453   7.603   2.269 -0.1148  0.1677 -0.3996
  424MOL0     C58413   3.590   7.571   2.210  0.4611  0.0802  0.7450
  424MOL0     C58414   3.693   7.665   2.283 -0.0299 -0.0206  0.5271
  424MOL0     C58415   3.838   7.607   2.247  0.3558 -0.4576  0.0488
  424MOL0     C58416   3.915   7.658   2.123 -0.0832 -0.8299 -1.1089
  424MOL0     C58417   3.939   7.811   2.146 -0.1645  0.2175  1.2107
  424MOL0     C58418   4.009   7.881   2.026 -0.2997 -0.3338 -0.0676
  424MOL0    Cl58419   3.912   7.881   1.862 -0.3088 -0.3632 -0.2776
  424MOL0     C58420   3.188   7.405   2.314  0.1652 -0.1868 -0.4361
  424MOL0     C58421   3.125   7.337   2.422  0.3187  0.2309  0.7862
  424MOL0     O58422   3.038   7.106   2.566 -0.0176 -0.3029  0.1051
  424MOL0     C58423   2.933   7.004   2.797 -0.8259 -0.1179  0.3804
  424MOL0     C58424   2.902   6.938   2.915  0.3562 -0.1698 -0.1406
  424MOL0     N58425   2.345   6.782   3.487 -0.8702 -0.6174 -0.4066
  424MOL0     N58426   2.284   6.691   3.555 -0.3607 -0.2838  0.7888
  424MOL0     C58427   2.691   5.864   4.228 -0.2494 -0.3693 -0.3068
  424MOL0     C58428   2.789   5.796   4.297  0.2575 -0.3515 -0.0596
  424MOL0     C58429   3.052   5.545   4.572  0.3581 -1.2581  0.5479
  424MOL0     C58430   3.188   5.526   4.579 -0.0271  0.2725  0.4433
  424MOL0     C58431   3.259   5.443   4.668  1.0947  0.8135 -0.0642
  424MOL0     C58432   3.180   5.381   4.767  0.1632 -0.6068 -0.8215
  424MOL0     O58433   3.225   5.291   4.860  0.0158  0.4166 -0.4961
  424MOL0     C58434   3.352   5.267   4.910  0.4012 -0.1946 -0.3160
  424MOL0     C58435   3.358   5.344   5.050 -0.4328 -0.4827 -0.3757
  424MOL0     C58436   3.492   5.338   5.125  0.1297 -0.2724 -0.0580
  424MOL0     C58437   3.473   5.376   5.267 -0.3569  0.5515  1.0933
  424MOL0     C58438   3.459   5.524   5.273 -0.1226 -0.3295 -0.2005
  424MOL0     C58439   3.431   5.648   5.265  0.0463 -0.3842 -0.2174
  424MOL0     C58440   3.039   5.390   4.763 -0.9765 -0.3937 -0.1379
  424MOL0     C58441   2.976   5.468   4.671 -0.6229 -0.2315  0.1872
  424MOL0     C58442   2.822   5.458   4.684  0.5779 -1.0733 -0.2035
  424MOL0     H58443   2.597   5.631   4.519 -0.4104 -1.2125 -1.0191
  424MOL0     H58444   2.430   5.766   4.418 -0.2072  0.4019 -2.1633
  424MOL0     H58445   2.285   5.893   4.260  0.3803 -1.8739  0.6354
  424MOL0     H58446   2.365   5.825   4.115 -5.3659 -1.5384  1.2455
  424MOL0     H58447   2.180   6.006   4.075 -0.8089 -1.5096  1.0777
  424MOL0     H58448   2.307   6.122   4.136 -0.1270  1.1963 -2.0458
  424MOL0     H58449   2.451   6.058   3.965 -0.0841 -0.5493  2.6454
  424MOL0     H58450   2.346   5.935   3.899 -1.1820 -0.1852  0.0380
  424MOL0     H58451   2.178   6.151   3.871 -0.1585  5.6477 -1.0159
  424MOL0     H58452   2.313   6.245   3.911  1.6624 -0.9526  1.7983
  424MOL0     H58453   2.330   6.028   3.704 -0.0644 -1.5317  0.0929
  424MOL0     H58454   2.455   6.151   3.720 -0.7372  1.3217 -2.2452
  424MOL0     H58455   2.262   6.171   3.541 -0.9064  1.6332 -0.4056
  424MOL0     H58456   2.170   6.250   3.676  0.3979  1.7360  1.1096
  424MOL0     H58457   2.447   6.343   3.557  0.1200 -2.4502  1.5593
  424MOL0     H58458   2.371   6.409   3.703 -0.5942  1.5722 -0.2301
  424MOL0     H58459   2.225   6.409   3.440  1.0765 -0.7865  0.9517
  424MOL0     H58460   2.177   6.483   3.607 -1.6767  3.6074 -1.7843
  424MOL0     H58461   2.510   6.525   3.375  0.2011 -3.3540  4.7690
  424MOL0     H58462   2.626   6.840   3.409  1.1468 -0.0649 -0.5983
  424MOL0     H58463   2.495   6.893   3.298 -0.9111  0.0613  0.5406
  424MOL0     H58464   2.668   6.655   3.259 -0.8808 -0.5225 -0.1631
  424MOL0     H58465   2.522   6.679   3.161  1.7348 -0.5810 -2.1496
  424MOL0     H58466   2.671   6.803   3.032 -2.5038  1.0032 -0.4564
  424MOL0     H58467   2.651   6.940   3.138 -2.0705 -0.2624 -3.4195
  424MOL0     H58468   2.837   6.825   3.290 -2.0016  1.7575 -0.0075
  424MOL0     H58469   2.885   6.744   3.138  0.4654 -0.3208  0.1274
  424MOL0     H58470   2.999   7.188   3.120 -2.3996 -0.7252  0.4955
  424MOL0     H58471   3.183   7.317   2.997  1.4557  0.8610 -0.3411
  424MOL0     H58472   3.027   7.404   2.941 -0.0052 -0.5814 -1.4978
  424MOL0     H58473   3.154   7.350   2.828  1.6234 -1.8899 -1.1083
  424MOL0     H58474   3.026   7.570   2.635  0.7721 -1.6734  2.2555
  424MOL0     H58475   3.100   7.717   2.445 -1.4061  0.2290 -2.1724
  424MOL0     H58476   3.340   7.507   2.118  0.5174 -0.4583  1.4377
  424MOL0     H58477   3.365   7.681   2.089  2.9214  1.0049  0.9097
  424MOL0     H58478   3.457   7.692   2.333  3.2567  0.1990 -0.4651
  424MOL0     H58479   3.442   7.520   2.338  1.9491  0.1001 -0.0803
  424MOL0     H58480   3.601   7.592   2.103  0.1785 -2.2797  0.2114
  424MOL0     H58481   3.611   7.464   2.217 -0.6582 -0.1408  0.8471
  424MOL0     H58482   3.681   7.659   2.391  1.9332 -2.8674  0.6896
  424MOL0     H58483   3.679   7.771   2.258  0.3957  0.1110  0.8107
  424MOL0     H58484   3.898   7.625   2.336  1.2696 -2.0662 -0.2056
  424MOL0     H58485   3.827   7.499   2.231  2.0615 -0.2343 -3.9948
  424MOL0     H58486   3.860   7.652   2.029 -0.0649  1.7703 -1.3629
  424MOL0     H58487   4.009   7.602   2.125  0.4470 -0.0311 -2.3978
  424MOL0     H58488   3.986   7.833   2.242 -0.8289  0.3438  1.5135
  424MOL0     H58489   3.838   7.853   2.156 -0.1157  1.4633 -2.1228
  424MOL0     H58490   4.108   7.838   2.009 -0.9136 -0.9817 -2.2796
  424MOL0     H58491   4.018   7.986   2.056 -5.2539  0.0138  1.1880
  424MOL0     H58492   3.238   7.351   2.234 -0.0076 -0.3972 -0.4057
  424MOL0     H58493   3.141   7.231   2.405  3.4686  0.6050  0.8608
  424MOL0     H58494   2.917   6.944   2.708  0.3074  0.4074 -0.2076
  424MOL0     H58495   2.859   6.838   2.918  3.3520 -1.6746 -1.9968
  424MOL0     H58496   2.728   5.931   4.151 -1.4982  1.3929  0.5699
  424MOL0     H58497   2.895   5.811   4.277  0.4727 -0.6815  0.7668
  424MOL0     H58498   3.249   5.579   4.507  1.2090 -3.7994 -1.7834
  424MOL0     H58499   3.367   5.435   4.662  1.1000  1.5752 -1.3705
  424MOL0     H58500   3.364   5.158   4.915 -0.1713 -0.4242 -2.5999
  424MOL0     H58501   3.421   5.315   4.840  0.4144  0.6613  0.2775
  424MOL0     H58502   3.277   5.290   5.100  0.5984 -3.7629 -1.9153
  424MOL0     H58503   3.339   5.450   5.031 -0.2190 -0.6185 -1.4464
  424MOL0     H58504   3.537   5.239   5.125  0.6005 -0.0645 -0.8202
  424MOL0     H58505   3.549   5.416   5.073  1.2340 -0.3247  1.0301
  424MOL0     H58506   3.564   5.358   5.325  0.5943  1.5509 -0.0360
  424MOL0     H58507   3.389   5.321   5.311 -0.5810  1.3812  1.7366
  424MOL0     H58508   3.439   5.755   5.269  1.3816 -0.3585 -2.1955
  424MOL0     H58509   2.999   5.315   4.830 -0.0659 -0.3323  0.4941
  424MOL0     H58510   2.787   5.403   4.772 -1.1981  0.9832  0.4621
  424MOL0     H58511   2.785   5.559   4.704 -3.1784 -2.2914 -0.3350
  424MOL0     H58512   2.766   5.421   4.598 -0.8212  0.9280 -0.2258
  425MOL0     O58513   5.089  10.642  10.654  0.3755  0.2811  0.0979
  425MOL0     C58514   5.015  10.737  10.636  0.4280 -0.9951 -0.5969
  425MOL0     O58515   4.920  10.795  10.724  0.5734 -0.4103  0.1846
  425MOL0     C58516   4.869  10.708  10.815 -0.2435  0.5774 -0.1829
  425MOL0     C58517   4.936  10.646  10.920  0.3617  0.4237 -0.1392
  425MOL0     C58518   4.857  10.565  11.012 -0.8486  0.4584 -0.2446
  425MOL0     C58519   4.725  10.518  10.982 -0.3190 -0.1520 -0.1081
  425MOL0     O58520   4.647  10.422  11.052  0.6243  0.4387  0.0868
  425MOL0     C58521   4.658  10.290  11.002 -0.1429  0.7343  0.4541
  425MOL0     C58522   4.567  10.194  11.081 -0.6833 -0.1485 -0.2442
  425MOL0     C58523   4.647  10.152  11.202 -0.2111 -0.7140 -0.0348
  425MOL0     C58524   4.653  10.270  11.313  0.1913  0.6068 -0.5777
  425MOL0     C58525   4.695  10.214  11.452  0.1288 -0.3447 -0.3419
  425MOL0     C58526   4.718  10.331  11.540 -0.1413 -1.2109  0.0187
  425MOL0     C58527   4.774  10.283  11.676  0.7216  0.0889 -0.3657
  425MOL0     C58528   4.824  10.411  11.753 -0.5019  0.7829  0.0486
  425MOL0     N58529   4.723  10.520  11.774  0.8212  0.9191  0.6888
  425MOL0     C58530   4.748  10.650  11.784  0.0809  0.0201  1.0458
  425MOL0     C58531   4.630  10.708  11.815 -0.1881 -0.9052 -1.2220
  425MOL0     C58532   4.612  10.855  11.852 -0.3303 -0.0297  0.0131
  425MOL0     C58533   4.563  10.876  12.006 -0.5391 -0.1799  0.1637
  425MOL0     C58534   4.633  10.793  12.110 -0.3779 -0.7877  0.4138
  425MOL0     C58535   4.592  10.827  12.250 -0.6775  0.4021  0.1742
  425MOL0     O58536   4.634  10.964  12.273 -0.7415  0.2692  0.5480
  425MOL0     C58537   4.644  10.999  12.401  0.2734 -0.2159  0.2975
  425MOL0     C58538   4.546  10.957  12.492  0.4767 -0.1017 -0.1535
  425MOL0     C58539   4.529  11.005  12.618 -0.0356 -0.4807  0.0167
  425MOL0     C58540   4.412  10.962  12.694  1.3739  0.5060  0.6065
  425MOL0     C58541   4.636  11.095  12.667  0.7615 -0.1490  0.3746
  425MOL0     C58542   4.634  11.158  12.809  0.3974  0.3209  0.0926
  425MOL0     O58543   4.732  11.258  12.824  0.1962  0.1933  0.1113
  425MOL0     C58544   4.728  11.329  12.940 -0.0677 -0.6076  0.1495
  425MOL0     C58545   4.710  11.282  13.072  0.2805  0.6287 -0.5499
  425MOL0     C58546   4.724  11.356  13.186  0.1662 -0.3387  0.0570
  425MOL0     C58547   4.738  11.489  13.174  0.4820 -0.1124 -0.0947
  425MOL0     O58548   4.732  11.590  13.274 -0.6561 -0.1949 -0.9221
  425MOL0     C58549   4.647  11.564  13.387  0.3495  0.1230  0.1609
  425MOL0     C58550   4.693  11.649  13.511 -0.6101 -0.5159  0.0744
  425MOL0     C58551   4.587  11.643  13.624 -0.3336 -0.4559  0.0169
  425MOL0     C58552   4.605  11.742  13.748 -0.4035 -0.5852 -0.2330
  425MOL0     C58553   4.483  11.748  13.837  0.1861  0.7565 -0.0067
  425MOL0     C58554   4.431  11.632  13.916 -0.3770 -0.1860 -0.3706
  425MOL0     C58555   4.539  11.572  14.013 -0.3445  0.8370  0.3151
  425MOL0     C58556   4.492  11.467  14.113 -0.3686 -0.0545  1.1849
  425MOL0    Cl58557   4.627  11.403  14.211  0.4961  0.1063 -0.0563
  425MOL0     C58558   4.758  11.540  13.044  0.0380 -0.8565  0.5508
  425MOL0     C58559   4.757  11.466  12.929 -0.1662 -0.1357 -0.2211
  425MOL0     O58560   4.559  11.108  12.890 -0.1415 -0.3183 -0.4852
  425MOL0     C58561   4.739  11.122  12.577 -0.0681 -0.2962  0.1814
  425MOL0     C58562   4.741  11.085  12.441  0.0116 -0.6370 -0.1336
  425MOL0     N58563   4.532  10.613  11.816 -0.5020 -0.7257  0.6834
  425MOL0     N58564   4.587  10.505  11.780  0.2993  0.3049 -0.3336
  425MOL0     C58565   4.672  10.560  10.859  0.2428  0.3223 -0.1447
  425MOL0     C58566   4.737  10.661  10.785 -0.3171 -0.3535  0.4523
  425MOL0     C58567   5.046  10.815  10.508 -0.4568 -1.0037  0.5492
  425MOL0     C58568   5.181  10.832  10.476 -0.8238 -0.2989  1.4915
  425MOL0     C58569   5.225  10.931  10.374 -0.6259  0.8707  0.2407
  425MOL0     C58570   5.130  10.989  10.292  0.3924 -0.8492  0.1828
  425MOL0     O58571   5.182  11.080  10.200  0.1538 -0.9861 -0.2205
  425MOL0     C58572   5.094  11.162  10.117 -0.4043  0.8829  0.1476
  425MOL0     C58573   5.171  11.287  10.072 -0.4230  1.0099 -0.3582
  425MOL0     C58574   5.096  11.377   9.977  0.2680  0.1220  0.1871
  425MOL0     C58575   5.058  11.297   9.851  0.0472  0.0140 -0.5240
  425MOL0     C58576   5.043  11.388   9.725  0.1136  0.0289  0.2480
  425MOL0     C58577   5.024  11.431   9.609  0.1688 -0.9344  0.6807
  425MOL0     C58578   4.995  10.959  10.312  0.4186 -0.4205 -0.6108
  425MOL0     C58579   4.956  10.877  10.425  0.6278  0.1169 -0.2184
  425MOL0     C58580   4.805  10.847  10.442 -0.7383  0.1827  0.3156
  425MOL0     H58581   5.036  10.687  10.931 -0.9581  4.0834 -0.4311
  425MOL0     H58582   4.897  10.537  11.109  1.7364  2.5248 -0.5972
  425MOL0     H58583   4.763  10.261  11.012  0.3976  2.3577 -0.1313
  425MOL0     H58584   4.621  10.285  10.899  1.6329 -1.2087 -0.1556
  425MOL0     H58585   4.470  10.237  11.106 -1.5724 -2.2764  0.1344
  425MOL0     H58586   4.536  10.115  11.013 -2.3991  1.3932 -1.3759
  425MOL0     H58587   4.584  10.070  11.236 -0.1496 -0.1700  1.4477
  425MOL0     H58588   4.747  10.116  11.177 -1.0473 -2.7055 -0.7295
  425MOL0     H58589   4.723  10.344  11.273 -1.6293  3.3078  0.9053
  425MOL0     H58590   4.560  10.327  11.324 -1.2525 -2.0959  3.3645
  425MOL0     H58591   4.785  10.154  11.436 -0.8559 -1.7639 -0.7005
  425MOL0     H58592   4.618  10.152  11.499 -0.2258 -1.7375 -2.6447
  425MOL0     H58593   4.789  10.400  11.494 -2.0816  0.6927 -0.3091
  425MOL0     H58594   4.632  10.396  11.559  1.1898  0.3053  1.1374
  425MOL0     H58595   4.853  10.210  11.654  0.7877  0.1348 -0.2815
  425MOL0     H58596   4.708  10.228  11.744  1.7006 -0.8544 -0.1547
  425MOL0     H58597   4.870  10.377  11.846 -0.4645 -1.8379 -0.8390
  425MOL0     H58598   4.904  10.454  11.691 -1.8539  1.5909 -1.2028
  425MOL0     H58599   4.849  10.689  11.786  2.0599 -4.4780  1.2859
  425MOL0     H58600   4.537  10.906  11.790  0.9745  1.9824 -0.0154
  425MOL0     H58601   4.706  10.907  11.832  0.1124  0.3567  2.7262
  425MOL0     H58602   4.563  10.983  12.029 -4.8406  0.7093 -2.6783
  425MOL0     H58603   4.453  10.871  12.001 -0.5189  0.5960 -1.5824
  425MOL0     H58604   4.602  10.689  12.091 -2.1043 -0.0342 -1.1988
  425MOL0     H58605   4.742  10.804  12.101 -0.3040 -1.8828 -0.2046
  425MOL0     H58606   4.484  10.810  12.261 -0.5838 -0.0217  0.4376
  425MOL0     H58607   4.637  10.759  12.322  1.7978  0.9765 -0.7376
  425MOL0     H58608   4.459  10.904  12.455  0.3875  0.7659 -1.2638
  425MOL0     H58609   4.392  10.858  12.667  1.9257  0.7457 -0.7900
  425MOL0     H58610   4.322  11.019  12.670  1.0556 -0.9950 -2.1424
  425MOL0     H58611   4.424  10.946  12.802  1.2983  1.4485  0.7573
  425MOL0     H58612   4.704  11.174  13.083 -0.2834  0.8312  1.4720
  425MOL0     H58613   4.722  11.316  13.287  1.4997  2.5163  1.3184
  425MOL0     H58614   4.549  11.606  13.360 -0.6466 -2.6528 -0.9730
  425MOL0     H58615   4.643  11.458  13.417  0.5596  0.2861  0.7810
  425MOL0     H58616   4.781  11.605  13.561 -1.1600 -0.2068  1.3427
  425MOL0     H58617   4.709  11.753  13.481 -1.5647  0.1480  1.7799
  425MOL0     H58618   4.589  11.541  13.663  2.3326 -0.1072  0.9964
  425MOL0     H58619   4.488  11.671  13.585  0.2301  0.7979 -0.5966
  425MOL0     H58620   4.620  11.840  13.702  0.2559 -0.7871 -0.4572
  425MOL0     H58621   4.690  11.718  13.813 -2.4295 -1.6201  2.2040
  425MOL0     H58622   4.500  11.832  13.906  1.4369  0.4509  0.0750
  425MOL0     H58623   4.397  11.771  13.773  0.8730 -0.8158 -1.5731
  425MOL0     H58624   4.397  11.555  13.846  1.0929  2.3020 -4.1277
  425MOL0     H58625   4.350  11.678  13.973  1.4723  0.2603  2.0598
  425MOL0     H58626   4.572  11.656  14.076 -0.8878  0.3141  1.3277
  425MOL0     H58627   4.628  11.532  13.965 -1.7060 -1.2098 -0.6263
  425MOL0     H58628   4.442  11.386  14.060  0.6873  0.1879 -0.2220
  425MOL0     H58629   4.414  11.517  14.172 -2.8576 -2.5383  0.1841
  425MOL0     H58630   4.772  11.648  13.041  0.1463 -0.8878 -0.1439
  425MOL0     H58631   4.788  11.501  12.831 -1.0400 -1.6564 -1.0858
  425MOL0     H58632   4.823  11.185  12.602  0.1927 -1.2910  2.0333
  425MOL0     H58633   4.827  11.110  12.380  1.0011  0.2217  1.5491
  425MOL0     H58634   4.586  10.510  10.815  1.2532 -1.7414  0.1021
  425MOL0     H58635   4.686  10.688  10.693 -1.7500 -4.5586 -0.2259
  425MOL0     H58636   5.268  10.779  10.515 -0.0607 -0.5507 -0.3944
  425MOL0     H58637   5.329  10.953  10.355 -0.4580 -1.6319 -2.4832
  425MOL0     H58638   5.063  11.111  10.026  1.9129 -0.3171 -0.0368
  425MOL0     H58639   5.015  11.186  10.188  0.8871 -1.7297  2.6977
  425MOL0     H58640   5.263  11.249  10.027  1.1427  0.0506  3.2579
  425MOL0     H58641   5.204  11.344  10.160  0.4103 -0.1515  0.1160
  425MOL0     H58642   5.014  11.422  10.034  0.9817 -1.3591  2.5044
  425MOL0     H58643   5.154  11.467   9.957 -0.0719  0.3894  0.4058
  425MOL0     H58644   4.968  11.236   9.858  0.5539 -0.6565  0.3290
  425MOL0     H58645   5.148  11.238   9.831  1.5775  2.5485 -1.6902
  425MOL0     H58646   5.003  11.474   9.513 -3.4011 -1.4865  1.0778
  425MOL0     H58647   4.910  10.994  10.254  0.4365 -2.4946 -2.0154
  425MOL0     H58648   4.780  10.744  10.467 -3.6696  0.7901  0.2289
  425MOL0     H58649   4.774  10.910  10.526  2.2930 -1.0894  2.5864
  425MOL0     H58650   4.739  10.862  10.356 -0.4117 -0.3576 -0.0319
  426MOL0     O58651   9.454   0.184   6.364  0.1659 -0.0814 -0.1816
  426MOL0     C58652   9.464   0.066   6.343  0.3270  0.5595  0.0844
  426MOL0     O58653   9.386  -0.027   6.397  0.5296 -0.3545 -0.0718
  426MOL0     C58654   9.284  -0.005   6.494  0.1369  0.4791 -0.4407
  426MOL0     C58655   9.301   0.083   6.602  0.3743 -0.8948  0.4002
  426MOL0     C58656   9.207   0.078   6.706 -0.1159  0.1221  0.0100
  426MOL0     C58657   9.086  -0.001   6.697 -0.2189  0.1052  0.3492
  426MOL0     O58658   8.994   0.005   6.797 -0.1911  0.4294 -0.2172
  426MOL0     C58659   8.862  -0.009   6.767 -0.1098 -0.1140 -0.3907
  426MOL0     C58660   8.787   0.071   6.881  0.1990  0.3004 -0.4513
  426MOL0     C58661   8.648   0.132   6.846  0.2183 -0.2636  0.6808
  426MOL0     C58662   8.574   0.049   6.728 -0.1063  0.8351  0.0630
  426MOL0     C58663   8.427   0.073   6.731  0.4839  0.2068 -0.2538
  426MOL0     C58664   8.367   0.004   6.617 -0.0979  1.1504  0.0053
  426MOL0     C58665   8.219   0.031   6.619 -0.0868  0.5356  0.6493
  426MOL0     C58666   8.145   0.002   6.492  0.2847 -0.5189  0.1479
  426MOL0     N58667   8.137  -0.140   6.490 -0.1435  0.0165  0.9123
  426MOL0     C58668   8.215  -0.226   6.416 -0.4011  0.4162 -0.5401
  426MOL0     C58669   8.159  -0.346   6.421 -0.8576  0.6923 -0.0519
  426MOL0     C58670   8.243  -0.462   6.369  0.0783 -0.7086  0.3931
  426MOL0     C58671   8.151  -0.586   6.350  0.2843  0.5012  0.6938
  426MOL0     C58672   8.233  -0.718   6.340  0.6308  0.1736 -0.5329
  426MOL0     C58673   8.143  -0.832   6.292  0.2640  0.2412 -0.2061
  426MOL0     O58674   8.227  -0.952   6.277  0.4656  0.4755 -0.2090
  426MOL0     C58675   8.170  -1.072   6.235 -0.3343 -0.3592 -0.6296
  426MOL0     C58676   8.261  -1.171   6.190  0.3336 -0.8022 -0.5359
  426MOL0     C58677   8.214  -1.288   6.137  1.1814  0.1709  0.2782
  426MOL0     C58678   8.307  -1.388   6.069 -0.3888 -0.2397 -0.8382
  426MOL0     C58679   8.073  -1.306   6.123 -0.3545 -0.3426 -0.6006
  426MOL0     C58680   8.014  -1.432   6.079 -0.3441  0.0740  0.1665
  426MOL0     O58681   8.071  -1.555   6.110 -0.4152  0.0286  0.1518
  426MOL0     C58682   8.010  -1.669   6.059  0.4387  0.3102  1.3827
  426MOL0     C58683   7.998  -1.773   6.139  0.8724  0.5119  0.3239
  426MOL0     C58684   7.931  -1.890   6.095  0.0503 -0.1266  0.8663
  426MOL0     C58685   7.866  -1.891   5.971 -0.0376  0.3153  0.0973
  426MOL0     O58686   7.805  -2.009   5.949 -0.2827  0.3156  0.4882
  426MOL0     C58687   7.721  -2.037   5.829 -0.0195  0.1129 -0.2488
  426MOL0     C58688   7.721  -2.195   5.809  0.9200  0.0501  0.1731
  426MOL0     C58689   7.661  -2.238   5.679  0.2722 -0.2589  0.2822
  426MOL0     C58690   7.593  -2.376   5.699 -0.5560  0.5581  0.2233
  426MOL0     C58691   7.484  -2.384   5.594 -0.5027  0.2023  0.4512
  426MOL0     C58692   7.407  -2.520   5.599  0.2223  0.7137  0.3626
  426MOL0     C58693   7.309  -2.538   5.719 -0.0405  0.2220 -0.2210
  426MOL0     C58694   7.218  -2.658   5.688  0.4714 -0.0654  0.0193
  426MOL0    Cl58695   7.142  -2.652   5.525 -0.3446  0.1589 -0.0249
  426MOL0     C58696   7.888  -1.788   5.880 -0.9426  0.9572 -0.4129
  426MOL0     C58697   7.967  -1.680   5.926  0.1178  0.5355  0.0292
  426MOL0     O58698   7.906  -1.423   6.020 -0.1517 -0.8337  0.6562
  426MOL0     C58699   7.990  -1.204   6.165  0.9400 -1.2020  0.2745
  426MOL0     C58700   8.034  -1.086   6.224  0.0485 -0.2135  0.1325
  426MOL0     N58701   8.033  -0.333   6.486  0.7124  0.6079  1.3181
  426MOL0     N58702   8.019  -0.212   6.507  0.1584 -0.8065 -1.2997
  426MOL0     C58703   9.075  -0.090   6.591 -0.8660 -0.3713  0.0545
  426MOL0     C58704   9.177  -0.093   6.498  0.6085  0.0081 -1.1535
  426MOL0     C58705   9.550   0.017   6.237 -0.8301 -0.4512 -0.5772
  426MOL0     C58706   9.564   0.093   6.119 -0.4841  0.2140  0.4213
  426MOL0     C58707   9.659   0.063   6.020  1.1707  0.1476  0.4779
  426MOL0     C58708   9.736  -0.056   6.019  0.3182  0.3605 -0.2190
  426MOL0     O58709   9.815  -0.076   5.912  0.1327 -0.5410 -0.2688
  426MOL0     C58710   9.873  -0.201   5.914 -0.2542  1.4599  1.6532
  426MOL0     C58711   9.940  -0.228   5.777 -0.2265  0.8450 -0.5139
  426MOL0     C58712   9.848  -0.201   5.666 -0.1092  0.3025 -0.1457
  426MOL0     C58713   9.746  -0.308   5.652 -0.0937  0.3724  0.2850
  426MOL0     C58714   9.639  -0.272   5.561 -0.1054  0.1866  0.3805
  426MOL0     C58715   9.546  -0.243   5.484  0.4309  0.2867  0.4234
  426MOL0     C58716   9.718  -0.138   6.131  0.5021  0.2840  0.0531
  426MOL0     C58717   9.639  -0.098   6.244  0.0525 -0.0657  0.7801
  426MOL0     C58718   9.623  -0.189   6.364  0.5391 -0.8186 -0.5712
  426MOL0     H58719   9.375   0.161   6.603  0.1529 -0.6799  0.2312
  426MOL0     H58720   9.220   0.130   6.801  1.6932 -0.2675  0.0067
  426MOL0     H58721   8.835  -0.115   6.769  2.2901 -0.7877 -0.2378
  426MOL0     H58722   8.837   0.029   6.668 -1.5530  1.2958  0.4618
  426MOL0     H58723   8.782   0.004   6.967  0.8090  3.2715  2.0846
  426MOL0     H58724   8.859   0.143   6.921 -0.2792  2.2953 -2.9274
  426MOL0     H58725   8.593   0.116   6.940  1.3632  0.9089  1.5968
  426MOL0     H58726   8.660   0.238   6.823  1.6277 -0.5683 -0.1056
  426MOL0     H58727   8.617   0.075   6.630 -2.0312  2.0640 -0.5110
  426MOL0     H58728   8.591  -0.058   6.741  0.5273  0.7509 -1.2858
  426MOL0     H58729   8.403   0.179   6.725  0.6939  0.2632 -0.1065
  426MOL0     H58730   8.399   0.027   6.826 -1.0662  2.1080  0.2824
  426MOL0     H58731   8.406   0.050   6.526 -1.2643  0.1332 -1.0511
  426MOL0     H58732   8.389  -0.103   6.621 -0.5167  1.0877  1.4274
  426MOL0     H58733   8.212   0.138   6.636 -1.9993  0.2208  2.2618
  426MOL0     H58734   8.161  -0.022   6.696  0.3022  1.4036  1.5521
  426MOL0     H58735   8.049   0.056   6.494  1.1541  1.1250  2.4517
  426MOL0     H58736   8.201   0.045   6.409  1.8292 -1.5295  0.6289
  426MOL0     H58737   8.309  -0.205   6.366 -0.9506 -0.5119 -2.0259
  426MOL0     H58738   8.321  -0.481   6.443 -1.0096 -2.9586  1.0579
  426MOL0     H58739   8.287  -0.432   6.274 -2.0042  0.6256 -0.2294
  426MOL0     H58740   8.078  -0.592   6.431 -1.3910  0.2587 -0.7801
  426MOL0     H58741   8.098  -0.572   6.256  0.6838 -1.6149  0.1032
  426MOL0     H58742   8.313  -0.698   6.267 -1.5119  3.5657 -2.1881
  426MOL0     H58743   8.277  -0.730   6.439 -0.6990 -0.1851  0.0333
  426MOL0     H58744   8.069  -0.856   6.369  1.9006 -1.6292  0.8751
  426MOL0     H58745   8.101  -0.806   6.194  1.0453 -2.2889 -1.3191
  426MOL0     H58746   8.367  -1.147   6.189  0.7561 -2.5530 -0.4999
  426MOL0     H58747   8.260  -1.455   5.997 -2.3261  1.1652 -0.9564
  426MOL0     H58748   8.357  -1.432   6.156  2.5598  2.7555 -0.8076
  426MOL0     H58749   8.377  -1.335   6.004  0.2605 -1.3518 -1.0758
  426MOL0     H58750   8.033  -1.762   6.241  1.9109  2.0316 -0.1543
  426MOL0     H58751   7.929  -1.981   6.153 -0.8225 -0.7279 -0.0871
  426MOL0     H58752   7.622  -1.994   5.849 -1.8530 -2.9795 -1.8066
  426MOL0     H58753   7.762  -1.991   5.738 -0.6502 -0.3619 -0.7823
  426MOL0     H58754   7.819  -2.242   5.822 -0.1981 -1.7548  3.0955
  426MOL0     H58755   7.653  -2.228   5.888  0.3742  2.3485  0.7445
  426MOL0     H58756   7.727  -2.239   5.592 -2.5802  2.5317 -2.1611
  426MOL0     H58757   7.588  -2.164   5.644  2.2069  2.1363  0.9694
  426MOL0     H58758   7.554  -2.408   5.796 -0.1911  0.1319  0.2312
  426MOL0     H58759   7.666  -2.453   5.672 -0.7286  0.4073  0.1888
  426MOL0     H58760   7.410  -2.303   5.597 -0.9565 -0.2351  2.0552
  426MOL0     H58761   7.534  -2.366   5.498  1.8528 -0.5941  1.4598
  426MOL0     H58762   7.472  -2.608   5.594 -1.6527 -0.6770 -0.7607
  426MOL0     H58763   7.347  -2.499   5.510  4.2179  4.3695 -1.8695
  426MOL0     H58764   7.253  -2.447   5.743 -1.6892 -1.1541  1.4965
  426MOL0     H58765   7.374  -2.566   5.802  1.2811  2.7392 -0.2953
  426MOL0     H58766   7.147  -2.668   5.770 -0.3951  3.3531 -0.1934
  426MOL0     H58767   7.290  -2.741   5.688  1.3669  0.5093 -3.6162
  426MOL0     H58768   7.841  -1.783   5.782 -0.2918 -1.2097 -0.9025
  426MOL0     H58769   7.987  -1.595   5.862 -0.1923  1.4725  1.1370
  426MOL0     H58770   7.884  -1.225   6.161  0.4409  0.7936  1.4376
  426MOL0     H58771   7.974  -1.005   6.265 -1.7901 -2.5178  2.2840
  426MOL0     H58772   8.998  -0.166   6.605  1.1657 -2.5184  0.0762
  426MOL0     H58773   9.175  -0.169   6.422 -3.0310 -1.0887 -0.1530
  426MOL0     H58774   9.508   0.186   6.107  0.5308  0.5558 -2.5103
  426MOL0     H58775   9.669   0.132   5.937  3.2274 -1.2659 -0.5220
  426MOL0     H58776   9.951  -0.195   5.991  0.1620  2.0210  1.1934
  426MOL0     H58777   9.811  -0.285   5.947  2.8126 -1.8026 -0.1078
  426MOL0     H58778   9.983  -0.327   5.761  0.0516  1.0691 -1.2042
  426MOL0     H58779  10.021  -0.155   5.779  0.0356  0.5586 -0.6294
  426MOL0     H58780   9.804  -0.102   5.682  2.6442  1.5326  0.3489
  426MOL0     H58781   9.907  -0.189   5.575 -0.4925  0.6327 -0.3547
  426MOL0     H58782   9.709  -0.339   5.750 -2.5320 -2.0570 -1.2635
  426MOL0     H58783   9.809  -0.386   5.607 -0.8440  0.6268 -1.2824
  426MOL0     H58784   9.464  -0.207   5.425 -0.8117 -0.8924  1.3662
  426MOL0     H58785   9.764  -0.235   6.146  0.0848  0.5825  4.6751
  426MOL0     H58786   9.664  -0.284   6.329  0.6374 -0.0883 -2.5716
  426MOL0     H58787   9.679  -0.139   6.444  1.0799 -0.5350 -1.1195
  426MOL0     H58788   9.519  -0.203   6.394 -0.2361  2.7796 -1.1075
  427MOL0     O58789   5.374   3.494   7.516 -0.1140 -0.4993  0.7925
  427MOL0     C58790   5.287   3.458   7.435  0.2565  0.5695  0.5645
  427MOL0     O58791   5.305   3.399   7.318 -0.1387  0.7305  0.0509
  427MOL0     C58792   5.428   3.401   7.261  1.2294 -0.7816  0.5800
  427MOL0     C58793   5.543   3.363   7.336 -0.9805 -0.3326  0.7488
  427MOL0     C58794   5.666   3.363   7.268 -0.6987 -0.0097  0.1260
  427MOL0     C58795   5.673   3.379   7.128  0.6039  0.3400  0.8862
  427MOL0     O58796   5.810   3.386   7.086  0.1377  0.3527 -0.2750
  427MOL0     C58797   5.841   3.455   6.965 -0.0460 -0.9002 -0.1753
  427MOL0     C58798   5.993   3.467   6.938  0.3569  0.2178 -0.5557
  427MOL0     C58799   6.070   3.526   7.058 -0.0097 -0.6545 -0.5091
  427MOL0     C58800   6.086   3.680   7.057 -0.0541  0.7353  0.1942
  427MOL0     C58801   6.168   3.724   7.174  0.3573  0.0909 -0.1912
  427MOL0     C58802   6.174   3.875   7.161 -0.2990  0.3003 -0.4991
  427MOL0     C58803   6.305   3.939   7.234  0.2754  1.5395 -0.2497
  427MOL0     C58804   6.425   3.982   7.144 -0.2758  0.5805  0.4772
  427MOL0     N58805   6.465   3.878   7.049 -0.1208 -0.1082 -0.1667
  427MOL0     C58806   6.560   3.783   7.064  0.7107  0.1561  0.5010
  427MOL0     C58807   6.604   3.750   6.942  0.2376  1.0392  0.1311
  427MOL0     C58808   6.712   3.661   6.908 -0.7218 -0.3693 -0.0642
  427MOL0     C58809   6.834   3.672   7.007  0.2820  0.3746  0.4524
  427MOL0     C58810   6.946   3.590   6.943 -0.0106  0.3130  0.8229
  427MOL0     C58811   7.078   3.618   7.014 -1.1041 -0.0296  0.6479
  427MOL0     O58812   7.068   3.583   7.153  0.1108 -0.2658  0.6396
  427MOL0     C58813   7.110   3.457   7.188 -0.7091 -0.1866  0.4569
  427MOL0     C58814   7.239   3.445   7.229  0.0953  0.1965 -0.6934
  427MOL0     C58815   7.294   3.315   7.251  0.5627  0.1830 -0.4195
  427MOL0     C58816   7.440   3.307   7.253 -0.3656  0.6862 -0.3671
  427MOL0     C58817   7.210   3.205   7.242  0.0780  0.4050 -0.1181
  427MOL0     C58818   7.254   3.071   7.276 -0.5096  0.2239  0.0798
  427MOL0     O58819   7.153   2.980   7.304  0.4151 -0.1091 -0.0305
  427MOL0     C58820   7.194   2.850   7.293  0.7797  0.3706  0.3786
  427MOL0     C58821   7.258   2.766   7.391  0.7077 -0.2052  0.0162
  427MOL0     C58822   7.296   2.642   7.365  0.4180 -0.0999  0.2693
  427MOL0     C58823   7.267   2.588   7.237  0.4237 -0.1228 -0.7113
  427MOL0     O58824   7.296   2.461   7.200  0.5883 -0.7086 -0.8049
  427MOL0     C58825   7.329   2.357   7.296  0.1216 -0.6375 -0.2466
  427MOL0     C58826   7.356   2.227   7.218 -0.5721 -0.0038  0.4618
  427MOL0     C58827   7.482   2.252   7.132  0.3539  1.0467 -1.0258
  427MOL0     C58828   7.528   2.130   7.052 -0.1349 -0.5091 -0.2671
  427MOL0     C58829   7.642   2.168   6.951 -0.6038  0.2802  0.4945
  427MOL0     C58830   7.599   2.198   6.813  0.6101  0.4940 -0.0388
  427MOL0     C58831   7.696   2.203   6.691  0.1403  0.3319  0.1280
  427MOL0     C58832   7.796   2.315   6.736 -0.1168 -0.2652  0.9450
  427MOL0    Cl58833   7.718   2.483   6.725 -0.2610  0.2012  0.3086
  427MOL0     C58834   7.207   2.664   7.141  0.0083  0.8397 -0.6636
  427MOL0     C58835   7.174   2.796   7.164 -0.7971 -0.0662  0.6676
  427MOL0     O58836   7.371   3.042   7.276 -0.1724  0.4389 -0.6013
  427MOL0     C58837   7.078   3.220   7.208 -0.1933  0.0392  0.2424
  427MOL0     C58838   7.033   3.345   7.180  0.3137  0.2351  0.0494
  427MOL0     N58839   6.524   3.821   6.846 -0.5217  0.2579  0.1133
  427MOL0     N58840   6.452   3.905   6.911 -0.2058 -0.7683 -0.3033
  427MOL0     C58841   5.556   3.409   7.054 -0.6329 -0.4208 -0.0692
  427MOL0     C58842   5.440   3.424   7.123  0.0226  0.3917 -0.1238
  427MOL0     C58843   5.152   3.459   7.498  0.7030  0.0345  0.2319
  427MOL0     C58844   5.117   3.568   7.576  1.4560 -0.7465 -0.2179
  427MOL0     C58845   4.998   3.569   7.643 -0.4781 -0.5974  0.0435
  427MOL0     C58846   4.912   3.455   7.644 -1.0445  0.0293 -0.9988
  427MOL0     O58847   4.794   3.463   7.715  0.2964 -0.7662 -0.5638
  427MOL0     C58848   4.724   3.352   7.760 -0.6294  0.3514  0.5443
  427MOL0     C58849   4.817   3.272   7.861 -0.4215 -0.5845  0.8636
  427MOL0     C58850   4.746   3.141   7.907 -0.0143 -0.6111 -0.2094
  427MOL0     C58851   4.834   3.028   7.887 -0.5515 -0.1627 -0.8577
  427MOL0     C58852   4.846   2.981   7.748  0.7232  0.2781  0.0432
  427MOL0     C58853   4.865   2.950   7.631  0.8882 -0.5609 -1.1525
  427MOL0     C58854   4.949   3.351   7.563  0.3391  0.3237 -0.2766
  427MOL0     C58855   5.072   3.344   7.491 -0.4952  0.0243 -0.4501
  427MOL0     C58856   5.094   3.220   7.411 -0.0233  0.1377 -0.2844
  427MOL0     H58857   5.550   3.323   7.437  0.8564 -0.8390  0.4530
  427MOL0     H58858   5.751   3.320   7.320 -0.7786  0.6017  0.7880
  427MOL0     H58859   5.794   3.553   6.975 -1.5884 -1.5641 -0.5583
  427MOL0     H58860   5.802   3.412   6.872 -2.0323  2.2310 -0.9222
  427MOL0     H58861   6.042   3.371   6.923  1.9590  1.3107 -2.8651
  427MOL0     H58862   6.016   3.518   6.844 -1.8223 -1.3915 -2.0546
  427MOL0     H58863   6.029   3.501   7.156 -0.0353 -0.1122 -0.3782
  427MOL0     H58864   6.172   3.488   7.067 -0.4080 -2.4716 -2.8115
  427MOL0     H58865   6.137   3.703   6.963  2.4834 -3.3590  0.2999
  427MOL0     H58866   5.986   3.724   7.061 -0.0695  0.5949  2.0994
  427MOL0     H58867   6.271   3.688   7.179  0.6877  0.6556 -2.1839
  427MOL0     H58868   6.118   3.694   7.266 -0.5298  3.8172  0.7232
  427MOL0     H58869   6.194   3.905   7.058  0.3586 -1.1626 -0.8297
  427MOL0     H58870   6.086   3.913   7.215  1.1667  2.6058  0.4277
  427MOL0     H58871   6.350   3.857   7.292 -0.4303  0.3858 -1.2660
  427MOL0     H58872   6.278   4.023   7.298 -1.0812 -0.6119  2.2316
  427MOL0     H58873   6.395   4.072   7.090  1.8582  0.5842 -0.8180
  427MOL0     H58874   6.507   4.012   7.210 -1.2193  1.8044  1.1212
  427MOL0     H58875   6.618   3.746   7.148  0.9085 -0.3591  0.1419
  427MOL0     H58876   6.747   3.686   6.808  0.8690  2.2058  1.0376
  427MOL0     H58877   6.669   3.560   6.909 -2.1319  0.2006  1.4604
  427MOL0     H58878   6.858   3.777   7.028 -0.0035  1.5672 -4.0643
  427MOL0     H58879   6.809   3.612   7.095 -1.5092 -1.0622 -0.9786
  427MOL0     H58880   6.924   3.483   6.936 -1.6801  0.6268  0.8982
  427MOL0     H58881   6.958   3.620   6.838  0.4031  0.2535  0.8498
  427MOL0     H58882   7.160   3.571   6.957 -1.9163  0.0251 -0.5930
  427MOL0     H58883   7.097   3.725   7.003 -0.7817 -0.0589  0.8914
  427MOL0     H58884   7.297   3.533   7.257  0.4464 -0.4526  0.7501
  427MOL0     H58885   7.484   3.267   7.345  1.1127 -0.4308 -1.5191
  427MOL0     H58886   7.485   3.404   7.229  1.5758  0.6641  2.5884
  427MOL0     H58887   7.481   3.238   7.179 -0.4231 -0.2493  0.4576
  427MOL0     H58888   7.281   2.811   7.487 -0.7490  0.4562  0.0841
  427MOL0     H58889   7.331   2.581   7.447 -0.8347  1.8974  2.3993
  427MOL0     H58890   7.420   2.385   7.349 -0.2262 -0.4478  0.2637
  427MOL0     H58891   7.245   2.345   7.366 -0.3466 -1.1136 -0.8777
  427MOL0     H58892   7.370   2.142   7.286  0.7560 -0.3537 -0.2253
  427MOL0     H58893   7.266   2.203   7.162 -0.9753  0.4614  0.8991
  427MOL0     H58894   7.568   2.285   7.191  0.5366 -0.7945 -0.1814
  427MOL0     H58895   7.458   2.333   7.062 -0.4828  1.4862 -0.2408
  427MOL0     H58896   7.454   2.081   6.987  0.4038 -0.3867 -0.9875
  427MOL0     H58897   7.562   2.063   7.131 -0.5664  1.3263  1.5609
  427MOL0     H58898   7.697   2.257   6.982  0.8484 -1.2032  2.4161
  427MOL0     H58899   7.711   2.085   6.932 -1.3369 -0.3910  0.6905
  427MOL0     H58900   7.546   2.294   6.818 -0.9602 -0.3449  0.1976
  427MOL0     H58901   7.529   2.123   6.775  0.8120  1.5632 -2.7309
  427MOL0     H58902   7.636   2.230   6.604 -0.6432  1.2967  0.9580
  427MOL0     H58903   7.747   2.107   6.674 -0.7420  0.3151 -3.2651
  427MOL0     H58904   7.892   2.307   6.684  1.5455 -1.4144  3.9107
  427MOL0     H58905   7.824   2.300   6.841 -0.1654 -0.0732  0.9844
  427MOL0     H58906   7.191   2.625   7.041  1.6107 -1.3267 -0.1373
  427MOL0     H58907   7.133   2.869   7.096  0.0458  2.0827  2.3384
  427MOL0     H58908   7.009   3.140   7.184  0.6648 -0.7697  0.4187
  427MOL0     H58909   6.926   3.351   7.162  0.4880 -2.7012 -3.0806
  427MOL0     H58910   5.570   3.465   6.962  2.7947  0.2732  0.7326
  427MOL0     H58911   5.356   3.449   7.059  0.4142  0.1872 -0.7331
  427MOL0     H58912   5.174   3.661   7.576 -0.0506  0.2174 -0.4427
  427MOL0     H58913   4.959   3.659   7.690 -2.0620 -1.5873  0.7154
  427MOL0     H58914   4.637   3.378   7.820  0.0281 -1.8642  2.6354
  427MOL0     H58915   4.692   3.287   7.678  0.0178  0.2162  0.3932
  427MOL0     H58916   4.856   3.338   7.939  2.0412  2.8198 -2.7992
  427MOL0     H58917   4.905   3.236   7.807 -2.4551 -1.8473 -1.8151
  427MOL0     H58918   4.728   3.151   8.015  4.9965 -1.9393  1.0010
  427MOL0     H58919   4.659   3.114   7.847 -0.9141  0.2445  0.6679
  427MOL0     H58920   4.798   2.945   7.947 -1.8450 -0.2974 -1.7819
  427MOL0     H58921   4.938   3.046   7.918 -1.1565 -1.1190  1.9779
  427MOL0     H58922   4.873   2.906   7.534 -1.4499 -1.2902 -1.0810
  427MOL0     H58923   4.882   3.265   7.564 -0.7181  1.1214 -0.1242
  427MOL0     H58924   5.189   3.176   7.445 -0.7399  0.5915  2.5981
  427MOL0     H58925   5.024   3.139   7.434  3.5991 -2.6097  2.4347
  427MOL0     H58926   5.101   3.233   7.303  0.6800 -1.6245 -0.4866
  428MOL0     O58927   1.859   4.815   4.656  0.3778  0.2987  0.3217
  428MOL0     C58928   1.963   4.814   4.594  0.2370 -0.1900 -0.1506
  428MOL0     O58929   2.055   4.920   4.603 -0.4548  0.1482  0.4544
  428MOL0     C58930   2.042   5.018   4.697  0.2111 -0.4570  0.3695
  428MOL0     C58931   2.074   5.148   4.653 -0.1796 -0.2995 -0.2473
  428MOL0     C58932   2.071   5.258   4.737 -0.9201 -0.4708 -0.3913
  428MOL0     C58933   2.052   5.241   4.873  0.5929  0.3146 -0.2337
  428MOL0     O58934   2.063   5.341   4.972  0.0187  0.1103  0.1846
  428MOL0     C58935   2.150   5.453   4.935  0.6953  0.9125  0.2295
  428MOL0     C58936   2.069   5.569   4.870  0.0705  0.2322 -1.1212
  428MOL0     C58937   2.002   5.659   4.967  0.0704  0.0089 -0.2971
  428MOL0     C58938   1.921   5.767   4.898 -0.3277  0.4483 -0.2991
  428MOL0     C58939   1.834   5.843   5.000  0.3964  0.4277 -0.9512
  428MOL0     C58940   1.770   5.964   4.944  0.3945  0.6594 -0.2619
  428MOL0     C58941   1.650   6.021   5.020 -0.0019 -0.5945 -0.1956
  428MOL0     C58942   1.676   6.094   5.153 -1.0019  0.0238 -0.2201
  428MOL0     N58943   1.753   6.216   5.143  0.6018 -0.2575  0.3559
  428MOL0     C58944   1.879   6.243   5.166 -0.0385  0.1608  0.0069
  428MOL0     C58945   1.908   6.368   5.109  0.5508  0.7683 -0.5702
  428MOL0     C58946   2.039   6.444   5.131 -0.0615 -0.0201 -0.8562
  428MOL0     C58947   2.129   6.415   5.012 -0.9923  0.0724  0.9507
  428MOL0     C58948   2.095   6.516   4.894 -0.9790  0.2544  0.1837
  428MOL0     C58949   2.133   6.655   4.934 -0.1343  0.2502 -0.2258
  428MOL0     O58950   2.176   6.727   4.819 -0.3670  1.0488  0.0834
  428MOL0     C58951   2.203   6.863   4.822 -0.8964  0.3161 -0.6158
  428MOL0     C58952   2.212   6.933   4.697 -0.1944 -0.3974  0.1212
  428MOL0     C58953   2.187   7.076   4.691 -0.3310  0.3122  0.5112
  428MOL0     C58954   2.196   7.145   4.559  0.7149 -0.5694  0.4962
  428MOL0     C58955   2.188   7.146   4.813  0.6513 -0.3399  0.9233
  428MOL0     C58956   2.150   7.299   4.816 -0.1427 -0.9142  0.1765
  428MOL0     O58957   2.202   7.364   4.926  0.6677 -0.0262 -0.3960
  428MOL0     C58958   2.198   7.501   4.923 -0.6525  0.5874 -1.1688
  428MOL0     C58959   2.127   7.571   5.021  0.4202  0.1602  0.6720
  428MOL0     C58960   2.139   7.713   5.025 -0.5845 -0.8735 -0.3317
  428MOL0     C58961   2.202   7.778   4.919 -0.0812  1.0775  0.6178
  428MOL0     O58962   2.208   7.914   4.928 -0.0234  0.2100  0.1463
  428MOL0     C58963   2.330   7.993   4.913  0.8929 -0.0438  0.2307
  428MOL0     C58964   2.440   7.937   5.008 -0.8217  0.1948  0.0463
  428MOL0     C58965   2.563   8.021   4.998  0.2533  0.3496 -0.0962
  428MOL0     C58966   2.656   7.988   5.117  0.1463 -0.6769  0.3635
  428MOL0     C58967   2.791   8.054   5.110  0.9300  0.5250  0.7585
  428MOL0     C58968   2.889   8.011   5.216  0.3529  0.2139  0.0260
  428MOL0     C58969   2.849   8.064   5.356 -0.2878  0.6101 -0.0200
  428MOL0     C58970   2.959   8.050   5.460 -0.2224  1.0483  0.1210
  428MOL0    Cl58971   2.886   8.080   5.618  0.1732 -0.0616  0.0790
  428MOL0     C58972   2.274   7.705   4.823 -1.0110  0.3064  0.2584
  428MOL0     C58973   2.281   7.567   4.824 -0.0820  0.5300  0.3931
  428MOL0     O58974   2.084   7.350   4.724  0.1012  0.2748 -0.5041
  428MOL0     C58975   2.211   7.078   4.934 -0.1928  0.7166  0.3828
  428MOL0     C58976   2.203   6.941   4.934  0.2477  0.2785 -0.4125
  428MOL0     N58977   1.785   6.411   5.055  0.0245 -0.4024  0.7401
  428MOL0     N58978   1.693   6.320   5.079 -1.2260  0.6157 -0.3287
  428MOL0     C58979   2.014   5.112   4.924 -0.5017  0.3826  0.1280
  428MOL0     C58980   2.004   5.007   4.833  0.6506 -0.2775 -0.6366
  428MOL0     C58981   2.013   4.689   4.524 -0.4190 -0.9837  0.9633
  428MOL0     C58982   2.156   4.672   4.511 -0.1310 -0.2997 -0.1754
  428MOL0     C58983   2.216   4.573   4.430  0.8022  0.1308 -0.2208
  428MOL0     C58984   2.136   4.468   4.380  1.1767 -1.3834 -0.3843
  428MOL0     O58985   2.175   4.366   4.299  0.0977 -0.0575 -0.2304
  428MOL0     C58986   2.305   4.369   4.228  0.1734 -0.0938 -0.5463
  428MOL0     C58987   2.288   4.304   4.092  0.6154  0.5373  0.6114
  428MOL0     C58988   2.183   4.392   4.018 -1.3532  0.1011 -0.3388
  428MOL0     C58989   2.085   4.323   3.931  0.2574 -0.2623  0.3004
  428MOL0     C58990   1.973   4.287   4.024  0.5143  0.3272  0.3744
  428MOL0     C58991   1.893   4.266   4.114  0.5151  0.0569 -0.0479
  428MOL0     C58992   1.998   4.474   4.409 -0.3300  0.0201 -0.8823
  428MOL0     C58993   1.945   4.580   4.486  0.8388  0.2140 -0.0236
  428MOL0     C58994   1.794   4.573   4.511 -0.4994 -0.0109 -0.8261
  428MOL0     H58995   2.080   5.169   4.546  0.9034  3.6098  0.3996
  428MOL0     H58996   2.101   5.353   4.693  0.3637 -0.0568  1.2554
  428MOL0     H58997   2.226   5.408   4.870 -1.6514 -2.0201 -0.6809
  428MOL0     H58998   2.187   5.495   5.029  4.7021 -1.0649 -0.2664
  428MOL0     H58999   2.134   5.638   4.816 -2.2053  1.1097 -2.9228
  428MOL0     H59000   1.998   5.523   4.800 -1.4099  2.3943 -1.1342
  428MOL0     H59001   1.928   5.607   5.028 -1.7133  0.1769 -2.1965
  428MOL0     H59002   2.073   5.708   5.034 -0.7176 -0.7635  1.1398
  428MOL0     H59003   1.994   5.831   4.847  3.4778 -2.9225  0.3880
  428MOL0     H59004   1.857   5.724   4.821 -1.5094 -1.0893  1.4527
  428MOL0     H59005   1.895   5.884   5.082 -0.6744 -1.4797  0.9005
  428MOL0     H59006   1.761   5.779   5.049  0.4233 -0.9343 -2.5961
  428MOL0     H59007   1.845   6.043   4.933  1.1140 -0.2481 -2.4971
  428MOL0     H59008   1.720   5.938   4.850  0.9496  1.7147 -0.8668
  428MOL0     H59009   1.577   5.940   5.025 -1.4958  0.6248 -1.2705
  428MOL0     H59010   1.602   6.095   4.955  0.3792 -1.0227 -0.9742
  428MOL0     H59011   1.579   6.109   5.202 -1.7221 -3.9209 -0.1183
  428MOL0     H59012   1.727   6.026   5.221 -1.3358 -0.3192 -0.3052
  428MOL0     H59013   1.950   6.181   5.221 -2.5006 -3.3530 -0.4260
  428MOL0     H59014   2.086   6.403   5.221  0.4778  1.6694 -0.3319
  428MOL0     H59015   2.020   6.547   5.161 -0.6184 -0.7072  1.3369
  428MOL0     H59016   2.233   6.422   5.045 -1.1141 -3.0787  2.3416
  428MOL0     H59017   2.122   6.308   4.992  1.4164 -0.0573  0.4284
  428MOL0     H59018   2.151   6.490   4.804  1.5440 -1.3072  2.0701
  428MOL0     H59019   1.988   6.504   4.876 -1.0527  0.5538  0.4230
  428MOL0     H59020   2.047   6.706   4.977 -0.0519  1.6018 -1.5963
  428MOL0     H59021   2.219   6.651   5.001 -0.6817  2.7137  0.7127
  428MOL0     H59022   2.232   6.891   4.599  1.7878 -4.0426  1.8534
  428MOL0     H59023   2.241   7.085   4.480 -0.2340 -1.4946  0.6321
  428MOL0     H59024   2.257   7.236   4.567  0.3588 -0.4329  2.0785
  428MOL0     H59025   2.096   7.171   4.524  0.2778 -1.3344  1.1338
  428MOL0     H59026   2.070   7.521   5.099  1.2897 -2.3054 -0.1873
  428MOL0     H59027   2.085   7.762   5.106 -0.6795  0.2775 -1.0624
  428MOL0     H59028   2.375   7.992   4.813  0.3724 -0.0441 -0.0079
  428MOL0     H59029   2.295   8.091   4.947  0.2040  0.0665 -0.7490
  428MOL0     H59030   2.401   7.946   5.110 -0.3712  0.8533  0.1718
  428MOL0     H59031   2.472   7.834   4.995  1.8308  0.7735  1.2236
  428MOL0     H59032   2.529   8.123   5.018 -1.6227 -0.2326 -0.0708
  428MOL0     H59033   2.618   8.026   4.904 -2.0855 -0.9351 -1.6354
  428MOL0     H59034   2.665   7.879   5.130 -1.3084 -0.8112  0.4923
  428MOL0     H59035   2.606   8.026   5.207  0.6236  1.2678 -0.1443
  428MOL0     H59036   2.830   8.021   5.013 -0.1456  0.9975  0.1548
  428MOL0     H59037   2.783   8.163   5.100 -1.6536  0.4426  1.4490
  428MOL0     H59038   2.982   8.062   5.191  0.5841  0.8063  1.9384
  428MOL0     H59039   2.904   7.903   5.226 -1.0273 -0.4813 -3.9240
  428MOL0     H59040   2.755   8.016   5.385 -0.2771  0.3621 -0.3830
  428MOL0     H59041   2.839   8.172   5.338  0.1589  1.9252  5.7904
  428MOL0     H59042   3.045   8.113   5.438  0.1582  1.5223  2.7163
  428MOL0     H59043   3.006   7.951   5.462  2.0555  2.0852  1.4867
  428MOL0     H59044   2.332   7.751   4.743 -0.9028 -1.2451 -0.5896
  428MOL0     H59045   2.340   7.518   4.747  0.0115  0.8947  0.2292
  428MOL0     H59046   2.213   7.126   5.032 -1.9523 -0.5262  1.0669
  428MOL0     H59047   2.204   6.892   5.031  0.8545 -2.2494 -1.6150
  428MOL0     H59048   2.002   5.097   5.031  0.4759  2.6455  0.6113
  428MOL0     H59049   1.976   4.908   4.868 -1.7027  0.3162 -0.7065
  428MOL0     H59050   2.218   4.755   4.544  0.4487 -1.3760  1.6036
  428MOL0     H59051   2.323   4.572   4.413  0.9248  2.6638  0.0915
  428MOL0     H59052   2.345   4.470   4.213  0.9365  0.1640  2.4962
  428MOL0     H59053   2.380   4.318   4.290 -0.4230 -0.2741  0.0459
  428MOL0     H59054   2.263   4.200   4.114 -0.1775  0.4282 -0.7281
  428MOL0     H59055   2.378   4.288   4.032 -0.6970 -1.7768 -0.8706
  428MOL0     H59056   2.136   4.460   4.089  1.8352  0.9084  1.1581
  428MOL0     H59057   2.254   4.449   3.958  1.4430 -0.3450  2.3146
  428MOL0     H59058   2.124   4.233   3.882 -2.4185 -0.9471 -0.7581
  428MOL0     H59059   2.041   4.389   3.856 -3.3205 -3.5785 -0.8125
  428MOL0     H59060   1.827   4.255   4.197 -0.3218  0.7102 -0.6096
  428MOL0     H59061   1.933   4.406   4.355 -0.9929  0.4403 -0.6344
  428MOL0     H59062   1.747   4.671   4.501 -0.5811 -0.0736 -1.0602
  428MOL0     H59063   1.740   4.521   4.432 -0.4650 -1.4734  0.0717
  428MOL0     H59064   1.768   4.524   4.605  0.0498  0.6541 -0.3076
  429MOL0     O59065   0.034   3.464   2.904  0.0284 -0.0887 -0.1031
  429MOL0     C59066  -0.004   3.559   2.969 -0.1328 -0.8875 -0.8266
  429MOL0     O59067  -0.068   3.666   2.915 -0.3833 -0.2193 -0.4150
  429MOL0     C59068  -0.114   3.646   2.786  0.4570  0.5038 -0.0232
  429MOL0     C59069  -0.070   3.735   2.686 -0.5302 -0.6162  0.4834
  429MOL0     C59070  -0.109   3.723   2.553  0.5410  0.3310  0.0513
  429MOL0     C59071  -0.206   3.627   2.519  0.0509 -0.2748  0.3649
  429MOL0     O59072  -0.252   3.632   2.386 -0.2492 -0.3204 -0.3921
  429MOL0     C59073  -0.360   3.545   2.348  0.0507  0.2980  0.4301
  429MOL0     C59074  -0.386   3.586   2.208  0.1166 -0.1194 -0.0759
  429MOL0     C59075  -0.477   3.486   2.142  0.4817  0.0055 -0.1813
  429MOL0     C59076  -0.509   3.508   1.999 -0.3744 -0.0856  1.1860
  429MOL0     C59077  -0.548   3.384   1.922  0.0486  0.0193  0.3982
  429MOL0     C59078  -0.699   3.353   1.954 -0.7245  0.4255  0.8559
  429MOL0     C59079  -0.734   3.201   1.913  0.7161 -0.0878 -0.2262
  429MOL0     C59080  -0.697   3.098   2.017  0.0774  0.5471 -0.2172
  429MOL0     N59081  -0.771   3.104   2.144 -0.4088  0.1917 -0.0079
  429MOL0     C59082  -0.898   3.058   2.152  0.1292 -0.4950  0.1113
  429MOL0     C59083  -0.943   3.094   2.275 -0.4681  0.1076 -0.6391
  429MOL0     C59084  -1.063   3.035   2.336 -0.0342 -0.6697  0.7923
  429MOL0     C59085  -1.156   3.144   2.388 -0.5194  1.3764 -1.0930
  429MOL0     C59086  -1.302   3.103   2.392  0.9243 -0.0140 -0.3562
  429MOL0     C59087  -1.380   3.212   2.471  0.9566  0.2371  0.7274
  429MOL0     O59088  -1.416   3.167   2.600  0.5359 -0.7834  0.4783
  429MOL0     C59089  -1.527   3.218   2.645  0.4900 -0.6121 -0.6371
  429MOL0     C59090  -1.598   3.133   2.731  1.0236  0.2713  0.7109
  429MOL0     C59091  -1.714   3.178   2.802 -0.2769 -0.3769  0.1332
  429MOL0     C59092  -1.784   3.077   2.888 -1.0834  0.4130 -0.3129
  429MOL0     C59093  -1.756   3.317   2.775 -0.2411 -0.4783 -0.4239
  429MOL0     C59094  -1.873   3.376   2.848  0.2702 -0.7509 -0.1262
  429MOL0     O59095  -1.867   3.516   2.854 -0.0196  1.0010 -0.0219
  429MOL0     C59096  -1.968   3.588   2.914 -0.1156 -0.1010 -0.3622
  429MOL0     C59097  -1.949   3.680   3.021 -0.0264 -0.0600  0.3768
  429MOL0     C59098  -2.057   3.750   3.083 -1.4916  0.1912  1.0830
  429MOL0     C59099  -2.182   3.740   3.040  0.5156 -0.0651 -0.3918
  429MOL0     O59100  -2.269   3.813   3.113 -0.5053 -0.0376  0.3508
  429MOL0     C59101  -2.371   3.880   3.041 -0.0212  0.4404 -0.7174
  429MOL0     C59102  -2.430   3.986   3.133  0.1870 -0.3620  0.7231
  429MOL0     C59103  -2.540   4.071   3.069  0.3239 -0.3116 -0.0013
  429MOL0     C59104  -2.559   4.197   3.156  0.8041  0.8250  0.8968
  429MOL0     C59105  -2.669   4.293   3.096 -0.0176 -0.2739 -0.4111
  429MOL0     C59106  -2.597   4.392   2.998  0.6216  0.7900  0.0783
  429MOL0     C59107  -2.693   4.487   2.932  1.1468 -0.2122 -0.7072
  429MOL0     C59108  -2.636   4.581   2.835 -0.2089  0.0288 -0.1694
  429MOL0    Cl59109  -2.461   4.633   2.883 -0.0473  0.2009  0.2391
  429MOL0     C59110  -2.207   3.664   2.930 -0.0273  0.8401  0.8347
  429MOL0     C59111  -2.108   3.591   2.874 -0.1978 -0.5814  0.0327
  429MOL0     O59112  -1.972   3.308   2.870  0.3531 -0.2772 -0.7628
  429MOL0     C59113  -1.675   3.403   2.698  1.2291  0.5270 -0.2225
  429MOL0     C59114  -1.565   3.354   2.639 -0.4577  0.0623  0.1092
  429MOL0     N59115  -0.835   3.150   2.349  0.4513 -0.4276  0.1073
  429MOL0     N59116  -0.733   3.168   2.266 -0.1189 -0.0388 -0.6000
  429MOL0     C59117  -0.245   3.536   2.614 -0.3149 -0.7353  0.3654
  429MOL0     C59118  -0.207   3.554   2.746  0.6514  0.6135  0.0489
  429MOL0     C59119   0.035   3.576   3.117 -0.4345 -0.1485  0.3043
  429MOL0     C59120   0.021   3.709   3.172  1.1980  0.4419  0.8873
  429MOL0     C59121   0.047   3.737   3.304 -0.4489  0.9871 -0.9485
  429MOL0     C59122   0.067   3.630   3.390  0.7935 -0.2235 -0.5001
  429MOL0     O59123   0.079   3.637   3.531 -0.4755 -0.3471 -0.0245
  429MOL0     C59124   0.038   3.760   3.595 -0.4865  0.5092 -0.3569
  429MOL0     C59125   0.012   3.737   3.742  0.1474 -0.8916 -0.2970
  429MOL0     C59126  -0.061   3.861   3.811 -0.4602 -2.0565 -0.3201
  429MOL0     C59127  -0.070   3.827   3.955 -0.6818  0.2422  0.4641
  429MOL0     C59128  -0.160   3.906   4.032  0.6650 -1.2121 -0.3223
  429MOL0     C59129  -0.250   3.972   4.092 -0.1896 -0.3655  0.0534
  429MOL0     C59130   0.080   3.497   3.341 -0.3972 -0.8901 -0.6949
  429MOL0     C59131   0.073   3.465   3.202 -0.5858  0.4432  0.5063
  429MOL0     C59132   0.078   3.320   3.162  0.0300 -0.0147  0.5875
  429MOL0     H59133   0.005   3.811   2.702  1.0149 -2.1592  0.8911
  429MOL0     H59134  -0.079   3.793   2.476  1.1334  2.5431  2.1530
  429MOL0     H59135  -0.447   3.560   2.414 -0.8734  0.6004 -0.8126
  429MOL0     H59136  -0.326   3.441   2.355  1.6147  0.3549 -3.6673
  429MOL0     H59137  -0.426   3.688   2.217 -1.5209 -0.9216  2.9924
  429MOL0     H59138  -0.287   3.593   2.163 -0.2643  2.0289 -0.7028
  429MOL0     H59139  -0.426   3.390   2.156 -0.7672 -0.5870  0.4535
  429MOL0     H59140  -0.579   3.478   2.180 -0.6059 -3.7486 -3.2425
  429MOL0     H59141  -0.575   3.595   1.996  1.6062  1.4609  0.2104
  429MOL0     H59142  -0.414   3.527   1.947 -1.1387 -0.1750 -0.2679
  429MOL0     H59143  -0.480   3.303   1.952  1.3814 -0.5071 -3.4733
  429MOL0     H59144  -0.541   3.400   1.814  1.9721  0.7889  0.5948
  429MOL0     H59145  -0.724   3.369   2.059  2.0045 -1.5656  1.9509
  429MOL0     H59146  -0.759   3.424   1.897  0.9883 -1.1069 -3.2199
  429MOL0     H59147  -0.685   3.190   1.816  1.3756  3.1508 -0.3848
  429MOL0     H59148  -0.840   3.182   1.894  0.3922 -0.5410  1.7652
  429MOL0     H59149  -0.710   3.001   1.969  1.3524 -0.9389  2.2444
  429MOL0     H59150  -0.588   3.102   2.028  0.8981 -0.1522 -5.4281
  429MOL0     H59151  -0.961   3.004   2.081 -0.5889 -1.6185  1.5484
  429MOL0     H59152  -1.023   2.968   2.412 -3.4688 -1.3263  2.2243
  429MOL0     H59153  -1.108   2.973   2.257 -0.9488  0.0477  0.7293
  429MOL0     H59154  -1.113   3.175   2.484 -2.1395 -4.4516  1.9832
  429MOL0     H59155  -1.147   3.237   2.332  0.8228  2.6999  1.1732
  429MOL0     H59156  -1.345   3.098   2.291 -1.5246  0.8810  0.5891
  429MOL0     H59157  -1.306   3.011   2.450  3.4971  0.8631  1.3888
  429MOL0     H59158  -1.315   3.299   2.484  0.8352  0.3471  0.6005
  429MOL0     H59159  -1.472   3.244   2.420 -0.6499 -2.3216  1.8159
  429MOL0     H59160  -1.579   3.027   2.744  1.7044 -0.0682 -2.3710
  429MOL0     H59161  -1.875   3.041   2.839 -1.3836 -1.7356  1.6528
  429MOL0     H59162  -1.802   3.107   2.992  4.8914  0.2372  1.1299
  429MOL0     H59163  -1.731   2.982   2.892  1.3105  1.7002  0.9303
  429MOL0     H59164  -1.846   3.692   3.054 -0.6114  0.5160  2.0865
  429MOL0     H59165  -2.038   3.807   3.174  1.2318  0.9035  0.1407
  429MOL0     H59166  -2.334   3.927   2.950 -0.9044  0.8856 -0.8503
  429MOL0     H59167  -2.446   3.807   3.008  1.5665 -0.6722 -2.0204
  429MOL0     H59168  -2.483   3.947   3.221 -2.1459  1.6544  0.3097
  429MOL0     H59169  -2.346   4.048   3.166  1.5598 -1.5567 -0.3554
  429MOL0     H59170  -2.627   4.005   3.069  0.3662 -0.3897 -1.4308
  429MOL0     H59171  -2.512   4.101   2.968 -1.5056  2.0396  0.0918
  429MOL0     H59172  -2.470   4.260   3.159 -0.3397  2.6261 -0.7774
  429MOL0     H59173  -2.585   4.165   3.258  1.0655 -3.2478 -0.1146
  429MOL0     H59174  -2.753   4.239   3.049 -0.1276 -0.9305  0.5037
  429MOL0     H59175  -2.707   4.349   3.183  1.8762 -2.1144  1.7427
  429MOL0     H59176  -2.552   4.338   2.914 -3.1946 -0.7241 -1.2376
  429MOL0     H59177  -2.515   4.441   3.051 -0.1782  2.4480 -0.1609
  429MOL0     H59178  -2.729   4.552   3.013 -0.8111 -0.9116 -0.9527
  429MOL0     H59179  -2.780   4.429   2.899 -0.1467  0.2394  1.6529
  429MOL0     H59180  -2.692   4.674   2.832  0.2109  0.4297  2.3043
  429MOL0     H59181  -2.634   4.526   2.740 -0.8680 -0.9721  0.3717
  429MOL0     H59182  -2.307   3.650   2.890  0.1853 -0.1196  0.5994
  429MOL0     H59183  -2.132   3.523   2.793 -0.7046  0.1323 -0.4272
  429MOL0     H59184  -1.689   3.511   2.692 -1.6607  0.3788  1.5535
  429MOL0     H59185  -1.507   3.432   2.590 -2.0133  2.5702  1.9977
  429MOL0     H59186  -0.326   3.466   2.595 -1.6218  0.6449  0.6209
  429MOL0     H59187  -0.265   3.511   2.827 -0.6334 -0.3737 -1.3477
  429MOL0     H59188   0.013   3.793   3.103 -1.1987 -1.1570 -0.9438
  429MOL0     H59189   0.040   3.842   3.331 -3.4410  0.5133  0.6433
  429MOL0     H59190   0.117   3.832   3.574  2.2082 -2.7620 -2.4485
  429MOL0     H59191  -0.058   3.792   3.553 -0.0387  2.9434  0.3386
  429MOL0     H59192   0.113   3.734   3.784 -0.2359  3.1474  1.3275
  429MOL0     H59193  -0.045   3.644   3.747  0.5264 -1.2212 -1.5862
  429MOL0     H59194  -0.011   3.958   3.799 -1.6022 -1.3279  0.6061
  429MOL0     H59195  -0.165   3.882   3.784 -0.0132  1.4379  0.1717
  429MOL0     H59196   0.024   3.848   4.006 -1.5090 -0.9147  2.5992
  429MOL0     H59197  -0.101   3.723   3.971  1.7817 -0.3192  2.0969
  429MOL0     H59198  -0.311   4.051   4.131  2.2574  2.1365 -0.8509
  429MOL0     H59199   0.100   3.416   3.410  3.0826  0.5775  0.2256
  429MOL0     H59200   0.169   3.312   3.102 -0.4899 -2.5082 -0.0006
  429MOL0     H59201   0.089   3.249   3.244 -0.7582  0.2176  0.9070
  429MOL0     H59202  -0.011   3.296   3.104  2.5628  0.5314 -3.9976
  430MOL0     O59203   3.270   8.512   1.740 -0.1238  0.3159 -0.2163
  430MOL0     C59204   3.161   8.535   1.689  0.5912 -0.0069 -0.2032
  430MOL0     O59205   3.122   8.640   1.613  0.1103  0.0447  0.6204
  430MOL0     C59206   3.214   8.734   1.580  0.3898 -0.1676 -0.4470
  430MOL0     C59207   3.185   8.866   1.574  0.6677 -0.2976  0.1604
  430MOL0     C59208   3.281   8.956   1.512  0.2710  0.7259 -1.0014
  430MOL0     C59209   3.399   8.917   1.458 -0.4377 -0.0923 -0.0617
  430MOL0     O59210   3.474   9.013   1.392 -0.0508  0.2241  0.0401
  430MOL0     C59211   3.608   8.999   1.377 -0.3895  0.4647 -0.4184
  430MOL0     C59212   3.676   9.129   1.354  1.1964  0.1668 -0.6453
  430MOL0     C59213   3.698   9.156   1.206 -0.1083 -0.3731  0.3767
  430MOL0     C59214   3.679   9.315   1.186  0.0673  0.0626 -0.1350
  430MOL0     C59215   3.529   9.374   1.216 -0.2664  0.1380  0.7757
  430MOL0     C59216   3.434   9.290   1.133  0.1476  0.4129 -0.8416
  430MOL0     C59217   3.294   9.350   1.145 -0.4273  0.2347  0.1257
  430MOL0     C59218   3.203   9.308   1.032  0.1603  0.3374 -0.4731
  430MOL0     N59219   3.255   9.378   0.912 -0.8978 -0.3047  0.6773
  430MOL0     C59220   3.262   9.517   0.891  0.2568 -0.1185 -1.2303
  430MOL0     C59221   3.285   9.535   0.761  0.4650 -0.4620  0.7370
  430MOL0     C59222   3.297   9.663   0.690 -0.2264  0.6854  0.0542
  430MOL0     C59223   3.164   9.726   0.647 -0.2488  0.1186 -0.6142
  430MOL0     C59224   3.153   9.878   0.626  0.0874 -0.8077  0.1015
  430MOL0     C59225   3.231   9.959   0.523 -0.4202 -0.0737  0.3788
  430MOL0     O59226   3.369   9.948   0.537 -0.0373  0.7027 -0.3024
  430MOL0     C59227   3.449   9.922   0.431 -0.1015  0.1071  1.0506
  430MOL0     C59228   3.413   9.820   0.340 -0.8392 -0.4642 -0.3709
  430MOL0     C59229   3.488   9.777   0.234 -0.4460 -0.0007 -0.7702
  430MOL0     C59230   3.457   9.653   0.146  0.4381  0.0382 -0.0476
  430MOL0     C59231   3.627   9.827   0.221 -0.2703 -0.1961 -0.3051
  430MOL0     C59232   3.739   9.776   0.138  0.9741 -0.5311 -0.4654
  430MOL0     O59233   3.868   9.795   0.175  0.7717  0.0175 -0.2412
  430MOL0     C59234   3.954   9.810   0.067 -0.0585  0.2245  0.7635
  430MOL0     C59235   4.021   9.696   0.024 -0.0032  0.0972  0.0680
  430MOL0     C59236   4.138   9.707  -0.061 -0.3884  0.2592  0.6479
  430MOL0     C59237   4.175   9.827  -0.118 -0.1871 -0.6919 -0.6340
  430MOL0     O59238   4.278   9.823  -0.206  0.3223  0.6522 -0.5243
  430MOL0     C59239   4.319   9.945  -0.257 -0.4202 -0.3151  0.1344
  430MOL0     C59240   4.281   9.950  -0.406 -0.2163 -1.0372 -0.1525
  430MOL0     C59241   4.308   9.834  -0.502 -0.3329  0.1262  0.4049
  430MOL0     C59242   4.447   9.779  -0.521 -0.2145 -0.0205  0.4513
  430MOL0     C59243   4.472   9.656  -0.620  0.8423 -0.7136 -0.0879
  430MOL0     C59244   4.591   9.566  -0.584  0.2610 -0.2098 -0.8407
  430MOL0     C59245   4.560   9.417  -0.625  0.1076  0.4486 -0.3244
  430MOL0     C59246   4.682   9.322  -0.614  0.6633 -0.1666 -0.3001
  430MOL0    Cl59247   4.712   9.289  -0.438  0.2102  0.2822 -0.2298
  430MOL0     C59248   4.088   9.934  -0.099 -0.0591  0.6066 -0.4353
  430MOL0     C59249   3.985   9.932  -0.001 -0.5639  0.1005 -1.0701
  430MOL0     O59250   3.700   9.750   0.028  0.2585  0.0944 -0.6564
  430MOL0     C59251   3.667   9.919   0.318  0.1377 -1.1656  0.7404
  430MOL0     C59252   3.583   9.968   0.422 -0.5314  0.2798  0.2661
  430MOL0     N59253   3.284   9.411   0.702 -0.8077  0.2847  0.5004
  430MOL0     N59254   3.269   9.323   0.789 -0.3669  1.0224 -0.1794
  430MOL0     C59255   3.432   8.786   1.476  0.5124 -0.3738 -0.6141
  430MOL0     C59256   3.338   8.691   1.524 -0.4230  0.8209 -0.1070
  430MOL0     C59257   3.034   8.454   1.730  0.8838 -0.8906  0.3186
  430MOL0     C59258   2.911   8.466   1.664  0.2629  0.5003  0.4218
  430MOL0     C59259   2.801   8.393   1.698  0.5195  1.0213 -0.3110
  430MOL0     C59260   2.810   8.282   1.778 -0.3233  0.8332 -0.2903
  430MOL0     O59261   2.706   8.192   1.786 -0.0181 -0.0381 -0.6943
  430MOL0     C59262   2.752   8.062   1.814  1.3696 -0.3551 -0.5119
  430MOL0     C59263   2.632   7.970   1.827  0.2957 -0.2382 -0.3208
  430MOL0     C59264   2.677   7.828   1.857  0.0480 -0.1375 -0.5771
  430MOL0     C59265   2.548   7.737   1.847  0.7951 -0.0254 -0.0119
  430MOL0     C59266   2.435   7.771   1.932  0.6798 -0.4024 -0.2317
  430MOL0     C59267   2.347   7.814   2.006 -0.5193 -0.8471 -1.3321
  430MOL0     C59268   2.932   8.264   1.855 -0.4387  0.1209  0.6331
  430MOL0     C59269   3.040   8.348   1.829  0.2580  1.0733  0.3239
  430MOL0     C59270   3.164   8.318   1.907 -0.2663 -0.2673  0.0273
  430MOL0     H59271   3.096   8.904   1.622  0.2782  0.7637 -1.3193
  430MOL0     H59272   3.251   9.059   1.495 -2.9775 -0.4124 -3.1985
  430MOL0     H59273   3.641   8.931   1.299 -0.1277 -0.2145  0.2766
  430MOL0     H59274   3.652   8.956   1.467  0.7229 -1.0770 -1.6597
  430MOL0     H59275   3.626   9.210   1.408  0.8149 -0.7930  0.4692
  430MOL0     H59276   3.773   9.131   1.404  1.2476  0.6168 -0.7497
  430MOL0     H59277   3.800   9.125   1.186 -0.2102 -3.2772  3.4344
  430MOL0     H59278   3.632   9.091   1.148  0.6355 -1.0333  0.2670
  430MOL0     H59279   3.748   9.362   1.257 -1.2827  0.4917  0.9465
  430MOL0     H59280   3.703   9.353   1.087 -0.4987  1.0443  0.0852
  430MOL0     H59281   3.529   9.480   1.189 -0.5199 -0.0119  0.1456
  430MOL0     H59282   3.496   9.361   1.319  0.3348  4.1322  1.6149
  430MOL0     H59283   3.476   9.298   1.032  0.0282  1.6230 -0.8108
  430MOL0     H59284   3.439   9.185   1.162  1.1043  1.0311  1.4546
  430MOL0     H59285   3.294   9.458   1.161 -2.2512 -0.0508  2.7621
  430MOL0     H59286   3.248   9.318   1.239 -1.6542  1.1198 -0.1520
  430MOL0     H59287   3.202   9.198   1.030 -1.0689  0.2282  2.1161
  430MOL0     H59288   3.101   9.339   1.056  0.0775 -1.9967  3.0022
  430MOL0     H59289   3.250   9.591   0.970  1.7559 -3.6518  2.7281
  430MOL0     H59290   3.364   9.652   0.603  0.5750  1.6662  0.5244
  430MOL0     H59291   3.345   9.724   0.767  0.4812  0.8264 -0.4819
  430MOL0     H59292   3.117   9.670   0.566 -1.4787 -0.8636  0.7226
  430MOL0     H59293   3.100   9.706   0.734 -0.6620  0.5414 -0.8163
  430MOL0     H59294   3.045   9.888   0.616  0.0608 -1.2467 -0.0510
  430MOL0     H59295   3.192   9.925   0.717  0.9122  0.4455 -0.8510
  430MOL0     H59296   3.203   9.921   0.424  1.5182  5.3954 -2.7030
  430MOL0     H59297   3.200  10.064   0.517 -3.5567 -0.9476 -0.7105
  430MOL0     H59298   3.327   9.757   0.361 -0.7475 -0.2632  0.6332
  430MOL0     H59299   3.540   9.583   0.137 -0.4830 -0.7884 -3.3142
  430MOL0     H59300   3.443   9.680   0.041  0.2130 -2.5387 -0.7497
  430MOL0     H59301   3.366   9.604   0.181  0.1443 -0.8010 -1.9228
  430MOL0     H59302   3.976   9.605   0.063 -1.1604  0.7132  0.2466
  430MOL0     H59303   4.195   9.620  -0.094 -2.8379 -2.2592  2.5236
  430MOL0     H59304   4.279  10.043  -0.227 -1.6749  0.9160 -4.7187
  430MOL0     H59305   4.428   9.941  -0.254 -0.3532  1.1270  0.6319
  430MOL0     H59306   4.175   9.974  -0.410  0.3372  1.6170 -1.1264
  430MOL0     H59307   4.332  10.042  -0.436 -2.3469 -0.0513 -0.9312
  430MOL0     H59308   4.272   9.869  -0.599  3.9702 -1.8266 -2.1932
  430MOL0     H59309   4.225   9.766  -0.486 -3.3938  3.5024  0.1951
  430MOL0     H59310   4.481   9.757  -0.419  3.3746 -0.4248 -0.6989
  430MOL0     H59311   4.511   9.863  -0.549 -0.6492 -0.5291 -2.3877
  430MOL0     H59312   4.381   9.597  -0.611  0.3638 -0.3006 -1.9004
  430MOL0     H59313   4.473   9.693  -0.723  0.8470  1.3405  0.6057
  430MOL0     H59314   4.593   9.552  -0.475  1.4628 -0.6773 -0.9206
  430MOL0     H59315   4.686   9.608  -0.616  1.0401 -1.0800  0.2616
  430MOL0     H59316   4.512   9.405  -0.723  0.0252 -1.6604 -0.0700
  430MOL0     H59317   4.487   9.383  -0.551  2.8084  1.6506  3.1561
  430MOL0     H59318   4.771   9.374  -0.652 -1.3541  2.4116 -1.8453
  430MOL0     H59319   4.663   9.233  -0.673 -0.1912  0.8681 -1.6206
  430MOL0     H59320   4.082  10.027  -0.155  1.3553  0.0354 -1.6066
  430MOL0     H59321   3.931  10.026   0.009 -2.6289 -0.8246 -2.7726
  430MOL0     H59322   3.762   9.967   0.298 -0.6310  0.6802  1.2881
  430MOL0     H59323   3.606  10.047   0.492 -1.6511  0.1510  0.8153
  430MOL0     H59324   3.531   8.753   1.445  0.4203 -0.0585 -1.2643
  430MOL0     H59325   3.378   8.591   1.520  1.4756  1.5524 -0.5707
  430MOL0     H59326   2.912   8.547   1.592 -1.1988 -0.5834 -0.8739
  430MOL0     H59327   2.713   8.405   1.636  0.5856 -1.6092 -1.0312
  430MOL0     H59328   2.822   8.025   1.739  4.3039 -1.8409  2.7024
  430MOL0     H59329   2.792   8.058   1.915 -0.1622 -1.0906  0.0983
  430MOL0     H59330   2.573   7.977   1.735  0.8197 -1.8337 -0.8078
  430MOL0     H59331   2.559   8.005   1.901 -3.4907 -2.5810 -2.6047
  430MOL0     H59332   2.743   7.805   1.773 -0.0627 -2.7617 -0.0610
  430MOL0     H59333   2.742   7.802   1.942  1.1808  2.2723 -0.6292
  430MOL0     H59334   2.592   7.637   1.861  0.3327 -0.3241 -0.6445
  430MOL0     H59335   2.521   7.740   1.741  4.9716 -0.0943 -1.2603
  430MOL0     H59336   2.273   7.859   2.068  1.2772  1.7731 -0.9116
  430MOL0     H59337   2.942   8.191   1.935  2.2091 -0.6733 -0.3210
  430MOL0     H59338   3.197   8.412   1.952 -1.0195 -0.7911  1.7798
  430MOL0     H59339   3.163   8.243   1.986  2.7210 -1.0706 -0.5839
  430MOL0     H59340   3.229   8.276   1.830 -0.2839 -2.2291  1.0262
  431MOL0     O59341   3.628   3.110  10.888  0.2344  0.5615 -0.5987
  431MOL0     C59342   3.562   3.090  10.995 -0.4622 -0.9357 -0.9779
  431MOL0     O59343   3.569   2.980  11.075  0.5039  0.6997  0.3598
  431MOL0     C59344   3.669   2.888  11.034  0.1701  0.2723 -0.3744
  431MOL0     C59345   3.792   2.909  11.094 -0.6089  0.5719  0.0157
  431MOL0     C59346   3.896   2.824  11.061 -0.5918  0.3175  1.1591
  431MOL0     C59347   3.892   2.723  10.966  0.2507  0.4892  0.0602
  431MOL0     O59348   4.012   2.664  10.942  0.2334  0.5566  0.4825
  431MOL0     C59349   4.004   2.536  10.866 -0.3940 -0.9065 -0.9120
  431MOL0     C59350   4.149   2.483  10.896  0.1014  0.6860  0.0052
  431MOL0     C59351   4.152   2.433  11.036  0.0478 -0.2917 -0.9485
  431MOL0     C59352   4.286   2.369  11.087 -0.9294 -1.3124 -0.0080
  431MOL0     C59353   4.262   2.281  11.215 -0.1921  0.2435  0.3989
  431MOL0     C59354   4.384   2.203  11.255  0.4924  0.8567  1.0026
  431MOL0     C59355   4.499   2.307  11.285 -0.1209 -0.1679  0.0270
  431MOL0     C59356   4.600   2.246  11.390 -0.1316  0.3795  0.1512
  431MOL0     N59357   4.611   2.334  11.509  0.8621  0.2092  0.1516
  431MOL0     C59358   4.504   2.359  11.593 -0.0738 -0.5449 -0.1632
  431MOL0     C59359   4.558   2.391  11.712  0.0678  0.0272  0.3557
  431MOL0     C59360   4.501   2.420  11.851  0.1942 -0.1438 -1.1652
  431MOL0     C59361   4.531   2.560  11.904 -0.1750  0.4316 -0.3686
  431MOL0     C59362   4.518   2.668  11.797  0.2744  0.3700 -0.1632
  431MOL0     C59363   4.494   2.811  11.847  0.0312  0.0003 -0.9811
  431MOL0     O59364   4.602   2.878  11.921 -0.4005 -0.6571  0.3062
  431MOL0     C59365   4.656   2.998  11.877  0.2510  0.5731 -0.3116
  431MOL0     C59366   4.576   3.113  11.875 -0.0869  0.0815 -0.1001
  431MOL0     C59367   4.631   3.228  11.820  0.6955  0.2871  0.0052
  431MOL0     C59368   4.541   3.352  11.823 -0.0131  0.4488 -0.2662
  431MOL0     C59369   4.760   3.220  11.768  0.0238  0.1685 -0.1313
  431MOL0     C59370   4.822   3.343  11.708 -1.6577 -0.6688 -0.5881
  431MOL0     O59371   4.748   3.442  11.649 -0.1861 -0.3253  0.2666
  431MOL0     C59372   4.814   3.552  11.596 -0.7884 -0.3320 -0.1525
  431MOL0     C59373   4.943   3.614  11.625 -0.2123  1.2513 -0.0160
  431MOL0     C59374   4.989   3.721  11.553  0.0479 -0.1330 -0.1376
  431MOL0     C59375   4.911   3.786  11.459  0.3295  0.0118 -0.8525
  431MOL0     O59376   4.962   3.895  11.392 -0.2333 -0.6312 -0.5089
  431MOL0     C59377   4.952   3.911  11.244 -0.3828  0.8302 -0.5095
  431MOL0     C59378   4.868   4.030  11.220  0.5390  0.4719 -0.1796
  431MOL0     C59379   4.870   4.052  11.066  0.8370  0.5082  0.1490
  431MOL0     C59380   4.775   3.966  10.991  1.1473 -0.3115 -0.3856
  431MOL0     C59381   4.799   3.985  10.841  0.1514 -0.3376  0.4864
  431MOL0     C59382   4.675   3.960  10.758 -0.0929  0.6019 -0.0827
  431MOL0     C59383   4.712   3.970  10.610  0.7846 -0.8854 -0.2030
  431MOL0     C59384   4.593   3.944  10.520  0.5538 -0.9691  0.1174
  431MOL0    Cl59385   4.642   3.943  10.349 -0.4351 -0.1695 -0.0535
  431MOL0     C59386   4.781   3.727  11.430 -0.1326  0.1444 -1.3534
  431MOL0     C59387   4.734   3.618  11.500  0.3784  0.2507 -0.0178
  431MOL0     O59388   4.944   3.345  11.722  0.1603  0.0867  0.2185
  431MOL0     C59389   4.835   3.105  11.789 -0.1709  0.6401  0.0471
  431MOL0     C59390   4.791   2.991  11.844 -0.2246  0.6547 -0.2490
  431MOL0     N59391   4.699   2.383  11.693 -0.5158  0.0944 -0.6653
  431MOL0     N59392   4.726   2.348  11.567  0.2356 -0.7143 -0.2071
  431MOL0     C59393   3.763   2.697  10.912  0.1801 -0.4354  0.2654
  431MOL0     C59394   3.656   2.779  10.942  0.7304  0.4433 -0.4861
  431MOL0     C59395   3.487   3.215  11.034 -0.6064 -0.8706 -0.2401
  431MOL0     C59396   3.552   3.342  11.014  0.1522  1.1210 -0.5661
  431MOL0     C59397   3.484   3.460  11.059 -0.1310 -0.2874  0.1383
  431MOL0     C59398   3.366   3.458  11.128  0.2773 -0.4366  0.2038
  431MOL0     O59399   3.324   3.585  11.165  0.6343 -0.4209 -0.1155
  431MOL0     C59400   3.195   3.627  11.114 -0.2481  0.2373  0.0392
  431MOL0     C59401   3.208   3.667  10.962  0.3147 -0.3683 -0.1104
  431MOL0     C59402   3.285   3.800  10.936 -0.6252 -0.4724 -0.0418
  431MOL0     C59403   3.198   3.925  10.971  0.8441 -0.3558 -0.3552
  431MOL0     C59404   3.080   3.936  10.881  0.6357  0.4850 -0.4156
  431MOL0     C59405   2.982   3.917  10.813 -0.9771  0.1890  0.9138
  431MOL0     C59406   3.300   3.331  11.148 -0.6146 -0.4173 -0.6863
  431MOL0     C59407   3.359   3.214  11.095  0.4996 -0.5422 -0.6941
  431MOL0     C59408   3.279   3.089  11.110 -0.1279 -0.4956 -0.2286
  431MOL0     H59409   3.810   2.991  11.163  1.1660 -2.1858  3.0708
  431MOL0     H59410   3.999   2.840  11.093 -0.2939 -0.2792  0.5427
  431MOL0     H59411   3.991   2.545  10.758  0.9818  0.7045 -0.9841
  431MOL0     H59412   3.922   2.471  10.897 -3.0628  2.4645 -0.3147
  431MOL0     H59413   4.171   2.397  10.832 -1.5549  0.6629 -0.5835
  431MOL0     H59414   4.233   2.553  10.888 -0.7244  1.9900  1.9627
  431MOL0     H59415   4.133   2.522  11.097  0.6116 -0.4135 -0.5904
  431MOL0     H59416   4.072   2.362  11.062 -0.5218  0.5220 -0.4350
  431MOL0     H59417   4.328   2.308  11.007  0.4998 -1.5780  0.9140
  431MOL0     H59418   4.360   2.444  11.116  1.5643 -3.7042  0.2426
  431MOL0     H59419   4.192   2.200  11.196 -1.1078  0.8981  0.9192
  431MOL0     H59420   4.212   2.342  11.290 -0.9651  0.2321 -0.1007
  431MOL0     H59421   4.350   2.140  11.338 -2.2010 -1.4701 -1.6549
  431MOL0     H59422   4.413   2.131  11.178 -1.3550  0.3111  0.7841
  431MOL0     H59423   4.469   2.408  11.315  1.2467  1.0919 -2.5121
  431MOL0     H59424   4.551   2.333  11.193 -1.0696 -0.4455 -0.6062
  431MOL0     H59425   4.568   2.146  11.422 -1.5382  1.4112  2.2242
  431MOL0     H59426   4.701   2.248  11.349 -0.3496 -2.1388 -0.6553
  431MOL0     H59427   4.399   2.344  11.575 -0.6514  2.4313  0.1405
  431MOL0     H59428   4.544   2.350  11.924 -2.0831  0.0102  0.4511
  431MOL0     H59429   4.393   2.400  11.858 -0.1375  1.3253 -1.7634
  431MOL0     H59430   4.480   2.586  11.997 -0.4241 -1.1124 -0.0505
  431MOL0     H59431   4.638   2.560  11.924 -0.0941 -1.8240 -0.6126
  431MOL0     H59432   4.604   2.665  11.730  0.1584  0.2980 -0.3096
  431MOL0     H59433   4.439   2.641  11.726  1.5510  1.5697 -2.1439
  431MOL0     H59434   4.478   2.862  11.752 -1.2072 -2.5632 -2.2657
  431MOL0     H59435   4.402   2.815  11.905  0.6311 -1.9256  0.2147
  431MOL0     H59436   4.474   3.106  11.912 -0.1079  0.5866 -0.0563
  431MOL0     H59437   4.440   3.342  11.863 -0.5634 -3.2527 -2.1118
  431MOL0     H59438   4.521   3.376  11.718  0.3756 -1.2401 -0.7585
  431MOL0     H59439   4.589   3.440  11.867  1.1478  0.0725 -0.7276
  431MOL0     H59440   5.012   3.575  11.699 -0.6462  1.0653  0.2901
  431MOL0     H59441   5.081   3.770  11.583  0.0665 -0.8232  1.0184
  431MOL0     H59442   5.052   3.921  11.202  0.5407 -0.2783  1.2985
  431MOL0     H59443   4.910   3.815  11.213 -2.3867  0.6324  2.3544
  431MOL0     H59444   4.765   4.022  11.257  0.5847 -0.3948 -0.2345
  431MOL0     H59445   4.910   4.125  11.256  0.1894  1.1107 -1.3881
  431MOL0     H59446   4.969   4.036  11.023  0.6684  1.5923 -0.6850
  431MOL0     H59447   4.836   4.154  11.049 -2.7597 -0.4198  0.8861
  431MOL0     H59448   4.673   3.991  11.021  1.7376 -1.7274  3.2452
  431MOL0     H59449   4.787   3.863  11.024  0.4371  0.0363  1.0236
  431MOL0     H59450   4.834   4.088  10.826 -1.7923  0.0042 -2.2898
  431MOL0     H59451   4.882   3.917  10.819 -0.2016 -2.1496  4.0475
  431MOL0     H59452   4.592   4.029  10.774 -2.5868 -1.8022 -1.6223
  431MOL0     H59453   4.638   3.857  10.761 -0.9052  0.8791  2.5473
  431MOL0     H59454   4.796   3.904  10.585  0.7744  0.0464 -3.0823
  431MOL0     H59455   4.739   4.076  10.600 -1.0169 -0.4764 -1.1619
  431MOL0     H59456   4.518   4.022  10.534 -0.0147 -1.3540 -0.7213
  431MOL0     H59457   4.560   3.841  10.534  0.7855 -0.7217  3.0427
  431MOL0     H59458   4.718   3.768  11.352 -0.2096 -0.3260 -1.5389
  431MOL0     H59459   4.640   3.568  11.480  1.2859 -1.6809  0.3528
  431MOL0     H59460   4.935   3.109  11.747 -0.3192 -0.8734 -0.4922
  431MOL0     H59461   4.859   2.907  11.858 -2.0562 -0.8760 -0.1324
  431MOL0     H59462   3.743   2.622  10.836 -0.0607  1.7138 -1.9185
  431MOL0     H59463   3.563   2.758  10.891 -0.2206  0.3754  1.2048
  431MOL0     H59464   3.652   3.355  10.973  0.0802  1.0121 -0.7780
  431MOL0     H59465   3.542   3.550  11.046  1.4704 -1.1240  1.1557
  431MOL0     H59466   3.128   3.540  11.108  0.5927 -0.3950 -0.4404
  431MOL0     H59467   3.150   3.704  11.176 -0.8879  0.4967 -0.7313
  431MOL0     H59468   3.103   3.671  10.931  0.0714  0.4930  0.7875
  431MOL0     H59469   3.251   3.585  10.904 -1.7077 -0.2682 -1.8768
  431MOL0     H59470   3.392   3.801  10.956 -0.2266 -1.4170 -1.8763
  431MOL0     H59471   3.292   3.801  10.826 -1.3569  0.4246 -0.0931
  431MOL0     H59472   3.257   4.015  10.948 -0.3374  1.9918  4.4252
  431MOL0     H59473   3.170   3.944  11.075 -1.5695  1.2469 -1.2002
  431MOL0     H59474   2.908   3.931  10.738  1.3294  1.5909 -1.2627
  431MOL0     H59475   3.205   3.334  11.200 -0.3541  0.1985 -0.2434
  431MOL0     H59476   3.320   3.047  11.202  2.4340 -0.4833 -1.2758
  431MOL0     H59477   3.171   3.102  11.116  0.0609  0.4900  2.3113
  431MOL0     H59478   3.305   3.016  11.032 -1.8417 -0.4190 -0.9063
  432MOL0     O59479   4.235   3.531   3.256  0.0938  0.0973  0.5242
  432MOL0     C59480   4.222   3.414   3.207  0.0193 -0.0941 -1.0762
  432MOL0     O59481   4.103   3.345   3.212  0.1812 -0.2896 -0.2424
  432MOL0     C59482   3.993   3.393   3.275 -0.5539  0.7752  0.5272
  432MOL0     C59483   3.942   3.324   3.382 -0.3726 -0.4198 -0.1118
  432MOL0     C59484   3.826   3.383   3.439  0.1779  0.4013  0.2947
  432MOL0     C59485   3.762   3.504   3.396 -0.5905  0.1979  1.0594
  432MOL0     O59486   3.654   3.569   3.448  0.2581  0.4603 -0.4092
  432MOL0     C59487   3.554   3.488   3.506 -0.2629 -0.1354 -0.1285
  432MOL0     C59488   3.439   3.568   3.558  0.4086 -0.6272  0.0007
  432MOL0     C59489   3.331   3.484   3.619  0.3210  0.7034  0.5931
  432MOL0     C59490   3.265   3.395   3.510 -0.0717 -0.1573 -1.2768
  432MOL0     C59491   3.163   3.299   3.565  0.3448 -0.1085  0.0136
  432MOL0     C59492   3.091   3.211   3.462 -0.1784  0.5800  0.2749
  432MOL0     C59493   2.955   3.167   3.527  0.5680  0.0163  0.6797
  432MOL0     C59494   2.986   3.073   3.649  0.7689  1.0401  0.2984
  432MOL0     N59495   2.848   3.041   3.688  0.0781 -0.6570  0.6783
  432MOL0     C59496   2.801   2.910   3.703  0.0096 -0.2627 -0.1535
  432MOL0     C59497   2.667   2.927   3.721 -0.0885  0.2894 -0.2746
  432MOL0     C59498   2.577   2.798   3.717 -0.0170 -0.5132 -0.3540
  432MOL0     C59499   2.430   2.830   3.672 -0.9166  0.8062  1.1754
  432MOL0     C59500   2.325   2.821   3.775  0.4983  0.2630 -0.5810
  432MOL0     C59501   2.352   2.943   3.870 -0.7668 -0.0748  0.5211
  432MOL0     O59502   2.249   2.958   3.961  0.4973 -0.5107 -0.7269
  432MOL0     C59503   2.233   2.890   4.082  0.0138  1.3715 -0.6213
  432MOL0     C59504   2.105   2.899   4.129  0.8670  0.9049  0.2062
  432MOL0     C59505   2.065   2.823   4.245  0.0170  0.4126  0.6815
  432MOL0     C59506   1.917   2.825   4.298  0.6939 -0.0003 -0.7020
  432MOL0     C59507   2.154   2.729   4.302  0.5896 -0.4526 -0.4504
  432MOL0     C59508   2.121   2.644   4.420  0.2014  0.1203 -0.1729
  432MOL0     O59509   2.165   2.519   4.399  0.2863  0.2265  0.2115
  432MOL0     C59510   2.140   2.413   4.487 -0.0891  0.5266 -0.1884
  432MOL0     C59511   2.032   2.333   4.454 -0.4263 -0.1293  0.0952
  432MOL0     C59512   2.002   2.221   4.542  0.5095  0.5113  0.5222
  432MOL0     C59513   2.081   2.199   4.651  0.1357  0.8747  0.8214
  432MOL0     O59514   2.066   2.082   4.728  1.1873 -0.4503  0.1140
  432MOL0     C59515   1.960   2.067   4.823 -0.0528 -0.9694  0.2725
  432MOL0     C59516   1.975   1.915   4.861  0.8417 -0.0264  0.3066
  432MOL0     C59517   1.848   1.867   4.939  0.1623  0.2898  0.4485
  432MOL0     C59518   1.817   1.929   5.076  0.2619 -1.0288  0.7385
  432MOL0     C59519   1.690   1.889   5.137  0.1588  0.2684 -0.3593
  432MOL0     C59520   1.668   1.974   5.264 -0.2184  0.8452 -0.2836
  432MOL0     C59521   1.555   1.915   5.350 -0.4085  0.7385  0.9190
  432MOL0     C59522   1.522   1.987   5.479  0.5846 -0.5053  0.9350
  432MOL0    Cl59523   1.520   2.169   5.443  0.4255  0.2655  0.1621
  432MOL0     C59524   2.186   2.278   4.682  0.1540 -0.7439  0.9896
  432MOL0     C59525   2.223   2.382   4.597 -1.0550 -0.3882  0.6012
  432MOL0     O59526   2.061   2.680   4.526 -0.0331  0.7226  1.0417
  432MOL0     C59527   2.285   2.717   4.247  0.4297  0.1417 -0.2245
  432MOL0     C59528   2.324   2.792   4.138 -0.6804  0.6945  0.3135
  432MOL0     N59529   2.642   3.064   3.738 -0.7407  0.0443  0.2043
  432MOL0     N59530   2.752   3.130   3.719  0.0297  0.0899 -0.0387
  432MOL0     C59531   3.828   3.571   3.296 -0.3300  0.6293  0.0820
  432MOL0     C59532   3.937   3.514   3.235 -0.0016 -0.3764  1.0646
  432MOL0     C59533   4.319   3.365   3.104 -0.4259  0.9367 -0.5683
  432MOL0     C59534   4.343   3.230   3.098 -0.5503  0.5726 -0.2970
  432MOL0     C59535   4.445   3.168   3.017 -0.5745  0.0751  0.9869
  432MOL0     C59536   4.518   3.254   2.935  0.3356  0.3641  0.1242
  432MOL0     O59537   4.613   3.203   2.849 -0.2406  0.2143  0.0726
  432MOL0     C59538   4.656   3.064   2.847  0.2582  0.9075 -0.0702
  432MOL0     C59539   4.805   3.052   2.801 -0.1754  0.8534 -0.2710
  432MOL0     C59540   4.896   3.138   2.888  0.7643 -0.1458 -1.4603
  432MOL0     C59541   4.979   3.237   2.803  0.7435  0.6197  0.2441
  432MOL0     C59542   5.088   3.309   2.872  1.1109 -0.3001 -0.4913
  432MOL0     C59543   5.182   3.361   2.928  0.4152  0.0093 -0.0095
  432MOL0     C59544   4.500   3.388   2.946  0.0288  0.2045  0.3493
  432MOL0     C59545   4.399   3.449   3.024  0.3089  0.0151  0.1541
  432MOL0     C59546   4.411   3.599   3.028 -0.2525 -0.5686  0.2405
  432MOL0     H59547   3.987   3.231   3.416 -0.4821  0.1688  1.7863
  432MOL0     H59548   3.776   3.339   3.524 -1.5341 -2.5691 -2.0487
  432MOL0     H59549   3.602   3.435   3.588  2.4408  2.6257  0.2631
  432MOL0     H59550   3.527   3.417   3.427  0.9418  0.1191 -0.7906
  432MOL0     H59551   3.464   3.653   3.623 -1.0252  0.7643 -1.1824
  432MOL0     H59552   3.395   3.616   3.471  1.1596 -0.2004 -0.1586
  432MOL0     H59553   3.383   3.413   3.684  1.0941  1.3707  0.7197
  432MOL0     H59554   3.256   3.536   3.678  1.4090 -0.8241  3.5157
  432MOL0     H59555   3.214   3.452   3.432 -0.2393 -1.7671 -2.3744
  432MOL0     H59556   3.341   3.331   3.464  0.7541 -0.0113 -0.1745
  432MOL0     H59557   3.084   3.348   3.623  0.2012  4.3026 -3.3945
  432MOL0     H59558   3.214   3.233   3.636 -1.7472 -1.2776  0.5189
  432MOL0     H59559   3.083   3.262   3.366  0.4434  0.1180 -0.0278
  432MOL0     H59560   3.152   3.120   3.457 -0.8084 -0.1667  3.5934
  432MOL0     H59561   2.892   3.113   3.456  0.5665  1.6878 -0.6512
  432MOL0     H59562   2.893   3.254   3.551 -0.4779  0.5642 -3.3461
  432MOL0     H59563   3.043   2.984   3.620 -3.3602 -2.7636  2.5970
  432MOL0     H59564   3.033   3.117   3.738  0.4920 -1.5189  1.8120
  432MOL0     H59565   2.855   2.817   3.689  1.3073  0.0330  2.4131
  432MOL0     H59566   2.591   2.741   3.809 -3.7620  0.7725  1.1886
  432MOL0     H59567   2.610   2.736   3.633  0.8286 -1.4172  0.6177
  432MOL0     H59568   2.435   2.924   3.617 -2.4399  1.2107  1.6603
  432MOL0     H59569   2.390   2.759   3.599 -0.8358  0.1410  1.7698
  432MOL0     H59570   2.223   2.845   3.743  0.9449  0.7611 -1.7179
  432MOL0     H59571   2.323   2.723   3.823 -0.0170  0.8590  0.6561
  432MOL0     H59572   2.447   2.941   3.925 -0.3732  1.7815 -0.0120
  432MOL0     H59573   2.351   3.036   3.813  0.3011  1.1258  2.3538
  432MOL0     H59574   2.030   2.960   4.080  0.1931  0.7323  0.9979
  432MOL0     H59575   1.865   2.896   4.232  1.8316  1.5371 -0.0045
  432MOL0     H59576   1.919   2.851   4.404  2.1122  1.2659 -0.9984
  432MOL0     H59577   1.883   2.721   4.290 -1.8578  0.2976  3.5015
  432MOL0     H59578   1.967   2.344   4.368 -0.6798  0.1241  0.3145
  432MOL0     H59579   1.924   2.149   4.520 -0.3211  2.0617 -2.1084
  432MOL0     H59580   1.967   2.130   4.912  1.7628  0.0224 -0.5184
  432MOL0     H59581   1.862   2.096   4.784  0.1178 -0.9194 -0.1289
  432MOL0     H59582   1.980   1.857   4.768  2.9034  2.9979 -1.6479
  432MOL0     H59583   2.062   1.892   4.922 -0.9194 -0.9998  2.6132
  432MOL0     H59584   1.848   1.759   4.958  1.1260  0.1402 -0.2796
  432MOL0     H59585   1.772   1.891   4.865  2.1094 -0.5278 -1.9604
  432MOL0     H59586   1.827   2.037   5.072  4.4963 -1.2537  0.2779
  432MOL0     H59587   1.898   1.895   5.140  1.4279  2.7332  1.4797
  432MOL0     H59588   1.606   1.896   5.067  0.2422 -0.8633 -0.5822
  432MOL0     H59589   1.710   1.784   5.160 -0.2910 -0.0584 -1.4257
  432MOL0     H59590   1.644   2.078   5.239 -1.2059  1.0094  1.1962
  432MOL0     H59591   1.760   1.979   5.323 -1.1983  6.2304  1.3624
  432MOL0     H59592   1.577   1.810   5.373 -1.0305 -0.0690 -1.8480
  432MOL0     H59593   1.458   1.916   5.301 -0.0752  1.4707  0.2463
  432MOL0     H59594   1.583   1.971   5.568 -0.5711  0.0045  1.8608
  432MOL0     H59595   1.422   1.956   5.512  1.3609 -3.3437  0.8402
  432MOL0     H59596   2.260   2.251   4.757  1.0595 -0.0581  0.3736
  432MOL0     H59597   2.310   2.439   4.626 -3.0882  4.0437 -1.1726
  432MOL0     H59598   2.356   2.646   4.287  0.5446 -0.7297 -1.8841
  432MOL0     H59599   2.422   2.783   4.092 -0.4330  3.1904  0.1946
  432MOL0     H59600   3.784   3.662   3.257 -0.0237  0.4916 -0.6101
  432MOL0     H59601   3.985   3.554   3.146  0.9019 -1.2245  1.1621
  432MOL0     H59602   4.305   3.153   3.163  1.9747 -0.6490 -0.1633
  432MOL0     H59603   4.482   3.068   3.036  0.3137  0.2811  0.4299
  432MOL0     H59604   4.647   3.007   2.940 -2.0210 -1.7029 -1.7336
  432MOL0     H59605   4.605   3.002   2.773  1.0989  0.3041 -0.1627
  432MOL0     H59606   4.805   3.078   2.695 -4.9609  0.1274 -0.6642
  432MOL0     H59607   4.833   2.948   2.817  1.4239  1.6983  3.7111
  432MOL0     H59608   4.840   3.194   2.963  1.1180 -0.3380 -1.0506
  432MOL0     H59609   4.969   3.080   2.945  0.0802 -0.5625 -0.9944
  432MOL0     H59610   4.908   3.307   2.759 -1.1304 -0.6366  1.1282
  432MOL0     H59611   5.018   3.180   2.719  1.7819  0.3964  0.8600
  432MOL0     H59612   5.265   3.413   2.970 -0.4100  1.1566  0.2242
  432MOL0     H59613   4.574   3.444   2.890 -2.0192  1.9986 -0.7567
  432MOL0     H59614   4.474   3.652   2.955  2.3295  1.3559  3.5586
  432MOL0     H59615   4.312   3.646   3.027 -0.7826 -1.6180  0.9909
  432MOL0     H59616   4.472   3.634   3.112 -0.1075 -0.7965  0.2305
  433MOL0     O59617   1.393  10.941   2.709 -0.8756  0.5345 -0.3432
  433MOL0     C59618   1.493  10.870   2.689 -0.1356  0.7241  0.1636
  433MOL0     O59619   1.620  10.891   2.747  0.2951 -0.1554  0.6039
  433MOL0     C59620   1.643  11.017   2.794  0.2757 -0.2023 -0.1057
  433MOL0     C59621   1.706  11.113   2.714  0.6830  0.5866 -0.4172
  433MOL0     C59622   1.738  11.239   2.770 -0.2628 -0.2090  0.2936
  433MOL0     C59623   1.709  11.275   2.897 -0.2080  0.6857 -0.0197
  433MOL0     O59624   1.732  11.394   2.961 -0.2709  0.1216 -0.1776
  433MOL0     C59625   1.793  11.502   2.891 -0.6393 -0.0337 -0.0299
  433MOL0     C59626   1.803  11.628   2.988 -0.1198  0.4690  0.3969
  433MOL0     C59627   1.888  11.613   3.097 -0.9530  0.6364  0.3553
  433MOL0     C59628   1.888  11.735   3.182  0.2543  0.6982  0.2320
  433MOL0     C59629   1.981  11.714   3.303  0.4522  0.3558  0.0152
  433MOL0     C59630   1.982  11.835   3.396  0.1703  0.1984  0.3192
  433MOL0     C59631   2.015  11.797   3.539  0.0132 -0.4337  0.0856
  433MOL0     C59632   2.033  11.917   3.636 -0.7367  0.2081  0.7154
  433MOL0     N59633   2.157  11.994   3.587 -0.4531  0.6391  0.5050
  433MOL0     C59634   2.286  11.962   3.610 -0.8871  0.2859  0.1066
  433MOL0     C59635   2.354  12.076   3.572  0.3587  0.4516  0.4441
  433MOL0     C59636   2.503  12.096   3.588 -0.4212 -0.5477 -0.3969
  433MOL0     C59637   2.546  12.202   3.692  0.6618  0.7898  0.5018
  433MOL0     C59638   2.514  12.351   3.648  0.7352 -0.1450  0.0010
  433MOL0     C59639   2.577  12.451   3.742 -0.0141  0.0467 -0.1184
  433MOL0     O59640   2.717  12.435   3.728  0.7918  0.5477 -0.3766
  433MOL0     C59641   2.807  12.481   3.824  0.8973  0.0827  0.0533
  433MOL0     C59642   2.944  12.483   3.804  0.3662  0.3078 -1.0851
  433MOL0     C59643   3.034  12.506   3.911 -0.5404 -0.2561  0.5176
  433MOL0     C59644   3.175  12.475   3.870 -0.2395 -0.3795 -0.4691
  433MOL0     C59645   2.998  12.557   4.036 -0.1729  0.2910  0.0341
  433MOL0     C59646   3.092  12.603   4.136  0.4465 -0.0272 -0.1446
  433MOL0     O59647   3.026  12.624   4.258  0.2982 -0.8599 -0.3085
  433MOL0     C59648   3.088  12.701   4.363  0.2029 -1.1073  1.1785
  433MOL0     C59649   3.156  12.822   4.342 -0.2421  0.1658  0.2202
  433MOL0     C59650   3.222  12.877   4.446 -0.3367 -0.6484  0.9089
  433MOL0     C59651   3.223  12.816   4.570 -0.6063 -0.1819 -0.3424
  433MOL0     O59652   3.296  12.866   4.672 -0.0888 -0.3980 -0.0931
  433MOL0     C59653   3.434  12.899   4.657  0.4667  0.1514 -0.4291
  433MOL0     C59654   3.490  12.976   4.772  0.3634 -0.0701 -0.2148
  433MOL0     C59655   3.422  13.110   4.815  0.3304 -0.4507 -0.7392
  433MOL0     C59656   3.371  13.093   4.948 -0.7649 -0.1319 -0.1614
  433MOL0     C59657   3.378  13.232   5.027 -0.1359  0.7927  0.8094
  433MOL0     C59658   3.329  13.211   5.173 -0.0653  0.2265 -0.6102
  433MOL0     C59659   3.186  13.174   5.188  0.6761 -0.6290 -0.4395
  433MOL0     C59660   3.144  13.148   5.331  0.9884  0.2481  0.7140
  433MOL0    Cl59661   3.267  13.116   5.468 -0.1760  0.0271 -0.0212
  433MOL0     C59662   3.167  12.690   4.585 -0.4987  0.0265  0.0619
  433MOL0     C59663   3.098  12.634   4.484 -0.0232  0.0877 -0.0158
  433MOL0     O59664   3.208  12.621   4.112 -0.1566  1.0517 -0.5654
  433MOL0     C59665   2.857  12.566   4.052  0.8348 -0.0190  0.7608
  433MOL0     C59666   2.767  12.530   3.947 -0.1272 -0.2499 -0.6127
  433MOL0     N59667   2.264  12.170   3.529  0.2399 -0.6237  1.0664
  433MOL0     N59668   2.144  12.119   3.543 -0.3825  0.0186 -0.7287
  433MOL0     C59669   1.658  11.168   2.979 -0.5865 -1.2741 -0.6944
  433MOL0     C59670   1.635  11.044   2.933  0.4963 -0.2012  0.3200
  433MOL0     C59671   1.481  10.753   2.593  0.4453 -0.0576  0.4385
  433MOL0     C59672   1.601  10.708   2.533 -0.6395  0.3050 -0.9978
  433MOL0     C59673   1.588  10.625   2.429 -0.7822 -0.1985 -0.8990
  433MOL0     C59674   1.473  10.574   2.369  0.0733  0.8528  1.0172
  433MOL0     O59675   1.494  10.498   2.254 -0.4495  0.6429  0.2203
  433MOL0     C59676   1.373  10.441   2.188 -0.0900  0.5334 -0.2901
  433MOL0     C59677   1.406  10.391   2.049 -0.0843  0.1973 -1.2868
  433MOL0     C59678   1.534  10.314   2.032 -0.2807 -0.0206 -0.2134
  433MOL0     C59679   1.533  10.165   2.073  0.1154  0.2120 -0.6615
  433MOL0     C59680   1.524  10.147   2.213 -0.1643 -0.1375 -0.1204
  433MOL0     C59681   1.502  10.136   2.329  0.2969  0.3208  0.6175
  433MOL0     C59682   1.349  10.612   2.427 -0.1904 -0.1032  0.4602
  433MOL0     C59683   1.350  10.698   2.538 -1.0208 -0.6706  0.9399
  433MOL0     C59684   1.211  10.724   2.598 -0.1833 -0.2810  0.1839
  433MOL0     H59685   1.715  11.093   2.608 -1.7761 -0.4039 -0.5103
  433MOL0     H59686   1.788  11.318   2.714 -2.2716  0.1325 -1.1326
  433MOL0     H59687   1.728  11.524   2.806  2.8905  0.3440 -2.8853
  433MOL0     H59688   1.888  11.468   2.848 -1.7909 -1.2768 -1.7273
  433MOL0     H59689   1.843  11.713   2.932 -1.0952  0.8122  0.1906
  433MOL0     H59690   1.699  11.654   3.010 -0.9588 -0.1357 -2.4036
  433MOL0     H59691   1.862  11.525   3.157  2.1511  0.8093  2.1972
  433MOL0     H59692   1.990  11.589   3.065 -1.1532 -1.7869  1.3324
  433MOL0     H59693   1.921  11.821   3.122  2.3088  0.8869  1.5422
  433MOL0     H59694   1.784  11.755   3.209  0.7526  0.1462  2.8248
  433MOL0     H59695   2.084  11.688   3.273 -0.8522 -0.8209 -4.2209
  433MOL0     H59696   1.947  11.631   3.366 -1.3073  1.0019 -0.0328
  433MOL0     H59697   2.053  11.903   3.348 -0.0852  0.5936  0.4933
  433MOL0     H59698   1.885  11.885   3.387  0.5056  0.5841 -1.3670
  433MOL0     H59699   2.105  11.738   3.560  0.3649  1.3093  4.5139
  433MOL0     H59700   1.928  11.743   3.576 -1.8362  0.8804 -2.0946
  433MOL0     H59701   1.948  11.985   3.643 -0.3940  0.6279  0.8172
  433MOL0     H59702   2.057  11.877   3.736  2.6549 -0.1490 -0.1189
  433MOL0     H59703   2.326  11.868   3.646 -1.5796  0.3585  1.1038
  433MOL0     H59704   2.541  12.118   3.487  0.0175 -1.7085 -0.4956
  433MOL0     H59705   2.542  11.999   3.618 -1.3688 -0.3401  1.6080
  433MOL0     H59706   2.484  12.182   3.780 -1.5272  0.8369 -0.9472
  433MOL0     H59707   2.652  12.189   3.718  0.4341 -3.2243  0.0270
  433MOL0     H59708   2.546  12.372   3.546 -0.4468 -2.1381 -0.8254
  433MOL0     H59709   2.407  12.366   3.665  0.6503 -0.2418 -0.4377
  433MOL0     H59710   2.553  12.554   3.714 -0.0490 -0.0180 -0.3366
  433MOL0     H59711   2.543  12.427   3.842  1.1722 -2.6305 -0.2776
  433MOL0     H59712   2.964  12.442   3.706 -0.9559 -0.7602 -0.9402
  433MOL0     H59713   3.177  12.421   3.775  0.4890 -1.0590 -0.0806
  433MOL0     H59714   3.226  12.413   3.944  0.3407 -1.8622 -2.0603
  433MOL0     H59715   3.222  12.573   3.865 -1.4395  0.2939  0.7547
  433MOL0     H59716   3.148  12.862   4.241  1.7792 -4.1989 -1.9221
  433MOL0     H59717   3.276  12.968   4.422 -1.7842 -0.3996 -1.8509
  433MOL0     H59718   3.492  12.808   4.641  0.4389  0.2162 -0.9153
  433MOL0     H59719   3.447  12.956   4.564  2.1471 -2.1959 -1.7444
  433MOL0     H59720   3.506  12.904   4.853  0.1088  0.4991  0.3506
  433MOL0     H59721   3.587  12.992   4.725  0.9007 -3.8697 -0.7190
  433MOL0     H59722   3.346  13.144   4.743  0.3577  0.4431 -0.3482
  433MOL0     H59723   3.503  13.183   4.815 -0.0443  0.0308  1.4219
  433MOL0     H59724   3.423  13.018   5.009  1.6846  2.3981  1.0689
  433MOL0     H59725   3.265  13.070   4.934 -1.2603  2.7091 -2.0203
  433MOL0     H59726   3.481  13.267   5.020  1.3245 -3.2440 -0.4755
  433MOL0     H59727   3.304  13.297   4.978 -0.6242 -2.1478 -2.7852
  433MOL0     H59728   3.336  13.305   5.229 -2.1783 -0.3533  0.7175
  433MOL0     H59729   3.398  13.136   5.213  2.2257  1.0890 -2.6448
  433MOL0     H59730   3.159  13.082   5.135 -3.1212  0.3385 -0.5121
  433MOL0     H59731   3.120  13.255   5.154 -1.1595 -1.4446  0.9548
  433MOL0     H59732   3.065  13.071   5.329 -0.9157  2.0199 -2.7126
  433MOL0     H59733   3.101  13.241   5.368 -0.4561 -0.0914 -0.0174
  433MOL0     H59734   3.186  12.632   4.674 -4.8325 -1.8150  0.0385
  433MOL0     H59735   3.062  12.532   4.487  0.2492 -0.0522 -0.9622
  433MOL0     H59736   2.816  12.582   4.151  3.4809 -1.2660  2.1377
  433MOL0     H59737   2.663  12.554   3.963 -0.1156  0.9316 -2.0572
  433MOL0     H59738   1.653  11.193   3.085  2.6611 -0.2568 -0.6713
  433MOL0     H59739   1.593  10.971   3.002  0.9508  0.6537  1.5289
  433MOL0     H59740   1.705  10.731   2.555 -0.9773 -0.4582  1.9006
  433MOL0     H59741   1.679  10.593   2.380 -0.2343 -3.0219  1.6522
  433MOL0     H59742   1.335  10.358   2.248 -0.8764  0.7934 -0.4171
  433MOL0     H59743   1.293  10.515   2.191 -0.2175  0.4931  4.1155
  433MOL0     H59744   1.408  10.482   1.988  1.5267 -0.4159 -2.2339
  433MOL0     H59745   1.321  10.335   2.007 -0.9561 -0.8502  1.6509
  433MOL0     H59746   1.547  10.309   1.924 -6.3534 -0.6251 -1.2527
  433MOL0     H59747   1.614  10.364   2.088  1.6084 -0.4053 -2.4179
  433MOL0     H59748   1.624  10.123   2.029 -0.2869 -0.7169 -0.6264
  433MOL0     H59749   1.447  10.118   2.025 -0.4820 -0.3232  0.8586
  433MOL0     H59750   1.495  10.137   2.436  0.0823  1.2153  0.6028
  433MOL0     H59751   1.248  10.589   2.393  0.4271 -1.7411 -0.3549
  433MOL0     H59752   1.156  10.799   2.541  0.2399  2.5571  3.2186
  433MOL0     H59753   1.156  10.629   2.600  0.4892 -0.8220  4.9002
  433MOL0     H59754   1.216  10.759   2.702  2.7222 -2.3104  0.8592
  434MOL0     O59755   7.457   5.280   2.412  0.2467  0.1173  0.1405
  434MOL0     C59756   7.532   5.195   2.458 -0.3403 -0.1714  0.4470
  434MOL0     O59757   7.666   5.212   2.481  0.6274 -0.3352 -0.5308
  434MOL0     C59758   7.715   5.340   2.463 -0.5846  0.6198 -0.6526
  434MOL0     C59759   7.661   5.453   2.527  0.1382 -0.0503  0.4749
  434MOL0     C59760   7.720   5.579   2.501  0.5596  0.1129  0.8013
  434MOL0     C59761   7.823   5.590   2.408  0.1134 -0.3055  0.1282
  434MOL0     O59762   7.843   5.721   2.370 -0.0884 -1.1446  0.2013
  434MOL0     C59763   7.964   5.753   2.295  0.3499  1.4619 -0.4539
  434MOL0     C59764   7.976   5.903   2.260  0.5007  0.0385  0.3051
  434MOL0     C59765   7.879   5.958   2.157 -0.2225 -0.6133  0.5554
  434MOL0     C59766   7.944   6.048   2.055 -0.9141 -0.7130  0.0093
  434MOL0     C59767   7.854   6.102   1.947 -0.2198  0.5093  0.3382
  434MOL0     C59768   7.733   6.178   2.002  0.8264  0.0721 -0.3681
  434MOL0     C59769   7.670   6.277   1.900  0.1601 -0.7448  0.6955
  434MOL0     C59770   7.557   6.373   1.952  0.1528 -0.2933  0.1657
  434MOL0     N59771   7.531   6.356   2.090 -0.6892  0.1386 -0.0271
  434MOL0     C59772   7.552   6.457   2.182  0.2277  0.3849  0.1806
  434MOL0     C59773   7.550   6.394   2.295  0.7736  0.4738 -0.1242
  434MOL0     C59774   7.591   6.459   2.425  0.2693 -0.4281  0.3151
  434MOL0     C59775   7.726   6.533   2.427 -0.4996 -0.7965 -0.2815
  434MOL0     C59776   7.726   6.620   2.552 -0.1320  0.9533  0.3078
  434MOL0     C59777   7.856   6.705   2.573  0.1095 -0.2263  0.2228
  434MOL0     O59778   7.833   6.834   2.498 -0.4534  0.2400  0.7172
  434MOL0     C59779   7.832   6.958   2.560 -0.6661  1.3202 -0.4178
  434MOL0     C59780   7.844   7.068   2.486 -0.2190 -1.4260  0.3747
  434MOL0     C59781   7.827   7.204   2.533 -0.2872  0.0342 -0.0993
  434MOL0     C59782   7.831   7.310   2.431 -0.1133  0.3739 -0.2085
  434MOL0     C59783   7.784   7.212   2.675  0.1537 -0.7360  0.4759
  434MOL0     C59784   7.735   7.345   2.730 -1.1859 -0.0584  0.1722
  434MOL0     O59785   7.680   7.439   2.646 -0.4010 -0.1847 -0.0850
  434MOL0     C59786   7.700   7.570   2.670 -0.5127 -0.8076  0.0963
  434MOL0     C59787   7.604   7.670   2.635  0.3676  0.8665 -0.6072
  434MOL0     C59788   7.622   7.807   2.671 -0.4049  0.2793  0.6946
  434MOL0     C59789   7.734   7.846   2.744 -0.1606  0.5414 -0.1777
  434MOL0     O59790   7.772   7.974   2.779 -0.0331 -0.1529 -0.4835
  434MOL0     C59791   7.757   8.084   2.691 -1.0131  0.1124  0.2417
  434MOL0     C59792   7.704   8.198   2.775  0.3918 -0.1358 -0.2232
  434MOL0     C59793   7.722   8.332   2.708  0.7225 -0.4513 -0.1528
  434MOL0     C59794   7.874   8.380   2.713  0.6161 -0.5586  0.0001
  434MOL0     C59795   7.880   8.540   2.692 -0.4512  0.7415  1.1499
  434MOL0     C59796   8.019   8.590   2.655  0.1938 -0.3406 -0.1956
  434MOL0     C59797   8.135   8.565   2.746  0.2665  0.2331 -0.2364
  434MOL0     C59798   8.124   8.615   2.888  0.8736 -0.6643 -0.1036
  434MOL0    Cl59799   8.076   8.785   2.894  0.0564  0.3015  0.0560
  434MOL0     C59800   7.831   7.742   2.780 -0.5429  0.1828  0.3549
  434MOL0     C59801   7.817   7.618   2.743 -1.1959  1.3445  0.0268
  434MOL0     O59802   7.737   7.351   2.854  0.5920 -0.4878  0.4527
  434MOL0     C59803   7.781   7.094   2.750  0.4067 -0.3447 -0.6834
  434MOL0     C59804   7.807   6.962   2.699 -0.1334  0.1538 -0.1341
  434MOL0     N59805   7.498   6.265   2.275 -0.4884 -0.4392 -0.3922
  434MOL0     N59806   7.480   6.246   2.149  0.7085 -0.4578 -0.0266
  434MOL0     C59807   7.873   5.480   2.350 -0.3345  0.5481  0.7654
  434MOL0     C59808   7.821   5.348   2.369 -0.2389  0.4045  0.0608
  434MOL0     C59809   7.472   5.067   2.488  0.3083 -0.2058 -0.5086
  434MOL0     C59810   7.348   5.065   2.547 -0.3085  0.1774  0.9183
  434MOL0     C59811   7.278   4.945   2.560 -0.3649 -0.3878 -0.4851
  434MOL0     C59812   7.340   4.826   2.541  0.1143 -0.4953  0.3999
  434MOL0     O59813   7.278   4.703   2.561  0.2188 -0.2026 -0.8879
  434MOL0     C59814   7.138   4.700   2.594 -0.0680 -0.0080 -0.1258
  434MOL0     C59815   7.098   4.554   2.614 -0.9458 -0.1508 -0.0243
  434MOL0     C59816   7.093   4.484   2.477  0.0018 -0.6456  0.4218
  434MOL0     C59817   7.058   4.337   2.504  0.2004  0.9883 -0.0719
  434MOL0     C59818   7.027   4.260   2.377 -0.0907  0.0988 -1.1486
  434MOL0     C59819   7.001   4.200   2.281  0.8574 -0.4709  0.2255
  434MOL0     C59820   7.477   4.820   2.503  0.1653  0.3254  0.5280
  434MOL0     C59821   7.546   4.941   2.472  0.2152  0.0081 -0.2985
  434MOL0     C59822   7.666   4.925   2.394  0.0512  0.4557  1.0272
  434MOL0     H59823   7.577   5.427   2.592  2.1448 -2.4065  2.2984
  434MOL0     H59824   7.679   5.665   2.551  0.0192  0.4075 -0.1139
  434MOL0     H59825   7.966   5.690   2.205 -1.6247  1.9851 -0.9107
  434MOL0     H59826   8.056   5.722   2.345 -0.5574  0.2850  0.5659
  434MOL0     H59827   7.968   5.954   2.357  1.3085  0.3402  0.2288
  434MOL0     H59828   8.076   5.931   2.224  0.2477 -1.0400 -1.3491
  434MOL0     H59829   7.837   5.874   2.102  1.1315  0.6783 -2.6673
  434MOL0     H59830   7.798   6.011   2.208  1.9533  1.6590  1.9000
  434MOL0     H59831   7.972   6.144   2.100  1.0581 -0.8656 -0.8006
  434MOL0     H59832   8.034   6.002   2.014  1.2345  3.7059 -0.8908
  434MOL0     H59833   7.811   6.014   1.897  2.5524 -1.6386  1.4009
  434MOL0     H59834   7.898   6.174   1.878  2.7378  0.5478  2.0876
  434MOL0     H59835   7.662   6.101   2.034  1.7557 -1.4934 -1.8457
  434MOL0     H59836   7.762   6.229   2.094  2.8960 -0.8580 -0.4350
  434MOL0     H59837   7.638   6.212   1.818  1.7760 -2.0106  1.0056
  434MOL0     H59838   7.740   6.342   1.848 -1.1876 -2.2305 -3.3954
  434MOL0     H59839   7.593   6.476   1.938  0.5380 -0.7049 -2.3226
  434MOL0     H59840   7.468   6.347   1.894  0.2106 -1.0285  0.4006
  434MOL0     H59841   7.563   6.564   2.165  1.0703 -0.0909 -2.7672
  434MOL0     H59842   7.613   6.378   2.495  2.3261  0.0533  0.3113
  434MOL0     H59843   7.504   6.515   2.458 -0.0571  0.5071 -1.9307
  434MOL0     H59844   7.805   6.458   2.439  0.4533  0.4244  1.6488
  434MOL0     H59845   7.744   6.597   2.340 -1.7865 -0.5876 -0.4062
  434MOL0     H59846   7.636   6.682   2.558 -2.8499 -2.6857  0.9702
  434MOL0     H59847   7.719   6.559   2.643 -0.6878 -1.0872 -1.0258
  434MOL0     H59848   7.891   6.710   2.677 -0.7358 -0.1234  0.5055
  434MOL0     H59849   7.937   6.647   2.527  0.7835 -1.0419  2.3080
  434MOL0     H59850   7.869   7.058   2.380  0.3709  1.6399  0.1397
  434MOL0     H59851   7.732   7.354   2.414 -0.5542 -1.4803 -3.2190
  434MOL0     H59852   7.849   7.265   2.333  1.7348  1.5024 -0.4336
  434MOL0     H59853   7.905   7.386   2.459  2.2136 -2.9355  3.8215
  434MOL0     H59854   7.507   7.646   2.592 -0.9402  1.7122  1.6394
  434MOL0     H59855   7.547   7.880   2.644  0.8510  1.6917  0.9273
  434MOL0     H59856   7.857   8.102   2.649  1.0978 -0.4107  4.4832
  434MOL0     H59857   7.685   8.060   2.613 -1.7292 -2.0316  1.4798
  434MOL0     H59858   7.598   8.178   2.793  0.2371  0.0769 -0.8763
  434MOL0     H59859   7.753   8.197   2.873  5.1594 -0.9431 -2.3445
  434MOL0     H59860   7.672   8.404   2.774  0.7991 -0.3817 -0.1698
  434MOL0     H59861   7.685   8.330   2.605  2.0022  1.7389 -0.7124
  434MOL0     H59862   7.933   8.330   2.636  1.1355 -0.2723  0.2055
  434MOL0     H59863   7.917   8.349   2.809 -5.0051  0.4365  3.3414
  434MOL0     H59864   7.803   8.563   2.618  1.5713  1.3312 -0.8698
  434MOL0     H59865   7.844   8.583   2.786 -3.4766 -1.0875  0.9515
  434MOL0     H59866   8.002   8.696   2.638 -1.7187 -0.5928 -0.1362
  434MOL0     H59867   8.041   8.544   2.558 -1.1222  1.4955 -1.4222
  434MOL0     H59868   8.232   8.600   2.709  0.0894 -0.7362 -1.7010
  434MOL0     H59869   8.141   8.455   2.752 -0.3682  0.1312 -1.2410
  434MOL0     H59870   8.216   8.599   2.944  0.7865 -1.2311 -0.1074
  434MOL0     H59871   8.048   8.559   2.944 -2.4138  4.1303  0.8046
  434MOL0     H59872   7.918   7.767   2.839 -1.1071  1.1920  0.7913
  434MOL0     H59873   7.887   7.540   2.771 -2.6111 -1.2025 -2.8955
  434MOL0     H59874   7.733   7.095   2.847  0.8392  0.4792 -0.4684
  434MOL0     H59875   7.784   6.872   2.755 -1.9729  1.3243  1.0837
  434MOL0     H59876   7.950   5.490   2.274 -1.4281 -0.5809 -0.5503
  434MOL0     H59877   7.856   5.266   2.308 -0.7752  1.0051 -1.0956
  434MOL0     H59878   7.289   5.153   2.573  1.5765  1.3009  1.5949
  434MOL0     H59879   7.174   4.947   2.588 -1.0661 -1.8845 -2.7821
  434MOL0     H59880   7.127   4.754   2.689  2.2012 -2.9522  2.0258
  434MOL0     H59881   7.081   4.743   2.511 -0.7606  0.6939  0.6935
  434MOL0     H59882   6.993   4.558   2.647 -0.9347 -1.4660  0.2310
  434MOL0     H59883   7.162   4.505   2.688  1.1168 -0.0218 -1.6520
  434MOL0     H59884   7.020   4.543   2.420  0.9176  4.0710  3.5493
  434MOL0     H59885   7.188   4.494   2.424 -1.8534  1.5356 -2.9458
  434MOL0     H59886   6.971   4.318   2.567  0.2569 -1.7116 -0.6660
  434MOL0     H59887   7.137   4.280   2.554  0.0165 -0.3392 -1.2469
  434MOL0     H59888   6.985   4.136   2.197  2.5439 -2.0561  1.0537
  434MOL0     H59889   7.522   4.723   2.484  0.7103  0.5937  0.4254
  434MOL0     H59890   7.685   4.825   2.353  0.6972  1.2052 -0.6197
  434MOL0     H59891   7.660   4.980   2.299  0.3859 -0.3802  0.5059
  434MOL0     H59892   7.757   4.964   2.441  0.0533  3.1753 -0.9675
  435MOL0     O59893   4.877   3.437   9.433 -0.3821 -0.6031 -0.4740
  435MOL0     C59894   4.782   3.393   9.490  0.2873 -0.2022  0.6501
  435MOL0     O59895   4.716   3.452   9.592  0.5349  0.4015 -0.2846
  435MOL0     C59896   4.755   3.573   9.650 -0.5677 -0.7586 -0.0653
  435MOL0     C59897   4.864   3.654   9.615  0.3772  0.0798 -0.1344
  435MOL0     C59898   4.874   3.788   9.652 -0.3465 -0.2659 -0.3215
  435MOL0     C59899   4.786   3.839   9.743 -0.0318  0.9154  0.4020
  435MOL0     O59900   4.815   3.966   9.774  0.4839  0.4795 -0.7071
  435MOL0     C59901   4.777   4.014   9.902  0.4358  0.8160 -0.2419
  435MOL0     C59902   4.845   3.940  10.026 -0.2177 -0.6829  0.2069
  435MOL0     C59903   5.001   3.914  10.021 -0.2997  0.0082  0.1176
  435MOL0     C59904   5.091   4.036  10.030  0.2847 -0.5892 -0.2075
  435MOL0     C59905   5.098   4.105  10.174  1.1890  0.0188  0.2123
  435MOL0     C59906   5.147   4.239  10.156 -0.5988 -0.0356  0.0851
  435MOL0     C59907   5.203   4.289  10.287 -0.5426 -0.4431 -0.0953
  435MOL0     C59908   5.090   4.353  10.376 -0.2318 -0.9844  0.5908
  435MOL0     N59909   5.108   4.368  10.517  0.6200  0.2241 -0.3429
  435MOL0     C59910   5.209   4.446  10.560  0.4374  0.1673  0.4907
  435MOL0     C59911   5.204   4.445  10.696  0.5650  0.3569  0.5306
  435MOL0     C59912   5.295   4.519  10.788 -0.2678  0.3349  0.9429
  435MOL0     C59913   5.250   4.658  10.786  0.3100  0.1314  0.6915
  435MOL0     C59914   5.360   4.750  10.850  0.6558 -0.1356  0.3103
  435MOL0     C59915   5.304   4.881  10.912 -0.0376 -0.3448 -0.3284
  435MOL0     O59916   5.256   4.970  10.811 -0.5601  1.0660 -0.9135
  435MOL0     C59917   5.186   5.083  10.852 -0.3446  0.2880  0.2829
  435MOL0     C59918   5.130   5.119  10.977 -1.2259  0.2227  0.1513
  435MOL0     C59919   5.040   5.236  10.989  0.7112  1.0520 -0.5994
  435MOL0     C59920   5.000   5.273  11.125 -0.3135 -0.2832  0.7059
  435MOL0     C59921   5.016   5.317  10.872  0.3188  0.0635  0.1771
  435MOL0     C59922   4.923   5.433  10.866 -0.4340  1.1308  0.5011
  435MOL0     O59923   4.973   5.549  10.808  0.0315 -0.0282  0.0835
  435MOL0     C59924   4.889   5.652  10.814  0.2614 -0.8652 -0.6352
  435MOL0     C59925   4.895   5.727  10.935 -0.3932 -0.2635  0.1905
  435MOL0     C59926   4.803   5.830  10.961  0.8918 -0.3262 -0.8142
  435MOL0     C59927   4.721   5.879  10.856 -1.3887 -0.4700 -0.5033
  435MOL0     O59928   4.659   6.005  10.870  0.1656 -0.7354  0.5796
  435MOL0     C59929   4.569   6.016  10.984 -0.0719 -0.1349  0.7266
  435MOL0     C59930   4.427   6.043  10.925 -0.4491  0.2670  0.2360
  435MOL0     C59931   4.335   6.115  11.020  0.2534 -0.5448  0.1166
  435MOL0     C59932   4.363   6.266  11.047  0.8355 -0.1762  0.9853
  435MOL0     C59933   4.245   6.337  11.125 -0.2655  0.4265  0.4686
  435MOL0     C59934   4.247   6.487  11.130  0.4389  0.4037 -0.5089
  435MOL0     C59935   4.198   6.550  11.001  0.3003 -0.1718 -0.0170
  435MOL0     C59936   4.161   6.695  11.015  0.3118 -0.9762  0.3436
  435MOL0    Cl59937   4.070   6.744  10.867  0.2445 -0.1822  0.1491
  435MOL0     C59938   4.732   5.820  10.728 -1.0057  1.0986  0.2661
  435MOL0     C59939   4.815   5.708  10.701  0.6155 -0.4404 -0.8923
  435MOL0     O59940   4.813   5.425  10.908  0.4169 -0.2068  0.5313
  435MOL0     C59941   5.075   5.286  10.750  0.0599 -0.2169 -0.2094
  435MOL0     C59942   5.148   5.166  10.737  0.6645 -0.1420 -0.1647
  435MOL0     N59943   5.113   4.349  10.732  0.1368  0.5126  0.4862
  435MOL0     N59944   5.053   4.305  10.626 -0.6041  0.2483  0.8470
  435MOL0     C59945   4.666   3.762   9.779 -0.7823  0.5284  0.5947
  435MOL0     C59946   4.652   3.623   9.736 -0.7869 -0.3840 -0.1168
  435MOL0     C59947   4.716   3.260   9.440 -0.2412 -0.7183  0.4080
  435MOL0     C59948   4.747   3.222   9.307  0.4830 -0.6794  0.4141
  435MOL0     C59949   4.699   3.102   9.254 -0.1793  1.0995  0.5623
  435MOL0     C59950   4.604   3.034   9.325  0.0559  0.0061  0.1029
  435MOL0     O59951   4.535   2.922   9.278 -0.3538  0.6528 -0.2367
  435MOL0     C59952   4.410   2.945   9.219  0.2820  0.6091  0.6259
  435MOL0     C59953   4.427   2.914   9.078 -0.1741  0.6923  0.1574
  435MOL0     C59954   4.317   2.979   8.991 -0.1999 -0.6054  0.8797
  435MOL0     C59955   4.342   2.945   8.846  0.9444 -0.5345 -0.4507
  435MOL0     C59956   4.440   3.027   8.780 -0.8883 -1.0333 -0.4068
  435MOL0     C59957   4.526   3.079   8.719  0.2336 -0.0959  0.1124
  435MOL0     C59958   4.567   3.071   9.455  0.0851 -1.1149  0.2372
  435MOL0     C59959   4.626   3.185   9.518  0.1548  0.4796  0.3782
  435MOL0     C59960   4.603   3.204   9.673  0.7344 -0.0709  0.2947
  435MOL0     H59961   4.957   3.618   9.570  1.8639  0.4270  2.4536
  435MOL0     H59962   4.959   3.840   9.607 -1.3533  2.0420  0.2829
  435MOL0     H59963   4.667   4.012   9.906  0.0476  3.1782 -3.8113
  435MOL0     H59964   4.802   4.121   9.906 -2.2867  1.5570 -0.6275
  435MOL0     H59965   4.826   4.007  10.111  3.7991 -0.0935  0.8079
  435MOL0     H59966   4.803   3.842  10.051 -1.4927 -0.9466 -2.5522
  435MOL0     H59967   5.026   3.847  10.104 -0.0945 -2.5958 -1.9310
  435MOL0     H59968   5.022   3.850   9.935  1.7241 -2.5582  2.3544
  435MOL0     H59969   5.188   3.999   9.995  1.0856  2.2246 -1.2245
  435MOL0     H59970   5.057   4.115   9.962  3.8891  0.4220 -1.0586
  435MOL0     H59971   5.162   4.046  10.239  0.0429  1.1782  2.5227
  435MOL0     H59972   4.996   4.102  10.213 -0.0578  2.2147 -2.5132
  435MOL0     H59973   5.238   4.228  10.096 -0.9573 -1.2167 -0.2572
  435MOL0     H59974   5.081   4.317  10.117  0.9910  0.6441 -1.3352
  435MOL0     H59975   5.269   4.368  10.251 -0.9082 -1.0467 -2.2369
  435MOL0     H59976   5.263   4.221  10.349 -1.3719 -2.1344 -1.0617
  435MOL0     H59977   5.083   4.450  10.327  0.8005 -1.7388 -1.1321
  435MOL0     H59978   4.999   4.300  10.350  0.2958 -2.7189  2.0602
  435MOL0     H59979   5.275   4.504  10.497  0.2684 -2.0544 -1.8892
  435MOL0     H59980   5.401   4.508  10.762 -0.4091 -1.5117  0.9846
  435MOL0     H59981   5.271   4.478  10.887 -0.4957  0.3083  0.8751
  435MOL0     H59982   5.231   4.690  10.683 -0.0547 -4.2719 -0.8253
  435MOL0     H59983   5.155   4.663  10.841  0.5500 -0.6768  1.1915
  435MOL0     H59984   5.415   4.691  10.925 -0.7052 -0.9627  0.6815
  435MOL0     H59985   5.434   4.783  10.777 -0.6009  2.2416  0.0166
  435MOL0     H59986   5.219   4.854  10.976 -0.3066 -0.4647 -0.7351
  435MOL0     H59987   5.382   4.932  10.970 -2.4419  2.5013  0.6516
  435MOL0     H59988   5.144   5.064  11.070  0.3926  1.6225  0.7953
  435MOL0     H59989   4.967   5.186  11.182  1.7974  0.7181  3.7470
  435MOL0     H59990   4.917   5.345  11.120 -0.3862 -0.2071  2.4433
  435MOL0     H59991   5.086   5.319  11.175 -0.5508 -0.7447  1.5613
  435MOL0     H59992   4.959   5.697  11.017 -0.5271  0.3570  0.5264
  435MOL0     H59993   4.813   5.887  11.052  1.0429 -0.7278 -0.5792
  435MOL0     H59994   4.575   5.929  11.050  1.3063 -1.5331 -1.1374
  435MOL0     H59995   4.593   6.106  11.041  1.3939 -0.3086  0.4176
  435MOL0     H59996   4.440   6.113  10.842  3.0416  1.4742  1.5981
  435MOL0     H59997   4.383   5.950  10.890 -1.0733  0.9612 -0.9005
  435MOL0     H59998   4.337   6.060  11.115 -2.3668 -0.9825  0.0069
  435MOL0     H59999   4.231   6.107  10.985  0.2955 -1.3714  0.1700
  435MOL0     H60000   4.379   6.322  10.954  1.8049 -1.0796  0.5934
  435MOL0     H60001   4.456   6.267  11.104  1.8855 -1.4912 -0.6076
  435MOL0     H60002   4.157   6.299  11.074  0.6939  0.2809 -1.1635
  435MOL0     H60003   4.236   6.303  11.228  1.7103  1.5949  1.0904
  435MOL0     H60004   4.345   6.524  11.161 -0.3892  2.2778  0.0561
  435MOL0     H60005   4.176   6.521  11.207  1.0095  2.3911 -0.7901
  435MOL0     H60006   4.104   6.502  10.971  1.9382 -2.3922 -1.9737
  435MOL0     H60007   4.274   6.538  10.923  0.3724 -0.5985  0.1198
  435MOL0     H60008   4.252   6.752  11.036  2.8538 -4.7992  0.6202
  435MOL0     H60009   4.103   6.711  11.106  1.1564 -1.8787  1.0653
  435MOL0     H60010   4.670   5.872  10.657 -3.2199  0.9438  1.9780
  435MOL0     H60011   4.819   5.671  10.599 -1.3616 -1.6747 -0.5921
  435MOL0     H60012   5.054   5.356  10.670 -6.1136  0.4863  1.4828
  435MOL0     H60013   5.179   5.134  10.639  1.6413 -0.9067  0.3756
  435MOL0     H60014   4.591   3.807   9.843  0.8652  2.2564  1.3999
  435MOL0     H60015   4.568   3.556   9.752 -1.2606  0.3469  0.5733
  435MOL0     H60016   4.815   3.282   9.247 -1.3415  1.4582  0.3389
  435MOL0     H60017   4.736   3.075   9.156 -2.0431  0.2188  0.0491
  435MOL0     H60018   4.325   2.885   9.253 -1.6053  0.6455 -3.3386
  435MOL0     H60019   4.383   3.050   9.234 -2.7599  0.1155 -0.5463
  435MOL0     H60020   4.414   2.805   9.079 -0.5320  0.7314 -0.0573
  435MOL0     H60021   4.525   2.943   9.041  0.9983 -1.9691  0.9508
  435MOL0     H60022   4.214   2.954   9.016 -1.4717  2.1860 -1.1322
  435MOL0     H60023   4.328   3.087   9.007 -0.0813 -0.3847 -0.5592
  435MOL0     H60024   4.253   2.969   8.786 -0.2863 -0.0805  1.4747
  435MOL0     H60025   4.366   2.840   8.832  4.0143 -0.3241  2.2698
  435MOL0     H60026   4.618   3.113   8.678 -0.1303  5.1322  2.8205
  435MOL0     H60027   4.485   3.027   9.511 -0.7614  2.3005  1.9483
  435MOL0     H60028   4.542   3.293   9.693 -0.8983 -1.0558 -0.0717
  435MOL0     H60029   4.558   3.113   9.715 -0.2384  0.0178 -0.4928
  435MOL0     H60030   4.697   3.209   9.727  0.8334  0.9092  0.0476
  436MOL0     O60031   3.202   9.691   4.266 -0.2279  0.7060 -0.8849
  436MOL0     C60032   3.254   9.600   4.336  0.0434 -0.5204  0.7870
  436MOL0     O60033   3.213   9.575   4.464  0.5545 -0.9171  0.3930
  436MOL0     C60034   3.086   9.626   4.499  0.1722 -0.2694 -0.5934
  436MOL0     C60035   3.044   9.762   4.494 -0.2468  0.0191  0.0158
  436MOL0     C60036   2.915   9.799   4.515  0.5449  0.3437 -0.0838
  436MOL0     C60037   2.821   9.699   4.546 -0.3751  0.4382 -0.0984
  436MOL0     O60038   2.689   9.725   4.582 -0.0808  0.3801 -0.0135
  436MOL0     C60039   2.648   9.856   4.626  0.0392  0.3268 -0.5369
  436MOL0     C60040   2.504   9.850   4.687 -0.7288 -0.3798 -1.0559
  436MOL0     C60041   2.399   9.782   4.608  0.2678 -0.2736 -0.2384
  436MOL0     C60042   2.331   9.870   4.501 -0.1278 -0.2930  0.3027
  436MOL0     C60043   2.277   9.798   4.380 -0.4796  0.0612 -0.6665
  436MOL0     C60044   2.217   9.662   4.415 -0.3717  0.5673  0.3066
  436MOL0     C60045   2.154   9.599   4.291  0.5604  1.3612  0.4816
  436MOL0     C60046   2.113   9.452   4.313  0.0797  0.0576 -0.5186
  436MOL0     N60047   1.983   9.458   4.396  0.0089 -0.2518  0.1738
  436MOL0     C60048   1.958   9.500   4.530 -0.0097 -0.4134 -0.0129
  436MOL0     C60049   1.821   9.507   4.531 -0.3263  0.4251 -0.6601
  436MOL0     C60050   1.726   9.509   4.647  0.2819  0.0079  0.5700
  436MOL0     C60051   1.705   9.644   4.707  0.4488 -0.5354 -0.0412
  436MOL0     C60052   1.609   9.624   4.824  0.5374 -0.8799  0.1542
  436MOL0     C60053   1.610   9.754   4.898  0.1488  0.2811 -0.2374
  436MOL0     O60054   1.481   9.767   4.959  0.1220 -0.1761 -0.6476
  436MOL0     C60055   1.464   9.719   5.087  0.3578  0.1404 -0.2331
  436MOL0     C60056   1.562   9.638   5.160 -0.8928 -0.7810  0.2126
  436MOL0     C60057   1.542   9.593   5.292  0.1646 -0.4584 -0.5751
  436MOL0     C60058   1.626   9.474   5.345 -0.9629  0.3540 -0.8752
  436MOL0     C60059   1.429   9.640   5.359  0.7623 -0.0203  0.7343
  436MOL0     C60060   1.389   9.588   5.491  0.0226  0.1969  0.3646
  436MOL0     O60061   1.253   9.589   5.505 -0.9769 -0.0213 -0.5133
  436MOL0     C60062   1.199   9.498   5.598  0.4926 -0.4196  0.2603
  436MOL0     C60063   1.236   9.361   5.598  0.0036 -0.5873 -0.5082
  436MOL0     C60064   1.188   9.272   5.693  0.1710 -0.8020  0.8190
  436MOL0     C60065   1.103   9.316   5.793 -0.3554 -0.9166 -0.0841
  436MOL0     O60066   1.044   9.237   5.890  0.2952  0.7718 -0.2958
  436MOL0     C60067   0.944   9.150   5.828  0.4157  0.0891 -0.4388
  436MOL0     C60068   0.803   9.191   5.882 -0.3711 -1.0686  1.0168
  436MOL0     C60069   0.685   9.100   5.832 -0.8190  0.1647  0.1208
  436MOL0     C60070   0.590   9.179   5.738  0.0751 -0.4536  0.3731
  436MOL0     C60071   0.581   9.122   5.593  0.8432  0.2264 -0.0716
  436MOL0     C60072   0.717   9.130   5.509  0.8913 -0.2636 -0.0466
  436MOL0     C60073   0.724   9.283   5.471  0.3160 -0.6885  0.1009
  436MOL0     C60074   0.844   9.355   5.510  0.0698  0.3074  1.0601
  436MOL0    Cl60075   0.849   9.539   5.481  0.6611 -0.2053  0.0790
  436MOL0     C60076   1.068   9.453   5.796 -0.4259  0.5276 -0.2881
  436MOL0     C60077   1.112   9.540   5.697 -0.7435 -0.8594 -0.9936
  436MOL0     O60078   1.475   9.553   5.577 -0.0569  0.0250  0.1811
  436MOL0     C60079   1.330   9.722   5.298 -0.0933  0.3100 -0.5596
  436MOL0     C60080   1.349   9.752   5.161  0.4126  0.1725 -0.4502
  436MOL0     N60081   1.778   9.472   4.404  0.0984 -0.1302  0.4862
  436MOL0     N60082   1.873   9.455   4.324 -0.0653 -0.0700  0.3046
  436MOL0     C60083   2.862   9.566   4.558 -0.2520 -0.8140 -0.2390
  436MOL0     C60084   2.993   9.532   4.527 -0.4089 -0.7149  0.3744
  436MOL0     C60085   3.363   9.526   4.270 -0.5308  0.1806  0.6901
  436MOL0     C60086   3.392   9.546   4.131  0.2221 -0.0846 -0.3226
  436MOL0     C60087   3.483   9.468   4.058 -0.0160  0.3355  0.3527
  436MOL0     C60088   3.557   9.375   4.117  0.5462 -0.2965 -0.7219
  436MOL0     O60089   3.644   9.305   4.043 -0.5954 -0.3913  0.5931
  436MOL0     C60090   3.683   9.336   3.902  0.9190 -0.0857 -0.0342
  436MOL0     C60091   3.808   9.252   3.866  0.6077  0.4538 -0.5125
  436MOL0     C60092   3.844   9.257   3.721  0.2952 -0.1676 -0.4602
  436MOL0     C60093   3.934   9.140   3.662 -0.3513 -0.4366  0.1700
  436MOL0     C60094   4.075   9.154   3.695 -1.0279 -0.6734  0.6282
  436MOL0     C60095   4.194   9.163   3.707 -0.4356  0.0394  0.0145
  436MOL0     C60096   3.535   9.350   4.256  0.4702 -0.1547 -0.2497
  436MOL0     C60097   3.432   9.417   4.334 -1.6276 -0.6567  0.3650
  436MOL0     C60098   3.415   9.371   4.475 -0.1714 -0.9810  0.2284
  436MOL0     H60099   3.119   9.837   4.472 -0.0825 -0.4802 -1.1950
  436MOL0     H60100   2.873   9.897   4.498 -1.6200 -0.8039 -2.0688
  436MOL0     H60101   2.659   9.928   4.544  0.2964  1.4912  0.4932
  436MOL0     H60102   2.720   9.883   4.703 -0.1537 -1.1001  0.1745
  436MOL0     H60103   2.507   9.792   4.780 -0.4707  0.6146 -0.4308
  436MOL0     H60104   2.474   9.952   4.713  0.1545  0.3626 -2.7925
  436MOL0     H60105   2.448   9.695   4.563  1.5549  0.0878  0.4128
  436MOL0     H60106   2.324   9.746   4.679  1.4690 -0.4817  0.9655
  436MOL0     H60107   2.241   9.915   4.543  0.9826  0.5682  1.8616
  436MOL0     H60108   2.403   9.947   4.472 -1.2900  3.0425  5.0934
  436MOL0     H60109   2.359   9.779   4.309  1.2748  0.8171  1.0821
  436MOL0     H60110   2.189   9.853   4.347 -2.2319 -1.7146  0.7564
  436MOL0     H60111   2.290   9.588   4.450 -0.0429 -0.7293 -2.7991
  436MOL0     H60112   2.140   9.677   4.492 -1.9559 -0.9780 -0.9143
  436MOL0     H60113   2.230   9.589   4.213  0.3600 -2.1412  0.5751
  436MOL0     H60114   2.070   9.656   4.249 -2.1857 -2.2189  0.6010
  436MOL0     H60115   2.079   9.401   4.222 -2.4632 -0.7012  0.7640
  436MOL0     H60116   2.184   9.397   4.375  0.0732  0.5506 -0.0634
  436MOL0     H60117   2.031   9.534   4.603  0.0070 -1.4575  0.4746
  436MOL0     H60118   1.779   9.448   4.721  1.0784 -1.2756 -1.0000
  436MOL0     H60119   1.633   9.464   4.610  0.2186  1.2842 -0.9291
  436MOL0     H60120   1.805   9.667   4.747  1.4944 -0.9725 -2.2252
  436MOL0     H60121   1.660   9.714   4.636  2.6392  0.4269 -0.5631
  436MOL0     H60122   1.506   9.607   4.790 -0.1466  0.3219  1.5426
  436MOL0     H60123   1.627   9.538   4.889 -2.4003  0.5088  3.0651
  436MOL0     H60124   1.694   9.754   4.968 -0.2465  0.8136  0.2439
  436MOL0     H60125   1.623   9.844   4.837 -0.9963  1.4522  1.1657
  436MOL0     H60126   1.650   9.606   5.106 -1.2314  2.1304 -2.3300
  436MOL0     H60127   1.680   9.502   5.436 -1.4121  1.4333 -0.9196
  436MOL0     H60128   1.701   9.441   5.272  0.6384  2.2188 -0.1448
  436MOL0     H60129   1.556   9.392   5.362 -0.7071  0.5553  1.4706
  436MOL0     H60130   1.313   9.335   5.526  1.2343  0.6350  0.3090
  436MOL0     H60131   1.220   9.168   5.694  0.6401 -0.7036 -0.7678
  436MOL0     H60132   0.930   9.168   5.721  0.4807  0.3694 -0.4012
  436MOL0     H60133   0.970   9.047   5.854  3.2827  0.9130  0.2439
  436MOL0     H60134   0.801   9.191   5.991  1.1945  0.9522  1.1112
  436MOL0     H60135   0.781   9.296   5.859 -3.8004 -1.7003  0.9380
  436MOL0     H60136   0.624   9.065   5.916 -0.4276 -0.3147  0.2127
  436MOL0     H60137   0.732   9.009   5.793 -1.3562  0.0026 -0.1551
  436MOL0     H60138   0.619   9.284   5.732 -3.0005  0.4477 -0.9019
  436MOL0     H60139   0.496   9.183   5.794  0.4918 -0.7095  1.1013
  436MOL0     H60140   0.553   9.016   5.588  1.7238  0.0431 -2.3469
  436MOL0     H60141   0.505   9.182   5.542  1.0690  2.0819  1.6442
  436MOL0     H60142   0.703   9.071   5.419  0.9993  1.1469 -1.0274
  436MOL0     H60143   0.810   9.096   5.556  1.7543 -1.6470 -2.5777
  436MOL0     H60144   0.631   9.338   5.489 -0.7976 -2.2363 -0.6205
  436MOL0     H60145   0.725   9.271   5.362 -1.1061 -4.1713  0.3365
  436MOL0     H60146   0.928   9.312   5.455 -1.0805 -0.4325 -0.1657
  436MOL0     H60147   0.862   9.341   5.617  0.6787 -1.6479  0.7364
  436MOL0     H60148   1.001   9.488   5.874  3.1802  1.6084  2.6003
  436MOL0     H60149   1.076   9.642   5.692 -2.1040 -1.2054  0.7864
  436MOL0     H60150   1.230   9.752   5.328  0.0466  0.3755 -0.1545
  436MOL0     H60151   1.277   9.817   5.112 -2.0642 -1.0726  1.3016
  436MOL0     H60152   2.782   9.495   4.576 -2.1208  1.7723  2.6380
  436MOL0     H60153   3.025   9.428   4.516  2.6975 -0.2722  3.3328
  436MOL0     H60154   3.325   9.616   4.082  0.5681 -1.1354 -2.4164
  436MOL0     H60155   3.487   9.485   3.951 -1.9330 -1.2691 -0.0299
  436MOL0     H60156   3.602   9.304   3.835 -1.3977  1.5541  1.8128
  436MOL0     H60157   3.682   9.444   3.886 -3.1312  0.1491  0.7724
  436MOL0     H60158   3.789   9.148   3.893  0.2784  1.0356  1.7729
  436MOL0     H60159   3.897   9.278   3.925  1.0784 -0.8660 -0.6164
  436MOL0     H60160   3.750   9.262   3.666 -1.1573 -0.6191  1.8579
  436MOL0     H60161   3.910   9.345   3.712  1.5179 -0.9391  0.5539
  436MOL0     H60162   3.928   9.145   3.553 -0.2044 -1.0483  0.1344
  436MOL0     H60163   3.900   9.041   3.695 -3.0042 -0.5135 -2.4174
  436MOL0     H60164   4.299   9.177   3.720 -0.0083 -1.9946 -0.7607
  436MOL0     H60165   3.589   9.268   4.302 -0.4833 -0.6234  0.0601
  436MOL0     H60166   3.432   9.455   4.544  0.6226 -0.5479 -0.4830
  436MOL0     H60167   3.313   9.332   4.482 -1.9028  2.6568 -1.4918
  436MOL0     H60168   3.503   9.311   4.500  0.7921  1.0981  2.2116
  437MOL0     O60169   5.121   8.761   5.929  0.3527  0.0326  0.0431
  437MOL0     C60170   5.071   8.837   5.847 -0.6706 -0.3607  0.0479
  437MOL0     O60171   4.949   8.821   5.794 -0.3969 -0.0410  0.5128
  437MOL0     C60172   4.885   8.710   5.830 -0.5226  0.7272  0.8998
  437MOL0     C60173   4.934   8.586   5.790 -0.2887 -0.4123  0.6547
  437MOL0     C60174   4.842   8.478   5.800 -0.0411  0.0882 -0.0729
  437MOL0     C60175   4.727   8.494   5.879 -0.5344 -0.5558 -0.1542
  437MOL0     O60176   4.663   8.374   5.903 -0.5221 -0.6343 -0.7235
  437MOL0     C60177   4.572   8.330   5.798 -0.4253 -0.4515 -0.6980
  437MOL0     C60178   4.566   8.187   5.786 -0.6456 -0.4961 -0.6352
  437MOL0     C60179   4.513   8.100   5.905 -0.0533 -0.4508 -0.7119
  437MOL0     C60180   4.508   7.953   5.865  0.7146  1.1474  0.4572
  437MOL0     C60181   4.462   7.854   5.976  1.1901  0.3537 -0.6046
  437MOL0     C60182   4.468   7.705   5.936 -0.7675 -1.1832 -0.3267
  437MOL0     C60183   4.429   7.609   6.050  0.6492  0.5232 -0.2966
  437MOL0     C60184   4.278   7.602   6.059  0.2394  0.3568  0.2215
  437MOL0     N60185   4.224   7.470   6.115 -0.3520 -0.2658  0.5016
  437MOL0     C60186   4.192   7.444   6.248 -0.7748 -0.3404  0.2604
  437MOL0     C60187   4.168   7.312   6.257  0.5276  0.2676  0.0283
  437MOL0     C60188   4.142   7.238   6.387 -0.7143 -0.2880  0.6116
  437MOL0     C60189   3.995   7.198   6.411 -0.4134 -0.2369 -0.5453
  437MOL0     C60190   3.933   7.107   6.300 -0.8842  0.8821 -0.1897
  437MOL0     C60191   4.022   6.994   6.268 -0.2586  0.5975 -0.3525
  437MOL0     O60192   4.052   6.931   6.391 -0.0778 -0.0448 -0.1338
  437MOL0     C60193   4.181   6.887   6.417  0.3765  0.5161 -0.3629
  437MOL0     C60194   4.279   6.875   6.316  0.1208 -0.6340  0.1591
  437MOL0     C60195   4.415   6.824   6.337  0.3196 -0.5308 -0.6717
  437MOL0     C60196   4.497   6.798   6.203 -0.7914  0.4877  0.4959
  437MOL0     C60197   4.447   6.803   6.469  0.1507  0.2718  0.8465
  437MOL0     C60198   4.581   6.758   6.507  0.0985  0.5245  0.1243
  437MOL0     O60199   4.630   6.805   6.622 -0.1476  0.3227 -0.3148
  437MOL0     C60200   4.727   6.726   6.683 -0.7262  0.1678 -0.7369
  437MOL0     C60201   4.705   6.605   6.747 -1.3359  0.4761 -0.1454
  437MOL0     C60202   4.814   6.536   6.797 -0.2966 -0.1632 -0.5045
  437MOL0     C60203   4.945   6.593   6.813 -0.6566  0.0269  0.5667
  437MOL0     O60204   5.037   6.506   6.869 -0.8337 -0.6044 -0.5758
  437MOL0     C60205   5.143   6.577   6.931  0.9707 -0.8012 -0.1388
  437MOL0     C60206   5.221   6.475   7.019  0.2753 -0.7236  0.6740
  437MOL0     C60207   5.339   6.424   6.942 -0.2350  0.6377 -0.0017
  437MOL0     C60208   5.399   6.295   7.008 -0.0367 -0.7388 -0.3657
  437MOL0     C60209   5.508   6.238   6.914  0.2811  0.2023  0.5595
  437MOL0     C60210   5.466   6.143   6.797  0.5378 -0.4186 -0.6815
  437MOL0     C60211   5.561   6.151   6.679 -0.4446  0.5403  0.6920
  437MOL0     C60212   5.547   6.049   6.563  0.5106  1.3153 -0.4477
  437MOL0    Cl60213   5.626   6.111   6.415  0.5425 -0.0163  0.5304
  437MOL0     C60214   4.964   6.719   6.766 -0.6852 -0.0027  0.0162
  437MOL0     C60215   4.855   6.782   6.704 -0.9963 -0.0438 -0.0338
  437MOL0     O60216   4.633   6.674   6.432 -0.4746  0.1223  0.0220
  437MOL0     C60217   4.358   6.819   6.579 -0.2653  0.1555  0.6285
  437MOL0     C60218   4.225   6.859   6.548 -0.3518 -0.5052 -0.8858
  437MOL0     N60219   4.206   7.256   6.137  0.1215 -0.8682 -0.7039
  437MOL0     N60220   4.242   7.348   6.050 -0.0876  0.1841  0.1439
  437MOL0     C60221   4.690   8.618   5.929 -1.1559 -0.7185  0.3063
  437MOL0     C60222   4.762   8.730   5.890 -0.5739  0.6867  0.2620
  437MOL0     C60223   5.133   8.969   5.816  0.0880 -0.7124 -0.4757
  437MOL0     C60224   5.252   9.004   5.886 -0.2820 -0.1957  0.0944
  437MOL0     C60225   5.325   9.109   5.848  0.0860 -0.1732  1.2307
  437MOL0     C60226   5.283   9.198   5.749 -0.8961 -0.0471 -0.7611
  437MOL0     O60227   5.373   9.286   5.697 -0.6254  0.1818 -0.5250
  437MOL0     C60228   5.331   9.428   5.690 -1.0191  0.2377  0.0988
  437MOL0     C60229   5.452   9.531   5.687  0.3694  0.2115 -1.0006
  437MOL0     C60230   5.534   9.507   5.564  0.0263 -0.7947 -0.0075
  437MOL0     C60231   5.645   9.604   5.544 -0.6769 -0.1259  0.0053
  437MOL0     C60232   5.756   9.565   5.635  0.4217 -0.3373  1.1731
  437MOL0     C60233   5.836   9.538   5.724 -0.5331  0.6944 -0.6663
  437MOL0     C60234   5.164   9.178   5.692 -0.3472  0.4924 -0.3629
  437MOL0     C60235   5.084   9.064   5.717 -0.2767 -0.1713  0.4405
  437MOL0     C60236   4.961   9.062   5.634 -0.9649 -0.4729  0.0441
  437MOL0     H60237   5.030   8.573   5.742 -0.2628  2.2817 -0.1924
  437MOL0     H60238   4.883   8.382   5.773  1.3934 -0.4097  3.3472
  437MOL0     H60239   4.603   8.365   5.699  1.4120  1.3075  0.4153
  437MOL0     H60240   4.473   8.365   5.830  0.8287  3.1764 -0.2943
  437MOL0     H60241   4.505   8.160   5.699  0.3331 -4.7441 -0.1979
  437MOL0     H60242   4.672   8.163   5.770  0.2868  1.0841  2.3698
  437MOL0     H60243   4.571   8.113   5.997  1.1147  1.0372 -1.6171
  437MOL0     H60244   4.408   8.125   5.921 -0.1007 -0.5662 -0.8406
  437MOL0     H60245   4.444   7.936   5.778  2.2822 -0.4486 -0.4481
  437MOL0     H60246   4.606   7.930   5.823  0.9561  2.0494  0.5021
  437MOL0     H60247   4.360   7.876   6.009  0.1252 -2.6450 -1.5925
  437MOL0     H60248   4.527   7.865   6.064  0.3394 -3.4604  0.6574
  437MOL0     H60249   4.400   7.697   5.851  0.3395 -0.2029 -1.3388
  437MOL0     H60250   4.572   7.697   5.903 -0.1062 -0.4926  1.4657
  437MOL0     H60251   4.477   7.637   6.145  1.5861  2.2828 -1.2432
  437MOL0     H60252   4.463   7.508   6.024 -2.2466 -0.3997 -0.9016
  437MOL0     H60253   4.237   7.682   6.122 -1.3265  0.4482 -0.8649
  437MOL0     H60254   4.225   7.616   5.964 -3.2932  0.0238  1.9825
  437MOL0     H60255   4.174   7.517   6.327 -0.0612  1.6598 -1.3429
  437MOL0     H60256   4.175   7.295   6.475  2.7801 -0.8929 -0.1641
  437MOL0     H60257   4.206   7.150   6.389 -0.4310 -0.1355 -0.7655
  437MOL0     H60258   3.993   7.138   6.502 -0.7041 -0.5123 -0.7302
  437MOL0     H60259   3.932   7.286   6.426 -0.6722 -0.4882 -0.1586
  437MOL0     H60260   3.835   7.072   6.333  0.5364 -0.9031  2.4657
  437MOL0     H60261   3.934   7.172   6.212  1.4498 -0.2161 -1.0414
  437MOL0     H60262   3.955   6.927   6.214  0.8139 -0.7468 -0.0544
  437MOL0     H60263   4.106   7.036   6.211  0.1089  0.6841  0.2445
  437MOL0     H60264   4.265   6.905   6.212 -0.9627  2.8084  1.1848
  437MOL0     H60265   4.599   6.833   6.224 -0.0948 -1.5561  0.7537
  437MOL0     H60266   4.450   6.857   6.124  0.9666  0.0568 -0.9506
  437MOL0     H60267   4.497   6.694   6.168  1.6269 -0.0419  1.8044
  437MOL0     H60268   4.602   6.575   6.731 -2.1811  2.3817  1.2990
  437MOL0     H60269   4.805   6.431   6.822  2.9902 -0.3853  0.1529
  437MOL0     H60270   5.209   6.619   6.854  1.2963  1.9254  1.4824
  437MOL0     H60271   5.103   6.659   6.991 -0.6862 -0.6510 -1.3940
  437MOL0     H60272   5.259   6.521   7.111  1.2413 -2.1145  1.0008
  437MOL0     H60273   5.155   6.393   7.046 -2.0006  0.1794 -1.8160
  437MOL0     H60274   5.415   6.502   6.936  0.0422  0.3137 -0.8868
  437MOL0     H60275   5.311   6.392   6.841  2.0645 -2.0480  0.0604
  437MOL0     H60276   5.328   6.216   7.036  1.2184 -0.8402  2.9972
  437MOL0     H60277   5.449   6.329   7.099 -0.3329 -2.2710  0.4132
  437MOL0     H60278   5.575   6.318   6.881  2.8242 -2.3517 -0.9119
  437MOL0     H60279   5.574   6.168   6.964  0.0519  1.0242  2.0721
  437MOL0     H60280   5.367   6.185   6.777  0.8484  0.6385 -0.0745
  437MOL0     H60281   5.453   6.044   6.840  0.8329 -0.3767 -0.4900
  437MOL0     H60282   5.667   6.144   6.702 -0.3265 -1.4320 -0.2362
  437MOL0     H60283   5.544   6.250   6.635 -0.2209  1.2378  2.1154
  437MOL0     H60284   5.442   6.039   6.536  0.5475  0.7792 -0.4088
  437MOL0     H60285   5.587   5.952   6.595 -0.7711  0.7094 -0.6303
  437MOL0     H60286   5.058   6.772   6.769 -0.4281 -0.5062  1.1819
  437MOL0     H60287   4.870   6.885   6.675 -0.9885  0.9601  3.1778
  437MOL0     H60288   4.381   6.791   6.681 -0.4331 -3.6366 -0.2360
  437MOL0     H60289   4.150   6.852   6.626  1.0368  3.2364  1.0321
  437MOL0     H60290   4.606   8.622   5.998  1.7802 -1.1110  4.2431
  437MOL0     H60291   4.706   8.822   5.899 -1.7058  0.2432 -1.6118
  437MOL0     H60292   5.296   8.937   5.959 -0.4249 -1.1721 -0.6967
  437MOL0     H60293   5.424   9.134   5.887  0.8212  2.2938 -1.7519
  437MOL0     H60294   5.274   9.441   5.597 -0.7569 -0.8129 -0.2254
  437MOL0     H60295   5.288   9.457   5.786  2.3275 -0.5366  1.9932
  437MOL0     H60296   5.513   9.518   5.776 -1.9079 -0.7824  0.5294
  437MOL0     H60297   5.407   9.631   5.678  3.6243  2.2094  2.2308
  437MOL0     H60298   5.579   9.408   5.549  1.0568  0.0744 -3.4329
  437MOL0     H60299   5.475   9.515   5.472  2.2159 -1.3007 -1.5343
  437MOL0     H60300   5.621   9.709   5.564  2.6923  1.0375 -1.3476
  437MOL0     H60301   5.679   9.594   5.441  0.0881  0.2930  0.2054
  437MOL0     H60302   5.913   9.526   5.798 -0.5368 -0.1472 -0.7910
  437MOL0     H60303   5.135   9.250   5.616 -0.9029  0.7557  0.0915
  437MOL0     H60304   4.901   8.971   5.649 -0.5567 -0.4431  2.0041
  437MOL0     H60305   4.908   9.150   5.671 -1.4014 -0.7075 -0.0112
  437MOL0     H60306   4.988   9.071   5.528 -1.6474 -2.2832 -0.3304
  438MOL0     O60307   3.414  11.465   2.645 -0.8247 -0.3289 -0.1728
  438MOL0     C60308   3.308  11.469   2.582 -0.1129 -0.1290  0.2148
  438MOL0     O60309   3.192  11.409   2.626  0.3797  0.6291 -0.0845
  438MOL0     C60310   3.170  11.345   2.742 -0.2534  0.4883 -0.0692
  438MOL0     C60311   3.240  11.357   2.860 -0.8020  0.8085 -0.1865
  438MOL0     C60312   3.207  11.289   2.981  0.5085 -0.6576 -0.3525
  438MOL0     C60313   3.083  11.215   2.977  0.3843  0.4564 -0.8362
  438MOL0     O60314   3.036  11.131   3.072  0.0770 -0.2111  0.0448
  438MOL0     C60315   3.105  11.115   3.196  0.3127  0.2283  1.0555
  438MOL0     C60316   3.011  11.062   3.303 -0.5157 -0.2503 -0.2183
  438MOL0     C60317   2.895  11.160   3.327 -0.0628  0.0261 -0.6885
  438MOL0     C60318   2.784  11.111   3.409  0.0647  0.3532  0.0756
  438MOL0     C60319   2.671  11.212   3.421  0.3914 -0.9194  0.1186
  438MOL0     C60320   2.703  11.346   3.497 -0.2508  0.6029  0.4797
  438MOL0     C60321   2.752  11.321   3.642 -0.2089  0.0616 -0.0315
  438MOL0     C60322   2.764  11.433   3.746 -0.3069 -0.7740  0.3733
  438MOL0     N60323   2.641  11.507   3.739  0.7593  0.1669  0.0091
  438MOL0     C60324   2.545  11.493   3.836 -0.3880  0.6606  0.3612
  438MOL0     C60325   2.473  11.604   3.837 -0.3370 -0.5009  0.0408
  438MOL0     C60326   2.366  11.626   3.941 -0.3343 -0.6392 -0.5297
  438MOL0     C60327   2.272  11.754   3.917 -0.2086 -0.0490 -0.1032
  438MOL0     C60328   2.153  11.716   4.009 -0.1519  0.9226  0.1550
  438MOL0     C60329   2.066  11.598   3.968  1.0258 -0.4912  0.4268
  438MOL0     O60330   2.036  11.584   3.826  0.2071 -0.1398  0.4778
  438MOL0     C60331   1.961  11.473   3.777 -0.2775 -0.7837  0.1299
  438MOL0     C60332   1.961  11.455   3.644  0.0897  1.4140  0.1821
  438MOL0     C60333   1.889  11.351   3.573 -0.4302  0.0326 -0.6263
  438MOL0     C60334   1.927  11.335   3.422  0.6884 -0.4599 -0.3214
  438MOL0     C60335   1.806  11.267   3.652  0.0708  0.7188  0.1962
  438MOL0     C60336   1.716  11.159   3.604 -0.2422  0.0091 -0.1266
  438MOL0     O60337   1.722  11.137   3.464  0.4593  0.0676  0.0410
  438MOL0     C60338   1.630  11.056   3.405 -0.2501  0.2159 -0.2926
  438MOL0     C60339   1.511  11.095   3.341 -0.5398 -0.3110 -0.8436
  438MOL0     C60340   1.429  11.007   3.277 -0.0190  0.2069 -1.2256
  438MOL0     C60341   1.469  10.873   3.270  0.1918 -0.4331  0.7843
  438MOL0     O60342   1.387  10.799   3.185  0.0882  0.5401  0.2019
  438MOL0     C60343   1.449  10.707   3.088  0.1471 -0.5558  0.2995
  438MOL0     C60344   1.337  10.711   2.980 -0.4159 -0.4644 -0.4017
  438MOL0     C60345   1.326  10.581   2.902 -0.8192  0.4474 -0.0096
  438MOL0     C60346   1.305  10.461   2.999 -0.9365  0.8494 -0.6615
  438MOL0     C60347   1.252  10.336   2.928 -0.7395  0.7209 -0.8756
  438MOL0     C60348   1.301  10.311   2.784  0.7539  0.4165  0.0172
  438MOL0     C60349   1.228  10.208   2.704 -0.8111  0.6455 -0.2079
  438MOL0     C60350   1.264  10.225   2.555  0.7018  0.4098 -0.9474
  438MOL0    Cl60351   1.165  10.344   2.472 -0.1816  0.0881  0.6542
  438MOL0     C60352   1.598  10.836   3.310  0.6701  1.5773 -0.8955
  438MOL0     C60353   1.670  10.929   3.380  0.0514  0.3415 -0.8298
  438MOL0     O60354   1.640  11.101   3.687 -0.0817 -0.7468  0.0806
  438MOL0     C60355   1.812  11.282   3.796 -0.3289  0.4911  0.1627
  438MOL0     C60356   1.888  11.389   3.858  0.7315 -0.6080  0.2775
  438MOL0     N60357   2.531  11.692   3.750  1.1495 -0.1154  0.1541
  438MOL0     N60358   2.621  11.633   3.686  0.0562  0.2909  0.0643
  438MOL0     C60359   3.006  11.201   2.858 -0.0479 -0.8109  0.1233
  438MOL0     C60360   3.052  11.268   2.741 -0.1767 -0.0981 -0.3454
  438MOL0     C60361   3.307  11.542   2.446 -0.3307 -0.7406 -0.7578
  438MOL0     C60362   3.407  11.633   2.433  0.7982 -0.7071  0.1844
  438MOL0     C60363   3.403  11.716   2.325  0.3329  0.6465  0.2717
  438MOL0     C60364   3.309  11.705   2.224 -0.4000 -0.1399  0.2715
  438MOL0     O60365   3.315  11.800   2.122 -0.3624 -0.2186 -0.6617
  438MOL0     C60366   3.235  11.771   2.010 -1.5916  0.0138  0.2125
  438MOL0     C60367   3.255  11.862   1.895 -0.4384 -0.7385  0.4750
  438MOL0     C60368   3.385  11.840   1.817  0.0826  0.1725 -0.0617
  438MOL0     C60369   3.393  11.938   1.703 -0.0465  0.4390 -0.0518
  438MOL0     C60370   3.525  11.965   1.659 -0.1318 -0.6675  0.5626
  438MOL0     C60371   3.628  11.978   1.594 -0.6701  0.7600 -0.2649
  438MOL0     C60372   3.220  11.600   2.235  0.4920 -0.3207  0.1533
  438MOL0     C60373   3.221  11.515   2.340 -0.2931 -0.1487 -0.3353
  438MOL0     C60374   3.119  11.412   2.323 -0.0459  0.8470 -0.0979
  438MOL0     H60375   3.322  11.428   2.869 -0.2151  0.0394  0.7167
  438MOL0     H60376   3.262  11.294   3.075 -2.3187  0.2165  1.3620
  438MOL0     H60377   3.126  11.221   3.216 -1.2999  0.1966  3.2384
  438MOL0     H60378   3.198  11.058   3.186 -0.1635 -0.4376  0.3275
  438MOL0     H60379   2.963  10.972   3.263 -1.7247 -0.5783  1.8311
  438MOL0     H60380   3.061  11.050   3.400  0.8503  0.9054 -0.7505
  438MOL0     H60381   2.931  11.249   3.381  1.2138 -0.9632  0.1457
  438MOL0     H60382   2.868  11.198   3.227  1.0779 -2.9103 -2.2269
  438MOL0     H60383   2.751  11.015   3.369  2.0944 -0.3183 -0.1077
  438MOL0     H60384   2.839  11.096   3.502  1.5646  1.4152 -0.5968
  438MOL0     H60385   2.588  11.162   3.472 -1.5003 -0.4890 -2.3324
  438MOL0     H60386   2.634  11.250   3.325 -2.8811  0.9115  1.9369
  438MOL0     H60387   2.793  11.393   3.456  1.4418 -2.5383  0.3227
  438MOL0     H60388   2.615  11.411   3.484 -1.0345 -0.5043  0.0093
  438MOL0     H60389   2.850  11.271   3.640 -1.7741 -3.3813  1.8790
  438MOL0     H60390   2.682  11.255   3.692 -2.1408  3.0489  1.5073
  438MOL0     H60391   2.772  11.384   3.844  2.1115 -0.6280  0.2944
  438MOL0     H60392   2.844  11.503   3.722 -0.3708 -0.5057  0.9379
  438MOL0     H60393   2.549  11.412   3.909 -0.8228 -0.1592 -0.5109
  438MOL0     H60394   2.415  11.662   4.031  1.8480  1.3643 -2.3991
  438MOL0     H60395   2.310  11.533   3.959 -1.8855 -0.9497 -5.3723
  438MOL0     H60396   2.336  11.841   3.931  0.0407 -0.5080  1.9140
  438MOL0     H60397   2.233  11.752   3.815 -1.1901 -0.4689  0.2625
  438MOL0     H60398   2.195  11.686   4.105 -0.6181 -1.5795 -0.3589
  438MOL0     H60399   2.101  11.812   4.022  1.3739  1.8191 -0.1407
  438MOL0     H60400   2.117  11.508   4.002  2.1562  0.2661  0.7912
  438MOL0     H60401   1.971  11.585   4.022 -0.2325  2.8170 -0.7067
  438MOL0     H60402   2.031  11.507   3.580  1.5114  1.0516  1.3844
  438MOL0     H60403   2.018  11.390   3.397 -0.4843  0.8890 -1.7953
  438MOL0     H60404   1.844  11.359   3.355 -0.1957  0.2645  1.0032
  438MOL0     H60405   1.961  11.236   3.388 -0.4605 -1.2799  0.8343
  438MOL0     H60406   1.495  11.202   3.356  0.7049  0.1128 -2.2816
  438MOL0     H60407   1.339  11.035   3.222 -1.7153 -0.1522  1.2127
  438MOL0     H60408   1.546  10.739   3.050 -0.2839 -0.2871 -0.6078
  438MOL0     H60409   1.453  10.606   3.131  3.0923 -1.6317 -2.1521
  438MOL0     H60410   1.244  10.750   3.021  1.3576  1.1542  2.3820
  438MOL0     H60411   1.383  10.781   2.910  1.3981 -0.1020  1.0758
  438MOL0     H60412   1.423  10.560   2.856  0.3732  0.6951  2.2432
  438MOL0     H60413   1.245  10.583   2.829 -0.3042 -3.8866 -0.9362
  438MOL0     H60414   1.229  10.495   3.071 -0.6957  0.5265 -0.2485
  438MOL0     H60415   1.390  10.423   3.057 -2.6874 -0.4135  1.2222
  438MOL0     H60416   1.264  10.250   2.995 -0.9086 -0.4886 -2.3407
  438MOL0     H60417   1.144  10.350   2.919 -1.4150 -2.9722 -0.0161
  438MOL0     H60418   1.408  10.290   2.778  0.6879  0.2355 -0.6244
  438MOL0     H60419   1.291  10.410   2.739 -3.0767  0.4653  0.5792
  438MOL0     H60420   1.122  10.200   2.728 -1.2904 -0.5321 -2.4182
  438MOL0     H60421   1.262  10.111   2.741 -0.6954  0.6087 -0.4062
  438MOL0     H60422   1.236  10.134   2.500 -1.2301  0.6839 -0.4809
  438MOL0     H60423   1.367  10.259   2.543  0.1398  2.4493 -0.3368
  438MOL0     H60424   1.640  10.736   3.308 -0.9991  0.7383  1.3093
  438MOL0     H60425   1.756  10.880   3.426 -0.7830  0.8840  1.4395
  438MOL0     H60426   1.770  11.203   3.857  1.6465  1.1960  2.5784
  438MOL0     H60427   1.909  11.390   3.964  2.6055 -2.0922 -0.0115
  438MOL0     H60428   2.918  11.138   2.871 -1.6761  0.4861 -3.4050
  438MOL0     H60429   2.993  11.260   2.650  0.7808 -0.0791 -0.9854
  438MOL0     H60430   3.484  11.658   2.506  0.2117  1.4902  0.1144
  438MOL0     H60431   3.472  11.800   2.320 -0.6431  1.4461 -0.2330
  438MOL0     H60432   3.247  11.666   1.983  1.3605 -0.6326  3.3044
  438MOL0     H60433   3.132  11.786   2.043 -1.3907  0.3158  0.7203
  438MOL0     H60434   3.249  11.966   1.930 -0.9347 -0.6270  0.0821
  438MOL0     H60435   3.180  11.853   1.815  0.4683  1.4503 -0.7002
  438MOL0     H60436   3.470  11.843   1.886 -0.9853 -1.6976  1.3948
  438MOL0     H60437   3.391  11.742   1.770  0.1143  0.6375 -1.0622
  438MOL0     H60438   3.353  12.038   1.726  3.0261  1.8833 -0.4583
  438MOL0     H60439   3.346  11.908   1.609  1.8553  1.1709 -1.2951
  438MOL0     H60440   3.719  11.986   1.538 -0.6709 -0.9805 -0.5620
  438MOL0     H60441   3.145  11.587   2.158  0.2855  0.9016  0.1290
  438MOL0     H60442   3.028  11.434   2.380 -0.8775 -2.5254  0.1325
  438MOL0     H60443   3.102  11.387   2.218  0.2351  0.0920  0.0289
  438MOL0     H60444   3.152  11.317   2.366  0.3612  1.4995  1.0633
  439MOL0     O60445   1.323   7.263   2.086 -0.1520 -0.1572  0.1624
  439MOL0     C60446   1.259   7.231   2.193  0.3297  0.1198  1.5749
  439MOL0     O60447   1.152   7.295   2.243  0.3406 -0.5716  0.3423
  439MOL0     C60448   1.105   7.393   2.162 -0.6415 -1.4984  0.3934
  439MOL0     C60449   0.984   7.380   2.085  0.7039 -1.2167 -0.8552
  439MOL0     C60450   0.949   7.482   1.994  0.1511 -0.2140 -0.4211
  439MOL0     C60451   1.014   7.608   1.999 -0.1054  0.0914  0.1685
  439MOL0     O60452   0.974   7.712   1.921  0.1632 -0.0421 -0.7106
  439MOL0     C60453   1.074   7.762   1.835  0.1133  0.3261  0.3451
  439MOL0     C60454   1.013   7.829   1.719  0.1728 -0.1303 -0.4476
  439MOL0     C60455   1.107   7.873   1.604  0.1105 -0.0376  0.8108
  439MOL0     C60456   1.187   7.757   1.543  0.3717 -0.5626  1.0198
  439MOL0     C60457   1.291   7.830   1.451 -0.2081  0.6013  0.7359
  439MOL0     C60458   1.357   7.749   1.345  0.6280  0.3221  0.9041
  439MOL0     C60459   1.476   7.825   1.300 -0.1387 -0.5275  0.8453
  439MOL0     C60460   1.531   7.770   1.163  1.2750 -0.7465 -1.2522
  439MOL0     N60461   1.437   7.796   1.052 -0.1958  0.0655  0.0693
  439MOL0     C60462   1.389   7.696   0.960  0.3578  0.4647 -0.0599
  439MOL0     C60463   1.325   7.767   0.864 -0.2320  0.2143  0.2227
  439MOL0     C60464   1.252   7.713   0.734  0.2085 -0.5335 -0.0081
  439MOL0     C60465   1.150   7.596   0.761  1.1907 -0.3787  0.1850
  439MOL0     C60466   1.034   7.628   0.852 -0.1290  0.2666  0.3662
  439MOL0     C60467   0.957   7.751   0.813 -0.4384 -0.3532 -0.4512
  439MOL0     O60468   0.920   7.745   0.676  0.1180  0.8260 -0.7189
  439MOL0     C60469   0.852   7.852   0.615 -0.1730  0.4940 -0.0720
  439MOL0     C60470   0.898   7.976   0.617 -0.6209 -0.9540  1.0746
  439MOL0     C60471   0.839   8.070   0.531 -0.1933 -0.1593 -0.0982
  439MOL0     C60472   0.904   8.208   0.530 -0.2523  0.7486 -0.4855
  439MOL0     C60473   0.736   8.027   0.443  0.5565 -0.8261 -0.3209
  439MOL0     C60474   0.669   8.115   0.339  0.6520 -0.1311 -0.0223
  439MOL0     O60475   0.575   8.056   0.261  0.5810 -0.3121  0.0181
  439MOL0     C60476   0.525   8.133   0.162 -0.1996  0.6332 -0.2010
  439MOL0     C60477   0.430   8.233   0.189 -0.1181 -0.3012 -0.3790
  439MOL0     C60478   0.376   8.303   0.079  0.1628  0.0476  0.1857
  439MOL0     C60479   0.409   8.274  -0.056  0.2491  0.2638 -0.1912
  439MOL0     O60480   0.345   8.358  -0.147  0.3065  0.0822  0.0153
  439MOL0     C60481   0.371   8.328  -0.289 -1.2325 -0.0933  0.2338
  439MOL0     C60482   0.250   8.403  -0.352 -0.4644 -0.1464  0.3405
  439MOL0     C60483   0.284   8.424  -0.500 -0.7296 -0.3037  0.2395
  439MOL0     C60484   0.163   8.447  -0.594 -1.5075  0.4432 -0.5250
  439MOL0     C60485   0.210   8.487  -0.738  0.4466  0.3732 -0.1698
  439MOL0     C60486   0.091   8.482  -0.837 -0.6364 -0.2826  0.8891
  439MOL0     C60487   0.060   8.337  -0.889  0.6405  0.2756  0.8706
  439MOL0     C60488  -0.064   8.341  -0.982 -0.5269  0.1203  0.1275
  439MOL0    Cl60489  -0.001   8.414  -1.147  0.3554 -0.0725 -0.0515
  439MOL0     C60490   0.496   8.163  -0.086  1.2306  0.0553  0.2527
  439MOL0     C60491   0.561   8.112   0.031 -0.0372  0.0614  0.5925
  439MOL0     O60492   0.690   8.235   0.343  0.1266 -0.1648  0.8633
  439MOL0     C60493   0.695   7.893   0.448  0.4331 -0.3136 -0.5717
  439MOL0     C60494   0.748   7.814   0.539 -0.3249  0.1773 -0.3348
  439MOL0     N60495   1.335   7.901   0.896 -0.0064 -0.5076 -0.4091
  439MOL0     N60496   1.404   7.920   1.003 -0.2227  0.0103  0.2055
  439MOL0     C60497   1.129   7.624   2.081 -0.8025 -0.2558 -0.2094
  439MOL0     C60498   1.183   7.505   2.152  0.8443 -0.3292 -0.8004
  439MOL0     C60499   1.323   7.127   2.282 -0.0133 -0.8646  0.4498
  439MOL0     C60500   1.322   7.147   2.419  0.5567 -0.4800  0.7544
  439MOL0     C60501   1.395   7.070   2.510  0.2013  0.0340 -0.4949
  439MOL0     C60502   1.477   6.970   2.463  0.4378 -0.0944  0.0069
  439MOL0     O60503   1.555   6.916   2.567  0.5906 -0.6242 -0.0841
  439MOL0     C60504   1.619   6.794   2.529 -0.1730 -0.3377  0.7535
  439MOL0     C60505   1.688   6.724   2.644  0.4433 -0.4856 -0.3951
  439MOL0     C60506   1.614   6.690   2.770 -0.7770  1.0221  0.7529
  439MOL0     C60507   1.705   6.607   2.866 -0.4415 -0.2011  0.1891
  439MOL0     C60508   1.803   6.700   2.918  1.1387  0.8510 -0.8629
  439MOL0     C60509   1.886   6.788   2.964  0.4222 -0.7398  0.8623
  439MOL0     C60510   1.490   6.951   2.326  0.2016 -0.8778  0.7037
  439MOL0     C60511   1.406   7.019   2.236  1.3194 -0.2421  0.7225
  439MOL0     C60512   1.390   6.984   2.091 -0.7293  0.6878 -0.3344
  439MOL0     H60513   0.914   7.298   2.095 -1.4893  0.7214  0.6537
  439MOL0     H60514   0.860   7.487   1.933  0.3585  3.2477 -0.6575
  439MOL0     H60515   1.149   7.690   1.801 -0.7853 -0.4400 -0.0675
  439MOL0     H60516   1.130   7.833   1.896  0.7429  0.4110 -0.3250
  439MOL0     H60517   0.936   7.765   1.676  0.9075  0.3955 -2.6657
  439MOL0     H60518   0.962   7.914   1.764 -0.9483 -1.9648  1.9859
  439MOL0     H60519   1.051   7.916   1.520 -1.0229 -2.0930  0.4683
  439MOL0     H60520   1.178   7.941   1.654 -0.1646 -1.8494  3.9021
  439MOL0     H60521   1.241   7.694   1.614  0.2301  0.6708  2.2677
  439MOL0     H60522   1.121   7.695   1.483  2.7045 -0.5212 -1.8227
  439MOL0     H60523   1.369   7.875   1.514  1.8269 -0.0317 -1.1902
  439MOL0     H60524   1.232   7.899   1.390 -0.0069 -0.7717 -1.1000
  439MOL0     H60525   1.400   7.655   1.379  1.5365  0.3221 -0.1827
  439MOL0     H60526   1.287   7.720   1.266  1.2319 -1.2920  0.9118
  439MOL0     H60527   1.560   7.814   1.368 -1.1205 -0.3258  2.1213
  439MOL0     H60528   1.457   7.933   1.295  1.2897 -0.1496  2.5840
  439MOL0     H60529   1.627   7.819   1.141  1.3558  0.6907  1.7080
  439MOL0     H60530   1.553   7.663   1.165  0.9642 -0.8097 -1.2115
  439MOL0     H60531   1.391   7.587   0.959  1.0409  0.4158  2.1743
  439MOL0     H60532   1.340   7.677   0.680  1.6901  1.2563  1.0621
  439MOL0     H60533   1.206   7.795   0.678  1.4844 -0.1200 -0.5079
  439MOL0     H60534   1.119   7.568   0.660 -1.2807  1.3683  0.3723
  439MOL0     H60535   1.206   7.512   0.802  0.7740  0.5322  2.8175
  439MOL0     H60536   0.966   7.542   0.859  0.0112  0.1962  0.9037
  439MOL0     H60537   1.072   7.633   0.955  1.8172 -1.8498 -0.1829
  439MOL0     H60538   0.868   7.762   0.876 -1.0857 -1.2382 -1.1821
  439MOL0     H60539   1.009   7.845   0.835 -3.4582  1.1301  0.9922
  439MOL0     H60540   0.987   8.013   0.668  0.4544 -0.5839 -0.9425
  439MOL0     H60541   0.940   8.242   0.628  0.1614 -3.1370  0.8689
  439MOL0     H60542   0.833   8.292   0.527  1.2574  2.1056  0.0264
  439MOL0     H60543   0.984   8.221   0.457 -1.1329  1.8418 -1.2898
  439MOL0     H60544   0.411   8.260   0.293  0.5767 -2.2567  0.2966
  439MOL0     H60545   0.310   8.388   0.095  0.6273  0.7676 -1.5708
  439MOL0     H60546   0.461   8.363  -0.341 -2.1686  0.5421 -1.0062
  439MOL0     H60547   0.356   8.221  -0.304 -1.6368  0.1172 -0.9414
  439MOL0     H60548   0.162   8.342  -0.334  0.8082 -2.5487 -1.0053
  439MOL0     H60549   0.246   8.502  -0.306 -3.1643  0.1645 -0.4164
  439MOL0     H60550   0.338   8.336  -0.537  0.9168  1.2366 -1.2220
  439MOL0     H60551   0.359   8.503  -0.505 -0.0529 -1.0356 -2.7151
  439MOL0     H60552   0.099   8.527  -0.555 -0.8982  0.6516  0.0805
  439MOL0     H60553   0.101   8.357  -0.595 -2.1459  0.8806 -1.5961
  439MOL0     H60554   0.252   8.586  -0.721 -1.6451  1.8432 -2.7182
  439MOL0     H60555   0.285   8.426  -0.788 -1.2522 -0.4021 -1.9033
  439MOL0     H60556   0.112   8.545  -0.923  1.4200  3.2053  3.6490
  439MOL0     H60557   0.001   8.519  -0.787 -1.6790 -0.3729 -0.8435
  439MOL0     H60558   0.031   8.272  -0.806  1.5336 -2.8622 -1.0866
  439MOL0     H60559   0.141   8.303  -0.953 -1.5695 -0.7647 -1.5726
  439MOL0     H60560  -0.139   8.411  -0.944 -2.0241 -0.0199 -2.3179
  439MOL0     H60561  -0.108   8.240  -0.983  0.0299 -0.1441 -1.4144
  439MOL0     H60562   0.541   8.141  -0.182 -0.6209  1.0813 -0.9109
  439MOL0     H60563   0.653   8.055   0.020  0.3098  0.4052  1.5913
  439MOL0     H60564   0.622   7.860   0.375  0.7080  1.8657 -1.9041
  439MOL0     H60565   0.720   7.709   0.549 -1.6714  0.4157 -1.2898
  439MOL0     H60566   1.185   7.717   2.084  1.0166 -1.3107  0.2783
  439MOL0     H60567   1.275   7.501   2.209  0.1515 -0.5067  0.3355
  439MOL0     H60568   1.260   7.219   2.471 -1.5884 -0.7791 -1.2100
  439MOL0     H60569   1.388   7.077   2.618 -2.9478 -1.9026 -0.4638
  439MOL0     H60570   1.556   6.723   2.474 -0.8777  1.6662 -1.1485
  439MOL0     H60571   1.699   6.839   2.470 -0.4952  0.0734  0.6216
  439MOL0     H60572   1.773   6.786   2.676 -2.3591  2.1272  2.6188
  439MOL0     H60573   1.732   6.630   2.608 -1.3457 -1.5103 -0.0285
  439MOL0     H60574   1.585   6.781   2.824 -1.9522  0.5065  1.0247
  439MOL0     H60575   1.521   6.637   2.752 -1.1601  1.8015  0.3905
  439MOL0     H60576   1.754   6.528   2.808 -1.7580 -0.9016 -0.0109
  439MOL0     H60577   1.656   6.556   2.950  1.9392  0.4394  2.0493
  439MOL0     H60578   1.954   6.866   2.990  0.4680 -0.5013  0.0788
  439MOL0     H60579   1.567   6.899   2.270  0.1651 -0.5353  0.3270
  439MOL0     H60580   1.286   6.994   2.059  0.3352  1.3572 -4.0036
  439MOL0     H60581   1.456   7.044   2.028  0.7694 -0.2809  0.2416
  439MOL0     H60582   1.411   6.882   2.058  1.2036  1.5660 -2.0538
  440MOL0     O60583   7.252   2.895   2.619 -0.5277 -0.4833  0.0235
  440MOL0     C60584   7.180   2.900   2.723 -0.4729  0.0741 -0.1493
  440MOL0     O60585   7.228   2.942   2.845 -0.2464 -0.2021 -0.5647
  440MOL0     C60586   7.362   2.951   2.863 -0.2739 -0.1869  0.6924
  440MOL0     C60587   7.419   3.057   2.934  0.0043  1.0048  0.0780
  440MOL0     C60588   7.555   3.066   2.959 -0.3000  0.6234  0.6116
  440MOL0     C60589   7.653   2.974   2.898 -0.0203 -0.5714  1.1724
  440MOL0     O60590   7.789   2.987   2.913  0.1145  0.4539  0.1578
  440MOL0     C60591   7.835   3.077   3.008  0.1859 -0.5410 -0.0081
  440MOL0     C60592   7.982   3.034   3.034  0.0503  0.5277 -0.0810
  440MOL0     C60593   8.048   3.092   3.163  0.8048  0.4267  0.4788
  440MOL0     C60594   8.192   3.056   3.193  0.2824 -0.1666  0.0286
  440MOL0     C60595   8.208   2.902   3.220 -0.2690 -0.1378 -0.8000
  440MOL0     C60596   8.341   2.880   3.292  0.0489 -0.2692  0.0914
  440MOL0     C60597   8.393   2.736   3.284  0.8115 -0.1919 -0.0705
  440MOL0     C60598   8.318   2.639   3.378  0.5878 -0.2567  0.8759
  440MOL0     N60599   8.387   2.514   3.361  0.3509 -0.0990 -0.8878
  440MOL0     C60600   8.327   2.406   3.312 -0.6515  0.3310 -0.1172
  440MOL0     C60601   8.419   2.308   3.338  0.5313  0.6856 -1.1165
  440MOL0     C60602   8.395   2.172   3.300  0.9871  0.3103 -0.1477
  440MOL0     C60603   8.514   2.113   3.232  0.1823  0.1503 -0.1573
  440MOL0     C60604   8.524   2.157   3.087  0.1191 -0.6560 -0.0174
  440MOL0     C60605   8.661   2.140   3.033  0.8673 -0.3375 -0.1285
  440MOL0     O60606   8.679   1.996   3.038 -0.6884 -0.6588 -0.8062
  440MOL0     C60607   8.795   1.944   3.084 -0.7261  0.3030  0.1121
  440MOL0     C60608   8.800   1.827   3.164 -0.2407 -0.7573 -0.1536
  440MOL0     C60609   8.919   1.758   3.203 -1.3307 -0.1459 -0.4758
  440MOL0     C60610   8.903   1.638   3.293  0.4189 -0.6575  0.0999
  440MOL0     C60611   9.042   1.821   3.169  0.1835  0.1435 -0.0624
  440MOL0     C60612   9.175   1.773   3.215  0.3181  0.0603  0.8267
  440MOL0     O60613   9.283   1.865   3.216 -0.6646  0.4225 -0.5168
  440MOL0     C60614   9.404   1.834   3.282  0.7028  0.0753 -0.3617
  440MOL0     C60615   9.528   1.884   3.231 -0.1228 -0.5378 -0.1533
  440MOL0     C60616   9.648   1.856   3.295 -0.3693 -0.4625  0.7420
  440MOL0     C60617   9.657   1.772   3.416  0.2358  0.3309 -0.7937
  440MOL0     O60618   9.775   1.736   3.479  0.5274  0.3045 -0.1274
  440MOL0     C60619   9.888   1.813   3.446 -0.4457 -0.1037 -0.2781
  440MOL0     C60620  10.002   1.754   3.525 -0.0675 -0.0513  0.4694
  440MOL0     C60621   9.987   1.817   3.665 -0.4345 -0.8603 -0.2396
  440MOL0     C60622  10.087   1.754   3.759  0.3227  0.4500 -0.4557
  440MOL0     C60623  10.094   1.816   3.902  0.1733 -0.1218 -0.5240
  440MOL0     C60624  10.019   1.739   4.005 -0.0334  0.6976 -0.0282
  440MOL0     C60625  10.017   1.796   4.148 -0.2799  0.1736 -0.6371
  440MOL0     C60626  10.114   1.718   4.234 -0.3590  0.1291  0.3833
  440MOL0    Cl60627  10.288   1.719   4.174  0.5211  0.3074 -0.4052
  440MOL0     C60628   9.539   1.730   3.477 -0.3072 -0.6160  0.4345
  440MOL0     C60629   9.413   1.757   3.403 -0.1589  0.0460 -0.5849
  440MOL0     O60630   9.177   1.658   3.252  0.4463 -0.4354  0.0738
  440MOL0     C60631   9.042   1.930   3.088 -0.3122 -0.7074  0.2144
  440MOL0     C60632   8.922   1.992   3.042  0.1354  1.0183  0.4865
  440MOL0     N60633   8.523   2.351   3.417 -0.4362 -1.0102  0.0647
  440MOL0     N60634   8.505   2.478   3.429  0.2733 -0.7527  0.9731
  440MOL0     C60635   7.597   2.866   2.827 -0.7765  0.3294  0.2062
  440MOL0     C60636   7.454   2.854   2.828  0.7638  0.1441  0.4893
  440MOL0     C60637   7.039   2.856   2.719  0.8919  0.1226  0.2232
  440MOL0     C60638   6.954   2.885   2.819  0.0026  0.1371  0.2905
  440MOL0     C60639   6.814   2.863   2.821 -0.1359  0.1368 -0.4654
  440MOL0     C60640   6.754   2.798   2.711  0.0462 -0.2735 -0.6258
  440MOL0     O60641   6.614   2.790   2.711  0.8502  0.7751 -0.9557
  440MOL0     C60642   6.565   2.669   2.655 -0.4813  0.6851 -0.4245
  440MOL0     C60643   6.412   2.660   2.662  0.0619  0.8594  0.6849
  440MOL0     C60644   6.355   2.729   2.541  0.9561  0.8547  0.3384
  440MOL0     C60645   6.199   2.733   2.540 -0.3949  0.6196  0.2528
  440MOL0     C60646   6.147   2.604   2.491  0.1277  0.1933  0.9740
  440MOL0     C60647   6.098   2.508   2.441 -0.3693  0.4864  0.5910
  440MOL0     C60648   6.836   2.780   2.598 -0.5867  0.4718 -0.6506
  440MOL0     C60649   6.976   2.800   2.601  0.4185 -0.1699 -0.1566
  440MOL0     C60650   7.046   2.763   2.481 -0.0374  0.1026  0.7400
  440MOL0     H60651   7.361   3.139   2.975  1.0320  1.6578  0.2505
  440MOL0     H60652   7.586   3.145   3.026 -0.4707  0.6494  0.6603
  440MOL0     H60653   7.769   3.064   3.095 -0.3623  2.0858  0.0464
  440MOL0     H60654   7.832   3.183   2.981 -0.6472 -0.5416  0.0659
  440MOL0     H60655   7.990   2.925   3.034  2.4626  0.6043 -1.8071
  440MOL0     H60656   8.040   3.066   2.947  0.2176  0.2104 -0.0885
  440MOL0     H60657   8.053   3.200   3.146  1.5373  0.1756 -1.0904
  440MOL0     H60658   7.992   3.064   3.253  2.4006 -0.8457  1.1261
  440MOL0     H60659   8.247   3.081   3.101 -0.3120 -0.0785 -0.3064
  440MOL0     H60660   8.233   3.102   3.283  0.7101  0.8147 -0.6470
  440MOL0     H60661   8.205   2.852   3.123 -1.3025  0.1651 -0.9473
  440MOL0     H60662   8.127   2.861   3.281  0.9186 -3.6319 -1.3629
  440MOL0     H60663   8.423   2.946   3.261 -0.4103 -0.0016 -0.5568
  440MOL0     H60664   8.332   2.906   3.398 -1.2832 -1.0589  0.2013
  440MOL0     H60665   8.494   2.744   3.323  0.3401 -2.0728  1.6624
  440MOL0     H60666   8.384   2.708   3.178  0.9766  2.7329 -0.9672
  440MOL0     H60667   8.319   2.670   3.483  0.5784 -0.5294  0.9574
  440MOL0     H60668   8.217   2.624   3.341  2.0922 -2.0026 -3.0628
  440MOL0     H60669   8.227   2.414   3.269 -0.6779  1.7030  0.1457
  440MOL0     H60670   8.301   2.166   3.244  0.5178  1.1392  0.5231
  440MOL0     H60671   8.382   2.116   3.393  1.2521 -0.4700 -0.5738
  440MOL0     H60672   8.609   2.140   3.279  0.2436 -0.6754  0.2048
  440MOL0     H60673   8.507   2.004   3.229  1.0122  0.1063 -2.2034
  440MOL0     H60674   8.449   2.112   3.021  0.4577 -1.2164 -0.0253
  440MOL0     H60675   8.504   2.264   3.077 -1.7673 -1.0894 -1.5655
  440MOL0     H60676   8.650   2.184   2.933 -1.6461  1.4523  0.8108
  440MOL0     H60677   8.735   2.197   3.089  2.1924 -2.1287  0.0098
  440MOL0     H60678   8.705   1.791   3.202 -0.3126 -1.1650 -0.7199
  440MOL0     H60679   8.924   1.653   3.399  0.1303 -0.8339  0.1817
  440MOL0     H60680   8.967   1.559   3.253  0.7014 -0.9741  1.1387
  440MOL0     H60681   8.797   1.616   3.282  0.5832 -0.7072 -1.6223
  440MOL0     H60682   9.530   1.941   3.138 -1.2232 -1.0882 -0.5230
  440MOL0     H60683   9.742   1.895   3.257 -1.5688  1.7955 -0.1127
  440MOL0     H60684   9.920   1.806   3.342 -3.4201 -2.8732 -1.1910
  440MOL0     H60685   9.871   1.918   3.470 -1.3899 -0.1538 -0.7096
  440MOL0     H60686   9.995   1.645   3.528  1.5100 -0.1683  0.4298
  440MOL0     H60687  10.094   1.788   3.477 -0.7166  0.7524 -0.2362
  440MOL0     H60688   9.888   1.792   3.704 -1.9421  3.1016 -1.0935
  440MOL0     H60689  10.005   1.925   3.664 -3.1181 -0.3143  1.1701
  440MOL0     H60690  10.187   1.774   3.720  0.3831 -0.0677 -0.5767
  440MOL0     H60691  10.066   1.646   3.763  2.1241 -0.0214 -2.1463
  440MOL0     H60692  10.197   1.821   3.938 -1.3179  0.1172  4.4420
  440MOL0     H60693  10.064   1.921   3.893 -0.9922 -0.2270  1.4722
  440MOL0     H60694  10.051   1.634   4.002 -0.5576  0.4971  1.0917
  440MOL0     H60695   9.912   1.747   3.985 -0.7140 -1.4905  2.2657
  440MOL0     H60696   9.919   1.804   4.196  0.4530  2.5505  0.6524
  440MOL0     H60697  10.053   1.899   4.151 -2.8726  1.1670  2.9100
  440MOL0     H60698  10.083   1.613   4.237  2.1418 -0.6758  3.7922
  440MOL0     H60699  10.105   1.771   4.329 -0.0298  0.9887 -0.0536
  440MOL0     H60700   9.541   1.661   3.561  0.7414 -2.2842 -0.9047
  440MOL0     H60701   9.325   1.711   3.446  0.4124 -1.7066 -1.2381
  440MOL0     H60702   9.139   1.974   3.065 -1.4374  0.9289 -1.7940
  440MOL0     H60703   8.938   2.075   2.973  2.6352 -1.1973 -1.8718
  440MOL0     H60704   7.652   2.788   2.776 -1.2029  0.7099 -0.8536
  440MOL0     H60705   7.425   2.759   2.784  4.3257 -0.4024 -1.0508
  440MOL0     H60706   7.005   2.941   2.897  0.8787  0.8227 -0.7340
  440MOL0     H60707   6.758   2.885   2.911 -0.4749 -0.8253 -0.4255
  440MOL0     H60708   6.596   2.650   2.552  2.4228 -0.5446  0.5941
  440MOL0     H60709   6.608   2.587   2.713 -1.1147  1.4876  1.2721
  440MOL0     H60710   6.369   2.697   2.756  2.1919 -0.4716  2.2710
  440MOL0     H60711   6.392   2.553   2.651 -0.0400  1.0949 -1.9705
  440MOL0     H60712   6.385   2.834   2.532  0.6221  0.7776 -3.3780
  440MOL0     H60713   6.397   2.703   2.444 -0.5034  1.2688 -0.4322
  440MOL0     H60714   6.162   2.820   2.486  1.6397  3.5570  3.1444
  440MOL0     H60715   6.156   2.731   2.641 -1.7659  0.6749 -0.3124
  440MOL0     H60716   6.049   2.419   2.407 -0.4639  0.6469  0.2976
  440MOL0     H60717   6.786   2.774   2.502  0.5587  0.7581 -1.2890
  440MOL0     H60718   7.124   2.696   2.517 -0.0072 -0.9173 -1.1225
  440MOL0     H60719   6.978   2.713   2.412  2.1709 -3.5176  0.9616
  440MOL0     H60720   7.092   2.843   2.423 -0.2965 -1.4119 -1.6991
  441MOL0     O60721   6.635   7.816   6.189 -0.3456  0.6633 -0.0047
  441MOL0     C60722   6.699   7.787   6.087 -0.5810 -0.0635  0.4103
  441MOL0     O60723   6.834   7.791   6.075  0.7292 -0.1344 -0.8262
  441MOL0     C60724   6.906   7.847   6.180 -0.3228 -0.3521  0.1446
  441MOL0     C60725   6.925   7.780   6.299 -0.2778 -0.0223 -1.2335
  441MOL0     C60726   6.980   7.843   6.416  0.1365  0.1848 -0.3803
  441MOL0     C60727   7.020   7.974   6.410  1.0066  0.5351 -0.3809
  441MOL0     O60728   7.064   8.047   6.514  0.0669  0.0921  0.3025
  441MOL0     C60729   7.208   8.039   6.531 -0.7930  0.1866  0.0779
  441MOL0     C60730   7.263   7.913   6.608 -0.5034 -0.0989  0.1505
  441MOL0     C60731   7.231   7.897   6.755  0.3418  0.3000 -0.1036
  441MOL0     C60732   7.098   7.807   6.777  0.5928 -0.2901  0.4435
  441MOL0     C60733   7.070   7.782   6.934 -0.2229  0.3166 -0.6809
  441MOL0     C60734   7.002   7.902   7.002  0.3301  0.2118 -0.5743
  441MOL0     C60735   6.931   7.881   7.139  0.7331  0.0934  0.0934
  441MOL0     C60736   6.981   7.762   7.228 -0.3396  0.7750 -1.2332
  441MOL0     N60737   7.108   7.800   7.299 -0.0383 -0.3295  0.4626
  441MOL0     C60738   7.118   7.906   7.383 -0.2808  0.2565 -0.7122
  441MOL0     C60739   7.242   7.893   7.436  0.2181 -0.8426 -0.1206
  441MOL0     C60740   7.300   7.981   7.543 -0.2981  0.8259  0.2255
  441MOL0     C60741   7.418   8.064   7.496 -0.0749  0.5998 -0.1407
  441MOL0     C60742   7.364   8.194   7.450 -0.2414  0.2309 -0.0048
  441MOL0     C60743   7.482   8.298   7.442 -0.1891 -0.3930  0.2174
  441MOL0     O60744   7.432   8.414   7.376  0.4735  0.6434  0.2759
  441MOL0     C60745   7.433   8.542   7.413 -0.0638  0.5209  0.4860
  441MOL0     C60746   7.441   8.579   7.549 -0.0166  0.4820 -0.1590
  441MOL0     C60747   7.443   8.707   7.591  0.6397 -0.7280  0.9376
  441MOL0     C60748   7.433   8.736   7.739  0.2949 -0.0826 -0.5998
  441MOL0     C60749   7.435   8.808   7.490  0.4749  0.0257 -0.0186
  441MOL0     C60750   7.421   8.958   7.522 -0.5194  0.6788 -0.8259
  441MOL0     O60751   7.539   9.013   7.564  1.0498 -0.1356  0.5143
  441MOL0     C60752   7.545   9.148   7.575 -0.5158  0.0381  0.8002
  441MOL0     C60753   7.595   9.211   7.691  0.5212  0.4338  1.1549
  441MOL0     C60754   7.584   9.344   7.704  0.4432  0.1419  0.2253
  441MOL0     C60755   7.549   9.429   7.604 -0.2549  0.1376 -0.6503
  441MOL0     O60756   7.552   9.565   7.602 -0.2012  0.7609  0.2426
  441MOL0     C60757   7.538   9.643   7.714 -0.0235 -0.1114 -0.9627
  441MOL0     C60758   7.539   9.797   7.691 -0.7994  0.1854  0.5466
  441MOL0     C60759   7.667   9.848   7.630 -0.8850  0.0040  0.2088
  441MOL0     C60760   7.733   9.947   7.728 -0.3325  0.0702 -0.0365
  441MOL0     C60761   7.870   9.995   7.675  0.0085  0.0416 -0.5159
  441MOL0     C60762   7.986   9.954   7.774 -0.3381  0.6385  0.3557
  441MOL0     C60763   8.131   9.978   7.722  0.6354  0.0153  0.6038
  441MOL0     C60764   8.230   9.983   7.834  0.3768 -0.5533  0.1097
  441MOL0    Cl60765   8.378  10.078   7.774 -0.3070 -0.1450 -0.2110
  441MOL0     C60766   7.512   9.371   7.481 -0.4942  0.3294 -1.2535
  441MOL0     C60767   7.504   9.236   7.470 -0.7341  0.6538  0.0152
  441MOL0     O60768   7.313   9.010   7.512 -0.5198  0.4869 -0.3179
  441MOL0     C60769   7.428   8.776   7.357 -0.1384 -0.7144  0.5641
  441MOL0     C60770   7.428   8.641   7.317  0.7302  0.4236  0.5984
  441MOL0     N60771   7.295   7.779   7.383  0.1001  0.3206  0.1425
  441MOL0     N60772   7.221   7.721   7.292 -0.2593 -0.2295 -0.4935
  441MOL0     C60773   7.022   8.036   6.283 -0.9775  0.6452  0.3370
  441MOL0     C60774   6.955   7.978   6.174  0.0892  0.6051  0.2680
  441MOL0     C60775   6.617   7.751   5.970  0.5202 -0.0498  0.0989
  441MOL0     C60776   6.486   7.710   5.996  0.2925 -0.6924  0.7512
  441MOL0     C60777   6.404   7.655   5.898 -0.0188 -0.6604  0.3964
  441MOL0     C60778   6.451   7.660   5.771 -0.2469  0.2817 -0.8839
  441MOL0     O60779   6.371   7.639   5.666 -0.6616  0.1737 -0.1344
  441MOL0     C60780   6.290   7.530   5.654 -1.0109  0.1562 -0.4563
  441MOL0     C60781   6.320   7.460   5.534  1.0816  0.1972  0.2640
  441MOL0     C60782   6.468   7.444   5.494  0.3001 -0.9485  0.4877
  441MOL0     C60783   6.485   7.332   5.401  0.3245  0.0735  0.9707
  441MOL0     C60784   6.426   7.368   5.265 -0.8026 -0.0548  1.1848
  441MOL0     C60785   6.375   7.392   5.157  0.0845 -0.3662 -0.4109
  441MOL0     C60786   6.588   7.699   5.743 -0.2690  0.4295  0.2344
  441MOL0     C60787   6.671   7.745   5.839 -0.2027 -0.2458 -0.8666
  441MOL0     C60788   6.810   7.777   5.793  0.3625  0.2521  0.5027
  441MOL0     H60789   6.886   7.679   6.300  0.9356 -0.5053 -0.3708
  441MOL0     H60790   6.981   7.786   6.509 -4.6591  1.6640  0.8510
  441MOL0     H60791   7.227   8.121   6.600  0.0755  0.7462 -0.8084
  441MOL0     H60792   7.262   8.063   6.439  2.2846  2.2149  2.2325
  441MOL0     H60793   7.215   7.823   6.569  2.1278 -2.0638  1.1772
  441MOL0     H60794   7.371   7.907   6.592 -0.5887 -0.7358 -0.2085
  441MOL0     H60795   7.315   7.837   6.791  1.3289  1.4945 -0.3469
  441MOL0     H60796   7.240   7.994   6.805  2.8750 -1.2850  2.8602
  441MOL0     H60797   7.010   7.862   6.741  0.0230 -1.6911 -0.3947
  441MOL0     H60798   7.098   7.709   6.728 -0.5410 -2.3269  4.0507
  441MOL0     H60799   7.161   7.765   6.991 -1.8364 -0.6125  1.7877
  441MOL0     H60800   7.016   7.688   6.939  1.7196 -0.7616  1.1360
  441MOL0     H60801   7.080   7.975   7.024  2.4477 -2.5274  1.6648
  441MOL0     H60802   6.936   7.949   6.928 -3.3901 -2.7407  0.5420
  441MOL0     H60803   6.828   7.848   7.121  0.0851  0.5342  2.5418
  441MOL0     H60804   6.923   7.976   7.193  1.7296 -0.1762  0.7448
  441MOL0     H60805   6.907   7.752   7.308  1.7695  3.2988  1.2640
  441MOL0     H60806   6.989   7.678   7.159 -0.4538  2.3217 -3.2212
  441MOL0     H60807   7.043   7.985   7.391 -1.6953 -0.8806 -2.0113
  441MOL0     H60808   7.329   7.917   7.627 -0.3392  0.0654 -0.3232
  441MOL0     H60809   7.215   8.044   7.570  0.7695  1.9103  1.1423
  441MOL0     H60810   7.494   8.072   7.575  0.8813  1.1232 -1.0928
  441MOL0     H60811   7.468   8.009   7.417  0.1523 -1.6414  1.4681
  441MOL0     H60812   7.304   8.179   7.360  0.1420 -1.4510 -0.0101
  441MOL0     H60813   7.296   8.226   7.530  3.7069 -0.2771  3.9422
  441MOL0     H60814   7.524   8.315   7.542  0.4055  0.3484 -0.1514
  441MOL0     H60815   7.568   8.252   7.391  0.8264  1.0320  0.5867
  441MOL0     H60816   7.439   8.502   7.625 -3.4139  1.5219  0.9762
  441MOL0     H60817   7.475   8.835   7.758  1.6065 -0.3180 -2.0817
  441MOL0     H60818   7.483   8.659   7.797  0.0548  0.6277  0.5878
  441MOL0     H60819   7.326   8.731   7.761  0.3446  0.4400 -0.2248
  441MOL0     H60820   7.629   9.148   7.772 -0.2221 -0.5127  0.7550
  441MOL0     H60821   7.608   9.383   7.802 -0.0068  2.5963 -0.5730
  441MOL0     H60822   7.446   9.609   7.762  0.7753  1.4998  1.8949
  441MOL0     H60823   7.620   9.623   7.783 -0.2384 -2.9554 -1.3858
  441MOL0     H60824   7.458   9.835   7.628  1.7183  1.9358 -1.8500
  441MOL0     H60825   7.525   9.839   7.791  0.2636  1.0702  0.3476
  441MOL0     H60826   7.653   9.898   7.533 -2.4350 -4.8426 -2.4317
  441MOL0     H60827   7.745   9.773   7.615 -2.6604 -1.5471 -2.0310
  441MOL0     H60828   7.743   9.912   7.832  1.0890 -0.1342 -0.2262
  441MOL0     H60829   7.669  10.035   7.741 -0.3265 -0.0477  0.8941
  441MOL0     H60830   7.887   9.956   7.574  3.9409 -0.5675  0.2413
  441MOL0     H60831   7.861  10.104   7.668 -0.3034  0.1531  1.1972
  441MOL0     H60832   7.971   9.848   7.797  0.8083  0.2260 -0.6670
  441MOL0     H60833   7.967   9.997   7.873  1.6055 -1.3917  1.7136
  441MOL0     H60834   8.134  10.059   7.649  0.2584 -1.2345 -0.8721
  441MOL0     H60835   8.154   9.893   7.657 -2.6746 -0.8557  0.3749
  441MOL0     H60836   8.246   9.890   7.889  1.0704  0.0691  1.0024
  441MOL0     H60837   8.196  10.051   7.913  0.9952  1.0055 -0.9037
  441MOL0     H60838   7.489   9.441   7.401 -0.2152  3.5239  1.2565
  441MOL0     H60839   7.465   9.188   7.381  1.1245  2.7867 -2.0970
  441MOL0     H60840   7.419   8.855   7.283  0.3139 -1.9394 -0.8593
  441MOL0     H60841   7.419   8.612   7.212  0.7621 -0.0994  0.7400
  441MOL0     H60842   7.046   8.142   6.279 -0.8659  0.5766 -1.5981
  441MOL0     H60843   6.958   8.046   6.089 -0.2664  0.6046  0.2544
  441MOL0     H60844   6.446   7.708   6.097 -2.1000  3.2242  0.0960
  441MOL0     H60845   6.302   7.619   5.910 -1.0093  0.7425 -2.6030
  441MOL0     H60846   6.306   7.453   5.730 -0.7561 -0.5323 -1.1884
  441MOL0     H60847   6.186   7.563   5.661 -1.0638  0.4768 -2.1492
  441MOL0     H60848   6.260   7.508   5.455  0.2933 -1.7672 -0.3948
  441MOL0     H60849   6.275   7.360   5.539 -0.6952  0.8750 -0.9388
  441MOL0     H60850   6.512   7.538   5.460 -1.1568  0.8226  3.1138
  441MOL0     H60851   6.519   7.418   5.587 -0.0982 -2.1493  0.3842
  441MOL0     H60852   6.434   7.246   5.445 -2.6185  0.7937 -0.7928
  441MOL0     H60853   6.591   7.309   5.384 -0.1369 -0.9468 -0.6576
  441MOL0     H60854   6.328   7.417   5.064 -2.2172 -4.5708 -0.6565
  441MOL0     H60855   6.619   7.693   5.639  0.0288 -1.4881  0.3946
  441MOL0     H60856   6.806   7.806   5.688  1.2627  6.0094  1.7226
  441MOL0     H60857   6.849   7.871   5.834  0.4333  0.6150 -0.3674
  441MOL0     H60858   6.872   7.690   5.814  1.4338  1.0717  0.8739
  442MOL0     O60859  10.708   0.918   0.979 -0.9687 -0.4098 -0.7373
  442MOL0     C60860  10.715   0.800   1.014 -0.0795 -0.9315  0.2006
  442MOL0     O60861  10.623   0.733   1.102 -0.4670 -0.1530 -0.0198
  442MOL0     C60862  10.529   0.816   1.159  0.6853  0.4650 -0.6007
  442MOL0     C60863  10.559   0.929   1.237 -0.6140 -0.1841 -0.0773
  442MOL0     C60864  10.460   1.019   1.286 -0.6692  0.5765  1.0690
  442MOL0     C60865  10.327   0.988   1.270 -0.1381 -0.6393  0.5822
  442MOL0     O60866  10.239   1.070   1.323 -0.0592 -0.0349 -0.1676
  442MOL0     C60867  10.267   1.109   1.466  0.8509 -0.0089 -0.0383
  442MOL0     C60868  10.162   1.048   1.567 -0.5926 -0.0089  0.3204
  442MOL0     C60869  10.144   0.893   1.542  0.2375  0.6033  0.2369
  442MOL0     C60870  10.028   0.824   1.631 -1.0013  0.4438  1.0115
  442MOL0     C60871   9.941   0.712   1.554 -0.5466 -0.7882  0.0350
  442MOL0     C60872   9.868   0.757   1.427 -0.5437 -0.0636  0.7731
  442MOL0     C60873   9.727   0.711   1.404 -0.1870  0.3693 -0.5015
  442MOL0     C60874   9.640   0.808   1.325  0.3257 -0.6061  0.6950
  442MOL0     N60875   9.634   0.770   1.186 -0.1032  0.0153  0.4109
  442MOL0     C60876   9.699   0.816   1.080 -0.6777  0.0975 -0.5443
  442MOL0     C60877   9.666   0.740   0.971  0.4062 -1.0852 -0.4200
  442MOL0     C60878   9.705   0.762   0.825  0.8780  0.1924  0.2461
  442MOL0     C60879   9.661   0.896   0.787  0.4910 -0.6489  0.0909
  442MOL0     C60880   9.735   0.963   0.669 -0.7783  0.2921  0.6947
  442MOL0     C60881   9.709   1.113   0.634  1.0728 -0.7870 -0.4909
  442MOL0     O60882   9.806   1.152   0.537  0.6580  0.3228 -0.4758
  442MOL0     C60883   9.785   1.268   0.469 -0.7423  0.3110 -0.3754
  442MOL0     C60884   9.685   1.355   0.506  0.3241 -0.9562  0.5383
  442MOL0     C60885   9.664   1.478   0.449 -0.3660 -0.3447 -0.0012
  442MOL0     C60886   9.564   1.579   0.505 -0.0478 -0.7054  1.2944
  442MOL0     C60887   9.747   1.521   0.338 -0.7146 -0.2380 -1.3471
  442MOL0     C60888   9.714   1.637   0.261 -0.9462  0.2556 -0.7596
  442MOL0     O60889   9.831   1.699   0.203  0.0717  0.1054  0.8807
  442MOL0     C60890   9.817   1.810   0.128  0.1725 -0.9384 -1.2739
  442MOL0     C60891   9.886   1.831   0.011 -0.8021  0.1746 -0.3849
  442MOL0     C60892   9.862   1.932  -0.076  0.2998 -0.7389 -0.9005
  442MOL0     C60893   9.776   2.036  -0.040  0.6020  0.2876  0.4982
  442MOL0     O60894   9.766   2.144  -0.125 -0.2706  0.0671 -0.4919
  442MOL0     C60895   9.647   2.225  -0.108 -0.5763  0.7831 -1.0769
  442MOL0     C60896   9.650   2.351  -0.185 -0.3102 -0.0956 -0.3768
  442MOL0     C60897   9.773   2.437  -0.141 -0.5674  0.8018 -0.3443
  442MOL0     C60898   9.823   2.532  -0.245 -0.1600 -0.1740  0.0855
  442MOL0     C60899   9.938   2.617  -0.192  0.0585 -0.5809 -0.0693
  442MOL0     C60900  10.081   2.560  -0.230  0.5766  0.3711  0.1615
  442MOL0     C60901  10.194   2.647  -0.167  0.0840  0.5065  0.4480
  442MOL0     C60902  10.237   2.597  -0.034  0.2526 -0.1418  0.2586
  442MOL0    Cl60903  10.351   2.716   0.051  0.1852 -0.1941  0.1746
  442MOL0     C60904   9.721   2.038   0.094  0.1140  0.1657 -0.2826
  442MOL0     C60905   9.737   1.922   0.176  0.4220  0.7160 -0.3611
  442MOL0     O60906   9.598   1.674   0.244 -0.2703  0.7634 -0.4673
  442MOL0     C60907   9.845   1.424   0.296 -0.4600  0.5415 -0.4554
  442MOL0     C60908   9.863   1.298   0.362  0.1485 -0.0919  0.3438
  442MOL0     N60909   9.576   0.646   1.017 -0.0203 -0.5414 -0.0742
  442MOL0     N60910   9.558   0.667   1.138 -0.0231 -0.4414 -0.1656
  442MOL0     C60911  10.283   0.880   1.186 -0.4344 -0.9489  0.4938
  442MOL0     C60912  10.386   0.797   1.133 -0.0115 -0.8508 -0.0315
  442MOL0     C60913  10.824   0.716   0.958  0.1316  0.0677 -0.6380
  442MOL0     C60914  10.780   0.588   0.936 -0.1337  0.6431 -0.2355
  442MOL0     C60915  10.872   0.493   0.887 -0.1417  0.5233  0.0889
  442MOL0     C60916  11.002   0.523   0.859  1.1782 -0.2295 -0.0891
  442MOL0     O60917  11.082   0.414   0.814  0.6916 -0.4566 -0.1697
  442MOL0     C60918  11.199   0.453   0.745 -0.1445  0.6046 -0.6675
  442MOL0     C60919  11.188   0.510   0.612  0.0981  0.7130  0.3781
  442MOL0     C60920  11.126   0.402   0.526  1.1159 -0.1010  0.0082
  442MOL0     C60921  11.128   0.450   0.383 -0.0658 -0.2696 -0.2348
  442MOL0     C60922  11.023   0.391   0.294 -0.2049 -0.7292  0.4513
  442MOL0     C60923  10.946   0.345   0.208 -0.2427 -0.6313 -0.6161
  442MOL0     C60924  11.039   0.655   0.863  0.0437 -0.1946 -0.6277
  442MOL0     C60925  10.949   0.754   0.896  0.3713 -0.1803 -0.7057
  442MOL0     C60926  10.997   0.895   0.876  0.1017  1.0218 -1.3236
  442MOL0     H60927  10.662   0.955   1.262 -0.7041  2.0455 -1.6352
  442MOL0     H60928  10.493   1.105   1.342 -0.3645 -0.4102  2.4560
  442MOL0     H60929  10.251   1.217   1.477  1.5076  0.0386  0.5126
  442MOL0     H60930  10.369   1.080   1.496 -0.7453 -2.3294  3.9017
  442MOL0     H60931  10.202   1.074   1.665  0.2570 -0.0181 -0.0215
  442MOL0     H60932  10.071   1.107   1.549 -0.7279 -0.1244  0.6233
  442MOL0     H60933  10.127   0.873   1.436  0.2618 -1.2452  0.5551
  442MOL0     H60934  10.230   0.825   1.548 -0.4979 -0.3929 -0.2826
  442MOL0     H60935  10.073   0.779   1.720  3.2994 -0.3562 -1.2976
  442MOL0     H60936   9.957   0.900   1.664 -0.7156  1.1662  0.0188
  442MOL0     H60937   9.872   0.668   1.627 -1.4881  1.4519  0.5744
  442MOL0     H60938   9.997   0.620   1.530  0.4604  0.1974 -1.5615
  442MOL0     H60939   9.863   0.866   1.434 -2.3441  0.1413 -2.0092
  442MOL0     H60940   9.937   0.738   1.344 -1.1991  1.6814 -0.2226
  442MOL0     H60941   9.669   0.701   1.496 -0.3224  0.3012 -0.5917
  442MOL0     H60942   9.723   0.610   1.362 -3.0046 -0.3263  1.1837
  442MOL0     H60943   9.537   0.789   1.355 -0.5493  0.2119 -1.6430
  442MOL0     H60944   9.674   0.908   1.354 -0.6672 -0.7056  2.3034
  442MOL0     H60945   9.771   0.897   1.086  0.4899 -0.9792  0.6244
  442MOL0     H60946   9.663   0.692   0.752  2.1905  1.1466 -1.5040
  442MOL0     H60947   9.813   0.750   0.815  0.8304 -2.0983  1.8314
  442MOL0     H60948   9.557   0.898   0.754 -0.8075 -0.2683  3.7863
  442MOL0     H60949   9.678   0.964   0.870  2.8290 -0.6767 -0.2905
  442MOL0     H60950   9.842   0.952   0.689 -0.1572 -0.7663 -2.6181
  442MOL0     H60951   9.707   0.905   0.580 -0.6634 -3.7362  3.0562
  442MOL0     H60952   9.608   1.132   0.599  1.7662  2.9202 -0.8883
  442MOL0     H60953   9.733   1.162   0.729  3.2990  1.4887 -2.0903
  442MOL0     H60954   9.647   1.346   0.607  1.9583 -0.4080  1.2293
  442MOL0     H60955   9.615   1.674   0.524  1.4198 -1.3263  0.6476
  442MOL0     H60956   9.541   1.543   0.606  0.0270 -2.4251  0.7238
  442MOL0     H60957   9.480   1.598   0.438  2.2864 -0.6229 -1.8542
  442MOL0     H60958   9.938   1.739  -0.018 -1.1383 -0.3041  0.4970
  442MOL0     H60959   9.917   1.942  -0.169  2.7899  0.0474  0.5429
  442MOL0     H60960   9.564   2.159  -0.137  0.4656 -0.7452 -0.7119
  442MOL0     H60961   9.643   2.255  -0.003  0.5398 -1.4072 -0.3477
  442MOL0     H60962   9.662   2.307  -0.284 -1.0592 -1.2486  0.0142
  442MOL0     H60963   9.560   2.413  -0.187 -1.9547 -2.3583 -2.1191
  442MOL0     H60964   9.854   2.373  -0.104 -1.5767  0.0352  0.6213
  442MOL0     H60965   9.731   2.499  -0.061 -1.3278  0.6904 -0.6542
  442MOL0     H60966   9.745   2.604  -0.273  0.3060  0.4739  0.4142
  442MOL0     H60967   9.854   2.477  -0.335  1.2944 -0.0819  0.5030
  442MOL0     H60968   9.931   2.722  -0.224  1.3509 -0.1571  0.9818
  442MOL0     H60969   9.945   2.630  -0.084  2.4885 -0.5709 -0.1758
  442MOL0     H60970  10.084   2.577  -0.338 -0.2644  0.7536  0.1885
  442MOL0     H60971  10.090   2.453  -0.208  0.0091  0.7172  2.2693
  442MOL0     H60972  10.149   2.746  -0.153 -2.2229 -0.1483 -1.5855
  442MOL0     H60973  10.283   2.656  -0.231  0.0116 -0.3415  0.2170
  442MOL0     H60974  10.293   2.502  -0.040  1.1670  0.4086 -0.0959
  442MOL0     H60975  10.148   2.574   0.025 -0.4027 -1.7356 -1.2606
  442MOL0     H60976   9.677   2.126   0.139  2.8397  1.9934 -0.9749
  442MOL0     H60977   9.688   1.918   0.272  0.0749 -0.4169 -0.5767
  442MOL0     H60978   9.912   1.433   0.211 -0.9728  0.9359 -0.8293
  442MOL0     H60979   9.939   1.225   0.337  1.0649  1.5904 -2.1632
  442MOL0     H60980  10.176   0.875   1.168 -0.3994  3.5576 -2.5331
  442MOL0     H60981  10.350   0.715   1.070 -2.3946  0.1109 -0.0319
  442MOL0     H60982  10.683   0.560   0.975 -0.2558  1.0514 -0.2404
  442MOL0     H60983  10.832   0.392   0.882 -1.7679  1.1152  0.3090
  442MOL0     H60984  11.252   0.523   0.810 -1.2177 -0.2762  1.2666
  442MOL0     H60985  11.265   0.367   0.734  0.8684  1.4349 -1.2501
  442MOL0     H60986  11.284   0.545   0.574  1.4531 -2.4519  0.5527
  442MOL0     H60987  11.127   0.600   0.614  1.3365  1.5958 -0.1865
  442MOL0     H60988  11.175   0.305   0.525 -2.4669 -2.1191  0.7738
  442MOL0     H60989  11.022   0.383   0.555  0.6023 -0.0579 -1.6703
  442MOL0     H60990  11.225   0.426   0.338  0.5495 -0.4764  1.1620
  442MOL0     H60991  11.125   0.559   0.380  2.2818 -0.1637 -0.1911
  442MOL0     H60992  10.870   0.302   0.147 -1.1721 -2.2408  1.5674
  442MOL0     H60993  11.141   0.685   0.844  0.1504  1.4776  2.0510
  442MOL0     H60994  10.949   0.927   0.783 -0.7241 -1.7279 -1.9447
  442MOL0     H60995  10.971   0.957   0.962 -0.3108 -0.5616 -0.2576
  442MOL0     H60996  11.104   0.901   0.854  0.4465  0.2340  0.0417
  443MOL0     O60997   7.617  11.501   7.301  0.4396 -0.7941  0.6774
  443MOL0     C60998   7.498  11.480   7.320  0.0924  0.4680  0.2497
  443MOL0     O60999   7.398  11.583   7.315 -0.2412  0.1145  0.5790
  443MOL0     C61000   7.446  11.711   7.310 -0.9924  0.3309  0.5037
  443MOL0     C61001   7.507  11.763   7.190  0.1711 -0.5335  1.0548
  443MOL0     C61002   7.561  11.896   7.199 -0.6816  0.1744 -0.2333
  443MOL0     C61003   7.566  11.975   7.313  0.9548 -0.5077  1.4932
  443MOL0     O61004   7.629  12.104   7.317  1.1659  0.6922  0.1145
  443MOL0     C61005   7.647  12.176   7.436  0.2199  0.9119  0.0041
  443MOL0     C61006   7.519  12.255   7.464  0.3322  0.1504  0.5932
  443MOL0     C61007   7.547  12.375   7.552  0.4835  0.0306  0.1813
  443MOL0     C61008   7.414  12.445   7.594  0.1901 -0.5112 -0.5667
  443MOL0     C61009   7.438  12.546   7.720 -0.9067  0.1101 -0.3080
  443MOL0     C61010   7.486  12.476   7.848 -0.4517  0.5860 -0.7819
  443MOL0     C61011   7.492  12.583   7.961 -0.2824  0.7963  0.2347
  443MOL0     C61012   7.602  12.696   7.945  0.0491 -0.5348  0.7861
  443MOL0     N61013   7.663  12.722   8.082 -0.2100  0.6734 -0.0471
  443MOL0     C61014   7.611  12.798   8.181  0.1373 -0.1849  0.0610
  443MOL0     C61015   7.704  12.811   8.276 -0.3174 -0.3943  0.4484
  443MOL0     C61016   7.696  12.906   8.389  0.3193  0.0800 -1.0411
  443MOL0     C61017   7.659  13.047   8.325 -0.2434  0.1223 -0.7621
  443MOL0     C61018   7.544  13.107   8.410 -1.0792  0.7326  0.3450
  443MOL0     C61019   7.396  13.041   8.401 -0.2412 -0.1788  0.1458
  443MOL0     O61020   7.355  13.008   8.269  0.0773 -0.1878 -0.1825
  443MOL0     C61021   7.379  13.081   8.151  0.8977  1.1972 -0.2277
  443MOL0     C61022   7.362  13.006   8.033  0.0231  0.7478  0.7848
  443MOL0     C61023   7.358  13.073   7.906 -0.4627  0.3156  0.2168
  443MOL0     C61024   7.315  12.993   7.782  1.2075 -1.1563 -0.1696
  443MOL0     C61025   7.390  13.219   7.893  0.3288  0.3196 -0.4290
  443MOL0     C61026   7.395  13.300   7.761 -0.5742  0.0128 -0.3061
  443MOL0     O61027   7.395  13.441   7.772  0.3621 -0.3293 -0.6426
  443MOL0     C61028   7.457  13.513   7.674 -0.0840 -0.1381  0.3322
  443MOL0     C61029   7.416  13.643   7.652 -0.4900 -0.5794 -0.3729
  443MOL0     C61030   7.503  13.730   7.576  0.3680 -0.1018 -0.4137
  443MOL0     C61031   7.620  13.691   7.513  0.2614 -0.1908  0.3769
  443MOL0     O61032   7.696  13.786   7.446 -0.0576 -0.1801  0.8498
  443MOL0     C61033   7.830  13.735   7.401  0.3220 -0.6064  1.0953
  443MOL0     C61034   7.915  13.858   7.352 -0.0878 -0.1184 -0.6424
  443MOL0     C61035   8.064  13.838   7.329 -0.1165 -0.3752 -0.7669
  443MOL0     C61036   8.079  13.734   7.230  0.5438  0.3965 -0.3275
  443MOL0     C61037   8.123  13.591   7.278  0.5094  0.1138  0.1872
  443MOL0     C61038   8.266  13.589   7.320 -0.1514  0.8053  0.7625
  443MOL0     C61039   8.312  13.452   7.367  0.3647 -0.5706 -0.4568
  443MOL0     C61040   8.457  13.454   7.409 -0.2499  0.0020 -1.5289
  443MOL0    Cl61041   8.560  13.473   7.273 -0.2735 -0.0127 -0.3839
  443MOL0     C61042   7.660  13.557   7.540 -0.1033  0.8408 -0.2328
  443MOL0     C61043   7.580  13.468   7.609 -0.4476 -0.8079  0.0379
  443MOL0     O61044   7.388  13.245   7.648  0.2918  0.5427  0.0683
  443MOL0     C61045   7.398  13.286   8.015  0.3302 -0.3129 -0.0176
  443MOL0     C61046   7.394  13.218   8.137 -0.0386 -0.0399 -0.1922
  443MOL0     N61047   7.815  12.738   8.231 -0.4365 -0.0573 -0.9713
  443MOL0     N61048   7.798  12.694   8.109 -0.0931 -0.2139 -0.3970
  443MOL0     C61049   7.494  11.916   7.421 -0.8589 -0.3104  0.1584
  443MOL0     C61050   7.443  11.787   7.422  0.4453  0.5318  0.8136
  443MOL0     C61051   7.451  11.344   7.340 -0.3852 -0.1317 -0.1123
  443MOL0     C61052   7.311  11.324   7.354  0.2596  0.4861 -1.1126
  443MOL0     C61053   7.268  11.198   7.386 -0.1517  0.1062  0.0172
  443MOL0     C61054   7.345  11.091   7.418  0.3210 -0.8614 -0.5101
  443MOL0     O61055   7.283  10.972   7.470  0.4248 -0.1212 -0.8644
  443MOL0     C61056   7.353  10.846   7.466 -0.9857 -0.5574 -0.5615
  443MOL0     C61057   7.254  10.737   7.478 -0.1964  1.3926  0.3839
  443MOL0     C61058   7.155  10.723   7.359  0.3848  0.8307 -0.2587
  443MOL0     C61059   7.074  10.593   7.382  0.0895  0.3871 -1.2208
  443MOL0     C61060   6.972  10.589   7.285 -0.2990 -0.0925 -0.3653
  443MOL0     C61061   6.884  10.576   7.202  0.5213  0.8518 -0.1651
  443MOL0     C61062   7.483  11.107   7.398 -0.7019 -0.5208 -0.3002
  443MOL0     C61063   7.540  11.231   7.363  0.8851 -0.1946 -0.1299
  443MOL0     C61064   7.689  11.244   7.358  0.0313  0.1989 -0.1124
  443MOL0     H61065   7.504  11.698   7.103 -0.2447  1.6326 -0.6440
  443MOL0     H61066   7.605  11.939   7.109 -0.0509  1.0686  0.4888
  443MOL0     H61067   7.729  12.244   7.413  0.5405  0.0220 -1.7131
  443MOL0     H61068   7.676  12.116   7.522 -0.2106  1.1776  0.3362
  443MOL0     H61069   7.479  12.281   7.365  0.7837 -0.0258  0.3642
  443MOL0     H61070   7.447  12.195   7.520 -1.7990 -0.0930 -2.1513
  443MOL0     H61071   7.591  12.349   7.649 -0.9595  0.3669  0.9540
  443MOL0     H61072   7.615  12.441   7.497  3.3175 -0.9678  2.2405
  443MOL0     H61073   7.366  12.509   7.520 -0.5143  1.3273  1.3900
  443MOL0     H61074   7.339  12.372   7.625 -1.7262  1.6416  0.0627
  443MOL0     H61075   7.353  12.603   7.756  0.6862  0.4845  3.2732
  443MOL0     H61076   7.517  12.616   7.691  0.5060 -0.9435  0.8180
  443MOL0     H61077   7.418  12.398   7.885  0.3191  0.5175  0.5686
  443MOL0     H61078   7.586  12.438   7.826 -1.8542 -4.3309  0.1045
  443MOL0     H61079   7.494  12.533   8.058  1.4534  0.1262 -0.1190
  443MOL0     H61080   7.393  12.631   7.958 -0.7563 -0.0100  1.9697
  443MOL0     H61081   7.670  12.665   7.865 -2.5959 -0.8775 -1.4706
  443MOL0     H61082   7.550  12.787   7.914  0.7877 -0.0929  0.8180
  443MOL0     H61083   7.517  12.852   8.177 -0.7206 -1.6794 -2.0443
  443MOL0     H61084   7.792  12.922   8.440  1.1874  2.9475 -3.2825
  443MOL0     H61085   7.621  12.866   8.458  0.0841 -1.6837 -2.2546
  443MOL0     H61086   7.743  13.117   8.333 -1.1591  1.0791  1.0641
  443MOL0     H61087   7.631  13.062   8.220 -0.1687  1.3068 -0.6266
  443MOL0     H61088   7.568  13.114   8.516 -3.3211  0.1659  0.9391
  443MOL0     H61089   7.540  13.212   8.377 -1.7679  1.0910  1.4884
  443MOL0     H61090   7.391  12.950   8.462  4.2520 -0.3511  0.5928
  443MOL0     H61091   7.325  13.116   8.438 -2.7089 -2.0624 -0.5137
  443MOL0     H61092   7.332  12.902   8.028  1.1190  0.3920  1.3551
  443MOL0     H61093   7.292  12.891   7.815 -0.2344 -0.9323 -0.4181
  443MOL0     H61094   7.390  12.995   7.702  0.6236 -1.7574 -0.7427
  443MOL0     H61095   7.223  13.032   7.736  0.9391 -1.0752  0.4322
  443MOL0     H61096   7.327  13.685   7.698 -0.1822  2.0102 -1.9988
  443MOL0     H61097   7.482  13.836   7.585 -0.5638 -0.1680 -1.5197
  443MOL0     H61098   7.887  13.702   7.488  1.2097  1.9980  1.5875
  443MOL0     H61099   7.812  13.675   7.311  0.7986 -0.1150  0.6673
  443MOL0     H61100   7.871  13.905   7.263  1.6432 -0.7148 -1.8725
  443MOL0     H61101   7.908  13.925   7.438  1.9356 -0.4047 -0.2192
  443MOL0     H61102   8.111  13.822   7.426  1.2679 -0.0406 -1.3599
  443MOL0     H61103   8.101  13.932   7.286  3.4523 -0.4669  1.6444
  443MOL0     H61104   8.160  13.763   7.162  0.8769  1.6012  0.5581
  443MOL0     H61105   7.990  13.715   7.170  0.3868 -3.8026  0.9305
  443MOL0     H61106   8.068  13.547   7.362 -0.0473  1.1702  0.3939
  443MOL0     H61107   8.113  13.522   7.194  1.2006 -1.8543  1.6333
  443MOL0     H61108   8.280  13.650   7.409  2.1517 -1.4282  2.0587
  443MOL0     H61109   8.331  13.624   7.239 -2.4227 -0.2847 -1.6886
  443MOL0     H61110   8.301  13.371   7.294  1.5631 -1.5362  0.4098
  443MOL0     H61111   8.247  13.434   7.453  1.2997 -0.5270  0.2704
  443MOL0     H61112   8.492  13.366   7.464  2.8235  0.8678 -1.9145
  443MOL0     H61113   8.469  13.527   7.491 -0.3464  0.6712 -2.1003
  443MOL0     H61114   7.754  13.522   7.499 -1.4615 -0.3185 -2.5234
  443MOL0     H61115   7.624  13.370   7.626  1.2358  0.0003  0.5135
  443MOL0     H61116   7.410  13.394   8.018  0.2820 -0.3136  0.2649
  443MOL0     H61117   7.390  13.273   8.231 -3.7834  0.6458 -0.5995
  443MOL0     H61118   7.491  11.965   7.517  1.0709 -1.5111  0.8777
  443MOL0     H61119   7.398  11.745   7.512 -2.1964  0.2421 -0.5519
  443MOL0     H61120   7.239  11.401   7.329 -0.1777  0.1137 -1.0142
  443MOL0     H61121   7.161  11.191   7.400 -1.0699  4.8542 -2.3528
  443MOL0     H61122   7.398  10.847   7.366  0.5511  4.5810 -0.0739
  443MOL0     H61123   7.424  10.828   7.547 -1.0520  2.4600  0.2868
  443MOL0     H61124   7.202  10.750   7.573 -1.7024 -2.3399  0.2368
  443MOL0     H61125   7.322  10.653   7.493 -1.3654  0.2735 -0.4845
  443MOL0     H61126   7.092  10.813   7.355 -0.4383  0.6482  4.0480
  443MOL0     H61127   7.216  10.700   7.271 -0.3917  1.6394 -1.0373
  443MOL0     H61128   7.022  10.594   7.479 -0.2939  5.0495 -1.2626
  443MOL0     H61129   7.142  10.510   7.362 -1.5850 -1.0031 -1.4668
  443MOL0     H61130   6.808  10.581   7.126  0.3411  0.8756  0.0166
  443MOL0     H61131   7.550  11.027   7.431  0.0729  0.0783 -0.4018
  443MOL0     H61132   7.736  11.155   7.402 -0.2130  0.0375 -0.1739
  443MOL0     H61133   7.728  11.253   7.256  0.9465  2.3748  0.3719
  443MOL0     H61134   7.728  11.325   7.419 -0.7075 -0.1467  0.8525
  444MOL0     O61135   4.239   9.174   6.377  0.0143 -0.4335  0.7116
  444MOL0     C61136   4.297   9.091   6.447 -0.0302  0.3019  0.5232
  444MOL0     O61137   4.229   8.990   6.509 -0.5154 -0.5980 -0.0425
  444MOL0     C61138   4.105   8.969   6.466  0.3437  0.5908  0.4158
  444MOL0     C61139   4.078   8.860   6.378  0.7428  0.2314  0.5145
  444MOL0     C61140   3.948   8.826   6.351  0.5860 -0.5966  0.0989
  444MOL0     C61141   3.833   8.880   6.418  0.3879 -0.7383  0.2000
  444MOL0     O61142   3.705   8.861   6.374 -0.7296 -0.7916  0.6260
  444MOL0     C61143   3.603   8.895   6.470  0.0729  0.1319 -0.5099
  444MOL0     C61144   3.524   9.028   6.450  0.0672  0.2750 -0.3543
  444MOL0     C61145   3.369   9.014   6.456 -0.5480 -0.6024 -0.4651
  444MOL0     C61146   3.311   9.152   6.460  0.5426  0.6576  0.1262
  444MOL0     C61147   3.162   9.146   6.473 -0.0938 -0.4391 -1.0328
  444MOL0     C61148   3.099   9.287   6.488  0.1879  0.1815  0.4239
  444MOL0     C61149   2.943   9.276   6.514 -0.7808 -0.5659  0.9030
  444MOL0     C61150   2.919   9.215   6.654  0.3695  0.2096 -0.3850
  444MOL0     N61151   2.782   9.172   6.665 -0.0433  0.1430 -0.4981
  444MOL0     C61152   2.722   9.067   6.596  0.2362  0.3942  1.4520
  444MOL0     C61153   2.593   9.067   6.640  0.6199  0.2283  0.1088
  444MOL0     C61154   2.486   8.972   6.589  0.7829  0.3448  0.8300
  444MOL0     C61155   2.482   8.827   6.648  0.1196 -0.0152  0.0360
  444MOL0     C61156   2.387   8.728   6.594 -0.8959 -0.0185 -0.7636
  444MOL0     C61157   2.431   8.647   6.476  1.5342 -0.0124  0.9215
  444MOL0     O61158   2.326   8.561   6.432  0.2187 -0.6005  0.6173
  444MOL0     C61159   2.345   8.518   6.298  1.4112  0.9114 -0.6619
  444MOL0     C61160   2.250   8.536   6.194  0.6025  1.0581 -0.1161
  444MOL0     C61161   2.280   8.482   6.063 -0.1428 -0.1561  0.2381
  444MOL0     C61162   2.164   8.494   5.958  0.5250  0.0170 -0.9048
  444MOL0     C61163   2.406   8.408   6.037 -0.1006 -0.1175 -0.3022
  444MOL0     C61164   2.461   8.372   5.902 -0.4279  0.3589  0.4026
  444MOL0     O61165   2.394   8.421   5.795 -0.1787 -0.0257 -0.7870
  444MOL0     C61166   2.433   8.392   5.668  1.3097 -0.4971 -0.0269
  444MOL0     C61167   2.324   8.361   5.580 -0.6268 -0.4232 -0.5095
  444MOL0     C61168   2.352   8.333   5.441  0.6389 -0.0981  0.3836
  444MOL0     C61169   2.485   8.331   5.395 -0.6095  0.2020  0.2542
  444MOL0     O61170   2.519   8.320   5.261 -0.4830 -0.4270  0.4807
  444MOL0     C61171   2.419   8.368   5.165 -0.3314 -0.1013 -0.2649
  444MOL0     C61172   2.414   8.525   5.172 -0.0906  0.1391 -0.1351
  444MOL0     C61173   2.326   8.580   5.062 -0.7280  1.0723 -0.5278
  444MOL0     C61174   2.200   8.496   5.033  0.7018 -0.8488  0.4006
  444MOL0     C61175   2.108   8.575   4.931 -0.0276 -0.1685 -0.6372
  444MOL0     C61176   2.177   8.602   4.792  0.5709  0.4865 -0.0128
  444MOL0     C61177   2.087   8.693   4.714 -0.5431  1.0843 -0.5841
  444MOL0     C61178   2.150   8.718   4.582  0.0732 -0.5833 -0.5857
  444MOL0    Cl61179   2.173   8.561   4.482 -0.0707 -0.2950 -0.3684
  444MOL0     C61180   2.585   8.362   5.485  0.5521  0.1918  0.3944
  444MOL0     C61181   2.557   8.394   5.622 -0.0025 -0.5038  0.0277
  444MOL0     O61182   2.555   8.287   5.893  0.1339 -1.1071  0.0860
  444MOL0     C61183   2.486   8.376   6.150  0.2196 -0.9952  0.0057
  444MOL0     C61184   2.460   8.425   6.279 -1.3679 -0.3522  0.0117
  444MOL0     N61185   2.579   9.180   6.724 -1.1794 -0.1307 -0.2052
  444MOL0     N61186   2.691   9.241   6.738  0.1981  0.2307  0.9018
  444MOL0     C61187   3.864   8.966   6.521  0.2726  0.0686 -0.1112
  444MOL0     C61188   3.994   9.016   6.536 -0.5130  0.6141  0.3454
  444MOL0     C61189   4.443   9.113   6.466 -0.8213 -0.2275  0.6526
  444MOL0     C61190   4.501   9.062   6.586  0.5093 -0.0439  0.0095
  444MOL0     C61191   4.636   9.084   6.613 -1.3658 -0.7034  0.5249
  444MOL0     C61192   4.715   9.160   6.523  0.6280  0.5541 -1.4215
  444MOL0     O61193   4.843   9.183   6.556  0.6242  0.2779  0.0996
  444MOL0     C61194   4.885   9.153   6.692 -0.5201 -0.0261 -0.0163
  444MOL0     C61195   5.026   9.219   6.690  0.0989  0.7616  0.1381
  444MOL0     C61196   5.011   9.374   6.670  0.2176  0.7190  0.1076
  444MOL0     C61197   5.117   9.424   6.564 -0.2553  0.2016  0.7282
  444MOL0     C61198   5.251   9.444   6.633  0.7933  0.0058 -0.4192
  444MOL0     C61199   5.356   9.440   6.696 -0.1919 -0.9284  0.4646
  444MOL0     C61200   4.657   9.205   6.413 -1.1902  0.3144  0.3816
  444MOL0     C61201   4.524   9.191   6.376 -0.9038 -1.3079 -0.3759
  444MOL0     C61202   4.481   9.223   6.232  0.5151  0.4053 -0.3179
  444MOL0     H61203   4.159   8.814   6.323  2.4119  1.2333  2.0450
  444MOL0     H61204   3.916   8.752   6.278 -1.1435 -1.6066  1.7922
  444MOL0     H61205   3.613   8.871   6.577  1.8272 -1.4579 -0.9767
  444MOL0     H61206   3.527   8.817   6.461  1.0605 -1.0471  0.8464
  444MOL0     H61207   3.567   9.084   6.533  3.3134 -0.4730 -1.3653
  444MOL0     H61208   3.546   9.065   6.349  1.4041  0.8540  0.1338
  444MOL0     H61209   3.331   8.960   6.369  0.7685 -1.4163 -0.5538
  444MOL0     H61210   3.336   8.960   6.546  0.5790  1.5875  1.3660
  444MOL0     H61211   3.352   9.200   6.549  1.4168 -2.1249  1.3425
  444MOL0     H61212   3.329   9.214   6.371  0.5142  0.8904  0.2825
  444MOL0     H61213   3.138   9.094   6.566 -0.3774 -0.1808 -0.9602
  444MOL0     H61214   3.121   9.087   6.390 -1.0005 -0.9520 -0.2376
  444MOL0     H61215   3.144   9.338   6.574  2.3013  0.5728 -0.8379
  444MOL0     H61216   3.126   9.353   6.405  3.6139 -2.0071 -0.4258
  444MOL0     H61217   2.899   9.210   6.439  0.9018  1.0988 -1.7036
  444MOL0     H61218   2.898   9.374   6.492  0.7261 -0.4992 -2.4833
  444MOL0     H61219   2.975   9.123   6.673 -2.1349 -1.8413 -2.1404
  444MOL0     H61220   2.945   9.288   6.731  3.1476 -1.2893  0.2008
  444MOL0     H61221   2.772   9.000   6.527 -1.7312 -1.5292  1.7563
  444MOL0     H61222   2.491   8.977   6.480 -3.9353  2.9064  0.4637
  444MOL0     H61223   2.389   9.019   6.606 -0.1416  0.1388 -2.9114
  444MOL0     H61224   2.579   8.778   6.648 -0.0025 -0.3040  1.4033
  444MOL0     H61225   2.449   8.827   6.752  0.0063 -0.7748  0.0007
  444MOL0     H61226   2.379   8.662   6.681 -3.2295  2.2682  0.9096
  444MOL0     H61227   2.286   8.771   6.589 -0.3216  1.6402  0.8461
  444MOL0     H61228   2.462   8.714   6.396 -1.2519  1.1265  0.6733
  444MOL0     H61229   2.517   8.588   6.510  1.9368 -0.2361 -0.4408
  444MOL0     H61230   2.155   8.586   6.211 -0.8031 -1.1987 -0.9611
  444MOL0     H61231   2.193   8.448   5.863  1.8641 -0.3462 -0.3500
  444MOL0     H61232   2.124   8.595   5.966 -1.0279 -0.7413  3.2210
  444MOL0     H61233   2.079   8.436   5.994  0.8488  0.6707  1.0623
  444MOL0     H61234   2.220   8.350   5.608 -0.3144 -2.9114  0.0013
  444MOL0     H61235   2.266   8.300   5.384  1.3410 -1.4701  0.0847
  444MOL0     H61236   2.464   8.341   5.069 -0.3284  0.5915 -0.4604
  444MOL0     H61237   2.330   8.305   5.178  1.0107 -3.0533 -3.6334
  444MOL0     H61238   2.369   8.563   5.264 -1.5291  2.1214 -1.5676
  444MOL0     H61239   2.514   8.564   5.151 -0.7923  1.1549 -1.7847
  444MOL0     H61240   2.389   8.614   4.979  3.4256  2.2518  2.7636
  444MOL0     H61241   2.298   8.679   5.100  2.1014  1.8340 -0.2399
  444MOL0     H61242   2.141   8.488   5.125 -1.0590 -0.3118 -0.6123
  444MOL0     H61243   2.220   8.394   4.999 -0.3625 -1.5662  1.8460
  444MOL0     H61244   2.010   8.526   4.936  0.9867 -2.2525  0.1018
  444MOL0     H61245   2.090   8.666   4.990  1.2342 -0.8157  0.8135
  444MOL0     H61246   2.173   8.501   4.749  0.4391 -0.1324  1.3771
  444MOL0     H61247   2.282   8.630   4.789  0.2752  1.5450 -1.5590
  444MOL0     H61248   2.065   8.790   4.762  2.4309  0.2568  2.9273
  444MOL0     H61249   1.992   8.640   4.701  1.3283 -2.8635  0.4149
  444MOL0     H61250   2.245   8.771   4.598 -0.8072  1.0685 -0.6305
  444MOL0     H61251   2.095   8.786   4.518  1.6206  1.2045 -0.1242
  444MOL0     H61252   2.688   8.353   5.452  0.1798 -1.0796 -0.4963
  444MOL0     H61253   2.642   8.393   5.689  1.0778 -2.0222 -1.3025
  444MOL0     H61254   2.570   8.308   6.149  1.1189  0.0401  1.4444
  444MOL0     H61255   2.523   8.404   6.365 -1.6700  0.6481  0.4956
  444MOL0     H61256   3.786   9.010   6.582  0.5650  1.0679 -0.4325
  444MOL0     H61257   4.018   9.080   6.620 -3.9446  2.5570  0.0530
  444MOL0     H61258   4.455   9.001   6.663 -1.4168 -1.7488 -2.3366
  444MOL0     H61259   4.671   9.029   6.700 -0.1662  1.8049  1.7130
  444MOL0     H61260   4.830   9.204   6.772 -1.2945 -1.8187  0.6555
  444MOL0     H61261   4.897   9.045   6.706  0.7560  0.2596  1.3905
  444MOL0     H61262   5.078   9.173   6.605 -0.2188  0.2572  0.2139
  444MOL0     H61263   5.095   9.193   6.771  1.0381 -0.2321 -0.9349
  444MOL0     H61264   4.909   9.398   6.639 -1.0675 -1.5282  2.2765
  444MOL0     H61265   5.021   9.426   6.766  0.6946  1.1827 -0.1852
  444MOL0     H61266   5.089   9.517   6.513  1.9495  1.2055  1.2306
  444MOL0     H61267   5.130   9.352   6.482  2.6890  1.2490  0.1314
  444MOL0     H61268   5.447   9.402   6.739 -0.7694 -1.2761  1.4204
  444MOL0     H61269   4.724   9.263   6.351 -2.1482  0.9542 -0.0740
  444MOL0     H61270   4.414   9.310   6.230 -1.6968 -1.1465  1.1601
  444MOL0     H61271   4.570   9.243   6.172 -1.1411  2.7271 -2.1991
  444MOL0     H61272   4.427   9.137   6.191  3.0114 -1.0871 -0.6587
  445MOL0     O61273   8.050   3.881   3.319 -0.5570  0.3624  0.7369
  445MOL0     C61274   8.036   3.896   3.198  0.2233  0.5745  0.4140
  445MOL0     O61275   8.091   3.819   3.102  0.5035 -0.4173 -0.1529
  445MOL0     C61276   8.149   3.704   3.128 -0.2297  0.3050 -0.5248
  445MOL0     C61277   8.259   3.705   3.215 -0.3316 -0.0575 -0.2661
  445MOL0     C61278   8.336   3.590   3.248  0.6708  1.1081 -0.4253
  445MOL0     C61279   8.304   3.476   3.171 -0.1237  0.1668 -0.2587
  445MOL0     O61280   8.387   3.370   3.192  0.4437  0.0755 -0.0805
  445MOL0     C61281   8.505   3.359   3.111  0.2778  0.0356 -0.0995
  445MOL0     C61282   8.488   3.294   2.969  0.5330  0.1876 -0.4716
  445MOL0     C61283   8.577   3.358   2.864 -0.4184 -0.0808 -0.1538
  445MOL0     C61284   8.570   3.276   2.734 -0.6886  0.0450  0.9376
  445MOL0     C61285   8.648   3.346   2.621  0.5510 -0.3172  0.3596
  445MOL0     C61286   8.662   3.254   2.501  0.0779 -0.6381 -0.0262
  445MOL0     C61287   8.750   3.310   2.383  1.4362 -0.3638  0.3822
  445MOL0     C61288   8.780   3.188   2.288 -0.4240 -0.3398 -1.0013
  445MOL0     N61289   8.662   3.114   2.247 -0.3561  1.1383  0.4467
  445MOL0     C61290   8.549   3.160   2.182 -0.3336  0.7146 -0.3920
  445MOL0     C61291   8.481   3.043   2.167 -0.9999  0.4570  0.7920
  445MOL0     C61292   8.382   3.038   2.051 -0.2270 -0.6992 -0.0220
  445MOL0     C61293   8.229   3.055   2.086  0.6958  0.4844 -0.1362
  445MOL0     C61294   8.177   2.964   2.195  0.3124 -0.2830 -0.6461
  445MOL0     C61295   8.042   3.026   2.244  1.1396  0.1116  0.4129
  445MOL0     O61296   7.958   2.921   2.295 -0.2212  0.3697 -0.4253
  445MOL0     C61297   7.987   2.854   2.414  0.5390 -0.7383  0.3890
  445MOL0     C61298   7.913   2.748   2.442 -0.5809 -0.3522 -0.6117
  445MOL0     C61299   7.920   2.684   2.568 -0.1867  0.4715  0.3329
  445MOL0     C61300   7.846   2.556   2.559  0.1853  0.3444 -0.2514
  445MOL0     C61301   8.006   2.735   2.678  0.1215  0.2905 -0.6019
  445MOL0     C61302   8.035   2.664   2.799  0.3033 -0.1762 -0.9073
  445MOL0     O61303   7.941   2.572   2.838 -0.1785  0.0802  0.1888
  445MOL0     C61304   7.949   2.520   2.962  0.4354 -0.1015  0.2617
  445MOL0     C61305   7.906   2.583   3.077 -1.0342 -0.6170  0.8721
  445MOL0     C61306   7.905   2.526   3.200 -0.1229  0.1485 -0.7405
  445MOL0     C61307   7.958   2.393   3.213  0.8915 -0.2548 -0.9646
  445MOL0     O61308   7.961   2.325   3.332 -0.3019 -0.2199  0.5613
  445MOL0     C61309   7.912   2.374   3.461  0.8014 -0.3335  0.2687
  445MOL0     C61310   7.923   2.283   3.583 -0.0080 -0.8649 -0.0323
  445MOL0     C61311   8.067   2.236   3.616  0.2307 -1.1949  0.0705
  445MOL0     C61312   8.149   2.345   3.692 -0.5471 -0.2936 -0.2399
  445MOL0     C61313   8.258   2.277   3.762 -0.3400  0.1244  0.1830
  445MOL0     C61314   8.363   2.369   3.813 -0.5976  0.1142  1.0783
  445MOL0     C61315   8.481   2.284   3.858 -0.3614 -0.1531 -0.1018
  445MOL0     C61316   8.554   2.329   3.986 -0.0849 -0.1088 -0.2629
  445MOL0    Cl61317   8.448   2.338   4.130 -0.1221 -0.0095 -0.1158
  445MOL0     C61318   8.008   2.335   3.098  0.1488  0.4382 -0.5391
  445MOL0     C61319   8.006   2.400   2.976  0.4311  0.5244  0.3474
  445MOL0     O61320   8.139   2.687   2.871 -0.3226 -1.0350  0.1850
  445MOL0     C61321   8.077   2.854   2.638 -0.3297 -0.4035 -0.2268
  445MOL0     C61322   8.077   2.907   2.505 -0.6224  0.2358  0.1938
  445MOL0     N61323   8.543   2.934   2.229 -0.1352  0.0577 -0.2571
  445MOL0     N61324   8.647   2.989   2.287 -0.3643 -0.4360 -0.3678
  445MOL0     C61325   8.196   3.467   3.079 -0.1923  0.3233 -0.2989
  445MOL0     C61326   8.123   3.585   3.057  0.1376 -0.0480 -0.0228
  445MOL0     C61327   7.997   4.036   3.163  0.2704 -0.4285  0.1558
  445MOL0     C61328   8.041   4.087   3.042  0.1514  0.2373  0.5871
  445MOL0     C61329   8.029   4.225   3.012  0.8026  0.6346 -0.6090
  445MOL0     C61330   7.944   4.310   3.086 -0.1192 -0.3153 -0.2784
  445MOL0     O61331   7.929   4.438   3.044  0.1921  0.1294  0.1247
  445MOL0     C61332   7.845   4.522   3.130 -0.3419 -0.1883 -0.8617
  445MOL0     C61333   7.917   4.554   3.270 -0.0487  0.7216  0.2389
  445MOL0     C61334   7.805   4.622   3.342  0.0864 -0.2390 -0.9103
  445MOL0     C61335   7.848   4.686   3.476  0.0319  0.2663 -0.6881
  445MOL0     C61336   7.858   4.598   3.593  0.3785  0.6475 -0.0450
  445MOL0     C61337   7.854   4.518   3.679  0.0263 -0.8730  0.1207
  445MOL0     C61338   7.887   4.250   3.204 -1.3745 -0.3530 -0.2455
  445MOL0     C61339   7.924   4.125   3.255 -0.6672  0.8777 -0.3046
  445MOL0     C61340   7.854   4.075   3.380 -0.2685 -0.6031 -0.2404
  445MOL0     H61341   8.278   3.791   3.279 -1.9000 -0.8873  1.4192
  445MOL0     H61342   8.405   3.582   3.331  0.7456 -2.1764 -0.6994
  445MOL0     H61343   8.592   3.314   3.161 -0.2060  1.7101  2.3905
  445MOL0     H61344   8.521   3.465   3.091 -5.0375  0.7445 -2.1101
  445MOL0     H61345   8.487   3.185   2.962 -0.1325  0.1525  0.0003
  445MOL0     H61346   8.385   3.317   2.938  0.4624  0.3691 -0.1055
  445MOL0     H61347   8.529   3.453   2.842  0.8548  0.0661 -2.5761
  445MOL0     H61348   8.679   3.371   2.900 -0.8539 -0.0362  1.1346
  445MOL0     H61349   8.605   3.174   2.751 -3.6383 -1.1797  0.2404
  445MOL0     H61350   8.466   3.280   2.702 -0.8749  1.0084  1.6305
  445MOL0     H61351   8.744   3.369   2.668 -0.2613  0.7225  1.5562
  445MOL0     H61352   8.587   3.432   2.594 -1.6330 -2.0423 -0.5303
  445MOL0     H61353   8.707   3.159   2.532  3.1867 -0.1022 -2.4239
  445MOL0     H61354   8.563   3.244   2.455  0.2847 -1.7091 -0.2756
  445MOL0     H61355   8.843   3.351   2.423  3.4102  1.1343 -4.7928
  445MOL0     H61356   8.693   3.393   2.339  3.4670  0.5498 -0.6775
  445MOL0     H61357   8.820   3.239   2.200  3.2072  1.3483  1.3631
  445MOL0     H61358   8.854   3.119   2.331  0.0906  0.7287 -0.1095
  445MOL0     H61359   8.519   3.254   2.137  0.5457  1.1067 -0.1941
  445MOL0     H61360   8.395   2.936   2.013  1.6353 -0.5033 -0.0054
  445MOL0     H61361   8.411   3.097   1.964  2.7971 -2.1282 -0.0954
  445MOL0     H61362   8.202   3.160   2.096 -2.3702 -0.0145 -1.8678
  445MOL0     H61363   8.179   3.030   1.992  1.1329  2.1459 -0.8442
  445MOL0     H61364   8.161   2.866   2.149  1.3979 -0.6288 -0.3264
  445MOL0     H61365   8.250   2.956   2.276 -1.2778 -0.1481  0.8867
  445MOL0     H61366   8.066   3.103   2.318  0.8569  0.4212  0.1837
  445MOL0     H61367   7.989   3.070   2.159  3.6252  2.6339  0.0273
  445MOL0     H61368   7.840   2.726   2.365 -1.2812 -2.8298  0.6429
  445MOL0     H61369   7.812   2.521   2.657 -1.7672  0.4468 -0.8653
  445MOL0     H61370   7.913   2.479   2.518  2.4494  1.2426  1.5111
  445MOL0     H61371   7.750   2.567   2.508 -1.5561 -0.0664  2.6907
  445MOL0     H61372   7.871   2.684   3.058 -3.5657 -1.3373  1.2566
  445MOL0     H61373   7.853   2.584   3.276  3.4995  0.4222  1.8033
  445MOL0     H61374   7.970   2.465   3.480 -0.6557  0.8148 -0.5406
  445MOL0     H61375   7.810   2.411   3.448  2.5103  4.5197 -2.2626
  445MOL0     H61376   7.874   2.342   3.660 -2.0249  0.1879 -2.0103
  445MOL0     H61377   7.858   2.196   3.585  0.4147 -1.1994 -0.4426
  445MOL0     H61378   8.112   2.202   3.522 -1.6369 -0.6811 -1.0687
  445MOL0     H61379   8.061   2.144   3.675  2.8436 -1.4312  0.0554
  445MOL0     H61380   8.093   2.408   3.762  3.8160  3.2409  0.5116
  445MOL0     H61381   8.199   2.414   3.623  0.9300  5.3322  5.5487
  445MOL0     H61382   8.220   2.222   3.848  0.3388  0.2439  0.5720
  445MOL0     H61383   8.308   2.205   3.697  1.2079 -0.5856  2.0469
  445MOL0     H61384   8.330   2.439   3.890 -0.2429  0.5753  0.8197
  445MOL0     H61385   8.400   2.432   3.731 -0.3047  1.7832  2.4379
  445MOL0     H61386   8.553   2.283   3.776  0.0331  0.4572  0.2318
  445MOL0     H61387   8.449   2.182   3.884 -0.4394 -0.2642 -0.6233
  445MOL0     H61388   8.584   2.429   3.954 -0.9778 -0.3195 -1.9092
  445MOL0     H61389   8.639   2.272   4.024 -0.6514 -0.9466 -0.2224
  445MOL0     H61390   8.053   2.237   3.109 -0.2222  0.5591  2.9584
  445MOL0     H61391   8.039   2.348   2.887 -0.5685  0.1488  0.1737
  445MOL0     H61392   8.146   2.899   2.709 -4.3100  2.4385  2.2788
  445MOL0     H61393   8.136   2.994   2.478 -0.7960  0.1391 -0.4998
  445MOL0     H61394   8.172   3.364   3.052 -0.7326 -0.2682  2.1986
  445MOL0     H61395   8.036   3.574   2.993 -0.8070 -0.2524  1.2579
  445MOL0     H61396   8.109   4.027   2.982  0.9702 -1.9378  3.4967
  445MOL0     H61397   8.078   4.272   2.928 -0.6723  2.2625 -0.6129
  445MOL0     H61398   7.824   4.621   3.089  2.9966  2.1773  2.4112
  445MOL0     H61399   7.748   4.472   3.132  0.1344 -1.1726 -1.4635
  445MOL0     H61400   7.997   4.624   3.245  2.3096 -1.6041  0.9637
  445MOL0     H61401   7.957   4.471   3.328 -1.5251 -0.1795  0.0092
  445MOL0     H61402   7.757   4.698   3.280  2.4205 -0.5873 -3.3196
  445MOL0     H61403   7.735   4.540   3.361 -0.6364  0.6584  0.4387
  445MOL0     H61404   7.769   4.753   3.514 -0.4932 -0.0492 -1.2109
  445MOL0     H61405   7.937   4.748   3.463  0.4392 -0.7705 -3.1975
  445MOL0     H61406   7.849   4.442   3.754 -0.2033 -0.7371  0.2422
  445MOL0     H61407   7.823   4.312   3.266  0.1225  4.0922 -2.7031
  445MOL0     H61408   7.793   4.148   3.434  0.2793 -1.7752  2.0656
  445MOL0     H61409   7.799   3.981   3.368 -1.8710  0.2283  0.2385
  445MOL0     H61410   7.933   4.061   3.453  1.9036  1.4721 -2.0290
  446MOL0     O61411  11.031   7.111   5.847 -0.9968 -0.2342  0.2837
  446MOL0     C61412  11.076   7.051   5.944  0.3320  0.0939  0.3982
  446MOL0     O61413  11.001   6.984   6.040  0.2590 -0.1459 -0.1735
  446MOL0     C61414  10.865   6.951   6.036 -0.5443  0.1963  0.5403
  446MOL0     C61415  10.802   6.934   6.159  0.4400  1.1301 -0.5842
  446MOL0     C61416  10.669   6.890   6.161 -0.1605  0.3819 -0.8856
  446MOL0     C61417  10.603   6.859   6.042 -0.1036 -0.0891 -0.1586
  446MOL0     O61418  10.471   6.820   6.037 -0.0198  0.2074  1.0163
  446MOL0     C61419  10.380   6.874   6.133  0.0895 -0.4744  0.3951
  446MOL0     C61420  10.349   6.762   6.228  0.3416  1.0183 -0.3751
  446MOL0     C61421  10.265   6.658   6.166 -0.2656  0.6342  1.4794
  446MOL0     C61422  10.240   6.530   6.244 -0.9645 -0.2384 -0.4159
  446MOL0     C61423  10.145   6.432   6.168  0.2159 -0.0538  0.1215
  446MOL0     C61424   9.997   6.463   6.182 -0.1333  0.2696  0.1875
  446MOL0     C61425   9.906   6.359   6.106  0.3302  0.0232 -1.3359
  446MOL0     C61426   9.929   6.361   5.956 -0.1584  0.4690 -0.4519
  446MOL0     N61427   9.902   6.485   5.880  1.4008 -0.6478  0.4924
  446MOL0     C61428   9.778   6.526   5.831 -0.1796  0.8723  0.6310
  446MOL0     C61429   9.806   6.652   5.779  0.6155  1.1543  0.3379
  446MOL0     C61430   9.710   6.747   5.714 -0.0874  0.0785 -0.2620
  446MOL0     C61431   9.578   6.671   5.667 -0.9978  0.0732  0.0926
  446MOL0     C61432   9.494   6.754   5.570  0.3302  0.2269  0.2925
  446MOL0     C61433   9.456   6.899   5.611  0.7545  0.7619 -0.4049
  446MOL0     O61434   9.351   6.892   5.712  0.7143 -0.6712  0.2368
  446MOL0     C61435   9.294   7.005   5.760  0.5836  0.3611 -0.4372
  446MOL0     C61436   9.325   7.139   5.722  0.1350  0.9510  0.4589
  446MOL0     C61437   9.263   7.244   5.777 -1.1156 -0.0900 -0.8102
  446MOL0     C61438   9.292   7.379   5.715 -0.0436  0.6899  0.0546
  446MOL0     C61439   9.175   7.225   5.893 -1.0908 -0.1987  0.0068
  446MOL0     C61440   9.093   7.341   5.946  0.5192 -0.3759  0.3492
  446MOL0     O61441   8.973   7.308   5.986  0.3853  0.3844 -0.6150
  446MOL0     C61442   8.899   7.409   6.043  0.4596  0.2933 -0.4459
  446MOL0     C61443   8.917   7.435   6.183  1.0807  0.1562  0.2631
  446MOL0     C61444   8.848   7.548   6.236 -0.7547 -0.6399 -1.2496
  446MOL0     C61445   8.773   7.628   6.152  0.2321  0.1353 -0.6985
  446MOL0     O61446   8.683   7.728   6.187  0.1572 -0.9345  0.1411
  446MOL0     C61447   8.744   7.815   6.291 -0.2978 -0.3288 -0.4822
  446MOL0     C61448   8.666   7.944   6.310 -0.5415 -0.0009  0.2825
  446MOL0     C61449   8.535   7.936   6.389 -1.1416  0.3520  0.3304
  446MOL0     C61450   8.472   8.074   6.392  0.2303  0.1160  0.3638
  446MOL0     C61451   8.335   8.087   6.467  0.7310  0.5801 -0.2985
  446MOL0     C61452   8.309   8.229   6.498  0.3518  0.0685 -0.2994
  446MOL0     C61453   8.317   8.313   6.381 -0.6143  0.1863 -0.2759
  446MOL0     C61454   8.226   8.444   6.395 -0.3145 -0.8224  0.4042
  446MOL0    Cl61455   8.319   8.585   6.317  0.2833 -0.0522 -0.1036
  446MOL0     C61456   8.747   7.593   6.019 -0.2984  0.3108 -0.0414
  446MOL0     C61457   8.810   7.481   5.963  0.1803  0.0406  0.6560
  446MOL0     O61458   9.146   7.451   5.952  0.1336  0.3396  0.0709
  446MOL0     C61459   9.143   7.091   5.937 -0.5459 -1.0686 -0.6393
  446MOL0     C61460   9.202   6.987   5.869 -0.3593 -0.0665  0.4876
  446MOL0     N61461   9.947   6.670   5.772  1.2465  0.4927  0.5023
  446MOL0     N61462  10.000   6.577   5.841  0.1694 -1.0863 -0.9874
  446MOL0     C61463  10.670   6.873   5.923  0.0462  1.0000  0.4860
  446MOL0     C61464  10.798   6.925   5.916  0.7400  0.3410  0.1873
  446MOL0     C61465  11.221   7.046   5.956  0.5099 -0.2340  0.0769
  446MOL0     C61466  11.276   6.978   6.063 -0.4825  0.1799  0.6445
  446MOL0     C61467  11.414   6.966   6.080  0.1741  0.6733  0.1605
  446MOL0     C61468  11.506   7.015   5.990  0.3907 -0.9343 -0.3063
  446MOL0     O61469  11.645   6.992   5.997 -0.3353 -0.7856 -0.1030
  446MOL0     C61470  11.692   6.990   6.129  1.6626 -0.4518 -0.6812
  446MOL0     C61471  11.843   6.976   6.131  0.0598 -0.3125  0.0662
  446MOL0     C61472  11.888   6.957   6.279 -0.6157 -0.3803  0.2907
  446MOL0     C61473  12.033   6.913   6.281 -0.0166  0.3651 -0.4317
  446MOL0     C61474  12.054   6.779   6.228 -0.4364  0.0906 -0.0649
  446MOL0     C61475  12.070   6.658   6.193 -0.1281 -0.9324  0.2644
  446MOL0     C61476  11.450   7.091   5.883 -0.2675  0.5697 -0.6170
  446MOL0     C61477  11.312   7.115   5.865 -0.3892 -0.8398  0.4857
  446MOL0     C61478  11.280   7.179   5.730  0.2669  0.2701  0.3640
  446MOL0     H61479  10.852   6.956   6.253 -1.5632 -1.6313  1.2890
  446MOL0     H61480  10.612   6.865   6.250  1.1039 -4.5842 -1.1785
  446MOL0     H61481  10.286   6.906   6.087  0.6714  2.2461  0.9049
  446MOL0     H61482  10.422   6.969   6.168  0.5230  0.6479 -2.8385
  446MOL0     H61483  10.445   6.720   6.261  0.1933  0.1339 -1.0540
  446MOL0     H61484  10.292   6.804   6.311 -1.5888  0.1842 -1.2034
  446MOL0     H61485  10.178   6.698   6.114 -0.3436 -0.3123  0.8760
  446MOL0     H61486  10.323   6.616   6.084 -2.9210 -2.7676  1.1547
  446MOL0     H61487  10.336   6.481   6.259 -1.3300 -1.3822 -1.6173
  446MOL0     H61488  10.197   6.538   6.344 -0.1530 -2.8767  0.2332
  446MOL0     H61489  10.167   6.333   6.210  4.5483  0.6486 -0.0496
  446MOL0     H61490  10.170   6.420   6.062  0.1297 -2.0455  0.2744
  446MOL0     H61491   9.976   6.445   6.288  0.8979  1.2035  0.5686
  446MOL0     H61492   9.966   6.564   6.154 -0.1602  0.2855  0.2791
  446MOL0     H61493   9.802   6.384   6.127  0.0920  0.3145 -2.7388
  446MOL0     H61494   9.922   6.255   6.136 -0.6719 -1.0730 -4.2340
  446MOL0     H61495  10.033   6.334   5.936  0.0671  0.8416  0.1610
  446MOL0     H61496   9.864   6.287   5.909  0.2320  0.0424 -0.3320
  446MOL0     H61497   9.680   6.479   5.838 -0.9878  2.1111 -1.2797
  446MOL0     H61498   9.760   6.791   5.627  0.2126  1.3699  0.5234
  446MOL0     H61499   9.695   6.827   5.787  1.3388 -0.3276  0.5109
  446MOL0     H61500   9.593   6.574   5.618  0.6287 -1.4687  3.3369
  446MOL0     H61501   9.522   6.644   5.757 -1.2166  0.2130 -0.0021
  446MOL0     H61502   9.528   6.750   5.466 -0.3335 -1.9724  0.0872
  446MOL0     H61503   9.398   6.705   5.548 -0.2928  1.8240 -0.6851
  446MOL0     H61504   9.542   6.948   5.658  0.7172  1.7220 -1.2918
  446MOL0     H61505   9.420   6.960   5.527  1.7210 -1.8024 -2.8170
  446MOL0     H61506   9.411   7.151   5.657  1.0680  0.1664  1.4952
  446MOL0     H61507   9.201   7.438   5.703  1.1829  2.8319  0.7588
  446MOL0     H61508   9.323   7.362   5.612 -3.9845  3.1126 -1.7747
  446MOL0     H61509   9.372   7.432   5.767 -0.3229  3.0988 -1.8068
  446MOL0     H61510   8.978   7.372   6.247  0.1537  1.5260  2.6224
  446MOL0     H61511   8.840   7.565   6.343 -1.3796  3.3937 -1.7586
  446MOL0     H61512   8.755   7.760   6.385  2.9737  4.3355  2.2710
  446MOL0     H61513   8.845   7.836   6.253  0.4055 -2.4037  0.1073
  446MOL0     H61514   8.716   8.017   6.374  2.1543  0.7647 -2.4774
  446MOL0     H61515   8.635   7.993   6.217 -2.8433 -0.1288  0.9131
  446MOL0     H61516   8.539   7.897   6.491 -0.4379 -0.6303 -0.0530
  446MOL0     H61517   8.458   7.871   6.347 -2.1308  1.5198  0.2689
  446MOL0     H61518   8.448   8.099   6.288  0.2715 -2.8049 -0.4354
  446MOL0     H61519   8.538   8.143   6.445 -1.0732  0.9004  0.9990
  446MOL0     H61520   8.254   8.042   6.408 -0.1324 -1.4619  2.2640
  446MOL0     H61521   8.331   8.032   6.561 -0.4820  1.2875  0.0842
  446MOL0     H61522   8.380   8.273   6.569 -1.3067  1.1417  0.7475
  446MOL0     H61523   8.211   8.229   6.545  0.6032  2.5860  0.3614
  446MOL0     H61524   8.283   8.258   6.293 -1.0937  0.6734 -0.3940
  446MOL0     H61525   8.422   8.343   6.371 -0.1741 -1.1018  0.2864
  446MOL0     H61526   8.203   8.451   6.502  0.6429 -1.6472  0.6755
  446MOL0     H61527   8.134   8.434   6.335 -0.6094  0.7909  0.5499
  446MOL0     H61528   8.670   7.648   5.966  1.8059  2.9200 -0.6459
  446MOL0     H61529   8.807   7.444   5.861  2.5261 -2.4989  1.3523
  446MOL0     H61530   9.077   7.068   6.020 -1.0591  0.2473 -0.6597
  446MOL0     H61531   9.176   6.888   5.903 -1.8730  0.7676  1.9247
  446MOL0     H61532  10.620   6.839   5.832 -0.7654  0.2004  1.2031
  446MOL0     H61533  10.852   6.946   5.824 -2.3222  3.3588 -1.1373
  446MOL0     H61534  11.202   6.954   6.139 -0.3508  2.8866  1.7289
  446MOL0     H61535  11.443   6.906   6.166 -3.7739 -0.4346  0.8957
  446MOL0     H61536  11.670   7.087   6.175  0.6717 -1.2301  0.5639
  446MOL0     H61537  11.652   6.906   6.186  1.6929  0.2455  0.4010
  446MOL0     H61538  11.898   7.058   6.084 -1.1791 -0.0742 -1.0119
  446MOL0     H61539  11.871   6.891   6.068 -1.1122 -1.0304  0.4848
  446MOL0     H61540  11.873   7.049   6.335  1.0868  1.2493 -1.7754
  446MOL0     H61541  11.824   6.876   6.316  1.3217 -1.6800  0.9593
  446MOL0     H61542  12.070   6.919   6.384  1.5086 -2.4835 -0.7183
  446MOL0     H61543  12.093   6.986   6.227 -1.1815  0.6551 -1.3694
  446MOL0     H61544  12.080   6.559   6.153 -1.6243 -1.3417  0.8693
  446MOL0     H61545  11.518   7.131   5.809  0.7321  0.4242  0.1957
  446MOL0     H61546  11.176   7.197   5.701  0.9589  1.1883 -1.7510
  446MOL0     H61547  11.331   7.276   5.738 -0.3778  0.6047  0.5026
  446MOL0     H61548  11.329   7.125   5.648 -3.0494  0.3930 -1.9056
  447MOL0     O61549   9.969  10.854   9.294 -0.2634  0.1504 -0.9630
  447MOL0     C61550  10.056  10.833   9.377  0.2902  0.4515  0.6248
  447MOL0     O61551  10.165  10.912   9.393 -0.5479  0.4755  0.6147
  447MOL0     C61552  10.227  10.956   9.275  1.4068 -1.7628  0.8889
  447MOL0     C61553  10.294  10.877   9.186  0.5452  0.0787  0.1166
  447MOL0     C61554  10.344  10.925   9.067 -0.9499  0.2233  0.7830
  447MOL0     C61555  10.320  11.058   9.029 -0.2099  0.1164 -0.2851
  447MOL0     O61556  10.342  11.090   8.895  0.0187 -0.5888 -0.3330
  447MOL0     C61557  10.486  11.103   8.854  1.4310 -1.0772 -0.3902
  447MOL0     C61558  10.486  11.044   8.717  0.1683 -0.4595 -0.3164
  447MOL0     C61559  10.435  10.903   8.726  0.2232  0.5533  0.0772
  447MOL0     C61560  10.449  10.837   8.585 -0.1692  1.6295 -0.4949
  447MOL0     C61561  10.357  10.713   8.567  0.0686 -0.5601 -0.2365
  447MOL0     C61562  10.399  10.661   8.431 -0.7216 -0.0159 -0.1476
  447MOL0     C61563  10.314  10.538   8.394  0.7346 -0.1327 -0.1631
  447MOL0     C61564  10.348  10.498   8.255 -0.1498  0.0613  0.1291
  447MOL0     N61565  10.488  10.462   8.229 -0.4474  0.1982 -0.4215
  447MOL0     C61566  10.554  10.340   8.266  0.2552  0.4955 -0.5027
  447MOL0     C61567  10.682  10.355   8.220 -0.1395 -0.1804 -0.3900
  447MOL0     C61568  10.808  10.286   8.242 -0.0643  0.1636 -0.8460
  447MOL0     C61569  10.924  10.375   8.273 -0.3666 -1.0292  0.9054
  447MOL0     C61570  11.036  10.315   8.353 -0.7620 -0.2095  0.0512
  447MOL0     C61571  11.107  10.193   8.297  0.0164  0.4085  0.8922
  447MOL0     O61572  11.145  10.200   8.159 -0.5286  0.2430 -0.1243
  447MOL0     C61573  11.228  10.099   8.115 -1.0815 -0.4320 -0.0188
  447MOL0     C61574  11.217  10.056   7.983  0.1970  0.5175  0.8787
  447MOL0     C61575  11.313   9.971   7.908 -0.3685 -0.2131 -0.5639
  447MOL0     C61576  11.308   9.943   7.764  0.6188  0.2750  0.7469
  447MOL0     C61577  11.419   9.909   7.987 -0.5484 -0.1600  0.1773
  447MOL0     C61578  11.529   9.820   7.933 -0.2849 -0.5742 -1.1198
  447MOL0     O61579  11.644   9.818   8.011 -0.1300 -0.0306 -0.4246
  447MOL0     C61580  11.740   9.734   7.970  0.1953 -0.2345  0.7104
  447MOL0     C61581  11.712   9.596   7.989 -0.7877 -0.5407  0.2008
  447MOL0     C61582  11.811   9.506   7.944  0.1302  0.1428  0.3884
  447MOL0     C61583  11.918   9.555   7.869 -0.2998  0.0697  0.1520
  447MOL0     O61584  11.998   9.463   7.809 -0.2383  0.3679 -0.5380
  447MOL0     C61585  12.062   9.490   7.682  1.0809  0.0712  0.0591
  447MOL0     C61586  12.134   9.365   7.626 -1.1432  0.1778  0.0587
  447MOL0     C61587  12.230   9.398   7.510  0.9479  0.1652 -0.3700
  447MOL0     C61588  12.319   9.273   7.498  0.4180  1.1092 -0.2253
  447MOL0     C61589  12.405   9.267   7.373 -0.2226 -0.2252  0.4988
  447MOL0     C61590  12.539   9.338   7.392 -0.4914 -0.4942  0.2526
  447MOL0     C61591  12.625   9.322   7.261  0.5532  0.2037 -0.3471
  447MOL0     C61592  12.584   9.438   7.169  0.6450  1.1240 -0.8668
  447MOL0    Cl61593  12.676   9.427   7.025 -0.2783 -0.5435 -0.1142
  447MOL0     C61594  11.927   9.692   7.833 -0.0365  0.7043  0.2657
  447MOL0     C61595  11.847   9.784   7.891  0.7873 -0.5084 -0.2612
  447MOL0     O61596  11.516   9.766   7.820 -0.3678  0.2458 -0.3581
  447MOL0     C61597  11.440   9.964   8.117  0.0534 -0.1052  0.5845
  447MOL0     C61598  11.339  10.040   8.181 -0.3136  0.7128  0.4826
  447MOL0     N61599  10.679  10.473   8.148  0.5513 -0.5799  0.6078
  447MOL0     N61600  10.567  10.536   8.161 -0.4322 -0.2746 -0.7405
  447MOL0     C61601  10.258  11.148   9.122 -0.5912  0.5349  0.8558
  447MOL0     C61602  10.220  11.095   9.246 -0.1623  0.0142  0.5967
  447MOL0     C61603  10.022  10.731   9.473 -0.2590 -0.5241  0.1360
  447MOL0     C61604  10.058  10.750   9.611 -0.3294  0.0052  0.4223
  447MOL0     C61605  10.055  10.642   9.705  0.2564  0.6007  0.3708
  447MOL0     C61606   9.993  10.525   9.672  0.7261  0.6057 -0.0397
  447MOL0     O61607   9.983  10.412   9.744  0.2806  0.5335 -0.7142
  447MOL0     C61608   9.985  10.442   9.888 -0.0869 -0.0027  0.3050
  447MOL0     C61609   9.956  10.310   9.959  0.4730 -0.2411 -1.2122
  447MOL0     C61610  10.046  10.198   9.921 -0.5305  0.9566  0.0601
  447MOL0     C61611  10.200  10.232   9.941 -0.9569  0.4333 -0.1937
  447MOL0     C61612  10.233  10.285  10.073  0.6765 -0.3954  0.5730
  447MOL0     C61613  10.264  10.312  10.188  0.6749 -0.4004 -0.5968
  447MOL0     C61614   9.940  10.503   9.543 -0.1765  0.7273 -1.4633
  447MOL0     C61615   9.962  10.608   9.440  1.4642 -0.0018  0.1639
  447MOL0     C61616   9.933  10.553   9.301  0.3697 -0.1371  0.2272
  447MOL0     H61617  10.314  10.773   9.210 -1.6375 -0.9221 -1.8982
  447MOL0     H61618  10.403  10.858   9.005 -1.4313  0.3735  0.1476
  447MOL0     H61619  10.557  11.052   8.918  1.7741  1.8959  1.8143
  447MOL0     H61620  10.511  11.210   8.854  1.5417 -1.0760  1.4424
  447MOL0     H61621  10.430  11.104   8.644  0.9627  2.1090  1.0513
  447MOL0     H61622  10.592  11.047   8.692 -0.0451  0.3709 -1.1521
  447MOL0     H61623  10.496  10.849   8.800  3.1938  3.5604  0.0811
  447MOL0     H61624  10.329  10.899   8.752  0.9763  0.4453  3.6450
  447MOL0     H61625  10.416  10.917   8.517 -1.0856  1.1035 -0.6928
  447MOL0     H61626  10.554  10.817   8.561 -0.2003  0.4044  0.2953
  447MOL0     H61627  10.249  10.734   8.566  0.6021  2.7571  0.5041
  447MOL0     H61628  10.371  10.633   8.640 -0.7067  0.4127  1.0264
  447MOL0     H61629  10.380  10.743   8.361 -1.4868  0.9136  1.0902
  447MOL0     H61630  10.502  10.623   8.435 -0.9450 -0.7301 -1.0181
  447MOL0     H61631  10.210  10.571   8.402  0.8478  0.1558  0.1898
  447MOL0     H61632  10.328  10.454   8.463 -1.4255 -2.3286 -2.1880
  447MOL0     H61633  10.283  10.413   8.233 -0.5675 -1.1272  4.7980
  447MOL0     H61634  10.318  10.578   8.187 -0.9162  1.1365  1.6818
  447MOL0     H61635  10.508  10.275   8.339  2.7776 -0.3388  0.4591
  447MOL0     H61636  10.837  10.227   8.154 -1.1362 -2.0591  0.2238
  447MOL0     H61637  10.786  10.223   8.328 -0.1365 -1.1707 -1.8074
  447MOL0     H61638  10.975  10.408   8.182  1.6302  0.4244  2.4624
  447MOL0     H61639  10.891  10.470   8.316 -1.6685 -0.6198 -0.8931
  447MOL0     H61640  11.111  10.391   8.374  0.8230 -1.4328 -1.0261
  447MOL0     H61641  10.990  10.291   8.450 -0.0785 -0.7594  0.2444
  447MOL0     H61642  11.187  10.163   8.365 -1.4217 -0.2016  2.3703
  447MOL0     H61643  11.035  10.111   8.297  0.1071  0.3223  1.9730
  447MOL0     H61644  11.132  10.083   7.920  0.2927 -1.4904 -0.1848
  447MOL0     H61645  11.285   9.838   7.744 -0.4397  0.9235 -1.7706
  447MOL0     H61646  11.394   9.979   7.707  1.0901  0.9078  1.8195
  447MOL0     H61647  11.221   9.998   7.725 -0.3321 -0.3140  1.9604
  447MOL0     H61648  11.632   9.576   8.059 -0.7617  1.1023  0.7489
  447MOL0     H61649  11.807   9.399   7.958 -1.5350  0.1531  0.2603
  447MOL0     H61650  11.986   9.533   7.617 -1.2591 -0.9573  1.9534
  447MOL0     H61651  12.143   9.563   7.696  0.5202  1.3265 -2.5813
  447MOL0     H61652  12.196   9.329   7.708 -1.1696  0.4494  0.2015
  447MOL0     H61653  12.065   9.290   7.587  0.9395 -2.2280  0.8004
  447MOL0     H61654  12.297   9.482   7.532 -1.2384  1.8398  0.2462
  447MOL0     H61655  12.174   9.417   7.418  1.1572  0.3560 -0.4577
  447MOL0     H61656  12.258   9.184   7.484  3.7689 -1.7110  1.4679
  447MOL0     H61657  12.385   9.257   7.584  0.7338 -0.0941 -0.6657
  447MOL0     H61658  12.427   9.166   7.340  0.3105 -0.1084  0.4852
  447MOL0     H61659  12.356   9.296   7.280 -0.4047 -1.1632  0.2983
  447MOL0     H61660  12.588   9.277   7.468  0.3193  1.6183  1.5021
  447MOL0     H61661  12.544   9.443   7.424  1.0243  0.3122 -2.2984
  447MOL0     H61662  12.605   9.222   7.222  0.3732  0.7536 -1.7537
  447MOL0     H61663  12.732   9.332   7.279  0.9701 -2.7280 -0.8223
  447MOL0     H61664  12.602   9.538   7.210 -2.9083  2.0427 -1.2127
  447MOL0     H61665  12.475   9.433   7.157  0.5577  1.0812 -0.0721
  447MOL0     H61666  12.005   9.728   7.766 -0.8591  0.3782 -0.9075
  447MOL0     H61667  11.875   9.886   7.867  0.0251 -0.7877 -2.5983
  447MOL0     H61668  11.526   9.938   8.178  0.7575  1.0472  0.1103
  447MOL0     H61669  11.344  10.069   8.286  0.0635  0.5168  0.5225
  447MOL0     H61670  10.235  11.249   9.090  2.2577  1.2559  0.7961
  447MOL0     H61671  10.176  11.166   9.315 -1.0233  2.2637 -2.0923
  447MOL0     H61672  10.111  10.841   9.638 -2.6106  0.9667  1.9316
  447MOL0     H61673  10.111  10.657   9.796  4.0502 -0.8137 -1.5219
  447MOL0     H61674  10.083  10.471   9.926 -0.2477  0.6416  0.2447
  447MOL0     H61675   9.919  10.517   9.932  0.9755  0.9507  0.3294
  447MOL0     H61676   9.855  10.272   9.973  0.7144  0.0993  2.2137
  447MOL0     H61677   9.994  10.342  10.056  2.0553 -0.9040 -1.5839
  447MOL0     H61678  10.011  10.117   9.985 -0.6152  1.6890  0.9497
  447MOL0     H61679  10.019  10.164   9.820 -3.8771  2.0683  0.4579
  447MOL0     H61680  10.236  10.300   9.863  1.4038 -2.5368 -1.9164
  447MOL0     H61681  10.256  10.140   9.920  1.3534  1.6599  0.1931
  447MOL0     H61682  10.274  10.327  10.294 -1.7314 -0.6906 -0.2659
  447MOL0     H61683   9.917  10.404   9.505  3.6251 -1.3750  1.0760
  447MOL0     H61684  10.010  10.591   9.233 -1.7148 -0.8900 -2.7419
  447MOL0     H61685   9.938  10.443   9.307 -2.6548 -0.3939 -0.3644
  447MOL0     H61686   9.830  10.579   9.278  0.0020 -1.8892 -0.2948
  448MOL0     O61687   9.721   9.056   2.855 -1.0307 -0.3426 -0.2735
  448MOL0     C61688   9.679   8.941   2.849  0.2731 -0.0613  0.0799
  448MOL0     O61689   9.745   8.837   2.788 -0.3039 -0.8036  0.6892
  448MOL0     C61690   9.863   8.867   2.723  0.8459  0.5246 -0.7450
  448MOL0     C61691   9.873   8.879   2.583 -0.0498 -1.0241 -0.4800
  448MOL0     C61692  10.001   8.901   2.524 -0.0653  0.3699 -0.3947
  448MOL0     C61693  10.114   8.906   2.608 -0.1565 -0.7303 -0.2026
  448MOL0     O61694  10.239   8.928   2.547 -0.7965 -0.3227  0.0519
  448MOL0     C61695  10.348   8.847   2.602 -1.6112 -0.8532 -0.8802
  448MOL0     C61696  10.464   8.861   2.501 -0.2499  1.1283 -0.4329
  448MOL0     C61697  10.439   8.787   2.375  0.2375  0.9930  0.0441
  448MOL0     C61698  10.572   8.788   2.285 -0.4500  0.0607  0.1573
  448MOL0     C61699  10.548   8.691   2.164  0.0360 -0.7594 -0.5119
  448MOL0     C61700  10.690   8.693   2.108  0.3744  0.2922  0.4388
  448MOL0     C61701  10.717   8.604   1.983  0.3676  0.1394  1.0112
  448MOL0     C61702  10.698   8.457   1.997 -1.2445  2.2223 -0.3836
  448MOL0     N61703  10.678   8.401   1.859  0.8009  0.3738  0.6438
  448MOL0     C61704  10.564   8.383   1.795  0.5161  0.1879 -0.4217
  448MOL0     C61705  10.593   8.371   1.660 -0.5135 -0.7505 -0.5571
  448MOL0     C61706  10.491   8.353   1.549  0.2631 -0.5544  1.4887
  448MOL0     C61707  10.424   8.487   1.530  0.3473  0.6028 -0.1111
  448MOL0     C61708  10.512   8.558   1.430  0.0742 -1.4367  0.7037
  448MOL0     C61709  10.430   8.677   1.363  0.2587  0.5878 -0.3148
  448MOL0     O61710  10.494   8.704   1.233  0.1822  0.3759 -0.8219
  448MOL0     C61711  10.438   8.812   1.164  0.0425 -0.1788  0.0052
  448MOL0     C61712  10.494   8.830   1.046 -0.4257 -0.0910 -0.2987
  448MOL0     C61713  10.467   8.944   0.966 -0.0370 -0.5133 -0.5723
  448MOL0     C61714  10.551   8.966   0.850  0.1011 -1.1856 -0.1453
  448MOL0     C61715  10.362   9.036   1.005 -0.3403 -0.2614  0.5595
  448MOL0     C61716  10.317   9.158   0.930 -0.6132 -0.2327 -0.1186
  448MOL0     O61717  10.203   9.208   0.962  0.0869  0.2265 -0.6237
  448MOL0     C61718  10.178   9.329   1.028  0.0300  0.7971 -0.2957
  448MOL0     C61719  10.279   9.403   1.092  0.4950  1.1668  0.0573
  448MOL0     C61720  10.252   9.529   1.155 -0.9090  0.3910  0.0734
  448MOL0     C61721  10.140   9.588   1.134  0.9811 -0.5084 -0.1836
  448MOL0     O61722  10.130   9.717   1.182 -0.3363 -0.4902  0.2538
  448MOL0     C61723  10.039   9.807   1.116  0.8991  0.5979  0.8142
  448MOL0     C61724  10.013   9.918   1.219  0.7600 -0.4799  0.6706
  448MOL0     C61725   9.912  10.022   1.161  0.2133  0.2947  0.2496
  448MOL0     C61726   9.764   9.996   1.199  0.6817 -0.2973 -0.1276
  448MOL0     C61727   9.716  10.087   1.308  0.0591 -0.8157 -1.1630
  448MOL0     C61728   9.786  10.079   1.440  0.4046 -0.4279 -0.0013
  448MOL0     C61729   9.687  10.124   1.556 -0.4451 -0.4545  0.3907
  448MOL0     C61730   9.770  10.156   1.676  0.4215 -0.3271  0.6784
  448MOL0    Cl61731   9.888  10.295   1.650  0.2595  0.4109  0.1478
  448MOL0     C61732  10.028   9.512   1.080 -0.5012 -0.5465  1.0275
  448MOL0     C61733  10.049   9.381   1.025 -0.9927  0.3484  0.1528
  448MOL0     O61734  10.387   9.206   0.843 -0.1989 -0.6753 -0.0423
  448MOL0     C61735  10.293   9.001   1.123  0.3856 -0.7227 -0.0118
  448MOL0     C61736  10.335   8.895   1.201 -0.6702 -0.3899 -0.2500
  448MOL0     N61737  10.726   8.394   1.646  0.0410  0.3491  0.2431
  448MOL0     N61738  10.771   8.408   1.765  0.4099  0.0581 -0.0669
  448MOL0     C61739  10.104   8.890   2.746 -0.1233 -0.5297 -0.2220
  448MOL0     C61740   9.979   8.869   2.797  0.9652 -0.3476  1.0277
  448MOL0     C61741   9.547   8.905   2.909 -0.0935 -0.4294  0.8612
  448MOL0     C61742   9.484   8.793   2.856  1.1845  0.4722 -0.1508
  448MOL0     C61743   9.349   8.767   2.891  0.9550  1.0543 -0.5847
  448MOL0     C61744   9.278   8.843   2.981 -0.2856 -0.4982  0.0815
  448MOL0     O61745   9.151   8.817   3.004 -0.7974  0.3075  0.2235
  448MOL0     C61746   9.123   8.697   3.078  0.1976  0.0511 -0.1037
  448MOL0     C61747   9.046   8.746   3.208 -0.3389  0.1218 -0.0671
  448MOL0     C61748   8.936   8.847   3.180 -0.0780 -0.0509 -0.0923
  448MOL0     C61749   8.979   9.002   3.202  0.5279 -0.1429 -0.3892
  448MOL0     C61750   8.849   9.086   3.194 -0.4845  0.2752  0.2227
  448MOL0     C61751   8.741   9.126   3.176 -0.3507  0.7914  0.1321
  448MOL0     C61752   9.342   8.961   3.027 -0.7400  0.1279 -0.0130
  448MOL0     C61753   9.475   8.987   3.001  0.3837 -0.4281  0.0285
  448MOL0     C61754   9.527   9.110   3.063  0.1218 -0.2644 -0.1265
  448MOL0     H61755   9.785   8.882   2.519  0.3817 -0.3542 -1.0534
  448MOL0     H61756  10.001   8.931   2.419  0.9253  3.1171  0.3095
  448MOL0     H61757  10.345   8.739   2.621  1.9265 -1.1231 -1.1643
  448MOL0     H61758  10.372   8.888   2.701 -3.2289 -1.7842 -0.0524
  448MOL0     H61759  10.486   8.966   2.479  0.0699  1.2513  0.4461
  448MOL0     H61760  10.551   8.808   2.541 -1.0891  0.1661  0.1589
  448MOL0     H61761  10.408   8.688   2.408  2.7238  0.1629  0.1429
  448MOL0     H61762  10.348   8.821   2.325  0.0283  0.6713  0.2087
  448MOL0     H61763  10.592   8.888   2.246  0.9517 -0.5991 -0.9029
  448MOL0     H61764  10.653   8.756   2.351 -1.0935  1.1735  1.5411
  448MOL0     H61765  10.464   8.725   2.103  0.2457 -0.1773 -0.4849
  448MOL0     H61766  10.526   8.591   2.201  0.4691 -0.5678  0.2879
  448MOL0     H61767  10.712   8.797   2.080 -1.4786  0.3724 -0.9395
  448MOL0     H61768  10.763   8.669   2.185  1.5894  0.0105 -0.7472
  448MOL0     H61769  10.822   8.621   1.959  0.3867 -3.2928 -2.2212
  448MOL0     H61770  10.658   8.633   1.895  2.7850 -0.3197 -0.8751
  448MOL0     H61771  10.790   8.418   2.043 -1.7032 -0.7498 -1.7594
  448MOL0     H61772  10.614   8.434   2.063 -1.6193  0.4297 -1.4131
  448MOL0     H61773  10.466   8.362   1.837  0.5780  2.5034  1.0428
  448MOL0     H61774  10.434   8.268   1.587  1.2556 -0.8487  2.3937
  448MOL0     H61775  10.555   8.321   1.467  2.0639  2.8144  1.3935
  448MOL0     H61776  10.321   8.478   1.493  0.4613 -0.0554 -0.2914
  448MOL0     H61777  10.411   8.538   1.626  0.7660 -1.3139  1.0353
  448MOL0     H61778  10.593   8.610   1.482  0.5169 -2.1202  0.7077
  448MOL0     H61779  10.555   8.493   1.353  0.4629  1.3970 -1.6801
  448MOL0     H61780  10.329   8.641   1.342  0.7753 -0.7574 -0.5787
  448MOL0     H61781  10.434   8.771   1.419  2.1622  1.0215 -1.1025
  448MOL0     H61782  10.564   8.757   1.007 -0.3208  1.1903 -2.7630
  448MOL0     H61783  10.490   9.019   0.776 -1.1861 -1.4304  0.7238
  448MOL0     H61784  10.597   8.873   0.815  2.6397 -0.1319  0.1696
  448MOL0     H61785  10.640   9.025   0.875 -1.2983  1.5464 -1.0907
  448MOL0     H61786  10.379   9.360   1.096 -0.1281 -0.4122 -0.5377
  448MOL0     H61787  10.320   9.588   1.216 -2.5817  2.2688  0.2183
  448MOL0     H61788  10.076   9.841   1.019  0.9309  1.0559  0.9841
  448MOL0     H61789   9.942   9.760   1.099  0.5074  0.7939  2.3666
  448MOL0     H61790   9.977   9.880   1.314  0.0649  0.1616  0.6727
  448MOL0     H61791  10.107   9.969   1.245  0.1376  0.5537  0.9378
  448MOL0     H61792   9.924  10.020   1.052 -0.1405  0.0334  0.2105
  448MOL0     H61793   9.942  10.119   1.202 -0.0442 -0.0638  1.3066
  448MOL0     H61794   9.764   9.897   1.244 -0.9303 -0.4906 -0.4792
  448MOL0     H61795   9.691  10.004   1.117 -0.7149 -2.3568  0.8388
  448MOL0     H61796   9.714  10.190   1.272 -0.8115  1.5690  4.6268
  448MOL0     H61797   9.618  10.046   1.333 -0.3028  1.4554  1.6524
  448MOL0     H61798   9.882  10.132   1.441  0.4380 -0.4697 -0.6784
  448MOL0     H61799   9.815   9.976   1.460  2.3964  0.1083  0.1426
  448MOL0     H61800   9.616  10.044   1.579  0.7042 -1.7019 -0.2329
  448MOL0     H61801   9.634  10.216   1.527  1.0196  0.5814  0.8994
  448MOL0     H61802   9.834  10.069   1.695  1.6473  0.0057 -1.5682
  448MOL0     H61803   9.703  10.176   1.759  0.2617 -1.3866  0.8120
  448MOL0     H61804   9.929   9.557   1.084  0.8408  2.8786 -0.4915
  448MOL0     H61805   9.964   9.326   0.986 -1.6494 -0.3052  2.3724
  448MOL0     H61806  10.212   9.058   1.167  0.5072 -0.8497  0.3856
  448MOL0     H61807  10.271   8.856   1.279 -1.1362 -2.5176 -1.5932
  448MOL0     H61808  10.193   8.896   2.809  0.3977 -0.4884 -0.9563
  448MOL0     H61809   9.963   8.847   2.902  2.3227  1.0570  1.5577
  448MOL0     H61810   9.522   8.742   2.768  0.5019  1.2058 -0.8925
  448MOL0     H61811   9.307   8.674   2.854  1.6570 -0.0465  1.2720
  448MOL0     H61812   9.065   8.624   3.021  1.0597 -1.8524  1.3411
  448MOL0     H61813   9.218   8.650   3.104  0.2029  0.0608 -0.1054
  448MOL0     H61814   9.122   8.787   3.275 -0.0089 -2.9441  1.6290
  448MOL0     H61815   9.001   8.663   3.264  1.0354 -0.3660  0.3550
  448MOL0     H61816   8.889   8.822   3.084 -2.7346 -0.7818  1.2975
  448MOL0     H61817   8.863   8.831   3.260  1.8892  4.2041  2.9089
  448MOL0     H61818   9.052   9.047   3.134  0.6982  2.5271  1.4000
  448MOL0     H61819   9.027   9.023   3.298 -0.4673  1.1146 -0.1331
  448MOL0     H61820   8.642   9.164   3.161 -0.1136  1.8127  1.0216
  448MOL0     H61821   9.275   9.035   3.068 -1.5705 -0.3074 -0.5431
  448MOL0     H61822   9.582   9.174   2.993 -0.5006  2.0672  1.4042
  448MOL0     H61823   9.450   9.176   3.103  1.5785  1.0430  0.6570
  448MOL0     H61824   9.586   9.090   3.153  0.7890  1.6559 -0.1042
  449MOL0     O61825   0.434   6.934   5.247 -1.0453  0.0068 -0.1790
  449MOL0     C61826   0.508   6.848   5.293  0.1107  0.5684  0.8514
  449MOL0     O61827   0.474   6.713   5.306  0.1672 -0.0832  0.6451
  449MOL0     C61828   0.344   6.684   5.291  0.0801 -0.7612  0.6415
  449MOL0     C61829   0.339   6.560   5.220  0.2962  0.4850 -0.8611
  449MOL0     C61830   0.205   6.516   5.194  0.1665 -0.7177  0.5353
  449MOL0     C61831   0.087   6.575   5.236 -1.0451  0.0312 -0.3628
  449MOL0     O61832  -0.040   6.541   5.204 -0.3482  0.5254  0.2025
  449MOL0     C61833  -0.068   6.403   5.172  0.2420 -0.8154 -0.3496
  449MOL0     C61834  -0.060   6.306   5.294 -0.0288  0.1465  0.1264
  449MOL0     C61835  -0.160   6.350   5.404  0.4076  0.7544 -0.0200
  449MOL0     C61836  -0.308   6.346   5.386  1.0892  0.6799  0.2409
  449MOL0     C61837  -0.348   6.211   5.327  0.4287 -0.2582 -0.2919
  449MOL0     C61838  -0.501   6.189   5.337  0.5312 -1.1163 -0.3310
  449MOL0     C61839  -0.537   6.047   5.306  0.9966 -0.1878  0.8990
  449MOL0     C61840  -0.685   6.011   5.339  0.4079 -0.6865 -0.7416
  449MOL0     N61841  -0.722   5.872   5.307 -0.1216 -0.8995  0.2491
  449MOL0     C61842  -0.723   5.817   5.184  0.3297 -0.4353 -0.4127
  449MOL0     C61843  -0.779   5.698   5.192  0.7037  0.2027 -0.3448
  449MOL0     C61844  -0.791   5.589   5.081 -0.6034  0.5759  0.6605
  449MOL0     C61845  -0.928   5.589   5.005 -0.8249 -0.0193 -0.4641
  449MOL0     C61846  -1.054   5.539   5.091 -1.2165 -0.4100  1.0477
  449MOL0     C61847  -1.175   5.542   5.002 -0.4624  0.3235  0.3510
  449MOL0     O61848  -1.164   5.475   4.879  0.0611 -0.3687 -0.2393
  449MOL0     C61849  -1.276   5.508   4.796 -0.4152 -0.0341 -1.3890
  449MOL0     C61850  -1.385   5.581   4.833  0.2130  0.1077 -0.4182
  449MOL0     C61851  -1.485   5.610   4.743 -0.7698  0.8325  0.3440
  449MOL0     C61852  -1.593   5.702   4.790  0.1885 -0.6353  0.0251
  449MOL0     C61853  -1.479   5.565   4.612  0.7330 -0.5190  1.0931
  449MOL0     C61854  -1.570   5.610   4.498  0.6509 -0.3301  0.0906
  449MOL0     O61855  -1.523   5.578   4.378  0.3513  0.5557  0.0879
  449MOL0     C61856  -1.596   5.620   4.271 -0.4001  0.1523  0.7115
  449MOL0     C61857  -1.725   5.582   4.250 -1.1285 -0.2234 -0.4508
  449MOL0     C61858  -1.794   5.629   4.137 -0.7821  0.1903 -0.3842
  449MOL0     C61859  -1.731   5.711   4.044 -0.3716  0.2496  0.0735
  449MOL0     O61860  -1.794   5.760   3.935  0.1457 -0.0864 -0.3086
  449MOL0     C61861  -1.852   5.886   3.952 -0.9105 -1.1826 -0.3395
  449MOL0     C61862  -1.760   5.980   3.865 -0.0043  0.5545 -0.4563
  449MOL0     C61863  -1.783   5.951   3.712 -1.0657 -0.8888  0.7584
  449MOL0     C61864  -1.746   6.077   3.636 -0.2594 -0.0013 -0.6168
  449MOL0     C61865  -1.600   6.133   3.650 -0.2755 -0.5511 -1.3124
  449MOL0     C61866  -1.481   6.031   3.645  0.3269  0.0895  0.0515
  449MOL0     C61867  -1.344   6.101   3.625 -0.1521  0.2288  0.4211
  449MOL0     C61868  -1.232   5.997   3.584 -0.2871 -0.1393 -0.0749
  449MOL0    Cl61869  -1.280   5.927   3.436  0.3445 -0.0469 -0.3360
  449MOL0     C61870  -1.594   5.734   4.061  0.5047  0.0910  0.0820
  449MOL0     C61871  -1.526   5.687   4.173  0.4233  0.5056  0.1775
  449MOL0     O61872  -1.667   5.683   4.519  0.3255  0.1628 -0.8716
  449MOL0     C61873  -1.366   5.485   4.577 -0.7992  0.2214 -0.6964
  449MOL0     C61874  -1.266   5.452   4.671  0.4798 -0.4293  0.4411
  449MOL0     N61875  -0.807   5.680   5.328  0.0801  0.1498  0.5562
  449MOL0     N61876  -0.772   5.784   5.396 -0.7090  0.7724 -0.0399
  449MOL0     C61877   0.101   6.700   5.299 -0.7961 -0.1240 -0.0823
  449MOL0     C61878   0.225   6.763   5.327  0.8571  0.0321  1.1604
  449MOL0     C61879   0.633   6.889   5.358  0.1453  0.5580 -1.0815
  449MOL0     C61880   0.707   6.785   5.420 -0.6149  0.6221 -0.4080
  449MOL0     C61881   0.827   6.814   5.490  0.4592  0.2692  0.5304
  449MOL0     C61882   0.874   6.948   5.506 -0.3368  0.0379  0.3617
  449MOL0     O61883   0.987   6.991   5.563 -0.4943  0.4903  0.6437
  449MOL0     C61884   1.054   6.889   5.637 -0.1478 -0.4775  0.2317
  449MOL0     C61885   1.170   6.949   5.722 -0.1016 -0.2416 -0.3079
  449MOL0     C61886   1.123   7.073   5.805  0.5325  0.2879 -0.5323
  449MOL0     C61887   1.236   7.167   5.870 -0.1594  0.2819  0.5711
  449MOL0     C61888   1.331   7.097   5.961  0.4054  0.7244  0.9119
  449MOL0     C61889   1.413   7.057   6.042  1.1304  0.7634 -0.7228
  449MOL0     C61890   0.798   7.044   5.433  1.0399  0.3390 -0.5388
  449MOL0     C61891   0.674   7.018   5.366 -1.0285 -0.0024  0.4106
  449MOL0     C61892   0.612   7.132   5.289 -1.0715  0.8222  0.7767
  449MOL0     H61893   0.436   6.516   5.198  0.4662  0.5945 -0.3322
  449MOL0     H61894   0.183   6.443   5.117 -1.1333 -0.1539  0.3491
  449MOL0     H61895  -0.010   6.372   5.085 -0.3857 -0.0699 -1.0481
  449MOL0     H61896  -0.173   6.411   5.143  0.4004 -0.2566 -0.7799
  449MOL0     H61897  -0.087   6.204   5.266 -3.5264  0.8042  0.6839
  449MOL0     H61898   0.035   6.309   5.349  0.1157  4.4616 -0.0072
  449MOL0     H61899  -0.132   6.287   5.489  1.9746  2.3515  0.7236
  449MOL0     H61900  -0.141   6.456   5.423  0.7263  0.4883  1.2043
  449MOL0     H61901  -0.359   6.376   5.478 -1.6550  1.2661 -1.3757
  449MOL0     H61902  -0.342   6.414   5.308  1.9316  0.5529 -0.2553
  449MOL0     H61903  -0.290   6.136   5.382 -0.7033  0.6239  2.2591
  449MOL0     H61904  -0.326   6.201   5.220 -1.8173  3.1859 -1.2330
  449MOL0     H61905  -0.542   6.227   5.431 -0.8254  2.2863 -2.1522
  449MOL0     H61906  -0.542   6.263   5.268  1.0439  2.8112  3.1835
  449MOL0     H61907  -0.474   5.978   5.362  1.9041  0.0322  0.1754
  449MOL0     H61908  -0.531   6.036   5.198  0.7739  1.6247  0.6632
  449MOL0     H61909  -0.700   6.024   5.446  2.2492  1.0626 -0.6260
  449MOL0     H61910  -0.749   6.087   5.292  3.3072  2.2591 -0.3022
  449MOL0     H61911  -0.673   5.856   5.096  0.7041 -0.1173 -0.0630
  449MOL0     H61912  -0.786   5.491   5.129  0.0875 -0.9111 -2.2026
  449MOL0     H61913  -0.712   5.604   5.007 -1.7938  0.3372 -0.7223
  449MOL0     H61914  -0.945   5.694   4.981 -0.1461 -0.7199 -4.7808
  449MOL0     H61915  -0.914   5.529   4.914  3.4938 -0.0628  0.0046
  449MOL0     H61916  -1.044   5.436   5.125 -0.9557 -0.5257  0.6251
  449MOL0     H61917  -1.064   5.596   5.184 -0.7984 -0.8758  1.3795
  449MOL0     H61918  -1.256   5.505   5.064 -0.3232  1.3193  1.1439
  449MOL0     H61919  -1.179   5.649   4.979  0.9498  1.1472  3.4487
  449MOL0     H61920  -1.400   5.612   4.936 -2.8893 -2.0246 -0.0954
  449MOL0     H61921  -1.694   5.668   4.767 -0.1666  0.3467  0.0658
  449MOL0     H61922  -1.584   5.796   4.735 -2.4067  0.5104  1.3671
  449MOL0     H61923  -1.612   5.723   4.896 -4.4473  1.0912 -0.9116
  449MOL0     H61924  -1.771   5.524   4.328 -0.9892 -3.2184 -2.4425
  449MOL0     H61925  -1.897   5.596   4.128 -1.7317  3.1073 -1.6149
  449MOL0     H61926  -1.955   5.891   3.916 -0.9077  0.7402 -0.1758
  449MOL0     H61927  -1.848   5.919   4.057 -1.9191  1.2596 -1.0090
  449MOL0     H61928  -1.796   6.081   3.890 -3.0927 -0.4752 -0.2640
  449MOL0     H61929  -1.658   5.961   3.899 -0.8230 -4.3448 -0.0447
  449MOL0     H61930  -1.882   5.910   3.692 -1.5112 -0.0333  1.1899
  449MOL0     H61931  -1.708   5.876   3.683 -0.9058  0.0264 -1.3642
  449MOL0     H61932  -1.818   6.154   3.666 -1.0011 -1.0505  0.4191
  449MOL0     H61933  -1.765   6.051   3.531  1.0468  0.1566 -0.9092
  449MOL0     H61934  -1.593   6.204   3.567 -0.2955 -1.0389 -1.7327
  449MOL0     H61935  -1.591   6.188   3.744  2.0935  0.4905 -2.0631
  449MOL0     H61936  -1.501   5.972   3.555 -1.7875  2.0750 -0.8886
  449MOL0     H61937  -1.485   5.960   3.728 -4.0667 -2.3484 -1.9001
  449MOL0     H61938  -1.324   6.131   3.729  0.2378 -0.8259  0.6652
  449MOL0     H61939  -1.351   6.182   3.553  1.9461  1.6161  1.6718
  449MOL0     H61940  -1.235   5.913   3.653 -2.7753 -1.7150 -1.9485
  449MOL0     H61941  -1.132   6.042   3.572  0.3195 -1.7217 -1.3297
  449MOL0     H61942  -1.547   5.779   3.974 -1.4226 -0.9410 -1.6023
  449MOL0     H61943  -1.418   5.689   4.182  0.6547  2.0709 -1.9917
  449MOL0     H61944  -1.351   5.430   4.485 -1.3124 -2.1418  0.5731
  449MOL0     H61945  -1.186   5.381   4.653 -1.6688 -2.1494 -3.6922
  449MOL0     H61946   0.007   6.747   5.327 -1.1668  0.0245 -1.5310
  449MOL0     H61947   0.215   6.857   5.380 -4.7260 -0.1185  1.0200
  449MOL0     H61948   0.676   6.681   5.414  0.8557 -0.2633  3.9797
  449MOL0     H61949   0.886   6.728   5.522  2.2342  1.9528  2.0646
  449MOL0     H61950   0.990   6.833   5.705 -1.4890 -1.9268 -2.1063
  449MOL0     H61951   1.096   6.819   5.565  2.1619  2.5880 -1.6466
  449MOL0     H61952   1.244   6.991   5.653  1.1207 -0.4948  0.8162
  449MOL0     H61953   1.214   6.866   5.778  2.3332  1.0629 -0.1374
  449MOL0     H61954   1.056   7.128   5.739 -1.6755 -1.8405 -0.2149
  449MOL0     H61955   1.060   7.029   5.883  0.8053 -1.5454 -1.2823
  449MOL0     H61956   1.178   7.232   5.936 -1.8003 -1.4787  0.9625
  449MOL0     H61957   1.295   7.219   5.794 -1.9474  3.0738  0.9647
  449MOL0     H61958   1.485   7.037   6.120 -2.5117  0.3893  2.8552
  449MOL0     H61959   0.840   7.143   5.424  0.7534  0.3058 -2.7575
  449MOL0     H61960   0.510   7.162   5.317 -0.1797  3.0323  1.8473
  449MOL0     H61961   0.678   7.213   5.320  0.8938 -0.8346  1.0914
  449MOL0     H61962   0.630   7.111   5.183  1.0555 -0.2894  1.3205
  450MOL0     O61963   9.115   4.303   7.799 -0.3755  0.5461 -0.3610
  450MOL0     C61964   9.112   4.415   7.853  0.0946  0.5469 -0.3160
  450MOL0     O61965   9.151   4.535   7.790 -0.3804  0.1572  0.1299
  450MOL0     C61966   9.231   4.518   7.678 -0.7569  0.0670  0.0940
  450MOL0     C61967   9.368   4.521   7.693 -0.6126  0.0122 -0.0469
  450MOL0     C61968   9.452   4.507   7.583  0.2329  0.3524 -0.2759
  450MOL0     C61969   9.399   4.485   7.457 -0.5354 -0.4859  0.0469
  450MOL0     O61970   9.476   4.464   7.343  0.6777  0.1038 -0.1083
  450MOL0     C61971   9.596   4.383   7.363  0.4742  0.9346 -0.9091
  450MOL0     C61972   9.679   4.398   7.230  0.3570 -0.7316 -0.4722
  450MOL0     C61973   9.813   4.323   7.258 -0.5190  0.4442 -0.1588
  450MOL0     C61974   9.905   4.320   7.136 -0.4830  0.0319 -0.2776
  450MOL0     C61975   9.871   4.200   7.054  0.0540  0.9000  0.1875
  450MOL0     C61976   9.931   4.216   6.923 -0.4442 -0.0371 -1.0211
  450MOL0     C61977   9.947   4.095   6.834 -0.0898  0.4257 -0.1916
  450MOL0     C61978   9.838   4.049   6.745 -0.0719 -0.2988  0.7481
  450MOL0     N61979   9.855   3.926   6.670  0.1011 -0.1166  0.1790
  450MOL0     C61980   9.913   3.915   6.543 -0.3719 -0.3072 -0.0247
  450MOL0     C61981   9.927   3.784   6.528 -0.3371  0.4203 -0.1304
  450MOL0     C61982  10.015   3.727   6.419  0.5877  1.2421 -0.4993
  450MOL0     C61983  10.125   3.637   6.480  0.2570  0.2387 -0.0560
  450MOL0     C61984  10.212   3.715   6.587  0.1548 -0.1198 -0.6491
  450MOL0     C61985  10.353   3.675   6.629  0.3907 -0.1864  0.4510
  450MOL0     O61986  10.430   3.699   6.514  0.4589 -0.2958 -1.1713
  450MOL0     C61987  10.564   3.714   6.538 -0.2803  0.8276  0.5441
  450MOL0     C61988  10.627   3.822   6.474  0.1272  0.5710 -0.2984
  450MOL0     C61989  10.763   3.830   6.477 -0.0466  0.0597 -0.4166
  450MOL0     C61990  10.819   3.968   6.427  0.8348 -0.0860 -0.0282
  450MOL0     C61991  10.839   3.725   6.536 -0.4057 -0.3061  0.2056
  450MOL0     C61992  10.988   3.727   6.542 -0.5391 -1.1693 -0.3834
  450MOL0     O61993  11.065   3.797   6.444  0.0957  0.4442 -0.1464
  450MOL0     C61994  11.201   3.823   6.473 -0.3623 -0.0635  0.0388
  450MOL0     C61995  11.232   3.890   6.591 -0.2209 -0.9337 -0.4022
  450MOL0     C61996  11.359   3.946   6.616  1.4368  0.5071  0.4788
  450MOL0     C61997  11.465   3.923   6.530  1.5838  0.2582 -0.4057
  450MOL0     O61998  11.590   3.969   6.557 -0.7474  0.3118  0.1949
  450MOL0     C61999  11.615   4.047   6.676 -0.4879 -0.0861  0.3841
  450MOL0     C62000  11.765   4.065   6.670  0.0314 -0.0454 -1.3186
  450MOL0     C62001  11.843   3.943   6.724  0.3743  0.4507  0.2920
  450MOL0     C62002  11.835   3.928   6.870  0.7938 -0.7324  0.0898
  450MOL0     C62003  11.922   3.814   6.924  0.1744  0.1018 -0.5761
  450MOL0     C62004  12.079   3.825   6.892 -0.4718 -0.0013  0.3894
  450MOL0     C62005  12.162   3.729   6.971  0.7384 -0.5436 -0.7396
  450MOL0     C62006  12.303   3.707   6.914  0.1370 -0.5189  0.6660
  450MOL0    Cl62007  12.372   3.567   7.010  0.5056 -0.3119  0.2050
  450MOL0     C62008  11.437   3.842   6.418  0.2193 -0.4326 -0.2794
  450MOL0     C62009  11.310   3.798   6.388  1.0005  0.0813 -0.4970
  450MOL0     O62010  11.037   3.671   6.642  0.1894 -0.9498 -0.2403
  450MOL0     C62011  10.774   3.615   6.595 -0.5874  0.4908  0.8722
  450MOL0     C62012  10.638   3.600   6.591 -0.7114 -1.0196  0.3858
  450MOL0     N62013   9.875   3.715   6.635  0.0255 -0.1612 -0.5508
  450MOL0     N62014   9.835   3.807   6.722 -1.3195  0.1730  0.3628
  450MOL0     C62015   9.266   4.492   7.436 -0.1418  0.3853  0.6609
  450MOL0     C62016   9.176   4.504   7.547 -0.5224  0.3239 -0.1760
  450MOL0     C62017   9.054   4.416   7.989  0.2738 -0.1597  0.0012
  450MOL0     C62018   8.953   4.322   8.011  0.0643  0.0059  0.1769
  450MOL0     C62019   8.865   4.333   8.110 -0.3402 -0.0214 -0.4443
  450MOL0     C62020   8.886   4.433   8.200 -0.1924  0.5727 -0.5515
  450MOL0     O62021   8.803   4.452   8.310  0.2754 -0.2603 -0.2169
  450MOL0     C62022   8.861   4.419   8.431  0.5955 -0.4719 -0.9408
  450MOL0     C62023   8.758   4.441   8.543  0.1694  0.2146  0.5322
  450MOL0     C62024   8.643   4.339   8.525 -0.5635  0.2998 -0.4860
  450MOL0     C62025   8.542   4.345   8.644  0.5896  0.5109  1.0492
  450MOL0     C62026   8.444   4.242   8.616  0.5794  0.0457 -0.6147
  450MOL0     C62027   8.349   4.170   8.611  0.4212 -1.0387  0.7190
  450MOL0     C62028   8.996   4.522   8.191 -1.2468  0.2860  0.2110
  450MOL0     C62029   9.080   4.521   8.081  0.5591  0.9506 -0.0798
  450MOL0     C62030   9.194   4.630   8.079 -0.1118 -0.5495  0.1218
  450MOL0     H62031   9.409   4.537   7.792 -0.6585 -0.5384  0.0646
  450MOL0     H62032   9.558   4.519   7.598  0.2346  3.0638 -1.8463
  450MOL0     H62033   9.573   4.277   7.371  1.9535  0.5439 -1.4313
  450MOL0     H62034   9.661   4.420   7.443 -0.5204 -2.3769  1.6332
  450MOL0     H62035   9.622   4.358   7.145 -1.8299  2.0145 -0.4538
  450MOL0     H62036   9.693   4.504   7.211  0.0639 -0.2789  1.5627
  450MOL0     H62037   9.870   4.379   7.333  1.7238  2.0460 -2.8593
  450MOL0     H62038   9.808   4.218   7.287  2.0625  0.6715  1.5006
  450MOL0     H62039   9.893   4.412   7.079 -0.8837 -1.1613 -2.1896
  450MOL0     H62040  10.011   4.312   7.162 -0.2621 -0.8593 -1.3701
  450MOL0     H62041   9.764   4.178   7.043 -0.4164  1.1507  3.4324
  450MOL0     H62042   9.919   4.107   7.086 -3.2159 -1.0983 -0.2422
  450MOL0     H62043   9.867   4.286   6.868 -3.1832 -1.0142  0.7401
  450MOL0     H62044  10.031   4.259   6.935  0.9619 -2.6005 -2.6126
  450MOL0     H62045   9.969   4.009   6.899 -0.0675  1.6935  1.5699
  450MOL0     H62046  10.038   4.111   6.777 -0.0676  0.0941 -0.2554
  450MOL0     H62047   9.749   4.033   6.807  0.1227 -3.2170  0.4008
  450MOL0     H62048   9.819   4.132   6.677  2.4538 -0.7161 -0.5754
  450MOL0     H62049   9.934   3.992   6.470 -1.0674  1.6251  1.6910
  450MOL0     H62050  10.062   3.806   6.361 -1.0842  2.3882 -0.3728
  450MOL0     H62051   9.937   3.675   6.362  0.0076  0.8357  0.6343
  450MOL0     H62052  10.083   3.553   6.536 -0.6743  1.8791  1.8486
  450MOL0     H62053  10.187   3.602   6.397 -2.7908 -0.6015 -2.1191
  450MOL0     H62054  10.221   3.822   6.561 -3.3917  0.0350 -1.7488
  450MOL0     H62055  10.150   3.712   6.677 -0.3957 -1.5544 -1.0574
  450MOL0     H62056  10.387   3.751   6.699 -4.1260  2.3743  0.2533
  450MOL0     H62057  10.359   3.570   6.658  1.3854 -0.1628  0.3477
  450MOL0     H62058  10.572   3.900   6.422  1.0819  2.0886  0.8876
  450MOL0     H62059  10.838   3.966   6.320 -0.1529  2.1554 -0.2950
  450MOL0     H62060  10.916   3.994   6.469  2.4731  0.2008 -3.6297
  450MOL0     H62061  10.740   4.037   6.457 -1.2294 -2.4685  0.3997
  450MOL0     H62062  11.155   3.908   6.665  0.2361  1.1889 -0.3746
  450MOL0     H62063  11.364   3.996   6.712  2.3611  0.5323  0.4309
  450MOL0     H62064  11.568   4.146   6.665  1.6490  1.1674  1.7767
  450MOL0     H62065  11.588   4.000   6.771 -0.6231  1.0721  0.9397
  450MOL0     H62066  11.789   4.089   6.566  0.9582 -1.0332 -1.3546
  450MOL0     H62067  11.786   4.148   6.738  2.3897 -0.2900 -1.6567
  450MOL0     H62068  11.947   3.958   6.694  1.2949 -4.3411  0.2998
  450MOL0     H62069  11.807   3.856   6.669  0.7195  0.8386 -0.5550
  450MOL0     H62070  11.734   3.909   6.909  0.9048 -1.4320  0.0501
  450MOL0     H62071  11.865   4.026   6.907 -0.2100 -0.5090  0.3324
  450MOL0     H62072  11.920   3.815   7.033 -0.8608 -1.1910 -0.5577
  450MOL0     H62073  11.887   3.718   6.885 -0.0599  1.7076 -4.8239
  450MOL0     H62074  12.111   3.929   6.902 -4.0666  0.9736  4.5812
  450MOL0     H62075  12.079   3.815   6.783 -4.8914  0.1780  0.2079
  450MOL0     H62076  12.106   3.635   6.963 -1.5767  0.1524  3.9899
  450MOL0     H62077  12.166   3.756   7.077  0.5181  0.1622 -0.9053
  450MOL0     H62078  12.354   3.804   6.924 -2.2502  0.8264  0.5505
  450MOL0     H62079  12.300   3.684   6.807  2.7632  2.8961 -0.3317
  450MOL0     H62080  11.521   3.808   6.358  0.3879 -0.0907 -0.2405
  450MOL0     H62081  11.302   3.736   6.299  3.3845 -2.1959  0.7543
  450MOL0     H62082  10.832   3.534   6.639  0.0932  0.3109 -0.3108
  450MOL0     H62083  10.595   3.517   6.645  0.4785 -2.8301 -1.3385
  450MOL0     H62084   9.217   4.508   7.340  0.6258  0.3257  0.2577
  450MOL0     H62085   9.069   4.495   7.534 -0.6965 -0.2673  1.4696
  450MOL0     H62086   8.934   4.246   7.936  0.5234 -0.8411  0.8968
  450MOL0     H62087   8.787   4.268   8.146 -1.4569  1.5008 -0.0463
  450MOL0     H62088   8.898   4.317   8.446 -0.7065 -0.9055 -0.5072
  450MOL0     H62089   8.938   4.493   8.453  0.9108 -0.9587 -0.3494
  450MOL0     H62090   8.718   4.543   8.550 -0.2513  0.0474  0.5874
  450MOL0     H62091   8.812   4.427   8.637 -0.2323  3.0103  1.2630
  450MOL0     H62092   8.588   4.369   8.435 -4.0567  0.6059  1.5798
  450MOL0     H62093   8.690   4.240   8.523 -0.1948  0.4732 -0.5327
  450MOL0     H62094   8.500   4.443   8.665 -0.4291  0.1869  0.5700
  450MOL0     H62095   8.598   4.322   8.736  0.5093  0.0829  0.9940
  450MOL0     H62096   8.270   4.101   8.589 -0.7916  0.9208 -1.4383
  450MOL0     H62097   9.004   4.611   8.252  0.8313  0.2253  0.0892
  450MOL0     H62098   9.159   4.718   8.024 -0.1113  0.8057  2.1967
  450MOL0     H62099   9.209   4.661   8.183  2.1751 -1.3933  0.1062
  450MOL0     H62100   9.293   4.592   8.050 -0.9333 -1.8348 -1.1129
  451MOL0     O62101   2.928   0.069   4.538  0.1699  0.3248  0.0671
  451MOL0     C62102   2.899   0.085   4.655  0.2632 -0.6980 -0.0056
  451MOL0     O62103   2.989   0.118   4.752  0.8198 -1.2230 -0.4304
  451MOL0     C62104   3.114   0.111   4.710  0.2706  0.6054 -0.7079
  451MOL0     C62105   3.199   0.219   4.703 -0.7881  0.3829  0.1148
  451MOL0     C62106   3.337   0.204   4.673 -0.0617 -0.4873  0.1611
  451MOL0     C62107   3.383   0.075   4.635  0.0542  0.2206 -0.6315
  451MOL0     O62108   3.501   0.075   4.572 -0.2262 -0.3572 -0.3321
  451MOL0     C62109   3.568  -0.030   4.512  0.2055  0.1590 -0.9877
  451MOL0     C62110   3.716   0.002   4.543  0.4389  0.1227 -0.6520
  451MOL0     C62111   3.811  -0.022   4.426  0.2594 -0.4629 -0.6588
  451MOL0     C62112   3.952   0.016   4.444 -0.7787  0.3398 -0.3416
  451MOL0     C62113   4.041  -0.085   4.531 -0.3499 -0.7976  1.0655
  451MOL0     C62114   4.161  -0.015   4.604 -0.1413  0.3049  0.9232
  451MOL0     C62115   4.255  -0.130   4.653 -0.1184 -0.1042  1.3720
  451MOL0     C62116   4.382  -0.066   4.699 -0.1394 -0.4155 -0.1479
  451MOL0     N62117   4.483  -0.161   4.713 -0.3713 -0.4979  0.7829
  451MOL0     C62118   4.486  -0.249   4.809 -0.1077  0.9613  0.1436
  451MOL0     C62119   4.608  -0.308   4.797  0.4670 -0.8915  0.4026
  451MOL0     C62120   4.667  -0.409   4.896 -0.5070  0.4015 -1.1270
  451MOL0     C62121   4.669  -0.546   4.846  0.2449  0.2891  0.1538
  451MOL0     C62122   4.529  -0.613   4.847 -0.0645  0.0871  0.0730
  451MOL0     C62123   4.528  -0.759   4.788  1.2753 -0.2756  0.0729
  451MOL0     O62124   4.634  -0.836   4.833 -0.3269  0.7118  0.9074
  451MOL0     C62125   4.659  -0.874   4.961  0.7153  0.8483 -0.0101
  451MOL0     C62126   4.785  -0.918   4.989  0.1516 -0.5488  0.1580
  451MOL0     C62127   4.827  -0.964   5.120  0.4203  0.5800  0.6434
  451MOL0     C62128   4.977  -1.008   5.129  0.3803  0.3298 -0.1721
  451MOL0     C62129   4.741  -0.962   5.226  0.9515  0.2473  0.2743
  451MOL0     C62130   4.783  -1.008   5.363  0.5225  0.0452 -0.1166
  451MOL0     O62131   4.725  -0.941   5.468  0.7478  0.1073 -0.0523
  451MOL0     C62132   4.680  -1.007   5.580 -0.5109  0.3350  0.6565
  451MOL0     C62133   4.635  -1.145   5.578 -0.9580 -0.7263  0.3378
  451MOL0     C62134   4.615  -1.213   5.698  0.0940 -0.4896  0.4235
  451MOL0     C62135   4.625  -1.142   5.821  0.6510 -0.1785  0.4974
  451MOL0     O62136   4.588  -1.190   5.936 -0.5147  0.1779  0.2969
  451MOL0     C62137   4.670  -1.302   5.984 -0.0596  0.6918  0.0837
  451MOL0     C62138   4.582  -1.428   5.974 -0.3206  0.1418  0.4925
  451MOL0     C62139   4.637  -1.537   6.062  0.1562  0.4859  0.0820
  451MOL0     C62140   4.553  -1.660   6.057 -0.3569 -0.4375  0.1219
  451MOL0     C62141   4.604  -1.764   6.157  0.1779 -0.9578 -0.2617
  451MOL0     C62142   4.746  -1.816   6.148 -0.8184  0.1169 -0.3629
  451MOL0     C62143   4.779  -1.933   6.236  0.0696  1.0183 -0.5734
  451MOL0     C62144   4.919  -1.985   6.243 -0.5705 -1.2625 -0.2158
  451MOL0    Cl62145   5.022  -1.856   6.315  0.6826 -0.1938 -0.3739
  451MOL0     C62146   4.657  -1.005   5.822  0.8811 -0.3814 -0.5950
  451MOL0     C62147   4.691  -0.939   5.706  0.1259 -0.3535  0.3621
  451MOL0     O62148   4.863  -1.107   5.374  0.4261 -1.3276 -0.2865
  451MOL0     C62149   4.615  -0.898   5.209 -0.2811 -0.0093 -0.8157
  451MOL0     C62150   4.568  -0.869   5.074 -0.3744  0.2006  0.0256
  451MOL0     N62151   4.677  -0.267   4.685 -0.1836  0.9696  0.5155
  451MOL0     N62152   4.590  -0.182   4.630 -0.7522  0.5292 -0.6943
  451MOL0     C62153   3.301  -0.034   4.637  0.3883  0.3292  0.1128
  451MOL0     C62154   3.164  -0.016   4.671 -0.6553 -0.2338  0.8564
  451MOL0     C62155   2.765   0.071   4.704 -0.2001 -0.6238 -0.9173
  451MOL0     C62156   2.756   0.056   4.845 -0.3207  0.5340  0.0668
  451MOL0     C62157   2.628   0.043   4.901 -0.7954 -0.0067 -0.5492
  451MOL0     C62158   2.512   0.059   4.822  0.1310  0.7452  0.5163
  451MOL0     O62159   2.381   0.052   4.860  0.0074  0.2710  0.5943
  451MOL0     C62160   2.347   0.077   5.000  0.7490  0.7645 -0.6996
  451MOL0     C62161   2.209   0.139   5.011  0.5319  0.1292 -0.0401
  451MOL0     C62162   2.197   0.264   4.915 -0.1345 -0.2760  0.4305
  451MOL0     C62163   2.055   0.280   4.874  0.1044 -0.7283  0.5237
  451MOL0     C62164   2.048   0.391   4.781  0.7142 -0.0215 -0.4584
  451MOL0     C62165   2.039   0.468   4.686  0.2588 -0.5641 -0.3171
  451MOL0     C62166   2.529   0.072   4.680 -0.0404 -1.0755 -0.8276
  451MOL0     C62167   2.651   0.073   4.618  0.1684  1.0658  0.8155
  451MOL0     C62168   2.659   0.094   4.470  0.7405  0.3974 -0.5840
  451MOL0     H62169   3.150   0.313   4.729 -1.0183 -0.6704  4.1609
  451MOL0     H62170   3.396   0.293   4.658 -1.1044  0.0026 -1.2904
  451MOL0     H62171   3.554  -0.021   4.404  1.3738  1.9872 -1.0208
  451MOL0     H62172   3.531  -0.125   4.550 -2.8418  1.4378 -0.4531
  451MOL0     H62173   3.729   0.109   4.563 -2.0756 -0.0826  3.1457
  451MOL0     H62174   3.745  -0.050   4.635 -2.6262 -1.3044 -0.3848
  451MOL0     H62175   3.805  -0.129   4.402 -1.6871 -1.8050  4.4307
  451MOL0     H62176   3.778   0.043   4.344  0.7465  1.5247  0.6536
  451MOL0     H62177   4.004   0.017   4.348 -2.0159 -2.5021 -1.1391
  451MOL0     H62178   3.954   0.120   4.479 -1.2982 -0.2567  1.5898
  451MOL0     H62179   4.082  -0.161   4.463  0.5805  0.3116  0.3448
  451MOL0     H62180   3.984  -0.137   4.608  1.4831 -1.0439  2.3312
  451MOL0     H62181   4.208   0.060   4.540 -2.2298  1.2529  0.3881
  451MOL0     H62182   4.130   0.052   4.686  0.2715  0.6786  0.7772
  451MOL0     H62183   4.265  -0.191   4.563  0.1674 -2.8232  3.1165
  451MOL0     H62184   4.194  -0.182   4.728 -0.4574  0.6168  1.6088
  451MOL0     H62185   4.405   0.013   4.626 -3.1761 -0.4236 -1.2669
  451MOL0     H62186   4.367  -0.018   4.796  2.1762  0.3794 -0.1132
  451MOL0     H62187   4.417  -0.266   4.891  0.9871  0.5592  1.0159
  451MOL0     H62188   4.616  -0.418   4.993  1.1775  0.7182 -0.1851
  451MOL0     H62189   4.766  -0.367   4.911  0.0917 -0.7275 -1.8119
  451MOL0     H62190   4.715  -0.546   4.746  3.4376  4.3411  1.3719
  451MOL0     H62191   4.737  -0.597   4.914 -1.7508  0.3397  2.2975
  451MOL0     H62192   4.505  -0.614   4.953 -1.1181 -2.0648 -0.1448
  451MOL0     H62193   4.461  -0.539   4.803  0.5551 -0.1158 -1.2812
  451MOL0     H62194   4.432  -0.809   4.798  0.6068  0.8414 -0.5778
  451MOL0     H62195   4.553  -0.753   4.682  3.0222 -3.7920  0.1298
  451MOL0     H62196   4.867  -0.913   4.917  1.2933 -1.7269  1.3174
  451MOL0     H62197   4.988  -1.116   5.138 -2.2231 -0.2758 -3.0042
  451MOL0     H62198   5.021  -0.956   5.215 -0.7324 -0.2305  0.7609
  451MOL0     H62199   5.022  -0.989   5.031 -2.1487  1.5154 -1.1722
  451MOL0     H62200   4.638  -1.202   5.486 -1.9347 -2.0790  1.1131
  451MOL0     H62201   4.600  -1.321   5.700  2.2212 -0.8719 -1.1452
  451MOL0     H62202   4.767  -1.314   5.934 -0.9577 -0.9318 -1.3948
  451MOL0     H62203   4.675  -1.290   6.093  2.5072 -3.2818  0.6052
  451MOL0     H62204   4.480  -1.400   6.003 -0.3061  2.9077 -1.7825
  451MOL0     H62205   4.580  -1.463   5.870  1.0230 -1.7948  1.0539
  451MOL0     H62206   4.632  -1.509   6.168  0.6208  0.5594  0.0873
  451MOL0     H62207   4.740  -1.557   6.030 -1.1669 -2.1209 -3.1325
  451MOL0     H62208   4.567  -1.704   5.957 -0.7243  0.7147 -0.4481
  451MOL0     H62209   4.445  -1.646   6.061 -0.4496 -0.0018 -2.3404
  451MOL0     H62210   4.583  -1.716   6.252 -0.5912  0.6342 -1.1945
  451MOL0     H62211   4.539  -1.851   6.142 -0.3543 -0.1143 -4.0457
  451MOL0     H62212   4.821  -1.737   6.160  3.3798 -3.4924 -0.6552
  451MOL0     H62213   4.763  -1.854   6.047 -1.7570 -1.3826  0.0158
  451MOL0     H62214   4.714  -2.019   6.213  2.6512 -0.9236 -1.0912
  451MOL0     H62215   4.749  -1.904   6.337 -0.1897 -0.7317 -0.1127
  451MOL0     H62216   4.969  -2.021   6.152  1.6133 -1.1400  0.8819
  451MOL0     H62217   4.921  -2.072   6.308 -1.7401 -0.2156  1.2860
  451MOL0     H62218   4.665  -0.958   5.919 -1.9299 -1.6617  0.3498
  451MOL0     H62219   4.733  -0.839   5.704  2.4399 -1.2529 -2.2580
  451MOL0     H62220   4.544  -0.893   5.291 -1.0334 -0.1324 -1.4490
  451MOL0     H62221   4.478  -0.809   5.068  1.4006  3.0209 -0.7001
  451MOL0     H62222   3.322  -0.138   4.615  0.2764  0.4957 -0.7935
  451MOL0     H62223   3.096  -0.101   4.662 -1.7791  0.5093  1.9487
  451MOL0     H62224   2.843   0.040   4.907 -1.2029 -4.6192  0.3754
  451MOL0     H62225   2.619   0.028   5.008  2.9506  2.6517  0.3382
  451MOL0     H62226   2.343  -0.022   5.045 -0.3640  1.5854  1.1059
  451MOL0     H62227   2.427   0.143   5.035  1.3584 -0.8363  1.0998
  451MOL0     H62228   2.180   0.170   5.112 -0.7326 -2.5690  0.5266
  451MOL0     H62229   2.146   0.052   4.989  3.1769 -1.3644 -2.2956
  451MOL0     H62230   2.243   0.348   4.967 -1.1813  1.3764 -1.1779
  451MOL0     H62231   2.253   0.254   4.821 -1.3861 -3.5558 -0.1117
  451MOL0     H62232   1.989   0.289   4.961  2.0125 -0.0795  1.9568
  451MOL0     H62233   2.021   0.203   4.804 -2.9953  2.4211 -1.8127
  451MOL0     H62234   2.037   0.537   4.604 -2.4090  1.1054  0.9838
  451MOL0     H62235   2.442   0.091   4.618 -0.8421  1.8884  0.9733
  451MOL0     H62236   2.558   0.112   4.431  0.8662  2.3915 -0.0831
  451MOL0     H62237   2.715   0.187   4.457 -0.5657  1.5808  1.7742
  451MOL0     H62238   2.694   0.006   4.414  0.2513  1.2493 -2.3000
  452MOL0     O62239   1.305   0.156   3.611  0.1108  0.0386  0.7822
  452MOL0     C62240   1.401   0.124   3.538 -0.2036 -0.0264 -1.1639
  452MOL0     O62241   1.534   0.140   3.584  0.0890 -0.0870  0.3253
  452MOL0     C62242   1.560   0.209   3.699 -0.4393 -0.8678  0.5491
  452MOL0     C62243   1.676   0.187   3.762  0.1030 -0.7499 -0.0473
  452MOL0     C62244   1.718   0.255   3.882 -0.0491  1.0094 -0.4946
  452MOL0     C62245   1.623   0.338   3.949 -0.1261 -0.4827  0.2207
  452MOL0     O62246   1.650   0.388   4.075  0.7737  0.7182  0.1254
  452MOL0     C62247   1.755   0.333   4.151 -0.4275  0.3073 -0.5182
  452MOL0     C62248   1.776   0.416   4.274  0.2324 -0.1489 -0.4014
  452MOL0     C62249   1.903   0.374   4.345 -0.8534  0.5434  0.7977
  452MOL0     C62250   1.906   0.232   4.414  0.5181  0.3531  0.4060
  452MOL0     C62251   2.042   0.182   4.442 -0.4357  0.7726  0.2005
  452MOL0     C62252   2.029   0.056   4.533 -0.2290 -0.7582 -0.0426
  452MOL0     C62253   2.174  -0.011   4.556 -0.4990 -0.4758  0.5728
  452MOL0     C62254   2.256  -0.046   4.435 -0.4275 -0.5232  0.3407
  452MOL0     N62255   2.186  -0.137   4.341 -0.7364 -0.3122 -0.3737
  452MOL0     C62256   2.174  -0.271   4.362  0.1342  0.0056  0.9774
  452MOL0     C62257   2.159  -0.324   4.238  0.3921 -0.8005 -0.1902
  452MOL0     C62258   2.163  -0.477   4.205 -0.1676 -0.4061 -0.3033
  452MOL0     C62259   2.248  -0.513   4.085  0.2301  0.6166  0.9100
  452MOL0     C62260   2.182  -0.527   3.940 -0.3517 -0.1210 -0.6596
  452MOL0     C62261   2.198  -0.396   3.870 -0.0991 -1.2851 -0.0343
  452MOL0     O62262   2.162  -0.407   3.736 -0.3219  0.0233 -0.2570
  452MOL0     C62263   2.219  -0.321   3.645 -0.6237 -0.8687 -0.2882
  452MOL0     C62264   2.224  -0.364   3.510 -0.6556  0.5740  0.4342
  452MOL0     C62265   2.274  -0.273   3.415 -0.1153  0.3181  0.2285
  452MOL0     C62266   2.289  -0.341   3.272  0.4780 -0.4543 -0.4581
  452MOL0     C62267   2.312  -0.140   3.440  0.1513  0.3341  0.1695
  452MOL0     C62268   2.361  -0.035   3.338 -0.1221  0.6407  0.0842
  452MOL0     O62269   2.423   0.059   3.399  0.3557  0.5783 -0.7736
  452MOL0     C62270   2.453   0.171   3.331  0.3070  0.2929  0.0441
  452MOL0     C62271   2.563   0.241   3.385 -0.4544  0.1448 -0.6129
  452MOL0     C62272   2.606   0.359   3.320  0.1062 -0.4276 -0.0261
  452MOL0     C62273   2.533   0.415   3.216  0.6796  0.1750 -0.1124
  452MOL0     O62274   2.562   0.547   3.178 -0.4026 -0.1409 -0.3043
  452MOL0     C62275   2.455   0.631   3.132  0.4418 -0.0016 -0.4460
  452MOL0     C62276   2.511   0.768   3.106  0.9594 -0.6880  0.1095
  452MOL0     C62277   2.545   0.787   2.964  0.7019 -0.2205  0.2180
  452MOL0     C62278   2.680   0.859   2.953 -0.0857  0.0679  0.5906
  452MOL0     C62279   2.735   0.861   2.805 -0.8455 -0.0353 -0.2127
  452MOL0     C62280   2.660   0.935   2.698 -0.0488 -0.1833 -0.9784
  452MOL0     C62281   2.737   0.940   2.562 -0.1221 -0.0398  0.2775
  452MOL0     C62282   2.676   1.041   2.469  0.2984 -0.9456 -0.6868
  452MOL0    Cl62283   2.782   1.067   2.321 -0.2224  0.5324  0.1767
  452MOL0     C62284   2.425   0.338   3.163  0.4421  0.3064 -0.2308
  452MOL0     C62285   2.375   0.222   3.227 -0.5950  0.4951 -1.0286
  452MOL0     O62286   2.368  -0.061   3.219  1.0645 -0.2921 -0.2281
  452MOL0     C62287   2.311  -0.100   3.577  0.5071  0.0378  0.4770
  452MOL0     C62288   2.268  -0.190   3.677 -0.1850 -0.0701  0.3795
  452MOL0     N62289   2.145  -0.218   4.145  0.6306  0.7845 -0.2717
  452MOL0     N62290   2.172  -0.112   4.208 -0.4900  0.2044 -0.2881
  452MOL0     C62291   1.511   0.366   3.882  0.6503  0.5724 -0.4022
  452MOL0     C62292   1.486   0.313   3.753 -0.1629 -0.1703 -0.4274
  452MOL0     C62293   1.367   0.079   3.405  0.0035 -0.0353  0.3409
  452MOL0     C62294   1.230   0.086   3.370 -0.2448 -0.6879 -0.9362
  452MOL0     C62295   1.196   0.036   3.242  0.5359 -0.2462  0.4903
  452MOL0     C62296   1.279  -0.004   3.147 -0.7317  0.3090  0.3072
  452MOL0     O62297   1.230  -0.026   3.022  0.6819 -0.0346  0.1070
  452MOL0     C62298   1.316  -0.098   2.932 -0.0297  0.8568 -0.3904
  452MOL0     C62299   1.303  -0.247   2.973 -0.2492 -0.1378 -0.1649
  452MOL0     C62300   1.197  -0.312   2.880 -0.4599  0.1018 -0.1587
  452MOL0     C62301   1.172  -0.463   2.918  0.7917 -0.4508  0.5531
  452MOL0     C62302   1.108  -0.469   3.053  0.2986  0.3869  0.1891
  452MOL0     C62303   1.037  -0.481   3.145 -0.0876  0.0368 -0.0222
  452MOL0     C62304   1.420  -0.016   3.188 -0.1691  1.0693 -0.3477
  452MOL0     C62305   1.460   0.013   3.318 -0.0838  0.1073 -0.3764
  452MOL0     C62306   1.613  -0.016   3.361  0.1188 -0.4768  0.5018
  452MOL0     H62307   1.749   0.122   3.714  0.3979  0.5076 -1.3517
  452MOL0     H62308   1.819   0.234   3.917 -0.6276  1.1332  1.3357
  452MOL0     H62309   1.852   0.333   4.100  0.7495  2.7110  1.4652
  452MOL0     H62310   1.737   0.230   4.182  0.9416  0.7102  1.8828
  452MOL0     H62311   1.779   0.519   4.238  0.9108  0.0952  0.3165
  452MOL0     H62312   1.700   0.411   4.353 -0.5255  3.0499 -0.7764
  452MOL0     H62313   1.972   0.378   4.260 -0.1054 -0.7089  1.3163
  452MOL0     H62314   1.933   0.447   4.421  0.0489  0.5639  0.4419
  452MOL0     H62315   1.843   0.239   4.503 -1.4663 -0.6667 -0.8302
  452MOL0     H62316   1.850   0.168   4.345  1.5350 -0.3749  0.2462
  452MOL0     H62317   2.106   0.261   4.483 -0.0377  2.0925 -2.6740
  452MOL0     H62318   2.084   0.153   4.345  0.9343  0.5628  0.8373
  452MOL0     H62319   1.988   0.096   4.626  0.0061  2.5394 -1.1954
  452MOL0     H62320   1.954  -0.013   4.493 -0.8352 -1.2995  1.9140
  452MOL0     H62321   2.172  -0.094   4.627 -0.0082 -1.0545 -0.0766
  452MOL0     H62322   2.234   0.071   4.598  2.8865 -2.3886 -0.1201
  452MOL0     H62323   2.286   0.036   4.369 -1.3592 -0.7115 -0.3247
  452MOL0     H62324   2.344  -0.106   4.461  1.6961  1.2332 -2.1937
  452MOL0     H62325   2.187  -0.311   4.462 -2.4930  3.1223  2.7479
  452MOL0     H62326   2.057  -0.500   4.189 -0.2885 -2.1980  2.3849
  452MOL0     H62327   2.197  -0.533   4.293  1.2332  2.5850  1.1992
  452MOL0     H62328   2.336  -0.449   4.093  0.7047  0.0218  0.5831
  452MOL0     H62329   2.285  -0.610   4.119  1.6793  1.3433  1.4757
  452MOL0     H62330   2.234  -0.606   3.885 -0.1237  0.3760 -1.1672
  452MOL0     H62331   2.080  -0.560   3.959 -0.6652  1.1945  0.0238
  452MOL0     H62332   2.138  -0.316   3.913  3.2992  1.0508  0.7807
  452MOL0     H62333   2.301  -0.363   3.882  0.0374 -1.6178 -0.2706
  452MOL0     H62334   2.195  -0.465   3.483 -0.6620  0.9821 -1.1774
  452MOL0     H62335   2.222  -0.303   3.195 -2.6443 -2.6641  0.9779
  452MOL0     H62336   2.269  -0.448   3.281  1.3575 -0.7350 -1.6126
  452MOL0     H62337   2.392  -0.325   3.237  0.7847  1.9588  1.2338
  452MOL0     H62338   2.619   0.202   3.469 -0.5797 -1.2976 -1.1767
  452MOL0     H62339   2.693   0.413   3.356  0.6054 -0.5785 -0.9751
  452MOL0     H62340   2.399   0.588   3.049 -0.9885 -0.6916  0.8177
  452MOL0     H62341   2.379   0.643   3.210 -0.6432  2.9042 -1.8174
  452MOL0     H62342   2.441   0.842   3.145  1.1737  0.5406 -1.7064
  452MOL0     H62343   2.593   0.789   3.176 -1.1350  0.3610  2.3860
  452MOL0     H62344   2.463   0.843   2.916  0.8316 -0.2426 -0.0342
  452MOL0     H62345   2.545   0.690   2.912 -0.6926 -1.0408  1.6755
  452MOL0     H62346   2.748   0.810   3.023 -0.9438  0.7727  1.9725
  452MOL0     H62347   2.663   0.962   2.985 -3.3290  0.4445 -1.8972
  452MOL0     H62348   2.831   0.914   2.802 -0.0767 -1.4293 -0.8908
  452MOL0     H62349   2.745   0.759   2.768  1.4579 -0.0327  0.2515
  452MOL0     H62350   2.659   1.037   2.737  0.9782 -1.2948  2.2016
  452MOL0     H62351   2.562   0.888   2.683  0.8210 -1.2152 -4.2944
  452MOL0     H62352   2.735   0.840   2.518  1.8052  0.5348 -1.2262
  452MOL0     H62353   2.840   0.961   2.592  0.5041 -1.3468 -0.8611
  452MOL0     H62354   2.669   1.140   2.517 -0.7024 -1.1346 -0.4250
  452MOL0     H62355   2.571   1.016   2.453  0.6384 -1.6728 -1.9070
  452MOL0     H62356   2.371   0.366   3.073  0.8936  1.2126 -0.2256
  452MOL0     H62357   2.283   0.179   3.190 -2.5551  4.0286 -0.7801
  452MOL0     H62358   2.337  -0.002   3.618 -0.4816 -0.1661  1.6677
  452MOL0     H62359   2.274  -0.181   3.785 -2.8781 -0.7763  0.6640
  452MOL0     H62360   1.443   0.440   3.922  2.0686  1.5638  0.2592
  452MOL0     H62361   1.394   0.348   3.707 -0.3260 -1.3583 -1.0405
  452MOL0     H62362   1.155   0.128   3.436  2.7261  2.9978  0.4469
  452MOL0     H62363   1.092   0.037   3.209  0.2281  1.1774  1.4039
  452MOL0     H62364   1.288  -0.081   2.828 -2.3845 -1.0398 -0.1447
  452MOL0     H62365   1.418  -0.059   2.931  0.2094  0.2476 -1.7729
  452MOL0     H62366   1.287  -0.268   3.079  1.6407  1.0166  0.4019
  452MOL0     H62367   1.397  -0.295   2.941  1.3367  1.8668  1.2585
  452MOL0     H62368   1.101  -0.260   2.880  0.0621  1.1898 -2.5537
  452MOL0     H62369   1.222  -0.316   2.773  0.8179 -2.7014  0.1467
  452MOL0     H62370   1.267  -0.517   2.913 -0.5824 -2.9188 -1.3144
  452MOL0     H62371   1.099  -0.509   2.851 -0.3500 -0.2272  1.6090
  452MOL0     H62372   0.978  -0.488   3.235  1.4605 -0.1509  1.0188
  452MOL0     H62373   1.486  -0.054   3.111  0.0322  1.3253 -0.3023
  452MOL0     H62374   1.649  -0.090   3.289 -3.6631 -0.9342 -1.1504
  452MOL0     H62375   1.672   0.075   3.364 -2.2318  1.1268  1.8181
  452MOL0     H62376   1.619  -0.073   3.454 -0.8522 -1.3456  0.0643
  453MOL0     O62377   2.436   2.660   3.358  0.6637  0.1880 -0.6644
  453MOL0     C62378   2.556   2.630   3.388  0.1131  0.1522  0.0281
  453MOL0     O62379   2.590   2.529   3.474  0.4086 -0.3391  0.7131
  453MOL0     C62380   2.501   2.421   3.471  0.6669 -0.0188 -0.4582
  453MOL0     C62381   2.416   2.412   3.587  0.2103 -0.2889  0.7972
  453MOL0     C62382   2.318   2.310   3.598  0.0981  0.2342 -0.1602
  453MOL0     C62383   2.310   2.218   3.493  0.4631  0.6546  0.7600
  453MOL0     O62384   2.207   2.131   3.504  0.0425  0.0554  0.1124
  453MOL0     C62385   2.240   1.987   3.527  1.0396 -0.1339  0.2475
  453MOL0     C62386   2.134   1.899   3.452  0.0780  0.0696  0.2519
  453MOL0     C62387   1.989   1.919   3.510 -0.9239  0.2258  0.2297
  453MOL0     C62388   1.908   1.786   3.508 -0.5444  0.2109 -0.0742
  453MOL0     C62389   1.798   1.777   3.612  0.1822 -0.1155 -0.0543
  453MOL0     C62390   1.708   1.653   3.609  0.4026  0.9609 -0.5250
  453MOL0     C62391   1.591   1.661   3.708 -0.0157 -0.6056  1.1568
  453MOL0     C62392   1.503   1.535   3.701 -0.0300 -0.1993 -0.7586
  453MOL0     N62393   1.572   1.431   3.774 -0.1111  0.6119 -0.4329
  453MOL0     C62394   1.568   1.398   3.909  0.9084 -0.3785  0.1218
  453MOL0     C62395   1.639   1.278   3.923  1.1493 -0.0976  0.3697
  453MOL0     C62396   1.652   1.196   4.043  0.4657  0.2718 -0.6561
  453MOL0     C62397   1.541   1.098   4.050  0.5052 -0.1184  0.1473
  453MOL0     C62398   1.406   1.163   4.112  0.3567  0.2555  0.2172
  453MOL0     C62399   1.303   1.062   4.161 -0.1022  0.1841 -0.3300
  453MOL0     O62400   1.190   1.143   4.214 -0.3154 -0.0761  0.3391
  453MOL0     C62401   1.108   1.084   4.303 -0.1235 -0.5812 -0.1485
  453MOL0     C62402   0.998   1.166   4.335  0.0056  0.0753 -0.3881
  453MOL0     C62403   0.899   1.109   4.421  0.4797 -0.0466 -1.0345
  453MOL0     C62404   0.793   1.205   4.462 -0.4473 -0.0792 -0.3813
  453MOL0     C62405   0.909   0.974   4.473  0.3013  0.0596 -0.7197
  453MOL0     C62406   0.805   0.925   4.568 -0.0869 -0.3834  0.2449
  453MOL0     O62407   0.854   0.834   4.666 -0.0490 -0.0882  0.3241
  453MOL0     C62408   0.751   0.773   4.744  0.0575  0.6462 -0.4836
  453MOL0     C62409   0.757   0.811   4.878 -0.3177 -0.0580 -0.0944
  453MOL0     C62410   0.673   0.738   4.963 -0.1683 -0.6298  0.4042
  453MOL0     C62411   0.570   0.649   4.913  0.2265 -0.1555 -0.0722
  453MOL0     O62412   0.474   0.586   4.981  0.6079 -0.0295  0.7850
  453MOL0     C62413   0.460   0.610   5.125 -0.2759  0.8856 -0.2276
  453MOL0     C62414   0.359   0.709   5.159  0.1400  0.4328  0.0715
  453MOL0     C62415   0.415   0.853   5.141  0.2178  0.7553 -0.0674
  453MOL0     C62416   0.505   0.910   5.252  0.5101  0.8273  0.0234
  453MOL0     C62417   0.566   1.050   5.229  0.0483  0.0823  0.3519
  453MOL0     C62418   0.690   1.065   5.135  0.0298 -0.3814  0.0116
  453MOL0     C62419   0.739   1.208   5.113 -0.5675  1.4035  0.3369
  453MOL0     C62420   0.873   1.203   5.059 -0.8986 -0.0282 -0.0176
  453MOL0    Cl62421   0.856   1.150   4.889 -0.5130 -0.2366  0.0056
  453MOL0     C62422   0.563   0.630   4.777  0.0370 -0.0736  0.1839
  453MOL0     C62423   0.646   0.696   4.690  0.1168 -0.6985  0.3283
  453MOL0     O62424   0.685   0.952   4.548 -0.1414 -0.3397  0.9464
  453MOL0     C62425   1.024   0.901   4.441 -0.3705  0.5311  0.2253
  453MOL0     C62426   1.117   0.955   4.358 -0.1707 -0.8113  0.0889
  453MOL0     N62427   1.677   1.240   3.790 -0.0207 -0.0257  0.2242
  453MOL0     N62428   1.643   1.336   3.715  0.7808 -0.1102  0.6075
  453MOL0     C62429   2.391   2.227   3.374  1.1047 -0.3421  0.0740
  453MOL0     C62430   2.486   2.333   3.364  0.3572  0.3931 -0.2994
  453MOL0     C62431   2.668   2.703   3.330  0.3387 -0.4591  0.2334
  453MOL0     C62432   2.789   2.636   3.313 -1.0755 -0.5504 -0.1889
  453MOL0     C62433   2.897   2.699   3.246  0.1450 -0.0667  0.5758
  453MOL0     C62434   2.881   2.819   3.183  0.9061 -0.5321  0.9237
  453MOL0     O62435   2.981   2.853   3.097 -0.7729  0.3810 -0.3047
  453MOL0     C62436   3.008   2.994   3.073  0.8748  0.0845  0.3391
  453MOL0     C62437   3.135   3.005   2.992 -1.3178  0.2030  0.3068
  453MOL0     C62438   3.177   3.145   2.958  0.4651 -0.0295 -0.1388
  453MOL0     C62439   3.097   3.202   2.839 -0.6420 -0.5425 -0.6396
  453MOL0     C62440   3.142   3.123   2.722  0.3333 -0.8628 -0.6055
  453MOL0     C62441   3.184   3.062   2.624  0.2449  0.2481  0.4687
  453MOL0     C62442   2.754   2.883   3.188 -0.0951 -0.1963 -0.4470
  453MOL0     C62443   2.650   2.829   3.263  1.1006 -0.3528 -0.0506
  453MOL0     C62444   2.526   2.928   3.277  0.4018 -0.0804 -0.6799
  453MOL0     H62445   2.420   2.487   3.665  2.9807 -1.0015  1.4606
  453MOL0     H62446   2.239   2.312   3.672 -1.0777 -1.5431 -1.2883
  453MOL0     H62447   2.235   1.957   3.632  2.2822 -0.1177  0.3228
  453MOL0     H62448   2.337   1.968   3.480 -0.6292 -1.0053 -3.1759
  453MOL0     H62449   2.130   1.922   3.345 -3.6220  0.5932  0.3704
  453MOL0     H62450   2.171   1.797   3.462  2.9187  1.0893  0.9837
  453MOL0     H62451   1.992   1.947   3.616 -0.8682  1.1243  0.0003
  453MOL0     H62452   1.937   2.000   3.458  1.1806  2.5265  1.4984
  453MOL0     H62453   1.862   1.770   3.410 -0.6526 -1.4308  0.2084
  453MOL0     H62454   1.978   1.707   3.536 -0.3394  0.6500  0.6954
  453MOL0     H62455   1.725   1.854   3.585 -0.7059 -1.4769 -1.7280
  453MOL0     H62456   1.841   1.800   3.710  0.4411  2.5168 -0.7097
  453MOL0     H62457   1.667   1.632   3.510 -1.6870 -0.9235  0.6388
  453MOL0     H62458   1.778   1.570   3.624  0.6446  1.1325 -0.6973
  453MOL0     H62459   1.519   1.742   3.689  1.3610  1.3615  3.6582
  453MOL0     H62460   1.628   1.682   3.809  0.7566 -2.6557  1.3397
  453MOL0     H62461   1.407   1.563   3.746 -0.9931  1.5078 -3.6131
  453MOL0     H62462   1.488   1.503   3.597  2.0494 -3.1989 -0.2761
  453MOL0     H62463   1.532   1.470   3.982  2.0537 -0.5119  0.8393
  453MOL0     H62464   1.658   1.259   4.132 -2.9242 -1.2011  0.7707
  453MOL0     H62465   1.751   1.151   4.028  0.9379  1.6198 -1.8764
  453MOL0     H62466   1.530   1.062   3.948 -1.8412  4.2186 -1.3769
  453MOL0     H62467   1.571   1.017   4.117  0.7470  1.4661  2.0638
  453MOL0     H62468   1.428   1.225   4.200  2.0850 -1.5771  1.1615
  453MOL0     H62469   1.343   1.207   4.035 -0.6502 -0.6309  0.5111
  453MOL0     H62470   1.252   0.999   4.087 -2.9402 -1.5215  2.7893
  453MOL0     H62471   1.364   1.004   4.231  4.8752  2.9960 -1.8366
  453MOL0     H62472   1.000   1.264   4.288 -2.1999  1.1185  1.4849
  453MOL0     H62473   0.799   1.222   4.570  0.2970  2.9195 -0.7877
  453MOL0     H62474   0.692   1.166   4.451  0.1978 -1.4411 -1.6217
  453MOL0     H62475   0.791   1.304   4.415 -3.3179  1.4124  2.5078
  453MOL0     H62476   0.843   0.867   4.913  0.4245 -1.9074  1.2174
  453MOL0     H62477   0.683   0.751   5.070  3.1275 -0.0726  0.1614
  453MOL0     H62478   0.423   0.518   5.170  1.3383  0.3112 -0.0101
  453MOL0     H62479   0.553   0.627   5.180  0.1843  0.1669 -0.7711
  453MOL0     H62480   0.275   0.698   5.091  1.4536 -1.1979 -1.3730
  453MOL0     H62481   0.329   0.702   5.264 -1.4927  2.4096 -0.2010
  453MOL0     H62482   0.337   0.927   5.158 -0.8711 -0.6256  1.2415
  453MOL0     H62483   0.453   0.866   5.039 -0.4543 -1.5448 -0.6707
  453MOL0     H62484   0.593   0.853   5.282  0.4838  0.8760  0.2005
  453MOL0     H62485   0.437   0.915   5.338  0.9315  3.2553  0.3032
  453MOL0     H62486   0.480   1.104   5.190 -0.6891 -0.0603  1.7346
  453MOL0     H62487   0.588   1.084   5.331  0.9259  0.4556  0.0530
  453MOL0     H62488   0.659   1.013   5.044  0.3672 -1.9706  0.7597
  453MOL0     H62489   0.778   1.017   5.178 -0.3918  0.7055  2.2340
  453MOL0     H62490   0.747   1.247   5.215  2.5486  2.6764 -0.2737
  453MOL0     H62491   0.669   1.277   5.064  0.4191  3.3384  1.5503
  453MOL0     H62492   0.945   1.133   5.104 -0.8918 -0.0405 -0.0470
  453MOL0     H62493   0.922   1.301   5.060  2.9435 -1.7210 -0.9864
  453MOL0     H62494   0.484   0.568   4.737  2.0993 -1.9592 -1.1682
  453MOL0     H62495   0.645   0.691   4.581  2.1553  1.5921  0.1235
  453MOL0     H62496   1.044   0.800   4.474  0.9210  0.8061  0.3530
  453MOL0     H62497   1.195   0.886   4.325 -2.3488 -2.7776 -1.3397
  453MOL0     H62498   2.370   2.155   3.294 -3.6764 -0.0503  0.7782
  453MOL0     H62499   2.550   2.336   3.276 -1.5710 -0.1491 -1.7706
  453MOL0     H62500   2.796   2.532   3.343 -1.8449 -1.7263 -3.6653
  453MOL0     H62501   2.991   2.645   3.239  2.2712  3.2922  0.7316
  453MOL0     H62502   2.922   3.037   3.019  0.6427 -0.8358 -0.0422
  453MOL0     H62503   3.022   3.057   3.161 -0.5911  3.3099 -1.5175
  453MOL0     H62504   3.117   2.948   2.900  0.5784  1.3276 -0.8126
  453MOL0     H62505   3.214   2.956   3.050 -1.0018 -1.2710 -1.2825
  453MOL0     H62506   3.168   3.207   3.048 -1.4580 -1.3559  0.6264
  453MOL0     H62507   3.282   3.136   2.927 -0.5208 -0.5489 -3.8120
  453MOL0     H62508   3.132   3.304   2.820  1.2287 -1.3117 -1.5873
  453MOL0     H62509   2.988   3.201   2.853 -0.5452  1.2556  0.6027
  453MOL0     H62510   3.213   3.003   2.540  0.0180  2.0882 -0.9803
  453MOL0     H62511   2.744   2.982   3.146 -0.6246  1.1995  2.7026
  453MOL0     H62512   2.567   3.029   3.271  1.8986 -0.6894 -1.1632
  453MOL0     H62513   2.459   2.904   3.194 -0.4926  1.9423 -0.5956
  453MOL0     H62514   2.479   2.925   3.376  1.2047 -2.3807 -0.2956
  454MOL0     O62515   8.568   9.157   4.030  0.2142 -0.7877  0.3972
  454MOL0     C62516   8.536   9.084   4.123  0.9008  0.7741  0.0613
  454MOL0     O62517   8.613   9.062   4.231  0.8317  0.5460 -0.0258
  454MOL0     C62518   8.749   9.054   4.223 -0.5572  0.2988 -0.8541
  454MOL0     C62519   8.826   9.076   4.339 -0.6006  0.8159 -0.4763
  454MOL0     C62520   8.974   9.076   4.338  0.3550 -0.8454 -0.3088
  454MOL0     C62521   9.044   9.057   4.212 -0.4163  0.0285 -0.0537
  454MOL0     O62522   9.182   9.063   4.206  0.0515  0.2819  0.2111
  454MOL0     C62523   9.257   9.064   4.083 -0.1267 -0.5472  0.5259
  454MOL0     C62524   9.408   9.059   4.061  0.5988  0.6232 -0.1335
  454MOL0     C62525   9.459   8.920   4.094 -1.4602  0.3980 -0.9295
  454MOL0     C62526   9.592   8.941   4.180  0.4934 -0.2398  0.7068
  454MOL0     C62527   9.624   8.821   4.258 -0.1712  0.1245 -1.2454
  454MOL0     C62528   9.738   8.853   4.351  0.2046  0.8771  0.3365
  454MOL0     C62529   9.803   8.732   4.414 -0.3576  1.0130 -0.1055
  454MOL0     C62530   9.697   8.641   4.480 -0.4488  1.0025  0.4825
  454MOL0     N62531   9.758   8.526   4.548 -0.0228 -0.1301  0.1609
  454MOL0     C62532   9.811   8.412   4.485 -0.1396 -0.1710 -0.2095
  454MOL0     C62533   9.863   8.340   4.584  0.0028  0.2484  0.3253
  454MOL0     C62534   9.933   8.204   4.593 -0.3628 -0.4520  0.9622
  454MOL0     C62535   9.840   8.089   4.627  0.2350 -0.7841  0.1795
  454MOL0     C62536   9.777   8.113   4.773 -0.2546 -0.3503  0.9599
  454MOL0     C62537   9.654   8.027   4.789 -0.4109 -1.7805  0.0426
  454MOL0     O62538   9.588   8.043   4.920 -0.3548 -0.5858  0.3905
  454MOL0     C62539   9.616   7.962   5.024 -0.8840 -0.0110 -0.2339
  454MOL0     C62540   9.744   7.901   5.044 -0.2306 -0.0158  0.4425
  454MOL0     C62541   9.782   7.835   5.161 -0.4299 -1.2036  0.2962
  454MOL0     C62542   9.913   7.769   5.165 -0.6200  0.0154  0.4170
  454MOL0     C62543   9.692   7.827   5.271 -0.2627 -0.0795  0.9779
  454MOL0     C62544   9.713   7.750   5.394 -0.4182  1.0176 -0.0853
  454MOL0     O62545   9.781   7.629   5.388  0.5055 -0.3418 -0.6218
  454MOL0     C62546   9.779   7.545   5.501  0.3286 -1.0159 -0.2200
  454MOL0     C62547   9.851   7.577   5.615 -1.0954 -0.6861  0.3401
  454MOL0     C62548   9.844   7.483   5.717  0.2961 -0.0833  0.2040
  454MOL0     C62549   9.760   7.368   5.719 -1.1876  0.0849 -0.1318
  454MOL0     O62550   9.764   7.283   5.833 -0.2293  0.3471 -0.4338
  454MOL0     C62551   9.733   7.144   5.804 -0.2350  0.9390  0.2995
  454MOL0     C62552   9.766   7.065   5.923 -0.2846  0.1524  0.2344
  454MOL0     C62553   9.913   7.030   5.930  0.6910 -0.2675 -0.0559
  454MOL0     C62554   9.952   6.941   6.052  0.1270 -0.8415  0.2240
  454MOL0     C62555  10.011   7.022   6.165 -0.1662  0.1045  0.3742
  454MOL0     C62556   9.993   6.944   6.306  0.2755  0.5920  0.4221
  454MOL0     C62557  10.090   6.991   6.413 -0.3030  0.2782 -0.3143
  454MOL0     C62558  10.084   6.916   6.550 -0.2537 -0.9289 -0.2162
  454MOL0    Cl62559  10.132   6.756   6.530 -0.3466  0.5531 -0.0393
  454MOL0     C62560   9.693   7.339   5.601  0.0310 -0.3067 -0.6938
  454MOL0     C62561   9.705   7.427   5.489  0.1120 -0.4070 -0.0422
  454MOL0     O62562   9.663   7.797   5.496 -0.1715  0.3895 -1.0461
  454MOL0     C62563   9.562   7.889   5.256 -1.0313  0.2538  0.2181
  454MOL0     C62564   9.531   7.955   5.136 -0.4666 -1.2849 -0.0695
  454MOL0     N62565   9.856   8.417   4.702 -0.2080 -0.6073  0.8523
  454MOL0     N62566   9.801   8.536   4.678  0.0041 -0.2781  0.1486
  454MOL0     C62567   8.962   9.022   4.097  0.0769 -0.0900  0.4323
  454MOL0     C62568   8.817   9.028   4.106 -0.7550 -0.1063  0.6337
  454MOL0     C62569   8.411   9.010   4.135  0.5559  1.3166  0.8740
  454MOL0     C62570   8.369   8.952   4.253 -0.8791  0.1111 -0.6018
  454MOL0     C62571   8.247   8.894   4.276  0.0613  0.3958 -0.3045
  454MOL0     C62572   8.153   8.891   4.169  0.1585 -0.7308 -2.1963
  454MOL0     O62573   8.031   8.842   4.181 -0.0559 -0.7708 -0.2894
  454MOL0     C62574   8.017   8.705   4.218 -0.9673 -1.1782  1.0732
  454MOL0     C62575   8.037   8.617   4.095  0.3030  0.9933  0.2690
  454MOL0     C62576   7.947   8.643   3.980 -0.1589 -0.5575  1.0410
  454MOL0     C62577   8.013   8.591   3.849  0.1805  0.1966  0.2869
  454MOL0     C62578   7.940   8.623   3.723 -1.2319 -0.9334 -0.4284
  454MOL0     C62579   7.874   8.639   3.623 -0.5487  0.7432  0.5845
  454MOL0     C62580   8.187   8.943   4.050  0.6964 -0.6510 -0.4522
  454MOL0     C62581   8.317   9.000   4.032 -0.0588  0.3173  0.6313
  454MOL0     C62582   8.322   9.082   3.904  0.7013 -0.0729  0.4372
  454MOL0     H62583   8.781   9.070   4.438  2.3816 -1.9340  0.9106
  454MOL0     H62584   9.022   9.092   4.434 -1.2263 -1.8617  0.6934
  454MOL0     H62585   9.233   9.163   4.043  1.0793 -0.0761  0.9207
  454MOL0     H62586   9.208   8.986   4.023 -0.6057  0.2964 -0.2104
  454MOL0     H62587   9.440   9.079   3.959 -2.3725 -0.6264 -1.4524
  454MOL0     H62588   9.438   9.146   4.119 -0.5475  3.4336 -3.4063
  454MOL0     H62589   9.385   8.869   4.156 -1.1918  2.4137  1.1816
  454MOL0     H62590   9.484   8.865   4.003  1.9596 -0.3460  0.3098
  454MOL0     H62591   9.679   8.962   4.118 -1.3274 -0.0312 -1.9582
  454MOL0     H62592   9.575   9.033   4.237 -1.6042  0.6011 -1.0922
  454MOL0     H62593   9.640   8.740   4.186 -0.0456 -0.9244 -0.0943
  454MOL0     H62594   9.539   8.789   4.319  1.7406 -0.9549  1.0828
  454MOL0     H62595   9.813   8.920   4.309  0.2412  0.4152 -0.3587
  454MOL0     H62596   9.698   8.918   4.429 -0.6815 -1.3017  1.8162
  454MOL0     H62597   9.861   8.770   4.498  0.4869 -0.9501  0.2601
  454MOL0     H62598   9.881   8.679   4.358  0.3635 -1.6729  3.1262
  454MOL0     H62599   9.649   8.700   4.558 -0.0219  2.3157 -0.2090
  454MOL0     H62600   9.623   8.602   4.410 -0.0467  0.7132  0.2081
  454MOL0     H62601   9.800   8.395   4.378 -2.1134  2.2004 -0.4710
  454MOL0     H62602  10.020   8.216   4.658 -0.5857  2.7429  0.8176
  454MOL0     H62603   9.966   8.172   4.494 -3.4382 -1.9807  0.3255
  454MOL0     H62604   9.763   8.077   4.550  0.4360 -0.8655 -0.0077
  454MOL0     H62605   9.900   7.997   4.623 -1.4137 -1.8569 -1.1767
  454MOL0     H62606   9.848   8.092   4.854  2.3816  1.9516 -0.5823
  454MOL0     H62607   9.742   8.215   4.791 -0.8938 -0.1079 -1.3944
  454MOL0     H62608   9.590   8.048   4.703  2.9654 -0.1369 -2.3193
  454MOL0     H62609   9.684   7.925   4.764 -5.5725 -3.0862 -2.1757
  454MOL0     H62610   9.823   7.921   4.971 -0.6675  0.8249  0.1806
  454MOL0     H62611   9.989   7.806   5.096 -0.7280 -2.4938 -1.1867
  454MOL0     H62612   9.905   7.662   5.142 -0.2024  0.4420 -1.9650
  454MOL0     H62613   9.958   7.782   5.264 -0.0161  2.5884 -0.1303
  454MOL0     H62614   9.917   7.661   5.637  1.1783 -1.9418 -1.2239
  454MOL0     H62615   9.899   7.512   5.806 -0.9780 -0.2648  1.0809
  454MOL0     H62616   9.625   7.136   5.787  0.0472 -0.3622 -1.0444
  454MOL0     H62617   9.785   7.098   5.720 -1.3350 -0.5538  0.3986
  454MOL0     H62618   9.733   7.121   6.010 -1.4123  1.4329 -0.9554
  454MOL0     H62619   9.703   6.976   5.913 -1.2663  0.7437  1.0645
  454MOL0     H62620   9.958   7.130   5.938  2.5223 -1.2153  4.0037
  454MOL0     H62621   9.937   6.980   5.835 -4.0790 -3.2410 -0.0157
  454MOL0     H62622  10.013   6.854   6.027  1.3954 -0.3815  1.5798
  454MOL0     H62623   9.856   6.903   6.089 -0.7054 -0.9657 -1.9529
  454MOL0     H62624  10.118   7.036   6.150 -0.1108  2.0120  2.1257
  454MOL0     H62625   9.976   7.126   6.169 -1.8940 -0.4443  4.1722
  454MOL0     H62626   9.997   6.836   6.289 -1.0939  0.2249  2.1422
  454MOL0     H62627   9.890   6.963   6.336  0.7634  5.1019 -0.0725
  454MOL0     H62628  10.076   7.099   6.429  0.9996  0.2464  1.2091
  454MOL0     H62629  10.195   6.987   6.385 -0.1914  2.6408 -0.5073
  454MOL0     H62630   9.983   6.929   6.589 -0.4470 -1.1151 -0.6446
  454MOL0     H62631  10.152   6.959   6.624  0.6584  0.7898 -1.9559
  454MOL0     H62632   9.625   7.253   5.595 -3.6782  2.1122  2.0249
  454MOL0     H62633   9.651   7.427   5.395  0.9016 -3.2962 -0.5820
  454MOL0     H62634   9.488   7.881   5.335  1.8299 -1.6819  2.9494
  454MOL0     H62635   9.442   8.015   5.119  0.7496  1.4579  2.4022
  454MOL0     H62636   9.013   9.008   4.002 -0.9076  0.6469 -0.2269
  454MOL0     H62637   8.761   9.019   4.014  0.5287  0.9774 -0.2994
  454MOL0     H62638   8.437   8.949   4.338  0.9567 -0.4452 -2.0410
  454MOL0     H62639   8.227   8.858   4.376 -0.9534 -1.0075 -0.9868
  454MOL0     H62640   8.092   8.671   4.290 -2.7464 -4.9249  1.4111
  454MOL0     H62641   7.915   8.700   4.257 -2.3007  3.5784 -1.1394
  454MOL0     H62642   8.031   8.509   4.115 -2.4227  0.0038 -4.4014
  454MOL0     H62643   8.139   8.643   4.066 -0.3606  1.3940 -1.8639
  454MOL0     H62644   7.856   8.582   3.988 -0.4177 -0.3209  0.0021
  454MOL0     H62645   7.920   8.744   3.949  0.5392 -0.4943  0.6124
  454MOL0     H62646   8.028   8.484   3.860  0.5369  0.1681 -0.4118
  454MOL0     H62647   8.113   8.637   3.844  1.4092 -2.3910 -2.2943
  454MOL0     H62648   7.826   8.642   3.527  1.9084 -0.6495 -0.7934
  454MOL0     H62649   8.115   8.950   3.969 -1.0432 -1.6571  0.9233
  454MOL0     H62650   8.322   9.189   3.926  1.1375 -0.3896  2.1216
  454MOL0     H62651   8.417   9.084   3.849 -0.5225 -3.2508 -2.1093
  454MOL0     H62652   8.242   9.049   3.838 -0.8554  3.0942  0.5502
  455MOL0     O62653  11.293   8.929  11.368 -0.3807  0.0630 -0.1464
  455MOL0     C62654  11.354   9.020  11.419 -0.3430 -0.3555  0.3345
  455MOL0     O62655  11.355   9.150  11.369 -0.0137  0.2455  0.4593
  455MOL0     C62656  11.266   9.193  11.275  0.1016  1.0597  0.0023
  455MOL0     C62657  11.167   9.287  11.303 -0.3962 -0.4536  0.5308
  455MOL0     C62658  11.076   9.330  11.209 -0.4193 -0.6472 -0.8558
  455MOL0     C62659  11.064   9.267  11.087 -0.2630  0.1372 -0.0790
  455MOL0     O62660  10.966   9.312  11.003 -0.2248  0.1793 -0.2309
  455MOL0     C62661  10.976   9.290  10.860 -0.5350  0.2211 -0.4465
  455MOL0     C62662  10.842   9.335  10.805  0.3147 -0.0623 -0.7654
  455MOL0     C62663  10.837   9.313  10.654  0.2616  0.3578 -0.7703
  455MOL0     C62664  10.683   9.325  10.605 -1.3109  0.2508 -0.9173
  455MOL0     C62665  10.647   9.238  10.487 -0.6089 -1.0149 -1.0228
  455MOL0     C62666  10.506   9.276  10.443 -0.1470 -0.4122  1.1408
  455MOL0     C62667  10.439   9.170  10.366  0.5422  0.5262  0.4893
  455MOL0     C62668  10.289   9.176  10.358  0.5478  0.1162  0.1211
  455MOL0     N62669  10.232   9.175  10.500 -0.2199  0.0772  0.8105
  455MOL0     C62670  10.228   9.055  10.571  0.3844  0.4380 -0.0609
  455MOL0     C62671  10.182   9.096  10.694  0.6407 -0.1823  0.6014
  455MOL0     C62672  10.159   9.022  10.827 -0.3216  0.0982  0.4256
  455MOL0     C62673  10.216   9.099  10.947  0.9998  0.9615 -0.7414
  455MOL0     C62674  10.234   9.004  11.068 -0.4303  0.2409  0.2308
  455MOL0     C62675  10.203   9.059  11.199 -0.9721 -0.0549 -0.1106
  455MOL0     O62676  10.130   8.952  11.274 -0.5576  0.2388  0.5849
  455MOL0     C62677  10.207   8.887  11.370 -0.4517  0.1362  0.6281
  455MOL0     C62678  10.269   8.966  11.465 -0.2935  0.0714  0.1281
  455MOL0     C62679  10.356   8.907  11.564  0.0484  0.9966  0.7615
  455MOL0     C62680  10.418   9.002  11.660 -0.6679 -0.4957  0.7576
  455MOL0     C62681  10.377   8.758  11.568 -0.2197 -0.4780 -0.4034
  455MOL0     C62682  10.471   8.692  11.654 -0.1975 -0.7332 -0.3419
  455MOL0     O62683  10.513   8.759  11.769 -0.2417 -0.5938  0.2777
  455MOL0     C62684  10.592   8.695  11.862  0.8945 -0.7505 -0.5922
  455MOL0     C62685  10.648   8.788  11.957 -0.2594  0.5800 -0.2254
  455MOL0     C62686  10.735   8.741  12.054 -0.8511  0.1109  0.0699
  455MOL0     C62687  10.783   8.611  12.063  0.0602  0.1140  0.2853
  455MOL0     O62688  10.875   8.562  12.156  0.0669 -0.3564 -0.0704
  455MOL0     C62689  10.882   8.636  12.273  0.6053  1.2192 -0.0741
  455MOL0     C62690  10.971   8.582  12.378 -0.6322  0.3912 -0.1642
  455MOL0     C62691  10.984   8.675  12.506  1.5734  0.6535 -0.0781
  455MOL0     C62692  10.874   8.665  12.610  0.0373  0.4534 -0.3703
  455MOL0     C62693  10.892   8.743  12.740  0.3928  0.5835 -0.1326
  455MOL0     C62694  11.005   8.686  12.818  0.8540 -0.0544  0.4684
  455MOL0     C62695  11.006   8.759  12.954 -1.0276  0.1590 -0.2557
  455MOL0     C62696  11.134   8.724  13.041 -0.3877  0.5996 -0.0218
  455MOL0    Cl62697  11.288   8.738  12.948 -0.6090  0.0988  0.0872
  455MOL0     C62698  10.732   8.522  11.969  1.2163  0.5402  0.2159
  455MOL0     C62699  10.637   8.563  11.876  0.5558  0.3468  0.1778
  455MOL0     O62700  10.494   8.575  11.620  1.0210 -0.0091  1.1448
  455MOL0     C62701  10.303   8.685  11.479  0.4229 -0.1677  0.5792
  455MOL0     C62702  10.222   8.749  11.379 -0.4911  0.3306  0.5216
  455MOL0     N62703  10.144   9.223  10.673  0.9328 -0.4703 -0.1573
  455MOL0     N62704  10.164   9.275  10.560 -0.1187 -0.1681 -0.0710
  455MOL0     C62705  11.160   9.167  11.054  0.2969  0.1860 -0.2491
  455MOL0     C62706  11.263   9.134  11.146 -0.7888 -0.1808 -0.5357
  455MOL0     C62707  11.438   9.005  11.542  0.2747  0.1441  0.5588
  455MOL0     C62708  11.467   9.117  11.613 -0.1660  0.3450  0.3105
  455MOL0     C62709  11.518   9.116  11.739 -0.3076 -0.3257 -0.7036
  455MOL0     C62710  11.558   9.000  11.798 -0.6990 -1.0538 -0.5342
  455MOL0     O62711  11.611   8.979  11.926 -0.2458 -0.3479 -0.1260
  455MOL0     C62712  11.602   9.088  12.024  0.2713  0.7261  0.2293
  455MOL0     C62713  11.635   9.029  12.164 -0.3996 -0.4775 -0.2682
  455MOL0     C62714  11.633   9.138  12.268 -0.7819  0.7826  0.2186
  455MOL0     C62715  11.672   9.081  12.408  0.2496  0.0954 -0.7808
  455MOL0     C62716  11.661   9.207  12.487  0.1658  1.2317  0.1777
  455MOL0     C62717  11.643   9.310  12.547 -0.0301  0.3902 -0.4974
  455MOL0     C62718  11.524   8.886  11.731  0.3422 -0.6524 -0.1461
  455MOL0     C62719  11.464   8.886  11.604  0.7092 -0.0529 -0.1244
  455MOL0     C62720  11.413   8.754  11.556  1.0275 -0.6290  0.2613
  455MOL0     H62721  11.182   9.327  11.404 -2.0254  0.8529  0.3008
  455MOL0     H62722  11.018   9.420  11.226  2.1980  1.6076 -2.9528
  455MOL0     H62723  10.992   9.184  10.835 -1.3868  0.3730 -1.6664
  455MOL0     H62724  11.053   9.357  10.820 -0.7369  1.5025  1.2084
  455MOL0     H62725  10.765   9.276  10.856  0.0138 -2.6786 -3.9567
  455MOL0     H62726  10.839   9.444  10.821 -0.5352 -0.2980  0.9013
  455MOL0     H62727  10.901   9.378  10.594  2.4526  0.3914  1.4010
  455MOL0     H62728  10.862   9.208  10.636  0.4835  0.1858  0.4348
  455MOL0     H62729  10.619   9.301  10.691  0.5643  1.8252  1.0252
  455MOL0     H62730  10.670   9.428  10.569 -0.5072  0.6757 -0.0298
  455MOL0     H62731  10.654   9.135  10.523  0.3873  0.4721  3.7857
  455MOL0     H62732  10.727   9.262  10.415  0.8834  2.9259  1.6009
  455MOL0     H62733  10.446   9.305  10.529 -1.2498 -0.2528  0.3430
  455MOL0     H62734  10.506   9.359  10.371  0.0794 -1.6721 -0.3524
  455MOL0     H62735  10.472   9.075  10.409 -1.6536  0.1651  1.5066
  455MOL0     H62736  10.468   9.177  10.261 -1.6533 -0.2248 -0.2152
  455MOL0     H62737  10.246   9.263  10.307 -0.7141 -1.3667 -1.4758
  455MOL0     H62738  10.252   9.089  10.303  1.9327  0.4638 -1.4540
  455MOL0     H62739  10.265   8.960  10.531  0.1178 -0.6815  2.2116
  455MOL0     H62740  10.218   8.930  10.818 -1.2291 -0.4872  0.4182
  455MOL0     H62741  10.057   8.985  10.836 -1.2509  1.2369 -3.4027
  455MOL0     H62742  10.315   9.126  10.910  1.0806  0.8018 -0.6421
  455MOL0     H62743  10.164   9.195  10.960  2.7530  1.8664 -0.1198
  455MOL0     H62744  10.178   8.911  11.051 -2.1119  1.3467 -0.4862
  455MOL0     H62745  10.335   8.963  11.070 -0.1934  0.8737  1.7721
  455MOL0     H62746  10.303   9.071  11.241 -0.4267 -1.5048 -0.9314
  455MOL0     H62747  10.150   9.155  11.199  0.2597  0.6477  0.2854
  455MOL0     H62748  10.260   9.074  11.471  3.1915  0.4755  0.1846
  455MOL0     H62749  10.519   8.981  11.696 -0.5278 -1.2770 -0.0603
  455MOL0     H62750  10.348   9.008  11.744 -1.7634 -1.0223 -0.0967
  455MOL0     H62751  10.427   9.104  11.621 -0.3654 -0.6829  0.3384
  455MOL0     H62752  10.610   8.889  11.967 -1.7595 -0.0450  0.9155
  455MOL0     H62753  10.780   8.815  12.119  0.5023  0.7079 -1.4622
  455MOL0     H62754  10.926   8.736  12.265  0.9189  1.1871  1.0601
  455MOL0     H62755  10.784   8.664  12.313  1.1985  5.0507 -0.8177
  455MOL0     H62756  10.935   8.480  12.398 -4.6265  1.4034 -1.1935
  455MOL0     H62757  11.070   8.579  12.332  0.1085  3.0255  1.0687
  455MOL0     H62758  10.994   8.780  12.476 -0.6014  1.0968  0.5742
  455MOL0     H62759  11.075   8.637  12.552  0.9245  1.0044  1.5753
  455MOL0     H62760  10.866   8.559  12.637  1.2856  0.2090 -0.8889
  455MOL0     H62761  10.781   8.696  12.561 -0.5833 -1.0386 -0.1803
  455MOL0     H62762  10.904   8.850  12.721  0.1904  0.7390  0.5763
  455MOL0     H62763  10.800   8.741  12.799  1.4119  1.2049  1.5512
  455MOL0     H62764  11.101   8.690  12.765  1.0321  2.9867  0.8653
  455MOL0     H62765  10.992   8.578  12.834  1.3849 -0.3809 -1.1426
  455MOL0     H62766  10.915   8.732  13.008  0.5729 -3.3830  0.9819
  455MOL0     H62767  11.000   8.865  12.928  0.3142  1.1732  3.0990
  455MOL0     H62768  11.129   8.618  13.070 -0.0663  0.3991 -0.6883
  455MOL0     H62769  11.145   8.779  13.135  0.6323 -1.2527  1.0117
  455MOL0     H62770  10.766   8.419  11.956 -2.5240 -0.9307  0.9301
  455MOL0     H62771  10.614   8.499  11.791 -0.5654  1.4365 -0.3813
  455MOL0     H62772  10.288   8.577  11.478  0.9145 -0.2713 -1.6431
  455MOL0     H62773  10.170   8.683  11.309 -3.4409  0.8482  2.0525
  455MOL0     H62774  11.148   9.121  10.957  0.7767  0.1515 -0.2931
  455MOL0     H62775  11.325   9.050  11.117  1.2433 -0.5353  3.9259
  455MOL0     H62776  11.444   9.210  11.562 -0.2990  0.2497  0.1954
  455MOL0     H62777  11.518   9.216  11.780 -4.4300 -0.4032 -0.0606
  455MOL0     H62778  11.678   9.164  12.001 -0.2044  1.5891  1.4128
  455MOL0     H62779  11.503   9.135  12.017 -0.8827 -1.6850 -0.8727
  455MOL0     H62780  11.740   8.999  12.171 -0.6413 -1.4632 -0.8175
  455MOL0     H62781  11.561   8.954  12.194  0.2239 -0.9260  0.1695
  455MOL0     H62782  11.695   9.225  12.248  0.4061  0.4725  2.2184
  455MOL0     H62783  11.529   9.170  12.268 -0.6280  1.2838  0.2413
  455MOL0     H62784  11.778   9.053  12.411  0.2293  0.1003  0.4410
  455MOL0     H62785  11.612   8.998  12.446  0.3415 -0.7243 -2.3503
  455MOL0     H62786  11.621   9.400  12.600  1.6390  0.8154 -0.4681
  455MOL0     H62787  11.546   8.791  11.778 -2.6568 -2.1278 -1.5156
  455MOL0     H62788  11.444   8.734  11.453  0.8994 -0.7940  0.2559
  455MOL0     H62789  11.446   8.672  11.620 -1.1676 -1.0161  0.9530
  455MOL0     H62790  11.304   8.748  11.557  0.8435  1.5063 -0.7367
  456MOL0     O62791  10.121   0.477   0.533  0.2989 -0.4466  0.2554
  456MOL0     C62792  10.172   0.366   0.528  0.4941 -0.4316 -0.3667
  456MOL0     O62793  10.210   0.302   0.413 -0.4984  0.0860 -1.3161
  456MOL0     C62794  10.245   0.387   0.311  0.9262 -1.1154  0.3178
  456MOL0     C62795  10.369   0.377   0.258 -0.0426 -0.1383 -0.3450
  456MOL0     C62796  10.403   0.451   0.143 -0.2403  0.1601  1.0334
  456MOL0     C62797  10.310   0.532   0.078  0.3086 -0.3034 -0.1766
  456MOL0     O62798  10.324   0.602  -0.038 -0.0691  0.0949  0.0054
  456MOL0     C62799  10.455   0.635  -0.076  0.9853 -0.2050 -0.1708
  456MOL0     C62800  10.435   0.752  -0.172 -1.1526  0.3454 -1.1673
  456MOL0     C62801  10.370   0.708  -0.310 -0.2333  0.8154 -1.0289
  456MOL0     C62802  10.223   0.739  -0.325  0.3611 -0.5149 -0.3905
  456MOL0     C62803  10.171   0.720  -0.467 -1.5214 -0.1288  0.3924
  456MOL0     C62804  10.187   0.586  -0.527 -0.2543  0.0764 -0.3090
  456MOL0     C62805  10.117   0.480  -0.440 -0.0611 -0.3876  0.4932
  456MOL0     C62806  10.138   0.341  -0.503  0.4130  0.7754 -0.2472
  456MOL0     N62807  10.284   0.312  -0.527  0.2768 -0.3245  0.2208
  456MOL0     C62808  10.391   0.306  -0.443  0.1417 -0.4815  0.3477
  456MOL0     C62809  10.501   0.293  -0.526  0.5059 -0.4731 -0.4490
  456MOL0     C62810  10.643   0.275  -0.465  0.3020  0.8594  0.7477
  456MOL0     C62811  10.708   0.141  -0.516  0.3916  0.7692 -0.1660
  456MOL0     C62812  10.824   0.108  -0.421 -0.5279  0.3356  0.0780
  456MOL0     C62813  10.791   0.094  -0.274  0.4098 -0.9707  0.7497
  456MOL0     O62814  10.878   0.014  -0.197  0.5473  0.2700  0.2694
  456MOL0     C62815  10.839  -0.044  -0.077  0.8328  0.2639  0.7743
  456MOL0     C62816  10.921  -0.142  -0.019 -0.0923  0.0350  0.3038
  456MOL0     C62817  10.897  -0.191   0.110  0.0965 -0.2559 -0.0507
  456MOL0     C62818  10.987  -0.300   0.161 -0.0747  0.3183  0.5443
  456MOL0     C62819  10.786  -0.138   0.192  0.1839 -0.1648  0.0068
  456MOL0     C62820  10.736  -0.186   0.331  0.5017 -0.0230 -0.1435
  456MOL0     O62821  10.606  -0.147   0.361 -0.5608  0.8112  0.0070
  456MOL0     C62822  10.527  -0.207   0.450 -0.0082  0.7587 -0.5148
  456MOL0     C62823  10.403  -0.148   0.478  0.8151  0.7413  0.7518
  456MOL0     C62824  10.314  -0.218   0.549  0.4697  0.3972 -0.1150
  456MOL0     C62825  10.342  -0.338   0.615  0.2208 -0.2072  0.1227
  456MOL0     O62826  10.255  -0.378   0.707  1.0656 -0.1350 -0.1015
  456MOL0     C62827  10.296  -0.475   0.806  0.7940  0.3056  0.1355
  456MOL0     C62828  10.175  -0.518   0.891  0.1847  0.0466  0.5304
  456MOL0     C62829  10.199  -0.643   0.972 -0.1721 -0.6564 -0.0457
  456MOL0     C62830  10.152  -0.619   1.117  0.6007  0.2418  1.3054
  456MOL0     C62831  10.225  -0.510   1.191 -0.2408  0.5642  0.0505
  456MOL0     C62832  10.364  -0.559   1.221 -0.6860  0.0550 -0.8417
  456MOL0     C62833  10.426  -0.476   1.339 -0.1882  0.2585  0.6287
  456MOL0     C62834  10.554  -0.532   1.388  0.2944 -0.6967  0.1185
  456MOL0    Cl62835  10.529  -0.687   1.452 -0.1372  0.4320  0.2493
  456MOL0     C62836  10.462  -0.403   0.585  0.0246 -0.4829 -0.1992
  456MOL0     C62837  10.551  -0.344   0.491 -0.1286 -0.8288 -0.3013
  456MOL0     O62838  10.803  -0.262   0.398 -1.1057 -0.2816 -0.1393
  456MOL0     C62839  10.714  -0.042   0.128  0.0762 -0.1108  0.0937
  456MOL0     C62840  10.740   0.009   0.003  0.2504 -0.5626  0.7877
  456MOL0     N62841  10.459   0.299  -0.656  0.3013 -0.4631 -1.0022
  456MOL0     N62842  10.329   0.308  -0.655 -0.0209  0.0012  0.2079
  456MOL0     C62843  10.185   0.553   0.137  0.1720 -0.9507  0.6081
  456MOL0     C62844  10.150   0.475   0.249 -0.5979 -0.6086 -0.8972
  456MOL0     C62845  10.199   0.274   0.655  0.1304 -0.1135  0.1279
  456MOL0     C62846  10.291   0.170   0.649 -0.4858 -0.9335 -0.7314
  456MOL0     C62847  10.308   0.089   0.764 -0.6123  0.2587 -0.2615
  456MOL0     C62848  10.224   0.087   0.865 -0.0353 -0.3149  0.2568
  456MOL0     O62849  10.253  -0.004   0.964 -0.2974  1.1884  0.0958
  456MOL0     C62850  10.332   0.035   1.071 -0.5273  0.7332 -0.3780
  456MOL0     C62851  10.367  -0.088   1.156 -0.4669 -0.1511 -0.0437
  456MOL0     C62852  10.226  -0.129   1.218  0.2872  0.1628 -0.1294
  456MOL0     C62853  10.217  -0.061   1.358 -0.2476 -0.0444 -0.5175
  456MOL0     C62854  10.291  -0.146   1.459  0.0482  0.2885 -1.0649
  456MOL0     C62855  10.350  -0.222   1.529 -0.6686  0.3254 -0.2018
  456MOL0     C62856  10.119   0.177   0.859 -0.2566  0.3327 -0.4428
  456MOL0     C62857  10.114   0.274   0.760  1.1479  1.1577 -2.0098
  456MOL0     C62858   9.992   0.366   0.777 -0.2823  0.2255  0.9456
  456MOL0     H62859  10.443   0.303   0.287 -0.0344 -0.8935 -2.1384
  456MOL0     H62860  10.506   0.442   0.111 -0.7862 -0.3296 -0.7437
  456MOL0     H62861  10.495   0.543  -0.120  2.4549 -0.0171  0.7060
  456MOL0     H62862  10.526   0.670  -0.001  1.1514 -3.7367  1.5157
  456MOL0     H62863  10.382   0.830  -0.116  0.3255 -0.4414  1.4899
  456MOL0     H62864  10.538   0.783  -0.194 -0.9010 -1.1088 -2.1782
  456MOL0     H62865  10.425   0.759  -0.389  1.8160  0.2572 -0.0228
  456MOL0     H62866  10.386   0.603  -0.334  1.4593  0.4420  1.3785
  456MOL0     H62867  10.174   0.680  -0.247  1.2895 -2.0049 -0.8931
  456MOL0     H62868  10.209   0.846  -0.308 -2.9462 -0.9406  0.2255
  456MOL0     H62869  10.226   0.782  -0.539 -4.0526  0.4822 -1.1409
  456MOL0     H62870  10.068   0.753  -0.483 -0.4197  2.6447 -1.8367
  456MOL0     H62871  10.136   0.585  -0.623  0.1419 -2.1253 -0.5573
  456MOL0     H62872  10.293   0.561  -0.529 -0.5842 -1.5553  0.4627
  456MOL0     H62873  10.014   0.511  -0.421 -0.0577 -0.7588  1.1643
  456MOL0     H62874  10.167   0.478  -0.342  2.0500  1.2804 -0.4564
  456MOL0     H62875  10.096   0.267  -0.434  2.1198 -0.2137 -0.2158
  456MOL0     H62876  10.090   0.337  -0.600  1.4009  0.7589 -0.7513
  456MOL0     H62877  10.378   0.305  -0.335  3.3165  2.0970  0.8931
  456MOL0     H62878  10.636   0.282  -0.356 -1.2127  1.7918  0.6100
  456MOL0     H62879  10.705   0.356  -0.506 -1.1659  1.1818 -0.9794
  456MOL0     H62880  10.637   0.058  -0.510  1.7530 -0.5967 -2.0057
  456MOL0     H62881  10.725   0.148  -0.623 -2.0888  3.4859 -0.5144
  456MOL0     H62882  10.882   0.020  -0.453 -1.1699 -0.0940  0.0778
  456MOL0     H62883  10.902   0.181  -0.443  0.8217 -1.4593 -1.4366
  456MOL0     H62884  10.776   0.199  -0.246 -4.0198 -2.0803  3.4621
  456MOL0     H62885  10.689   0.056  -0.266  0.2317 -0.7807 -0.5349
  456MOL0     H62886  11.002  -0.182  -0.079 -2.7574 -1.2838 -2.6580
  456MOL0     H62887  11.039  -0.269   0.252 -0.7631  1.8325  0.4379
  456MOL0     H62888  11.060  -0.325   0.083 -1.8558 -0.4814 -0.9575
  456MOL0     H62889  10.932  -0.393   0.178  1.1730 -0.7168 -0.7928
  456MOL0     H62890  10.379  -0.056   0.427  1.1515  1.3572  1.6809
  456MOL0     H62891  10.219  -0.174   0.578  1.2618  1.0152  1.6806
  456MOL0     H62892  10.320  -0.565   0.749 -0.7478 -1.7913  2.6112
  456MOL0     H62893  10.381  -0.442   0.867  0.4271 -1.8457  1.9247
  456MOL0     H62894  10.133  -0.436   0.950  0.0703 -0.5506  1.3006
  456MOL0     H62895  10.096  -0.533   0.817  1.2095  0.9841 -0.8132
  456MOL0     H62896  10.307  -0.661   0.963  0.2390  1.2951  0.4967
  456MOL0     H62897  10.137  -0.725   0.936  0.6382 -1.1411 -0.3464
  456MOL0     H62898  10.154  -0.714   1.171  2.0505 -0.9543 -0.7081
  456MOL0     H62899  10.046  -0.595   1.106  0.8711  1.2253  0.6198
  456MOL0     H62900  10.206  -0.411   1.149 -5.1886 -0.2971 -0.4421
  456MOL0     H62901  10.177  -0.511   1.290  0.1021 -2.8128  0.2895
  456MOL0     H62902  10.421  -0.540   1.130 -0.4997  1.5519 -0.4386
  456MOL0     H62903  10.367  -0.663   1.255  1.3179  0.5571  0.7817
  456MOL0     H62904  10.352  -0.458   1.418 -1.2055 -1.1171  0.0284
  456MOL0     H62905  10.452  -0.380   1.294  1.7633 -0.3702  0.3481
  456MOL0     H62906  10.591  -0.459   1.460  0.4573 -1.5928  0.9677
  456MOL0     H62907  10.618  -0.541   1.300 -1.5666  1.9114 -1.6339
  456MOL0     H62908  10.494  -0.496   0.632  3.2946  0.7499  0.2879
  456MOL0     H62909  10.643  -0.391   0.458  0.7128  0.9859 -0.6734
  456MOL0     H62910  10.634   0.011   0.179  0.4687 -0.7711  1.4328
  456MOL0     H62911  10.689   0.094  -0.041  3.4995  0.3648 -1.5556
  456MOL0     H62912  10.131   0.637   0.094  1.1040 -0.6910 -0.1053
  456MOL0     H62913  10.049   0.489   0.286 -0.6343 -0.6394 -0.9837
  456MOL0     H62914  10.356   0.156   0.563  3.3649 -0.7665  1.9010
  456MOL0     H62915  10.384   0.012   0.769 -1.3170 -0.5439 -1.3451
  456MOL0     H62916  10.423   0.087   1.039  0.1171  0.6180  1.1615
  456MOL0     H62917  10.276   0.112   1.124  2.4854  1.3339  2.2733
  456MOL0     H62918  10.448  -0.061   1.225  1.4712 -1.9094 -1.4949
  456MOL0     H62919  10.414  -0.166   1.096 -2.2970 -1.6303  0.3664
  456MOL0     H62920  10.142  -0.086   1.163 -2.3150 -3.4855  0.6287
  456MOL0     H62921  10.204  -0.234   1.237  4.4157 -0.7277  0.6694
  456MOL0     H62922  10.117  -0.051   1.399 -1.4508 -0.4566 -3.1404
  456MOL0     H62923  10.271   0.034   1.351 -1.4647  0.8115  1.0002
  456MOL0     H62924  10.391  -0.288   1.602 -1.1875 -1.2450 -1.2732
  456MOL0     H62925  10.049   0.173   0.942 -1.2366  1.3374 -1.1945
  456MOL0     H62926  10.031   0.462   0.813 -0.4883  0.4942  0.4635
  456MOL0     H62927   9.942   0.401   0.686  1.8563  1.1439  0.0392
  456MOL0     H62928   9.914   0.328   0.842 -2.9216  4.4877  0.6520
  457MOL0     O62929   1.272   4.540  10.196  0.7730  0.1804 -0.3926
  457MOL0     C62930   1.250   4.515  10.316  0.0060 -0.0168  1.1396
  457MOL0     O62931   1.123   4.477  10.369 -0.4053  0.3117  0.3489
  457MOL0     C62932   1.011   4.441  10.294 -0.6595  0.8190  0.3941
  457MOL0     C62933   0.906   4.381  10.361  0.5272  0.2428  0.3624
  457MOL0     C62934   0.790   4.336  10.289  0.5472  0.4566 -0.0952
  457MOL0     C62935   0.764   4.363  10.150 -0.3596 -0.9522  0.0656
  457MOL0     O62936   0.648   4.317  10.095  0.2641 -0.2192 -0.3659
  457MOL0     C62937   0.549   4.257  10.175 -0.0410  0.0725 -0.4586
  457MOL0     C62938   0.425   4.241  10.089  0.1226  0.1465 -0.1839
  457MOL0     C62939   0.320   4.151  10.164 -1.6513 -0.9432  0.0355
  457MOL0     C62940   0.257   4.219  10.282 -0.1594  0.1153  0.6165
  457MOL0     C62941   0.126   4.152  10.327 -0.3824 -0.5559  0.0722
  457MOL0     C62942   0.014   4.139  10.224 -0.1062  0.0140  0.6243
  457MOL0     C62943  -0.117   4.130  10.309  0.9114 -0.4656 -0.1332
  457MOL0     C62944  -0.170   4.276  10.346  0.5675 -0.2158  0.4688
  457MOL0     N62945  -0.320   4.281  10.351  0.0746  0.1192  0.3073
  457MOL0     C62946  -0.405   4.273  10.236 -0.6981  0.2212  0.2545
  457MOL0     C62947  -0.532   4.277  10.286 -0.9833  0.8603 -0.5717
  457MOL0     C62948  -0.659   4.276  10.211  0.4403 -0.5763 -0.0390
  457MOL0     C62949  -0.735   4.146  10.231 -0.2260  0.6723  0.4951
  457MOL0     C62950  -0.863   4.147  10.140  0.5450 -0.4091  0.8990
  457MOL0     C62951  -0.917   4.006  10.132 -0.5033  0.2537 -0.4725
  457MOL0     O62952  -0.988   3.994  10.006  0.5786  0.1497 -0.5332
  457MOL0     C62953  -1.130   4.017  10.010 -0.3720  0.6466 -0.2928
  457MOL0     C62954  -1.204   4.044  10.128  0.4526 -0.1618  1.1386
  457MOL0     C62955  -1.341   4.065  10.115  1.0184 -1.1471 -0.0033
  457MOL0     C62956  -1.419   4.079  10.249 -0.1882  0.1798 -0.5853
  457MOL0     C62957  -1.415   4.042   9.991  0.2372  0.0501 -0.8224
  457MOL0     C62958  -1.561   4.020   9.982  0.0574  0.0757 -0.6172
  457MOL0     O62959  -1.597   3.914   9.901 -0.5114 -0.1619 -0.7670
  457MOL0     C62960  -1.728   3.887   9.896  0.1052 -0.5693 -0.4481
  457MOL0     C62961  -1.775   3.891   9.768 -0.2879  0.7983 -0.2175
  457MOL0     C62962  -1.912   3.862   9.754  0.1026 -0.6509  0.4928
  457MOL0     C62963  -1.997   3.821   9.848 -0.6452 -0.0559 -0.0022
  457MOL0     O62964  -2.123   3.787   9.798 -0.0388 -0.2723 -0.5265
  457MOL0     C62965  -2.201   3.692   9.878 -0.6831 -0.3890  0.2278
  457MOL0     C62966  -2.337   3.685   9.822  0.0293 -0.3513  0.1209
  457MOL0     C62967  -2.345   3.627   9.681  0.3885  0.1975  0.0978
  457MOL0     C62968  -2.355   3.476   9.682 -0.8063  0.2849  0.3468
  457MOL0     C62969  -2.346   3.414   9.541 -0.2728 -0.2441  0.9845
  457MOL0     C62970  -2.296   3.274   9.546 -0.1132 -0.6790  0.1498
  457MOL0     C62971  -2.240   3.237   9.406 -0.2916 -0.0214  0.2848
  457MOL0     C62972  -2.160   3.109   9.399 -0.6001 -0.5224 -0.6438
  457MOL0    Cl62973  -2.021   3.110   9.521 -0.0571 -0.5214 -0.0002
  457MOL0     C62974  -1.941   3.801   9.978  1.2028  0.4694  0.4434
  457MOL0     C62975  -1.811   3.844  10.004 -0.5359 -0.1754  0.1649
  457MOL0     O62976  -1.636   4.088  10.053  0.5098 -0.3773  0.9541
  457MOL0     C62977  -1.334   4.022   9.879 -1.1719  0.5582  0.7392
  457MOL0     C62978  -1.196   4.006   9.893  0.7442 -0.5697  0.2633
  457MOL0     N62979  -0.527   4.281  10.422 -0.7548 -0.5289 -0.7315
  457MOL0     N62980  -0.400   4.288  10.457  0.5730  0.9875  0.3490
  457MOL0     C62981   0.864   4.443  10.085  0.8847  0.7658  0.2161
  457MOL0     C62982   0.983   4.468  10.155 -1.4105 -0.8071  0.3721
  457MOL0     C62983   1.361   4.562  10.404 -1.0022  0.0556  1.1204
  457MOL0     C62984   1.316   4.614  10.531 -1.3259 -0.9337 -0.7238
  457MOL0     C62985   1.400   4.663  10.634 -0.2136  0.5611  0.0052
  457MOL0     C62986   1.534   4.661  10.604  0.1657 -0.3869 -0.0393
  457MOL0     O62987   1.612   4.716  10.701 -0.0176 -0.0892  0.9551
  457MOL0     C62988   1.752   4.700  10.696 -1.1236  0.8813  0.2214
  457MOL0     C62989   1.792   4.550  10.715  0.0513 -0.3447 -0.1441
  457MOL0     C62990   1.938   4.519  10.693 -0.2125  0.4852  0.8510
  457MOL0     C62991   1.985   4.368  10.673  0.3192 -0.1860 -0.7449
  457MOL0     C62992   1.941   4.327  10.542 -0.6958 -0.7853 -0.4255
  457MOL0     C62993   1.909   4.276  10.436  0.2693 -0.1677  0.0835
  457MOL0     C62994   1.580   4.606  10.482 -0.2300 -0.1154 -0.6153
  457MOL0     C62995   1.497   4.555  10.375 -0.0214 -0.5978 -0.3062
  457MOL0     C62996   1.563   4.501  10.246 -0.0891  0.1095 -0.6327
  457MOL0     H62997   0.918   4.352  10.465 -2.1900  1.6916  1.1875
  457MOL0     H62998   0.721   4.283  10.354  1.3419  0.1883  0.5456
  457MOL0     H62999   0.521   4.328  10.253  0.5171  2.1045 -2.0102
  457MOL0     H63000   0.581   4.157  10.207  2.3534  1.2778  1.1516
  457MOL0     H63001   0.381   4.338  10.064  2.2836  1.6009  1.2973
  457MOL0     H63002   0.450   4.195   9.993  0.2502 -3.4359  1.4266
  457MOL0     H63003   0.245   4.123  10.089 -2.2592  2.5996 -0.8889
  457MOL0     H63004   0.369   4.062  10.204  1.1988  0.2159 -0.6653
  457MOL0     H63005   0.319   4.244  10.369 -1.0654  0.6674  1.1192
  457MOL0     H63006   0.232   4.313  10.233  0.2348  0.7600  1.6108
  457MOL0     H63007   0.089   4.211  10.411 -0.1282 -1.8101  1.1106
  457MOL0     H63008   0.150   4.055  10.372  0.0918 -0.7140 -0.5010
  457MOL0     H63009   0.021   4.212  10.143  3.2210  1.7594  2.2817
  457MOL0     H63010   0.031   4.043  10.175  2.2496  0.0889  1.1963
  457MOL0     H63011  -0.095   4.076  10.402  0.0738  1.5317  1.2868
  457MOL0     H63012  -0.198   4.078  10.258 -0.0510  3.2309 -2.7850
  457MOL0     H63013  -0.136   4.307  10.445  0.1555  2.7164 -0.2143
  457MOL0     H63014  -0.130   4.350  10.277 -1.5967  3.4623  2.8368
  457MOL0     H63015  -0.362   4.266  10.136  1.6125  1.8776  1.0464
  457MOL0     H63016  -0.628   4.285  10.106 -0.4946 -2.5467 -0.5281
  457MOL0     H63017  -0.717   4.364  10.238  0.2993 -0.1767 -1.5536
  457MOL0     H63018  -0.670   4.065  10.196  3.6012  3.0377  1.5536
  457MOL0     H63019  -0.752   4.149  10.339 -0.8202 -0.0547  0.4304
  457MOL0     H63020  -0.941   4.218  10.170 -0.1128  0.3920 -2.3332
  457MOL0     H63021  -0.827   4.188  10.045 -1.0184  2.4390  1.4296
  457MOL0     H63022  -0.837   3.931  10.134 -0.5361  0.1128 -2.2824
  457MOL0     H63023  -0.985   3.987  10.216 -0.2262  0.8997 -0.0997
  457MOL0     H63024  -1.172   4.055  10.232  3.0838 -2.4732  0.6890
  457MOL0     H63025  -1.415   3.974  10.281  3.9579 -0.8811 -3.6953
  457MOL0     H63026  -1.518   4.125  10.257  1.2275  3.3900  0.6124
  457MOL0     H63027  -1.367   4.142  10.323 -2.8465 -1.2766  2.7773
  457MOL0     H63028  -1.722   3.904   9.674 -1.1261  0.2041 -0.7812
  457MOL0     H63029  -1.950   3.852   9.652 -1.4186  2.2557  0.6759
  457MOL0     H63030  -2.147   3.596   9.877  1.5373  0.7943  0.7639
  457MOL0     H63031  -2.200   3.736   9.978 -0.1116 -1.2663  0.6204
  457MOL0     H63032  -2.405   3.640   9.894 -0.9339  1.0462  0.1292
  457MOL0     H63033  -2.372   3.789   9.823 -0.2249 -0.3797  3.5881
  457MOL0     H63034  -2.257   3.650   9.621  0.0763 -0.4453 -0.6288
  457MOL0     H63035  -2.433   3.671   9.632 -0.9056 -0.5083  1.6596
  457MOL0     H63036  -2.446   3.442   9.733 -1.4925  0.3123 -0.8244
  457MOL0     H63037  -2.271   3.439   9.743 -1.5586 -2.7903 -0.3227
  457MOL0     H63038  -2.440   3.419   9.485  0.4263 -0.0998 -0.1857
  457MOL0     H63039  -2.268   3.465   9.485  3.0183 -4.2150  1.5001
  457MOL0     H63040  -2.380   3.210   9.576 -0.0437  0.2923  2.6061
  457MOL0     H63041  -2.214   3.260   9.616 -1.4351 -1.9353  1.5383
  457MOL0     H63042  -2.166   3.312   9.375  2.7556 -3.5586 -1.6980
  457MOL0     H63043  -2.321   3.227   9.332  1.9824  0.9428 -2.5344
  457MOL0     H63044  -2.111   3.099   9.301  2.0191 -1.0171  0.6242
  457MOL0     H63045  -2.216   3.018   9.419  1.4580 -1.6594  0.2789
  457MOL0     H63046  -1.998   3.758  10.060  0.3660 -3.0568 -1.8155
  457MOL0     H63047  -1.770   3.834  10.104 -0.4499 -0.7651  0.0721
  457MOL0     H63048  -1.364   4.019   9.775  0.8033  1.6616  0.0842
  457MOL0     H63049  -1.143   3.985   9.801 -1.6962 -1.9496 -0.9085
  457MOL0     H63050   0.853   4.471   9.981  3.7326  0.9774 -0.1058
  457MOL0     H63051   1.064   4.514  10.100 -0.3017  0.4691  2.8659
  457MOL0     H63052   1.211   4.642  10.539 -1.0710 -0.3212  5.4270
  457MOL0     H63053   1.356   4.730  10.707 -2.4007  0.2572 -0.9577
  457MOL0     H63054   1.787   4.729  10.597 -0.5218 -0.8322 -0.1019
  457MOL0     H63055   1.796   4.763  10.774 -1.6779 -0.9642  2.1576
  457MOL0     H63056   1.730   4.482  10.655 -2.5999 -0.6838  2.7033
  457MOL0     H63057   1.774   4.516  10.818 -0.9200  2.6684  0.7945
  457MOL0     H63058   1.969   4.580  10.607  1.4383 -1.1703  0.2304
  457MOL0     H63059   1.981   4.557  10.786 -2.5261  0.9711  1.8079
  457MOL0     H63060   1.930   4.312  10.749  1.6345 -0.5087 -0.0087
  457MOL0     H63061   2.093   4.361  10.683  0.2920 -0.8686 -0.8787
  457MOL0     H63062   1.870   4.222  10.352 -0.2963 -0.2913  0.4213
  457MOL0     H63063   1.687   4.604  10.464  0.3331  0.5399  2.1857
  457MOL0     H63064   1.671   4.489  10.262 -0.4941 -2.1350  0.9537
  457MOL0     H63065   1.515   4.404  10.227  0.7156 -0.6945  1.1480
  457MOL0     H63066   1.548   4.572  10.164 -3.5480  0.3112  0.0319
  458MOL0     O63067   0.256   0.468   5.651  0.0218  0.9053  0.2042
  458MOL0     C63068   0.156   0.542   5.664 -0.2271  0.6917  0.2975
  458MOL0     O63069   0.106   0.592   5.780  0.6076 -0.9321 -0.1269
  458MOL0     C63070   0.151   0.562   5.903 -0.0386  0.0428 -0.1830
  458MOL0     C63071   0.210   0.439   5.940 -0.2015  0.2065  0.3770
  458MOL0     C63072   0.229   0.421   6.076 -0.4000 -0.5498 -1.0783
  458MOL0     C63073   0.204   0.517   6.173 -0.3984 -0.0520 -0.1580
  458MOL0     O63074   0.215   0.486   6.304  0.3820  0.0065  0.1302
  458MOL0     C63075   0.347   0.459   6.356 -0.5663 -0.1909 -0.4088
  458MOL0     C63076   0.336   0.376   6.481  0.1780  0.7439  0.2169
  458MOL0     C63077   0.229   0.422   6.583  0.4389 -0.6548 -0.9070
  458MOL0     C63078   0.277   0.536   6.680 -1.6669 -0.1169 -0.2408
  458MOL0     C63079   0.180   0.582   6.790  0.3844  0.6370  0.6014
  458MOL0     C63080   0.239   0.701   6.874  0.6106  0.9826 -0.2787
  458MOL0     C63081   0.134   0.814   6.891 -0.8227  0.4466 -0.0932
  458MOL0     C63082   0.132   0.910   6.774 -0.0311 -1.0774  0.7877
  458MOL0     N63083   0.103   0.844   6.644 -0.0765 -0.3651  0.6266
  458MOL0     C63084  -0.021   0.791   6.611  0.0165 -0.2286  0.2128
  458MOL0     C63085   0.004   0.750   6.485  0.4141  1.0916  0.4755
  458MOL0     C63086  -0.093   0.678   6.399  0.4923  0.2197 -0.6759
  458MOL0     C63087  -0.185   0.751   6.305 -0.0224 -0.5987 -0.0121
  458MOL0     C63088  -0.277   0.660   6.231  0.2166 -0.5294 -0.0331
  458MOL0     C63089  -0.374   0.737   6.145 -0.6441  0.5818 -0.0394
  458MOL0     O63090  -0.487   0.778   6.223  0.2508 -1.0171 -0.0305
  458MOL0     C63091  -0.593   0.852   6.161 -0.5513  0.8336  1.0896
  458MOL0     C63092  -0.711   0.841   6.217  0.5545 -0.0984 -0.7876
  458MOL0     C63093  -0.832   0.890   6.160  0.0978  0.4266 -0.2653
  458MOL0     C63094  -0.961   0.860   6.230 -0.2499  0.8926 -0.8595
  458MOL0     C63095  -0.814   0.969   6.041  0.7133 -0.0439  0.1296
  458MOL0     C63096  -0.922   1.027   5.973  0.3233 -0.0160 -0.5853
  458MOL0     O63097  -0.927   1.168   5.959  0.7688 -0.2200 -0.6992
  458MOL0     C63098  -1.030   1.216   5.880  0.2189 -0.1653 -0.4021
  458MOL0     C63099  -1.157   1.237   5.928  0.4068  0.2063 -1.0008
  458MOL0     C63100  -1.255   1.290   5.840  0.0326 -0.7788 -0.0141
  458MOL0     C63101  -1.223   1.337   5.713  0.1038  0.1325 -0.1375
  458MOL0     O63102  -1.321   1.387   5.632  0.3647 -0.1534  0.2826
  458MOL0     C63103  -1.413   1.479   5.685  0.5358 -0.2927  0.0905
  458MOL0     C63104  -1.356   1.615   5.726  0.7886  0.2757  0.3786
  458MOL0     C63105  -1.443   1.738   5.699  0.2349 -0.2024  0.6965
  458MOL0     C63106  -1.547   1.760   5.810 -0.0357  0.3744 -0.6721
  458MOL0     C63107  -1.638   1.878   5.805  0.6112  0.8978 -1.1293
  458MOL0     C63108  -1.712   1.880   5.667  0.5132  0.4260 -0.1947
  458MOL0     C63109  -1.783   2.013   5.653  0.9731  0.6729 -0.6468
  458MOL0     C63110  -1.870   2.027   5.522 -1.1649 -0.8585  0.5516
  458MOL0    Cl63111  -1.766   2.057   5.374  0.0102  0.2677 -0.2293
  458MOL0     C63112  -1.095   1.305   5.665 -0.8861  1.7914  0.4977
  458MOL0     C63113  -1.000   1.252   5.755 -0.2429 -0.2348 -0.2691
  458MOL0     O63114  -1.010   0.947   5.932 -0.2809 -1.1614  0.8295
  458MOL0     C63115  -0.687   0.997   5.989  0.8568  0.4595  0.0087
  458MOL0     C63116  -0.580   0.937   6.055 -0.2513  0.9951 -0.5721
  458MOL0     N63117   0.128   0.788   6.436  0.5568 -0.1145 -0.2806
  458MOL0     N63118   0.188   0.843   6.539  0.0694  0.2601 -0.4750
  458MOL0     C63119   0.148   0.630   6.128  0.3107  0.1230  0.6068
  458MOL0     C63120   0.119   0.660   5.995  0.3594  0.5630  0.4204
  458MOL0     C63121   0.095   0.618   5.552 -0.7772  0.4883  0.4716
  458MOL0     C63122   0.029   0.736   5.576 -0.7722  0.0985  0.4180
  458MOL0     C63123  -0.038   0.800   5.480 -0.4846 -0.1437 -0.0907
  458MOL0     C63124  -0.033   0.756   5.345 -0.6912  0.5757  0.1977
  458MOL0     O63125  -0.112   0.812   5.261  0.0307 -0.3617  0.3802
  458MOL0     C63126  -0.172   0.744   5.151 -0.0062 -0.0187  0.1189
  458MOL0     C63127  -0.302   0.816   5.102 -0.5471 -0.2919  0.6090
  458MOL0     C63128  -0.422   0.781   5.195 -0.3780  0.2610  0.2010
  458MOL0     C63129  -0.552   0.851   5.157 -0.6692 -0.4987  0.2723
  458MOL0     C63130  -0.590   0.817   5.020 -0.0539  0.1635  0.1052
  458MOL0     C63131  -0.607   0.775   4.903  0.8993 -0.1906  0.1158
  458MOL0     C63132   0.038   0.644   5.313 -0.9162  0.4398  0.1512
  458MOL0     C63133   0.104   0.572   5.409  0.9037  0.1118 -0.2311
  458MOL0     C63134   0.183   0.447   5.371  0.1616 -0.2981 -1.0464
  458MOL0     H63135   0.229   0.366   5.862 -0.3597 -0.4194  0.9194
  458MOL0     H63136   0.258   0.322   6.108  1.3410  0.4824  0.7810
  458MOL0     H63137   0.394   0.556   6.374  2.5217 -1.7843  0.9514
  458MOL0     H63138   0.414   0.409   6.286 -1.3254  0.5666 -1.7151
  458MOL0     H63139   0.295   0.279   6.451  0.1233  0.1864  1.9982
  458MOL0     H63140   0.434   0.352   6.524  0.7796 -0.9757 -1.8802
  458MOL0     H63141   0.142   0.471   6.537  1.9865  3.8191  0.3913
  458MOL0     H63142   0.193   0.337   6.642 -1.5164 -1.6340 -3.3279
  458MOL0     H63143   0.367   0.499   6.729 -1.6062 -2.2109 -1.8084
  458MOL0     H63144   0.308   0.612   6.608  0.8173 -2.3364 -1.6679
  458MOL0     H63145   0.155   0.500   6.857 -2.8771  0.0677 -1.1100
  458MOL0     H63146   0.082   0.598   6.746  0.3670 -1.1481 -0.0781
  458MOL0     H63147   0.271   0.660   6.970 -2.6133 -0.0081  0.5188
  458MOL0     H63148   0.330   0.747   6.834  0.2512  0.1253 -2.1809
  458MOL0     H63149   0.162   0.872   6.979  1.3367 -2.4838  1.3141
  458MOL0     H63150   0.034   0.772   6.901 -1.2688  0.6247 -2.8786
  458MOL0     H63151   0.063   0.993   6.789 -0.0702 -0.7493 -1.0183
  458MOL0     H63152   0.230   0.959   6.771 -1.1234  1.2094  0.0613
  458MOL0     H63153  -0.115   0.781   6.666 -0.8289  0.7118 -1.0036
  458MOL0     H63154  -0.146   0.607   6.463  5.4139 -3.7806 -0.4257
  458MOL0     H63155  -0.030   0.620   6.331 -0.0950 -0.7083 -0.4352
  458MOL0     H63156  -0.252   0.819   6.359  1.6328  0.9485  0.1931
  458MOL0     H63157  -0.126   0.817   6.240 -1.2596  0.7743  0.1986
  458MOL0     H63158  -0.217   0.598   6.164 -1.2843 -0.8197 -1.1809
  458MOL0     H63159  -0.335   0.598   6.300  2.8132 -0.7866  2.0731
  458MOL0     H63160  -0.319   0.819   6.097  0.1134  0.2447  0.2314
  458MOL0     H63161  -0.414   0.676   6.063  1.6838  0.2167 -0.9943
  458MOL0     H63162  -0.724   0.782   6.307  1.2238  2.0066  0.7906
  458MOL0     H63163  -1.033   0.942   6.223 -0.8385  0.5734  0.9737
  458MOL0     H63164  -0.949   0.847   6.338 -3.1686 -0.3461 -0.5681
  458MOL0     H63165  -1.010   0.766   6.199 -2.4395  0.6077  2.9130
  458MOL0     H63166  -1.184   1.202   6.027  1.7630  1.6929 -0.0444
  458MOL0     H63167  -1.353   1.272   5.883 -1.3003 -4.3965 -3.8341
  458MOL0     H63168  -1.485   1.500   5.605 -1.0302 -2.2478  0.9030
  458MOL0     H63169  -1.476   1.441   5.765  0.6421  2.0622  1.3981
  458MOL0     H63170  -1.327   1.612   5.831 -0.4113  3.3686  0.9103
  458MOL0     H63171  -1.265   1.632   5.667  0.2339  0.5088 -0.4372
  458MOL0     H63172  -1.480   1.744   5.597  2.0006 -2.9466 -0.2337
  458MOL0     H63173  -1.377   1.825   5.704 -0.3178  0.3010 -0.4215
  458MOL0     H63174  -1.500   1.771   5.909 -0.8712 -0.3889 -0.1791
  458MOL0     H63175  -1.610   1.671   5.813 -0.1969  0.3058 -3.7319
  458MOL0     H63176  -1.710   1.881   5.887  2.8757 -0.4522  1.0225
  458MOL0     H63177  -1.588   1.975   5.814 -0.1394  1.5056 -2.9405
  458MOL0     H63178  -1.781   1.795   5.667  2.7297 -1.4570 -0.3422
  458MOL0     H63179  -1.646   1.868   5.581  2.6931 -2.8317  1.7214
  458MOL0     H63180  -1.707   2.091   5.665  0.1299  1.2723  1.1831
  458MOL0     H63181  -1.851   2.022   5.738 -1.4107 -2.1298 -2.0406
  458MOL0     H63182  -1.935   2.115   5.530  1.1907  0.9158  1.0336
  458MOL0     H63183  -1.938   1.943   5.501  1.4816 -2.5430 -1.9952
  458MOL0     H63184  -1.074   1.321   5.559 -1.0354  0.1436  0.1785
  458MOL0     H63185  -0.903   1.228   5.712 -1.0047 -1.3284 -1.4525
  458MOL0     H63186  -0.658   1.071   5.916 -0.4658  1.2818  0.2793
  458MOL0     H63187  -0.481   0.977   6.039 -0.5432  1.4052 -1.4170
  458MOL0     H63188   0.105   0.683   6.212  0.0727 -0.0951  0.6217
  458MOL0     H63189   0.064   0.749   5.966 -1.4263 -0.6238  0.0368
  458MOL0     H63190   0.029   0.783   5.674 -0.4558  3.2454 -0.9650
  458MOL0     H63191  -0.095   0.890   5.502  0.9293 -0.0388  3.7945
  458MOL0     H63192  -0.104   0.762   5.067  0.2009 -2.4723 -0.3043
  458MOL0     H63193  -0.183   0.637   5.171  1.7315 -0.8078 -2.6170
  458MOL0     H63194  -0.324   0.800   4.996  0.2480  3.4762 -0.2539
  458MOL0     H63195  -0.279   0.922   5.098 -1.2052 -0.0941 -4.5894
  458MOL0     H63196  -0.432   0.673   5.206 -0.9041  0.3695  0.8476
  458MOL0     H63197  -0.388   0.814   5.293  0.9208  4.0312 -1.3404
  458MOL0     H63198  -0.556   0.957   5.181  0.6716 -0.5712  0.8863
  458MOL0     H63199  -0.624   0.800   5.222 -1.8221  2.1312  1.2019
  458MOL0     H63200  -0.610   0.728   4.806 -2.2587  1.5822 -0.7981
  458MOL0     H63201   0.058   0.619   5.209  0.4085  1.0255  0.2387
  458MOL0     H63202   0.286   0.481   5.357  0.3835  1.7257  3.6415
  458MOL0     H63203   0.180   0.379   5.457  0.6939  0.8254 -0.1228
  458MOL0     H63204   0.140   0.387   5.290 -0.5635 -0.8939 -0.2481
  459MOL0     O63205   7.877   8.472   4.474 -0.9104 -0.3093 -0.0102
  459MOL0     C63206   7.779   8.519   4.530  0.2674  0.3365  0.3663
  459MOL0     O63207   7.652   8.464   4.528  0.3310  0.7090 -0.3165
  459MOL0     C63208   7.621   8.328   4.500  0.2813  0.5582 -0.1308
  459MOL0     C63209   7.498   8.292   4.441 -0.1671  0.0098 -0.1704
  459MOL0     C63210   7.468   8.164   4.415  0.6252 -0.0202 -0.0323
  459MOL0     C63211   7.553   8.062   4.443  0.1923 -0.8365  0.5808
  459MOL0     O63212   7.509   7.942   4.406 -0.6185  0.8008  0.1346
  459MOL0     C63213   7.465   7.930   4.271  0.5251  0.4771 -0.2583
  459MOL0     C63214   7.505   7.796   4.213 -0.0528 -0.0447 -1.0185
  459MOL0     C63215   7.653   7.794   4.194 -0.6806 -0.2770 -0.7032
  459MOL0     C63216   7.680   7.654   4.146 -0.0939 -0.2956  0.2846
  459MOL0     C63217   7.822   7.605   4.120  0.3968 -0.3804  0.3057
  459MOL0     C63218   7.881   7.669   3.996  0.1345 -0.5991  0.3593
  459MOL0     C63219   8.034   7.654   3.986  0.0047 -0.4186  0.7996
  459MOL0     C63220   8.074   7.656   3.836 -0.2320  0.8211  0.1797
  459MOL0     N63221   8.052   7.516   3.784  0.4345 -0.6926  0.3641
  459MOL0     C63222   8.137   7.410   3.793  0.1548 -0.8085  0.3735
  459MOL0     C63223   8.091   7.318   3.709 -0.1253  0.5413  1.3108
  459MOL0     C63224   8.146   7.185   3.682 -0.0483  0.7997  0.5609
  459MOL0     C63225   8.221   7.174   3.554 -0.3318  0.1150 -0.3935
  459MOL0     C63226   8.248   7.030   3.512  0.1720 -0.2789  0.8834
  459MOL0     C63227   8.135   6.981   3.420  1.2279 -0.6779 -0.7100
  459MOL0     O63228   8.130   7.052   3.291 -0.0967  0.5971 -0.0718
  459MOL0     C63229   8.249   7.042   3.223  1.1499  0.8940  0.0551
  459MOL0     C63230   8.308   7.156   3.173  0.0933 -0.0742  0.8523
  459MOL0     C63231   8.419   7.147   3.089 -0.5048  0.3557 -0.8524
  459MOL0     C63232   8.483   7.273   3.049 -0.2964 -0.3164  0.5181
  459MOL0     C63233   8.472   7.019   3.058  0.0029  0.1703 -0.0517
  459MOL0     C63234   8.582   6.998   2.974 -0.1452 -0.1442 -0.3741
  459MOL0     O63235   8.573   6.886   2.888  0.0514 -0.4410  0.3064
  459MOL0     C63236   8.689   6.844   2.826  0.4574 -0.4632 -0.7633
  459MOL0     C63237   8.702   6.836   2.689 -0.7538 -0.3562 -0.3036
  459MOL0     C63238   8.834   6.803   2.642  0.7656 -0.5889  0.1243
  459MOL0     C63239   8.947   6.780   2.714 -0.2580 -0.4491 -0.1469
  459MOL0     O63240   9.060   6.745   2.650 -0.3698 -0.1548  0.0647
  459MOL0     C63241   9.170   6.680   2.711 -0.0252  0.4478 -0.7503
  459MOL0     C63242   9.234   6.574   2.627  0.0707 -0.6589 -0.3989
  459MOL0     C63243   9.220   6.427   2.668  0.0444 -0.7610  0.6192
  459MOL0     C63244   9.078   6.376   2.641  0.2337  0.0818 -0.3341
  459MOL0     C63245   9.067   6.236   2.698 -0.4829  0.0062  0.0118
  459MOL0     C63246   9.181   6.134   2.658 -0.1431 -0.4376 -0.0508
  459MOL0     C63247   9.181   6.129   2.499 -1.5458  0.3399 -0.4837
  459MOL0     C63248   9.251   5.996   2.453  0.2130  0.1570  0.8047
  459MOL0    Cl63249   9.140   5.864   2.497 -0.3379  0.0544 -0.2801
  459MOL0     C63250   8.928   6.794   2.848  0.6211  0.3411 -0.6063
  459MOL0     C63251   8.804   6.835   2.903 -0.1943  0.3068 -0.5030
  459MOL0     O63252   8.679   7.073   2.977  0.7573  1.1294  0.1633
  459MOL0     C63253   8.412   6.907   3.111 -1.0385 -0.2120 -0.4628
  459MOL0     C63254   8.308   6.917   3.196 -0.0565  0.9081 -0.1557
  459MOL0     N63255   7.992   7.377   3.626 -0.4587 -0.0127 -0.0888
  459MOL0     N63256   7.959   7.491   3.682 -0.1187 -0.3924 -0.1675
  459MOL0     C63257   7.674   8.092   4.495  0.4383 -0.3969  0.0550
  459MOL0     C63258   7.713   8.217   4.525 -0.3208 -0.3035 -0.0488
  459MOL0     C63259   7.793   8.651   4.592  0.0767 -0.0126 -0.8142
  459MOL0     C63260   7.680   8.733   4.586  0.1032  0.1630 -0.0734
  459MOL0     C63261   7.690   8.873   4.595  0.3260  0.8846  0.6267
  459MOL0     C63262   7.811   8.938   4.623  0.5279  0.0142  0.4887
  459MOL0     O63263   7.829   9.077   4.632 -0.4847 -0.0699  0.3889
  459MOL0     C63264   7.717   9.163   4.598  1.0321  0.1907  0.3486
  459MOL0     C63265   7.750   9.315   4.590  0.2527 -0.4741 -0.3941
  459MOL0     C63266   7.823   9.348   4.467 -0.2541  1.0557  0.1532
  459MOL0     C63267   7.870   9.494   4.444 -0.7066 -0.0491  0.7313
  459MOL0     C63268   7.765   9.599   4.426  0.5003  0.5539  0.5374
  459MOL0     C63269   7.690   9.698   4.411 -0.5128  0.9840 -0.4783
  459MOL0     C63270   7.927   8.854   4.631 -0.2974 -0.3238  0.6679
  459MOL0     C63271   7.915   8.714   4.621 -0.7395  0.4054  0.5615
  459MOL0     C63272   8.051   8.642   4.651  0.3215  0.0888 -0.3723
  459MOL0     H63273   7.417   8.364   4.435  1.1738  1.4743 -4.0358
  459MOL0     H63274   7.371   8.139   4.375  0.4218  3.0245 -1.7422
  459MOL0     H63275   7.511   8.008   4.209  2.0356  0.2529  0.5441
  459MOL0     H63276   7.356   7.938   4.263  0.1362 -1.8292  1.6903
  459MOL0     H63277   7.463   7.720   4.280 -0.9985 -0.8493 -2.4728
  459MOL0     H63278   7.455   7.798   4.116  0.3291  1.7207 -1.2097
  459MOL0     H63279   7.689   7.865   4.118  1.0926  1.5541  1.6851
  459MOL0     H63280   7.716   7.821   4.279  1.2625  1.2122 -2.4893
  459MOL0     H63281   7.636   7.586   4.219  0.5514  0.3663  1.3185
  459MOL0     H63282   7.624   7.637   4.054  1.1143  0.1719 -0.5660
  459MOL0     H63283   7.826   7.496   4.110 -0.6441 -0.3859 -0.0938
  459MOL0     H63284   7.886   7.631   4.205  0.1808  0.8528  0.1108
  459MOL0     H63285   7.829   7.636   3.906 -2.3829  4.0084 -0.2164
  459MOL0     H63286   7.850   7.774   4.000  0.4186 -0.5428  2.9837
  459MOL0     H63287   8.068   7.565   4.039  3.0041  0.2798  0.2472
  459MOL0     H63288   8.080   7.742   4.032 -0.8587  0.9895 -0.9092
  459MOL0     H63289   8.019   7.729   3.777 -0.9716 -1.3261 -1.9299
  459MOL0     H63290   8.180   7.683   3.834  0.0105 -0.0371  0.7489
  459MOL0     H63291   8.236   7.408   3.838  0.4939  3.1918  0.1311
  459MOL0     H63292   8.064   7.114   3.670  0.4423  0.0725  1.4846
  459MOL0     H63293   8.202   7.152   3.769 -2.1464  1.3348  2.2136
  459MOL0     H63294   8.169   7.238   3.482 -1.2370 -0.1650 -0.0075
  459MOL0     H63295   8.316   7.226   3.568 -1.6155  2.1372  1.5701
  459MOL0     H63296   8.342   7.025   3.455 -0.1632 -0.4283  0.3365
  459MOL0     H63297   8.263   6.963   3.597  0.5295 -2.4247 -0.7922
  459MOL0     H63298   8.169   6.880   3.396  0.0499 -0.6172 -2.7760
  459MOL0     H63299   8.045   6.973   3.482  1.8156  0.6021  0.3816
  459MOL0     H63300   8.267   7.251   3.204  2.2817  1.1346  0.2646
  459MOL0     H63301   8.417   7.355   3.079 -3.7626 -2.1291 -1.5236
  459MOL0     H63302   8.491   7.281   2.940 -1.8439 -0.0470  0.4056
  459MOL0     H63303   8.577   7.291   3.103 -1.3939 -1.8168  3.1140
  459MOL0     H63304   8.613   6.857   2.630 -1.6861  2.5620  1.9250
  459MOL0     H63305   8.845   6.797   2.534 -1.7637  4.5181 -0.7203
  459MOL0     H63306   9.240   6.759   2.740  0.2422 -0.7848  2.3632
  459MOL0     H63307   9.126   6.620   2.791  0.0876 -0.2846 -1.2171
  459MOL0     H63308   9.198   6.591   2.525 -1.0074  0.9997  0.2237
  459MOL0     H63309   9.340   6.599   2.640 -0.4998  1.0102  1.3689
  459MOL0     H63310   9.251   6.413   2.771  2.6810 -0.8455 -0.1248
  459MOL0     H63311   9.291   6.362   2.615 -1.8007 -2.5536  0.1935
  459MOL0     H63312   9.054   6.372   2.535 -0.3963 -0.8758 -0.1640
  459MOL0     H63313   9.003   6.443   2.685  0.6612  0.5750 -0.3474
  459MOL0     H63314   9.066   6.238   2.807 -0.8517 -0.6674  0.0285
  459MOL0     H63315   8.970   6.192   2.670 -0.9884 -0.4143  2.2593
  459MOL0     H63316   9.163   6.038   2.708  1.0074 -0.6026  0.0615
  459MOL0     H63317   9.278   6.167   2.694 -2.3935  2.3589  4.4062
  459MOL0     H63318   9.254   6.200   2.460 -1.5923  0.8510  0.3556
  459MOL0     H63319   9.076   6.141   2.470 -1.8780 -1.8118 -0.3723
  459MOL0     H63320   9.350   5.984   2.498 -0.4414 -0.1952  2.1888
  459MOL0     H63321   9.264   6.014   2.346  0.7202 -2.4849  0.3390
  459MOL0     H63322   9.011   6.806   2.917 -1.1184  2.6270  1.2118
  459MOL0     H63323   8.808   6.860   3.008  1.4455  2.0890 -0.9384
  459MOL0     H63324   8.453   6.813   3.076  0.5617  0.0060  0.7338
  459MOL0     H63325   8.266   6.825   3.233 -1.1084  0.7199 -1.7568
  459MOL0     H63326   7.749   8.017   4.519  1.0607  0.2769  0.2304
  459MOL0     H63327   7.808   8.226   4.577  0.0547  1.4398 -0.9505
  459MOL0     H63328   7.581   8.699   4.558 -0.7207  2.1469  0.2787
  459MOL0     H63329   7.593   8.923   4.594  0.9561  2.1342  0.2287
  459MOL0     H63330   7.686   9.144   4.495 -1.0533  0.6979  0.8346
  459MOL0     H63331   7.635   9.152   4.670 -0.1254 -0.8975 -1.0766
  459MOL0     H63332   7.795   9.339   4.686 -0.2822 -2.4936  0.4165
  459MOL0     H63333   7.653   9.362   4.571 -0.3976 -0.5787  2.3077
  459MOL0     H63334   7.913   9.286   4.462 -0.2178  1.0837  0.4625
  459MOL0     H63335   7.759   9.321   4.382  2.2228 -0.7632 -1.2876
  459MOL0     H63336   7.923   9.489   4.348  0.6830 -1.0947  1.5323
  459MOL0     H63337   7.929   9.513   4.534 -1.4990 -1.1277  1.5062
  459MOL0     H63338   7.628   9.785   4.403  2.3990  3.1061 -2.3995
  459MOL0     H63339   8.019   8.904   4.660  0.8588  0.3664 -3.5152
  459MOL0     H63340   8.026   8.576   4.735 -0.4775  0.1374 -0.5603
  459MOL0     H63341   8.103   8.595   4.568  1.4127 -3.1879  1.9712
  459MOL0     H63342   8.118   8.718   4.693 -0.8898  0.9146  0.1569
  460MOL0     O63343   8.675   7.191   7.514  0.4397 -0.2642  0.3454
  460MOL0     C63344   8.623   7.266   7.424 -0.1938 -0.5542 -0.1871
  460MOL0     O63345   8.588   7.400   7.449 -0.1505  0.5668  0.1972
  460MOL0     C63346   8.639   7.472   7.553  0.6167  0.1026 -0.7358
  460MOL0     C63347   8.575   7.503   7.674  0.0125  0.1897 -0.1922
  460MOL0     C63348   8.636   7.592   7.766  0.3939  0.4072 -1.3097
  460MOL0     C63349   8.763   7.649   7.744 -0.2117 -0.3239  0.5002
  460MOL0     O63350   8.826   7.731   7.836  0.2156  0.7440 -0.2678
  460MOL0     C63351   8.969   7.756   7.823  0.0035 -0.3807  0.9484
  460MOL0     C63352   9.033   7.813   7.947 -0.0908  0.3799  0.1801
  460MOL0     C63353   8.949   7.914   8.020 -0.0047 -0.1954  0.2565
  460MOL0     C63354   8.919   8.039   7.944  0.7014 -0.2486  0.4112
  460MOL0     C63355   8.921   8.162   8.046 -1.1051  0.8258 -1.3736
  460MOL0     C63356   8.878   8.280   7.976  0.0079 -0.9609 -1.0232
  460MOL0     C63357   8.875   8.402   8.065  0.0689  0.0099  0.0453
  460MOL0     C63358   8.772   8.404   8.181 -0.0753 -0.1030 -0.0054
  460MOL0     N63359   8.784   8.521   8.263  0.1285  0.0316  0.0807
  460MOL0     C63360   8.880   8.540   8.356  0.7621  0.7176 -0.2906
  460MOL0     C63361   8.870   8.666   8.405  1.1753  0.0523  0.5139
  460MOL0     C63362   8.941   8.722   8.527 -0.8868  0.5266 -0.1611
  460MOL0     C63363   8.985   8.864   8.498 -0.1559  0.5989 -0.3656
  460MOL0     C63364   9.093   8.871   8.385  0.3079  0.0672 -0.6691
  460MOL0     C63365   9.093   9.005   8.318  0.1432  0.1539 -0.1338
  460MOL0     O63366   9.085   9.117   8.408 -0.0171  0.3130 -0.3792
  460MOL0     C63367   9.201   9.165   8.466 -0.2814  1.0600 -0.4858
  460MOL0     C63368   9.192   9.267   8.575  0.4604 -0.2091  0.5249
  460MOL0     C63369   9.308   9.315   8.636  0.0422  0.6017 -0.0333
  460MOL0     C63370   9.312   9.405   8.751  0.7590 -0.7709 -0.6651
  460MOL0     C63371   9.433   9.285   8.584 -0.9421  0.3153  0.4427
  460MOL0     C63372   9.558   9.337   8.627  0.0473 -0.2398  0.6790
  460MOL0     O63373   9.660   9.248   8.656  0.5804  0.1943 -0.0573
  460MOL0     C63374   9.773   9.296   8.710 -0.6707 -0.3865  1.0415
  460MOL0     C63375   9.770   9.347   8.837 -0.3623 -0.4292 -0.1778
  460MOL0     C63376   9.881   9.410   8.898  0.7171 -0.0382  0.2881
  460MOL0     C63377   9.999   9.428   8.829  0.0264  0.0676  1.0985
  460MOL0     O63378  10.104   9.500   8.876 -0.3597  0.2454  0.1247
  460MOL0     C63379  10.109   9.585   8.992 -0.0567 -0.4270  0.0195
  460MOL0     C63380  10.260   9.648   9.002  0.2773  0.3104  0.0050
  460MOL0     C63381  10.266   9.740   9.130 -0.2502 -0.0427 -0.7185
  460MOL0     C63382  10.226   9.671   9.264 -0.8674 -0.0552  0.1916
  460MOL0     C63383  10.257   9.756   9.390 -1.2952 -0.0540  0.7227
  460MOL0     C63384  10.175   9.729   9.517 -0.5672 -0.2341 -0.3468
  460MOL0     C63385  10.024   9.747   9.489  0.6512  0.2337  0.4289
  460MOL0     C63386   9.950   9.777   9.619  0.2750  0.7763  0.3469
  460MOL0    Cl63387   9.966   9.949   9.661 -0.1987 -0.2459  0.1700
  460MOL0     C63388  10.013   9.371   8.701 -0.2520 -1.1684  0.0451
  460MOL0     C63389   9.893   9.301   8.645  0.3759 -0.2977 -0.3199
  460MOL0     O63390   9.573   9.455   8.629 -0.5606 -1.0069  0.1350
  460MOL0     C63391   9.436   9.182   8.483  0.2999  0.3095 -0.7771
  460MOL0     C63392   9.326   9.126   8.423 -0.3253 -0.8655 -1.4671
  460MOL0     N63393   8.762   8.724   8.337  0.6850 -0.0749 -0.4374
  460MOL0     N63394   8.714   8.633   8.249 -0.1775 -0.0107 -0.9074
  460MOL0     C63395   8.818   7.632   7.612 -0.3990 -0.6736  0.3332
  460MOL0     C63396   8.759   7.545   7.526  0.1076 -0.0168  0.8184
  460MOL0     C63397   8.582   7.204   7.291  0.0829 -0.1163  0.2269
  460MOL0     C63398   8.640   7.085   7.251  0.7350 -0.7756 -0.6569
  460MOL0     C63399   8.579   7.012   7.148  0.0475  0.0147  0.6760
  460MOL0     C63400   8.468   7.051   7.083 -0.1618 -0.5104 -0.5299
  460MOL0     O63401   8.418   6.979   6.976  0.2580 -0.4355 -1.0949
  460MOL0     C63402   8.281   7.000   6.939  0.5848 -0.4424  1.2098
  460MOL0     C63403   8.247   6.889   6.839 -0.5656 -0.2261 -0.5963
  460MOL0     C63404   8.343   6.875   6.722  0.2796  0.3999 -0.0889
  460MOL0     C63405   8.372   7.005   6.640  0.6216  0.7678 -0.7193
  460MOL0     C63406   8.249   7.072   6.595 -0.5666 -0.1233 -0.4083
  460MOL0     C63407   8.150   7.127   6.550  0.1087  0.2724 -0.4987
  460MOL0     C63408   8.425   7.182   7.104  0.4712  0.0478  0.1080
  460MOL0     C63409   8.477   7.253   7.209  0.5347  0.3250 -0.6308
  460MOL0     C63410   8.403   7.387   7.235  0.6791 -0.3001 -0.6301
  460MOL0     H63411   8.482   7.449   7.686  1.7957 -3.5946 -1.8069
  460MOL0     H63412   8.583   7.616   7.857  0.2917  1.7744 -1.7188
  460MOL0     H63413   8.967   7.835   7.747 -1.5568 -1.4799 -0.2229
  460MOL0     H63414   9.032   7.675   7.787  0.7399 -0.6746  2.7966
  460MOL0     H63415   9.056   7.726   8.009  0.1702 -0.2772 -0.8135
  460MOL0     H63416   9.126   7.867   7.928  1.5103 -1.2021  2.8805
  460MOL0     H63417   8.854   7.874   8.054  0.4720 -1.2139  0.4120
  460MOL0     H63418   9.005   7.956   8.104 -1.8896  1.9255  0.5538
  460MOL0     H63419   8.997   8.047   7.867  0.3667 -0.2846  0.0672
  460MOL0     H63420   8.818   8.026   7.904 -0.1948  1.2582  2.0223
  460MOL0     H63421   9.023   8.178   8.081 -2.2899  3.6772  1.2418
  460MOL0     H63422   8.867   8.136   8.138 -2.8895 -1.3382 -2.9157
  460MOL0     H63423   8.933   8.291   7.883  2.5791  0.5115  0.5649
  460MOL0     H63424   8.775   8.262   7.941 -0.7812  0.3970  0.4554
  460MOL0     H63425   8.849   8.491   8.006 -1.4730 -1.1885 -1.1661
  460MOL0     H63426   8.972   8.422   8.111  1.0823 -1.8251 -1.1924
  460MOL0     H63427   8.670   8.402   8.139  0.0888  1.4179 -0.5512
  460MOL0     H63428   8.760   8.311   8.238  0.2144  0.5764  1.1881
  460MOL0     H63429   8.968   8.477   8.366 -0.4385 -1.0440 -0.3094
  460MOL0     H63430   9.032   8.666   8.551 -1.5511 -1.2299 -1.5666
  460MOL0     H63431   8.885   8.710   8.620  1.3690 -1.7100  1.0549
  460MOL0     H63432   8.893   8.921   8.485 -0.3231  0.4201  0.0219
  460MOL0     H63433   9.027   8.902   8.592 -0.8199 -1.2329  0.7331
  460MOL0     H63434   9.188   8.855   8.437  0.3627  0.8865 -0.4971
  460MOL0     H63435   9.084   8.790   8.313 -4.2139  1.1701 -1.6330
  460MOL0     H63436   9.170   8.999   8.240  0.4112  1.5182  0.0037
  460MOL0     H63437   9.002   9.022   8.259  2.9979  1.7751 -4.5830
  460MOL0     H63438   9.094   9.286   8.619 -1.1995  0.0253 -2.9574
  460MOL0     H63439   9.215   9.414   8.800  0.2926 -1.2227 -1.4819
  460MOL0     H63440   9.351   9.502   8.718  1.2363 -0.9549 -0.6525
  460MOL0     H63441   9.390   9.373   8.821 -0.0452 -2.7172 -0.5929
  460MOL0     H63442   9.685   9.344   8.905  0.4689  3.4892  1.3292
  460MOL0     H63443   9.879   9.442   9.002 -2.3947  0.8093  0.0644
  460MOL0     H63444  10.033   9.664   8.993  0.4364  0.2278  4.2587
  460MOL0     H63445  10.080   9.530   9.081 -1.1950  0.3774  0.1762
  460MOL0     H63446  10.325   9.560   8.995  2.6661  1.7775  2.1108
  460MOL0     H63447  10.273   9.711   8.913  1.5395  0.5309  0.3360
  460MOL0     H63448  10.204   9.826   9.103 -0.8972  0.4861  2.0832
  460MOL0     H63449  10.370   9.772   9.132 -0.3724  0.5354 -2.2457
  460MOL0     H63450  10.278   9.574   9.270 -0.5748 -0.0046 -1.0927
  460MOL0     H63451  10.118   9.657   9.254 -1.0782  1.1167  0.7253
  460MOL0     H63452  10.364   9.739   9.408 -1.5025 -4.0279 -0.8046
  460MOL0     H63453  10.234   9.857   9.356  0.7552  0.1828 -0.1446
  460MOL0     H63454  10.208   9.804   9.589  2.9741  1.5557 -3.4628
  460MOL0     H63455  10.185   9.626   9.552  1.9509 -0.1953 -0.7312
  460MOL0     H63456   9.993   9.651   9.447  2.0276 -0.1424  0.2201
  460MOL0     H63457   9.997   9.826   9.419 -0.8351 -0.8886 -0.3317
  460MOL0     H63458   9.984   9.710   9.698  0.9895  0.4300 -0.2386
  460MOL0     H63459   9.844   9.755   9.601  0.3569  0.8231 -0.2255
  460MOL0     H63460  10.110   9.384   8.655  0.6384 -1.5771  1.7227
  460MOL0     H63461   9.904   9.246   8.552 -1.3069  1.2596 -1.5067
  460MOL0     H63462   9.533   9.151   8.444 -0.7440 -3.0360 -1.0737
  460MOL0     H63463   9.338   9.052   8.345 -2.1429 -0.0951 -2.5378
  460MOL0     H63464   8.905   7.689   7.582 -1.3370  2.3123  2.7701
  460MOL0     H63465   8.791   7.526   7.424 -3.1183 -0.4438 -0.2331
  460MOL0     H63466   8.726   7.041   7.300 -0.5599 -1.3736  1.1886
  460MOL0     H63467   8.634   6.925   7.115  1.9220  1.0388  0.9536
  460MOL0     H63468   8.220   6.978   7.027  0.1772 -2.5043  0.4631
  460MOL0     H63469   8.252   7.098   6.898 -3.7507 -0.9081  2.6084
  460MOL0     H63470   8.140   6.900   6.816 -0.1277  2.1841 -1.7398
  460MOL0     H63471   8.260   6.793   6.889 -0.4372  0.5516  0.9046
  460MOL0     H63472   8.434   6.831   6.764 -1.7001 -2.4070  1.6095
  460MOL0     H63473   8.301   6.798   6.656 -4.4291 -1.1429  4.0801
  460MOL0     H63474   8.426   6.971   6.551 -2.5467 -2.0860 -1.7558
  460MOL0     H63475   8.439   7.063   6.704 -1.7121  1.2250  1.4546
  460MOL0     H63476   8.063   7.178   6.515 -0.0060 -1.2473 -2.5800
  460MOL0     H63477   8.364   7.229   7.028  0.6278  1.3021  0.7150
  460MOL0     H63478   8.374   7.398   7.340 -2.6764  0.1944 -1.5171
  460MOL0     H63479   8.470   7.470   7.210  0.3947  0.0523 -0.2388
  460MOL0     H63480   8.308   7.395   7.182  0.0297 -2.5106  0.0943
  461MOL0     O63481   2.628   1.116   1.952  0.0193  0.0480  0.4357
  461MOL0     C63482   2.538   1.167   1.888 -0.2790  0.1750  0.7849
  461MOL0     O63483   2.504   1.125   1.760  0.0447 -0.1087 -0.0189
  461MOL0     C63484   2.545   1.001   1.723 -0.3934  0.0889 -0.1190
  461MOL0     C63485   2.568   0.982   1.590  0.5069  0.6097  0.2408
  461MOL0     C63486   2.604   0.845   1.542  0.4991 -1.5466  0.9736
  461MOL0     C63487   2.619   0.739   1.623 -0.0352 -0.6087  0.4786
  461MOL0     O63488   2.678   0.621   1.584 -0.0416 -0.0936 -0.7494
  461MOL0     C63489   2.751   0.606   1.459  0.0217 -0.9950  0.2065
  461MOL0     C63490   2.820   0.468   1.437  0.0291  0.0469 -0.2216
  461MOL0     C63491   2.900   0.430   1.560  0.0391  0.0270 -0.9242
  461MOL0     C63492   2.909   0.283   1.566 -0.9850  0.6207  0.4967
  461MOL0     C63493   3.025   0.241   1.469  0.0098 -0.7425  0.5381
  461MOL0     C63494   3.077   0.093   1.475 -1.3637 -0.3271 -0.7890
  461MOL0     C63495   3.116   0.041   1.614 -0.2630 -0.9045  0.0318
  461MOL0     C63496   3.189  -0.090   1.613 -0.4107  0.9891 -0.5538
  461MOL0     N63497   3.204  -0.127   1.757 -0.6193  0.4781  0.0168
  461MOL0     C63498   3.300  -0.213   1.809 -0.0328  0.2386  0.0714
  461MOL0     C63499   3.275  -0.230   1.941  0.3592 -0.2994  0.9422
  461MOL0     C63500   3.334  -0.329   2.045 -0.4836 -0.2811 -0.1489
  461MOL0     C63501   3.314  -0.465   1.981 -0.2820 -1.1763 -0.4733
  461MOL0     C63502   3.383  -0.575   2.049 -1.1060  1.1167  0.2883
  461MOL0     C63503   3.535  -0.561   2.034  0.4275 -0.8369  0.3624
  461MOL0     O63504   3.581  -0.589   1.899 -0.9183 -0.9383  0.2577
  461MOL0     C63505   3.611  -0.484   1.815 -0.5975  0.5575  0.6241
  461MOL0     C63506   3.610  -0.531   1.684  0.4015 -0.0761  0.9238
  461MOL0     C63507   3.616  -0.442   1.581  0.3533 -0.0438 -0.0891
  461MOL0     C63508   3.584  -0.492   1.438 -1.0353 -0.0750 -0.3189
  461MOL0     C63509   3.640  -0.297   1.608  0.2580 -0.6507  0.5350
  461MOL0     C63510   3.648  -0.193   1.495 -0.4386 -0.4446 -0.0258
  461MOL0     O63511   3.617  -0.063   1.534  0.9863  0.7409  0.5735
  461MOL0     C63512   3.588   0.026   1.434  0.6375 -0.0132 -0.1969
  461MOL0     C63513   3.478   0.014   1.337 -0.1205 -0.9943  0.2073
  461MOL0     C63514   3.448   0.113   1.238 -0.4097  0.0603  0.1990
  461MOL0     C63515   3.523   0.229   1.243 -0.6767 -0.9582  0.4712
  461MOL0     O63516   3.510   0.325   1.145  0.4852  0.3617 -0.0409
  461MOL0     C63517   3.506   0.458   1.194 -0.2544  0.6994 -0.6474
  461MOL0     C63518   3.373   0.482   1.258  0.3686  0.4732 -0.2570
  461MOL0     C63519   3.345   0.632   1.284  0.6677  1.1953 -0.4000
  461MOL0     C63520   3.219   0.646   1.372 -0.6517 -0.2825  0.3226
  461MOL0     C63521   3.201   0.782   1.449 -0.5716 -0.5050 -0.0266
  461MOL0     C63522   3.192   0.905   1.361  0.2477  0.3019  1.4532
  461MOL0     C63523   3.057   0.925   1.297  0.0507  1.1167 -0.6478
  461MOL0     C63524   3.050   1.062   1.244  0.4621  0.1461 -0.2657
  461MOL0    Cl63525   3.000   1.063   1.068 -0.2187  0.3087 -0.2109
  461MOL0     C63526   3.625   0.238   1.341 -0.0910 -0.8874 -0.1620
  461MOL0     C63527   3.654   0.140   1.432  0.6943  0.1383  0.3531
  461MOL0     O63528   3.674  -0.221   1.372 -0.3179  0.3747  0.2061
  461MOL0     C63529   3.640  -0.244   1.747  0.6826 -0.2356  0.5775
  461MOL0     C63530   3.622  -0.345   1.841  0.2915  0.7488  0.2957
  461MOL0     N63531   3.153  -0.164   1.970  0.4842  0.6527 -0.3060
  461MOL0     N63532   3.123  -0.088   1.867 -0.3141  0.7575  0.6875
  461MOL0     C63533   2.591   0.757   1.755  0.4031  1.0112 -0.0557
  461MOL0     C63534   2.545   0.883   1.802 -0.5079 -0.3191  0.2683
  461MOL0     C63535   2.474   1.292   1.936  0.1142 -0.4899  0.1407
  461MOL0     C63536   2.486   1.309   2.083 -0.4857 -0.3319 -0.3326
  461MOL0     C63537   2.433   1.419   2.147  0.6492 -0.3242 -0.4753
  461MOL0     C63538   2.364   1.514   2.075 -0.3356  0.0548 -0.7095
  461MOL0     O63539   2.317   1.629   2.145  0.9297  0.3081 -0.5411
  461MOL0     C63540   2.286   1.758   2.084 -0.0596 -0.2008 -0.6965
  461MOL0     C63541   2.270   1.861   2.197  0.5149 -0.0612 -0.0620
  461MOL0     C63542   2.403   1.924   2.230 -0.5097 -0.1824 -0.3642
  461MOL0     C63543   2.401   1.998   2.368 -0.6606  0.5134  0.3853
  461MOL0     C63544   2.353   2.133   2.348 -0.0505 -0.2540 -0.4046
  461MOL0     C63545   2.315   2.247   2.323  0.2740 -0.5685  0.4078
  461MOL0     C63546   2.348   1.498   1.935  0.7705 -0.4421  0.3450
  461MOL0     C63547   2.398   1.389   1.868  0.3032  0.1141 -0.8482
  461MOL0     C63548   2.371   1.378   1.715  0.0760 -0.5064  0.7670
  461MOL0     H63549   2.548   1.062   1.520  0.3222  0.2203 -0.1558
  461MOL0     H63550   2.624   0.843   1.435  0.0920  2.2674  0.6863
  461MOL0     H63551   2.827   0.683   1.457 -0.3008 -0.6832 -0.1947
  461MOL0     H63552   2.687   0.627   1.373  0.3062 -0.2820  0.1655
  461MOL0     H63553   2.739   0.398   1.413  0.1919 -0.5790  1.0306
  461MOL0     H63554   2.891   0.469   1.354  0.7352 -1.6792  0.3217
  461MOL0     H63555   2.996   0.482   1.561  0.9656 -1.6305 -0.6375
  461MOL0     H63556   2.853   0.458   1.655 -0.3491 -1.6075 -0.6099
  461MOL0     H63557   2.939   0.240   1.662  1.7229  1.5561  0.1548
  461MOL0     H63558   2.812   0.238   1.541  0.2105 -2.2604  0.6186
  461MOL0     H63559   3.112   0.304   1.490  0.7458 -2.0753  1.6343
  461MOL0     H63560   2.983   0.250   1.369 -2.0390 -3.2690  1.0596
  461MOL0     H63561   2.999   0.023   1.441 -0.2203 -0.5231 -3.2192
  461MOL0     H63562   3.163   0.086   1.407 -0.8195 -0.5214 -0.0850
  461MOL0     H63563   3.022   0.041   1.670  0.6173  2.2400  1.7393
  461MOL0     H63564   3.180   0.116   1.661  0.7920  0.3138 -3.0763
  461MOL0     H63565   3.141  -0.171   1.558  0.3611  0.3310 -0.2802
  461MOL0     H63566   3.285  -0.061   1.568 -1.2764 -0.0164 -3.2486
  461MOL0     H63567   3.389  -0.254   1.761  0.3710  0.4796  0.6005
  461MOL0     H63568   3.285  -0.319   2.142 -0.5264 -4.1726  0.3922
  461MOL0     H63569   3.441  -0.306   2.053 -0.1804 -1.5986 -0.1305
  461MOL0     H63570   3.210  -0.500   1.986 -0.7104 -0.4886 -3.0088
  461MOL0     H63571   3.333  -0.464   1.873 -0.2107  1.4159 -0.4930
  461MOL0     H63572   3.356  -0.590   2.154 -2.5884 -0.0026 -0.2188
  461MOL0     H63573   3.354  -0.659   1.985 -0.5967  0.1013  1.3570
  461MOL0     H63574   3.569  -0.468   2.079 -1.2102  0.7416 -1.4524
  461MOL0     H63575   3.581  -0.642   2.091  1.8578 -1.1918 -1.2307
  461MOL0     H63576   3.584  -0.636   1.675  0.6463 -0.1176  0.6962
  461MOL0     H63577   3.543  -0.593   1.449 -0.5600 -0.1584  0.8840
  461MOL0     H63578   3.680  -0.502   1.387  2.0029  2.3341  4.1797
  461MOL0     H63579   3.506  -0.432   1.392 -0.9106  1.4339  1.3285
  461MOL0     H63580   3.400  -0.060   1.346  0.4370 -1.4664  1.3110
  461MOL0     H63581   3.362   0.105   1.171 -0.4549  1.7316  0.0166
  461MOL0     H63582   3.598   0.463   1.254 -0.1950 -2.3199 -0.3394
  461MOL0     H63583   3.526   0.518   1.105  1.6293 -0.3564 -0.9992
  461MOL0     H63584   3.315   0.446   1.173  2.0703  0.7253 -1.5888
  461MOL0     H63585   3.359   0.415   1.344 -0.2925 -4.2922 -3.6433
  461MOL0     H63586   3.330   0.686   1.190  0.7710  0.7671 -0.6609
  461MOL0     H63587   3.438   0.680   1.318  1.2620  1.4166 -2.2294
  461MOL0     H63588   3.225   0.567   1.446 -0.1658  0.2176  0.8326
  461MOL0     H63589   3.131   0.622   1.313 -1.0199 -2.3337  1.6385
  461MOL0     H63590   3.117   0.769   1.517  0.7571  0.8261  1.9886
  461MOL0     H63591   3.294   0.790   1.506  0.6326  1.7743 -2.1181
  461MOL0     H63592   3.267   0.900   1.282 -0.5101 -0.8944  0.7756
  461MOL0     H63593   3.215   0.992   1.423 -0.0316  2.3742 -1.1851
  461MOL0     H63594   2.982   0.910   1.375 -0.1843  0.4071 -0.9948
  461MOL0     H63595   3.020   0.857   1.219 -1.5563  1.0630  0.1231
  461MOL0     H63596   3.138   1.125   1.256 -0.8818  1.4820  5.1535
  461MOL0     H63597   2.967   1.114   1.294 -0.1060  2.5864 -3.3748
  461MOL0     H63598   3.681   0.330   1.350  0.7189 -1.1326 -2.1066
  461MOL0     H63599   3.738   0.140   1.500  0.3440 -0.1846  0.7888
  461MOL0     H63600   3.633  -0.137   1.767  1.1046 -0.2986  1.0915
  461MOL0     H63601   3.619  -0.311   1.944 -1.0803  0.4825  0.3556
  461MOL0     H63602   2.605   0.676   1.825  0.6988 -0.6984 -2.0031
  461MOL0     H63603   2.529   0.899   1.908 -0.7747  2.3512 -0.1059
  461MOL0     H63604   2.549   1.244   2.142  2.2155  1.3052 -1.1939
  461MOL0     H63605   2.434   1.434   2.255 -2.4450  1.3822 -0.5435
  461MOL0     H63606   2.372   1.783   2.021  0.0078  0.6041 -0.2999
  461MOL0     H63607   2.190   1.748   2.034 -0.3988  2.1787 -0.6065
  461MOL0     H63608   2.233   1.811   2.288  0.9641  0.9481  0.6910
  461MOL0     H63609   2.192   1.928   2.161  0.5515 -0.8753 -1.7551
  461MOL0     H63610   2.480   1.846   2.234 -1.6655 -1.3404 -0.0568
  461MOL0     H63611   2.442   1.985   2.148  4.9470 -2.5056  0.0173
  461MOL0     H63612   2.497   1.991   2.419 -0.4495 -2.4874 -0.2547
  461MOL0     H63613   2.343   1.941   2.442  1.4369 -2.1764  0.1121
  461MOL0     H63614   2.277   2.346   2.308  0.3920 -0.8506 -2.1424
  461MOL0     H63615   2.293   1.575   1.882  1.5073  1.2119  1.8437
  461MOL0     H63616   2.317   1.461   1.668 -1.3554 -0.1714  2.8861
  461MOL0     H63617   2.463   1.384   1.656  0.0527  1.6230  0.8525
  461MOL0     H63618   2.312   1.291   1.683  0.2243 -0.6040  0.7589
  462MOL0     O63619   3.976   0.745   9.436 -0.3686 -0.2650 -0.1502
  462MOL0     C63620   3.979   0.714   9.556  0.0211  0.5319 -0.5001
  462MOL0     O63621   4.090   0.657   9.620  0.4252 -0.7530  0.2275
  462MOL0     C63622   4.163   0.553   9.570 -0.0476 -0.0026  0.3724
  462MOL0     C63623   4.133   0.475   9.455  0.7211 -0.3249 -0.1776
  462MOL0     C63624   4.210   0.372   9.408  1.0539 -0.3833  0.5653
  462MOL0     C63625   4.317   0.335   9.489 -0.3412 -0.2056  0.1329
  462MOL0     O63626   4.374   0.219   9.439 -0.0607  0.4345  1.0068
  462MOL0     C63627   4.516   0.240   9.436  0.7371  0.0521  0.0379
  462MOL0     C63628   4.581   0.110   9.383  0.2879 -0.7017  0.5654
  462MOL0     C63629   4.588   0.011   9.491 -0.6465  0.4144 -0.3563
  462MOL0     C63630   4.665  -0.111   9.442 -0.7337  0.3138 -0.2696
  462MOL0     C63631   4.708  -0.222   9.540  0.4768  0.1880  0.6533
  462MOL0     C63632   4.793  -0.335   9.488  0.3458  0.3248 -0.7299
  462MOL0     C63633   4.799  -0.451   9.589  0.1330  0.0100 -0.2237
  462MOL0     C63634   4.878  -0.562   9.514 -0.0285 -1.1043  0.2178
  462MOL0     N63635   4.889  -0.675   9.610  0.2019  0.5052 -0.4245
  462MOL0     C63636   4.781  -0.761   9.633 -1.5791 -0.0483  0.4827
  462MOL0     C63637   4.833  -0.852   9.714  0.6940  0.1046 -0.4486
  462MOL0     C63638   4.761  -0.981   9.769 -0.3527  0.4786 -0.8430
  462MOL0     C63639   4.640  -1.015   9.683  0.7536  0.4526  0.1087
  462MOL0     C63640   4.514  -0.954   9.739  0.1667 -0.3206  1.0197
  462MOL0     C63641   4.460  -1.021   9.862 -0.1015  0.4348 -0.7161
  462MOL0     O63642   4.396  -0.928   9.954 -0.5927 -0.6406  0.0072
  462MOL0     C63643   4.260  -0.923   9.957  0.7379  0.5508 -0.6862
  462MOL0     C63644   4.202  -0.867  10.076 -0.6950 -0.0143 -0.2237
  462MOL0     C63645   4.070  -0.863  10.101  0.3856  0.0156  0.3423
  462MOL0     C63646   4.022  -0.804  10.234  0.3849  0.4282  0.3641
  462MOL0     C63647   3.981  -0.901  10.002 -0.8533  0.0951  0.5236
  462MOL0     C63648   3.838  -0.897  10.010  0.3227  0.1689 -0.6787
  462MOL0     O63649   3.775  -0.854   9.893 -0.4310  0.8997  0.0973
  462MOL0     C63650   3.644  -0.889   9.867 -0.3635  0.2829  0.6865
  462MOL0     C63651   3.619  -0.997   9.780  0.2385  0.8743 -0.6611
  462MOL0     C63652   3.490  -1.037   9.745  0.4368  0.3211  0.1626
  462MOL0     C63653   3.379  -0.964   9.805 -0.3371  0.4776  0.0609
  462MOL0     O63654   3.252  -0.990   9.767 -0.2692  0.6693 -0.3626
  462MOL0     C63655   3.176  -1.054   9.871  0.1539  0.4219 -0.3708
  462MOL0     C63656   3.069  -1.140   9.803 -0.4305  0.5552 -0.4813
  462MOL0     C63657   3.126  -1.233   9.707  0.1525  0.2938 -0.1859
  462MOL0     C63658   3.010  -1.321   9.648 -0.0611  0.0962 -0.4053
  462MOL0     C63659   2.955  -1.248   9.522  0.0528 -0.1024  0.4006
  462MOL0     C63660   2.808  -1.293   9.487  0.1296  0.0942  0.5917
  462MOL0     C63661   2.760  -1.222   9.364  0.5345  0.3592 -0.2408
  462MOL0     C63662   2.609  -1.249   9.324 -0.4915 -0.1444 -0.4788
  462MOL0    Cl63663   2.554  -1.143   9.184  0.3961  0.2762 -0.2690
  462MOL0     C63664   3.401  -0.855   9.883  0.3450 -0.5286  0.9200
  462MOL0     C63665   3.537  -0.818   9.914  0.1901  0.3044 -0.3289
  462MOL0     O63666   3.781  -0.946  10.103  0.2117 -0.8239 -0.8127
  462MOL0     C63667   4.031  -0.945   9.876 -0.2017  0.5038 -0.7417
  462MOL0     C63668   4.167  -0.955   9.862 -0.8209  0.2047 -0.0399
  462MOL0     N63669   4.970  -0.829   9.728  1.1140 -0.0397  0.6543
  462MOL0     N63670   5.006  -0.734   9.653 -0.0318  0.3011  0.0359
  462MOL0     C63671   4.345   0.406   9.606  0.2020  0.3317  0.2288
  462MOL0     C63672   4.276   0.522   9.641  0.4797  0.5226  0.5203
  462MOL0     C63673   3.874   0.762   9.653 -0.4281 -0.2363 -0.1499
  462MOL0     C63674   3.865   0.714   9.788  0.5547  0.0282 -0.9478
  462MOL0     C63675   3.752   0.745   9.877  0.3103 -0.4321  0.1524
  462MOL0     C63676   3.642   0.814   9.825 -0.1784  0.2679  1.3957
  462MOL0     O63677   3.526   0.829   9.892 -0.3371 -0.6682  0.1997
  462MOL0     C63678   3.488   0.971   9.905 -0.0215  0.2343  0.4375
  462MOL0     C63679   3.334   0.990   9.877  0.1770 -0.1047 -0.0896
  462MOL0     C63680   3.245   0.947   9.990 -0.4675 -0.6205 -0.0847
  462MOL0     C63681   3.111   0.891   9.947 -0.2875  0.2444  0.5233
  462MOL0     C63682   3.020   0.876  10.054 -1.0749  0.7304 -0.3849
  462MOL0     C63683   2.949   0.844  10.148 -1.3432 -0.6224 -0.7851
  462MOL0     C63684   3.653   0.861   9.690 -0.2593  0.1889  0.1222
  462MOL0     C63685   3.765   0.837   9.607 -0.0512  0.2444 -0.5857
  462MOL0     C63686   3.754   0.905   9.470 -0.3976 -0.9283 -0.7805
  462MOL0     H63687   4.047   0.493   9.390 -1.1269 -3.1132  1.2952
  462MOL0     H63688   4.193   0.330   9.310  1.9459  1.3062 -0.3626
  462MOL0     H63689   4.562   0.264   9.532  1.3858 -4.3732  1.0563
  462MOL0     H63690   4.539   0.323   9.368 -1.6139  1.9262  1.3869
  462MOL0     H63691   4.541   0.061   9.293  4.1202 -3.2936  0.0190
  462MOL0     H63692   4.680   0.151   9.359  0.1286  1.0953  2.7695
  462MOL0     H63693   4.645   0.070   9.563  3.3862  0.2762 -3.1573
  462MOL0     H63694   4.489  -0.019   9.527 -0.2540  0.2519  0.6351
  462MOL0     H63695   4.614  -0.162   9.360  1.4706  0.6042 -1.9208
  462MOL0     H63696   4.763  -0.074   9.409  0.0687 -1.2508  0.2316
  462MOL0     H63697   4.611  -0.260   9.575 -0.4488  2.5745  0.8537
  462MOL0     H63698   4.757  -0.170   9.623  1.9520 -0.4263  0.1937
  462MOL0     H63699   4.753  -0.372   9.392 -0.4100  2.0312 -1.0962
  462MOL0     H63700   4.894  -0.306   9.457  1.6890 -2.4257  0.6578
  462MOL0     H63701   4.700  -0.486   9.622 -1.4375  2.2326 -2.2857
  462MOL0     H63702   4.851  -0.415   9.678 -0.6192  0.1959  0.1528
  462MOL0     H63703   4.811  -0.584   9.430  0.7438 -1.0295 -0.4225
  462MOL0     H63704   4.977  -0.536   9.475 -0.5944  3.4499  1.2723
  462MOL0     H63705   4.679  -0.755   9.595 -1.5712 -0.6589  0.3426
  462MOL0     H63706   4.740  -0.954   9.873 -1.8024 -0.3084 -0.9122
  462MOL0     H63707   4.841  -1.055   9.763  1.3725  2.3731 -3.6832
  462MOL0     H63708   4.657  -0.983   9.580 -1.5951 -1.4963 -0.9908
  462MOL0     H63709   4.637  -1.124   9.672 -0.4863  0.5470 -0.7677
  462MOL0     H63710   4.530  -0.852   9.776 -0.3066 -0.3941  1.4397
  462MOL0     H63711   4.431  -0.958   9.669  1.3951 -2.8733 -0.4255
  462MOL0     H63712   4.388  -1.094   9.823  0.2972 -1.2044  1.4138
  462MOL0     H63713   4.541  -1.069   9.917 -1.4124  0.4486  1.3835
  462MOL0     H63714   4.265  -0.827  10.156 -0.0616 -0.4734 -0.4863
  462MOL0     H63715   3.965  -0.713  10.216 -0.5931 -0.4278 -1.0774
  462MOL0     H63716   4.115  -0.793  10.290  0.9706 -0.2752 -0.4312
  462MOL0     H63717   3.958  -0.869  10.293  1.6397  1.0890  2.5574
  462MOL0     H63718   3.693  -1.046   9.717 -1.0088 -1.9512 -0.1194
  462MOL0     H63719   3.470  -1.117   9.675 -0.3496 -0.6978  1.4933
  462MOL0     H63720   3.235  -1.124   9.931 -0.8157  1.8532  2.4152
  462MOL0     H63721   3.140  -0.981   9.944 -2.9440 -0.6688 -0.6362
  462MOL0     H63722   3.020  -1.193   9.885 -2.0208  0.5396 -1.4026
  462MOL0     H63723   2.995  -1.091   9.739 -1.2053 -2.7679 -2.3645
  462MOL0     H63724   3.195  -1.303   9.755 -2.5360  0.6481  4.7781
  462MOL0     H63725   3.191  -1.187   9.632  2.1515 -2.8698 -0.5913
  462MOL0     H63726   2.927  -1.330   9.718 -0.6184  0.8378 -0.9616
  462MOL0     H63727   3.031  -1.425   9.622  1.5887 -0.2437  1.9350
  462MOL0     H63728   2.942  -1.140   9.538 -1.4701  0.1742 -1.9984
  462MOL0     H63729   3.016  -1.262   9.432  3.5041 -1.3257  2.7272
  462MOL0     H63730   2.732  -1.292   9.566  0.7272  1.7593  1.2031
  462MOL0     H63731   2.818  -1.395   9.450  1.4080  0.9526 -1.6526
  462MOL0     H63732   2.806  -1.261   9.273  1.7358  3.7259 -1.2431
  462MOL0     H63733   2.781  -1.117   9.385 -4.4437  1.3543  1.0350
  462MOL0     H63734   2.551  -1.228   9.415  2.0440  0.7445  1.0541
  462MOL0     H63735   2.592  -1.355   9.305 -4.4068  0.3751 -0.6848
  462MOL0     H63736   3.314  -0.792   9.900 -0.8653 -0.7187 -3.2662
  462MOL0     H63737   3.578  -0.732   9.966  3.6667 -1.7627  0.6787
  462MOL0     H63738   3.969  -0.970   9.791  1.0387 -2.4058 -0.8994
  462MOL0     H63739   4.207  -0.986   9.766  1.6742  2.9198 -0.0277
  462MOL0     H63740   4.425   0.368   9.668 -1.7941 -2.5690  1.2447
  462MOL0     H63741   4.297   0.572   9.735 -0.0871  0.6485  0.5855
  462MOL0     H63742   3.944   0.640   9.799  0.9580  0.1674 -2.5674
  462MOL0     H63743   3.756   0.703   9.977  1.0050 -1.2969 -0.2232
  462MOL0     H63744   3.519   1.026   9.994  0.9310  0.0469  0.2346
  462MOL0     H63745   3.539   1.034   9.832 -2.3771 -1.0890 -2.5904
  462MOL0     H63746   3.293   0.942   9.787  0.3325  1.8581 -1.2582
  462MOL0     H63747   3.317   1.093   9.844 -1.9939 -0.7799 -1.3255
  462MOL0     H63748   3.292   0.860  10.036  1.4804 -0.2218 -1.1784
  462MOL0     H63749   3.238   1.033  10.058 -3.4844  0.8473 -2.0685
  462MOL0     H63750   3.112   0.792   9.899 -1.8813  0.2106  0.5211
  462MOL0     H63751   3.054   0.949   9.874  2.0369  0.5619 -1.1668
  462MOL0     H63752   2.878   0.835  10.227 -0.5787  1.6113  0.2403
  462MOL0     H63753   3.567   0.901   9.638 -0.3705 -3.4760 -2.9266
  462MOL0     H63754   3.733   0.832   9.391 -0.5267  0.5120 -2.1098
  462MOL0     H63755   3.672   0.977   9.465  0.1440 -0.2844 -0.5729
  462MOL0     H63756   3.845   0.962   9.450 -1.5328  1.1530 -0.3029
  463MOL0     O63757   2.749   8.687   3.102  0.9130  0.1999  0.7187
  463MOL0     C63758   2.738   8.804   3.060 -0.1821  0.3365 -0.5516
  463MOL0     O63759   2.847   8.870   3.018  0.0377  0.5902 -0.6805
  463MOL0     C63760   2.970   8.814   3.029 -0.2709 -0.2986 -0.9586
  463MOL0     C63761   3.040   8.810   3.146 -0.5811  0.5196 -1.6664
  463MOL0     C63762   3.176   8.786   3.140 -0.2731 -0.6619 -0.1872
  463MOL0     C63763   3.248   8.749   3.020 -0.1435 -0.3107 -1.3651
  463MOL0     O63764   3.376   8.722   3.039 -0.0570  0.7814 -0.0030
  463MOL0     C63765   3.423   8.600   2.995  0.0706 -0.9548 -0.3894
  463MOL0     C63766   3.369   8.488   3.075 -0.8529  0.0540 -0.0349
  463MOL0     C63767   3.458   8.359   3.048  0.7757 -1.0415 -0.1577
  463MOL0     C63768   3.424   8.234   3.123 -0.4770  0.3950  0.4194
  463MOL0     C63769   3.532   8.117   3.110  0.2744 -0.3165  1.4955
  463MOL0     C63770   3.562   8.075   2.964  0.7545 -0.6314 -0.3675
  463MOL0     C63771   3.633   7.949   2.952  0.4262  0.2195  0.3322
  463MOL0     C63772   3.574   7.827   3.017  0.3513 -0.7348  0.5356
  463MOL0     N63773   3.627   7.700   2.962 -0.8829 -0.2678 -0.3847
  463MOL0     C63774   3.757   7.654   2.964  1.2289 -0.5642 -0.0415
  463MOL0     C63775   3.755   7.527   2.917 -0.0389 -0.3032  0.7305
  463MOL0     C63776   3.870   7.436   2.909 -0.7141 -0.2660 -0.1561
  463MOL0     C63777   3.962   7.448   2.790  0.3873  0.1307  0.0981
  463MOL0     C63778   3.880   7.420   2.663 -0.8742 -0.3726 -0.1422
  463MOL0     C63779   3.966   7.436   2.539 -0.0344 -1.1816 -1.1412
  463MOL0     O63780   4.077   7.350   2.546 -0.3250 -0.1436  0.6193
  463MOL0     C63781   4.161   7.354   2.440  0.4758 -0.2670  0.1665
  463MOL0     C63782   4.123   7.367   2.309  0.1303 -0.6223  0.6964
  463MOL0     C63783   4.205   7.356   2.199 -0.3870  0.1531 -0.2288
  463MOL0     C63784   4.151   7.354   2.064  1.1197  0.3226  0.0410
  463MOL0     C63785   4.339   7.319   2.231  0.3230 -0.7086  0.9404
  463MOL0     C63786   4.435   7.294   2.128 -0.9936 -0.7987  0.3712
  463MOL0     O63787   4.553   7.236   2.175  0.6291  0.5118  0.0428
  463MOL0     C63788   4.676   7.229   2.111 -0.7031  0.2879  0.1548
  463MOL0     C63789   4.712   7.324   2.013  0.3977  0.5781 -0.2463
  463MOL0     C63790   4.836   7.308   1.954  0.3794  0.1774  0.3870
  463MOL0     C63791   4.913   7.196   1.979 -0.4682 -0.2914  0.6874
  463MOL0     O63792   5.023   7.186   1.892 -0.3806 -0.0048  0.1362
  463MOL0     C63793   5.082   7.062   1.852  0.2863  0.6236 -0.5176
  463MOL0     C63794   5.215   7.084   1.778  0.4965 -0.7187  0.2572
  463MOL0     C63795   5.318   7.146   1.869  0.0398  0.9075  0.2163
  463MOL0     C63796   5.445   7.195   1.792 -0.1472 -1.0354  0.0866
  463MOL0     C63797   5.551   7.091   1.745 -0.0298 -0.2022 -0.7649
  463MOL0     C63798   5.675   7.165   1.697  0.2105  0.1944 -0.3517
  463MOL0     C63799   5.783   7.063   1.670  0.0521 -0.0922 -0.4172
  463MOL0     C63800   5.901   7.101   1.755 -0.2711  0.7338 -0.1806
  463MOL0    Cl63801   6.030   6.997   1.699 -0.0292 -0.0172  0.1947
  463MOL0     C63802   4.878   7.108   2.074  0.0871  0.0009  0.0138
  463MOL0     C63803   4.765   7.130   2.144 -0.1673  0.4397 -0.4953
  463MOL0     O63804   4.420   7.340   2.012 -0.2083 -0.5248  0.8990
  463MOL0     C63805   4.382   7.310   2.364  0.6012 -0.5141 -0.2400
  463MOL0     C63806   4.289   7.337   2.466  0.5789  0.5345 -0.0675
  463MOL0     N63807   3.628   7.489   2.891 -0.1073 -0.1833  0.0383
  463MOL0     N63808   3.557   7.595   2.907  0.4220  0.2466  0.3306
  463MOL0     C63809   3.173   8.750   2.905  0.0768  0.1522  0.5369
  463MOL0     C63810   3.037   8.783   2.914 -0.0108  0.2047 -0.3766
  463MOL0     C63811   2.599   8.869   3.068 -0.6527 -0.8805  0.6076
  463MOL0     C63812   2.489   8.790   3.102  0.1554 -0.0046  0.2120
  463MOL0     C63813   2.361   8.840   3.103  0.1046  0.4951  0.8554
  463MOL0     C63814   2.329   8.974   3.079 -0.3789  0.5744 -0.2631
  463MOL0     O63815   2.200   9.021   3.087 -0.5554 -1.3873 -0.1040
  463MOL0     C63816   2.131   9.002   3.209 -0.2092 -0.8553  0.2431
  463MOL0     C63817   2.185   9.081   3.325 -0.2993  0.5039  0.7052
  463MOL0     C63818   2.199   9.229   3.303  0.1571  0.9199  0.2582
  463MOL0     C63819   2.258   9.289   3.429 -0.0523 -0.4504 -0.6386
  463MOL0     C63820   2.150   9.321   3.527  0.4706 -0.5865 -0.2974
  463MOL0     C63821   2.057   9.361   3.599 -0.0153 -0.0690 -0.0775
  463MOL0     C63822   2.436   9.060   3.041  0.2267  0.1749 -0.0342
  463MOL0     C63823   2.570   9.012   3.041  0.1610  0.5172  0.4367
  463MOL0     C63824   2.670   9.108   2.992 -0.2619 -0.9528  0.1014
  463MOL0     H63825   2.991   8.844   3.236 -0.5958 -1.4250 -0.9039
  463MOL0     H63826   3.222   8.784   3.238 -0.1793  0.4777 -0.2019
  463MOL0     H63827   3.530   8.600   3.017 -0.0816  3.2301  1.2780
  463MOL0     H63828   3.415   8.593   2.886  0.2708  0.8173 -0.5551
  463MOL0     H63829   3.380   8.497   3.183  0.7123  2.8451 -0.3262
  463MOL0     H63830   3.265   8.466   3.046 -0.4530 -1.3673 -0.4758
  463MOL0     H63831   3.470   8.337   2.942 -0.8913  1.5383 -0.9747
  463MOL0     H63832   3.555   8.392   3.087  0.8384 -0.5381 -0.7324
  463MOL0     H63833   3.400   8.267   3.225  0.6656  0.6681  0.6059
  463MOL0     H63834   3.331   8.186   3.091 -0.5180 -2.4872  4.2282
  463MOL0     H63835   3.484   8.026   3.148 -2.8925  1.3333  1.7776
  463MOL0     H63836   3.615   8.137   3.178  0.6922  0.5276  0.7654
  463MOL0     H63837   3.467   8.072   2.910  0.0667 -2.0540  0.8405
  463MOL0     H63838   3.623   8.155   2.922 -3.2697  1.6980 -2.3537
  463MOL0     H63839   3.741   7.955   2.971 -0.0238  1.5537  2.8551
  463MOL0     H63840   3.620   7.930   2.845 -2.3124  2.1958  0.2147
  463MOL0     H63841   3.596   7.837   3.123  0.0285 -0.1449  0.5515
  463MOL0     H63842   3.466   7.822   3.000  0.4472  0.4520 -0.5927
  463MOL0     H63843   3.844   7.700   3.010  0.1702  0.6891  0.7583
  463MOL0     H63844   3.858   7.329   2.932  1.0738 -0.4501  0.0982
  463MOL0     H63845   3.931   7.479   2.989 -0.0796  2.7898 -2.1140
  463MOL0     H63846   4.008   7.546   2.773  2.9291 -1.3559 -2.4557
  463MOL0     H63847   4.034   7.367   2.803 -2.1275 -2.8583 -2.7549
  463MOL0     H63848   3.833   7.322   2.672  0.4775 -0.8547  2.3846
  463MOL0     H63849   3.793   7.487   2.665 -1.1102 -0.6960  1.5667
  463MOL0     H63850   3.897   7.412   2.457 -0.3166 -0.7702 -1.0289
  463MOL0     H63851   3.996   7.540   2.521  0.6015 -1.3491 -1.0571
  463MOL0     H63852   4.018   7.389   2.289  0.5336  2.0483  1.1077
  463MOL0     H63853   4.042   7.353   2.061  0.9300  0.9427 -6.0339
  463MOL0     H63854   4.190   7.262   2.018  2.6314  0.4798  0.9279
  463MOL0     H63855   4.173   7.446   2.010 -2.4515  0.4237 -1.5029
  463MOL0     H63856   4.647   7.406   1.985 -2.7477 -1.1192  1.4756
  463MOL0     H63857   4.863   7.384   1.882 -0.4205  2.3214  2.2196
  463MOL0     H63858   5.098   7.000   1.940 -3.6142  0.5822  0.3387
  463MOL0     H63859   5.012   7.005   1.791  0.0557  0.1152  0.2103
  463MOL0     H63860   5.251   6.988   1.738 -1.3230 -2.1144  1.7476
  463MOL0     H63861   5.190   7.142   1.689  0.4874 -0.0655  0.6786
  463MOL0     H63862   5.335   7.068   1.943 -0.1455  2.0262  1.4706
  463MOL0     H63863   5.284   7.236   1.921  0.9273  0.7142  1.1461
  463MOL0     H63864   5.494   7.248   1.874 -1.0878  1.3830 -0.8193
  463MOL0     H63865   5.406   7.266   1.718 -3.6257 -2.4352  0.3927
  463MOL0     H63866   5.581   7.034   1.833 -0.2986  0.8768  0.0505
  463MOL0     H63867   5.504   7.022   1.674 -0.5174 -1.8608  1.0915
  463MOL0     H63868   5.709   7.234   1.775  0.0357  0.2142 -0.2910
  463MOL0     H63869   5.664   7.218   1.602  0.2290 -1.4612 -1.3083
  463MOL0     H63870   5.801   7.056   1.563 -1.1966 -3.6154 -0.5290
  463MOL0     H63871   5.758   6.960   1.697  3.3241 -1.2723 -1.3682
  463MOL0     H63872   5.870   7.087   1.859  0.0038 -1.2304 -0.3291
  463MOL0     H63873   5.936   7.204   1.746  2.3749 -0.1457 -0.6051
  463MOL0     H63874   4.934   7.015   2.078 -0.9402 -0.6853 -1.0354
  463MOL0     H63875   4.748   7.051   2.217  1.8722  2.6956  2.6305
  463MOL0     H63876   4.485   7.294   2.393  1.4296  2.6525 -1.0888
  463MOL0     H63877   4.323   7.332   2.569 -1.6135  3.8863  1.0070
  463MOL0     H63878   3.224   8.731   2.811  0.6840  0.5422  0.7780
  463MOL0     H63879   2.979   8.782   2.822  0.4380  1.1051 -0.6848
  463MOL0     H63880   2.499   8.682   3.114  1.0341 -0.2424 -2.2349
  463MOL0     H63881   2.271   8.782   3.123  0.5275 -0.3291  0.4242
  463MOL0     H63882   2.027   9.036   3.199 -0.0491 -0.4098  0.0843
  463MOL0     H63883   2.123   8.894   3.226  0.8775 -1.1822 -1.1370
  463MOL0     H63884   2.284   9.043   3.352 -0.4749 -0.3155  0.2146
  463MOL0     H63885   2.106   9.059   3.397 -2.7628  2.0657 -1.3198
  463MOL0     H63886   2.266   9.240   3.217 -0.0584  1.8422  0.1993
  463MOL0     H63887   2.107   9.280   3.274  1.6023  1.9135 -3.0850
  463MOL0     H63888   2.313   9.382   3.409  0.5209 -0.6084  0.1311
  463MOL0     H63889   2.338   9.220   3.457  1.5573  1.6226  0.1425
  463MOL0     H63890   1.984   9.374   3.676  1.3662 -1.3373  1.5209
  463MOL0     H63891   2.411   9.159   3.005 -0.8616  0.3579  1.1436
  463MOL0     H63892   2.727   9.063   2.910 -2.2570 -3.2038 -0.1510
  463MOL0     H63893   2.629   9.202   2.952 -1.9669 -2.2119 -1.2515
  463MOL0     H63894   2.741   9.129   3.072  1.8248 -2.0506 -1.3600
  464MOL0     O63895  10.669   0.882   5.351  0.3110  0.2234 -0.3155
  464MOL0     C63896  10.597   0.929   5.440  0.3650  0.0259  0.1157
  464MOL0     O63897  10.631   0.951   5.573  0.4729 -0.2145 -0.3694
  464MOL0     C63898  10.754   0.915   5.615  0.5204 -0.4518  0.2313
  464MOL0     C63899  10.759   0.809   5.711 -0.0637 -0.5402  0.7245
  464MOL0     C63900  10.888   0.762   5.752  0.5005  0.0410 -0.0997
  464MOL0     C63901  11.004   0.818   5.702  0.4073  0.2286 -0.5058
  464MOL0     O63902  11.121   0.771   5.748 -0.1861  0.0168 -0.8528
  464MOL0     C63903  11.198   0.686   5.655 -0.4183  0.0593 -0.1219
  464MOL0     C63904  11.178   0.533   5.668  1.0869 -0.5228  0.0508
  464MOL0     C63905  11.289   0.459   5.591  0.5507 -0.0633 -0.5798
  464MOL0     C63906  11.246   0.334   5.534 -0.2667  0.0584  0.2048
  464MOL0     C63907  11.354   0.268   5.451  0.0158 -0.2333 -0.2963
  464MOL0     C63908  11.311   0.145   5.384 -0.6583  0.2972  0.8899
  464MOL0     C63909  11.436   0.105   5.288 -0.2966  0.4481 -0.3836
  464MOL0     C63910  11.426  -0.029   5.212  1.0531  0.2690  0.2709
  464MOL0     N63911  11.555  -0.080   5.162  0.5830  0.1602 -0.7608
  464MOL0     C63912  11.640  -0.159   5.237 -0.5251  0.3497 -0.6465
  464MOL0     C63913  11.730  -0.197   5.135 -0.2102 -0.1751 -1.3768
  464MOL0     C63914  11.834  -0.305   5.131  0.1651  0.1460  0.0271
  464MOL0     C63915  11.770  -0.435   5.090 -0.2447 -0.0608  0.4104
  464MOL0     C63916  11.885  -0.529   5.056  0.4183  1.4268  0.1541
  464MOL0     C63917  11.853  -0.665   4.985 -0.3950 -1.0069  0.2750
  464MOL0     O63918  11.794  -0.754   5.081  0.1488  0.1391  0.4727
  464MOL0     C63919  11.769  -0.883   5.033 -0.5159 -0.1251 -0.2811
  464MOL0     C63920  11.766  -0.913   4.896  0.7881 -0.3192  0.4243
  464MOL0     C63921  11.735  -1.036   4.850  0.6313  0.0624  0.5763
  464MOL0     C63922  11.714  -1.039   4.697 -0.7773  0.7954  0.9790
  464MOL0     C63923  11.715  -1.146   4.940 -0.7547 -0.8683 -0.2640
  464MOL0     C63924  11.671  -1.284   4.922  0.3154 -0.9105  0.3626
  464MOL0     O63925  11.609  -1.346   5.028  0.3412 -0.0131  0.3890
  464MOL0     C63926  11.609  -1.481   5.044  1.8574 -0.4987 -0.5448
  464MOL0     C63927  11.722  -1.549   5.058 -0.0522  0.2436 -0.7889
  464MOL0     C63928  11.720  -1.686   5.087  0.0843  0.5124 -0.1226
  464MOL0     C63929  11.597  -1.754   5.107 -0.6468 -0.9547 -0.9255
  464MOL0     O63930  11.581  -1.878   5.149  0.4689 -0.0728  0.4748
  464MOL0     C63931  11.685  -1.952   5.213  0.3488  0.5400 -0.0997
  464MOL0     C63932  11.731  -2.072   5.127  0.0765 -0.3302  0.9682
  464MOL0     C63933  11.830  -2.166   5.208 -0.5188 -0.6837  1.2384
  464MOL0     C63934  11.798  -2.310   5.186 -0.2935  0.6536 -0.0462
  464MOL0     C63935  11.897  -2.398   5.256 -0.1866  0.0591 -0.1932
  464MOL0     C63936  11.857  -2.546   5.247 -0.2673 -0.1501  0.2422
  464MOL0     C63937  11.945  -2.635   5.342 -0.3323  0.0628 -0.0079
  464MOL0     C63938  11.927  -2.790   5.325 -0.4214 -0.0505  0.3226
  464MOL0    Cl63939  11.760  -2.819   5.373 -0.0445 -0.0965  0.5861
  464MOL0     C63940  11.480  -1.682   5.078  0.7063  0.1219  0.4494
  464MOL0     C63941  11.479  -1.548   5.052  0.3223  0.4406  0.5195
  464MOL0     O63942  11.716  -1.341   4.824 -0.3660  0.3856  1.2873
  464MOL0     C63943  11.735  -1.105   5.077  0.7319  0.1035  0.6708
  464MOL0     C63944  11.763  -0.983   5.124  0.5473 -0.1843  0.1775
  464MOL0     N63945  11.698  -0.129   5.023 -0.9777  0.0018  0.1351
  464MOL0     N63946  11.602  -0.050   5.038 -0.0087 -1.1613  0.2326
  464MOL0     C63947  10.991   0.913   5.605  0.9615 -0.3704 -0.4571
  464MOL0     C63948  10.873   0.961   5.553  0.2042 -0.4014  0.0528
  464MOL0     C63949  10.452   0.960   5.399 -0.3352 -0.2370 -0.0128
  464MOL0     C63950  10.363   0.966   5.509 -0.6255 -0.4971  1.6123
  464MOL0     C63951  10.230   0.983   5.475  0.4212  0.3747  0.3206
  464MOL0     C63952  10.181   1.017   5.347 -0.3259 -0.4345 -0.3809
  464MOL0     O63953  10.042   1.030   5.329 -0.0325  0.1141  0.0895
  464MOL0     C63954   9.993   1.169   5.347  0.3242  1.3807  0.7376
  464MOL0     C63955   9.860   1.153   5.414 -1.0469  0.8485 -0.4224
  464MOL0     C63956   9.865   1.135   5.567 -0.8298  0.7302 -1.0205
  464MOL0     C63957   9.743   1.183   5.644 -0.1028  0.4538 -0.2691
  464MOL0     C63958   9.747   1.324   5.671  0.5469 -0.8710 -0.2569
  464MOL0     C63959   9.783   1.440   5.693  0.1980  0.4588  0.3532
  464MOL0     C63960  10.274   1.029   5.243 -0.6835  0.0524 -0.2604
  464MOL0     C63961  10.413   0.992   5.265  0.4581 -0.5091  0.0117
  464MOL0     C63962  10.509   0.990   5.152  0.7028  0.7661  0.0779
  464MOL0     H63963  10.666   0.763   5.742  0.3242 -1.1804  0.9442
  464MOL0     H63964  10.895   0.678   5.819  1.2402  2.2171  2.7425
  464MOL0     H63965  11.304   0.708   5.671 -0.5960  2.3299 -1.5058
  464MOL0     H63966  11.178   0.718   5.552 -1.4809  1.5479  0.5137
  464MOL0     H63967  11.169   0.504   5.773  0.2855  1.8861  0.7256
  464MOL0     H63968  11.080   0.503   5.628 -0.6927  2.1611  2.0138
  464MOL0     H63969  11.331   0.527   5.516  1.3441  0.9348  0.7439
  464MOL0     H63970  11.368   0.431   5.661  1.6541  0.7507 -1.4496
  464MOL0     H63971  11.211   0.267   5.613  2.2081 -0.6823  0.7679
  464MOL0     H63972  11.168   0.372   5.468  0.7070 -0.4743 -1.2874
  464MOL0     H63973  11.430   0.251   5.528 -0.9779  0.7921  0.9579
  464MOL0     H63974  11.379   0.350   5.383 -1.8008  2.9703  2.5562
  464MOL0     H63975  11.287   0.065   5.454 -0.3840  1.1034  1.9201
  464MOL0     H63976  11.218   0.162   5.328 -0.3571 -2.0206 -0.4481
  464MOL0     H63977  11.534   0.110   5.336  0.6973  1.6486 -2.3859
  464MOL0     H63978  11.451   0.188   5.217  1.7893  2.3584  2.1102
  464MOL0     H63979  11.385  -0.092   5.291 -0.3536 -0.7423 -1.1883
  464MOL0     H63980  11.354  -0.029   5.130  0.2090 -2.5148  0.9277
  464MOL0     H63981  11.634  -0.184   5.342  0.6982 -1.1666 -0.8961
  464MOL0     H63982  11.884  -0.315   5.228 -2.7269 -0.2201  1.5948
  464MOL0     H63983  11.908  -0.277   5.055 -0.9675  0.7708 -0.8756
  464MOL0     H63984  11.714  -0.475   5.175  1.4331  0.8803  2.0347
  464MOL0     H63985  11.702  -0.412   5.008 -1.8879 -1.8311  1.2140
  464MOL0     H63986  11.949  -0.464   4.996  0.8363  1.9672  1.1757
  464MOL0     H63987  11.939  -0.552   5.148 -1.6211 -0.3728  0.9993
  464MOL0     H63988  11.785  -0.641   4.902  2.1235  1.2225 -1.3280
  464MOL0     H63989  11.941  -0.711   4.939  1.1515 -0.2258  2.2615
  464MOL0     H63990  11.801  -0.836   4.828  1.0867  1.7739  2.7979
  464MOL0     H63991  11.740  -1.140   4.665 -3.1885 -0.8258  3.6867
  464MOL0     H63992  11.783  -0.964   4.658 -0.0993 -0.5866 -0.6157
  464MOL0     H63993  11.608  -1.017   4.678 -1.9055 -2.9673  2.0428
  464MOL0     H63994  11.816  -1.495   5.056  0.8136 -1.1908  0.1541
  464MOL0     H63995  11.815  -1.737   5.098  0.3196  1.2176  1.3783
  464MOL0     H63996  11.769  -1.890   5.245  0.1861 -0.4658  2.5099
  464MOL0     H63997  11.642  -1.995   5.304 -1.3545 -0.5007 -1.3340
  464MOL0     H63998  11.653  -2.145   5.101  0.5968 -0.6338  0.2377
  464MOL0     H63999  11.763  -2.028   5.032  1.3259 -3.0988 -0.0147
  464MOL0     H64000  11.803  -2.158   5.314  0.5887 -2.8729  1.7491
  464MOL0     H64001  11.934  -2.149   5.179 -0.9314 -0.0022  0.0994
  464MOL0     H64002  11.798  -2.341   5.081  3.4362 -1.1912  0.3574
  464MOL0     H64003  11.695  -2.321   5.223 -0.1565  1.5654  0.6395
  464MOL0     H64004  11.993  -2.397   5.204 -1.3404  1.8092 -2.4217
  464MOL0     H64005  11.912  -2.364   5.359  2.1521 -0.4589 -0.3132
  464MOL0     H64006  11.857  -2.597   5.150 -0.7740 -3.9797  2.0472
  464MOL0     H64007  11.755  -2.557   5.285 -0.4314  0.8640  0.1173
  464MOL0     H64008  11.923  -2.620   5.449  2.0449 -0.0292  0.5566
  464MOL0     H64009  12.048  -2.604   5.324 -0.7057  0.0746 -2.3251
  464MOL0     H64010  11.995  -2.848   5.387 -0.0747 -0.4996 -0.4602
  464MOL0     H64011  11.930  -2.820   5.219 -3.2457  2.1252 -0.4923
  464MOL0     H64012  11.379  -1.722   5.090  0.7834  0.3784  2.2351
  464MOL0     H64013  11.383  -1.497   5.041 -1.9736 -3.5730 -0.2470
  464MOL0     H64014  11.701  -1.176   5.152  1.8751 -1.0478  0.1459
  464MOL0     H64015  11.769  -0.963   5.230 -3.3626 -1.6266  0.8315
  464MOL0     H64016  11.084   0.949   5.561  0.3192 -0.0664 -1.6352
  464MOL0     H64017  10.881   1.038   5.477 -0.8833  1.2707  1.5331
  464MOL0     H64018  10.397   0.940   5.609 -0.1717  1.0971  1.8961
  464MOL0     H64019  10.159   0.947   5.549 -2.5546  0.1036 -2.4186
  464MOL0     H64020  10.065   1.224   5.408  2.7933 -1.6948  0.8924
  464MOL0     H64021   9.979   1.206   5.246  0.1815 -3.0395 -1.0852
  464MOL0     H64022   9.810   1.062   5.377  3.2166 -2.0692  0.3009
  464MOL0     H64023   9.801   1.243   5.395 -0.8292  0.8081 -1.3134
  464MOL0     H64024   9.890   1.031   5.590  2.7838  1.5779 -0.4930
  464MOL0     H64025   9.951   1.178   5.619  0.0267 -0.1292 -1.6835
  464MOL0     H64026   9.755   1.133   5.741 -0.9340  0.1184 -0.3371
  464MOL0     H64027   9.654   1.163   5.583  1.6496 -1.4938 -2.4120
  464MOL0     H64028   9.823   1.539   5.706  2.4072 -0.4062  0.5102
  464MOL0     H64029  10.226   1.055   5.149 -0.1482  0.8994 -0.3089
  464MOL0     H64030  10.474   1.018   5.052  0.7961 -0.7293 -0.3985
  464MOL0     H64031  10.593   1.056   5.175  0.3722  0.3364  2.7823
  464MOL0     H64032  10.548   0.889   5.137 -0.5458 -0.0979  2.2859
  465MOL0     O64033   1.231   6.015   4.437 -0.5372  0.0906  0.4805
  465MOL0     C64034   1.237   6.015   4.314  0.1357 -0.5496  0.0142
  465MOL0     O64035   1.255   5.905   4.234 -0.3675 -0.0718  0.1285
  465MOL0     C64036   1.270   5.783   4.302 -0.1494  0.2289 -0.8712
  465MOL0     C64037   1.167   5.690   4.282  0.3023 -0.0523 -0.0293
  465MOL0     C64038   1.174   5.558   4.338  0.0757 -0.2606  0.0207
  465MOL0     C64039   1.273   5.519   4.413  0.1103 -1.1917  0.3170
  465MOL0     O64040   1.249   5.385   4.448  0.0372 -0.3741 -0.7435
  465MOL0     C64041   1.336   5.299   4.525 -1.0621 -0.2847 -0.4036
  465MOL0     C64042   1.316   5.151   4.512  0.1765  0.2783 -0.5163
  465MOL0     C64043   1.331   5.113   4.370  1.2373 -0.0057  0.6240
  465MOL0     C64044   1.343   4.966   4.348  0.6560  0.0537 -0.2596
  465MOL0     C64045   1.362   4.911   4.204 -0.0960  0.5437 -0.1655
  465MOL0     C64046   1.381   4.760   4.202 -0.4388 -0.5940  0.1893
  465MOL0     C64047   1.274   4.658   4.271 -0.3068 -0.2084 -0.6437
  465MOL0     C64048   1.141   4.685   4.200 -0.2285  0.4197  0.9945
  465MOL0     N64049   1.029   4.606   4.245  0.0679 -0.4611 -0.4082
  465MOL0     C64050   0.940   4.642   4.349 -1.3109 -0.7503 -0.7523
  465MOL0     C64051   0.865   4.527   4.366  0.2333  0.2116 -0.2119
  465MOL0     C64052   0.747   4.513   4.458 -0.1267  0.2262 -0.6151
  465MOL0     C64053   0.646   4.623   4.419 -0.0703  0.0856  0.9354
  465MOL0     C64054   0.516   4.610   4.502  0.5382  0.9889  0.0060
  465MOL0     C64055   0.425   4.495   4.459  0.2614  0.4109 -0.5059
  465MOL0     O64056   0.377   4.511   4.328  0.2871 -0.2668 -0.3353
  465MOL0     C64057   0.373   4.401   4.243 -0.8626  0.4408  0.4645
  465MOL0     C64058   0.285   4.296   4.254 -0.0541 -0.7139 -1.1497
  465MOL0     C64059   0.265   4.204   4.152  0.1130 -0.1734 -0.0222
  465MOL0     C64060   0.158   4.104   4.175 -0.2069  0.0766 -0.8314
  465MOL0     C64061   0.335   4.217   4.033  0.3286  0.1663 -0.3421
  465MOL0     C64062   0.327   4.131   3.917  0.3801  0.6981  0.0608
  465MOL0     O64063   0.442   4.112   3.844  0.2097 -0.5825 -0.2221
  465MOL0     C64064   0.441   4.020   3.739  0.9811 -0.9451 -0.0942
  465MOL0     C64065   0.406   3.890   3.754  0.3848  0.0176 -0.9727
  465MOL0     C64066   0.419   3.799   3.648  0.1359 -1.2716 -0.3985
  465MOL0     C64067   0.470   3.832   3.522  0.7553 -0.6084 -0.4401
  465MOL0     O64068   0.470   3.729   3.435 -0.2135  0.7050  0.4350
  465MOL0     C64069   0.493   3.763   3.293  0.2547  0.3350 -0.4938
  465MOL0     C64070   0.438   3.657   3.206 -0.1327 -0.2376 -0.2522
  465MOL0     C64071   0.538   3.634   3.097  0.2406 -0.2419  0.6309
  465MOL0     C64072   0.513   3.500   3.015  0.1284 -0.0476  1.0823
  465MOL0     C64073   0.597   3.509   2.888  0.4823  0.0260  0.8424
  465MOL0     C64074   0.569   3.378   2.804 -0.7706  0.7893 -0.2653
  465MOL0     C64075   0.635   3.382   2.664 -0.2837  0.5968 -0.5952
  465MOL0     C64076   0.609   3.259   2.590 -0.4327  0.3922 -0.0583
  465MOL0    Cl64077   0.721   3.284   2.443 -0.1795  0.2203 -0.3083
  465MOL0     C64078   0.502   3.970   3.505  0.4743  0.6076 -0.4255
  465MOL0     C64079   0.484   4.060   3.607 -0.4418 -0.3515 -0.5932
  465MOL0     O64080   0.213   4.088   3.887  0.5427 -0.0961  0.1037
  465MOL0     C64081   0.425   4.329   4.022 -1.2200  0.0670  0.2905
  465MOL0     C64082   0.450   4.413   4.121  0.5851  0.3117 -0.3444
  465MOL0     N64083   0.896   4.440   4.266  0.5960 -0.6405  0.0872
  465MOL0     N64084   0.995   4.487   4.199 -0.7690 -0.6204  0.0961
  465MOL0     C64085   1.383   5.602   4.441  0.5277  0.0566  0.1476
  465MOL0     C64086   1.379   5.739   4.383  0.6730 -0.1547 -0.1029
  465MOL0     C64087   1.220   6.149   4.256  0.3755  0.9653  0.1114
  465MOL0     C64088   1.247   6.257   4.341  0.5030 -0.1772  0.3282
  465MOL0     C64089   1.215   6.388   4.303  0.2495  0.3214 -0.3468
  465MOL0     C64090   1.154   6.410   4.175  0.9957  0.1687  0.4311
  465MOL0     O64091   1.128   6.532   4.113 -0.2025  0.3534  0.5248
  465MOL0     C64092   1.128   6.642   4.202  0.2144 -0.7136  0.5797
  465MOL0     C64093   1.047   6.765   4.146  0.4132 -0.0675  0.8866
  465MOL0     C64094   1.110   6.826   4.016  0.0027 -0.2787  0.0274
  465MOL0     C64095   1.050   6.959   3.988 -0.2116  0.2409  0.0557
  465MOL0     C64096   0.904   6.954   3.958  0.0227 -0.1133 -0.3803
  465MOL0     C64097   0.786   6.956   3.928 -0.6615 -0.4678 -0.0006
  465MOL0     C64098   1.152   6.304   4.079  0.1918 -1.2347 -1.0999
  465MOL0     C64099   1.179   6.175   4.118 -0.7764  0.4253  0.1583
  465MOL0     C64100   1.178   6.067   4.008 -0.0238 -0.2116  0.8033
  465MOL0     H64101   1.080   5.688   4.217  2.9893 -1.8220 -4.0508
  465MOL0     H64102   1.099   5.485   4.310  1.5953 -2.4790  1.3689
  465MOL0     H64103   1.332   5.332   4.630  1.3430  1.2394 -0.7221
  465MOL0     H64104   1.440   5.307   4.494 -1.1707  1.1461 -0.4710
  465MOL0     H64105   1.402   5.099   4.555  1.4052 -1.3900 -4.5344
  465MOL0     H64106   1.220   5.119   4.552 -0.7944  0.1408 -2.7963
  465MOL0     H64107   1.244   5.149   4.314  3.0512  0.9202 -1.7977
  465MOL0     H64108   1.425   5.149   4.327  1.3539 -0.5852  0.3782
  465MOL0     H64109   1.428   4.931   4.407 -0.4911 -3.9208 -0.6888
  465MOL0     H64110   1.254   4.928   4.400  2.3544 -0.6614  2.3214
  465MOL0     H64111   1.456   4.955   4.168 -0.3180 -0.6860 -2.3843
  465MOL0     H64112   1.278   4.951   4.147 -4.2127  0.3708  5.0228
  465MOL0     H64113   1.402   4.737   4.097  3.0028 -0.8962  0.8208
  465MOL0     H64114   1.480   4.734   4.242 -0.2693 -1.0534 -0.5169
  465MOL0     H64115   1.257   4.674   4.378 -0.7866  2.2555 -1.0407
  465MOL0     H64116   1.317   4.557   4.270  0.3137 -0.0180  1.4040
  465MOL0     H64117   1.115   4.791   4.191  0.1665  0.3551 -1.8163
  465MOL0     H64118   1.162   4.655   4.096  3.6805  0.9256  1.4831
  465MOL0     H64119   0.936   4.739   4.399 -1.2860 -1.2893  0.3228
  465MOL0     H64120   0.785   4.522   4.560 -0.5151 -0.1824 -0.4300
  465MOL0     H64121   0.696   4.417   4.446 -1.1754  0.5820  0.7479
  465MOL0     H64122   0.680   4.727   4.419 -1.1936  0.5568 -2.1088
  465MOL0     H64123   0.603   4.610   4.319 -0.6348  1.0409  1.0388
  465MOL0     H64124   0.541   4.574   4.602 -3.7481 -2.4708  0.1149
  465MOL0     H64125   0.471   4.708   4.524  2.7877  1.5904  2.4512
  465MOL0     H64126   0.476   4.399   4.471 -0.0045 -0.0117 -2.4438
  465MOL0     H64127   0.345   4.486   4.534  0.6620  1.1802  0.0235
  465MOL0     H64128   0.228   4.318   4.344  2.8068 -1.0846  0.8986
  465MOL0     H64129   0.191   4.000   4.164  0.8325  0.0417  1.9975
  465MOL0     H64130   0.062   4.121   4.124 -2.5020 -0.7639  2.8579
  465MOL0     H64131   0.135   4.114   4.281  0.1499  1.7692 -0.8923
  465MOL0     H64132   0.361   3.853   3.845  1.1039 -0.2101 -0.7030
  465MOL0     H64133   0.374   3.702   3.667 -2.6313  0.1992  1.4036
  465MOL0     H64134   0.430   3.849   3.266  1.6494  1.7249  0.5127
  465MOL0     H64135   0.597   3.785   3.266 -0.1175  0.0569 -2.3314
  465MOL0     H64136   0.440   3.566   3.267 -0.0159  0.7204  1.2390
  465MOL0     H64137   0.332   3.670   3.183 -0.2193  1.8083  1.0511
  465MOL0     H64138   0.645   3.639   3.123  0.9899  1.1384 -2.3553
  465MOL0     H64139   0.542   3.728   3.042  2.0306 -0.4971  0.2419
  465MOL0     H64140   0.409   3.485   2.984  1.4643 -1.9685 -3.2845
  465MOL0     H64141   0.545   3.411   3.069  0.0339 -0.5028  0.4001
  465MOL0     H64142   0.549   3.590   2.832 -0.8364 -1.1598  0.2026
  465MOL0     H64143   0.703   3.532   2.904  0.0803  1.7698  1.1894
  465MOL0     H64144   0.465   3.354   2.783 -0.3535 -0.9379 -0.5032
  465MOL0     H64145   0.614   3.298   2.863  1.8615  1.5717 -1.0794
  465MOL0     H64146   0.742   3.397   2.678  0.0451  1.0989 -3.1326
  465MOL0     H64147   0.592   3.468   2.612 -1.1081  0.8566  0.4885
  465MOL0     H64148   0.506   3.238   2.557  0.5245 -1.8681 -1.9222
  465MOL0     H64149   0.634   3.169   2.647  0.3638  0.1173 -0.8147
  465MOL0     H64150   0.542   4.015   3.414  0.4676  2.5445  0.4957
  465MOL0     H64151   0.518   4.162   3.591 -0.8006 -0.4044 -1.8199
  465MOL0     H64152   0.481   4.333   3.929 -3.4137 -0.8971 -1.1735
  465MOL0     H64153   0.517   4.496   4.104 -1.5133  2.5553  1.4996
  465MOL0     H64154   1.460   5.560   4.505  0.0129  0.3567  0.9712
  465MOL0     H64155   1.457   5.814   4.395  2.1515 -1.7932  1.1339
  465MOL0     H64156   1.272   6.251   4.446  1.0488  3.6862  0.5373
  465MOL0     H64157   1.226   6.470   4.374 -2.2653  1.1524 -0.8029
  465MOL0     H64158   1.074   6.629   4.296 -0.1829  3.3323  1.0868
  465MOL0     H64159   1.227   6.681   4.228  1.0649 -2.7117  0.4919
  465MOL0     H64160   1.045   6.842   4.224 -3.1223  0.2008  0.7030
  465MOL0     H64161   0.947   6.741   4.108  1.3984 -0.3693 -1.7156
  465MOL0     H64162   1.217   6.837   4.035 -0.0839  3.1624 -0.9642
  465MOL0     H64163   1.087   6.760   3.932 -1.1689  1.0503 -0.7297
  465MOL0     H64164   1.106   7.000   3.903  0.6240 -3.3147 -1.2448
  465MOL0     H64165   1.075   7.017   4.078  1.4313 -0.0885 -0.1537
  465MOL0     H64166   0.689   6.944   3.885  0.7195 -0.0664 -3.6119
  465MOL0     H64167   1.128   6.319   3.974 -3.2119 -1.6410 -0.4847
  465MOL0     H64168   1.129   5.979   4.051 -0.9728 -0.5209 -0.8459
  465MOL0     H64169   1.122   6.103   3.921 -1.1418 -2.9427  0.3101
  465MOL0     H64170   1.279   6.036   3.980 -0.2788 -1.1982  0.9347
  466MOL0     O64171   3.465   1.022  11.522 -0.2054 -0.2057 -0.2449
  466MOL0     C64172   3.446   1.112  11.602  0.4840 -0.9604 -1.1054
  466MOL0     O64173   3.435   1.247  11.562 -0.2006  0.2454 -0.4754
  466MOL0     C64174   3.505   1.294  11.448  0.2158  0.0775  0.8402
  466MOL0     C64175   3.461   1.416  11.385  1.2801 -0.3619 -0.4284
  466MOL0     C64176   3.528   1.464  11.280  0.1598 -0.3803 -0.2285
  466MOL0     C64177   3.641   1.406  11.224 -0.2302  0.6693 -0.5588
  466MOL0     O64178   3.684   1.462  11.108  0.6037 -0.0493  0.7508
  466MOL0     C64179   3.795   1.395  11.051 -0.9305  0.5339 -0.0639
  466MOL0     C64180   3.840   1.477  10.922  0.2421  0.6553 -0.2721
  466MOL0     C64181   3.734   1.473  10.805  0.5713 -0.0402 -0.4433
  466MOL0     C64182   3.759   1.366  10.705 -0.3252 -0.0185  0.4918
  466MOL0     C64183   3.644   1.380  10.613  0.0922 -0.3907 -0.2251
  466MOL0     C64184   3.635   1.260  10.521 -0.0660  0.3959 -0.1076
  466MOL0     C64185   3.511   1.258  10.434 -0.4015  0.7516 -0.3366
  466MOL0     C64186   3.512   1.135  10.344  0.1955  0.0537  0.4854
  466MOL0     N64187   3.607   1.164  10.224  0.6564 -0.3129  0.2473
  466MOL0     C64188   3.729   1.111  10.216  0.3120 -0.0897 -0.2586
  466MOL0     C64189   3.783   1.165  10.106 -0.8323  0.4584  0.0210
  466MOL0     C64190   3.928   1.139  10.062  0.0951 -0.0522  0.4599
  466MOL0     C64191   3.932   1.113   9.906 -0.8394 -0.3608 -0.4822
  466MOL0     C64192   4.085   1.128   9.853  0.1795  0.2220  0.0873
  466MOL0     C64193   4.168   1.003   9.896  0.4342  0.1361  0.2422
  466MOL0     O64194   4.277   1.008   9.803  0.1482  0.6358  0.3375
  466MOL0     C64195   4.374   0.913   9.797  0.1423  1.0047  0.1054
  466MOL0     C64196   4.405   0.873   9.673  0.0745  0.5086  0.1674
  466MOL0     C64197   4.520   0.790   9.649  0.5249 -0.6143  0.1759
  466MOL0     C64198   4.570   0.788   9.507 -0.4761  0.6738 -0.0892
  466MOL0     C64199   4.584   0.729   9.763 -0.0179 -0.3537  0.2288
  466MOL0     C64200   4.692   0.630   9.749  0.2817  0.5035  0.4011
  466MOL0     O64201   4.715   0.575   9.624 -0.6762  0.4084 -0.1065
  466MOL0     C64202   4.808   0.472   9.598 -0.5506 -0.0663  0.5378
  466MOL0     C64203   4.890   0.405   9.691 -0.4167  0.5391  0.7578
  466MOL0     C64204   4.982   0.303   9.650 -0.3348  0.9574 -0.0952
  466MOL0     C64205   5.000   0.262   9.516  0.2838 -0.4626 -0.2521
  466MOL0     O64206   5.103   0.180   9.483  0.6528 -1.4196 -0.0969
  466MOL0     C64207   5.118   0.155   9.344 -0.2649 -0.3650  0.3062
  466MOL0     C64208   5.232   0.051   9.315  0.4462  0.9381  0.7275
  466MOL0     C64209   5.274   0.035   9.167  0.2369  0.0136  0.1543
  466MOL0     C64210   5.392  -0.051   9.152 -0.3813  0.6078  0.2475
  466MOL0     C64211   5.402  -0.086   9.001  0.2154  0.3017  0.7573
  466MOL0     C64212   5.306  -0.200   8.957  0.6969 -0.2921  0.0282
  466MOL0     C64213   5.300  -0.205   8.807 -0.2335  0.4934  0.1026
  466MOL0     C64214   5.168  -0.281   8.768  0.3831  0.1021  1.6681
  466MOL0    Cl64215   5.166  -0.281   8.581  0.7067 -0.0092  0.4047
  466MOL0     C64216   4.923   0.340   9.429  0.2578  0.1268  0.1679
  466MOL0     C64217   4.836   0.444   9.467  0.9703 -0.2834  0.0215
  466MOL0     O64218   4.756   0.602   9.852  0.1759  0.4318 -0.0940
  466MOL0     C64219   4.537   0.762   9.892  0.0291  0.0565 -0.9970
  466MOL0     C64220   4.440   0.863   9.911 -0.2368  0.2620 -0.3178
  466MOL0     N64221   3.686   1.238  10.045 -0.2817  0.5647  0.1655
  466MOL0     N64222   3.583   1.250  10.118  0.0918  0.6304  0.1157
  466MOL0     C64223   3.689   1.299  11.291  0.2502  0.0106 -0.6102
  466MOL0     C64224   3.624   1.239  11.402  0.4189 -0.2128 -0.1105
  466MOL0     C64225   3.425   1.067  11.742 -0.6988  0.1327 -0.8144
  466MOL0     C64226   3.480   0.938  11.785  0.7423  0.8931 -0.5360
  466MOL0     C64227   3.456   0.893  11.919 -0.5574  0.2270 -0.0198
  466MOL0     C64228   3.399   0.978  12.015 -0.3802  0.0897 -0.2077
  466MOL0     O64229   3.361   0.934  12.144  0.1288  0.0101  1.1174
  466MOL0     C64230   3.436   0.825  12.199  0.4285  0.8000 -0.8047
  466MOL0     C64231   3.358   0.775  12.320 -0.6991 -0.1446 -1.4016
  466MOL0     C64232   3.295   0.874  12.410 -0.4384 -0.6810 -0.3428
  466MOL0     C64233   3.396   0.943  12.493 -1.2080 -0.0173  0.7911
  466MOL0     C64234   3.473   1.032  12.409  0.2758 -0.5913  1.0144
  466MOL0     C64235   3.543   1.108  12.340  0.9519 -0.4932 -0.5007
  466MOL0     C64236   3.342   1.098  11.971  1.3822 -0.0307 -0.3574
  466MOL0     C64237   3.345   1.140  11.835  0.1218 -0.0546  0.0711
  466MOL0     C64238   3.293   1.274  11.798  0.3107 -0.1996  0.9822
  466MOL0     H64239   3.367   1.460  11.415  1.1661 -0.7821 -0.1563
  466MOL0     H64240   3.500   1.561  11.238 -0.7726  0.0479  1.3024
  466MOL0     H64241   3.775   1.288  11.036  0.8382  0.2916 -0.9472
  466MOL0     H64242   3.870   1.402  11.130 -0.0322 -1.7499 -0.6126
  466MOL0     H64243   3.857   1.583  10.944 -1.2851  1.2018 -1.5802
  466MOL0     H64244   3.938   1.443  10.886  1.6289  1.8349  2.0848
  466MOL0     H64245   3.631   1.477  10.842  0.3200 -0.7160 -1.0460
  466MOL0     H64246   3.753   1.568  10.754 -1.3744  0.4562 -0.3177
  466MOL0     H64247   3.854   1.385  10.654 -0.6667 -0.3951 -0.3125
  466MOL0     H64248   3.774   1.268  10.750  3.9057  0.6757  1.0331
  466MOL0     H64249   3.651   1.472  10.554  3.9410  1.0373  2.0600
  466MOL0     H64250   3.547   1.381  10.663  0.0619 -2.4679 -0.1529
  466MOL0     H64251   3.726   1.262  10.461  0.4416 -2.4483  0.3957
  466MOL0     H64252   3.646   1.164  10.572  0.0035  1.3964  1.8207
  466MOL0     H64253   3.503   1.357  10.388  0.9653  0.6404 -0.8499
  466MOL0     H64254   3.426   1.250  10.503 -0.5249 -2.9293 -0.7188
  466MOL0     H64255   3.536   1.048  10.406 -1.2666 -0.5115  0.2948
  466MOL0     H64256   3.409   1.112  10.313  0.9966 -2.4099 -0.6520
  466MOL0     H64257   3.767   1.033  10.281  1.6666  0.9468  0.2716
  466MOL0     H64258   3.959   1.043  10.104 -3.0415 -0.9402  0.9913
  466MOL0     H64259   3.996   1.222  10.083  0.5784 -0.6372  1.2431
  466MOL0     H64260   3.889   1.014   9.889  1.1799 -1.5275  0.6744
  466MOL0     H64261   3.864   1.182   9.856 -1.3446  1.7086  2.7501
  466MOL0     H64262   4.072   1.130   9.745 -1.0995 -0.2071  0.2121
  466MOL0     H64263   4.129   1.221   9.889 -0.8618  1.8602 -2.5906
  466MOL0     H64264   4.209   1.016   9.996  1.6952  0.1962 -0.2551
  466MOL0     H64265   4.117   0.909   9.874  0.2704  0.3886 -0.5128
  466MOL0     H64266   4.347   0.898   9.585 -0.5027  3.5498  1.3002
  466MOL0     H64267   4.507   0.854   9.448  0.4737  0.0609 -1.8491
  466MOL0     H64268   4.563   0.692   9.455  2.0926  0.8358 -0.8508
  466MOL0     H64269   4.671   0.825   9.490  0.1583 -0.9004  0.0725
  466MOL0     H64270   4.891   0.415   9.799  0.3227  0.0952  0.7984
  466MOL0     H64271   5.039   0.244   9.721  0.5904  1.8644 -0.0668
  466MOL0     H64272   5.032   0.111   9.292  0.7661  1.4332 -3.2691
  466MOL0     H64273   5.153   0.242   9.288  0.3897 -2.8985 -3.5925
  466MOL0     H64274   5.326   0.081   9.363  0.9059  0.4253  0.1586
  466MOL0     H64275   5.188  -0.048   9.336  1.5394  0.1792 -0.4530
  466MOL0     H64276   5.291   0.138   9.132  1.4439 -0.1623  0.1723
  466MOL0     H64277   5.194  -0.019   9.115 -0.0917  0.1923  0.4677
  466MOL0     H64278   5.374  -0.134   9.221 -1.3452  2.6377  2.5635
  466MOL0     H64279   5.484  -0.004   9.189 -0.0918  0.4119 -0.2144
  466MOL0     H64280   5.386   0.004   8.941  2.8698  0.7295  0.5729
  466MOL0     H64281   5.499  -0.129   8.977 -0.2845 -0.5474  0.2165
  466MOL0     H64282   5.200  -0.183   8.976 -0.7239 -1.9850 -4.8667
  466MOL0     H64283   5.336  -0.298   8.995 -2.7208 -1.1774  0.7392
  466MOL0     H64284   5.386  -0.262   8.772  0.6188 -0.4733  3.3602
  466MOL0     H64285   5.291  -0.108   8.758 -0.5161  0.5803  0.3201
  466MOL0     H64286   5.079  -0.230   8.807 -0.1807  0.7606 -0.3334
  466MOL0     H64287   5.176  -0.383   8.808  1.3773 -0.3911  0.2922
  466MOL0     H64288   4.923   0.319   9.323  0.5575  0.0918  0.1740
  466MOL0     H64289   4.784   0.488   9.383  0.0833  1.3946  1.3907
  466MOL0     H64290   4.566   0.707   9.981  0.3383  2.4979  0.4928
  466MOL0     H64291   4.400   0.891  10.007  1.3524 -0.8370  0.7192
  466MOL0     H64292   3.783   1.247  11.273  0.8738  0.1335  1.9677
  466MOL0     H64293   3.665   1.150  11.448 -1.7915 -1.3632 -0.2606
  466MOL0     H64294   3.529   0.875  11.711 -1.4767 -3.4842  1.2963
  466MOL0     H64295   3.487   0.795  11.951  0.6866  0.7879  0.5687
  466MOL0     H64296   3.447   0.742  12.129  0.7340 -1.6789  1.9772
  466MOL0     H64297   3.539   0.851  12.223 -0.3228  2.9747  0.3601
  466MOL0     H64298   3.419   0.706  12.380 -1.7149 -0.2410 -0.4384
  466MOL0     H64299   3.282   0.709  12.279  0.0447 -1.2423 -1.0583
  466MOL0     H64300   3.228   0.949  12.366 -1.2315 -0.1375  1.6535
  466MOL0     H64301   3.224   0.825  12.479 -0.3145  2.8338  2.5747
  466MOL0     H64302   3.457   0.879  12.559  2.5206  1.3629 -1.0365
  466MOL0     H64303   3.354   1.023  12.555  0.1386  0.3621  1.2423
  466MOL0     H64304   3.609   1.174  12.287 -0.5722  0.9906 -0.6242
  466MOL0     H64305   3.285   1.169  12.030  0.0708  0.9897 -2.7027
  466MOL0     H64306   3.261   1.313  11.894 -0.4167  1.0106  0.2759
  466MOL0     H64307   3.363   1.345  11.754 -0.0472 -0.2637  0.2838
  466MOL0     H64308   3.197   1.271  11.744  1.7671 -1.2879 -1.7643
  467MOL0     O64309  10.320   0.200   8.084  0.3769  0.3138  0.4039
  467MOL0     C64310  10.431   0.144   8.081 -0.4363 -0.0896  0.6843
  467MOL0     O64311  10.550   0.214   8.118  0.4482 -0.2363 -0.5284
  467MOL0     C64312  10.537   0.353   8.115  0.1715  0.0928 -0.3832
  467MOL0     C64313  10.568   0.412   8.237  0.0332 -0.2868  1.1233
  467MOL0     C64314  10.571   0.555   8.251  0.1982 -0.4807 -0.0727
  467MOL0     C64315  10.531   0.631   8.137 -0.1691  0.0023  0.5552
  467MOL0     O64316  10.511   0.768   8.139  0.3999  0.0615  0.0856
  467MOL0     C64317  10.551   0.833   8.256  0.3457 -0.2586  0.2726
  467MOL0     C64318  10.541   0.989   8.237 -0.4076  0.3376 -0.3311
  467MOL0     C64319  10.402   1.034   8.229  0.0559 -0.7925 -0.0383
  467MOL0     C64320  10.402   1.186   8.227 -0.1233 -0.1432 -0.3279
  467MOL0     C64321  10.263   1.238   8.217 -0.1125 -0.2003 -0.6882
  467MOL0     C64322  10.235   1.378   8.284  0.1289  0.6063  0.5221
  467MOL0     C64323  10.325   1.488   8.236  0.3993 -0.3074 -0.1064
  467MOL0     C64324  10.330   1.627   8.300  0.3686 -0.4568  0.3150
  467MOL0     N64325  10.396   1.633   8.431  0.1078 -0.2522 -1.1005
  467MOL0     C64326  10.462   1.742   8.491 -0.6367  0.0523 -0.9222
  467MOL0     C64327  10.499   1.687   8.605 -0.6396 -0.2381  0.5167
  467MOL0     C64328  10.563   1.777   8.710 -0.2303 -0.2929  0.6347
  467MOL0     C64329  10.451   1.836   8.793 -0.0666  0.4408 -0.3452
  467MOL0     C64330  10.464   1.986   8.806 -0.1454  1.1145 -1.1440
  467MOL0     C64331  10.573   2.030   8.909  0.2515  0.3691 -0.1407
  467MOL0     O64332  10.536   2.158   8.962  0.0628 -0.8251  0.3412
  467MOL0     C64333  10.576   2.270   8.894  1.4228 -0.0637 -0.0638
  467MOL0     C64334  10.571   2.387   8.966 -0.4201 -0.5939 -0.0896
  467MOL0     C64335  10.585   2.524   8.916 -0.0871  0.5032 -0.4388
  467MOL0     C64336  10.567   2.633   9.017  0.4055 -0.0248 -0.3360
  467MOL0     C64337  10.613   2.535   8.781 -0.1879  0.1706  0.9019
  467MOL0     C64338  10.626   2.665   8.714 -0.6682 -0.2233  0.4854
  467MOL0     O64339  10.697   2.757   8.787  0.4522  0.1516  0.6825
  467MOL0     C64340  10.726   2.878   8.723 -0.4068  0.0059 -0.0933
  467MOL0     C64341  10.844   2.903   8.641 -0.5853 -0.1961 -0.5984
  467MOL0     C64342  10.870   3.019   8.581  0.8486  0.0237  0.9091
  467MOL0     C64343  10.781   3.125   8.594 -0.8541 -0.7162  0.0727
  467MOL0     O64344  10.822   3.254   8.558  0.5697  0.4100  0.1886
  467MOL0     C64345  10.858   3.331   8.676 -0.6027  0.5358  0.0209
  467MOL0     C64346  11.005   3.309   8.734 -0.5233 -0.1758  0.1857
  467MOL0     C64347  11.108   3.319   8.625  0.9870 -0.1318  0.1219
  467MOL0     C64348  11.248   3.306   8.686  0.0995  0.8869  0.1759
  467MOL0     C64349  11.353   3.268   8.584 -0.1499  0.1175  0.7239
  467MOL0     C64350  11.400   3.395   8.513 -0.7879 -1.0407  0.4045
  467MOL0     C64351  11.523   3.385   8.408  0.2536  0.0795  0.4203
  467MOL0     C64352  11.487   3.292   8.287 -0.0020 -0.5662  0.0798
  467MOL0    Cl64353  11.618   3.274   8.175 -0.1705 -0.0223 -0.1868
  467MOL0     C64354  10.664   3.111   8.673 -0.1849 -1.0652  0.6612
  467MOL0     C64355  10.638   2.986   8.734 -0.1145 -0.6889  0.8928
  467MOL0     O64356  10.575   2.689   8.603 -0.4245 -0.1275 -0.2570
  467MOL0     C64357  10.625   2.418   8.704  0.2988  0.0472  0.5293
  467MOL0     C64358  10.615   2.283   8.757 -0.3416 -0.9708 -0.2143
  467MOL0     N64359  10.478   1.554   8.614 -0.3309  0.5579  0.1655
  467MOL0     N64360  10.415   1.523   8.504  0.5670 -0.3279  0.1666
  467MOL0     C64361  10.512   0.563   8.012  0.3470 -0.0139 -0.5362
  467MOL0     C64362  10.514   0.427   8.005  0.0570  0.0176  0.2731
  467MOL0     C64363  10.456   0.004   8.047  0.1154 -0.6994  0.5393
  467MOL0     C64364  10.569  -0.062   8.095  0.4563 -0.7936 -0.3124
  467MOL0     C64365  10.596  -0.200   8.054 -0.5653 -0.7477 -0.8031
  467MOL0     C64366  10.505  -0.277   7.988  0.1441 -0.6518 -0.5989
  467MOL0     O64367  10.551  -0.403   7.966 -0.9944 -0.4403  0.0568
  467MOL0     C64368  10.448  -0.505   7.948 -0.1355  0.3511 -0.8240
  467MOL0     C64369  10.454  -0.609   8.059 -0.7025 -0.6477 -0.7735
  467MOL0     C64370  10.427  -0.551   8.201 -0.6976 -0.5651  0.5737
  467MOL0     C64371  10.279  -0.519   8.229  0.5296  0.8207  1.1892
  467MOL0     C64372  10.260  -0.427   8.342 -0.0725  0.3924  0.0955
  467MOL0     C64373  10.249  -0.343   8.433  0.3045 -0.3843  0.8816
  467MOL0     C64374  10.395  -0.209   7.939  0.1752  0.1378 -1.3398
  467MOL0     C64375  10.374  -0.076   7.964  0.6376 -0.0965  0.0946
  467MOL0     C64376  10.256  -0.019   7.893  0.3534 -0.5116 -0.3735
  467MOL0     H64377  10.570   0.356   8.330 -2.4490  0.8553  1.9495
  467MOL0     H64378  10.590   0.605   8.345 -1.1585 -2.6629  1.4527
  467MOL0     H64379  10.656   0.818   8.281  1.1224  0.1936 -2.3820
  467MOL0     H64380  10.488   0.801   8.340 -0.5968  2.9176  0.9208
  467MOL0     H64381  10.595   1.040   8.318  2.3131  2.0923 -3.0316
  467MOL0     H64382  10.594   1.029   8.150  3.5797  1.7092  2.4198
  467MOL0     H64383  10.356   1.005   8.133  0.0656 -0.5620 -0.1136
  467MOL0     H64384  10.339   0.984   8.303 -3.3874  2.9359 -0.1269
  467MOL0     H64385  10.446   1.216   8.323 -1.3648  1.5397 -0.2288
  467MOL0     H64386  10.468   1.217   8.145  2.3699 -2.6493  0.5465
  467MOL0     H64387  10.208   1.179   8.291  0.1863 -0.3738 -0.6009
  467MOL0     H64388  10.216   1.218   8.120 -1.5765 -0.8559  0.1374
  467MOL0     H64389  10.130   1.408   8.287  0.1898  0.8904  0.0054
  467MOL0     H64390  10.252   1.347   8.387  0.5862 -1.5163 -0.1473
  467MOL0     H64391  10.304   1.507   8.131 -1.6503  0.0629  0.3137
  467MOL0     H64392  10.425   1.444   8.244 -0.2751 -1.6468  1.7660
  467MOL0     H64393  10.378   1.701   8.235  2.6407 -0.7117  1.5825
  467MOL0     H64394  10.229   1.666   8.314  0.4599  1.3279 -3.0329
  467MOL0     H64395  10.485   1.846   8.467  0.7468 -0.0101 -0.0306
  467MOL0     H64396  10.620   1.854   8.657  1.0981 -0.9338  1.0631
  467MOL0     H64397  10.628   1.712   8.769  0.6882 -0.8415 -0.9057
  467MOL0     H64398  10.357   1.820   8.740 -0.7219  1.0937  0.5764
  467MOL0     H64399  10.433   1.783   8.888  0.6616  1.5428  0.4390
  467MOL0     H64400  10.487   2.027   8.707  2.7817 -0.8472 -1.3854
  467MOL0     H64401  10.365   2.019   8.839  0.2126  0.0082  1.1862
  467MOL0     H64402  10.581   1.952   8.985  0.0369 -0.7217 -1.2014
  467MOL0     H64403  10.672   2.026   8.864  1.2602  0.0305  2.0014
  467MOL0     H64404  10.554   2.375   9.073  0.0157  1.5433  0.2517
  467MOL0     H64405  10.647   2.639   9.092  0.8227  1.1249 -0.8477
  467MOL0     H64406  10.469   2.604   9.056  0.3288 -0.4342 -0.8231
  467MOL0     H64407  10.567   2.730   8.965 -0.5357  0.1164 -0.0979
  467MOL0     H64408  10.907   2.816   8.622  0.2923  0.3022 -0.0569
  467MOL0     H64409  10.948   3.052   8.513 -1.3819  1.2888 -1.2460
  467MOL0     H64410  10.855   3.438   8.652  0.7752  0.5859 -0.0045
  467MOL0     H64411  10.784   3.322   8.756 -1.2526 -0.4242 -0.6732
  467MOL0     H64412  11.013   3.400   8.795  1.6886 -1.0803  1.3359
  467MOL0     H64413  11.008   3.213   8.786 -0.2082  0.4250  1.3132
  467MOL0     H64414  11.096   3.412   8.568 -4.4134  0.8796  2.2728
  467MOL0     H64415  11.085   3.245   8.548  0.4351  3.0081 -3.0392
  467MOL0     H64416  11.257   3.219   8.751 -1.1649  0.4660 -0.1862
  467MOL0     H64417  11.268   3.399   8.740  0.3742  2.1959 -2.0522
  467MOL0     H64418  11.434   3.219   8.639 -0.5851 -1.1152  0.2963
  467MOL0     H64419  11.318   3.199   8.507  0.2788  0.6505  0.0365
  467MOL0     H64420  11.444   3.461   8.588  0.5412 -0.6718 -0.6658
  467MOL0     H64421  11.316   3.455   8.476  0.7642  1.1984  0.3389
  467MOL0     H64422  11.617   3.350   8.453 -0.9817 -0.4304  2.7395
  467MOL0     H64423  11.547   3.486   8.373 -1.6996 -0.6570 -3.5953
  467MOL0     H64424  11.402   3.331   8.230  1.0303  0.3211 -0.9118
  467MOL0     H64425  11.460   3.189   8.312  4.2742 -2.1446 -1.0110
  467MOL0     H64426  10.587   3.186   8.683  1.3138  0.8415 -1.1076
  467MOL0     H64427  10.544   2.966   8.785 -1.4084 -1.2310 -1.5150
  467MOL0     H64428  10.650   2.434   8.599  0.6333 -1.6071  0.3284
  467MOL0     H64429  10.623   2.195   8.693 -0.1944 -0.6663 -0.6169
  467MOL0     H64430  10.479   0.619   7.925  0.6565 -0.8501 -1.2062
  467MOL0     H64431  10.479   0.381   7.913  0.3404 -2.5080  1.3547
  467MOL0     H64432  10.633  -0.004   8.159  1.6026 -0.7279 -1.4793
  467MOL0     H64433  10.688  -0.239   8.097 -0.6307  0.9985  1.0813
  467MOL0     H64434  10.347  -0.465   7.928  0.7397  2.3551 -1.4991
  467MOL0     H64435  10.465  -0.557   7.853  0.4622  1.9252 -1.6100
  467MOL0     H64436  10.557  -0.646   8.060 -0.9056 -1.2219 -0.3577
  467MOL0     H64437  10.386  -0.694   8.043 -1.2371 -0.3571 -0.0926
  467MOL0     H64438  10.466  -0.606   8.287  1.9087 -0.1244 -0.2216
  467MOL0     H64439  10.468  -0.450   8.204 -3.0636  0.4876  0.0271
  467MOL0     H64440  10.228  -0.615   8.244  0.4438  0.5831 -0.4697
  467MOL0     H64441  10.243  -0.476   8.135  0.6192 -1.3814  0.0970
  467MOL0     H64442  10.234  -0.293   8.527 -0.4556  0.5443  0.2828
  467MOL0     H64443  10.322  -0.256   7.874 -3.6574  2.6566  0.7613
  467MOL0     H64444  10.262   0.082   7.853  1.0591 -0.1177  0.6762
  467MOL0     H64445  10.226  -0.089   7.814  1.1409 -2.3488  0.8836
  467MOL0     H64446  10.174  -0.018   7.964 -0.5246  2.7061 -1.2888
  468MOL0     O64447   2.333   6.220   0.503 -0.4103  0.0855 -0.0888
  468MOL0     C64448   2.339   6.186   0.620 -0.2643  0.3478 -0.7591
  468MOL0     O64449   2.340   6.275   0.730  0.2201 -0.3648  0.1833
  468MOL0     C64450   2.346   6.409   0.723  0.6569 -0.0915  1.3687
  468MOL0     C64451   2.282   6.486   0.622 -0.5248  0.1412 -0.5266
  468MOL0     C64452   2.285   6.628   0.626  0.6262 -0.3184  1.4006
  468MOL0     C64453   2.334   6.692   0.737  1.0015 -0.1668 -0.2163
  468MOL0     O64454   2.328   6.827   0.753  1.1378  0.6098 -0.0800
  468MOL0     C64455   2.292   6.886   0.886  0.7036 -0.9983  0.4178
  468MOL0     C64456   2.258   7.043   0.868  0.2605  0.0677 -0.0798
  468MOL0     C64457   2.366   7.112   0.802 -0.0477 -0.6076  0.2064
  468MOL0     C64458   2.345   7.262   0.823  0.5397  0.9274  0.0051
  468MOL0     C64459   2.269   7.316   0.695  0.1733 -0.4282  0.6835
  468MOL0     C64460   2.367   7.333   0.579 -0.1950 -0.4126  0.2389
  468MOL0     C64461   2.313   7.390   0.443  1.0777 -0.9208  0.1815
  468MOL0     C64462   2.431   7.375   0.352  0.0299 -0.6407 -0.5074
  468MOL0     N64463   2.539   7.464   0.379  1.0511 -0.4618 -0.7345
  468MOL0     C64464   2.529   7.600   0.404 -0.0158 -0.4929  0.4920
  468MOL0     C64465   2.652   7.642   0.419 -0.1938 -0.9910  0.1224
  468MOL0     C64466   2.713   7.775   0.482 -0.8489 -0.0078  0.0991
  468MOL0     C64467   2.735   7.777   0.632  0.1851  0.2901 -1.3359
  468MOL0     C64468   2.752   7.643   0.688 -0.6207  0.2573 -0.9166
  468MOL0     C64469   2.755   7.639   0.842  0.0402  0.0143 -0.6065
  468MOL0     O64470   2.616   7.633   0.888  0.1364  0.3298 -0.0061
  468MOL0     C64471   2.593   7.582   1.017  0.1759 -0.5658  0.4855
  468MOL0     C64472   2.465   7.539   1.048  0.0653  0.3218 -0.0061
  468MOL0     C64473   2.439   7.482   1.170 -0.2632  0.9192 -0.7151
  468MOL0     C64474   2.307   7.433   1.192  0.1500 -1.3808  0.5552
  468MOL0     C64475   2.543   7.464   1.262  0.2511  0.0021 -0.5255
  468MOL0     C64476   2.546   7.403   1.397  1.0177 -0.4987  0.7246
  468MOL0     O64477   2.602   7.475   1.501 -0.1090  0.1943  0.4691
  468MOL0     C64478   2.566   7.433   1.626  0.4622  0.1144 -0.1456
  468MOL0     C64479   2.426   7.431   1.651  0.5010  0.4287 -0.4281
  468MOL0     C64480   2.384   7.391   1.778 -0.4734  0.3385 -0.5767
  468MOL0     C64481   2.473   7.358   1.875 -0.0724  0.7602 -0.6274
  468MOL0     O64482   2.437   7.319   2.001 -0.4392  0.2686 -0.4271
  468MOL0     C64483   2.305   7.371   2.046  0.3289  0.6320 -0.4562
  468MOL0     C64484   2.301   7.316   2.190  0.3109  0.1875  0.2425
  468MOL0     C64485   2.240   7.176   2.191  0.2498  0.8442  0.2864
  468MOL0     C64486   2.198   7.157   2.340  0.6266  0.0778 -0.3345
  468MOL0     C64487   2.317   7.152   2.440  0.4597 -0.0362 -0.0950
  468MOL0     C64488   2.258   7.126   2.583  0.1152  0.1206 -0.8705
  468MOL0     C64489   2.244   6.968   2.611  0.4309 -1.2144 -0.5199
  468MOL0     C64490   2.180   6.932   2.748 -0.3274  0.2461  0.1653
  468MOL0    Cl64491   2.170   6.755   2.742  0.3964 -0.4231  0.1453
  468MOL0     C64492   2.612   7.353   1.849 -0.0765  0.0856  0.3031
  468MOL0     C64493   2.660   7.392   1.721  0.5613  0.0991 -0.5940
  468MOL0     O64494   2.501   7.291   1.393 -0.3899  0.3150 -0.7281
  468MOL0     C64495   2.667   7.511   1.229  0.0924 -0.0090 -0.8283
  468MOL0     C64496   2.698   7.578   1.113  0.7156 -1.1078  0.6208
  468MOL0     N64497   2.737   7.536   0.374  0.5773 -0.2084 -0.2211
  468MOL0     N64498   2.668   7.427   0.358  0.3485  0.0676  0.4640
  468MOL0     C64499   2.394   6.617   0.839  0.4422 -0.3122  0.2466
  468MOL0     C64500   2.404   6.481   0.824  0.5434  0.2147  1.8993
  468MOL0     C64501   2.323   6.041   0.647  0.2978  0.0836 -0.4151
  468MOL0     C64502   2.234   6.006   0.746  0.9063  0.0772 -0.1896
  468MOL0     C64503   2.236   5.873   0.794  0.3267  0.3969  0.6151
  468MOL0     C64504   2.324   5.773   0.739  0.2046  0.7762 -1.0132
  468MOL0     O64505   2.349   5.646   0.786  0.3527 -0.2465 -0.1709
  468MOL0     C64506   2.235   5.591   0.854  0.2683  0.3192  0.1725
  468MOL0     C64507   2.100   5.581   0.770 -1.2064  0.3417 -0.0691
  468MOL0     C64508   2.001   5.501   0.854  0.4443 -0.2791 -0.4065
  468MOL0     C64509   1.866   5.488   0.777 -1.2715  0.1473  1.1242
  468MOL0     C64510   1.790   5.614   0.761  0.5738  0.5931 -0.2836
  468MOL0     C64511   1.721   5.714   0.755  0.5472 -0.3578 -0.0780
  468MOL0     C64512   2.398   5.808   0.634  1.4779  0.2675 -0.0445
  468MOL0     C64513   2.410   5.938   0.590  0.2803 -0.1442  0.2989
  468MOL0     C64514   2.515   5.959   0.485  0.2531 -0.3136  0.8954
  468MOL0     H64515   2.216   6.449   0.544 -1.1362 -0.8013  0.4127
  468MOL0     H64516   2.228   6.692   0.560 -0.2095 -0.6650  1.7740
  468MOL0     H64517   2.365   6.866   0.965  1.5264  0.2144 -0.0101
  468MOL0     H64518   2.195   6.844   0.915  0.1649  1.5813  2.6730
  468MOL0     H64519   2.166   7.060   0.812  0.1095  0.4318  0.2788
  468MOL0     H64520   2.235   7.087   0.965  1.2700  1.0787 -0.2831
  468MOL0     H64521   2.461   7.078   0.845  0.9445  0.3422 -1.1587
  468MOL0     H64522   2.360   7.077   0.698 -0.3802 -1.8078  0.6139
  468MOL0     H64523   2.285   7.272   0.914  0.6024 -1.3331  0.3685
  468MOL0     H64524   2.438   7.317   0.841  1.3626 -0.1175 -0.8681
  468MOL0     H64525   2.241   7.420   0.716  1.2188 -0.1426  0.7479
  468MOL0     H64526   2.183   7.259   0.660 -0.5276 -0.1004  1.8102
  468MOL0     H64527   2.443   7.400   0.621 -1.1282  1.1744 -0.5211
  468MOL0     H64528   2.412   7.235   0.556  2.1740  0.9789 -1.5833
  468MOL0     H64529   2.283   7.495   0.451  1.5284 -0.7692 -0.0565
  468MOL0     H64530   2.224   7.340   0.405 -3.0860  4.6633  1.3593
  468MOL0     H64531   2.463   7.271   0.361  0.1859 -0.5120  0.6359
  468MOL0     H64532   2.395   7.400   0.252  2.7308 -0.6250 -1.5626
  468MOL0     H64533   2.440   7.653   0.434  0.0745 -0.0816  0.0426
  468MOL0     H64534   2.643   7.854   0.451 -1.6487 -0.5514  0.4745
  468MOL0     H64535   2.802   7.792   0.421 -0.6182 -0.2075  0.3816
  468MOL0     H64536   2.823   7.839   0.655 -0.5259  2.2926 -3.6148
  468MOL0     H64537   2.650   7.816   0.688 -0.6122 -2.1058 -0.7869
  468MOL0     H64538   2.691   7.560   0.652 -2.0741  1.2636 -0.8483
  468MOL0     H64539   2.854   7.617   0.658 -0.2173  1.1657 -0.3753
  468MOL0     H64540   2.803   7.545   0.871 -1.2292 -0.2293  0.8765
  468MOL0     H64541   2.809   7.724   0.886  0.0693 -0.5453  0.4758
  468MOL0     H64542   2.392   7.542   0.968 -0.1251 -0.2107  0.1452
  468MOL0     H64543   2.240   7.515   1.163  2.2247 -0.1294 -0.9091
  468MOL0     H64544   2.283   7.409   1.296 -3.9891 -1.6199 -0.2860
  468MOL0     H64545   2.292   7.340   1.137 -0.4963  0.0552 -1.9036
  468MOL0     H64546   2.358   7.461   1.572 -2.1148  0.4501  1.6881
  468MOL0     H64547   2.278   7.389   1.804  0.0127 -4.5704  2.2631
  468MOL0     H64548   2.297   7.479   2.031  0.5958  0.4963 -1.6915
  468MOL0     H64549   2.220   7.329   1.992 -0.6527  1.2908  0.5487
  468MOL0     H64550   2.399   7.323   2.238  0.7985  1.3090 -0.8557
  468MOL0     H64551   2.239   7.396   2.233  1.6804  1.2143  0.3820
  468MOL0     H64552   2.320   7.113   2.152  1.4363  2.0425  0.7209
  468MOL0     H64553   2.154   7.168   2.124 -0.9709  0.9028  1.7889
  468MOL0     H64554   2.137   7.067   2.358 -0.2950  0.7841  0.1919
  468MOL0     H64555   2.123   7.235   2.357  0.9134  0.0726  1.1492
  468MOL0     H64556   2.373   7.064   2.408 -1.3247 -1.2264 -0.1093
  468MOL0     H64557   2.369   7.248   2.434 -0.7998  0.7766  1.2592
  468MOL0     H64558   2.162   7.178   2.586  0.6021  1.0502  2.5137
  468MOL0     H64559   2.321   7.170   2.661  0.5362  2.2223 -2.3030
  468MOL0     H64560   2.347   6.932   2.615  1.6809  2.0976  1.3151
  468MOL0     H64561   2.193   6.921   2.527 -1.6353 -2.9491  1.5874
  468MOL0     H64562   2.077   6.968   2.757 -1.3134 -2.3218  0.2551
  468MOL0     H64563   2.240   6.959   2.835 -1.9938 -0.5226  1.6142
  468MOL0     H64564   2.683   7.330   1.928 -2.0101 -0.8268  1.8546
  468MOL0     H64565   2.765   7.413   1.701  1.8881 -1.5423  3.6722
  468MOL0     H64566   2.744   7.505   1.305 -1.0841  0.6396  0.4481
  468MOL0     H64567   2.799   7.614   1.096  0.8899 -1.6057  0.5895
  468MOL0     H64568   2.422   6.668   0.930 -1.8421  3.0322 -0.7194
  468MOL0     H64569   2.450   6.430   0.909 -1.9561 -0.4598  2.9426
  468MOL0     H64570   2.167   6.077   0.795 -0.2304 -1.7635  1.0721
  468MOL0     H64571   2.180   5.853   0.885  1.5254 -1.8528  0.9537
  468MOL0     H64572   2.255   5.491   0.893  1.7481  0.2442 -0.6967
  468MOL0     H64573   2.217   5.650   0.945  2.7386  1.4668 -0.0009
  468MOL0     H64574   2.115   5.519   0.681 -1.0852 -0.9108  0.8030
  468MOL0     H64575   2.061   5.679   0.739  0.7185  1.2405  0.1707
  468MOL0     H64576   2.020   5.394   0.865 -0.3821 -0.4041 -0.1366
  468MOL0     H64577   1.992   5.548   0.952  1.3687 -1.5989  0.3378
  468MOL0     H64578   1.805   5.415   0.831 -0.8521 -0.9357  0.1732
  468MOL0     H64579   1.886   5.431   0.685  1.7100  0.8167  1.2500
  468MOL0     H64580   1.652   5.795   0.739 -0.0022 -0.7161  0.4288
  468MOL0     H64581   2.450   5.728   0.583 -0.9234 -1.4262  0.0411
  468MOL0     H64582   2.514   5.880   0.409 -1.0983  3.1043 -3.0091
  468MOL0     H64583   2.508   6.058   0.439  3.9672 -0.4245 -0.2579
  468MOL0     H64584   2.613   5.966   0.534  0.5000 -0.4871  0.4277
  469MOL0     O64585   6.824   1.257  11.004 -0.2452 -0.0010  0.6963
  469MOL0     C64586   6.808   1.234  11.123 -0.4304  1.3162 -1.4086
  469MOL0     O64587   6.717   1.146  11.174 -0.0667  0.1219  0.3100
  469MOL0     C64588   6.604   1.127  11.107  0.4118  0.4172 -0.5041
  469MOL0     C64589   6.559   1.182  10.979 -0.2455  0.2717 -0.1423
  469MOL0     C64590   6.436   1.151  10.931 -0.0916 -0.8640 -1.0216
  469MOL0     C64591   6.345   1.062  10.998  0.4961  0.5279  0.6033
  469MOL0     O64592   6.223   1.025  10.951 -0.0016 -0.2476  0.1663
  469MOL0     C64593   6.230   1.001  10.808 -0.0388  0.2279  0.3511
  469MOL0     C64594   6.093   0.979  10.760  0.6200  0.2969  0.5389
  469MOL0     C64595   6.001   1.105  10.753 -0.6122 -0.4016  0.2963
  469MOL0     C64596   5.863   1.073  10.692 -0.2559 -0.5292 -0.0953
  469MOL0     C64597   5.781   0.988  10.791 -1.1315 -0.6074  0.6092
  469MOL0     C64598   5.640   0.956  10.733 -0.4544 -0.0053  0.0345
  469MOL0     C64599   5.633   0.894  10.596 -0.5431  0.8388  0.2154
  469MOL0     C64600   5.486   0.850  10.557 -0.4218 -0.2507 -0.0489
  469MOL0     N64601   5.386   0.956  10.524 -0.1426  0.4655 -0.6669
  469MOL0     C64602   5.264   0.936  10.474  0.6298  0.2676 -0.5902
  469MOL0     C64603   5.214   1.061  10.446 -0.0744 -0.0947  0.0033
  469MOL0     C64604   5.073   1.090  10.406 -0.4414 -0.2545  1.0314
  469MOL0     C64605   4.989   1.155  10.507  0.3883 -0.6239 -0.0456
  469MOL0     C64606   4.973   1.060  10.624  0.2020  0.0499 -0.5171
  469MOL0     C64607   4.852   1.080  10.708  0.6137 -0.5008  0.2943
  469MOL0     O64608   4.848   1.207  10.766  0.3984  0.2569 -0.0952
  469MOL0     C64609   4.743   1.256  10.830 -0.0940 -0.3291  1.0003
  469MOL0     C64610   4.634   1.185  10.878 -0.1183 -0.5148  0.1824
  469MOL0     C64611   4.532   1.249  10.951  0.0530  0.4548 -0.3515
  469MOL0     C64612   4.432   1.149  11.000  0.0696 -0.1674 -0.3217
  469MOL0     C64613   4.534   1.384  10.971 -0.1705 -0.3741  1.2496
  469MOL0     C64614   4.433   1.464  11.047 -0.5238  0.1202  0.2876
  469MOL0     O64615   4.366   1.404  11.154 -0.7346 -0.5711  0.1023
  469MOL0     C64616   4.280   1.486  11.227 -0.6233 -0.4996  0.7749
  469MOL0     C64617   4.287   1.473  11.368 -0.4035  0.0421  0.8027
  469MOL0     C64618   4.192   1.531  11.446  0.9099 -0.3511 -0.4705
  469MOL0     C64619   4.093   1.612  11.393 -0.5130 -0.6560 -0.2344
  469MOL0     O64620   4.000   1.660  11.489 -1.1741  0.1365  0.9144
  469MOL0     C64621   3.864   1.687  11.445  0.1362 -0.1415 -0.1836
  469MOL0     C64622   3.783   1.730  11.561 -0.5396 -0.3601 -0.9981
  469MOL0     C64623   3.638   1.701  11.547  0.2456  0.2322 -0.4559
  469MOL0     C64624   3.562   1.742  11.671  0.2095  0.6727  0.2296
  469MOL0     C64625   3.420   1.712  11.629 -0.0220 -0.1353 -0.2414
  469MOL0     C64626   3.321   1.751  11.742  0.2249  1.2212 -0.1198
  469MOL0     C64627   3.179   1.707  11.725  0.1427 -0.8248  0.3424
  469MOL0     C64628   3.096   1.703  11.858  0.7656 -0.0644 -0.4980
  469MOL0    Cl64629   3.160   1.565  11.959 -0.0902 -0.0190  0.2159
  469MOL0     C64630   4.092   1.637  11.256  0.1594  0.1484  1.1775
  469MOL0     C64631   4.177   1.566  11.173 -0.1644  0.3841  0.2207
  469MOL0     O64632   4.434   1.581  11.023  0.5519 -0.8864  0.4326
  469MOL0     C64633   4.638   1.458  10.905 -0.6054  0.1232 -0.5991
  469MOL0     C64634   4.745   1.392  10.855  0.0701  1.2676 -0.2262
  469MOL0     N64635   5.308   1.149  10.484 -1.5687 -0.3438  0.8894
  469MOL0     N64636   5.406   1.089  10.533 -0.6767  0.1802 -0.3429
  469MOL0     C64637   6.398   1.010  11.118 -0.2074  0.4828  0.0618
  469MOL0     C64638   6.521   1.045  11.178 -0.5918 -1.0038  1.1583
  469MOL0     C64639   6.891   1.301  11.227  0.5253  0.7491 -0.0703
  469MOL0     C64640   6.922   1.228  11.345 -0.5529 -0.1329 -0.0725
  469MOL0     C64641   6.997   1.284  11.439 -0.1901 -0.2178 -0.1389
  469MOL0     C64642   7.034   1.417  11.433  0.3086 -0.6187  0.5569
  469MOL0     O64643   7.097   1.487  11.538  0.2827 -0.2633 -0.3202
  469MOL0     C64644   6.999   1.509  11.636  0.1262 -0.4197 -0.2362
  469MOL0     C64645   6.940   1.650  11.634 -0.7910  0.6317  0.7941
  469MOL0     C64646   6.811   1.683  11.713 -0.9731 -0.8100 -0.2044
  469MOL0     C64647   6.693   1.663  11.612  0.1379  0.8826 -0.3965
  469MOL0     C64648   6.686   1.531  11.550  0.3367 -0.1944  0.3477
  469MOL0     C64649   6.669   1.420  11.504  0.0394 -0.5123  1.1134
  469MOL0     C64650   6.999   1.498  11.318  0.7588 -0.2303  0.0511
  469MOL0     C64651   6.934   1.441  11.208 -0.3217 -0.6856  0.0244
  469MOL0     C64652   6.899   1.529  11.094 -0.5575 -0.5265 -0.2964
  469MOL0     H64653   6.617   1.243  10.911 -1.5168  0.3521 -1.1913
  469MOL0     H64654   6.404   1.187  10.834 -2.8515  1.5152  0.5737
  469MOL0     H64655   6.297   0.917  10.786  0.5393  1.0510 -1.1632
  469MOL0     H64656   6.267   1.089  10.755  2.2644 -0.5218  0.6041
  469MOL0     H64657   6.095   0.940  10.658 -0.0386 -1.8969  1.3100
  469MOL0     H64658   6.034   0.909  10.819 -2.3284  2.1197 -0.0022
  469MOL0     H64659   5.990   1.138  10.857  2.5509 -0.3340  0.6961
  469MOL0     H64660   6.054   1.179  10.692  0.0094  1.9762  3.4813
  469MOL0     H64661   5.815   1.171  10.682  0.6145 -0.2042 -1.2490
  469MOL0     H64662   5.869   1.022  10.596  1.0013 -1.4195  0.4263
  469MOL0     H64663   5.770   1.037  10.888  1.1603  1.6486 -0.1739
  469MOL0     H64664   5.834   0.893  10.800  2.2938  1.1256  0.2568
  469MOL0     H64665   5.589   0.886  10.800  1.9368 -0.3196  1.6579
  469MOL0     H64666   5.591   1.052  10.716  5.3166  2.9610 -2.8287
  469MOL0     H64667   5.696   0.805  10.586 -0.5676  1.0278 -2.4423
  469MOL0     H64668   5.667   0.958  10.514 -2.2688 -1.8879 -2.8843
  469MOL0     H64669   5.496   0.782  10.472 -0.0258  1.1196 -1.1286
  469MOL0     H64670   5.444   0.792  10.640 -0.3524  1.3046  1.0985
  469MOL0     H64671   5.229   0.836  10.449  1.0997 -0.3750  1.1986
  469MOL0     H64672   5.008   1.017  10.357 -3.0648  2.4314  0.2141
  469MOL0     H64673   5.075   1.174  10.336  2.4717 -1.1077 -0.0700
  469MOL0     H64674   5.024   1.254  10.538 -3.3134  0.2776  1.7755
  469MOL0     H64675   4.896   1.170  10.453  0.8580 -0.2689 -0.7727
  469MOL0     H64676   4.962   0.959  10.583 -3.9944 -0.1529  0.7178
  469MOL0     H64677   5.065   1.067  10.683  0.1942  1.3667 -0.6432
  469MOL0     H64678   4.759   1.056  10.657  0.2787  1.6064 -0.1605
  469MOL0     H64679   4.870   1.010  10.791 -2.8209 -4.3234 -1.8081
  469MOL0     H64680   4.629   1.078  10.860 -0.3639 -0.2690 -1.2905
  469MOL0     H64681   4.483   1.076  11.064 -1.4506 -1.7272 -0.8280
  469MOL0     H64682   4.390   1.080  10.927 -1.4033  1.6111 -1.2553
  469MOL0     H64683   4.358   1.197  11.064  2.3825  1.6608  1.1489
  469MOL0     H64684   4.361   1.408  11.414 -0.0584  0.1630  0.4169
  469MOL0     H64685   4.189   1.515  11.553 -1.9261  0.5600 -0.3253
  469MOL0     H64686   3.864   1.776  11.381  2.1893 -0.2889 -0.4692
  469MOL0     H64687   3.823   1.601  11.393  0.2194  1.6788 -3.5377
  469MOL0     H64688   3.826   1.687  11.652 -2.6326 -1.2170 -0.3614
  469MOL0     H64689   3.795   1.838  11.574  1.3448 -0.8243  2.3505
  469MOL0     H64690   3.635   1.592  11.545  0.9065  0.1355  1.5594
  469MOL0     H64691   3.600   1.748  11.456 -0.6528  2.3047  0.9064
  469MOL0     H64692   3.575   1.847  11.700 -1.9264  1.0258  0.0552
  469MOL0     H64693   3.587   1.673  11.752 -0.8899  0.0885  0.0764
  469MOL0     H64694   3.391   1.767  11.540  1.7130  3.1909  1.0853
  469MOL0     H64695   3.413   1.605  11.605  1.4191 -1.0968  3.0341
  469MOL0     H64696   3.322   1.860  11.751 -1.3537  1.2342  0.1663
  469MOL0     H64697   3.357   1.713  11.838 -0.2639  2.5705  0.6405
  469MOL0     H64698   3.185   1.614  11.667  0.6011  1.2548 -3.2358
  469MOL0     H64699   3.126   1.775  11.658  2.8431  2.9205  1.6842
  469MOL0     H64700   2.994   1.682  11.825  1.1516 -1.6348 -0.7882
  469MOL0     H64701   3.092   1.798  11.911 -3.6592 -0.1682 -0.2590
  469MOL0     H64702   4.021   1.711  11.219  0.2713  0.2863  1.2373
  469MOL0     H64703   4.161   1.577  11.067  1.1660  0.3914  0.0094
  469MOL0     H64704   4.642   1.566  10.896 -0.7542  0.0686 -1.3240
  469MOL0     H64705   4.835   1.440  10.819 -0.0212  1.2499 -0.4742
  469MOL0     H64706   6.337   0.936  11.169  1.6754 -1.1553  0.0500
  469MOL0     H64707   6.552   0.991  11.267 -0.3603 -4.9940 -1.1351
  469MOL0     H64708   6.894   1.123  11.343 -0.0942 -0.2588 -1.9581
  469MOL0     H64709   7.001   1.237  11.537 -2.2376  1.0916  0.6487
  469MOL0     H64710   6.915   1.440  11.634  0.1400 -0.6144  2.6361
  469MOL0     H64711   7.044   1.499  11.735 -1.0718 -4.2617  0.0611
  469MOL0     H64712   6.917   1.686  11.533  1.7567  1.6092  0.4937
  469MOL0     H64713   7.009   1.720  11.682  2.0039 -1.3883 -0.0461
  469MOL0     H64714   6.802   1.621  11.803 -0.7230 -0.4677  0.0595
  469MOL0     H64715   6.810   1.785  11.753 -1.2199  0.4975 -3.2675
  469MOL0     H64716   6.715   1.737  11.534  1.8722  1.7387  0.8243
  469MOL0     H64717   6.602   1.692  11.665 -0.1382 -0.2929 -0.1891
  469MOL0     H64718   6.663   1.322  11.462  2.9189 -0.3735  0.1927
  469MOL0     H64719   7.041   1.597  11.306  1.0181 -0.1893  1.2399
  469MOL0     H64720   6.946   1.481  11.008 -1.0101  2.3448 -2.2656
  469MOL0     H64721   6.791   1.542  11.082 -0.9384 -2.0914  0.9673
  469MOL0     H64722   6.936   1.631  11.106 -1.2963 -0.4262  1.5335
  470MOL0     O64723   7.302  10.296   3.257 -0.9676 -0.1607 -0.6768
  470MOL0     C64724   7.350  10.317   3.368 -0.3004 -0.0559  0.7376
  470MOL0     O64725   7.280  10.365   3.472  0.1225 -0.1807  0.2288
  470MOL0     C64726   7.151  10.397   3.449  0.3411  0.1392 -0.7885
  470MOL0     C64727   7.041  10.313   3.417 -0.0905  0.7903  0.9909
  470MOL0     C64728   6.908  10.354   3.406 -0.1545 -0.1753 -0.2288
  470MOL0     C64729   6.875  10.491   3.411 -0.8227 -0.2954 -0.5342
  470MOL0     O64730   6.739  10.524   3.417  0.1403  0.1561 -0.5405
  470MOL0     C64731   6.695  10.664   3.421  0.1217  0.1336 -0.1585
  470MOL0     C64732   6.707  10.730   3.280  0.4667  0.1249  0.3362
  470MOL0     C64733   6.685  10.887   3.269  0.2160 -0.8923  0.4405
  470MOL0     C64734   6.807  10.959   3.327  0.0308 -0.7756  0.1203
  470MOL0     C64735   6.808  11.112   3.287 -0.1594  0.9914  0.0129
  470MOL0     C64736   6.912  11.174   3.373  0.1655  0.6432  0.2055
  470MOL0     C64737   6.892  11.323   3.364  0.1600  0.2817  0.2198
  470MOL0     C64738   7.008  11.407   3.418 -0.3275  0.9098 -1.1538
  470MOL0     N64739   7.142  11.367   3.376 -0.2848  0.4776  0.5078
  470MOL0     C64740   7.190  11.367   3.250  0.3227  0.0600 -0.1045
  470MOL0     C64741   7.312  11.316   3.269 -0.2414  0.0225 -0.7022
  470MOL0     C64742   7.416  11.323   3.153 -0.4494 -0.5646 -0.8879
  470MOL0     C64743   7.507  11.195   3.133 -0.8343  0.2918  0.4076
  470MOL0     C64744   7.441  11.053   3.108 -0.8761  0.4687 -0.2675
  470MOL0     C64745   7.353  11.037   2.984 -0.2107  0.4371  0.0691
  470MOL0     O64746   7.222  11.084   3.019 -0.3242  0.7232  1.3592
  470MOL0     C64747   7.139  11.084   2.910  1.0227  0.1174 -0.4370
  470MOL0     C64748   7.045  11.179   2.905  0.2771 -0.9148  0.4163
  470MOL0     C64749   6.973  11.210   2.794 -0.9687  0.2627  0.0097
  470MOL0     C64750   6.883  11.335   2.798 -0.3105 -0.2286  0.0601
  470MOL0     C64751   6.966  11.115   2.693 -0.5960  0.1863 -0.2034
  470MOL0     C64752   6.855  11.117   2.603 -0.9062 -0.5504  0.0210
  470MOL0     O64753   6.735  11.126   2.664  0.2463 -0.6318 -0.1468
  470MOL0     C64754   6.613  11.114   2.586 -0.6365  0.2597 -0.5406
  470MOL0     C64755   6.594  11.047   2.458 -0.3236 -0.0922 -0.1554
  470MOL0     C64756   6.474  11.003   2.405 -0.7462  0.0189 -0.0489
  470MOL0     C64757   6.357  11.026   2.482  0.1548 -0.0475  0.1607
  470MOL0     O64758   6.231  10.985   2.446  0.4971  0.6943 -0.1338
  470MOL0     C64759   6.197  10.849   2.472  0.2447  1.6015  1.0018
  470MOL0     C64760   6.044  10.834   2.490 -0.7902  0.1146  0.1926
  470MOL0     C64761   6.002  10.695   2.537 -0.8276 -0.1749  0.4642
  470MOL0     C64762   5.854  10.666   2.499  0.2004  0.2041  1.0204
  470MOL0     C64763   5.826  10.519   2.526 -0.8106 -0.2339 -0.2282
  470MOL0     C64764   5.687  10.482   2.487 -0.3804  0.0631 -0.6788
  470MOL0     C64765   5.585  10.540   2.580  0.1712  0.6490  0.8134
  470MOL0     C64766   5.448  10.460   2.586 -0.2345  0.2770  0.1399
  470MOL0    Cl64767   5.311  10.524   2.492  0.0949 -0.1979  0.4504
  470MOL0     C64768   6.371  11.091   2.605  0.0100  0.1466  0.9635
  470MOL0     C64769   6.490  11.132   2.655 -0.9372  1.7885 -0.0776
  470MOL0     O64770   6.881  11.119   2.481  0.8909 -0.1466 -0.6656
  470MOL0     C64771   7.056  11.006   2.689  0.3621 -0.6871  0.4239
  470MOL0     C64772   7.141  10.998   2.797 -0.6407  0.1863 -0.7007
  470MOL0     N64773   7.341  11.285   3.404  1.3160  0.0896 -0.6293
  470MOL0     N64774   7.226  11.310   3.466 -0.6715 -0.2361 -0.3587
  470MOL0     C64775   6.978  10.581   3.440 -0.4592 -0.4455  0.6063
  470MOL0     C64776   7.112  10.536   3.463 -1.5910  0.2732  0.1586
  470MOL0     C64777   7.495  10.285   3.390 -0.2252 -0.0322 -0.1072
  470MOL0     C64778   7.551  10.347   3.499  0.5298 -0.6414 -0.3244
  470MOL0     C64779   7.685  10.326   3.527 -0.6866 -0.0296 -0.1598
  470MOL0     C64780   7.765  10.254   3.445 -1.0147  0.5587 -0.4312
  470MOL0     O64781   7.899  10.252   3.491 -0.8164  0.6224  0.1278
  470MOL0     C64782   7.973  10.130   3.496  0.4222  0.9070  0.0806
  470MOL0     C64783   7.907  10.010   3.562 -0.2862 -0.6692  0.0397
  470MOL0     C64784   7.985   9.873   3.563  0.6939  0.3631  0.8144
  470MOL0     C64785   8.045   9.825   3.430  0.5645  0.8435 -0.3785
  470MOL0     C64786   8.160   9.906   3.394  0.5178 -0.4610 -0.7704
  470MOL0     C64787   8.244   9.977   3.363 -0.2155 -0.3123 -0.6108
  470MOL0     C64788   7.716  10.182   3.340  0.2517 -0.3588 -0.1122
  470MOL0     C64789   7.578  10.189   3.312 -0.0226 -0.8246 -0.7034
  470MOL0     C64790   7.517  10.113   3.201  1.2409 -0.3832  0.5510
  470MOL0     H64791   7.060  10.207   3.404 -0.5445  1.0147 -2.7539
  470MOL0     H64792   6.827  10.283   3.396  0.3291 -0.7563 -0.0798
  470MOL0     H64793   6.748  10.718   3.501  0.4099  0.1830 -0.3821
  470MOL0     H64794   6.588  10.667   3.442 -0.0072  0.9224 -0.8960
  470MOL0     H64795   6.804  10.716   3.232  2.2163  2.6265  2.7923
  470MOL0     H64796   6.624  10.683   3.227 -1.5149  2.1271  1.5079
  470MOL0     H64797   6.675  10.912   3.163  0.9951 -2.0190  0.0865
  470MOL0     H64798   6.597  10.928   3.320  1.4373  1.7693  0.5799
  470MOL0     H64799   6.806  10.934   3.434  0.2253 -2.1682 -0.1870
  470MOL0     H64800   6.907  10.926   3.298  1.8291  3.2559  1.0603
  470MOL0     H64801   6.713  11.162   3.309  0.6179  2.2419  0.6601
  470MOL0     H64802   6.813  11.128   3.179 -4.0201 -4.4546 -1.4285
  470MOL0     H64803   6.904  11.140   3.477 -2.0257  2.1730  0.6235
  470MOL0     H64804   7.014  11.155   3.337  0.3895  0.1712  1.0540
  470MOL0     H64805   6.797  11.351   3.412 -0.5024  0.7893 -1.3352
  470MOL0     H64806   6.870  11.348   3.260 -0.7989 -0.6553  0.1752
  470MOL0     H64807   6.996  11.512   3.389  1.5194  2.0331  1.7507
  470MOL0     H64808   6.985  11.406   3.524 -0.3663  0.4460 -1.1643
  470MOL0     H64809   7.155  11.392   3.150  0.9404 -2.5203 -1.0584
  470MOL0     H64810   7.487  11.406   3.164 -0.0238 -1.0700  0.3641
  470MOL0     H64811   7.362  11.342   3.060  2.1388  2.6407 -1.9094
  470MOL0     H64812   7.571  11.214   3.046  0.4418  0.1570  1.2868
  470MOL0     H64813   7.565  11.190   3.225 -0.1555 -1.1871 -0.0609
  470MOL0     H64814   7.527  10.985   3.100 -0.1973  1.4911 -2.6876
  470MOL0     H64815   7.384  11.038   3.200  0.1460  2.3194  0.7341
  470MOL0     H64816   7.390  11.096   2.900  1.7776 -1.6555 -0.6226
  470MOL0     H64817   7.354  10.935   2.944  1.4958  1.5752 -3.2441
  470MOL0     H64818   7.039  11.242   2.993  1.4810 -0.9303  0.5334
  470MOL0     H64819   6.914  11.397   2.713  1.0230 -0.1478  0.5735
  470MOL0     H64820   6.912  11.395   2.885  2.1664  0.1483 -0.9347
  470MOL0     H64821   6.775  11.320   2.803 -0.2343 -0.6695  0.4224
  470MOL0     H64822   6.678  10.999   2.409 -0.0767 -0.2718  0.4363
  470MOL0     H64823   6.458  10.949   2.312 -4.9871 -0.6701  0.8789
  470MOL0     H64824   6.227  10.795   2.381 -2.4554  0.7223  0.5464
  470MOL0     H64825   6.247  10.805   2.559 -1.5904 -1.7241  0.5546
  470MOL0     H64826   6.007  10.904   2.565 -2.3243 -0.6720  0.1906
  470MOL0     H64827   5.996  10.859   2.395  2.1936 -0.9374 -1.7668
  470MOL0     H64828   6.011  10.683   2.646 -0.2056 -1.6087  0.2736
  470MOL0     H64829   6.076  10.627   2.496 -0.7760  1.8940 -3.2831
  470MOL0     H64830   5.837  10.680   2.392  1.0863  1.3958  1.0111
  470MOL0     H64831   5.782  10.731   2.549 -2.4161 -0.1538 -1.9701
  470MOL0     H64832   5.889  10.449   2.472  0.6309  1.3045 -0.6503
  470MOL0     H64833   5.844  10.521   2.634  1.7572  0.6139 -0.6111
  470MOL0     H64834   5.670  10.375   2.494 -3.8117  0.4644 -0.9535
  470MOL0     H64835   5.669  10.511   2.383 -0.9953 -3.3990 -1.6665
  470MOL0     H64836   5.564  10.644   2.553  0.3731  0.8024  1.2430
  470MOL0     H64837   5.636  10.540   2.677  0.9490  0.8049  0.4140
  470MOL0     H64838   5.413  10.471   2.689  1.4949 -0.3869  0.8253
  470MOL0     H64839   5.462  10.352   2.579 -1.9942  0.0460 -0.5280
  470MOL0     H64840   6.282  11.095   2.668 -0.3531 -0.9602  0.5517
  470MOL0     H64841   6.499  11.169   2.756  1.4685  2.3516 -0.4314
  470MOL0     H64842   7.063  10.937   2.606 -1.4402  0.8878 -1.1229
  470MOL0     H64843   7.220  10.923   2.793  3.1204  3.6485  1.0514
  470MOL0     H64844   6.950  10.686   3.433  1.3965 -0.0270 -2.5270
  470MOL0     H64845   7.187  10.608   3.493 -1.3739 -1.0437  3.1525
  470MOL0     H64846   7.497  10.399   3.577 -2.9960 -1.3572 -2.0709
  470MOL0     H64847   7.736  10.376   3.608  0.3650 -0.0028 -0.8189
  470MOL0     H64848   7.992  10.113   3.389  0.0525 -0.5420  0.2259
  470MOL0     H64849   8.070  10.141   3.544 -0.3189  1.1318  1.5914
  470MOL0     H64850   7.806  10.004   3.521 -0.1105  0.9933 -0.6974
  470MOL0     H64851   7.893  10.027   3.669 -2.2607 -0.7682 -0.1626
  470MOL0     H64852   8.058   9.863   3.643  1.6961 -1.7063 -0.2670
  470MOL0     H64853   7.908   9.798   3.585 -0.5343  1.1165 -0.6965
  470MOL0     H64854   7.960   9.835   3.361  1.1827 -0.0905 -1.2924
  470MOL0     H64855   8.074   9.720   3.440 -0.8298  0.1346 -2.9926
  470MOL0     H64856   8.318  10.054   3.356 -0.7688  0.4075  1.1082
  470MOL0     H64857   7.783  10.120   3.281  1.4694 -1.0789  1.9419
  470MOL0     H64858   7.416  10.082   3.228  0.7305  1.7169  1.2468
  470MOL0     H64859   7.497  10.174   3.113 -2.7184 -1.9512  0.1735
  470MOL0     H64860   7.579  10.026   3.177 -0.8842 -1.3062 -2.0459
  471MOL0     O64861   4.470   6.637   1.041 -0.1023 -0.7707 -0.0202
  471MOL0     C64862   4.515   6.659   1.154 -0.7194  0.0650 -0.1795
  471MOL0     O64863   4.572   6.776   1.196  0.2862  0.1201 -0.1621
  471MOL0     C64864   4.605   6.887   1.112  0.1332 -0.4485  0.1011
  471MOL0     C64865   4.621   6.892   0.969 -0.2649  0.3059 -0.7343
  471MOL0     C64866   4.668   7.003   0.897  0.0201  0.3174  0.7371
  471MOL0     C64867   4.705   7.116   0.967  0.1542  0.2271 -0.5582
  471MOL0     O64868   4.742   7.215   0.887 -0.1917 -0.1796  0.2962
  471MOL0     C64869   4.787   7.337   0.946 -0.1244  0.2146  0.4534
  471MOL0     C64870   4.791   7.447   0.842 -0.3676 -0.6412  0.8262
  471MOL0     C64871   4.651   7.487   0.792 -0.0839 -0.9840 -0.2930
  471MOL0     C64872   4.648   7.633   0.736  0.3468 -0.3723 -0.3842
  471MOL0     C64873   4.707   7.658   0.593  0.9516  0.8578  0.2630
  471MOL0     C64874   4.720   7.815   0.581 -0.0618  0.3917 -0.1069
  471MOL0     C64875   4.805   7.846   0.467  0.2320 -0.2206  1.0291
  471MOL0     C64876   4.742   7.794   0.340  0.0158 -0.0471  0.6826
  471MOL0     N64877   4.814   7.839   0.218 -0.2123 -1.1596 -1.1858
  471MOL0     C64878   4.935   7.778   0.175 -0.3277 -0.1736 -0.6055
  471MOL0     C64879   4.976   7.836   0.060  1.1672 -0.4331 -0.4037
  471MOL0     C64880   5.094   7.817  -0.036 -0.3901  0.6262 -0.2522
  471MOL0     C64881   5.207   7.908  -0.005  1.3634  0.1931  0.3117
  471MOL0     C64882   5.328   7.895  -0.097  0.4966 -0.0084 -0.5756
  471MOL0     C64883   5.414   7.773  -0.075  0.1247 -0.1975 -0.6081
  471MOL0     O64884   5.469   7.765   0.056  0.4110 -0.1872  0.1672
  471MOL0     C64885   5.480   7.636   0.117  0.0435 -0.7188 -0.1621
  471MOL0     C64886   5.482   7.616   0.255 -0.8839  0.3972 -0.4745
  471MOL0     C64887   5.479   7.488   0.312  0.8103 -0.0452 -0.1212
  471MOL0     C64888   5.452   7.487   0.464 -0.1620 -0.3148 -0.2762
  471MOL0     C64889   5.491   7.370   0.236 -0.6976 -0.1387  0.8917
  471MOL0     C64890   5.512   7.237   0.294 -0.8194  1.0103  0.4114
  471MOL0     O64891   5.530   7.225   0.430  0.2088 -0.6112 -0.5657
  471MOL0     C64892   5.524   7.098   0.488 -0.5401 -0.8297  0.1077
  471MOL0     C64893   5.638   7.055   0.547 -0.4614  0.3234  0.0721
  471MOL0     C64894   5.655   6.918   0.577  0.0365 -0.8332 -0.1006
  471MOL0     C64895   5.543   6.838   0.581  0.3832  0.1533 -0.6599
  471MOL0     O64896   5.544   6.715   0.631 -0.1285  0.7152 -0.6585
  471MOL0     C64897   5.677   6.648   0.632  0.3401 -0.3749 -0.0959
  471MOL0     C64898   5.718   6.622   0.483 -0.3727 -0.4605  0.5486
  471MOL0     C64899   5.807   6.501   0.471 -0.5265 -0.7436 -0.4045
  471MOL0     C64900   5.846   6.485   0.318 -0.4747 -0.4443  0.6102
  471MOL0     C64901   5.992   6.468   0.298  0.6355  0.2259 -0.3361
  471MOL0     C64902   6.036   6.334   0.360  0.3734 -0.3078 -0.8152
  471MOL0     C64903   6.183   6.293   0.335 -0.5834  0.5072 -0.0423
  471MOL0     C64904   6.213   6.158   0.407 -0.3884 -0.4409 -0.6472
  471MOL0    Cl64905   6.362   6.077   0.347  0.1032  0.1773 -0.0385
  471MOL0     C64906   5.424   6.891   0.532 -0.2013 -0.2771 -0.1704
  471MOL0     C64907   5.415   7.021   0.480  0.2545 -0.1113 -0.6256
  471MOL0     O64908   5.521   7.140   0.214  0.3868  0.5032 -0.1267
  471MOL0     C64909   5.497   7.389   0.103  0.4196  0.4267  0.0964
  471MOL0     C64910   5.488   7.515   0.041  0.5484 -0.6914 -0.8024
  471MOL0     N64911   4.877   7.936   0.032  0.6399 -0.5350 -0.2569
  471MOL0     N64912   4.785   7.941   0.134 -0.2101 -0.0335  0.2181
  471MOL0     C64913   4.686   7.114   1.112 -1.0084 -0.3997  1.1668
  471MOL0     C64914   4.642   7.003   1.178 -0.0023 -1.1135 -0.4950
  471MOL0     C64915   4.515   6.550   1.261 -0.9734 -0.7623 -0.7593
  471MOL0     C64916   4.536   6.586   1.393  0.1177  0.1197 -0.5649
  471MOL0     C64917   4.545   6.485   1.493  0.0644  0.2020 -0.7967
  471MOL0     C64918   4.529   6.351   1.460 -0.4730 -0.3174  0.5700
  471MOL0     O64919   4.526   6.268   1.572 -0.1868 -1.3154  0.0279
  471MOL0     C64920   4.556   6.121   1.553  0.0222 -0.2371  0.4842
  471MOL0     C64921   4.699   6.076   1.514 -0.5884 -0.6117 -0.0600
  471MOL0     C64922   4.796   6.079   1.633 -0.2423  0.6700 -0.1536
  471MOL0     C64923   4.823   6.214   1.694  0.3909  0.7428  0.1825
  471MOL0     C64924   4.962   6.231   1.715  0.1859  0.5198  0.8890
  471MOL0     C64925   5.079   6.246   1.735 -0.7302 -0.2232 -0.2936
  471MOL0     C64926   4.509   6.318   1.327 -1.0872  0.4919  0.2258
  471MOL0     C64927   4.495   6.412   1.230  0.3767 -0.0288  0.1314
  471MOL0     C64928   4.451   6.360   1.097 -0.9841  0.1861  0.1304
  471MOL0     H64929   4.587   6.801   0.920  0.2468  0.6852 -1.8292
  471MOL0     H64930   4.666   6.989   0.789  1.5737 -2.0384  0.9610
  471MOL0     H64931   4.891   7.331   0.980  0.1746 -0.1908 -0.5043
  471MOL0     H64932   4.728   7.361   1.035 -0.9454 -0.0553 -0.0019
  471MOL0     H64933   4.829   7.543   0.876  2.2204 -0.9866 -0.7973
  471MOL0     H64934   4.857   7.416   0.760  0.5444 -1.0310  1.6929
  471MOL0     H64935   4.612   7.418   0.716 -0.4745 -0.1681 -0.8446
  471MOL0     H64936   4.580   7.485   0.875 -0.3858  1.2437 -0.4360
  471MOL0     H64937   4.541   7.659   0.731  0.8179  1.5983 -1.0818
  471MOL0     H64938   4.693   7.700   0.810 -0.6969  1.6642 -1.5158
  471MOL0     H64939   4.644   7.608   0.519 -1.4432  0.8835  2.1646
  471MOL0     H64940   4.806   7.613   0.604  0.0808 -1.0093  0.7758
  471MOL0     H64941   4.623   7.864   0.569 -1.4853 -1.0788  3.8048
  471MOL0     H64942   4.762   7.851   0.676  1.8075 -2.3630  0.2112
  471MOL0     H64943   4.905   7.806   0.487 -0.0654 -1.9238 -0.5835
  471MOL0     H64944   4.818   7.953   0.452  1.2409 -0.4595  0.0122
  471MOL0     H64945   4.776   7.689   0.340  0.9194  0.2173 -0.4628
  471MOL0     H64946   4.634   7.808   0.337  0.0227  0.2274  1.4223
  471MOL0     H64947   4.981   7.700   0.234  0.6110  0.1976 -0.8415
  471MOL0     H64948   5.078   7.842  -0.142 -0.4898  0.6800 -0.2248
  471MOL0     H64949   5.129   7.713  -0.033 -0.3140  0.6743  0.8177
  471MOL0     H64950   5.162   8.007  -0.020  1.8765  0.2349 -1.1319
  471MOL0     H64951   5.247   7.908   0.097 -0.6373  2.3911  1.1698
  471MOL0     H64952   5.289   7.894  -0.199 -0.7724 -0.4993 -0.0984
  471MOL0     H64953   5.385   7.988  -0.094 -0.8430  0.8215 -0.4417
  471MOL0     H64954   5.358   7.682  -0.097  2.5517 -2.3607  1.5739
  471MOL0     H64955   5.500   7.768  -0.141  0.5137 -3.0464  0.0104
  471MOL0     H64956   5.467   7.705   0.316 -1.5369 -0.5621  0.8182
  471MOL0     H64957   5.354   7.443   0.482 -0.0399 -0.0253  1.1514
  471MOL0     H64958   5.446   7.587   0.506  0.2630 -1.9696  4.2072
  471MOL0     H64959   5.532   7.434   0.516 -2.4184 -2.5916  1.1369
  471MOL0     H64960   5.725   7.117   0.570  2.5244 -3.7843  1.1133
  471MOL0     H64961   5.756   6.887   0.604 -0.0089  0.2108  1.3718
  471MOL0     H64962   5.756   6.703   0.683 -0.1136 -0.1514  0.3683
  471MOL0     H64963   5.674   6.552   0.685  0.5503 -0.2805  0.0828
  471MOL0     H64964   5.629   6.620   0.420  0.1634  0.2660 -0.2393
  471MOL0     H64965   5.774   6.713   0.459  1.3248 -1.6667 -0.2213
  471MOL0     H64966   5.764   6.408   0.510 -0.8128  0.3724  2.1856
  471MOL0     H64967   5.890   6.516   0.542 -0.9108 -3.0528  0.6312
  471MOL0     H64968   5.818   6.578   0.268 -0.2466 -1.7367 -2.0882
  471MOL0     H64969   5.784   6.404   0.279  0.4995 -2.4402  2.9517
  471MOL0     H64970   6.010   6.448   0.192 -0.4995  0.2331 -0.5488
  471MOL0     H64971   6.046   6.557   0.331 -0.6331  1.3251 -1.0967
  471MOL0     H64972   5.966   6.253   0.337  0.4698 -0.6888  0.1799
  471MOL0     H64973   6.015   6.339   0.467 -0.6277 -0.8605 -0.9708
  471MOL0     H64974   6.256   6.372   0.354  2.1484 -1.6884 -0.7702
  471MOL0     H64975   6.199   6.281   0.227  0.6194  3.2386 -0.2555
  471MOL0     H64976   6.126   6.097   0.380 -0.5736 -0.8968  0.8789
  471MOL0     H64977   6.225   6.171   0.515  1.5188 -0.0843 -0.8785
  471MOL0     H64978   5.335   6.828   0.540  0.8775 -1.7654  0.6047
  471MOL0     H64979   5.331   7.062   0.423 -0.6963 -1.9901 -0.6497
  471MOL0     H64980   5.517   7.310   0.032  2.6900  0.5015  0.5648
  471MOL0     H64981   5.486   7.525  -0.067  1.2496  1.9924 -0.6453
  471MOL0     H64982   4.721   7.193   1.178  0.2344  0.7295 -0.7431
  471MOL0     H64983   4.631   7.009   1.286  0.1552 -0.0440 -0.5250
  471MOL0     H64984   4.534   6.691   1.423  0.6814 -0.2752  0.9913
  471MOL0     H64985   4.574   6.510   1.595  2.7595  0.5385 -1.5644
  471MOL0     H64986   4.529   6.074   1.648  1.9019  2.4276  2.4925
  471MOL0     H64987   4.492   6.086   1.472 -0.1937  1.0710  0.0606
  471MOL0     H64988   4.734   6.152   1.444 -1.3169  2.7767  2.9240
  471MOL0     H64989   4.711   5.980   1.464  0.2015  0.4025 -1.9014
  471MOL0     H64990   4.769   6.000   1.704  1.0837 -0.4673 -0.8421
  471MOL0     H64991   4.888   6.044   1.586 -1.9288 -2.0246 -1.6896
  471MOL0     H64992   4.765   6.221   1.786  2.0667  0.9016  1.2489
  471MOL0     H64993   4.791   6.288   1.619 -1.2925 -1.5092 -1.4800
  471MOL0     H64994   5.177   6.273   1.770 -1.2872 -0.6774  1.7585
  471MOL0     H64995   4.494   6.212   1.309 -1.5043  0.4126  0.9590
  471MOL0     H64996   4.431   6.252   1.098 -1.2007  0.2078 -1.0310
  471MOL0     H64997   4.357   6.412   1.078 -1.5954 -1.4367 -1.6159
  471MOL0     H64998   4.531   6.383   1.027 -0.8746  0.4335  0.3357
  472MOL0     O64999  10.931   6.853   4.288 -0.0406  0.6662  0.3034
  472MOL0     C65000  10.946   6.897   4.172 -0.4479 -0.0172  0.2093
  472MOL0     O65001  10.919   7.027   4.134 -0.4138  0.2381 -0.2083
  472MOL0     C65002  10.843   7.109   4.223 -0.0449 -0.6356  0.5495
  472MOL0     C65003  10.885   7.243   4.225  0.4033  0.2095  0.4604
  472MOL0     C65004  10.850   7.329   4.328  0.5025 -0.6534  0.0440
  472MOL0     C65005  10.758   7.284   4.428  0.6048 -1.1572  0.9766
  472MOL0     O65006  10.724   7.383   4.518 -0.1346  0.2994  0.3850
  472MOL0     C65007  10.606   7.376   4.605 -0.4435  0.2543  0.1060
  472MOL0     C65008  10.470   7.380   4.535 -0.5512  0.1582  0.6570
  472MOL0     C65009  10.415   7.523   4.503  0.0120 -0.9139  0.0249
  472MOL0     C65010  10.521   7.612   4.417 -1.3531  0.1114 -0.2929
  472MOL0     C65011  10.455   7.732   4.364  0.4876 -0.1174 -0.9136
  472MOL0     C65012  10.554   7.822   4.303 -0.5559 -0.2162 -0.1908
  472MOL0     C65013  10.483   7.955   4.274 -0.3764 -0.7233 -0.4077
  472MOL0     C65014  10.537   8.003   4.137  0.1847 -0.1456  0.2404
  472MOL0     N65015  10.494   8.134   4.090  0.7252  0.6477  0.4251
  472MOL0     C65016  10.553   8.209   3.989  0.1134  0.1619  0.3804
  472MOL0     C65017  10.452   8.290   3.946  0.3095 -1.3072 -0.0172
  472MOL0     C65018  10.465   8.390   3.825  0.2029 -1.1317  0.0623
  472MOL0     C65019  10.365   8.362   3.722  0.2719 -0.0473  0.0885
  472MOL0     C65020  10.377   8.476   3.617 -1.1712  0.1976  1.1123
  472MOL0     C65021  10.247   8.475   3.527 -0.1160  0.0254 -0.1870
  472MOL0     O65022  10.269   8.388   3.412 -0.1854 -0.9585  0.3277
  472MOL0     C65023  10.309   8.460   3.303 -0.3310 -0.4978  0.4110
  472MOL0     C65024  10.430   8.416   3.228  0.9414  0.8695  0.5298
  472MOL0     C65025  10.470   8.488   3.121  1.0756 -0.0768  0.3946
  472MOL0     C65026  10.596   8.438   3.053  0.1901  0.7140 -0.5856
  472MOL0     C65027  10.390   8.600   3.078  0.3080  0.2392  0.3748
  472MOL0     C65028  10.443   8.685   2.974 -0.5484  0.4710  0.8795
  472MOL0     O65029  10.573   8.721   2.988 -0.3552  1.1985 -0.1928
  472MOL0     C65030  10.635   8.818   2.911  0.4292 -0.1838  0.5021
  472MOL0     C65031  10.764   8.793   2.859  0.7016  0.1114 -0.2752
  472MOL0     C65032  10.824   8.884   2.780  0.3955  0.2153  0.8598
  472MOL0     C65033  10.751   8.997   2.736 -0.0017  0.3080 -0.2399
  472MOL0     O65034  10.799   9.071   2.632  0.8050 -0.0809  0.4130
  472MOL0     C65035  10.910   9.025   2.559 -0.3750  1.2627 -0.3902
  472MOL0     C65036  10.967   9.144   2.475 -0.8750  0.2560 -0.3278
  472MOL0     C65037  11.095   9.115   2.400  0.0925 -0.1081  0.0368
  472MOL0     C65038  11.077   9.101   2.252  0.0138 -0.3328  0.1590
  472MOL0     C65039  11.181   9.016   2.172  0.1851 -0.4799 -0.1012
  472MOL0     C65040  11.155   9.016   2.020 -0.3774  0.2133  0.0763
  472MOL0     C65041  11.189   9.147   1.950 -1.3537 -0.7106 -0.5464
  472MOL0     C65042  11.223   9.128   1.804 -0.3935 -0.3523 -0.6505
  472MOL0    Cl65043  11.271   9.298   1.752  0.1652 -0.2162 -0.1107
  472MOL0     C65044  10.635   9.033   2.804  0.2503 -0.3992  0.0985
  472MOL0     C65045  10.581   8.947   2.891 -0.2464  0.6103  0.5928
  472MOL0     O65046  10.369   8.741   2.895  0.7651 -0.0858 -0.5692
  472MOL0     C65047  10.269   8.634   3.143 -0.4795 -0.0695 -0.0532
  472MOL0     C65048  10.230   8.566   3.256  0.2080  0.2738  0.4729
  472MOL0     N65049  10.340   8.273   4.028  0.0528  0.0166  0.0204
  472MOL0     N65050  10.368   8.173   4.108 -0.1371 -0.0071 -0.2640
  472MOL0     C65051  10.704   7.163   4.420 -0.2210  0.2727  1.6387
  472MOL0     C65052  10.752   7.076   4.324 -0.0803  0.6313  0.7163
  472MOL0     C65053  11.003   6.802   4.076  0.0882  1.1310 -0.2855
  472MOL0     C65054  11.134   6.755   4.089  1.1831  0.2299  0.4949
  472MOL0     C65055  11.193   6.656   4.001 -0.7736 -0.6087 -0.6721
  472MOL0     C65056  11.112   6.586   3.908 -0.9405  0.7647  0.2171
  472MOL0     O65057  11.163   6.480   3.838 -0.5276 -0.2394 -0.3521
  472MOL0     C65058  11.290   6.485   3.772 -0.7821 -0.5211 -0.3262
  472MOL0     C65059  11.262   6.582   3.650 -0.1177 -0.0919  0.2492
  472MOL0     C65060  11.360   6.587   3.538 -1.0404 -1.3302 -0.6892
  472MOL0     C65061  11.302   6.687   3.437 -0.1224  0.7850  0.2753
  472MOL0     C65062  11.371   6.671   3.308  0.6019  0.4822 -1.2167
  472MOL0     C65063  11.410   6.663   3.200 -0.3740 -0.5902  0.0771
  472MOL0     C65064  10.981   6.647   3.883  0.5067 -0.1226 -0.5957
  472MOL0     C65065  10.932   6.752   3.965 -0.3449  0.5532 -0.2209
  472MOL0     C65066  10.793   6.798   3.943  0.7683 -0.3178 -0.7255
  472MOL0     H65067  10.956   7.276   4.150  1.3729 -1.0145  0.7854
  472MOL0     H65068  10.890   7.430   4.325 -0.3698 -0.3050 -0.2440
  472MOL0     H65069  10.616   7.458   4.676  3.2869 -1.7544  2.2386
  472MOL0     H65070  10.611   7.287   4.669 -2.5926  0.0623  0.0651
  472MOL0     H65071  10.485   7.332   4.438  4.0838  1.0354  0.7217
  472MOL0     H65072  10.397   7.320   4.589 -2.4373 -0.2368 -2.0903
  472MOL0     H65073  10.319   7.513   4.452 -1.8368 -0.9634  3.2360
  472MOL0     H65074  10.389   7.582   4.592  0.9066 -0.6722  0.1382
  472MOL0     H65075  10.613   7.627   4.473  1.1461 -1.2341 -3.7329
  472MOL0     H65076  10.565   7.551   4.338 -3.4355 -0.6823 -0.9307
  472MOL0     H65077  10.405   7.793   4.439  0.6447 -0.6115 -0.4023
  472MOL0     H65078  10.379   7.704   4.290 -0.6644 -0.7056  0.4510
  472MOL0     H65079  10.627   7.854   4.379 -1.4930 -0.5455  0.8815
  472MOL0     H65080  10.591   7.773   4.213  2.0722  1.3864 -0.1025
  472MOL0     H65081  10.499   8.035   4.346 -3.6915 -2.4526  2.5157
  472MOL0     H65082  10.375   7.943   4.265 -0.8329 -0.9531  3.6940
  472MOL0     H65083  10.646   8.007   4.141  0.1403  1.5120  0.7759
  472MOL0     H65084  10.493   7.935   4.064  1.1898  0.1943 -0.7024
  472MOL0     H65085  10.652   8.199   3.946  1.4370  0.9789  3.0163
  472MOL0     H65086  10.571   8.386   3.799 -0.2161 -0.1551 -2.0280
  472MOL0     H65087  10.445   8.484   3.876  0.0627 -1.2699  0.2639
  472MOL0     H65088  10.398   8.267   3.677  0.1378  0.7466 -1.8084
  472MOL0     H65089  10.264   8.353   3.763  1.3779 -2.6376  2.5505
  472MOL0     H65090  10.390   8.573   3.665  1.1467 -0.2749  1.5686
  472MOL0     H65091  10.465   8.470   3.553 -0.1350 -0.3921  2.5494
  472MOL0     H65092  10.165   8.433   3.585  0.9682 -3.0510 -0.7220
  472MOL0     H65093  10.228   8.577   3.491  2.2573 -0.2517 -2.5433
  472MOL0     H65094  10.478   8.326   3.264  2.1689  2.4442  3.1720
  472MOL0     H65095  10.674   8.427   3.128 -0.1276 -2.8096 -0.6062
  472MOL0     H65096  10.632   8.508   2.976 -0.6757  0.7187 -1.0059
  472MOL0     H65097  10.579   8.337   3.015 -1.6849  0.3132  1.1296
  472MOL0     H65098  10.815   8.702   2.888  0.9421 -0.4446 -2.3113
  472MOL0     H65099  10.908   8.848   2.722 -0.9691 -3.5263  0.9441
  472MOL0     H65100  10.997   9.002   2.621  0.5219  2.7445 -1.0444
  472MOL0     H65101  10.892   8.938   2.495 -0.5716 -1.6096  3.2643
  472MOL0     H65102  10.893   9.174   2.400  0.4513 -0.8736 -2.1584
  472MOL0     H65103  10.990   9.227   2.543  0.3669 -0.2206 -0.1446
  472MOL0     H65104  11.152   9.030   2.439  0.3217 -0.2430 -0.5816
  472MOL0     H65105  11.155   9.206   2.408  0.7559 -0.6605  1.8875
  472MOL0     H65106  11.065   9.202   2.211 -0.8131  0.1956  1.6564
  472MOL0     H65107  10.984   9.051   2.225 -0.5935  2.1010 -2.8121
  472MOL0     H65108  11.281   9.060   2.179 -0.4086  1.6183 -2.9552
  472MOL0     H65109  11.172   8.914   2.210 -0.9144 -0.6623 -0.8069
  472MOL0     H65110  11.052   8.984   2.004 -0.3579 -3.0228  4.6637
  472MOL0     H65111  11.220   8.939   1.977 -1.3507 -0.0967 -0.8952
  472MOL0     H65112  11.268   9.205   1.999 -1.0464 -1.7602  0.2443
  472MOL0     H65113  11.096   9.204   1.955 -0.8803  0.5446 -3.8594
  472MOL0     H65114  11.142   9.086   1.743 -1.7046 -1.2345  1.5993
  472MOL0     H65115  11.313   9.066   1.797 -0.8787 -1.2017  0.4906
  472MOL0     H65116  10.599   9.134   2.791  0.7829  0.0359  1.7240
  472MOL0     H65117  10.486   8.977   2.934 -0.4775 -1.7417  1.9010
  472MOL0     H65118  10.207   8.718   3.114 -0.0041 -0.0145 -0.9392
  472MOL0     H65119  10.134   8.589   3.302 -0.6207  0.3468 -1.1912
  472MOL0     H65120  10.626   7.131   4.488 -1.1765  2.2574  1.5275
  472MOL0     H65121  10.717   6.973   4.327  2.1659 -0.1585  1.3812
  472MOL0     H65122  11.175   6.791   4.182 -0.6380  2.7912  0.4267
  472MOL0     H65123  11.291   6.621   4.033  0.1960  3.6822  1.9912
  472MOL0     H65124  11.368   6.529   3.835 -0.2300 -0.4388 -1.0509
  472MOL0     H65125  11.331   6.389   3.740  0.8235 -0.3603  1.0583
  472MOL0     H65126  11.237   6.681   3.689 -0.3269 -0.5271  1.2544
  472MOL0     H65127  11.173   6.536   3.606  0.5986 -0.5503 -0.7681
  472MOL0     H65128  11.459   6.609   3.581 -1.2622  1.5122 -1.4363
  472MOL0     H65129  11.369   6.492   3.485  3.0140 -2.2556  1.2518
  472MOL0     H65130  11.313   6.793   3.465  2.7521 -0.2087  3.7053
  472MOL0     H65131  11.193   6.676   3.430 -0.0927  0.5624  0.1696
  472MOL0     H65132  11.436   6.659   3.096 -0.9903  1.7981 -0.2195
  472MOL0     H65133  10.920   6.621   3.797  0.8073 -0.2139 -0.7812
  472MOL0     H65134  10.776   6.901   3.975  2.0638 -0.5006  0.6395
  472MOL0     H65135  10.775   6.789   3.835 -1.3684  0.1968 -0.4696
  472MOL0     H65136  10.721   6.730   3.990 -0.3487  1.6783  0.6204
  473MOL0     O65137   0.975   4.645  10.828  0.3170 -0.5154  0.0064
  473MOL0     C65138   0.905   4.548  10.830 -0.5305 -0.0555 -0.1544
  473MOL0     O65139   0.778   4.548  10.785  0.2392  0.3945  0.2000
  473MOL0     C65140   0.705   4.656  10.753 -0.2351  0.5031  0.3371
  473MOL0     C65141   0.660   4.750  10.852 -0.9437  0.4481  0.1957
  473MOL0     C65142   0.590   4.863  10.816 -0.0729 -0.0006  0.4324
  473MOL0     C65143   0.565   4.899  10.681 -0.5480  0.1528  1.5190
  473MOL0     O65144   0.516   5.027  10.643  0.4042 -0.0187 -0.3169
  473MOL0     C65145   0.382   5.040  10.585  0.0962  0.1423  0.1729
  473MOL0     C65146   0.388   5.046  10.430 -0.3208  0.0425 -0.0935
  473MOL0     C65147   0.250   5.080  10.386 -0.1137 -0.2367  0.3140
  473MOL0     C65148   0.222   5.076  10.233  0.8198  0.2782  0.3334
  473MOL0     C65149   0.068   5.104  10.195 -0.2738 -0.0955 -0.0602
  473MOL0     C65150   0.045   5.095  10.040  0.3211 -0.1439 -0.1134
  473MOL0     C65151  -0.097   5.036  10.017 -0.3481  0.6911 -0.4906
  473MOL0     C65152  -0.115   5.010   9.869  0.0683 -0.6005 -0.2214
  473MOL0     N65153  -0.072   5.121   9.779 -0.0503 -0.4601 -0.2208
  473MOL0     C65154   0.042   5.127   9.697  0.7147 -0.9201  0.4931
  473MOL0     C65155   0.037   5.245   9.631  0.7342 -0.2925  0.5939
  473MOL0     C65156   0.144   5.286   9.541  0.0366 -0.9213  0.1533
  473MOL0     C65157   0.149   5.444   9.527  0.5948 -0.3027  0.5321
  473MOL0     C65158   0.261   5.483   9.432 -0.8475  0.2474  0.2021
  473MOL0     C65159   0.239   5.458   9.282  1.0470  0.0997 -1.2696
  473MOL0     O65160   0.104   5.496   9.246 -0.0091 -0.8822 -0.0402
  473MOL0     C65161   0.069   5.626   9.249 -0.0755 -0.7278  0.0252
  473MOL0     C65162   0.146   5.730   9.200 -0.7206 -0.7400 -0.1004
  473MOL0     C65163   0.092   5.869   9.200  0.0017  0.5276 -0.3226
  473MOL0     C65164   0.180   5.973   9.129 -1.1066 -0.3485 -0.3386
  473MOL0     C65165  -0.041   5.892   9.247 -1.2847  0.9686 -0.5740
  473MOL0     C65166  -0.093   6.020   9.260  0.5000 -0.4207  0.1498
  473MOL0     O65167  -0.226   6.031   9.241 -0.8645 -0.6489  0.6409
  473MOL0     C65168  -0.297   6.148   9.266  0.1597  0.1113  0.3257
  473MOL0     C65169  -0.433   6.148   9.219 -0.2941  0.4160 -0.3010
  473MOL0     C65170  -0.513   6.262   9.240  0.3011 -0.0119 -0.6430
  473MOL0     C65171  -0.475   6.378   9.302 -0.7905 -0.0533 -1.5501
  473MOL0     O65172  -0.573   6.471   9.312  0.6004 -0.2828  0.3973
  473MOL0     C65173  -0.532   6.611   9.332 -0.0303  0.0987 -0.1901
  473MOL0     C65174  -0.642   6.702   9.284  0.3517  0.6292  0.2300
  473MOL0     C65175  -0.661   6.692   9.131 -0.4455 -0.1121  0.0765
  473MOL0     C65176  -0.558   6.786   9.057 -0.0728 -0.3022 -1.1633
  473MOL0     C65177  -0.550   6.758   8.909  0.9178 -0.6214 -0.0843
  473MOL0     C65178  -0.680   6.811   8.841 -0.1662  0.5458  0.1920
  473MOL0     C65179  -0.666   6.823   8.688 -0.4653  0.5680  0.9353
  473MOL0     C65180  -0.599   6.953   8.647  0.6767 -0.2202 -0.4401
  473MOL0    Cl65181  -0.579   6.977   8.470 -0.6957  0.0770 -0.4732
  473MOL0     C65182  -0.347   6.372   9.364 -0.5335 -0.6003  0.6967
  473MOL0     C65183  -0.264   6.260   9.346 -0.0303 -0.1868 -0.6567
  473MOL0     O65184  -0.017   6.116   9.293  0.6484  0.1897  0.2983
  473MOL0     C65185  -0.118   5.788   9.293 -0.7940 -0.8429 -0.1541
  473MOL0     C65186  -0.061   5.655   9.302  0.3953  1.1223 -0.1601
  473MOL0     N65187  -0.075   5.307   9.676  0.0545 -0.9809  0.4920
  473MOL0     N65188  -0.144   5.230   9.755 -0.4039 -0.6630 -1.1824
  473MOL0     C65189   0.605   4.806  10.577  0.5655  0.0725 -0.2775
  473MOL0     C65190   0.678   4.690  10.620  0.5699  1.0861  0.1034
  473MOL0     C65191   0.954   4.420  10.877  0.6895  0.0553  0.4810
  473MOL0     C65192   0.884   4.350  10.975 -0.3710 -0.0659 -1.0501
  473MOL0     C65193   0.942   4.235  11.030 -1.0076 -0.0164  0.0678
  473MOL0     C65194   1.071   4.187  10.995  0.0077 -0.8107  1.2935
  473MOL0     O65195   1.146   4.098  11.056 -0.4230  0.7677 -0.0888
  473MOL0     C65196   1.130   4.064  11.195  0.4188  0.5101 -1.1456
  473MOL0     C65197   1.182   4.164  11.302 -0.1642  0.2902  0.1107
  473MOL0     C65198   1.327   4.200  11.263 -0.4851 -0.2070  0.0428
  473MOL0     C65199   1.420   4.086  11.219  0.1343 -0.5666 -1.4217
  473MOL0     C65200   1.429   3.980  11.318  0.1608  0.5068  0.0114
  473MOL0     C65201   1.464   3.899  11.400  1.4663 -0.2645  0.1961
  473MOL0     C65202   1.140   4.255  10.895 -1.1551 -0.8683  0.3934
  473MOL0     C65203   1.076   4.368  10.829 -0.0401 -0.9895  0.4405
  473MOL0     C65204   1.169   4.440  10.738  0.6688  0.1091 -0.0596
  473MOL0     H65205   0.691   4.745  10.955 -0.3607  2.1167  0.1260
  473MOL0     H65206   0.573   4.934  10.896  1.9276 -1.5491  2.3691
  473MOL0     H65207   0.341   5.139  10.609 -1.0223 -0.2358 -0.0845
  473MOL0     H65208   0.312   4.970  10.631  0.4274  1.2019  2.3831
  473MOL0     H65209   0.468   5.113  10.396  0.7592 -0.6053  1.0978
  473MOL0     H65210   0.408   4.945  10.395 -2.7585 -1.2960  2.0015
  473MOL0     H65211   0.175   5.016  10.433  1.5740 -1.6704  1.1740
  473MOL0     H65212   0.226   5.175  10.435  1.0995  0.9548 -1.2644
  473MOL0     H65213   0.285   5.152  10.186 -2.7583  1.6105 -2.7327
  473MOL0     H65214   0.240   4.977  10.190 -2.8411 -0.2322 -0.3431
  473MOL0     H65215   0.031   5.201  10.228 -2.2620 -0.8252  0.0049
  473MOL0     H65216   0.009   5.030  10.249 -1.4318  0.2150 -0.8650
  473MOL0     H65217   0.047   5.192   9.989 -0.9363 -0.6963 -1.2589
  473MOL0     H65218   0.118   5.028   9.995 -0.3635 -1.3394  0.5295
  473MOL0     H65219  -0.180   5.103  10.042 -0.2047  1.2855 -1.5457
  473MOL0     H65220  -0.112   4.940  10.068 -1.7309  0.5451 -1.1157
  473MOL0     H65221  -0.056   4.920   9.849 -0.5931 -1.2697  0.7408
  473MOL0     H65222  -0.219   4.978   9.861  0.0081 -0.4018 -0.2409
  473MOL0     H65223   0.115   5.047   9.694  0.4033 -1.2744  1.5572
  473MOL0     H65224   0.124   5.241   9.443 -0.4808 -0.7604  0.1791
  473MOL0     H65225   0.242   5.244   9.566 -0.0681  0.1733  2.6233
  473MOL0     H65226   0.058   5.482   9.481  2.1930  2.6267 -0.4845
  473MOL0     H65227   0.158   5.493   9.624  0.7797 -0.7838  0.7633
  473MOL0     H65228   0.287   5.587   9.451 -0.6625  0.0700  0.9370
  473MOL0     H65229   0.357   5.435   9.453  0.7321  1.4391 -3.4825
  473MOL0     H65230   0.319   5.511   9.231 -0.2016  2.8050 -0.5792
  473MOL0     H65231   0.240   5.349   9.270 -2.4333  0.0155 -1.8271
  473MOL0     H65232   0.244   5.723   9.154 -1.5071  1.3832 -2.3239
  473MOL0     H65233   0.144   5.991   9.027  0.8722 -0.0849 -1.0490
  473MOL0     H65234   0.276   5.921   9.121 -1.1136 -0.2557 -1.1861
  473MOL0     H65235   0.197   6.070   9.176 -1.1270  0.5362 -2.0516
  473MOL0     H65236  -0.475   6.068   9.160 -1.1622 -0.2628  1.1971
  473MOL0     H65237  -0.608   6.257   9.189  1.4995  0.0530 -3.0266
  473MOL0     H65238  -0.525   6.629   9.439  2.3021 -2.2503  0.1485
  473MOL0     H65239  -0.433   6.641   9.294  0.9643 -3.0132 -0.2890
  473MOL0     H65240  -0.741   6.663   9.309  0.4284 -2.2180 -3.1018
  473MOL0     H65241  -0.634   6.805   9.321  1.4045  0.0717  1.6569
  473MOL0     H65242  -0.764   6.719   9.109  0.0216  0.2039 -1.9447
  473MOL0     H65243  -0.638   6.590   9.097 -1.7086  0.0162 -1.2513
  473MOL0     H65244  -0.456   6.761   9.087 -0.6228 -1.6731 -0.3220
  473MOL0     H65245  -0.583   6.891   9.074 -1.2840 -0.8408  0.7161
  473MOL0     H65246  -0.461   6.808   8.869 -0.3483  3.7198  1.8423
  473MOL0     H65247  -0.545   6.650   8.892 -3.1944 -0.8413 -0.9064
  473MOL0     H65248  -0.707   6.902   8.896  1.7436 -0.6310  3.3399
  473MOL0     H65249  -0.760   6.743   8.871  0.5577 -1.0288 -1.2601
  473MOL0     H65250  -0.758   6.821   8.628  0.0153  1.3184  0.1396
  473MOL0     H65251  -0.595   6.746   8.657  1.3916  1.8219  1.8619
  473MOL0     H65252  -0.498   6.945   8.691  1.8429  3.1802 -2.1655
  473MOL0     H65253  -0.644   7.043   8.690  2.4816 -0.1348  1.5157
  473MOL0     H65254  -0.310   6.456   9.421 -1.0695 -0.3281  0.6532
  473MOL0     H65255  -0.177   6.255   9.410 -0.9745  0.8824  0.7714
  473MOL0     H65256  -0.220   5.804   9.324 -0.6008 -0.4590  0.3002
  473MOL0     H65257  -0.112   5.570   9.346  2.3198 -0.4714 -0.8483
  473MOL0     H65258   0.603   4.830  10.471  0.4269  1.2711 -0.0264
  473MOL0     H65259   0.717   4.617  10.551 -0.2469  0.7938 -0.0664
  473MOL0     H65260   0.799   4.395  11.025  0.8297  0.3452  0.7085
  473MOL0     H65261   0.892   4.192  11.116  0.6093  0.6132  1.3779
  473MOL0     H65262   1.021   4.052  11.204  0.4193  1.9833  2.0819
  473MOL0     H65263   1.174   3.965  11.212  1.9815  1.6399  2.0969
  473MOL0     H65264   1.179   4.123  11.403  1.6669 -1.8161 -0.6073
  473MOL0     H65265   1.125   4.257  11.298  0.8283  0.9289  0.4987
  473MOL0     H65266   1.317   4.260  11.172  1.1333 -1.8908 -1.3283
  473MOL0     H65267   1.376   4.252  11.345  3.9113 -0.6059 -2.0319
  473MOL0     H65268   1.522   4.120  11.203  0.9209 -1.6947  0.7672
  473MOL0     H65269   1.380   4.042  11.127 -2.7681  0.5688 -0.8339
  473MOL0     H65270   1.503   3.833  11.474  2.4313 -2.3209 -1.9895
  473MOL0     H65271   1.244   4.229  10.881 -0.7585  0.1739  1.2513
  473MOL0     H65272   1.231   4.517  10.784 -0.7852 -0.4215  3.0910
  473MOL0     H65273   1.244   4.368  10.703 -1.9787 -2.1258 -1.4925
  473MOL0     H65274   1.116   4.477  10.651 -3.0129  1.8803  2.6574
  474MOL0     O65275   1.894   9.823   5.161 -0.3416  0.2555 -0.7327
  474MOL0     C65276   2.011   9.863   5.180  0.1076  0.7304  0.2661
  474MOL0     O65277   2.078   9.932   5.092  0.1556 -0.3936  0.2861
  474MOL0     C65278   2.030   9.928   4.963  0.1886  0.6724  0.5252
  474MOL0     C65279   1.922  10.004   4.925  0.5609 -0.0079 -0.8761
  474MOL0     C65280   1.887   9.993   4.792  0.6544  0.2489 -0.1950
  474MOL0     C65281   1.945   9.903   4.697 -0.1922 -0.2010 -0.4798
  474MOL0     O65282   1.906   9.882   4.572 -0.1783  0.8966  0.2726
  474MOL0     C65283   1.800   9.958   4.509  0.2596 -0.2072  0.7665
  474MOL0     C65284   1.744   9.886   4.379 -0.0547 -0.9319  0.3331
  474MOL0     C65285   1.858   9.846   4.282  0.8966 -0.1522  0.0901
  474MOL0     C65286   1.797   9.750   4.179 -0.4210 -0.9179 -0.6634
  474MOL0     C65287   1.740   9.836   4.064 -0.2602 -0.3595 -0.4223
  474MOL0     C65288   1.709   9.760   3.931 -0.3747  1.5995  0.2543
  474MOL0     C65289   1.666   9.863   3.822  0.2873 -0.2169  0.4572
  474MOL0     C65290   1.791   9.890   3.747  0.6159 -0.3929  0.8155
  474MOL0     N65291   1.774   9.998   3.652 -0.0043 -0.7120  0.1481
  474MOL0     C65292   1.658  10.052   3.600 -0.9237  0.3489 -1.1542
  474MOL0     C65293   1.684  10.178   3.575 -0.0455  0.3405  0.6559
  474MOL0     C65294   1.578  10.268   3.516  0.7441 -0.2109 -0.6421
  474MOL0     C65295   1.578  10.423   3.560  0.1646  0.0319  0.2559
  474MOL0     C65296   1.472  10.454   3.662 -0.0517  0.1627  0.5746
  474MOL0     C65297   1.465  10.600   3.697 -0.0684 -0.3073  0.9107
  474MOL0     O65298   1.590  10.666   3.706 -0.2802 -0.2163  0.4002
  474MOL0     C65299   1.634  10.685   3.828 -0.4218 -0.4811  0.3876
  474MOL0     C65300   1.647  10.809   3.878 -0.0794 -0.5896  0.3117
  474MOL0     C65301   1.642  10.837   4.018 -0.0023 -0.0535  1.2282
  474MOL0     C65302   1.639  10.976   4.066 -0.0003  0.3854  0.1309
  474MOL0     C65303   1.657  10.726   4.113  0.0604  0.0105  0.0614
  474MOL0     C65304   1.674  10.732   4.258  0.3107  1.0119  0.1851
  474MOL0     O65305   1.624  10.626   4.325 -0.1850 -0.6229  1.2479
  474MOL0     C65306   1.640  10.651   4.457 -0.8567  0.1676 -0.4400
  474MOL0     C65307   1.727  10.567   4.513 -0.1928  0.0482 -0.4377
  474MOL0     C65308   1.758  10.572   4.650  0.0812  0.3707 -0.7470
  474MOL0     C65309   1.696  10.669   4.734 -0.9475  0.8807 -0.4687
  474MOL0     O65310   1.709  10.670   4.872 -0.4459 -1.1063 -0.1380
  474MOL0     C65311   1.810  10.583   4.937  0.1590 -0.2294  0.5237
  474MOL0     C65312   1.790  10.562   5.088  0.2161  0.5216 -0.3285
  474MOL0     C65313   1.790  10.702   5.158  0.5033  0.0925  0.0107
  474MOL0     C65314   1.931  10.775   5.151  0.3160  0.6829 -0.0538
  474MOL0     C65315   1.931  10.898   5.240 -0.5120  1.2227 -0.1564
  474MOL0     C65316   1.923  10.863   5.389 -0.1971 -0.1871 -0.9446
  474MOL0     C65317   1.997  10.972   5.472 -1.0511  0.0051 -0.4097
  474MOL0     C65318   1.952  10.970   5.628 -0.0308  0.9416  0.1957
  474MOL0    Cl65319   1.981  10.799   5.705  0.3430 -0.1348  0.2107
  474MOL0     C65320   1.616  10.762   4.671 -0.1654 -0.2453 -0.0179
  474MOL0     C65321   1.591  10.758   4.532  0.4948 -0.2015  0.2565
  474MOL0     O65322   1.737  10.822   4.309 -0.1630  0.0406 -0.1665
  474MOL0     C65323   1.650  10.599   4.052 -0.3262 -0.1324 -0.4896
  474MOL0     C65324   1.638  10.579   3.916 -0.1482 -0.1061  0.0418
  474MOL0     N65325   1.817  10.207   3.600  0.3914  0.0080 -0.1091
  474MOL0     N65326   1.862  10.101   3.659 -0.8776 -0.4117 -1.1455
  474MOL0     C65327   2.042   9.820   4.743 -0.6451  0.2942 -0.4604
  474MOL0     C65328   2.087   9.825   4.872 -0.6394  0.1376  0.3700
  474MOL0     C65329   2.061   9.848   5.321  1.6722 -0.1433  0.6447
  474MOL0     C65330   2.132   9.954   5.380 -0.3382 -0.1650  0.8123
  474MOL0     C65331   2.223   9.935   5.491 -0.7541 -0.4067  0.6082
  474MOL0     C65332   2.229   9.816   5.555 -0.0025 -0.2364 -0.0694
  474MOL0     O65333   2.319   9.781   5.658 -0.1213  0.6342  0.3864
  474MOL0     C65334   2.309   9.868   5.768 -0.2951  0.4339 -0.2005
  474MOL0     C65335   2.388   9.801   5.883  0.4678 -0.0014  0.9349
  474MOL0     C65336   2.542   9.843   5.870  0.4347 -0.1404 -0.3532
  474MOL0     C65337   2.633   9.720   5.893  0.9467  1.0587  0.0382
  474MOL0     C65338   2.606   9.671   6.028 -0.1885 -0.3920  0.1671
  474MOL0     C65339   2.592   9.627   6.141  0.8164  0.9163  0.0930
  474MOL0     C65340   2.154   9.707   5.498 -0.2909  0.1884  0.0733
  474MOL0     C65341   2.072   9.724   5.387 -0.3173  0.9202  0.4920
  474MOL0     C65342   2.010   9.595   5.331 -0.5024 -0.8501  0.5360
  474MOL0     H65343   1.884  10.086   4.986  4.7464  0.7015  1.1654
  474MOL0     H65344   1.805  10.056   4.759 -1.7566 -1.9392  1.2223
  474MOL0     H65345   1.836  10.056   4.474 -1.7014 -0.6600 -3.0526
  474MOL0     H65346   1.717   9.979   4.578 -0.3480  1.7610 -0.4684
  474MOL0     H65347   1.693   9.795   4.411 -0.4863  0.0769  2.7044
  474MOL0     H65348   1.666   9.936   4.320 -0.5721 -1.6495  0.3896
  474MOL0     H65349   1.893   9.940   4.239 -1.5587  1.5409  1.5496
  474MOL0     H65350   1.940   9.796   4.334  0.5692  2.2668  3.2210
  474MOL0     H65351   1.871   9.681   4.137  2.3638  0.9001  0.9254
  474MOL0     H65352   1.716   9.697   4.229  1.2227 -2.9769 -0.0510
  474MOL0     H65353   1.818   9.910   4.046 -0.3775 -0.4814 -1.4751
  474MOL0     H65354   1.651   9.877   4.111  1.8067  2.1706  1.5904
  474MOL0     H65355   1.786   9.689   3.899 -1.7984  1.1190 -2.4109
  474MOL0     H65356   1.624   9.693   3.945  1.7177 -1.6747 -1.4029
  474MOL0     H65357   1.627   9.956   3.863  1.4355  0.8766 -0.8496
  474MOL0     H65358   1.596   9.813   3.755 -0.1953 -0.9515  1.4689
  474MOL0     H65359   1.866   9.916   3.823  2.6805  1.1476 -1.5849
  474MOL0     H65360   1.834   9.801   3.702 -3.3263 -1.6609 -0.7980
  474MOL0     H65361   1.566  10.004   3.566 -0.3228 -0.1478 -2.1429
  474MOL0     H65362   1.483  10.224   3.547  1.5764 -2.0764 -0.6110
  474MOL0     H65363   1.571  10.272   3.407 -1.8668  0.7357 -0.4989
  474MOL0     H65364   1.679  10.442   3.596 -1.3331  1.5541  4.2575
  474MOL0     H65365   1.554  10.477   3.467  0.8917 -0.2130 -0.0799
  474MOL0     H65366   1.367  10.434   3.636 -0.7956  1.7681  2.1390
  474MOL0     H65367   1.495  10.393   3.750 -0.0134 -3.6589 -1.8214
  474MOL0     H65368   1.398  10.654   3.629 -0.0127  2.2851  2.7809
  474MOL0     H65369   1.405  10.611   3.788 -1.8167  1.4599 -0.3508
  474MOL0     H65370   1.648  10.878   3.794  4.7796  0.3565  0.8718
  474MOL0     H65371   1.592  11.034   3.986  1.3895 -1.3733 -2.0879
  474MOL0     H65372   1.739  11.005   4.099  0.3500 -3.4327  3.1091
  474MOL0     H65373   1.571  10.982   4.152 -1.7363  0.8132 -1.2140
  474MOL0     H65374   1.773  10.497   4.445 -1.8588  0.3734 -1.9656
  474MOL0     H65375   1.846  10.517   4.682 -0.1041  0.2171 -0.5007
  474MOL0     H65376   1.805  10.483   4.892 -0.9619 -0.5894  1.4123
  474MOL0     H65377   1.909  10.628   4.922 -0.6701  0.8801 -2.2519
  474MOL0     H65378   1.697  10.510   5.112 -0.3306  2.6807  2.7714
  474MOL0     H65379   1.863  10.495   5.134 -0.9492 -0.4660  0.1364
  474MOL0     H65380   1.745  10.680   5.256  0.5473  1.6400  0.4110
  474MOL0     H65381   1.710  10.764   5.115  1.1798 -0.9131 -2.9444
  474MOL0     H65382   1.937  10.810   5.048  1.3031  0.0303 -0.2294
  474MOL0     H65383   2.012  10.706   5.176  2.6117  3.3768  0.3959
  474MOL0     H65384   2.027  10.948   5.226  0.1590 -0.3614 -1.5571
  474MOL0     H65385   1.846  10.966   5.224 -1.0073  1.5153  3.0421
  474MOL0     H65386   1.967  10.767   5.420  0.1864 -0.6944 -2.9516
  474MOL0     H65387   1.819  10.850   5.421 -0.1867  1.6289 -0.0654
  474MOL0     H65388   1.979  11.067   5.419 -1.1897  1.2098  1.6900
  474MOL0     H65389   2.104  10.952   5.462 -0.5744  1.8921  0.4720
  474MOL0     H65390   1.845  10.990   5.635 -0.4977 -1.4068  0.3823
  474MOL0     H65391   2.004  11.034   5.701 -2.0106 -2.0917  4.7066
  474MOL0     H65392   1.582  10.847   4.731  0.3003  1.3446 -1.9045
  474MOL0     H65393   1.530  10.834   4.486 -0.9765 -1.2256  0.4462
  474MOL0     H65394   1.658  10.505   4.105 -1.0290 -0.8983 -1.7070
  474MOL0     H65395   1.652  10.475   3.889  2.5962  0.3233 -0.4285
  474MOL0     H65396   2.098   9.751   4.681 -0.9657 -0.8331  0.4664
  474MOL0     H65397   2.166   9.762   4.912 -2.2353 -1.3752  1.3158
  474MOL0     H65398   2.104  10.054   5.347 -4.3871 -1.1361  0.7785
  474MOL0     H65399   2.279  10.022   5.524 -0.1623 -1.0489  1.3495
  474MOL0     H65400   2.336   9.972   5.747 -2.9009  1.1867 -0.1755
  474MOL0     H65401   2.203   9.866   5.796 -1.6674  1.1446 -4.5138
  474MOL0     H65402   2.370   9.694   5.878 -3.3559  0.5463 -0.9733
  474MOL0     H65403   2.344   9.833   5.978 -0.3763  3.1160 -0.3708
  474MOL0     H65404   2.572   9.876   5.770  0.1566  0.2414 -0.3120
  474MOL0     H65405   2.560   9.919   5.946 -1.1345 -1.8141  1.8057
  474MOL0     H65406   2.738   9.750   5.896  1.2384  0.3540  4.7456
  474MOL0     H65407   2.605   9.644   5.819 -4.1121  2.5688  0.0397
  474MOL0     H65408   2.575   9.594   6.242  0.7037 -0.3552 -0.3135
  474MOL0     H65409   2.178   9.606   5.529 -3.2840 -1.6200 -2.9128
  474MOL0     H65410   2.050   9.516   5.395 -1.4652 -0.9449  1.0474
  474MOL0     H65411   1.902   9.595   5.348 -0.5657  1.3536  0.3352
  474MOL0     H65412   2.039   9.580   5.227  1.2058 -5.0625  1.4212
  475MOL0     O65413   3.383   1.245   7.927 -0.3058 -0.1980  0.2731
  475MOL0     C65414   3.501   1.251   7.957 -0.2472 -0.4520 -0.4336
  475MOL0     O65415   3.541   1.325   8.067 -0.3114 -0.7669  0.4130
  475MOL0     C65416   3.460   1.428   8.107  0.5750 -0.8904  0.0731
  475MOL0     C65417   3.372   1.422   8.221  0.2208 -0.1022  0.3223
  475MOL0     C65418   3.301   1.538   8.267  0.0685 -0.3307 -0.9544
  475MOL0     C65419   3.330   1.661   8.194  0.3822 -0.0041 -0.2170
  475MOL0     O65420   3.261   1.781   8.219 -0.6473 -0.0046 -0.1754
  475MOL0     C65421   3.220   1.810   8.357 -0.2460  0.1189 -0.5665
  475MOL0     C65422   3.189   1.964   8.368 -0.5339  0.0085 -0.1769
  475MOL0     C65423   3.164   1.980   8.514  0.2992  0.3602 -0.5218
  475MOL0     C65424   3.231   2.100   8.587 -0.0273  1.0216 -0.4010
  475MOL0     C65425   3.178   2.115   8.733  0.1020  0.0417  0.6695
  475MOL0     C65426   3.259   2.225   8.811  0.0045 -0.1943 -0.6850
  475MOL0     C65427   3.228   2.228   8.969 -1.1008  1.7833  0.0033
  475MOL0     C65428   3.115   2.311   9.017  0.9521  0.0210  0.5444
  475MOL0     N65429   3.108   2.437   8.940 -0.4268  0.4495  0.3053
  475MOL0     C65430   3.210   2.543   8.943  0.4936  0.4687  0.5324
  475MOL0     C65431   3.142   2.645   8.883 -0.0477 -0.5650 -0.1421
  475MOL0     C65432   3.180   2.786   8.846 -0.3034 -0.6159 -0.0185
  475MOL0     C65433   3.221   2.862   8.968  0.4860 -1.2892 -0.4801
  475MOL0     C65434   3.269   3.008   8.940 -0.2342  0.0499  1.1244
  475MOL0     C65435   3.398   3.051   9.010  0.1084  0.8399  0.8094
  475MOL0     O65436   3.396   3.031   9.147 -0.8211  1.4171  0.0680
  475MOL0     C65437   3.503   3.006   9.225 -0.0951  0.6182 -0.1390
  475MOL0     C65438   3.636   3.005   9.178  0.3878 -0.3553  0.0447
  475MOL0     C65439   3.745   2.994   9.276  0.1832 -0.7637 -0.0404
  475MOL0     C65440   3.890   2.996   9.224 -0.0479 -0.6859 -0.0257
  475MOL0     C65441   3.715   2.979   9.416 -0.8250 -0.1124 -0.5527
  475MOL0     C65442   3.807   2.988   9.535 -0.5514  0.3902  0.5704
  475MOL0     O65443   3.928   3.060   9.509  0.5231  0.5124 -0.4266
  475MOL0     C65444   4.011   3.064   9.618 -0.4943  0.6330  0.2205
  475MOL0     C65445   4.096   2.953   9.638  0.3215 -1.0654  0.0490
  475MOL0     C65446   4.195   2.955   9.736  0.9777  0.7575 -0.7063
  475MOL0     C65447   4.215   3.074   9.808 -0.6866 -0.8193  0.4159
  475MOL0     O65448   4.309   3.074   9.911 -0.5015 -0.2018  0.1954
  475MOL0     C65449   4.288   2.971  10.009 -0.1846 -0.6367  0.7355
  475MOL0     C65450   4.317   3.035  10.147 -0.6787  0.2144 -0.3503
  475MOL0     C65451   4.279   2.944  10.253  0.4670 -0.8502  0.2697
  475MOL0     C65452   4.344   2.988  10.384 -0.4887 -1.1336  0.5220
  475MOL0     C65453   4.318   2.894  10.491 -1.1608  0.1971  0.1641
  475MOL0     C65454   4.383   2.752  10.475  0.0720 -0.1741 -0.2337
  475MOL0     C65455   4.356   2.676  10.606  0.4789 -0.3538  0.7382
  475MOL0     C65456   4.491   2.602  10.648  0.3914  0.1078  0.4443
  475MOL0    Cl65457   4.564   2.498  10.519 -0.0371  0.1074  0.1298
  475MOL0     C65458   4.126   3.186   9.790 -0.0871  0.0392 -0.8481
  475MOL0     C65459   4.020   3.174   9.699 -0.3348  0.0771 -0.1061
  475MOL0     O65460   3.774   2.934   9.641 -0.5272  0.2839 -0.3058
  475MOL0     C65461   3.579   2.971   9.454 -0.6361 -0.6255  0.3379
  475MOL0     C65462   3.482   2.992   9.360  0.1986  0.8326 -0.1295
  475MOL0     N65463   3.028   2.595   8.825  0.7836  0.0486  0.5820
  475MOL0     N65464   3.006   2.471   8.861  0.1921  0.0234 -0.7053
  475MOL0     C65465   3.402   1.663   8.079 -0.1996 -0.1115  0.9583
  475MOL0     C65466   3.467   1.548   8.039 -0.1615  0.4468  0.0818
  475MOL0     C65467   3.605   1.152   7.900  0.6101  0.1829 -0.1548
  475MOL0     C65468   3.706   1.118   7.977  0.4966  0.0365 -0.7497
  475MOL0     C65469   3.801   1.018   7.934 -0.9388  0.7740  0.5939
  475MOL0     C65470   3.800   0.970   7.800  0.7374 -0.2307  1.3881
  475MOL0     O65471   3.884   0.861   7.767 -0.3425 -0.5990 -0.4744
  475MOL0     C65472   3.948   0.877   7.641 -1.0382  0.2350  1.1887
  475MOL0     C65473   4.060   0.770   7.627  0.3147 -0.7667 -0.2138
  475MOL0     C65474   4.173   0.817   7.525  1.1138 -0.1871  0.2111
  475MOL0     C65475   4.262   0.702   7.492 -0.4927 -0.4327 -0.0575
  475MOL0     C65476   4.376   0.740   7.405 -0.0369  0.1026  0.0398
  475MOL0     C65477   4.468   0.776   7.336  0.1211  0.0761 -0.2423
  475MOL0     C65478   3.701   1.015   7.718  1.4757  0.0681  0.0807
  475MOL0     C65479   3.598   1.110   7.764  0.3571 -0.6108 -0.9960
  475MOL0     C65480   3.506   1.176   7.663 -0.3352  0.7994 -0.2506
  475MOL0     H65481   3.369   1.327   8.274  4.2789  0.2651  1.5924
  475MOL0     H65482   3.249   1.514   8.360 -4.0894 -0.3904 -3.0673
  475MOL0     H65483   3.300   1.790   8.428  0.1769  0.9121 -0.8055
  475MOL0     H65484   3.131   1.754   8.385  0.4065 -0.1555  1.0940
  475MOL0     H65485   3.278   2.020   8.339 -0.4065  1.2079  2.3002
  475MOL0     H65486   3.109   1.989   8.298 -2.3227 -0.1711  1.6972
  475MOL0     H65487   3.055   1.989   8.516 -0.0186 -1.9302 -2.4902
  475MOL0     H65488   3.183   1.889   8.573  2.5090  0.7944 -0.4900
  475MOL0     H65489   3.338   2.080   8.586 -0.1819  0.0845 -1.9756
  475MOL0     H65490   3.218   2.191   8.528 -0.7275  0.5353 -1.0276
  475MOL0     H65491   3.200   2.018   8.780 -2.0379 -2.0087 -2.1776
  475MOL0     H65492   3.070   2.130   8.740  0.2279  1.7891 -0.4572
  475MOL0     H65493   3.365   2.203   8.798  0.4867 -1.0526  3.4940
  475MOL0     H65494   3.242   2.325   8.769 -2.2761 -0.4360 -0.4812
  475MOL0     H65495   3.314   2.279   9.013 -0.9451  0.2579  1.5907
  475MOL0     H65496   3.229   2.130   9.019 -0.3821  0.1255 -3.0503
  475MOL0     H65497   3.021   2.257   9.003  2.0306 -1.4464 -1.6671
  475MOL0     H65498   3.130   2.330   9.123 -0.6974 -0.9089  0.9791
  475MOL0     H65499   3.313   2.553   8.975 -0.2307  0.0046  3.1991
  475MOL0     H65500   3.109   2.835   8.780  0.5248 -2.0025 -2.0313
  475MOL0     H65501   3.267   2.794   8.780 -1.1705  3.7891 -0.9218
  475MOL0     H65502   3.139   2.871   9.041  0.8584  0.6990 -0.2398
  475MOL0     H65503   3.298   2.810   9.026 -1.2145 -2.3957  0.8981
  475MOL0     H65504   3.278   3.023   8.832  0.1770  0.8088  1.2539
  475MOL0     H65505   3.177   3.063   8.963 -2.3792 -3.1077  0.7657
  475MOL0     H65506   3.484   2.999   8.966 -0.0193 -0.4731  2.0683
  475MOL0     H65507   3.418   3.156   8.984 -2.7336  0.6213 -3.0940
  475MOL0     H65508   3.656   3.025   9.074  1.3021 -0.4213  0.1984
  475MOL0     H65509   3.947   3.086   9.246  3.2314 -2.4370 -0.7350
  475MOL0     H65510   3.881   2.981   9.116 -3.2513  1.5033 -0.2061
  475MOL0     H65511   3.947   2.917   9.274  0.7571 -2.0722 -2.9303
  475MOL0     H65512   4.075   2.876   9.564 -0.7906  1.1207 -2.0905
  475MOL0     H65513   4.242   2.861   9.763 -3.3817 -0.3498  4.8886
  475MOL0     H65514   4.181   2.948  10.009 -0.2956 -0.1283  0.9074
  475MOL0     H65515   4.351   2.881  10.003 -0.2246 -0.5679 -2.0437
  475MOL0     H65516   4.420   3.071  10.154  0.3454 -2.4846 -0.2163
  475MOL0     H65517   4.263   3.129  10.158 -4.0998 -1.2633 -2.5145
  475MOL0     H65518   4.303   2.839  10.231  0.4777 -0.9210  0.6129
  475MOL0     H65519   4.170   2.941  10.264  0.1087  0.7675 -2.0987
  475MOL0     H65520   4.299   3.084  10.412  1.1732 -0.2369  0.2441
  475MOL0     H65521   4.450   3.013  10.380  0.0144 -0.9007  6.5109
  475MOL0     H65522   4.360   2.948  10.577 -0.1319 -1.4754  0.7531
  475MOL0     H65523   4.211   2.889  10.511 -1.3658  4.2026  0.9419
  475MOL0     H65524   4.487   2.757  10.443 -0.5161  1.5073 -2.0753
  475MOL0     H65525   4.339   2.694  10.393  0.0424 -0.2055 -0.1959
  475MOL0     H65526   4.275   2.604  10.600 -2.2268  2.5106  0.3870
  475MOL0     H65527   4.325   2.746  10.684 -2.4756 -1.6362  0.8398
  475MOL0     H65528   4.483   2.540  10.738  1.5167 -0.0496  0.4459
  475MOL0     H65529   4.564   2.676  10.682  2.7794 -3.2532  3.4815
  475MOL0     H65530   4.142   3.278   9.846  0.7507 -1.8055  2.1643
  475MOL0     H65531   3.951   3.257   9.684  0.3803  0.2273 -3.0204
  475MOL0     H65532   3.567   2.958   9.561 -0.1699  0.2474  0.5040
  475MOL0     H65533   3.377   2.995   9.387  0.3106  0.2324  0.3840
  475MOL0     H65534   3.436   1.757   8.037 -1.5371 -0.2478 -0.5199
  475MOL0     H65535   3.540   1.544   7.959  4.5915 -0.1437  3.9890
  475MOL0     H65536   3.718   1.160   8.076 -1.1051 -0.5429 -0.2925
  475MOL0     H65537   3.881   0.977   7.995 -1.7725  1.4393  2.1857
  475MOL0     H65538   3.882   0.849   7.559 -1.1481  0.3534  1.2367
  475MOL0     H65539   3.995   0.975   7.629  1.1730 -1.0173 -1.2240
  475MOL0     H65540   4.026   0.672   7.594 -0.8180 -1.6659  3.1988
  475MOL0     H65541   4.105   0.755   7.726 -3.3663 -0.6166  1.6601
  475MOL0     H65542   4.119   0.855   7.438  0.1458  1.9793  1.6862
  475MOL0     H65543   4.215   0.913   7.556  0.8057 -0.2555  0.8595
  475MOL0     H65544   4.207   0.619   7.446 -1.0705  0.1007 -0.3501
  475MOL0     H65545   4.296   0.662   7.588 -1.7879  2.5416  1.7861
  475MOL0     H65546   4.550   0.800   7.271 -0.0126 -0.3702 -0.5811
  475MOL0     H65547   3.702   0.984   7.614  2.3005  0.9367 -0.1801
  475MOL0     H65548   3.566   1.222   7.584  1.4300  1.0413  1.1710
  475MOL0     H65549   3.447   1.095   7.618  0.4048 -1.9521  3.2645
  475MOL0     H65550   3.436   1.252   7.696 -2.3210 -0.6918 -0.8026
  476MOL0     O65551   9.193   5.044   0.532 -0.4951 -0.3844 -0.1978
  476MOL0     C65552   9.146   4.949   0.588 -0.1806 -0.5391 -0.7334
  476MOL0     O65553   9.067   4.848   0.535 -0.0814 -0.2390 -0.2032
  476MOL0     C65554   9.077   4.825   0.404  0.1797 -0.6900  0.6092
  476MOL0     C65555   9.030   4.921   0.310 -0.3074  0.1859 -0.1326
  476MOL0     C65556   9.025   4.903   0.168 -0.4474 -0.3485  0.8671
  476MOL0     C65557   9.055   4.775   0.127  0.0723 -0.2393 -0.4761
  476MOL0     O65558   9.040   4.740  -0.006  0.1107 -0.0394 -0.7291
  476MOL0     C65559   9.167   4.726  -0.063  0.7346  0.0841 -0.4551
  476MOL0     C65560   9.145   4.652  -0.193  0.5212  0.1790  0.2786
  476MOL0     C65561   9.274   4.640  -0.278  0.5659 -0.5460  0.0844
  476MOL0     C65562   9.231   4.623  -0.421  0.1366 -0.1058  0.6394
  476MOL0     C65563   9.345   4.580  -0.508  0.2401  0.2607  0.0099
  476MOL0     C65564   9.298   4.596  -0.659 -0.4178 -0.2486  0.0609
  476MOL0     C65565   9.168   4.535  -0.701 -0.6253  0.9644 -0.9068
  476MOL0     C65566   9.117   4.579  -0.843  0.0389 -0.2450  0.2080
  476MOL0     N65567   8.991   4.511  -0.868 -0.6745  0.1820 -0.3260
  476MOL0     C65568   8.974   4.388  -0.923 -0.5505 -0.3633 -0.0582
  476MOL0     C65569   8.851   4.345  -0.890  0.3619  0.0035  0.0753
  476MOL0     C65570   8.792   4.209  -0.905 -0.3850 -0.1289  0.6313
  476MOL0     C65571   8.667   4.221  -0.999  0.0936 -0.0307 -0.6545
  476MOL0     C65572   8.544   4.257  -0.919  0.1803 -0.0237 -0.0083
  476MOL0     C65573   8.446   4.346  -1.004 -0.1459  0.5152 -0.2405
  476MOL0     O65574   8.331   4.387  -0.923  0.2416 -0.0113 -0.5673
  476MOL0     C65575   8.328   4.497  -0.848  0.8285 -0.4457 -0.2222
  476MOL0     C65576   8.201   4.529  -0.794  0.4043 -0.4139  0.1820
  476MOL0     C65577   8.184   4.645  -0.710 -0.2795 -0.4231 -0.2083
  476MOL0     C65578   8.049   4.658  -0.650 -0.1456  0.7282 -0.2301
  476MOL0     C65579   8.286   4.731  -0.687 -0.3887  0.2484 -0.7812
  476MOL0     C65580   8.290   4.850  -0.594 -0.3508  0.2924 -0.0227
  476MOL0     O65581   8.405   4.890  -0.535  0.1089 -0.4452 -1.0844
  476MOL0     C65582   8.407   4.986  -0.439 -0.4017 -1.0529 -0.3742
  476MOL0     C65583   8.535   5.040  -0.421  0.2530 -0.0459  0.7896
  476MOL0     C65584   8.559   5.133  -0.322  0.3388  1.5591 -0.0042
  476MOL0     C65585   8.462   5.159  -0.224  0.3112  0.3696 -0.8300
  476MOL0     O65586   8.500   5.252  -0.132  0.1351  0.0199 -0.3691
  476MOL0     C65587   8.417   5.266  -0.012  0.7974  0.4358  0.1095
  476MOL0     C65588   8.314   5.386  -0.025  0.0393 -0.3501  0.2645
  476MOL0     C65589   8.242   5.441   0.098  0.3900  0.8803  0.4968
  476MOL0     C65590   8.097   5.380   0.099 -0.4741  0.0641 -0.2746
  476MOL0     C65591   8.010   5.458   0.203  0.4213 -0.0471  0.3708
  476MOL0     C65592   8.033   5.435   0.351 -0.3833 -0.2569 -0.0359
  476MOL0     C65593   7.963   5.315   0.420 -0.5757  0.4077  0.4634
  476MOL0     C65594   7.811   5.313   0.416  0.8082 -0.0048 -0.1252
  476MOL0    Cl65595   7.760   5.217   0.281 -0.1051  0.5170 -0.0526
  476MOL0     C65596   8.334   5.102  -0.234  0.5753  0.8307  0.9899
  476MOL0     C65597   8.305   5.021  -0.342 -0.3702  0.4908 -0.4652
  476MOL0     O65598   8.181   4.910  -0.591  0.3609  0.7493  0.0037
  476MOL0     C65599   8.409   4.691  -0.744  0.6483 -0.2944  0.7890
  476MOL0     C65600   8.429   4.576  -0.813 -0.5221  0.3183 -0.4156
  476MOL0     N65601   8.784   4.437  -0.813 -0.5565 -0.5454 -1.0096
  476MOL0     N65602   8.870   4.538  -0.801 -0.2533  0.0097 -0.4847
  476MOL0     C65603   9.097   4.670   0.220 -0.8731  0.6820 -0.9082
  476MOL0     C65604   9.111   4.698   0.358  0.3976  0.1000 -0.1436
  476MOL0     C65605   9.162   4.966   0.731 -0.8414 -0.0906  0.4740
  476MOL0     C65606   9.055   4.919   0.814 -0.5977  0.4853 -0.2686
  476MOL0     C65607   9.069   4.931   0.959  1.0316  0.6810  0.4096
  476MOL0     C65608   9.180   4.986   1.015 -0.1286  0.2363  0.4440
  476MOL0     O65609   9.187   5.016   1.143 -0.1501  0.3343 -0.6963
  476MOL0     C65610   9.078   5.007   1.242  0.1264 -0.2473 -0.5248
  476MOL0     C65611   9.131   5.034   1.374 -0.7014  0.3222  0.1151
  476MOL0     C65612   9.261   4.958   1.415 -1.2174 -0.0666  0.3695
  476MOL0     C65613   9.311   5.002   1.550 -0.5411  0.0945 -0.8002
  476MOL0     C65614   9.425   4.916   1.602  0.8741 -0.5724  1.0218
  476MOL0     C65615   9.519   4.847   1.637 -0.5213 -0.8862 -0.4136
  476MOL0     C65616   9.290   5.016   0.932  0.3206 -0.2609  0.6726
  476MOL0     C65617   9.289   5.004   0.786  0.2790 -0.1595 -0.0507
  476MOL0     C65618   9.410   5.044   0.722 -0.7152 -0.0817  0.2927
  476MOL0     H65619   9.003   5.015   0.356 -0.6145  0.6247 -1.1850
  476MOL0     H65620   8.993   4.978   0.097  2.0794  0.7051  0.7255
  476MOL0     H65621   9.241   4.675  -0.001 -0.3943 -0.6378  0.3276
  476MOL0     H65622   9.203   4.829  -0.073 -2.3939  1.1658 -2.1777
  476MOL0     H65623   9.097   4.557  -0.168  0.7939  0.7337  3.1637
  476MOL0     H65624   9.070   4.707  -0.252  1.5945 -0.6897 -2.0268
  476MOL0     H65625   9.329   4.734  -0.266  2.1319 -1.6166  1.8434
  476MOL0     H65626   9.337   4.559  -0.241  3.0469  2.6202  3.5825
  476MOL0     H65627   9.162   4.538  -0.416 -0.0783  0.0645  0.6044
  476MOL0     H65628   9.176   4.706  -0.466  1.2969  0.6539  0.5707
  476MOL0     H65629   9.376   4.477  -0.489  1.0883  0.6423  0.7259
  476MOL0     H65630   9.437   4.637  -0.491  0.7512 -0.6357  0.3061
  476MOL0     H65631   9.297   4.703  -0.679 -2.2464 -0.4166 -0.9991
  476MOL0     H65632   9.382   4.546  -0.708 -1.7891 -0.8963 -1.7927
  476MOL0     H65633   9.085   4.558  -0.633 -0.6706 -1.1607 -0.1631
  476MOL0     H65634   9.179   4.427  -0.708 -0.0744  1.1144 -2.8000
  476MOL0     H65635   9.114   4.686  -0.863  0.1346 -0.0832  1.0626
  476MOL0     H65636   9.193   4.543  -0.913 -0.8057 -1.7156  0.0084
  476MOL0     H65637   9.058   4.330  -0.962  1.0429  2.4978 -1.2363
  476MOL0     H65638   8.773   4.180  -0.801 -0.2802 -3.2828 -0.1203
  476MOL0     H65639   8.863   4.140  -0.952 -3.0203 -2.0170 -0.8374
  476MOL0     H65640   8.688   4.292  -1.080  1.0642 -0.6989 -1.0061
  476MOL0     H65641   8.658   4.130  -1.059 -4.0132  0.5922 -1.3005
  476MOL0     H65642   8.478   4.171  -0.899 -1.5241  1.2521  0.1201
  476MOL0     H65643   8.565   4.303  -0.822  1.1477 -2.1352  0.8409
  476MOL0     H65644   8.510   4.424  -1.046  3.8072 -0.4489  3.2641
  476MOL0     H65645   8.403   4.288  -1.086 -1.1006  1.9210 -0.7591
  476MOL0     H65646   8.110   4.471  -0.803 -0.4014  0.5536  1.6139
  476MOL0     H65647   8.016   4.559  -0.615 -1.2210  1.1383 -0.0541
  476MOL0     H65648   7.982   4.692  -0.729 -1.5762  1.3211  1.1897
  476MOL0     H65649   8.042   4.726  -0.565  0.8797  1.3038 -0.5946
  476MOL0     H65650   8.620   5.010  -0.481  1.0753  2.8362  0.3839
  476MOL0     H65651   8.659   5.174  -0.316  1.2690 -0.7029  2.9829
  476MOL0     H65652   8.356   5.179   0.010  0.2973  0.6478 -0.4007
  476MOL0     H65653   8.476   5.284   0.078 -1.0645  0.6160  1.3208
  476MOL0     H65654   8.378   5.468  -0.060 -0.2756  2.0389  4.6522
  476MOL0     H65655   8.233   5.363  -0.094 -0.1648  1.7776 -0.2649
  476MOL0     H65656   8.237   5.549   0.112 -3.1375  1.0351 -0.9166
  476MOL0     H65657   8.286   5.393   0.186 -0.3678 -1.2106 -0.2108
  476MOL0     H65658   8.110   5.273   0.121 -1.1031  0.1869  0.7723
  476MOL0     H65659   8.042   5.389   0.005 -1.1213 -3.0820 -0.3246
  476MOL0     H65660   8.029   5.564   0.183  1.7959 -0.0748  1.3891
  476MOL0     H65661   7.909   5.434   0.170  1.6813 -3.3144 -1.6871
  476MOL0     H65662   8.007   5.527   0.403  1.2862  2.5109 -3.6500
  476MOL0     H65663   8.140   5.422   0.368 -0.4586  0.2427  0.8631
  476MOL0     H65664   7.978   5.322   0.528 -2.7976  0.6875  0.7989
  476MOL0     H65665   8.006   5.222   0.383 -1.2078  1.5840 -3.7952
  476MOL0     H65666   7.767   5.413   0.417 -2.9722 -1.3909  3.3737
  476MOL0     H65667   7.753   5.268   0.498 -1.5482 -0.3506 -1.8797
  476MOL0     H65668   8.256   5.132  -0.165  0.2317  1.3914  0.3757
  476MOL0     H65669   8.198   5.000  -0.351 -0.7835  1.2205  1.9803
  476MOL0     H65670   8.495   4.757  -0.734 -0.6050  1.2160  2.3593
  476MOL0     H65671   8.528   4.545  -0.844  1.0017  4.1395  0.0829
  476MOL0     H65672   9.115   4.571   0.180  1.7717 -0.2179  2.1269
  476MOL0     H65673   9.121   4.617   0.430  0.3688 -2.2130 -2.5843
  476MOL0     H65674   8.970   4.886   0.754 -0.0254 -0.1370 -0.7493
  476MOL0     H65675   9.000   4.890   1.032  2.7878 -3.9996 -0.2267
  476MOL0     H65676   9.007   5.089   1.228  0.3953  1.1469  4.3955
  476MOL0     H65677   9.023   4.913   1.245  0.3149 -0.3438  0.1069
  476MOL0     H65678   9.064   5.000   1.453 -0.8761 -1.7221 -0.8366
  476MOL0     H65679   9.142   5.142   1.390 -0.5330  0.0653  1.8374
  476MOL0     H65680   9.238   4.851   1.427 -1.3278 -0.1271 -0.3561
  476MOL0     H65681   9.337   4.963   1.336 -1.9388  2.3720 -0.2637
  476MOL0     H65682   9.234   4.993   1.627  1.2714 -1.1526  0.9757
  476MOL0     H65683   9.337   5.108   1.555 -1.6336  0.3201  0.4755
  476MOL0     H65684   9.613   4.813   1.676  0.7038  2.9774  0.4083
  476MOL0     H65685   9.378   5.054   0.983 -2.1327  1.0145  4.4265
  476MOL0     H65686   9.400   5.141   0.673  1.2006  0.2321  0.4481
  476MOL0     H65687   9.493   5.051   0.793 -2.6976 -0.5523  2.8241
  476MOL0     H65688   9.436   4.966   0.650 -0.2246  0.5652 -0.2446
  477MOL0     O65689   2.214   5.895   3.361 -0.3500  0.3296 -0.4528
  477MOL0     C65690   2.135   5.826   3.304 -0.1279  0.2246  0.5361
  477MOL0     O65691   2.010   5.852   3.288 -0.1489 -0.0543 -0.1776
  477MOL0     C65692   1.959   5.982   3.328  0.2287  0.3951  0.2793
  477MOL0     C65693   1.895   6.061   3.242  0.6668 -0.0057  0.6186
  477MOL0     C65694   1.835   6.185   3.281  0.9686 -0.7596 -0.5480
  477MOL0     C65695   1.851   6.237   3.407  0.9855  0.4787  0.5329
  477MOL0     O65696   1.810   6.366   3.443 -0.0779  0.7156 -0.1463
  477MOL0     C65697   1.832   6.462   3.342  0.0397  0.1362 -0.3044
  477MOL0     C65698   1.844   6.597   3.414  0.4831 -0.2003  1.0908
  477MOL0     C65699   1.890   6.701   3.309  0.1138 -0.5129 -0.5558
  477MOL0     C65700   1.910   6.843   3.358 -0.2796  0.2413  0.0390
  477MOL0     C65701   2.044   6.866   3.431  0.5466 -0.5998  0.0570
  477MOL0     C65702   2.059   7.020   3.453 -0.9515  0.2172 -0.3293
  477MOL0     C65703   1.978   7.063   3.572 -0.2221 -0.2055  0.4583
  477MOL0     C65704   2.033   7.202   3.619  0.3633 -0.1342 -0.1262
  477MOL0     N65705   1.986   7.247   3.750  0.1777  0.2644  0.1556
  477MOL0     C65706   2.048   7.227   3.876 -0.2240 -0.1242  0.5331
  477MOL0     C65707   1.958   7.272   3.961 -1.2103 -0.0454  0.1734
  477MOL0     C65708   1.991   7.308   4.098 -0.7215  0.3417  0.2301
  477MOL0     C65709   2.018   7.181   4.186  0.6041 -0.3205  0.4302
  477MOL0     C65710   1.889   7.088   4.187  0.4962  0.8401  0.1320
  477MOL0     C65711   1.922   6.966   4.263 -0.3642  1.4228 -0.4205
  477MOL0     O65712   2.041   6.914   4.207 -0.1495 -0.3421  0.1019
  477MOL0     C65713   2.020   6.775   4.189 -0.4078  0.5736  0.4236
  477MOL0     C65714   2.040   6.686   4.304  0.5788 -0.5069  0.0446
  477MOL0     C65715   2.015   6.553   4.296 -0.3800  0.5088 -0.5542
  477MOL0     C65716   2.063   6.473   4.418  0.4811 -0.6555 -0.0392
  477MOL0     C65717   1.955   6.493   4.180 -0.1461 -0.4474 -0.5787
  477MOL0     C65718   1.909   6.353   4.167  0.4794  0.2454 -1.0459
  477MOL0     O65719   1.843   6.309   4.056 -0.3468  0.4505  0.3952
  477MOL0     C65720   1.775   6.191   4.065  0.4533  0.8584  0.8923
  477MOL0     C65721   1.842   6.084   4.002  0.4218  0.2066 -0.2972
  477MOL0     C65722   1.791   5.953   4.009 -0.2054  0.0332 -0.3018
  477MOL0     C65723   1.667   5.942   4.067 -0.2529  0.0095 -0.9629
  477MOL0     O65724   1.599   5.824   4.058  0.1923 -0.2433 -0.5157
  477MOL0     C65725   1.664   5.693   4.075  0.1754 -0.2503  0.7163
  477MOL0     C65726   1.556   5.583   4.100  0.0984 -0.1546 -0.0227
  477MOL0     C65727   1.458   5.557   3.990  0.4137 -0.2838  0.1188
  477MOL0     C65728   1.375   5.421   3.999 -0.7857 -0.0251  0.1438
  477MOL0     C65729   1.249   5.422   3.913 -0.6671 -0.4820 -1.0756
  477MOL0     C65730   1.294   5.402   3.770  0.9625  0.6108  0.0702
  477MOL0     C65731   1.167   5.391   3.670 -0.3400  1.0275 -0.2082
  477MOL0     C65732   1.203   5.298   3.555  0.1259 -0.2023  0.3837
  477MOL0    Cl65733   1.321   5.377   3.441 -0.0855 -0.0545  0.2729
  477MOL0     C65734   1.590   6.050   4.107  0.1159 -0.2898  0.1388
  477MOL0     C65735   1.646   6.173   4.110 -0.1842  0.4984  0.3920
  477MOL0     O65736   1.942   6.277   4.260  0.7709  0.0483 -0.3035
  477MOL0     C65737   1.929   6.575   4.075  0.6899 -0.1669  0.4900
  477MOL0     C65738   1.966   6.711   4.071  0.0128 -0.7323 -0.2624
  477MOL0     N65739   1.842   7.292   3.907  0.4077  0.2253  0.3155
  477MOL0     N65740   1.858   7.277   3.776 -0.7819 -0.0322 -0.1826
  477MOL0     C65741   1.892   6.145   3.501  0.3891 -0.1323  0.2930
  477MOL0     C65742   1.949   6.029   3.465 -0.4629  0.3682  0.0288
  477MOL0     C65743   2.180   5.689   3.246  0.4355 -0.3526 -0.8219
  477MOL0     C65744   2.098   5.630   3.151 -0.1539 -0.3932  0.0753
  477MOL0     C65745   2.131   5.512   3.085 -0.2266 -0.5147  0.9162
  477MOL0     C65746   2.240   5.436   3.120  0.3801 -0.1673 -0.4996
  477MOL0     O65747   2.248   5.317   3.062  0.0843 -0.1540  0.4739
  477MOL0     C65748   2.335   5.222   3.122 -0.2965 -0.4985 -0.0859
  477MOL0     C65749   2.327   5.081   3.062 -0.1479  0.2472 -0.1468
  477MOL0     C65750   2.401   4.970   3.153 -0.1303 -0.6195  0.5978
  477MOL0     C65751   2.550   4.934   3.137 -0.1327 -0.2019 -0.7954
  477MOL0     C65752   2.570   4.866   3.012 -0.3710 -0.6468  0.0932
  477MOL0     C65753   2.570   4.817   2.901  0.2191  0.7872 -0.5891
  477MOL0     C65754   2.329   5.488   3.214 -0.4891  0.1153 -0.6837
  477MOL0     C65755   2.292   5.610   3.287  0.9975  0.4103  0.4177
  477MOL0     C65756   2.382   5.657   3.403 -0.5573  0.3557 -0.2569
  477MOL0     H65757   1.893   6.031   3.138 -0.0230  1.0042  0.3320
  477MOL0     H65758   1.794   6.248   3.203 -0.4625 -2.2735 -1.0665
  477MOL0     H65759   1.747   6.461   3.273 -0.9875  1.1763  0.8915
  477MOL0     H65760   1.924   6.442   3.287  0.8554  2.1802  0.2375
  477MOL0     H65761   1.747   6.625   3.455 -1.1235 -3.5124 -0.1414
  477MOL0     H65762   1.922   6.592   3.491  1.1915 -0.3822  0.3797
  477MOL0     H65763   1.987   6.671   3.269  0.3381 -0.2058 -0.2558
  477MOL0     H65764   1.820   6.712   3.226 -0.7142  1.0206  0.2877
  477MOL0     H65765   1.905   6.910   3.272  2.3197 -2.5651 -2.5264
  477MOL0     H65766   1.830   6.872   3.427  0.9112 -0.2743  1.6899
  477MOL0     H65767   2.129   6.832   3.373  4.1582  0.3578  4.2235
  477MOL0     H65768   2.053   6.814   3.527  2.9945 -1.2708 -0.4653
  477MOL0     H65769   2.166   7.033   3.471 -1.2967  1.8358  0.7180
  477MOL0     H65770   2.044   7.074   3.359  1.8155  3.3415  0.8535
  477MOL0     H65771   1.971   6.997   3.659  2.1032  1.3619  1.9377
  477MOL0     H65772   1.875   7.072   3.536 -0.8657 -2.3642  1.5801
  477MOL0     H65773   2.142   7.198   3.624  0.3152 -1.2447  0.2108
  477MOL0     H65774   1.998   7.271   3.542 -0.7061  0.3029  0.7229
  477MOL0     H65775   2.150   7.194   3.893 -0.5203 -0.2495  2.2169
  477MOL0     H65776   1.913   7.366   4.147 -2.9046  0.4723 -3.1471
  477MOL0     H65777   2.080   7.372   4.100 -0.5299  0.0969 -0.3370
  477MOL0     H65778   2.098   7.129   4.133  0.0369  0.6186 -1.4197
  477MOL0     H65779   2.055   7.211   4.284  3.5044  0.3550 -0.7738
  477MOL0     H65780   1.811   7.150   4.231  1.4014  0.2306  2.8314
  477MOL0     H65781   1.854   7.066   4.086  1.4256  1.5901 -0.3722
  477MOL0     H65782   1.935   6.991   4.369 -1.0363 -0.4461  0.1457
  477MOL0     H65783   1.836   6.898   4.258  1.3098 -0.8985  0.4046
  477MOL0     H65784   2.090   6.716   4.395  1.6622 -0.1882 -0.6320
  477MOL0     H65785   2.091   6.533   4.506 -1.5889  1.5219 -0.7504
  477MOL0     H65786   2.156   6.421   4.394  0.5481 -0.4050 -0.3280
  477MOL0     H65787   1.985   6.406   4.455 -0.9200  0.3631 -1.0543
  477MOL0     H65788   1.945   6.103   3.974  0.9651  0.2344  1.5805
  477MOL0     H65789   1.843   5.873   3.956 -2.1667 -0.3347 -1.7855
  477MOL0     H65790   1.720   5.672   3.984  1.9169  0.2248  1.6329
  477MOL0     H65791   1.746   5.690   4.147 -0.2689  1.9982  1.4111
  477MOL0     H65792   1.605   5.486   4.107 -1.1467 -0.6787  2.4146
  477MOL0     H65793   1.507   5.612   4.194 -0.8610 -0.7603 -0.3282
  477MOL0     H65794   1.507   5.567   3.893 -0.5408 -1.7606 -0.5559
  477MOL0     H65795   1.380   5.634   3.992 -0.0038 -0.4853 -3.0259
  477MOL0     H65796   1.332   5.414   4.099 -0.4674 -0.5935  0.2450
  477MOL0     H65797   1.435   5.331   3.984 -2.1461 -0.9951  0.3606
  477MOL0     H65798   1.183   5.343   3.951 -0.5717  0.2889  0.8310
  477MOL0     H65799   1.194   5.515   3.929 -1.4079 -0.6812 -2.3091
  477MOL0     H65800   1.361   5.315   3.763 -0.1792 -0.6101  2.8916
  477MOL0     H65801   1.355   5.487   3.735 -0.9947  1.5970 -1.1101
  477MOL0     H65802   1.132   5.483   3.621 -1.2904  0.4209 -0.7044
  477MOL0     H65803   1.085   5.350   3.730 -1.0122  2.8160  0.1642
  477MOL0     H65804   1.107   5.286   3.503 -0.3107 -0.8445  1.3027
  477MOL0     H65805   1.231   5.202   3.599 -2.2015 -0.8739  0.5642
  477MOL0     H65806   1.486   6.037   4.134 -0.6348  2.9684 -0.7963
  477MOL0     H65807   1.595   6.260   4.151 -0.5971  1.4098 -1.8757
  477MOL0     H65808   1.881   6.534   3.986 -0.0611  2.1987 -0.2701
  477MOL0     H65809   1.934   6.754   3.976  0.7603 -0.2223 -0.2898
  477MOL0     H65810   1.878   6.166   3.606 -2.4949 -1.9498  0.3828
  477MOL0     H65811   1.992   5.972   3.546 -1.5561 -0.6712 -0.0979
  477MOL0     H65812   2.006   5.678   3.119  1.0723 -0.2587 -3.6679
  477MOL0     H65813   2.067   5.470   3.008  0.2181 -1.5424  1.0945
  477MOL0     H65814   2.436   5.255   3.097 -0.1265 -1.7358 -1.1880
  477MOL0     H65815   2.332   5.223   3.231 -1.2646 -1.7386 -0.0738
  477MOL0     H65816   2.362   5.090   2.959  0.3698 -0.9312 -0.0926
  477MOL0     H65817   2.231   5.036   3.035  0.0942  0.0648 -0.7216
  477MOL0     H65818   2.385   5.008   3.255 -2.0474  0.8305 -0.1720
  477MOL0     H65819   2.350   4.874   3.148  2.0251 -1.7494 -1.5227
  477MOL0     H65820   2.590   4.882   3.224 -1.2944 -2.1047 -1.3252
  477MOL0     H65821   2.601   5.031   3.136 -3.0691  1.5022 -2.8803
  477MOL0     H65822   2.550   4.772   2.806 -1.0320 -1.0888  0.5102
  477MOL0     H65823   2.421   5.435   3.238 -1.7568 -1.7901  0.2540
  477MOL0     H65824   2.449   5.579   3.439  0.5568  2.1727  1.8194
  477MOL0     H65825   2.453   5.730   3.366 -2.0788  1.1989 -1.6467
  477MOL0     H65826   2.327   5.699   3.488  0.7861  0.4847  0.5831
  478MOL0     O65827   4.998   6.340   8.731  0.6173 -0.4467  0.5376
  478MOL0     C65828   5.000   6.345   8.606  0.4620 -0.1052 -0.5158
  478MOL0     O65829   5.019   6.226   8.533  0.2781  0.3259  0.0234
  478MOL0     C65830   4.984   6.104   8.591  0.2966 -1.5398  0.0296
  478MOL0     C65831   5.066   5.997   8.615  0.2592  0.0826 -0.7638
  478MOL0     C65832   5.014   5.869   8.635  0.2377 -0.4400 -0.5019
  478MOL0     C65833   4.876   5.855   8.655 -0.1937 -0.0637 -1.4256
  478MOL0     O65834   4.833   5.727   8.691 -0.9034 -0.5536 -0.4823
  478MOL0     C65835   4.745   5.716   8.801  0.1625 -0.3220 -0.6678
  478MOL0     C65836   4.678   5.582   8.786  0.1230 -0.1681  0.4289
  478MOL0     C65837   4.567   5.555   8.893  0.3730 -0.6498  1.0028
  478MOL0     C65838   4.475   5.446   8.837 -0.1984  0.4467  0.9281
  478MOL0     C65839   4.548   5.308   8.841  0.7383  0.0586  0.8679
  478MOL0     C65840   4.495   5.210   8.740  0.9581  0.2539  0.2840
  478MOL0     C65841   4.573   5.083   8.717  0.0403  0.0141  0.0327
  478MOL0     C65842   4.536   4.984   8.822 -0.2366 -0.1232  0.5331
  478MOL0     N65843   4.604   5.009   8.949 -0.8434  0.1314 -1.0445
  478MOL0     C65844   4.746   5.016   8.970  0.0236 -0.1309 -0.1386
  478MOL0     C65845   4.764   5.026   9.103 -0.5351 -0.2703  0.3757
  478MOL0     C65846   4.898   5.073   9.161 -0.1216 -0.6107  0.0665
  478MOL0     C65847   4.924   5.214   9.128 -1.0220 -0.0494  0.7894
  478MOL0     C65848   4.818   5.319   9.158 -0.5330 -0.5808 -0.3833
  478MOL0     C65849   4.854   5.464   9.139 -0.4406 -0.4730 -0.1406
  478MOL0     O65850   4.975   5.504   9.211  0.3238 -0.0036  1.4526
  478MOL0     C65851   5.015   5.635   9.210 -0.1172 -0.0099  0.3028
  478MOL0     C65852   4.935   5.738   9.162  0.1515 -0.0791  0.7860
  478MOL0     C65853   4.985   5.869   9.168  0.1658 -0.5630 -0.2280
  478MOL0     C65854   4.896   5.972   9.108  0.7654  0.1159  0.0657
  478MOL0     C65855   5.100   5.901   9.242 -0.1809  0.0714  1.0061
  478MOL0     C65856   5.151   6.041   9.261  0.6022 -0.1354  0.2992
  478MOL0     O65857   5.253   6.057   9.352  0.5762 -0.0874 -0.3520
  478MOL0     C65858   5.271   6.199   9.372 -0.1242 -0.0018 -0.7974
  478MOL0     C65859   5.227   6.255   9.490  0.1519  0.0846 -0.3553
  478MOL0     C65860   5.269   6.379   9.532 -0.3467  0.0862  0.2404
  478MOL0     C65861   5.363   6.455   9.459  0.2798 -0.1648  0.5399
  478MOL0     O65862   5.407   6.569   9.516 -0.1458 -0.8048 -0.8710
  478MOL0     C65863   5.500   6.641   9.440 -0.0905 -0.1155 -0.5475
  478MOL0     C65864   5.567   6.732   9.548 -0.1238 -1.1222 -0.1945
  478MOL0     C65865   5.671   6.818   9.473  0.5110 -0.5456 -0.3656
  478MOL0     C65866   5.700   6.949   9.555 -0.0666  0.0801 -0.4349
  478MOL0     C65867   5.820   7.043   9.530  0.3995  0.6022  0.2712
  478MOL0     C65868   5.957   6.970   9.574  0.4616 -0.3355 -0.3828
  478MOL0     C65869   5.969   6.926   9.717  0.3709 -0.6056  0.6628
  478MOL0     C65870   5.954   7.039   9.821 -0.3466 -0.1007 -0.1020
  478MOL0    Cl65871   5.984   6.997   9.995 -0.3259 -0.0832  0.6186
  478MOL0     C65872   5.387   6.404   9.326  0.3150 -0.4291 -0.4792
  478MOL0     C65873   5.346   6.280   9.283  0.1496  0.1241  0.8619
  478MOL0     O65874   5.085   6.140   9.220  0.4630  0.5355  0.1646
  478MOL0     C65875   5.174   5.791   9.291  0.2627 -0.6338  0.2447
  478MOL0     C65876   5.127   5.663   9.284 -0.0414  1.7053 -0.4930
  478MOL0     N65877   4.637   5.023   9.164 -0.5167 -0.1403 -0.6229
  478MOL0     N65878   4.539   5.017   9.071 -0.3728  0.5068 -0.3913
  478MOL0     C65879   4.788   5.962   8.640 -0.5527 -0.1773 -0.9993
  478MOL0     C65880   4.848   6.092   8.618 -0.1002  0.0324 -0.2219
  478MOL0     C65881   4.980   6.476   8.548 -0.5339  0.8725 -0.9903
  478MOL0     C65882   4.995   6.588   8.635 -0.4484 -0.4198  0.0431
  478MOL0     C65883   4.978   6.720   8.599  0.7572  0.1997  0.1069
  478MOL0     C65884   4.945   6.741   8.468 -0.0307 -0.7224  0.1801
  478MOL0     O65885   4.934   6.871   8.433  0.1793  0.2861  0.1032
  478MOL0     C65886   5.052   6.938   8.389 -0.1046  0.3854  0.2208
  478MOL0     C65887   5.132   6.992   8.504  0.3394  0.2942  0.2977
  478MOL0     C65888   5.262   6.928   8.506 -0.6865 -0.0082 -0.3395
  478MOL0     C65889   5.342   6.979   8.629 -0.4409 -0.4355  0.5375
  478MOL0     C65890   5.486   6.951   8.633 -1.5130  1.0524  1.2410
  478MOL0     C65891   5.609   6.952   8.643 -0.4514 -0.1875  0.2654
  478MOL0     C65892   4.927   6.637   8.379  0.8300  0.5872  0.7429
  478MOL0     C65893   4.951   6.506   8.415 -0.2841 -0.1982  1.1010
  478MOL0     C65894   4.942   6.398   8.312  0.9549  0.4330  0.4965
  478MOL0     H65895   5.173   6.006   8.598  0.7690  1.3313  2.4352
  478MOL0     H65896   5.080   5.784   8.650  0.8200 -0.0645 -0.8866
  478MOL0     H65897   4.671   5.792   8.825  0.5421  0.0172 -0.5474
  478MOL0     H65898   4.799   5.719   8.896 -3.1045  3.5528  1.3543
  478MOL0     H65899   4.655   5.575   8.679  0.2507 -1.1794  0.4599
  478MOL0     H65900   4.767   5.523   8.809  2.0949  2.8974  1.2483
  478MOL0     H65901   4.600   5.526   8.993  0.9518 -2.2610  0.3722
  478MOL0     H65902   4.513   5.651   8.889  2.1524  0.3755 -2.2768
  478MOL0     H65903   4.384   5.444   8.898 -0.5293  1.1461  0.4680
  478MOL0     H65904   4.441   5.471   8.736  0.8463 -2.2702 -0.1976
  478MOL0     H65905   4.530   5.278   8.944 -0.3817  3.2832  1.7507
  478MOL0     H65906   4.655   5.324   8.826  1.0258 -2.2442  0.0968
  478MOL0     H65907   4.387   5.205   8.756  0.9221  2.6171  1.1467
  478MOL0     H65908   4.513   5.255   8.642  0.5783 -0.5915 -0.1758
  478MOL0     H65909   4.680   5.108   8.724 -0.8974  4.7046  1.5147
  478MOL0     H65910   4.555   5.030   8.623 -0.3876  1.6451 -0.8435
  478MOL0     H65911   4.428   4.974   8.836 -0.2534 -0.1224  0.4050
  478MOL0     H65912   4.578   4.894   8.777  2.6891  1.0442  0.6803
  478MOL0     H65913   4.824   5.018   8.895 -1.8061 -1.0904 -2.1577
  478MOL0     H65914   4.979   5.005   9.130 -1.0477 -2.3159  1.2087
  478MOL0     H65915   4.900   5.064   9.270  3.3218  1.9791  0.3896
  478MOL0     H65916   5.022   5.244   9.166 -0.7206 -0.4456  0.3299
  478MOL0     H65917   4.927   5.223   9.019 -3.7392  1.5914  0.7578
  478MOL0     H65918   4.732   5.280   9.102  0.2067 -2.3571 -0.3540
  478MOL0     H65919   4.777   5.319   9.259  0.4831  2.4500  0.1253
  478MOL0     H65920   4.873   5.482   9.033  1.4676 -1.4928 -0.0156
  478MOL0     H65921   4.768   5.518   9.180 -0.1464  0.1380 -0.3197
  478MOL0     H65922   4.837   5.731   9.115 -0.0572  0.7406  1.0812
  478MOL0     H65923   4.810   5.919   9.067  1.9299 -0.1675 -2.1505
  478MOL0     H65924   4.948   6.035   9.036  1.8244 -2.3155 -1.4126
  478MOL0     H65925   4.851   6.028   9.191 -0.0172  0.8917 -0.8646
  478MOL0     H65926   5.165   6.185   9.545 -1.2981  0.4491 -1.4581
  478MOL0     H65927   5.249   6.402   9.637 -0.3905 -0.7946  0.4346
  478MOL0     H65928   5.571   6.565   9.405 -0.6894 -0.8150 -0.2694
  478MOL0     H65929   5.454   6.696   9.357  1.6524 -0.9003 -2.1136
  478MOL0     H65930   5.503   6.786   9.618 -1.6574 -2.4926 -0.4992
  478MOL0     H65931   5.624   6.668   9.617  1.3337  1.4061  1.0885
  478MOL0     H65932   5.645   6.844   9.371  0.0450  2.9202  0.4896
  478MOL0     H65933   5.762   6.758   9.475  0.9384  0.0610  2.0990
  478MOL0     H65934   5.689   6.915   9.659  0.4241 -1.5281 -0.8720
  478MOL0     H65935   5.612   7.012   9.542 -1.0076 -0.8691  1.0248
  478MOL0     H65936   5.834   7.077   9.427 -0.3187  1.6683  0.5028
  478MOL0     H65937   5.803   7.131   9.594  1.7741  1.4337 -0.4629
  478MOL0     H65938   6.032   7.042   9.539  1.1095 -1.6777 -1.9108
  478MOL0     H65939   5.977   6.883   9.511 -3.6798  0.0388 -2.5728
  478MOL0     H65940   6.072   6.892   9.726  0.8466  1.0191  1.8310
  478MOL0     H65941   5.906   6.836   9.725 -0.1376 -0.3170  0.0268
  478MOL0     H65942   5.851   7.075   9.818  0.5821  2.7750 -1.1366
  478MOL0     H65943   6.024   7.115   9.785  0.4148 -1.2357 -1.1234
  478MOL0     H65944   5.442   6.471   9.261 -3.1360  3.1845  0.0183
  478MOL0     H65945   5.384   6.243   9.188  0.3193  3.1100 -0.3475
  478MOL0     H65946   5.261   5.831   9.342  1.2800  2.0770 -3.2491
  478MOL0     H65947   5.179   5.584   9.338 -0.8143  2.0721  0.8301
  478MOL0     H65948   4.680   5.957   8.650 -0.6462  1.1966 -1.0455
  478MOL0     H65949   4.798   6.186   8.599  2.1285  1.0462 -1.3875
  478MOL0     H65950   5.030   6.568   8.736  0.9263  0.0321 -0.3222
  478MOL0     H65951   4.987   6.796   8.677  0.8493  1.1628 -0.8186
  478MOL0     H65952   5.110   6.861   8.337  1.0464 -0.1521  2.1867
  478MOL0     H65953   5.019   7.013   8.318  1.5903  2.5053  1.5349
  478MOL0     H65954   5.093   6.982   8.606  2.3038  2.4092  1.3518
  478MOL0     H65955   5.130   7.098   8.478  2.0235  0.1237 -0.6211
  478MOL0     H65956   5.260   6.818   8.508  0.2385 -0.0205  0.3898
  478MOL0     H65957   5.320   6.955   8.417 -0.9810  0.5550 -0.3641
  478MOL0     H65958   5.300   6.943   8.723 -2.5076  0.2340 -0.0770
  478MOL0     H65959   5.326   7.087   8.617 -0.8896 -0.4962  0.5683
  478MOL0     H65960   5.715   6.957   8.658 -0.4701  0.5788  0.1482
  478MOL0     H65961   4.889   6.654   8.279  1.9483 -0.9402  0.0383
  478MOL0     H65962   4.934   6.442   8.212 -0.1402  0.8211  0.7312
  478MOL0     H65963   5.021   6.323   8.316  2.1556  1.6004 -0.4826
  478MOL0     H65964   4.845   6.349   8.323  0.6301  1.1852  1.0965
  479MOL0     O65965   2.661   7.049   3.674  0.0542 -1.2706 -0.6804
  479MOL0     C65966   2.560   7.084   3.612  0.0225  0.7811  0.1315
  479MOL0     O65967   2.432   7.075   3.663  0.0853  0.4161  0.3762
  479MOL0     C65968   2.427   7.043   3.795  0.1738 -0.8088  0.0145
  479MOL0     C65969   2.355   6.929   3.832  0.1742 -0.9991  0.2715
  479MOL0     C65970   2.322   6.899   3.964 -1.3950  0.0638  0.2859
  479MOL0     C65971   2.374   6.981   4.066 -0.1405 -0.8560  0.1060
  479MOL0     O65972   2.356   6.956   4.197 -0.1495  0.7189  0.4664
  479MOL0     C65973   2.467   6.907   4.271 -0.2726  0.7205  0.0847
  479MOL0     C65974   2.541   7.025   4.347 -0.5341 -0.0528 -0.3272
  479MOL0     C65975   2.624   6.997   4.483 -0.1354  0.7875 -0.1747
  479MOL0     C65976   2.719   6.878   4.479 -0.0410 -0.3836  0.0676
  479MOL0     C65977   2.803   6.865   4.349  0.2011 -0.5925  0.4846
  479MOL0     C65978   2.875   6.735   4.349  0.8692  0.9284  0.4236
  479MOL0     C65979   2.979   6.739   4.238  0.2790 -1.1789  0.0898
  479MOL0     C65980   3.089   6.630   4.244 -0.5014 -0.3166 -0.3051
  479MOL0     N65981   3.038   6.498   4.225  0.6827  1.2303  0.1116
  479MOL0     C65982   2.960   6.454   4.119 -0.3382  0.0026  0.8280
  479MOL0     C65983   2.953   6.325   4.139  0.4857 -0.1344  0.6519
  479MOL0     C65984   2.872   6.246   4.048  0.0836  0.2447 -0.6618
  479MOL0     C65985   2.940   6.236   3.916  0.4825 -0.0452  0.6252
  479MOL0     C65986   2.848   6.173   3.810 -0.3498 -0.6008  0.4149
  479MOL0     C65987   2.905   6.196   3.675  0.5731 -0.8593 -0.3819
  479MOL0     O65988   2.804   6.125   3.599  0.0850 -0.2338  0.0550
  479MOL0     C65989   2.774   6.174   3.473 -0.2381 -0.2631 -0.3997
  479MOL0     C65990   2.644   6.158   3.424 -0.3544 -0.6459  0.3094
  479MOL0     C65991   2.604   6.204   3.290 -0.9209 -0.9579  0.0591
  479MOL0     C65992   2.470   6.169   3.255  0.4042 -0.3991  0.2947
  479MOL0     C65993   2.706   6.276   3.213  1.5904  0.4164  0.4270
  479MOL0     C65994   2.672   6.346   3.092 -0.1749  0.7452  0.3137
  479MOL0     O65995   2.759   6.440   3.062  0.5782  0.3569 -0.2007
  479MOL0     C65996   2.739   6.511   2.945 -0.1104 -0.2460 -0.2812
  479MOL0     C65997   2.623   6.574   2.915  1.1853  0.2138 -0.1054
  479MOL0     C65998   2.608   6.643   2.792  0.1127 -0.0483  0.3964
  479MOL0     C65999   2.711   6.659   2.695  0.1916  0.6318 -1.4384
  479MOL0     O66000   2.680   6.743   2.585  0.2323  0.2779 -0.3526
  479MOL0     C66001   2.781   6.764   2.489 -0.3264 -1.4365 -0.4651
  479MOL0     C66002   2.720   6.860   2.380  0.2940  0.4929 -0.3829
  479MOL0     C66003   2.752   7.005   2.416 -0.7276 -0.8434  0.6304
  479MOL0     C66004   2.704   7.105   2.312  0.0696 -0.2537  0.1969
  479MOL0     C66005   2.736   7.250   2.349  0.0816  0.2347 -0.0288
  479MOL0     C66006   2.760   7.325   2.225  0.2518 -0.9321  0.9415
  479MOL0     C66007   2.765   7.475   2.268  0.2815 -0.3879  0.8897
  479MOL0     C66008   2.681   7.573   2.178 -0.0175 -0.2977 -1.3227
  479MOL0    Cl66009   2.669   7.735   2.246 -0.0208 -0.1008 -0.1919
  479MOL0     C66010   2.828   6.592   2.735 -0.4047 -0.2686 -0.2514
  479MOL0     C66011   2.839   6.507   2.842  0.7563  0.1972 -0.6335
  479MOL0     O66012   2.570   6.316   3.031 -0.6305 -0.1988  0.6553
  479MOL0     C66013   2.833   6.305   3.271  0.0102  0.6146  1.2176
  479MOL0     C66014   2.860   6.250   3.399 -0.9233 -0.2333  0.2341
  479MOL0     N66015   3.017   6.284   4.253 -0.7344 -0.1375  1.0440
  479MOL0     N66016   3.071   6.388   4.304  0.7790  0.0152  0.1492
  479MOL0     C66017   2.441   7.095   4.030  0.0396  0.5841 -0.7586
  479MOL0     C66018   2.474   7.127   3.894  0.6258 -0.2141  0.0488
  479MOL0     C66019   2.570   7.153   3.472  0.1548 -0.6650  0.1765
  479MOL0     C66020   2.445   7.182   3.399  0.0978  0.2947  0.4893
  479MOL0     C66021   2.444   7.242   3.267 -0.1485 -0.3862  0.1123
  479MOL0     C66022   2.568   7.274   3.217  0.4587  1.2670  0.3789
  479MOL0     O66023   2.570   7.327   3.087 -0.3242 -0.6636  0.1522
  479MOL0     C66024   2.660   7.257   3.002 -1.0990 -0.3757  0.8284
  479MOL0     C66025   2.632   7.277   2.854 -0.8664 -0.9898 -0.2458
  479MOL0     C66026   2.698   7.417   2.804 -0.5413  0.1766  1.2337
  479MOL0     C66027   2.689   7.441   2.649  0.4855 -0.3568 -0.6526
  479MOL0     C66028   2.558   7.476   2.608  0.6256  0.5311 -0.0173
  479MOL0     C66029   2.459   7.515   2.560  0.1367  0.6971 -0.7016
  479MOL0     C66030   2.686   7.242   3.289  0.0478 -0.9925 -0.6005
  479MOL0     C66031   2.690   7.188   3.412 -0.1881  0.1975 -0.9703
  479MOL0     C66032   2.831   7.153   3.456 -0.0122 -0.5770  0.1970
  479MOL0     H66033   2.328   6.859   3.754  4.5565 -0.1245 -2.4039
  479MOL0     H66034   2.255   6.816   3.984 -0.3194 -0.7066  0.8095
  479MOL0     H66035   2.536   6.853   4.206  0.0970  0.3793  0.7510
  479MOL0     H66036   2.432   6.839   4.350 -0.9313  1.6102  0.5778
  479MOL0     H66037   2.603   7.084   4.280 -0.4584  1.2242  0.8186
  479MOL0     H66038   2.470   7.098   4.386 -0.8079  0.4679 -1.7432
  479MOL0     H66039   2.686   7.083   4.512  4.0876 -2.9305  3.4185
  479MOL0     H66040   2.550   6.976   4.561  0.1061  1.0383  0.1254
  479MOL0     H66041   2.793   6.889   4.560  0.3250 -2.6491  0.0982
  479MOL0     H66042   2.660   6.787   4.490 -0.5022  0.0136  0.9786
  479MOL0     H66043   2.872   6.950   4.350 -1.0930  0.5367  2.6693
  479MOL0     H66044   2.754   6.875   4.252 -0.6765 -1.9485  0.7624
  479MOL0     H66045   2.926   6.713   4.443  1.8040 -0.9950 -0.4839
  479MOL0     H66046   2.801   6.657   4.327  0.5576  1.2052  0.4777
  479MOL0     H66047   3.033   6.834   4.243 -0.1773 -0.7929 -1.6869
  479MOL0     H66048   2.936   6.744   4.138  0.5100  2.3003  0.0339
  479MOL0     H66049   3.164   6.650   4.168  0.2668 -0.3069  0.4400
  479MOL0     H66050   3.147   6.634   4.337 -0.2196 -2.7420 -0.3106
  479MOL0     H66051   2.918   6.515   4.040 -0.1942 -2.0185 -0.9163
  479MOL0     H66052   2.763   6.258   4.042 -0.7210 -5.0177 -1.4018
  479MOL0     H66053   2.884   6.144   4.085  0.6434  0.2358 -0.8732
  479MOL0     H66054   2.960   6.337   3.878 -0.6991 -0.6240 -1.7428
  479MOL0     H66055   3.032   6.178   3.924  0.5822  0.3360  2.6496
  479MOL0     H66056   2.840   6.065   3.826 -0.8949 -1.0084 -2.1610
  479MOL0     H66057   2.747   6.214   3.813 -0.4667 -0.6010 -1.6239
  479MOL0     H66058   2.909   6.301   3.647 -1.4109 -0.2238  1.4060
  479MOL0     H66059   2.994   6.138   3.652 -1.6328 -5.0382  0.5509
  479MOL0     H66060   2.577   6.091   3.476  0.2001 -0.4631  1.2772
  479MOL0     H66061   2.465   6.128   3.154 -0.4612 -0.9471  0.5532
  479MOL0     H66062   2.412   6.261   3.262 -4.2882 -3.0024 -0.5480
  479MOL0     H66063   2.422   6.098   3.323  3.3394 -0.7846  2.1332
  479MOL0     H66064   2.550   6.562   2.995  0.7005  0.4920 -0.4979
  479MOL0     H66065   2.510   6.683   2.769  1.0259  2.6157  0.8446
  479MOL0     H66066   2.869   6.800   2.542 -1.1894 -0.0638  0.0935
  479MOL0     H66067   2.810   6.669   2.443  1.5338 -0.4723 -1.3671
  479MOL0     H66068   2.771   6.839   2.285  3.1531  1.2300  0.8789
  479MOL0     H66069   2.611   6.845   2.377  0.3306 -0.5618  1.6823
  479MOL0     H66070   2.858   7.016   2.442 -1.4909  0.6976  3.5648
  479MOL0     H66071   2.688   7.023   2.504  0.4856 -1.0960  1.5962
  479MOL0     H66072   2.595   7.095   2.305 -0.4152  1.4390  3.4763
  479MOL0     H66073   2.737   7.073   2.213 -1.0429  0.8539 -0.5619
  479MOL0     H66074   2.647   7.294   2.394 -0.2598 -0.0500 -0.4093
  479MOL0     H66075   2.820   7.256   2.418 -0.8970  0.1789  1.1960
  479MOL0     H66076   2.669   7.312   2.165 -0.2205  4.9341 -0.2548
  479MOL0     H66077   2.846   7.282   2.175  0.7482 -3.4422  3.7017
  479MOL0     H66078   2.873   7.494   2.266  0.2003  0.2842 -2.2716
  479MOL0     H66079   2.734   7.506   2.368  1.4285 -0.6214  1.3305
  479MOL0     H66080   2.579   7.534   2.164 -1.3855  2.4228  0.1800
  479MOL0     H66081   2.724   7.582   2.078 -0.3880  2.6299 -1.2998
  479MOL0     H66082   2.916   6.588   2.672 -0.1247 -0.1760  0.1230
  479MOL0     H66083   2.927   6.447   2.860 -0.0756 -0.8822 -0.0768
  479MOL0     H66084   2.905   6.374   3.229 -0.1419 -0.0978 -0.2896
  479MOL0     H66085   2.956   6.282   3.440 -0.8799  0.0156 -0.0486
  479MOL0     H66086   2.476   7.171   4.099  0.4478  1.3131 -1.7423
  479MOL0     H66087   2.519   7.224   3.876 -3.4520  1.7605 -0.5523
  479MOL0     H66088   2.356   7.150   3.452 -0.3787  0.3806 -0.2516
  479MOL0     H66089   2.352   7.251   3.210  0.6044  0.9280 -0.9639
  479MOL0     H66090   2.765   7.282   3.021 -1.4973  2.5978 -0.4874
  479MOL0     H66091   2.662   7.150   3.028 -0.2440 -0.1931  1.5680
  479MOL0     H66092   2.525   7.257   2.841 -1.5053  1.2634  1.0999
  479MOL0     H66093   2.694   7.198   2.811  2.0089 -0.6593  2.8975
  479MOL0     H66094   2.641   7.493   2.859  2.5908  0.9468  3.7327
  479MOL0     H66095   2.803   7.436   2.828  0.6754  0.1900 -3.2872
  479MOL0     H66096   2.729   7.348   2.607 -1.7956 -1.9443  0.4201
  479MOL0     H66097   2.756   7.524   2.627  1.9496 -0.7546  1.9409
  479MOL0     H66098   2.376   7.561   2.509  1.1434  2.5425 -0.7829
  479MOL0     H66099   2.781   7.268   3.242  0.0862  1.2641  0.5963
  479MOL0     H66100   2.848   7.195   3.555  1.6387 -1.8221  0.5015
  479MOL0     H66101   2.833   7.043   3.464  0.2123 -0.5930 -0.0589
  479MOL0     H66102   2.899   7.188   3.377 -0.1549 -0.1454  0.2658
  480MOL0     O66103   4.295   1.790   3.517  0.6755 -0.0870  0.9987
  480MOL0     C66104   4.373   1.844   3.444 -0.0431  0.8228 -0.0217
  480MOL0     O66105   4.507   1.866   3.464  0.3721  0.2229 -0.0786
  480MOL0     C66106   4.570   1.851   3.582 -1.2654  0.0388 -0.5642
  480MOL0     C66107   4.541   1.745   3.670 -0.7591 -0.2980  0.0337
  480MOL0     C66108   4.611   1.741   3.798  0.2139  0.0514  0.0799
  480MOL0     C66109   4.705   1.844   3.835  0.0339  0.4637  0.6236
  480MOL0     O66110   4.784   1.847   3.950 -0.6957  0.8680  0.2765
  480MOL0     C66111   4.813   1.723   4.024 -0.0440 -0.6699 -0.1182
  480MOL0     C66112   4.708   1.709   4.138 -0.4988 -0.3615 -0.1458
  480MOL0     C66113   4.717   1.827   4.229  0.1740  0.3980 -1.0143
  480MOL0     C66114   4.616   1.807   4.344  0.1077  0.8741 -0.8999
  480MOL0     C66115   4.651   1.901   4.456  0.1462  1.2117  0.0776
  480MOL0     C66116   4.568   1.888   4.589  1.0749  0.1605  0.4914
  480MOL0     C66117   4.635   1.962   4.699  0.5542 -0.6010  0.3789
  480MOL0     C66118   4.628   2.119   4.707 -0.2711  0.5830 -0.5944
  480MOL0     N66119   4.671   2.171   4.832 -0.1692  0.1894 -0.6658
  480MOL0     C66120   4.786   2.230   4.852 -0.1735 -0.0672 -0.0507
  480MOL0     C66121   4.780   2.250   4.989  0.1853 -0.0143 -0.2809
  480MOL0     C66122   4.870   2.340   5.067  0.2596 -0.2754  0.3295
  480MOL0     C66123   4.970   2.254   5.144  0.3882  0.5146 -0.0141
  480MOL0     C66124   5.079   2.194   5.064  0.2417  0.4663  0.2652
  480MOL0     C66125   5.156   2.073   5.117 -0.0547  0.1530  0.3891
  480MOL0     O66126   5.067   1.956   5.149 -0.8294 -0.2930  0.4648
  480MOL0     C66127   5.006   1.882   5.046 -0.2147  0.6174  0.6771
  480MOL0     C66128   5.058   1.882   4.914  0.3974  0.8409  0.9129
  480MOL0     C66129   4.990   1.810   4.817 -0.3703  0.6901  0.1454
  480MOL0     C66130   5.037   1.818   4.669  1.1149 -0.4019 -1.3408
  480MOL0     C66131   4.878   1.730   4.856  0.0716  0.5436 -0.0187
  480MOL0     C66132   4.813   1.630   4.772  0.9119  0.7234 -0.4781
  480MOL0     O66133   4.685   1.594   4.811  0.2799  0.3874 -0.2065
  480MOL0     C66134   4.614   1.491   4.744 -0.6667  0.5944 -0.3178
  480MOL0     C66135   4.537   1.395   4.811  0.2131 -0.0100 -1.0373
  480MOL0     C66136   4.454   1.305   4.741 -0.7635 -0.0038  1.5362
  480MOL0     C66137   4.444   1.313   4.592 -0.4099  0.3173 -0.8799
  480MOL0     O66138   4.368   1.229   4.511 -0.3124 -0.9863  0.5364
  480MOL0     C66139   4.265   1.141   4.566 -0.4568 -0.7652 -0.3022
  480MOL0     C66140   4.160   1.106   4.461  0.2320  0.9239 -0.5799
  480MOL0     C66141   4.235   1.019   4.361  0.6143 -1.2742  0.0737
  480MOL0     C66142   4.135   0.981   4.245  0.4440 -0.2215  0.1503
  480MOL0     C66143   4.194   0.907   4.124  0.2483 -0.4101 -0.3444
  480MOL0     C66144   4.092   0.811   4.063  0.7652  0.8039 -0.1455
  480MOL0     C66145   3.999   0.867   3.957 -0.0065 -0.1512  1.1318
  480MOL0     C66146   3.879   0.926   4.018  0.3438 -0.5750  0.8861
  480MOL0    Cl66147   3.762   0.810   4.111  0.5607 -0.2527  0.2912
  480MOL0     C66148   4.524   1.416   4.535 -0.4829 -0.7074  0.4712
  480MOL0     C66149   4.601   1.503   4.610 -0.3134 -0.0523  0.0492
  480MOL0     O66150   4.878   1.572   4.684  0.3571 -0.5557 -0.3101
  480MOL0     C66151   4.824   1.751   4.986 -0.4271 -0.1750 -0.1614
  480MOL0     C66152   4.888   1.822   5.076  0.6097  0.0851  0.6629
  480MOL0     N66153   4.659   2.208   5.047 -0.2132  0.2322 -0.4826
  480MOL0     N66154   4.601   2.148   4.947 -0.7164  0.7592  0.4525
  480MOL0     C66155   4.728   1.944   3.742 -0.8591  0.2872  0.3112
  480MOL0     C66156   4.668   1.942   3.617 -0.4384  0.0294 -0.6239
  480MOL0     C66157   4.329   1.857   3.309 -0.5003  1.0479 -0.1793
  480MOL0     C66158   4.422   1.809   3.211 -0.3841 -0.1066 -0.0638
  480MOL0     C66159   4.397   1.828   3.080  1.4942 -0.7857 -0.5150
  480MOL0     C66160   4.271   1.888   3.040 -0.0048 -0.2048 -0.4652
  480MOL0     O66161   4.258   1.905   2.903  0.0207 -1.0094 -0.1698
  480MOL0     C66162   4.158   1.999   2.862  0.6271 -0.6120 -0.0473
  480MOL0     C66163   4.182   2.041   2.716  0.5738 -1.3962  0.0112
  480MOL0     C66164   4.307   2.134   2.712  0.5400 -0.7574 -0.0660
  480MOL0     C66165   4.378   2.152   2.575 -0.1765  0.3745  0.7914
  480MOL0     C66166   4.295   2.207   2.477  0.5747 -0.8155 -0.6540
  480MOL0     C66167   4.209   2.273   2.424  0.7608  1.6462  0.1641
  480MOL0     C66168   4.169   1.929   3.133 -0.5393  0.5094 -0.1461
  480MOL0     C66169   4.200   1.911   3.273 -0.2643 -0.2925  0.3903
  480MOL0     C66170   4.090   1.949   3.363  0.5236  0.4924 -0.4828
  480MOL0     H66171   4.459   1.677   3.650 -2.3506  1.0298  1.7482
  480MOL0     H66172   4.585   1.670   3.875  2.2544 -0.0230  0.7812
  480MOL0     H66173   4.909   1.731   4.075 -1.4024  1.3247  2.3635
  480MOL0     H66174   4.819   1.636   3.958 -0.4492 -2.9139  2.6108
  480MOL0     H66175   4.606   1.713   4.097  0.1498  0.6520 -1.7437
  480MOL0     H66176   4.709   1.611   4.186 -1.4889 -1.2204 -1.8132
  480MOL0     H66177   4.817   1.829   4.272 -0.6803 -0.3050  1.1420
  480MOL0     H66178   4.706   1.917   4.168 -0.9721  1.0955  0.1588
  480MOL0     H66179   4.509   1.813   4.324  0.2046 -1.1257 -2.3220
  480MOL0     H66180   4.632   1.711   4.393  0.4581  1.2296 -0.3022
  480MOL0     H66181   4.650   2.002   4.413 -1.4399  1.0489 -0.3331
  480MOL0     H66182   4.756   1.885   4.482 -0.9587 -2.3466  3.1840
  480MOL0     H66183   4.471   1.936   4.583 -0.0211 -1.4815  3.3248
  480MOL0     H66184   4.574   1.781   4.612  1.7384  0.4427  1.7130
  480MOL0     H66185   4.739   1.931   4.712  0.6766  0.1482  1.2741
  480MOL0     H66186   4.581   1.935   4.790 -0.4388  2.0282  0.6468
  480MOL0     H66187   4.688   2.164   4.628 -0.1558 -0.4694 -1.1253
  480MOL0     H66188   4.521   2.135   4.693 -1.0850 -1.9503  1.6943
  480MOL0     H66189   4.870   2.255   4.788 -0.3113 -0.6296 -0.4521
  480MOL0     H66190   4.813   2.398   5.140  0.2154  0.5331 -0.3348
  480MOL0     H66191   4.927   2.414   5.010 -1.9359  2.2899  1.2266
  480MOL0     H66192   5.013   2.318   5.222 -2.6384  0.4843  1.8573
  480MOL0     H66193   4.916   2.173   5.194  0.1312 -1.0885 -2.7021
  480MOL0     H66194   5.054   2.162   4.962 -3.6704 -0.1791  1.2900
  480MOL0     H66195   5.152   2.276   5.064  0.2898  0.4647  2.2422
  480MOL0     H66196   5.234   2.040   5.048 -0.8888  1.7012 -1.3957
  480MOL0     H66197   5.211   2.112   5.203 -0.0524 -1.7300  1.2683
  480MOL0     H66198   5.145   1.942   4.890  0.6519 -0.3670 -1.4922
  480MOL0     H66199   5.122   1.887   4.659 -0.4433  1.6427 -1.0235
  480MOL0     H66200   4.959   1.853   4.600  0.4092 -1.6682 -1.2183
  480MOL0     H66201   5.067   1.720   4.630  1.0224 -0.8196 -0.3786
  480MOL0     H66202   4.557   1.382   4.917 -1.2059 -0.0420 -0.7480
  480MOL0     H66203   4.416   1.219   4.795 -2.0227 -1.5881 -1.5911
  480MOL0     H66204   4.302   1.046   4.607 -3.3158 -1.7615  0.1941
  480MOL0     H66205   4.218   1.193   4.650  1.1651  2.7338 -1.3598
  480MOL0     H66206   4.079   1.052   4.511 -0.0465  0.0580 -1.8987
  480MOL0     H66207   4.120   1.202   4.427  1.5845  2.5008  2.0054
  480MOL0     H66208   4.274   0.925   4.401 -0.0904 -1.6025  0.0194
  480MOL0     H66209   4.318   1.077   4.320  0.0515 -0.6973 -0.2697
  480MOL0     H66210   4.096   1.081   4.222  2.3058  0.5918  0.3067
  480MOL0     H66211   4.056   0.924   4.295 -0.3161  1.2112  0.6507
  480MOL0     H66212   4.227   0.980   4.049  0.2865 -0.2851 -0.2071
  480MOL0     H66213   4.282   0.859   4.167 -0.1089 -1.2910 -0.5956
  480MOL0     H66214   4.032   0.759   4.137  0.1560  0.9838 -0.5015
  480MOL0     H66215   4.152   0.730   4.023 -0.0235  0.6592 -1.0870
  480MOL0     H66216   3.973   0.794   3.880  1.1709 -1.2923  1.7843
  480MOL0     H66217   4.059   0.939   3.900 -0.3683 -0.7654 -0.0519
  480MOL0     H66218   3.838   0.976   3.930  1.3837 -0.1970  0.6144
  480MOL0     H66219   3.912   1.012   4.076 -0.4305  1.5051 -1.5645
  480MOL0     H66220   4.511   1.432   4.428 -1.0598 -0.2316  0.6056
  480MOL0     H66221   4.644   1.587   4.557 -3.6496  4.1836  3.2957
  480MOL0     H66222   4.730   1.707   5.017 -0.4340 -0.1192 -0.1038
  480MOL0     H66223   4.842   1.835   5.174  2.3183  0.3673  1.4626
  480MOL0     H66224   4.782   2.034   3.770  2.1160 -1.2715  0.0326
  480MOL0     H66225   4.681   2.015   3.538 -2.2079  0.0032 -0.9994
  480MOL0     H66226   4.513   1.755   3.235  2.2563  3.9613  0.0477
  480MOL0     H66227   4.464   1.812   2.997  1.7079  0.7234 -0.6550
  480MOL0     H66228   4.054   1.967   2.867  0.2041  0.6992  0.0016
  480MOL0     H66229   4.167   2.094   2.915  0.1682 -0.3947 -0.3553
  480MOL0     H66230   4.100   2.105   2.681  2.9635  3.0564  1.7590
  480MOL0     H66231   4.186   1.953   2.651 -2.3480  0.1082 -2.4841
  480MOL0     H66232   4.272   2.236   2.731 -2.6117 -1.3398 -1.9714
  480MOL0     H66233   4.376   2.098   2.788 -0.7204  2.0575  2.6406
  480MOL0     H66234   4.394   2.050   2.536 -3.7262 -0.7952  2.0523
  480MOL0     H66235   4.475   2.201   2.588  0.3508 -0.2386 -0.5386
  480MOL0     H66236   4.131   2.339   2.391  1.3445  2.2681  0.0203
  480MOL0     H66237   4.072   1.966   3.101  0.4907 -0.0971 -4.6166
  480MOL0     H66238   4.030   2.031   3.324 -3.5332 -2.5052 -1.1460
  480MOL0     H66239   4.019   1.867   3.367  0.6105  0.4568  1.9350
  480MOL0     H66240   4.123   1.967   3.466 -1.0600  2.4760 -0.2696
  481MOL0     O66241   4.139   8.905   0.868 -0.9503 -0.5277 -0.1858
  481MOL0     C66242   4.241   8.965   0.894 -1.3246  0.1383 -0.4523
  481MOL0     O66243   4.248   9.099   0.907 -0.8840  0.2238  0.3478
  481MOL0     C66244   4.154   9.194   0.883 -0.4303 -0.4926  0.3767
  481MOL0     C66245   4.190   9.322   0.908  0.3052  0.0177 -0.2973
  481MOL0     C66246   4.102   9.429   0.893 -0.1919  0.8398 -0.3760
  481MOL0     C66247   3.971   9.402   0.851 -0.8630  0.2991  0.9124
  481MOL0     O66248   3.881   9.506   0.845 -0.6241 -0.5255 -0.2134
  481MOL0     C66249   3.762   9.488   0.772  0.8463  0.1307  0.1454
  481MOL0     C66250   3.692   9.623   0.732 -0.5433 -0.3275  0.2898
  481MOL0     C66251   3.671   9.716   0.844 -0.3804  0.1655 -0.4331
  481MOL0     C66252   3.622   9.861   0.810 -0.2494 -0.3969 -0.5371
  481MOL0     C66253   3.622   9.944   0.941 -0.6771 -0.0192  0.0015
  481MOL0     C66254   3.522  10.054   0.929  0.7022 -0.4635 -0.0660
  481MOL0     C66255   3.508  10.138   1.060  0.5963  0.3232  0.5889
  481MOL0     C66256   3.452  10.054   1.180 -0.4247 -0.6281  0.1606
  481MOL0     N66257   3.319  10.002   1.151  0.2818 -0.0154 -0.0667
  481MOL0     C66258   3.221  10.084   1.108  0.1827 -0.5168 -0.1925
  481MOL0     C66259   3.130   9.998   1.048  0.1700 -0.8853 -0.0138
  481MOL0     C66260   3.016  10.026   0.958 -0.5490 -0.3888 -0.1515
  481MOL0     C66261   2.884  10.010   1.025 -0.1987  0.1889  0.0784
  481MOL0     C66262   2.865   9.876   1.096 -0.2256  1.1891 -0.5713
  481MOL0     C66263   2.875   9.748   1.012  0.3471  0.2103  0.3714
  481MOL0     O66264   2.747   9.731   0.947 -0.0473 -0.9141 -0.5379
  481MOL0     C66265   2.748   9.712   0.814 -0.1423  0.0393  0.8118
  481MOL0     C66266   2.721   9.808   0.714  0.3938  0.6827  0.0571
  481MOL0     C66267   2.746   9.787   0.574 -0.5540  0.0049  0.4289
  481MOL0     C66268   2.722   9.913   0.491 -0.3339  0.0388 -0.8311
  481MOL0     C66269   2.801   9.663   0.526 -0.0795  0.5005  0.3217
  481MOL0     C66270   2.835   9.628   0.389 -0.6973 -0.4215 -0.1219
  481MOL0     O66271   2.812   9.717   0.287  0.2917 -0.5061 -0.1967
  481MOL0     C66272   2.898   9.728   0.182  1.5622  0.4203 -1.2317
  481MOL0     C66273   3.013   9.663   0.156 -0.4834 -0.2214  0.4450
  481MOL0     C66274   3.083   9.680   0.030  0.2573  0.8338 -0.3172
  481MOL0     C66275   3.047   9.779  -0.054  0.6721 -0.4247 -0.0523
  481MOL0     O66276   3.128   9.815  -0.160  0.3118 -0.6391  0.2446
  481MOL0     C66277   3.259   9.768  -0.173  0.3123  0.1744 -0.3461
  481MOL0     C66278   3.317   9.836  -0.300  0.0884  0.9082 -0.1608
  481MOL0     C66279   3.446   9.774  -0.349 -0.3457  0.8781 -0.3128
  481MOL0     C66280   3.492   9.829  -0.483 -0.2354 -0.2435 -0.7529
  481MOL0     C66281   3.629   9.779  -0.522  0.2175  0.2914  0.2320
  481MOL0     C66282   3.681   9.862  -0.642  0.9498 -0.1171 -0.9303
  481MOL0     C66283   3.837   9.860  -0.665  0.8492  0.0714 -0.5452
  481MOL0     C66284   3.881   9.728  -0.736  0.4652 -0.3540 -1.2419
  481MOL0    Cl66285   4.057   9.724  -0.760 -0.1288  0.2603  0.4139
  481MOL0     C66286   2.917   9.836  -0.037  0.1581 -0.6386 -0.9640
  481MOL0     C66287   2.843   9.807   0.079 -0.0789 -0.4946  0.5304
  481MOL0     O66288   2.894   9.520   0.376 -0.6878 -0.0056  0.3003
  481MOL0     C66289   2.816   9.566   0.626  0.8092 -0.0933 -0.1906
  481MOL0     C66290   2.790   9.591   0.765 -0.1386 -0.7428 -1.1501
  481MOL0     N66291   3.174   9.864   1.061 -0.6029  0.4852 -1.1202
  481MOL0     N66292   3.289   9.870   1.122 -0.7824 -1.0001  0.4827
  481MOL0     C66293   3.936   9.263   0.830 -0.2613 -0.2051 -0.5697
  481MOL0     C66294   4.029   9.168   0.832  0.3372 -0.4393 -0.1889
  481MOL0     C66295   4.366   8.893   0.934 -0.1899  0.5455  0.0706
  481MOL0     C66296   4.469   8.943   1.019 -1.3302 -0.0003  0.6409
  481MOL0     C66297   4.585   8.871   1.060  0.3413  0.1873 -0.4537
  481MOL0     C66298   4.592   8.736   1.015  0.4579  0.1726 -0.6969
  481MOL0     O66299   4.708   8.671   1.049  0.2247 -0.2377 -0.3578
  481MOL0     C66300   4.793   8.703   0.934 -1.2599 -0.1659  0.1528
  481MOL0     C66301   4.909   8.596   0.943 -0.1030 -0.1801 -0.2151
  481MOL0     C66302   5.003   8.611   1.067  0.7720  0.7299  0.7854
  481MOL0     C66303   5.019   8.743   1.122 -0.7754 -0.5798  1.2812
  481MOL0     C66304   5.148   8.766   1.197  0.7004 -1.0169 -0.3145
  481MOL0     C66305   5.241   8.786   1.263 -0.0732  0.5240 -1.1634
  481MOL0     C66306   4.494   8.682   0.931 -0.1996  0.3775 -0.2696
  481MOL0     C66307   4.387   8.762   0.886 -0.2440  0.5369  0.4441
  481MOL0     C66308   4.296   8.691   0.781 -0.3871  0.2049 -0.5138
  481MOL0     H66309   4.292   9.347   0.937  1.3379 -2.7411 -1.1995
  481MOL0     H66310   4.127   9.535   0.901 -1.1569  0.9506  2.1394
  481MOL0     H66311   3.690   9.429   0.830  1.6358 -1.7113 -0.6546
  481MOL0     H66312   3.783   9.428   0.683  1.4264 -0.4676  0.6653
  481MOL0     H66313   3.759   9.667   0.657 -0.8950  0.7742  0.5976
  481MOL0     H66314   3.599   9.603   0.677 -0.3211 -1.1230  0.2000
  481MOL0     H66315   3.597   9.681   0.916 -0.4769 -0.0460 -0.6332
  481MOL0     H66316   3.765   9.731   0.898 -1.0051 -1.9968  1.3787
  481MOL0     H66317   3.694   9.916   0.748 -0.5832  1.6229  0.7470
  481MOL0     H66318   3.522   9.866   0.767 -0.7227  1.9150  0.6450
  481MOL0     H66319   3.724   9.980   0.953 -1.7142  2.4472  2.3172
  481MOL0     H66320   3.606   9.879   1.028  0.4879 -2.5518 -1.5374
  481MOL0     H66321   3.560  10.123   0.852  1.6323  0.5211  1.2318
  481MOL0     H66322   3.429  10.011   0.891  0.4445 -0.1957  0.2558
  481MOL0     H66323   3.437  10.221   1.054 -1.2107 -0.9313  2.9569
  481MOL0     H66324   3.605  10.177   1.091  2.1444 -0.4736 -2.7788
  481MOL0     H66325   3.511   9.964   1.204  2.1859  1.2267  1.1574
  481MOL0     H66326   3.454  10.116   1.271 -0.2053 -0.2052 -0.1315
  481MOL0     H66327   3.234  10.191   1.098 -1.3013 -0.0885  1.8444
  481MOL0     H66328   3.035   9.969   0.866 -0.4401 -0.6013  0.0019
  481MOL0     H66329   3.021  10.133   0.935 -1.1790  0.3632  2.8581
  481MOL0     H66330   2.867  10.079   1.107 -3.3486 -1.0749  0.6166
  481MOL0     H66331   2.803  10.028   0.954  0.5948  1.0262 -0.6422
  481MOL0     H66332   2.922   9.872   1.190 -3.7642  2.0503  1.8309
  481MOL0     H66333   2.768   9.876   1.147 -0.1528 -2.9221 -0.0999
  481MOL0     H66334   2.961   9.742   0.945  1.1650  1.6955  1.2140
  481MOL0     H66335   2.891   9.667   1.084  1.1840 -0.9378 -1.0523
  481MOL0     H66336   2.692   9.905   0.752 -2.0930 -1.5077  4.5026
  481MOL0     H66337   2.734   9.902   0.383 -1.2715  0.5521 -0.9986
  481MOL0     H66338   2.791   9.987   0.535 -0.3225  1.4159 -3.0299
  481MOL0     H66339   2.617   9.942   0.496  0.0696  1.4316  1.8557
  481MOL0     H66340   3.052   9.601   0.236 -1.5097 -0.2654  0.9282
  481MOL0     H66341   3.172   9.621   0.012 -0.5319 -0.2402 -0.7554
  481MOL0     H66342   3.310   9.804  -0.083  3.3786 -1.0828 -1.4682
  481MOL0     H66343   3.276   9.660  -0.183  1.7658  0.4420 -1.0072
  481MOL0     H66344   3.247   9.836  -0.384  1.8862 -1.7919 -1.7992
  481MOL0     H66345   3.329   9.945  -0.295 -0.1152  1.0384 -1.9051
  481MOL0     H66346   3.431   9.667  -0.367  1.1246  0.4181  0.8992
  481MOL0     H66347   3.520   9.782  -0.268 -2.1429 -1.6093  1.7739
  481MOL0     H66348   3.498   9.939  -0.480 -1.5743 -0.1779  1.7102
  481MOL0     H66349   3.424   9.801  -0.563 -1.3598  0.5641 -0.1040
  481MOL0     H66350   3.696   9.794  -0.437 -1.4887  3.8099  1.1285
  481MOL0     H66351   3.631   9.670  -0.531  0.0756  0.3328 -0.3207
  481MOL0     H66352   3.674   9.969  -0.623  0.4619  0.1422 -2.4151
  481MOL0     H66353   3.616   9.834  -0.726 -1.9548  0.4946  0.9660
  481MOL0     H66354   3.898   9.866  -0.574 -1.2773 -1.0681  1.0473
  481MOL0     H66355   3.862   9.947  -0.726 -2.6017  1.3101 -0.3877
  481MOL0     H66356   3.833   9.728  -0.834  0.4058  1.4696 -1.2461
  481MOL0     H66357   3.858   9.635  -0.682  2.4713 -0.8039 -1.0792
  481MOL0     H66358   2.879   9.913  -0.103 -0.6501  0.0543  0.2675
  481MOL0     H66359   2.748   9.858   0.088  1.3314  2.4096  0.3468
  481MOL0     H66360   2.844   9.466   0.592 -1.3610 -0.8123 -0.0155
  481MOL0     H66361   2.810   9.509   0.834  1.2096  0.8441  0.4450
  481MOL0     H66362   3.834   9.240   0.802 -0.7595  0.8416  0.3054
  481MOL0     H66363   4.003   9.067   0.802 -4.4803  0.8517 -1.2414
  481MOL0     H66364   4.462   9.042   1.063 -1.1808  0.5417 -0.5040
  481MOL0     H66365   4.672   8.910   1.112  2.4281 -2.4159 -1.7966
  481MOL0     H66366   4.743   8.689   0.839 -1.7867 -1.9484  0.6531
  481MOL0     H66367   4.830   8.806   0.932  3.0484 -1.5149 -1.7018
  481MOL0     H66368   4.964   8.591   0.849 -1.6066  0.8396 -1.2116
  481MOL0     H66369   4.867   8.496   0.954  1.4384 -0.7590  0.6052
  481MOL0     H66370   4.972   8.545   1.149 -1.1631  0.3984 -0.1532
  481MOL0     H66371   5.098   8.576   1.025 -0.0550  1.8344 -2.2901
  481MOL0     H66372   4.940   8.776   1.190 -0.3753  1.6280  0.7296
  481MOL0     H66373   5.014   8.802   1.030 -4.2141 -3.8070 -0.9355
  481MOL0     H66374   5.322   8.797   1.333 -1.7312 -0.0872  0.9655
  481MOL0     H66375   4.504   8.578   0.901  1.3821  0.6971 -0.9495
  481MOL0     H66376   4.346   8.610   0.728 -3.4414  0.0343 -3.5073
  481MOL0     H66377   4.208   8.648   0.830 -0.5981  2.8694  1.6693
  481MOL0     H66378   4.254   8.758   0.705 -2.8245  1.1038  1.4907
  482MOL0     O66379   1.073   6.359   0.845 -0.7177 -0.1231  0.0089
  482MOL0     C66380   1.145   6.347   0.947  0.6877 -0.1983  0.0288
  482MOL0     O66381   1.111   6.390   1.069  0.6123 -0.5442  0.1856
  482MOL0     C66382   0.994   6.467   1.094 -1.0743 -0.1125  0.6790
  482MOL0     C66383   0.907   6.422   1.194  0.8710 -0.3224 -0.3123
  482MOL0     C66384   0.787   6.505   1.213 -0.0580  0.3166 -0.7684
  482MOL0     C66385   0.764   6.618   1.137 -0.9836  0.0874 -0.1707
  482MOL0     O66386   0.658   6.704   1.154 -0.2844 -0.8174 -0.6731
  482MOL0     C66387   0.533   6.645   1.171 -0.7003  0.2349  0.2623
  482MOL0     C66388   0.416   6.740   1.200 -0.3406 -0.4471  0.3429
  482MOL0     C66389   0.426   6.807   1.337 -0.6768  0.1093 -0.5780
  482MOL0     C66390   0.326   6.920   1.353  0.1194  0.3464  0.3239
  482MOL0     C66391   0.241   6.900   1.482  0.6345 -0.2960  0.4221
  482MOL0     C66392   0.131   6.796   1.451  0.3776  0.0489  0.5292
  482MOL0     C66393   0.042   6.784   1.574 -0.3444  0.1241 -0.7735
  482MOL0     C66394  -0.067   6.898   1.594  0.4717 -0.2647 -0.5880
  482MOL0     N66395  -0.190   6.871   1.507 -0.6201 -0.6156  0.3873
  482MOL0     C66396  -0.241   6.938   1.396  0.6450  0.7402 -0.3294
  482MOL0     C66397  -0.370   6.885   1.379 -0.4857 -1.1519 -0.1177
  482MOL0     C66398  -0.479   6.921   1.273 -0.2573 -0.6172  1.0596
  482MOL0     C66399  -0.441   7.047   1.196 -0.1700  0.2398 -0.4911
  482MOL0     C66400  -0.540   7.044   1.069 -0.6945  0.3250 -0.3225
  482MOL0     C66401  -0.496   7.160   0.974  0.1868  0.4519 -0.3247
  482MOL0     O66402  -0.501   7.289   1.037  0.2867  0.4384 -0.2744
  482MOL0     C66403  -0.623   7.341   1.074 -0.6841 -0.5033  0.7875
  482MOL0     C66404  -0.640   7.401   1.194 -0.2219  0.0797 -0.7064
  482MOL0     C66405  -0.766   7.448   1.243 -0.9065  0.4001  0.2302
  482MOL0     C66406  -0.756   7.517   1.379  1.0681  0.4595 -1.0352
  482MOL0     C66407  -0.888   7.441   1.158 -0.3963  0.6776 -0.8178
  482MOL0     C66408  -1.015   7.501   1.195 -0.1412 -0.1461  0.6023
  482MOL0     O66409  -1.074   7.580   1.109 -0.4195 -0.5782  0.7421
  482MOL0     C66410  -1.197   7.652   1.129 -0.6525  0.4910 -0.0425
  482MOL0     C66411  -1.243   7.696   1.248  0.7004 -0.1118 -0.5016
  482MOL0     C66412  -1.359   7.781   1.253 -0.4172 -0.1921 -0.7486
  482MOL0     C66413  -1.417   7.821   1.142  0.3414 -0.3088  0.7264
  482MOL0     O66414  -1.534   7.890   1.143  0.1101  0.5030  0.1805
  482MOL0     C66415  -1.574   7.980   1.251  0.2089 -0.3835 -0.1509
  482MOL0     C66416  -1.696   7.914   1.314  0.0032 -1.1074  0.2699
  482MOL0     C66417  -1.768   8.014   1.410  0.3041  0.4963  0.4605
  482MOL0     C66418  -1.675   8.057   1.515  0.4824 -0.0840 -0.5578
  482MOL0     C66419  -1.738   8.161   1.614  0.6099 -0.0265 -0.2032
  482MOL0     C66420  -1.631   8.203   1.723  0.6432 -0.0316  0.1920
  482MOL0     C66421  -1.641   8.141   1.863 -0.1599  1.0232  0.5333
  482MOL0     C66422  -1.630   7.986   1.867  0.4934  0.1782 -0.5036
  482MOL0    Cl66423  -1.704   7.937   2.026 -0.3722 -0.7569 -0.3540
  482MOL0     C66424  -1.364   7.788   1.019 -0.2291 -0.1922  0.6175
  482MOL0     C66425  -1.248   7.707   1.011 -0.0370 -0.1014  0.2239
  482MOL0     O66426  -1.048   7.480   1.305 -0.0460 -0.2082 -0.0053
  482MOL0     C66427  -0.866   7.398   1.026 -0.4353 -0.8935 -1.1834
  482MOL0     C66428  -0.742   7.339   0.991 -0.3090 -0.0566  0.4808
  482MOL0     N66429  -0.395   6.796   1.474  0.7390  0.9860 -0.4127
  482MOL0     N66430  -0.295   6.794   1.553 -0.6357 -0.1129 -0.0732
  482MOL0     C66431   0.864   6.660   1.042  0.1645  0.0392 -0.6074
  482MOL0     C66432   0.980   6.583   1.026  0.2830  0.1020  0.0008
  482MOL0     C66433   1.282   6.286   0.940  0.9606  0.1161 -0.3163
  482MOL0     C66434   1.333   6.215   1.051  0.2576 -0.5220 -0.5582
  482MOL0     C66435   1.458   6.157   1.045 -0.1741  0.4788  0.2508
  482MOL0     C66436   1.531   6.164   0.928 -0.1284  0.4555 -0.8521
  482MOL0     O66437   1.632   6.072   0.924  0.9747 -0.4276  0.0106
  482MOL0     C66438   1.753   6.125   0.887 -0.1858  1.4290 -0.0894
  482MOL0     C66439   1.842   6.117   1.001  0.0965 -1.0745  0.0107
  482MOL0     C66440   1.895   5.973   1.015 -0.1059 -0.0451  0.5785
  482MOL0     C66441   1.970   5.955   1.145  0.4385  0.3379  0.2940
  482MOL0     C66442   2.102   6.026   1.124 -0.0805 -0.6155 -0.0935
  482MOL0     C66443   2.213   6.081   1.109  0.3408 -0.1862  0.3155
  482MOL0     C66444   1.484   6.244   0.817 -0.3913  0.8501  0.7870
  482MOL0     C66445   1.363   6.313   0.821 -0.7770  0.6565 -1.3494
  482MOL0     C66446   1.335   6.404   0.705  1.0211  0.7485 -0.6601
  482MOL0     H66447   0.923   6.329   1.247  1.6666  1.5401  3.0113
  482MOL0     H66448   0.724   6.499   1.301 -3.4872  2.9275 -2.7648
  482MOL0     H66449   0.531   6.569   1.250  0.0833 -0.4124 -0.3128
  482MOL0     H66450   0.503   6.602   1.075 -1.1894  0.2986  0.3867
  482MOL0     H66451   0.418   6.812   1.117  0.4144 -3.4197 -2.4283
  482MOL0     H66452   0.327   6.680   1.182  0.3160 -1.8503  1.5762
  482MOL0     H66453   0.425   6.726   1.412 -0.7160  0.8979  0.2921
  482MOL0     H66454   0.522   6.857   1.347 -0.3165 -0.8466  1.4067
  482MOL0     H66455   0.369   7.021   1.356 -2.2354  1.3983  1.3676
  482MOL0     H66456   0.269   6.929   1.260  0.9296  1.0762 -0.1219
  482MOL0     H66457   0.196   6.997   1.506 -2.6727 -1.5252 -0.1393
  482MOL0     H66458   0.295   6.868   1.571 -2.5375 -3.0084  1.5996
  482MOL0     H66459   0.063   6.829   1.372 -2.9700  0.5317  3.3828
  482MOL0     H66460   0.184   6.701   1.435 -1.2653 -1.3920  2.9959
  482MOL0     H66461   0.116   6.793   1.654 -0.4380  1.8768 -0.8585
  482MOL0     H66462  -0.014   6.690   1.585 -1.2722  0.9199  2.1375
  482MOL0     H66463  -0.109   6.897   1.695 -1.0600  3.3567 -1.0068
  482MOL0     H66464  -0.030   7.000   1.578 -1.7949  1.0900  1.8748
  482MOL0     H66465  -0.181   7.005   1.335  1.8492  0.7039  0.7720
  482MOL0     H66466  -0.576   6.937   1.319 -0.3347 -2.5205  1.6092
  482MOL0     H66467  -0.475   6.838   1.202  2.5175  0.1118  0.1970
  482MOL0     H66468  -0.470   7.134   1.257 -4.0309 -0.7203 -0.6735
  482MOL0     H66469  -0.339   7.039   1.157 -0.6154  1.5271 -2.0870
  482MOL0     H66470  -0.522   6.945   1.026  0.9428  0.4929 -0.0901
  482MOL0     H66471  -0.644   7.054   1.099 -1.3838 -0.7589 -2.1596
  482MOL0     H66472  -0.394   7.148   0.938 -0.3674 -2.0182 -1.2315
  482MOL0     H66473  -0.563   7.153   0.887  4.4281 -0.9109 -3.8586
  482MOL0     H66474  -0.558   7.404   1.265 -0.7477  0.0194 -0.0900
  482MOL0     H66475  -0.829   7.598   1.386  0.0943 -0.2310 -2.6193
  482MOL0     H66476  -0.660   7.561   1.408  1.6797 -0.4841 -1.5498
  482MOL0     H66477  -0.789   7.435   1.445 -0.1219 -1.6352 -4.0028
  482MOL0     H66478  -1.193   7.663   1.338  1.9665 -0.2424 -1.2311
  482MOL0     H66479  -1.397   7.812   1.349 -0.5233 -1.0695 -0.4960
  482MOL0     H66480  -1.496   7.997   1.326 -0.6892  1.1837  0.4715
  482MOL0     H66481  -1.594   8.083   1.220  1.3745  0.6242  2.1867
  482MOL0     H66482  -1.768   7.894   1.234 -1.0849 -1.2032  1.2400
  482MOL0     H66483  -1.680   7.820   1.367 -0.0060 -1.9928 -1.2335
  482MOL0     H66484  -1.852   7.964   1.459  1.6443 -1.1952  1.1528
  482MOL0     H66485  -1.798   8.106   1.360  4.4089  2.3622  1.0166
  482MOL0     H66486  -1.586   8.105   1.474 -0.3288  0.9233 -1.1840
  482MOL0     H66487  -1.643   7.960   1.555  0.6172 -0.0507 -0.5868
  482MOL0     H66488  -1.762   8.252   1.557 -0.6450 -0.3098 -0.1565
  482MOL0     H66489  -1.829   8.123   1.661  0.0758  2.8557  1.3448
  482MOL0     H66490  -1.654   8.309   1.736  1.2096 -0.0557  1.5727
  482MOL0     H66491  -1.529   8.204   1.684  0.1090  1.2562 -1.2661
  482MOL0     H66492  -1.734   8.170   1.913 -0.3841 -0.8715  1.2996
  482MOL0     H66493  -1.557   8.168   1.927 -0.3922 -0.0857  1.3358
  482MOL0     H66494  -1.525   7.955   1.860  0.4370 -0.2598  0.4860
  482MOL0     H66495  -1.678   7.927   1.788  0.5448 -0.5595 -0.0018
  482MOL0     H66496  -1.415   7.825   0.931 -1.0492 -1.6232  0.4564
  482MOL0     H66497  -1.207   7.675   0.917  0.5676  0.1993  0.3834
  482MOL0     H66498  -0.946   7.398   0.952 -0.5038 -0.5252 -1.1087
  482MOL0     H66499  -0.735   7.307   0.888  5.3357  4.2398 -1.0339
  482MOL0     H66500   0.830   6.745   0.983 -1.6530 -1.8104 -2.3681
  482MOL0     H66501   1.039   6.616   0.942  1.8688  1.8085  1.6996
  482MOL0     H66502   1.269   6.193   1.136  0.9838  0.2972  0.2200
  482MOL0     H66503   1.499   6.099   1.127 -3.5492 -1.6450  0.6211
  482MOL0     H66504   1.787   6.071   0.798  0.3842  2.4052 -0.4765
  482MOL0     H66505   1.751   6.227   0.850 -1.0245  1.1793 -0.7600
  482MOL0     H66506   1.792   6.150   1.092  2.8881  0.0756  1.2683
  482MOL0     H66507   1.933   6.176   0.984  0.4524 -0.5279  3.1695
  482MOL0     H66508   1.802   5.915   1.018 -0.9767  1.3116  1.3260
  482MOL0     H66509   1.953   5.946   0.927 -2.2805 -1.3187 -0.5563
  482MOL0     H66510   1.992   5.849   1.158  0.6274  0.6216  2.9945
  482MOL0     H66511   1.909   5.989   1.229  1.9601 -2.6130  2.8056
  482MOL0     H66512   2.305   6.134   1.097  0.7760 -1.4511 -2.8493
  482MOL0     H66513   1.543   6.226   0.728 -4.0399  1.6859 -2.0727
  482MOL0     H66514   1.396   6.383   0.617 -1.6859  0.5240 -2.6190
  482MOL0     H66515   1.228   6.394   0.681  1.0133 -0.9872 -0.0660
  482MOL0     H66516   1.357   6.506   0.737 -3.7556  1.6643  0.5189
  483MOL0     O66517   3.330   2.675   0.940  0.3650 -0.2660 -0.0729
  483MOL0     C66518   3.338   2.596   0.841  0.8786  0.1935  0.0074
  483MOL0     O66519   3.235   2.547   0.763 -0.3960  0.2154 -0.5146
  483MOL0     C66520   3.114   2.556   0.811 -0.8099  0.6710  0.7248
  483MOL0     C66521   3.028   2.652   0.751  0.4153 -0.3615  0.8984
  483MOL0     C66522   2.894   2.662   0.788  0.6585  0.7336 -1.0038
  483MOL0     C66523   2.834   2.581   0.885 -0.2908  0.1443 -0.0282
  483MOL0     O66524   2.707   2.601   0.937 -0.0012  0.1161 -0.4504
  483MOL0     C66525   2.705   2.666   1.061 -0.9440  1.3168 -0.2992
  483MOL0     C66526   2.574   2.734   1.104  0.2753  0.2765  0.4211
  483MOL0     C66527   2.508   2.670   1.223  0.4912  0.7466 -0.4612
  483MOL0     C66528   2.571   2.732   1.346 -0.7016  0.3149 -0.0799
  483MOL0     C66529   2.540   2.658   1.471  0.4200  0.2567  0.0369
  483MOL0     C66530   2.601   2.721   1.594  0.6341  1.1335 -0.4565
  483MOL0     C66531   2.735   2.675   1.639  0.8794  0.2228 -0.2525
  483MOL0     C66532   2.721   2.556   1.742  0.5543 -0.0730 -0.1695
  483MOL0     N66533   2.855   2.495   1.760 -0.0686  0.6124 -0.8609
  483MOL0     C66534   2.893   2.355   1.767 -0.5264 -0.0637 -0.8308
  483MOL0     C66535   3.025   2.359   1.814  0.8439  0.6151  0.3771
  483MOL0     C66536   3.106   2.239   1.856  0.5053 -0.1802 -0.2106
  483MOL0     C66537   3.118   2.230   2.013 -0.6172 -0.5119  0.8423
  483MOL0     C66538   3.200   2.104   2.054  0.2840 -0.6920 -0.4296
  483MOL0     C66539   3.123   1.974   2.070  0.1106  0.0316  0.6028
  483MOL0     O66540   3.224   1.872   2.093  0.0112 -0.4479 -0.3097
  483MOL0     C66541   3.251   1.839   2.226  0.4476 -1.1025  0.8266
  483MOL0     C66542   3.332   1.725   2.239 -1.0937 -0.3385  0.3423
  483MOL0     C66543   3.390   1.684   2.354 -0.0103  0.1674  0.4113
  483MOL0     C66544   3.485   1.562   2.344 -0.2647  0.0269  0.6451
  483MOL0     C66545   3.346   1.752   2.470  0.4219  0.1446  0.2818
  483MOL0     C66546   3.374   1.702   2.610  0.1103 -0.5361 -0.2746
  483MOL0     O66547   3.373   1.793   2.721  0.8272  0.5531  1.4905
  483MOL0     C66548   3.400   1.749   2.847  0.2004 -0.5265 -0.5876
  483MOL0     C66549   3.509   1.795   2.921  0.1099 -0.7996  0.1058
  483MOL0     C66550   3.543   1.757   3.053 -0.2064 -0.5376 -0.5324
  483MOL0     C66551   3.456   1.670   3.118 -0.8119  0.3716 -0.7207
  483MOL0     O66552   3.504   1.631   3.242 -0.2104  0.1219 -0.2744
  483MOL0     C66553   3.430   1.522   3.298  0.1542  0.2848  0.1673
  483MOL0     C66554   3.461   1.487   3.445 -0.0169  0.3794 -0.5204
  483MOL0     C66555   3.456   1.605   3.543  0.4857  0.2741 -1.3545
  483MOL0     C66556   3.470   1.559   3.692  0.0003 -0.4700 -0.4981
  483MOL0     C66557   3.478   1.675   3.798  1.0027  0.2299 -0.5399
  483MOL0     C66558   3.527   1.610   3.934  0.9049 -0.4154  0.3996
  483MOL0     C66559   3.523   1.714   4.048 -0.2364  0.0101 -0.0963
  483MOL0     C66560   3.541   1.671   4.188 -0.3307 -0.6368  0.1284
  483MOL0    Cl66561   3.706   1.647   4.218 -0.0560  0.2290  0.4016
  483MOL0     C66562   3.335   1.633   3.054 -0.5145 -1.0614  0.4260
  483MOL0     C66563   3.312   1.665   2.919 -0.6431 -0.7474  0.0994
  483MOL0     O66564   3.406   1.590   2.622 -0.8792 -0.2388 -0.6495
  483MOL0     C66565   3.261   1.866   2.469  0.6423 -0.5012 -0.6436
  483MOL0     C66566   3.219   1.912   2.343  0.5365 -0.0594 -0.0288
  483MOL0     N66567   3.061   2.487   1.825 -0.5457 -0.3657  0.1000
  483MOL0     N66568   2.969   2.564   1.788  0.2986 -0.4397  0.1359
  483MOL0     C66569   2.920   2.480   0.943  0.3132  0.1795 -0.2901
  483MOL0     C66570   3.062   2.471   0.910  0.0044  0.2672  1.0480
  483MOL0     C66571   3.469   2.553   0.802 -1.0517  0.7535  0.1899
  483MOL0     C66572   3.535   2.634   0.714 -0.3056 -0.1755  0.0218
  483MOL0     C66573   3.655   2.590   0.654  0.0143 -0.5681  0.4618
  483MOL0     C66574   3.710   2.472   0.695  0.7913 -0.6145 -0.5353
  483MOL0     O66575   3.825   2.417   0.647 -1.1205 -0.6027  0.1095
  483MOL0     C66576   3.824   2.361   0.515  0.3217  0.0514  0.3090
  483MOL0     C66577   3.893   2.449   0.408 -0.2365  0.1683 -0.6188
  483MOL0     C66578   4.040   2.472   0.439 -0.6796 -0.4515  0.0205
  483MOL0     C66579   4.111   2.583   0.368  0.0833  0.0802 -0.2051
  483MOL0     C66580   4.149   2.552   0.227 -0.6340 -0.3386  0.3063
  483MOL0     C66581   4.189   2.526   0.114 -0.1449 -0.4340 -0.1300
  483MOL0     C66582   3.646   2.393   0.786 -0.0838  0.5829 -0.1300
  483MOL0     C66583   3.520   2.426   0.839 -0.0355 -0.3026  0.1093
  483MOL0     C66584   3.441   2.354   0.941  0.0571 -0.1169 -0.1875
  483MOL0     H66585   3.055   2.715   0.667 -0.4595 -2.4002 -1.0389
  483MOL0     H66586   2.834   2.739   0.740 -2.6114 -2.4135 -2.4027
  483MOL0     H66587   2.778   2.747   1.075  0.6339 -0.4944  3.2652
  483MOL0     H66588   2.747   2.599   1.137  1.1471 -0.1562 -2.6205
  483MOL0     H66589   2.595   2.842   1.112 -0.4751  0.3853  1.0628
  483MOL0     H66590   2.515   2.723   1.013  5.1207 -0.2256 -3.0442
  483MOL0     H66591   2.401   2.688   1.218  0.6619  2.0757  0.0844
  483MOL0     H66592   2.536   2.564   1.221  2.7155  1.2282  0.7821
  483MOL0     H66593   2.679   2.726   1.326 -0.4363  3.5902 -0.1772
  483MOL0     H66594   2.553   2.840   1.352  3.6186  1.2466 -0.0047
  483MOL0     H66595   2.574   2.554   1.468 -0.5129 -0.0527 -1.6860
  483MOL0     H66596   2.431   2.649   1.481  0.5167 -3.8123 -0.9538
  483MOL0     H66597   2.596   2.830   1.584 -2.7834  1.1407 -0.1217
  483MOL0     H66598   2.529   2.697   1.673 -0.2546  1.3574 -1.1787
  483MOL0     H66599   2.792   2.760   1.678  2.5162 -0.9113 -0.0714
  483MOL0     H66600   2.792   2.635   1.554  0.0286 -2.7642  0.4785
  483MOL0     H66601   2.681   2.579   1.841  0.4376  0.4122 -0.3275
  483MOL0     H66602   2.664   2.476   1.693  0.2467 -1.2840  2.0431
  483MOL0     H66603   2.831   2.265   1.762  0.1770 -0.4749 -3.4362
  483MOL0     H66604   3.205   2.253   1.810  0.3441 -2.0546 -1.2383
  483MOL0     H66605   3.071   2.147   1.807  0.0353  0.0486 -0.3029
  483MOL0     H66606   3.175   2.316   2.051  2.0529 -1.4111 -0.8692
  483MOL0     H66607   3.015   2.223   2.050 -1.5271 -4.1900 -1.8852
  483MOL0     H66608   3.285   2.109   1.987  0.6234 -3.1892 -0.2738
  483MOL0     H66609   3.233   2.117   2.158  0.2942 -0.9437 -0.3990
  483MOL0     H66610   3.040   1.972   2.141 -0.2974  4.2337  0.4741
  483MOL0     H66611   3.076   1.963   1.972  2.0743  1.9223 -0.6435
  483MOL0     H66612   3.370   1.682   2.147 -1.0101 -2.0814  1.1422
  483MOL0     H66613   3.446   1.460   2.350 -1.0917 -0.0595 -3.4439
  483MOL0     H66614   3.569   1.588   2.410  0.3868  1.2879 -0.6249
  483MOL0     H66615   3.521   1.561   2.241  0.9261  0.7776  1.0238
  483MOL0     H66616   3.572   1.870   2.875  0.6150 -1.6319 -0.6027
  483MOL0     H66617   3.635   1.793   3.099  1.3672 -1.0893 -3.0476
  483MOL0     H66618   3.324   1.547   3.285  0.1587  0.9622  1.3090
  483MOL0     H66619   3.435   1.432   3.237 -0.8182  0.0061  0.4722
  483MOL0     H66620   3.391   1.411   3.479  1.4570 -1.0199 -0.4838
  483MOL0     H66621   3.560   1.440   3.456  0.3206  0.5370 -2.4073
  483MOL0     H66622   3.360   1.656   3.530  0.3101 -0.5440 -3.8394
  483MOL0     H66623   3.538   1.672   3.517  1.6584 -1.9262 -3.7413
  483MOL0     H66624   3.570   1.515   3.690  0.0776 -0.6817  2.4696
  483MOL0     H66625   3.401   1.480   3.723  1.4199 -1.9632 -1.0243
  483MOL0     H66626   3.550   1.755   3.780 -1.2608  2.3504 -0.6827
  483MOL0     H66627   3.383   1.729   3.804  1.2490  0.6373 -0.3339
  483MOL0     H66628   3.629   1.571   3.926  1.7015  1.0290  2.6488
  483MOL0     H66629   3.452   1.535   3.961  0.9562 -1.1431 -1.2961
  483MOL0     H66630   3.424   1.760   4.046 -1.1030 -1.6871  1.5192
  483MOL0     H66631   3.611   1.776   4.025  1.6057 -1.9988  1.1113
  483MOL0     H66632   3.487   1.580   4.216  1.2364 -1.1828  1.4648
  483MOL0     H66633   3.496   1.749   4.250 -2.2221 -0.7931 -0.9444
  483MOL0     H66634   3.257   1.570   3.095  0.7459 -1.7500  1.8899
  483MOL0     H66635   3.239   1.614   2.858  1.7234 -2.4563 -1.5041
  483MOL0     H66636   3.232   1.918   2.561  0.9613  0.4258 -1.0517
  483MOL0     H66637   3.154   1.998   2.343 -0.5547 -0.7862  2.4033
  483MOL0     H66638   2.878   2.426   1.027 -2.7730  2.9088  0.1232
  483MOL0     H66639   3.122   2.396   0.960  0.1993  1.2580  2.3311
  483MOL0     H66640   3.491   2.730   0.689 -0.8025 -0.3562  0.2035
  483MOL0     H66641   3.695   2.639   0.566 -1.7981 -2.1087 -1.3259
  483MOL0     H66642   3.868   2.260   0.512 -0.7755 -0.4409  0.5773
  483MOL0     H66643   3.728   2.327   0.476  0.6159  0.2801 -0.6586
  483MOL0     H66644   3.828   2.537   0.410  0.1453  0.5063 -1.9609
  483MOL0     H66645   3.884   2.407   0.308 -1.3408  1.6488 -1.1775
  483MOL0     H66646   4.037   2.493   0.546 -0.6372 -0.2979 -0.0091
  483MOL0     H66647   4.099   2.383   0.418  0.1791 -0.5065  2.4446
  483MOL0     H66648   4.208   2.601   0.415 -1.1076  3.3214  1.3352
  483MOL0     H66649   4.053   2.675   0.380 -3.1942 -1.5594 -2.2392
  483MOL0     H66650   4.233   2.509   0.018  0.7641  2.0783 -0.2567
  483MOL0     H66651   3.701   2.306   0.822 -0.8371  0.0143 -0.3280
  483MOL0     H66652   3.505   2.272   0.973  0.5354  0.2624 -0.1609
  483MOL0     H66653   3.421   2.414   1.031 -0.2340  1.8864 -1.5062
  483MOL0     H66654   3.351   2.306   0.901 -0.1330  0.8673 -0.9931
  484MOL0     O66655   6.686  11.264   7.954  0.3920 -1.1545  0.0547
  484MOL0     C66656   6.707  11.148   7.990 -0.1729 -0.4497  0.4910
  484MOL0     O66657   6.838  11.102   8.021  0.8731 -0.2095  0.6840
  484MOL0     C66658   6.949  11.172   7.976 -0.1558  0.5807  0.0409
  484MOL0     C66659   7.054  11.207   8.064  0.0236 -0.4192 -0.0685
  484MOL0     C66660   7.170  11.281   8.025  0.4873  0.0674 -0.4776
  484MOL0     C66661   7.187  11.331   7.899 -0.4554 -0.1552  1.0385
  484MOL0     O66662   7.296  11.415   7.881 -0.7132 -0.2836  0.4156
  484MOL0     C66663   7.335  11.444   7.746  0.5143  0.5992  0.1130
  484MOL0     C66664   7.475  11.502   7.746  0.1524  0.8035  0.1680
  484MOL0     C66665   7.580  11.383   7.753 -0.2228 -0.3331 -0.3155
  484MOL0     C66666   7.724  11.408   7.787  0.1391  0.5410  0.0631
  484MOL0     C66667   7.725  11.495   7.919 -0.4692 -0.0831 -0.1156
  484MOL0     C66668   7.657  11.418   8.040  0.6294 -0.4141  0.1066
  484MOL0     C66669   7.682  11.503   8.166  0.1869  0.5303  0.2819
  484MOL0     C66670   7.625  11.433   8.289 -0.1247 -0.4540  0.0707
  484MOL0     N66671   7.709  11.313   8.326  0.4052 -0.7721  0.2936
  484MOL0     C66672   7.826  11.318   8.397  0.1452 -0.6803 -0.4209
  484MOL0     C66673   7.866  11.188   8.408  0.2138  0.0235  0.4414
  484MOL0     C66674   7.982  11.149   8.503  0.0665 -1.3671  0.5264
  484MOL0     C66675   7.935  11.091   8.632 -0.1911  0.2866  0.4038
  484MOL0     C66676   8.034  11.106   8.741  0.4141 -0.1738  0.4183
  484MOL0     C66677   7.994  11.044   8.884 -0.4994  0.2884 -0.0009
  484MOL0     O66678   7.867  11.075   8.927 -0.5163  0.0924 -0.4318
  484MOL0     C66679   7.837  11.044   9.056 -0.4224 -0.3073  1.1337
  484MOL0     C66680   7.836  11.139   9.155  0.1949  0.1439  1.6600
  484MOL0     C66681   7.798  11.101   9.282  0.4935 -0.2121  0.1682
  484MOL0     C66682   7.785  11.215   9.383  0.3207 -0.3224 -0.5453
  484MOL0     C66683   7.757  10.964   9.315  0.5762 -0.2680 -0.3314
  484MOL0     C66684   7.710  10.921   9.443  0.2804 -0.3996  0.2842
  484MOL0     O66685   7.691  10.787   9.456  0.1925 -0.0936  0.6334
  484MOL0     C66686   7.671  10.718   9.574 -0.0466 -0.0354 -0.7081
  484MOL0     C66687   7.718  10.760   9.700 -0.7549  0.4864  0.2672
  484MOL0     C66688   7.717  10.678   9.813  0.0136 -0.5323  0.2036
  484MOL0     C66689   7.655  10.554   9.807  0.5364  0.0562  0.4107
  484MOL0     O66690   7.640  10.473   9.914  0.5702 -0.1570 -0.2859
  484MOL0     C66691   7.670  10.336   9.902 -0.6335  0.7975 -0.6378
  484MOL0     C66692   7.687  10.269  10.035 -0.0305  0.1712 -0.5968
  484MOL0     C66693   7.815  10.322  10.113  0.0950  0.3074  1.0607
  484MOL0     C66694   7.826  10.258  10.250 -0.8864 -0.0325  0.5854
  484MOL0     C66695   7.946  10.328  10.322  0.9408  0.4615 -0.9574
  484MOL0     C66696   7.950  10.296  10.470 -0.3335 -0.3241 -0.7407
  484MOL0     C66697   7.973  10.142  10.495 -0.5543  0.0030 -0.5373
  484MOL0     C66698   8.048  10.114  10.631  0.7236  0.1493 -0.3931
  484MOL0    Cl66699   7.932  10.148  10.763 -0.0049  0.8200 -0.1780
  484MOL0     C66700   7.591  10.509   9.682  0.1080  0.3516 -0.3401
  484MOL0     C66701   7.602  10.590   9.567  0.2146  0.4187 -0.4959
  484MOL0     O66702   7.683  11.008   9.524  0.0904 -0.0571  0.4343
  484MOL0     C66703   7.776  10.873   9.213  0.3315  0.8487 -0.9099
  484MOL0     C66704   7.818  10.910   9.086 -0.8135 -0.1047  0.2269
  484MOL0     N66705   7.775  11.104   8.337 -0.5711 -1.4542 -1.0092
  484MOL0     N66706   7.682  11.184   8.293  0.4713  0.4551  0.7220
  484MOL0     C66707   7.075  11.307   7.811  0.3059  0.9515 -0.3566
  484MOL0     C66708   6.962  11.219   7.840 -0.4005  0.3156 -0.1905
  484MOL0     C66709   6.599  11.059   8.026  0.1368  0.0781  1.0825
  484MOL0     C66710   6.624  10.948   8.095  0.5510  0.2026  0.2796
  484MOL0     C66711   6.529  10.863   8.144  0.0392  0.4991  1.0793
  484MOL0     C66712   6.395  10.891   8.126  0.5052 -1.4155 -0.1106
  484MOL0     O66713   6.305  10.813   8.198  0.6367 -0.3436 -0.3805
  484MOL0     C66714   6.202  10.754   8.124  0.1172 -0.3475  1.0281
  484MOL0     C66715   6.245  10.635   8.047 -0.9455  0.5329 -0.2640
  484MOL0     C66716   6.136  10.538   7.999 -0.5736 -0.5732  0.3022
  484MOL0     C66717   6.067  10.597   7.881 -0.3788 -0.2238  0.5366
  484MOL0     C66718   6.158  10.644   7.772  0.6121  0.5673  0.2257
  484MOL0     C66719   6.250  10.675   7.693  0.1425 -0.0596  0.6602
  484MOL0     C66720   6.369  10.995   8.034 -0.3362  0.2219 -0.5662
  484MOL0     C66721   6.465  11.077   7.983 -0.2160  1.5408  0.6350
  484MOL0     C66722   6.423  11.159   7.861 -0.0371  0.0914 -0.6137
  484MOL0     H66723   7.062  11.184   8.170  0.6128 -1.4188 -0.3218
  484MOL0     H66724   7.247  11.300   8.100  1.3673  0.2139 -1.3986
  484MOL0     H66725   7.273  11.514   7.689 -0.7210 -1.8248 -1.7388
  484MOL0     H66726   7.333  11.349   7.692  2.2983  0.5953  0.0232
  484MOL0     H66727   7.482  11.570   7.660  0.2655  1.6502  0.8274
  484MOL0     H66728   7.480  11.559   7.839  1.4937 -0.7782  1.1018
  484MOL0     H66729   7.547  11.305   7.822  3.2322 -1.5788  0.1379
  484MOL0     H66730   7.575  11.341   7.652 -0.4173 -1.7315  0.2451
  484MOL0     H66731   7.770  11.309   7.797 -2.0190 -0.3713  1.5286
  484MOL0     H66732   7.778  11.463   7.708 -0.5500  2.4743  0.8976
  484MOL0     H66733   7.692  11.598   7.902  1.8118  0.8032  0.5259
  484MOL0     H66734   7.830  11.504   7.948  0.1145 -2.1445 -1.4573
  484MOL0     H66735   7.554  11.383   8.034  0.5375  0.0903 -1.9634
  484MOL0     H66736   7.712  11.327   8.066 -2.8094 -1.9201  2.8167
  484MOL0     H66737   7.634  11.600   8.150  2.1975  1.4611 -0.4819
  484MOL0     H66738   7.788  11.528   8.177  0.7805 -1.5863 -0.2801
  484MOL0     H66739   7.622  11.501   8.375  0.0907  2.8157 -2.3246
  484MOL0     H66740   7.522  11.399   8.273  0.0833 -1.4616  0.7329
  484MOL0     H66741   7.875  11.393   8.458 -0.9053 -1.2683  1.2241
  484MOL0     H66742   8.037  11.241   8.528 -0.8355 -1.0993  1.5936
  484MOL0     H66743   8.050  11.086   8.445 -0.6595  0.5363 -2.6296
  484MOL0     H66744   7.839  11.137   8.658  0.6668  0.7655  3.0470
  484MOL0     H66745   7.920  10.984   8.616 -0.2319  0.4339 -0.6234
  484MOL0     H66746   8.126  11.059   8.703  1.5634  2.1272  0.1591
  484MOL0     H66747   8.071  11.209   8.751  0.0946  0.2493 -2.2078
  484MOL0     H66748   8.006  10.935   8.884 -1.8910 -0.0531  4.3060
  484MOL0     H66749   8.069  11.073   8.959 -2.1861 -1.6841  2.6550
  484MOL0     H66750   7.873  11.240   9.140 -3.9527  1.4530 -1.8441
  484MOL0     H66751   7.679  11.229   9.408  0.1535 -1.0665 -0.8250
  484MOL0     H66752   7.823  11.311   9.347  0.4152  0.3765  1.3440
  484MOL0     H66753   7.831  11.202   9.481 -1.1091 -0.2222  0.1624
  484MOL0     H66754   7.770  10.854   9.714 -1.5356  0.9712 -0.0417
  484MOL0     H66755   7.762  10.704   9.909 -0.4433  2.2192 -0.2485
  484MOL0     H66756   7.587  10.286   9.851 -0.7753  1.1845 -0.7966
  484MOL0     H66757   7.756  10.318   9.838 -1.3459 -3.9212 -0.5801
  484MOL0     H66758   7.598  10.300  10.089 -0.3307  3.6734 -2.7554
  484MOL0     H66759   7.676  10.161  10.023  0.2404 -0.3389  2.8132
  484MOL0     H66760   7.801  10.430  10.126  0.1052  0.3799  0.4978
  484MOL0     H66761   7.911  10.302  10.065  0.1437 -0.1344  1.3470
  484MOL0     H66762   7.834  10.151  10.228 -2.6341  0.1274 -1.0376
  484MOL0     H66763   7.734  10.263  10.308 -0.9611 -3.5170  0.9480
  484MOL0     H66764   8.032  10.277  10.277 -0.3451 -2.2781 -0.4984
  484MOL0     H66765   7.946  10.437  10.310  0.1184  0.9962  2.7429
  484MOL0     H66766   7.856  10.330  10.514 -0.6632 -0.1527 -1.5747
  484MOL0     H66767   8.036  10.351  10.512  1.3679 -2.2775 -1.4940
  484MOL0     H66768   8.021  10.090  10.411  0.1033 -1.3624  0.6447
  484MOL0     H66769   7.874  10.095  10.496 -0.8186  0.5497 -0.4424
  484MOL0     H66770   8.145  10.165  10.635  0.9134 -0.2694  1.1984
  484MOL0     H66771   8.067  10.006  10.622 -1.0705 -0.0137 -4.6953
  484MOL0     H66772   7.519  10.428   9.685  0.3844  0.1323  1.7098
  484MOL0     H66773   7.566  10.562   9.468  0.8637  3.2882 -1.6554
  484MOL0     H66774   7.741  10.770   9.213 -2.8125  1.8052 -1.6233
  484MOL0     H66775   7.812  10.850   8.996  2.4997  2.9584 -2.3517
  484MOL0     H66776   7.065  11.356   7.714  4.8579  0.9869 -0.9929
  484MOL0     H66777   6.879  11.200   7.772 -0.7053  1.2211 -0.0936
  484MOL0     H66778   6.726  10.924   8.125  0.2655 -0.2544  0.8925
  484MOL0     H66779   6.545  10.772   8.200 -0.4665 -1.2504 -1.4430
  484MOL0     H66780   6.117  10.724   8.186  0.6145 -0.9919  1.4066
  484MOL0     H66781   6.151  10.834   8.068  1.1844  1.0525  1.9829
  484MOL0     H66782   6.300  10.582   8.125 -0.4238 -0.2712 -1.1465
  484MOL0     H66783   6.324  10.643   7.971  1.5463  0.1017  2.1326
  484MOL0     H66784   6.178  10.440   7.975  2.0657  0.3968  0.6283
  484MOL0     H66785   6.063  10.531   8.081 -0.9229 -1.6061 -0.0840
  484MOL0     H66786   6.007  10.678   7.923 -0.1210 -0.2556  0.9713
  484MOL0     H66787   5.996  10.529   7.833 -0.2120  0.0099 -0.0551
  484MOL0     H66788   6.317  10.688   7.610  1.6741 -0.8921  1.6950
  484MOL0     H66789   6.268  11.011   7.998  0.3580  0.5663 -2.4458
  484MOL0     H66790   6.441  11.263   7.889 -2.2895  0.0037  1.4918
  484MOL0     H66791   6.479  11.133   7.770 -0.1670  0.5320 -0.8189
  484MOL0     H66792   6.316  11.143   7.846 -0.0537 -0.7747  0.3099
  485MOL0     O66793   6.895   8.223   0.125 -0.2444 -0.3064 -0.3907
  485MOL0     C66794   6.887   8.104   0.098 -0.3011 -0.0483 -0.1161
  485MOL0     O66795   6.984   8.016   0.062 -0.5923  0.1684  0.0217
  485MOL0     C66796   7.121   8.036   0.083 -1.7614 -0.4578  0.4014
  485MOL0     C66797   7.192   8.164   0.103  0.3015 -0.2922  0.3731
  485MOL0     C66798   7.329   8.160   0.120  0.4672  0.4192  0.4481
  485MOL0     C66799   7.409   8.043   0.088  0.1850 -0.3091  0.1269
  485MOL0     O66800   7.540   8.027   0.096 -0.6493 -0.3919  0.0452
  485MOL0     C66801   7.616   8.137   0.051 -0.3075 -0.7184 -0.0039
  485MOL0     C66802   7.619   8.156  -0.108  0.4441  0.5882 -0.6646
  485MOL0     C66803   7.758   8.189  -0.154  0.1720 -0.2721 -0.3765
  485MOL0     C66804   7.824   8.310  -0.086  0.7183 -0.8092 -0.0431
  485MOL0     C66805   7.959   8.354  -0.146 -0.4713  0.8490 -0.2216
  485MOL0     C66806   7.948   8.395  -0.290  0.9454 -0.9898  0.0358
  485MOL0     C66807   8.085   8.435  -0.340  0.4974  0.2481 -0.0372
  485MOL0     C66808   8.141   8.317  -0.416 -0.7583 -0.4189  0.5790
  485MOL0     N66809   8.286   8.337  -0.432  0.2075 -0.2465  1.0271
  485MOL0     C66810   8.345   8.395  -0.535  0.0666 -0.5549 -0.2621
  485MOL0     C66811   8.486   8.391  -0.516 -0.1443  0.8953 -0.6903
  485MOL0     C66812   8.598   8.436  -0.612  0.2225 -0.2851 -0.6299
  485MOL0     C66813   8.665   8.339  -0.713  0.2610  0.3849 -0.7496
  485MOL0     C66814   8.743   8.221  -0.640  0.5634  0.2483  0.4396
  485MOL0     C66815   8.871   8.165  -0.718 -0.4792  0.5225  0.3295
  485MOL0     O66816   8.967   8.099  -0.627  0.4088 -0.2360 -0.0552
  485MOL0     C66817   9.022   7.991  -0.683  0.9955 -0.3600 -0.2966
  485MOL0     C66818   9.070   7.994  -0.816 -0.7001 -0.2530 -0.1525
  485MOL0     C66819   9.127   7.877  -0.878 -0.0236 -0.6871 -0.7299
  485MOL0     C66820   9.159   7.886  -1.029  0.2583  0.2998  0.0653
  485MOL0     C66821   9.160   7.769  -0.791 -1.3637 -0.2011  0.3409
  485MOL0     C66822   9.227   7.640  -0.827  0.1823 -0.7691  0.2573
  485MOL0     O66823   9.223   7.528  -0.747  0.4612  0.3697 -0.3226
  485MOL0     C66824   9.299   7.412  -0.791  0.7534 -0.1794 -0.2357
  485MOL0     C66825   9.256   7.333  -0.907 -0.3333 -0.1653 -0.3772
  485MOL0     C66826   9.316   7.209  -0.937 -0.7980 -0.9845  0.6674
  485MOL0     C66827   9.410   7.159  -0.852 -0.5727 -0.2539 -0.0040
  485MOL0     O66828   9.465   7.036  -0.865  0.0611 -0.3975  0.3564
  485MOL0     C66829   9.445   6.956  -0.987 -0.1419 -0.1995 -0.9389
  485MOL0     C66830   9.563   6.861  -0.997  0.2094 -0.6366  0.0200
  485MOL0     C66831   9.552   6.728  -0.926 -0.0140 -0.0170  0.2692
  485MOL0     C66832   9.671   6.641  -0.960 -0.3650  0.4473 -0.4198
  485MOL0     C66833   9.648   6.493  -0.926 -0.7280  0.4808 -0.5352
  485MOL0     C66834   9.571   6.420  -1.036 -0.0913  0.2167  0.0179
  485MOL0     C66835   9.547   6.279  -0.994 -0.4211 -0.5663  0.0819
  485MOL0     C66836   9.457   6.195  -1.082  0.0488 -0.2822  0.0271
  485MOL0    Cl66837   9.296   6.215  -1.017  0.1450 -0.2969 -0.0315
  485MOL0     C66838   9.438   7.231  -0.737 -0.8053 -0.0354 -0.6528
  485MOL0     C66839   9.404   7.366  -0.713 -0.9433  0.1086  0.5758
  485MOL0     O66840   9.285   7.639  -0.935 -0.0378  0.5203  0.7655
  485MOL0     C66841   9.118   7.763  -0.657  0.5226 -0.5495 -0.6684
  485MOL0     C66842   9.039   7.874  -0.607 -0.0550 -0.8412 -0.4767
  485MOL0     N66843   8.508   8.329  -0.399 -0.0461 -0.3842 -0.5505
  485MOL0     N66844   8.391   8.298  -0.351 -0.0639  0.3424  0.2905
  485MOL0     C66845   7.340   7.926   0.062  0.6021 -0.1118 -0.0072
  485MOL0     C66846   7.202   7.919   0.064 -0.0709 -0.6696  0.3429
  485MOL0     C66847   6.756   8.046   0.084  0.0299  0.0903 -0.2790
  485MOL0     C66848   6.714   7.988  -0.041  0.4321 -0.3604 -0.0321
  485MOL0     C66849   6.585   7.936  -0.051 -0.4814  0.1172 -0.5272
  485MOL0     C66850   6.505   7.930   0.058  0.4213  1.0115  0.1932
  485MOL0     O66851   6.377   7.878   0.041  0.1962 -0.2763  0.0704
  485MOL0     C66852   6.281   7.965  -0.007  0.1740 -0.2987  0.2836
  485MOL0     C66853   6.215   8.059   0.095 -0.2979  0.0491 -0.4446
  485MOL0     C66854   6.117   8.153   0.023  0.5285  0.7149 -0.2188
  485MOL0     C66855   6.052   8.251   0.117 -0.0201 -0.1583 -0.0059
  485MOL0     C66856   6.151   8.353   0.154  0.6631 -0.8255  0.2970
  485MOL0     C66857   6.245   8.428   0.172 -0.2075 -0.1017  0.5491
  485MOL0     C66858   6.547   7.982   0.180 -0.1258 -0.6626  0.7646
  485MOL0     C66859   6.672   8.048   0.198  0.8829  0.0133 -0.1563
  485MOL0     C66860   6.700   8.122   0.324  0.7439  0.4254 -0.3556
  485MOL0     H66861   7.152   8.265   0.091  3.3653  0.9479 -0.4091
  485MOL0     H66862   7.388   8.251   0.126  0.7814  0.1852  0.9733
  485MOL0     H66863   7.721   8.122   0.076  0.6511  2.2856 -1.7115
  485MOL0     H66864   7.595   8.237   0.091 -0.3257 -0.7289  0.0134
  485MOL0     H66865   7.583   8.063  -0.153 -1.6475  0.8584  0.2901
  485MOL0     H66866   7.543   8.228  -0.140 -0.6554  1.0492  2.5327
  485MOL0     H66867   7.829   8.111  -0.123  0.4366 -0.0155 -0.3311
  485MOL0     H66868   7.754   8.194  -0.263 -1.8900 -0.9528 -0.3643
  485MOL0     H66869   7.761   8.399  -0.093  2.4594  0.5019  0.4175
  485MOL0     H66870   7.842   8.289   0.020  5.1234 -1.7222 -0.7766
  485MOL0     H66871   8.020   8.265  -0.131  0.9563  2.0099  1.1511
  485MOL0     H66872   7.996   8.434  -0.082  2.6563 -1.2010  0.7123
  485MOL0     H66873   7.906   8.317  -0.355 -4.3693  0.4703  1.2648
  485MOL0     H66874   7.886   8.484  -0.300  4.0998  1.2333 -1.9092
  485MOL0     H66875   8.152   8.470  -0.261  1.8399 -0.4710 -0.8063
  485MOL0     H66876   8.069   8.512  -0.417 -0.7808  0.8507  0.8085
  485MOL0     H66877   8.119   8.219  -0.373 -3.8386  0.2311  0.7169
  485MOL0     H66878   8.095   8.308  -0.514  3.1533  2.2707 -1.8233
  485MOL0     H66879   8.289   8.449  -0.611  0.7395  1.5194  0.6436
  485MOL0     H66880   8.674   8.471  -0.542 -1.1873 -2.0644  1.9696
  485MOL0     H66881   8.566   8.525  -0.666 -0.6161  0.1685  0.5651
  485MOL0     H66882   8.599   8.292  -0.786  1.7780  1.4552 -2.9339
  485MOL0     H66883   8.741   8.395  -0.769  0.9140 -1.9842 -2.4243
  485MOL0     H66884   8.758   8.255  -0.537  0.4823  2.0904 -0.1163
  485MOL0     H66885   8.679   8.134  -0.620 -1.2229  1.9843  3.0514
  485MOL0     H66886   8.839   8.091  -0.793  0.9394 -2.1628  2.1881
  485MOL0     H66887   8.914   8.251  -0.770 -2.2264  0.4571 -1.3371
  485MOL0     H66888   9.050   8.079  -0.881  1.2419 -0.1616 -0.6968
  485MOL0     H66889   9.136   7.976  -1.086 -1.2340 -1.6984 -2.7893
  485MOL0     H66890   9.090   7.814  -1.074  0.3389  0.7003 -0.7120
  485MOL0     H66891   9.256   7.841  -1.053  0.9849  0.7576  1.9736
  485MOL0     H66892   9.169   7.367  -0.962 -1.3806 -1.5674  0.3555
  485MOL0     H66893   9.281   7.156  -1.025  0.3821  1.4899 -1.4252
  485MOL0     H66894   9.352   6.900  -0.974  0.2436 -1.3770 -2.8703
  485MOL0     H66895   9.448   7.018  -1.077 -0.3650  0.5284 -0.4559
  485MOL0     H66896   9.591   6.855  -1.102  0.6663  0.1169  0.0840
  485MOL0     H66897   9.641   6.920  -0.946 -1.7838  1.5289  0.7460
  485MOL0     H66898   9.459   6.677  -0.951  1.6778 -2.8249 -0.7398
  485MOL0     H66899   9.547   6.754  -0.819 -2.1346  1.0217 -0.0376
  485MOL0     H66900   9.754   6.677  -0.899 -2.4783  0.9036  2.3824
  485MOL0     H66901   9.702   6.646  -1.065 -1.1577 -0.8302 -0.7290
  485MOL0     H66902   9.741   6.441  -0.902 -1.0709  0.9765  2.2739
  485MOL0     H66903   9.585   6.485  -0.836 -0.0354 -0.6354 -0.1294
  485MOL0     H66904   9.635   6.420  -1.125  2.0377  0.2780  1.4671
  485MOL0     H66905   9.472   6.458  -1.063 -1.0317 -3.0712 -1.5930
  485MOL0     H66906   9.497   6.276  -0.897 -1.3861 -1.0319 -0.4181
  485MOL0     H66907   9.645   6.231  -0.993 -0.1858 -0.1188 -0.6215
  485MOL0     H66908   9.488   6.093  -1.059  0.3962  0.2000  1.8878
  485MOL0     H66909   9.470   6.209  -1.190  1.4418 -4.3520 -0.5013
  485MOL0     H66910   9.505   7.185  -0.664 -1.3173  0.6435  0.2715
  485MOL0     H66911   9.440   7.407  -0.619  1.7291 -0.1316 -0.2759
  485MOL0     H66912   9.135   7.683  -0.586  0.3792 -0.9795 -1.1118
  485MOL0     H66913   9.015   7.876  -0.501  0.3875 -0.0019 -0.3843
  485MOL0     H66914   7.393   7.831   0.062  0.7171 -0.0483 -0.1581
  485MOL0     H66915   7.147   7.827   0.046  0.8300 -0.6609 -3.1977
  485MOL0     H66916   6.780   7.998  -0.126  0.8665  0.9426  0.4236
  485MOL0     H66917   6.552   7.891  -0.144  0.2420 -3.3208  0.7260
  485MOL0     H66918   6.307   8.014  -0.101 -1.0685 -1.0405 -0.4883
  485MOL0     H66919   6.200   7.893  -0.029  0.0740 -0.3115  0.6853
  485MOL0     H66920   6.300   8.108   0.144 -0.7042  1.3607 -1.0118
  485MOL0     H66921   6.154   8.006   0.169 -1.7434  1.1799 -0.7720
  485MOL0     H66922   6.155   8.207  -0.064 -0.2862  1.1179 -0.3363
  485MOL0     H66923   6.036   8.084  -0.002  0.1960  0.6526  0.9631
  485MOL0     H66924   6.007   8.201   0.203  0.1258  0.1839  0.2687
  485MOL0     H66925   5.972   8.303   0.064  0.9294 -0.2066 -1.5769
  485MOL0     H66926   6.336   8.483   0.189  0.8937 -1.3299 -1.0306
  485MOL0     H66927   6.469   7.996   0.253 -0.3120  0.7575  0.3183
  485MOL0     H66928   6.736   8.221   0.295 -0.3462  0.3519 -2.1327
  485MOL0     H66929   6.608   8.153   0.374 -1.4498 -1.9277 -2.5823
  485MOL0     H66930   6.764   8.067   0.394 -0.3666 -0.7262 -0.2154
  486MOL0     O66931   7.597   2.808  11.390 -0.3976  0.9885  0.1036
  486MOL0     C66932   7.525   2.824  11.293  0.6138 -0.4731 -0.0384
  486MOL0     O66933   7.555   2.790  11.157  0.9515  0.0461  0.0192
  486MOL0     C66934   7.695   2.800  11.133 -0.1070 -0.4907 -0.5150
  486MOL0     C66935   7.751   2.924  11.101 -1.5850  0.8987 -0.6442
  486MOL0     C66936   7.892   2.924  11.094 -0.6187  0.3396 -0.9081
  486MOL0     C66937   7.974   2.803  11.114  0.0766 -0.4010  0.2924
  486MOL0     O66938   8.115   2.780  11.120 -0.5778 -0.4918 -0.1951
  486MOL0     C66939   8.194   2.893  11.168 -0.3950  0.4504  0.5697
  486MOL0     C66940   8.341   2.846  11.191  0.0564  0.2167  0.4113
  486MOL0     C66941   8.424   2.892  11.075  0.5445 -0.7422  0.7292
  486MOL0     C66942   8.571   2.862  11.083 -0.6602 -1.0631  0.4124
  486MOL0     C66943   8.647   2.998  11.092  0.7599 -0.3329  0.0186
  486MOL0     C66944   8.625   3.108  10.984  0.2609  0.1401  0.0344
  486MOL0     C66945   8.716   3.231  11.020  0.2616 -0.4891 -0.1423
  486MOL0     C66946   8.679   3.289  11.154 -0.0886 -0.9042 -0.4666
  486MOL0     N66947   8.542   3.324  11.169 -0.9040 -0.3894  0.5874
  486MOL0     C66948   8.495   3.436  11.103 -0.1150  0.2242  1.0140
  486MOL0     C66949   8.358   3.439  11.124 -0.4110  0.3662 -0.1958
  486MOL0     C66950   8.276   3.544  11.056  0.1328 -0.7370 -0.2714
  486MOL0     C66951   8.134   3.562  11.117  0.7003  0.0436 -0.3940
  486MOL0     C66952   8.061   3.686  11.063 -1.0505 -0.2559 -0.2613
  486MOL0     C66953   7.945   3.725  11.149  0.3245  0.1819 -0.1963
  486MOL0     O66954   8.004   3.809  11.251 -0.5013  0.6308  0.1916
  486MOL0     C66955   7.916   3.878  11.320 -0.2642 -0.3539 -0.0434
  486MOL0     C66956   7.964   3.925  11.443  0.4217 -0.5090  0.8197
  486MOL0     C66957   7.882   4.013  11.524  0.4750  0.0604  1.0756
  486MOL0     C66958   7.924   4.026  11.674  0.3083  0.2178  0.5420
  486MOL0     C66959   7.759   4.066  11.472  0.7820  0.1200  0.1978
  486MOL0     C66960   7.676   4.164  11.543  0.3194 -1.0094  0.1854
  486MOL0     O66961   7.590   4.249  11.466  0.4797  1.2500  0.1470
  486MOL0     C66962   7.549   4.367  11.519 -0.7286 -0.1093  0.1545
  486MOL0     C66963   7.640   4.470  11.559 -0.3202  0.1012  0.0852
  486MOL0     C66964   7.593   4.599  11.580 -0.8623  0.3455  0.0561
  486MOL0     C66965   7.457   4.621  11.569 -0.1945 -0.0705 -0.3751
  486MOL0     O66966   7.409   4.753  11.571  0.7428 -0.6052  0.2793
  486MOL0     C66967   7.451   4.840  11.678  0.2078 -0.2791  0.2155
  486MOL0     C66968   7.402   4.981  11.625  0.3709 -0.2234  1.3094
  486MOL0     C66969   7.398   5.085  11.736 -0.3875 -0.2096 -0.3222
  486MOL0     C66970   7.355   5.212  11.678 -0.0546 -0.3496  0.1258
  486MOL0     C66971   7.286   5.315  11.770 -0.2397 -0.2930  0.2821
  486MOL0     C66972   7.408   5.377  11.852 -0.0843 -0.4515 -0.0514
  486MOL0     C66973   7.357   5.491  11.943  0.0097 -0.1301  0.0767
  486MOL0     C66974   7.471   5.594  11.954  0.0987  0.7720  0.4679
  486MOL0    Cl66975   7.424   5.729  12.046  0.3601 -0.0734 -0.5135
  486MOL0     C66976   7.375   4.524  11.525  0.0512  0.2747 -0.7810
  486MOL0     C66977   7.416   4.397  11.495 -0.6193  0.3028 -0.2191
  486MOL0     O66978   7.691   4.180  11.663 -0.2297  0.0708 -0.3651
  486MOL0     C66979   7.723   4.042  11.339  0.3844 -0.3202 -0.6186
  486MOL0     C66980   7.797   3.949  11.270  0.1208  0.0269  0.4606
  486MOL0     N66981   8.331   3.320  11.191  0.5954  0.2083  0.4108
  486MOL0     N66982   8.440   3.259  11.220  0.1801  0.3938 -0.0123
  486MOL0     C66983   7.906   2.682  11.117 -0.3142  1.0102 -0.1596
  486MOL0     C66984   7.768   2.686  11.138 -0.6536  0.4911  0.0291
  486MOL0     C66985   7.396   2.879  11.323  1.5166 -1.1690 -0.6374
  486MOL0     C66986   7.283   2.798  11.301  0.1758 -0.6310  0.3397
  486MOL0     C66987   7.160   2.830  11.357 -0.1592 -0.4813 -0.1057
  486MOL0     C66988   7.139   2.955  11.415  0.1915  0.0354  0.3389
  486MOL0     O66989   7.026   3.022  11.459 -0.4847 -0.1053  0.5599
  486MOL0     C66990   6.922   2.934  11.509 -0.6418 -0.7406  0.3293
  486MOL0     C66991   6.930   2.907  11.662 -1.2042  0.0300  0.7280
  486MOL0     C66992   6.809   2.831  11.714  0.5486  0.3413  0.3637
  486MOL0     C66993   6.819   2.803  11.871 -0.3306 -0.2665  0.1139
  486MOL0     C66994   6.701   2.735  11.920 -1.2799 -0.5899 -0.6837
  486MOL0     C66995   6.607   2.667  11.937  1.3281 -1.0425 -0.0720
  486MOL0     C66996   7.248   3.036  11.425  0.6144  0.4328  0.5953
  486MOL0     C66997   7.375   3.001  11.388  0.9615  0.5092 -0.3988
  486MOL0     C66998   7.483   3.104  11.418  0.5363 -0.0326 -0.3320
  486MOL0     H66999   7.684   3.008  11.089 -4.0065 -0.7137  0.6935
  486MOL0     H67000   7.944   3.018  11.083  2.8894 -0.5381  4.4043
  486MOL0     H67001   8.151   2.934  11.260  1.9384  1.5505  1.2576
  486MOL0     H67002   8.182   2.974  11.096 -2.1004 -0.2397  0.0226
  486MOL0     H67003   8.380   2.896  11.280  0.0675  1.3877 -0.2336
  486MOL0     H67004   8.348   2.736  11.189 -1.3172  0.1051  0.7623
  486MOL0     H67005   8.398   2.834  10.986  0.6172 -0.3608  0.4572
  486MOL0     H67006   8.412   2.998  11.052  1.1578 -1.3086 -2.8395
  486MOL0     H67007   8.598   2.800  11.169  1.0657  0.6107  1.1574
  486MOL0     H67008   8.603   2.818  10.989  2.3765 -3.2980  2.2969
  486MOL0     H67009   8.754   2.974  11.094  1.7431  3.4249  1.8764
  486MOL0     H67010   8.631   3.043  11.190  2.6921 -0.3846  0.3988
  486MOL0     H67011   8.667   3.056  10.897 -1.6244 -0.7876 -0.3659
  486MOL0     H67012   8.526   3.137  10.947  1.8021  0.6156 -4.3236
  486MOL0     H67013   8.708   3.307  10.942 -0.0729 -1.2740 -0.9047
  486MOL0     H67014   8.819   3.194  11.016 -0.3564 -2.2827 -1.9048
  486MOL0     H67015   8.694   3.226  11.242  1.5580  1.8867  1.3900
  486MOL0     H67016   8.739   3.380  11.160 -2.8059  1.0069 -0.2381
  486MOL0     H67017   8.557   3.517  11.064 -0.0824 -0.5752 -0.6580
  486MOL0     H67018   8.265   3.528  10.948 -0.8744 -1.4467 -0.0717
  486MOL0     H67019   8.322   3.641  11.073 -3.0410  1.1723 -1.7537
  486MOL0     H67020   8.075   3.472  11.096  2.1988 -1.4256  1.3124
  486MOL0     H67021   8.142   3.560  11.226  1.7095  0.8891 -0.4317
  486MOL0     H67022   8.129   3.772  11.058 -1.0292 -0.3538 -2.3649
  486MOL0     H67023   8.031   3.668  10.960  0.4279  3.2958 -1.4654
  486MOL0     H67024   7.880   3.781  11.081 -0.7950 -1.0605 -0.1832
  486MOL0     H67025   7.885   3.640  11.183 -0.9670  0.9208 -0.5570
  486MOL0     H67026   8.064   3.899  11.476  1.4152  2.5494  0.4715
  486MOL0     H67027   7.843   3.984  11.734 -0.7676 -1.2827 -1.7965
  486MOL0     H67028   7.931   4.134  11.686  1.9491  0.3165 -0.8149
  486MOL0     H67029   8.019   3.975  11.693  0.6618 -0.1997 -1.9873
  486MOL0     H67030   7.747   4.453  11.553 -0.1396  0.6131  1.4122
  486MOL0     H67031   7.665   4.677  11.598  0.5953 -0.7676 -0.7414
  486MOL0     H67032   7.394   4.813  11.768  1.2258  2.2348  1.6975
  486MOL0     H67033   7.557   4.836  11.701 -0.0883 -1.6526  1.4996
  486MOL0     H67034   7.468   5.016  11.545  0.2859  2.3562  2.2812
  486MOL0     H67035   7.303   4.968  11.581  0.8916 -1.0803  0.3436
  486MOL0     H67036   7.485   5.100  11.800 -0.0416 -3.6995  0.2007
  486MOL0     H67037   7.321   5.049  11.805  0.9749  0.1162  1.4230
  486MOL0     H67038   7.283   5.192  11.598  0.3173  1.6904 -0.7785
  486MOL0     H67039   7.440   5.262  11.629 -0.9806 -2.6217 -4.3050
  486MOL0     H67040   7.251   5.396  11.704  1.3987 -2.0078 -2.9284
  486MOL0     H67041   7.207   5.279  11.836  0.8578 -1.6094  0.9123
  486MOL0     H67042   7.480   5.417  11.781  0.6324 -1.7072 -0.0739
  486MOL0     H67043   7.471   5.304  11.906  1.0319  1.0180  0.7078
  486MOL0     H67044   7.334   5.437  12.036  1.8882  0.7739  1.1294
  486MOL0     H67045   7.264   5.529  11.901 -1.2339 -1.3327  1.5833
  486MOL0     H67046   7.510   5.627  11.857  5.4439 -1.0238  1.7125
  486MOL0     H67047   7.557   5.555  12.008  0.4411 -0.1470 -0.7155
  486MOL0     H67048   7.271   4.551  11.510  0.5239  4.1716  1.5319
  486MOL0     H67049   7.361   4.314  11.451  2.4007 -2.2309  0.4373
  486MOL0     H67050   7.640   4.090  11.289 -0.0451 -1.2837 -0.8494
  486MOL0     H67051   7.765   3.917  11.171 -2.0747  3.0968  0.0192
  486MOL0     H67052   7.974   2.597  11.124 -0.7481  0.5581 -1.2054
  486MOL0     H67053   7.725   2.592  11.170  3.8760 -1.1883  1.9751
  486MOL0     H67054   7.297   2.698  11.263  1.3293 -1.4159  2.5911
  486MOL0     H67055   7.088   2.753  11.331  0.4020 -1.9394  2.3087
  486MOL0     H67056   6.830   2.991  11.494  1.5478  3.0042  0.0361
  486MOL0     H67057   6.916   2.846  11.444 -1.5061 -0.7293  0.3745
  486MOL0     H67058   6.948   3.006  11.706  0.7370 -0.8466  2.0441
  486MOL0     H67059   7.019   2.847  11.683 -1.4528 -0.5429  0.1857
  486MOL0     H67060   6.723   2.896  11.696 -1.4715 -1.7523  1.8322
  486MOL0     H67061   6.799   2.738  11.657  0.6565  1.3213 -1.3341
  486MOL0     H67062   6.815   2.891  11.936 -0.6191 -0.3294  0.1833
  486MOL0     H67063   6.909   2.743  11.888 -0.0830 -0.1704 -0.8194
  486MOL0     H67064   6.530   2.595  11.953 -1.6395  1.9779  0.4146
  486MOL0     H67065   7.240   3.134  11.470  1.1776  0.6096  0.3190
  486MOL0     H67066   7.440   3.204  11.405 -1.0409 -0.7058 -0.5736
  486MOL0     H67067   7.530   3.091  11.516 -1.8926  2.6618  1.3609
  486MOL0     H67068   7.566   3.102  11.347  3.3407 -1.3447  2.7111
  487MOL0     O67069  10.608   4.486   0.266  0.0314 -0.4628  0.1896
  487MOL0     C67070  10.674   4.573   0.199 -0.4471  0.1433 -0.5258
  487MOL0     O67071  10.787   4.633   0.250 -0.0650  0.7875 -0.7672
  487MOL0     C67072  10.790   4.643   0.387  0.1161 -0.3336 -0.1776
  487MOL0     C67073  10.917   4.617   0.435  0.5592 -0.3852  0.2039
  487MOL0     C67074  10.949   4.653   0.565  0.4345  0.1837  0.0167
  487MOL0     C67075  10.857   4.711   0.650 -0.6012 -0.6830 -0.0565
  487MOL0     O67076  10.903   4.742   0.774  1.0187  0.2250  0.9722
  487MOL0     C67077  10.793   4.760   0.870 -0.5087  0.6042 -0.7357
  487MOL0     C67078  10.848   4.762   1.014 -1.1879 -0.1369 -0.5069
  487MOL0     C67079  10.740   4.782   1.125 -0.4323 -0.1925  0.2792
  487MOL0     C67080  10.757   4.687   1.240 -0.3048  1.0869  0.9919
  487MOL0     C67081  10.638   4.701   1.340  0.1626 -0.1803 -0.3247
  487MOL0     C67082  10.634   4.836   1.407 -0.1817  0.3271 -0.3634
  487MOL0     C67083  10.542   4.844   1.527 -1.3900  0.8441  0.0089
  487MOL0     C67084  10.600   4.776   1.649 -0.2417  0.4102 -0.6021
  487MOL0     N67085  10.660   4.866   1.752  0.2670 -0.7910 -0.0163
  487MOL0     C67086  10.596   4.910   1.871  0.8397  0.0345 -0.5900
  487MOL0     C67087  10.691   4.959   1.948  0.2732 -0.0023  0.2493
  487MOL0     C67088  10.689   5.018   2.085 -0.0080  0.1703  0.8491
  487MOL0     C67089  10.631   4.942   2.205  0.1638 -0.2559  0.2986
  487MOL0     C67090  10.717   4.814   2.239  0.4964 -0.5479  0.4757
  487MOL0     C67091  10.656   4.734   2.363  0.2874 -0.1368  0.3368
  487MOL0     O67092  10.522   4.694   2.342  0.9313  0.7695 -0.5308
  487MOL0     C67093  10.422   4.694   2.438 -0.4493 -0.5536 -0.1593
  487MOL0     C67094  10.289   4.682   2.400 -0.6763 -0.0228  0.7480
  487MOL0     C67095  10.182   4.694   2.494 -0.5750 -0.9231 -0.4492
  487MOL0     C67096  10.049   4.725   2.442  0.4607 -0.0921  0.1836
  487MOL0     C67097  10.213   4.703   2.638  0.5928  0.2078  0.9992
  487MOL0     C67098  10.117   4.697   2.757  0.3207  0.3926  0.1332
  487MOL0     O67099  10.178   4.671   2.880 -0.1453  0.2698  0.4223
  487MOL0     C67100  10.098   4.678   2.993 -0.0289  0.7641  0.7754
  487MOL0     C67101  10.042   4.801   3.036 -0.4768  0.1249  0.1700
  487MOL0     C67102   9.980   4.806   3.154  0.3385  0.5230  0.7287
  487MOL0     C67103   9.980   4.689   3.238 -0.4605 -0.1937  0.1612
  487MOL0     O67104   9.924   4.689   3.368 -0.5703 -0.0272 -0.3248
  487MOL0     C67105   9.874   4.809   3.435 -0.8372 -0.4730 -0.3373
  487MOL0     C67106   9.730   4.790   3.454 -0.8667  1.3144  0.4788
  487MOL0     C67107   9.660   4.879   3.555  0.0685  0.2056  0.0770
  487MOL0     C67108   9.517   4.917   3.510  1.0170  0.5921 -0.8420
  487MOL0     C67109   9.434   4.993   3.606 -0.0228  0.2620  0.0790
  487MOL0     C67110   9.289   5.011   3.547 -0.1992 -0.3472 -0.6103
  487MOL0     C67111   9.188   5.029   3.663  0.4850 -0.8586 -0.3451
  487MOL0     C67112   9.048   5.003   3.620  0.3075 -0.0083 -0.4337
  487MOL0    Cl67113   8.959   5.136   3.542 -0.0555  0.1273  0.1960
  487MOL0     C67114  10.043   4.573   3.193 -0.5584 -0.1647 -0.3115
  487MOL0     C67115  10.089   4.559   3.072 -0.0369 -1.1046  1.0512
  487MOL0     O67116   9.997   4.707   2.733  0.5607  0.3057 -0.0974
  487MOL0     C67117  10.346   4.718   2.665  0.1659 -0.4561  0.5064
  487MOL0     C67118  10.450   4.713   2.573  0.5339  0.3452 -0.6025
  487MOL0     N67119  10.814   4.948   1.886 -1.0240  0.1907  0.1399
  487MOL0     N67120  10.796   4.891   1.765  1.0202  0.2496 -0.1471
  487MOL0     C67121  10.734   4.749   0.602  0.7102 -1.4649 -0.0953
  487MOL0     C67122  10.702   4.704   0.474  0.9473  0.5088 -0.3064
  487MOL0     C67123  10.632   4.598   0.067 -0.3664 -0.2503 -0.5824
  487MOL0     C67124  10.687   4.710  -0.003 -0.2569  0.1033 -0.8566
  487MOL0     C67125  10.647   4.747  -0.130 -0.2267  0.1515 -0.3609
  487MOL0     C67126  10.537   4.689  -0.195 -0.3060 -0.5746 -0.3713
  487MOL0     O67127  10.510   4.737  -0.318  0.5232 -0.2422  0.8105
  487MOL0     C67128  10.404   4.668  -0.399 -0.1930 -0.1386  0.6653
  487MOL0     C67129  10.414   4.730  -0.542 -0.3291 -0.8313  0.1612
  487MOL0     C67130  10.401   4.885  -0.532 -0.3859  0.6470 -0.2086
  487MOL0     C67131  10.390   4.952  -0.659  0.5229 -0.0387  1.5525
  487MOL0     C67132  10.283   4.904  -0.752 -0.0791  0.4116  0.5080
  487MOL0     C67133  10.187   4.847  -0.810 -0.2583  0.1593  0.4415
  487MOL0     C67134  10.475   4.582  -0.125  0.0032  0.0774 -0.6490
  487MOL0     C67135  10.515   4.541   0.004 -0.3003  0.0339  0.3992
  487MOL0     C67136  10.426   4.435   0.063 -0.9419  1.3584  0.5698
  487MOL0     H67137  10.994   4.571   0.374  0.7406 -1.5792  1.3033
  487MOL0     H67138  11.035   4.618   0.621  0.5977 -0.2861 -0.5341
  487MOL0     H67139  10.732   4.669   0.864  0.4494 -0.5537  3.4681
  487MOL0     H67140  10.731   4.848   0.853  0.3193  0.6986 -3.7048
  487MOL0     H67141  10.927   4.691   1.040 -0.0516  1.4244  0.4578
  487MOL0     H67142  10.883   4.865   1.022 -4.0249  0.8347  0.9149
  487MOL0     H67143  10.745   4.879   1.175 -2.3643 -0.1820  0.5235
  487MOL0     H67144  10.641   4.774   1.080  0.1752  1.8780 -1.6269
  487MOL0     H67145  10.762   4.584   1.203  0.0428  0.4446  2.7134
  487MOL0     H67146  10.853   4.705   1.289 -0.0232 -0.4330  1.0749
  487MOL0     H67147  10.648   4.617   1.410 -1.3116  0.0162  0.1389
  487MOL0     H67148  10.545   4.680   1.287 -0.6467  0.3743  0.8572
  487MOL0     H67149  10.735   4.846   1.447 -0.4731 -3.1668  1.6940
  487MOL0     H67150  10.599   4.906   1.330  1.6426 -0.7234 -2.2557
  487MOL0     H67151  10.449   4.795   1.494 -0.5761 -0.9845  0.3074
  487MOL0     H67152  10.522   4.948   1.553 -4.6839 -0.3364  3.0200
  487MOL0     H67153  10.524   4.719   1.704  0.3932  1.9042  1.9786
  487MOL0     H67154  10.677   4.705   1.618 -0.7610 -0.5288  0.2218
  487MOL0     H67155  10.489   4.913   1.891  1.1945 -0.7633  1.7793
  487MOL0     H67156  10.635   5.112   2.076  2.2197  1.3392 -2.2838
  487MOL0     H67157  10.794   5.040   2.105  0.1903  2.4416 -2.0457
  487MOL0     H67158  10.638   5.001   2.296  2.0689 -4.4262  3.1777
  487MOL0     H67159  10.523   4.927   2.189 -0.0510  0.2835  1.1915
  487MOL0     H67160  10.711   4.750   2.150 -1.6643 -0.4863  0.5238
  487MOL0     H67161  10.823   4.837   2.256 -0.0273  1.4157  1.3640
  487MOL0     H67162  10.725   4.652   2.383  0.4065 -0.2034 -0.3085
  487MOL0     H67163  10.668   4.800   2.449  1.5715  2.0921 -1.4234
  487MOL0     H67164  10.265   4.673   2.294 -1.8167 -0.5615  1.0301
  487MOL0     H67165  10.057   4.761   2.339  0.4485  0.1945  0.2826
  487MOL0     H67166  10.000   4.798   2.507 -0.7134 -0.5156 -0.2077
  487MOL0     H67167   9.988   4.635   2.430  0.1929  0.2655 -1.4298
  487MOL0     H67168  10.043   4.883   2.966 -1.1746  1.8006  2.0222
  487MOL0     H67169   9.942   4.900   3.193  0.5767  0.2962  1.5265
  487MOL0     H67170   9.926   4.819   3.530 -1.1610 -1.6280 -0.0319
  487MOL0     H67171   9.887   4.908   3.389 -0.9125 -0.4990 -0.4162
  487MOL0     H67172   9.673   4.800   3.362 -0.7291  1.2946  0.3915
  487MOL0     H67173   9.717   4.685   3.484 -3.3232  1.3502 -0.2348
  487MOL0     H67174   9.706   4.977   3.573 -4.5050  2.5038  0.5507
  487MOL0     H67175   9.629   4.827   3.646  1.4572  1.0957  1.1055
  487MOL0     H67176   9.455   4.833   3.477  1.8755 -0.2724 -0.3030
  487MOL0     H67177   9.529   4.985   3.425 -0.0585  2.0682  0.1146
  487MOL0     H67178   9.434   4.944   3.703  2.3225 -2.0990 -0.9905
  487MOL0     H67179   9.480   5.090   3.626 -0.3596  0.0630  1.9879
  487MOL0     H67180   9.266   4.918   3.495 -1.8501  0.7218 -1.9073
  487MOL0     H67181   9.296   5.097   3.479  4.3643 -0.8703 -1.1062
  487MOL0     H67182   9.196   5.132   3.698  1.5367 -1.5997  1.7404
  487MOL0     H67183   9.213   4.952   3.737  0.4536 -1.4288 -0.9190
  487MOL0     H67184   9.001   4.987   3.717 -0.6788  2.4290 -0.4396
  487MOL0     H67185   9.042   4.917   3.552  3.0266  0.5998 -1.5724
  487MOL0     H67186  10.040   4.476   3.240  0.0558 -0.2371 -0.4075
  487MOL0     H67187  10.116   4.463   3.029  1.8873  1.2630 -3.7300
  487MOL0     H67188  10.371   4.743   2.767  2.5753 -1.0691  0.1274
  487MOL0     H67189  10.555   4.709   2.601  0.6154  0.4915 -0.8826
  487MOL0     H67190  10.658   4.809   0.651  0.1961 -0.6982 -1.7337
  487MOL0     H67191  10.602   4.725   0.437 -1.0572 -2.7425  2.6586
  487MOL0     H67192  10.758   4.784   0.035 -1.7444  1.3305 -0.3523
  487MOL0     H67193  10.705   4.832  -0.163  1.0827  1.0472  3.6946
  487MOL0     H67194  10.426   4.561  -0.398 -2.2352 -0.5992 -0.1419
  487MOL0     H67195  10.306   4.684  -0.354  0.7233 -1.7373  3.4465
  487MOL0     H67196  10.334   4.678  -0.594 -0.2176 -3.2904  2.2673
  487MOL0     H67197  10.506   4.705  -0.595 -0.6592  2.4756 -2.3524
  487MOL0     H67198  10.310   4.903  -0.474 -0.3326 -0.8945  0.3813
  487MOL0     H67199  10.489   4.923  -0.479 -0.7497  0.1417  0.7904
  487MOL0     H67200  10.487   4.950  -0.710 -0.1396 -2.8471  0.2410
  487MOL0     H67201  10.377   5.060  -0.647  0.7597  0.7890 -3.4416
  487MOL0     H67202  10.107   4.787  -0.849  1.2523 -1.9171  0.3529
  487MOL0     H67203  10.394   4.526  -0.172  0.7801 -1.3118 -0.3853
  487MOL0     H67204  10.344   4.404  -0.003 -0.0891  1.4262 -0.5532
  487MOL0     H67205  10.480   4.347   0.098 -1.2179  1.8735  2.4262
  487MOL0     H67206  10.369   4.464   0.152 -2.9848 -1.2819  0.2909
  488MOL0     O67207   2.359  10.388   0.151  0.7975  0.2758  0.6218
  488MOL0     C67208   2.275  10.397   0.245 -0.5771 -0.8219  0.8024
  488MOL0     O67209   2.256  10.302   0.340 -0.4961  0.4127  0.6935
  488MOL0     C67210   2.307  10.169   0.337  0.3787 -0.0091 -0.9512
  488MOL0     C67211   2.411  10.121   0.265 -0.4475  0.3854 -0.1052
  488MOL0     C67212   2.444   9.991   0.264 -0.2483 -0.1166 -1.2015
  488MOL0     C67213   2.377   9.897   0.337 -0.6787  0.5608 -0.3634
  488MOL0     O67214   2.403   9.761   0.332  1.0910  0.0365  0.1260
  488MOL0     C67215   2.473   9.715   0.207 -0.4087  0.7515 -0.0992
  488MOL0     C67216   2.485   9.561   0.199 -0.1132 -0.5301 -0.0759
  488MOL0     C67217   2.579   9.513   0.087 -0.5288 -0.4653 -0.1528
  488MOL0     C67218   2.586   9.352   0.094  0.2476 -0.5419  0.0349
  488MOL0     C67219   2.695   9.313  -0.010  0.1544 -0.5407 -0.4253
  488MOL0     C67220   2.826   9.336   0.057 -0.5550  0.4744  0.2874
  488MOL0     C67221   2.953   9.275  -0.005  0.4654  0.8727  0.3099
  488MOL0     C67222   2.981   9.335  -0.140 -0.3752 -0.2393  0.0816
  488MOL0     N67223   3.114   9.300  -0.189  0.1495 -0.3268 -1.2644
  488MOL0     C67224   3.164   9.176  -0.228 -0.7694  0.5140  0.4923
  488MOL0     C67225   3.289   9.218  -0.282 -0.7092  1.2231 -0.2778
  488MOL0     C67226   3.382   9.114  -0.334 -0.3233 -0.1452 -0.0910
  488MOL0     C67227   3.388   9.089  -0.483  0.5921 -0.1938  0.7171
  488MOL0     C67228   3.494   8.977  -0.495  0.1199  0.6660  0.3579
  488MOL0     C67229   3.529   8.931  -0.637  0.5455 -0.7850 -0.5161
  488MOL0     O67230   3.606   9.024  -0.712  0.0308 -0.8009 -0.0254
  488MOL0     C67231   3.672   8.987  -0.824  0.0563 -0.7978  0.0548
  488MOL0     C67232   3.664   8.868  -0.888 -0.1639 -0.6785  0.3049
  488MOL0     C67233   3.734   8.833  -1.005  0.0057  0.0431  1.0568
  488MOL0     C67234   3.678   8.717  -1.089  0.2787 -0.1299  0.8946
  488MOL0     C67235   3.839   8.923  -1.041 -0.1111 -1.1864 -0.3333
  488MOL0     C67236   3.957   8.886  -1.129 -0.4319  0.2580 -0.2561
  488MOL0     O67237   4.027   8.984  -1.196  0.0076  0.4396 -0.2775
  488MOL0     C67238   4.132   8.959  -1.283 -0.3991  0.2973 -1.4286
  488MOL0     C67239   4.254   8.897  -1.231  1.0882  0.2642 -0.1677
  488MOL0     C67240   4.358   8.877  -1.315  0.1262  0.5293  0.5703
  488MOL0     C67241   4.366   8.919  -1.448  0.0025 -0.6020  0.0355
  488MOL0     O67242   4.475   8.891  -1.531  0.6684 -0.4732  0.3485
  488MOL0     C67243   4.526   9.011  -1.602  0.4120  0.4458 -0.6536
  488MOL0     C67244   4.654   8.968  -1.682 -0.0480 -0.1024 -0.9857
  488MOL0     C67245   4.788   8.953  -1.584 -0.3995 -0.0440  0.7181
  488MOL0     C67246   4.853   9.083  -1.538  0.0842 -0.2785 -0.8300
  488MOL0     C67247   4.944   9.068  -1.414 -0.7154 -0.3934  0.2797
  488MOL0     C67248   5.000   9.200  -1.359 -0.2562 -0.1254 -1.5297
  488MOL0     C67249   5.069   9.193  -1.222 -0.4384  0.0709 -0.5043
  488MOL0     C67250   5.152   9.319  -1.202  0.0988 -0.2704 -0.8747
  488MOL0    Cl67251   5.027   9.446  -1.197  0.1791 -0.6475 -0.2746
  488MOL0     C67252   4.252   8.990  -1.490  0.2013  0.2948 -0.3050
  488MOL0     C67253   4.138   8.996  -1.415  0.1217  0.1198  0.1197
  488MOL0     O67254   3.988   8.767  -1.130 -0.3630  0.1666  0.0465
  488MOL0     C67255   3.839   9.051  -0.989  0.2836 -0.1915  0.2529
  488MOL0     C67256   3.757   9.081  -0.882  0.9825 -0.1207  0.6748
  488MOL0     N67257   3.299   9.356  -0.271  0.2644 -0.5453  0.1207
  488MOL0     N67258   3.203   9.408  -0.204  0.0021  0.1185 -0.4040
  488MOL0     C67259   2.278   9.943   0.429 -0.1767  0.0040  0.6430
  488MOL0     C67260   2.248  10.080   0.432 -0.0875 -0.2112  0.0484
  488MOL0     C67261   2.170  10.506   0.241 -0.4610  0.6870 -0.1980
  488MOL0     C67262   2.073  10.522   0.345 -0.5665 -0.4733 -0.7565
  488MOL0     C67263   1.979  10.628   0.338 -0.6716  0.7166 -0.6222
  488MOL0     C67264   1.978  10.723   0.234 -0.8005  0.1961 -0.0637
  488MOL0     O67265   1.894  10.828   0.245 -0.2393 -0.3242 -0.3669
  488MOL0     C67266   1.914  10.930   0.349 -0.4789 -0.0412 -0.1899
  488MOL0     C67267   2.050  11.012   0.317  0.5786  0.3283 -0.3090
  488MOL0     C67268   2.055  11.089   0.175 -1.1985  0.1935  0.0922
  488MOL0     C67269   1.914  11.132   0.117 -0.7187  0.6379  0.1197
  488MOL0     C67270   1.861  11.242   0.188 -0.9875 -0.8995 -0.0605
  488MOL0     C67271   1.813  11.344   0.235  0.9065 -0.2285  0.2502
  488MOL0     C67272   2.068  10.699   0.131 -0.1632 -0.2145  0.3231
  488MOL0     C67273   2.170  10.606   0.140 -0.0738  0.4658  0.8269
  488MOL0     C67274   2.286  10.620   0.027  0.6755 -0.3560  0.0546
  488MOL0     H67275   2.477  10.186   0.209  1.2222  1.3422  2.7632
  488MOL0     H67276   2.521   9.955   0.196 -2.1752 -2.0175 -2.5187
  488MOL0     H67277   2.571   9.758   0.186 -0.3637  0.3604 -0.7028
  488MOL0     H67278   2.407   9.756   0.130 -0.0853  0.7443 -0.3812
  488MOL0     H67279   2.527   9.517   0.290 -2.7334 -0.8620  1.0760
  488MOL0     H67280   2.384   9.523   0.180  0.3090 -0.3254 -3.1805
  488MOL0     H67281   2.544   9.553  -0.008  2.0633  1.6828 -0.3279
  488MOL0     H67282   2.678   9.559   0.097 -0.4081  0.1917 -3.4768
  488MOL0     H67283   2.617   9.320   0.194  5.3047 -2.2573 -1.7663
  488MOL0     H67284   2.492   9.304   0.065  1.7595 -2.5433 -1.9441
  488MOL0     H67285   2.694   9.373  -0.101  0.9119 -3.6495 -2.6282
  488MOL0     H67286   2.671   9.208  -0.031 -2.7184  0.6621 -4.0990
  488MOL0     H67287   2.832   9.441   0.088 -3.1368 -0.0915  3.0385
  488MOL0     H67288   2.817   9.286   0.153 -0.0885 -0.5590 -0.1846
  488MOL0     H67289   2.936   9.167  -0.011 -0.5519  1.0420 -0.0575
  488MOL0     H67290   3.038   9.295   0.060  2.2189  0.9740 -1.8748
  488MOL0     H67291   2.911   9.292  -0.211  1.6863 -1.7760 -1.1246
  488MOL0     H67292   2.974   9.443  -0.122 -0.0254 -0.4276  1.4642
  488MOL0     H67293   3.109   9.084  -0.212  0.7810 -0.3664  0.9661
  488MOL0     H67294   3.374   9.025  -0.271 -1.8645 -2.5006 -3.3032
  488MOL0     H67295   3.479   9.151  -0.300 -1.1090 -0.3772  2.5923
  488MOL0     H67296   3.286   9.054  -0.502  0.9152 -0.1264 -1.4814
  488MOL0     H67297   3.394   9.168  -0.559 -1.2194  1.4700  2.1937
  488MOL0     H67298   3.587   8.999  -0.441  1.0976 -0.8925 -0.6070
  488MOL0     H67299   3.457   8.892  -0.438  0.6114  2.4218  3.5136
  488MOL0     H67300   3.583   8.836  -0.625  0.8588 -0.5888 -0.3498
  488MOL0     H67301   3.436   8.927  -0.694 -0.7024  0.8999  1.3256
  488MOL0     H67302   3.590   8.794  -0.860 -0.3476  0.2345  2.3788
  488MOL0     H67303   3.571   8.706  -1.069 -0.0064  2.6953  1.2835
  488MOL0     H67304   3.730   8.621  -1.081 -1.8442 -1.3033  1.4119
  488MOL0     H67305   3.690   8.744  -1.194 -2.0563  0.3688  0.7076
  488MOL0     H67306   4.261   8.864  -1.127  0.5825 -0.8139 -0.4610
  488MOL0     H67307   4.423   8.808  -1.262 -1.4409 -0.1546  1.6622
  488MOL0     H67308   4.453   9.044  -1.677 -0.8476 -1.7616 -0.4941
  488MOL0     H67309   4.548   9.098  -1.541  0.3355  0.1136 -0.1468
  488MOL0     H67310   4.627   8.867  -1.715 -1.9561 -0.5684  1.6016
  488MOL0     H67311   4.677   9.045  -1.755  0.0613  1.8503  1.0048
  488MOL0     H67312   4.854   8.880  -1.630  1.4520  1.4876  0.8355
  488MOL0     H67313   4.746   8.904  -1.496 -1.7125 -0.1988  0.0347
  488MOL0     H67314   4.773   9.152  -1.509  2.4770  0.9513  3.7875
  488MOL0     H67315   4.896   9.141  -1.620 -1.2062  1.0986 -0.5668
  488MOL0     H67316   4.910   9.007  -1.330  3.0605 -1.5784  1.1106
  488MOL0     H67317   5.034   9.009  -1.435  0.5511  0.6323  2.5262
  488MOL0     H67318   4.914   9.265  -1.341  1.0444  1.3346 -0.4029
  488MOL0     H67319   5.073   9.235  -1.432  1.7646 -5.0084 -2.2798
  488MOL0     H67320   5.124   9.099  -1.210  0.1910  0.7300  3.2319
  488MOL0     H67321   4.993   9.189  -1.143 -0.5009 -1.1126 -0.5965
  488MOL0     H67322   5.228   9.326  -1.280  2.3492 -0.0743  1.2463
  488MOL0     H67323   5.204   9.311  -1.106  2.9173 -1.8855 -2.4075
  488MOL0     H67324   4.255   9.039  -1.587  1.9067 -1.0542 -0.9938
  488MOL0     H67325   4.050   9.054  -1.441 -1.2352 -1.5611  0.7901
  488MOL0     H67326   3.896   9.131  -1.035  0.1300  1.1701  2.3172
  488MOL0     H67327   3.744   9.180  -0.841 -3.9802 -0.3865  0.3256
  488MOL0     H67328   2.235   9.867   0.494  0.9010  0.9031  2.4896
  488MOL0     H67329   2.169  10.119   0.495 -1.8268 -1.4721 -1.2584
  488MOL0     H67330   2.068  10.448   0.424 -0.9883 -0.1351 -0.4595
  488MOL0     H67331   1.908  10.626   0.421 -2.7550  1.9061 -2.2787
  488MOL0     H67332   1.825  10.994   0.349  1.4918  2.8807  0.2615
  488MOL0     H67333   1.923  10.873   0.442  0.1250 -0.7860 -0.6955
  488MOL0     H67334   2.139  10.950   0.331  1.3864  1.7956  1.4340
  488MOL0     H67335   2.061  11.099   0.383 -4.7741  2.0405 -1.1603
  488MOL0     H67336   2.118  11.178   0.179 -1.4386  0.3963 -0.6033
  488MOL0     H67337   2.106  11.019   0.108 -2.4968 -0.7272  0.0348
  488MOL0     H67338   1.838  11.054   0.104 -1.4167  1.2570  0.4576
  488MOL0     H67339   1.929  11.164   0.014  0.7612 -1.4286 -0.3816
  488MOL0     H67340   1.763  11.438   0.253 -2.2794 -1.4748 -1.2531
  488MOL0     H67341   2.087  10.772   0.053  1.5092 -2.0007 -1.0385
  488MOL0     H67342   2.267  10.687  -0.058 -1.7936 -0.8076  0.1682
  488MOL0     H67343   2.385  10.631   0.071  1.2708 -1.2854 -1.0081
  488MOL0     H67344   2.276  10.527  -0.031 -4.3202  0.6486 -1.2187
  489MOL0     O67345   3.041   7.718  10.658  0.0420  0.2405 -0.4348
  489MOL0     C67346   3.160   7.699  10.641 -0.4665  0.3702  0.2818
  489MOL0     O67347   3.263   7.724  10.735 -0.0480 -0.1964 -0.5468
  489MOL0     C67348   3.230   7.772  10.862 -0.1181  0.8515 -1.0830
  489MOL0     C67349   3.224   7.909  10.897  0.2079  0.2898  0.6832
  489MOL0     C67350   3.205   7.959  11.028 -0.2725 -0.6075  0.3851
  489MOL0     C67351   3.191   7.860  11.132 -0.2942 -0.2589  0.1490
  489MOL0     O67352   3.178   7.916  11.259 -1.1731 -0.2437  0.2884
  489MOL0     C67353   3.172   7.821  11.369  0.1449  0.3779 -0.4978
  489MOL0     C67354   3.306   7.752  11.399 -0.0648 -0.6483  1.8873
  489MOL0     C67355   3.301   7.640  11.489 -0.2209 -0.2940  0.1302
  489MOL0     C67356   3.285   7.682  11.628  1.6554 -0.4884 -0.5303
  489MOL0     C67357   3.283   7.556  11.721  0.2713  0.0195  0.1207
  489MOL0     C67358   3.170   7.464  11.700 -0.5260 -0.5990  0.8529
  489MOL0     C67359   3.153   7.360  11.811  0.3450  0.0450  0.5193
  489MOL0     C67360   3.279   7.275  11.853 -1.2966  0.7797  0.4996
  489MOL0     N67361   3.315   7.179  11.750 -0.1253  0.7585  0.0931
  489MOL0     C67362   3.408   7.204  11.654 -0.7788  0.1377  0.8547
  489MOL0     C67363   3.446   7.084  11.600  0.0694  0.5990 -0.1258
  489MOL0     C67364   3.530   7.046  11.479 -0.6625 -0.1996 -0.9694
  489MOL0     C67365   3.641   6.946  11.531 -0.8064  0.9980  0.8389
  489MOL0     C67366   3.718   6.881  11.413 -0.0305 -0.7267 -0.2140
  489MOL0     C67367   3.853   6.820  11.463  0.9283 -0.7447  0.1544
  489MOL0     O67368   3.913   6.747  11.349  0.8362  0.3178 -0.3068
  489MOL0     C67369   3.892   6.612  11.329 -0.7679 -0.4815 -0.1343
  489MOL0     C67370   3.875   6.522  11.435 -0.2959  0.5425 -0.0504
  489MOL0     C67371   3.838   6.396  11.414  0.0630 -0.1025  1.0835
  489MOL0     C67372   3.794   6.316  11.538 -0.8414  1.0110  0.2035
  489MOL0     C67373   3.850   6.340  11.283 -0.0122 -0.2701  0.8069
  489MOL0     C67374   3.801   6.209  11.246 -0.4578  1.3548 -0.5627
  489MOL0     O67375   3.776   6.183  11.114 -0.3427 -0.8084  0.0962
  489MOL0     C67376   3.820   6.066  11.059 -0.2597 -0.6409  0.0791
  489MOL0     C67377   3.736   5.980  10.994  0.0208  0.6407  0.1423
  489MOL0     C67378   3.783   5.856  10.952 -0.6290  0.6820  0.3014
  489MOL0     C67379   3.922   5.820  10.950  0.4479 -0.4388  0.7933
  489MOL0     O67380   3.980   5.712  10.893 -0.5715 -0.2376 -0.6336
  489MOL0     C67381   3.907   5.589  10.893 -0.2578  0.4381 -0.5270
  489MOL0     C67382   3.973   5.491  10.992  0.2433 -0.2124 -0.1753
  489MOL0     C67383   3.993   5.535  11.141 -0.5012 -0.8506 -0.1157
  489MOL0     C67384   4.065   5.437  11.228  0.4862 -0.2957  0.3671
  489MOL0     C67385   3.977   5.302  11.251  0.3237 -0.5936 -0.6836
  489MOL0     C67386   4.044   5.197  11.342 -0.2810 -0.8759  0.3508
  489MOL0     C67387   3.952   5.071  11.365 -0.0207 -0.6059 -0.5614
  489MOL0     C67388   3.952   4.977  11.244 -0.5190  0.0452 -0.2257
  489MOL0    Cl67389   4.099   4.875  11.253 -0.2234  0.1514 -0.4805
  489MOL0     C67390   4.006   5.920  11.002 -0.1322  0.2734 -0.6877
  489MOL0     C67391   3.951   6.029  11.065 -1.1265 -0.0907 -0.1209
  489MOL0     O67392   3.806   6.124  11.335 -0.7942  0.2503 -0.7235
  489MOL0     C67393   3.871   6.433  11.179 -0.1656  0.5141  0.5376
  489MOL0     C67394   3.900   6.564  11.198 -0.4487  0.0294 -0.1444
  489MOL0     N67395   3.372   6.985  11.672 -0.9653 -0.3844 -0.5865
  489MOL0     N67396   3.314   7.043  11.771  0.2310 -0.5684 -0.6143
  489MOL0     C67397   3.177   7.720  11.100  0.5064  0.5840 -0.6648
  489MOL0     C67398   3.207   7.675  10.968 -0.1755 -0.2212 -1.4610
  489MOL0     C67399   3.208   7.635  10.511 -0.4353  0.2751  0.3967
  489MOL0     C67400   3.338   7.669  10.463  0.4901 -0.7262 -0.3251
  489MOL0     C67401   3.408   7.601  10.360  0.0971  0.4010 -0.2680
  489MOL0     C67402   3.338   7.490  10.294  0.2189 -0.1395 -0.5422
  489MOL0     O67403   3.392   7.408  10.201 -0.3494  0.0959  0.2417
  489MOL0     C67404   3.496   7.458  10.121 -0.8667  0.0782 -0.1913
  489MOL0     C67405   3.499   7.373   9.998 -0.0041 -0.2457 -0.8527
  489MOL0     C67406   3.515   7.217  10.017 -0.0023 -0.5631 -1.5611
  489MOL0     C67407   3.482   7.138   9.895  0.0758 -0.4279  0.1653
  489MOL0     C67408   3.500   6.997   9.905  0.2986 -0.2486 -0.5624
  489MOL0     C67409   3.507   6.880   9.918 -0.4454 -0.2485  0.8268
  489MOL0     C67410   3.208   7.452  10.344 -0.0294 -0.4544 -1.5264
  489MOL0     C67411   3.149   7.520  10.453 -1.8648 -0.8868  0.5978
  489MOL0     C67412   3.021   7.459  10.506 -0.3130 -0.1455 -0.3847
  489MOL0     H67413   3.233   7.980  10.815 -0.8682  1.4239  1.4945
  489MOL0     H67414   3.209   8.061  11.064 -1.2853 -1.0980  2.0155
  489MOL0     H67415   3.099   7.741  11.352 -0.4179  0.5168  1.1709
  489MOL0     H67416   3.135   7.873  11.458 -2.7408 -4.1999  1.3189
  489MOL0     H67417   3.345   7.706  11.307  0.9112 -1.0831  2.4983
  489MOL0     H67418   3.384   7.824  11.425 -0.5292  2.5575 -3.9293
  489MOL0     H67419   3.212   7.580  11.471 -0.6393 -0.6627  2.9735
  489MOL0     H67420   3.387   7.572  11.482  0.2543  0.4251 -1.6442
  489MOL0     H67421   3.372   7.744  11.653  0.8726 -0.4606  2.5679
  489MOL0     H67422   3.189   7.734  11.636  1.9933  0.7551 -3.4179
  489MOL0     H67423   3.277   7.600  11.821 -1.5850  2.6014 -1.0332
  489MOL0     H67424   3.372   7.496  11.699 -1.2388 -1.1729 -3.6138
  489MOL0     H67425   3.075   7.514  11.680  0.5194  1.3746  0.6438
  489MOL0     H67426   3.197   7.413  11.606  0.7472  1.9090 -0.2383
  489MOL0     H67427   3.085   7.280  11.781  0.4551 -0.7094  2.1933
  489MOL0     H67428   3.114   7.410  11.900  1.8387 -1.4539  2.0861
  489MOL0     H67429   3.363   7.344  11.859  0.8774 -1.4097 -2.2472
  489MOL0     H67430   3.266   7.216  11.945 -0.1977 -2.6163 -1.3429
  489MOL0     H67431   3.447   7.303  11.630 -0.5689  0.5094  2.6058
  489MOL0     H67432   3.567   7.137  11.432 -0.0857  0.1907  0.1948
  489MOL0     H67433   3.479   6.981  11.408  1.5620  0.9914 -3.8329
  489MOL0     H67434   3.720   6.990  11.592  3.7819 -1.9614 -2.3140
  489MOL0     H67435   3.584   6.865  11.578 -1.4089  1.1072  0.3255
  489MOL0     H67436   3.659   6.796  11.378 -0.0824 -1.1604  0.8815
  489MOL0     H67437   3.736   6.954  11.334  0.7028  0.6549  1.1753
  489MOL0     H67438   3.902   6.914  11.490 -2.8945  0.9581  2.1129
  489MOL0     H67439   3.830   6.765  11.554 -0.6104  0.6153  0.6476
  489MOL0     H67440   3.897   6.553  11.537 -2.1886 -3.7801  1.9346
  489MOL0     H67441   3.695   6.277  11.514 -0.6269  0.8496 -0.4366
  489MOL0     H67442   3.796   6.386  11.622  2.7995  0.0498  1.0965
  489MOL0     H67443   3.863   6.234  11.560 -2.8226 -1.1763 -1.3270
  489MOL0     H67444   3.632   6.012  11.004  0.5903  2.2805  1.1851
  489MOL0     H67445   3.726   5.780  10.900  2.5362  0.7127 -3.6997
  489MOL0     H67446   3.801   5.609  10.912 -0.1658 -0.2592  0.8434
  489MOL0     H67447   3.915   5.538  10.797  0.0648  0.1989 -0.3728
  489MOL0     H67448   3.909   5.403  10.991  1.2720 -1.0543 -3.0403
  489MOL0     H67449   4.064   5.454  10.942  2.1788  1.4698  1.8993
  489MOL0     H67450   3.896   5.550  11.188 -0.3516  0.5045 -0.2008
  489MOL0     H67451   4.052   5.628  11.135 -0.1468 -1.1708 -4.8488
  489MOL0     H67452   4.084   5.483  11.325  1.0246  1.9390 -0.7229
  489MOL0     H67453   4.161   5.418  11.180  1.8227  0.1257  2.7022
  489MOL0     H67454   3.890   5.352  11.295  0.1441  1.0313 -2.7270
  489MOL0     H67455   3.962   5.264  11.149 -0.4580  1.2708 -1.3156
  489MOL0     H67456   4.076   5.239  11.437  2.2954 -0.0495 -0.7943
  489MOL0     H67457   4.137   5.172  11.290 -0.6565 -0.3473 -0.5942
  489MOL0     H67458   3.850   5.106  11.387  1.1617  1.3384  2.3320
  489MOL0     H67459   3.969   5.008  11.452 -2.8742  0.7605  1.1544
  489MOL0     H67460   3.945   5.026  11.147  1.5842 -1.7179 -1.3708
  489MOL0     H67461   3.858   4.923  11.260 -0.2736 -0.0018  1.1795
  489MOL0     H67462   4.111   5.895  11.007 -0.2851 -0.6300 -1.6406
  489MOL0     H67463   4.026   6.089  11.115 -1.3210  0.5735 -0.6077
  489MOL0     H67464   3.849   6.406  11.076  0.0782 -0.5968  0.7733
  489MOL0     H67465   3.912   6.625  11.109 -1.7912 -0.2979 -0.5737
  489MOL0     H67466   3.162   7.643  11.175 -1.9637 -0.5962 -2.2660
  489MOL0     H67467   3.201   7.569  10.944 -1.4493 -0.0544 -1.9597
  489MOL0     H67468   3.402   7.741  10.512 -1.1057  1.6020 -1.4689
  489MOL0     H67469   3.509   7.636  10.341  0.2352 -1.0348 -2.5863
  489MOL0     H67470   3.471   7.559  10.089 -1.2050  0.2705  0.6590
  489MOL0     H67471   3.593   7.461  10.171  0.0762  0.6921 -1.9910
  489MOL0     H67472   3.577   7.403   9.928 -1.1779  2.6664 -1.0427
  489MOL0     H67473   3.395   7.390   9.967 -0.1590  2.5797  0.8312
  489MOL0     H67474   3.615   7.197  10.055 -0.1652  1.7752  0.2748
  489MOL0     H67475   3.445   7.194  10.098  2.1221 -1.0983  0.2269
  489MOL0     H67476   3.547   7.175   9.815 -0.7937 -0.5578 -0.6349
  489MOL0     H67477   3.375   7.148   9.874 -0.3948 -1.3386  2.0175
  489MOL0     H67478   3.490   6.775   9.934 -0.6862 -0.7624 -2.1656
  489MOL0     H67479   3.162   7.362  10.305  2.0793 -2.8177  0.9823
  489MOL0     H67480   2.955   7.532  10.554 -0.4728 -1.1468  0.9736
  489MOL0     H67481   2.959   7.398  10.440 -3.8591  2.2181  0.4568
  489MOL0     H67482   3.054   7.398  10.590  0.4496  1.2720  0.3943
  490MOL0     O67483   6.685   2.787   4.953 -0.3697  0.3246 -1.1601
  490MOL0     C67484   6.670   2.706   5.048 -0.6740  0.4772  0.3354
  490MOL0     O67485   6.769   2.651   5.127  0.5542  0.1423 -0.3948
  490MOL0     C67486   6.895   2.697   5.106  0.1951 -0.0062  0.9300
  490MOL0     C67487   6.986   2.607   5.063 -0.5000  0.0707  0.3377
  490MOL0     C67488   7.123   2.638   5.051  0.0073  0.1993 -0.5175
  490MOL0     C67489   7.157   2.778   5.067 -0.4947 -0.9653  0.7910
  490MOL0     O67490   7.284   2.839   5.042  0.5569  0.2530  0.1018
  490MOL0     C67491   7.403   2.756   5.059  0.7573 -0.6910  0.5526
  490MOL0     C67492   7.509   2.811   5.161  0.0868  0.2665 -0.8459
  490MOL0     C67493   7.441   2.844   5.298 -0.3162  0.3387  0.2060
  490MOL0     C67494   7.545   2.897   5.399  0.3176 -0.3667  0.1057
  490MOL0     C67495   7.488   2.909   5.543 -0.8753 -0.0810 -0.0643
  490MOL0     C67496   7.595   2.969   5.638 -0.7434 -0.0055  0.7746
  490MOL0     C67497   7.531   3.004   5.774 -0.1459 -0.3254 -0.3669
  490MOL0     C67498   7.514   2.887   5.859  0.2582 -0.1053 -0.5641
  490MOL0     N67499   7.494   2.920   5.998  0.0368  0.4366  0.0599
  490MOL0     C67500   7.580   2.905   6.107  0.0528  0.8250  0.1290
  490MOL0     C67501   7.512   2.887   6.219  0.5733 -1.1844 -0.0799
  490MOL0     C67502   7.564   2.850   6.353  0.0512 -0.3886  0.3832
  490MOL0     C67503   7.600   2.701   6.379  0.3312 -0.4629 -0.4206
  490MOL0     C67504   7.747   2.669   6.394  0.5096  0.1267  0.3035
  490MOL0     C67505   7.776   2.517   6.399  0.3382  0.8233 -0.3808
  490MOL0     O67506   7.769   2.458   6.270 -0.6403  0.3731  0.2285
  490MOL0     C67507   7.832   2.329   6.252  0.2776  0.2577 -0.3603
  490MOL0     C67508   7.763   2.231   6.163  0.0181  0.2281 -0.5272
  490MOL0     C67509   7.828   2.113   6.114  0.3755  0.6681 -0.9648
  490MOL0     C67510   7.741   2.018   6.045 -0.7248  1.1027 -0.1979
  490MOL0     C67511   7.966   2.089   6.148  0.0981  0.4679  0.7392
  490MOL0     C67512   8.056   1.970   6.098  0.1248  1.0410  0.2832
  490MOL0     O67513   8.006   1.877   6.006  0.0203  0.8370  0.1938
  490MOL0     C67514   8.076   1.761   5.980  0.2840 -0.2692  0.0489
  490MOL0     C67515   8.125   1.679   6.079 -0.6977  0.0906  0.1632
  490MOL0     C67516   8.208   1.566   6.050 -0.6490 -0.1218  0.3417
  490MOL0     C67517   8.231   1.531   5.915  0.5097 -0.0438  0.5592
  490MOL0     O67518   8.320   1.434   5.863 -0.5942  0.0324 -0.0933
  490MOL0     C67519   8.446   1.408   5.938 -0.1846 -0.0731  0.9016
  490MOL0     C67520   8.514   1.278   5.894 -0.3228  0.6033 -0.0469
  490MOL0     C67521   8.653   1.260   5.955 -0.5466 -0.5888 -0.0805
  490MOL0     C67522   8.630   1.228   6.106  0.9926  0.5155 -0.0731
  490MOL0     C67523   8.756   1.170   6.169 -0.3279  1.2465 -0.5711
  490MOL0     C67524   8.878   1.252   6.202  0.4146  0.8725  0.4059
  490MOL0     C67525   8.843   1.403   6.241 -1.1327  0.7400 -0.0004
  490MOL0     C67526   8.959   1.482   6.313 -0.5283  0.8584  0.1038
  490MOL0    Cl67527   9.081   1.519   6.191  0.3655 -0.0494  0.0594
  490MOL0     C67528   8.159   1.608   5.824 -1.1778  0.3539  0.3805
  490MOL0     C67529   8.088   1.717   5.847  0.3116  0.0099  0.0909
  490MOL0     O67530   8.172   1.970   6.128 -0.3798  0.7111 -0.1552
  490MOL0     C67531   8.034   2.196   6.222  0.5267 -0.1261  0.3201
  490MOL0     C67532   7.971   2.314   6.271  0.1937 -0.2535 -0.8864
  490MOL0     N67533   7.375   2.898   6.186 -0.2079 -0.8419 -0.9258
  490MOL0     N67534   7.372   2.914   6.056  0.3291  0.0429 -0.2539
  490MOL0     C67535   7.059   2.876   5.081  0.8197  0.5473  0.4063
  490MOL0     C67536   6.925   2.831   5.108 -0.3253 -0.5000  0.0144
  490MOL0     C67537   6.529   2.668   5.075 -0.0743 -0.0472  0.0467
  490MOL0     C67538   6.494   2.665   5.209  0.5933  0.4697 -0.6314
  490MOL0     C67539   6.365   2.652   5.246  0.3052 -0.4723  1.1006
  490MOL0     C67540   6.264   2.624   5.157 -0.8749  0.1579 -0.0473
  490MOL0     O67541   6.132   2.613   5.195  0.0146 -0.8308  0.1474
  490MOL0     C67542   6.041   2.582   5.087 -0.1332 -0.7499 -0.0446
  490MOL0     C67543   5.887   2.577   5.133  0.5120  0.3981  0.3562
  490MOL0     C67544   5.850   2.718   5.182  0.1329 -0.2885 -0.6689
  490MOL0     C67545   5.699   2.758   5.177  0.0733 -0.1544  0.6445
  490MOL0     C67546   5.610   2.670   5.241 -0.0719  0.3548 -0.3530
  490MOL0     C67547   5.538   2.585   5.298 -0.7637 -0.9585 -0.3243
  490MOL0     C67548   6.310   2.610   5.024 -0.0809 -0.6691  0.2389
  490MOL0     C67549   6.436   2.643   4.978  0.3027  0.0495  0.6398
  490MOL0     C67550   6.459   2.644   4.826  0.5177 -0.2698  0.2964
  490MOL0     H67551   6.951   2.505   5.056 -1.9045  0.2324  3.3575
  490MOL0     H67552   7.190   2.554   5.036 -0.1426 -0.0105 -0.0079
  490MOL0     H67553   7.453   2.758   4.962 -1.3871  1.0796 -0.6111
  490MOL0     H67554   7.376   2.653   5.083 -3.5667 -0.6684 -2.9790
  490MOL0     H67555   7.579   2.734   5.193  0.9618  2.3471  2.7181
  490MOL0     H67556   7.555   2.905   5.131 -0.6325  1.8869  2.5907
  490MOL0     H67557   7.365   2.922   5.288 -0.4309  0.5157  2.1023
  490MOL0     H67558   7.405   2.747   5.336  1.6378 -0.5983 -0.1995
  490MOL0     H67559   7.628   2.826   5.402  0.9997  0.4444  1.8091
  490MOL0     H67560   7.594   2.987   5.360  1.2517 -0.8937  0.0194
  490MOL0     H67561   7.461   2.810   5.580 -0.2043  0.0081  0.6718
  490MOL0     H67562   7.401   2.974   5.552 -0.1256  0.8272  0.7509
  490MOL0     H67563   7.671   2.892   5.653  1.4428  1.7326 -0.7244
  490MOL0     H67564   7.634   3.062   5.595 -1.6570  0.7160  1.4512
  490MOL0     H67565   7.434   3.055   5.763 -0.7131 -0.3268  3.3286
  490MOL0     H67566   7.609   3.059   5.828  0.7067 -2.0607  0.2367
  490MOL0     H67567   7.431   2.824   5.826  0.0273 -0.7025  1.0721
  490MOL0     H67568   7.602   2.823   5.858  1.0493  0.8140  1.8980
  490MOL0     H67569   7.689   2.904   6.100  0.1393  1.8561  1.0881
  490MOL0     H67570   7.493   2.899   6.418  0.8477  2.4065 -0.7098
  490MOL0     H67571   7.653   2.910   6.376  1.6131 -1.7486 -1.6501
  490MOL0     H67572   7.562   2.677   6.479 -0.8501  0.3120 -0.6551
  490MOL0     H67573   7.544   2.637   6.311 -2.5203  0.6766  0.6858
  490MOL0     H67574   7.799   2.722   6.314 -0.5834  3.2383  1.5026
  490MOL0     H67575   7.793   2.716   6.481  0.6747  0.6013 -0.0403
  490MOL0     H67576   7.878   2.498   6.433  0.4832 -0.7186 -1.5795
  490MOL0     H67577   7.702   2.474   6.467  2.0725 -1.8982 -0.0753
  490MOL0     H67578   7.660   2.253   6.138  1.0241  2.8996 -2.8458
  490MOL0     H67579   7.731   2.054   5.942  2.9465 -2.3584 -2.0480
  490MOL0     H67580   7.650   2.003   6.103 -0.1670 -1.6665  0.1418
  490MOL0     H67581   7.787   1.919   6.036  1.6883  1.9544  1.6362
  490MOL0     H67582   8.104   1.705   6.182 -2.4863 -0.0157 -0.1540
  490MOL0     H67583   8.252   1.498   6.121  0.5953 -0.6702 -0.9020
  490MOL0     H67584   8.525   1.481   5.918 -2.0260  1.9263  0.6004
  490MOL0     H67585   8.427   1.416   6.046 -1.1603 -0.7565  0.7862
  490MOL0     H67586   8.448   1.195   5.922 -0.6682  0.3946 -1.3972
  490MOL0     H67587   8.517   1.272   5.785 -1.2294  0.0309 -0.0453
  490MOL0     H67588   8.709   1.353   5.936  0.8309 -0.9033  2.1495
  490MOL0     H67589   8.713   1.181   5.909  0.8845  1.1084 -1.3108
  490MOL0     H67590   8.550   1.155   6.118  3.4716 -2.2436  0.9691
  490MOL0     H67591   8.614   1.323   6.157 -2.6499  0.1684 -0.3550
  490MOL0     H67592   8.727   1.112   6.257  1.4658  1.2472  0.0810
  490MOL0     H67593   8.793   1.086   6.109 -0.0679  1.0227 -0.1073
  490MOL0     H67594   8.934   1.245   6.109  0.1078 -2.1137  0.3364
  490MOL0     H67595   8.945   1.202   6.273  1.3347  3.5285  1.5542
  490MOL0     H67596   8.776   1.393   6.327  1.9600 -2.6051  2.3673
  490MOL0     H67597   8.824   1.463   6.152  3.7685 -0.4452 -2.1731
  490MOL0     H67598   9.010   1.426   6.392 -2.1306  0.5429  0.9384
  490MOL0     H67599   8.925   1.576   6.357  3.0918  2.0091  0.7988
  490MOL0     H67600   8.165   1.566   5.724 -1.3840 -0.4233  0.6825
  490MOL0     H67601   8.051   1.774   5.762  0.3913 -0.1499 -0.0533
  490MOL0     H67602   8.141   2.184   6.240  0.4867 -1.4200 -0.2027
  490MOL0     H67603   8.006   2.404   6.321 -3.2871  0.9823 -0.4207
  490MOL0     H67604   7.081   2.982   5.073 -0.5473  0.7014 -2.8047
  490MOL0     H67605   6.848   2.905   5.128 -0.6702 -1.0074  0.6053
  490MOL0     H67606   6.569   2.690   5.283 -0.7329  0.4711  0.7546
  490MOL0     H67607   6.334   2.679   5.347 -1.7726  0.3496  0.3045
  490MOL0     H67608   6.049   2.664   5.015  2.0215 -0.3237  0.5948
  490MOL0     H67609   6.070   2.494   5.028  2.0304 -2.8991  3.7889
  490MOL0     H67610   5.861   2.505   5.211 -1.6296  0.9051  0.1747
  490MOL0     H67611   5.825   2.542   5.050 -1.3851  0.2051  1.7708
  490MOL0     H67612   5.896   2.734   5.280  3.1845 -0.8506 -1.8741
  490MOL0     H67613   5.907   2.784   5.116  2.1587  1.9782  2.9547
  490MOL0     H67614   5.685   2.760   5.068 -4.3128  2.8985  1.0126
  490MOL0     H67615   5.676   2.857   5.215 -1.8296 -0.1804 -0.2802
  490MOL0     H67616   5.481   2.514   5.354 -1.0109  1.1831  2.3399
  490MOL0     H67617   6.247   2.583   4.940  1.6448  1.2856 -1.8047
  490MOL0     H67618   6.561   2.612   4.804 -0.0237 -1.1547 -1.0503
  490MOL0     H67619   6.385   2.577   4.781  0.1204 -0.4889  1.2362
  490MOL0     H67620   6.450   2.741   4.776  1.5518 -1.3098 -2.0380
  491MOL0     O67621   3.485   9.125   9.646  0.8500  0.3380  0.8816
  491MOL0     C67622   3.484   9.005   9.674  0.5438 -0.6921 -0.4067
  491MOL0     O67623   3.563   8.906   9.616 -0.0173  0.3686 -0.3261
  491MOL0     C67624   3.628   8.926   9.501  0.4431  0.4277 -0.2608
  491MOL0     C67625   3.767   8.919   9.491  0.3858 -0.0966 -1.1738
  491MOL0     C67626   3.842   8.965   9.374  0.1116  0.1693  0.4781
  491MOL0     C67627   3.772   8.999   9.257  0.7645 -0.9372 -0.0918
  491MOL0     O67628   3.846   9.025   9.140 -1.1650  0.2514 -0.9553
  491MOL0     C67629   3.777   9.008   9.013 -0.5479  0.4887 -0.5931
  491MOL0     C67630   3.853   9.078   8.902 -1.0729  0.1628  0.6272
  491MOL0     C67631   3.996   9.016   8.897 -0.3465  0.2040  0.2309
  491MOL0     C67632   3.999   8.901   8.784  1.0219  1.0189  0.0550
  491MOL0     C67633   4.134   8.816   8.782  0.8063  0.8441  0.2739
  491MOL0     C67634   4.258   8.887   8.727  0.1705  0.0768  0.1347
  491MOL0     C67635   4.236   8.940   8.584 -0.6328 -0.5237 -0.7800
  491MOL0     C67636   4.246   8.827   8.484 -0.0082  0.0380  0.4882
  491MOL0     N67637   4.221   8.872   8.347 -0.5505 -0.2455 -0.0315
  491MOL0     C67638   4.321   8.889   8.256 -1.1458 -0.1749  0.0095
  491MOL0     C67639   4.254   8.940   8.153  0.0474  0.4645  0.4510
  491MOL0     C67640   4.298   8.975   8.012 -0.0421  0.0549  0.2191
  491MOL0     C67641   4.402   9.089   8.020  0.2314  0.7749  0.9656
  491MOL0     C67642   4.342   9.224   8.058 -0.2574  0.4764  0.1378
  491MOL0     C67643   4.221   9.266   7.975 -0.7629  0.3964  0.2641
  491MOL0     O67644   4.177   9.395   8.005 -0.0600  0.1703  0.1965
  491MOL0     C67645   4.124   9.415   8.133  0.0052 -0.1795 -0.6650
  491MOL0     C67646   4.070   9.312   8.220 -0.6364 -1.6397  0.3575
  491MOL0     C67647   4.012   9.348   8.345 -0.5383  0.1832 -0.5882
  491MOL0     C67648   3.961   9.226   8.430  0.2331 -0.7189 -0.7503
  491MOL0     C67649   4.010   9.479   8.386 -0.1917 -0.8922  0.4900
  491MOL0     C67650   3.965   9.535   8.519  0.5207  0.2416 -0.4127
  491MOL0     O67651   3.967   9.672   8.536  0.2551 -0.0480 -0.2994
  491MOL0     C67652   3.907   9.723   8.648 -0.8584  0.2027 -0.9209
  491MOL0     C67653   3.782   9.783   8.636 -0.5231  0.7653  0.6018
  491MOL0     C67654   3.733   9.844   8.750 -0.5775 -0.0879 -0.2219
  491MOL0     C67655   3.795   9.868   8.869 -0.2829  0.3586  0.4658
  491MOL0     O67656   3.752   9.971   8.945  0.0282  0.3746  0.3644
  491MOL0     C67657   3.810  10.000   9.078  0.2636  0.2593 -0.6478
  491MOL0     C67658   3.779   9.884   9.182  0.0546  0.0789 -0.5125
  491MOL0     C67659   3.825   9.917   9.334 -0.4543  0.1502  0.7054
  491MOL0     C67660   3.977   9.906   9.353 -0.3823  0.3863  0.0046
  491MOL0     C67661   4.020   9.919   9.502  0.0530 -0.4060  0.1585
  491MOL0     C67662   4.158   9.885   9.534 -0.7063 -0.4724  0.6419
  491MOL0     C67663   4.261   9.983   9.472  0.2060 -0.8520  0.4444
  491MOL0     C67664   4.391   9.980   9.547 -0.2999 -0.3631  0.6060
  491MOL0    Cl67665   4.366  10.091   9.682  0.1039  0.0067 -0.2048
  491MOL0     C67666   3.923   9.810   8.878 -0.7157 -0.2134  0.2580
  491MOL0     C67667   3.975   9.743   8.768  0.4628 -0.4608  1.0216
  491MOL0     O67668   3.922   9.457   8.603  0.0518 -0.1849 -0.0324
  491MOL0     C67669   4.076   9.570   8.303 -0.2033 -0.9416  0.2190
  491MOL0     C67670   4.122   9.546   8.178  1.0842 -0.0118 -0.1015
  491MOL0     N67671   4.123   8.952   8.174  0.4358 -0.2210  0.1960
  491MOL0     N67672   4.102   8.904   8.291 -0.2328  0.7519  0.1577
  491MOL0     C67673   3.631   9.002   9.270 -0.2298  0.7491 -0.0574
  491MOL0     C67674   3.562   8.971   9.395  0.1632  0.1846  0.5486
  491MOL0     C67675   3.394   8.967   9.788  0.6087 -0.0907  0.4483
  491MOL0     C67676   3.335   9.073   9.869  0.0439 -0.4577  0.4361
  491MOL0     C67677   3.246   9.045   9.979  0.4351  1.0084  0.2625
  491MOL0     C67678   3.235   8.906  10.024 -0.7259 -0.7998  0.1845
  491MOL0     O67679   3.155   8.852  10.125 -0.0465  0.2076  0.1349
  491MOL0     C67680   3.057   8.936  10.187 -0.5403  0.0614  0.3144
  491MOL0     C67681   2.991   8.852  10.300  0.1669 -0.7885 -0.0585
  491MOL0     C67682   2.885   8.932  10.386  0.8546  0.4599 -0.5415
  491MOL0     C67683   2.849   8.848  10.511  0.1253  0.1439 -0.1634
  491MOL0     C67684   2.804   8.936  10.625 -0.3337  1.2970  0.5478
  491MOL0     C67685   2.780   9.022  10.698 -0.4718 -0.7504  0.2975
  491MOL0     C67686   3.307   8.814   9.955 -0.2378  0.6793  0.0553
  491MOL0     C67687   3.367   8.837   9.832  0.0316  0.1896 -0.3209
  491MOL0     C67688   3.418   8.721   9.760  0.1149 -0.6098 -0.1217
  491MOL0     H67689   3.824   8.905   9.581 -1.1761  0.0902 -0.1096
  491MOL0     H67690   3.950   8.964   9.374  0.2347 -3.0677 -1.8415
  491MOL0     H67691   3.675   9.046   9.013 -0.9047 -0.3557  1.2452
  491MOL0     H67692   3.770   8.900   9.000 -0.7916  0.0783  2.3070
  491MOL0     H67693   3.790   9.081   8.812  0.3069  2.1433 -0.3284
  491MOL0     H67694   3.858   9.183   8.930 -2.1236  0.4683 -0.2422
  491MOL0     H67695   4.067   9.090   8.861 -0.0895  1.0313  2.2903
  491MOL0     H67696   4.020   8.974   8.995  1.0030 -2.8412 -1.2632
  491MOL0     H67697   3.916   8.835   8.807 -1.2640  4.2667  2.0842
  491MOL0     H67698   3.965   8.936   8.686  2.6842 -0.6135 -1.1753
  491MOL0     H67699   4.106   8.723   8.732 -0.4971  0.5682  1.4559
  491MOL0     H67700   4.162   8.779   8.881  2.7999 -1.4078 -1.0373
  491MOL0     H67701   4.290   8.975   8.784  1.2609 -1.0374  1.3102
  491MOL0     H67702   4.342   8.818   8.722 -0.0532 -0.1373 -0.7067
  491MOL0     H67703   4.313   9.014   8.563  1.9824 -1.8732  2.8657
  491MOL0     H67704   4.139   8.991   8.583  0.0326  0.9624  1.8235
  491MOL0     H67705   4.343   8.778   8.499 -1.2092 -1.8338  2.7743
  491MOL0     H67706   4.170   8.750   8.496  0.6662 -0.5184  1.2853
  491MOL0     H67707   4.424   8.860   8.274  0.0189  3.2159 -0.4790
  491MOL0     H67708   4.215   8.999   7.944 -1.4369  2.6540  2.6430
  491MOL0     H67709   4.349   8.886   7.975 -1.3937 -0.6277 -0.0740
  491MOL0     H67710   4.480   9.061   8.092  1.1149 -1.6594 -0.8127
  491MOL0     H67711   4.453   9.089   7.924  0.4285  0.4763  1.0685
  491MOL0     H67712   4.304   9.218   8.161  0.8600  1.8930  0.6716
  491MOL0     H67713   4.418   9.302   8.069  1.0727 -0.9376  1.5189
  491MOL0     H67714   4.249   9.270   7.869 -1.3980  1.2585  0.1159
  491MOL0     H67715   4.139   9.197   7.993 -0.4474  0.6249  3.1757
  491MOL0     H67716   4.065   9.208   8.189  2.0100 -1.8444  0.3924
  491MOL0     H67717   3.961   9.134   8.372 -0.5312 -1.8205  0.9063
  491MOL0     H67718   3.863   9.261   8.462 -0.2569 -0.9960 -1.9160
  491MOL0     H67719   4.020   9.209   8.521  0.8939  3.6057 -0.1296
  491MOL0     H67720   3.743   9.764   8.537 -1.0852 -0.0836  0.9755
  491MOL0     H67721   3.645   9.907   8.746  1.2425  3.1452  3.6042
  491MOL0     H67722   3.917  10.009   9.060  1.0050 -4.3874  0.1616
  491MOL0     H67723   3.773  10.095   9.116 -1.8204  0.7305 -3.4991
  491MOL0     H67724   3.672   9.861   9.181  0.2242 -0.7068 -1.2719
  491MOL0     H67725   3.826   9.795   9.140 -1.5211 -0.2508 -1.6459
  491MOL0     H67726   3.771   9.853   9.405  1.4498 -1.8635  0.4595
  491MOL0     H67727   3.788  10.015   9.365 -0.1031 -0.0811  1.9182
  491MOL0     H67728   4.024   9.983   9.291 -1.4822  1.4155  0.4069
  491MOL0     H67729   4.023   9.817   9.309 -2.7150 -0.9542  0.1259
  491MOL0     H67730   4.009  10.025   9.525 -1.6341 -0.0281 -2.0569
  491MOL0     H67731   3.959   9.857   9.569  1.2606 -3.3107 -1.2365
  491MOL0     H67732   4.171   9.784   9.495  1.4500 -0.2607  0.7123
  491MOL0     H67733   4.178   9.881   9.641 -1.0128  0.5828  0.7523
  491MOL0     H67734   4.229  10.087   9.473  1.8763 -0.2703  2.7649
  491MOL0     H67735   4.287   9.950   9.371  3.5953  2.7557 -0.0779
  491MOL0     H67736   4.468  10.016   9.479 -2.0463 -1.1142 -1.9329
  491MOL0     H67737   4.415   9.878   9.578  3.1302  0.3690  0.7094
  491MOL0     H67738   3.984   9.830   8.965  0.5737  1.4128 -0.9524
  491MOL0     H67739   4.076   9.705   8.772  1.6919  2.4344  0.4255
  491MOL0     H67740   4.087   9.674   8.333 -2.0979  0.0669 -2.1858
  491MOL0     H67741   4.170   9.620   8.115 -0.1455  1.4224  0.5827
  491MOL0     H67742   3.561   9.038   9.195  0.4069  0.6880 -0.6884
  491MOL0     H67743   3.454   8.975   9.387  0.0288 -3.6029 -2.1560
  491MOL0     H67744   3.356   9.176   9.842 -1.6188  0.0243  0.8184
  491MOL0     H67745   3.199   9.128  10.030 -1.1799  0.1391  0.2190
  491MOL0     H67746   3.109   9.011  10.247 -1.6779  1.1635 -0.0224
  491MOL0     H67747   2.986   8.988  10.121 -2.4479 -0.1962  2.0578
  491MOL0     H67748   3.074   8.812  10.360  0.8224  0.4210 -0.1220
  491MOL0     H67749   2.928   8.777  10.250  0.2199  0.7811 -2.6596
  491MOL0     H67750   2.932   9.020  10.431  0.6549 -1.0188  2.8908
  491MOL0     H67751   2.793   8.941  10.327 -0.1844 -1.2264  0.7173
  491MOL0     H67752   2.931   8.778  10.530  0.0361  0.1409  0.2104
  491MOL0     H67753   2.756   8.804  10.473 -3.3404  3.2756  3.6628
  491MOL0     H67754   2.774   9.106  10.764 -0.3092 -1.0185  0.6579
  491MOL0     H67755   3.311   8.710   9.986 -1.8551  0.7878  0.7268
  491MOL0     H67756   3.527   8.713   9.770  0.0397 -0.0090  1.4724
  491MOL0     H67757   3.388   8.628   9.810  1.3321 -1.9294 -1.7090
  491MOL0     H67758   3.390   8.713   9.654 -1.5562  0.4556  0.1999
  492MOL0     O67759   2.361   1.164  10.442  0.2136 -0.6093 -0.1904
  492MOL0     C67760   2.343   1.041  10.437 -0.7766  0.1555  0.3608
  492MOL0     O67761   2.266   0.967  10.521 -0.5254 -0.0225  0.2220
  492MOL0     C67762   2.206   1.038  10.622 -0.2690 -0.0452  0.2371
  492MOL0     C67763   2.273   1.063  10.742 -0.4787 -0.4601 -0.3023
  492MOL0     C67764   2.225   1.144  10.845  0.1324 -0.2736 -0.6260
  492MOL0     C67765   2.093   1.197  10.836  0.0824  0.6077  0.0147
  492MOL0     O67766   2.031   1.272  10.930 -0.1120 -0.1636  0.2697
  492MOL0     C67767   2.007   1.234  11.068  0.4418  0.4671  0.3022
  492MOL0     C67768   1.887   1.130  11.079  0.1438  0.2575  0.3395
  492MOL0     C67769   1.755   1.175  11.010 -0.3557 -0.4813  0.7138
  492MOL0     C67770   1.629   1.108  11.069  0.1191 -0.4535 -0.2104
  492MOL0     C67771   1.506   1.209  11.073 -0.4235  0.6390  0.4041
  492MOL0     C67772   1.480   1.231  10.931  0.8743  0.3387  0.0821
  492MOL0     C67773   1.396   1.364  10.926  0.1912 -0.1741  0.3108
  492MOL0     C67774   1.420   1.459  10.807  0.7917  0.0154  0.5722
  492MOL0     N67775   1.532   1.549  10.833 -1.2787 -0.1682  0.1090
  492MOL0     C67776   1.526   1.675  10.884  0.1757  0.8387 -0.6523
  492MOL0     C67777   1.645   1.722  10.865 -1.6620  0.3826  0.2611
  492MOL0     C67778   1.684   1.867  10.891 -0.2520  0.7167 -0.3556
  492MOL0     C67779   1.721   1.937  10.759  0.2502  0.1419  0.9219
  492MOL0     C67780   1.754   2.091  10.781  0.4969 -0.2834 -0.6624
  492MOL0     C67781   1.718   2.178  10.656 -0.1568  0.0379  0.4395
  492MOL0     O67782   1.834   2.164  10.572 -0.1472  0.5813  0.0716
  492MOL0     C67783   1.828   2.206  10.445 -0.2426  0.7624 -0.3207
  492MOL0     C67784   1.738   2.294  10.392 -0.8111  0.6434  0.8378
  492MOL0     C67785   1.754   2.345  10.260 -1.4687 -0.5150 -0.4984
  492MOL0     C67786   1.663   2.456  10.205 -0.4538 -0.4089  0.4263
  492MOL0     C67787   1.858   2.291  10.181  0.2064  0.1466 -0.0827
  492MOL0     C67788   1.878   2.335  10.041 -0.6418  0.1305 -0.2676
  492MOL0     O67789   1.902   2.220   9.966 -0.1282 -0.4766 -0.0982
  492MOL0     C67790   1.902   2.231   9.829 -0.3566 -0.7271 -0.4404
  492MOL0     C67791   1.992   2.318   9.754 -0.3102  0.8075  0.3007
  492MOL0     C67792   1.990   2.319   9.613 -0.1053 -0.0379  0.7693
  492MOL0     C67793   1.899   2.235   9.541  0.2397 -0.1494 -0.2181
  492MOL0     O67794   1.898   2.217   9.404  0.2392  0.6060 -0.3105
  492MOL0     C67795   2.018   2.228   9.327  0.4561  0.5973  0.4190
  492MOL0     C67796   2.014   2.344   9.232 -0.6739 -0.4539 -0.0149
  492MOL0     C67797   1.917   2.328   9.110  0.0954  0.7591  0.6290
  492MOL0     C67798   1.885   2.470   9.049  0.5306  0.4124  0.0926
  492MOL0     C67799   1.783   2.452   8.933  0.5718  0.4389  0.2539
  492MOL0     C67800   1.836   2.410   8.805 -0.4334  1.7919 -0.0180
  492MOL0     C67801   1.749   2.314   8.722  0.0596  0.0685  0.6252
  492MOL0     C67802   1.603   2.360   8.693  0.3573  0.0348 -0.2986
  492MOL0    Cl67803   1.528   2.253   8.572  0.2862  0.3976 -0.1384
  492MOL0     C67804   1.806   2.168   9.620 -0.1610 -0.2146 -0.3569
  492MOL0     C67805   1.809   2.166   9.761 -0.4800  0.3475 -0.6256
  492MOL0     O67806   1.855   2.441   9.994  0.4753  0.5659  0.0905
  492MOL0     C67807   1.952   2.192  10.231  0.8102 -0.1483  0.5788
  492MOL0     C67808   1.937   2.160  10.365  0.4926 -0.4015 -0.0020
  492MOL0     N67809   1.733   1.628  10.807 -0.6393 -0.8235  0.2907
  492MOL0     N67810   1.660   1.522  10.792 -0.0707 -0.4212  0.6112
  492MOL0     C67811   2.025   1.180  10.711  0.1724 -0.5116  0.3887
  492MOL0     C67812   2.078   1.099  10.607 -0.6992 -0.0798  0.5823
  492MOL0     C67813   2.419   0.976  10.331  0.3230  0.2460  0.4146
  492MOL0     C67814   2.442   1.051  10.215  0.3101  0.6374  0.4597
  492MOL0     C67815   2.482   0.987  10.094 -0.0364  0.2656  0.0001
  492MOL0     C67816   2.519   0.853  10.099 -0.6702  1.0425  0.4790
  492MOL0     O67817   2.574   0.781  10.000  0.8359  0.5637 -0.0678
  492MOL0     C67818   2.580   0.842   9.872 -0.0934  0.4068 -0.2929
  492MOL0     C67819   2.672   0.765   9.783  0.3738 -0.4984  0.3189
  492MOL0     C67820   2.617   0.624   9.750  0.6261 -0.0002  0.4254
  492MOL0     C67821   2.697   0.542   9.646 -0.7499  0.0000  0.7935
  492MOL0     C67822   2.717   0.617   9.523 -0.8344  0.2164  0.0790
  492MOL0     C67823   2.738   0.693   9.425  0.0222  0.7448  0.0631
  492MOL0     C67824   2.500   0.778  10.220 -0.3054  0.2536  0.2621
  492MOL0     C67825   2.450   0.838  10.333  0.1352 -0.0592  0.2149
  492MOL0     C67826   2.446   0.760  10.457  0.4361  0.6989 -0.1781
  492MOL0     H67827   2.372   1.018  10.754  0.1897  1.5354  2.8128
  492MOL0     H67828   2.276   1.164  10.938 -2.4408  2.2498  0.3772
  492MOL0     H67829   1.976   1.325  11.120  0.3631  0.0851  0.9360
  492MOL0     H67830   2.102   1.205  11.115 -0.1403 -1.3977  0.4338
  492MOL0     H67831   1.914   1.038  11.027 -0.0637  0.5583 -0.3149
  492MOL0     H67832   1.864   1.115  11.184  2.8257 -1.4203  0.7865
  492MOL0     H67833   1.748   1.284  11.015 -2.7261 -0.3152 -2.6698
  492MOL0     H67834   1.753   1.155  10.902 -0.3369  1.1067  0.3855
  492MOL0     H67835   1.608   1.012  11.021  3.2548 -2.0952  1.3387
  492MOL0     H67836   1.651   1.088  11.174  0.7897 -1.5503 -0.5430
  492MOL0     H67837   1.538   1.298  11.128  3.0979 -1.1716  1.6108
  492MOL0     H67838   1.415   1.176  11.124 -0.6321 -0.9467 -0.9206
  492MOL0     H67839   1.569   1.251  10.869 -0.6867 -1.3108 -2.8951
  492MOL0     H67840   1.436   1.146  10.879  1.2979 -0.5048  1.0600
  492MOL0     H67841   1.406   1.422  11.018  0.4400  1.1493 -0.5115
  492MOL0     H67842   1.291   1.334  10.918  1.0066 -3.0984 -0.9108
  492MOL0     H67843   1.436   1.407  10.712 -0.7430 -1.7917  1.2326
  492MOL0     H67844   1.331   1.522  10.794 -0.1163 -1.1646  0.8248
  492MOL0     H67845   1.438   1.729  10.916  0.1034  0.4148 -0.1381
  492MOL0     H67846   1.755   1.875  10.974 -2.0952 -0.6452  1.4623
  492MOL0     H67847   1.598   1.917  10.936  1.1646  0.2753  3.1687
  492MOL0     H67848   1.794   1.873  10.708  0.0801  0.2895  0.4887
  492MOL0     H67849   1.634   1.944  10.693  0.4321  1.2393  0.7743
  492MOL0     H67850   1.696   2.139  10.860 -0.5891  0.8441 -2.0814
  492MOL0     H67851   1.861   2.102  10.799  0.3266 -1.1348  1.0556
  492MOL0     H67852   1.627   2.138  10.612  1.5158 -0.4295 -2.9388
  492MOL0     H67853   1.699   2.283  10.682  0.0056 -0.5737  3.3795
  492MOL0     H67854   1.658   2.325  10.458 -1.8868  0.5591 -0.4053
  492MOL0     H67855   1.620   2.426  10.109  0.0336 -0.3423  0.1836
  492MOL0     H67856   1.709   2.552  10.183  1.6789 -1.7859 -1.6228
  492MOL0     H67857   1.579   2.466  10.275 -0.4689  2.5768  0.0918
  492MOL0     H67858   2.073   2.365   9.809  0.1879  1.2196 -0.7716
  492MOL0     H67859   2.062   2.388   9.570 -2.2612  2.3485  0.7405
  492MOL0     H67860   2.108   2.225   9.389  0.1785  0.4964  0.8245
  492MOL0     H67861   2.021   2.135   9.270 -1.5751 -0.1246  1.3755
  492MOL0     H67862   2.008   2.440   9.285  2.1210  0.0059 -0.3913
  492MOL0     H67863   2.117   2.343   9.197 -1.0405 -0.8036 -1.1216
  492MOL0     H67864   1.823   2.277   9.134  0.4448  0.9484  2.5774
  492MOL0     H67865   1.971   2.266   9.038  1.8789  1.6559  1.1291
  492MOL0     H67866   1.971   2.533   9.022 -0.3066  1.2732 -0.6895
  492MOL0     H67867   1.827   2.524   9.124 -0.2546 -0.0735 -0.1500
  492MOL0     H67868   1.702   2.386   8.965 -2.1012  3.8064  1.0984
  492MOL0     H67869   1.748   2.556   8.938  2.1541  0.9613  1.1875
  492MOL0     H67870   1.930   2.357   8.823 -2.4543 -1.5646  1.6215
  492MOL0     H67871   1.857   2.502   8.749 -2.6513  2.0867 -0.4737
  492MOL0     H67872   1.732   2.219   8.774 -2.5852 -0.0595 -0.3341
  492MOL0     H67873   1.796   2.284   8.628  0.9242 -0.2963  1.1613
  492MOL0     H67874   1.613   2.463   8.656 -1.2843  0.0074 -0.9031
  492MOL0     H67875   1.534   2.370   8.778 -0.3598 -0.5140 -0.8124
  492MOL0     H67876   1.744   2.095   9.568  4.2894 -3.5906 -1.5636
  492MOL0     H67877   1.747   2.098   9.820  0.8184  0.1775  0.6202
  492MOL0     H67878   2.033   2.163  10.166  0.1795 -1.6610  0.4141
  492MOL0     H67879   1.999   2.090  10.420 -0.5261 -2.0168 -0.8345
  492MOL0     H67880   1.920   1.207  10.716  0.2743  0.8356 -2.6745
  492MOL0     H67881   2.025   1.064  10.519  1.7857  0.7285 -1.3535
  492MOL0     H67882   2.408   1.153  10.200 -3.7760 -0.4634  1.2171
  492MOL0     H67883   2.477   1.061  10.014 -2.0580 -0.3456 -0.4835
  492MOL0     H67884   2.480   0.837   9.828  0.1308 -0.9333 -0.7081
  492MOL0     H67885   2.617   0.945   9.873 -0.6204  0.5989 -0.0030
  492MOL0     H67886   2.772   0.759   9.828  0.1785 -0.4029  0.7743
  492MOL0     H67887   2.668   0.817   9.687 -1.8922 -2.3389 -0.6859
  492MOL0     H67888   2.632   0.563   9.840  1.5419 -0.4596 -0.0203
  492MOL0     H67889   2.510   0.629   9.730  0.5339  2.2903  1.2024
  492MOL0     H67890   2.639   0.451   9.628  0.2801 -0.1399 -2.5060
  492MOL0     H67891   2.801   0.521   9.672  0.3583  0.5885 -2.6081
  492MOL0     H67892   2.758   0.767   9.350 -4.1692  0.3300 -1.6874
  492MOL0     H67893   2.541   0.678  10.229 -2.3987 -0.5362  2.0463
  492MOL0     H67894   2.501   0.666  10.451 -2.2732 -0.9738 -0.8503
  492MOL0     H67895   2.484   0.824  10.537  0.7881  1.5237 -0.9896
  492MOL0     H67896   2.341   0.738  10.480 -0.1767  0.6510 -2.6972
  493MOL0     O67897   8.442   0.112   6.073 -0.4325  0.8623 -0.2386
  493MOL0     C67898   8.337   0.062   6.032  0.0366  0.1666  0.2454
  493MOL0     O67899   8.210   0.083   6.093 -0.7103  0.3704  0.3426
  493MOL0     C67900   8.187   0.189   6.182  0.3671 -0.5755  0.1628
  493MOL0     C67901   8.278   0.264   6.266  0.4891 -0.0253 -0.4873
  493MOL0     C67902   8.241   0.383   6.331  0.6706  0.0158 -0.5987
  493MOL0     C67903   8.110   0.434   6.319  0.0159  0.0157 -0.7043
  493MOL0     O67904   8.051   0.536   6.379 -0.3740  0.3216 -0.8141
  493MOL0     C67905   8.126   0.607   6.479  0.1912  0.4582  0.0839
  493MOL0     C67906   8.057   0.733   6.525 -1.3159 -0.4391 -0.4995
  493MOL0     C67907   8.136   0.804   6.635  0.9554  0.2275 -0.0871
  493MOL0     C67908   8.077   0.936   6.677 -0.2555 -0.4314 -0.0712
  493MOL0     C67909   7.980   0.930   6.799  1.1440 -0.9306 -1.0999
  493MOL0     C67910   7.850   0.867   6.774  0.4279  1.1701 -0.6052
  493MOL0     C67911   7.747   0.901   6.885 -0.2185  0.0764 -0.3221
  493MOL0     C67912   7.771   0.853   7.036 -0.8072  0.9536  0.0423
  493MOL0     N67913   7.875   0.942   7.102  0.6619  0.4095  0.5412
  493MOL0     C67914   7.864   1.079   7.109 -0.6083 -0.6000  0.7894
  493MOL0     C67915   7.971   1.118   7.182  0.0300  0.5063  0.1958
  493MOL0     C67916   8.022   1.258   7.211  0.1829  0.3109 -0.0153
  493MOL0     C67917   8.138   1.268   7.299  0.6621 -0.0058  0.1779
  493MOL0     C67918   8.279   1.269   7.238  0.4496 -0.4504  0.6484
  493MOL0     C67919   8.390   1.295   7.334 -0.5347  0.7914  1.2117
  493MOL0     O67920   8.404   1.440   7.351  0.1503  0.0486 -0.1758
  493MOL0     C67921   8.447   1.516   7.247 -0.6647  0.3742  0.6825
  493MOL0     C67922   8.577   1.518   7.216 -0.3372 -0.1372  0.1057
  493MOL0     C67923   8.629   1.609   7.129 -0.1234 -0.4987  0.1489
  493MOL0     C67924   8.787   1.601   7.115 -0.8764  0.4220 -0.0713
  493MOL0     C67925   8.539   1.695   7.056  0.0065 -0.3398  0.4175
  493MOL0     C67926   8.580   1.807   6.967  0.6050  0.1886  0.3791
  493MOL0     O67927   8.702   1.867   6.975  0.0420 -0.4121  0.0292
  493MOL0     C67928   8.747   1.966   6.895  0.3472 -1.0153  0.6298
  493MOL0     C67929   8.686   2.093   6.883  0.5484  0.6254 -0.1870
  493MOL0     C67930   8.746   2.195   6.812 -0.2226  0.2127 -0.2480
  493MOL0     C67931   8.867   2.172   6.747 -0.2786  0.1592 -0.4395
  493MOL0     O67932   8.941   2.260   6.668 -0.6120  0.2867  0.1868
  493MOL0     C67933   8.873   2.380   6.643 -0.1993  0.0306  0.2359
  493MOL0     C67934   8.969   2.476   6.586  0.4266 -0.7169  0.2097
  493MOL0     C67935   9.037   2.414   6.452 -0.8979  0.3577  0.2275
  493MOL0     C67936   8.939   2.404   6.328 -1.6250  0.6644 -0.6285
  493MOL0     C67937   8.988   2.303   6.214 -0.5019 -0.1944  1.1502
  493MOL0     C67938   8.971   2.160   6.269 -0.5133  0.0652 -0.2646
  493MOL0     C67939   8.987   2.051   6.159  0.5490 -0.4903 -0.0767
  493MOL0     C67940   8.927   1.919   6.213  1.3054  0.6322 -0.4245
  493MOL0    Cl67941   9.059   1.822   6.289 -0.1171 -0.5650 -0.0092
  493MOL0     C67942   8.929   2.049   6.752  0.6123 -0.3795  0.1323
  493MOL0     C67943   8.872   1.953   6.844  0.2214 -0.8030 -0.1739
  493MOL0     O67944   8.497   1.847   6.887 -0.0075  0.1913 -0.3518
  493MOL0     C67945   8.398   1.680   7.080 -0.1162 -0.5674  0.7377
  493MOL0     C67946   8.358   1.588   7.175 -0.1171 -0.9485 -0.5381
  493MOL0     N67947   8.042   1.005   7.219 -0.0288 -0.1177  0.2518
  493MOL0     N67948   7.980   0.893   7.173 -0.6365 -0.1047  0.3199
  493MOL0     C67949   8.018   0.349   6.257  0.4935 -0.3960  0.8341
  493MOL0     C67950   8.060   0.231   6.200  0.0261  0.0971 -0.1838
  493MOL0     C67951   8.342  -0.033   5.915  0.0387  0.0144  1.5817
  493MOL0     C67952   8.439  -0.018   5.812 -0.3981  0.2387 -0.4190
  493MOL0     C67953   8.455  -0.115   5.716  0.9547 -1.3863 -0.4709
  493MOL0     C67954   8.376  -0.227   5.699  0.1409  0.4389  0.5734
  493MOL0     O67955   8.383  -0.296   5.583  0.0681  0.4562  0.7610
  493MOL0     C67956   8.286  -0.397   5.544 -0.6074 -0.1866  0.5431
  493MOL0     C67957   8.336  -0.447   5.404  0.3516  0.2000  0.6940
  493MOL0     C67958   8.229  -0.518   5.324  0.1130  0.2962 -0.5548
  493MOL0     C67959   8.169  -0.627   5.403  0.0194 -0.0088 -0.3671
  493MOL0     C67960   8.078  -0.692   5.303  0.1678 -0.1406  0.2561
  493MOL0     C67961   8.024  -0.749   5.207 -0.8245  0.6049 -0.3054
  493MOL0     C67962   8.281  -0.248   5.806 -0.6581 -0.1297  0.5506
  493MOL0     C67963   8.259  -0.154   5.914 -0.0826 -0.4143  0.8162
  493MOL0     C67964   8.160  -0.191   6.020 -0.3976  0.1654 -1.3523
  493MOL0     H67965   8.381   0.240   6.293  0.9085  0.6253 -1.4464
  493MOL0     H67966   8.322   0.427   6.387  1.1622  1.7611 -2.5531
  493MOL0     H67967   8.223   0.635   6.437  0.1897 -0.6572 -0.7096
  493MOL0     H67968   8.138   0.551   6.573  0.4186  1.6279  0.7686
  493MOL0     H67969   8.042   0.800   6.440 -0.7315  1.8184  1.0843
  493MOL0     H67970   7.961   0.711   6.572 -2.1337  0.4555 -1.7125
  493MOL0     H67971   8.144   0.734   6.719 -0.7886  1.9503  1.6299
  493MOL0     H67972   8.235   0.826   6.595  0.2600  3.7163 -0.1519
  493MOL0     H67973   8.160   1.001   6.707 -0.5888 -0.2574  0.4954
  493MOL0     H67974   8.026   0.978   6.590 -0.8317 -0.9958 -0.0133
  493MOL0     H67975   7.951   1.032   6.826 -0.6036 -1.6319 -0.1141
  493MOL0     H67976   8.024   0.869   6.879  0.9344  2.9597  2.3106
  493MOL0     H67977   7.804   0.882   6.676  1.8298  3.3813 -1.0044
  493MOL0     H67978   7.868   0.759   6.774  0.7924  1.2288 -0.7214
  493MOL0     H67979   7.655   0.848   6.862 -1.6748  1.7541  1.2887
  493MOL0     H67980   7.718   1.006   6.893  1.6369  0.6744 -0.8995
  493MOL0     H67981   7.681   0.854   7.097  0.0709 -0.7481  1.4716
  493MOL0     H67982   7.801   0.748   7.026 -1.8026  0.8426 -3.1926
  493MOL0     H67983   7.796   1.143   7.053 -1.0068 -0.4305  1.4529
  493MOL0     H67984   7.938   1.306   7.263 -0.5776 -0.1803 -0.7508
  493MOL0     H67985   8.027   1.320   7.120 -1.4827  2.8252  1.4566
  493MOL0     H67986   8.135   1.370   7.338  0.6208 -0.2654  0.8684
  493MOL0     H67987   8.126   1.203   7.386 -0.0072 -2.1317 -1.4105
  493MOL0     H67988   8.290   1.166   7.204 -2.8562 -0.7071  0.0293
  493MOL0     H67989   8.276   1.334   7.150 -4.0151 -0.6213  0.4739
  493MOL0     H67990   8.367   1.248   7.429 -0.3366  1.7881  1.7698
  493MOL0     H67991   8.477   1.250   7.285 -0.2276  2.6082 -0.0433
  493MOL0     H67992   8.640   1.449   7.270  2.6037  1.4253 -1.0562
  493MOL0     H67993   8.821   1.528   7.041 -0.3014  2.1940 -1.6512
  493MOL0     H67994   8.828   1.558   7.207 -0.7129 -1.0408 -0.8050
  493MOL0     H67995   8.829   1.699   7.093 -0.7286 -0.3185 -3.5563
  493MOL0     H67996   8.587   2.105   6.925 -0.6499 -0.3527 -2.5320
  493MOL0     H67997   8.688   2.286   6.800  0.0371  0.2789 -1.0809
  493MOL0     H67998   8.787   2.366   6.577 -0.1859 -0.0122  0.2272
  493MOL0     H67999   8.841   2.438   6.731  1.5584  0.3972  0.6565
  493MOL0     H68000   8.919   2.565   6.545  3.3540  0.0047 -2.2178
  493MOL0     H68001   9.050   2.499   6.656  0.4053  1.7158 -0.4559
  493MOL0     H68002   9.074   2.314   6.478 -0.5217  0.8125  1.5630
  493MOL0     H68003   9.131   2.464   6.428 -0.6748 -0.8836 -1.6442
  493MOL0     H68004   8.948   2.509   6.300  0.0795  1.2678  1.8502
  493MOL0     H68005   8.838   2.378   6.363 -0.7513 -0.3860  1.2475
  493MOL0     H68006   8.933   2.321   6.122  2.3561  0.5968 -0.5343
  493MOL0     H68007   9.090   2.332   6.188 -1.0800  0.5095 -0.4108
  493MOL0     H68008   8.873   2.137   6.311  0.1953 -0.7375  0.9674
  493MOL0     H68009   9.048   2.142   6.344 -1.2685 -0.8523  0.3022
  493MOL0     H68010   9.089   2.027   6.127 -0.1539 -0.0175 -2.9225
  493MOL0     H68011   8.947   2.076   6.060 -1.8100 -1.1370  0.6552
  493MOL0     H68012   8.894   1.856   6.130  1.0382 -1.7549  1.3832
  493MOL0     H68013   8.839   1.940   6.275 -0.8090 -0.9114 -2.6746
  493MOL0     H68014   9.018   2.025   6.695  0.5753  0.3762 -0.2498
  493MOL0     H68015   8.928   1.860   6.848 -0.7775 -1.4053  0.0120
  493MOL0     H68016   8.318   1.729   7.027  0.2966  0.1488  0.7656
  493MOL0     H68017   8.252   1.583   7.197 -0.6291 -0.9060 -2.7365
  493MOL0     H68018   7.911   0.366   6.259  0.2251 -1.9349  0.9039
  493MOL0     H68019   7.983   0.174   6.150 -0.6783  0.6790  0.2028
  493MOL0     H68020   8.487   0.080   5.808 -3.1123  1.7161  0.4584
  493MOL0     H68021   8.530  -0.094   5.640  2.9048  1.6327  2.0789
  493MOL0     H68022   8.295  -0.489   5.602  2.2042  1.4468  2.9837
  493MOL0     H68023   8.182  -0.362   5.538 -0.0509  1.7027  1.2134
  493MOL0     H68024   8.432  -0.498   5.393  1.7170  2.9524 -1.2957
  493MOL0     H68025   8.362  -0.356   5.349  1.0564  0.2680  1.1295
  493MOL0     H68026   8.151  -0.443   5.306  0.1597  0.4033 -0.3171
  493MOL0     H68027   8.282  -0.553   5.235 -0.2576 -1.7795  0.0090
  493MOL0     H68028   8.099  -0.579   5.472 -1.4075  0.3456 -2.0027
  493MOL0     H68029   8.240  -0.700   5.444 -2.9676 -4.4499 -2.3633
  493MOL0     H68030   7.995  -0.813   5.126 -0.7070  1.3915 -0.9846
  493MOL0     H68031   8.216  -0.335   5.801 -1.0281  0.1974 -1.0459
  493MOL0     H68032   8.106  -0.285   6.007 -4.4095  2.1676 -0.7154
  493MOL0     H68033   8.219  -0.192   6.112 -1.3467 -0.0178 -0.7296
  493MOL0     H68034   8.091  -0.109   6.044  1.3346  1.1411  0.6622
  494MOL0     O68035   1.499   6.972   4.515 -0.4756 -0.0753 -0.1248
  494MOL0     C68036   1.500   6.985   4.391  0.3955  1.0274  0.1662
  494MOL0     O68037   1.515   6.870   4.305  0.1756 -0.7028 -0.6293
  494MOL0     C68038   1.533   6.742   4.366 -0.8700  0.3902 -0.0004
  494MOL0     C68039   1.659   6.670   4.372  0.2734 -0.7558  0.2917
  494MOL0     C68040   1.679   6.546   4.430 -0.3809  0.6628  0.7696
  494MOL0     C68041   1.571   6.490   4.497 -0.7749  0.4173  0.9219
  494MOL0     O68042   1.578   6.365   4.563 -0.5319 -0.2725  0.1081
  494MOL0     C68043   1.686   6.277   4.534 -0.2217  0.4601 -0.4216
  494MOL0     C68044   1.642   6.138   4.583 -0.5242 -0.2335  0.0224
  494MOL0     C68045   1.721   6.037   4.514  0.2025 -0.4823  0.5662
  494MOL0     C68046   1.695   5.895   4.572 -0.6674  0.0160  0.2432
  494MOL0     C68047   1.749   5.797   4.461 -0.0656  0.0596  0.7559
  494MOL0     C68048   1.753   5.655   4.528 -0.1229  0.1446 -1.0439
  494MOL0     C68049   1.752   5.540   4.424  0.5170  0.3827  0.2219
  494MOL0     C68050   1.807   5.416   4.501 -0.0181  0.6949 -0.0963
  494MOL0     N68051   1.821   5.304   4.401 -0.5339  0.3693 -0.0310
  494MOL0     C68052   1.817   5.171   4.427 -0.4181 -0.0935 -0.1415
  494MOL0     C68053   1.847   5.101   4.316  0.0860  0.2473  0.0115
  494MOL0     C68054   1.863   4.951   4.305  0.3193  0.6535 -0.4117
  494MOL0     C68055   1.865   4.882   4.172  1.0303 -0.3589 -0.0969
  494MOL0     C68056   1.872   4.729   4.198  0.8759  0.6535 -0.3825
  494MOL0     C68057   1.853   4.663   4.061  0.4169  0.0903 -0.4168
  494MOL0     O68058   1.711   4.651   4.042 -0.1831 -0.7558  0.2784
  494MOL0     C68059   1.678   4.558   3.948 -1.0095 -0.1257  0.0899
  494MOL0     C68060   1.636   4.432   3.967 -0.3945  0.3192  0.7452
  494MOL0     C68061   1.620   4.332   3.867  0.6201  0.5002  0.4363
  494MOL0     C68062   1.574   4.195   3.918  0.1403 -0.6004  0.6362
  494MOL0     C68063   1.632   4.374   3.728 -0.1740 -0.0668  0.6332
  494MOL0     C68064   1.623   4.278   3.618 -0.4982 -0.5229  0.1653
  494MOL0     O68065   1.640   4.327   3.491 -0.0647  0.0078  0.2763
  494MOL0     C68066   1.613   4.263   3.375  0.0563  0.1167  0.0343
  494MOL0     C68067   1.654   4.328   3.259  0.0780  0.0720  0.1358
  494MOL0     C68068   1.632   4.272   3.128  0.2253  0.4269  0.1041
  494MOL0     C68069   1.571   4.140   3.112  0.1205 -0.0574 -0.6330
  494MOL0     O68070   1.558   4.074   2.996  0.0876 -0.1819  0.0633
  494MOL0     C68071   1.462   4.142   2.908  0.4803 -0.7568 -0.1295
  494MOL0     C68072   1.428   4.053   2.781 -0.7764  0.2935 -0.4076
  494MOL0     C68073   1.550   4.021   2.699  0.0896  0.5078  0.7184
  494MOL0     C68074   1.562   4.101   2.573  0.5929  0.3967 -0.1241
  494MOL0     C68075   1.686   4.072   2.487  0.5237 -0.1438 -0.5533
  494MOL0     C68076   1.677   4.147   2.352  0.8400 -0.5058 -0.4440
  494MOL0     C68077   1.808   4.111   2.276 -0.3591 -0.0568 -0.6107
  494MOL0     C68078   1.946   4.176   2.319 -0.2232  0.1954  0.6434
  494MOL0    Cl68079   2.062   4.157   2.188 -0.4996  0.0534 -0.5830
  494MOL0     C68080   1.534   4.080   3.237  1.3636  0.5965 -0.6036
  494MOL0     C68081   1.552   4.140   3.366  0.7725 -0.2555  1.1903
  494MOL0     O68082   1.609   4.160   3.651 -0.0356 -0.3480  0.3207
  494MOL0     C68083   1.669   4.512   3.710  0.2066 -0.2974  0.4825
  494MOL0     C68084   1.708   4.597   3.812  0.6703 -0.1336  0.1623
  494MOL0     N68085   1.849   5.199   4.216 -0.0725  0.0640 -0.2424
  494MOL0     N68086   1.846   5.319   4.263 -0.2813  0.3903  0.1431
  494MOL0     C68087   1.451   6.558   4.498  0.6940  0.4173 -0.5130
  494MOL0     C68088   1.432   6.674   4.426 -0.1280 -0.0704 -0.7447
  494MOL0     C68089   1.497   7.124   4.324  0.5090 -0.7516  0.6611
  494MOL0     C68090   1.403   7.140   4.224 -0.0767 -0.1502 -0.4533
  494MOL0     C68091   1.392   7.262   4.163 -0.0329  0.5006 -0.3414
  494MOL0     C68092   1.476   7.366   4.206  0.2521 -0.5740 -0.0814
  494MOL0     O68093   1.458   7.488   4.144  0.9493 -0.6082  0.7737
  494MOL0     C68094   1.357   7.520   4.036 -0.1405 -0.4882 -0.8889
  494MOL0     C68095   1.444   7.604   3.945 -0.1091  0.6420  0.1339
  494MOL0     C68096   1.363   7.632   3.811 -0.1305  0.3131 -0.5321
  494MOL0     C68097   1.459   7.685   3.714 -1.6110  0.8008  0.2177
  494MOL0     C68098   1.543   7.574   3.660 -0.0443 -0.2794 -0.2410
  494MOL0     C68099   1.616   7.497   3.616  0.0467  0.2246 -0.4344
  494MOL0     C68100   1.573   7.352   4.312  0.4842 -0.6796 -0.2636
  494MOL0     C68101   1.577   7.231   4.376  0.0655  0.4497  0.5530
  494MOL0     C68102   1.685   7.208   4.477 -0.9026 -0.1402 -0.1321
  494MOL0     H68103   1.755   6.710   4.344  0.3047 -1.6695 -1.0058
  494MOL0     H68104   1.776   6.496   4.425 -0.8786 -0.2241 -1.8875
  494MOL0     H68105   1.780   6.304   4.582  1.6914 -3.7628 -1.3894
  494MOL0     H68106   1.701   6.278   4.425  1.2088 -1.7487 -0.2812
  494MOL0     H68107   1.653   6.130   4.691 -1.1684 -1.6359  0.0062
  494MOL0     H68108   1.533   6.129   4.573 -0.5874  0.2585  0.2463
  494MOL0     H68109   1.698   6.040   4.407  0.9427  1.3309  0.4085
  494MOL0     H68110   1.829   6.051   4.528  0.0242  1.3041  0.3630
  494MOL0     H68111   1.766   5.882   4.654  0.5928 -0.1355 -0.8161
  494MOL0     H68112   1.593   5.874   4.605 -0.1397 -1.4976  1.0388
  494MOL0     H68113   1.846   5.833   4.426  1.2347 -2.1598  1.8535
  494MOL0     H68114   1.680   5.793   4.376 -0.1410 -2.2044  0.8544
  494MOL0     H68115   1.852   5.648   4.573 -1.5301 -2.0905  2.0238
  494MOL0     H68116   1.670   5.639   4.598  0.1274 -0.4317 -0.8742
  494MOL0     H68117   1.804   5.574   4.334 -1.7213  4.1202  0.1448
  494MOL0     H68118   1.653   5.517   4.383 -0.0256  2.7064  0.0676
  494MOL0     H68119   1.901   5.437   4.552 -1.5223 -0.2368  3.3015
  494MOL0     H68120   1.735   5.384   4.576 -0.2797 -1.7870 -1.3148
  494MOL0     H68121   1.810   5.119   4.522  2.8361 -0.3726  0.0447
  494MOL0     H68122   1.774   4.912   4.355 -0.3807  1.1057 -1.2872
  494MOL0     H68123   1.956   4.928   4.359  0.5155  1.4314 -0.4114
  494MOL0     H68124   1.775   4.907   4.115  2.2727  0.6122 -1.7154
  494MOL0     H68125   1.948   4.925   4.116  1.5047 -1.6518 -0.4157
  494MOL0     H68126   1.968   4.717   4.248  0.7604 -1.0059 -0.5155
  494MOL0     H68127   1.806   4.685   4.273  2.0564 -0.2304  0.1714
  494MOL0     H68128   1.906   4.714   3.980  0.6525  0.0879 -0.2644
  494MOL0     H68129   1.894   4.561   4.067  3.4276  1.1714 -1.0498
  494MOL0     H68130   1.611   4.398   4.067  0.6043 -1.0306  0.5513
  494MOL0     H68131   1.558   4.201   4.026  0.0782 -1.3170  0.6705
  494MOL0     H68132   1.640   4.111   3.897 -0.7363 -1.9000  2.7220
  494MOL0     H68133   1.481   4.165   3.869  0.3483  3.8751 -3.2159
  494MOL0     H68134   1.694   4.429   3.265  0.5715 -0.0638 -0.7090
  494MOL0     H68135   1.657   4.334   3.043  2.3726 -0.2129  0.2055
  494MOL0     H68136   1.365   4.172   2.950  0.5943  2.4949 -1.9007
  494MOL0     H68137   1.513   4.229   2.867  2.7130 -1.3046  1.2945
  494MOL0     H68138   1.391   3.957   2.818  3.1481  0.2455  4.5711
  494MOL0     H68139   1.356   4.115   2.727 -0.3502  3.8412  2.7123
  494MOL0     H68140   1.537   3.917   2.668  1.2768  0.2079  1.2013
  494MOL0     H68141   1.646   4.023   2.751  0.4874 -3.9903  0.5051
  494MOL0     H68142   1.561   4.207   2.599 -3.1401  0.1241  1.3970
  494MOL0     H68143   1.471   4.091   2.513  0.9921 -1.0674 -0.5264
  494MOL0     H68144   1.774   4.097   2.547  1.8592 -0.3117 -2.3801
  494MOL0     H68145   1.676   3.966   2.463 -0.5111  0.3860 -2.7669
  494MOL0     H68146   1.665   4.254   2.371  1.0081 -0.4596 -0.5904
  494MOL0     H68147   1.592   4.113   2.292  1.1354 -1.7269 -0.2078
  494MOL0     H68148   1.802   4.134   2.169 -0.4883 -0.1008 -0.6129
  494MOL0     H68149   1.840   4.007   2.286  1.1428  0.4511  0.2682
  494MOL0     H68150   1.981   4.118   2.405 -0.0115 -1.1357 -0.3052
  494MOL0     H68151   1.940   4.278   2.359  0.2612  0.9031 -1.0027
  494MOL0     H68152   1.489   3.982   3.220  2.5798 -0.0363 -0.2789
  494MOL0     H68153   1.513   4.082   3.449  0.1974 -0.5048  0.7546
  494MOL0     H68154   1.686   4.542   3.607 -0.8054  0.4610  0.5268
  494MOL0     H68155   1.759   4.689   3.788  0.1370 -0.1340 -1.1016
  494MOL0     H68156   1.371   6.514   4.557  1.0549 -0.6022 -0.7625
  494MOL0     H68157   1.333   6.716   4.435 -0.0821 -0.0472 -0.2943
  494MOL0     H68158   1.343   7.057   4.188 -1.8617  0.1810  1.5765
  494MOL0     H68159   1.319   7.262   4.082 -1.0878 -6.2619  0.0471
  494MOL0     H68160   1.306   7.436   3.989 -1.7715  0.1160 -0.2836
  494MOL0     H68161   1.276   7.584   4.074  0.1846 -0.5830 -0.0165
  494MOL0     H68162   1.534   7.544   3.925 -1.5385 -1.7450  0.4560
  494MOL0     H68163   1.471   7.691   4.006 -0.9275  0.3331  0.9660
  494MOL0     H68164   1.310   7.544   3.773  0.3106  0.3202 -1.1570
  494MOL0     H68165   1.281   7.702   3.833 -0.1226 -0.2407  1.4946
  494MOL0     H68166   1.514   7.769   3.759 -0.5503  1.9638 -2.9548
  494MOL0     H68167   1.399   7.717   3.628 -1.5386 -2.1647 -1.0316
  494MOL0     H68168   1.690   7.421   3.599 -1.0136 -1.4607  1.8367
  494MOL0     H68169   1.638   7.437   4.333 -1.8622  0.3637  3.8813
  494MOL0     H68170   1.705   7.101   4.489 -0.0557  0.1878  1.7207
  494MOL0     H68171   1.777   7.258   4.447  0.9526 -1.5524  2.6673
  494MOL0     H68172   1.662   7.253   4.574 -3.7498  0.5584 -1.0099
  495MOL0     O68173   2.567   0.073   5.278  0.0010  0.2443 -0.0585
  495MOL0     C68174   2.649   0.113   5.367  0.8110 -0.2647 -0.1284
  495MOL0     O68175   2.773   0.067   5.390 -0.1584 -0.3056  0.5101
  495MOL0     C68176   2.820  -0.029   5.307  0.6068  0.2516  0.3376
  495MOL0     C68177   2.764  -0.159   5.302 -0.7686 -0.6982 -0.1245
  495MOL0     C68178   2.827  -0.259   5.228 -0.2873  0.7139  0.0904
  495MOL0     C68179   2.919  -0.220   5.129 -0.2501 -0.3055  0.4101
  495MOL0     O68180   2.958  -0.317   5.047 -0.1560  0.0410  0.4688
  495MOL0     C68181   2.914  -0.297   4.920 -0.5428  0.2280 -0.6717
  495MOL0     C68182   2.847  -0.417   4.861  0.0175  0.3607  0.2211
  495MOL0     C68183   2.772  -0.378   4.735 -0.6681  0.1562  0.6281
  495MOL0     C68184   2.873  -0.377   4.618 -0.3468  0.1985  0.3987
  495MOL0     C68185   2.823  -0.350   4.478  0.5150 -0.0964 -0.3244
  495MOL0     C68186   2.747  -0.462   4.418  0.9541 -0.4019  0.4598
  495MOL0     C68187   2.728  -0.432   4.265 -0.4594 -0.0924  0.7661
  495MOL0     C68188   2.612  -0.511   4.200  0.7119  0.1065 -0.6511
  495MOL0     N68189   2.638  -0.512   4.053 -0.1865  0.0962 -0.2539
  495MOL0     C68190   2.645  -0.624   3.976 -0.6555  0.2222  0.4771
  495MOL0     C68191   2.652  -0.585   3.841 -0.0703  0.3725  0.6640
  495MOL0     C68192   2.645  -0.667   3.714 -0.7103  0.5296 -0.0914
  495MOL0     C68193   2.499  -0.682   3.653 -0.6706  0.3959 -0.9509
  495MOL0     C68194   2.509  -0.738   3.516  0.8539  0.2643 -1.0018
  495MOL0     C68195   2.411  -0.847   3.488 -1.4486 -0.7925 -0.7671
  495MOL0     O68196   2.447  -0.912   3.370  0.3065  0.2024  0.3119
  495MOL0     C68197   2.370  -1.015   3.329  0.0841 -0.2009 -0.3245
  495MOL0     C68198   2.270  -1.075   3.391 -1.0327  0.4705 -0.0470
  495MOL0     C68199   2.189  -1.173   3.329  0.1476 -0.0705 -0.0786
  495MOL0     C68200   2.076  -1.228   3.409 -0.3679 -0.2522  0.8444
  495MOL0     C68201   2.235  -1.222   3.203  0.3939 -0.9911  0.1189
  495MOL0     C68202   2.186  -1.339   3.126 -0.3616 -0.0499  0.6176
  495MOL0     O68203   2.253  -1.357   3.013  0.0623  0.7027  0.2955
  495MOL0     C68204   2.196  -1.434   2.913  0.1792 -1.0116  0.3957
  495MOL0     C68205   2.065  -1.421   2.865 -0.7537  0.0253  0.5176
  495MOL0     C68206   2.026  -1.471   2.744  0.3523 -0.2401  0.8247
  495MOL0     C68207   2.103  -1.569   2.679  0.5508 -0.2147  0.8205
  495MOL0     O68208   2.062  -1.632   2.564  0.3484 -0.4706 -0.8482
  495MOL0     C68209   1.958  -1.551   2.485  0.0176  0.1188 -0.2368
  495MOL0     C68210   1.940  -1.598   2.341 -0.6424  1.1258  0.0920
  495MOL0     C68211   1.843  -1.719   2.309 -0.2629  0.0536 -0.3448
  495MOL0     C68212   1.861  -1.756   2.165 -0.4934  0.4281  0.0063
  495MOL0     C68213   1.739  -1.834   2.100 -0.2878 -0.1807  0.0441
  495MOL0     C68214   1.603  -1.757   2.103 -0.4041  0.0378 -0.8986
  495MOL0     C68215   1.496  -1.843   2.030  0.0384 -0.5102  0.2981
  495MOL0     C68216   1.355  -1.785   2.060 -0.1442  0.8201 -0.2600
  495MOL0    Cl68217   1.230  -1.820   1.929 -0.0098 -0.1213  0.5238
  495MOL0     C68218   2.236  -1.587   2.727  0.8025  0.1538 -0.0918
  495MOL0     C68219   2.288  -1.523   2.847 -0.1677  0.9768  0.7075
  495MOL0     O68220   2.096  -1.415   3.163  0.2606 -0.1845 -0.9156
  495MOL0     C68221   2.340  -1.152   3.139  0.3181 -0.5262  0.4492
  495MOL0     C68222   2.404  -1.053   3.199 -0.0406 -1.0933  1.1265
  495MOL0     N68223   2.621  -0.451   3.839  0.1798 -0.1391  0.2579
  495MOL0     N68224   2.623  -0.411   3.966  0.1697  0.4167 -0.3950
  495MOL0     C68225   2.964  -0.085   5.125 -1.0992 -0.7840 -0.8018
  495MOL0     C68226   2.917   0.006   5.212 -0.3146  0.1353  0.2531
  495MOL0     C68227   2.595   0.224   5.449  1.3392  0.4564  0.4897
  495MOL0     C68228   2.454   0.252   5.455  0.3210  0.3318 -0.4378
  495MOL0     C68229   2.395   0.353   5.530  0.6923  0.9589 -0.3062
  495MOL0     C68230   2.475   0.432   5.619 -0.3082  0.4204 -0.3247
  495MOL0     O68231   2.423   0.533   5.697 -0.0907 -0.3779 -0.2435
  495MOL0     C68232   2.306   0.510   5.779 -0.3635 -0.8940  0.8283
  495MOL0     C68233   2.337   0.485   5.921  0.5088  0.4987  0.3593
  495MOL0     C68234   2.393   0.349   5.961  0.4438 -0.8113  1.2054
  495MOL0     C68235   2.342   0.321   6.101 -0.3680  0.5637  0.8981
  495MOL0     C68236   2.384   0.175   6.121  0.6850  1.0796  0.0307
  495MOL0     C68237   2.412   0.059   6.154 -0.3601 -0.1205  0.4058
  495MOL0     C68238   2.606   0.403   5.619  0.2541 -0.0779  0.0070
  495MOL0     C68239   2.668   0.299   5.543 -0.7086 -0.1472  0.4646
  495MOL0     C68240   2.823   0.281   5.559 -0.3377  1.2844  0.3057
  495MOL0     H68241   2.683  -0.171   5.374 -2.4056 -0.4141 -1.8305
  495MOL0     H68242   2.793  -0.362   5.231 -0.0441  0.5959 -0.7542
  495MOL0     H68243   3.003  -0.269   4.862  0.9224  0.3087  1.5028
  495MOL0     H68244   2.850  -0.210   4.902  0.3454  0.2773 -4.4459
  495MOL0     H68245   2.916  -0.497   4.834 -2.2743 -1.5054 -0.3571
  495MOL0     H68246   2.776  -0.448   4.938 -0.2427 -0.1944 -0.2370
  495MOL0     H68247   2.695  -0.452   4.712  0.1980 -0.6294  0.1742
  495MOL0     H68248   2.720  -0.283   4.745  1.3056  1.3347  0.2624
  495MOL0     H68249   2.948  -0.301   4.639  0.1204 -0.3179  0.6023
  495MOL0     H68250   2.927  -0.472   4.613  1.1411  1.0469 -0.1331
  495MOL0     H68251   2.899  -0.317   4.407  1.1225 -0.1513  0.2868
  495MOL0     H68252   2.752  -0.266   4.480 -0.0019 -0.4441  3.5193
  495MOL0     H68253   2.786  -0.563   4.432  1.1201 -0.2066  1.5112
  495MOL0     H68254   2.646  -0.467   4.460  0.6597 -0.6820 -0.2691
  495MOL0     H68255   2.817  -0.457   4.206 -1.2003  2.1587 -1.4642
  495MOL0     H68256   2.695  -0.330   4.244 -3.1487 -0.9773  0.3500
  495MOL0     H68257   2.626  -0.613   4.236 -1.0781  0.0689  0.0884
  495MOL0     H68258   2.510  -0.474   4.218 -0.1486 -2.1301 -0.6814
  495MOL0     H68259   2.662  -0.725   4.010  3.3393  1.2888  2.2565
  495MOL0     H68260   2.695  -0.762   3.736 -0.1562  0.4054 -1.7258
  495MOL0     H68261   2.702  -0.620   3.634  0.1866  0.2644  0.3741
  495MOL0     H68262   2.450  -0.754   3.719  2.0216  1.9958  3.1615
  495MOL0     H68263   2.444  -0.588   3.643 -5.5069 -1.7811  1.7995
  495MOL0     H68264   2.479  -0.667   3.438  0.5513 -1.0649 -2.1477
  495MOL0     H68265   2.611  -0.770   3.494  1.1011  1.4710 -1.6778
  495MOL0     H68266   2.413  -0.914   3.575  0.2712 -0.8607 -0.8365
  495MOL0     H68267   2.312  -0.802   3.477 -2.4877 -2.5644  0.7519
  495MOL0     H68268   2.243  -1.035   3.488 -0.7289 -0.7209  0.5427
  495MOL0     H68269   2.097  -1.327   3.451  0.6804 -0.1959  0.4876
  495MOL0     H68270   1.978  -1.232   3.361 -0.5701  0.2753  1.2101
  495MOL0     H68271   2.062  -1.157   3.491  2.6487 -0.5363  1.7335
  495MOL0     H68272   1.997  -1.353   2.915  2.1861  2.3658  1.5964
  495MOL0     H68273   1.926  -1.439   2.716 -0.8936 -1.1884  3.7535
  495MOL0     H68274   1.858  -1.558   2.529  1.0701 -0.6281  2.2192
  495MOL0     H68275   1.988  -1.446   2.488  1.3777 -0.2607  1.9081
  495MOL0     H68276   1.898  -1.511   2.290  0.0342  1.5303  0.2152
  495MOL0     H68277   2.034  -1.624   2.290 -3.2685 -3.4542 -3.1987
  495MOL0     H68278   1.738  -1.693   2.325  0.1920  3.7234 -2.4184
  495MOL0     H68279   1.859  -1.810   2.369  1.8145  1.8618  2.0948
  495MOL0     H68280   1.961  -1.794   2.141 -0.5429 -0.6072  1.3020
  495MOL0     H68281   1.857  -1.664   2.106 -0.3288  0.3508 -0.1251
  495MOL0     H68282   1.761  -1.866   1.998 -0.1182  0.9821 -0.2963
  495MOL0     H68283   1.736  -1.929   2.156  0.8242 -2.0052 -2.7495
  495MOL0     H68284   1.610  -1.663   2.048  0.9419 -0.0689 -0.9330
  495MOL0     H68285   1.583  -1.727   2.206  1.4663 -2.1527  0.1981
  495MOL0     H68286   1.509  -1.946   2.067 -0.3805 -0.9045 -0.6421
  495MOL0     H68287   1.512  -1.835   1.922 -2.2914  1.5724  0.0403
  495MOL0     H68288   1.365  -1.677   2.075 -1.3477  1.1859 -1.9093
  495MOL0     H68289   1.327  -1.832   2.155  4.6548 -2.7285 -0.2310
  495MOL0     H68290   2.276  -1.674   2.676 -2.1909 -2.4678  1.6124
  495MOL0     H68291   2.389  -1.540   2.881  2.5702  3.8155 -4.7835
  495MOL0     H68292   2.383  -1.181   3.043 -2.0408  0.4055 -0.9609
  495MOL0     H68293   2.483  -1.009   3.139 -0.3587  1.5472  2.4956
  495MOL0     H68294   3.026  -0.053   5.042 -2.5238 -0.1086 -1.6397
  495MOL0     H68295   2.961   0.104   5.198  0.2588 -0.1023  0.3505
  495MOL0     H68296   2.386   0.192   5.394  0.3714  0.4508 -0.6131
  495MOL0     H68297   2.290   0.378   5.526  0.8475  1.4405 -2.9046
  495MOL0     H68298   2.253   0.605   5.776  1.5712  0.2970 -2.8300
  495MOL0     H68299   2.244   0.429   5.739 -0.4711 -0.6356  0.4652
  495MOL0     H68300   2.248   0.510   5.978 -0.3619  2.5668 -1.7352
  495MOL0     H68301   2.406   0.562   5.959 -1.0677  1.3434  1.5894
  495MOL0     H68302   2.359   0.276   5.888 -3.7513 -0.3816  2.4440
  495MOL0     H68303   2.502   0.347   5.963  0.6134  0.0510 -2.2195
  495MOL0     H68304   2.237   0.346   6.112 -0.2566  1.6376 -0.1756
  495MOL0     H68305   2.409   0.383   6.161  1.4552  1.8054 -2.1309
  495MOL0     H68306   2.446  -0.038   6.185  3.2739  0.9301  0.1340
  495MOL0     H68307   2.659   0.459   5.694 -0.0147 -2.0196  1.7322
  495MOL0     H68308   2.860   0.361   5.624  3.3155 -0.2328  0.3305
  495MOL0     H68309   2.835   0.193   5.624 -2.2705  1.0785  0.4551
  495MOL0     H68310   2.881   0.274   5.467  0.7196 -2.7506  1.0625
  496MOL0     O68311   8.851   6.636   9.990  0.1900  0.2771  0.0398
  496MOL0     C68312   8.775   6.648   9.889 -0.0045 -0.5807 -0.2397
  496MOL0     O68313   8.724   6.547   9.813 -0.2396  0.3688 -0.7534
  496MOL0     C68314   8.771   6.418   9.847  0.6466 -0.8211  0.3976
  496MOL0     C68315   8.680   6.342   9.920 -0.0638 -0.7770  0.9022
  496MOL0     C68316   8.728   6.217   9.957 -0.1665  0.5259  0.1212
  496MOL0     C68317   8.849   6.167   9.920 -0.2367 -1.0153  0.2569
  496MOL0     O68318   8.896   6.053   9.975  0.4192  0.1779 -0.6303
  496MOL0     C68319   8.932   5.947   9.877 -0.1976 -1.4684  0.2622
  496MOL0     C68320   9.073   5.942   9.814  1.1827  0.4580  1.1734
  496MOL0     C68321   9.182   5.955   9.922 -0.1723 -0.0219 -0.2719
  496MOL0     C68322   9.323   5.929   9.851  0.0775  0.0569 -0.1496
  496MOL0     C68323   9.445   6.010   9.895  0.7772 -0.0999  0.8649
  496MOL0     C68324   9.476   6.014  10.038  0.1049 -0.1921  0.0020
  496MOL0     C68325   9.484   5.870  10.102 -0.1037  0.7561  0.2046
  496MOL0     C68326   9.514   5.885  10.241  0.7493  0.9116  0.3129
  496MOL0     N68327   9.547   5.759  10.300  0.0358 -0.9606 -1.1125
  496MOL0     C68328   9.464   5.703  10.397 -0.6151 -0.1179  1.2525
  496MOL0     C68329   9.536   5.597  10.453 -0.1624 -0.6427  0.1563
  496MOL0     C68330   9.490   5.504  10.562  0.0964 -0.6747  0.8957
  496MOL0     C68331   9.392   5.399  10.506  0.0323  0.1211  0.9712
  496MOL0     C68332   9.251   5.466  10.527  0.3393  0.8556  0.4870
  496MOL0     C68333   9.145   5.382  10.478  0.2922  0.2705 -0.2707
  496MOL0     O68334   9.155   5.372  10.339 -0.1258 -0.2349  0.2066
  496MOL0     C68335   9.070   5.297  10.264 -0.4816 -0.2248 -0.5567
  496MOL0     C68336   8.935   5.263  10.298 -0.4225  0.3576  0.1107
  496MOL0     C68337   8.849   5.187  10.213 -0.4169 -0.4224 -0.1833
  496MOL0     C68338   8.706   5.165  10.270 -0.5343 -0.1068  0.8002
  496MOL0     C68339   8.888   5.162  10.075  0.0213  0.3352 -0.5293
  496MOL0     C68340   8.808   5.073   9.971 -0.1988 -0.0267  0.2145
  496MOL0     O68341   8.670   5.082   9.969 -0.2129  0.1130  0.4086
  496MOL0     C68342   8.600   4.989   9.899  0.3835 -1.2435 -0.1405
  496MOL0     C68343   8.481   5.022   9.831 -0.2950 -0.2216 -0.9077
  496MOL0     C68344   8.398   4.919   9.774 -0.8790 -0.6871  0.9776
  496MOL0     C68345   8.432   4.790   9.774  0.7616 -0.4096  0.3471
  496MOL0     O68346   8.343   4.694   9.720 -0.3820  0.2480  0.7438
  496MOL0     C68347   8.402   4.583   9.659 -0.1066  0.2203  0.4128
  496MOL0     C68348   8.308   4.526   9.551  0.5404 -0.1239 -0.2569
  496MOL0     C68349   8.368   4.422   9.449 -0.9591  0.0745 -0.0342
  496MOL0     C68350   8.499   4.476   9.394  0.0270 -0.1749  0.1501
  496MOL0     C68351   8.540   4.409   9.258 -0.2966 -0.0984  0.1722
  496MOL0     C68352   8.697   4.412   9.233 -0.0039  0.9121  0.0115
  496MOL0     C68353   8.738   4.305   9.122 -0.4172  0.9604  0.4465
  496MOL0     C68354   8.762   4.378   8.991  0.0658 -0.7029 -0.2622
  496MOL0    Cl68355   8.636   4.492   8.934 -0.2232  0.1951  0.3251
  496MOL0     C68356   8.546   4.751   9.848  0.2534  0.3348  0.3113
  496MOL0     C68357   8.631   4.852   9.906  0.2264  0.0925 -1.4908
  496MOL0     O68358   8.876   5.021   9.878  0.3798  0.2023  0.4574
  496MOL0     C68359   9.025   5.205  10.041 -0.1817  0.4295 -0.1416
  496MOL0     C68360   9.111   5.263  10.132 -0.7897  0.2506  0.3072
  496MOL0     N68361   9.662   5.600  10.382  0.1478 -1.3627 -0.4217
  496MOL0     N68362   9.668   5.706  10.303 -0.1416  0.2463  0.2591
  496MOL0     C68363   8.932   6.245   9.833  0.4802  0.9612  0.5899
  496MOL0     C68364   8.879   6.368   9.790 -0.6692  0.6246 -0.2551
  496MOL0     C68365   8.744   6.785   9.831  0.5240 -0.9447  0.7748
  496MOL0     C68366   8.729   6.796   9.695  0.6541  0.8740  0.3656
  496MOL0     C68367   8.694   6.904   9.623  0.4201  0.5309 -0.3823
  496MOL0     C68368   8.692   7.024   9.694  1.2144  0.4396  0.6405
  496MOL0     O68369   8.654   7.143   9.636  0.6528 -0.2279  0.1633
  496MOL0     C68370   8.606   7.156   9.505  0.5945 -0.3824  0.2264
  496MOL0     C68371   8.601   7.297   9.439  0.6418 -0.5958 -0.5557
  496MOL0     C68372   8.478   7.371   9.481  0.7519 -0.2744 -0.5018
  496MOL0     C68373   8.474   7.508   9.419 -0.0944 -1.2797  0.1605
  496MOL0     C68374   8.605   7.582   9.415  0.1623  0.0425  0.4762
  496MOL0     C68375   8.713   7.643   9.438  0.2713  0.7396 -0.5058
  496MOL0     C68376   8.721   7.034   9.832  0.3579  1.1523  0.1676
  496MOL0     C68377   8.749   6.915   9.903  0.1067  0.2280 -0.2466
  496MOL0     C68378   8.755   6.922  10.052  0.3030  0.3346 -0.0093
  496MOL0     H68379   8.585   6.372   9.965  0.4861 -1.2837  2.4689
  496MOL0     H68380   8.670   6.158  10.026  2.9416 -1.3688  1.3165
  496MOL0     H68381   8.854   5.941   9.801  0.0704 -3.6705  0.1029
  496MOL0     H68382   8.921   5.856   9.936 -0.8797 -1.6921 -0.1943
  496MOL0     H68383   9.086   5.842   9.771  0.2360 -0.2173  2.3914
  496MOL0     H68384   9.083   6.008   9.727 -3.9993 -0.8047 -0.7901
  496MOL0     H68385   9.184   6.057   9.961  0.1790 -0.7184  1.6507
  496MOL0     H68386   9.173   5.882  10.003  1.3720 -1.8490 -1.6547
  496MOL0     H68387   9.335   5.823   9.873 -1.5784 -0.4849 -1.6217
  496MOL0     H68388   9.309   5.921   9.743  1.4515 -1.0854 -0.2729
  496MOL0     H68389   9.437   6.113   9.859  2.5714 -0.0015  0.6630
  496MOL0     H68390   9.533   5.963   9.849 -1.6923 -2.5804 -1.7416
  496MOL0     H68391   9.571   6.067  10.045  0.0856  0.1131 -1.6819
  496MOL0     H68392   9.399   6.073  10.088 -1.5659 -2.4082  0.2244
  496MOL0     H68393   9.560   5.808  10.053 -1.1202  0.5835 -1.2361
  496MOL0     H68394   9.386   5.822  10.090  0.9861 -1.8466  0.9906
  496MOL0     H68395   9.595   5.952  10.270  2.2180 -1.2314  1.4757
  496MOL0     H68396   9.422   5.919  10.290  0.6014 -0.7262  1.2434
  496MOL0     H68397   9.361   5.734  10.412 -0.5975  1.4672 -1.2431
  496MOL0     H68398   9.450   5.567  10.642  0.4910 -1.0072  1.3609
  496MOL0     H68399   9.575   5.451  10.606  1.6734  0.7960 -0.2615
  496MOL0     H68400   9.405   5.390  10.398  1.5900 -0.0736  1.1553
  496MOL0     H68401   9.417   5.307  10.559  1.7959 -0.0939 -0.1464
  496MOL0     H68402   9.227   5.485  10.631  0.4331 -0.3122  0.7390
  496MOL0     H68403   9.245   5.562  10.474 -1.5854  0.0277 -0.8949
  496MOL0     H68404   9.151   5.279  10.513 -1.3869  0.5590  1.0000
  496MOL0     H68405   9.057   5.426  10.525 -0.1751 -0.7638 -0.1547
  496MOL0     H68406   8.896   5.305  10.390  1.8596 -1.3563  1.9983
  496MOL0     H68407   8.690   5.057  10.268  0.1861 -0.2141  0.6080
  496MOL0     H68408   8.627   5.223  10.220  0.5501  0.1611 -0.6589
  496MOL0     H68409   8.721   5.186  10.376 -2.8132 -0.5388  1.2653
  496MOL0     H68410   8.440   5.122   9.815 -0.8922 -0.6050 -1.8715
  496MOL0     H68411   8.310   4.943   9.715 -0.3372 -0.9482  0.0426
  496MOL0     H68412   8.502   4.603   9.620  1.0907 -2.6585  1.6953
  496MOL0     H68413   8.408   4.502   9.732  0.1674  0.3262  0.5082
  496MOL0     H68414   8.218   4.480   9.594  1.1065  0.1621  1.3068
  496MOL0     H68415   8.283   4.617   9.496  0.2312  0.2614  0.4982
  496MOL0     H68416   8.296   4.402   9.368  0.0583  0.7915 -1.1555
  496MOL0     H68417   8.394   4.328   9.499  3.2481  0.1166 -1.7487
  496MOL0     H68418   8.584   4.464   9.462  0.0272 -1.8105 -0.0978
  496MOL0     H68419   8.496   4.584   9.372 -1.1546 -0.2643 -0.1997
  496MOL0     H68420   8.512   4.303   9.261 -1.1655  0.1457  0.9302
  496MOL0     H68421   8.483   4.449   9.174 -1.6835 -1.9439  0.1647
  496MOL0     H68422   8.737   4.368   9.324  0.8956 -1.4258 -1.4149
  496MOL0     H68423   8.737   4.514   9.239 -0.2179  0.9391  1.3015
  496MOL0     H68424   8.660   4.228   9.123  1.2728 -0.8377  2.5918
  496MOL0     H68425   8.830   4.256   9.154  2.4282  3.6368 -2.7316
  496MOL0     H68426   8.788   4.300   8.920 -1.9191 -0.9667 -0.7490
  496MOL0     H68427   8.855   4.435   9.003 -0.4486 -0.1962  1.7242
  496MOL0     H68428   8.565   4.649   9.880  0.2018  0.9946  2.6357
  496MOL0     H68429   8.719   4.817   9.960  0.0964  0.6190 -0.9211
  496MOL0     H68430   9.067   5.185   9.943  2.0254 -0.9606  1.0073
  496MOL0     H68431   9.206   5.290  10.087  0.7322 -0.5763  2.7906
  496MOL0     H68432   9.032   6.215   9.802  0.4717  0.3056  1.1831
  496MOL0     H68433   8.937   6.439   9.732 -1.6404  2.2857  0.7052
  496MOL0     H68434   8.750   6.708   9.635 -0.5643 -0.0824  1.2828
  496MOL0     H68435   8.683   6.911   9.515 -0.6862  0.0599 -0.3161
  496MOL0     H68436   8.670   7.098   9.438 -2.1021 -2.1314 -0.9928
  496MOL0     H68437   8.504   7.119   9.494  0.5737  0.2227 -2.1319
  496MOL0     H68438   8.599   7.280   9.331  2.7660  0.3882 -0.7986
  496MOL0     H68439   8.694   7.349   9.463 -1.2104  1.6729  2.3438
  496MOL0     H68440   8.402   7.304   9.440 -0.9404 -0.3523  2.4908
  496MOL0     H68441   8.455   7.371   9.588  0.9165 -0.9398 -0.4635
  496MOL0     H68442   8.393   7.559   9.471  0.1494  0.5418 -1.1531
  496MOL0     H68443   8.438   7.503   9.316 -0.1472 -0.3456  0.1296
  496MOL0     H68444   8.794   7.709   9.462 -1.2254  1.8108  1.9044
  496MOL0     H68445   8.707   7.130   9.880  0.3432  1.1611  0.1454
  496MOL0     H68446   8.851   6.874  10.075  0.4731 -1.5595 -3.8469
  496MOL0     H68447   8.753   7.027  10.084 -1.7595  0.1552  0.5843
  496MOL0     H68448   8.674   6.866  10.099 -0.8787  0.9570 -1.2114
  497MOL0     O68449   4.341   1.745   0.573 -0.7523 -0.6244  0.7901
  497MOL0     C68450   4.235   1.715   0.514  0.3597  0.5378 -0.7530
  497MOL0     O68451   4.221   1.606   0.422  0.1201  0.1247 -0.2680
  497MOL0     C68452   4.339   1.551   0.375 -0.1552 -0.3062 -0.6990
  497MOL0     C68453   4.427   1.631   0.299 -0.2360 -0.2811  1.0225
  497MOL0     C68454   4.550   1.582   0.264 -0.3043 -0.0493  0.6255
  497MOL0     C68455   4.569   1.440   0.285  1.0289  0.2039  0.6720
  497MOL0     O68456   4.695   1.397   0.243  0.2344  0.5511 -0.2436
  497MOL0     C68457   4.816   1.463   0.307 -0.1244 -0.0856 -0.1480
  497MOL0     C68458   4.887   1.552   0.204 -1.0855 -0.0874  0.7564
  497MOL0     C68459   4.957   1.467   0.094  0.6260  0.0801  0.2197
  497MOL0     C68460   5.081   1.396   0.146 -0.2376  0.4827 -0.5338
  497MOL0     C68461   5.182   1.376   0.026  0.0187 -0.5292 -0.5677
  497MOL0     C68462   5.298   1.290   0.066  0.1433  0.6900 -0.5100
  497MOL0     C68463   5.410   1.286  -0.035  0.3863 -0.7692  0.4980
  497MOL0     C68464   5.397   1.183  -0.152 -0.7143  0.0628 -0.3811
  497MOL0     N68465   5.353   1.046  -0.122 -0.8620 -0.5864 -0.7100
  497MOL0     C68466   5.430   0.943  -0.077  0.0973 -0.0320 -0.3037
  497MOL0     C68467   5.345   0.836  -0.063 -0.5040  0.5525 -0.1263
  497MOL0     C68468   5.372   0.686  -0.037  1.4627  0.2676  0.3977
  497MOL0     C68469   5.403   0.611  -0.162 -0.2451  1.2500  0.0564
  497MOL0     C68470   5.392   0.456  -0.141  0.1328  0.0398 -0.5816
  497MOL0     C68471   5.404   0.386  -0.272 -0.7847 -0.0630  0.7072
  497MOL0     O68472   5.340   0.257  -0.270 -0.6413 -0.7544  0.1531
  497MOL0     C68473   5.435   0.160  -0.270  0.2869 -0.0744  0.1020
  497MOL0     C68474   5.492   0.136  -0.143  1.4538 -1.0137 -0.0871
  497MOL0     C68475   5.579   0.027  -0.122  0.2650 -0.5029 -0.2078
  497MOL0     C68476   5.627   0.002   0.027 -0.6141  0.2567 -1.6137
  497MOL0     C68477   5.613  -0.052  -0.235  0.3317  0.8264  0.1370
  497MOL0     C68478   5.706  -0.172  -0.224 -0.1529 -0.6663  0.2403
  497MOL0     O68479   5.738  -0.226  -0.340  0.0919  0.0402 -0.3744
  497MOL0     C68480   5.818  -0.338  -0.337 -0.8904 -0.2693  0.0383
  497MOL0     C68481   5.940  -0.351  -0.244  0.4489 -0.3169 -0.4655
  497MOL0     C68482   6.025  -0.447  -0.274 -0.3107  0.3356 -0.1036
  497MOL0     C68483   5.995  -0.564  -0.364 -0.1711  0.1028 -0.0748
  497MOL0     O68484   6.088  -0.661  -0.365 -0.0137  0.5966  0.7808
  497MOL0     C68485   6.027  -0.788  -0.400  0.6065 -0.7298 -0.9968
  497MOL0     C68486   6.123  -0.897  -0.346  0.0997 -0.4248  0.3296
  497MOL0     C68487   6.066  -1.041  -0.352 -0.6270  0.0124 -0.5335
  497MOL0     C68488   6.027  -1.084  -0.503  0.3182 -0.6575 -0.1664
  497MOL0     C68489   5.966  -1.220  -0.515 -0.3103  0.4068  0.5834
  497MOL0     C68490   5.908  -1.272  -0.651 -0.4875 -0.0471  0.3110
  497MOL0     C68491   6.010  -1.330  -0.756  0.4008 -0.4572 -1.3790
  497MOL0     C68492   6.133  -1.253  -0.782  0.4647 -0.2750  0.1651
  497MOL0    Cl68493   6.090  -1.108  -0.877  0.3112 -0.4716 -0.2668
  497MOL0     C68494   5.868  -0.557  -0.437  0.0736  0.0123  1.0614
  497MOL0     C68495   5.791  -0.441  -0.428  0.7152 -0.1481 -0.4416
  497MOL0     O68496   5.728  -0.217  -0.108 -0.3924 -0.2113 -0.2788
  497MOL0     C68497   5.563  -0.025  -0.366 -0.5071  0.5246 -0.0064
  497MOL0     C68498   5.468   0.084  -0.384 -0.4290  0.1207  0.3313
  497MOL0     N68499   5.222   0.885  -0.103 -0.1898  0.0804  0.2630
  497MOL0     N68500   5.219   1.005  -0.139 -0.1256 -0.3909 -0.9423
  497MOL0     C68501   4.476   1.356   0.348  0.6394  0.4592  0.3923
  497MOL0     C68502   4.368   1.416   0.398  0.1447  0.0087 -0.1133
  497MOL0     C68503   4.118   1.799   0.546 -0.9340 -0.2660  0.2166
  497MOL0     C68504   3.992   1.741   0.522 -0.6116  0.0592  0.9377
  497MOL0     C68505   3.870   1.813   0.540 -0.1753 -0.4419 -0.6594
  497MOL0     C68506   3.878   1.946   0.585 -1.3239 -0.4268 -0.7929
  497MOL0     O68507   3.777   2.039   0.624 -0.4816  0.6735  0.4668
  497MOL0     C68508   3.640   2.017   0.609 -0.0288  0.8556  0.8241
  497MOL0     C68509   3.579   2.044   0.469 -0.0312 -0.5891 -0.6248
  497MOL0     C68510   3.428   2.014   0.480 -0.4089  0.3996  0.0640
  497MOL0     C68511   3.342   2.130   0.530 -0.6861 -0.1441 -0.2255
  497MOL0     C68512   3.219   2.078   0.592  0.9316 -0.0688  0.5026
  497MOL0     C68513   3.119   2.028   0.641 -0.0309  0.5584 -1.1857
  497MOL0     C68514   4.000   2.004   0.610  0.4028  0.1923  0.9951
  497MOL0     C68515   4.120   1.934   0.587 -0.1547 -0.4351 -0.4290
  497MOL0     C68516   4.246   2.015   0.616 -0.0099  0.3412 -0.4837
  497MOL0     H68517   4.408   1.735   0.277  1.5095 -0.3599 -1.2936
  497MOL0     H68518   4.630   1.626   0.205 -0.5315  0.1593  0.4698
  497MOL0     H68519   4.875   1.382   0.351 -0.6744  0.6614  2.1198
  497MOL0     H68520   4.786   1.534   0.385 -0.9233 -1.8859  1.2751
  497MOL0     H68521   4.821   1.628   0.161 -0.0808  0.9383  1.0017
  497MOL0     H68522   4.970   1.610   0.244  0.7397 -2.4516  0.6570
  497MOL0     H68523   4.899   1.389   0.044  2.7194 -1.1890 -0.3373
  497MOL0     H68524   4.992   1.538   0.018  2.4217  0.8379  1.6724
  497MOL0     H68525   5.133   1.447   0.227  2.0342  1.2727 -2.3700
  497MOL0     H68526   5.058   1.295   0.181  2.6312  0.2321  0.9640
  497MOL0     H68527   5.229   1.473   0.007 -0.8001  0.5785  2.5067
  497MOL0     H68528   5.131   1.339  -0.063  0.0692  1.3751 -1.4452
  497MOL0     H68529   5.336   1.343   0.154 -2.2826  0.7676  0.5573
  497MOL0     H68530   5.272   1.191   0.103  2.9156  0.4511  1.1195
  497MOL0     H68531   5.499   1.248   0.015  1.8361  1.7575  0.0454
  497MOL0     H68532   5.422   1.385  -0.082 -3.4585 -1.6546 -2.9022
  497MOL0     H68533   5.338   1.233  -0.230  2.9194  2.0051 -2.1848
  497MOL0     H68534   5.491   1.166  -0.206 -1.9775  0.9425 -3.0410
  497MOL0     H68535   5.538   0.932  -0.070  0.1741  0.5836 -0.4794
  497MOL0     H68536   5.284   0.642   0.012 -0.1043 -1.4908 -3.5441
  497MOL0     H68537   5.464   0.687   0.021  0.4893 -0.5624  2.0237
  497MOL0     H68538   5.337   0.648  -0.240 -2.1809 -0.4498  0.7716
  497MOL0     H68539   5.506   0.635  -0.189 -0.0130 -2.7727 -3.7854
  497MOL0     H68540   5.466   0.416  -0.070 -0.1821  2.2502  1.1359
  497MOL0     H68541   5.293   0.437  -0.099 -1.0837  3.3713 -1.5582
  497MOL0     H68542   5.358   0.443  -0.354  2.2271  2.0771  0.3325
  497MOL0     H68543   5.508   0.378  -0.305 -1.6331  0.4122 -2.3945
  497MOL0     H68544   5.462   0.202  -0.062 -0.3783  0.7140 -2.0507
  497MOL0     H68545   5.569  -0.083   0.064 -0.9944  1.3456  0.4807
  497MOL0     H68546   5.625   0.091   0.091  3.8649  0.7705 -1.8604
  497MOL0     H68547   5.733  -0.022   0.022 -0.3693  1.0489 -0.6214
  497MOL0     H68548   5.955  -0.266  -0.178 -3.7062  1.5005 -1.4944
  497MOL0     H68549   6.127  -0.448  -0.236 -0.3795 -0.0555  0.0798
  497MOL0     H68550   5.926  -0.797  -0.359 -0.1562  2.8018 -1.7359
  497MOL0     H68551   6.021  -0.789  -0.509  1.2903 -3.1367 -1.0701
  497MOL0     H68552   6.214  -0.896  -0.406  0.0557  0.2975  0.2656
  497MOL0     H68553   6.152  -0.868  -0.245  1.0125  3.0724 -0.7952
  497MOL0     H68554   5.975  -1.043  -0.291 -0.3811  3.6117  0.2025
  497MOL0     H68555   6.144  -1.109  -0.315 -0.5701 -0.5269 -1.6007
  497MOL0     H68556   6.117  -1.067  -0.563  1.5139 -0.0143  1.7055
  497MOL0     H68557   5.955  -1.007  -0.535  1.5221  0.2420 -0.8045
  497MOL0     H68558   6.049  -1.286  -0.489 -0.7090 -0.0214  0.8015
  497MOL0     H68559   5.883  -1.237  -0.445  0.4931 -3.5411  0.8109
  497MOL0     H68560   5.860  -1.190  -0.705  0.6865 -1.3075 -2.8808
  497MOL0     H68561   5.838  -1.354  -0.632  0.8926 -0.8294  2.4401
  497MOL0     H68562   5.961  -1.342  -0.853 -1.8315  1.0890 -0.5350
  497MOL0     H68563   6.043  -1.428  -0.720  2.2170  0.9834  1.2767
  497MOL0     H68564   6.195  -1.320  -0.842 -0.1071  0.7021 -1.6109
  497MOL0     H68565   6.184  -1.228  -0.689  4.0095  3.3683 -2.3594
  497MOL0     H68566   5.833  -0.634  -0.505  3.9447 -1.0402  0.0042
  497MOL0     H68567   5.707  -0.420  -0.493  0.7521  0.8918 -0.1653
  497MOL0     H68568   5.601  -0.074  -0.455 -0.7604  1.1696 -0.4655
  497MOL0     H68569   5.428   0.096  -0.484  2.3850  1.8916 -0.7269
  497MOL0     H68570   4.500   1.251   0.361 -2.3632 -0.2504  0.9229
  497MOL0     H68571   4.312   1.349   0.463  0.3094  0.9256  1.0057
  497MOL0     H68572   3.994   1.639   0.484 -1.0756  0.0916  0.8161
  497MOL0     H68573   3.772   1.768   0.522 -0.9700  1.3999 -1.1372
  497MOL0     H68574   3.632   1.910   0.634  0.0935  0.8835  0.9796
  497MOL0     H68575   3.585   2.073   0.685 -2.6565  0.4308 -0.6335
  497MOL0     H68576   3.630   1.980   0.397 -0.2744 -0.0149 -1.3278
  497MOL0     H68577   3.589   2.147   0.433  0.1431 -2.2504 -6.2563
  497MOL0     H68578   3.384   2.002   0.380  0.7311 -0.0142 -0.4058
  497MOL0     H68579   3.423   1.922   0.538  1.2092 -1.5506 -2.6548
  497MOL0     H68580   3.323   2.202   0.450 -2.0342 -0.6462 -0.3929
  497MOL0     H68581   3.386   2.189   0.611 -3.0655  2.3679 -0.6255
  497MOL0     H68582   3.045   1.967   0.688 -0.3018  2.8406  1.6762
  497MOL0     H68583   4.005   2.111   0.628 -0.7139  0.5550 -0.6122
  497MOL0     H68584   4.315   1.953   0.674 -0.0735  0.0090 -0.7603
  497MOL0     H68585   4.297   2.052   0.527 -0.3489 -1.0463 -1.2856
  497MOL0     H68586   4.229   2.096   0.688 -1.4721 -1.8752  1.8181
  498MOL0     O68587   7.116   5.330   4.553 -0.0791 -0.5381  0.3930
  498MOL0     C68588   7.125   5.389   4.446 -0.6011 -0.1186  0.4122
  498MOL0     O68589   7.033   5.483   4.396  0.2481 -0.6981 -0.2529
  498MOL0     C68590   6.913   5.476   4.453  0.7779 -0.1773  0.1247
  498MOL0     C68591   6.824   5.368   4.433 -0.2239  1.5240 -0.1582
  498MOL0     C68592   6.697   5.381   4.485  0.8624 -0.2574 -0.3978
  498MOL0     C68593   6.644   5.495   4.548 -0.2266 -0.0555  0.0427
  498MOL0     O68594   6.508   5.521   4.576  0.0465  0.7227 -0.3785
  498MOL0     C68595   6.429   5.398   4.595  0.2921 -0.0490 -0.7760
  498MOL0     C68596   6.290   5.422   4.668 -0.1246  0.2656 -1.0480
  498MOL0     C68597   6.295   5.456   4.817  0.6471  0.2803  0.8881
  498MOL0     C68598   6.389   5.564   4.869 -0.0710  0.0854  0.0470
  498MOL0     C68599   6.387   5.578   5.018 -0.0450 -0.1545  0.4155
  498MOL0     C68600   6.268   5.658   5.055  0.7698  0.2145  0.4100
  498MOL0     C68601   6.237   5.606   5.191 -0.0775 -0.2144 -0.8007
  498MOL0     C68602   6.130   5.700   5.263 -0.0482 -0.1049  0.6019
  498MOL0     N68603   6.194   5.826   5.308 -0.2618  0.1975 -0.0718
  498MOL0     C68604   6.175   5.948   5.246 -0.1631 -0.6958  0.1493
  498MOL0     C68605   6.246   6.037   5.311 -0.0792  0.2326 -0.2186
  498MOL0     C68606   6.266   6.182   5.272 -1.3493  0.2916 -0.2830
  498MOL0     C68607   6.349   6.253   5.384  0.0550  1.1943 -0.5502
  498MOL0     C68608   6.401   6.384   5.324 -0.0910  0.7827 -0.0764
  498MOL0     C68609   6.508   6.434   5.421 -0.1688  0.7590  0.1315
  498MOL0     O68610   6.456   6.482   5.543  0.5763 -0.8379  0.0880
  498MOL0     C68611   6.542   6.523   5.643  0.3025 -0.3244  1.1199
  498MOL0     C68612   6.490   6.578   5.754  0.7835  0.5149  0.5849
  498MOL0     C68613   6.572   6.635   5.851 -0.8761  0.6306 -0.8091
  498MOL0     C68614   6.498   6.722   5.949 -0.2572 -0.3788  0.4621
  498MOL0     C68615   6.718   6.616   5.847  0.3238  0.1897  0.7516
  498MOL0     C68616   6.802   6.650   5.961  0.2274 -0.0846  0.3875
  498MOL0     O68617   6.742   6.673   6.089 -0.1330  0.1582 -0.8694
  498MOL0     C68618   6.809   6.729   6.196 -0.3034 -0.0905  0.5191
  498MOL0     C68619   6.944   6.677   6.230  0.3300 -0.5192  0.7207
  498MOL0     C68620   7.005   6.724   6.351 -0.7075 -0.0636  0.4217
  498MOL0     C68621   6.946   6.818   6.433  0.4874  0.7131 -0.7783
  498MOL0     O68622   7.020   6.839   6.554 -0.2157 -0.5104  0.2067
  498MOL0     C68623   6.955   6.894   6.671 -0.4742 -0.2666 -0.4190
  498MOL0     C68624   7.044   6.864   6.794 -0.4153  0.1686  0.1444
  498MOL0     C68625   7.115   6.984   6.847  0.7048 -0.0446 -0.4727
  498MOL0     C68626   7.013   7.097   6.895 -0.4238  0.2787 -0.3735
  498MOL0     C68627   7.069   7.186   7.010 -0.0544 -0.8062 -0.5016
  498MOL0     C68628   7.200   7.268   6.976 -0.3186  0.0465  0.0144
  498MOL0     C68629   7.210   7.404   7.049  1.6984  1.0713 -0.3179
  498MOL0     C68630   7.346   7.479   7.020  0.5437 -0.9115  0.0424
  498MOL0    Cl68631   7.349   7.521   6.852 -0.2483 -0.3762  0.2411
  498MOL0     C68632   6.813   6.855   6.406  0.0050  0.1583  0.3898
  498MOL0     C68633   6.746   6.812   6.286 -0.4751 -0.9390 -0.6949
  498MOL0     O68634   6.922   6.645   5.937  0.0079 -0.0539  1.0523
  498MOL0     C68635   6.773   6.555   5.732  1.5085 -0.4092  0.7919
  498MOL0     C68636   6.686   6.518   5.625  0.0860  0.0403  0.2068
  498MOL0     N68637   6.302   5.972   5.421 -0.1651  0.3811 -0.1555
  498MOL0     N68638   6.271   5.849   5.424  0.3873 -0.2066 -0.1012
  498MOL0     C68639   6.735   5.596   4.581 -0.0265  0.1819  0.9388
  498MOL0     C68640   6.867   5.591   4.521 -0.0969  0.1596  0.0755
  498MOL0     C68641   7.256   5.368   4.380 -0.0813 -0.7873 -0.0109
  498MOL0     C68642   7.374   5.343   4.458  0.0883  0.5064 -0.6261
  498MOL0     C68643   7.503   5.318   4.399  0.1306 -0.2715  0.1583
  498MOL0     C68644   7.511   5.315   4.263  0.2930  0.7425  1.1596
  498MOL0     O68645   7.619   5.271   4.197  0.1085 -0.7413 -0.7720
  498MOL0     C68646   7.745   5.302   4.247 -0.2827  0.3900 -0.2532
  498MOL0     C68647   7.842   5.248   4.144 -0.8623 -0.2298 -0.3318
  498MOL0     C68648   7.993   5.284   4.186 -0.2478 -0.4829 -0.3068
  498MOL0     C68649   8.100   5.238   4.084 -0.2237 -0.3050  0.2292
  498MOL0     C68650   8.094   5.096   4.057 -0.0730  0.3166  0.2843
  498MOL0     C68651   8.079   4.983   4.041 -0.4951 -0.0078  0.2528
  498MOL0     C68652   7.398   5.336   4.187 -0.3036 -1.1205 -0.8197
  498MOL0     C68653   7.273   5.371   4.244 -0.4655  0.4847 -1.2888
  498MOL0     C68654   7.156   5.392   4.151  0.0756  0.7636 -0.4140
  498MOL0     H68655   6.861   5.281   4.380  0.7817  0.4680  2.1596
  498MOL0     H68656   6.617   5.313   4.455 -0.5421  0.3641  1.6937
  498MOL0     H68657   6.490   5.332   4.657 -0.1528  0.3711  0.1276
  498MOL0     H68658   6.408   5.341   4.504  2.4762 -0.4491 -1.0874
  498MOL0     H68659   6.235   5.501   4.615 -0.7101  1.6618  1.4367
  498MOL0     H68660   6.231   5.331   4.674  0.3594  0.0007  3.8805
  498MOL0     H68661   6.190   5.484   4.834  0.1903 -1.4143  1.0835
  498MOL0     H68662   6.298   5.362   4.873 -0.3852 -1.3683 -1.5895
  498MOL0     H68663   6.491   5.541   4.839 -0.9349 -1.3101 -2.0548
  498MOL0     H68664   6.350   5.652   4.819 -1.7158  1.5587  3.5458
  498MOL0     H68665   6.476   5.634   5.046  2.0087 -2.0673 -1.7755
  498MOL0     H68666   6.388   5.473   5.049  0.6922 -0.4608 -0.6108
  498MOL0     H68667   6.299   5.761   5.037 -0.7841  0.2550 -2.6936
  498MOL0     H68668   6.173   5.646   5.003  0.3082  4.6754 -0.1585
  498MOL0     H68669   6.329   5.603   5.252  1.6149 -1.6838 -3.2531
  498MOL0     H68670   6.192   5.506   5.189 -2.7822  0.9387 -1.3279
  498MOL0     H68671   6.053   5.719   5.188 -0.6340 -1.2813  0.8695
  498MOL0     H68672   6.093   5.644   5.350  2.0090  0.7091  2.0590
  498MOL0     H68673   6.111   5.978   5.163 -1.3136  0.2873  1.3411
  498MOL0     H68674   6.166   6.227   5.271 -1.5331 -0.1028  0.0100
  498MOL0     H68675   6.319   6.191   5.177  2.5123 -1.8515  1.4408
  498MOL0     H68676   6.280   6.262   5.468  0.7362 -0.5612  0.2539
  498MOL0     H68677   6.435   6.187   5.399  2.4732  3.8021 -1.9803
  498MOL0     H68678   6.446   6.363   5.227  1.2424 -0.5891  0.7845
  498MOL0     H68679   6.319   6.455   5.313  0.4312  1.6391  1.2657
  498MOL0     H68680   6.587   6.363   5.445 -0.0151  0.9687  0.2408
  498MOL0     H68681   6.558   6.515   5.368 -0.4277 -0.1222 -1.5287
  498MOL0     H68682   6.385   6.604   5.752  0.4363 -0.9190 -0.6378
  498MOL0     H68683   6.507   6.670   6.045  5.2723  0.7855  0.9153
  498MOL0     H68684   6.398   6.745   5.911 -0.1124 -2.5717 -1.4560
  498MOL0     H68685   6.570   6.804   5.958  0.4414 -1.1460  2.3334
  498MOL0     H68686   6.996   6.599   6.175  0.9180 -0.2266  0.8590
  498MOL0     H68687   7.095   6.671   6.382 -1.0733 -1.4845 -0.8499
  498MOL0     H68688   6.946   7.003   6.659 -1.4576 -0.2470  0.3427
  498MOL0     H68689   6.857   6.853   6.697 -0.4757 -0.8733 -1.3406
  498MOL0     H68690   6.977   6.818   6.868 -1.7563 -0.4628 -1.4028
  498MOL0     H68691   7.114   6.788   6.757 -0.4939  0.4156 -0.5200
  498MOL0     H68692   7.178   7.030   6.770  1.6669 -0.2677  0.1638
  498MOL0     H68693   7.176   6.951   6.931 -2.7520  0.4394  2.4575
  498MOL0     H68694   6.931   7.041   6.942 -0.4660  2.1534  1.9843
  498MOL0     H68695   6.979   7.154   6.808  2.6634 -0.6787 -2.3630
  498MOL0     H68696   6.996   7.265   7.026 -1.8196 -1.9841 -2.3381
  498MOL0     H68697   7.073   7.130   7.104 -1.0692  0.7583  0.5217
  498MOL0     H68698   7.189   7.287   6.869  3.0524  1.4029 -0.1952
  498MOL0     H68699   7.298   7.222   6.993 -1.1329 -1.6709  0.2937
  498MOL0     H68700   7.201   7.384   7.156  0.9215  3.1675  0.0498
  498MOL0     H68701   7.125   7.467   7.020 -0.5593 -1.6908 -0.2025
  498MOL0     H68702   7.431   7.422   7.058  1.5560 -1.2877 -2.5837
  498MOL0     H68703   7.337   7.565   7.087  1.6230 -0.4033 -0.4591
  498MOL0     H68704   6.747   6.903   6.478  1.9267  0.5541  1.9622
  498MOL0     H68705   6.647   6.849   6.259 -0.1378  1.7565  1.3218
  498MOL0     H68706   6.878   6.529   5.719  1.4653 -0.1686 -0.0717
  498MOL0     H68707   6.729   6.460   5.544  2.0854  0.3428  0.9885
  498MOL0     H68708   6.726   5.693   4.629  2.9022 -0.0188  2.1336
  498MOL0     H68709   6.939   5.672   4.525  1.2873 -1.0314 -0.2386
  498MOL0     H68710   7.367   5.335   4.566 -1.2736 -1.6815 -0.8161
  498MOL0     H68711   7.587   5.284   4.459  0.6024 -1.0672 -0.9188
  498MOL0     H68712   7.754   5.410   4.256  1.3901  0.6805 -3.9130
  498MOL0     H68713   7.757   5.259   4.348 -2.8393  0.8234  0.2930
  498MOL0     H68714   7.807   5.290   4.049 -1.1853  0.5932  0.1383
  498MOL0     H68715   7.826   5.141   4.131 -0.6552 -0.3791  0.6445
  498MOL0     H68716   8.007   5.392   4.196 -3.4709 -0.0407  0.7985
  498MOL0     H68717   8.023   5.236   4.280  0.9333 -1.3301 -1.0845
  498MOL0     H68718   8.202   5.250   4.122  1.2927  3.4258 -4.0223
  498MOL0     H68719   8.090   5.307   3.999  0.2962  1.5591  1.6039
  498MOL0     H68720   8.079   4.877   4.029 -0.5999  0.2774 -3.1760
  498MOL0     H68721   7.415   5.337   4.080  0.0616  2.6718 -0.8530
  498MOL0     H68722   7.197   5.374   4.051  3.2405  1.8924  0.5384
  498MOL0     H68723   7.078   5.319   4.174 -0.3362  1.3937  0.2110
  498MOL0     H68724   7.121   5.494   4.162  0.2862  0.7647  0.3103
  499MOL0     O68725   1.776   1.642   6.342  0.2481 -0.5446 -0.8712
  499MOL0     C68726   1.734   1.552   6.416 -0.2190 -1.1938 -0.2225
  499MOL0     O68727   1.644   1.564   6.518 -0.4820 -0.2505  0.1409
  499MOL0     C68728   1.614   1.692   6.543  0.5403 -0.9633 -0.1067
  499MOL0     C68729   1.487   1.738   6.513 -0.0301 -0.4112 -0.2100
  499MOL0     C68730   1.431   1.846   6.586 -0.1372 -0.3347  0.6263
  499MOL0     C68731   1.504   1.926   6.669  0.1820  0.1845 -0.0333
  499MOL0     O68732   1.446   2.031   6.727 -0.6578 -0.1152 -0.4525
  499MOL0     C68733   1.515   2.097   6.836  0.0659 -0.3461 -0.4212
  499MOL0     C68734   1.404   2.153   6.922 -0.1392 -0.1290 -1.1255
  499MOL0     C68735   1.448   2.246   7.031 -0.1068  0.1449  0.5787
  499MOL0     C68736   1.335   2.309   7.120  0.2111 -0.4127 -0.2570
  499MOL0     C68737   1.404   2.385   7.243  0.0036  0.5277 -0.1180
  499MOL0     C68738   1.306   2.456   7.343 -0.2430 -0.6373  0.0819
  499MOL0     C68739   1.211   2.552   7.263  0.4925  0.1169 -0.5221
  499MOL0     C68740   1.130   2.633   7.368 -0.3122  0.7234 -0.2535
  499MOL0     N68741   1.041   2.734   7.311  0.8510 -0.0969  0.2320
  499MOL0     C68742   0.966   2.718   7.195  0.2146 -0.1076 -0.0322
  499MOL0     C68743   0.901   2.837   7.178  0.0880  0.0275  0.5670
  499MOL0     C68744   0.837   2.877   7.051 -0.7642 -0.7238 -0.5963
  499MOL0     C68745   0.697   2.942   7.059 -0.3205 -0.3105  0.4150
  499MOL0     C68746   0.704   3.087   7.095  0.1868  0.7475  0.9197
  499MOL0     C68747   0.768   3.176   6.990  0.1563 -0.3238  0.2169
  499MOL0     O68748   0.749   3.132   6.856 -0.0641 -0.0480 -0.1636
  499MOL0     C68749   0.634   3.121   6.780  0.0934 -0.7485  1.0505
  499MOL0     C68750   0.650   3.097   6.644 -0.1589 -0.3983 -0.4509
  499MOL0     C68751   0.552   3.091   6.555  0.0590  0.8200 -0.9398
  499MOL0     C68752   0.591   3.073   6.406  0.5783 -0.2629  0.0652
  499MOL0     C68753   0.417   3.116   6.603 -0.0296  0.7960 -0.6305
  499MOL0     C68754   0.298   3.079   6.524 -0.6546  0.9252 -0.3753
  499MOL0     O68755   0.174   3.102   6.583 -0.4210 -0.3806  0.2944
  499MOL0     C68756   0.069   3.036   6.525 -0.1751  0.8380  0.5375
  499MOL0     C68757  -0.053   3.097   6.498  1.3194  0.3993  0.0114
  499MOL0     C68758  -0.164   3.022   6.450  0.0763 -0.3874 -0.1432
  499MOL0     C68759  -0.156   2.886   6.426 -0.6549  0.2624  0.2390
  499MOL0     O68760  -0.274   2.816   6.406  0.1633 -0.3220 -0.4613
  499MOL0     C68761  -0.270   2.710   6.316 -0.0632  0.5854 -0.4396
  499MOL0     C68762  -0.400   2.625   6.321  0.7755 -0.3434  0.2133
  499MOL0     C68763  -0.444   2.565   6.183 -0.2280  0.1149  0.9977
  499MOL0     C68764  -0.337   2.472   6.115 -0.5785  0.1312  0.5844
  499MOL0     C68765  -0.375   2.417   5.974  0.3352 -0.7561 -1.9208
  499MOL0     C68766  -0.299   2.293   5.929 -0.5998  0.4279 -0.4093
  499MOL0     C68767  -0.364   2.235   5.794  0.9548 -0.1900  0.0634
  499MOL0     C68768  -0.306   2.098   5.765  0.3328 -0.4644  0.5003
  499MOL0    Cl68769  -0.370   1.980   5.887  0.7161 -0.1850  0.1424
  499MOL0     C68770  -0.033   2.827   6.456  0.3456 -0.2436  0.3224
  499MOL0     C68771   0.081   2.891   6.500 -0.6685  0.0472 -0.0549
  499MOL0     O68772   0.311   3.040   6.408 -0.0121  0.3867  0.0343
  499MOL0     C68773   0.397   3.143   6.739 -0.9168  0.1269  0.6576
  499MOL0     C68774   0.506   3.161   6.826  0.1197 -0.2744 -0.7256
  499MOL0     N68775   0.952   2.936   7.274 -0.5976 -0.0504  0.7798
  499MOL0     N68776   1.046   2.873   7.342 -0.2060 -0.3429  0.0775
  499MOL0     C68777   1.634   1.891   6.697  0.1333  0.1877  0.4554
  499MOL0     C68778   1.686   1.767   6.630 -0.5085  0.0443 -1.0854
  499MOL0     C68779   1.776   1.412   6.402  0.9381 -0.3659 -0.2753
  499MOL0     C68780   1.738   1.317   6.501  0.6185 -0.4535 -0.3339
  499MOL0     C68781   1.777   1.183   6.505 -0.2754  0.6437 -0.2110
  499MOL0     C68782   1.849   1.139   6.394 -0.6221  0.3895 -0.0991
  499MOL0     O68783   1.886   1.009   6.385 -0.3675  0.2375 -0.1584
  499MOL0     C68784   2.017   0.971   6.425 -0.0359  0.5713 -0.6057
  499MOL0     C68785   2.110   0.990   6.304 -0.5775  0.4178 -0.4778
  499MOL0     C68786   2.064   0.923   6.176  0.3416  0.5858  0.1113
  499MOL0     C68787   2.176   0.881   6.088 -0.0227  0.2503  0.3373
  499MOL0     C68788   2.260   0.772   6.140 -0.6419 -0.0733 -0.6664
  499MOL0     C68789   2.332   0.691   6.181  0.1697  0.8201  0.1907
  499MOL0     C68790   1.876   1.223   6.285 -0.7162 -0.0541  0.5107
  499MOL0     C68791   1.837   1.358   6.286  0.9089  0.8247  0.0747
  499MOL0     C68792   1.856   1.436   6.157  0.2880  0.3657  0.2767
  499MOL0     H68793   1.418   1.680   6.452  0.7714  0.2602 -1.7921
  499MOL0     H68794   1.326   1.869   6.575  0.0231  0.0917 -0.0926
  499MOL0     H68795   1.574   2.186   6.813  1.0447  0.0785  3.0978
  499MOL0     H68796   1.577   2.032   6.899 -3.2092 -1.2900  2.1403
  499MOL0     H68797   1.342   2.202   6.847 -0.2552  1.1067 -0.2587
  499MOL0     H68798   1.363   2.065   6.971  2.5816  0.4229  2.5690
  499MOL0     H68799   1.515   2.193   7.099 -0.3207 -0.4629  0.3262
  499MOL0     H68800   1.508   2.324   6.983 -1.3161 -1.1994 -3.5360
  499MOL0     H68801   1.274   2.383   7.068  2.2379  2.1907  0.8304
  499MOL0     H68802   1.256   2.240   7.151 -1.7110  1.9184  0.2655
  499MOL0     H68803   1.481   2.452   7.204  3.0889 -2.2708  0.6266
  499MOL0     H68804   1.440   2.310   7.314 -1.4312  0.2868  0.3946
  499MOL0     H68805   1.238   2.391   7.399 -1.1012  0.5840  0.5153
  499MOL0     H68806   1.357   2.518   7.417  0.6692 -1.3248  0.0351
  499MOL0     H68807   1.140   2.497   7.200  0.1579 -1.6099  1.2581
  499MOL0     H68808   1.278   2.608   7.197  1.3543  2.6266  2.2440
  499MOL0     H68809   1.074   2.558   7.425  1.0380  0.9330  1.4375
  499MOL0     H68810   1.199   2.689   7.432  2.3839 -4.1854  1.7096
  499MOL0     H68811   0.971   2.635   7.125  1.0906  0.6349 -0.8853
  499MOL0     H68812   0.841   2.792   6.983 -2.4682  0.4749 -2.3052
  499MOL0     H68813   0.903   2.953   7.009 -1.4354  0.9311  1.1866
  499MOL0     H68814   0.642   2.927   6.966 -0.9779  0.9718  0.5805
  499MOL0     H68815   0.639   2.881   7.129 -1.9411  0.5086 -0.1613
  499MOL0     H68816   0.599   3.110   7.116 -0.7505 -3.9108  2.6439
  499MOL0     H68817   0.750   3.091   7.194  1.4704 -2.2228  0.5325
  499MOL0     H68818   0.726   3.277   6.992  2.7152  0.8305  2.0703
  499MOL0     H68819   0.873   3.202   7.003 -0.7461  3.1376  1.6232
  499MOL0     H68820   0.756   3.093   6.622 -0.0352 -2.8841  0.3256
  499MOL0     H68821   0.549   3.152   6.343  0.1524  0.2162  0.9216
  499MOL0     H68822   0.563   2.974   6.368  1.4363  0.7766 -3.6843
  499MOL0     H68823   0.699   3.085   6.400  0.6087  1.8725  2.7451
  499MOL0     H68824  -0.052   3.205   6.505 -2.2676  0.4774  2.0410
  499MOL0     H68825  -0.256   3.078   6.435 -1.1341 -1.5084  2.4233
  499MOL0     H68826  -0.258   2.749   6.214  0.1316 -0.0062 -0.6454
  499MOL0     H68827  -0.191   2.636   6.328 -1.3314 -0.4640  2.6096
  499MOL0     H68828  -0.386   2.549   6.398  0.6221  0.5058  1.0950
  499MOL0     H68829  -0.482   2.683   6.364  1.6246  1.3414 -0.3146
  499MOL0     H68830  -0.454   2.644   6.108 -1.5501 -0.9450  0.0035
  499MOL0     H68831  -0.540   2.514   6.193 -0.4662  0.6568  1.5857
  499MOL0     H68832  -0.330   2.390   6.188  0.5617  0.5902  1.0153
  499MOL0     H68833  -0.237   2.517   6.113 -0.2258 -0.6573  0.1488
  499MOL0     H68834  -0.476   2.375   5.982 -0.0610  0.3075 -1.0914
  499MOL0     H68835  -0.374   2.496   5.899 -1.0065 -0.7031 -1.9176
  499MOL0     H68836  -0.311   2.210   5.999  2.2571  0.2547 -0.0045
  499MOL0     H68837  -0.195   2.327   5.927 -1.0802  3.2642  4.3092
  499MOL0     H68838  -0.340   2.297   5.708 -2.2886  2.2747  0.7247
  499MOL0     H68839  -0.471   2.222   5.816  1.3981 -0.8043  2.1355
  499MOL0     H68840  -0.197   2.107   5.770  0.2957 -0.8040  3.1011
  499MOL0     H68841  -0.326   2.070   5.661  2.8318  2.9056 -1.0822
  499MOL0     H68842  -0.035   2.718   6.451 -2.1221 -0.2134 -1.1193
  499MOL0     H68843   0.165   2.826   6.523  0.8811  1.3458 -1.7720
  499MOL0     H68844   0.300   3.146   6.787 -0.1649  2.3047  2.2373
  499MOL0     H68845   0.490   3.170   6.933  0.3543  0.9373 -0.7792
  499MOL0     H68846   1.713   1.928   6.762  2.8205 -1.8590 -1.4283
  499MOL0     H68847   1.779   1.726   6.670 -1.9995 -0.1550  2.5764
  499MOL0     H68848   1.676   1.350   6.583 -0.6878 -2.4212 -0.4602
  499MOL0     H68849   1.736   1.122   6.585  0.3106 -1.8231 -1.6992
  499MOL0     H68850   2.052   1.030   6.510  2.6016  0.6840 -1.6700
  499MOL0     H68851   1.993   0.868   6.449 -0.1176  0.7505  0.0955
  499MOL0     H68852   2.203   0.938   6.330 -0.4556  1.5039  1.4478
  499MOL0     H68853   2.128   1.097   6.296 -0.0840  0.7614  3.2162
  499MOL0     H68854   2.023   0.832   6.220  2.3238  0.1733  1.2388
  499MOL0     H68855   1.986   0.973   6.117  0.4678 -1.4263 -1.9060
  499MOL0     H68856   2.243   0.958   6.048 -0.3724  0.5490  0.3244
  499MOL0     H68857   2.131   0.838   5.998 -0.3207 -0.0572  0.6304
  499MOL0     H68858   2.417   0.631   6.206  0.9287  2.3946  1.5316
  499MOL0     H68859   1.924   1.177   6.199 -1.9803 -1.6994  0.6475
  499MOL0     H68860   1.867   1.383   6.062 -0.3005  0.4668  0.1455
  499MOL0     H68861   1.765   1.494   6.138  0.5161  1.4192  2.1824
  499MOL0     H68862   1.927   1.519   6.165 -0.6971  1.3019 -0.3944
  500MOL0     O68863   6.035  10.157   0.133  0.3907 -1.1465  0.4770
  500MOL0     C68864   6.114  10.096   0.205 -0.3725 -0.2925 -0.6116
  500MOL0     O68865   6.076   9.996   0.285  0.3322  0.0683  0.2567
  500MOL0     C68866   5.948   9.947   0.271 -0.4392 -0.2155 -0.0292
  500MOL0     C68867   5.855   9.955   0.367  0.7245 -0.0292 -0.2145
  500MOL0     C68868   5.730   9.892   0.368  0.2353  1.2653 -0.4787
  500MOL0     C68869   5.702   9.805   0.263 -0.7720  0.8092  0.1003
  500MOL0     O68870   5.600   9.715   0.265  0.6730 -0.5382  0.0037
  500MOL0     C68871   5.481   9.739   0.342  0.9353 -0.5257  0.4385
  500MOL0     C68872   5.373   9.664   0.266 -0.4277  0.5574  0.1197
  500MOL0     C68873   5.230   9.679   0.320 -1.4267  0.1372 -0.6081
  500MOL0     C68874   5.136   9.654   0.202  0.4611 -0.3679  0.1348
  500MOL0     C68875   4.987   9.633   0.244 -0.3103 -0.2155  0.2200
  500MOL0     C68876   4.932   9.742   0.334 -0.8304 -0.1342 -0.0061
  500MOL0     C68877   4.784   9.737   0.361  0.3711 -0.0805  0.3044
  500MOL0     C68878   4.749   9.635   0.467  0.7043  0.5743 -0.7937
  500MOL0     N68879   4.599   9.614   0.481  0.5733 -0.5844 -0.4677
  500MOL0     C68880   4.511   9.585   0.377 -0.7403  0.4594 -0.1696
  500MOL0     C68881   4.391   9.600   0.429  0.2628  0.6047  0.7947
  500MOL0     C68882   4.268   9.586   0.336  0.5636  0.1632 -0.4093
  500MOL0     C68883   4.138   9.639   0.406  0.2668 -0.6443 -0.3131
  500MOL0     C68884   4.084   9.550   0.523  0.8363 -0.4360  0.3099
  500MOL0     C68885   4.039   9.412   0.490 -0.3214 -0.5385 -0.0847
  500MOL0     O68886   3.930   9.432   0.403 -0.8231  0.6209 -0.6966
  500MOL0     C68887   3.893   9.323   0.330  1.4482 -0.9401 -0.5998
  500MOL0     C68888   3.828   9.362   0.217 -0.3644 -0.3486 -0.0284
  500MOL0     C68889   3.792   9.265   0.121  0.9501 -0.0451  0.3247
  500MOL0     C68890   3.742   9.318  -0.017 -0.8968 -1.1085  0.7232
  500MOL0     C68891   3.811   9.127   0.153 -0.4855 -0.3265  0.3708
  500MOL0     C68892   3.792   9.014   0.067 -0.6470  0.4208  0.1121
  500MOL0     O68893   3.719   9.036  -0.040  0.1260  0.3065  0.2546
  500MOL0     C68894   3.722   8.943  -0.147  0.3039  0.1270  0.4085
  500MOL0     C68895   3.839   8.916  -0.219  0.2632 -0.6835  0.1470
  500MOL0     C68896   3.848   8.807  -0.295 -0.0613  0.6096  0.1117
  500MOL0     C68897   3.743   8.712  -0.302 -0.1855  0.4084  0.5692
  500MOL0     O68898   3.761   8.600  -0.382 -1.2513  0.3695  1.1917
  500MOL0     C68899   3.881   8.583  -0.473  0.4870  0.2940  0.8301
  500MOL0     C68900   3.868   8.691  -0.595 -0.1060  0.4261  0.1805
  500MOL0     C68901   3.989   8.672  -0.687  0.4026 -0.5426  0.2156
  500MOL0     C68902   4.001   8.535  -0.759  0.2324 -0.0481  0.4244
  500MOL0     C68903   4.118   8.545  -0.866  0.2915 -0.8210  0.0302
  500MOL0     C68904   4.256   8.544  -0.809 -0.3841  0.2308  0.1863
  500MOL0     C68905   4.380   8.527  -0.906 -0.6733  0.5761 -0.4420
  500MOL0     C68906   4.416   8.649  -0.980  0.6517  0.3328 -0.2371
  500MOL0    Cl68907   4.576   8.628  -1.071  0.0411 -0.1596 -0.1136
  500MOL0     C68908   3.627   8.737  -0.227 -0.1199 -0.4631  0.3557
  500MOL0     C68909   3.612   8.859  -0.161  0.5903  0.4368  0.8229
  500MOL0     O68910   3.857   8.911   0.089  0.0657  0.7456  0.4482
  500MOL0     C68911   3.866   9.103   0.282  0.8522  1.0552  0.9130
  500MOL0     C68912   3.902   9.190   0.368  0.1077 -0.2216  0.0811
  500MOL0     N68913   4.399   9.635   0.562  0.3989 -0.2828  0.7246
  500MOL0     N68914   4.527   9.640   0.586  0.0512 -0.3698 -0.4473
  500MOL0     C68915   5.794   9.789   0.163  0.6204  1.2070  0.8382
  500MOL0     C68916   5.918   9.858   0.169  0.5576  0.2320  0.3695
  500MOL0     C68917   6.259  10.133   0.217  0.6896  0.0581  0.6011
  500MOL0     C68918   6.335  10.061   0.309  1.1590  0.9319 -1.0434
  500MOL0     C68919   6.458  10.113   0.358 -0.3071 -0.0007  0.1989
  500MOL0     C68920   6.519  10.222   0.302 -0.4085  0.6850 -0.5434
  500MOL0     O68921   6.646  10.252   0.345 -0.0320  0.4511  0.6506
  500MOL0     C68922   6.723  10.338   0.267 -0.3298  0.5821  0.0489
  500MOL0     C68923   6.868  10.335   0.296 -0.4473  0.3932 -0.9703
  500MOL0     C68924   6.942  10.440   0.206  0.5710  0.2700  0.2437
  500MOL0     C68925   7.092  10.451   0.240  0.6931 -0.5978 -0.2689
  500MOL0     C68926   7.162  10.327   0.218  0.3199  0.1765  0.7092
  500MOL0     C68927   7.212  10.221   0.185 -0.4199  0.2398  0.2890
  500MOL0     C68928   6.452  10.295   0.207  0.0755 -0.3738 -0.5012
  500MOL0     C68929   6.312  10.259   0.173 -1.8498  0.6689 -0.0882
  500MOL0     C68930   6.246  10.359   0.080 -0.8081  0.3382  0.3528
  500MOL0     H68931   5.868  10.024   0.450  1.2568  1.1406 -1.2412
  500MOL0     H68932   5.662   9.895   0.453 -0.6358 -4.1615 -0.6647
  500MOL0     H68933   5.455   9.845   0.357 -2.9090 -1.4413  1.2929
  500MOL0     H68934   5.486   9.699   0.443  0.0719  2.5292  1.8363
  500MOL0     H68935   5.382   9.694   0.161 -1.3978  1.6586  0.3251
  500MOL0     H68936   5.392   9.556   0.259 -0.3963  0.5403  0.4646
  500MOL0     H68937   5.215   9.608   0.402 -2.4896  2.3008  1.1508
  500MOL0     H68938   5.217   9.784   0.348 -0.1576 -0.0460  0.8128
  500MOL0     H68939   5.129   9.736   0.131 -3.5087 -0.5982  0.0065
  500MOL0     H68940   5.172   9.571   0.140 -1.9055 -0.8365 -0.7180
  500MOL0     H68941   4.981   9.539   0.299  0.7898 -0.1154  0.5305
  500MOL0     H68942   4.924   9.615   0.156 -0.2510  1.8348 -0.2880
  500MOL0     H68943   4.990   9.753   0.426 -0.1787  0.0605 -0.4272
  500MOL0     H68944   4.948   9.839   0.287 -0.6047 -0.3172 -0.3121
  500MOL0     H68945   4.736   9.717   0.265 -2.0921  3.4698  0.6323
  500MOL0     H68946   4.738   9.834   0.379 -0.3916 -0.1140 -1.2553
  500MOL0     H68947   4.791   9.541   0.430 -1.0095 -0.3234 -0.5776
  500MOL0     H68948   4.792   9.657   0.565 -0.0558 -1.1641 -0.0273
  500MOL0     H68949   4.542   9.566   0.275  1.9955 -3.3123  1.1283
  500MOL0     H68950   4.250   9.483   0.305 -2.3830  0.9435 -1.6848
  500MOL0     H68951   4.281   9.634   0.238 -0.8998 -1.1860 -1.3128
  500MOL0     H68952   4.160   9.738   0.447  3.4314 -1.4612  0.2261
  500MOL0     H68953   4.051   9.651   0.340 -2.0550 -1.0799  2.4957
  500MOL0     H68954   4.154   9.528   0.604 -0.5618 -1.3811  1.3242
  500MOL0     H68955   3.995   9.598   0.564  0.8101  0.0072 -0.2633
  500MOL0     H68956   4.122   9.353   0.453  1.5083  1.9928 -0.3178
  500MOL0     H68957   3.999   9.355   0.575  2.2278 -3.0772 -0.4593
  500MOL0     H68958   3.821   9.465   0.183 -2.3187  0.3089  2.1382
  500MOL0     H68959   3.785   9.262  -0.101  0.9521 -1.4055  1.8163
  500MOL0     H68960   3.751   9.427  -0.025 -1.1050 -1.0451  1.2970
  500MOL0     H68961   3.634   9.297  -0.013 -1.2940 -0.0770 -2.1253
  500MOL0     H68962   3.924   8.982  -0.206 -1.7303  1.8408  1.4913
  500MOL0     H68963   3.946   8.796  -0.341  1.1073 -0.4786  2.6555
  500MOL0     H68964   3.981   8.590  -0.428  0.5934  2.5320  0.3987
  500MOL0     H68965   3.877   8.481  -0.511  0.0551 -0.2767  2.3174
  500MOL0     H68966   3.778   8.658  -0.648  2.2196 -3.0991 -2.0187
  500MOL0     H68967   3.866   8.797  -0.568 -0.5378  0.1108  1.4622
  500MOL0     H68968   4.086   8.690  -0.640 -0.0020  4.2978 -0.2476
  500MOL0     H68969   3.975   8.753  -0.759 -1.4267 -1.8064 -0.9334
  500MOL0     H68970   3.911   8.512  -0.815  1.6311 -1.2826 -1.4182
  500MOL0     H68971   4.018   8.452  -0.689 -0.2228  0.9882  1.8242
  500MOL0     H68972   4.096   8.458  -0.930 -1.6650 -1.4942  1.5223
  500MOL0     H68973   4.102   8.635  -0.926  2.9033 -0.4275 -0.1951
  500MOL0     H68974   4.250   8.452  -0.750 -4.1230 -0.9210 -1.6800
  500MOL0     H68975   4.264   8.634  -0.747  0.3311 -0.4092  1.0606
  500MOL0     H68976   4.359   8.441  -0.971  1.6164  0.8398 -1.6645
  500MOL0     H68977   4.471   8.503  -0.850 -0.5868  0.3594 -0.6666
  500MOL0     H68978   4.426   8.732  -0.910  0.3015  1.6978 -1.7556
  500MOL0     H68979   4.338   8.672  -1.054 -1.1088  0.6530  1.6354
  500MOL0     H68980   3.541   8.673  -0.237  0.0939 -0.8643  1.0756
  500MOL0     H68981   3.514   8.880  -0.117 -0.5980 -2.2037 -0.3517
  500MOL0     H68982   3.879   8.999   0.307  0.0758  0.7235  0.0226
  500MOL0     H68983   3.951   9.160   0.460 -2.3123 -1.0939  1.1653
  500MOL0     H68984   5.776   9.713   0.087 -1.5594 -0.3149  2.7257
  500MOL0     H68985   5.997   9.830   0.101  1.1659  0.4429  0.9784
  500MOL0     H68986   6.310   9.961   0.344 -2.1451  2.6178  1.9881
  500MOL0     H68987   6.511  10.064   0.438 -2.7942  1.1866  2.7743
  500MOL0     H68988   6.709  10.326   0.159  2.0476 -0.7087 -0.2047
  500MOL0     H68989   6.699  10.440   0.297  3.0245  1.1210  1.3832
  500MOL0     H68990   6.902  10.234   0.274  3.1064  1.5627 -1.4550
  500MOL0     H68991   6.886  10.368   0.399 -2.1208  3.0570 -1.4174
  500MOL0     H68992   6.929  10.405   0.103  1.3008 -2.2112  0.9039
  500MOL0     H68993   6.896  10.537   0.223 -0.7798 -0.3451  0.2249
  500MOL0     H68994   7.098  10.493   0.341 -1.1786  0.1723 -0.4249
  500MOL0     H68995   7.143  10.531   0.185 -1.3101  0.9701 -0.0091
  500MOL0     H68996   7.274  10.141   0.151  1.8746  1.0362  2.2771
  500MOL0     H68997   6.481  10.393   0.168 -2.3738  0.6907  0.1719
  500MOL0     H68998   6.326  10.408   0.024  0.4971 -4.7153 -2.8519
  500MOL0     H68999   6.188  10.303   0.006 -0.2821  0.5408 -0.2192
  500MOL0     H69000   6.173  10.408   0.146  0.0755 -1.9841  3.3034
  501MOL0     O69001   1.246   8.771   2.083  0.5766  0.5943 -0.2309
  501MOL0     C69002   1.146   8.840   2.102  0.6568 -0.4709 -0.1050
  501MOL0     O69003   1.049   8.848   2.001 -0.7491 -0.1418  1.0455
  501MOL0     C69004   1.086   8.823   1.873 -0.2947  0.3204 -1.4993
  501MOL0     C69005   1.171   8.916   1.799 -0.0863 -0.3245  0.9966
  501MOL0     C69006   1.189   8.893   1.664  0.1408 -0.8854  0.4219
  501MOL0     C69007   1.130   8.784   1.594 -0.7341  0.1445 -0.5963
  501MOL0     O69008   1.142   8.764   1.460  1.0601  0.2019 -0.3986
  501MOL0     C69009   1.255   8.682   1.426  0.1414  0.2810  0.9658
  501MOL0     C69010   1.273   8.674   1.276 -0.4227  0.0732  0.4579
  501MOL0     C69011   1.411   8.624   1.234  0.1509 -0.9622  0.3873
  501MOL0     C69012   1.434   8.620   1.085  1.2259  0.1818 -0.3387
  501MOL0     C69013   1.577   8.580   1.048 -0.3436 -0.2765 -0.1530
  501MOL0     C69014   1.605   8.627   0.909  0.1920  0.0355  0.0563
  501MOL0     C69015   1.755   8.583   0.869  0.4573  0.0036 -0.4737
  501MOL0     C69016   1.795   8.619   0.729  0.9800 -0.4076  0.6048
  501MOL0     N69017   1.688   8.593   0.630 -0.2180 -0.4046  0.6006
  501MOL0     C69018   1.630   8.467   0.602 -0.5914  0.3630  1.3252
  501MOL0     C69019   1.550   8.494   0.486  0.5232 -0.1918  0.0293
  501MOL0     C69020   1.444   8.396   0.442  0.4977  0.1391  0.5551
  501MOL0     C69021   1.319   8.367   0.535  0.5555  0.4936  0.1677
  501MOL0     C69022   1.350   8.281   0.657  0.3402  0.6161 -0.9205
  501MOL0     C69023   1.235   8.207   0.722  1.0444  0.9635  0.0009
  501MOL0     O69024   1.141   8.290   0.791  0.1553 -0.0700  0.0868
  501MOL0     C69025   1.121   8.274   0.924 -0.1910  0.4613 -0.2913
  501MOL0     C69026   1.222   8.281   1.015 -1.2850 -0.0731  0.2146
  501MOL0     C69027   1.206   8.257   1.155  0.0500 -0.3801 -0.3274
  501MOL0     C69028   1.319   8.235   1.257 -0.1162  0.2140 -0.1633
  501MOL0     C69029   1.067   8.236   1.194 -0.4635  0.8786 -0.4748
  501MOL0     C69030   1.022   8.219   1.339 -0.1642  0.1429  0.0043
  501MOL0     O69031   1.089   8.285   1.430  0.4635 -0.1120 -0.4167
  501MOL0     C69032   1.055   8.309   1.554 -0.7001  0.0808 -0.6176
  501MOL0     C69033   1.142   8.289   1.660  0.4757  0.1728  0.1286
  501MOL0     C69034   1.100   8.307   1.787  0.4626  0.4233 -0.7527
  501MOL0     C69035   0.972   8.360   1.819  0.1769  0.2002  0.1426
  501MOL0     O69036   0.914   8.376   1.944 -0.4088 -0.0040  0.7497
  501MOL0     C69037   1.011   8.381   2.052  0.3650  0.1147  0.2277
  501MOL0     C69038   0.924   8.414   2.172  0.4870 -0.0073  0.1706
  501MOL0     C69039   0.870   8.557   2.165  0.3940  0.5595  0.5513
  501MOL0     C69040   0.789   8.573   2.291 -0.0444 -0.7436  0.3146
  501MOL0     C69041   0.867   8.584   2.428  0.7795 -0.3008 -0.1464
  501MOL0     C69042   0.778   8.567   2.546 -0.7103  0.7298  0.8820
  501MOL0     C69043   0.858   8.540   2.673  0.2273  0.3986 -0.1188
  501MOL0     C69044   0.907   8.398   2.671  0.0625  0.4912  0.4323
  501MOL0    Cl69045   1.093   8.404   2.643  0.1877 -0.0853 -0.2131
  501MOL0     C69046   0.886   8.389   1.714  0.1572  0.8416 -0.8578
  501MOL0     C69047   0.925   8.361   1.586 -0.2766  0.4565  0.8533
  501MOL0     O69048   0.920   8.153   1.357  0.0204  0.6459  0.1756
  501MOL0     C69049   0.964   8.236   1.103 -0.1214 -0.0505  0.4067
  501MOL0     C69050   0.991   8.250   0.967 -0.1733 -0.1463 -0.3697
  501MOL0     N69051   1.571   8.626   0.452 -0.4189 -0.2139 -0.0881
  501MOL0     N69052   1.650   8.691   0.535  0.1085 -0.6353  0.4344
  501MOL0     C69053   1.077   8.687   1.672 -0.5256 -0.0861 -0.1861
  501MOL0     C69054   1.054   8.702   1.814  0.0397  0.0334 -0.1318
  501MOL0     C69055   1.125   8.896   2.243  0.0385 -1.2630  0.1542
  501MOL0     C69056   1.210   8.858   2.351 -0.1391  0.6153 -0.5519
  501MOL0     C69057   1.187   8.894   2.484 -0.0578  0.2692 -0.4015
  501MOL0     C69058   1.070   8.974   2.515 -1.2057 -0.6841 -0.7605
  501MOL0     O69059   1.045   9.020   2.636  0.0556 -0.2318 -0.1766
  501MOL0     C69060   1.137   9.001   2.739  0.1663  0.0738  0.0361
  501MOL0     C69061   1.093   9.079   2.863 -0.1025  0.3916  0.4644
  501MOL0     C69062   1.216   9.129   2.932 -0.0803 -1.3587 -0.1064
  501MOL0     C69063   1.174   9.239   3.035  0.1618 -0.0868  0.1371
  501MOL0     C69064   1.105   9.171   3.151  0.0880 -0.6294  0.4322
  501MOL0     C69065   1.037   9.125   3.241 -0.1104 -0.2400  0.1923
  501MOL0     C69066   0.987   9.006   2.414  1.1598 -0.2427  0.4962
  501MOL0     C69067   1.008   8.972   2.281 -0.7401 -0.5285  0.0051
  501MOL0     C69068   0.903   9.028   2.178 -0.1669 -0.6913 -1.1024
  501MOL0     H69069   1.213   9.007   1.841  0.7155  0.3609 -1.1584
  501MOL0     H69070   1.231   8.969   1.598 -2.0067  0.0159  0.0326
  501MOL0     H69071   1.239   8.582   1.469  3.5172 -0.4484  0.8069
  501MOL0     H69072   1.339   8.724   1.482  0.0850  0.6945  0.7410
  501MOL0     H69073   1.188   8.615   1.239 -2.7503  0.4938  4.5256
  501MOL0     H69074   1.250   8.773   1.236  2.4866 -0.6953 -3.7248
  501MOL0     H69075   1.485   8.687   1.283 -0.3909 -0.4445  0.5562
  501MOL0     H69076   1.415   8.517   1.259  0.9679 -1.6124 -2.1827
  501MOL0     H69077   1.366   8.555   1.029 -0.1426  2.4670 -1.4743
  501MOL0     H69078   1.408   8.718   1.043 -0.4652  2.3791  4.9128
  501MOL0     H69079   1.590   8.472   1.039 -2.0639 -0.5785  0.6541
  501MOL0     H69080   1.654   8.620   1.115  1.1550 -1.1807 -1.2712
  501MOL0     H69081   1.540   8.572   0.841 -0.6524  0.4085  0.5504
  501MOL0     H69082   1.594   8.736   0.898  0.8396  0.0707 -0.2784
  501MOL0     H69083   1.754   8.474   0.883  2.6362  0.1473  1.3166
  501MOL0     H69084   1.835   8.625   0.931  0.4576 -2.5076  1.4247
  501MOL0     H69085   1.822   8.724   0.717 -2.6947  0.5630 -0.4025
  501MOL0     H69086   1.882   8.556   0.708  0.8506 -0.5435  0.4708
  501MOL0     H69087   1.622   8.378   0.664  0.3933 -0.2281  0.6346
  501MOL0     H69088   1.488   8.298   0.424  1.7759  0.6226  0.9465
  501MOL0     H69089   1.407   8.423   0.343 -1.2180  2.1614  1.6590
  501MOL0     H69090   1.286   8.464   0.572 -0.7184 -0.0536  0.5328
  501MOL0     H69091   1.243   8.314   0.477  1.0338  0.4006 -0.3839
  501MOL0     H69092   1.421   8.203   0.628  0.9594 -0.0052  2.0209
  501MOL0     H69093   1.399   8.341   0.734  0.4830  1.5991 -1.7575
  501MOL0     H69094   1.185   8.154   0.639  0.8068 -0.9666  1.2975
  501MOL0     H69095   1.269   8.126   0.787  0.1947  1.0639  0.5812
  501MOL0     H69096   1.318   8.307   0.971 -1.8726  2.6963  0.4114
  501MOL0     H69097   1.417   8.230   1.208  1.4245 -2.1580  2.8067
  501MOL0     H69098   1.291   8.138   1.299 -2.9894  1.6222  1.4764
  501MOL0     H69099   1.328   8.308   1.338 -2.5122 -2.2165  2.5689
  501MOL0     H69100   1.243   8.258   1.636  0.6618 -1.4845  2.7299
  501MOL0     H69101   1.167   8.289   1.870  1.7043 -0.0786 -1.8458
  501MOL0     H69102   1.053   8.283   2.075 -0.9464 -0.1294  1.7565
  501MOL0     H69103   1.080   8.461   2.023  0.0572  0.5780  0.7623
  501MOL0     H69104   0.848   8.336   2.184  1.3918 -0.7709  1.0436
  501MOL0     H69105   0.988   8.400   2.259 -2.0395 -0.1933  2.0798
  501MOL0     H69106   0.802   8.582   2.084 -0.1120  0.9873  1.1072
  501MOL0     H69107   0.952   8.629   2.160 -0.6851  1.8846  1.5279
  501MOL0     H69108   0.720   8.489   2.306  2.9750 -3.4853  0.1295
  501MOL0     H69109   0.736   8.668   2.281 -1.4722 -1.5513 -0.1171
  501MOL0     H69110   0.954   8.518   2.430 -0.1820 -1.9163 -3.7568
  501MOL0     H69111   0.916   8.681   2.435 -2.0018  1.1352  1.1484
  501MOL0     H69112   0.706   8.486   2.528 -0.9203  0.8917  0.9940
  501MOL0     H69113   0.720   8.659   2.556 -0.8500  0.8330 -0.5728
  501MOL0     H69114   0.790   8.554   2.758 -0.3513  1.2609 -0.7124
  501MOL0     H69115   0.927   8.619   2.705 -0.3181 -0.2082  2.9035
  501MOL0     H69116   0.863   8.334   2.594 -0.6879 -1.5673  2.4378
  501MOL0     H69117   0.894   8.340   2.763  2.1591  0.3990  0.7299
  501MOL0     H69118   0.786   8.418   1.744 -0.3048 -1.3769  0.0008
  501MOL0     H69119   0.854   8.376   1.505 -1.1033  2.5468  1.8689
  501MOL0     H69120   0.859   8.214   1.117  0.3883 -1.9893  1.7104
  501MOL0     H69121   0.914   8.253   0.890  0.8181  0.8746 -1.3442
  501MOL0     H69122   1.044   8.588   1.641 -1.8852 -0.1145  1.2266
  501MOL0     H69123   0.998   8.632   1.875  0.5923  1.1877  1.7854
  501MOL0     H69124   1.302   8.810   2.318 -1.0990  0.7509 -3.7120
  501MOL0     H69125   1.263   8.858   2.553  0.3832  1.9174  0.0173
  501MOL0     H69126   1.158   8.897   2.765  1.4769  0.6901  1.5797
  501MOL0     H69127   1.228   9.036   2.690 -1.0917  0.3543 -2.2419
  501MOL0     H69128   1.040   9.005   2.925 -3.2902  1.3566 -0.8973
  501MOL0     H69129   1.018   9.158   2.850 -0.1422  0.6674  2.1652
  501MOL0     H69130   1.268   9.052   2.990  0.5744 -0.5824  0.3780
  501MOL0     H69131   1.279   9.185   2.862 -1.4788  0.8408  0.3007
  501MOL0     H69132   1.095   9.304   2.996 -0.7326  1.2433  3.7800
  501MOL0     H69133   1.261   9.294   3.072  0.5227 -0.6074  0.0772
  501MOL0     H69134   0.968   9.077   3.307  1.4320 -1.8543  0.7192
  501MOL0     H69135   0.908   9.072   2.449  0.6735 -1.8535  2.6899
  501MOL0     H69136   0.832   8.951   2.147  0.5134 -2.4790  1.4425
  501MOL0     H69137   0.839   9.106   2.221 -2.8460 -2.5648 -1.4111
  501MOL0     H69138   0.952   9.068   2.088 -0.7329 -2.1102 -2.0776
  502MOL0     O69139   9.703   5.661   9.887  0.7132 -0.3714 -0.7950
  502MOL0     C69140   9.818   5.675   9.867 -0.2984  0.1061  0.0332
  502MOL0     O69141   9.880   5.771   9.789  0.2884  0.6051 -0.1068
  502MOL0     C69142   9.792   5.860   9.729  0.1787 -0.1422  0.6265
  502MOL0     C69143   9.800   5.993   9.768 -0.0841 -0.2759 -0.3471
  502MOL0     C69144   9.723   6.079   9.689  0.1553 -0.0712  0.9690
  502MOL0     C69145   9.626   6.044   9.591  0.3439  0.7802  0.2305
  502MOL0     O69146   9.540   6.125   9.520 -0.1362 -0.3512  0.4558
  502MOL0     C69147   9.531   6.264   9.561 -0.6357 -0.6482 -0.4093
  502MOL0     C69148   9.405   6.332   9.515  0.2218  0.7639 -0.3382
  502MOL0     C69149   9.284   6.268   9.576  1.0340  1.1814 -0.2827
  502MOL0     C69150   9.154   6.332   9.548 -0.0007 -0.0944  0.3837
  502MOL0     C69151   9.096   6.343   9.402  0.3931  0.4944  0.7370
  502MOL0     C69152   8.963   6.414   9.384  0.5873  0.0426 -0.2661
  502MOL0     C69153   8.988   6.560   9.334  1.0365 -0.6825 -0.3301
  502MOL0     C69154   8.850   6.632   9.303  1.0683  0.2693  0.1916
  502MOL0     N69155   8.868   6.772   9.246 -1.1492 -0.5764  0.1555
  502MOL0     C69156   8.885   6.885   9.325 -0.0047 -0.8348 -1.2347
  502MOL0     C69157   8.924   6.984   9.243 -1.1168  0.7370 -0.4882
  502MOL0     C69158   8.961   7.124   9.267 -0.1169 -0.4771 -0.5788
  502MOL0     C69159   8.915   7.229   9.163  0.3409 -0.5951 -0.7031
  502MOL0     C69160   8.950   7.367   9.223 -0.0217  0.1931  0.4298
  502MOL0     C69161   8.886   7.473   9.119  0.8468  0.2303 -0.4250
  502MOL0     O69162   8.751   7.436   9.083 -0.2973 -0.5788  0.4111
  502MOL0     C69163   8.689   7.527   9.005 -0.6270  0.1264  0.8219
  502MOL0     C69164   8.745   7.633   8.930  0.6433  0.3802  0.2700
  502MOL0     C69165   8.665   7.710   8.838 -0.0590  0.0152 -0.1470
  502MOL0     C69166   8.734   7.822   8.763 -0.7946  0.3700 -0.9304
  502MOL0     C69167   8.521   7.686   8.825  0.5030 -0.0854 -0.2574
  502MOL0     C69168   8.433   7.772   8.746 -0.1250 -0.4058  0.0804
  502MOL0     O69169   8.297   7.737   8.750  0.0781  0.6204  0.7952
  502MOL0     C69170   8.216   7.794   8.656 -0.8134  0.9962 -0.3838
  502MOL0     C69171   8.175   7.724   8.545 -0.0785 -0.4755 -0.1458
  502MOL0     C69172   8.104   7.789   8.444  0.3925  0.0440  0.1064
  502MOL0     C69173   8.060   7.919   8.461  0.7177  0.2489 -0.6132
  502MOL0     O69174   7.985   7.992   8.379  0.3802 -0.4163  1.0053
  502MOL0     C69175   7.986   7.965   8.236  0.2773  0.3895 -0.1353
  502MOL0     C69176   7.893   8.065   8.168  0.2927  0.2206  0.6276
  502MOL0     C69177   7.853   8.049   8.019 -0.4684 -0.1732  0.6444
  502MOL0     C69178   7.773   7.918   8.005  0.5318  0.6130  0.0357
  502MOL0     C69179   7.704   7.893   7.868  0.0009  0.6474  0.2619
  502MOL0     C69180   7.673   7.741   7.838  0.5239 -0.5399  0.3877
  502MOL0     C69181   7.657   7.702   7.692  0.1398  0.8944 -0.8812
  502MOL0     C69182   7.783   7.718   7.603 -0.7549  0.5375 -0.0936
  502MOL0    Cl69183   7.781   7.864   7.498 -0.0380  0.1835  0.2767
  502MOL0     C69184   8.099   7.988   8.573  0.3513 -0.5567  0.5442
  502MOL0     C69185   8.179   7.928   8.669 -0.4030 -0.6450  0.8924
  502MOL0     O69186   8.478   7.854   8.663 -0.6414 -0.0830  0.5091
  502MOL0     C69187   8.465   7.585   8.903 -1.0431  0.1354  0.3909
  502MOL0     C69188   8.555   7.506   8.981  0.5276 -0.4081 -0.1470
  502MOL0     N69189   8.927   6.929   9.120 -1.0481  0.7490 -0.3754
  502MOL0     N69190   8.889   6.805   9.119  0.1919  0.5836  0.0507
  502MOL0     C69191   9.623   5.905   9.560  0.3074  0.5121 -0.2128
  502MOL0     C69192   9.707   5.821   9.620  0.5121  0.5404 -0.1412
  502MOL0     C69193   9.909   5.590   9.945 -0.4280  0.2744 -0.2170
  502MOL0     C69194   9.877   5.553  10.076  0.3784 -0.7252 -0.0420
  502MOL0     C69195   9.956   5.485  10.162 -0.2073  0.4320  0.3726
  502MOL0     C69196  10.083   5.449  10.126  0.1305 -0.1255  0.2951
  502MOL0     O69197  10.158   5.368  10.207  0.5567 -0.4814  0.4945
  502MOL0     C69198  10.280   5.310  10.172 -0.0520  0.4984  0.3676
  502MOL0     C69199  10.343   5.216  10.282  0.1204  0.2242  0.1968
  502MOL0     C69200  10.252   5.095  10.280 -0.5470 -0.1056  0.1002
  502MOL0     C69201  10.266   4.997  10.400 -0.1850 -0.5476  0.1077
  502MOL0     C69202  10.229   4.857  10.365 -0.3773  0.6665  0.3126
  502MOL0     C69203  10.199   4.742  10.338 -0.5025  0.7049  0.1868
  502MOL0     C69204  10.116   5.476   9.989 -0.4695 -0.4540  0.1793
  502MOL0     C69205  10.031   5.543   9.897  0.3324 -0.2239 -0.6466
  502MOL0     C69206  10.087   5.569   9.756  0.0025  0.0745 -0.7419
  502MOL0     H69207   9.872   6.032   9.839 -0.5931  1.1517 -0.5838
  502MOL0     H69208   9.733   6.178   9.733  1.6078 -0.8247  2.4811
  502MOL0     H69209   9.606   6.328   9.514 -0.1215 -1.0701 -0.1670
  502MOL0     H69210   9.541   6.278   9.669 -1.8167 -2.1844 -0.0599
  502MOL0     H69211   9.418   6.437   9.544  0.2918  0.3724  1.1284
  502MOL0     H69212   9.394   6.324   9.407  1.4246 -4.7070 -0.2939
  502MOL0     H69213   9.286   6.163   9.543 -1.9944  0.8671  0.2524
  502MOL0     H69214   9.293   6.259   9.685  1.8845 -1.0880 -0.4756
  502MOL0     H69215   9.078   6.276   9.603 -5.2171  2.8554 -2.9300
  502MOL0     H69216   9.159   6.435   9.585  1.0188  0.1210 -0.3263
  502MOL0     H69217   9.083   6.243   9.361 -0.2678  2.1679 -3.6984
  502MOL0     H69218   9.168   6.384   9.330 -0.3305 -0.8149 -0.7944
  502MOL0     H69219   8.906   6.361   9.307 -2.6582 -1.7010  3.0283
  502MOL0     H69220   8.909   6.409   9.480  3.5571 -2.9818  1.4823
  502MOL0     H69221   9.035   6.549   9.236 -0.4327  1.4249 -1.3565
  502MOL0     H69222   9.051   6.607   9.410 -2.4976 -1.9038  3.7201
  502MOL0     H69223   8.799   6.574   9.226  3.9924 -4.0329  1.1194
  502MOL0     H69224   8.780   6.654   9.385 -1.5161  2.2550 -2.3765
  502MOL0     H69225   8.887   6.888   9.433 -3.2233 -1.1010 -1.0567
  502MOL0     H69226   9.069   7.129   9.278 -0.2236  1.6028 -0.1444
  502MOL0     H69227   8.927   7.154   9.367 -0.5314 -0.0892 -0.8301
  502MOL0     H69228   8.972   7.209   9.071  0.7389  2.9169 -1.3620
  502MOL0     H69229   8.809   7.215   9.140  0.5390  0.9068 -2.8610
  502MOL0     H69230   8.886   7.376   9.311 -1.9913  0.8232 -1.0180
  502MOL0     H69231   9.057   7.379   9.243  0.4437  0.0520 -1.7543
  502MOL0     H69232   8.885   7.573   9.162  1.3908 -0.4077  1.1791
  502MOL0     H69233   8.947   7.474   9.028  3.4891 -0.4711  1.2130
  502MOL0     H69234   8.852   7.647   8.918  0.4290  1.9196 -0.0246
  502MOL0     H69235   8.709   7.816   8.657 -1.8926  1.1866 -0.7286
  502MOL0     H69236   8.843   7.808   8.770 -0.7110  0.8966 -1.1288
  502MOL0     H69237   8.723   7.925   8.797  1.2934  0.9925 -1.9491
  502MOL0     H69238   8.197   7.618   8.541  0.8955 -0.5185  3.2575
  502MOL0     H69239   8.087   7.734   8.352 -1.0829  0.4634  0.1047
  502MOL0     H69240   8.089   7.976   8.201 -0.3773 -0.1218 -2.3751
  502MOL0     H69241   7.951   7.863   8.217 -1.8680  1.1065 -0.2870
  502MOL0     H69242   7.796   8.085   8.215 -1.8303 -0.8521 -2.8988
  502MOL0     H69243   7.946   8.160   8.175 -2.3114  1.7672  0.7390
  502MOL0     H69244   7.944   8.045   7.958  0.7797 -2.4009  2.5096
  502MOL0     H69245   7.797   8.137   7.986  1.8810  1.7327  1.4907
  502MOL0     H69246   7.685   7.925   8.069 -1.6819 -1.5546 -2.4853
  502MOL0     H69247   7.836   7.832   8.031 -1.8375 -1.0757  0.6156
  502MOL0     H69248   7.615   7.955   7.875 -0.2234  0.3923 -0.2536
  502MOL0     H69249   7.767   7.928   7.785 -2.0333  0.3900 -1.4831
  502MOL0     H69250   7.577   7.722   7.886 -0.4198  1.1846 -0.7106
  502MOL0     H69251   7.743   7.680   7.896  1.2311  1.3004  1.5864
  502MOL0     H69252   7.576   7.766   7.655 -0.1828  0.5598 -0.7556
  502MOL0     H69253   7.617   7.600   7.697  0.3688  0.8418  0.3330
  502MOL0     H69254   7.783   7.627   7.541 -2.4599 -0.7978  1.7331
  502MOL0     H69255   7.876   7.716   7.660 -0.5469 -0.2740 -0.4395
  502MOL0     H69256   8.073   8.094   8.579  0.0819 -0.4686 -1.4013
  502MOL0     H69257   8.208   7.982   8.758  0.4669  0.2965  0.0728
  502MOL0     H69258   8.361   7.557   8.900 -1.3849  1.1456  1.8934
  502MOL0     H69259   8.521   7.421   9.041  0.1318 -1.1355 -1.3725
  502MOL0     H69260   9.555   5.867   9.484 -0.0191 -0.6429  0.6323
  502MOL0     H69261   9.726   5.718   9.591  0.6759  0.3002  0.7576
  502MOL0     H69262   9.776   5.567  10.113  0.7599  0.3330  0.6609
  502MOL0     H69263   9.906   5.440  10.247  0.3295 -0.2480  0.3369
  502MOL0     H69264  10.263   5.265  10.074  1.5013  1.0352 -0.1850
  502MOL0     H69265  10.353   5.391  10.170 -0.8436  1.2778  1.8062
  502MOL0     H69266  10.347   5.259  10.383  1.1411  0.3556  0.1134
  502MOL0     H69267  10.446   5.184  10.263  0.9388  2.2308  0.9177
  502MOL0     H69268  10.150   5.134  10.276  0.4020  2.5073 -0.4794
  502MOL0     H69269  10.281   5.050  10.185  0.3908  3.9308 -1.7173
  502MOL0     H69270  10.191   5.023  10.475 -1.0122 -0.4797 -0.7325
  502MOL0     H69271  10.358   4.990  10.460 -1.6254 -1.5305  2.3499
  502MOL0     H69272  10.171   4.642  10.309 -0.7506  0.1706  2.1181
  502MOL0     H69273  10.209   5.438   9.949 -1.0091 -2.8859  1.0708
  502MOL0     H69274  10.121   5.673   9.751  3.0137 -0.8548 -1.6911
  502MOL0     H69275  10.182   5.516   9.745  0.2091  0.4630 -0.8392
  502MOL0     H69276  10.010   5.547   9.682 -1.0937  6.5916 -2.1313
  503MOL0     O69277   3.717   4.133   9.750  0.0819 -0.1684  0.7516
  503MOL0     C69278   3.693   4.052   9.666  1.2791 -0.2549  0.6515
  503MOL0     O69279   3.760   4.032   9.550 -0.6085 -1.0219  0.0261
  503MOL0     C69280   3.876   4.100   9.529  0.8955  0.8894 -0.1130
  503MOL0     C69281   3.881   4.190   9.425  0.1777  0.4292 -0.4389
  503MOL0     C69282   3.999   4.256   9.396  0.2249 -0.7580  0.4840
  503MOL0     C69283   4.114   4.230   9.471  0.0896 -0.6182  0.6831
  503MOL0     O69284   4.244   4.264   9.431  0.0831 -0.0814 -0.0802
  503MOL0     C69285   4.261   4.307   9.289  0.6338  0.5961 -0.7029
  503MOL0     C69286   4.409   4.326   9.261 -0.0750 -0.8131 -0.0632
  503MOL0     C69287   4.418   4.407   9.124  0.4921  1.1589 -0.1004
  503MOL0     C69288   4.565   4.463   9.116  0.8726  0.8494  0.1935
  503MOL0     C69289   4.572   4.574   9.011  0.2200 -0.1580  0.3955
  503MOL0     C69290   4.701   4.666   9.033 -0.5276  0.8338  0.1296
  503MOL0     C69291   4.840   4.602   9.000 -0.2417 -0.5526  0.0481
  503MOL0     C69292   4.955   4.704   9.008  0.2370 -0.7710 -0.8093
  503MOL0     N69293   5.071   4.643   8.948 -0.2369 -0.3505 -0.2797
  503MOL0     C69294   5.081   4.618   8.813 -1.0986 -0.2403  0.0644
  503MOL0     C69295   5.204   4.566   8.784 -0.7831 -0.3464 -0.8698
  503MOL0     C69296   5.265   4.534   8.644  0.2304  0.0235 -0.6772
  503MOL0     C69297   5.422   4.506   8.653  0.3898  0.4638 -0.4574
  503MOL0     C69298   5.506   4.635   8.654  0.0612 -0.0799 -0.7297
  503MOL0     C69299   5.492   4.738   8.544  0.4355  0.1935  0.2788
  503MOL0     O69300   5.458   4.674   8.419 -0.2292  0.4267  0.2398
  503MOL0     C69301   5.389   4.755   8.333  0.4172  0.3051  0.6046
  503MOL0     C69302   5.396   4.892   8.330  0.6038 -1.4430  0.1614
  503MOL0     C69303   5.332   4.968   8.227 -0.0236 -0.0137 -0.0851
  503MOL0     C69304   5.327   5.114   8.255 -0.1757  0.3145 -0.3929
  503MOL0     C69305   5.234   4.901   8.145  0.2095  0.4492 -0.5923
  503MOL0     C69306   5.157   4.978   8.049  0.0710  0.3217 -0.0168
  503MOL0     O69307   5.210   5.078   7.978  0.5301  0.5513 -0.1622
  503MOL0     C69308   5.141   5.168   7.911  0.4931  0.5625  0.4391
  503MOL0     C69309   5.057   5.130   7.803  0.1247  0.3837 -0.1689
  503MOL0     C69310   4.975   5.208   7.733 -0.8651  0.0495 -0.4040
  503MOL0     C69311   4.971   5.348   7.762 -0.5072  0.0805  0.3059
  503MOL0     O69312   4.877   5.425   7.700  0.0961 -0.7119 -0.1737
  503MOL0     C69313   4.850   5.560   7.745  0.3260 -0.6040 -0.4403
  503MOL0     C69314   4.719   5.600   7.676 -0.2194 -0.7051  0.0683
  503MOL0     C69315   4.675   5.741   7.706  0.0686 -0.7619  1.0198
  503MOL0     C69316   4.543   5.765   7.632 -0.2468  0.2163  0.6404
  503MOL0     C69317   4.460   5.862   7.714 -0.3442 -0.3732  0.5978
  503MOL0     C69318   4.511   6.006   7.732 -0.4923  0.4314 -0.6872
  503MOL0     C69319   4.515   6.074   7.599  0.3929  0.8422 -0.0216
  503MOL0     C69320   4.572   6.218   7.618  0.8658 -0.5724  0.5354
  503MOL0    Cl69321   4.736   6.233   7.701  0.2779  0.5278 -0.1720
  503MOL0     C69322   5.073   5.396   7.856  0.3094 -0.7600  0.8238
  503MOL0     C69323   5.150   5.303   7.932 -0.8270 -0.0639  0.0027
  503MOL0     O69324   5.042   4.939   8.037 -0.1939  0.4384 -0.3480
  503MOL0     C69325   5.214   4.758   8.148 -0.3934 -0.5126 -0.9484
  503MOL0     C69326   5.292   4.689   8.239 -0.9894 -0.3416 -0.2031
  503MOL0     N69327   5.276   4.566   8.908  0.5952  0.1147  0.9121
  503MOL0     N69328   5.188   4.607   9.000 -0.3040 -0.0406  0.0589
  503MOL0     C69329   4.105   4.152   9.584 -0.6964  0.0775 -1.0207
  503MOL0     C69330   3.987   4.089   9.619  0.4335  0.8193  0.0921
  503MOL0     C69331   3.566   3.978   9.684  0.4795 -0.3461 -0.0147
  503MOL0     C69332   3.473   4.035   9.772  0.2469  0.1577  0.4017
  503MOL0     C69333   3.344   3.975   9.794  0.0020 -0.1330  0.8896
  503MOL0     C69334   3.309   3.863   9.716 -0.0570  0.3938 -0.3216
  503MOL0     O69335   3.195   3.786   9.747  0.5354 -0.5868  0.0631
  503MOL0     C69336   3.078   3.853   9.798  0.7348  0.2309  0.2649
  503MOL0     C69337   2.982   3.744   9.805 -0.5158  0.2540 -0.1503
  503MOL0     C69338   2.920   3.696   9.676  0.2557 -0.4958  0.4194
  503MOL0     C69339   3.024   3.632   9.577 -0.3499  0.3397  0.0575
  503MOL0     C69340   2.957   3.557   9.470  1.0848 -1.2498 -0.2083
  503MOL0     C69341   2.906   3.486   9.381  0.5913  0.2402 -0.6718
  503MOL0     C69342   3.406   3.810   9.629 -0.1909  0.3566  0.0573
  503MOL0     C69343   3.524   3.882   9.605 -0.1078 -0.4434 -0.4201
  503MOL0     C69344   3.594   3.826   9.476  0.4686  0.5785  0.3271
  503MOL0     H69345   3.795   4.205   9.361 -1.5816 -4.0775  0.4834
  503MOL0     H69346   3.998   4.320   9.308  0.0085 -1.5573 -0.1059
  503MOL0     H69347   4.202   4.394   9.259  0.2290  1.4252  2.2099
  503MOL0     H69348   4.223   4.225   9.227  1.2331  0.5579 -1.0289
  503MOL0     H69349   4.450   4.375   9.350 -1.1722 -1.1692  0.6523
  503MOL0     H69350   4.445   4.224   9.247  2.0123 -0.5547  2.7486
  503MOL0     H69351   4.391   4.345   9.038  1.0031 -1.0277  1.2295
  503MOL0     H69352   4.356   4.496   9.137 -0.3831  0.3274  1.8609
  503MOL0     H69353   4.583   4.517   9.210 -3.1705 -0.2791  1.8460
  503MOL0     H69354   4.634   4.382   9.092 -0.7920 -0.1807 -1.4166
  503MOL0     H69355   4.489   4.644   9.028  1.8877  1.8716  0.5429
  503MOL0     H69356   4.570   4.534   8.909  1.8028  0.9626 -0.1143
  503MOL0     H69357   4.685   4.760   8.979 -1.1826  0.3788 -0.4861
  503MOL0     H69358   4.705   4.698   9.138  1.1300 -1.0377  0.7010
  503MOL0     H69359   4.845   4.568   8.897  2.0609  2.7103 -1.0607
  503MOL0     H69360   4.852   4.507   9.054 -0.0823 -0.7035 -0.2530
  503MOL0     H69361   4.936   4.800   8.958  1.2383 -1.4854 -2.6430
  503MOL0     H69362   4.976   4.734   9.111  0.8594 -1.2700 -0.7901
  503MOL0     H69363   5.009   4.637   8.733 -1.7316 -0.4605  0.5716
  503MOL0     H69364   5.248   4.619   8.577  0.0591  0.1857 -0.4273
  503MOL0     H69365   5.223   4.448   8.592  0.1644  0.6590 -1.7100
  503MOL0     H69366   5.448   4.447   8.742  0.0803  1.9665  0.6695
  503MOL0     H69367   5.444   4.453   8.560 -0.7849 -1.3448  0.2543
  503MOL0     H69368   5.469   4.697   8.737  0.6871  3.0934 -2.6573
  503MOL0     H69369   5.610   4.612   8.677 -0.0391  1.5209  1.7142
  503MOL0     H69370   5.414   4.808   8.574 -0.0608 -0.5715  0.8219
  503MOL0     H69371   5.582   4.798   8.527  1.2587 -0.5357  1.8379
  503MOL0     H69372   5.443   4.946   8.412 -1.7022  3.2539 -1.2121
  503MOL0     H69373   5.420   5.158   8.293 -0.2720 -0.2301  0.5168
  503MOL0     H69374   5.250   5.135   8.330 -0.3668 -0.9770 -0.1985
  503MOL0     H69375   5.304   5.174   8.166  4.5501  0.1836 -1.9822
  503MOL0     H69376   5.052   5.023   7.783  1.7079 -0.0085  1.2912
  503MOL0     H69377   4.913   5.170   7.653 -1.9568 -1.3897  1.0699
  503MOL0     H69378   4.835   5.573   7.853  0.7357  0.6072 -0.5145
  503MOL0     H69379   4.932   5.630   7.726 -0.1579  0.4778  1.1908
  503MOL0     H69380   4.713   5.591   7.567  0.1430  1.3593 -0.1707
  503MOL0     H69381   4.638   5.535   7.711  0.3669 -1.0056  0.8890
  503MOL0     H69382   4.746   5.816   7.668 -0.1487 -2.1265 -2.4725
  503MOL0     H69383   4.668   5.758   7.814  1.5449  1.5859  0.8369
  503MOL0     H69384   4.487   5.671   7.642  0.7127 -0.0735  4.7784
  503MOL0     H69385   4.566   5.790   7.528  0.3846  0.0775  0.7425
  503MOL0     H69386   4.363   5.875   7.665 -1.5619 -1.1596  2.6307
  503MOL0     H69387   4.437   5.816   7.811 -0.7958  2.2167  1.7911
  503MOL0     H69388   4.616   6.005   7.764 -0.7417 -4.6479  0.7855
  503MOL0     H69389   4.441   6.061   7.796 -2.1752  1.8003 -3.4856
  503MOL0     H69390   4.416   6.074   7.554 -0.6006 -5.0365  1.3318
  503MOL0     H69391   4.588   6.028   7.531 -0.4345 -2.0320  0.8662
  503MOL0     H69392   4.495   6.270   7.676 -0.7519 -3.0435  0.7749
  503MOL0     H69393   4.559   6.268   7.522 -1.9479  2.4195  2.2691
  503MOL0     H69394   5.080   5.503   7.869 -0.9306 -0.5093 -0.3643
  503MOL0     H69395   5.214   5.346   8.009  3.0872 -1.4321 -2.1853
  503MOL0     H69396   5.133   4.714   8.089 -1.9123 -2.6426  2.4387
  503MOL0     H69397   5.282   4.581   8.240 -0.4271 -0.4209  1.7860
  503MOL0     H69398   4.190   4.155   9.650 -1.6808  2.3830  0.2472
  503MOL0     H69399   3.979   4.032   9.711  3.0019 -0.6995 -0.5012
  503MOL0     H69400   3.500   4.121   9.833 -2.3993  2.6343 -1.5935
  503MOL0     H69401   3.268   4.016   9.860 -1.9446 -2.0826 -0.0228
  503MOL0     H69402   3.077   3.901   9.896 -3.8995 -0.8655  0.9808
  503MOL0     H69403   3.038   3.918   9.719  1.5512 -0.2537 -0.5704
  503MOL0     H69404   2.897   3.783   9.863 -1.4184  0.0427 -1.2809
  503MOL0     H69405   3.025   3.658   9.857 -0.9124 -2.6683 -4.1844
  503MOL0     H69406   2.847   3.618   9.697  0.1879 -0.3993  0.5444
  503MOL0     H69407   2.865   3.776   9.626  2.6684  0.5621 -0.6950
  503MOL0     H69408   3.089   3.565   9.634 -1.6822 -0.5899  0.5476
  503MOL0     H69409   3.090   3.706   9.531  0.5183  0.0902  0.8642
  503MOL0     H69410   2.871   3.409   9.316  4.1897 -0.9236 -1.4308
  503MOL0     H69411   3.385   3.713   9.584  2.5160 -0.9460  1.3626
  503MOL0     H69412   3.598   3.889   9.387  1.5340 -0.3856 -0.3209
  503MOL0     H69413   3.701   3.810   9.492  1.2565  2.2376 -2.5870
  503MOL0     H69414   3.549   3.729   9.455  3.7198 -0.5866 -1.9981
  504MOL0     O69415   5.363   0.394   2.827 -0.0995  0.0098 -0.3395
  504MOL0     C69416   5.340   0.318   2.731 -0.4415 -0.1445 -0.3583
  504MOL0     O69417   5.226   0.237   2.727  0.3576  0.0534 -0.4219
  504MOL0     C69418   5.163   0.228   2.846  0.2880  0.7518 -0.8342
  504MOL0     C69419   5.025   0.270   2.852  0.1740 -0.7110 -0.0606
  504MOL0     C69420   4.942   0.238   2.960  0.5348  0.0363  0.0589
  504MOL0     C69421   4.996   0.170   3.070 -0.1845  0.0235 -0.4644
  504MOL0     O69422   4.909   0.143   3.174 -0.2561  0.8594  0.0698
  504MOL0     C69423   4.925   0.018   3.244  0.5068  0.0336 -0.4596
  504MOL0     C69424   4.814  -0.017   3.338  0.5202  0.4892  0.8032
  504MOL0     C69425   4.675  -0.001   3.267 -0.1421 -0.1617  0.2933
  504MOL0     C69426   4.563  -0.047   3.358 -0.5400 -0.4495 -0.3827
  504MOL0     C69427   4.431   0.019   3.304 -0.1609  0.5257 -0.7593
  504MOL0     C69428   4.309  -0.029   3.384 -0.3904  0.7971 -0.0759
  504MOL0     C69429   4.185   0.041   3.340  0.5079 -0.3728 -0.0932
  504MOL0     C69430   4.062   0.008   3.433 -1.1901 -0.2206  0.7040
  504MOL0     N69431   4.042  -0.140   3.445  0.3195  0.3973  0.9932
  504MOL0     C69432   4.104  -0.216   3.543 -0.7585  0.3474  0.6040
  504MOL0     C69433   4.097  -0.338   3.488  0.2716  0.2956 -0.4403
  504MOL0     C69434   4.149  -0.469   3.553 -0.7678  0.5012  0.3200
  504MOL0     C69435   4.243  -0.548   3.454  0.4633 -0.8705  0.7430
  504MOL0     C69436   4.377  -0.475   3.443 -0.2886 -0.2555  0.6927
  504MOL0     C69437   4.472  -0.565   3.350 -0.3070 -0.1416  0.1812
  504MOL0     O69438   4.521  -0.681   3.420 -0.0440  0.0218 -0.0344
  504MOL0     C69439   4.628  -0.656   3.500 -1.1545 -0.0165  0.2361
  504MOL0     C69440   4.705  -0.539   3.520 -1.4752 -0.3667 -0.6285
  504MOL0     C69441   4.822  -0.539   3.601 -0.1827  0.4363 -0.2706
  504MOL0     C69442   4.909  -0.413   3.624  0.2139  0.1534  0.9451
  504MOL0     C69443   4.859  -0.660   3.667 -0.0312  0.3419  0.5257
  504MOL0     C69444   4.968  -0.660   3.763 -0.2698 -0.0355 -0.9995
  504MOL0     O69445   5.088  -0.608   3.733 -0.5883 -0.5670 -0.5017
  504MOL0     C69446   5.182  -0.591   3.835  0.6394  1.3239  0.3819
  504MOL0     C69447   5.317  -0.625   3.801  0.8565 -1.0659  0.2454
  504MOL0     C69448   5.414  -0.636   3.898  0.2439 -1.0360  0.3313
  504MOL0     C69449   5.382  -0.607   4.037 -0.3933 -0.2630 -0.5443
  504MOL0     O69450   5.484  -0.630   4.131 -0.5188  0.1102  0.2290
  504MOL0     C69451   5.437  -0.660   4.265 -0.2743  0.7821  0.0805
  504MOL0     C69452   5.357  -0.800   4.269 -0.6519 -0.2717 -0.3061
  504MOL0     C69453   5.231  -0.791   4.354  0.3537 -0.4519  0.4604
  504MOL0     C69454   5.253  -0.798   4.507  0.6709  0.3144 -0.4923
  504MOL0     C69455   5.128  -0.745   4.579 -0.0372 -1.2745 -0.4112
  504MOL0     C69456   5.091  -0.601   4.545 -0.9414  0.0752  0.0686
  504MOL0     C69457   4.995  -0.550   4.653  0.1610 -0.0913  0.2197
  504MOL0     C69458   5.021  -0.401   4.670 -0.1218  0.3898 -0.0246
  504MOL0    Cl69459   5.188  -0.364   4.712  0.0921 -0.7017 -0.2051
  504MOL0     C69460   5.248  -0.569   4.063  0.0543  0.2843 -1.0904
  504MOL0     C69461   5.146  -0.563   3.968 -0.9819  0.1034  1.1880
  504MOL0     O69462   4.938  -0.724   3.860 -0.0024 -0.0647 -0.1533
  504MOL0     C69463   4.773  -0.771   3.643 -0.4954  1.3090  0.0932
  504MOL0     C69464   4.668  -0.768   3.564 -0.4412  0.3382 -0.7488
  504MOL0     N69465   4.030  -0.342   3.373  0.6948 -0.2917  0.0339
  504MOL0     N69466   3.989  -0.224   3.342 -0.6644 -0.0770 -0.5797
  504MOL0     C69467   5.133   0.127   3.069  0.9101 -0.5507  1.4049
  504MOL0     C69468   5.216   0.156   2.957  0.5995  0.3840  0.1040
  504MOL0     C69469   5.411   0.345   2.600  0.0757  1.0620  0.6650
  504MOL0     C69470   5.339   0.320   2.480 -0.0023  0.0753 -0.0897
  504MOL0     C69471   5.392   0.333   2.354  0.3308 -0.3339  0.3558
  504MOL0     C69472   5.519   0.386   2.336 -0.6120  0.9912  0.1715
  504MOL0     O69473   5.570   0.415   2.207  0.9486 -0.5428  0.4304
  504MOL0     C69474   5.481   0.416   2.094  0.5919 -0.8804  0.3759
  504MOL0     C69475   5.551   0.485   1.984  0.7806  0.7150  0.7643
  504MOL0     C69476   5.440   0.501   1.873 -0.3012 -0.3500  0.1382
  504MOL0     C69477   5.410   0.649   1.869  0.8094  0.1511  0.3704
  504MOL0     C69478   5.315   0.690   1.762  0.4566 -1.0751  0.2667
  504MOL0     C69479   5.237   0.720   1.671 -1.4044  0.6874  0.7541
  504MOL0     C69480   5.598   0.412   2.450 -0.7776  0.2023 -0.0234
  504MOL0     C69481   5.543   0.388   2.581 -0.1977  0.5682 -0.3840
  504MOL0     C69482   5.646   0.393   2.690  0.3330 -0.8863 -0.4507
  504MOL0     H69483   4.987   0.334   2.773 -0.7145 -0.0894  0.8438
  504MOL0     H69484   4.835   0.261   2.963  0.6845  0.7748  0.0463
  504MOL0     H69485   5.016   0.021   3.306  0.2284 -0.2065 -0.0278
  504MOL0     H69486   4.936  -0.059   3.167 -3.1290 -0.7213 -0.4058
  504MOL0     H69487   4.835  -0.119   3.372 -0.1892  1.4246  4.4299
  504MOL0     H69488   4.821   0.056   3.418  2.6444  1.4409 -0.1696
  504MOL0     H69489   4.668   0.106   3.242 -2.8337  0.5961  3.6189
  504MOL0     H69490   4.660  -0.050   3.170  0.8366 -2.8677  1.4361
  504MOL0     H69491   4.548  -0.155   3.359 -1.9216 -0.2868  1.1566
  504MOL0     H69492   4.577  -0.015   3.462 -2.4596  1.6814 -0.7012
  504MOL0     H69493   4.420  -0.015   3.200 -2.6214  0.3613 -0.5013
  504MOL0     H69494   4.435   0.128   3.299  0.6823  0.6724  1.8697
  504MOL0     H69495   4.302  -0.133   3.350 -1.3238  1.2245 -1.2477
  504MOL0     H69496   4.336  -0.008   3.488  0.6187 -2.1535  0.3651
  504MOL0     H69497   4.164   0.022   3.235 -1.7161 -0.7963  0.3795
  504MOL0     H69498   4.198   0.149   3.350 -1.1490 -0.3350  2.7479
  504MOL0     H69499   4.104   0.046   3.527  0.1137 -0.8592  0.4093
  504MOL0     H69500   3.972   0.064   3.405 -0.3672  2.2221  2.5316
  504MOL0     H69501   4.160  -0.186   3.631 -0.9855 -0.2702  0.9664
  504MOL0     H69502   4.065  -0.534   3.578 -1.7920  1.8933  0.5766
  504MOL0     H69503   4.203  -0.460   3.647 -0.5672 -2.1547  0.5500
  504MOL0     H69504   4.265  -0.650   3.486  2.2237 -0.3306  1.3728
  504MOL0     H69505   4.201  -0.554   3.354  1.8845  0.4334  0.0176
  504MOL0     H69506   4.337  -0.380   3.407 -2.9186 -0.8666  1.7356
  504MOL0     H69507   4.429  -0.466   3.539  1.8101 -1.9007 -0.1935
  504MOL0     H69508   4.408  -0.594   3.267 -0.1580  0.4948 -0.1589
  504MOL0     H69509   4.548  -0.499   3.307 -1.6456  0.4023 -1.4378
  504MOL0     H69510   4.677  -0.454   3.459 -1.4798  0.9628  1.1639
  504MOL0     H69511   4.834  -0.333   3.621 -2.1522 -1.9197 -2.8017
  504MOL0     H69512   4.976  -0.406   3.538 -0.4354  1.5422  0.5317
  504MOL0     H69513   4.970  -0.402   3.715  1.3055 -1.6229  0.4778
  504MOL0     H69514   5.346  -0.644   3.698  3.0945 -1.9480  0.9904
  504MOL0     H69515   5.508  -0.675   3.861  1.0408 -1.2719  2.4412
  504MOL0     H69516   5.517  -0.655   4.339 -0.1016  0.9326 -0.1155
  504MOL0     H69517   5.374  -0.575   4.294 -0.8158  0.1189  0.8841
  504MOL0     H69518   5.338  -0.824   4.164  1.3319 -1.3902 -0.4596
  504MOL0     H69519   5.422  -0.882   4.300 -1.0736 -2.2135 -3.9120
  504MOL0     H69520   5.153  -0.861   4.324 -0.8878  0.9595  0.2859
  504MOL0     H69521   5.197  -0.689   4.333  1.6550  0.4976  2.6324
  504MOL0     H69522   5.343  -0.740   4.533  1.6562 -1.2548 -0.2855
  504MOL0     H69523   5.265  -0.894   4.558 -0.6029  1.7819  2.8714
  504MOL0     H69524   5.044  -0.813   4.561 -0.7905 -1.0172  1.9036
  504MOL0     H69525   5.171  -0.748   4.679 -2.7879 -0.7528  0.8610
  504MOL0     H69526   5.034  -0.614   4.452 -1.8785 -2.7693  0.9056
  504MOL0     H69527   5.172  -0.533   4.521 -0.3966  0.5777  2.9834
  504MOL0     H69528   5.008  -0.602   4.749  0.9780 -2.5910 -1.1426
  504MOL0     H69529   4.895  -0.569   4.615  0.4088 -0.3730 -0.3086
  504MOL0     H69530   4.959  -0.361   4.751 -0.4940  1.0421 -0.6145
  504MOL0     H69531   4.997  -0.354   4.575  3.7766 -1.2810 -2.0865
  504MOL0     H69532   5.230  -0.533   4.164  1.3984 -2.4071  0.2336
  504MOL0     H69533   5.045  -0.537   3.999 -2.1348 -0.5561 -1.7267
  504MOL0     H69534   4.792  -0.875   3.670 -1.5756  0.7500 -1.1960
  504MOL0     H69535   4.613  -0.860   3.549 -1.1892  0.2473  1.9987
  504MOL0     H69536   5.179   0.075   3.153  2.9084  3.0146  2.7129
  504MOL0     H69537   5.313   0.112   2.977 -1.6867 -3.8350  4.0024
  504MOL0     H69538   5.234   0.290   2.479  0.6404 -2.4476 -1.8291
  504MOL0     H69539   5.329   0.305   2.270 -2.3028  3.4575  0.7782
  504MOL0     H69540   5.446   0.319   2.057 -1.9996  0.1649 -0.1368
  504MOL0     H69541   5.392   0.475   2.117  0.8991 -0.4549  0.4830
  504MOL0     H69542   5.633   0.427   1.939  0.2765 -0.7713  1.6930
  504MOL0     H69543   5.596   0.581   2.010  0.8903  0.8178  0.2208
  504MOL0     H69544   5.493   0.470   1.783  0.9377  3.7067 -0.7034
  504MOL0     H69545   5.346   0.444   1.880  0.4207 -1.7799 -1.2980
  504MOL0     H69546   5.506   0.700   1.860  1.8060 -1.2419  2.3049
  504MOL0     H69547   5.368   0.685   1.963 -0.2395  1.1738 -0.4547
  504MOL0     H69548   5.169   0.749   1.595 -0.9425  1.0092  0.4561
  504MOL0     H69549   5.703   0.438   2.436 -0.6551 -1.0642 -2.0075
  504MOL0     H69550   5.598   0.399   2.788  1.8787 -2.8855  0.5053
  504MOL0     H69551   5.704   0.301   2.694  0.3582 -0.8656 -0.3402
  504MOL0     H69552   5.711   0.480   2.688 -0.7754  0.0940  2.1001
  505MOL0     O69553   7.881   6.650  10.920 -0.7877  0.2187 -0.4131
  505MOL0     C69554   7.896   6.622  10.800  0.5924 -0.7279 -0.5768
  505MOL0     O69555   8.015   6.622  10.739 -0.0227  0.2307  1.0520
  505MOL0     C69556   8.134   6.633  10.803 -0.3944  1.7104  0.4709
  505MOL0     C69557   8.164   6.581  10.927 -0.3531 -1.4196  0.1300
  505MOL0     C69558   8.295   6.587  10.967 -0.2892  0.8101 -1.2042
  505MOL0     C69559   8.411   6.625  10.890  0.1144  0.0985  0.7478
  505MOL0     O69560   8.544   6.623  10.914 -0.1825 -0.9977  0.1699
  505MOL0     C69561   8.594   6.667  11.038 -0.1190 -0.6135 -0.1863
  505MOL0     C69562   8.717   6.592  11.089 -0.1240 -0.2006 -0.0156
  505MOL0     C69563   8.771   6.646  11.226 -0.5673  0.5741 -0.6420
  505MOL0     C69564   8.697   6.598  11.347 -0.6277  0.5973  0.6453
  505MOL0     C69565   8.779   6.620  11.472  0.7046  0.0012  0.7636
  505MOL0     C69566   8.719   6.559  11.604 -0.0081  0.7722  0.2883
  505MOL0     C69567   8.724   6.408  11.590  0.5113  0.9244 -0.6323
  505MOL0     C69568   8.784   6.347  11.718  0.0834  0.5080 -0.0539
  505MOL0     N69569   8.767   6.205  11.726  0.4501  0.3540  0.5477
  505MOL0     C69570   8.654   6.127  11.703  0.3112  0.7812 -0.1065
  505MOL0     C69571   8.695   5.997  11.727  0.1308  0.0914  0.2567
  505MOL0     C69572   8.623   5.872  11.676  0.6857 -0.9670  0.2474
  505MOL0     C69573   8.693   5.783  11.570  0.1015 -0.3490  0.7782
  505MOL0     C69574   8.633   5.639  11.540  0.5213 -1.0215 -1.1638
  505MOL0     C69575   8.714   5.564  11.430  0.7975  0.6882  0.1431
  505MOL0     O69576   8.842   5.634  11.412 -0.5092 -0.2050 -0.4634
  505MOL0     C69577   8.937   5.611  11.320 -0.6189  0.5303 -0.3261
  505MOL0     C69578   9.012   5.722  11.292 -1.2711  0.5581 -0.1388
  505MOL0     C69579   9.110   5.713  11.191  0.6273 -0.2266  0.5941
  505MOL0     C69580   9.176   5.843  11.162  0.4464  0.2779  0.6881
  505MOL0     C69581   9.129   5.591  11.123  0.4175  1.3871 -0.2720
  505MOL0     C69582   9.223   5.566  11.014 -0.3114 -0.6068 -0.2998
  505MOL0     O69583   9.349   5.628  11.011 -0.6843 -0.5508  0.5919
  505MOL0     C69584   9.464   5.581  10.955  0.4626 -0.1600 -0.3924
  505MOL0     C69585   9.570   5.669  10.938 -0.0045 -0.4633 -0.4378
  505MOL0     C69586   9.690   5.633  10.870 -0.1002  0.5146 -0.2346
  505MOL0     C69587   9.709   5.497  10.850 -0.0331 -0.4540 -0.1339
  505MOL0     O69588   9.821   5.448  10.793  0.0677 -0.3239 -0.4473
  505MOL0     C69589   9.900   5.514  10.694  0.9301  0.7436  0.1997
  505MOL0     C69590  10.016   5.423  10.648  0.8694 -0.6573  0.0442
  505MOL0     C69591  10.093   5.480  10.530  0.5493  0.4157  0.4264
  505MOL0     C69592  10.188   5.594  10.562  0.1429 -0.1042 -0.5350
  505MOL0     C69593  10.218   5.662  10.433  0.4745 -0.3051  0.5960
  505MOL0     C69594  10.247   5.801  10.461 -0.1935 -0.4849 -0.0155
  505MOL0     C69595  10.135   5.892  10.512  0.8108  0.6278 -0.6044
  505MOL0     C69596  10.022   5.909  10.421  1.0410  0.1347  0.6723
  505MOL0    Cl69597   9.931   6.052  10.469  0.6840  0.3787  0.0835
  505MOL0     C69598   9.608   5.406  10.864 -1.0446  0.4469  0.2810
  505MOL0     C69599   9.478   5.447  10.913 -0.0266 -0.7225  0.0877
  505MOL0     O69600   9.181   5.490  10.926 -0.4297  0.8090  0.4075
  505MOL0     C69601   9.043   5.479  11.155 -0.2243  0.3932 -0.1097
  505MOL0     C69602   8.951   5.489  11.255 -0.1736 -0.0530  0.1295
  505MOL0     N69603   8.834   5.996  11.756 -0.6080 -0.0417  0.3704
  505MOL0     N69604   8.874   6.116  11.747 -0.9504 -0.2237 -0.5228
  505MOL0     C69605   8.386   6.646  10.755  0.0415 -0.4275  0.1707
  505MOL0     C69606   8.251   6.653  10.715 -0.6152 -0.9647 -0.3009
  505MOL0     C69607   7.772   6.603  10.710 -0.3359 -0.3968 -0.0739
  505MOL0     C69608   7.766   6.669  10.583 -0.5079  1.2595 -0.1564
  505MOL0     C69609   7.660   6.649  10.497 -0.4026 -0.5216  0.3310
  505MOL0     C69610   7.555   6.569  10.539  0.1004  0.9370  1.2595
  505MOL0     O69611   7.454   6.563  10.445 -0.1658  0.1116 -0.1000
  505MOL0     C69612   7.343   6.479  10.476 -0.2451  0.6391  1.1425
  505MOL0     C69613   7.233   6.503  10.368 -0.1117 -0.5520 -0.6070
  505MOL0     C69614   7.108   6.427  10.416  0.3769  0.2750 -0.6969
  505MOL0     C69615   6.987   6.483  10.345  0.4914 -0.1076 -0.0452
  505MOL0     C69616   6.873   6.399  10.375 -1.4804  0.4256  0.0806
  505MOL0     C69617   6.788   6.314  10.379 -0.2748  0.3805 -0.2638
  505MOL0     C69618   7.559   6.490  10.660 -0.4627 -0.7801  1.3514
  505MOL0     C69619   7.666   6.508  10.739 -0.0652 -0.0425 -0.2914
  505MOL0     C69620   7.678   6.417  10.859  0.6035  0.0146  0.3839
  505MOL0     H69621   8.081   6.547  10.989 -0.4854  3.2845  3.0453
  505MOL0     H69622   8.322   6.548  11.065 -0.5037  1.2901 -0.9545
  505MOL0     H69623   8.507   6.663  11.105 -1.9730  0.3985 -2.4060
  505MOL0     H69624   8.625   6.771  11.026 -2.4399  0.3873  1.6143
  505MOL0     H69625   8.694   6.485  11.091 -1.8151  0.1334  1.7441
  505MOL0     H69626   8.798   6.611  11.019 -2.5978  2.3043 -2.4414
  505MOL0     H69627   8.875   6.617  11.242 -0.4034  3.0652  5.9248
  505MOL0     H69628   8.767   6.755  11.227 -3.4096  0.5635  1.1242
  505MOL0     H69629   8.603   6.654  11.358 -2.6170 -2.6314  1.6486
  505MOL0     H69630   8.663   6.494  11.339 -3.0482  1.4104 -0.4856
  505MOL0     H69631   8.797   6.728  11.477  0.0191  0.0972  1.2296
  505MOL0     H69632   8.881   6.581  11.464  0.9220  0.3971  1.5093
  505MOL0     H69633   8.768   6.584  11.699 -0.2546 -1.7731  1.1625
  505MOL0     H69634   8.612   6.581  11.605 -1.1966 -3.7711 -1.1129
  505MOL0     H69635   8.790   6.381  11.507  0.1058  3.4840 -1.8824
  505MOL0     H69636   8.627   6.364  11.568 -0.2919  2.3101  0.0307
  505MOL0     H69637   8.887   6.382  11.718  0.4607 -0.5717  0.2165
  505MOL0     H69638   8.736   6.404  11.798  0.1612  1.6790 -0.8142
  505MOL0     H69639   8.563   6.161  11.655 -0.5300  0.2576  1.0554
  505MOL0     H69640   8.535   5.911  11.625  0.5327  0.5250  1.6006
  505MOL0     H69641   8.589   5.811  11.760  0.2635  2.3689  2.7075
  505MOL0     H69642   8.709   5.840  11.478 -2.3519 -1.0692 -0.1783
  505MOL0     H69643   8.785   5.767  11.628  0.4791 -0.3999  0.1748
  505MOL0     H69644   8.653   5.579  11.628  3.5014  0.9607 -0.3478
  505MOL0     H69645   8.525   5.650  11.526  0.9181  3.9056 -2.4763
  505MOL0     H69646   8.741   5.464  11.464  3.3904  1.1873 -0.2376
  505MOL0     H69647   8.657   5.549  11.338  1.5378  0.5482 -0.3070
  505MOL0     H69648   8.989   5.809  11.353 -3.9906  2.1857 -3.1635
  505MOL0     H69649   9.137   5.905  11.080  1.8459  3.8721  2.5223
  505MOL0     H69650   9.283   5.824  11.148  1.0472  2.9126  1.1638
  505MOL0     H69651   9.183   5.902  11.253  0.5295  2.6496 -0.7682
  505MOL0     H69652   9.567   5.761  10.995  0.7349 -0.6501 -0.0836
  505MOL0     H69653   9.772   5.704  10.866  0.1173  0.3385  0.9037
  505MOL0     H69654   9.841   5.536  10.605  0.8348  1.8501  0.5204
  505MOL0     H69655   9.936   5.612  10.726  2.5171  0.6813 -1.2695
  505MOL0     H69656  10.080   5.396  10.732  0.5249  2.0044  1.2628
  505MOL0     H69657   9.969   5.328  10.620 -2.0771  1.1106 -1.5709
  505MOL0     H69658  10.021   5.509  10.453 -0.0851 -1.7233  0.1456
  505MOL0     H69659  10.157   5.398  10.494  0.6984  1.2361 -1.2967
  505MOL0     H69660  10.282   5.565  10.610  1.3403  3.7354 -0.2512
  505MOL0     H69661  10.137   5.653  10.639 -1.4205  1.2345 -2.5181
  505MOL0     H69662  10.302   5.608  10.388  2.4234  2.1786  1.0214
  505MOL0     H69663  10.142   5.665  10.355  2.7340  0.9002 -1.7220
  505MOL0     H69664  10.302   5.853  10.382  1.8855 -0.5901  1.2813
  505MOL0     H69665  10.314   5.798  10.547 -3.5003  0.4174  2.7959
  505MOL0     H69666  10.192   5.984  10.529  0.9662  0.4237 -0.0221
  505MOL0     H69667  10.105   5.857  10.611  2.2998  1.3095  0.1154
  505MOL0     H69668   9.959   5.820  10.416  0.3735  0.6197  0.2842
  505MOL0     H69669  10.057   5.922  10.318 -2.1982 -1.0582 -0.7045
  505MOL0     H69670   9.632   5.304  10.835  0.3996  0.6074  0.8202
  505MOL0     H69671   9.391   5.382  10.917  0.9011 -2.1344 -1.2257
  505MOL0     H69672   9.052   5.391  11.093  0.3012  1.0809 -1.0350
  505MOL0     H69673   8.882   5.414  11.290 -1.1155  1.0490  0.6981
  505MOL0     H69674   8.462   6.677  10.684 -0.6986 -1.8289 -1.3237
  505MOL0     H69675   8.226   6.656  10.609  3.1046  2.5127 -1.2872
  505MOL0     H69676   7.846   6.737  10.556  0.8509 -0.7094 -1.3316
  505MOL0     H69677   7.651   6.703  10.403  0.3610 -1.8134 -0.5110
  505MOL0     H69678   7.378   6.379  10.450  2.5014  1.6398  0.6744
  505MOL0     H69679   7.304   6.490  10.577 -0.3894  2.1080  0.9483
  505MOL0     H69680   7.266   6.460  10.273 -3.1755  0.2376 -2.1660
  505MOL0     H69681   7.211   6.610  10.354 -3.3205 -1.3129 -2.4671
  505MOL0     H69682   7.122   6.325  10.377 -0.9613  0.4507 -1.7378
  505MOL0     H69683   7.099   6.428  10.525  0.0507 -0.0603 -0.7182
  505MOL0     H69684   7.001   6.491  10.236 -1.9491  3.7947 -0.2540
  505MOL0     H69685   6.960   6.583  10.379 -3.0029 -1.2533  0.9265
  505MOL0     H69686   6.711   6.240  10.392  1.5739 -1.4221  1.1606
  505MOL0     H69687   7.477   6.423  10.683 -2.3651  0.3019 -1.6014
  505MOL0     H69688   7.577   6.395  10.896  0.6336 -2.3746 -0.8216
  505MOL0     H69689   7.719   6.319  10.836 -2.2794 -1.2755  0.2618
  505MOL0     H69690   7.741   6.455  10.940  2.4900 -1.8284 -0.1704
  506MOL0     O69691   5.328   5.165   3.098 -0.2320 -0.3651  0.3119
  506MOL0     C69692   5.422   5.092   3.082 -0.0127  0.0911 -0.2979
  506MOL0     O69693   5.548   5.129   3.096  0.0516 -0.0372  0.5023
  506MOL0     C69694   5.576   5.252   3.157 -0.4678  0.1405 -0.2704
  506MOL0     C69695   5.593   5.268   3.298 -0.2352 -0.4739 -0.9726
  506MOL0     C69696   5.620   5.397   3.359 -0.0089  0.2145 -0.7975
  506MOL0     C69697   5.632   5.512   3.272 -0.4301  0.3835 -0.7446
  506MOL0     O69698   5.646   5.632   3.336 -0.4222  0.1239 -0.1405
  506MOL0     C69699   5.620   5.752   3.269 -0.6181 -0.5866  0.4470
  506MOL0     C69700   5.657   5.883   3.347  0.0449 -0.2377  0.6651
  506MOL0     C69701   5.791   5.873   3.416  0.6600 -0.3766 -0.9372
  506MOL0     C69702   5.849   6.017   3.445  0.0891 -0.3761  0.5204
  506MOL0     C69703   5.990   6.013   3.499 -0.3745  0.5092  0.5860
  506MOL0     C69704   6.058   6.149   3.504  0.6227  0.5779  0.0618
  506MOL0     C69705   6.007   6.226   3.629 -0.3828  0.8065  0.5069
  506MOL0     C69706   6.092   6.350   3.647  0.0269 -0.0253 -0.1753
  506MOL0     N69707   6.012   6.466   3.700  0.3839  0.2264 -0.5055
  506MOL0     C69708   5.940   6.460   3.820 -1.1104 -0.2295 -0.1328
  506MOL0     C69709   5.847   6.550   3.800  0.0861  0.3744 -0.7172
  506MOL0     C69710   5.736   6.554   3.901  0.6200  0.2134  0.5825
  506MOL0     C69711   5.766   6.607   4.043 -0.5359 -0.4222  1.0234
  506MOL0     C69712   5.757   6.495   4.150 -0.5407 -0.7166  0.5351
  506MOL0     C69713   5.610   6.468   4.176 -0.9467  0.3906 -0.3458
  506MOL0     O69714   5.532   6.587   4.213  0.0894  0.6923  0.4708
  506MOL0     C69715   5.557   6.664   4.321  0.5783  0.6039  0.3375
  506MOL0     C69716   5.467   6.771   4.339 -0.3118  0.5795 -0.4090
  506MOL0     C69717   5.478   6.866   4.437 -0.3956 -0.2609 -0.3953
  506MOL0     C69718   5.391   6.985   4.423  0.3862  0.1924 -0.1655
  506MOL0     C69719   5.581   6.855   4.531 -0.5003 -0.5915 -0.3470
  506MOL0     C69720   5.606   6.952   4.643 -0.5927 -1.2212  0.1935
  506MOL0     O69721   5.723   6.928   4.713  0.1167  0.1229  0.2248
  506MOL0     C69722   5.766   7.012   4.813 -0.0859 -0.4819 -0.6776
  506MOL0     C69723   5.830   6.961   4.929 -0.4289  0.0597 -0.6330
  506MOL0     C69724   5.884   7.052   5.024 -1.0445  0.3659  0.1244
  506MOL0     C69725   5.873   7.193   5.020  0.3166 -0.5496 -0.4174
  506MOL0     O69726   5.928   7.291   5.107  0.2014  0.6249 -1.0589
  506MOL0     C69727   6.014   7.237   5.211  0.4802  0.0065  0.4999
  506MOL0     C69728   6.031   7.344   5.324  0.2832  0.2867  0.7331
  506MOL0     C69729   5.903   7.351   5.409  0.2587  0.1078  0.2771
  506MOL0     C69730   5.938   7.418   5.542 -0.6019  1.3777  0.1431
  506MOL0     C69731   5.819   7.462   5.629  0.6974  0.1408  0.2316
  506MOL0     C69732   5.876   7.535   5.749 -0.1053  0.5946 -0.0999
  506MOL0     C69733   5.770   7.591   5.847  0.7469 -0.6435  0.0861
  506MOL0     C69734   5.831   7.678   5.967  0.3629 -0.4339  0.2696
  506MOL0    Cl69735   5.909   7.827   5.895 -0.0181  0.5475 -0.5957
  506MOL0     C69736   5.806   7.248   4.906  0.8728 -0.6393 -0.3135
  506MOL0     C69737   5.759   7.153   4.804  0.6282  0.3083 -0.2690
  506MOL0     O69738   5.528   7.046   4.661 -0.9487  0.3648 -0.7616
  506MOL0     C69739   5.653   6.734   4.523  0.4340  0.2979 -1.4142
  506MOL0     C69740   5.645   6.644   4.423 -1.3196 -0.0671  0.6851
  506MOL0     N69741   5.867   6.618   3.679 -0.3514 -0.9762 -0.6412
  506MOL0     N69742   5.962   6.561   3.621  0.5976  0.5319  0.1075
  506MOL0     C69743   5.628   5.490   3.135  1.1973  0.8918  0.4202
  506MOL0     C69744   5.594   5.369   3.076  0.1961  0.4498  0.4003
  506MOL0     C69745   5.395   4.956   3.034 -0.1823  0.5334 -0.2262
  506MOL0     C69746   5.500   4.854   3.044 -0.1931 -0.2504 -0.3383
  506MOL0     C69747   5.466   4.725   3.001 -0.5214 -0.0193 -0.1197
  506MOL0     C69748   5.340   4.681   2.969 -0.5091 -0.2132 -0.1255
  506MOL0     O69749   5.317   4.557   2.927 -0.0287 -0.5184 -0.3055
  506MOL0     C69750   5.227   4.486   3.023  0.0479  0.4896 -0.3287
  506MOL0     C69751   5.246   4.340   2.991 -0.1843  0.1873  0.3912
  506MOL0     C69752   5.198   4.312   2.843 -0.2300 -0.1361 -0.7600
  506MOL0     C69753   5.172   4.164   2.820  0.8222 -0.2138  1.0291
  506MOL0     C69754   5.052   4.128   2.898 -0.4964 -0.3087 -0.6464
  506MOL0     C69755   4.947   4.113   2.959  0.5907  0.2930  0.3307
  506MOL0     C69756   5.234   4.775   2.969  0.0151 -0.1709 -0.1429
  506MOL0     C69757   5.262   4.911   2.991 -0.1887 -0.5451 -0.7633
  506MOL0     C69758   5.151   5.007   2.957  0.2979 -0.1722  0.3990
  506MOL0     H69759   5.575   5.186   3.366 -1.1123  0.8466  0.4450
  506MOL0     H69760   5.614   5.405   3.467 -3.2870  0.3774 -0.9119
  506MOL0     H69761   5.514   5.752   3.241 -0.2627  3.4674 -1.5891
  506MOL0     H69762   5.677   5.762   3.177  0.2504  1.0178  1.1094
  506MOL0     H69763   5.661   5.970   3.282 -1.0822 -1.1519 -0.6803
  506MOL0     H69764   5.585   5.894   3.428  2.7291  2.0024  2.9664
  506MOL0     H69765   5.786   5.818   3.511  0.3071  2.4266  0.7790
  506MOL0     H69766   5.862   5.830   3.345  0.1217  2.4941 -3.3836
  506MOL0     H69767   5.845   6.062   3.345  1.0454  0.3313  0.7828
  506MOL0     H69768   5.783   6.081   3.503 -0.2077  0.0647 -0.2850
  506MOL0     H69769   6.043   5.946   3.431 -1.3839 -2.1951  2.2716
  506MOL0     H69770   5.996   5.976   3.602  0.9621  0.0761  0.3647
  506MOL0     H69771   6.166   6.140   3.516  0.5559 -0.7146 -0.1554
  506MOL0     H69772   6.036   6.201   3.410 -0.2029  1.2602  0.6169
  506MOL0     H69773   6.015   6.167   3.721  0.6569  0.8703  0.4702
  506MOL0     H69774   5.903   6.251   3.604  1.0394  3.1209 -4.3168
  506MOL0     H69775   6.179   6.329   3.709  0.2747 -1.7718 -1.0526
  506MOL0     H69776   6.129   6.385   3.550 -2.7809  0.7763 -1.0647
  506MOL0     H69777   5.951   6.390   3.902  1.4179 -0.8371 -0.9160
  506MOL0     H69778   5.693   6.454   3.912  1.2434  0.1593  3.1196
  506MOL0     H69779   5.658   6.611   3.849 -0.4117  0.9226  2.7970
  506MOL0     H69780   5.863   6.657   4.041 -0.4752 -0.4882 -1.8666
  506MOL0     H69781   5.693   6.686   4.061 -1.4653 -0.8402 -0.6582
  506MOL0     H69782   5.814   6.408   4.118  0.5436 -0.3953  1.5054
  506MOL0     H69783   5.798   6.545   4.239 -0.1196 -0.5336  0.2407
  506MOL0     H69784   5.565   6.422   4.088  1.7471  0.3504 -1.8052
  506MOL0     H69785   5.595   6.400   4.260 -1.3576  0.1821 -0.5852
  506MOL0     H69786   5.390   6.784   4.264 -0.1059  0.8341 -0.5769
  506MOL0     H69787   5.310   6.975   4.350 -0.1589 -2.3257  0.6850
  506MOL0     H69788   5.456   7.071   4.407 -3.0731  3.8752  3.0427
  506MOL0     H69789   5.331   6.987   4.515 -1.1004 -1.0188 -1.0696
  506MOL0     H69790   5.840   6.854   4.944 -1.2567 -0.0967 -1.1412
  506MOL0     H69791   5.935   7.007   5.108  0.0063  2.3326  0.5967
  506MOL0     H69792   5.987   7.142   5.258 -1.8924  0.5702  0.3705
  506MOL0     H69793   6.106   7.211   5.158 -0.5093 -1.6307 -0.4991
  506MOL0     H69794   6.117   7.310   5.383  1.4179  0.5278 -0.7356
  506MOL0     H69795   6.054   7.442   5.283 -0.4789  0.1598 -0.0086
  506MOL0     H69796   5.867   7.251   5.438 -0.4701  0.8076  1.9578
  506MOL0     H69797   5.833   7.405   5.345  0.9337  0.3485 -0.2550
  506MOL0     H69798   5.993   7.509   5.516 -1.7237  1.8947 -0.4975
  506MOL0     H69799   6.008   7.356   5.599 -1.9816 -0.8456 -0.4593
  506MOL0     H69800   5.750   7.530   5.577  0.3719 -1.2308 -1.2126
  506MOL0     H69801   5.763   7.371   5.650 -0.2250  0.7197  0.3519
  506MOL0     H69802   5.942   7.619   5.729 -1.1550  0.9774 -2.2393
  506MOL0     H69803   5.939   7.463   5.804  0.5988  0.8245 -0.5937
  506MOL0     H69804   5.713   7.515   5.901  2.8068 -1.5045  1.1550
  506MOL0     H69805   5.703   7.653   5.786  1.6809 -2.2291 -2.7131
  506MOL0     H69806   5.912   7.619   6.011  1.5144  1.4165  0.7328
  506MOL0     H69807   5.747   7.695   6.035 -1.2203 -0.5077 -1.5682
  506MOL0     H69808   5.799   7.355   4.893  1.8095 -0.0083  3.4049
  506MOL0     H69809   5.706   7.194   4.718  2.3939 -0.0298 -1.5771
  506MOL0     H69810   5.719   6.702   4.603 -0.8094  4.0993  1.4689
  506MOL0     H69811   5.719   6.564   4.425  1.0955  1.9988  3.7937
  506MOL0     H69812   5.635   5.566   3.058  2.1123  0.9491  0.5517
  506MOL0     H69813   5.574   5.368   2.970  4.6376  1.9962 -0.6801
  506MOL0     H69814   5.601   4.876   3.077 -0.4309  2.1213 -1.0151
  506MOL0     H69815   5.541   4.647   3.012 -0.9197 -0.3603  0.1980
  506MOL0     H69816   5.246   4.510   3.128 -1.8909  2.0499 -0.2713
  506MOL0     H69817   5.123   4.514   3.003 -0.3819  0.6796  1.8999
  506MOL0     H69818   5.192   4.268   3.053  4.8585 -4.4138  0.2507
  506MOL0     H69819   5.355   4.329   2.990  0.1442  2.6818 -2.2718
  506MOL0     H69820   5.111   4.373   2.815 -0.3186 -0.8211 -2.0429
  506MOL0     H69821   5.276   4.343   2.773  0.4305 -2.5500 -1.1981
  506MOL0     H69822   5.255   4.095   2.840  0.6280 -0.4041  1.2009
  506MOL0     H69823   5.132   4.153   2.719 -1.5678  1.0896  1.7444
  506MOL0     H69824   4.846   4.108   2.994  0.6936 -1.9642  0.4231
  506MOL0     H69825   5.135   4.731   2.960  0.0662 -0.6703  1.4845
  506MOL0     H69826   5.071   4.962   2.898  1.5604  0.8186 -2.2246
  506MOL0     H69827   5.102   5.054   3.043 -2.1321 -2.0129  0.1100
  506MOL0     H69828   5.202   5.088   2.904 -0.1454 -0.2070 -0.0947
  507MOL0     O69829  11.293   9.479  10.602  0.1758  0.0831 -0.7663
  507MOL0     C69830  11.225   9.545  10.674  0.1451 -0.3314  0.3016
  507MOL0     O69831  11.241   9.561  10.807 -0.0568  0.1637 -0.0764
  507MOL0     C69832  11.331   9.493  10.890 -0.6251 -0.3219 -0.1721
  507MOL0     C69833  11.387   9.559  10.996  0.0408  0.4305 -0.1070
  507MOL0     C69834  11.475   9.491  11.080 -0.8406 -0.3251  1.1505
  507MOL0     C69835  11.524   9.354  11.060  0.1766  0.0295 -0.2381
  507MOL0     O69836  11.598   9.294  11.153 -0.3644  0.1533  0.8773
  507MOL0     C69837  11.660   9.169  11.110  1.2047 -0.1368 -1.1641
  507MOL0     C69838  11.785   9.160  11.198  0.5992 -0.5377 -0.1301
  507MOL0     C69839  11.744   9.131  11.348 -0.5700  1.1290  0.8609
  507MOL0     C69840  11.859   9.174  11.431  0.1588  0.1929  0.3523
  507MOL0     C69841  11.844   9.119  11.575 -0.2622 -0.3792 -0.1877
  507MOL0     C69842  11.923   8.985  11.596  0.7496 -0.4338 -1.4092
  507MOL0     C69843  11.880   8.868  11.499 -1.3451  0.1712 -0.0456
  507MOL0     C69844  11.953   8.730  11.516  0.6838 -0.4269 -0.1173
  507MOL0     N69845  11.900   8.669  11.638 -0.8341  0.5352  0.2001
  507MOL0     C69846  11.957   8.683  11.765  0.1041  0.4435  0.1198
  507MOL0     C69847  11.852   8.660  11.849 -0.4554  0.4188  0.6315
  507MOL0     C69848  11.852   8.662  11.992 -1.0888  0.3097 -0.2457
  507MOL0     C69849  11.881   8.528  12.051  0.2745  0.0313 -0.3730
  507MOL0     C69850  12.031   8.499  12.064 -0.6573 -0.2015  0.1647
  507MOL0     C69851  12.062   8.377  12.160 -0.2364 -0.4355 -0.0321
  507MOL0     O69852  12.120   8.428  12.280 -0.7305  0.7002  0.1958
  507MOL0     C69853  12.109   8.348  12.391 -0.2768  0.3882 -0.8611
  507MOL0     C69854  12.174   8.226  12.386  0.4180  0.0916  0.4001
  507MOL0     C69855  12.153   8.145  12.504 -0.6248 -0.0614  0.0713
  507MOL0     C69856  12.216   8.012  12.501 -1.1188  1.2848 -0.6519
  507MOL0     C69857  12.073   8.186  12.614 -0.7372 -0.5553  0.6500
  507MOL0     C69858  12.072   8.119  12.742 -0.7712  1.0392  0.2985
  507MOL0     O69859  12.026   8.191  12.845  0.1306  0.8300  0.0910
  507MOL0     C69860  12.027   8.134  12.969 -0.8517  0.8917  0.5515
  507MOL0     C69861  11.911   8.100  13.032 -1.1463 -0.0584  0.1709
  507MOL0     C69862  11.909   8.054  13.165 -1.0478  0.1896  0.3884
  507MOL0     C69863  12.033   8.037  13.237  0.0802  0.7311 -1.0343
  507MOL0     O69864  12.041   7.996  13.373 -0.0709 -0.3326 -0.1287
  507MOL0     C69865  12.124   7.879  13.402 -0.2584  0.4312  0.1288
  507MOL0     C69866  12.207   7.888  13.533  0.0627 -0.4779  0.0124
  507MOL0     C69867  12.288   8.026  13.538 -0.2099 -0.3536  0.6691
  507MOL0     C69868  12.366   8.035  13.677  0.5099  0.2813 -0.2172
  507MOL0     C69869  12.508   7.994  13.679 -0.5207  0.2710 -1.1407
  507MOL0     C69870  12.557   8.009  13.821 -0.3546 -0.0824  0.6290
  507MOL0     C69871  12.708   7.990  13.826  0.4524  0.3883  0.4874
  507MOL0     C69872  12.751   7.943  13.968  0.1629 -0.0770  0.8716
  507MOL0    Cl69873  12.906   7.858  13.964  0.4223 -0.1203  0.0873
  507MOL0     C69874  12.146   8.067  13.166  0.7651  0.4972 -0.4663
  507MOL0     C69875  12.145   8.121  13.035 -0.7465 -0.3477 -0.1274
  507MOL0     O69876  12.085   7.996  12.741  0.0676  0.7271 -0.3432
  507MOL0     C69877  12.006   8.314  12.606 -0.5352 -0.4557  0.2064
  507MOL0     C69878  12.031   8.394  12.494 -0.2315  0.4841 -0.6122
  507MOL0     N69879  11.743   8.621  11.778 -0.7127  0.1934  0.0403
  507MOL0     N69880  11.769   8.637  11.650  0.0381  0.2410 -0.3312
  507MOL0     C69881  11.476   9.296  10.941  0.3798  0.5814 -0.6463
  507MOL0     C69882  11.374   9.359  10.863  0.8080 -0.2493  0.5161
  507MOL0     C69883  11.113   9.626  10.606  0.4523 -0.3678 -0.9748
  507MOL0     C69884  11.112   9.643  10.467 -0.3189 -0.4494  0.4538
  507MOL0     C69885  11.016   9.706  10.389 -0.2130  0.3868 -0.4042
  507MOL0     C69886  10.904   9.766  10.454  0.6108 -0.4839 -0.0903
  507MOL0     O69887  10.791   9.818  10.402 -0.0486  0.6480  0.1291
  507MOL0     C69888  10.806   9.881  10.274 -0.1417  0.8789 -0.6707
  507MOL0     C69889  10.699   9.982  10.237 -0.4061  0.2411  0.2767
  507MOL0     C69890  10.681  10.096  10.336  0.4930 -0.0514  0.1208
  507MOL0     C69891  10.543  10.164  10.318  0.5200 -0.1249  0.9192
  507MOL0     C69892  10.538  10.293  10.395 -0.6040  0.3383  0.4245
  507MOL0     C69893  10.530  10.400  10.457 -0.3662 -0.1932  0.3104
  507MOL0     C69894  10.903   9.748  10.597 -1.1511  0.4066 -0.1971
  507MOL0     C69895  11.003   9.682  10.676  0.6960 -0.3774 -0.0837
  507MOL0     C69896  10.994   9.707  10.829 -0.3284 -0.1921  0.7166
  507MOL0     H69897  11.375   9.665  11.012  1.7710  0.8258 -1.1698
  507MOL0     H69898  11.506   9.553  11.164  2.9849  1.2981 -1.2000
  507MOL0     H69899  11.689   9.175  11.005 -0.6726 -1.2851 -1.7985
  507MOL0     H69900  11.595   9.081  11.119  0.0750  0.8920  2.0876
  507MOL0     H69901  11.844   9.073  11.166 -0.5854 -1.3188 -0.2621
  507MOL0     H69902  11.851   9.246  11.185 -1.2374  0.7646 -1.2634
  507MOL0     H69903  11.652   9.181  11.376 -0.9496  0.8759  0.0891
  507MOL0     H69904  11.724   9.025  11.364 -0.5509  1.1990  1.3700
  507MOL0     H69905  11.955   9.148  11.387 -0.7972  0.2737 -1.9316
  507MOL0     H69906  11.867   9.284  11.431 -1.4367  0.3914  2.9335
  507MOL0     H69907  11.737   9.104  11.591 -0.0628 -0.5249  1.0824
  507MOL0     H69908  11.872   9.190  11.652 -1.4462 -0.1122  0.0220
  507MOL0     H69909  12.030   9.004  11.602  0.6881 -0.2994  3.7971
  507MOL0     H69910  11.896   8.955  11.697 -3.6094 -1.7202 -2.7266
  507MOL0     H69911  11.902   8.907  11.399  0.0087  1.2529  0.6476
  507MOL0     H69912  11.772   8.850  11.495 -1.4383  0.8590 -2.3179
  507MOL0     H69913  11.933   8.665  11.431 -1.0268  0.7211 -0.6414
  507MOL0     H69914  12.060   8.753  11.520  0.5538  0.2730 -0.4228
  507MOL0     H69915  12.051   8.731  11.790  0.4205 -0.8892  1.7133
  507MOL0     H69916  11.757   8.700  12.031  0.1993  2.1040  1.3600
  507MOL0     H69917  11.926   8.737  12.021 -0.9477  0.9376 -2.1416
  507MOL0     H69918  11.818   8.516  12.139 -0.3114  0.5288 -0.7188
  507MOL0     H69919  11.839   8.453  11.983 -2.3725 -1.3656  2.5589
  507MOL0     H69920  12.064   8.473  11.963 -2.9277  1.6539 -1.1342
  507MOL0     H69921  12.092   8.583  12.099 -0.9016 -0.9200  2.4892
  507MOL0     H69922  11.977   8.314  12.186  1.1161 -1.7535  1.4964
  507MOL0     H69923  12.147   8.320  12.120 -1.4627 -3.9630  1.9302
  507MOL0     H69924  12.230   8.191  12.300 -3.8507  0.3701 -2.8457
  507MOL0     H69925  12.302   8.014  12.432  0.8059 -0.0927  1.5789
  507MOL0     H69926  12.137   7.940  12.481 -0.4071 -0.2116  1.6353
  507MOL0     H69927  12.274   7.989  12.591 -2.7948 -1.8219 -0.2351
  507MOL0     H69928  11.814   8.109  12.985 -1.4305 -0.9888  0.5566
  507MOL0     H69929  11.817   8.030  13.217 -0.1459  1.4977  2.7477
  507MOL0     H69930  12.061   7.789  13.401  1.8941 -1.1602 -1.6373
  507MOL0     H69931  12.195   7.867  13.320 -2.0473 -0.0751 -1.4417
  507MOL0     H69932  12.156   7.877  13.628  2.6195  0.6661  1.6385
  507MOL0     H69933  12.270   7.799  13.525 -1.9742 -2.0415  0.5846
  507MOL0     H69934  12.210   8.103  13.532  0.1492  0.3148  3.3485
  507MOL0     H69935  12.360   8.039  13.458  1.8159  0.8270  2.5673
  507MOL0     H69936  12.321   7.969  13.751  0.4156  1.5884  0.9258
  507MOL0     H69937  12.349   8.139  13.705  0.4692  0.9420 -2.4674
  507MOL0     H69938  12.505   7.887  13.656 -1.1098  0.2677 -1.0782
  507MOL0     H69939  12.569   8.052  13.609  2.5725  0.3848  1.4539
  507MOL0     H69940  12.500   7.941  13.885 -1.3758 -1.4326 -1.5801
  507MOL0     H69941  12.531   8.111  13.848 -1.4572  0.6712 -2.7761
  507MOL0     H69942  12.760   8.082  13.799  3.0059 -1.5778 -1.9341
  507MOL0     H69943  12.729   7.925  13.741 -2.7528 -1.1371  0.6779
  507MOL0     H69944  12.676   7.875  14.010  0.3680 -1.2386 -0.5796
  507MOL0     H69945  12.756   8.023  14.042 -1.9033 -0.4761  1.5107
  507MOL0     H69946  12.238   8.061  13.222 -0.1887 -2.4487  0.9822
  507MOL0     H69947  12.239   8.153  12.992  0.4749 -3.2287  0.1562
  507MOL0     H69948  11.927   8.348  12.671 -2.3398 -0.0293 -2.0568
  507MOL0     H69949  11.979   8.489  12.484  1.6125  1.4541 -1.5390
  507MOL0     H69950  11.503   9.198  10.902 -1.5443 -0.3164  0.1233
  507MOL0     H69951  11.332   9.306  10.779 -0.0047 -0.3932  0.9950
  507MOL0     H69952  11.197   9.591  10.422  0.6666  4.1525 -3.9080
  507MOL0     H69953  11.027   9.708  10.281 -0.3177 -3.4761 -0.6364
  507MOL0     H69954  10.903   9.931  10.268  0.4298 -0.3403 -2.8216
  507MOL0     H69955  10.808   9.804  10.196  1.6036  2.2318 -2.0389
  507MOL0     H69956  10.611   9.917  10.237  0.6385 -1.2078  0.3712
  507MOL0     H69957  10.703  10.018  10.134 -0.6263  0.2636  0.2738
  507MOL0     H69958  10.689  10.059  10.439  1.1854 -1.5809 -0.4604
  507MOL0     H69959  10.755  10.175  10.321 -0.3259  0.6423 -0.3435
  507MOL0     H69960  10.461  10.104  10.360  1.0995 -0.1775  2.0069
  507MOL0     H69961  10.527  10.178  10.211  2.4183 -0.1408  0.6121
  507MOL0     H69962  10.517  10.489  10.515 -1.1957 -0.0781 -0.0345
  507MOL0     H69963  10.817   9.782  10.655 -2.1122 -0.6459 -0.9531
  507MOL0     H69964  10.893   9.729  10.866  0.0930 -0.5501  2.1654
  507MOL0     H69965  11.025   9.610  10.871  1.0832 -1.1088 -2.1830
  507MOL0     H69966  11.072   9.777  10.859  2.6120 -2.7034 -0.4531
  508MOL0     O69967   7.019   0.998   0.093 -0.0502  0.2276 -0.5628
  508MOL0     C69968   7.006   0.898   0.165 -0.7452  0.1075  0.3557
  508MOL0     O69969   6.954   0.777   0.131 -0.4868 -0.3560  1.2181
  508MOL0     C69970   6.891   0.775   0.009 -0.5708 -1.1063 -0.0727
  508MOL0     C69971   6.955   0.778  -0.109 -0.5287  0.3345  0.2501
  508MOL0     C69972   6.885   0.770  -0.227 -0.1110  0.1528  0.1356
  508MOL0     C69973   6.746   0.760  -0.221 -0.6930 -1.5728  0.2254
  508MOL0     O69974   6.659   0.744  -0.325 -1.0162 -0.4242 -0.3858
  508MOL0     C69975   6.701   0.673  -0.437 -0.3576 -1.3711 -0.4202
  508MOL0     C69976   6.586   0.679  -0.536 -0.1579  0.3325  0.0750
  508MOL0     C69977   6.440   0.652  -0.474 -0.6062 -0.1796 -0.3450
  508MOL0     C69978   6.332   0.625  -0.573  0.0516  0.5831  0.1707
  508MOL0     C69979   6.215   0.542  -0.507  0.5526  1.2611 -0.3924
  508MOL0     C69980   6.088   0.527  -0.600  0.9137  0.2908  0.0328
  508MOL0     C69981   6.117   0.438  -0.726 -0.1364 -0.1221 -0.1724
  508MOL0     C69982   5.996   0.456  -0.828  1.0870  0.0740 -0.2494
  508MOL0     N69983   5.888   0.360  -0.793 -0.5253 -0.1411 -0.3011
  508MOL0     C69984   5.788   0.370  -0.705 -0.9805  0.3319 -0.9473
  508MOL0     C69985   5.715   0.260  -0.717  0.1224 -0.7176  0.1179
  508MOL0     C69986   5.601   0.233  -0.626 -0.5329  0.1783  0.3202
  508MOL0     C69987   5.460   0.232  -0.694 -0.2696  0.7078  0.6832
  508MOL0     C69988   5.434   0.129  -0.811 -0.7237  0.0496  0.1845
  508MOL0     C69989   5.471  -0.012  -0.774 -0.5716 -0.8396 -0.3860
  508MOL0     O69990   5.373  -0.049  -0.678  0.4059 -0.7666  0.3745
  508MOL0     C69991   5.376  -0.182  -0.638 -0.2768 -0.5441  0.3745
  508MOL0     C69992   5.303  -0.213  -0.521  0.0089 -0.6166 -0.2948
  508MOL0     C69993   5.320  -0.341  -0.459  0.8929 -0.0182 -0.3496
  508MOL0     C69994   5.249  -0.334  -0.326 -0.5987 -0.0857 -0.0194
  508MOL0     C69995   5.392  -0.441  -0.525  0.1077 -0.0758 -1.1065
  508MOL0     C69996   5.415  -0.574  -0.463  0.1167  0.2495 -0.5462
  508MOL0     O69997   5.500  -0.656  -0.534  0.6294  0.5527 -0.8098
  508MOL0     C69998   5.476  -0.796  -0.504  1.1041 -0.2052  0.0915
  508MOL0     C69999   5.344  -0.858  -0.517  0.2517 -0.7731  0.4074
  508MOL0     C70000   5.325  -1.001  -0.499 -0.3682  0.6311  0.3257
  508MOL0     C70001   5.435  -1.079  -0.457 -0.8622  0.0275 -0.1742
  508MOL0     O70002   5.421  -1.215  -0.436  0.0520  0.3014  0.6443
  508MOL0     C70003   5.456  -1.255  -0.301  0.4232  0.7092  1.2969
  508MOL0     C70004   5.581  -1.356  -0.314  0.4492  0.5089 -1.0331
  508MOL0     C70005   5.564  -1.495  -0.246  0.0427  0.0366  0.1588
  508MOL0     C70006   5.685  -1.587  -0.268 -0.7399 -0.7926  0.8183
  508MOL0     C70007   5.664  -1.734  -0.239  0.6497 -0.3149  0.2796
  508MOL0     C70008   5.801  -1.810  -0.261  0.6501  0.0646  0.6055
  508MOL0     C70009   5.775  -1.969  -0.271 -0.7531  0.3347 -0.6757
  508MOL0     C70010   5.725  -1.991  -0.413  0.4386  0.4602 -0.7179
  508MOL0    Cl70011   5.855  -1.982  -0.528  0.0192 -0.1194 -0.3817
  508MOL0     C70012   5.565  -1.019  -0.450  0.2780 -0.3715  0.6297
  508MOL0     C70013   5.577  -0.883  -0.473  0.0899 -0.3096 -1.0330
  508MOL0     O70014   5.365  -0.597  -0.352 -0.2278  0.0920 -0.4116
  508MOL0     C70015   5.457  -0.412  -0.638  0.6556  0.6547 -0.4446
  508MOL0     C70016   5.454  -0.286  -0.692 -0.2476 -1.1143  0.6787
  508MOL0     N70017   5.750   0.185  -0.824 -0.0348  0.0082  0.6049
  508MOL0     N70018   5.859   0.241  -0.866  0.6145  0.3292 -0.4155
  508MOL0     C70019   6.681   0.768  -0.103 -0.0078 -0.6545  0.2336
  508MOL0     C70020   6.756   0.780   0.016 -0.1585 -0.5455  0.4151
  508MOL0     C70021   7.041   0.926   0.306 -0.6576 -0.1411 -0.9254
  508MOL0     C70022   7.134   1.033   0.327 -0.5388 -0.2755  0.8327
  508MOL0     C70023   7.155   1.069   0.458 -0.0499 -0.4867  0.4700
  508MOL0     C70024   7.100   0.994   0.574  0.8577 -0.1158 -0.0311
  508MOL0     O70025   7.127   1.048   0.701 -0.1471 -0.6622  0.1193
  508MOL0     C70026   7.099   0.969   0.818 -0.2417 -0.7315 -0.3948
  508MOL0     C70027   6.954   0.998   0.889  0.5207 -0.1447  0.7372
  508MOL0     C70028   6.939   1.149   0.904 -0.3379 -0.6161 -0.2726
  508MOL0     C70029   6.809   1.210   0.961 -0.0267  0.4422  0.0614
  508MOL0     C70030   6.686   1.154   0.887 -0.0630 -0.6321 -1.0295
  508MOL0     C70031   6.585   1.119   0.834 -0.6082  0.6635  0.0326
  508MOL0     C70032   7.029   0.875   0.546  0.3551 -0.7618  0.0646
  508MOL0     C70033   6.995   0.844   0.416  0.4375  0.2181 -0.3945
  508MOL0     C70034   6.900   0.718   0.396 -0.1077 -0.4359  0.3956
  508MOL0     H70035   7.064   0.776  -0.113 -0.3829  2.6112  1.4330
  508MOL0     H70036   6.911   0.774  -0.332 -3.2580 -0.4167 -0.7775
  508MOL0     H70037   6.744   0.578  -0.405  3.3555 -0.0634 -1.0687
  508MOL0     H70038   6.780   0.733  -0.483 -1.8466  0.9879 -0.0863
  508MOL0     H70039   6.586   0.781  -0.575 -1.4662 -1.0172 -4.0252
  508MOL0     H70040   6.615   0.609  -0.614 -0.6065  0.0694  0.1391
  508MOL0     H70041   6.443   0.579  -0.392  1.1223  1.0530  0.7633
  508MOL0     H70042   6.405   0.742  -0.424 -0.0306  0.2692 -0.7373
  508MOL0     H70043   6.296   0.722  -0.607  0.8594  1.9622  3.0017
  508MOL0     H70044   6.370   0.573  -0.662 -0.2526 -0.9578  0.8979
  508MOL0     H70045   6.173   0.584  -0.415 -0.4577  0.1405 -0.3167
  508MOL0     H70046   6.241   0.438  -0.484  0.6645  1.7882  2.1939
  508MOL0     H70047   6.013   0.472  -0.543  2.4577 -0.1442  1.7286
  508MOL0     H70048   6.042   0.621  -0.632 -0.5292 -0.7523 -1.1149
  508MOL0     H70049   6.124   0.334  -0.691 -1.3730  0.1427  0.9010
  508MOL0     H70050   6.216   0.469  -0.762 -1.1413  3.2848 -0.3322
  508MOL0     H70051   5.952   0.556  -0.836 -2.7281 -1.3653  0.6492
  508MOL0     H70052   6.031   0.423  -0.926  0.2833  0.2119 -0.5905
  508MOL0     H70053   5.767   0.448  -0.632 -0.0685 -1.0568  0.8778
  508MOL0     H70054   5.611   0.295  -0.536  4.0894 -0.2177  0.2889
  508MOL0     H70055   5.629   0.132  -0.595  1.0055  0.0593 -1.3267
  508MOL0     H70056   5.383   0.214  -0.618 -0.4886 -1.8785 -0.0444
  508MOL0     H70057   5.435   0.333  -0.728 -4.2544 -0.0900  0.6589
  508MOL0     H70058   5.327   0.132  -0.834 -0.6954 -5.2236 -1.9133
  508MOL0     H70059   5.494   0.157  -0.898 -0.9605  1.4030  0.4289
  508MOL0     H70060   5.465  -0.080  -0.859  0.0722 -0.4901 -0.7169
  508MOL0     H70061   5.574  -0.018  -0.738 -0.8546 -1.1614  0.3978
  508MOL0     H70062   5.256  -0.137  -0.460  2.0491 -0.6363  1.4131
  508MOL0     H70063   5.315  -0.322  -0.240  1.1741 -1.8893 -1.0433
  508MOL0     H70064   5.190  -0.425  -0.312  0.2488 -0.6836 -0.2508
  508MOL0     H70065   5.180  -0.250  -0.314  0.0590  0.6860 -1.3344
  508MOL0     H70066   5.258  -0.798  -0.544  0.9954  0.2861  0.3458
  508MOL0     H70067   5.225  -1.042  -0.511  1.1069 -2.7673 -2.0281
  508MOL0     H70068   5.469  -1.174  -0.229  1.7520 -0.6484  2.6580
  508MOL0     H70069   5.374  -1.321  -0.271 -0.2646  0.8863 -0.0926
  508MOL0     H70070   5.599  -1.372  -0.421 -1.7975 -2.2836 -1.1060
  508MOL0     H70071   5.665  -1.300  -0.272 -1.0130  0.1480  2.7191
  508MOL0     H70072   5.475  -1.553  -0.269  1.3972 -1.9907 -0.2460
  508MOL0     H70073   5.551  -1.466  -0.141  0.3190  1.3478 -0.1450
  508MOL0     H70074   5.762  -1.548  -0.201  0.1126  1.5975 -1.3716
  508MOL0     H70075   5.718  -1.583  -0.372  0.5805  1.1372  1.2613
  508MOL0     H70076   5.633  -1.742  -0.134 -4.3127 -1.3136 -0.9883
  508MOL0     H70077   5.583  -1.784  -0.293  0.8507 -0.2582 -0.0710
  508MOL0     H70078   5.868  -1.785  -0.178  0.2583  1.1434  0.6181
  508MOL0     H70079   5.845  -1.771  -0.353 -2.1254  0.3287 -0.7258
  508MOL0     H70080   5.711  -2.004  -0.190  2.0007  1.7161  2.3535
  508MOL0     H70081   5.865  -2.031  -0.261  0.8689  2.3444 -1.8662
  508MOL0     H70082   5.642  -1.930  -0.447  0.9545  2.4854  1.3882
  508MOL0     H70083   5.683  -2.092  -0.417 -0.5810  0.8948 -1.1337
  508MOL0     H70084   5.652  -1.080  -0.426 -0.4801 -1.7403 -0.0018
  508MOL0     H70085   5.675  -0.837  -0.466 -0.8649  1.9239 -1.3510
  508MOL0     H70086   5.513  -0.495  -0.679 -0.3868 -1.1280  1.5821
  508MOL0     H70087   5.514  -0.264  -0.780 -2.6539  2.9493 -0.2413
  508MOL0     H70088   6.573   0.772  -0.105 -0.0445 -1.4230  0.4050
  508MOL0     H70089   6.700   0.792   0.108 -2.2135 -0.1797 -0.7953
  508MOL0     H70090   7.184   1.091   0.250  2.8699 -1.4928  1.9958
  508MOL0     H70091   7.225   1.143   0.496  0.2751 -0.7862  0.4653
  508MOL0     H70092   7.119   0.864   0.797 -0.6005 -0.3969 -2.6818
  508MOL0     H70093   7.182   0.995   0.884 -1.0603  1.8467 -0.2504
  508MOL0     H70094   6.960   0.959   0.991 -0.5306  0.7117  1.1467
  508MOL0     H70095   6.866   0.959   0.838  1.3717 -2.1087  0.6749
  508MOL0     H70096   7.012   1.189   0.976 -0.8655  2.1785 -1.1611
  508MOL0     H70097   6.956   1.204   0.810  0.8702 -2.3160 -1.0939
  508MOL0     H70098   6.821   1.319   0.961  0.7331  0.3984 -1.6739
  508MOL0     H70099   6.802   1.187   1.068 -1.2412  1.5872  0.2555
  508MOL0     H70100   6.493   1.085   0.790  0.2588  0.6703 -1.9123
  508MOL0     H70101   6.990   0.822   0.632 -0.3208 -0.5239 -0.0810
  508MOL0     H70102   6.820   0.740   0.325  2.1043  2.5237 -1.4051
  508MOL0     H70103   6.963   0.642   0.350  1.4662  2.3839 -2.4673
  508MOL0     H70104   6.862   0.690   0.495 -0.7800 -1.4909 -0.1430
  509MOL0     O70105   1.739   2.554   3.034 -0.7229 -0.0713 -0.5266
  509MOL0     C70106   1.794   2.481   2.956  0.0116  0.3922 -0.2913
  509MOL0     O70107   1.902   2.502   2.881  0.5784 -0.9315 -0.4394
  509MOL0     C70108   1.925   2.623   2.824  0.0997  0.2229  1.4334
  509MOL0     C70109   1.974   2.718   2.910  0.0098  0.0961 -0.2704
  509MOL0     C70110   2.008   2.845   2.857  0.3298  0.5848  0.0555
  509MOL0     C70111   2.006   2.872   2.720 -0.5750  0.7830  0.0253
  509MOL0     O70112   2.049   2.984   2.654 -0.7205 -0.2162 -0.2808
  509MOL0     C70113   2.142   3.078   2.714  0.2219 -0.3504 -0.0353
  509MOL0     C70114   2.071   3.207   2.757  0.5654  0.5183 -0.4393
  509MOL0     C70115   2.172   3.316   2.770  0.2615 -0.5859  0.1066
  509MOL0     C70116   2.106   3.451   2.763  1.1714 -0.0512  0.2894
  509MOL0     C70117   2.211   3.563   2.753 -0.2697  0.0224 -0.1535
  509MOL0     C70118   2.138   3.683   2.709  0.7701 -1.0339  0.1977
  509MOL0     C70119   2.212   3.818   2.731 -0.9744  0.1987 -0.5694
  509MOL0     C70120   2.360   3.830   2.690 -0.6950  0.1387  0.0052
  509MOL0     N70121   2.387   3.872   2.559 -1.0850  0.1761 -0.2944
  509MOL0     C70122   2.428   3.795   2.452  0.6441 -0.1077 -0.2723
  509MOL0     C70123   2.423   3.865   2.336 -0.2888  0.8978  0.2824
  509MOL0     C70124   2.432   3.813   2.194  0.5443  0.1905  0.8178
  509MOL0     C70125   2.575   3.804   2.135  0.0924 -0.0219 -0.4566
  509MOL0     C70126   2.564   3.770   1.988 -0.4456  0.3569  0.0624
  509MOL0     C70127   2.694   3.785   1.905  0.4835 -0.3545 -0.5828
  509MOL0     O70128   2.797   3.703   1.957  0.2307  0.3154 -0.0806
  509MOL0     C70129   2.874   3.733   2.068 -0.2609 -0.0927  0.1508
  509MOL0     C70130   2.886   3.860   2.117 -0.6494  0.2747 -0.0321
  509MOL0     C70131   2.971   3.880   2.229 -0.8035  0.2101  0.5668
  509MOL0     C70132   2.973   4.017   2.294 -0.3630 -0.2984  0.5042
  509MOL0     C70133   3.059   3.771   2.282 -0.2628  0.5815 -0.2535
  509MOL0     C70134   3.151   3.785   2.394 -0.6561 -0.1141  0.7890
  509MOL0     O70135   3.204   3.903   2.418  0.3990  0.1138 -0.6170
  509MOL0     C70136   3.302   3.916   2.514  0.7812  0.1070 -0.2096
  509MOL0     C70137   3.422   3.974   2.496 -0.7519 -0.7184 -0.6381
  509MOL0     C70138   3.526   3.971   2.587  0.4292  0.5754  0.3080
  509MOL0     C70139   3.505   3.908   2.708  0.2160  0.5517 -0.4553
  509MOL0     O70140   3.606   3.905   2.802 -0.5659 -0.6678  0.2561
  509MOL0     C70141   3.626   3.786   2.873 -0.6854 -0.4725 -0.0827
  509MOL0     C70142   3.740   3.824   2.969 -0.7261  0.2109 -0.1547
  509MOL0     C70143   3.878   3.817   2.895  0.3744 -0.1132 -0.4484
  509MOL0     C70144   3.919   3.676   2.857 -0.3830  0.8178  0.5616
  509MOL0     C70145   4.062   3.669   2.805 -0.7065  0.3495 -0.9483
  509MOL0     C70146   4.077   3.729   2.665 -0.3625 -0.2772 -0.7225
  509MOL0     C70147   4.224   3.767   2.626 -0.1339 -0.4846  0.1286
  509MOL0     C70148   4.273   3.903   2.688  0.4493  0.2620 -0.2954
  509MOL0    Cl70149   4.441   3.938   2.644 -0.1721 -0.1104 -0.2071
  509MOL0     C70150   3.376   3.869   2.750 -0.1407 -1.1963 -0.1914
  509MOL0     C70151   3.277   3.871   2.652  0.1167 -0.4753 -0.3370
  509MOL0     O70152   3.193   3.683   2.441  0.4446 -0.3983 -0.1072
  509MOL0     C70153   3.048   3.645   2.225  1.5674  0.2254 -0.2555
  509MOL0     C70154   2.951   3.631   2.121 -0.4045 -0.6189  0.4838
  509MOL0     N70155   2.391   3.993   2.376 -0.4875 -0.5637 -0.1060
  509MOL0     N70156   2.365   3.995   2.500 -0.3579 -0.2765 -1.1867
  509MOL0     C70157   1.962   2.774   2.635 -1.0810 -0.1403  0.0237
  509MOL0     C70158   1.922   2.652   2.691 -0.9924 -0.1241  0.1404
  509MOL0     C70159   1.755   2.343   2.972 -0.7573  1.0190  1.3144
  509MOL0     C70160   1.763   2.283   3.100  0.1410 -0.9003 -0.4026
  509MOL0     C70161   1.727   2.152   3.115 -0.2918 -0.4167  0.2121
  509MOL0     C70162   1.679   2.072   3.008 -0.0778  0.5273  1.0234
  509MOL0     O70163   1.638   1.947   3.022  0.3218 -0.7217  0.0919
  509MOL0     C70164   1.499   1.930   3.060  0.4389 -0.8565 -0.5056
  509MOL0     C70165   1.482   1.885   3.196  0.5665  0.2672  0.6194
  509MOL0     C70166   1.342   1.838   3.240 -0.6268  0.1510 -0.5602
  509MOL0     C70167   1.348   1.789   3.390  0.1528 -0.1552  0.3973
  509MOL0     C70168   1.369   1.889   3.500 -0.8575  0.2273  0.1661
  509MOL0     C70169   1.362   1.957   3.601  0.3766  0.2140  0.7873
  509MOL0     C70170   1.663   2.136   2.887  0.3702 -0.3627 -0.0996
  509MOL0     C70171   1.697   2.270   2.863 -1.2011  0.0849 -0.9044
  509MOL0     C70172   1.673   2.333   2.728 -0.2746 -0.2190  0.3776
  509MOL0     H70173   1.972   2.698   3.016  2.3119 -1.6466 -0.4832
  509MOL0     H70174   2.029   2.930   2.921 -1.1775 -0.1506  1.6178
  509MOL0     H70175   2.212   3.104   2.634 -2.1281  1.0923 -1.7558
  509MOL0     H70176   2.209   3.028   2.785  2.8926 -3.3205 -4.2184
  509MOL0     H70177   2.003   3.236   2.676  0.0225 -0.9344 -0.5337
  509MOL0     H70178   2.012   3.191   2.847 -0.5232 -3.0536 -1.5888
  509MOL0     H70179   2.232   3.293   2.859 -2.1888  1.9126  2.6115
  509MOL0     H70180   2.235   3.325   2.681 -2.6497  2.6794 -1.8910
  509MOL0     H70181   2.054   3.455   2.667  3.3812 -1.9614 -1.1071
  509MOL0     H70182   2.039   3.468   2.848  1.2879 -0.1319  0.3987
  509MOL0     H70183   2.301   3.539   2.695 -0.2646 -0.5151  0.0653
  509MOL0     H70184   2.249   3.583   2.854 -1.5164  1.0205  0.1409
  509MOL0     H70185   2.121   3.683   2.601  1.1140 -2.0296  0.1366
  509MOL0     H70186   2.043   3.698   2.760  0.3605  0.2206 -0.8884
  509MOL0     H70187   2.209   3.836   2.839 -0.4744 -3.7184  0.2471
  509MOL0     H70188   2.155   3.889   2.670  0.4965  0.7769 -1.3174
  509MOL0     H70189   2.392   3.916   2.749  0.5972 -0.8193  0.7412
  509MOL0     H70190   2.425   3.751   2.729 -0.0481  1.3813  1.5610
  509MOL0     H70191   2.463   3.692   2.450  1.2705  0.0938  0.0741
  509MOL0     H70192   2.374   3.881   2.130  0.4526 -2.5453 -2.2468
  509MOL0     H70193   2.363   3.729   2.202 -2.0541  1.9008 -1.4890
  509MOL0     H70194   2.621   3.902   2.148 -1.4554  0.9849 -2.1769
  509MOL0     H70195   2.633   3.725   2.185  0.2149  0.1997 -0.2472
  509MOL0     H70196   2.530   3.666   1.993  3.2043 -1.0492 -1.2548
  509MOL0     H70197   2.488   3.839   1.949 -0.8857 -0.7855 -1.1721
  509MOL0     H70198   2.671   3.759   1.801 -1.3946 -0.8401 -0.0857
  509MOL0     H70199   2.710   3.893   1.908 -3.3195  0.3399  0.3827
  509MOL0     H70200   2.826   3.939   2.072 -0.3617 -1.3447 -3.6617
  509MOL0     H70201   2.988   4.008   2.401 -1.3708 -1.0074  0.6078
  509MOL0     H70202   2.877   4.064   2.269 -0.1527 -1.4418 -3.0027
  509MOL0     H70203   3.052   4.076   2.247  0.3104 -1.4835  0.0983
  509MOL0     H70204   3.430   4.034   2.406 -1.0910  2.7969  1.4843
  509MOL0     H70205   3.622   4.011   2.555  0.1586 -0.3123 -1.7356
  509MOL0     H70206   3.537   3.756   2.929 -0.5541 -0.4983  0.1141
  509MOL0     H70207   3.652   3.704   2.806  1.8230 -1.8154  2.3383
  509MOL0     H70208   3.726   3.925   3.009  1.5802  0.7664 -0.5933
  509MOL0     H70209   3.731   3.758   3.055 -0.7680 -1.2701 -1.2663
  509MOL0     H70210   3.962   3.854   2.956 -0.1244  0.6222 -0.1989
  509MOL0     H70211   3.871   3.882   2.808  0.5961 -0.0958 -0.4558
  509MOL0     H70212   3.856   3.643   2.775  1.6337 -0.6172 -0.4846
  509MOL0     H70213   3.919   3.605   2.940 -0.1845 -1.4100 -1.2488
  509MOL0     H70214   4.124   3.718   2.880  0.3236 -3.3265  0.8514
  509MOL0     H70215   4.088   3.563   2.809 -0.6939  0.3674 -0.5632
  509MOL0     H70216   4.030   3.828   2.662  0.5919  0.4963  3.5567
  509MOL0     H70217   4.030   3.658   2.596  3.2339 -3.2515 -0.4129
  509MOL0     H70218   4.239   3.768   2.517  0.0137  2.6311  0.0858
  509MOL0     H70219   4.297   3.695   2.663  4.7862  3.7221 -0.2899
  509MOL0     H70220   4.258   3.895   2.796 -1.2692 -0.7922 -0.5850
  509MOL0     H70221   4.213   3.986   2.650  0.3386  2.0811  3.3569
  509MOL0     H70222   3.362   3.825   2.848  0.9820  0.4548  0.7596
  509MOL0     H70223   3.176   3.842   2.681 -0.2883  1.9970  1.0434
  509MOL0     H70224   3.110   3.557   2.236 -0.4082 -1.0047  1.8881
  509MOL0     H70225   2.938   3.538   2.065 -1.2610  1.0817 -2.3969
  509MOL0     H70226   1.969   2.784   2.527  1.9594 -0.0896  0.1219
  509MOL0     H70227   1.904   2.572   2.619 -0.7665 -0.8398  0.8570
  509MOL0     H70228   1.794   2.345   3.184 -1.0876  0.3682 -0.8539
  509MOL0     H70229   1.723   2.102   3.212 -0.3267  0.8304  0.8729
  509MOL0     H70230   1.438   2.020   3.048  0.5406 -0.8435 -0.9070
  509MOL0     H70231   1.450   1.849   3.005  2.4253 -1.5921 -1.2777
  509MOL0     H70232   1.512   1.968   3.260  2.9033  0.6528 -0.8805
  509MOL0     H70233   1.557   1.812   3.225  0.2794  0.1056  0.9698
  509MOL0     H70234   1.269   1.920   3.238 -1.6126 -0.7009 -2.7050
  509MOL0     H70235   1.324   1.760   3.165 -2.3246 -1.0764  1.0555
  509MOL0     H70236   1.436   1.723   3.392  3.0077  3.3269 -0.8453
  509MOL0     H70237   1.257   1.733   3.415 -0.9630 -0.2384 -3.3381
  509MOL0     H70238   1.346   2.015   3.690 -0.1086  0.3368  0.6222
  509MOL0     H70239   1.633   2.070   2.807  2.3343  1.4309 -2.4862
  509MOL0     H70240   1.765   2.360   2.674 -0.0774 -0.7928  0.4188
  509MOL0     H70241   1.617   2.269   2.659  1.4765 -0.1194 -1.2338
  509MOL0     H70242   1.622   2.429   2.741 -2.2065 -0.7926 -2.2335
  510MOL0     O70243   9.937   8.375   9.341  0.0153  0.0434  0.0790
  510MOL0     C70244   9.909   8.268   9.401 -0.5121  0.8162  0.3382
  510MOL0     O70245   9.943   8.249   9.525  0.4383  0.1893  0.0550
  510MOL0     C70246   9.976   8.356   9.605 -0.4066  0.3037  0.1658
  510MOL0     C70247  10.112   8.378   9.628 -0.0092  0.3484  0.9032
  510MOL0     C70248  10.159   8.466   9.724  0.3188  0.1936 -0.2903
  510MOL0     C70249  10.072   8.549   9.786 -0.5202 -0.9831 -0.1620
  510MOL0     O70250  10.127   8.641   9.878 -0.1265  0.4999 -0.9234
  510MOL0     C70251  10.096   8.776   9.871  0.1351 -0.1076 -0.4031
  510MOL0     C70252  10.174   8.863   9.983 -0.5820 -0.1805  0.6425
  510MOL0     C70253  10.322   8.822   9.998  0.7542 -0.6407  0.7753
  510MOL0     C70254  10.387   8.922  10.088  1.0285 -0.0942  0.1352
  510MOL0     C70255  10.528   8.889  10.128  0.5651  0.5931 -0.5796
  510MOL0     C70256  10.537   8.773  10.230 -0.1188 -0.2271  0.5193
  510MOL0     C70257  10.670   8.765  10.297 -0.6512 -0.2644  0.4263
  510MOL0     C70258  10.673   8.652  10.410 -0.1891  0.2296  0.3184
  510MOL0     N70259  10.602   8.714  10.525  0.8348 -0.4943 -0.0911
  510MOL0     C70260  10.661   8.810  10.612 -0.0944 -0.5458  0.0988
  510MOL0     C70261  10.569   8.845  10.702  0.6441  0.2616  0.2527
  510MOL0     C70262  10.567   8.941  10.819 -0.2828  0.5337  0.5180
  510MOL0     C70263  10.594   8.883  10.951 -0.4425  0.5674 -0.0846
  510MOL0     C70264  10.737   8.805  10.948  0.3340 -0.8813  0.0894
  510MOL0     C70265  10.856   8.902  10.932  0.4991  0.1797  0.3483
  510MOL0     O70266  10.964   8.834  10.864  0.4329 -0.6697 -0.2391
  510MOL0     C70267  11.050   8.757  10.936  0.3533 -0.3432 -0.0817
  510MOL0     C70268  11.090   8.639  10.875  0.5193  0.1072  1.0753
  510MOL0     C70269  11.169   8.539  10.929  0.1984  0.1453 -0.8018
  510MOL0     C70270  11.203   8.408  10.862  0.1786 -0.4792  0.3641
  510MOL0     C70271  11.207   8.570  11.060  0.3011  0.1735 -1.0203
  510MOL0     C70272  11.296   8.470  11.136  0.0996 -1.1792 -0.4949
  510MOL0     O70273  11.240   8.406  11.235  0.3943 -0.0457 -0.6334
  510MOL0     C70274  11.311   8.349  11.330 -0.3452  0.9906 -0.6172
  510MOL0     C70275  11.446   8.387  11.375 -0.3391  0.0231  0.1264
  510MOL0     C70276  11.511   8.317  11.483  0.4289 -0.2643  0.0668
  510MOL0     C70277  11.443   8.217  11.548  0.0028  0.1453  0.3472
  510MOL0     O70278  11.481   8.152  11.661  0.7284 -0.0608  0.1329
  510MOL0     C70279  11.624   8.152  11.682 -0.1458  0.4169  0.0082
  510MOL0     C70280  11.670   8.039  11.781  0.3894  0.3782 -0.0818
  510MOL0     C70281  11.651   7.899  11.713  0.1501  0.2152  0.3854
  510MOL0     C70282  11.655   7.780  11.818  1.0112  0.3719 -0.1554
  510MOL0     C70283  11.658   7.646  11.743  1.0244 -0.4427  0.1923
  510MOL0     C70284  11.785   7.609  11.673 -0.1654 -0.3954  0.6172
  510MOL0     C70285  11.908   7.614  11.780  0.2456  1.0440 -0.4055
  510MOL0     C70286  12.023   7.528  11.724  0.6926  0.5194 -0.5220
  510MOL0    Cl70287  12.076   7.576  11.562 -0.2628 -0.5758  0.3845
  510MOL0     C70288  11.321   8.171  11.487  0.2161  0.8119  0.2131
  510MOL0     C70289  11.258   8.234  11.385  0.0847 -1.0330  0.4126
  510MOL0     O70290  11.404   8.438  11.077 -0.0313  0.0333  0.1295
  510MOL0     C70291  11.170   8.693  11.122  0.0783  0.6445 -0.7599
  510MOL0     C70292  11.099   8.793  11.060 -0.0611  1.3365 -0.0478
  510MOL0     N70293  10.453   8.770  10.669 -0.4426 -0.4442 -0.3918
  510MOL0     N70294  10.470   8.692  10.567 -1.6451  0.5749  0.2259
  510MOL0     C70295   9.933   8.545   9.757 -0.8965  0.5590  0.3881
  510MOL0     C70296   9.885   8.438   9.683 -0.2647  0.4403 -0.0098
  510MOL0     C70297   9.820   8.169   9.337  0.7183 -0.2400  0.5640
  510MOL0     C70298   9.840   8.134   9.201  0.6441  0.1887  0.4854
  510MOL0     C70299   9.770   8.039   9.130 -0.1043 -0.6317 -0.5060
  510MOL0     C70300   9.669   7.977   9.205  0.0433 -0.2232 -0.1961
  510MOL0     O70301   9.602   7.879   9.140 -0.2209 -0.3326  0.5326
  510MOL0     C70302   9.542   7.778   9.220 -0.4115  0.5764 -0.1303
  510MOL0     C70303   9.650   7.692   9.296  0.2821 -0.0820 -0.1842
  510MOL0     C70304   9.759   7.649   9.200 -0.2549  0.3410  0.7814
  510MOL0     C70305   9.898   7.631   9.264 -0.2758  0.1944 -0.3944
  510MOL0     C70306   9.912   7.538   9.385  0.1507 -0.4343 -0.5513
  510MOL0     C70307   9.904   7.464   9.475  0.1244 -0.9299  0.1666
  510MOL0     C70308   9.642   8.005   9.341  0.0477 -0.7585  0.6193
  510MOL0     C70309   9.715   8.101   9.412 -0.2902  0.3402  0.6850
  510MOL0     C70310   9.698   8.134   9.558 -0.4148 -0.0586 -0.9214
  510MOL0     H70311  10.183   8.309   9.583 -0.0887 -0.1557  1.5263
  510MOL0     H70312  10.267   8.468   9.736  0.0993 -1.3051  2.7062
  510MOL0     H70313   9.989   8.793   9.885 -0.6438  0.3760 -5.2208
  510MOL0     H70314  10.118   8.812   9.770 -2.0282  1.9864 -0.2139
  510MOL0     H70315  10.168   8.970   9.958  2.1543  0.0342  0.5996
  510MOL0     H70316  10.123   8.852  10.079 -2.1948 -0.4764 -0.2092
  510MOL0     H70317  10.317   8.727  10.052 -0.9664 -0.1352  1.5773
  510MOL0     H70318  10.380   8.810   9.906 -0.7245 -0.2975 -0.2437
  510MOL0     H70319  10.386   9.018  10.036 -3.4165  0.4702  0.9150
  510MOL0     H70320  10.318   8.937  10.171 -1.2228 -0.6923 -1.5381
  510MOL0     H70321  10.561   8.976  10.185  2.5408 -0.1023 -0.5875
  510MOL0     H70322  10.588   8.867  10.040 -1.1104  2.8678 -2.4220
  510MOL0     H70323  10.457   8.789  10.302 -0.4802 -1.4864  0.4066
  510MOL0     H70324  10.518   8.679  10.178 -2.8205  0.8704 -0.6890
  510MOL0     H70325  10.713   8.856  10.340 -2.8697  0.2824  1.5806
  510MOL0     H70326  10.743   8.744  10.217  0.0786  2.2724  0.3525
  510MOL0     H70327  10.612   8.569  10.373 -1.9054  1.2702  0.7069
  510MOL0     H70328  10.776   8.624  10.432  0.7328  1.1669 -2.3798
  510MOL0     H70329  10.764   8.845  10.607  0.0290 -0.5966  1.8826
  510MOL0     H70330  10.470   8.992  10.814 -0.1325  0.6892 -1.9948
  510MOL0     H70331  10.637   9.023  10.804 -1.0798  1.2580  0.6701
  510MOL0     H70332  10.597   8.963  11.026  0.8304  0.0237  0.4778
  510MOL0     H70333  10.508   8.819  10.974 -2.6428  3.2345 -0.4287
  510MOL0     H70334  10.740   8.739  11.036  0.7450  1.1117  1.6417
  510MOL0     H70335  10.742   8.745  10.856  0.4851 -1.5276  0.5089
  510MOL0     H70336  10.823   8.986  10.871  2.4912  0.4071 -0.4994
  510MOL0     H70337  10.887   8.938  11.030 -1.2150  1.2493  0.5414
  510MOL0     H70338  11.049   8.613  10.778 -1.2151  0.3453  1.7080
  510MOL0     H70339  11.225   8.425  10.757 -1.0668 -2.5880 -0.2989
  510MOL0     H70340  11.131   8.330  10.891 -0.4820  1.3331  4.4236
  510MOL0     H70341  11.307   8.378  10.875  1.4190  2.9559 -0.7171
  510MOL0     H70342  11.508   8.472  11.349  1.5080 -0.7907  1.5991
  510MOL0     H70343  11.608   8.355  11.516  0.4827  0.5746 -0.9998
  510MOL0     H70344  11.669   8.137  11.583 -1.0232 -0.2242 -0.3090
  510MOL0     H70345  11.664   8.248  11.715  1.6662  0.6624 -2.6042
  510MOL0     H70346  11.773   8.059  11.812  1.0367 -2.2584 -0.2723
  510MOL0     H70347  11.607   8.035  11.871 -0.3982 -1.1851 -0.6650
  510MOL0     H70348  11.738   7.900  11.647  2.4582  1.5734  3.1870
  510MOL0     H70349  11.554   7.898  11.663  0.4245 -4.7425 -0.5890
  510MOL0     H70350  11.566   7.792  11.881  3.9310  0.4280  4.4609
  510MOL0     H70351  11.733   7.787  11.895  0.9025 -3.8315  0.5670
  510MOL0     H70352  11.630   7.568  11.814 -0.6254  2.1759  2.6845
  510MOL0     H70353  11.576   7.640  11.671  3.3362  0.1190 -2.6412
  510MOL0     H70354  11.799   7.685  11.597  0.2686 -0.0795  1.0053
  510MOL0     H70355  11.782   7.515  11.618  1.7247  0.1360 -0.4679
  510MOL0     H70356  11.890   7.564  11.875 -1.2958 -0.6767 -1.5193
  510MOL0     H70357  11.927   7.718  11.806 -0.9735  0.8600  1.3653
  510MOL0     H70358  11.982   7.427  11.730 -0.3816  1.0045  3.9125
  510MOL0     H70359  12.109   7.539  11.791  0.6437  0.7756 -0.4985
  510MOL0     H70360  11.286   8.080  11.535  1.6824 -0.0202 -0.2243
  510MOL0     H70361  11.167   8.193  11.343  0.0077  0.2013 -0.6877
  510MOL0     H70362  11.208   8.719  11.220  3.1268  2.4200 -2.2529
  510MOL0     H70363  11.096   8.893  11.103  1.6436  0.7876  1.4437
  510MOL0     H70364   9.862   8.610   9.806  0.4090  2.6400 -0.3760
  510MOL0     H70365   9.777   8.432   9.673 -0.5382  0.4919  2.3335
  510MOL0     H70366   9.908   8.196   9.144 -0.3655  0.4725 -0.4373
  510MOL0     H70367   9.795   8.006   9.030  1.0810  0.2499 -0.5127
  510MOL0     H70368   9.460   7.823   9.277 -3.3819 -0.2063 -3.4488
  510MOL0     H70369   9.489   7.700   9.165 -0.2284  0.1944  0.2308
  510MOL0     H70370   9.597   7.609   9.343  1.8356 -1.1280 -0.2066
  510MOL0     H70371   9.709   7.750   9.368  0.4496  0.3936 -0.6932
  510MOL0     H70372   9.742   7.551   9.155 -0.2980  0.8631 -0.3927
  510MOL0     H70373   9.758   7.705   9.106 -1.2011 -1.5035 -0.3630
  510MOL0     H70374   9.933   7.727   9.303 -0.3050 -0.6946  1.9501
  510MOL0     H70375   9.967   7.591   9.190  1.6472 -1.4942  2.1403
  510MOL0     H70376   9.907   7.399   9.560  2.9321  0.9626  1.6855
  510MOL0     H70377   9.560   7.964   9.399  1.4719 -0.7829  2.7476
  510MOL0     H70378   9.712   8.242   9.570  0.2631 -0.1007 -1.2592
  510MOL0     H70379   9.595   8.107   9.583 -0.8765  2.5710  0.3324
  510MOL0     H70380   9.763   8.076   9.624 -0.0711 -0.8924 -1.9506
  511MOL0     O70381   4.760   1.994   8.523  0.4564  0.1475  0.7783
  511MOL0     C70382   4.873   2.020   8.499  0.5695  0.0472 -0.7326
  511MOL0     O70383   4.917   2.143   8.473  0.2610  0.6219  0.3636
  511MOL0     C70384   4.827   2.239   8.469  0.3801 -0.6632 -0.0192
  511MOL0     C70385   4.812   2.329   8.572 -0.3473 -0.5898  1.5080
  511MOL0     C70386   4.720   2.429   8.565  0.1922  0.9272 -0.1724
  511MOL0     C70387   4.651   2.461   8.445  0.4009  0.3463 -0.2972
  511MOL0     O70388   4.574   2.575   8.451 -0.2196 -0.1754 -0.5069
  511MOL0     C70389   4.504   2.613   8.333  0.0798  0.2103 -0.5288
  511MOL0     C70390   4.400   2.721   8.361  0.7073 -0.0518 -0.0645
  511MOL0     C70391   4.367   2.796   8.235 -0.0047 -0.4666  0.5225
  511MOL0     C70392   4.244   2.890   8.244  0.0760 -0.8372 -0.3009
  511MOL0     C70393   4.260   3.017   8.312  0.2768 -0.0034  0.2222
  511MOL0     C70394   4.365   3.097   8.229 -0.1497  0.0747 -0.3144
  511MOL0     C70395   4.366   3.241   8.297  0.5532 -0.2780  0.0327
  511MOL0     C70396   4.462   3.330   8.223 -0.9681  0.7072  0.2117
  511MOL0     N70397   4.606   3.287   8.234  0.0046 -0.6021  0.1201
  511MOL0     C70398   4.666   3.236   8.343  0.3976 -0.7689  0.2630
  511MOL0     C70399   4.799   3.234   8.324 -0.1009  0.2394 -0.5270
  511MOL0     C70400   4.909   3.195   8.412  1.2488  1.5051 -0.8198
  511MOL0     C70401   4.933   3.039   8.418 -0.2385 -0.0387 -0.6751
  511MOL0     C70402   4.954   2.977   8.282  0.0654  0.2243 -0.3949
  511MOL0     C70403   5.051   3.037   8.186  0.1322 -0.0820 -0.2882
  511MOL0     O70404   5.177   3.084   8.251 -0.9037 -0.0712  0.1041
  511MOL0     C70405   5.271   3.155   8.187  0.2521 -0.8613  0.1815
  511MOL0     C70406   5.264   3.200   8.059  0.1492 -0.1780  0.9397
  511MOL0     C70407   5.364   3.275   8.007 -0.4278 -0.4863  0.2529
  511MOL0     C70408   5.327   3.332   7.868 -0.2984 -0.1607  0.3925
  511MOL0     C70409   5.474   3.330   8.082 -0.1095  0.4978  1.7425
  511MOL0     C70410   5.576   3.422   8.030 -0.1351  0.3819  0.4625
  511MOL0     O70411   5.551   3.506   7.930  0.7983  0.3535  1.0431
  511MOL0     C70412   5.649   3.581   7.872 -0.2696 -0.3372  0.1665
  511MOL0     C70413   5.636   3.597   7.729 -0.2773 -0.1792  0.3708
  511MOL0     C70414   5.730   3.681   7.654  0.7185  1.0631  0.1218
  511MOL0     C70415   5.822   3.759   7.726  0.5079  0.1332 -0.2973
  511MOL0     O70416   5.918   3.833   7.669 -0.2726 -0.4003  0.0740
  511MOL0     C70417   5.980   3.790   7.542 -0.3986  0.4535 -1.7836
  511MOL0     C70418   6.085   3.680   7.564 -0.2415  0.8414 -0.6421
  511MOL0     C70419   6.200   3.746   7.648  0.0696  0.0924  0.2772
  511MOL0     C70420   6.274   3.657   7.740 -0.4741  0.1359 -0.3529
  511MOL0     C70421   6.387   3.731   7.818  0.4326 -0.2993  0.5095
  511MOL0     C70422   6.496   3.629   7.862  0.1892 -0.2325 -0.5994
  511MOL0     C70423   6.594   3.690   7.963 -0.0317 -0.2068  0.1687
  511MOL0     C70424   6.685   3.584   8.029 -0.4832 -0.1963 -0.7526
  511MOL0    Cl70425   6.799   3.684   8.122  0.2541  0.0461  0.5174
  511MOL0     C70426   5.827   3.742   7.864 -0.3088  0.2217 -1.1948
  511MOL0     C70427   5.742   3.666   7.942 -0.7263  0.2314 -0.3920
  511MOL0     O70428   5.684   3.408   8.086 -0.2825  0.2808 -0.0973
  511MOL0     C70429   5.477   3.282   8.217  0.0840 -0.2899  0.0884
  511MOL0     C70430   5.382   3.189   8.259 -0.5560 -0.5546  0.1619
  511MOL0     N70431   4.814   3.288   8.194 -0.0266 -0.1593 -0.0828
  511MOL0     N70432   4.699   3.330   8.151  0.3001 -0.6410  0.5438
  511MOL0     C70433   4.670   2.376   8.329 -0.2450 -0.2045 -0.3455
  511MOL0     C70434   4.752   2.261   8.348 -0.0530  0.4745  0.3812
  511MOL0     C70435   4.992   1.919   8.503  0.0538 -0.3287 -0.4354
  511MOL0     C70436   5.117   1.957   8.468  0.4536  0.0902  0.4798
  511MOL0     C70437   5.228   1.869   8.482  0.1503 -0.6114  0.3458
  511MOL0     C70438   5.215   1.736   8.526 -0.5314 -0.6358  0.0847
  511MOL0     O70439   5.321   1.646   8.548  0.9045 -0.5736 -0.6840
  511MOL0     C70440   5.449   1.687   8.521 -0.6742  0.7775 -0.0117
  511MOL0     C70441   5.530   1.568   8.475 -0.4207  0.0414  0.1047
  511MOL0     C70442   5.671   1.608   8.420 -0.0785 -0.1553 -0.1239
  511MOL0     C70443   5.638   1.663   8.276 -0.9006 -0.1260 -0.0831
  511MOL0     C70444   5.736   1.611   8.181 -0.3976 -1.2797 -0.2221
  511MOL0     C70445   5.820   1.580   8.105 -0.0762  0.1099 -0.0491
  511MOL0     C70446   5.085   1.695   8.532 -0.2183 -0.3032  0.8354
  511MOL0     C70447   4.971   1.784   8.533 -0.5845  0.7151  0.1546
  511MOL0     C70448   4.844   1.721   8.576 -0.4285  0.4528 -0.5764
  511MOL0     H70449   4.865   2.313   8.666  0.0877 -2.2631  1.0264
  511MOL0     H70450   4.694   2.488   8.653  0.0761 -1.7213  1.6869
  511MOL0     H70451   4.458   2.518   8.307  1.5989 -0.9240  0.6893
  511MOL0     H70452   4.577   2.636   8.255  0.7199 -1.7490 -0.5579
  511MOL0     H70453   4.305   2.677   8.392  2.4169 -3.0880  1.2248
  511MOL0     H70454   4.442   2.798   8.426  3.7283 -1.0675 -0.6644
  511MOL0     H70455   4.446   2.861   8.196  0.5318 -0.9640  0.7669
  511MOL0     H70456   4.346   2.728   8.152  2.1206  0.3279 -0.7396
  511MOL0     H70457   4.198   2.907   8.147  1.4475  1.0005 -0.6902
  511MOL0     H70458   4.172   2.832   8.303  0.5709  0.3504  1.5712
  511MOL0     H70459   4.293   3.014   8.416  0.2447 -1.6635  0.2160
  511MOL0     H70460   4.165   3.070   8.305 -0.4532 -1.1718  0.9406
  511MOL0     H70461   4.468   3.063   8.239  0.1444  1.2329  1.0105
  511MOL0     H70462   4.338   3.099   8.123  0.7974  0.7231 -0.5506
  511MOL0     H70463   4.397   3.237   8.402  0.9245 -0.4335 -0.0795
  511MOL0     H70464   4.266   3.282   8.283  2.4606  5.0898 -0.2185
  511MOL0     H70465   4.438   3.350   8.118 -1.4903  2.7441  0.6658
  511MOL0     H70466   4.448   3.424   8.277 -1.6266  1.3681 -1.0625
  511MOL0     H70467   4.610   3.204   8.430 -1.5674  1.1296 -0.2024
  511MOL0     H70468   4.872   3.236   8.507 -1.5406  2.4454 -2.2013
  511MOL0     H70469   5.001   3.249   8.391  1.0312  2.3901  0.3532
  511MOL0     H70470   5.022   3.017   8.478 -1.0384 -0.0361  0.5417
  511MOL0     H70471   4.864   2.978   8.477  2.0717 -1.5877  0.5892
  511MOL0     H70472   4.982   2.877   8.315  1.7476  1.4100  2.1678
  511MOL0     H70473   4.855   2.977   8.237 -0.5427 -0.7093  0.8861
  511MOL0     H70474   5.079   2.960   8.114 -1.9996 -0.9739 -0.2463
  511MOL0     H70475   5.009   3.126   8.139  4.5251  1.7744 -1.2150
  511MOL0     H70476   5.179   3.167   8.000 -1.3486 -1.8326  3.8257
  511MOL0     H70477   5.388   3.298   7.783 -1.7579  1.0771 -1.2448
  511MOL0     H70478   5.337   3.441   7.872  0.3664 -0.0536 -2.0266
  511MOL0     H70479   5.223   3.324   7.836  0.1498 -0.1190 -1.1915
  511MOL0     H70480   5.569   3.530   7.676  1.4624 -1.1142 -0.7575
  511MOL0     H70481   5.713   3.691   7.547 -0.2841 -0.6945  0.0704
  511MOL0     H70482   5.902   3.790   7.465 -0.8829  3.0829 -1.4059
  511MOL0     H70483   6.039   3.877   7.512 -1.3806  3.4346  3.5211
  511MOL0     H70484   6.034   3.609   7.630 -0.2562  0.5276 -0.9866
  511MOL0     H70485   6.123   3.639   7.470  0.2250 -0.2937  0.0162
  511MOL0     H70486   6.161   3.820   7.719  2.3376  0.4691  1.2014
  511MOL0     H70487   6.258   3.799   7.573 -0.5908  0.4963  0.0449
  511MOL0     H70488   6.321   3.576   7.684 -0.3995  1.9978 -3.1921
  511MOL0     H70489   6.198   3.614   7.805  0.7722  1.8404  2.4142
  511MOL0     H70490   6.424   3.807   7.749 -0.2258  0.7497  1.2894
  511MOL0     H70491   6.349   3.785   7.905 -0.9176 -0.2266 -0.1001
  511MOL0     H70492   6.545   3.597   7.770 -0.9744 -0.1013 -1.2893
  511MOL0     H70493   6.455   3.539   7.907  5.1451 -1.6090  1.7901
  511MOL0     H70494   6.540   3.735   8.047 -0.2779 -0.0788 -0.0565
  511MOL0     H70495   6.659   3.762   7.912 -1.5515  0.5417 -0.7845
  511MOL0     H70496   6.730   3.527   7.947  0.8101 -2.0200  1.1167
  511MOL0     H70497   6.634   3.515   8.097 -1.7524  1.0477 -0.3994
  511MOL0     H70498   5.914   3.788   7.912  0.8016 -0.7072 -2.2499
  511MOL0     H70499   5.758   3.670   8.049 -2.1856  1.5123 -0.1838
  511MOL0     H70500   5.557   3.325   8.275  0.6073 -1.2268  0.0954
  511MOL0     H70501   5.398   3.154   8.360  2.5525 -2.9619 -0.9869
  511MOL0     H70502   4.613   2.390   8.238 -0.6181  1.9294  0.1600
  511MOL0     H70503   4.766   2.184   8.274 -0.0504 -0.4909  1.3607
  511MOL0     H70504   5.131   2.059   8.432 -3.3882  0.5820 -0.0231
  511MOL0     H70505   5.324   1.918   8.486  1.8415 -3.6735  0.8159
  511MOL0     H70506   5.460   1.771   8.451 -0.9516  1.2467  0.4945
  511MOL0     H70507   5.489   1.731   8.613  0.8990  1.0314 -0.7934
  511MOL0     H70508   5.473   1.507   8.404  0.7081  1.2377 -1.9315
  511MOL0     H70509   5.564   1.510   8.562 -1.3797  1.5934  1.5598
  511MOL0     H70510   5.712   1.689   8.481  1.6810 -1.3130  0.2889
  511MOL0     H70511   5.738   1.522   8.425 -0.2075 -0.1811  1.4583
  511MOL0     H70512   5.632   1.772   8.261  0.4078 -0.0755 -0.4030
  511MOL0     H70513   5.537   1.634   8.245 -1.3795  0.5904  0.7604
  511MOL0     H70514   5.896   1.524   8.054  2.7583  0.6552  3.2462
  511MOL0     H70515   5.079   1.588   8.553  3.3229 -0.8887 -0.5504
  511MOL0     H70516   4.838   1.747   8.682  0.9301  0.2981 -0.4343
  511MOL0     H70517   4.757   1.753   8.518 -0.2191  1.7694 -0.1815
  511MOL0     H70518   4.852   1.612   8.565  0.9173  0.5977 -1.2323
  512MOL0     O70519   1.935   3.931   2.893  0.5864  0.2098 -0.0382
  512MOL0     C70520   1.891   4.020   2.978 -0.4909  0.4210  0.3066
  512MOL0     O70521   1.873   4.150   2.956 -0.5835  0.5949 -0.0715
  512MOL0     C70522   1.939   4.213   2.849  0.7685  0.4122  0.3475
  512MOL0     C70523   1.870   4.313   2.782 -0.2135  0.0540  0.1772
  512MOL0     C70524   1.932   4.384   2.679  0.1232 -0.1799 -0.0429
  512MOL0     C70525   2.055   4.342   2.632 -1.0539 -0.3161  0.2580
  512MOL0     O70526   2.117   4.409   2.525  0.0664  0.8023 -0.2424
  512MOL0     C70527   2.211   4.340   2.444  0.2295 -0.2321 -0.3508
  512MOL0     C70528   2.360   4.364   2.481  0.8066  0.1785  0.0254
  512MOL0     C70529   2.412   4.506   2.489  0.4600  0.3114  0.6419
  512MOL0     C70530   2.562   4.517   2.505  0.2710 -0.2394  0.5869
  512MOL0     C70531   2.591   4.673   2.484  0.7408  0.3944 -0.2435
  512MOL0     C70532   2.729   4.723   2.545  0.6272  0.8684  0.2729
  512MOL0     C70533   2.854   4.635   2.530  0.2975 -0.6709  1.4382
  512MOL0     C70534   2.974   4.690   2.600  0.9973 -0.7460 -0.4544
  512MOL0     N70535   2.960   4.669   2.745  0.1008  0.3139 -0.6593
  512MOL0     C70536   2.955   4.762   2.849 -0.4580  0.7292 -1.3000
  512MOL0     C70537   2.934   4.705   2.967  0.2030  0.5743 -0.3842
  512MOL0     C70538   2.920   4.774   3.100 -0.1837  0.3804  0.7893
  512MOL0     C70539   2.917   4.673   3.219  0.1969 -0.0847 -0.0821
  512MOL0     C70540   3.056   4.628   3.246 -0.4431  0.8114  0.4037
  512MOL0     C70541   3.086   4.558   3.386  0.1436  0.4548  0.2506
  512MOL0     O70542   3.066   4.656   3.492 -0.2355  0.6777  0.1240
  512MOL0     C70543   3.075   4.609   3.618 -0.7452  0.2067 -0.8546
  512MOL0     C70544   3.136   4.491   3.665  0.5475  0.1526  0.6332
  512MOL0     C70545   3.176   4.474   3.794  0.1294  0.1022 -0.4482
  512MOL0     C70546   3.261   4.353   3.831 -0.7905  0.0886 -0.6982
  512MOL0     C70547   3.125   4.568   3.889  0.4775  0.1335  0.5084
  512MOL0     C70548   3.157   4.575   4.036  1.2218  0.7862 -0.2344
  512MOL0     O70549   3.163   4.689   4.095  0.5243  0.0191 -0.4293
  512MOL0     C70550   3.128   4.728   4.228 -0.2685 -0.2280  0.2410
  512MOL0     C70551   3.075   4.638   4.317 -0.4480  0.4285  0.0284
  512MOL0     C70552   3.062   4.668   4.452 -0.4844  0.0696 -0.6332
  512MOL0     C70553   3.089   4.802   4.490  1.0437 -0.3193 -0.2310
  512MOL0     O70554   3.070   4.829   4.622  0.1698  0.1042 -0.3200
  512MOL0     C70555   3.035   4.968   4.646  1.4557  0.5743 -0.6818
  512MOL0     C70556   2.980   4.960   4.790  1.0198  0.3380  0.2818
  512MOL0     C70557   3.097   4.949   4.890 -0.3284  0.1593 -0.1350
  512MOL0     C70558   3.058   4.946   5.034  0.2880 -0.6805  0.0276
  512MOL0     C70559   3.159   4.949   5.142  0.5345 -0.1810 -0.2597
  512MOL0     C70560   3.273   4.846   5.144 -0.5412  0.3683 -0.9126
  512MOL0     C70561   3.386   4.886   5.234  0.7152  0.0977 -1.2822
  512MOL0     C70562   3.456   4.761   5.308 -0.0335 -0.0557 -0.5157
  512MOL0    Cl70563   3.571   4.783   5.436  0.4627  0.1750  0.2776
  512MOL0     C70564   3.131   4.894   4.396 -0.3360  0.0696  0.6631
  512MOL0     C70565   3.152   4.855   4.265  0.4929  0.2541 -0.4802
  512MOL0     O70566   3.164   4.465   4.093 -0.3025  0.5187 -0.5710
  512MOL0     C70567   3.054   4.681   3.847  0.5240  0.5299 -0.8144
  512MOL0     C70568   3.030   4.695   3.714 -0.5888 -0.5346 -0.2740
  512MOL0     N70569   2.930   4.566   2.938 -0.7644  0.3166 -0.4758
  512MOL0     N70570   2.960   4.556   2.810  0.1974  0.3980  0.2679
  512MOL0     C70571   2.124   4.237   2.703 -0.2658  0.6216  0.4340
  512MOL0     C70572   2.060   4.175   2.806 -0.0117  0.8123 -0.3385
  512MOL0     C70573   1.881   3.960   3.119 -0.1902 -0.5050  0.1757
  512MOL0     C70574   1.876   4.054   3.222 -0.1535 -0.8140  0.0895
  512MOL0     C70575   1.886   4.018   3.355 -0.1521 -1.0135 -0.2656
  512MOL0     C70576   1.905   3.880   3.386 -0.3471  0.1011  0.2553
  512MOL0     O70577   1.932   3.842   3.519  0.2750 -0.9867  0.3636
  512MOL0     C70578   1.917   3.938   3.625 -1.2773 -0.9314  0.9061
  512MOL0     C70579   1.906   3.850   3.754 -0.1015 -0.0493 -0.0769
  512MOL0     C70580   2.020   3.757   3.778 -0.4588  0.3090  0.2597
  512MOL0     C70581   2.058   3.723   3.923 -0.3616  0.3775  0.9754
  512MOL0     C70582   2.077   3.843   4.008  0.9722  0.2382 -0.6650
  512MOL0     C70583   2.087   3.944   4.076  0.1267  1.1840 -0.3001
  512MOL0     C70584   1.894   3.788   3.280 -0.6234 -0.0449 -0.4701
  512MOL0     C70585   1.878   3.825   3.154  0.3528  0.5293  0.1376
  512MOL0     C70586   1.876   3.718   3.060  0.9564 -0.0928  0.1723
  512MOL0     H70587   1.775   4.349   2.819 -0.3863 -1.3116  1.1038
  512MOL0     H70588   1.886   4.468   2.627 -1.0213 -1.4033 -1.0547
  512MOL0     H70589   2.194   4.381   2.344  3.3190  3.4904  0.4064
  512MOL0     H70590   2.193   4.232   2.442  0.8778 -0.3719  0.5402
  512MOL0     H70591   2.378   4.316   2.578 -1.3863  4.3323  2.8205
  512MOL0     H70592   2.428   4.308   2.416  0.5586 -0.1214  0.0196
  512MOL0     H70593   2.371   4.557   2.402  1.6827  3.3074  1.6756
  512MOL0     H70594   2.374   4.539   2.586 -0.8563 -1.9648  0.9729
  512MOL0     H70595   2.596   4.476   2.600  2.9500 -1.7127 -0.8563
  512MOL0     H70596   2.617   4.456   2.433 -1.5237  1.2427 -2.2513
  512MOL0     H70597   2.524   4.740   2.539 -2.1054 -3.2994  1.2211
  512MOL0     H70598   2.581   4.687   2.376  2.2778  1.3402 -0.2978
  512MOL0     H70599   2.757   4.826   2.519  2.8728  0.2121 -0.1024
  512MOL0     H70600   2.710   4.722   2.652 -1.1295  3.0636  0.0558
  512MOL0     H70601   2.879   4.643   2.424 -0.4100 -0.8540  1.2482
  512MOL0     H70602   2.834   4.532   2.560  0.5034 -2.4192 -3.4707
  512MOL0     H70603   3.059   4.634   2.561 -0.9383 -1.2959 -4.3844
  512MOL0     H70604   2.988   4.796   2.580  3.1390 -0.4657  2.0241
  512MOL0     H70605   2.960   4.870   2.843 -0.2587  1.0006  2.1555
  512MOL0     H70606   2.829   4.834   3.115  0.6568  1.7661  0.5667
  512MOL0     H70607   2.996   4.852   3.102 -2.8994  3.3858 -1.5670
  512MOL0     H70608   2.886   4.725   3.310  0.9281  0.9593 -0.4157
  512MOL0     H70609   2.858   4.584   3.192 -0.2338  1.2064 -4.0027
  512MOL0     H70610   3.104   4.571   3.165  2.9192  2.7511  0.8314
  512MOL0     H70611   3.120   4.715   3.263  1.0708 -0.4466  1.4368
  512MOL0     H70612   3.018   4.473   3.388  0.3703  0.1446 -2.1471
  512MOL0     H70613   3.187   4.517   3.390  0.3486  0.8411 -0.6588
  512MOL0     H70614   3.169   4.413   3.597 -4.8075 -2.3582  0.3493
  512MOL0     H70615   3.205   4.261   3.846  1.7048 -1.0685  2.7457
  512MOL0     H70616   3.313   4.371   3.926 -3.1619 -1.2639  0.9691
  512MOL0     H70617   3.323   4.321   3.747  0.1630 -1.7545  0.6581
  512MOL0     H70618   3.043   4.538   4.288  0.8370  0.1057 -0.3505
  512MOL0     H70619   3.030   4.607   4.535 -0.5046  1.8082  0.6873
  512MOL0     H70620   3.123   5.033   4.642  0.9483  1.2382 -1.6468
  512MOL0     H70621   2.962   4.998   4.570  1.3535  1.9400 -0.0809
  512MOL0     H70622   2.924   5.049   4.820 -2.4259 -1.4317 -0.3021
  512MOL0     H70623   2.912   4.876   4.805  0.0966  1.4349  2.6679
  512MOL0     H70624   3.169   5.030   4.874  2.0760 -1.5886  1.1401
  512MOL0     H70625   3.155   4.858   4.872 -1.1676 -0.4259  0.0808
  512MOL0     H70626   2.991   4.860   5.043 -0.5108 -0.4745 -2.8454
  512MOL0     H70627   3.003   5.039   5.049  1.5838  0.1105  0.0452
  512MOL0     H70628   3.200   5.050   5.131  1.0995  0.1406  3.4830
  512MOL0     H70629   3.113   4.936   5.240 -0.9959 -4.2068 -1.3224
  512MOL0     H70630   3.316   4.841   5.043  0.7023  2.1513 -0.5332
  512MOL0     H70631   3.239   4.748   5.176  0.6561  0.6161  1.3492
  512MOL0     H70632   3.341   4.934   5.321 -0.2323 -1.7792 -0.6684
  512MOL0     H70633   3.455   4.953   5.182  0.5957  1.0936 -0.1909
  512MOL0     H70634   3.500   4.703   5.225 -3.3416 -1.4882 -1.4272
  512MOL0     H70635   3.380   4.693   5.348  1.2677 -3.2078 -2.8770
  512MOL0     H70636   3.153   4.999   4.412 -1.0462 -0.0455  2.7367
  512MOL0     H70637   3.209   4.915   4.195  0.6165 -0.6371 -1.1568
  512MOL0     H70638   3.003   4.752   3.911  1.6496  0.0498  0.6844
  512MOL0     H70639   2.971   4.780   3.681 -0.3787  0.2834  1.3756
  512MOL0     H70640   2.218   4.200   2.663  0.1328  1.1737  0.8411
  512MOL0     H70641   2.119   4.096   2.851  2.2905  2.8879  0.4977
  512MOL0     H70642   1.879   4.161   3.204  0.6182 -1.0469 -1.3282
  512MOL0     H70643   1.901   4.092   3.434  0.7720 -1.8539  0.3762
  512MOL0     H70644   1.999   4.011   3.625 -2.2918  0.4569  4.6298
  512MOL0     H70645   1.828   4.002   3.624 -1.9393 -1.7673  2.6486
  512MOL0     H70646   1.821   3.784   3.733  1.5893 -1.8438 -1.7804
  512MOL0     H70647   1.883   3.917   3.837  0.9863 -0.3027  0.4493
  512MOL0     H70648   2.008   3.658   3.732  3.0535 -0.3303  0.4249
  512MOL0     H70649   2.103   3.809   3.729 -0.4375  2.3031  2.2751
  512MOL0     H70650   2.154   3.671   3.923 -0.6340 -0.2203  2.8503
  512MOL0     H70651   1.993   3.654   3.978  0.3797 -0.9758  0.1865
  512MOL0     H70652   2.078   4.027   4.142 -1.2879 -1.3965  3.0620
  512MOL0     H70653   1.900   3.681   3.299 -0.4775 -0.7518 -3.8239
  512MOL0     H70654   1.804   3.746   2.983  2.2084  0.3076 -0.8795
  512MOL0     H70655   1.968   3.704   3.003  0.1578  2.8425 -2.0889
  512MOL0     H70656   1.852   3.620   3.101 -1.6377 -0.1832 -1.3426
  513MOL0     O70657   5.930   7.536  11.039  0.3319 -0.0159 -0.2802
  513MOL0     C70658   5.933   7.501  11.156  0.1875  0.0068  0.2037
  513MOL0     O70659   5.905   7.574  11.261  0.6586 -0.6709 -0.8386
  513MOL0     C70660   5.860   7.707  11.254 -0.3208 -0.1194  0.6239
  513MOL0     C70661   5.865   7.795  11.149  0.0980  0.1369 -0.7781
  513MOL0     C70662   5.824   7.932  11.161  0.0381  0.7900  0.0720
  513MOL0     C70663   5.766   7.975  11.287  0.3345  0.0169  0.0991
  513MOL0     O70664   5.729   8.104  11.286  0.2895  0.4331  0.3661
  513MOL0     C70665   5.690   8.170  11.412 -0.0201 -1.2030 -1.4047
  513MOL0     C70666   5.611   8.297  11.393 -0.0408 -0.9076 -0.1025
  513MOL0     C70667   5.463   8.287  11.363  0.5033 -0.3257 -0.0280
  513MOL0     C70668   5.393   8.412  11.398 -1.0304  0.1296  0.2106
  513MOL0     C70669   5.234   8.410  11.387  0.0485  0.3242  0.2002
  513MOL0     C70670   5.180   8.552  11.404 -0.0962 -0.1193  0.0310
  513MOL0     C70671   5.034   8.569  11.358 -0.1581 -0.5974  0.0306
  513MOL0     C70672   4.935   8.506  11.459 -0.1210 -0.6786  0.0344
  513MOL0     N70673   4.832   8.421  11.397  0.0148  0.3793  0.1750
  513MOL0     C70674   4.852   8.289  11.363 -0.0993  0.8296  0.5457
  513MOL0     C70675   4.730   8.245  11.309 -0.1602 -1.2971 -0.4213
  513MOL0     C70676   4.686   8.114  11.264 -1.2993  1.2935 -0.2431
  513MOL0     C70677   4.788   8.026  11.176 -0.8745  0.3566 -0.8615
  513MOL0     C70678   4.809   8.101  11.043  0.1381 -0.1780  0.7315
  513MOL0     C70679   4.895   7.991  10.964 -0.7281 -1.0799 -1.1750
  513MOL0     O70680   5.032   8.007  11.025  0.5496  0.7632  0.8954
  513MOL0     C70681   5.134   7.941  10.964 -0.0431 -0.3235 -0.8255
  513MOL0     C70682   5.263   7.967  11.020  0.0153  0.0567 -0.2059
  513MOL0     C70683   5.378   7.903  10.976  0.1124  0.3912 -0.1352
  513MOL0     C70684   5.496   7.914  11.062  0.0682 -0.1026 -0.3970
  513MOL0     C70685   5.372   7.826  10.861 -0.4204 -0.7577  0.5419
  513MOL0     C70686   5.484   7.753  10.789 -0.8114 -0.0593 -0.1634
  513MOL0     O70687   5.451   7.638  10.722 -0.2911  0.4721 -0.1224
  513MOL0     C70688   5.554   7.585  10.644  0.7622  0.1826 -0.6641
  513MOL0     C70689   5.553   7.609  10.506 -0.1648 -0.5709  0.3955
  513MOL0     C70690   5.636   7.531  10.422  1.2100  0.9587  0.4780
  513MOL0     C70691   5.719   7.428  10.477 -0.3391 -0.1716 -0.0043
  513MOL0     O70692   5.810   7.345  10.406  0.1062  0.4468  0.1588
  513MOL0     C70693   5.751   7.308  10.277  0.7631  0.4899 -0.1329
  513MOL0     C70694   5.629   7.210  10.284  0.2891 -1.4026  0.4172
  513MOL0     C70695   5.654   7.083  10.364 -1.0413 -1.0142  0.1647
  513MOL0     C70696   5.782   7.012  10.322 -0.2285 -0.2368  0.5565
  513MOL0     C70697   5.822   6.883  10.403  0.2598 -1.0069  0.4441
  513MOL0     C70698   5.899   6.793  10.309  0.2683 -0.2968 -0.1986
  513MOL0     C70699   5.808   6.701  10.238  0.5441  0.1662 -0.6564
  513MOL0     C70700   5.882   6.580  10.181  0.1353 -0.1548  0.2519
  513MOL0    Cl70701   5.764   6.469  10.108 -0.0781 -0.3913  0.1030
  513MOL0     C70702   5.717   7.411  10.615 -0.2371  0.7769 -0.2611
  513MOL0     C70703   5.637   7.484  10.698 -0.4160 -0.2294  0.3685
  513MOL0     O70704   5.597   7.799  10.795  0.8008  0.4983  0.1606
  513MOL0     C70705   5.241   7.810  10.792 -0.0632 -0.0010  0.0279
  513MOL0     C70706   5.126   7.861  10.849  0.4512 -0.4712  0.7940
  513MOL0     N70707   4.641   8.356  11.310  0.2127  0.3799 -0.6645
  513MOL0     N70708   4.705   8.458  11.353 -0.7674  0.0761 -0.0376
  513MOL0     C70709   5.755   7.885  11.387 -0.2637  0.4458 -0.3413
  513MOL0     C70710   5.808   7.752  11.372  0.5257 -0.1604  0.0050
  513MOL0     C70711   5.963   7.363  11.177  0.3125 -0.2474  0.3054
  513MOL0     C70712   6.096   7.338  11.178 -0.1290 -0.2200 -0.6964
  513MOL0     C70713   6.133   7.211  11.222  0.2417 -0.1571 -0.6828
  513MOL0     C70714   6.032   7.116  11.249  0.0193  0.2626  0.7572
  513MOL0     O70715   6.073   7.000  11.306 -0.0194 -0.8461  0.3705
  513MOL0     C70716   6.050   6.893  11.219  0.0298  0.5242 -0.7361
  513MOL0     C70717   6.109   6.764  11.286  0.1967  0.6381 -0.7552
  513MOL0     C70718   6.101   6.646  11.194 -0.5636  0.4262  0.0261
  513MOL0     C70719   6.143   6.513  11.256 -0.2202  0.6231  0.1284
  513MOL0     C70720   6.063   6.414  11.179  0.8317 -0.3904 -0.0957
  513MOL0     C70721   6.012   6.332  11.112 -0.6196 -0.2343  0.0542
  513MOL0     C70722   5.904   7.137  11.228 -0.2538  0.7081  0.0930
  513MOL0     C70723   5.865   7.264  11.197  0.3710  0.4684  1.3647
  513MOL0     C70724   5.713   7.290  11.193  0.0382 -0.5030  0.0717
  513MOL0     H70725   5.909   7.767  11.054 -3.4740  1.0737 -2.9023
  513MOL0     H70726   5.833   7.990  11.070  0.8634  1.1664  0.3910
  513MOL0     H70727   5.785   8.196  11.459 -0.4048  0.4170 -1.4661
  513MOL0     H70728   5.632   8.109  11.481 -0.2596 -1.1237 -1.5353
  513MOL0     H70729   5.634   8.366  11.475  0.2994 -1.5709  0.3618
  513MOL0     H70730   5.649   8.343  11.301  0.6026 -2.2620 -0.5340
  513MOL0     H70731   5.454   8.275  11.255  0.8035 -0.9559  0.0182
  513MOL0     H70732   5.414   8.206  11.417 -0.7120  0.5641  0.2612
  513MOL0     H70733   5.426   8.427  11.501 -0.0149  1.3015 -0.2432
  513MOL0     H70734   5.440   8.491  11.338 -0.0493  1.0772  2.1489
  513MOL0     H70735   5.198   8.339  11.462  1.6737  1.7781  2.4905
  513MOL0     H70736   5.211   8.372  11.287 -0.4907 -0.6385  0.6722
  513MOL0     H70737   5.196   8.587  11.507 -0.0574  2.2859 -0.7459
  513MOL0     H70738   5.249   8.616  11.348 -1.4638  0.3187 -1.2034
  513MOL0     H70739   5.026   8.529  11.257 -0.6041  1.6334 -0.8543
  513MOL0     H70740   5.006   8.673  11.344 -0.4813 -0.7165 -0.1933
  513MOL0     H70741   4.986   8.455  11.541 -0.1164  2.0039  1.8386
  513MOL0     H70742   4.876   8.579  11.515 -0.3903 -2.2550  1.9300
  513MOL0     H70743   4.945   8.233  11.364  0.3164  1.5028 -0.0418
  513MOL0     H70744   4.593   8.118  11.207  0.7750 -1.0845 -4.2062
  513MOL0     H70745   4.685   8.052  11.355  1.6967 -1.1209 -1.6598
  513MOL0     H70746   4.885   8.015  11.226 -0.4655  0.5341 -1.6053
  513MOL0     H70747   4.747   7.927  11.155 -1.3456  0.6656 -1.4196
  513MOL0     H70748   4.725   8.130  10.979  1.2733  2.3733  0.2758
  513MOL0     H70749   4.881   8.181  11.060  2.2494 -2.3836  3.1332
  513MOL0     H70750   4.854   7.890  10.974  1.7485 -2.1627 -1.3375
  513MOL0     H70751   4.905   8.018  10.859 -0.2445  0.0901 -0.8487
  513MOL0     H70752   5.278   8.027  11.110  1.4492  0.4165 -0.6698
  513MOL0     H70753   5.564   7.990  11.022 -1.2969  0.6056 -1.4696
  513MOL0     H70754   5.547   7.821  11.087 -1.1501 -0.6801  0.0417
  513MOL0     H70755   5.474   7.939  11.166  2.4721  0.9462 -0.0736
  513MOL0     H70756   5.476   7.676  10.468 -0.4970 -1.8757 -1.3578
  513MOL0     H70757   5.638   7.559  10.317  1.3679 -3.1545 -0.8097
  513MOL0     H70758   5.727   7.400  10.222 -0.2683  1.6202  2.0563
  513MOL0     H70759   5.829   7.258  10.219  0.6806 -0.8577  0.8702
  513MOL0     H70760   5.537   7.257  10.319 -0.8492 -0.0473 -3.8456
  513MOL0     H70761   5.602   7.185  10.181 -0.3751  4.4693 -1.2160
  513MOL0     H70762   5.568   7.016  10.352 -1.6941 -0.2736  0.6570
  513MOL0     H70763   5.651   7.110  10.470 -1.3547 -5.5482  1.5106
  513MOL0     H70764   5.861   7.081  10.353 -1.8462  0.8723  2.4993
  513MOL0     H70765   5.780   7.012  10.213 -2.4406 -0.6867  0.5519
  513MOL0     H70766   5.886   6.914  10.487 -1.0277 -0.1874  1.1567
  513MOL0     H70767   5.731   6.831  10.432 -0.2421 -1.7052 -2.1687
  513MOL0     H70768   5.972   6.744  10.374  2.1720 -0.5556 -2.3699
  513MOL0     H70769   5.955   6.854  10.237  0.7088 -0.4886 -0.0221
  513MOL0     H70770   5.751   6.761  10.166  1.0294 -0.8574 -1.9386
  513MOL0     H70771   5.738   6.664  10.313 -0.1695 -1.9620 -2.2807
  513MOL0     H70772   5.936   6.520  10.255  1.5491 -3.0979 -2.9075
  513MOL0     H70773   5.951   6.614  10.103 -0.4397  0.8943  0.1731
  513MOL0     H70774   5.787   7.339  10.655 -0.1905  0.3398 -1.1094
  513MOL0     H70775   5.647   7.464  10.805 -0.4174  2.3163  0.9003
  513MOL0     H70776   5.237   7.762  10.695 -0.3865 -0.1053  0.0929
  513MOL0     H70777   5.033   7.868  10.794  0.2509 -1.6371  0.9764
  513MOL0     H70778   5.711   7.899  11.486  2.9723 -0.3974  1.3457
  513MOL0     H70779   5.821   7.687  11.458  0.1023 -0.4347 -0.1332
  513MOL0     H70780   6.176   7.409  11.161  0.0367 -0.3204 -0.3324
  513MOL0     H70781   6.238   7.182  11.231 -0.5437 -3.1399 -0.1454
  513MOL0     H70782   5.945   6.875  11.196 -0.4077  0.7257  0.9656
  513MOL0     H70783   6.092   6.924  11.123  0.5507  1.9147 -0.0782
  513MOL0     H70784   6.049   6.749  11.377  3.3579  0.4434  1.4646
  513MOL0     H70785   6.215   6.777  11.308 -0.0084  2.2898 -0.6030
  513MOL0     H70786   5.996   6.641  11.165 -0.0600  1.5620 -2.2055
  513MOL0     H70787   6.163   6.656  11.105 -0.1378  2.9846  0.5428
  513MOL0     H70788   6.125   6.509  11.364 -1.7825 -2.7079 -0.1266
  513MOL0     H70789   6.248   6.498  11.230 -0.2238  2.1191 -0.8737
  513MOL0     H70790   5.953   6.270  11.048 -2.2780 -1.2372  2.4177
  513MOL0     H70791   5.825   7.065  11.247 -0.7138  1.6702  2.1769
  513MOL0     H70792   5.690   7.332  11.292  0.5436  0.8597 -0.3838
  513MOL0     H70793   5.666   7.343  11.110  0.6144 -0.3338 -0.1507
  513MOL0     H70794   5.668   7.190  11.195 -0.2938 -0.3507  1.0318
  514MOL0     O70795   5.433   5.783   1.368 -0.4484 -0.3401 -0.0821
  514MOL0     C70796   5.374   5.737   1.278  0.1858 -0.2765  0.4325
  514MOL0     O70797   5.294   5.620   1.287  0.0841 -1.0235  0.2985
  514MOL0     C70798   5.264   5.569   1.413 -0.2387 -0.0243  0.2061
  514MOL0     C70799   5.148   5.490   1.416 -0.1695 -1.1775 -0.1678
  514MOL0     C70800   5.109   5.423   1.524 -0.2887 -0.5315  0.3570
  514MOL0     C70801   5.184   5.424   1.640 -1.2983 -0.6907  0.6994
  514MOL0     O70802   5.155   5.345   1.747  0.6777 -0.0057 -0.6237
  514MOL0     C70803   5.119   5.425   1.864 -0.1892  0.1287  0.9071
  514MOL0     C70804   4.992   5.378   1.954 -1.1787 -0.2436 -0.1929
  514MOL0     C70805   4.857   5.344   1.887 -0.1642 -0.5010  0.1130
  514MOL0     C70806   4.787   5.238   1.971  0.3722  0.2909  0.5725
  514MOL0     C70807   4.761   5.266   2.115  0.1982 -0.6198 -1.1284
  514MOL0     C70808   4.676   5.398   2.135  0.6147 -0.2607 -0.1171
  514MOL0     C70809   4.524   5.384   2.095  0.1262 -0.3848  0.2897
  514MOL0     C70810   4.455   5.520   2.093 -0.0754  0.0006  0.0072
  514MOL0     N70811   4.483   5.591   1.968 -1.2617  0.1152 -0.2808
  514MOL0     C70812   4.476   5.546   1.839  0.2042  0.0443 -0.9692
  514MOL0     C70813   4.450   5.660   1.781 -0.7070 -0.1185 -0.1653
  514MOL0     C70814   4.394   5.691   1.639 -0.4989  0.0523  1.0332
  514MOL0     C70815   4.430   5.576   1.535  0.7081  0.0900 -0.7999
  514MOL0     C70816   4.576   5.557   1.502  0.2775  0.5303 -0.6199
  514MOL0     C70817   4.639   5.672   1.429  0.0290 -0.6157  0.1743
  514MOL0     O70818   4.781   5.658   1.401  0.4468  0.3677 -0.8131
  514MOL0     C70819   4.836   5.773   1.352 -0.2013 -0.5247  0.2732
  514MOL0     C70820   4.939   5.833   1.417  0.3835  0.5598  0.9674
  514MOL0     C70821   4.993   5.950   1.365 -0.5611 -0.4066  0.3943
  514MOL0     C70822   5.117   5.989   1.437  0.1754  0.1115  0.7269
  514MOL0     C70823   4.926   6.022   1.260 -0.9128  0.0510 -0.2405
  514MOL0     C70824   4.965   6.156   1.218  0.3768 -0.0222 -0.1831
  514MOL0     O70825   4.909   6.196   1.105  0.6447 -0.0373  0.4137
  514MOL0     C70826   4.950   6.305   1.037  0.7384 -0.9024 -0.1479
  514MOL0     C70827   5.026   6.285   0.923  0.4104 -1.1083 -0.2337
  514MOL0     C70828   5.071   6.396   0.846 -0.5520  0.7127  0.1920
  514MOL0     C70829   5.036   6.528   0.879 -0.8664  1.1216 -0.1812
  514MOL0     O70830   5.079   6.645   0.822 -0.3877 -0.6848  0.2946
  514MOL0     C70831   5.110   6.644   0.681 -0.4083  0.0523 -0.9665
  514MOL0     C70832   5.029   6.758   0.607  1.1811 -0.1371 -0.4273
  514MOL0     C70833   5.037   6.878   0.698 -0.9855 -0.3517  0.5682
  514MOL0     C70834   5.000   7.007   0.618 -0.4444 -1.1050 -0.9586
  514MOL0     C70835   5.074   7.136   0.662  0.2116 -0.7556 -0.0681
  514MOL0     C70836   5.059   7.263   0.584  0.7746 -0.4384 -0.0134
  514MOL0     C70837   5.134   7.379   0.650  0.1625 -0.9126  0.7119
  514MOL0     C70838   5.087   7.506   0.585  0.2439 -0.8852 -1.3514
  514MOL0    Cl70839   5.145   7.648   0.693 -0.0450  0.6736  0.0742
  514MOL0     C70840   4.948   6.541   0.984  0.7627  0.5620  0.7268
  514MOL0     C70841   4.905   6.437   1.056  0.3271  0.0904  0.2583
  514MOL0     O70842   5.051   6.216   1.273  0.5286 -0.3899 -0.1284
  514MOL0     C70843   4.829   5.956   1.194  0.0680  1.2864 -0.1342
  514MOL0     C70844   4.784   5.834   1.240  0.2517  0.0481 -0.2932
  514MOL0     N70845   4.461   5.774   1.865 -0.9945  0.9074  0.4942
  514MOL0     N70846   4.480   5.728   1.981 -1.0049  0.3989  1.0968
  514MOL0     C70847   5.301   5.499   1.647 -0.2544 -0.7086  0.3813
  514MOL0     C70848   5.342   5.566   1.533 -0.1574 -0.0495  0.3356
  514MOL0     C70849   5.379   5.812   1.151  0.6671  0.4375  0.1635
  514MOL0     C70850   5.253   5.852   1.095  0.1944 -0.2496 -0.8823
  514MOL0     C70851   5.255   5.941   0.982  0.0724 -0.0436  0.2052
  514MOL0     C70852   5.374   5.966   0.910 -0.0274 -0.6216  0.2384
  514MOL0     O70853   5.383   6.045   0.799  0.0478 -0.6263 -0.3177
  514MOL0     C70854   5.268   6.111   0.744  0.2319 -0.3311 -0.3214
  514MOL0     C70855   5.307   6.164   0.608 -0.5871 -0.0935  0.4410
  514MOL0     C70856   5.405   6.291   0.620  0.6780  0.8861 -0.8013
  514MOL0     C70857   5.419   6.373   0.497 -0.6075  0.0604  0.2290
  514MOL0     C70858   5.496   6.310   0.388 -1.0925 -0.1127  0.6546
  514MOL0     C70859   5.563   6.268   0.298 -0.0004 -0.5601  0.2391
  514MOL0     C70860   5.491   5.919   0.960 -0.3209 -1.1446  0.5218
  514MOL0     C70861   5.497   5.840   1.077 -1.0708  0.1479  0.5817
  514MOL0     C70862   5.626   5.799   1.120  0.3447  1.2006 -0.4321
  514MOL0     H70863   5.091   5.500   1.324  0.6364 -0.2587 -0.5867
  514MOL0     H70864   5.026   5.354   1.525  1.2070 -2.4521  1.4540
  514MOL0     H70865   5.094   5.526   1.829 -4.5137 -1.4112 -1.0518
  514MOL0     H70866   5.205   5.432   1.932 -0.4329 -3.0529  1.6843
  514MOL0     H70867   5.023   5.290   2.011  1.7798  1.0098  0.3121
  514MOL0     H70868   4.978   5.459   2.026  1.1105 -0.4923  0.6289
  514MOL0     H70869   4.791   5.431   1.875  0.1283 -0.1698  0.7937
  514MOL0     H70870   4.871   5.313   1.784  0.9452  0.5410 -0.0713
  514MOL0     H70871   4.695   5.216   1.916  0.0690  1.5712  0.5252
  514MOL0     H70872   4.848   5.149   1.960  0.1728  0.2531 -0.2317
  514MOL0     H70873   4.855   5.280   2.169 -0.1742  1.9090 -1.0550
  514MOL0     H70874   4.717   5.176   2.159  1.7420 -0.5838  0.5917
  514MOL0     H70875   4.692   5.411   2.243  0.5253  0.0979 -0.1462
  514MOL0     H70876   4.714   5.481   2.075 -2.6342  2.1811  0.9663
  514MOL0     H70877   4.477   5.318   2.169  3.8394 -2.6850  0.8586
  514MOL0     H70878   4.514   5.347   1.993  2.4622  1.5606 -0.7459
  514MOL0     H70879   4.348   5.496   2.087  0.1637 -0.9892 -0.5019
  514MOL0     H70880   4.471   5.576   2.186 -0.8238 -3.2904  2.3044
  514MOL0     H70881   4.460   5.445   1.801  1.6841 -0.2688 -0.8468
  514MOL0     H70882   4.437   5.783   1.600 -2.0131 -0.4619 -2.2273
  514MOL0     H70883   4.289   5.711   1.661 -0.4671  1.4847  0.0107
  514MOL0     H70884   4.383   5.487   1.577 -0.3625  0.2681 -1.5566
  514MOL0     H70885   4.376   5.601   1.442  0.1728  0.2484 -0.4509
  514MOL0     H70886   4.634   5.538   1.592 -2.8921 -2.8549  0.9593
  514MOL0     H70887   4.587   5.464   1.445 -0.4645 -0.1690  0.3419
  514MOL0     H70888   4.581   5.683   1.337  0.2326  1.1091  0.2245
  514MOL0     H70889   4.619   5.763   1.486 -2.3336  1.1340 -3.1308
  514MOL0     H70890   4.995   5.777   1.491  1.9371  0.1754 -0.4234
  514MOL0     H70891   5.200   6.018   1.373 -0.1030  0.4929  0.5319
  514MOL0     H70892   5.146   5.915   1.513 -1.3089  0.2134  1.4435
  514MOL0     H70893   5.090   6.074   1.501 -1.0296 -0.9235  1.6640
  514MOL0     H70894   5.037   6.178   0.904  2.0598 -1.6642  3.0103
  514MOL0     H70895   5.133   6.374   0.760  0.1818 -2.1107  1.3324
  514MOL0     H70896   5.215   6.670   0.672  0.1717 -1.8488 -0.1354
  514MOL0     H70897   5.097   6.548   0.629  3.0822 -0.6182 -0.8226
  514MOL0     H70898   5.060   6.769   0.502  2.2972 -0.1948 -0.1152
  514MOL0     H70899   4.925   6.725   0.601  0.2759  2.0756  1.4737
  514MOL0     H70900   5.139   6.894   0.735 -0.4190 -0.1335 -1.0107
  514MOL0     H70901   4.973   6.866   0.786 -0.8023  1.4063  0.9787
  514MOL0     H70902   4.894   7.013   0.648  0.1574  3.7098  1.1652
  514MOL0     H70903   5.020   6.998   0.511 -1.4289  4.4404 -1.9086
  514MOL0     H70904   5.048   7.160   0.766  2.9504  0.9191  0.3467
  514MOL0     H70905   5.182   7.119   0.670  0.3770 -0.2287 -1.1190
  514MOL0     H70906   4.954   7.291   0.576  1.4819  1.8837 -2.5403
  514MOL0     H70907   5.106   7.250   0.486  0.1807 -1.9645 -0.1262
  514MOL0     H70908   5.241   7.362   0.632  0.3392 -0.7501  1.5972
  514MOL0     H70909   5.127   7.391   0.758  0.6832 -3.7893  1.1454
  514MOL0     H70910   4.978   7.503   0.583  0.0628  0.5982  1.4985
  514MOL0     H70911   5.135   7.520   0.488  1.0641 -1.5207 -1.0464
  514MOL0     H70912   4.895   6.633   1.008  0.1893  0.3902  0.1730
  514MOL0     H70913   4.830   6.464   1.130  0.5157 -2.6860  1.5928
  514MOL0     H70914   4.777   6.007   1.114  1.1019 -0.3384 -1.9154
  514MOL0     H70915   4.715   5.787   1.171  1.7888  1.1644 -2.7658
  514MOL0     H70916   5.368   5.501   1.733  0.7356  1.0141 -0.3837
  514MOL0     H70917   5.433   5.625   1.535 -0.4274  0.5925 -2.2299
  514MOL0     H70918   5.160   5.833   1.146  0.0380 -0.6530 -1.3119
  514MOL0     H70919   5.161   5.989   0.956  2.1948  3.8352 -1.1173
  514MOL0     H70920   5.182   6.045   0.731 -0.6971  0.7082  0.3209
  514MOL0     H70921   5.237   6.197   0.804  0.5310 -0.3259 -0.1723
  514MOL0     H70922   5.214   6.199   0.562 -1.0926 -0.7003  0.9897
  514MOL0     H70923   5.358   6.089   0.548 -0.8861  0.2947 -0.3108
  514MOL0     H70924   5.354   6.355   0.692 -1.8303 -1.6913 -0.1048
  514MOL0     H70925   5.499   6.264   0.669  0.9430  0.8981 -1.2949
  514MOL0     H70926   5.460   6.469   0.530 -3.4141  1.6657 -0.6605
  514MOL0     H70927   5.324   6.408   0.456  0.4196  0.8868 -1.5140
  514MOL0     H70928   5.610   6.224   0.211  0.0124 -0.1410  0.0296
  514MOL0     H70929   5.580   5.941   0.902  0.8024 -1.7477  1.9562
  514MOL0     H70930   5.707   5.859   1.077  0.2251  0.8860 -1.1012
  514MOL0     H70931   5.641   5.812   1.228 -0.6779  1.5731 -0.3265
  514MOL0     H70932   5.635   5.696   1.086  1.7157  1.1065  0.1141
  515MOL0     O70933   5.383   5.497   9.465 -0.1374  0.1659 -0.0123
  515MOL0     C70934   5.371   5.559   9.574  1.7103  0.3685  0.2624
  515MOL0     O70935   5.295   5.522   9.681  0.7157  0.4160  0.7875
  515MOL0     C70936   5.220   5.403   9.677 -0.6027  0.1383  0.0109
  515MOL0     C70937   5.146   5.353   9.568 -0.3741  0.0288 -0.1092
  515MOL0     C70938   5.078   5.234   9.574  0.4656 -0.3241 -0.1022
  515MOL0     C70939   5.078   5.158   9.694 -0.1912 -0.1850  0.4229
  515MOL0     O70940   5.030   5.034   9.703 -0.7022  0.3254 -0.3573
  515MOL0     C70941   4.967   4.966   9.595 -0.6258 -0.4498 -0.0224
  515MOL0     C70942   4.872   4.860   9.651 -0.2176 -0.0303 -0.7774
  515MOL0     C70943   4.807   4.782   9.541  0.3778 -0.7188 -0.1062
  515MOL0     C70944   4.895   4.680   9.484 -0.4427  0.3308  0.1701
  515MOL0     C70945   4.815   4.572   9.405  0.2762  0.2254  0.0071
  515MOL0     C70946   4.903   4.462   9.335 -0.5214  0.4894  0.6021
  515MOL0     C70947   4.939   4.347   9.423 -0.2402 -0.0389 -0.3411
  515MOL0     C70948   4.976   4.222   9.344 -0.1258  0.0669  0.7467
  515MOL0     N70949   4.852   4.147   9.304 -0.4136 -0.0322  0.5812
  515MOL0     C70950   4.808   4.046   9.381 -0.4681  0.4507  0.7164
  515MOL0     C70951   4.715   3.987   9.303  0.2989 -0.5374 -0.4230
  515MOL0     C70952   4.631   3.873   9.333 -0.3209  0.3336 -0.3624
  515MOL0     C70953   4.679   3.741   9.274 -0.3292  0.6297 -0.0656
  515MOL0     C70954   4.570   3.635   9.278 -0.0016  0.2674  0.1041
  515MOL0     C70955   4.617   3.517   9.179  0.2519 -1.0659  0.1694
  515MOL0     O70956   4.534   3.406   9.199 -0.3352  1.0948 -0.4968
  515MOL0     C70957   4.417   3.390   9.130  0.1734  0.7624  0.5545
  515MOL0     C70958   4.410   3.406   8.989  0.4624  1.3489  0.5740
  515MOL0     C70959   4.295   3.375   8.919 -0.4536  0.2720  0.0959
  515MOL0     C70960   4.287   3.402   8.771  0.1807 -0.8464 -0.2892
  515MOL0     C70961   4.187   3.317   8.993 -0.1415  0.5573  0.3216
  515MOL0     C70962   4.053   3.293   8.934 -0.3882 -0.1569 -0.5835
  515MOL0     O70963   4.035   3.273   8.798  0.2248  0.0088  0.5596
  515MOL0     C70964   3.899   3.268   8.759 -1.1512  0.5700  0.5435
  515MOL0     C70965   3.839   3.383   8.707 -0.9165 -0.2741 -0.9228
  515MOL0     C70966   3.699   3.390   8.690 -0.9164 -0.3309  0.3964
  515MOL0     C70967   3.625   3.271   8.708  1.1805  0.0569 -0.1006
  515MOL0     O70968   3.488   3.255   8.686  0.4798 -1.0452 -0.1119
  515MOL0     C70969   3.435   3.364   8.612  0.2963  0.6033  0.3773
  515MOL0     C70970   3.301   3.327   8.550  0.0088 -0.5879 -0.1838
  515MOL0     C70971   3.200   3.276   8.653  0.0104 -0.1344 -0.0172
  515MOL0     C70972   3.158   3.390   8.745  0.2924  0.4404  0.6406
  515MOL0     C70973   3.055   3.341   8.845 -0.1537  0.1108 -0.0070
  515MOL0     C70974   2.976   3.460   8.906  0.5947  0.1470 -0.5750
  515MOL0     C70975   2.899   3.410   9.031 -0.0090 -0.1177 -1.1074
  515MOL0     C70976   2.782   3.316   8.995 -0.4897 -0.4023 -0.1377
  515MOL0    Cl70977   2.820   3.147   8.957  0.0003  0.7274  0.1115
  515MOL0     C70978   3.690   3.159   8.747  0.7092  0.6729 -0.3237
  515MOL0     C70979   3.827   3.151   8.779 -0.1256  0.0546 -0.1720
  515MOL0     O70980   3.956   3.292   9.018 -0.4614  0.1269  0.3455
  515MOL0     C70981   4.200   3.302   9.134  1.2656  0.5201  0.7415
  515MOL0     C70982   4.310   3.340   9.204  0.3702  0.2787 -0.3801
  515MOL0     N70983   4.706   4.050   9.184 -0.7843  0.6343 -0.1160
  515MOL0     N70984   4.802   4.134   9.177  0.0872 -0.2777  0.9778
  515MOL0     C70985   5.157   5.203   9.800  0.0771  0.1532 -0.0030
  515MOL0     C70986   5.226   5.330   9.794  0.4291  0.1504  0.6325
  515MOL0     C70987   5.456   5.688   9.589 -0.3483  0.8422 -0.5464
  515MOL0     C70988   5.518   5.739   9.476 -0.8768  0.0856  0.5792
  515MOL0     C70989   5.577   5.862   9.472  0.6001 -1.2999  0.2974
  515MOL0     C70990   5.587   5.944   9.586  0.4586 -0.1536  0.6710
  515MOL0     O70991   5.658   6.056   9.576 -0.0976 -0.1555 -0.3479
  515MOL0     C70992   5.626   6.170   9.655  0.1274  0.0371  0.4797
  515MOL0     C70993   5.742   6.268   9.660 -0.2858  0.8723 -0.1158
  515MOL0     C70994   5.721   6.384   9.758  0.5357  0.1118 -0.5299
  515MOL0     C70995   5.838   6.488   9.773  0.1173 -0.1799  1.1473
  515MOL0     C70996   5.970   6.419   9.776 -0.1898  1.0543 -0.9512
  515MOL0     C70997   6.070   6.351   9.795 -0.7185 -1.5611 -0.1029
  515MOL0     C70998   5.535   5.888   9.699  0.1241 -0.2007  0.4066
  515MOL0     C70999   5.469   5.765   9.702 -0.4094 -0.4068  0.1218
  515MOL0     C71000   5.431   5.709   9.840 -0.2799 -0.6814 -0.6817
  515MOL0     H71001   5.126   5.420   9.485  1.7095  0.5915 -0.2149
  515MOL0     H71002   5.020   5.210   9.485 -0.5835  2.7550 -0.3837
  515MOL0     H71003   5.032   4.910   9.528  1.4705 -0.1193  1.6180
  515MOL0     H71004   4.917   5.043   9.535  0.3098  0.8650  0.8206
  515MOL0     H71005   4.919   4.795   9.725 -1.3062 -0.3911 -0.3835
  515MOL0     H71006   4.788   4.903   9.706  0.9216  1.3436 -0.0516
  515MOL0     H71007   4.724   4.722   9.580  1.6396 -1.1056  2.1549
  515MOL0     H71008   4.776   4.845   9.457  2.3614  0.5582  0.0534
  515MOL0     H71009   4.979   4.712   9.423 -0.7418 -0.1436 -0.5151
  515MOL0     H71010   4.930   4.632   9.576  0.3246 -0.3385 -0.4601
  515MOL0     H71011   4.754   4.625   9.331  0.5107 -0.9008 -1.0209
  515MOL0     H71012   4.742   4.519   9.467 -1.6992 -1.1025 -3.2511
  515MOL0     H71013   4.852   4.431   9.244 -1.8806  2.0533  0.7725
  515MOL0     H71014   4.995   4.501   9.290  0.1894 -2.0652 -0.3391
  515MOL0     H71015   4.860   4.328   9.496  0.6665  1.5452  1.1246
  515MOL0     H71016   5.034   4.376   9.468  0.8761  0.9876 -3.0924
  515MOL0     H71017   5.024   4.254   9.251 -1.5037  0.0847  0.0102
  515MOL0     H71018   5.049   4.162   9.400 -0.4489 -0.6884  0.3844
  515MOL0     H71019   4.850   4.025   9.478  2.2666  1.1778 -0.2091
  515MOL0     H71020   4.530   3.894   9.298 -0.6730  4.2037  2.3424
  515MOL0     H71021   4.623   3.860   9.441  0.5401 -2.1419 -0.5271
  515MOL0     H71022   4.712   3.748   9.170 -2.0338 -0.7587 -0.7474
  515MOL0     H71023   4.766   3.709   9.332  2.5401  2.6615 -2.8540
  515MOL0     H71024   4.547   3.605   9.381  2.9613  0.3150  0.8920
  515MOL0     H71025   4.481   3.676   9.231 -0.5631 -2.4354 -1.3805
  515MOL0     H71026   4.609   3.562   9.079 -3.6299 -2.7380 -0.4297
  515MOL0     H71027   4.720   3.493   9.207  1.5467  0.9077 -2.4601
  515MOL0     H71028   4.500   3.430   8.933  0.0490  1.3769 -0.0816
  515MOL0     H71029   4.191   3.438   8.734 -0.3381 -1.3669  0.5328
  515MOL0     H71030   4.286   3.300   8.730 -0.6130 -1.1928  0.5833
  515MOL0     H71031   4.370   3.466   8.740 -2.9113  3.7742  0.1119
  515MOL0     H71032   3.906   3.468   8.694  0.8885 -0.4352  4.7415
  515MOL0     H71033   3.661   3.490   8.671 -1.1631 -0.5414 -0.2295
  515MOL0     H71034   3.429   3.455   8.673  0.3175  1.8202 -1.3777
  515MOL0     H71035   3.502   3.388   8.529  1.0844  0.5855  1.0008
  515MOL0     H71036   3.263   3.423   8.515  3.2913  0.4009 -1.4155
  515MOL0     H71037   3.317   3.257   8.467  1.1110 -0.7958  0.1790
  515MOL0     H71038   3.235   3.184   8.702  2.1976 -1.3623 -3.5478
  515MOL0     H71039   3.110   3.255   8.595  0.6090  2.0194 -1.8804
  515MOL0     H71040   3.129   3.480   8.690  0.3383 -1.7890 -3.3860
  515MOL0     H71041   3.247   3.420   8.802 -0.3850  0.5883  1.6503
  515MOL0     H71042   3.000   3.252   8.812  0.1687 -0.0916 -0.0085
  515MOL0     H71043   3.111   3.297   8.928 -0.4947  0.3424  0.3475
  515MOL0     H71044   2.901   3.505   8.840  0.6867 -2.9271 -3.0235
  515MOL0     H71045   3.045   3.542   8.928  0.7845 -0.2037  0.1611
  515MOL0     H71046   2.867   3.498   9.087  4.3510 -0.5442  2.6314
  515MOL0     H71047   2.959   3.359   9.107  0.8300  1.7131 -0.4596
  515MOL0     H71048   2.721   3.352   8.911  0.9288 -1.3175 -1.6179
  515MOL0     H71049   2.722   3.305   9.086  1.3581 -0.7189  1.0781
  515MOL0     H71050   3.624   3.074   8.751 -0.4294  1.5277 -0.4250
  515MOL0     H71051   3.877   3.067   8.827  2.1188  0.7808 -1.1411
  515MOL0     H71052   4.122   3.254   9.192  0.7469  0.1707 -0.2251
  515MOL0     H71053   4.298   3.319   9.310 -2.4106  2.0763 -0.2121
  515MOL0     H71054   5.145   5.148   9.893 -0.1952  0.0558 -0.0945
  515MOL0     H71055   5.278   5.372   9.880 -1.4155  1.1111  1.3177
  515MOL0     H71056   5.539   5.690   9.382 -1.0552  1.6896 -0.3312
  515MOL0     H71057   5.645   5.901   9.397  0.4293 -0.4929  0.5450
  515MOL0     H71058   5.531   6.211   9.618 -0.4147 -2.0304 -0.6006
  515MOL0     H71059   5.615   6.135   9.758  0.5311 -0.3872  0.3773
  515MOL0     H71060   5.757   6.320   9.565 -1.5141  0.6019 -0.4782
  515MOL0     H71061   5.833   6.210   9.678 -1.6028 -0.8689  1.3250
  515MOL0     H71062   5.628   6.433   9.728 -0.7941 -1.3628  0.9800
  515MOL0     H71063   5.701   6.338   9.855 -2.9261  0.2804 -1.0452
  515MOL0     H71064   5.822   6.538   9.869  2.7219 -1.1133  2.1642
  515MOL0     H71065   5.844   6.558   9.689  0.7054 -2.5574 -0.8910
  515MOL0     H71066   6.170   6.313   9.797  0.8148  1.8966 -2.3071
  515MOL0     H71067   5.539   5.947   9.790 -3.6012  0.8800  0.0354
  515MOL0     H71068   5.325   5.732   9.849 -0.3628 -0.8580 -1.1815
  515MOL0     H71069   5.443   5.600   9.834  1.9231 -0.4163 -2.9696
  515MOL0     H71070   5.495   5.753   9.918 -1.1979 -0.9552  0.2487
  516MOL0     O71071   3.923   2.458   6.663 -0.5004  0.6582  0.1167
  516MOL0     C71072   3.862   2.443   6.773 -0.1737  0.7821 -0.4830
  516MOL0     O71073   3.826   2.550   6.861  0.0518  0.3779  0.1445
  516MOL0     C71074   3.857   2.673   6.819  1.8190 -0.3157 -0.4506
  516MOL0     C71075   3.969   2.736   6.870 -0.1241 -0.8221 -0.1254
  516MOL0     C71076   4.000   2.869   6.830 -0.1254  0.2518 -0.1135
  516MOL0     C71077   3.912   2.951   6.749 -0.2146 -0.6586 -0.2551
  516MOL0     O71078   3.923   3.085   6.709 -0.2244 -0.4490  0.4288
  516MOL0     C71079   4.019   3.166   6.785  0.0903  0.2488 -0.0227
  516MOL0     C71080   4.059   3.294   6.719 -0.0594  0.1202  0.9565
  516MOL0     C71081   3.987   3.423   6.748 -0.2992 -0.1039  0.0150
  516MOL0     C71082   4.041   3.516   6.865 -1.1623 -0.3039 -0.1188
  516MOL0     C71083   4.069   3.433   6.986  0.5782  0.2032 -0.0645
  516MOL0     C71084   4.117   3.512   7.103  0.1882 -0.0851 -0.6614
  516MOL0     C71085   4.133   3.421   7.228  0.1909  0.3587  0.2691
  516MOL0     C71086   4.153   3.495   7.364 -0.2214 -0.6254  0.2725
  516MOL0     N71087   4.028   3.516   7.438  0.2016  0.1557  0.8391
  516MOL0     C71088   3.918   3.593   7.401 -0.4966  0.3043  0.7569
  516MOL0     C71089   3.820   3.573   7.499  0.7903 -0.0358  0.9962
  516MOL0     C71090   3.689   3.653   7.495 -0.0940  0.5708  0.5012
  516MOL0     C71091   3.572   3.583   7.566 -1.0960 -0.1055  0.8005
  516MOL0     C71092   3.450   3.674   7.563  0.8775 -0.0136  0.6766
  516MOL0     C71093   3.328   3.600   7.638 -0.0156  0.5467  0.5489
  516MOL0     O71094   3.362   3.563   7.771  0.3134  0.6803 -0.6264
  516MOL0     C71095   3.260   3.516   7.851  0.8459 -0.9470 -1.0677
  516MOL0     C71096   3.132   3.489   7.811  0.1063  0.5045 -0.1114
  516MOL0     C71097   3.035   3.442   7.900 -0.0295  0.1776  0.6096
  516MOL0     C71098   2.903   3.413   7.834  0.5265  0.6047  0.6491
  516MOL0     C71099   3.073   3.427   8.040  0.2810  1.0005 -0.2787
  516MOL0     C71100   2.968   3.410   8.159 -0.8298  0.7690  0.2274
  516MOL0     O71101   3.015   3.412   8.288  0.3221  0.0556  0.2243
  516MOL0     C71102   2.933   3.426   8.394  0.5653  0.1725  0.6588
  516MOL0     C71103   2.887   3.315   8.473  0.0370  0.5450  0.5877
  516MOL0     C71104   2.807   3.338   8.579 -0.4057 -0.7527 -0.9842
  516MOL0     C71105   2.758   3.465   8.602 -0.2110  0.2927  0.3111
  516MOL0     O71106   2.679   3.474   8.716  0.2206 -0.3238  0.4037
  516MOL0     C71107   2.588   3.590   8.727  0.7169  0.4297 -0.2528
  516MOL0     C71108   2.504   3.586   8.856 -0.0614 -0.1766  0.0734
  516MOL0     C71109   2.389   3.695   8.850  0.6461 -0.6769  0.8034
  516MOL0     C71110   2.423   3.838   8.905  0.1855 -0.1208  0.7519
  516MOL0     C71111   2.309   3.935   8.887  0.6235  0.1119 -0.3485
  516MOL0     C71112   2.340   4.079   8.963  0.6943  0.2710  0.4113
  516MOL0     C71113   2.335   4.063   9.115  0.8805  0.7686  0.9700
  516MOL0     C71114   2.312   4.200   9.180  0.0785  0.5393  0.4552
  516MOL0    Cl71115   2.267   4.171   9.351  0.2010  0.3492 -0.2855
  516MOL0     C71116   2.805   3.578   8.528  0.5326  1.0943  1.2917
  516MOL0     C71117   2.899   3.550   8.428 -0.9825 -0.2251 -0.0148
  516MOL0     O71118   2.858   3.376   8.120 -0.3372 -0.8211  0.1232
  516MOL0     C71119   3.202   3.457   8.072  0.7798  1.2646  0.4967
  516MOL0     C71120   3.296   3.489   7.983 -0.5833 -0.6621  0.7364
  516MOL0     N71121   3.884   3.502   7.598  0.7183  0.6598 -0.1769
  516MOL0     N71122   4.000   3.468   7.561  1.1389 -0.0423  0.7187
  516MOL0     C71123   3.802   2.879   6.693  0.5507  0.6314  0.6450
  516MOL0     C71124   3.776   2.744   6.729  1.0007 -0.6045  0.4562
  516MOL0     C71125   3.819   2.315   6.813 -0.8996 -1.0692  0.9205
  516MOL0     C71126   3.684   2.292   6.843  0.3228 -0.2890  0.2579
  516MOL0     C71127   3.638   2.162   6.881  0.3861 -0.0894 -0.5242
  516MOL0     C71128   3.726   2.049   6.888 -0.1374  1.0982  0.1112
  516MOL0     O71129   3.671   1.919   6.893 -0.0195 -0.9352 -0.0353
  516MOL0     C71130   3.535   1.904   6.927 -0.3823 -0.9283 -0.6094
  516MOL0     C71131   3.523   1.766   6.975  0.2648  1.0918 -0.2923
  516MOL0     C71132   3.375   1.738   6.990  0.9269 -0.0918  0.1546
  516MOL0     C71133   3.347   1.628   7.083 -0.8550  0.1936  0.4123
  516MOL0     C71134   3.203   1.595   7.081  0.4049 -0.2372  0.0648
  516MOL0     C71135   3.088   1.560   7.084  0.2004 -0.4605  0.8003
  516MOL0     C71136   3.857   2.080   6.865  0.0110 -0.2697  0.1717
  516MOL0     C71137   3.908   2.209   6.822 -0.4353  2.0151  0.0708
  516MOL0     C71138   4.053   2.193   6.771 -0.2143 -0.0118 -0.0580
  516MOL0     H71139   4.035   2.670   6.926  1.3078 -1.1246 -2.0687
  516MOL0     H71140   4.087   2.913   6.878  0.1424 -0.7177  0.3083
  516MOL0     H71141   4.111   3.111   6.805  0.6814  0.7802 -1.1769
  516MOL0     H71142   3.970   3.191   6.880  2.5183  2.7895  0.6894
  516MOL0     H71143   4.165   3.312   6.736  0.0058  0.1790  0.4896
  516MOL0     H71144   4.051   3.265   6.614 -1.3021  1.6334  0.6009
  516MOL0     H71145   3.995   3.490   6.662 -0.1495 -1.1262 -0.7992
  516MOL0     H71146   3.881   3.395   6.749 -0.0533 -1.1028 -0.3104
  516MOL0     H71147   4.137   3.548   6.825 -1.1526 -0.8454 -0.5453
  516MOL0     H71148   3.990   3.609   6.890  2.4322  1.0656  2.9308
  516MOL0     H71149   4.156   3.369   6.969 -0.6255 -2.1284  1.9926
  516MOL0     H71150   3.982   3.372   7.014 -0.0337 -0.1727 -2.5763
  516MOL0     H71151   4.211   3.557   7.071  1.1348  1.2363  3.4554
  516MOL0     H71152   4.050   3.595   7.126  1.6784  0.8075  0.6378
  516MOL0     H71153   4.215   3.353   7.206  2.3322  2.9566 -0.1782
  516MOL0     H71154   4.046   3.355   7.242 -1.0632  1.8512 -0.2045
  516MOL0     H71155   4.215   3.444   7.438  0.0237  0.6509  0.9737
  516MOL0     H71156   4.224   3.577   7.349 -0.2324 -0.5878  0.4171
  516MOL0     H71157   3.913   3.652   7.310  0.7605  0.8292  1.0050
  516MOL0     H71158   3.669   3.669   7.389  1.0379  2.5187  0.5428
  516MOL0     H71159   3.694   3.753   7.539 -0.1325  1.6163 -1.7047
  516MOL0     H71160   3.543   3.493   7.511  1.3156 -0.0814 -0.6229
  516MOL0     H71161   3.605   3.552   7.666 -0.8185 -2.5828  0.0122
  516MOL0     H71162   3.476   3.762   7.623  2.7166 -1.4855  2.1504
  516MOL0     H71163   3.418   3.704   7.463 -0.4259 -0.9840  0.7800
  516MOL0     H71164   3.245   3.671   7.642  0.9030  1.7350 -0.4875
  516MOL0     H71165   3.302   3.515   7.573  1.3740  1.6245 -1.5611
  516MOL0     H71166   3.106   3.515   7.709 -1.0190  1.7357  0.4486
  516MOL0     H71167   2.909   3.396   7.726  0.8124  0.2024  0.7247
  516MOL0     H71168   2.827   3.490   7.851 -0.7102 -0.6827  1.2135
  516MOL0     H71169   2.874   3.320   7.885  0.4455  1.0467  1.4295
  516MOL0     H71170   2.912   3.212   8.450  1.4195  1.0713 -0.3909
  516MOL0     H71171   2.782   3.255   8.645 -1.2201  1.4063  1.6122
  516MOL0     H71172   2.647   3.681   8.729  1.1958  0.1213 -0.2620
  516MOL0     H71173   2.523   3.594   8.640  1.5061  2.8972 -0.8017
  516MOL0     H71174   2.456   3.490   8.874  0.2700 -0.1986  0.8827
  516MOL0     H71175   2.560   3.605   8.948 -3.4296  2.1915  1.8471
  516MOL0     H71176   2.308   3.658   8.913 -1.0116  0.1648 -0.7498
  516MOL0     H71177   2.364   3.710   8.745  3.8463  0.0692  0.0238
  516MOL0     H71178   2.508   3.884   8.854 -1.4862  2.0721 -0.2385
  516MOL0     H71179   2.456   3.820   9.008  3.1854 -1.5729 -0.3438
  516MOL0     H71180   2.283   3.957   8.783  1.9337 -0.7732 -0.8993
  516MOL0     H71181   2.220   3.893   8.934  0.2768 -0.9422 -1.8641
  516MOL0     H71182   2.261   4.145   8.928 -0.4246 -1.1339  0.1964
  516MOL0     H71183   2.430   4.125   8.921  0.9715 -1.7398 -1.3627
  516MOL0     H71184   2.417   4.011   9.166  0.5652  0.9961  1.7183
  516MOL0     H71185   2.244   4.005   9.135 -0.3670  2.5438  0.6365
  516MOL0     H71186   2.226   4.248   9.133 -0.4011 -0.9353 -0.2526
  516MOL0     H71187   2.406   4.255   9.170  0.1617  0.5205  1.1175
  516MOL0     H71188   2.776   3.679   8.555  0.3458  2.7370 -3.9350
  516MOL0     H71189   2.945   3.626   8.366 -4.3691 -0.7180 -3.4995
  516MOL0     H71190   3.228   3.441   8.177 -1.3944 -1.3575  0.7653
  516MOL0     H71191   3.401   3.492   8.010  0.6430 -2.5297 -3.0990
  516MOL0     H71192   3.741   2.917   6.611  2.4881  0.1451 -1.1167
  516MOL0     H71193   3.687   2.698   6.686  0.6058 -2.5774  3.1301
  516MOL0     H71194   3.627   2.384   6.850  2.2845  1.0462 -0.2859
  516MOL0     H71195   3.533   2.152   6.905  0.3265 -0.6640 -1.0166
  516MOL0     H71196   3.513   1.974   7.009  2.4022 -1.3411  0.6079
  516MOL0     H71197   3.492   1.934   6.832  1.7976  1.2806 -1.0013
  516MOL0     H71198   3.558   1.747   7.077 -3.5480  1.4753  1.2468
  516MOL0     H71199   3.560   1.694   6.902 -0.7037 -2.5930  2.5179
  516MOL0     H71200   3.320   1.830   7.012  1.1994  0.1611 -0.2006
  516MOL0     H71201   3.340   1.708   6.891  1.5601 -0.8551  0.1545
  516MOL0     H71202   3.377   1.658   7.184  1.5608  0.8094 -0.4149
  516MOL0     H71203   3.406   1.541   7.055 -0.6570 -0.0736  1.6046
  516MOL0     H71204   2.987   1.524   7.078  0.3299 -0.5923 -1.0831
  516MOL0     H71205   3.920   1.992   6.874 -0.4145 -1.0080 -2.9853
  516MOL0     H71206   4.070   2.125   6.687 -1.0093  1.9156 -1.8714
  516MOL0     H71207   4.084   2.294   6.744 -0.5770  0.1681  0.1850
  516MOL0     H71208   4.124   2.172   6.851  0.2580  0.7044 -0.2863
  517MOL0     O71209   7.040   4.042   1.580 -0.4679  0.8487 -0.6049
  517MOL0     C71210   7.038   4.008   1.466  0.2260 -0.0873  0.1692
  517MOL0     O71211   7.136   4.044   1.370  0.8307  0.1523  1.1651
  517MOL0     C71212   7.263   4.076   1.413  0.3945  0.2044  0.4969
  517MOL0     C71213   7.364   3.986   1.452  0.0861  0.7729 -1.2371
  517MOL0     C71214   7.479   4.037   1.516 -1.5135 -0.5267 -0.5723
  517MOL0     C71215   7.498   4.177   1.545  0.0105  0.8944 -0.3938
  517MOL0     O71216   7.588   4.219   1.633 -0.3356  0.4047 -0.2608
  517MOL0     C71217   7.724   4.208   1.581 -1.4309  0.4531  0.1159
  517MOL0     C71218   7.831   4.274   1.673 -0.0897  0.4939  0.7566
  517MOL0     C71219   7.841   4.420   1.668  0.6628  0.3150 -0.2545
  517MOL0     C71220   7.934   4.477   1.774 -0.3479  0.4739  0.1281
  517MOL0     C71221   7.944   4.633   1.770 -0.9231  0.3329  0.3928
  517MOL0     C71222   7.981   4.686   1.635  0.4939  0.0456  0.2213
  517MOL0     C71223   8.005   4.837   1.643 -0.2007 -0.6503 -0.2188
  517MOL0     C71224   7.983   4.904   1.512 -0.8079  0.0924  0.2160
  517MOL0     N71225   8.064   5.027   1.473 -0.2208  0.7274  0.0741
  517MOL0     C71226   8.198   5.046   1.501 -0.2045  0.2421 -0.9356
  517MOL0     C71227   8.230   5.163   1.446  0.6195 -0.6029 -0.1004
  517MOL0     C71228   8.350   5.255   1.475  0.2728 -0.3924  0.6808
  517MOL0     C71229   8.455   5.202   1.572  0.2216 -0.0603  1.2634
  517MOL0     C71230   8.418   5.220   1.717  0.7461  0.9511  0.6409
  517MOL0     C71231   8.417   5.368   1.759 -0.6024  0.0711 -0.2168
  517MOL0     O71232   8.547   5.433   1.780  0.0078 -0.3262 -0.4002
  517MOL0     C71233   8.554   5.566   1.750 -0.1785 -0.5676 -0.1951
  517MOL0     C71234   8.668   5.637   1.800  0.3536  0.4143 -0.8662
  517MOL0     C71235   8.701   5.773   1.767 -0.8578  0.2136  0.3183
  517MOL0     C71236   8.824   5.821   1.849 -0.1405  0.3336  0.2804
  517MOL0     C71237   8.617   5.842   1.683  0.4488  0.7597 -0.1154
  517MOL0     C71238   8.648   5.980   1.630 -0.2474 -0.1469  0.5739
  517MOL0     O71239   8.553   6.072   1.591 -0.2229 -0.3219  0.2053
  517MOL0     C71240   8.605   6.196   1.570 -0.2601  0.1588  0.2144
  517MOL0     C71241   8.575   6.291   1.659  1.6661  0.5505 -0.6024
  517MOL0     C71242   8.615   6.421   1.657 -1.1241  0.5023 -0.8579
  517MOL0     C71243   8.690   6.460   1.541  0.4583 -0.3172 -0.9268
  517MOL0     O71244   8.710   6.600   1.522  0.3609  0.4380 -0.3100
  517MOL0     C71245   8.784   6.654   1.413 -0.3321 -0.4634  0.2621
  517MOL0     C71246   8.673   6.698   1.314  0.0425  0.5135  0.2982
  517MOL0     C71247   8.729   6.797   1.214  0.5624  0.0695 -0.5660
  517MOL0     C71248   8.844   6.748   1.126 -0.4936  0.8374  0.3832
  517MOL0     C71249   8.863   6.845   0.999  0.5638 -0.1919 -1.2079
  517MOL0     C71250   8.874   6.988   1.039 -0.3097  0.0980  0.2691
  517MOL0     C71251   8.981   7.056   0.963 -0.0206  0.3668  0.1365
  517MOL0     C71252   9.122   7.037   1.019  0.8716 -0.0007  0.8064
  517MOL0    Cl71253   9.120   7.080   1.190  0.5624  0.2779  0.2321
  517MOL0     C71254   8.730   6.362   1.449 -0.1581  0.4797  0.8516
  517MOL0     C71255   8.684   6.225   1.458 -0.0768 -0.4515 -0.2476
  517MOL0     O71256   8.771   6.000   1.611  0.4433  0.4984  0.4997
  517MOL0     C71257   8.492   5.778   1.643 -0.2252  0.2654  0.2216
  517MOL0     C71258   8.465   5.644   1.676  0.7351 -0.5721  0.3837
  517MOL0     N71259   8.131   5.185   1.358 -0.3721  0.4567  1.0238
  517MOL0     N71260   8.037   5.115   1.376  1.1023 -0.5580 -0.4725
  517MOL0     C71261   7.401   4.269   1.507  0.0901  0.4187 -0.2514
  517MOL0     C71262   7.292   4.215   1.446  0.9926  0.9952 -0.6271
  517MOL0     C71263   6.931   3.913   1.429  0.3846 -0.0348  0.1199
  517MOL0     C71264   6.944   3.869   1.292 -0.2859  0.6176  0.1163
  517MOL0     C71265   6.842   3.799   1.226  0.2970 -0.7388 -0.0518
  517MOL0     C71266   6.729   3.754   1.298 -0.0546 -0.8566  0.7863
  517MOL0     O71267   6.622   3.689   1.251 -0.8036 -0.1523 -0.6886
  517MOL0     C71268   6.619   3.664   1.109 -0.9731  0.1087  0.8103
  517MOL0     C71269   6.498   3.566   1.075 -0.2478 -0.8449 -0.9670
  517MOL0     C71270   6.513   3.506   0.940  0.5919  0.2896  0.3482
  517MOL0     C71271   6.388   3.425   0.888 -0.0756 -1.1518 -0.7734
  517MOL0     C71272   6.365   3.305   0.970 -0.1790  0.1601  0.4339
  517MOL0     C71273   6.366   3.204   1.033 -0.2273 -0.0452 -1.2470
  517MOL0     C71274   6.721   3.789   1.434  0.8632 -0.7079  0.7233
  517MOL0     C71275   6.814   3.873   1.502  0.3288 -0.0089 -0.1067
  517MOL0     C71276   6.804   3.914   1.642 -0.0807 -0.7082  0.3712
  517MOL0     H71277   7.350   3.879   1.445  4.0228  0.1634 -2.0659
  517MOL0     H71278   7.542   3.961   1.562 -0.7189 -0.8497 -2.1328
  517MOL0     H71279   7.737   4.258   1.485 -1.1602  0.8144  0.3390
  517MOL0     H71280   7.748   4.103   1.564 -3.4271 -0.1618  0.7542
  517MOL0     H71281   7.801   4.236   1.771 -4.3003 -1.3158 -0.9668
  517MOL0     H71282   7.928   4.229   1.652 -0.9687 -1.4099  0.6355
  517MOL0     H71283   7.888   4.444   1.572  1.3755 -1.2160 -0.3237
  517MOL0     H71284   7.743   4.468   1.676  0.0556 -1.1519  2.0908
  517MOL0     H71285   7.900   4.449   1.875  1.5561 -1.6125  0.2671
  517MOL0     H71286   8.032   4.435   1.748 -0.6308 -0.8016  1.0065
  517MOL0     H71287   8.022   4.666   1.840  1.4649 -0.5122 -1.7543
  517MOL0     H71288   7.843   4.669   1.795 -0.6148  0.2490  1.8664
  517MOL0     H71289   8.071   4.631   1.605 -0.1933 -1.9986  1.6526
  517MOL0     H71290   7.901   4.670   1.562  1.7927  1.1682 -1.5389
  517MOL0     H71291   8.108   4.851   1.677 -0.5599 -2.0285  1.5881
  517MOL0     H71292   7.937   4.886   1.713  0.2755 -1.3640  0.7603
  517MOL0     H71293   8.019   4.837   1.433  0.4874  2.7152 -1.5467
  517MOL0     H71294   7.876   4.925   1.507 -0.9706 -0.9495 -2.0533
  517MOL0     H71295   8.267   4.993   1.565  2.1021  2.9661 -1.0160
  517MOL0     H71296   8.304   5.349   1.507  0.0337 -0.2760 -0.0030
  517MOL0     H71297   8.400   5.282   1.382  0.2294 -1.2014  0.4161
  517MOL0     H71298   8.461   5.095   1.549 -1.3595  0.6230 -3.3823
  517MOL0     H71299   8.548   5.254   1.548 -0.0375  0.6997  1.8498
  517MOL0     H71300   8.316   5.188   1.738 -0.0365  2.3484 -0.7684
  517MOL0     H71301   8.488   5.172   1.785  0.8893 -1.7059 -1.2414
  517MOL0     H71302   8.350   5.412   1.684 -2.1879 -1.4533  0.2538
  517MOL0     H71303   8.360   5.391   1.849 -0.3174 -0.3434  0.0726
  517MOL0     H71304   8.731   5.576   1.864 -0.5592  2.3668  2.0721
  517MOL0     H71305   8.921   5.828   1.798  0.3832 -2.5459  0.7400
  517MOL0     H71306   8.842   5.741   1.921  0.2619  0.0658 -0.1046
  517MOL0     H71307   8.798   5.911   1.906 -0.9217 -0.1250  0.6525
  517MOL0     H71308   8.514   6.261   1.744  1.8142  1.1794 -0.2661
  517MOL0     H71309   8.589   6.492   1.735  1.4828 -0.3710  0.9238
  517MOL0     H71310   8.847   6.737   1.445 -2.4029  1.8797 -1.3446
  517MOL0     H71311   8.848   6.581   1.362 -1.1085 -0.3529 -0.9111
  517MOL0     H71312   8.636   6.608   1.265 -0.5723  0.7345  0.3434
  517MOL0     H71313   8.585   6.741   1.364  1.2479  3.4453  0.1227
  517MOL0     H71314   8.763   6.876   1.281  2.8594 -1.7147  0.5108
  517MOL0     H71315   8.634   6.824   1.167  0.5950 -0.0194 -0.6828
  517MOL0     H71316   8.816   6.648   1.089  0.8851  0.6440 -0.2286
  517MOL0     H71317   8.934   6.733   1.186 -1.1581 -2.6786  0.7236
  517MOL0     H71318   8.959   6.817   0.955  1.5044  1.4484 -0.2915
  517MOL0     H71319   8.780   6.828   0.930 -2.2097  1.4370  1.4775
  517MOL0     H71320   8.891   7.004   1.145 -1.5175  1.7788  0.2522
  517MOL0     H71321   8.781   7.042   1.019 -0.1099  0.1616 -0.5408
  517MOL0     H71322   8.950   7.161   0.971  0.0536  0.2999  1.7668
  517MOL0     H71323   8.986   7.021   0.860  0.3508 -2.6408  1.0843
  517MOL0     H71324   9.191   7.096   0.958  1.5003 -1.4693  0.0494
  517MOL0     H71325   9.153   6.933   1.005 -1.0308 -0.5360  0.2681
  517MOL0     H71326   8.778   6.390   1.355  0.9408 -2.0944  0.5620
  517MOL0     H71327   8.712   6.151   1.383  3.3500  2.8128 -2.5307
  517MOL0     H71328   8.428   5.823   1.569  1.2433 -2.1145 -2.7055
  517MOL0     H71329   8.373   5.600   1.636  0.0976 -1.4341  2.6543
  517MOL0     H71330   7.405   4.375   1.531  2.2970  0.5614 -1.0215
  517MOL0     H71331   7.217   4.289   1.419  0.3865  1.7044  2.6224
  517MOL0     H71332   7.020   3.905   1.224 -1.2670  0.0253 -1.3445
  517MOL0     H71333   6.850   3.792   1.117  3.3238  3.1094 -0.2788
  517MOL0     H71334   6.604   3.761   1.062 -3.6779  0.3625  2.0371
  517MOL0     H71335   6.718   3.633   1.073 -0.9245  2.0746 -0.9152
  517MOL0     H71336   6.398   3.604   1.096  0.1581 -0.9430  1.4736
  517MOL0     H71337   6.497   3.486   1.149 -3.6288  0.3464  0.4498
  517MOL0     H71338   6.524   3.588   0.868 -0.5428 -0.1450 -0.3441
  517MOL0     H71339   6.593   3.432   0.935 -0.7483 -1.1316 -0.5581
  517MOL0     H71340   6.403   3.395   0.784 -0.2480  1.7774 -1.7285
  517MOL0     H71341   6.294   3.481   0.894  0.2725 -0.6457  0.2726
  517MOL0     H71342   6.363   3.126   1.106  3.5208 -0.1003 -0.9416
  517MOL0     H71343   6.639   3.749   1.494  1.6749 -3.1471  0.3052
  517MOL0     H71344   6.894   3.877   1.693  1.1496 -0.7060 -1.6873
  517MOL0     H71345   6.804   4.023   1.652 -0.5246 -0.4009 -2.3437
  517MOL0     H71346   6.715   3.882   1.697  2.2384  0.5670  5.4400
  518MOL0     O71347   6.641   9.659   6.858 -0.9595 -0.2295 -0.2065
  518MOL0     C71348   6.674   9.648   6.978 -0.3334  0.4353 -0.2842
  518MOL0     O71349   6.681   9.750   7.066 -0.4094 -0.6662 -0.4337
  518MOL0     C71350   6.663   9.879   7.034 -0.2947  0.7370  0.2919
  518MOL0     C71351   6.545   9.938   6.982 -0.2115  0.3053  0.0899
  518MOL0     C71352   6.546  10.071   6.939  0.2903 -0.4933  0.0039
  518MOL0     C71353   6.660  10.145   6.941 -0.3138 -0.3551  1.0099
  518MOL0     O71354   6.630  10.274   6.902 -0.5412 -0.5571  0.4924
  518MOL0     C71355   6.725  10.374   6.929 -0.6276  0.0216  0.8622
  518MOL0     C71356   6.659  10.509   6.917  0.0694 -0.4526 -0.1167
  518MOL0     C71357   6.606  10.545   6.773  0.2664 -0.4155 -0.1792
  518MOL0     C71358   6.711  10.546   6.664  0.8233  0.4109 -0.7915
  518MOL0     C71359   6.657  10.611   6.539  0.6686 -0.6114  0.1833
  518MOL0     C71360   6.692  10.523   6.415 -0.7079 -0.3357 -0.3096
  518MOL0     C71361   6.644  10.588   6.286  1.0580 -0.9140  0.7268
  518MOL0     C71362   6.659  10.493   6.174 -0.8941  0.6426  0.3485
  518MOL0     N71363   6.617  10.564   6.048 -0.3049 -0.4533 -0.5895
  518MOL0     C71364   6.500  10.628   6.025 -1.0013 -0.3621 -0.0379
  518MOL0     C71365   6.493  10.649   5.893 -0.6795  0.3009  0.1450
  518MOL0     C71366   6.390  10.738   5.823  0.9779  0.6995  0.0368
  518MOL0     C71367   6.392  10.723   5.669  0.0011  0.0593 -0.3180
  518MOL0     C71368   6.303  10.822   5.583  0.1346  1.4003 -0.7751
  518MOL0     C71369   6.361  10.960   5.611  0.3807  0.0782  0.1152
  518MOL0     O71370   6.312  11.053   5.509  0.0079  0.1436 -0.0341
  518MOL0     C71371   6.180  11.088   5.503  0.3983 -1.2480  0.7571
  518MOL0     C71372   6.133  11.151   5.387  0.2482 -0.4261 -0.2888
  518MOL0     C71373   6.009  11.205   5.379 -0.6608 -0.1726 -0.1488
  518MOL0     C71374   5.978  11.284   5.259 -0.5347 -0.1821 -0.3925
  518MOL0     C71375   5.919  11.196   5.490  0.3302 -0.4270  0.3024
  518MOL0     C71376   5.791  11.277   5.512  0.2060  0.5641  0.1037
  518MOL0     O71377   5.708  11.227   5.608  0.6772 -0.5258 -0.7417
  518MOL0     C71378   5.591  11.299   5.631  0.0911  0.0612  0.2124
  518MOL0     C71379   5.584  11.388   5.741  0.0127 -0.0008 -0.0910
  518MOL0     C71380   5.476  11.460   5.763 -0.7170  0.3375 -0.1307
  518MOL0     C71381   5.363  11.435   5.676 -0.5669 -0.7488 -0.2087
  518MOL0     O71382   5.250  11.510   5.692 -0.3839  0.0008 -0.9559
  518MOL0     C71383   5.179  11.495   5.814  0.1149 -0.0689  0.0823
  518MOL0     C71384   5.030  11.532   5.785  0.3451  0.2407  0.7226
  518MOL0     C71385   4.954  11.409   5.712  0.3385  0.4288  0.8615
  518MOL0     C71386   4.931  11.285   5.806 -0.1588  0.5835 -0.4858
  518MOL0     C71387   4.800  11.210   5.787  1.0652 -0.2577  0.1589
  518MOL0     C71388   4.672  11.297   5.833  0.7948  1.0593 -0.7165
  518MOL0     C71389   4.553  11.224   5.771  0.4134  0.1759 -0.1322
  518MOL0     C71390   4.415  11.287   5.811 -0.0425 -0.0980  0.5556
  518MOL0    Cl71391   4.381  11.407   5.679 -0.2331  0.2072  0.1364
  518MOL0     C71392   5.363  11.346   5.570 -0.0188 -0.4887 -0.7920
  518MOL0     C71393   5.484  11.277   5.541 -0.0511 -0.1630 -0.2897
  518MOL0     O71394   5.769  11.372   5.441  0.7443  0.2841 -0.0656
  518MOL0     C71395   5.967  11.126   5.602  0.2195  0.1260 -0.2869
  518MOL0     C71396   6.093  11.071   5.607 -0.0797 -0.6508 -0.4225
  518MOL0     N71397   6.605  10.580   5.842  0.2537 -0.7340  0.9511
  518MOL0     N71398   6.670  10.523   5.934 -0.0193 -0.5290 -0.2155
  518MOL0     C71399   6.780  10.094   6.989 -0.4476 -0.8801  0.4202
  518MOL0     C71400   6.781   9.961   7.038  0.6966  0.2722 -0.1611
  518MOL0     C71401   6.690   9.507   7.034 -0.5998 -0.4549  0.2266
  518MOL0     C71402   6.668   9.488   7.167  0.1155 -0.1364 -0.9316
  518MOL0     C71403   6.685   9.359   7.225  1.0257 -0.3027  0.0146
  518MOL0     C71404   6.727   9.248   7.147 -0.3211 -0.2598  0.6237
  518MOL0     O71405   6.752   9.131   7.194  0.8831  0.0750 -0.7035
  518MOL0     C71406   6.635   9.033   7.198  1.0620  0.2027 -0.1197
  518MOL0     C71407   6.543   9.040   7.313  0.9152  0.8478 -1.1798
  518MOL0     C71408   6.399   8.997   7.279 -0.8023  0.2646 -0.4327
  518MOL0     C71409   6.321   8.984   7.414 -0.1125  0.0987  0.6653
  518MOL0     C71410   6.178   9.002   7.386 -0.3218 -0.1461  0.1626
  518MOL0     C71411   6.067   9.041   7.353  0.2288 -0.2734 -0.5480
  518MOL0     C71412   6.743   9.272   7.011  0.1654  0.3266 -0.8489
  518MOL0     C71413   6.721   9.397   6.951  1.1834  0.6729  0.2370
  518MOL0     C71414   6.732   9.397   6.804 -0.1921 -0.2408 -0.3259
  518MOL0     H71415   6.456   9.878   6.964 -0.7426  1.3222 -0.8140
  518MOL0     H71416   6.457  10.118   6.900 -0.2735 -2.8360 -1.7520
  518MOL0     H71417   6.803  10.353   6.855 -3.7517 -0.9136 -2.4821
  518MOL0     H71418   6.773  10.361   7.026  1.8287  4.1587  0.4498
  518MOL0     H71419   6.583  10.520   6.995  2.0261  2.4949  1.5971
  518MOL0     H71420   6.732  10.586   6.946 -1.1944  0.2125  1.4323
  518MOL0     H71421   6.532  10.472   6.738 -1.1586 -0.6426  2.9675
  518MOL0     H71422   6.558  10.643   6.779 -2.0293 -1.5420  1.0697
  518MOL0     H71423   6.805  10.595   6.692  2.5980 -2.4400 -1.4285
  518MOL0     H71424   6.746  10.445   6.645  0.4641 -0.5398  2.7804
  518MOL0     H71425   6.692  10.713   6.520  1.3613 -1.0996 -1.3501
  518MOL0     H71426   6.548  10.620   6.540  0.7671  0.7473  1.7867
  518MOL0     H71427   6.801  10.516   6.406 -0.3608  0.2748  2.5885
  518MOL0     H71428   6.650  10.422   6.419 -0.1948 -0.5065  1.2183
  518MOL0     H71429   6.701  10.681   6.277  2.1506 -1.6073  0.2799
  518MOL0     H71430   6.537  10.610   6.296  1.1012  0.6745 -1.6433
  518MOL0     H71431   6.761  10.455   6.171  0.2452  2.7477  4.3062
  518MOL0     H71432   6.599  10.403   6.195  1.2324 -1.0084 -0.3545
  518MOL0     H71433   6.423  10.654   6.097  0.8164 -0.0222  1.8365
  518MOL0     H71434   6.408  10.841   5.855  0.0620  0.0520  3.0523
  518MOL0     H71435   6.287  10.720   5.855  1.0400 -2.0579 -1.0377
  518MOL0     H71436   6.495  10.752   5.646  0.3660 -0.9063  0.0662
  518MOL0     H71437   6.390  10.619   5.636 -0.4164 -0.3478  0.9504
  518MOL0     H71438   6.304  10.800   5.475 -0.1675  1.3683 -0.7736
  518MOL0     H71439   6.195  10.817   5.601 -0.8781  0.2358 -5.6738
  518MOL0     H71440   6.335  10.995   5.711  1.3697  1.4304 -0.0753
  518MOL0     H71441   6.470  10.968   5.607  0.2142  3.3467 -0.8105
  518MOL0     H71442   6.196  11.161   5.299 -0.1165  1.0293 -0.4189
  518MOL0     H71443   6.056  11.273   5.183 -0.8046 -1.0151 -0.5610
  518MOL0     H71444   5.956  11.390   5.279 -0.3421  0.2695 -2.4015
  518MOL0     H71445   5.886  11.250   5.212 -2.3893  1.5707  1.7155
  518MOL0     H71446   5.673  11.397   5.803  1.4624 -3.2922 -1.4453
  518MOL0     H71447   5.492  11.535   5.839  0.2644  0.3432 -0.3394
  518MOL0     H71448   5.187  11.397   5.862 -0.4204  0.1866  0.7116
  518MOL0     H71449   5.211  11.567   5.890  2.9509 -1.6775  0.5442
  518MOL0     H71450   4.976  11.549   5.878  0.1457 -2.1114  1.1063
  518MOL0     H71451   5.027  11.625   5.728  3.6122 -0.3166 -0.5893
  518MOL0     H71452   5.014  11.384   5.625 -0.6623  0.6072  0.1048
  518MOL0     H71453   4.859  11.446   5.672  0.2725  0.1348  0.7491
  518MOL0     H71454   4.941  11.313   5.911  0.5288 -2.2099  0.2644
  518MOL0     H71455   5.002  11.207   5.779 -0.7974 -0.6724  1.2598
  518MOL0     H71456   4.797  11.174   5.684  2.8010 -1.2051  0.3951
  518MOL0     H71457   4.778  11.127   5.854 -3.1499  0.1905 -0.4213
  518MOL0     H71458   4.684  11.402   5.806 -0.6240  2.3678  3.0252
  518MOL0     H71459   4.664  11.296   5.942  2.1665  0.2308 -0.5937
  518MOL0     H71460   4.545  11.125   5.817 -0.0007  1.1288  1.9477
  518MOL0     H71461   4.556  11.221   5.661  3.1140 -1.6280 -0.1195
  518MOL0     H71462   4.424  11.344   5.905 -1.9036  2.3941 -0.6486
  518MOL0     H71463   4.326  11.224   5.823 -2.0600  2.5337  0.4642
  518MOL0     H71464   5.275  11.322   5.511  0.3995 -2.3639 -0.7073
  518MOL0     H71465   5.478  11.201   5.464 -0.8917 -1.2172  0.7866
  518MOL0     H71466   5.910  11.116   5.694 -1.0733  1.5623 -0.8806
  518MOL0     H71467   6.132  11.039   5.703 -1.4518 -1.9636 -0.2576
  518MOL0     H71468   6.876  10.145   6.987 -0.9577  0.3960  3.0397
  518MOL0     H71469   6.872   9.924   7.085  0.4866  0.6607  0.5673
  518MOL0     H71470   6.644   9.564   7.241  0.4500 -2.4224  1.7101
  518MOL0     H71471   6.678   9.339   7.332  1.2223  0.6685  0.2159
  518MOL0     H71472   6.580   9.048   7.105  1.3891 -1.7363 -0.6647
  518MOL0     H71473   6.680   8.935   7.212  1.6023  0.3521 -0.7792
  518MOL0     H71474   6.542   9.145   7.346  2.1873  1.7787 -3.8069
  518MOL0     H71475   6.573   8.965   7.386 -2.1486 -2.7786 -3.2739
  518MOL0     H71476   6.356   9.061   7.201  1.1186  0.3141 -1.5025
  518MOL0     H71477   6.403   8.901   7.226 -1.7015  0.4931 -0.9421
  518MOL0     H71478   6.358   9.061   7.482  0.8711 -0.5382  0.8604
  518MOL0     H71479   6.349   8.891   7.463 -0.7811 -1.1102 -1.1581
  518MOL0     H71480   5.973   9.083   7.323  0.4856  3.7864  3.3651
  518MOL0     H71481   6.783   9.181   6.969  0.6586  1.2920 -2.5768
  518MOL0     H71482   6.799   9.476   6.769 -0.4687  0.3042  0.3437
  518MOL0     H71483   6.779   9.312   6.754  0.5261  0.3508 -0.6790
  518MOL0     H71484   6.642   9.425   6.748  1.2845 -0.1513 -2.8135
  519MOL0     O71485   5.397   7.324   3.588 -0.2103  0.3733 -0.1752
  519MOL0     C71486   5.498   7.256   3.607 -1.0741  0.0971  0.3111
  519MOL0     O71487   5.613   7.305   3.672 -0.5288  0.1493  0.1415
  519MOL0     C71488   5.624   7.441   3.689 -0.7934 -0.0714  0.2580
  519MOL0     C71489   5.712   7.518   3.605  0.8956 -0.7657 -0.0541
  519MOL0     C71490   5.713   7.655   3.629 -0.1404  0.1305 -0.0449
  519MOL0     C71491   5.642   7.711   3.733 -0.8083  0.7219 -1.1084
  519MOL0     O71492   5.616   7.845   3.767  0.0938  0.2312  0.5438
  519MOL0     C71493   5.692   7.947   3.700  0.4006  0.2919  0.0426
  519MOL0     C71494   5.658   8.077   3.778 -0.8343  0.2199  0.2936
  519MOL0     C71495   5.515   8.095   3.817 -0.1198  0.6271 -0.0939
  519MOL0     C71496   5.479   8.051   3.955  0.5650 -0.9835 -0.4924
  519MOL0     C71497   5.329   8.061   3.988  0.1819 -0.3409  0.3306
  519MOL0     C71498   5.249   7.922   3.982  0.5666 -0.4255 -0.7545
  519MOL0     C71499   5.208   7.880   3.841 -0.5748  0.5386  1.0415
  519MOL0     C71500   5.134   7.742   3.842  0.1921 -0.3736 -0.0777
  519MOL0     N71501   5.081   7.709   3.708 -0.5965 -0.2560 -0.4722
  519MOL0     C71502   5.162   7.690   3.607  0.2200 -0.6211 -0.6888
  519MOL0     C71503   5.085   7.655   3.504 -0.8351 -1.4597  0.2720
  519MOL0     C71504   5.131   7.614   3.372 -0.0679 -0.0971 -0.0297
  519MOL0     C71505   5.131   7.741   3.277 -0.1973  0.3163 -0.4521
  519MOL0     C71506   5.181   7.690   3.135  0.6010 -0.2683  0.7097
  519MOL0     C71507   5.223   7.807   3.049  0.5333  0.1746  0.6648
  519MOL0     O71508   5.127   7.912   3.040  1.0333 -0.5067 -0.2696
  519MOL0     C71509   5.102   7.973   2.916  0.6372 -0.8207 -0.4508
  519MOL0     C71510   5.026   7.909   2.812 -0.7215 -0.4435 -0.1181
  519MOL0     C71511   4.991   7.980   2.698 -0.0126  0.2513  0.4436
  519MOL0     C71512   4.906   7.900   2.601  0.0500  0.0900 -0.4838
  519MOL0     C71513   5.032   8.112   2.676 -0.3262 -0.0053  0.1127
  519MOL0     C71514   4.989   8.183   2.551  0.6425 -0.1788 -0.0633
  519MOL0     O71515   4.857   8.156   2.502 -0.7031  0.2314  0.0073
  519MOL0     C71516   4.809   8.203   2.384 -0.7576 -0.7348 -0.0442
  519MOL0     C71517   4.704   8.142   2.313 -0.4454 -0.2898 -0.8212
  519MOL0     C71518   4.650   8.192   2.200 -0.4097  0.3831  0.7253
  519MOL0     C71519   4.685   8.324   2.158  0.6142  0.2988  0.1923
  519MOL0     O71520   4.630   8.367   2.044 -0.9341 -1.3998 -0.0854
  519MOL0     C71521   4.629   8.510   2.023 -0.5282  0.5745  0.4990
  519MOL0     C71522   4.496   8.543   1.948 -0.8519 -0.0611  0.7826
  519MOL0     C71523   4.508   8.693   1.899 -0.1164  0.5629  0.0268
  519MOL0     C71524   4.388   8.755   1.830 -0.4114 -0.0856  0.0930
  519MOL0     C71525   4.381   8.902   1.818  0.1548 -0.3182 -0.4048
  519MOL0     C71526   4.243   8.950   1.777 -0.4900 -0.0379 -0.1697
  519MOL0     C71527   4.219   9.102   1.796 -0.3266  0.3539 -0.5484
  519MOL0     C71528   4.186   9.169   1.665 -0.8280 -0.3712 -0.7700
  519MOL0    Cl71529   4.098   9.328   1.689 -0.0151  0.0587 -0.4747
  519MOL0     C71530   4.785   8.395   2.228 -0.3932  0.1373 -0.2316
  519MOL0     C71531   4.840   8.340   2.340  0.2778  0.0367 -0.4490
  519MOL0     O71532   5.076   8.253   2.501 -0.1611  0.0358 -0.0163
  519MOL0     C71533   5.111   8.177   2.770  0.5630 -0.6222  0.8009
  519MOL0     C71534   5.138   8.109   2.895 -0.4830  0.2604  0.7239
  519MOL0     N71535   4.960   7.655   3.546  0.0309  0.3460 -0.0444
  519MOL0     N71536   4.946   7.697   3.663  0.2244  0.5921 -0.6068
  519MOL0     C71537   5.562   7.631   3.815  0.1630  0.2328  0.2293
  519MOL0     C71538   5.550   7.495   3.793 -0.1356  0.3929 -0.4382
  519MOL0     C71539   5.492   7.119   3.565  0.1374  0.2980  0.6010
  519MOL0     C71540   5.568   7.022   3.636 -0.0171 -0.2714  0.2741
  519MOL0     C71541   5.563   6.887   3.605 -0.1100  0.9710 -0.2783
  519MOL0     C71542   5.476   6.842   3.500 -0.7213  0.4021 -0.6985
  519MOL0     O71543   5.485   6.710   3.458  0.2787  0.6481 -0.0933
  519MOL0     C71544   5.575   6.598   3.513  0.1648 -1.4645  0.8914
  519MOL0     C71545   5.550   6.462   3.450  0.2483  0.4873 -0.3271
  519MOL0     C71546   5.631   6.336   3.510 -0.2864 -0.3317  0.0833
  519MOL0     C71547   5.601   6.312   3.665 -0.1950  0.7972 -0.0785
  519MOL0     C71548   5.471   6.245   3.688 -0.7031  1.4586  0.2418
  519MOL0     C71549   5.358   6.214   3.677 -0.0171 -0.1415  0.4228
  519MOL0     C71550   5.397   6.938   3.441 -0.3024 -0.1669  0.5486
  519MOL0     C71551   5.402   7.070   3.470 -0.4259  0.0007  0.4727
  519MOL0     C71552   5.294   7.150   3.397  0.4578 -0.7210  0.1117
  519MOL0     H71553   5.759   7.468   3.520 -0.1906 -1.0951 -0.4836
  519MOL0     H71554   5.781   7.715   3.570  5.0059  0.3954  5.2378
  519MOL0     H71555   5.655   7.968   3.599 -1.1190  0.5146  0.6153
  519MOL0     H71556   5.800   7.931   3.698  0.5982  0.7244  2.9300
  519MOL0     H71557   5.724   8.092   3.864 -0.0375  1.5792 -0.5199
  519MOL0     H71558   5.683   8.146   3.697 -0.1691 -2.6875 -2.1492
  519MOL0     H71559   5.500   8.200   3.795 -0.7192  0.5048 -0.2735
  519MOL0     H71560   5.449   8.047   3.745  0.1819  0.0981 -0.0334
  519MOL0     H71561   5.520   7.951   3.972  0.6660 -0.6606  1.4161
  519MOL0     H71562   5.520   8.115   4.034 -1.7400  0.8019 -0.6435
  519MOL0     H71563   5.272   8.139   3.936 -2.4346 -2.5193 -0.3251
  519MOL0     H71564   5.327   8.089   4.094 -1.2602  0.9430  0.0056
  519MOL0     H71565   5.303   7.845   4.036  0.4352 -1.1147 -1.5844
  519MOL0     H71566   5.163   7.923   4.050  1.1098  0.0250 -0.0676
  519MOL0     H71567   5.291   7.883   3.769 -1.4617  0.2672 -0.0122
  519MOL0     H71568   5.134   7.947   3.797  0.3977  1.6932  1.0969
  519MOL0     H71569   5.201   7.657   3.855 -1.0682 -1.8521 -2.5201
  519MOL0     H71570   5.060   7.739   3.923  1.1804  1.0166  0.9064
  519MOL0     H71571   5.270   7.699   3.594  0.3172 -1.2050 -0.3346
  519MOL0     H71572   5.063   7.542   3.327  2.0359 -0.2924 -3.1655
  519MOL0     H71573   5.229   7.571   3.394 -0.5047  0.2506  3.2044
  519MOL0     H71574   5.027   7.773   3.273 -1.1013 -2.3134 -0.0274
  519MOL0     H71575   5.187   7.830   3.308 -4.5380  2.2307  2.9819
  519MOL0     H71576   5.262   7.616   3.138  0.0168 -0.9267  0.4929
  519MOL0     H71577   5.107   7.643   3.070  2.6199 -0.3457 -1.6796
  519MOL0     H71578   5.306   7.852   3.105  0.2188  0.2060  1.1054
  519MOL0     H71579   5.257   7.771   2.951 -1.5198 -3.3032  1.0967
  519MOL0     H71580   5.011   7.804   2.833 -0.6526 -0.6735 -1.1552
  519MOL0     H71581   4.902   7.791   2.609  4.2719 -0.2593 -0.9518
  519MOL0     H71582   4.929   7.915   2.496 -2.9624 -0.6750 -1.3683
  519MOL0     H71583   4.807   7.943   2.619  0.5097  0.7217  0.6933
  519MOL0     H71584   4.665   8.043   2.338  0.3088 -0.2980  0.4332
  519MOL0     H71585   4.579   8.145   2.133 -0.8653  1.2481  0.5734
  519MOL0     H71586   4.628   8.566   2.117  0.9600 -0.9862  1.5197
  519MOL0     H71587   4.717   8.535   1.963  1.6897 -2.5324  2.1815
  519MOL0     H71588   4.471   8.484   1.859  0.0101  0.5682  0.1034
  519MOL0     H71589   4.410   8.533   2.014 -2.2022  1.7644 -0.5946
  519MOL0     H71590   4.601   8.693   1.841 -0.2344 -1.3060 -0.2257
  519MOL0     H71591   4.518   8.747   1.993 -2.3360  0.5843  0.3050
  519MOL0     H71592   4.296   8.723   1.880  0.9571 -1.2398  2.0426
  519MOL0     H71593   4.389   8.715   1.729  0.5290  0.6973 -0.2296
  519MOL0     H71594   4.404   8.945   1.916 -0.9507 -0.0538 -0.2566
  519MOL0     H71595   4.453   8.938   1.743 -0.5413 -1.1159 -1.4795
  519MOL0     H71596   4.165   8.899   1.833 -0.2726  0.8828  1.0039
  519MOL0     H71597   4.231   8.913   1.674  1.7407 -0.7074 -0.2407
  519MOL0     H71598   4.311   9.143   1.839  0.8063 -3.5490  1.2423
  519MOL0     H71599   4.136   9.109   1.867  0.1033 -0.5695  0.0748
  519MOL0     H71600   4.127   9.099   1.605  1.3409 -2.1510 -0.9501
  519MOL0     H71601   4.275   9.194   1.606 -2.6367  1.8597 -2.7782
  519MOL0     H71602   4.826   8.483   2.179  1.2236 -1.0526 -1.0919
  519MOL0     H71603   4.908   8.401   2.399 -1.6284  0.5310  1.3409
  519MOL0     H71604   5.148   8.278   2.761 -0.6911 -0.2395 -0.5426
  519MOL0     H71605   5.189   8.161   2.975 -0.5064  3.0915 -0.9637
  519MOL0     H71606   5.501   7.667   3.897  0.3348  0.5941  0.2018
  519MOL0     H71607   5.486   7.423   3.843  0.9970  0.0259  0.5318
  519MOL0     H71608   5.636   7.051   3.715  3.2195  1.2182 -2.7945
  519MOL0     H71609   5.611   6.820   3.675  0.1192  1.7462  0.3195
  519MOL0     H71610   5.679   6.632   3.501 -0.3211 -0.3342 -0.3227
  519MOL0     H71611   5.557   6.587   3.621  1.0423  0.6918  1.3149
  519MOL0     H71612   5.568   6.465   3.342  0.4436 -0.5953 -0.3425
  519MOL0     H71613   5.444   6.436   3.457  0.2120  0.8812  0.7368
  519MOL0     H71614   5.621   6.252   3.441  1.1562  0.2638 -0.8940
  519MOL0     H71615   5.735   6.368   3.504 -0.2880 -0.1557  0.9058
  519MOL0     H71616   5.602   6.408   3.718 -0.2093  0.2328  0.9549
  519MOL0     H71617   5.678   6.249   3.711 -0.5973  1.3912  1.4733
  519MOL0     H71618   5.253   6.197   3.664 -0.2491  1.3055  0.2119
  519MOL0     H71619   5.320   6.906   3.372  1.3152  2.0807 -2.5510
  519MOL0     H71620   5.223   7.192   3.469  0.5632  1.1333 -0.8113
  519MOL0     H71621   5.334   7.237   3.344  0.1628  1.3294  2.9949
  519MOL0     H71622   5.229   7.092   3.331  1.4388 -2.1245  0.3193
  520MOL0     O71623   1.178  10.303   3.473  0.5526 -0.7476 -0.4653
  520MOL0     C71624   1.078  10.233   3.463 -0.3004 -0.8824  0.1056
  520MOL0     O71625   0.991  10.211   3.561  0.7140  0.1050  0.3617
  520MOL0     C71626   1.002  10.273   3.680  0.0014 -0.2161 -0.5390
  520MOL0     C71627   1.014  10.196   3.792 -0.0635 -0.5639 -0.7797
  520MOL0     C71628   1.034  10.256   3.918 -0.6784 -0.6263 -0.1132
  520MOL0     C71629   1.021  10.394   3.925 -0.6885  0.1203 -0.1231
  520MOL0     O71630   1.035  10.451   4.048  0.3737 -1.0253 -1.0438
  520MOL0     C71631   1.170  10.506   4.070 -0.2072  0.0417  0.1430
  520MOL0     C71632   1.207  10.526   4.211  0.0243  0.5143 -0.8066
  520MOL0     C71633   1.193  10.401   4.301 -0.1380  0.4968  0.1291
  520MOL0     C71634   1.054  10.382   4.358 -0.1238  0.5984  0.6149
  520MOL0     C71635   1.024  10.234   4.412 -0.7939  1.2239  0.8227
  520MOL0     C71636   0.883  10.221   4.460  0.0296 -0.0059  0.0004
  520MOL0     C71637   0.872  10.085   4.536 -0.5363 -0.2905  0.3850
  520MOL0     C71638   0.875   9.956   4.446 -0.3724 -0.3859 -0.4731
  520MOL0     N71639   0.851   9.827   4.524 -0.0968  0.8130 -0.0024
  520MOL0     C71640   0.736   9.755   4.528 -0.0837  0.0035  0.9876
  520MOL0     C71641   0.763   9.648   4.595 -0.6002  0.6311  0.6896
  520MOL0     C71642   0.668   9.533   4.630  0.0712 -0.7702  0.2002
  520MOL0     C71643   0.627   9.463   4.510 -0.3498 -0.4753  0.2004
  520MOL0     C71644   0.747   9.403   4.417 -0.1532  0.1204 -0.7621
  520MOL0     C71645   0.846   9.316   4.511 -1.1620  0.5362  0.7187
  520MOL0     O71646   0.779   9.205   4.557  0.3210  1.1193 -0.2315
  520MOL0     C71647   0.851   9.097   4.601  0.6766 -0.4696  0.5598
  520MOL0     C71648   0.990   9.085   4.586 -0.8464 -0.0560  0.1320
  520MOL0     C71649   1.059   8.970   4.616 -0.4059  0.5812 -0.3105
  520MOL0     C71650   1.209   8.963   4.601 -0.0563  0.3560  0.1199
  520MOL0     C71651   0.984   8.866   4.664  0.2314  0.3913  0.2665
  520MOL0     C71652   1.045   8.745   4.720  0.1142  0.0208 -0.1000
  520MOL0     O71653   1.152   8.754   4.810 -0.5866 -0.8561  0.4705
  520MOL0     C71654   1.188   8.654   4.896  0.7565 -0.0977  0.1300
  520MOL0     C71655   1.117   8.536   4.924 -0.2605 -0.0546  0.4609
  520MOL0     C71656   1.190   8.442   5.008  0.4019  0.9033 -0.3829
  520MOL0     C71657   1.319   8.467   5.070 -0.0620  0.5767 -0.0664
  520MOL0     O71658   1.400   8.375   5.145  0.1530  0.3361  0.2299
  520MOL0     C71659   1.344   8.256   5.173 -0.1178  0.5679  0.3670
  520MOL0     C71660   1.439   8.174   5.266  0.0163 -0.9430 -0.0337
  520MOL0     C71661   1.466   8.238   5.396 -0.5226 -0.6326  1.1591
  520MOL0     C71662   1.336   8.251   5.477 -0.0371 -0.5202 -0.0264
  520MOL0     C71663   1.369   8.333   5.600  0.1184 -0.4959 -0.5951
  520MOL0     C71664   1.271   8.308   5.724 -0.2123  0.1763  0.1986
  520MOL0     C71665   1.118   8.325   5.700 -0.8341  0.8322 -0.3159
  520MOL0     C71666   1.041   8.378   5.823  0.3228 -0.8599  0.8145
  520MOL0    Cl71667   0.865   8.418   5.786 -0.2106  0.0331 -0.1145
  520MOL0     C71668   1.381   8.581   5.029  0.2525  0.0504 -0.2785
  520MOL0     C71669   1.308   8.675   4.962 -0.6477 -1.2492 -0.1397
  520MOL0     O71670   0.986   8.649   4.697 -0.2564  0.7082 -0.4040
  520MOL0     C71671   0.850   8.869   4.684 -0.4109 -0.9464  0.2605
  520MOL0     C71672   0.779   8.983   4.645  0.3852  0.1283  0.5402
  520MOL0     N71673   0.896   9.655   4.641 -0.1366 -0.3422 -0.4775
  520MOL0     N71674   0.943   9.766   4.603 -0.7294  0.7828  0.0188
  520MOL0     C71675   0.996  10.479   3.814 -0.3187 -0.5577 -0.0448
  520MOL0     C71676   0.978  10.413   3.697 -0.6597 -0.7510 -0.1517
  520MOL0     C71677   1.040  10.183   3.336  0.1361  0.0860  0.3193
  520MOL0     C71678   0.897  10.191   3.305  0.1950  0.5774  0.9668
  520MOL0     C71679   0.849  10.155   3.177 -0.2447  0.5675  0.0579
  520MOL0     C71680   0.944  10.115   3.081 -0.5056 -0.0262  0.4818
  520MOL0     O71681   0.923  10.072   2.953  0.9772 -0.1627  0.3154
  520MOL0     C71682   0.793  10.120   2.892 -0.4775 -0.2315 -0.0321
  520MOL0     C71683   0.817  10.147   2.740 -0.0615 -0.7395 -0.3324
  520MOL0     C71684   0.697  10.128   2.648 -1.0753 -0.8844  0.1983
  520MOL0     C71685   0.737  10.166   2.506  0.6608 -0.3879  0.6148
  520MOL0     C71686   0.616  10.169   2.427  0.8360  0.0041 -0.1847
  520MOL0     C71687   0.516  10.165   2.363  0.5268 -0.0794  0.4845
  520MOL0     C71688   1.075  10.105   3.115 -0.5900  0.4743 -0.2901
  520MOL0     C71689   1.126  10.133   3.243  0.3554 -0.3502  0.4572
  520MOL0     C71690   1.275  10.106   3.273 -0.3670  0.4630  0.2647
  520MOL0     H71691   1.013  10.088   3.804  3.1436 -0.4928  1.2622
  520MOL0     H71692   1.029  10.185   4.000 -4.9818 -1.4449 -0.8371
  520MOL0     H71693   1.177  10.603   4.020  2.0475 -0.5045 -0.6785
  520MOL0     H71694   1.243  10.436   4.031  0.1484  0.1974  0.5261
  520MOL0     H71695   1.309  10.566   4.209  0.2071  0.0608 -2.7829
  520MOL0     H71696   1.138  10.599   4.255 -0.4475 -0.2981 -0.1846
  520MOL0     H71697   1.225  10.314   4.242  0.1592  0.2320  0.6765
  520MOL0     H71698   1.270  10.395   4.379  2.0925 -0.8542 -2.0170
  520MOL0     H71699   1.017  10.447   4.438 -2.0362  0.5653 -0.2033
  520MOL0     H71700   0.983  10.400   4.277  1.7495  2.2656 -0.7464
  520MOL0     H71701   1.092  10.204   4.491 -0.7996 -0.6550  0.1536
  520MOL0     H71702   1.032  10.164   4.329 -0.1148  3.5713 -1.2190
  520MOL0     H71703   0.852  10.304   4.524 -1.8778 -0.1728 -0.6375
  520MOL0     H71704   0.817  10.221   4.373 -0.1356  0.0631  0.1262
  520MOL0     H71705   0.779  10.079   4.594 -1.0079 -0.3762 -0.3631
  520MOL0     H71706   0.950  10.086   4.613  3.2395 -1.9738 -3.0455
  520MOL0     H71707   0.799   9.976   4.370 -1.7256  1.9364  1.3392
  520MOL0     H71708   0.977   9.948   4.407 -0.3441 -1.8094 -0.1530
  520MOL0     H71709   0.636   9.773   4.490  0.4702  1.5572  0.1851
  520MOL0     H71710   0.579   9.566   4.685  0.1715 -0.5634  0.2415
  520MOL0     H71711   0.714   9.456   4.692 -0.1629 -0.1853  1.1325
  520MOL0     H71712   0.554   9.389   4.545 -3.5363  0.9608 -2.8474
  520MOL0     H71713   0.558   9.521   4.448 -3.1357 -0.3989  3.1139
  520MOL0     H71714   0.704   9.342   4.337 -1.2663 -0.5328  0.3066
  520MOL0     H71715   0.807   9.482   4.370  1.2370  0.3327  1.2250
  520MOL0     H71716   0.924   9.283   4.442 -0.7985 -4.1571  2.9910
  520MOL0     H71717   0.887   9.362   4.601 -0.1374 -0.9948  1.0781
  520MOL0     H71718   1.051   9.173   4.574 -0.0004 -0.6707 -0.1805
  520MOL0     H71719   1.219   9.033   4.517 -4.0929  0.7678 -0.1850
  520MOL0     H71720   1.255   8.869   4.571 -1.1484  1.0472 -4.5170
  520MOL0     H71721   1.266   8.996   4.688 -0.4790  0.8129  0.2307
  520MOL0     H71722   1.022   8.512   4.876 -1.3350  1.5020  1.6842
  520MOL0     H71723   1.142   8.347   5.030 -2.0694  2.0615 -0.4693
  520MOL0     H71724   1.241   8.259   5.208 -0.9202  1.0186 -1.8576
  520MOL0     H71725   1.335   8.200   5.080 -2.1306  2.1586 -0.4768
  520MOL0     H71726   1.390   8.076   5.276 -1.1185 -0.2570  1.6399
  520MOL0     H71727   1.529   8.155   5.207 -0.1098  3.8095 -2.2200
  520MOL0     H71728   1.513   8.337   5.390 -1.2262 -0.3505  0.2064
  520MOL0     H71729   1.534   8.177   5.455  2.7035 -0.1305 -1.7167
  520MOL0     H71730   1.297   8.153   5.507 -1.9513 -0.6268 -2.4797
  520MOL0     H71731   1.251   8.296   5.425  2.5048  4.0930 -0.7539
  520MOL0     H71732   1.474   8.320   5.631  0.5973  2.6904 -0.5677
  520MOL0     H71733   1.370   8.438   5.569  1.6705 -0.1223  0.5344
  520MOL0     H71734   1.311   8.369   5.806 -0.2517  2.0897 -1.1308
  520MOL0     H71735   1.291   8.202   5.740  1.6361  0.2853 -1.1267
  520MOL0     H71736   1.067   8.232   5.674 -0.8422  0.4844  0.9187
  520MOL0     H71737   1.097   8.398   5.621 -1.9545  0.5216 -0.3195
  520MOL0     H71738   1.089   8.470   5.854 -2.1097  1.0105 -0.5656
  520MOL0     H71739   1.037   8.302   5.902  0.3676 -0.1576  1.5012
  520MOL0     H71740   1.485   8.596   5.056  0.4375 -1.5822 -0.0020
  520MOL0     H71741   1.372   8.761   4.941 -3.5406  1.2878  0.7779
  520MOL0     H71742   0.787   8.790   4.723  1.4225 -1.3844  2.5217
  520MOL0     H71743   0.671   8.999   4.650  0.0191 -2.0462  0.6061
  520MOL0     H71744   0.977  10.585   3.830 -3.7525 -1.0220 -0.4453
  520MOL0     H71745   0.974  10.488   3.618  0.7261  1.3117  1.5986
  520MOL0     H71746   0.835  10.231   3.384  0.5308  1.4212  0.8067
  520MOL0     H71747   0.745  10.166   3.149 -0.3301 -1.7108 -0.7700
  520MOL0     H71748   0.705  10.056   2.910  0.2978 -1.7906 -1.4759
  520MOL0     H71749   0.771  10.218   2.935  1.8326 -0.3279  1.5240
  520MOL0     H71750   0.898  10.079   2.712  1.4400  0.1094  1.7254
  520MOL0     H71751   0.861  10.246   2.721  0.3746 -1.4763 -3.7791
  520MOL0     H71752   0.659  10.026   2.639 -1.0165 -0.7858 -1.7754
  520MOL0     H71753   0.615  10.192   2.679 -1.4056  0.1594 -2.5292
  520MOL0     H71754   0.796  10.083   2.467 -1.0654 -0.6145 -1.7540
  520MOL0     H71755   0.790  10.262   2.503 -0.5133  0.2766  0.4993
  520MOL0     H71756   0.427  10.173   2.305  1.3210 -0.0298 -0.7783
  520MOL0     H71757   1.133  10.062   3.034 -1.2584  1.0109 -1.0687
  520MOL0     H71758   1.321  10.205   3.274 -2.2015  1.3662  0.0123
  520MOL0     H71759   1.291  10.054   3.368  1.9484 -0.4790 -0.5767
  520MOL0     H71760   1.313  10.046   3.190 -0.4922  0.6414  0.0784
  521MOL0     O71761   8.518  11.286   0.565 -0.6725 -0.0025  0.1178
  521MOL0     C71762   8.584  11.308   0.460  0.8865 -0.8283 -0.4544
  521MOL0     O71763   8.527  11.363   0.350 -0.5973  1.1204  0.1316
  521MOL0     C71764   8.398  11.385   0.328  0.4982  0.1857  0.2011
  521MOL0     C71765   8.383  11.494   0.245 -0.0935 -0.2733  0.2379
  521MOL0     C71766   8.249  11.554   0.227  0.0617  0.5772 -0.1549
  521MOL0     C71767   8.144  11.522   0.314  0.5611 -0.3526  0.1766
  521MOL0     O71768   8.025  11.579   0.298  0.8262 -0.4059 -0.2144
  521MOL0     C71769   8.030  11.708   0.360  0.4240  0.5156  0.9523
  521MOL0     C71770   7.886  11.742   0.396  0.6345 -0.0234  0.4265
  521MOL0     C71771   7.888  11.874   0.487 -0.1900  0.2648  0.2970
  521MOL0     C71772   7.922  12.010   0.404  1.0749 -0.1306 -0.1836
  521MOL0     C71773   7.926  12.138   0.481 -0.1008  0.9275 -0.8132
  521MOL0     C71774   7.791  12.208   0.522 -0.6520  0.2920 -0.0321
  521MOL0     C71775   7.697  12.271   0.418  0.1866 -0.6979  0.0571
  521MOL0     C71776   7.764  12.389   0.340 -0.1182  0.2656  0.0826
  521MOL0     N71777   7.811  12.485   0.447 -0.6374 -0.2210  1.2915
  521MOL0     C71778   7.937  12.535   0.453 -0.1767  0.7685 -0.3416
  521MOL0     C71779   7.929  12.622   0.559  0.3112  0.3272  0.3280
  521MOL0     C71780   8.044  12.706   0.608  0.7018  0.2648  0.1232
  521MOL0     C71781   8.021  12.841   0.528  0.1831  0.3972  0.1373
  521MOL0     C71782   8.099  12.963   0.578 -0.6898  0.4980  0.3182
  521MOL0     C71783   8.079  13.005   0.722 -0.5974 -0.4980  0.3642
  521MOL0     O71784   7.943  13.008   0.781 -0.2937  0.1735 -0.4606
  521MOL0     C71785   7.845  13.091   0.732  0.1329 -0.6458  0.4004
  521MOL0     C71786   7.707  13.080   0.784 -0.4487  0.2748  0.1564
  521MOL0     C71787   7.604  13.172   0.756  0.1450  0.2110  0.0377
  521MOL0     C71788   7.469  13.146   0.823 -0.8288 -0.6100  0.3932
  521MOL0     C71789   7.624  13.264   0.649  0.9342 -0.6953  1.2218
  521MOL0     C71790   7.514  13.364   0.604 -0.4235  0.5944  1.0346
  521MOL0     O71791   7.519  13.403   0.469  0.4371  1.1181  0.2211
  521MOL0     C71792   7.408  13.461   0.408  0.0047  0.1956  0.3188
  521MOL0     C71793   7.414  13.518   0.284  0.0063 -0.5574 -0.4886
  521MOL0     C71794   7.299  13.563   0.216 -0.1833 -0.3266 -0.3036
  521MOL0     C71795   7.176  13.553   0.277 -0.5813 -0.2291  0.4177
  521MOL0     O71796   7.079  13.626   0.222 -0.6596  0.9083 -0.0834
  521MOL0     C71797   6.968  13.561   0.162 -0.4896  0.2284 -0.0663
  521MOL0     C71798   6.903  13.646   0.055 -0.0315 -0.3835 -0.4268
  521MOL0     C71799   6.781  13.574   0.004 -0.5379  0.4458 -0.8845
  521MOL0     C71800   6.804  13.497  -0.125 -1.1463 -0.7326 -0.8226
  521MOL0     C71801   6.693  13.446  -0.198  0.2707 -0.0621  0.0849
  521MOL0     C71802   6.725  13.334  -0.294 -0.3723  0.5287  0.1151
  521MOL0     C71803   6.653  13.345  -0.431  0.4153  0.8897  0.1060
  521MOL0     C71804   6.701  13.470  -0.508  0.3326 -0.1442 -0.0667
  521MOL0    Cl71805   6.748  13.451  -0.674  0.0764  0.0043 -0.2266
  521MOL0     C71806   7.171  13.488   0.400 -0.9875  0.4322  0.1073
  521MOL0     C71807   7.284  13.447   0.468  0.4354 -0.1943 -0.3467
  521MOL0     O71808   7.443  13.408   0.692  0.1476  0.5133  0.2299
  521MOL0     C71809   7.745  13.275   0.588  0.6516  0.1803  0.8221
  521MOL0     C71810   7.858  13.201   0.635 -0.4995  0.3028 -0.4185
  521MOL0     N71811   7.794  12.634   0.602  0.8232 -0.2696 -0.8074
  521MOL0     N71812   7.727  12.542   0.535  0.5967  0.3164 -0.8603
  521MOL0     C71813   8.157  11.411   0.392  0.1836  0.1724  0.1009
  521MOL0     C71814   8.281  11.346   0.397  0.4812  0.1599  0.1880
  521MOL0     C71815   8.733  11.288   0.463  0.5680  0.4015  1.0657
  521MOL0     C71816   8.797  11.343   0.352 -0.8319  0.2437 -0.0945
  521MOL0     C71817   8.938  11.325   0.346  0.0232 -0.7246 -0.1534
  521MOL0     C71818   9.012  11.262   0.447  0.1979  0.0066  0.5598
  521MOL0     O71819   9.148  11.259   0.433 -0.9933 -0.3415 -0.4186
  521MOL0     C71820   9.239  11.190   0.519 -0.3833 -0.6283 -0.8374
  521MOL0     C71821   9.367  11.278   0.530 -0.7029 -0.2530 -0.6255
  521MOL0     C71822   9.339  11.408   0.617  0.0471  0.7080 -0.4525
  521MOL0     C71823   9.296  11.372   0.762 -0.1758 -0.7810  0.1069
  521MOL0     C71824   9.403  11.306   0.830 -0.4648 -0.5659  0.4405
  521MOL0     C71825   9.479  11.253   0.900  0.3182 -0.6953 -0.1523
  521MOL0     C71826   8.940  11.203   0.544 -0.5542  0.4012 -0.5578
  521MOL0     C71827   8.804  11.222   0.560  0.5317  0.1210  0.7189
  521MOL0     C71828   8.739  11.153   0.678  0.3114 -0.2738  0.1360
  521MOL0     H71829   8.472  11.533   0.196 -0.0790 -2.4627 -1.6915
  521MOL0     H71830   8.231  11.638   0.162 -2.3737  0.7264  0.6163
  521MOL0     H71831   8.074  11.782   0.293 -2.0165  1.5759  0.4079
  521MOL0     H71832   8.089  11.715   0.452  3.5241  2.5627 -0.9882
  521MOL0     H71833   7.829  11.751   0.303  0.6581 -1.1208  0.2976
  521MOL0     H71834   7.841  11.660   0.453  1.8922 -1.2324 -0.2819
  521MOL0     H71835   7.785  11.881   0.524 -0.1058  1.2163  0.3752
  521MOL0     H71836   7.959  11.863   0.569  3.5424  1.3639 -2.5198
  521MOL0     H71837   8.016  12.003   0.350  0.3939  0.7371 -1.5308
  521MOL0     H71838   7.843  12.006   0.328  0.1640 -2.1278  0.7858
  521MOL0     H71839   7.983  12.210   0.423  1.1674 -0.5745 -1.5181
  521MOL0     H71840   7.980  12.114   0.574 -2.4158 -0.3172  0.3073
  521MOL0     H71841   7.731  12.133   0.575 -1.1397  0.5528 -0.2109
  521MOL0     H71842   7.812  12.284   0.598  0.7144  1.7243 -1.7414
  521MOL0     H71843   7.605  12.318   0.453 -1.6198 -3.1597 -1.0575
  521MOL0     H71844   7.671  12.190   0.349 -2.0027  0.7908 -1.0032
  521MOL0     H71845   7.849  12.351   0.283 -1.6286  1.3627 -3.1286
  521MOL0     H71846   7.691  12.438   0.276 -0.6313  2.8434  2.4628
  521MOL0     H71847   8.012  12.529   0.375 -1.6016  1.8359 -1.8702
  521MOL0     H71848   8.144  12.663   0.596  0.7181  0.1657  0.5973
  521MOL0     H71849   8.035  12.713   0.716 -0.5910 -1.9830  0.2279
  521MOL0     H71850   8.057  12.825   0.426  1.8780 -0.0481  0.7607
  521MOL0     H71851   7.914  12.863   0.532 -0.3116 -1.3153 -2.0288
  521MOL0     H71852   8.208  12.949   0.571 -0.5972  1.1952  0.3159
  521MOL0     H71853   8.072  13.045   0.511 -5.5997 -0.0116  1.2882
  521MOL0     H71854   8.140  12.930   0.774  0.5221 -1.1192 -1.7280
  521MOL0     H71855   8.138  13.096   0.714 -0.3470 -0.7672 -1.5734
  521MOL0     H71856   7.703  13.004   0.862  1.7353 -0.7672 -0.6532
  521MOL0     H71857   7.393  13.145   0.744  0.4818 -1.9840 -0.8926
  521MOL0     H71858   7.450  13.215   0.906 -0.4044 -3.0868  2.6613
  521MOL0     H71859   7.474  13.045   0.864 -2.1241 -1.4356 -1.3260
  521MOL0     H71860   7.508  13.518   0.230  0.5973  1.7031  0.4467
  521MOL0     H71861   7.288  13.604   0.116 -0.5119  1.1439  0.3076
  521MOL0     H71862   6.985  13.460   0.124 -0.2815  0.9291 -1.9309
  521MOL0     H71863   6.893  13.537   0.238 -0.5076  2.0971  0.5372
  521MOL0     H71864   6.869  13.740   0.097  0.3120 -0.9820  1.2575
  521MOL0     H71865   6.969  13.649  -0.032  0.6783  0.6519  0.1314
  521MOL0     H71866   6.700  13.646  -0.005 -1.1832 -0.1572 -0.0146
  521MOL0     H71867   6.736  13.509   0.079 -0.5108  0.4963 -0.8248
  521MOL0     H71868   6.874  13.423  -0.086 -1.1382  1.7789  5.0905
  521MOL0     H71869   6.854  13.557  -0.201 -0.7282 -1.2425 -0.9525
  521MOL0     H71870   6.616  13.420  -0.123 -0.1853 -0.6347 -0.5642
  521MOL0     H71871   6.649  13.536  -0.240 -2.0519 -1.3018 -0.3669
  521MOL0     H71872   6.690  13.243  -0.244  1.3255  1.1218  2.5419
  521MOL0     H71873   6.831  13.334  -0.321 -0.6992  1.5927 -1.2863
  521MOL0     H71874   6.545  13.332  -0.421  0.5960 -0.8660  0.0033
  521MOL0     H71875   6.685  13.258  -0.488  1.0145  2.2633 -1.7554
  521MOL0     H71876   6.785  13.517  -0.456 -0.5984 -0.1537  1.5078
  521MOL0     H71877   6.614  13.536  -0.502 -0.1877 -0.8974  1.2776
  521MOL0     H71878   7.075  13.479   0.449 -0.7772 -1.1827  0.3030
  521MOL0     H71879   7.251  13.408   0.564  1.5536  0.7979  0.4590
  521MOL0     H71880   7.763  13.348   0.510  0.3123 -1.5533 -0.9363
  521MOL0     H71881   7.955  13.218   0.589  0.4384 -2.1537  0.4949
  521MOL0     H71882   8.074  11.367   0.446 -0.0568  0.0911 -0.3339
  521MOL0     H71883   8.288  11.254   0.454  3.1793 -0.9042 -1.6777
  521MOL0     H71884   8.743  11.406   0.282  1.4742  2.0044 -0.4155
  521MOL0     H71885   9.002  11.354   0.263  2.7178 -3.6652  0.7080
  521MOL0     H71886   9.205  11.167   0.621  2.4343 -2.6170 -0.1876
  521MOL0     H71887   9.261  11.090   0.479  1.0464 -0.2326 -1.1228
  521MOL0     H71888   9.405  11.314   0.434  0.2817 -2.5773 -1.1786
  521MOL0     H71889   9.446  11.216   0.573 -1.8057  0.2494  2.3878
  521MOL0     H71890   9.424  11.477   0.622 -0.9504  1.9793 -0.5771
  521MOL0     H71891   9.262  11.473   0.574 -1.6789 -1.8371 -1.4031
  521MOL0     H71892   9.204  11.313   0.773 -0.6059 -0.1209  0.0934
  521MOL0     H71893   9.283  11.468   0.813  3.2965  1.6913 -3.0692
  521MOL0     H71894   9.546  11.187   0.951  2.3496 -0.0593 -1.8525
  521MOL0     H71895   8.988  11.129   0.608  0.4745 -1.2567 -3.0973
  521MOL0     H71896   8.685  11.223   0.742  0.4506  0.2819 -0.3374
  521MOL0     H71897   8.664  11.089   0.631  0.0835  0.1288 -0.0492
  521MOL0     H71898   8.811  11.095   0.736  2.5345  0.0226 -2.1270
  522MOL0     O71899  10.821   3.946   5.874 -0.0040 -0.6383  0.5928
  522MOL0     C71900  10.934   3.942   5.815 -0.8346  0.2793  0.3210
  522MOL0     O71901  10.977   4.026   5.719  0.1594  0.4174 -0.3973
  522MOL0     C71902  10.901   4.135   5.702  0.0852 -0.3327 -0.0433
  522MOL0     C71903  10.960   4.258   5.737 -1.0067  0.4022 -0.4222
  522MOL0     C71904  10.890   4.376   5.725  0.3848  0.1282  0.0691
  522MOL0     C71905  10.767   4.376   5.655  0.0592 -0.1426  0.4915
  522MOL0     O71906  10.709   4.498   5.627 -0.1930 -0.4109 -0.0334
  522MOL0     C71907  10.588   4.500   5.543  0.2387  0.3155  0.9313
  522MOL0     C71908  10.514   4.631   5.539  0.2552  0.0989  0.3227
  522MOL0     C71909  10.588   4.743   5.466  0.3544  0.1675  0.6733
  522MOL0     C71910  10.585   4.707   5.310 -0.2433  0.4684 -0.3109
  522MOL0     C71911  10.615   4.830   5.228 -0.4919 -0.5622  0.2676
  522MOL0     C71912  10.763   4.873   5.231 -0.1008  0.5082  0.0560
  522MOL0     C71913  10.778   4.983   5.132  0.1641  0.7181 -0.6936
  522MOL0     C71914  10.928   5.021   5.107 -0.3616  0.1574 -0.1416
  522MOL0     N71915  10.943   5.088   4.979  0.6223  0.2325 -0.4692
  522MOL0     C71916  10.866   5.184   4.922  0.4627  0.2311 -0.6842
  522MOL0     C71917  10.925   5.210   4.801 -0.5078  0.0860  0.2026
  522MOL0     C71918  10.880   5.299   4.685 -0.2542 -0.0628 -0.4417
  522MOL0     C71919  10.958   5.429   4.666 -0.3492 -0.9517 -0.4551
  522MOL0     C71920  10.945   5.521   4.784  0.3246  0.2976 -0.9473
  522MOL0     C71921  11.021   5.651   4.764 -0.2547  0.0715  0.1019
  522MOL0     O71922  10.935   5.723   4.675 -1.1340  0.2141  0.4963
  522MOL0     C71923  10.826   5.795   4.722 -0.6903  0.7416  0.3112
  522MOL0     C71924  10.835   5.895   4.818 -1.0663 -0.5454 -0.4362
  522MOL0     C71925  10.726   5.966   4.857 -0.3699 -0.5565  0.9393
  522MOL0     C71926  10.751   6.086   4.943 -0.3707  0.8822  0.3175
  522MOL0     C71927  10.598   5.927   4.804 -0.2417  0.5345  0.7252
  522MOL0     C71928  10.479   6.007   4.825 -0.0516 -0.5721  0.0570
  522MOL0     O71929  10.362   5.936   4.818 -0.1609 -0.6246  0.4673
  522MOL0     C71930  10.247   5.990   4.857 -0.3297 -0.0644  0.0020
  522MOL0     C71931  10.169   5.922   4.948 -0.3488  0.4692 -0.8707
  522MOL0     C71932  10.048   5.979   4.998  0.0238 -0.0315  0.2601
  522MOL0     C71933   9.991   6.092   4.939 -0.5775  0.0155  0.8820
  522MOL0     O71934   9.865   6.130   4.981 -0.2377 -0.2558 -0.2037
  522MOL0     C71935   9.782   6.223   4.903 -0.0527  0.6874 -0.6495
  522MOL0     C71936   9.651   6.228   4.983 -0.0256  0.4631  1.5912
  522MOL0     C71937   9.650   6.333   5.093 -0.6391  0.2049  0.4589
  522MOL0     C71938   9.650   6.476   5.039 -0.3903 -0.7097  0.1428
  522MOL0     C71939   9.623   6.578   5.155 -0.0393  0.5924  0.3633
  522MOL0     C71940   9.615   6.721   5.096 -1.1202 -0.0462 -1.2278
  522MOL0     C71941   9.617   6.836   5.207  0.5570  0.2150 -0.5833
  522MOL0     C71942   9.652   6.971   5.152 -0.5713  0.5756 -0.2986
  522MOL0    Cl71943   9.613   7.081   5.282  0.4234 -0.0290  0.6593
  522MOL0     C71944  10.067   6.154   4.845  0.0056 -0.0925 -0.1246
  522MOL0     C71945  10.192   6.109   4.808 -0.4239 -1.3866 -0.3290
  522MOL0     O71946  10.490   6.131   4.841  0.5493 -0.3646 -0.1232
  522MOL0     C71947  10.599   5.819   4.713  0.2217 -0.4769  1.0036
  522MOL0     C71948  10.710   5.744   4.677  0.2037 -0.0752  0.7384
  522MOL0     N71949  11.039   5.133   4.788 -0.0587 -0.1006 -0.2225
  522MOL0     N71950  11.048   5.058   4.892  0.4129  0.1399 -0.1572
  522MOL0     C71951  10.712   4.249   5.609  0.3369  0.5221 -0.1110
  522MOL0     C71952  10.784   4.130   5.635 -0.2733  0.4339  1.4091
  522MOL0     C71953  11.019   3.818   5.835  0.2469 -0.0558 -0.0384
  522MOL0     C71954  11.098   3.781   5.725 -0.3084  0.6169  0.9513
  522MOL0     C71955  11.172   3.657   5.730 -0.9470 -0.8115  1.1163
  522MOL0     C71956  11.196   3.589   5.853 -0.7167 -0.2952  0.0881
  522MOL0     O71957  11.273   3.485   5.868 -0.2515  0.0688 -0.2147
  522MOL0     C71958  11.237   3.371   5.781 -0.0961  0.2003  0.8333
  522MOL0     C71959  11.357   3.307   5.727  0.2120  0.5941 -0.0729
  522MOL0     C71960  11.460   3.405   5.654 -0.3654 -0.1006  0.2012
  522MOL0     C71961  11.587   3.366   5.586  0.8402  0.1052  0.1013
  522MOL0     C71962  11.579   3.346   5.436 -0.5665  2.1063  0.0038
  522MOL0     C71963  11.572   3.340   5.315  0.3076  0.5401 -0.3941
  522MOL0     C71964  11.120   3.629   5.966  0.4915  0.1553 -0.7292
  522MOL0     C71965  11.037   3.747   5.960  0.4138  0.1916  1.3211
  522MOL0     C71966  10.964   3.790   6.089 -0.4585  0.4722  0.0982
  522MOL0     H71967  11.056   4.245   5.785  0.6650 -1.2724 -3.8543
  522MOL0     H71968  10.940   4.468   5.751  3.5294 -1.2331 -0.7518
  522MOL0     H71969  10.506   4.435   5.576 -0.1839 -0.9399 -2.2560
  522MOL0     H71970  10.603   4.472   5.439  0.6027 -0.4972  1.1993
  522MOL0     H71971  10.418   4.609   5.491  1.8651 -0.9992 -2.6466
  522MOL0     H71972  10.496   4.661   5.643  1.8040 -2.1243  1.3080
  522MOL0     H71973  10.531   4.835   5.477 -1.0816 -0.3757 -1.5756
  522MOL0     H71974  10.685   4.749   5.516  0.6736 -0.9981  0.2420
  522MOL0     H71975  10.643   4.616   5.290 -1.8078 -0.0724 -2.9557
  522MOL0     H71976  10.480   4.680   5.295 -0.7819  0.9501  2.2316
  522MOL0     H71977  10.548   4.912   5.257 -0.5851 -1.0549  1.5164
  522MOL0     H71978  10.591   4.812   5.123  0.7870 -2.7231  0.2909
  522MOL0     H71979  10.798   4.906   5.329  0.7916 -0.9844  0.2737
  522MOL0     H71980  10.826   4.786   5.208 -0.5203 -0.0654  1.0308
  522MOL0     H71981  10.721   5.074   5.153 -0.0306  1.0971 -2.6916
  522MOL0     H71982  10.739   4.931   5.044 -0.0929 -0.3985  0.0586
  522MOL0     H71983  10.966   5.078   5.193 -1.0479 -0.8247  0.8277
  522MOL0     H71984  10.989   4.931   5.107 -1.0846 -0.3756  2.1839
  522MOL0     H71985  10.766   5.217   4.951  0.5228 -0.3913  0.2484
  522MOL0     H71986  10.771   5.307   4.696 -0.1789 -1.9200  3.6824
  522MOL0     H71987  10.914   5.243   4.597  4.0233 -2.6739  2.4948
  522MOL0     H71988  11.062   5.408   4.641 -0.5333 -0.8148 -1.3525
  522MOL0     H71989  10.918   5.485   4.581  1.6216  1.2528 -0.0487
  522MOL0     H71990  10.842   5.543   4.814  0.6365  0.3839  0.0996
  522MOL0     H71991  10.989   5.478   4.874 -1.6247  0.5408  0.1690
  522MOL0     H71992  11.025   5.699   4.862 -0.0171  1.6536 -0.6617
  522MOL0     H71993  11.123   5.647   4.725  0.8343  0.6546  2.6989
  522MOL0     H71994  10.927   5.915   4.871 -3.1905  0.5867  3.2219
  522MOL0     H71995  10.686   6.085   5.030 -0.0037 -3.3310  0.7544
  522MOL0     H71996  10.728   6.177   4.886  1.5664  0.3969 -1.3626
  522MOL0     H71997  10.855   6.092   4.977  1.5099  0.1312 -4.4337
  522MOL0     H71998  10.210   5.833   4.995 -3.9459 -0.4975  0.8172
  522MOL0     H71999  10.002   5.947   5.091  2.7807  1.1368  2.1550
  522MOL0     H72000   9.828   6.321   4.887 -0.0335  0.3382 -3.0998
  522MOL0     H72001   9.769   6.182   4.803  3.1408 -2.7709  0.1113
  522MOL0     H72002   9.569   6.251   4.915 -0.0564 -1.5680  0.8718
  522MOL0     H72003   9.628   6.125   5.011  1.0191 -0.1292  0.3611
  522MOL0     H72004   9.737   6.312   5.155  1.5275 -0.3011 -2.5368
  522MOL0     H72005   9.557   6.318   5.149 -1.1348 -0.9785 -0.6214
  522MOL0     H72006   9.562   6.485   4.973  1.4351 -2.4117 -2.7635
  522MOL0     H72007   9.742   6.495   4.983 -1.2255 -2.3231 -1.9354
  522MOL0     H72008   9.535   6.552   5.214 -0.6620  0.6579 -0.5223
  522MOL0     H72009   9.706   6.585   5.226 -0.1470 -1.5651  0.7755
  522MOL0     H72010   9.520   6.732   5.041 -0.5875  0.8283 -1.9975
  522MOL0     H72011   9.691   6.747   5.023 -0.3874  1.0837 -0.1033
  522MOL0     H72012   9.680   6.804   5.290 -0.5347  0.6654  0.4399
  522MOL0     H72013   9.517   6.850   5.249  0.5850 -0.1215 -0.4054
  522MOL0     H72014   9.587   6.995   5.068 -3.1131  0.8055  1.6146
  522MOL0     H72015   9.760   6.975   5.131 -0.9585 -0.2624 -2.7707
  522MOL0     H72016  10.033   6.250   4.807  1.5516  0.1303 -1.0037
  522MOL0     H72017  10.253   6.172   4.744 -0.3672 -2.8868 -1.8239
  522MOL0     H72018  10.506   5.802   4.660  0.8571 -2.3433  0.3964
  522MOL0     H72019  10.699   5.661   4.608  0.7442  0.7891 -0.4360
  522MOL0     H72020  10.621   4.246   5.551 -1.3310 -1.9205  2.4101
  522MOL0     H72021  10.742   4.041   5.590 -4.3158  2.6708  0.2488
  522MOL0     H72022  11.083   3.835   5.632  1.3243  3.5017  2.2024
  522MOL0     H72023  11.228   3.622   5.643 -1.4331 -1.7950  1.1861
  522MOL0     H72024  11.187   3.293   5.839 -2.0112  1.1576  0.5551
  522MOL0     H72025  11.175   3.413   5.700  2.0047  0.8089 -0.5520
  522MOL0     H72026  11.329   3.233   5.652 -0.7711 -2.1075  2.7571
  522MOL0     H72027  11.405   3.260   5.813 -0.9589 -1.7919 -0.6414
  522MOL0     H72028  11.406   3.466   5.581 -1.3681 -3.9217 -2.5702
  522MOL0     H72029  11.494   3.458   5.743 -0.0364 -1.0991  0.6855
  522MOL0     H72030  11.636   3.287   5.644 -1.6671 -0.9079  0.9478
  522MOL0     H72031  11.662   3.445   5.591 -0.2076  1.0579  1.0715
  522MOL0     H72032  11.563   3.323   5.210  1.7942  0.7326 -0.5798
  522MOL0     H72033  11.136   3.571   6.056  2.0598  0.7309 -0.6100
  522MOL0     H72034  10.979   3.896   6.110 -1.4563  0.5900  0.2512
  522MOL0     H72035  10.858   3.776   6.063  0.0504 -0.9361 -1.3844
  522MOL0     H72036  11.007   3.731   6.170  1.4607 -4.0557 -3.7523
  523MOL0     O72037   6.309  10.336   1.269  1.0013 -0.5941  0.2573
  523MOL0     C72038   6.258  10.279   1.175  0.7539  0.2392 -0.5558
  523MOL0     O72039   6.176  10.168   1.183  0.2894  0.2115 -0.7147
  523MOL0     C72040   6.142  10.097   1.299 -0.2385 -1.0140 -0.4426
  523MOL0     C72041   6.238  10.067   1.395 -0.0511  0.7610 -0.3116
  523MOL0     C72042   6.184  10.010   1.516 -0.7052 -0.2087  0.9850
  523MOL0     C72043   6.046   9.978   1.521  0.8966  0.0469 -0.5803
  523MOL0     O72044   5.983   9.933   1.635  0.4633  0.3736  0.0627
  523MOL0     C72045   6.064   9.867   1.722  0.0163  0.5456  0.8915
  523MOL0     C72046   5.980   9.792   1.820 -0.1789  0.1961 -0.1002
  523MOL0     C72047   5.913   9.874   1.924  0.1405  0.1003 -0.5898
  523MOL0     C72048   5.788   9.933   1.857  0.8764  0.0020 -0.6570
  523MOL0     C72049   5.702   9.984   1.969  1.2920  0.4833 -0.1280
  523MOL0     C72050   5.573  10.044   1.925  0.3099  0.6235  0.1796
  523MOL0     C72051   5.456  10.011   2.021 -0.0829 -0.2148  0.1352
  523MOL0     C72052   5.321  10.068   1.974  0.4366 -0.6847  0.4208
  523MOL0     N72053   5.209  10.038   2.065 -0.1847 -0.6513  0.4997
  523MOL0     C72054   5.158   9.922   2.107 -0.4224 -0.1319 -0.3473
  523MOL0     C72055   5.043   9.955   2.161  0.8696  0.3805  0.7317
  523MOL0     C72056   4.945   9.850   2.200  0.5341 -0.4588  0.6492
  523MOL0     C72057   4.928   9.832   2.351  0.1274 -0.6209  0.5831
  523MOL0     C72058   4.824   9.723   2.368  0.3397 -0.0084 -0.7986
  523MOL0     C72059   4.831   9.670   2.505  0.3960  0.7537 -0.0963
  523MOL0     O72060   4.704   9.699   2.573  0.5149 -0.6276  0.7428
  523MOL0     C72061   4.695   9.648   2.699  0.7143 -0.0413  0.0720
  523MOL0     C72062   4.768   9.551   2.765 -0.5623 -0.6190  0.1758
  523MOL0     C72063   4.755   9.505   2.895  0.1873 -0.1815  0.3125
  523MOL0     C72064   4.859   9.427   2.958  0.5956 -0.3560 -0.4609
  523MOL0     C72065   4.655   9.564   2.970  0.2789 -0.0385 -0.4106
  523MOL0     C72066   4.613   9.510   3.104  1.1070  0.4596  0.0551
  523MOL0     O72067   4.526   9.595   3.178  0.0183 -0.3650 -0.4755
  523MOL0     C72068   4.522   9.567   3.311  0.7841 -0.8128  0.0685
  523MOL0     C72069   4.633   9.583   3.392  0.4120  0.8518 -0.2028
  523MOL0     C72070   4.632   9.529   3.523  0.0819 -0.1009 -0.4815
  523MOL0     C72071   4.515   9.472   3.571 -0.4241  0.0712 -0.1205
  523MOL0     O72072   4.514   9.417   3.701 -0.8154  0.0564  1.0829
  523MOL0     C72073   4.543   9.510   3.805  0.2811 -0.5916  1.2702
  523MOL0     C72074   4.523   9.457   3.945 -0.0923  0.2243 -0.6108
  523MOL0     C72075   4.384   9.431   3.994  0.6652  1.0576 -0.7244
  523MOL0     C72076   4.295   9.550   4.009  0.4061 -0.4807  0.3330
  523MOL0     C72077   4.145   9.528   3.982  0.2770 -0.6351 -0.6933
  523MOL0     C72078   4.070   9.669   3.998  0.0997 -0.2172  0.0099
  523MOL0     C72079   3.921   9.650   3.993  0.0093 -0.0440  0.5388
  523MOL0     C72080   3.847   9.783   4.006  1.2613 -0.1065 -0.1163
  523MOL0    Cl72081   3.857   9.896   3.870  0.6770 -0.0074  0.1822
  523MOL0     C72082   4.406   9.462   3.484 -0.1111  0.6161 -0.3239
  523MOL0     C72083   4.410   9.514   3.366  0.9727 -0.5394  0.3941
  523MOL0     O72084   4.647   9.402   3.144  0.0322 -0.1798 -0.2429
  523MOL0     C72085   4.574   9.664   2.914  0.1252 -0.5229 -1.5535
  523MOL0     C72086   4.587   9.701   2.779 -0.4843 -0.1546  1.1508
  523MOL0     N72087   5.027  10.094   2.163 -0.1022 -0.2546  0.1053
  523MOL0     N72088   5.128  10.140   2.108  0.2069 -0.0521  0.1485
  523MOL0     C72089   5.958  10.012   1.424  0.6593 -0.5218 -0.9660
  523MOL0     C72090   6.006  10.068   1.304 -0.5279  0.1538  1.2398
  523MOL0     C72091   6.270  10.338   1.044  0.4058  0.1627 -0.5934
  523MOL0     C72092   6.397  10.348   0.984 -0.8682 -1.1637  0.6858
  523MOL0     C72093   6.411  10.432   0.869 -0.8988 -0.0546 -0.1183
  523MOL0     C72094   6.303  10.472   0.796 -0.1964  0.0427 -0.7363
  523MOL0     O72095   6.293  10.552   0.683 -0.5857 -0.0581  0.1288
  523MOL0     C72096   6.411  10.551   0.602 -0.1974 -0.1887 -0.2650
  523MOL0     C72097   6.386  10.608   0.458  0.9260 -0.0155 -0.6861
  523MOL0     C72098   6.265  10.539   0.383  0.4865 -0.7022  0.1651
  523MOL0     C72099   6.122  10.586   0.413 -0.3937  0.5754 -0.0479
  523MOL0     C72100   6.040  10.498   0.502 -0.3440 -0.8140 -0.5514
  523MOL0     C72101   5.974  10.427   0.579  0.9521 -0.8571 -0.2632
  523MOL0     C72102   6.184  10.452   0.854  0.3016 -0.0203  0.0284
  523MOL0     C72103   6.162  10.391   0.971  0.9954  0.4095 -0.4725
  523MOL0     C72104   6.025  10.369   1.015  0.1875  0.0780 -0.4137
  523MOL0     H72105   6.342  10.094   1.383  0.6735 -2.5121 -3.1737
  523MOL0     H72106   6.248   9.998   1.604 -0.1673  0.1965  0.6549
  523MOL0     H72107   6.119   9.939   1.784  3.3661 -0.1741 -1.0339
  523MOL0     H72108   6.131   9.795   1.674  0.4778  0.9829  0.8711
  523MOL0     H72109   5.904   9.729   1.773 -0.0448  2.6023 -3.8975
  523MOL0     H72110   6.049   9.721   1.867  1.1178  0.7658 -1.0844
  523MOL0     H72111   5.898   9.807   2.009  3.2032  2.1876  1.8584
  523MOL0     H72112   5.973   9.962   1.952 -0.6062  0.0265  1.4521
  523MOL0     H72113   5.808  10.020   1.794 -0.3772  2.0867  1.6037
  523MOL0     H72114   5.723   9.869   1.796  0.9607 -1.1087  0.3826
  523MOL0     H72115   5.748  10.059   2.035  3.6278 -0.4055 -0.6305
  523MOL0     H72116   5.683   9.898   2.033 -3.4134  0.1316 -1.6634
  523MOL0     H72117   5.586  10.152   1.914 -2.7686  0.9686 -0.8843
  523MOL0     H72118   5.541  10.007   1.827 -3.6745  0.4748  1.3645
  523MOL0     H72119   5.485  10.051   2.118 -0.3285 -1.0444  0.5553
  523MOL0     H72120   5.439   9.905   2.041 -2.2295  0.2332  0.8786
  523MOL0     H72121   5.330  10.176   1.980 -0.7838 -0.1775 -3.7201
  523MOL0     H72122   5.299  10.025   1.875  0.4936 -3.7166  1.6103
  523MOL0     H72123   5.200   9.822   2.108 -2.1898 -0.9156  1.3777
  523MOL0     H72124   4.965   9.751   2.157  1.0104  0.4316 -1.2542
  523MOL0     H72125   4.852   9.887   2.156  0.2308 -0.6990  1.0756
  523MOL0     H72126   5.026   9.803   2.391 -0.1915  0.5994  2.3677
  523MOL0     H72127   4.898   9.926   2.398  2.3669  0.7089 -0.4972
  523MOL0     H72128   4.724   9.759   2.344  0.3947  1.6870  1.2009
  523MOL0     H72129   4.834   9.641   2.296  1.7677  1.6228 -2.5886
  523MOL0     H72130   4.845   9.562   2.500 -2.9955  0.2388 -2.0681
  523MOL0     H72131   4.914   9.719   2.555  0.0887  3.9553 -2.4264
  523MOL0     H72132   4.832   9.491   2.701 -2.0131 -1.9636 -0.0899
  523MOL0     H72133   4.824   9.339   3.013 -2.2406  2.0269  1.8842
  523MOL0     H72134   4.897   9.494   3.036  0.6722 -0.1199 -0.7031
  523MOL0     H72135   4.954   9.411   2.906  1.6051  0.0607  1.1671
  523MOL0     H72136   4.731   9.602   3.349  0.8455 -3.2124 -1.4364
  523MOL0     H72137   4.720   9.540   3.585  0.2980  4.8072 -1.2723
  523MOL0     H72138   4.644   9.547   3.790 -0.5846  0.6105 -2.7553
  523MOL0     H72139   4.479   9.599   3.799 -3.9794 -3.3158  2.1512
  523MOL0     H72140   4.594   9.376   3.962  2.0713  2.2544  0.7487
  523MOL0     H72141   4.573   9.534   4.005  1.1632 -1.8340  1.0880
  523MOL0     H72142   4.392   9.363   4.079 -0.4089 -1.4359 -2.4992
  523MOL0     H72143   4.340   9.368   3.917  4.1411 -1.1764 -1.1093
  523MOL0     H72144   4.328   9.620   3.932 -3.0605 -0.1144 -0.9988
  523MOL0     H72145   4.303   9.598   4.107  0.6126 -1.6996  0.9313
  523MOL0     H72146   4.120   9.482   3.886 -1.2844  2.4206 -1.9133
  523MOL0     H72147   4.125   9.461   4.066  2.6520  1.3197  1.5967
  523MOL0     H72148   4.106   9.733   3.918 -2.1830  0.2916 -0.6940
  523MOL0     H72149   4.105   9.712   4.092  3.4630  0.0660 -1.2276
  523MOL0     H72150   3.894   9.588   4.080  1.0576  3.1400  3.3664
  523MOL0     H72151   3.899   9.593   3.903  1.4029  1.6240 -0.9306
  523MOL0     H72152   3.874   9.837   4.097 -1.2602 -0.3852  0.8750
  523MOL0     H72153   3.741   9.756   4.013  1.2108  0.0291 -0.3310
  523MOL0     H72154   4.322   9.407   3.526 -1.0983  3.9747  2.6376
  523MOL0     H72155   4.320   9.503   3.307 -0.2780  0.0800  2.0973
  523MOL0     H72156   4.502   9.714   2.977  2.2182  1.7671 -0.8241
  523MOL0     H72157   4.523   9.777   2.735  0.9310  1.2798  1.4949
  523MOL0     H72158   5.853   9.986   1.432  1.5092 -3.9916  2.0628
  523MOL0     H72159   5.940  10.107   1.227 -1.9710  0.7790  2.7271
  523MOL0     H72160   6.484  10.306   1.032  0.5240  0.0936 -0.6222
  523MOL0     H72161   6.508  10.445   0.821 -1.1215 -1.2719 -0.9140
  523MOL0     H72162   6.482  10.614   0.657  0.2947  1.0947 -2.2826
  523MOL0     H72163   6.471  10.460   0.601  0.5584  0.2786  0.7318
  523MOL0     H72164   6.477  10.593   0.399  1.1602 -1.5167 -0.0058
  523MOL0     H72165   6.361  10.712   0.477  0.1458 -0.6030  1.8857
  523MOL0     H72166   6.284  10.539   0.276  0.0857 -3.4597  0.0209
  523MOL0     H72167   6.264  10.431   0.403 -2.4220 -1.0032 -1.1283
  523MOL0     H72168   6.078  10.585   0.313  0.4342  0.5919 -0.4218
  523MOL0     H72169   6.109  10.687   0.453 -0.2914  0.2365  0.8670
  523MOL0     H72170   5.913  10.364   0.641 -2.2169 -0.2631 -2.4912
  523MOL0     H72171   6.100  10.505   0.810  0.2829  1.3628  1.6108
  523MOL0     H72172   6.012  10.412   1.114  2.4494 -2.2732  1.0307
  523MOL0     H72173   5.954  10.411   0.942 -2.5807 -0.0397  2.0444
  523MOL0     H72174   5.995  10.265   1.030 -3.0158  1.2772  3.0380
  524MOL0     O72175   7.350   9.035  10.630 -0.0787  0.0947 -0.2908
  524MOL0     C72176   7.349   8.968  10.728  0.1137  0.2128 -0.4754
  524MOL0     O72177   7.244   8.954  10.811 -0.0200  0.2090  0.3040
  524MOL0     C72178   7.133   9.036  10.794  0.2428  0.2219 -0.3571
  524MOL0     C72179   7.131   9.177  10.788 -0.2771  0.2221 -1.0158
  524MOL0     C72180   7.009   9.244  10.762  0.3260  0.6152 -0.3955
  524MOL0     C72181   6.885   9.168  10.761  0.7309 -0.5563 -1.2063
  524MOL0     O72182   6.756   9.224  10.758 -0.0744  0.0828  0.5666
  524MOL0     C72183   6.713   9.354  10.708 -0.4768 -0.2365 -0.4418
  524MOL0     C72184   6.566   9.359  10.699 -0.3670  0.3659 -0.4669
  524MOL0     C72185   6.518   9.450  10.590  0.2436  0.4111  0.7429
  524MOL0     C72186   6.598   9.588  10.583 -0.5501 -0.3968  0.0111
  524MOL0     C72187   6.506   9.700  10.528 -0.1278 -0.4922  0.0092
  524MOL0     C72188   6.580   9.836  10.540 -0.1919  1.3824 -0.0272
  524MOL0     C72189   6.500   9.948  10.463  0.0486  1.0516  0.0460
  524MOL0     C72190   6.381  10.002  10.539  0.2997  0.6066  0.2397
  524MOL0     N72191   6.253  10.017  10.464  0.2366 -0.3392  1.1728
  524MOL0     C72192   6.240  10.070  10.336 -0.5788 -1.0254 -0.2898
  524MOL0     C72193   6.110  10.095  10.323  1.2411 -0.1481  0.2499
  524MOL0     C72194   6.048  10.184  10.213 -0.0864  0.5590  0.3186
  524MOL0     C72195   6.031  10.326  10.265  0.5126 -0.1513 -0.2503
  524MOL0     C72196   5.942  10.410  10.178 -0.6145  0.5194  0.7520
  524MOL0     C72197   6.006  10.457  10.047  0.8892 -0.5539 -0.0649
  524MOL0     O72198   5.910  10.499   9.948  0.2339 -0.4226 -1.0822
  524MOL0     C72199   5.809  10.417   9.907 -0.8107  1.0696  0.3537
  524MOL0     C72200   5.824  10.274   9.896  1.4452  0.5525 -0.5018
  524MOL0     C72201   5.724  10.187   9.858 -0.2594 -0.0932 -0.5270
  524MOL0     C72202   5.762  10.039   9.859 -0.8737  0.2162 -0.1370
  524MOL0     C72203   5.601  10.245   9.818 -0.1383  0.3653 -0.8786
  524MOL0     C72204   5.485  10.158   9.776  0.6183  0.0021 -0.7243
  524MOL0     O72205   5.389  10.231   9.702  0.2324  0.0175  0.5238
  524MOL0     C72206   5.275  10.165   9.661  0.7521 -1.6364  0.1644
  524MOL0     C72207   5.225  10.215   9.544 -0.0062 -0.1736  0.2636
  524MOL0     C72208   5.110  10.166   9.486 -0.5205 -0.0879 -0.1805
  524MOL0     C72209   5.049  10.063   9.548 -0.2120 -0.1030 -0.4053
  524MOL0     O72210   4.942  10.012   9.484  0.2069  1.1332  0.7161
  524MOL0     C72211   4.877   9.893   9.533 -0.3721 -0.0202 -0.7128
  524MOL0     C72212   4.758   9.872   9.437  0.8816  0.3045 -0.2757
  524MOL0     C72213   4.798   9.859   9.294  0.3798  0.2976  0.3888
  524MOL0     C72214   4.670   9.836   9.207  0.1852  0.4579  0.2693
  524MOL0     C72215   4.627   9.970   9.154  0.0791  0.1408 -0.5585
  524MOL0     C72216   4.482   9.952   9.111  0.9355 -0.4890  0.2450
  524MOL0     C72217   4.472   9.850   8.998 -0.4141  0.1727 -0.5922
  524MOL0     C72218   4.331   9.794   8.961  0.5677 -0.4928  0.0036
  524MOL0    Cl72219   4.243   9.751   9.116  0.0740 -0.4395  0.0286
  524MOL0     C72220   5.091  10.007   9.669 -0.0054  0.3129  0.3758
  524MOL0     C72221   5.202  10.069   9.726 -0.8855 -0.1186 -0.6159
  524MOL0     O72222   5.484  10.038   9.802  0.2426 -0.0755 -0.1430
  524MOL0     C72223   5.587  10.385   9.827  0.1952  0.5948 -0.6966
  524MOL0     C72224   5.696  10.466   9.864 -0.1461  0.2800 -1.3386
  524MOL0     N72225   6.049  10.059  10.447  0.5226 -0.5287  0.3959
  524MOL0     N72226   6.134  10.016  10.523 -0.0022  0.0228 -0.4299
  524MOL0     C72227   6.887   9.029  10.786 -0.7918  0.2160  0.2466
  524MOL0     C72228   7.014   8.967  10.805 -0.3339 -0.7202  0.0332
  524MOL0     C72229   7.472   8.891  10.762 -0.5479 -0.1459 -0.1662
  524MOL0     C72230   7.521   8.889  10.895  0.6582 -0.1413  0.1768
  524MOL0     C72231   7.637   8.828  10.929 -0.2417 -0.3026  0.3661
  524MOL0     C72232   7.725   8.787  10.828  0.2945 -0.4201  0.0226
  524MOL0     O72233   7.851   8.751  10.864 -0.3728 -0.0699 -0.6061
  524MOL0     C72234   7.931   8.675  10.773 -1.1021  0.3569 -0.5273
  524MOL0     C72235   7.876   8.534  10.737 -0.5947  0.4746  0.0812
  524MOL0     C72236   7.848   8.442  10.859 -0.5571  0.7597  0.1965
  524MOL0     C72237   7.864   8.293  10.837 -0.6742 -0.0701 -0.7130
  524MOL0     C72238   7.777   8.244  10.740 -0.9108  0.1464  1.3090
  524MOL0     C72239   7.711   8.187  10.663  0.7813 -0.1854 -0.4453
  524MOL0     C72240   7.678   8.785  10.696 -0.1031 -0.5080  0.2771
  524MOL0     C72241   7.544   8.830  10.660 -0.7967 -0.5657  1.0162
  524MOL0     C72242   7.504   8.821  10.506  0.0412  0.0293 -0.5465
  524MOL0     H72243   7.222   9.233  10.805 -1.9764  2.9724 -0.2776
  524MOL0     H72244   7.006   9.353  10.759  0.0805  0.6839  1.2854
  524MOL0     H72245   6.764   9.388  10.618  0.7725  0.1623  0.3741
  524MOL0     H72246   6.749   9.427  10.782 -3.0550 -2.9568  3.9929
  524MOL0     H72247   6.540   9.253  10.688 -1.6637  0.5763  0.2743
  524MOL0     H72248   6.529   9.396  10.795  2.4205  0.6747  0.5727
  524MOL0     H72249   6.537   9.401  10.494 -1.6745 -4.2147  2.4457
  524MOL0     H72250   6.411   9.471  10.596 -0.2717 -1.5718 -0.5852
  524MOL0     H72251   6.633   9.612  10.684 -0.3189  1.5317 -0.4877
  524MOL0     H72252   6.684   9.579  10.517  0.4922 -3.0096  1.6039
  524MOL0     H72253   6.411   9.713  10.580 -0.3993  1.5615 -0.8964
  524MOL0     H72254   6.483   9.671  10.425  0.2263  0.2231 -0.2813
  524MOL0     H72255   6.593   9.865  10.644  1.5875  2.3435 -0.4719
  524MOL0     H72256   6.674   9.825  10.485 -0.9544 -2.0042 -0.8732
  524MOL0     H72257   6.470   9.921  10.361 -3.2561  2.2683  0.5676
  524MOL0     H72258   6.567  10.033  10.449  1.6821 -0.2340 -0.2151
  524MOL0     H72259   6.350   9.937  10.621  0.5757  1.7190  1.2603
  524MOL0     H72260   6.408  10.096  10.588 -1.4391  1.3829 -0.2373
  524MOL0     H72261   6.311  10.115  10.267 -1.1811  4.9996  2.4460
  524MOL0     H72262   5.955  10.135  10.184  0.6714  0.0590 -1.4016
  524MOL0     H72263   6.120  10.204  10.133 -0.3512  4.1666  0.8249
  524MOL0     H72264   5.989  10.314  10.365 -1.0140 -0.3905 -0.8948
  524MOL0     H72265   6.128  10.375  10.280  1.4300 -2.3516  1.7549
  524MOL0     H72266   5.847  10.365  10.147 -0.0771  0.2185 -0.5539
  524MOL0     H72267   5.920  10.497  10.241 -2.3751 -0.7460  2.0111
  524MOL0     H72268   6.072  10.539  10.077 -0.0860 -0.9777  3.7604
  524MOL0     H72269   6.065  10.385   9.989  2.6908  2.3447 -2.1354
  524MOL0     H72270   5.921  10.228   9.915  2.1644  1.6075 -1.5022
  524MOL0     H72271   5.734   9.989   9.953  1.2702 -2.5245 -0.8281
  524MOL0     H72272   5.871  10.037   9.861 -0.8580  0.4712  2.1427
  524MOL0     H72273   5.716   9.984   9.777 -0.8131 -0.4598  0.2738
  524MOL0     H72274   5.262  10.310   9.505  3.0501 -0.4038  2.2726
  524MOL0     H72275   5.063  10.213   9.400 -0.7222  1.6479  0.8371
  524MOL0     H72276   4.932   9.799   9.541 -1.1440 -0.6917 -2.7419
  524MOL0     H72277   4.831   9.918   9.629  1.8240  1.7679 -0.0471
  524MOL0     H72278   4.699   9.781   9.451  0.6124  0.4201 -0.6578
  524MOL0     H72279   4.685   9.953   9.444 -3.6879 -3.2503 -1.8269
  524MOL0     H72280   4.873   9.780   9.284 -1.0996 -0.9769 -1.4105
  524MOL0     H72281   4.848   9.947   9.254 -2.7471  2.5220  0.9398
  524MOL0     H72282   4.597   9.779   9.266  1.9733 -0.4657  1.7063
  524MOL0     H72283   4.698   9.780   9.117  2.2067  2.2930 -0.3173
  524MOL0     H72284   4.621  10.044   9.234  1.4992 -0.2465 -0.0486
  524MOL0     H72285   4.690  10.009   9.074 -0.2904 -0.8415 -1.3512
  524MOL0     H72286   4.440  10.047   9.076 -3.2495 -1.8943  0.9125
  524MOL0     H72287   4.424   9.927   9.200  0.1886  0.8430  0.1650
  524MOL0     H72288   4.527   9.759   9.019 -1.4064 -0.5206 -0.9308
  524MOL0     H72289   4.509   9.889   8.903  0.0749  2.4591  0.4581
  524MOL0     H72290   4.336   9.699   8.906 -1.3459 -0.1940 -0.7797
  524MOL0     H72291   4.268   9.859   8.899 -0.7716  0.2384  2.0229
  524MOL0     H72292   5.035   9.931   9.722 -0.9977  0.8579  0.1261
  524MOL0     H72293   5.229  10.028   9.823  0.5796 -0.8297 -1.2940
  524MOL0     H72294   5.500  10.444   9.802  0.0383  1.0223  0.7189
  524MOL0     H72295   5.683  10.572   9.884 -0.8428 -0.4326  3.0100
  524MOL0     H72296   6.797   8.969  10.786 -0.1793 -0.7752 -1.3986
  524MOL0     H72297   7.022   8.859  10.812  1.1017 -0.6390 -0.0129
  524MOL0     H72298   7.445   8.919  10.967  0.2252 -2.8921  0.9933
  524MOL0     H72299   7.663   8.830  11.035 -2.4054 -2.8282  1.0387
  524MOL0     H72300   7.937   8.728  10.677  0.9461  0.2167 -0.5250
  524MOL0     H72301   8.032   8.680  10.815 -0.9407  0.6380 -0.9350
  524MOL0     H72302   7.947   8.485  10.670 -0.7232 -2.1675  1.7411
  524MOL0     H72303   7.789   8.553  10.675  0.8361  1.4536 -1.7452
  524MOL0     H72304   7.916   8.469  10.941  0.5249  0.1883 -0.4842
  524MOL0     H72305   7.746   8.467  10.890 -0.6272 -1.1082  1.6528
  524MOL0     H72306   7.852   8.235  10.929 -1.1357  2.2783  0.7919
  524MOL0     H72307   7.958   8.257  10.793 -1.3251 -1.2104 -1.2384
  524MOL0     H72308   7.646   8.154  10.585  0.0773  2.6096 -1.1361
  524MOL0     H72309   7.750   8.748  10.624 -0.9980 -2.2362  0.2083
  524MOL0     H72310   7.570   8.761  10.443 -0.1327  0.2902 -0.9752
  524MOL0     H72311   7.403   8.777  10.500  0.3231 -1.1274  1.9337
  524MOL0     H72312   7.489   8.921  10.465 -1.1513 -0.0842 -0.4324
  525MOL0     O72313   0.492   8.560   2.215  0.2814  0.3146  0.0094
  525MOL0     C72314   0.458   8.463   2.153  0.5692  0.3663 -0.1835
  525MOL0     O72315   0.456   8.334   2.205 -0.3926 -0.3304  0.2815
  525MOL0     C72316   0.474   8.316   2.336 -0.6445 -0.5532 -0.0284
  525MOL0     C72317   0.591   8.249   2.366  0.2371 -0.1435  0.0203
  525MOL0     C72318   0.625   8.233   2.507  0.5439 -0.1690  0.6689
  525MOL0     C72319   0.533   8.271   2.607  0.5867 -1.0419  0.1915
  525MOL0     O72320   0.584   8.244   2.732 -0.2623 -0.3930  0.2647
  525MOL0     C72321   0.517   8.303   2.845 -0.0800 -0.0401  0.3672
  525MOL0     C72322   0.570   8.435   2.867 -0.4102 -0.1812 -0.7105
  525MOL0     C72323   0.507   8.517   2.983 -0.1767 -0.0405  0.4016
  525MOL0     C72324   0.563   8.657   3.002 -0.0107  0.9007 -0.5131
  525MOL0     C72325   0.513   8.772   2.922  0.0506 -0.2445 -0.2637
  525MOL0     C72326   0.555   8.911   2.974 -0.6583 -1.1483  0.2273
  525MOL0     C72327   0.689   8.927   3.045  0.7100 -0.2189 -0.7765
  525MOL0     C72328   0.738   9.062   3.067 -0.8108  0.1647  1.0449
  525MOL0     N72329   0.622   9.144   3.112  0.0046  0.4381 -0.5724
  525MOL0     C72330   0.561   9.140   3.240 -0.1279  0.1688  0.4223
  525MOL0     C72331   0.448   9.212   3.229  0.5646  0.3553 -0.3174
  525MOL0     C72332   0.372   9.252   3.354 -0.6274 -0.3340  0.9104
  525MOL0     C72333   0.375   9.413   3.365  0.1579  0.0399  0.6456
  525MOL0     C72334   0.270   9.486   3.289 -0.6720 -0.3527 -0.3834
  525MOL0     C72335   0.277   9.636   3.308 -0.7761  1.1696  0.4067
  525MOL0     O72336   0.313   9.683   3.441 -0.0330 -0.7918  0.0684
  525MOL0     C72337   0.335   9.816   3.462 -0.5811 -1.3049 -0.3246
  525MOL0     C72338   0.450   9.846   3.542 -0.4644 -0.2564  0.5148
  525MOL0     C72339   0.479   9.984   3.571 -0.8708 -1.2505 -0.2579
  525MOL0     C72340   0.588  10.016   3.657  0.8938 -0.1910  0.4063
  525MOL0     C72341   0.388  10.087   3.520  0.2660  0.6167 -0.6489
  525MOL0     C72342   0.407  10.233   3.541  0.4072  0.2664 -0.5400
  525MOL0     O72343   0.292  10.309   3.508 -1.0146 -0.1149 -0.6990
  525MOL0     C72344   0.280  10.427   3.579 -0.2445 -0.8185  0.5438
  525MOL0     C72345   0.209  10.434   3.698 -0.9759 -0.0465  0.8547
  525MOL0     C72346   0.206  10.548   3.772 -0.6047  1.0149  0.0936
  525MOL0     C72347   0.268  10.664   3.721  0.1278 -0.7280  0.2288
  525MOL0     O72348   0.276  10.778   3.791 -0.6093 -0.1605 -0.0364
  525MOL0     C72349   0.247  10.768   3.930 -0.2388  1.0648 -0.2114
  525MOL0     C72350   0.284  10.898   4.002  0.4728  0.2634 -0.0512
  525MOL0     C72351   0.244  11.029   3.931 -0.4268  0.3380 -0.4958
  525MOL0     C72352   0.281  11.150   4.019 -0.3181  0.3820  0.4897
  525MOL0     C72353   0.273  11.276   3.934  0.2841 -0.7193 -0.0055
  525MOL0     C72354   0.363  11.400   3.986  0.3631 -0.6553  0.8448
  525MOL0     C72355   0.378  11.511   3.884  0.0808  0.1779 -0.7655
  525MOL0     C72356   0.260  11.617   3.886 -0.0183 -0.4383 -0.2959
  525MOL0    Cl72357   0.273  11.743   4.011  0.4205 -0.2548  0.5254
  525MOL0     C72358   0.335  10.660   3.597  0.3020  0.2513  0.1697
  525MOL0     C72359   0.336  10.539   3.530 -0.1789  0.2318  1.2646
  525MOL0     O72360   0.517  10.280   3.571  0.2490  0.8166  0.6746
  525MOL0     C72361   0.278  10.049   3.435  0.0913  0.0736 -0.1624
  525MOL0     C72362   0.257   9.918   3.412 -0.1780  0.0400 -0.1767
  525MOL0     N72363   0.437   9.254   3.099 -0.1012 -0.2378  0.0163
  525MOL0     N72364   0.539   9.219   3.028  0.0265 -0.1380 -0.5732
  525MOL0     C72365   0.416   8.349   2.570  0.7676 -0.9610 -1.0153
  525MOL0     C72366   0.386   8.363   2.432  1.0668  0.1116 -0.1982
  525MOL0     C72367   0.452   8.487   2.006  0.1036 -0.7167  1.0055
  525MOL0     C72368   0.516   8.411   1.904 -0.9396 -0.2083 -0.4400
  525MOL0     C72369   0.514   8.445   1.773 -0.0788 -0.0538  0.4631
  525MOL0     C72370   0.439   8.560   1.728 -0.4353  0.3556 -0.0668
  525MOL0     O72371   0.433   8.612   1.602 -0.6440  0.9483  0.6023
  525MOL0     C72372   0.482   8.538   1.491 -0.0896  0.2143 -0.0200
  525MOL0     C72373   0.634   8.553   1.467 -0.4082 -0.4152  0.4539
  525MOL0     C72374   0.667   8.705   1.471 -0.5442 -0.2539 -0.2339
  525MOL0     C72375   0.817   8.733   1.448 -0.3691 -0.0103  0.1370
  525MOL0     C72376   0.869   8.660   1.329 -0.8531  1.4566  0.0366
  525MOL0     C72377   0.915   8.600   1.231 -0.2225 -0.6148 -0.2663
  525MOL0     C72378   0.370   8.635   1.824 -0.2241 -0.2013  0.2180
  525MOL0     C72379   0.382   8.609   1.957  0.2752 -0.1647  0.0263
  525MOL0     C72380   0.298   8.699   2.040 -0.9099  0.2691  0.1835
  525MOL0     H72381   0.641   8.213   2.277 -0.6412  0.5093 -0.7537
  525MOL0     H72382   0.721   8.196   2.542 -0.0723 -1.6300  0.8629
  525MOL0     H72383   0.548   8.241   2.930  0.6708  0.2359  0.3094
  525MOL0     H72384   0.408   8.306   2.839 -0.0968 -1.6464 -0.9603
  525MOL0     H72385   0.676   8.416   2.885 -0.3390  1.5287  1.1608
  525MOL0     H72386   0.558   8.484   2.770  0.8171 -0.6666 -1.1208
  525MOL0     H72387   0.399   8.521   2.968 -0.2618 -4.9409 -2.7141
  525MOL0     H72388   0.523   8.461   3.076 -1.4124  1.3945  1.5181
  525MOL0     H72389   0.546   8.687   3.106 -1.1651  1.8160 -0.9488
  525MOL0     H72390   0.673   8.652   2.999  0.0846  0.8061  1.5445
  525MOL0     H72391   0.404   8.766   2.913 -0.8303  1.6590  5.3850
  525MOL0     H72392   0.552   8.758   2.820  2.5214 -0.7565  0.6896
  525MOL0     H72393   0.557   8.974   2.885  3.1276 -1.0979  0.1767
  525MOL0     H72394   0.474   8.948   3.037  0.3874  3.0811 -0.5916
  525MOL0     H72395   0.772   8.873   3.000  0.3379 -0.8775 -0.6924
  525MOL0     H72396   0.671   8.890   3.147 -0.4655 -0.9042 -1.2038
  525MOL0     H72397   0.814   9.052   3.145 -0.1051 -0.1372  0.3295
  525MOL0     H72398   0.782   9.105   2.976 -0.2702 -1.8076  0.3243
  525MOL0     H72399   0.599   9.086   3.326  1.8309  0.2519 -0.3367
  525MOL0     H72400   0.422   9.205   3.439  1.4203  0.2248  0.0805
  525MOL0     H72401   0.271   9.212   3.338  0.4265 -2.9011 -0.0310
  525MOL0     H72402   0.361   9.447   3.468  0.4467 -0.4852  0.8618
  525MOL0     H72403   0.477   9.442   3.338  0.2159 -2.1477 -1.8920
  525MOL0     H72404   0.290   9.463   3.184  0.1974 -0.9659 -0.0858
  525MOL0     H72405   0.173   9.451   3.325 -0.4894 -2.0657 -1.4472
  525MOL0     H72406   0.363   9.660   3.245 -1.2793  0.2834 -0.6407
  525MOL0     H72407   0.185   9.683   3.273 -2.3898 -0.9415  1.5767
  525MOL0     H72408   0.514   9.767   3.580 -2.1648 -1.8621  0.1941
  525MOL0     H72409   0.672  10.041   3.591  1.2955 -1.1536  0.5323
  525MOL0     H72410   0.606   9.928   3.720 -1.0361  0.0198  1.3224
  525MOL0     H72411   0.556  10.096   3.725 -0.2361 -1.7756  1.8424
  525MOL0     H72412   0.181  10.339   3.744  1.1360  0.0052  2.4285
  525MOL0     H72413   0.157  10.550   3.869 -1.4281  0.3103 -0.3015
  525MOL0     H72414   0.138  10.764   3.932 -0.2435  1.1189 -0.3541
  525MOL0     H72415   0.290  10.681   3.981 -1.0036 -0.4033 -1.9528
  525MOL0     H72416   0.234  10.892   4.099 -0.0992 -3.1958 -0.4417
  525MOL0     H72417   0.392  10.893   4.021  0.5026 -1.4282 -0.4508
  525MOL0     H72418   0.135  11.032   3.925 -0.7895 -2.0950  2.5009
  525MOL0     H72419   0.282  11.035   3.828  0.1674 -2.0791 -0.4702
  525MOL0     H72420   0.389  11.131   4.025  0.1897  1.8288 -2.3739
  525MOL0     H72421   0.230  11.158   4.116 -0.6764  0.8611  0.2627
  525MOL0     H72422   0.294  11.259   3.828  3.2402  2.1455 -0.0526
  525MOL0     H72423   0.171  11.316   3.937  0.5598  0.3601 -2.6584
  525MOL0     H72424   0.457  11.350   4.011  0.6960  0.3765  1.7587
  525MOL0     H72425   0.326  11.441   4.080 -0.1018  2.1150 -0.4263
  525MOL0     H72426   0.384  11.473   3.781  1.8269 -0.0506 -0.6029
  525MOL0     H72427   0.469  11.558   3.920 -0.7677  0.5773  0.9766
  525MOL0     H72428   0.168  11.558   3.883  2.0541 -3.9889  0.1816
  525MOL0     H72429   0.262  11.660   3.786 -2.3948  2.0304  0.6050
  525MOL0     H72430   0.400  10.742   3.569 -0.4605  1.3288  1.4099
  525MOL0     H72431   0.385  10.539   3.434 -3.1752 -1.8406 -0.4497
  525MOL0     H72432   0.203  10.116   3.394 -1.3684 -1.1084  0.4870
  525MOL0     H72433   0.171   9.900   3.348 -0.8896 -0.8627  0.9869
  525MOL0     H72434   0.354   8.394   2.647  2.5190  2.1126 -1.2525
  525MOL0     H72435   0.298   8.405   2.383  1.0828 -1.0189 -1.2593
  525MOL0     H72436   0.575   8.323   1.929  4.1150  2.7579 -0.5757
  525MOL0     H72437   0.561   8.382   1.698 -1.8121 -1.6041  0.6085
  525MOL0     H72438   0.448   8.435   1.502 -0.8827  0.3768 -0.8309
  525MOL0     H72439   0.436   8.574   1.399 -3.4770 -0.7284  1.1730
  525MOL0     H72440   0.647   8.501   1.371 -1.7391 -0.8765  0.4913
  525MOL0     H72441   0.691   8.499   1.543 -1.2916 -3.6164 -0.9603
  525MOL0     H72442   0.616   8.759   1.390 -1.7758 -2.1605 -0.7957
  525MOL0     H72443   0.657   8.756   1.568  3.3373  3.5521 -1.5242
  525MOL0     H72444   0.872   8.695   1.535 -2.5844  0.1863  1.7174
  525MOL0     H72445   0.848   8.838   1.441  1.1518 -0.4636 -0.3694
  525MOL0     H72446   0.964   8.528   1.169 -0.0257 -0.1897 -0.6064
  525MOL0     H72447   0.309   8.716   1.786  1.0658  0.3429 -0.7668
  525MOL0     H72448   0.229   8.637   2.097 -0.0121 -0.3132  0.6615
  525MOL0     H72449   0.360   8.761   2.106  0.6907 -3.2711  2.3523
  525MOL0     H72450   0.241   8.768   1.978  1.0285  1.6260 -0.1726
  526MOL0     O72451   7.119   1.991   2.760  0.0577 -0.7298 -0.0535
  526MOL0     C72452   7.215   1.987   2.835  0.1566  0.6377  0.5602
  526MOL0     O72453   7.209   1.974   2.966  0.9781  0.4814 -0.7545
  526MOL0     C72454   7.086   2.002   3.024  1.0408  0.1620  1.6764
  526MOL0     C72455   6.993   1.910   3.060 -0.0142  0.2173  0.3609
  526MOL0     C72456   6.871   1.942   3.128 -0.2699  0.2558 -0.1453
  526MOL0     C72457   6.840   2.072   3.158  0.3049  1.0991  0.8941
  526MOL0     O72458   6.720   2.096   3.226  0.3655 -0.5414  0.1402
  526MOL0     C72459   6.702   2.235   3.254 -0.1789  0.7433  0.2145
  526MOL0     C72460   6.793   2.274   3.371  0.8364 -0.2065  0.3502
  526MOL0     C72461   6.796   2.433   3.365 -1.2659 -0.7523 -0.6320
  526MOL0     C72462   6.880   2.482   3.482 -0.2008  0.3226 -0.2499
  526MOL0     C72463   6.871   2.635   3.497  0.4241 -0.1087 -0.0368
  526MOL0     C72464   6.986   2.697   3.584  0.1126 -0.3835  0.6194
  526MOL0     C72465   6.969   2.848   3.607  1.1086 -0.4510  0.0425
  526MOL0     C72466   7.036   2.925   3.495  0.5261  0.6965  0.3724
  526MOL0     N72467   6.998   3.071   3.503 -0.4507  0.6306 -1.0781
  526MOL0     C72468   7.067   3.174   3.563  0.2388 -0.8130 -0.3875
  526MOL0     C72469   6.988   3.289   3.549  0.4278  0.4979 -0.0493
  526MOL0     C72470   7.045   3.421   3.605 -0.2450 -0.4536  0.1201
  526MOL0     C72471   7.006   3.545   3.516 -0.0651  0.5215  0.9566
  526MOL0     C72472   7.089   3.673   3.537  0.7129 -0.0487  0.0398
  526MOL0     C72473   7.103   3.741   3.679  0.6734  0.0267  0.0256
  526MOL0     O72474   6.970   3.781   3.716 -0.0386  0.1552 -0.6703
  526MOL0     C72475   6.942   3.921   3.729  0.0259  0.6931  0.6305
  526MOL0     C72476   7.017   4.012   3.803  0.2807 -0.0934  0.4176
  526MOL0     C72477   6.980   4.156   3.797  1.0893  0.2352  1.0939
  526MOL0     C72478   7.076   4.251   3.849  0.1825 -1.2430  0.4724
  526MOL0     C72479   6.860   4.189   3.718 -0.2206 -0.6710 -0.6378
  526MOL0     C72480   6.818   4.322   3.675  0.3893 -1.2266 -1.3729
  526MOL0     O72481   6.679   4.344   3.695 -0.4091 -0.2137  0.4553
  526MOL0     C72482   6.628   4.454   3.633  0.3211  0.5967 -0.5284
  526MOL0     C72483   6.580   4.446   3.505 -0.0199 -0.1641 -0.2094
  526MOL0     C72484   6.517   4.561   3.440  0.3303 -0.0197  0.1153
  526MOL0     C72485   6.508   4.689   3.501 -0.6283 -0.1430 -0.4902
  526MOL0     O72486   6.449   4.784   3.429  0.0697  0.1766 -0.4615
  526MOL0     C72487   6.474   4.925   3.452 -1.1199  0.4518 -0.5575
  526MOL0     C72488   6.427   4.994   3.326  0.1594 -0.1298  0.1209
  526MOL0     C72489   6.464   5.141   3.329  0.4951  0.1325  0.2725
  526MOL0     C72490   6.615   5.171   3.293 -0.2050  1.1453 -0.1570
  526MOL0     C72491   6.672   5.318   3.298  0.0079 -0.1012 -0.6223
  526MOL0     C72492   6.701   5.361   3.439 -0.2840  1.0013 -0.8421
  526MOL0     C72493   6.791   5.479   3.461  0.5865 -0.0297 -0.7323
  526MOL0     C72494   6.817   5.498   3.615 -0.4292 -0.4060 -0.8686
  526MOL0    Cl72495   6.944   5.610   3.631  0.1334 -0.1279 -0.5359
  526MOL0     C72496   6.565   4.692   3.630 -0.6033 -0.1623 -0.4411
  526MOL0     C72497   6.616   4.580   3.695 -0.5372 -0.1055 -0.8952
  526MOL0     O72498   6.896   4.400   3.618 -0.0613 -0.4733 -0.5529
  526MOL0     C72499   6.801   4.090   3.644 -0.2509 -0.7698 -0.5843
  526MOL0     C72500   6.833   3.956   3.651 -0.3508 -0.7493 -0.4184
  526MOL0     N72501   6.863   3.245   3.497  0.1635 -0.1798  0.3736
  526MOL0     N72502   6.882   3.119   3.461 -0.3126 -0.1609  0.2015
  526MOL0     C72503   6.926   2.165   3.101 -0.4142  0.0304 -0.0782
  526MOL0     C72504   7.047   2.128   3.036 -0.8905  0.0513  0.9250
  526MOL0     C72505   7.353   1.994   2.775  1.3489  0.2901 -0.5718
  526MOL0     C72506   7.449   1.938   2.850  1.6646  0.0081  1.3137
  526MOL0     C72507   7.580   1.956   2.815  0.1747 -0.3169 -0.7926
  526MOL0     C72508   7.615   2.023   2.699  1.6650 -0.6603  1.1832
  526MOL0     O72509   7.743   2.031   2.664  0.2339 -0.0983  0.1946
  526MOL0     C72510   7.793   2.056   2.532 -0.4811 -0.0481  0.4951
  526MOL0     C72511   7.800   2.199   2.491  0.4425  0.3403  0.3761
  526MOL0     C72512   7.870   2.224   2.359  0.5174  1.3757  0.4695
  526MOL0     C72513   7.792   2.307   2.259  0.6176  0.2032 -0.7363
  526MOL0     C72514   7.880   2.354   2.152  0.0705 -0.1936  0.0569
  526MOL0     C72515   7.947   2.415   2.063 -0.4958 -0.1615 -0.2914
  526MOL0     C72516   7.506   2.070   2.615 -0.4381  0.9733 -0.3083
  526MOL0     C72517   7.380   2.062   2.656  0.8007 -0.7457 -0.1395
  526MOL0     C72518   7.270   2.114   2.566 -0.5370 -0.3083 -0.6698
  526MOL0     H72519   6.995   1.807   3.026 -1.2115 -0.0365  1.0071
  526MOL0     H72520   6.793   1.868   3.140 -3.6861  3.4251 -1.1513
  526MOL0     H72521   6.600   2.250   3.290 -1.1519  0.9977 -2.4418
  526MOL0     H72522   6.714   2.293   3.163  0.3043 -2.9854 -2.3287
  526MOL0     H72523   6.731   2.249   3.458  0.8891  0.5408  0.6138
  526MOL0     H72524   6.888   2.220   3.369 -0.3994 -2.5324  0.6817
  526MOL0     H72525   6.840   2.460   3.269  0.4753 -3.8757 -0.8362
  526MOL0     H72526   6.693   2.468   3.379  0.5610  4.6538  2.2633
  526MOL0     H72527   6.833   2.431   3.566 -1.8098  1.6600 -0.2929
  526MOL0     H72528   6.987   2.457   3.485 -0.1498  0.6222  1.1424
  526MOL0     H72529   6.773   2.671   3.531  0.1899 -2.9020  2.6220
  526MOL0     H72530   6.880   2.678   3.396  1.2490 -0.5911 -0.1743
  526MOL0     H72531   6.982   2.646   3.681 -2.9190  0.8316  1.2675
  526MOL0     H72532   7.079   2.668   3.536 -0.6487 -1.1100 -0.4600
  526MOL0     H72533   7.012   2.868   3.705  1.6467 -0.1254 -0.2503
  526MOL0     H72534   6.864   2.876   3.606  0.6944 -1.8647 -1.4772
  526MOL0     H72535   7.143   2.910   3.513 -0.0549 -2.5113  1.9269
  526MOL0     H72536   7.008   2.885   3.398  1.0539  0.3008  0.3774
  526MOL0     H72537   7.171   3.180   3.593 -0.0181 -0.7788  0.5062
  526MOL0     H72538   7.153   3.408   3.612 -0.3936 -1.5602  0.5892
  526MOL0     H72539   6.992   3.444   3.698  0.4982  3.5844 -0.2903
  526MOL0     H72540   7.039   3.527   3.413  1.8480  5.4596  0.4362
  526MOL0     H72541   6.901   3.571   3.531  0.3497  2.3813  0.8466
  526MOL0     H72542   7.187   3.642   3.501  0.4604 -0.6688 -0.1403
  526MOL0     H72543   7.050   3.742   3.462  1.3937 -0.5332 -0.7761
  526MOL0     H72544   7.151   3.673   3.750 -1.0322 -0.6089  0.6028
  526MOL0     H72545   7.156   3.836   3.670 -0.6156  0.7841  0.2873
  526MOL0     H72546   7.113   3.978   3.840 -0.3312 -2.3975 -0.0089
  526MOL0     H72547   7.097   4.224   3.953  2.3568  0.4847  0.5624
  526MOL0     H72548   7.036   4.352   3.849 -3.2083 -2.4601  0.0412
  526MOL0     H72549   7.166   4.251   3.788 -0.1722  2.8928 -0.3386
  526MOL0     H72550   6.574   4.347   3.459 -1.6639 -0.5740  0.7911
  526MOL0     H72551   6.473   4.556   3.341  1.0715  1.8748 -0.3545
  526MOL0     H72552   6.422   4.953   3.545  1.3953  1.1422  0.7198
  526MOL0     H72553   6.581   4.937   3.466 -0.1405 -1.0322 -5.1603
  526MOL0     H72554   6.454   4.945   3.232 -1.4320 -0.0437 -0.4037
  526MOL0     H72555   6.318   4.996   3.327 -0.0358  4.0673 -2.9547
  526MOL0     H72556   6.430   5.179   3.426 -2.7319 -0.7609 -0.3730
  526MOL0     H72557   6.389   5.196   3.271 -0.6619 -0.8373  0.7994
  526MOL0     H72558   6.637   5.148   3.189  2.2354 -2.0627  0.8870
  526MOL0     H72559   6.684   5.114   3.357 -0.3353  3.8449  2.6654
  526MOL0     H72560   6.764   5.328   3.239 -1.3230  0.5887 -2.6897
  526MOL0     H72561   6.602   5.390   3.254 -0.5364 -2.4713 -4.0103
  526MOL0     H72562   6.748   5.276   3.489 -1.7596  1.8917  2.3212
  526MOL0     H72563   6.601   5.362   3.483 -2.1464  0.8905 -4.6754
  526MOL0     H72564   6.745   5.569   3.421  2.5218  0.0163 -3.0670
  526MOL0     H72565   6.888   5.469   3.411  0.9559 -2.8071  0.3631
  526MOL0     H72566   6.851   5.409   3.669  1.3982  0.6055 -0.2494
  526MOL0     H72567   6.725   5.531   3.665  0.1539 -1.8065  1.2694
  526MOL0     H72568   6.572   4.790   3.677 -2.0158  0.1623 -0.8680
  526MOL0     H72569   6.652   4.602   3.795 -0.1316 -1.4956 -0.7101
  526MOL0     H72570   6.717   4.120   3.583 -2.8602 -2.4475  1.9313
  526MOL0     H72571   6.778   3.885   3.591  1.5660 -1.5259 -1.3312
  526MOL0     H72572   6.893   2.268   3.105  1.1082  0.5713 -0.8546
  526MOL0     H72573   7.112   2.205   2.995  0.2056 -1.1086  0.4316
  526MOL0     H72574   7.419   1.882   2.938  0.6103  1.0091  1.6258
  526MOL0     H72575   7.665   1.926   2.876 -0.5302  0.0499  0.3881
  526MOL0     H72576   7.891   2.008   2.539 -0.1515  0.6489  0.7201
  526MOL0     H72577   7.735   2.009   2.452  0.7735  3.7248 -3.0262
  526MOL0     H72578   7.856   2.246   2.572  0.7344  2.1563 -0.8072
  526MOL0     H72579   7.699   2.241   2.489  0.0978 -0.2154 -4.0150
  526MOL0     H72580   7.970   2.266   2.369  1.4746 -0.1453 -1.7789
  526MOL0     H72581   7.881   2.122   2.322 -3.3205  0.5582  1.1961
  526MOL0     H72582   7.746   2.391   2.313 -0.5714 -1.9479  1.8312
  526MOL0     H72583   7.719   2.245   2.207  1.1850 -0.5383 -0.6583
  526MOL0     H72584   8.003   2.470   1.991  1.3510 -1.5806 -0.0136
  526MOL0     H72585   7.538   2.103   2.517  0.8430 -2.4242 -1.1641
  526MOL0     H72586   7.306   2.189   2.495 -0.1606 -4.0873 -4.9707
  526MOL0     H72587   7.248   2.030   2.499  1.1713 -1.6230  0.3205
  526MOL0     H72588   7.192   2.156   2.630  1.8739  1.2092  1.4726
  527MOL0     O72589   3.934   4.360   8.682  0.3718  0.5176  0.7844
  527MOL0     C72590   3.863   4.278   8.733 -0.0838 -0.5360  0.0306
  527MOL0     O72591   3.825   4.271   8.862 -0.1867  0.1279 -0.2302
  527MOL0     C72592   3.868   4.353   8.966 -0.2183  0.5124 -0.0005
  527MOL0     C72593   3.978   4.443   8.968  0.4229 -0.1031 -0.4441
  527MOL0     C72594   3.998   4.537   9.067  0.1820 -0.5612  0.2863
  527MOL0     C72595   3.902   4.543   9.170  0.2913 -0.7243  0.1949
  527MOL0     O72596   3.921   4.637   9.263 -0.6960 -0.4082  0.1017
  527MOL0     C72597   3.828   4.644   9.367  0.1802  0.2231 -1.3875
  527MOL0     C72598   3.849   4.773   9.453  0.3915 -0.3290  0.2377
  527MOL0     C72599   3.825   4.905   9.371  1.4253 -0.8459 -0.3244
  527MOL0     C72600   3.683   4.959   9.409 -0.2819 -0.0119  0.3172
  527MOL0     C72601   3.672   5.103   9.368 -0.0578 -0.2915  0.1616
  527MOL0     C72602   3.542   5.170   9.418 -0.0604  1.0683 -0.3558
  527MOL0     C72603   3.514   5.312   9.347 -0.4708 -0.0296  0.2473
  527MOL0     C72604   3.638   5.404   9.349 -0.9535 -0.3402  0.0470
  527MOL0     N72605   3.613   5.538   9.290 -0.1352  0.4629  0.0957
  527MOL0     C72606   3.527   5.626   9.351 -0.0879 -1.2113  0.4283
  527MOL0     C72607   3.542   5.750   9.288  1.3628  0.6470  0.4898
  527MOL0     C72608   3.459   5.878   9.309 -0.1156 -0.6951  0.5081
  527MOL0     C72609   3.310   5.861   9.285  0.1826 -0.1960  0.1000
  527MOL0     C72610   3.265   5.800   9.151 -0.4567  0.9299  0.2747
  527MOL0     C72611   3.116   5.775   9.124 -0.0168  0.0856 -0.4894
  527MOL0     O72612   3.046   5.680   9.205  0.6301 -0.0190 -0.4363
  527MOL0     C72613   3.087   5.550   9.202  0.2480 -0.4443 -0.6967
  527MOL0     C72614   3.067   5.470   9.325 -0.0413 -0.2174 -0.6645
  527MOL0     C72615   3.095   5.328   9.328 -0.8294 -0.1066 -0.0959
  527MOL0     C72616   3.072   5.250   9.460 -1.0174 -0.0185  0.1797
  527MOL0     C72617   3.164   5.269   9.216  0.1351 -0.4104  0.4116
  527MOL0     C72618   3.203   5.123   9.205  0.2769 -0.5277 -0.2393
  527MOL0     O72619   3.268   5.084   9.083  0.3858 -0.0897 -1.0082
  527MOL0     C72620   3.284   4.951   9.068 -0.4079 -0.9215 -0.4441
  527MOL0     C72621   3.417   4.903   9.079  0.5143 -0.0806  0.3255
  527MOL0     C72622   3.444   4.762   9.055 -0.5150  0.0294 -0.3216
  527MOL0     C72623   3.345   4.673   9.036  0.2741  0.0186  1.1501
  527MOL0     O72624   3.367   4.545   9.012 -0.3895  0.2421  0.0243
  527MOL0     C72625   3.477   4.485   8.936  0.2486  0.2805  0.3876
  527MOL0     C72626   3.449   4.335   8.926  0.1913  0.8582 -0.1844
  527MOL0     C72627   3.320   4.314   8.843 -0.8397  0.2813 -0.6112
  527MOL0     C72628   3.290   4.166   8.825 -0.8541  0.1236 -0.3847
  527MOL0     C72629   3.206   4.139   8.702 -0.8388 -0.6414  0.5680
  527MOL0     C72630   3.147   3.994   8.690  0.5056 -0.3852 -0.1030
  527MOL0     C72631   3.262   3.892   8.679 -0.5169  0.0550 -0.4573
  527MOL0     C72632   3.217   3.755   8.643  0.5701 -0.3573 -0.3435
  527MOL0    Cl72633   3.172   3.720   8.474  0.1866  0.1758 -0.0402
  527MOL0     C72634   3.216   4.716   9.043  1.1452 -0.1882 -1.2037
  527MOL0     C72635   3.185   4.856   9.039 -0.9598  0.3058  0.1066
  527MOL0     O72636   3.185   5.042   9.296 -0.1527 -0.0659 -0.1717
  527MOL0     C72637   3.176   5.350   9.101  0.3507 -0.7566 -0.2553
  527MOL0     C72638   3.148   5.488   9.092 -0.1653 -0.4779 -0.8995
  527MOL0     N72639   3.640   5.731   9.201 -0.1046  0.2499  0.6681
  527MOL0     N72640   3.688   5.607   9.200  0.7568  0.1759  0.0578
  527MOL0     C72641   3.804   4.452   9.179  0.2707  0.0344  0.4873
  527MOL0     C72642   3.788   4.357   9.078 -0.3761 -0.2941  1.3293
  527MOL0     C72643   3.802   4.169   8.648  0.6023  0.7864  0.7328
  527MOL0     C72644   3.726   4.067   8.708  0.4875  0.1574 -0.4217
  527MOL0     C72645   3.658   3.972   8.642  0.0511 -1.2017 -0.3268
  527MOL0     C72646   3.673   3.964   8.508 -0.3835 -0.2326  0.0118
  527MOL0     O72647   3.609   3.874   8.425  0.1113  0.4424 -0.6002
  527MOL0     C72648   3.573   3.745   8.463 -0.9632  0.6550  0.0350
  527MOL0     C72649   3.497   3.675   8.355 -1.1999 -1.0632 -0.9150
  527MOL0     C72650   3.582   3.648   8.236 -0.7858  0.2975 -0.0605
  527MOL0     C72651   3.553   3.747   8.126  0.1711 -0.0311 -0.1610
  527MOL0     C72652   3.633   3.695   8.008  0.8931 -0.2713  0.3509
  527MOL0     C72653   3.704   3.653   7.919 -0.5025 -0.0029 -0.1245
  527MOL0     C72654   3.747   4.060   8.438 -0.1503 -0.6360 -1.0597
  527MOL0     C72655   3.810   4.165   8.496 -0.1849  0.1349 -1.3394
  527MOL0     C72656   3.848   4.269   8.399  0.2174  0.2340 -0.0178
  527MOL0     H72657   4.054   4.444   8.891  3.8211 -0.4336  2.6508
  527MOL0     H72658   4.086   4.599   9.061  0.2124 -0.6516 -0.2683
  527MOL0     H72659   3.825   4.564   9.442  1.5571 -0.8543 -2.4349
  527MOL0     H72660   3.725   4.652   9.332 -0.2493 -0.3482 -0.3151
  527MOL0     H72661   3.780   4.771   9.538  0.6849  0.1322  0.4857
  527MOL0     H72662   3.945   4.781   9.504  0.6044 -2.5257  0.2475
  527MOL0     H72663   3.903   4.974   9.405 -0.3416 -0.0881  2.5200
  527MOL0     H72664   3.825   4.899   9.261 -2.9757  0.5230 -0.5696
  527MOL0     H72665   3.601   4.898   9.370 -0.6425 -1.0990  2.5637
  527MOL0     H72666   3.684   4.951   9.519 -1.5994  0.4934  0.3852
  527MOL0     H72667   3.679   5.109   9.259  1.5778 -1.9120  0.1294
  527MOL0     H72668   3.752   5.165   9.409  0.3009  0.5603 -1.7244
  527MOL0     H72669   3.457   5.105   9.395  0.8663 -0.1166 -0.4850
  527MOL0     H72670   3.542   5.188   9.526 -1.0792 -0.4230 -0.0771
  527MOL0     H72671   3.424   5.362   9.384 -2.2870  0.0202 -3.6555
  527MOL0     H72672   3.482   5.290   9.244 -1.3408  1.5893  0.1321
  527MOL0     H72673   3.678   5.423   9.449  2.6567  1.4315 -1.5392
  527MOL0     H72674   3.710   5.344   9.293 -2.1979  0.5511 -2.7159
  527MOL0     H72675   3.443   5.600   9.415 -2.5473 -0.4951 -2.2822
  527MOL0     H72676   3.486   5.950   9.232  0.5104  0.4399  1.7416
  527MOL0     H72677   3.476   5.923   9.407  0.4903 -0.7164  0.4211
  527MOL0     H72678   3.271   5.790   9.358  1.2701 -1.0003 -0.0866
  527MOL0     H72679   3.262   5.958   9.304  2.6423  1.2550 -0.5122
  527MOL0     H72680   3.304   5.862   9.069  0.9533 -3.0962 -2.4379
  527MOL0     H72681   3.309   5.700   9.148  0.6834  1.4024  0.6803
  527MOL0     H72682   3.048   5.859   9.145 -2.8905 -2.3863  0.8544
  527MOL0     H72683   3.093   5.745   9.021 -2.0709 -0.1599 -0.0064
  527MOL0     H72684   3.032   5.516   9.417  1.2085  0.2604 -0.4077
  527MOL0     H72685   3.037   5.309   9.545 -3.8261 -0.7822 -0.3431
  527MOL0     H72686   3.165   5.201   9.489  0.2981  2.8118  1.0764
  527MOL0     H72687   2.994   5.175   9.444  0.0076 -1.9411  3.2833
  527MOL0     H72688   3.499   4.972   9.095 -1.0614  1.2344  3.7806
  527MOL0     H72689   3.547   4.729   9.040 -1.4633 -2.2885 -2.2726
  527MOL0     H72690   3.485   4.526   8.835  2.0049 -0.0140  0.3646
  527MOL0     H72691   3.576   4.491   8.983  0.8837 -1.3750 -0.6348
  527MOL0     H72692   3.530   4.293   8.867  0.4467  2.8618 -1.3386
  527MOL0     H72693   3.431   4.287   9.023 -1.6382 -1.0433 -1.3775
  527MOL0     H72694   3.336   4.381   8.757 -0.4822  0.0003 -0.7679
  527MOL0     H72695   3.241   4.356   8.905 -0.6090 -0.2701  0.0626
  527MOL0     H72696   3.232   4.123   8.907 -1.8754 -1.5403 -1.9069
  527MOL0     H72697   3.387   4.117   8.813  0.8304  3.2769 -0.7772
  527MOL0     H72698   3.135   4.222   8.708  1.8694  1.9224 -0.3060
  527MOL0     H72699   3.259   4.151   8.607 -0.6614  0.5299  0.7929
  527MOL0     H72700   3.083   3.990   8.601 -1.7520 -0.4396  1.4378
  527MOL0     H72701   3.092   3.978   8.784 -2.1605  1.4626 -1.2317
  527MOL0     H72702   3.318   3.895   8.773  0.4033 -0.4067 -0.9742
  527MOL0     H72703   3.330   3.932   8.602 -2.1957  0.8245 -1.6034
  527MOL0     H72704   3.124   3.724   8.694 -1.0665 -0.3165 -3.0956
  527MOL0     H72705   3.292   3.681   8.671 -0.0757 -0.3962  1.4137
  527MOL0     H72706   3.132   4.650   9.023  0.1305  1.5743 -3.1646
  527MOL0     H72707   3.078   4.874   9.033 -0.7414  1.3289 -1.0070
  527MOL0     H72708   3.202   5.315   9.002 -1.6507  3.2759 -2.4532
  527MOL0     H72709   3.166   5.555   9.009 -0.5618  0.2848 -0.3808
  527MOL0     H72710   3.734   4.437   9.261  1.4397 -0.4827  1.4128
  527MOL0     H72711   3.700   4.293   9.081 -1.0119  0.5177  0.6413
  527MOL0     H72712   3.730   4.056   8.816  0.3672 -2.4712 -0.6176
  527MOL0     H72713   3.595   3.900   8.694 -0.0866  0.5937  2.1705
  527MOL0     H72714   3.664   3.690   8.490  1.4949  4.0375 -0.7887
  527MOL0     H72715   3.516   3.741   8.557 -1.4412  2.6407 -0.1167
  527MOL0     H72716   3.414   3.743   8.333  1.1609  2.8151  1.0224
  527MOL0     H72717   3.459   3.582   8.398 -0.5783 -1.3200 -0.9120
  527MOL0     H72718   3.688   3.659   8.260 -1.1558  3.3134  0.4964
  527MOL0     H72719   3.571   3.543   8.208 -0.0298 -0.4507  2.2771
  527MOL0     H72720   3.567   3.855   8.142 -1.8985  0.1344  0.8026
  527MOL0     H72721   3.453   3.725   8.090  0.6833  0.3348 -1.8830
  527MOL0     H72722   3.779   3.615   7.853  1.0395  1.1410  0.9043
  527MOL0     H72723   3.751   4.042   8.331 -0.4156 -3.0428 -0.7175
  527MOL0     H72724   3.793   4.263   8.305  0.0211  1.2922  0.0181
  527MOL0     H72725   3.833   4.371   8.437 -1.2244  0.1681 -0.3713
  527MOL0     H72726   3.956   4.256   8.388  0.0791 -2.3321  1.0215
  528MOL0     O72727   9.890   9.099   9.890  0.2307 -0.0694  0.9867
  528MOL0     C72728   9.877   9.205   9.947 -0.0012 -0.2334 -0.5233
  528MOL0     O72729   9.882   9.329   9.888  0.2679  0.4664 -0.1396
  528MOL0     C72730   9.887   9.340   9.754  1.7532  0.0804  0.2704
  528MOL0     C72731   9.775   9.341   9.665  0.7704 -0.6888 -0.0736
  528MOL0     C72732   9.790   9.337   9.527  0.2087  0.3785 -0.6072
  528MOL0     C72733   9.912   9.352   9.467 -0.1762 -0.8327 -0.6032
  528MOL0     O72734   9.940   9.338   9.338  0.0659  0.4269  0.0422
  528MOL0     C72735   9.937   9.205   9.286 -0.2322 -0.8342  0.5814
  528MOL0     C72736   9.834   9.177   9.174 -0.2198  1.3673  0.9440
  528MOL0     C72737   9.689   9.214   9.196 -0.4127  0.3153 -0.5728
  528MOL0     C72738   9.586   9.126   9.119 -0.7451 -0.2746  0.4635
  528MOL0     C72739   9.447   9.183   9.122 -0.5520  0.9608  0.7474
  528MOL0     C72740   9.382   9.158   9.256 -0.9589 -0.2259  0.4912
  528MOL0     C72741   9.325   9.017   9.285 -0.9116 -0.0059  0.3483
  528MOL0     C72742   9.249   8.942   9.172 -0.2223 -0.5878  0.2751
  528MOL0     N72743   9.164   8.829   9.204  0.1915  0.5353 -0.5721
  528MOL0     C72744   9.204   8.719   9.279 -0.5426 -0.2437  0.1423
  528MOL0     C72745   9.101   8.631   9.276  0.2943  0.8364 -0.3690
  528MOL0     C72746   9.103   8.493   9.342 -0.4340 -0.1725  1.1118
  528MOL0     C72747   9.117   8.385   9.236  0.6997  0.6700  0.0703
  528MOL0     C72748   9.258   8.375   9.183 -0.4806  0.7015  0.9741
  528MOL0     C72749   9.259   8.389   9.030  1.0345  0.2968 -0.6379
  528MOL0     O72750   9.209   8.270   8.965 -0.0777  0.5285 -1.1577
  528MOL0     C72751   9.286   8.164   8.925 -0.4719 -0.8927  0.6825
  528MOL0     C72752   9.232   8.079   8.831 -0.2339 -0.0050  0.2359
  528MOL0     C72753   9.294   7.963   8.776 -0.1154  1.0506  0.2257
  528MOL0     C72754   9.220   7.885   8.678  0.3901 -0.3814  1.1218
  528MOL0     C72755   9.428   7.939   8.822  0.9294  1.1925 -0.1823
  528MOL0     C72756   9.517   7.823   8.788 -0.2817 -0.6396  0.1807
  528MOL0     O72757   9.461   7.711   8.732  0.3530  0.8400 -0.3723
  528MOL0     C72758   9.510   7.583   8.754 -0.3826  0.8832  0.1022
  528MOL0     C72759   9.510   7.491   8.647  0.1580 -0.1990  0.3500
  528MOL0     C72760   9.553   7.356   8.660 -0.6934 -0.0906 -0.8434
  528MOL0     C72761   9.614   7.307   8.783 -1.1881 -0.5892 -0.3145
  528MOL0     O72762   9.661   7.182   8.807 -0.0755 -0.0855 -0.4362
  528MOL0     C72763   9.622   7.078   8.714 -1.4774 -0.4540 -0.3543
  528MOL0     C72764   9.660   6.938   8.772  0.2308  0.0847  0.1585
  528MOL0     C72765   9.634   6.920   8.923  0.9584 -0.2451  0.0023
  528MOL0     C72766   9.481   6.915   8.957 -0.7692  0.0319  1.0811
  528MOL0     C72767   9.471   6.858   9.101 -0.0247 -0.7345  0.2671
  528MOL0     C72768   9.341   6.788   9.114  0.0145  0.0763 -0.1720
  528MOL0     C72769   9.326   6.701   9.236  0.5177 -0.0693  0.7704
  528MOL0     C72770   9.356   6.786   9.366 -0.1350  0.7102  0.5021
  528MOL0    Cl72771   9.217   6.895   9.405  0.4177  0.0647 -0.1941
  528MOL0     C72772   9.619   7.406   8.881 -0.5538 -0.1457 -0.5905
  528MOL0     C72773   9.574   7.539   8.868  0.1002  0.1659  0.5824
  528MOL0     O72774   9.636   7.838   8.796 -0.3456 -0.8495  0.0000
  528MOL0     C72775   9.485   8.029   8.911 -0.0873  0.0836 -0.4329
  528MOL0     C72776   9.419   8.137   8.964  0.9981  0.0774  0.3465
  528MOL0     N72777   9.008   8.690   9.197  0.2466 -0.1222 -0.3936
  528MOL0     N72778   9.042   8.802   9.153  0.6592  0.8126  0.4981
  528MOL0     C72779  10.023   9.366   9.550  0.2431  0.0897  0.2998
  528MOL0     C72780  10.013   9.366   9.693  0.2234  0.9732 -0.1239
  528MOL0     C72781   9.835   9.200  10.098 -0.2398 -0.6654  0.3011
  528MOL0     C72782   9.738   9.101  10.139 -0.1075  0.3691  0.2660
  528MOL0     C72783   9.702   9.086  10.275 -0.5885  0.6562  0.8832
  528MOL0     C72784   9.768   9.154  10.375  0.2630  0.3393 -0.5560
  528MOL0     O72785   9.728   9.111  10.501 -0.0108 -0.5409  0.7368
  528MOL0     C72786   9.809   9.158  10.607  0.9801  0.5524  0.4000
  528MOL0     C72787   9.740   9.118  10.736  0.6820  0.6168  0.1453
  528MOL0     C72788   9.775   9.224  10.843  0.0448 -0.2043 -0.9549
  528MOL0     C72789   9.712   9.186  10.970  0.8334 -0.0150 -0.7050
  528MOL0     C72790   9.797   9.089  11.040 -0.0252  0.6696  0.1116
  528MOL0     C72791   9.843   9.000  11.102 -0.4683 -0.2321  0.7916
  528MOL0     C72792   9.860   9.255  10.334  0.6486 -0.2326 -0.4632
  528MOL0     C72793   9.890   9.275  10.197  0.1696 -0.4452 -0.5093
  528MOL0     C72794   9.991   9.381  10.171  0.1186 -0.4793 -0.2152
  528MOL0     H72795   9.680   9.323   9.715  1.5248  0.6226  1.9815
  528MOL0     H72796   9.704   9.325   9.461 -0.3305 -4.3375  0.6123
  528MOL0     H72797   9.909   9.132   9.363 -0.2711 -1.1568  0.2659
  528MOL0     H72798  10.039   9.177   9.256 -0.3758 -2.3135  1.3511
  528MOL0     H72799   9.869   9.224   9.082 -3.7096  2.4536  0.0139
  528MOL0     H72800   9.839   9.070   9.149  1.6817  1.3529  1.2646
  528MOL0     H72801   9.671   9.203   9.303  1.1522  1.1098 -0.1822
  528MOL0     H72802   9.676   9.317   9.161 -3.4539 -0.3186 -1.5740
  528MOL0     H72803   9.613   9.120   9.013 -3.7909 -2.1230 -0.3270
  528MOL0     H72804   9.597   9.021   9.146  1.6705  0.1121  1.2665
  528MOL0     H72805   9.387   9.129   9.049  2.4605 -0.5964 -0.7795
  528MOL0     H72806   9.452   9.287   9.088 -3.5359  0.6968 -0.7620
  528MOL0     H72807   9.439   9.202   9.338  0.0282 -1.0485  0.2689
  528MOL0     H72808   9.292   9.218   9.239 -0.2880  0.8714  0.7514
  528MOL0     H72809   9.259   9.036   9.370 -1.6368  0.9459 -0.3925
  528MOL0     H72810   9.405   8.956   9.328 -2.3278 -0.9750  1.7250
  528MOL0     H72811   9.183   9.015   9.123 -1.6045 -1.5684  0.6281
  528MOL0     H72812   9.322   8.902   9.101 -0.0681 -0.4592  0.3616
  528MOL0     H72813   9.304   8.709   9.320  0.3326 -0.8484 -1.9935
  528MOL0     H72814   9.006   8.475   9.389 -2.1180  3.0730 -0.6735
  528MOL0     H72815   9.186   8.479   9.411 -0.4284  1.0880  1.3924
  528MOL0     H72816   9.082   8.291   9.279  1.5148  1.0043  1.5485
  528MOL0     H72817   9.039   8.406   9.162 -1.4076 -3.2600  0.9173
  528MOL0     H72818   9.335   8.446   9.216  1.9571 -1.0545 -0.5389
  528MOL0     H72819   9.291   8.277   9.220 -1.2518  0.4330  0.9633
  528MOL0     H72820   9.190   8.471   9.006 -0.0539  0.2632  1.9773
  528MOL0     H72821   9.359   8.412   8.992  2.7044 -0.5692  2.8268
  528MOL0     H72822   9.133   8.096   8.791  0.0197  1.9453  0.3163
  528MOL0     H72823   9.173   7.953   8.606  0.1717  1.2443  2.7354
  528MOL0     H72824   9.134   7.841   8.730  0.1529 -0.5284  0.6103
  528MOL0     H72825   9.273   7.806   8.623  2.5829  3.1547 -2.3443
  528MOL0     H72826   9.469   7.517   8.550 -0.2313  0.4843  0.6921
  528MOL0     H72827   9.560   7.284   8.579  1.8367 -0.8418 -0.0435
  528MOL0     H72828   9.515   7.092   8.694 -0.6891  1.7006 -4.1853
  528MOL0     H72829   9.693   7.095   8.632 -0.0717  0.0564  0.9377
  528MOL0     H72830   9.620   6.859   8.707  0.1925  1.5022 -1.6075
  528MOL0     H72831   9.767   6.927   8.755  0.2696  4.0249 -4.1983
  528MOL0     H72832   9.672   7.008   8.976  0.1968 -0.2711  0.6050
  528MOL0     H72833   9.685   6.832   8.961  0.5571  0.4131  2.1764
  528MOL0     H72834   9.455   6.829   8.895  6.1551 -2.5977  0.9268
  528MOL0     H72835   9.436   7.014   8.945  1.3122  1.1561  1.9346
  528MOL0     H72836   9.549   6.782   9.114 -0.8170 -1.5989  0.0530
  528MOL0     H72837   9.490   6.943   9.167  2.4134 -0.9938  0.0010
  528MOL0     H72838   9.302   6.738   9.025  0.5900 -0.5021 -0.1055
  528MOL0     H72839   9.264   6.864   9.130 -0.6208 -0.6372  0.2408
  528MOL0     H72840   9.389   6.613   9.223  0.2410  0.0961 -2.4434
  528MOL0     H72841   9.225   6.660   9.229  0.9977 -1.8099  2.8320
  528MOL0     H72842   9.442   6.853   9.358  0.6754 -0.4549 -1.2324
  528MOL0     H72843   9.380   6.711   9.442  1.7291  0.0147 -0.6682
  528MOL0     H72844   9.660   7.381   8.979 -1.3703  2.3845  0.4985
  528MOL0     H72845   9.575   7.611   8.950 -1.2319 -0.9314  1.6180
  528MOL0     H72846   9.586   8.030   8.950 -1.7284  4.0927  4.9082
  528MOL0     H72847   9.463   8.196   9.043 -0.3904 -0.3218  1.4624
  528MOL0     H72848  10.119   9.366   9.500  0.1953 -0.9542  0.1754
  528MOL0     H72849  10.098   9.371   9.759 -1.2450 -0.6207  2.0057
  528MOL0     H72850   9.693   9.043  10.059  1.4702  0.2216 -0.5506
  528MOL0     H72851   9.631   9.007  10.298  0.1382 -0.7025 -1.2454
  528MOL0     H72852   9.909   9.114  10.609  0.2445 -1.2210  0.0740
  528MOL0     H72853   9.821   9.267  10.607  0.8547  0.5893 -1.0772
  528MOL0     H72854   9.781   9.018  10.755 -3.3780 -1.5526 -1.4300
  528MOL0     H72855   9.634   9.108  10.714  1.1645  0.4743 -2.3741
  528MOL0     H72856   9.884   9.234  10.848  0.3419 -2.4758 -1.5213
  528MOL0     H72857   9.717   9.312  10.814 -0.8416 -0.4756 -0.0654
  528MOL0     H72858   9.611   9.146  10.953  0.2318  1.1043  0.0898
  528MOL0     H72859   9.705   9.273  11.036  1.9193 -0.9628  0.7085
  528MOL0     H72860   9.881   8.909  11.145  0.2021  0.5504  1.8987
  528MOL0     H72861   9.917   9.312  10.407  1.6212 -1.5996 -0.1219
  528MOL0     H72862   9.940   9.468  10.129  3.5376  0.7218 -2.2969
  528MOL0     H72863  10.061   9.414  10.249 -0.1617 -1.0563  0.2921
  528MOL0     H72864  10.048   9.333  10.091  1.7170  3.2808 -1.5694
  529MOL0     O72865   7.231   0.956   8.624  0.1492 -0.3498 -0.2298
  529MOL0     C72866   7.233   1.077   8.647  0.1398 -0.6251 -0.8029
  529MOL0     O72867   7.266   1.135   8.768  0.0680 -0.0632 -0.1243
  529MOL0     C72868   7.334   1.073   8.879  0.4312 -0.5216 -0.2236
  529MOL0     C72869   7.363   0.938   8.899 -0.0353  0.5335  0.1183
  529MOL0     C72870   7.443   0.903   9.009 -0.4333 -0.6700 -0.3357
  529MOL0     C72871   7.496   0.995   9.097  0.0461  0.0176 -0.2969
  529MOL0     O72872   7.577   0.951   9.204  0.5798  0.5154  0.5550
  529MOL0     C72873   7.518   0.841   9.281 -0.3877  0.3354  0.6634
  529MOL0     C72874   7.579   0.825   9.421 -0.3845  0.4392 -0.2165
  529MOL0     C72875   7.556   0.960   9.486 -0.5027  0.0078  0.5114
  529MOL0     C72876   7.572   0.964   9.630  0.1440 -0.1934 -0.1022
  529MOL0     C72877   7.465   1.046   9.698  0.2685  0.8288 -0.2364
  529MOL0     C72878   7.469   1.202   9.661  0.0271  1.0874 -0.7948
  529MOL0     C72879   7.436   1.290   9.778  0.6007  0.4520 -0.3350
  529MOL0     C72880   7.283   1.278   9.816  0.0554 -0.4006  0.3361
  529MOL0     N72881   7.233   1.385   9.904 -0.0089  0.5283  0.5494
  529MOL0     C72882   7.202   1.516   9.859  0.7144  0.4590  0.6562
  529MOL0     C72883   7.151   1.569   9.969  0.2976 -0.1374  0.3823
  529MOL0     C72884   7.110   1.711   9.977  0.0753 -0.6489  0.2892
  529MOL0     C72885   7.020   1.734  10.098 -1.1878  0.4053 -0.9091
  529MOL0     C72886   6.883   1.664  10.106  0.2155  0.1616  0.1609
  529MOL0     C72887   6.802   1.717   9.981 -0.4402  0.7701 -0.4746
  529MOL0     O72888   6.664   1.670   9.988 -0.3338  1.0661 -0.4294
  529MOL0     C72889   6.642   1.539   9.958  0.8179  0.0733  0.2373
  529MOL0     C72890   6.723   1.447   9.891 -0.1955  0.8976 -0.6648
  529MOL0     C72891   6.683   1.305   9.873 -0.1040  0.4745  0.4721
  529MOL0     C72892   6.782   1.221   9.793 -0.5788  0.3105 -0.6490
  529MOL0     C72893   6.563   1.260   9.934 -0.4101  0.1305  0.0655
  529MOL0     C72894   6.508   1.132   9.912 -0.0990  0.3657  0.2680
  529MOL0     O72895   6.384   1.113   9.965 -0.4910 -0.0682  0.4094
  529MOL0     C72896   6.298   1.025   9.904  0.5374 -0.2599 -0.7650
  529MOL0     C72897   6.334   0.907   9.844  0.0424  0.8727  0.2783
  529MOL0     C72898   6.243   0.820   9.793  0.6413 -0.6086 -0.5809
  529MOL0     C72899   6.108   0.864   9.777 -0.9238  0.8577 -0.4282
  529MOL0     O72900   6.029   0.787   9.701 -0.3454 -0.6415  0.3502
  529MOL0     C72901   6.088   0.777   9.571 -0.1264  0.1990  1.3413
  529MOL0     C72902   5.972   0.747   9.465 -0.7602  0.2642 -1.2567
  529MOL0     C72903   6.036   0.715   9.334  0.1504 -0.3106 -0.1505
  529MOL0     C72904   5.932   0.726   9.221  0.6867 -0.1709  1.0628
  529MOL0     C72905   5.996   0.694   9.085  0.4636  0.4159  0.2447
  529MOL0     C72906   5.888   0.699   8.973 -0.2868  0.3713  0.4120
  529MOL0     C72907   5.854   0.833   8.919 -0.2673  0.2087  0.0579
  529MOL0     C72908   5.723   0.840   8.837 -0.0215  0.1464  0.4048
  529MOL0    Cl72909   5.595   0.774   8.948  0.8680 -0.5161 -0.4614
  529MOL0     C72910   6.071   0.986   9.829  0.3119  0.4325  0.5148
  529MOL0     C72911   6.168   1.071   9.900 -0.0439  0.4254 -0.5315
  529MOL0     O72912   6.579   1.046   9.863  0.1824  0.2581 -0.1669
  529MOL0     C72913   6.482   1.356  10.004 -0.3252  0.0293 -0.0875
  529MOL0     C72914   6.518   1.494  10.008  0.6568  1.1831  0.2577
  529MOL0     N72915   7.155   1.484  10.076 -0.0654 -0.5965 -0.4012
  529MOL0     N72916   7.197   1.377  10.034 -0.4605  0.8763  0.5857
  529MOL0     C72917   7.475   1.132   9.073  0.0045 -0.6102  0.9272
  529MOL0     C72918   7.395   1.166   8.959 -0.5469 -0.3240 -1.1534
  529MOL0     C72919   7.180   1.171   8.542  0.2731  0.5049 -0.1523
  529MOL0     C72920   7.187   1.126   8.408  0.2336  0.5282 -0.5244
  529MOL0     C72921   7.123   1.202   8.309 -1.2039  0.2737  1.2942
  529MOL0     C72922   7.071   1.331   8.329  1.0121  1.2313 -0.1360
  529MOL0     O72923   7.030   1.417   8.235 -0.4542  0.7373 -0.1152
  529MOL0     C72924   7.014   1.367   8.097  0.4835 -1.3070  0.1225
  529MOL0     C72925   6.982   1.475   7.988 -0.3300  0.3214 -0.5749
  529MOL0     C72926   6.887   1.587   8.035  0.6498 -0.3660 -0.1014
  529MOL0     C72927   6.962   1.710   8.081  0.7368  0.0198  0.3981
  529MOL0     C72928   6.863   1.782   8.170  0.4702 -0.1450 -0.3689
  529MOL0     C72929   6.788   1.845   8.234  0.3481 -0.0134 -0.2964
  529MOL0     C72930   7.063   1.373   8.462  0.6961 -0.9251  0.0280
  529MOL0     C72931   7.102   1.294   8.575 -0.3952  0.8691  0.0713
  529MOL0     C72932   7.084   1.358   8.720  0.0082 -0.2226  0.0599
  529MOL0     H72933   7.315   0.863   8.836 -2.3501  1.7267  0.3360
  529MOL0     H72934   7.469   0.798   9.017  1.4903 -0.1079  2.3478
  529MOL0     H72935   7.529   0.744   9.231  0.2487  2.1417 -3.0289
  529MOL0     H72936   7.411   0.859   9.296  0.2123  1.8520  4.1550
  529MOL0     H72937   7.535   0.743   9.479  1.8323  1.5560  3.4285
  529MOL0     H72938   7.684   0.801   9.402  0.6885  2.1266  2.8822
  529MOL0     H72939   7.624   1.030   9.436  1.1465 -3.1844 -2.1358
  529MOL0     H72940   7.457   0.989   9.451 -1.0068 -2.6149 -0.4696
  529MOL0     H72941   7.562   0.862   9.669  1.6014 -0.1903  0.3114
  529MOL0     H72942   7.672   1.002   9.653 -1.2611  1.9869  3.3326
  529MOL0     H72943   7.466   1.025   9.806 -1.7500 -5.1452 -0.9890
  529MOL0     H72944   7.368   1.001   9.673  1.1682 -1.4190  0.0606
  529MOL0     H72945   7.565   1.236   9.621  0.5985  0.6401  0.1444
  529MOL0     H72946   7.404   1.218   9.574 -1.5263 -1.4758 -0.2118
  529MOL0     H72947   7.459   1.395   9.754  0.8920  0.2804 -0.8095
  529MOL0     H72948   7.490   1.259   9.868 -2.4573  2.3449  2.4104
  529MOL0     H72949   7.232   1.291   9.721  0.0511 -0.0342  0.3873
  529MOL0     H72950   7.265   1.176   9.851  2.3780 -1.1851 -0.5448
  529MOL0     H72951   7.226   1.563   9.764  1.2802  0.0084  0.5692
  529MOL0     H72952   7.058   1.733   9.883 -0.0623 -0.3874  0.4244
  529MOL0     H72953   7.200   1.772   9.982 -2.0594  2.9416 -1.0707
  529MOL0     H72954   7.078   1.702  10.185 -1.2241 -1.3386 -1.4893
  529MOL0     H72955   7.010   1.843  10.107 -2.5524  0.3294 -1.2305
  529MOL0     H72956   6.887   1.556  10.088 -2.8256 -0.0329  0.0835
  529MOL0     H72957   6.819   1.679  10.193 -0.3654  0.3915 -0.3030
  529MOL0     H72958   6.807   1.826   9.981 -1.5758  0.8546  1.4808
  529MOL0     H72959   6.841   1.685   9.883 -1.9171  0.8247 -1.1081
  529MOL0     H72960   6.816   1.470   9.840  1.8276 -4.5432 -0.0890
  529MOL0     H72961   6.868   1.283   9.768  1.0083 -1.9411 -1.1277
  529MOL0     H72962   6.729   1.182   9.706 -0.7797 -0.5831 -0.1478
  529MOL0     H72963   6.820   1.139   9.856  0.0317  1.8309  1.0469
  529MOL0     H72964   6.437   0.875   9.848  0.2762  1.4278 -0.8277
  529MOL0     H72965   6.276   0.734   9.736  3.0789  1.1708 -2.0732
  529MOL0     H72966   6.124   0.874   9.536 -1.9910  0.6774  0.5948
  529MOL0     H72967   6.176   0.713   9.561  0.7078  1.2830  1.6511
  529MOL0     H72968   5.911   0.661   9.495 -0.6512  0.4526 -0.4620
  529MOL0     H72969   5.902   0.831   9.460 -1.5150 -0.2244  0.2416
  529MOL0     H72970   6.089   0.621   9.343 -1.1840 -1.1229 -0.4368
  529MOL0     H72971   6.116   0.788   9.315  0.0725  0.3934  2.0081
  529MOL0     H72972   5.890   0.827   9.222  2.3540  0.5612  1.7213
  529MOL0     H72973   5.858   0.647   9.234  1.5512 -1.0338  0.8405
  529MOL0     H72974   6.065   0.773   9.055  0.9125 -0.9087 -2.4585
  529MOL0     H72975   6.047   0.598   9.082 -0.5234 -0.1130 -2.1666
  529MOL0     H72976   5.796   0.666   9.024 -0.8396  3.1843  1.4865
  529MOL0     H72977   5.912   0.631   8.891 -5.5482  1.4057 -2.4477
  529MOL0     H72978   5.943   0.862   8.862  0.7815 -0.6243  1.2009
  529MOL0     H72979   5.865   0.915   8.991  0.7321 -0.5459  0.7962
  529MOL0     H72980   5.732   0.781   8.745 -1.0837  3.7389 -2.2573
  529MOL0     H72981   5.711   0.939   8.791 -2.1214 -0.8799 -1.4071
  529MOL0     H72982   5.980   1.036   9.799 -0.3777 -2.0788 -2.1234
  529MOL0     H72983   6.145   1.167   9.943  1.1888  0.7313 -0.5243
  529MOL0     H72984   6.395   1.326  10.063 -0.0715  0.1604  0.3557
  529MOL0     H72985   6.455   1.568  10.056 -0.0458 -0.3862  1.8782
  529MOL0     H72986   7.507   1.198   9.153  1.1746  1.0334 -0.7994
  529MOL0     H72987   7.382   1.273   8.949 -2.6907 -0.3643  0.5031
  529MOL0     H72988   7.242   1.034   8.392 -1.5794 -1.1229  1.9614
  529MOL0     H72989   7.137   1.161   8.209  0.9807 -0.8817  1.9910
  529MOL0     H72990   7.099   1.306   8.065  3.7021  1.6697  2.3695
  529MOL0     H72991   6.934   1.293   8.110 -0.7018 -0.3139 -1.1238
  529MOL0     H72992   6.928   1.417   7.913  0.7802  0.1632 -1.2832
  529MOL0     H72993   7.073   1.523   7.952  1.7714 -1.2944  2.1364
  529MOL0     H72994   6.835   1.620   7.944  1.4107  2.4124  0.3754
  529MOL0     H72995   6.816   1.558   8.112 -0.4086  0.7654 -0.6234
  529MOL0     H72996   6.994   1.768   7.994  3.8924 -0.9978  0.7569
  529MOL0     H72997   7.059   1.685   8.125  0.9488  1.0034  0.5170
  529MOL0     H72998   6.713   1.898   8.289 -1.5893 -0.1277 -2.6420
  529MOL0     H72999   7.034   1.476   8.480  1.7108 -0.9737  2.3516
  529MOL0     H73000   7.023   1.297   8.788 -1.7576  1.2864 -0.0958
  529MOL0     H73001   7.171   1.374   8.784  0.2972  1.3174 -0.6796
  529MOL0     H73002   7.036   1.456   8.715  0.7197  0.2621  1.9079
  530MOL0     O73003   5.921   2.622   7.962  0.8174 -0.4731 -0.0386
  530MOL0     C73004   5.992   2.620   8.062  0.2572  0.2423  0.3393
  530MOL0     O73005   5.961   2.544   8.179 -0.5986 -0.4832 -0.2062
  530MOL0     C73006   5.835   2.497   8.194  0.6070  0.1497 -0.4133
  530MOL0     C73007   5.749   2.524   8.298  0.3877 -0.8700  0.1743
  530MOL0     C73008   5.627   2.459   8.314  0.5204  0.1206  1.0763
  530MOL0     C73009   5.587   2.360   8.233 -0.3580 -0.1321 -0.2333
  530MOL0     O73010   5.475   2.290   8.256 -0.3290  0.2331 -0.1933
  530MOL0     C73011   5.379   2.269   8.149 -0.0869 -0.0606  0.1055
  530MOL0     C73012   5.310   2.137   8.153 -0.3032  1.1744 -0.5359
  530MOL0     C73013   5.409   2.019   8.147  0.6321 -0.6356 -0.7919
  530MOL0     C73014   5.494   1.998   8.033 -0.1460  0.1484 -0.0844
  530MOL0     C73015   5.480   1.848   7.980 -0.2542 -0.7367  1.5547
  530MOL0     C73016   5.541   1.795   7.851 -0.2151 -0.0480  0.6117
  530MOL0     C73017   5.544   1.644   7.837  0.0412 -0.3434  0.3737
  530MOL0     C73018   5.614   1.578   7.721 -0.1961 -0.3567  0.2361
  530MOL0     N73019   5.561   1.612   7.581  0.2057 -0.1532 -0.0990
  530MOL0     C73020   5.529   1.733   7.525 -0.4279  0.1760 -0.3967
  530MOL0     C73021   5.497   1.705   7.395 -0.5178 -0.2468 -0.2500
  530MOL0     C73022   5.469   1.813   7.293  0.4120  0.2396  0.3138
  530MOL0     C73023   5.441   1.755   7.158  0.0827 -0.4446  0.1049
  530MOL0     C73024   5.442   1.875   7.059 -0.0026 -0.0655 -0.9691
  530MOL0     C73025   5.410   1.840   6.915 -0.8410  0.0651 -0.0923
  530MOL0     O73026   5.519   1.764   6.860 -0.4744  0.0791 -0.3079
  530MOL0     C73027   5.521   1.727   6.725  1.0821  0.2823  0.0104
  530MOL0     C73028   5.404   1.723   6.639 -0.0359 -1.2911 -0.0404
  530MOL0     C73029   5.404   1.675   6.509  0.5322 -0.4270 -0.3713
  530MOL0     C73030   5.275   1.677   6.438  0.5430  0.1296  0.0451
  530MOL0     C73031   5.527   1.617   6.455  0.0663 -0.3553 -0.0674
  530MOL0     C73032   5.539   1.559   6.324 -0.1069  0.9441  1.3168
  530MOL0     O73033   5.652   1.486   6.293  0.4505  0.6923 -0.0182
  530MOL0     C73034   5.672   1.443   6.164 -0.0125  0.3478 -0.0638
  530MOL0     C73035   5.622   1.319   6.126  0.0025 -0.3095  0.0401
  530MOL0     C73036   5.647   1.274   5.989  0.6999 -0.5199 -0.3483
  530MOL0     C73037   5.742   1.337   5.905  0.5871 -0.0547  0.3165
  530MOL0     O73038   5.779   1.284   5.790 -0.6399 -0.4590  0.3683
  530MOL0     C73039   5.918   1.275   5.764  0.3297 -0.1295  0.0610
  530MOL0     C73040   5.949   1.136   5.704 -0.3816  0.0151  0.2997
  530MOL0     C73041   5.894   1.106   5.568  0.2878  0.1789  0.2214
  530MOL0     C73042   5.753   1.069   5.545  0.8398  0.0649  0.8801
  530MOL0     C73043   5.713   1.061   5.397 -0.8376  0.5025 -0.4073
  530MOL0     C73044   5.784   0.944   5.327  0.0676 -0.1452 -0.2408
  530MOL0     C73045   5.720   0.902   5.193  0.0334 -1.0251  0.5412
  530MOL0     C73046   5.756   0.759   5.164 -0.0854 -0.3525  0.1192
  530MOL0    Cl73047   5.928   0.701   5.198 -0.1735 -0.7923 -0.4362
  530MOL0     C73048   5.785   1.459   5.948  0.4059 -0.5296 -0.0533
  530MOL0     C73049   5.756   1.512   6.077  0.1397  0.2616 -0.0970
  530MOL0     O73050   5.446   1.573   6.244 -0.2213 -0.5592 -0.3805
  530MOL0     C73051   5.641   1.622   6.539  0.7085 -0.1286 -0.5085
  530MOL0     C73052   5.634   1.671   6.671  0.7480  0.9715  0.6168
  530MOL0     N73053   5.523   1.568   7.370  0.2620  0.3095  0.1325
  530MOL0     N73054   5.548   1.513   7.489  0.3344  0.4006  0.4825
  530MOL0     C73055   5.677   2.326   8.132 -0.8448  0.3958  0.1496
  530MOL0     C73056   5.802   2.387   8.115 -1.4235  0.7816 -0.2491
  530MOL0     C73057   6.115   2.697   8.047  0.6611  0.5070 -0.8548
  530MOL0     C73058   6.204   2.686   8.160 -0.0989  0.5113 -0.1743
  530MOL0     C73059   6.315   2.769   8.181  1.0197  0.5714 -0.1730
  530MOL0     C73060   6.334   2.871   8.092 -1.3215  0.5962  0.3094
  530MOL0     O73061   6.449   2.942   8.096 -0.4870  0.8073  0.2744
  530MOL0     C73062   6.523   2.949   8.225  0.1346  0.1791 -0.5584
  530MOL0     C73063   6.621   3.068   8.216 -0.4856  0.9392 -0.3795
  530MOL0     C73064   6.559   3.203   8.229 -0.4390 -0.4204 -0.6293
  530MOL0     C73065   6.466   3.239   8.111  0.0017  0.9993  0.3813
  530MOL0     C73066   6.527   3.208   7.979 -0.4404 -0.2562  0.6204
  530MOL0     C73067   6.580   3.189   7.870 -0.3734  1.3156 -0.0748
  530MOL0     C73068   6.256   2.884   7.976  0.2676  0.2875 -0.2458
  530MOL0     C73069   6.141   2.805   7.955 -0.8841 -0.5343 -0.3577
  530MOL0     C73070   6.054   2.848   7.837 -0.0949 -0.4907 -0.4357
  530MOL0     H73071   5.779   2.589   8.380  0.3013 -1.9021  1.0413
  530MOL0     H73072   5.554   2.490   8.388 -2.0545  0.0165 -1.2689
  530MOL0     H73073   5.425   2.287   8.051  0.7147 -2.1311  0.0582
  530MOL0     H73074   5.306   2.350   8.163  0.7563  0.6361  0.5374
  530MOL0     H73075   5.260   2.138   8.250 -0.4665  0.4277 -0.6056
  530MOL0     H73076   5.238   2.126   8.072  1.2377 -0.1248 -1.8012
  530MOL0     H73077   5.472   2.007   8.236 -1.1037 -0.7663  0.4710
  530MOL0     H73078   5.339   1.935   8.149  2.1216 -1.9603 -1.6559
  530MOL0     H73079   5.461   2.064   7.951 -0.5454 -1.2116 -1.0629
  530MOL0     H73080   5.600   1.993   8.060  0.0890  0.2530 -0.9606
  530MOL0     H73081   5.373   1.829   7.969 -0.2563  0.5627 -2.3480
  530MOL0     H73082   5.511   1.779   8.059 -3.9567 -1.3671  2.6472
  530MOL0     H73083   5.502   1.850   7.764  0.5573  1.3237  1.0927
  530MOL0     H73084   5.647   1.822   7.853 -0.4273  0.8097  0.9665
  530MOL0     H73085   5.440   1.611   7.839 -0.1098 -0.0113 -0.9538
  530MOL0     H73086   5.593   1.610   7.928  2.8409 -0.9426 -1.2253
  530MOL0     H73087   5.718   1.608   7.740 -0.1973  0.1749 -0.5703
  530MOL0     H73088   5.616   1.469   7.733  0.2789 -0.6015 -1.7489
  530MOL0     H73089   5.530   1.825   7.583  1.6287 -2.1494  3.7301
  530MOL0     H73090   5.557   1.876   7.282  0.9247 -0.5133  0.0247
  530MOL0     H73091   5.387   1.868   7.340  0.4238  0.3614  0.1924
  530MOL0     H73092   5.522   1.691   7.122 -0.0522  0.9395 -2.9564
  530MOL0     H73093   5.346   1.699   7.164  0.7665 -1.6871 -0.3977
  530MOL0     H73094   5.374   1.950   7.099  1.6084  1.2516 -0.6304
  530MOL0     H73095   5.543   1.913   7.072  0.4929 -1.9561  1.5664
  530MOL0     H73096   5.313   1.790   6.911  0.0027 -1.6373  0.1096
  530MOL0     H73097   5.403   1.933   6.858  0.0607  0.6660  0.7452
  530MOL0     H73098   5.310   1.770   6.667 -0.5752 -2.2708 -0.1448
  530MOL0     H73099   5.209   1.750   6.486  2.3195  0.9224  1.3959
  530MOL0     H73100   5.231   1.578   6.431 -1.5959  0.7111  3.1744
  530MOL0     H73101   5.287   1.721   6.339 -0.3586  0.9945  0.2932
  530MOL0     H73102   5.562   1.253   6.188 -0.6488  1.3963  1.3302
  530MOL0     H73103   5.596   1.186   5.951 -0.7737 -1.1042  2.6809
  530MOL0     H73104   5.956   1.355   5.699  1.8853 -2.3663 -1.9673
  530MOL0     H73105   5.966   1.290   5.861  0.5493  2.5696 -0.3764
  530MOL0     H73106   6.057   1.140   5.686  0.2333  1.1298  3.6424
  530MOL0     H73107   5.922   1.058   5.775 -0.8342 -0.9285 -0.8734
  530MOL0     H73108   5.960   1.027   5.530  0.6872 -1.0180  3.1313
  530MOL0     H73109   5.900   1.200   5.513  0.0450 -1.2657 -2.4157
  530MOL0     H73110   5.694   1.158   5.567 -1.1267  0.9812 -5.8225
  530MOL0     H73111   5.723   0.977   5.596 -2.2899 -0.7904 -2.1149
  530MOL0     H73112   5.604   1.061   5.395 -0.8662 -1.0212 -0.3334
  530MOL0     H73113   5.737   1.154   5.345  0.2222  0.3843 -0.1634
  530MOL0     H73114   5.788   0.849   5.381 -0.0102 -1.9205 -3.1397
  530MOL0     H73115   5.887   0.972   5.306 -0.2488  1.9109  0.6296
  530MOL0     H73116   5.769   0.969   5.122  0.1144  0.3217  1.8434
  530MOL0     H73117   5.611   0.907   5.193 -0.0208 -1.1433 -1.8812
  530MOL0     H73118   5.743   0.748   5.056  4.1488  1.4266 -0.7974
  530MOL0     H73119   5.680   0.702   5.217 -3.8314  1.3571 -2.8844
  530MOL0     H73120   5.855   1.515   5.888 -0.7865  0.0109 -0.9766
  530MOL0     H73121   5.806   1.607   6.097  0.2236 -0.3708  3.2544
  530MOL0     H73122   5.734   1.578   6.504  1.7453  1.1106  0.5855
  530MOL0     H73123   5.723   1.656   6.730  0.0219 -0.7629  1.3215
  530MOL0     H73124   5.660   2.242   8.064  2.0367 -4.7539  4.9776
  530MOL0     H73125   5.870   2.348   8.039  0.2967  0.5527  1.3328
  530MOL0     H73126   6.190   2.612   8.238 -1.9273  3.7865  2.8918
  530MOL0     H73127   6.378   2.749   8.267  1.1452 -3.0997 -0.9263
  530MOL0     H73128   6.457   2.967   8.310 -1.3133 -1.3506 -1.2780
  530MOL0     H73129   6.588   2.860   8.228  0.3619  0.3732  0.3581
  530MOL0     H73130   6.670   3.052   8.120 -2.6095  0.6111 -1.4639
  530MOL0     H73131   6.694   3.060   8.297  2.0218 -1.8560 -2.6567
  530MOL0     H73132   6.499   3.217   8.319 -0.8443 -0.0885 -0.9503
  530MOL0     H73133   6.640   3.277   8.230 -0.5541 -0.2972  1.0931
  530MOL0     H73134   6.437   3.344   8.117  0.5141  1.1513  0.2204
  530MOL0     H73135   6.377   3.175   8.116  0.6380  0.0736  0.1078
  530MOL0     H73136   6.620   3.173   7.772 -0.8686  2.2224 -0.4428
  530MOL0     H73137   6.284   2.967   7.913 -0.3783 -1.9061 -3.6940
  530MOL0     H73138   5.949   2.861   7.865  0.6903  2.8400  1.4477
  530MOL0     H73139   6.094   2.935   7.785  2.7849 -1.3658  0.1067
  530MOL0     H73140   6.062   2.768   7.762  0.9796  0.4607 -1.3827
  531MOL0     O73141   2.103   1.060  11.397  0.6994 -0.1017  0.1711
  531MOL0     C73142   2.208   1.039  11.459 -0.7294  0.8404  0.7220
  531MOL0     O73143   2.321   1.121  11.469  0.8369 -0.4468 -0.5776
  531MOL0     C73144   2.310   1.238  11.402 -0.3297  0.3257  0.0554
  531MOL0     C73145   2.348   1.241  11.263  0.7447  0.4782 -0.2014
  531MOL0     C73146   2.343   1.357  11.192 -0.6934  1.2110  0.3704
  531MOL0     C73147   2.279   1.464  11.246 -0.1624 -0.2337 -0.0980
  531MOL0     O73148   2.259   1.578  11.172  0.1231 -1.1659  0.2769
  531MOL0     C73149   2.176   1.562  11.053  0.1658 -0.0017  0.4446
  531MOL0     C73150   2.159   1.706  10.992 -0.1182  0.2635  0.7475
  531MOL0     C73151   2.292   1.770  10.941  0.1013 -0.0881 -0.4733
  531MOL0     C73152   2.269   1.910  10.892 -0.5956 -0.1898 -0.2624
  531MOL0     C73153   2.393   1.956  10.819 -0.5604 -0.4139 -1.2391
  531MOL0     C73154   2.361   2.089  10.748  1.1198  0.4288 -0.1108
  531MOL0     C73155   2.351   2.206  10.849 -0.7689 -0.2800  0.1991
  531MOL0     C73156   2.504   2.241  10.877 -0.2902  0.5457  0.5010
  531MOL0     N73157   2.534   2.365  10.953  0.6163 -0.7411 -0.2881
  531MOL0     C73158   2.442   2.462  10.986 -0.0237 -0.9623  0.0652
  531MOL0     C73159   2.511   2.565  11.041 -0.3557 -0.2067  1.1144
  531MOL0     C73160   2.470   2.706  11.081 -0.2680 -0.6487 -0.5992
  531MOL0     C73161   2.517   2.817  10.988  0.0688 -0.2240  0.2439
  531MOL0     C73162   2.437   2.946  10.983 -0.8333 -1.0524  0.0200
  531MOL0     C73163   2.455   3.034  11.112  0.1379  0.4677  0.4149
  531MOL0     O73164   2.424   3.174  11.086  0.7958  0.0016  0.1577
  531MOL0     C73165   2.450   3.278  11.178 -0.3255  0.8146  0.5767
  531MOL0     C73166   2.500   3.259  11.310  0.3440 -0.1968 -0.5052
  531MOL0     C73167   2.527   3.364  11.399  0.1894 -0.0190 -0.4193
  531MOL0     C73168   2.611   3.327  11.526  0.7582  0.2211  0.6848
  531MOL0     C73169   2.490   3.491  11.366 -0.0580 -0.3239 -0.3525
  531MOL0     C73170   2.495   3.607  11.461  0.2491  0.1016  0.9306
  531MOL0     O73171   2.484   3.576  11.589 -0.0230 -0.3573 -0.0044
  531MOL0     C73172   2.442   3.674  11.674  0.4655  0.2741 -1.0036
  531MOL0     C73173   2.303   3.706  11.672  0.1599 -0.7689 -0.4101
  531MOL0     C73174   2.258   3.786  11.777  0.1133 -0.0029  0.4922
  531MOL0     C73175   2.346   3.836  11.882 -0.1367 -0.1689  0.2963
  531MOL0     O73176   2.308   3.921  11.976 -0.0090 -0.1871  0.4997
  531MOL0     C73177   2.211   3.870  12.067  0.8474 -0.4586 -0.7453
  531MOL0     C73178   2.201   3.957  12.190 -0.3716 -1.1496  0.0653
  531MOL0     C73179   2.116   4.083  12.142 -0.1279 -0.7199 -1.1233
  531MOL0     C73180   2.165   4.213  12.212 -0.0669  0.0057  0.3418
  531MOL0     C73181   2.079   4.336  12.180 -1.3790  0.5154 -0.1702
  531MOL0     C73182   2.108   4.412  12.044  0.1364 -0.4096  0.0024
  531MOL0     C73183   1.983   4.491  12.011  0.2555 -0.2396 -0.4164
  531MOL0     C73184   1.991   4.565  11.885 -0.2106 -0.6831  0.3199
  531MOL0    Cl73185   2.121   4.686  11.907 -0.5287  0.2702  0.2262
  531MOL0     C73186   2.479   3.819  11.868  0.6802  0.2343 -0.6619
  531MOL0     C73187   2.529   3.741  11.766 -0.1389 -0.7451  0.4460
  531MOL0     O73188   2.515   3.725  11.413 -0.0720  0.2003 -0.6607
  531MOL0     C73189   2.438   3.519  11.238 -0.3244 -0.8011 -0.3444
  531MOL0     C73190   2.424   3.411  11.143  0.3688  0.0768 -0.4723
  531MOL0     N73191   2.642   2.518  11.040  0.8989  0.4587 -0.7060
  531MOL0     N73192   2.656   2.395  10.993  0.1528 -0.3935  0.4051
  531MOL0     C73193   2.255   1.467  11.388  0.0533  0.2744 -0.2793
  531MOL0     C73194   2.264   1.346  11.467  0.4884 -0.9991 -0.5313
  531MOL0     C73195   2.225   0.903  11.519  0.0357  0.5548  0.4149
  531MOL0     C73196   2.351   0.876  11.572 -0.1657  0.3538 -0.8686
  531MOL0     C73197   2.387   0.763  11.642  0.7310  0.3991  0.3942
  531MOL0     C73198   2.284   0.667  11.651 -0.1746  0.7947 -0.0330
  531MOL0     O73199   2.316   0.555  11.717  0.7712 -0.0891 -0.0931
  531MOL0     C73200   2.221   0.483  11.792  0.0464  0.2016 -0.0144
  531MOL0     C73201   2.277   0.366  11.881  0.2213 -0.1134  0.1173
  531MOL0     C73202   2.410   0.405  11.956  0.1181  0.3355  0.2508
  531MOL0     C73203   2.498   0.285  11.945  0.5207 -0.9866 -0.1447
  531MOL0     C73204   2.600   0.291  12.058  0.3223 -0.1873  0.0874
  531MOL0     C73205   2.672   0.283  12.152 -0.0089  0.2099  0.1171
  531MOL0     C73206   2.153   0.687  11.585  0.1243  0.6183 -0.7317
  531MOL0     C73207   2.112   0.806  11.534 -0.3330  1.1377  0.3575
  531MOL0     C73208   1.974   0.828  11.506  0.1025  0.3876  0.0536
  531MOL0     H73209   2.382   1.145  11.225 -1.2198  0.3267 -1.7190
  531MOL0     H73210   2.365   1.348  11.086  3.1749  4.1137  0.6889
  531MOL0     H73211   2.083   1.521  11.094  0.2150 -2.4284 -1.6301
  531MOL0     H73212   2.211   1.490  10.978  1.5888 -0.6605  1.6949
  531MOL0     H73213   2.086   1.692  10.911 -0.6269 -0.8740  1.3776
  531MOL0     H73214   2.120   1.758  11.080 -0.5293 -0.6777  1.1375
  531MOL0     H73215   2.373   1.769  11.014  1.3217  0.0474 -1.7828
  531MOL0     H73216   2.324   1.713  10.853 -2.2636 -1.6229 -0.4385
  531MOL0     H73217   2.182   1.901  10.827 -1.2960 -1.9806  0.8249
  531MOL0     H73218   2.240   1.974  10.976  0.1497  0.7495 -0.7131
  531MOL0     H73219   2.408   1.884  10.738 -3.0675 -0.3381 -1.8762
  531MOL0     H73220   2.483   1.962  10.881 -3.0845  0.6876  2.6610
  531MOL0     H73221   2.439   2.102  10.673  1.5651  1.5053  0.5234
  531MOL0     H73222   2.262   2.084  10.701  1.5340  3.0413 -1.4052
  531MOL0     H73223   2.316   2.173  10.947 -1.2629  2.4174  0.9915
  531MOL0     H73224   2.294   2.291  10.812  1.3789 -0.5495 -4.4377
  531MOL0     H73225   2.559   2.154  10.912  0.4028 -0.3668 -2.5151
  531MOL0     H73226   2.566   2.263  10.790  1.1831  2.3878  1.9410
  531MOL0     H73227   2.338   2.462  10.955  1.1142 -1.7271 -4.5912
  531MOL0     H73228   2.515   2.722  11.180 -0.9745  1.4143 -0.5648
  531MOL0     H73229   2.361   2.712  11.093 -0.1638 -1.2187  0.8433
  531MOL0     H73230   2.621   2.840  11.012  0.1024 -0.6444  0.5181
  531MOL0     H73231   2.523   2.766  10.891 -0.5969 -1.2362  0.7095
  531MOL0     H73232   2.467   3.009  10.898 -1.4019 -0.4235  0.2749
  531MOL0     H73233   2.332   2.931  10.954 -1.8060  0.1742  2.5640
  531MOL0     H73234   2.390   2.987  11.186  0.4165 -0.0600  0.3209
  531MOL0     H73235   2.559   3.024  11.142  0.1164 -3.4573 -0.3119
  531MOL0     H73236   2.528   3.157  11.332  1.0823  0.1484  0.2436
  531MOL0     H73237   2.677   3.246  11.494  1.0629  1.2967 -1.6050
  531MOL0     H73238   2.547   3.298  11.610 -2.4785 -0.3907 -1.7498
  531MOL0     H73239   2.673   3.415  11.545  0.5340  0.2978  1.0628
  531MOL0     H73240   2.236   3.665  11.597 -0.8052 -1.6350  0.8841
  531MOL0     H73241   2.158   3.821  11.801 -0.2616 -0.5599 -0.2162
  531MOL0     H73242   2.116   3.867  12.013  0.5192 -0.9524 -0.1644
  531MOL0     H73243   2.227   3.765  12.095  0.5088 -0.0260  1.1888
  531MOL0     H73244   2.147   3.914  12.275 -4.2444  1.3267 -0.9019
  531MOL0     H73245   2.306   3.982  12.209 -0.1842  0.0603 -2.2674
  531MOL0     H73246   2.008   4.074  12.158 -0.4553 -0.6796 -3.0497
  531MOL0     H73247   2.130   4.103  12.036 -2.8491 -1.2917 -1.6778
  531MOL0     H73248   2.267   4.240  12.183 -0.8362  2.1064 -0.5801
  531MOL0     H73249   2.180   4.196  12.319  1.5338  0.8902  0.2882
  531MOL0     H73250   1.978   4.294  12.185 -1.0342 -0.3887 -0.4405
  531MOL0     H73251   2.093   4.404  12.264 -0.5239  1.1572 -0.8166
  531MOL0     H73252   2.126   4.351  11.955  2.9484  0.1728  0.0781
  531MOL0     H73253   2.186   4.487  12.062  0.3035 -0.4527 -0.5207
  531MOL0     H73254   1.959   4.551  12.099  5.8001 -2.3156  3.0185
  531MOL0     H73255   1.894   4.428  11.997 -0.2778  0.2905  0.4936
  531MOL0     H73256   1.899   4.622  11.870  0.6789  0.3419 -1.8123
  531MOL0     H73257   2.006   4.496  11.801  2.5841  1.7962 -1.4656
  531MOL0     H73258   2.544   3.869  11.938  1.3246 -0.9517 -0.3910
  531MOL0     H73259   2.637   3.735  11.762 -0.1467 -0.7917  0.3286
  531MOL0     H73260   2.396   3.615  11.208  0.0586 -0.4236  0.3172
  531MOL0     H73261   2.381   3.442  11.048 -1.8155 -0.1166  0.4110
  531MOL0     H73262   2.226   1.566  11.421  0.3747 -0.3652  2.1230
  531MOL0     H73263   2.244   1.348  11.574  3.6233  2.0504  0.1621
  531MOL0     H73264   2.434   0.945  11.562  0.6125 -0.7252 -2.1792
  531MOL0     H73265   2.487   0.746  11.679  1.0550 -0.9090 -0.9964
  531MOL0     H73266   2.187   0.558  11.864  2.1082 -0.2159  1.4817
  531MOL0     H73267   2.137   0.442  11.736 -0.3377 -2.0504  2.0486
  531MOL0     H73268   2.302   0.287  11.809  2.3520 -2.5921  3.2481
  531MOL0     H73269   2.210   0.318  11.953 -0.1674 -1.1027 -0.8704
  531MOL0     H73270   2.473   0.482  11.910  2.7394  1.6265  5.2672
  531MOL0     H73271   2.395   0.442  12.058 -2.6857  0.4374 -0.1266
  531MOL0     H73272   2.540   0.272  11.845  1.2841 -0.0917  0.0505
  531MOL0     H73273   2.434   0.196  11.956 -1.4704  0.5180  1.3618
  531MOL0     H73274   2.737   0.297  12.236  0.2709  3.2590 -0.4777
  531MOL0     H73275   2.083   0.605  11.596  0.5124  0.1321 -1.8001
  531MOL0     H73276   1.955   0.818  11.399 -0.5727  0.0056  0.2098
  531MOL0     H73277   1.899   0.768  11.559 -0.2982  0.8747  0.0481
  531MOL0     H73278   1.955   0.934  11.525 -1.9138  0.4532 -1.9513
  532MOL0     O73279   7.902   9.638   6.556 -0.1267  0.6726  0.2172
  532MOL0     C73280   7.803   9.661   6.629 -0.2374  0.0624  1.0770
  532MOL0     O73281   7.808   9.687   6.763 -0.0316 -0.2191 -0.4945
  532MOL0     C73282   7.922   9.659   6.830  0.8267  0.9010  0.2873
  532MOL0     C73283   8.018   9.749   6.841 -0.5245 -0.1890 -0.7824
  532MOL0     C73284   8.135   9.714   6.903  1.0736 -1.2991  0.6224
  532MOL0     C73285   8.166   9.586   6.953  0.1250  0.9059 -0.2617
  532MOL0     O73286   8.285   9.576   7.009 -0.6478 -0.4328 -0.3232
  532MOL0     C73287   8.347   9.444   6.999 -0.4950  0.3825 -0.2266
  532MOL0     C73288   8.492   9.450   7.058  0.7378  0.8095  0.4195
  532MOL0     C73289   8.581   9.515   6.958 -0.5756 -0.2640  0.6225
  532MOL0     C73290   8.632   9.422   6.842 -0.0219  0.4313  0.1405
  532MOL0     C73291   8.718   9.499   6.735  1.1593 -0.0255 -0.8343
  532MOL0     C73292   8.784   9.402   6.638  0.0553  0.3085  0.1698
  532MOL0     C73293   8.853   9.486   6.528  0.0521  0.3343 -0.0686
  532MOL0     C73294   9.003   9.467   6.529  0.6826 -0.5201  0.3666
  532MOL0     N73295   9.081   9.548   6.436 -0.5638  0.3848  0.2962
  532MOL0     C73296   9.195   9.509   6.375  0.3518  0.2349  0.9239
  532MOL0     C73297   9.200   9.603   6.277  0.4415  0.3892  0.3108
  532MOL0     C73298   9.303   9.616   6.156  0.8958  0.1149 -0.0381
  532MOL0     C73299   9.407   9.505   6.154 -0.8407 -0.0721 -0.1688
  532MOL0     C73300   9.384   9.397   6.046  0.9300 -0.0862 -1.1315
  532MOL0     C73301   9.502   9.301   6.026 -1.4963  0.1070  1.0346
  532MOL0     O73302   9.459   9.181   5.964 -0.4802  0.8334 -0.8599
  532MOL0     C73303   9.467   9.181   5.829 -0.2933 -0.9206 -0.4102
  532MOL0     C73304   9.360   9.223   5.755  0.7246  0.4185  0.1881
  532MOL0     C73305   9.364   9.259   5.618 -0.2073  0.5320  0.0640
  532MOL0     C73306   9.238   9.321   5.561 -0.5985  0.4237  0.4181
  532MOL0     C73307   9.484   9.243   5.548 -0.3472  1.0877  0.0455
  532MOL0     C73308   9.498   9.261   5.406  0.8363 -0.8893  0.2492
  532MOL0     O73309   9.550   9.164   5.334 -0.0990  0.2370  0.1689
  532MOL0     C73310   9.504   9.152   5.203  0.0201 -0.3870 -0.3065
  532MOL0     C73311   9.390   9.068   5.172 -0.7492 -0.0518  0.0105
  532MOL0     C73312   9.360   9.049   5.040 -0.0843  0.1404 -0.1775
  532MOL0     C73313   9.432   9.094   4.924  0.2695  1.0144 -0.3499
  532MOL0     O73314   9.413   9.058   4.791 -0.4376  0.4090  0.2756
  532MOL0     C73315   9.291   8.988   4.752  0.3810 -0.4263 -0.1572
  532MOL0     C73316   9.301   8.927   4.612  0.8079  0.1003  0.4030
  532MOL0     C73317   9.204   8.817   4.582 -0.4541  0.2855 -0.2156
  532MOL0     C73318   9.226   8.751   4.451  1.1968  0.3012 -0.0062
  532MOL0     C73319   9.129   8.631   4.427  1.1470  0.2377  0.7182
  532MOL0     C73320   9.181   8.536   4.312 -0.2792 -0.1974 -0.8041
  532MOL0     C73321   9.182   8.587   4.169  0.8173  0.3228  0.2348
  532MOL0     C73322   9.030   8.577   4.120 -0.1576 -0.5365 -0.8140
  532MOL0    Cl73323   9.018   8.663   3.960  0.1138  0.0652 -0.2242
  532MOL0     C73324   9.536   9.181   4.961  0.6452  0.5791  1.4134
  532MOL0     C73325   9.569   9.216   5.094 -0.3134  0.3655  0.0463
  532MOL0     O73326   9.464   9.370   5.362  0.1519  0.6134  0.1441
  532MOL0     C73327   9.581   9.168   5.615  0.5214 -0.2686  0.1262
  532MOL0     C73328   9.579   9.144   5.750 -0.8093 -0.7996 -0.6027
  532MOL0     N73329   9.112   9.707   6.304 -0.4791  0.4103 -0.4330
  532MOL0     N73330   9.032   9.667   6.397 -0.2650 -1.0735  0.5676
  532MOL0     C73331   8.073   9.486   6.930  0.6593  0.0366 -0.2318
  532MOL0     C73332   7.952   9.524   6.875  0.4965 -0.3665  0.1951
  532MOL0     C73333   7.673   9.664   6.556  1.0806  0.7469 -0.1678
  532MOL0     C73334   7.653   9.598   6.432 -0.5488 -0.1407 -0.7495
  532MOL0     C73335   7.533   9.612   6.366  0.1558  0.6663  0.4589
  532MOL0     C73336   7.423   9.677   6.413 -0.0522  0.1344  1.1530
  532MOL0     O73337   7.319   9.696   6.322  1.1327 -0.6095  0.0891
  532MOL0     C73338   7.204   9.775   6.343  0.2446 -0.4784 -0.3538
  532MOL0     C73339   7.132   9.795   6.210 -0.3126 -0.8073 -0.2536
  532MOL0     C73340   6.977   9.824   6.220  0.5146  0.0797  0.2137
  532MOL0     C73341   6.905   9.778   6.091 -0.3370 -0.5930 -0.1126
  532MOL0     C73342   6.763   9.812   6.100  0.4534  0.0387  0.0202
  532MOL0     C73343   6.650   9.835   6.139 -0.0582  0.1393 -0.6893
  532MOL0     C73344   7.433   9.736   6.537 -0.7044 -0.2967 -0.8242
  532MOL0     C73345   7.561   9.739   6.610 -0.3778 -0.2896 -0.4849
  532MOL0     C73346   7.560   9.817   6.737  0.1844 -0.4745  0.2802
  532MOL0     H73347   7.994   9.841   6.787 -0.3602 -1.5331 -3.3190
  532MOL0     H73348   8.212   9.790   6.914  2.1283 -2.1873 -0.3167
  532MOL0     H73349   8.347   9.395   6.901 -1.4899 -2.1883  0.9557
  532MOL0     H73350   8.294   9.374   7.064 -3.2163 -0.7264 -3.3415
  532MOL0     H73351   8.488   9.514   7.146  2.1067  1.5849 -0.0524
  532MOL0     H73352   8.539   9.355   7.087 -0.4044  0.1336  0.1182
  532MOL0     H73353   8.543   9.613   6.927  0.9473 -0.3590 -1.7271
  532MOL0     H73354   8.673   9.530   7.015 -1.0773 -1.4735  1.8166
  532MOL0     H73355   8.679   9.332   6.884  1.7562  1.1540 -0.2010
  532MOL0     H73356   8.546   9.389   6.783 -2.2414 -0.7746  3.7181
  532MOL0     H73357   8.787   9.561   6.794  0.7770 -0.4552  0.0987
  532MOL0     H73358   8.650   9.565   6.682  2.7132 -0.5429 -3.6673
  532MOL0     H73359   8.864   9.338   6.676 -1.2208 -0.6902  1.2386
  532MOL0     H73360   8.710   9.349   6.578 -2.4608  3.0026  0.6876
  532MOL0     H73361   8.821   9.589   6.546  1.2362  0.9382 -1.2683
  532MOL0     H73362   8.813   9.467   6.428  0.1831 -0.7790  0.0760
  532MOL0     H73363   9.025   9.480   6.635  2.0488  3.4662 -0.2350
  532MOL0     H73364   9.027   9.362   6.508  4.2075  0.2935 -0.1744
  532MOL0     H73365   9.263   9.425   6.373  0.6412  0.4412 -2.0762
  532MOL0     H73366   9.362   9.704   6.182  1.6548 -0.0892 -1.0310
  532MOL0     H73367   9.251   9.624   6.060  0.4577  0.9324  0.2542
  532MOL0     H73368   9.505   9.550   6.136 -1.2811  0.3467 -1.6161
  532MOL0     H73369   9.421   9.455   6.251  0.9032 -2.2177 -1.4394
  532MOL0     H73370   9.295   9.344   6.081  1.3544 -0.0103  0.1206
  532MOL0     H73371   9.350   9.431   5.948  0.6751 -2.8998 -2.1196
  532MOL0     H73372   9.575   9.349   5.960 -1.0212 -0.2857  1.2699
  532MOL0     H73373   9.544   9.269   6.122 -1.6584  0.1370  1.1172
  532MOL0     H73374   9.276   9.240   5.821  1.5573 -2.9878  2.3366
  532MOL0     H73375   9.162   9.283   5.630 -0.9429 -1.4256 -0.9007
  532MOL0     H73376   9.214   9.285   5.461  1.4609 -1.4012  0.4897
  532MOL0     H73377   9.252   9.429   5.562  2.5854  0.1410 -1.1469
  532MOL0     H73378   9.346   9.009   5.253  1.3954  2.1840  3.0623
  532MOL0     H73379   9.275   8.981   5.049  2.1034 -2.4852  4.3328
  532MOL0     H73380   9.286   8.916   4.834  2.1836  0.2572  0.6158
  532MOL0     H73381   9.205   9.055   4.762 -0.4092 -1.3568 -0.6185
  532MOL0     H73382   9.283   9.004   4.536 -4.4735 -0.5390  0.6327
  532MOL0     H73383   9.405   8.895   4.604 -0.1835 -3.4322  0.1034
  532MOL0     H73384   9.100   8.851   4.586 -0.5881  0.2154 -2.0949
  532MOL0     H73385   9.215   8.743   4.662  1.9100 -2.1010 -2.5659
  532MOL0     H73386   9.331   8.725   4.437  1.3050  1.2600 -1.0826
  532MOL0     H73387   9.209   8.820   4.368 -1.7802  1.0297  1.0540
  532MOL0     H73388   9.128   8.563   4.513 -3.1338 -1.8494 -0.6791
  532MOL0     H73389   9.026   8.662   4.408  0.5092 -1.3937  1.2619
  532MOL0     H73390   9.139   8.436   4.325  0.3669 -0.2831  0.8074
  532MOL0     H73391   9.289   8.519   4.324 -0.5712 -4.3178 -2.3942
  532MOL0     H73392   9.240   8.523   4.101 -0.0239  0.4665 -0.6332
  532MOL0     H73393   9.233   8.682   4.155  2.5596 -0.4502  1.0441
  532MOL0     H73394   8.978   8.640   4.193  2.9040 -2.0249  3.0708
  532MOL0     H73395   9.001   8.472   4.132 -0.2489 -0.7099 -2.4194
  532MOL0     H73396   9.597   9.217   4.878  2.4928 -1.5968  1.7208
  532MOL0     H73397   9.652   9.279   5.124 -2.5015  3.0056  0.9102
  532MOL0     H73398   9.671   9.130   5.569 -0.3007 -1.4543 -0.5355
  532MOL0     H73399   9.669   9.104   5.796  1.1382 -1.0180 -4.2143
  532MOL0     H73400   8.081   9.383   6.962 -1.7765  0.3833  1.8189
  532MOL0     H73401   7.874   9.451   6.854  1.3844 -1.4728  0.6138
  532MOL0     H73402   7.729   9.536   6.386  0.8604  0.5537  0.5488
  532MOL0     H73403   7.526   9.543   6.282 -0.8997 -0.1935  1.2306
  532MOL0     H73404   7.133   9.729   6.413  2.0205 -0.2454  1.7084
  532MOL0     H73405   7.228   9.876   6.380  1.3210 -1.3516  1.4646
  532MOL0     H73406   7.136   9.707   6.145 -0.1905 -0.7523 -0.3193
  532MOL0     H73407   7.176   9.882   6.160  3.5951  1.4289  5.8800
  532MOL0     H73408   6.949   9.791   6.321  2.9381  0.0140  0.9251
  532MOL0     H73409   6.949   9.930   6.226  0.0705 -0.1209  3.3649
  532MOL0     H73410   6.908   9.670   6.077  1.5568 -0.8624  1.7671
  532MOL0     H73411   6.955   9.824   6.005  0.7299 -0.5973  0.4864
  532MOL0     H73412   6.553   9.831   6.183  0.7617  1.3137  1.3927
  532MOL0     H73413   7.342   9.786   6.566 -0.8796  0.9655 -3.2875
  532MOL0     H73414   7.476   9.885   6.753  0.6238 -0.4115  2.6030
  532MOL0     H73415   7.557   9.745   6.819  1.2681  1.0586  1.7053
  532MOL0     H73416   7.642   9.888   6.745 -1.6356  1.7437  0.2733
  533MOL0     O73417   2.511   1.545   8.593 -0.5169 -0.1976 -0.0430
  533MOL0     C73418   2.494   1.485   8.700  0.8249  0.4671  1.1849
  533MOL0     O73419   2.532   1.361   8.716 -0.4263  0.3720 -0.2833
  533MOL0     C73420   2.540   1.272   8.613 -0.2031 -0.3514  0.0646
  533MOL0     C73421   2.637   1.173   8.617  0.4073 -0.5618  0.1688
  533MOL0     C73422   2.644   1.074   8.520  0.1464 -0.2931  1.0976
  533MOL0     C73423   2.576   1.083   8.398  0.8554 -0.2645 -0.0410
  533MOL0     O73424   2.595   1.005   8.281  0.6979  0.0732 -0.5375
  533MOL0     C73425   2.724   0.949   8.270 -0.3744 -0.3154  1.0572
  533MOL0     C73426   2.744   0.845   8.161 -0.1330  0.1347  0.1218
  533MOL0     C73427   2.670   0.719   8.195 -0.2351  0.6887 -0.2325
  533MOL0     C73428   2.723   0.595   8.128 -1.1090  1.0242  0.0229
  533MOL0     C73429   2.624   0.486   8.132  0.5331  0.0502  1.2869
  533MOL0     C73430   2.691   0.351   8.118 -1.1578  0.1161 -0.4911
  533MOL0     C73431   2.589   0.246   8.101 -0.0799  1.0057  0.8642
  533MOL0     C73432   2.661   0.109   8.109 -0.7126  0.6363  0.5525
  533MOL0     N73433   2.571  -0.008   8.143 -0.6159 -0.3707  0.2363
  533MOL0     C73434   2.491  -0.072   8.054 -0.4554 -0.2984  0.6690
  533MOL0     C73435   2.432  -0.165   8.125  0.6223  0.5246  0.5019
  533MOL0     C73436   2.319  -0.260   8.069 -0.4921 -0.2938  0.4423
  533MOL0     C73437   2.374  -0.362   7.967 -0.6797 -0.2427  0.6848
  533MOL0     C73438   2.275  -0.466   7.916  0.0565 -0.1443 -0.5103
  533MOL0     C73439   2.147  -0.406   7.852  0.2218  0.7551 -0.9345
  533MOL0     O73440   2.079  -0.510   7.796 -0.3472  0.2379 -0.2131
  533MOL0     C73441   1.969  -0.481   7.720  0.5313 -0.9359 -0.4772
  533MOL0     C73442   1.967  -0.457   7.590 -0.4680  0.6330  0.5461
  533MOL0     C73443   1.854  -0.466   7.512  0.3108 -0.2330  0.0685
  533MOL0     C73444   1.865  -0.453   7.362  0.2079  0.3671  0.4626
  533MOL0     C73445   1.732  -0.485   7.573  0.1833  0.0678  0.8730
  533MOL0     C73446   1.599  -0.488   7.509 -0.1705 -0.1230 -0.1983
  533MOL0     O73447   1.514  -0.578   7.564 -0.1479  0.0902 -0.0515
  533MOL0     C73448   1.394  -0.605   7.490  0.1720  0.5891 -0.1873
  533MOL0     C73449   1.269  -0.534   7.508 -0.1300  0.8088 -0.0215
  533MOL0     C73450   1.155  -0.581   7.447  0.5718 -0.9475  0.1675
  533MOL0     C73451   1.158  -0.680   7.347 -0.0763 -0.1855 -0.4529
  533MOL0     O73452   1.051  -0.728   7.276 -0.0690  0.1982  0.4968
  533MOL0     C73453   0.942  -0.635   7.258  0.0713 -0.0620  0.2179
  533MOL0     C73454   0.977  -0.506   7.173 -0.4541  0.0431  0.1093
  533MOL0     C73455   1.028  -0.538   7.028 -0.2740 -0.9929  0.1092
  533MOL0     C73456   1.037  -0.412   6.942 -0.4440 -0.2505  0.6016
  533MOL0     C73457   1.085  -0.444   6.799 -0.2816  0.1308 -0.6034
  533MOL0     C73458   0.969  -0.505   6.701 -0.0732 -0.3981 -0.3448
  533MOL0     C73459   1.024  -0.509   6.562 -0.1957  0.0781  0.7303
  533MOL0     C73460   0.920  -0.477   6.452 -0.1415 -0.3423  0.1721
  533MOL0    Cl73461   0.791  -0.592   6.450 -0.0652  0.3930  0.0821
  533MOL0     C73462   1.278  -0.750   7.328 -0.1906 -0.2657  0.2874
  533MOL0     C73463   1.394  -0.715   7.398  0.4705 -0.1012  0.2340
  533MOL0     O73464   1.576  -0.416   7.412 -0.2117  0.3766 -0.4987
  533MOL0     C73465   1.733  -0.489   7.711 -1.0451  0.1385 -0.2209
  533MOL0     C73466   1.848  -0.496   7.787 -0.1540 -0.5500  0.8574
  533MOL0     N73467   2.470  -0.158   8.253 -0.4444 -0.0615 -0.5705
  533MOL0     N73468   2.553  -0.054   8.268  0.1170 -0.4025 -0.1847
  533MOL0     C73469   2.469   1.168   8.394 -0.2146 -0.2630  0.5240
  533MOL0     C73470   2.451   1.259   8.500  0.5886 -0.8119  0.5119
  533MOL0     C73471   2.448   1.564   8.816 -0.1107  0.7388 -0.3576
  533MOL0     C73472   2.468   1.516   8.947  0.1349  0.7065  0.2157
  533MOL0     C73473   2.431   1.588   9.058  0.0007  0.3517  0.0467
  533MOL0     C73474   2.378   1.718   9.047  0.1337 -0.0208 -0.1341
  533MOL0     O73475   2.329   1.792   9.145 -0.0358 -0.9590 -0.2484
  533MOL0     C73476   2.384   1.788   9.274  1.2074 -0.5024 -0.1625
  533MOL0     C73477   2.328   1.886   9.379 -0.3736  0.1793 -0.1475
  533MOL0     C73478   2.183   1.862   9.410  0.2359 -0.1471 -0.9536
  533MOL0     C73479   2.140   1.926   9.535  0.8824  0.5626 -0.8184
  533MOL0     C73480   1.999   1.897   9.562 -1.3928  0.0134 -0.0137
  533MOL0     C73481   1.881   1.871   9.567  0.1621 -1.3581 -0.7241
  533MOL0     C73482   2.349   1.760   8.916  0.0246 -0.2538  0.0247
  533MOL0     C73483   2.375   1.687   8.801  0.2864  0.0525  0.4452
  533MOL0     C73484   2.334   1.758   8.671 -0.1914  0.2494  0.2718
  533MOL0     H73485   2.702   1.156   8.702 -0.0239  3.3567  1.5137
  533MOL0     H73486   2.725   1.002   8.527  1.7656  1.3698  0.4200
  533MOL0     H73487   2.746   0.901   8.365  1.6855  0.7511  1.1782
  533MOL0     H73488   2.779   1.041   8.251 -2.5910  0.8828  0.0199
  533MOL0     H73489   2.724   0.894   8.065  4.9984  1.9594 -0.3408
  533MOL0     H73490   2.850   0.818   8.162 -0.8285 -3.2592  3.2624
  533MOL0     H73491   2.663   0.693   8.301  1.2331 -1.7895 -0.6739
  533MOL0     H73492   2.572   0.748   8.155 -0.6658 -0.2346  0.1220
  533MOL0     H73493   2.766   0.611   8.029  0.3096 -2.1824 -0.0285
  533MOL0     H73494   2.805   0.568   8.196  0.6540  0.8814 -2.0364
  533MOL0     H73495   2.557   0.491   8.046  0.8350 -1.1118  0.9797
  533MOL0     H73496   2.578   0.481   8.232 -0.4654  0.7607  0.8825
  533MOL0     H73497   2.761   0.349   8.034 -0.1207 -1.6371  0.3475
  533MOL0     H73498   2.755   0.339   8.206 -1.5429 -2.5684 -0.5018
  533MOL0     H73499   2.545   0.266   8.003 -2.5667  1.4163  1.9780
  533MOL0     H73500   2.512   0.247   8.179 -0.5077 -0.8801  0.5294
  533MOL0     H73501   2.703   0.080   8.012 -0.5411 -2.8510  1.5331
  533MOL0     H73502   2.746   0.114   8.178  1.2226 -0.3558 -1.6156
  533MOL0     H73503   2.462  -0.030   7.958  0.4346  0.0204  0.5204
  533MOL0     H73504   2.252  -0.188   8.022  2.8188  2.5799 -0.3281
  533MOL0     H73505   2.258  -0.305   8.147  0.5458  1.3751  2.3016
  533MOL0     H73506   2.417  -0.314   7.879  1.4172 -1.4337  0.9896
  533MOL0     H73507   2.450  -0.422   8.018  0.5852  0.3505 -0.4398
  533MOL0     H73508   2.331  -0.522   7.841  1.4616  2.0986 -1.2444
  533MOL0     H73509   2.251  -0.539   7.994 -0.3798  0.6104  0.0766
  533MOL0     H73510   2.089  -0.347   7.924  1.5302  2.7427 -1.4293
  533MOL0     H73511   2.170  -0.326   7.782  1.9623  1.4082  0.3202
  533MOL0     H73512   2.060  -0.447   7.536 -0.9640 -1.0073 -0.7049
  533MOL0     H73513   1.792  -0.376   7.338  0.4886  0.0314 -1.6550
  533MOL0     H73514   1.829  -0.534   7.297 -1.8645  1.6142 -0.0435
  533MOL0     H73515   1.968  -0.427   7.337  1.4839 -0.6220  4.0177
  533MOL0     H73516   1.263  -0.440   7.563 -2.8570  0.6816  0.0445
  533MOL0     H73517   1.068  -0.519   7.467 -0.0812 -0.7967 -2.7389
  533MOL0     H73518   0.875  -0.694   7.195 -0.2135 -0.6734  1.0770
  533MOL0     H73519   0.890  -0.623   7.354  1.5791 -3.3845  1.6188
  533MOL0     H73520   0.882  -0.454   7.159 -1.3133 -1.0887  1.4559
  533MOL0     H73521   1.047  -0.437   7.220 -0.0824  0.0544 -0.4462
  533MOL0     H73522   0.955  -0.609   6.989 -0.2051 -1.8111  1.4087
  533MOL0     H73523   1.125  -0.588   7.028 -1.9707 -4.7855 -2.7338
  533MOL0     H73524   1.105  -0.340   6.989 -0.8104 -1.1005  2.5318
  533MOL0     H73525   0.940  -0.362   6.951  0.1967  0.7968  2.1289
  533MOL0     H73526   1.141  -0.355   6.768  1.2712 -0.0943  1.3854
  533MOL0     H73527   1.161  -0.522   6.806 -1.0611 -0.4921  2.0938
  533MOL0     H73528   0.879  -0.442   6.702 -0.4103 -0.8222 -1.6740
  533MOL0     H73529   0.941  -0.605   6.735  2.2476 -0.7417  0.7269
  533MOL0     H73530   1.073  -0.605   6.543  0.1160  0.2436  0.6862
  533MOL0     H73531   1.105  -0.436   6.547  0.7577 -1.4502 -2.4093
  533MOL0     H73532   0.968  -0.467   6.354 -0.7784  0.4463 -0.0663
  533MOL0     H73533   0.869  -0.386   6.484 -0.8214 -1.2916  1.9277
  533MOL0     H73534   1.270  -0.838   7.265 -0.8407 -0.4630  0.6403
  533MOL0     H73535   1.473  -0.788   7.379 -0.9492 -0.6127 -5.4885
  533MOL0     H73536   1.636  -0.489   7.760 -1.5895  2.1083 -1.2087
  533MOL0     H73537   1.855  -0.517   7.893 -0.5844  0.3836  1.0823
  533MOL0     H73538   2.400   1.176   8.310  0.1221  0.8820  0.3331
  533MOL0     H73539   2.366   1.326   8.494  2.4179  1.5103 -1.7208
  533MOL0     H73540   2.512   1.417   8.961 -1.6936 -0.5313 -2.0569
  533MOL0     H73541   2.458   1.548   9.155 -1.3651 -1.3203 -0.2222
  533MOL0     H73542   2.373   1.689   9.318 -1.3406 -1.5324 -2.7644
  533MOL0     H73543   2.491   1.807   9.262  1.2999  0.1486  1.4465
  533MOL0     H73544   2.353   1.987   9.348 -2.0466  0.5465 -0.3817
  533MOL0     H73545   2.379   1.862   9.473 -1.6796 -0.4278  0.4377
  533MOL0     H73546   2.128   1.905   9.327  1.7054  1.3627 -1.2023
  533MOL0     H73547   2.175   1.753   9.406  2.2585 -0.3514 -0.5763
  533MOL0     H73548   2.168   2.032   9.528 -2.5510  1.5676 -1.2455
  533MOL0     H73549   2.193   1.889   9.623  0.5264 -3.1183 -1.9774
  533MOL0     H73550   1.778   1.840   9.564 -1.7166  3.7695 -1.1941
  533MOL0     H73551   2.303   1.856   8.897 -1.7156 -1.5855 -3.2231
  533MOL0     H73552   2.306   1.679   8.601  2.2722  1.6021 -2.4746
  533MOL0     H73553   2.249   1.824   8.687 -1.5204 -0.7070 -2.2739
  533MOL0     H73554   2.428   1.808   8.644  1.6286 -2.8384  0.3954
  534MOL0     O73555   7.392   8.077   0.466 -0.3904  0.9581 -0.4195
  534MOL0     C73556   7.390   7.956   0.427 -0.0485  0.1312 -0.3655
  534MOL0     O73557   7.507   7.883   0.402  0.2943 -0.0421  0.0445
  534MOL0     C73558   7.630   7.929   0.437 -0.0462  0.1003 -0.1050
  534MOL0     C73559   7.685   8.044   0.386 -0.3978  0.2511 -0.6342
  534MOL0     C73560   7.821   8.072   0.403  0.2193  0.0239 -0.2357
  534MOL0     C73561   7.911   7.986   0.471  0.4642 -0.6578  0.3287
  534MOL0     O73562   8.047   7.996   0.478 -0.7672 -0.7155  0.1857
  534MOL0     C73563   8.118   8.081   0.380  0.0964  0.8930  0.1208
  534MOL0     C73564   8.265   8.064   0.404  0.2435  0.6157 -0.0572
  534MOL0     C73565   8.352   8.154   0.319  0.3208  0.6168 -0.2628
  534MOL0     C73566   8.483   8.083   0.284 -0.3186  0.9379 -0.0486
  534MOL0     C73567   8.553   8.151   0.157 -0.6908  0.6676 -1.1029
  534MOL0     C73568   8.604   8.288   0.185  0.2071 -0.5802 -0.0047
  534MOL0     C73569   8.671   8.349   0.052 -0.6705 -1.0452  0.1126
  534MOL0     C73570   8.737   8.490   0.057  0.2291  0.2796  1.2333
  534MOL0     N73571   8.787   8.535  -0.074  0.6902  0.3876  0.1629
  534MOL0     C73572   8.853   8.454  -0.161  0.5779 -0.3926  0.1474
  534MOL0     C73573   8.871   8.531  -0.269 -0.4764  0.9420 -0.4110
  534MOL0     C73574   8.956   8.502  -0.391  0.0268 -0.1352  0.6805
  534MOL0     C73575   9.077   8.592  -0.417 -0.9834 -0.5494  0.2668
  534MOL0     C73576   9.139   8.558  -0.555  0.1551 -0.3593 -0.6386
  534MOL0     C73577   9.044   8.558  -0.679 -0.4347 -0.0799  0.7516
  534MOL0     O73578   9.116   8.523  -0.800 -0.2926 -0.5745 -0.0771
  534MOL0     C73579   9.195   8.602  -0.876 -0.0686  0.2158 -0.5400
  534MOL0     C73580   9.183   8.740  -0.885  0.2099  0.2875  0.0550
  534MOL0     C73581   9.239   8.812  -0.996 -0.3968  0.1867 -0.3414
  534MOL0     C73582   9.207   8.961  -0.989  0.0632  0.5839 -0.8036
  534MOL0     C73583   9.323   8.742  -1.080 -0.2615 -0.9976  0.3843
  534MOL0     C73584   9.396   8.799  -1.202 -0.1469  0.3279 -1.3441
  534MOL0     O73585   9.346   8.921  -1.231  0.2773  0.1372 -0.9200
  534MOL0     C73586   9.373   8.991  -1.342 -0.1097  0.3974  1.5061
  534MOL0     C73587   9.389   8.925  -1.470  0.9464 -0.3474 -1.2311
  534MOL0     C73588   9.417   9.001  -1.590  1.0375  0.3196  0.6013
  534MOL0     C73589   9.405   9.131  -1.583  0.4155  0.2346  0.1246
  534MOL0     O73590   9.425   9.183  -1.713 -0.0113 -0.3209 -0.5247
  534MOL0     C73591   9.373   9.323  -1.723  0.0180 -0.4102 -0.2863
  534MOL0     C73592   9.371   9.340  -1.877 -0.2982  0.0017  0.5375
  534MOL0     C73593   9.296   9.461  -1.930 -0.1442  0.3132 -0.2513
  534MOL0     C73594   9.329   9.486  -2.077 -0.3457  0.6872 -0.5390
  534MOL0     C73595   9.448   9.576  -2.082  0.0753  0.0381 -0.1381
  534MOL0     C73596   9.517   9.587  -2.221 -1.0950 -0.1072  0.5419
  534MOL0     C73597   9.637   9.680  -2.228  0.2771  0.0867 -0.6024
  534MOL0     C73598   9.759   9.620  -2.315  0.0080  0.6456  0.8039
  534MOL0    Cl73599   9.883   9.739  -2.333 -0.0846 -0.4375  0.2740
  534MOL0     C73600   9.386   9.203  -1.468 -1.3363  0.9827  0.2568
  534MOL0     C73601   9.384   9.132  -1.347  0.6413  0.0866 -0.7860
  534MOL0     O73602   9.498   8.737  -1.253  0.6546 -0.1610 -0.5091
  534MOL0     C73603   9.335   8.604  -1.073 -0.0513 -0.7316  0.2638
  534MOL0     C73604   9.271   8.531  -0.978 -0.3769  0.2576 -0.0387
  534MOL0     N73605   8.803   8.646  -0.261  0.5000  0.1462 -0.3750
  534MOL0     N73606   8.755   8.646  -0.147  0.0542 -0.9616 -0.3273
  534MOL0     C73607   7.854   7.870   0.536 -0.5678 -0.0090  0.8546
  534MOL0     C73608   7.716   7.844   0.509  0.3875  0.1055 -0.3862
  534MOL0     C73609   7.269   7.881   0.386  0.6369  0.1488  0.5164
  534MOL0     C73610   7.280   7.749   0.328 -0.4723 -0.9849 -0.2190
  534MOL0     C73611   7.173   7.662   0.305  0.0078  0.1209 -0.9427
  534MOL0     C73612   7.042   7.721   0.322  0.2926  0.9121 -0.0396
  534MOL0     O73613   6.940   7.631   0.306 -0.2462  0.7517  0.6407
  534MOL0     C73614   6.809   7.687   0.281 -0.2745  0.3520  0.0096
  534MOL0     C73615   6.721   7.587   0.196  0.6416 -0.4457 -0.5476
  534MOL0     C73616   6.729   7.589   0.038  0.0446 -0.0364  0.3599
  534MOL0     C73617   6.869   7.518   0.001 -0.6843 -0.1229 -0.1470
  534MOL0     C73618   6.886   7.371   0.018  0.8790  0.9223 -0.4890
  534MOL0     C73619   6.895   7.259   0.055 -0.6305  0.2405  0.5508
  534MOL0     C73620   7.024   7.850   0.378 -0.0183 -0.1853  0.2311
  534MOL0     C73621   7.138   7.932   0.404  0.1037  0.4488  0.7943
  534MOL0     C73622   7.103   8.064   0.462  0.2299 -0.1800  0.4908
  534MOL0     H73623   7.622   8.113   0.331 -0.6382  2.2277  1.9344
  534MOL0     H73624   7.846   8.170   0.364  1.1483 -1.2165 -2.9981
  534MOL0     H73625   8.082   8.184   0.382 -0.5508  0.7653 -2.0918
  534MOL0     H73626   8.089   8.039   0.283  0.6388 -1.6431  0.9852
  534MOL0     H73627   8.285   8.094   0.508  0.5519 -1.9112  0.6791
  534MOL0     H73628   8.297   7.959   0.401 -0.5934  0.3135  1.0584
  534MOL0     H73629   8.298   8.196   0.233  0.6255 -0.5990 -1.0756
  534MOL0     H73630   8.381   8.247   0.369  2.3611  0.7430 -1.5747
  534MOL0     H73631   8.553   8.094   0.367 -0.1025  0.6783 -0.1977
  534MOL0     H73632   8.467   7.982   0.246 -0.4477  1.1292 -0.5168
  534MOL0     H73633   8.485   8.136   0.072  0.9110  2.0618 -2.6982
  534MOL0     H73634   8.639   8.092   0.126 -1.9804 -0.1784 -3.3087
  534MOL0     H73635   8.522   8.351   0.221  1.1855  2.0012 -1.9678
  534MOL0     H73636   8.674   8.281   0.269 -2.6508 -1.5360  2.4439
  534MOL0     H73637   8.597   8.370  -0.026 -1.6572  0.2601  1.3373
  534MOL0     H73638   8.741   8.278   0.008 -1.0530 -1.4292  0.1245
  534MOL0     H73639   8.658   8.564   0.076  0.5332  0.9515 -0.0394
  534MOL0     H73640   8.817   8.501   0.130  0.8477  0.0078  0.6043
  534MOL0     H73641   8.904   8.358  -0.157 -1.1423 -1.3175  0.8417
  534MOL0     H73642   8.888   8.522  -0.474  1.3875  1.6458 -0.0731
  534MOL0     H73643   8.989   8.398  -0.402  2.1601  0.4526  1.1154
  534MOL0     H73644   9.043   8.695  -0.401 -2.6899 -0.8129 -1.3370
  534MOL0     H73645   9.153   8.583  -0.339 -0.2629  2.9286  0.1596
  534MOL0     H73646   9.217   8.633  -0.574 -1.7267  1.0005 -3.7865
  534MOL0     H73647   9.177   8.458  -0.535  0.3770 -0.3325 -0.9170
  534MOL0     H73648   8.975   8.474  -0.666  0.2792 -0.4129  2.7013
  534MOL0     H73649   8.981   8.648  -0.686 -0.8911 -0.0467  3.7477
  534MOL0     H73650   9.118   8.795  -0.818 -0.6464 -0.6244 -0.0010
  534MOL0     H73651   9.204   8.986  -0.883  1.4644 -1.9820 -0.0543
  534MOL0     H73652   9.116   8.987  -1.044 -0.2411  2.1703  0.3791
  534MOL0     H73653   9.283   9.027  -1.032 -0.4795 -0.2635 -3.1978
  534MOL0     H73654   9.371   8.819  -1.483 -2.6110  0.2106 -1.8852
  534MOL0     H73655   9.440   8.957  -1.687  2.2871  0.9661  0.5889
  534MOL0     H73656   9.274   9.324  -1.676  1.2028 -0.1519  2.3946
  534MOL0     H73657   9.440   9.395  -1.675 -1.2161  0.2419  0.5209
  534MOL0     H73658   9.477   9.338  -1.904  0.1003  1.4524  1.8575
  534MOL0     H73659   9.323   9.252  -1.921 -0.4968  0.9031 -1.0992
  534MOL0     H73660   9.304   9.552  -1.870  2.3627 -1.2033  1.9033
  534MOL0     H73661   9.190   9.432  -1.924 -0.1338  0.0929 -1.0348
  534MOL0     H73662   9.246   9.541  -2.124  0.2300  3.1292  1.1302
  534MOL0     H73663   9.351   9.394  -2.132 -0.3716  0.4572 -0.1686
  534MOL0     H73664   9.425   9.681  -2.061  0.7682  0.6439 -2.1195
  534MOL0     H73665   9.523   9.560  -2.004 -1.4166  3.9280  2.4393
  534MOL0     H73666   9.447   9.616  -2.300  1.8286  0.5334 -2.0422
  534MOL0     H73667   9.557   9.489  -2.250  1.6443  1.2452 -0.6494
  534MOL0     H73668   9.669   9.690  -2.124 -0.8084 -0.1654 -0.2320
  534MOL0     H73669   9.596   9.776  -2.262  3.1150  1.0055 -1.6986
  534MOL0     H73670   9.701   9.584  -2.401 -2.4903  0.3224  2.5081
  534MOL0     H73671   9.804   9.537  -2.260  0.7001  1.1788  1.0491
  534MOL0     H73672   9.397   9.311  -1.466 -0.7927  1.1369 -3.6179
  534MOL0     H73673   9.369   9.180  -1.251  0.0182 -2.8524  0.6936
  534MOL0     H73674   9.382   8.550  -1.155  1.0540  0.1467  0.2793
  534MOL0     H73675   9.272   8.423  -0.988 -0.2719  0.1606  0.9252
  534MOL0     H73676   7.918   7.803   0.592  0.9128 -0.6646 -1.4813
  534MOL0     H73677   7.681   7.744   0.533  0.5372 -0.1171 -1.0668
  534MOL0     H73678   7.381   7.719   0.304  0.4989  1.5769  0.3315
  534MOL0     H73679   7.189   7.561   0.269 -1.6766  0.2788 -2.2349
  534MOL0     H73680   6.755   7.721   0.370 -1.4126  0.1097 -0.5817
  534MOL0     H73681   6.826   7.778   0.223  3.1409  0.3403  0.7468
  534MOL0     H73682   6.622   7.615   0.232  1.0659  0.3586  0.0398
  534MOL0     H73683   6.741   7.486   0.234 -0.2476 -0.8119 -1.0390
  534MOL0     H73684   6.642   7.531   0.008  1.2154 -1.2889 -0.7504
  534MOL0     H73685   6.718   7.687  -0.009 -3.7249 -0.1795  0.6441
  534MOL0     H73686   6.949   7.573   0.050 -0.8743  0.5748 -0.6012
  534MOL0     H73687   6.883   7.532  -0.107 -0.1435  0.9023  0.0502
  534MOL0     H73688   6.902   7.160   0.095  0.8457 -0.5480 -1.4628
  534MOL0     H73689   6.923   7.879   0.404 -0.0303  1.2951 -1.3835
  534MOL0     H73690   7.007   8.095   0.420  2.2977  1.7523 -3.3915
  534MOL0     H73691   7.111   8.054   0.571  0.8715  1.6278  0.6486
  534MOL0     H73692   7.172   8.144   0.434  0.3697 -0.5115 -0.1455
  535MOL0     O73693   2.468   1.444   7.067  0.4452 -0.1218  0.2604
  535MOL0     C73694   2.506   1.447   7.182 -0.7352  1.0893 -0.3325
  535MOL0     O73695   2.462   1.360   7.284  0.4946 -0.3791  0.6693
  535MOL0     C73696   2.382   1.266   7.232  0.3002  0.0304 -0.3151
  535MOL0     C73697   2.252   1.297   7.191  0.2082  0.0342  0.9495
  535MOL0     C73698   2.157   1.192   7.161  0.0067  0.1291  0.8731
  535MOL0     C73699   2.192   1.058   7.161  0.3274 -0.7972  0.3694
  535MOL0     O73700   2.117   0.953   7.149  0.2167 -0.6846 -1.0518
  535MOL0     C73701   1.979   0.967   7.135  0.1982 -0.5198 -1.0007
  535MOL0     C73702   1.915   0.827   7.136  0.2157  0.0738  0.2816
  535MOL0     C73703   1.960   0.741   7.248  0.4005  0.2042 -0.9595
  535MOL0     C73704   1.900   0.605   7.252 -0.1409  0.3169 -0.1204
  535MOL0     C73705   1.955   0.504   7.353  0.1564 -0.2563 -0.0857
  535MOL0     C73706   2.099   0.460   7.345  0.0826 -1.2701  0.3617
  535MOL0     C73707   2.135   0.408   7.203 -0.1638 -0.6084  0.7062
  535MOL0     C73708   2.262   0.334   7.210 -0.3874  0.7151 -0.9843
  535MOL0     N73709   2.380   0.422   7.232 -0.3283 -0.3146 -0.0536
  535MOL0     C73710   2.418   0.536   7.154 -0.5065  0.2947  0.3578
  535MOL0     C73711   2.524   0.588   7.229  0.8783 -0.1508 -1.1931
  535MOL0     C73712   2.594   0.719   7.189 -0.2293  1.2738 -0.4974
  535MOL0     C73713   2.737   0.741   7.239  0.6867 -0.2536 -0.6616
  535MOL0     C73714   2.835   0.653   7.176  0.0883  0.3376  0.0044
  535MOL0     C73715   2.964   0.678   7.255 -1.1319 -0.3674  0.0070
  535MOL0     O73716   3.066   0.599   7.200  0.7064 -0.1330  0.0448
  535MOL0     C73717   3.194   0.614   7.243  0.0340  0.1538 -0.9883
  535MOL0     C73718   3.238   0.701   7.346 -0.0155  0.3400 -0.9463
  535MOL0     C73719   3.372   0.719   7.378  0.2207  0.2834  1.1623
  535MOL0     C73720   3.394   0.812   7.502 -0.0236 -0.6326  0.4623
  535MOL0     C73721   3.470   0.648   7.301 -0.3293 -1.1623 -0.2344
  535MOL0     C73722   3.619   0.662   7.329 -0.0458 -0.2232  1.4889
  535MOL0     O73723   3.691   0.613   7.228 -0.1120 -0.1014 -0.7439
  535MOL0     C73724   3.813   0.675   7.202  0.6609  0.7754  0.0273
  535MOL0     C73725   3.931   0.610   7.239  0.0552 -0.3642 -0.5447
  535MOL0     C73726   4.050   0.682   7.218 -0.1451  0.0649 -0.5978
  535MOL0     C73727   4.051   0.806   7.152  0.2309  0.4040  0.8217
  535MOL0     O73728   4.168   0.873   7.139 -0.7917  0.2341  0.0585
  535MOL0     C73729   4.160   1.005   7.091 -0.4145 -0.6115 -0.5470
  535MOL0     C73730   4.297   1.064   7.123 -0.2826  0.4528 -0.2087
  535MOL0     C73731   4.299   1.214   7.086  0.3628  0.4791 -0.6265
  535MOL0     C73732   4.241   1.318   7.178  0.2731  0.1397  0.7242
  535MOL0     C73733   4.254   1.466   7.136  0.9106 -0.5082 -0.4081
  535MOL0     C73734   4.221   1.486   6.981 -0.0826 -0.1836  0.5460
  535MOL0     C73735   4.071   1.474   6.929 -0.2953 -0.6891 -0.6029
  535MOL0     C73736   4.064   1.508   6.781 -0.2911 -0.0255 -0.8757
  535MOL0    Cl73737   4.090   1.683   6.745 -0.0566  0.1674  0.1703
  535MOL0     C73738   3.931   0.867   7.111  1.2208  0.8946 -0.4176
  535MOL0     C73739   3.812   0.800   7.138 -0.1140 -0.8774 -0.1189
  535MOL0     O73740   3.656   0.731   7.417  0.1246 -0.6668  0.3310
  535MOL0     C73741   3.432   0.563   7.197 -0.5481 -0.3506 -0.2969
  535MOL0     C73742   3.293   0.556   7.166 -0.7336 -0.1600 -1.3399
  535MOL0     N73743   2.542   0.503   7.335  0.0571  0.0538  1.0344
  535MOL0     N73744   2.460   0.407   7.334 -0.0432  0.2394  1.1717
  535MOL0     C73745   2.332   1.040   7.179 -0.3636  0.1076  0.0422
  535MOL0     C73746   2.421   1.135   7.217 -0.2608 -0.1890  0.3405
  535MOL0     C73747   2.600   1.556   7.221 -0.3155  0.4825  0.2906
  535MOL0     C73748   2.670   1.626   7.119  0.3656 -0.5899  0.0437
  535MOL0     C73749   2.778   1.710   7.148 -0.5202 -0.4861 -0.3269
  535MOL0     C73750   2.827   1.726   7.270  0.2649 -0.8523  0.3631
  535MOL0     O73751   2.923   1.819   7.301  0.0270 -0.5620 -0.3796
  535MOL0     C73752   2.982   1.896   7.196  1.1005 -0.3790  0.7432
  535MOL0     C73753   3.082   2.000   7.258  0.3249 -0.5411  0.1755
  535MOL0     C73754   3.163   2.078   7.150  0.3424  0.9239 -0.3162
  535MOL0     C73755   3.277   2.162   7.231  0.5252  0.4354  1.3228
  535MOL0     C73756   3.383   2.068   7.269  0.5499  0.9561  0.1365
  535MOL0     C73757   3.480   2.002   7.299  0.2458  0.5255  0.0832
  535MOL0     C73758   2.762   1.670   7.380 -0.5621 -0.4748  0.3030
  535MOL0     C73759   2.652   1.582   7.354 -0.1883 -0.5284 -0.2650
  535MOL0     C73760   2.568   1.536   7.479  0.1810  1.2705  0.3783
  535MOL0     H73761   2.221   1.400   7.180  2.0285  0.5797  0.7416
  535MOL0     H73762   2.053   1.217   7.140  0.8405  2.1846 -1.3947
  535MOL0     H73763   1.959   1.017   7.040  1.8895 -0.6519 -1.4625
  535MOL0     H73764   1.932   1.026   7.215 -0.4188 -2.2050 -0.0681
  535MOL0     H73765   1.806   0.841   7.131  0.2948  0.2988 -1.5433
  535MOL0     H73766   1.934   0.774   7.042 -1.1397  0.7447 -0.3944
  535MOL0     H73767   2.065   0.725   7.223  1.5076 -0.3610  3.2792
  535MOL0     H73768   1.959   0.791   7.345  2.6224  0.1723 -0.8771
  535MOL0     H73769   1.793   0.615   7.273  0.3690  0.5802  2.8731
  535MOL0     H73770   1.905   0.562   7.152  2.3253  0.1105  0.0445
  535MOL0     H73771   1.893   0.413   7.351  0.4950 -0.4882 -1.9935
  535MOL0     H73772   1.944   0.563   7.444  1.6529 -1.4804  0.9328
  535MOL0     H73773   2.168   0.541   7.372  0.7017 -0.5633 -2.8474
  535MOL0     H73774   2.117   0.383   7.421 -2.6903  0.2296  2.7163
  535MOL0     H73775   2.139   0.495   7.137 -0.5136 -0.9526  0.2313
  535MOL0     H73776   2.057   0.353   7.151 -0.6428  0.8060 -0.1212
  535MOL0     H73777   2.263   0.267   7.297  3.8985  3.3807  1.3885
  535MOL0     H73778   2.263   0.280   7.114 -0.4542 -0.9860 -0.0714
  535MOL0     H73779   2.373   0.568   7.061 -0.3465  0.4015  0.3161
  535MOL0     H73780   2.528   0.803   7.213  0.1138  0.6095  3.2535
  535MOL0     H73781   2.590   0.730   7.080 -0.0325  2.5446 -0.3912
  535MOL0     H73782   2.762   0.843   7.209  3.1298 -0.0865  1.5490
  535MOL0     H73783   2.732   0.742   7.348  1.1683 -0.5998 -0.6315
  535MOL0     H73784   2.831   0.544   7.174  3.8555  0.0716  0.4358
  535MOL0     H73785   2.844   0.688   7.073 -0.8154  2.4504  0.5984
  535MOL0     H73786   2.994   0.782   7.246  2.0312 -1.2525 -0.7845
  535MOL0     H73787   2.952   0.642   7.358  2.1208 -0.1275  0.5708
  535MOL0     H73788   3.161   0.764   7.390  0.9040  2.0567 -1.6836
  535MOL0     H73789   3.467   0.891   7.479  0.4789 -0.6489  1.9329
  535MOL0     H73790   3.441   0.753   7.581  0.5638 -1.1729 -0.2646
  535MOL0     H73791   3.302   0.858   7.538  0.8552  0.9258  0.8062
  535MOL0     H73792   3.931   0.518   7.297 -1.3593  0.1134  0.2735
  535MOL0     H73793   4.149   0.648   7.245 -0.3931  0.0437  0.3087
  535MOL0     H73794   4.142   1.012   6.983 -0.2937  0.9123 -0.4898
  535MOL0     H73795   4.095   1.072   7.148 -0.3257  1.7396 -2.9944
  535MOL0     H73796   4.339   1.055   7.224 -0.2700 -0.7234 -0.3092
  535MOL0     H73797   4.363   1.007   7.057 -1.4304 -1.0613 -0.0832
  535MOL0     H73798   4.265   1.226   6.983 -1.7219  0.4652  0.0190
  535MOL0     H73799   4.407   1.233   7.087  0.2636  1.0864 -0.7066
  535MOL0     H73800   4.277   1.304   7.280  2.6893  0.3859 -0.0303
  535MOL0     H73801   4.136   1.285   7.179  0.1749  0.2093 -1.4714
  535MOL0     H73802   4.195   1.538   7.194 -0.2230  0.3180 -2.4464
  535MOL0     H73803   4.358   1.499   7.147  0.5195  0.2197  1.5319
  535MOL0     H73804   4.293   1.418   6.934  1.3879  0.4541  1.7690
  535MOL0     H73805   4.245   1.588   6.951 -0.0330 -0.4342 -0.2925
  535MOL0     H73806   4.016   1.548   6.987 -1.4708 -0.7337 -1.6379
  535MOL0     H73807   4.028   1.376   6.953  0.0111 -0.9154 -0.9578
  535MOL0     H73808   3.964   1.475   6.751 -1.2128 -1.3531  3.1617
  535MOL0     H73809   4.133   1.443   6.726  0.8011 -0.5267  1.0333
  535MOL0     H73810   3.916   0.964   7.065  0.4196  1.1887  0.4291
  535MOL0     H73811   3.724   0.856   7.107 -0.1217 -0.1870  1.0620
  535MOL0     H73812   3.508   0.512   7.139  0.7377  1.6654 -0.4965
  535MOL0     H73813   3.255   0.497   7.083  0.5837  1.3861 -3.1163
  535MOL0     H73814   2.365   0.937   7.185  3.1265  1.0546 -0.8001
  535MOL0     H73815   2.524   1.119   7.247 -0.1740 -2.0694 -0.8141
  535MOL0     H73816   2.639   1.617   7.015 -2.2048 -0.3440  0.7126
  535MOL0     H73817   2.812   1.766   7.062  0.8416  0.8155  1.0087
  535MOL0     H73818   3.035   1.819   7.139  0.0418  0.2266 -1.1365
  535MOL0     H73819   2.903   1.934   7.131 -1.1960 -2.6296  2.0305
  535MOL0     H73820   3.155   1.944   7.317 -2.5692 -4.4159  0.4954
  535MOL0     H73821   3.020   2.076   7.306 -0.3397  1.5977 -3.6077
  535MOL0     H73822   3.206   2.012   7.074 -1.3066  1.0250 -1.3914
  535MOL0     H73823   3.094   2.146   7.099  0.0511 -1.7249 -3.8779
  535MOL0     H73824   3.234   2.203   7.323  1.5263  0.0017  2.0090
  535MOL0     H73825   3.313   2.243   7.168 -0.3635  0.9416  1.4486
  535MOL0     H73826   3.569   1.943   7.311  1.1083  1.5140 -1.2530
  535MOL0     H73827   2.795   1.719   7.471  1.2508  3.0662 -2.0094
  535MOL0     H73828   2.460   1.546   7.467  0.0663 -1.2975 -1.4523
  535MOL0     H73829   2.569   1.427   7.487 -3.2118  0.6882 -3.6169
  535MOL0     H73830   2.598   1.588   7.571 -2.4667 -0.2461  2.1986
  536MOL0     O73831   1.555   4.316   6.101 -1.0212 -0.1616  0.1413
  536MOL0     C73832   1.441   4.308   6.141 -0.4268  0.7342 -0.5514
  536MOL0     O73833   1.402   4.327   6.267  0.0265  0.8851 -0.0251
  536MOL0     C73834   1.492   4.330   6.374  0.2891 -0.1049  0.3018
  536MOL0     C73835   1.591   4.235   6.388 -0.7578 -0.0709 -0.0317
  536MOL0     C73836   1.661   4.211   6.509 -0.4068  0.6044  0.5615
  536MOL0     C73837   1.639   4.296   6.616  0.7553 -0.2385 -0.2536
  536MOL0     O73838   1.709   4.293   6.733  0.0343 -0.2801  0.1560
  536MOL0     C73839   1.633   4.245   6.847  0.3804  0.1399 -0.0857
  536MOL0     C73840   1.729   4.182   6.949  0.4401  0.1084  0.4271
  536MOL0     C73841   1.782   4.046   6.907 -0.0236 -0.1072  0.0647
  536MOL0     C73842   1.907   3.994   6.979  0.2790 -0.6704  1.2144
  536MOL0     C73843   1.953   3.857   6.916 -0.1472 -0.7169  0.3460
  536MOL0     C73844   2.069   3.803   6.993 -0.5617  1.0200 -0.1886
  536MOL0     C73845   2.125   3.681   6.918  1.1304 -0.8489  0.0783
  536MOL0     C73846   2.277   3.684   6.929 -0.6471 -0.0526 -0.3757
  536MOL0     N73847   2.337   3.706   7.064  0.5202 -0.4069 -0.1392
  536MOL0     C73848   2.310   3.641   7.175  0.5423 -0.1041  0.1634
  536MOL0     C73849   2.400   3.686   7.266 -1.1440  0.3456 -0.5922
  536MOL0     C73850   2.411   3.626   7.409 -0.9066  0.6770 -0.4949
  536MOL0     C73851   2.550   3.570   7.432  0.2414  0.3292  1.4668
  536MOL0     C73852   2.578   3.505   7.564  0.1771 -0.5517 -0.2601
  536MOL0     C73853   2.538   3.580   7.691 -0.6575 -0.7494  0.0997
  536MOL0     O73854   2.395   3.594   7.712 -0.7230  0.0102 -0.3986
  536MOL0     C73855   2.361   3.684   7.816 -0.4397  0.5942  0.4413
  536MOL0     C73856   2.297   3.625   7.924 -0.7686 -0.0523  0.3653
  536MOL0     C73857   2.256   3.691   8.039 -0.1115  0.5399 -0.9725
  536MOL0     C73858   2.223   3.603   8.156  0.2128 -0.8874 -0.5149
  536MOL0     C73859   2.258   3.832   8.046 -0.3527  0.0818  0.1916
  536MOL0     C73860   2.222   3.918   8.171 -0.1440  0.0372  0.3161
  536MOL0     O73861   2.140   3.853   8.258  0.0953 -0.3815  0.1384
  536MOL0     C73862   2.097   3.915   8.368 -0.8046  0.5548 -0.2074
  536MOL0     C73863   2.030   4.044   8.346 -0.9956  0.5870  0.4596
  536MOL0     C73864   1.967   4.103   8.453 -0.6671  0.6094 -0.9220
  536MOL0     C73865   1.966   4.033   8.580 -0.3470 -0.1175 -0.4015
  536MOL0     O73866   1.900   4.087   8.682 -0.4648 -1.0077 -0.2192
  536MOL0     C73867   1.934   4.048   8.815 -0.1951  0.2006 -0.1358
  536MOL0     C73868   1.859   4.144   8.915 -0.1744  0.5748  0.4005
  536MOL0     C73869   1.882   4.102   9.059  0.8578  0.3448 -0.4954
  536MOL0     C73870   1.829   4.192   9.169 -0.2243 -0.6806  0.0741
  536MOL0     C73871   1.908   4.159   9.297  0.3738  0.4257  0.0906
  536MOL0     C73872   1.837   4.236   9.414 -0.3172 -0.2009  0.2948
  536MOL0     C73873   1.923   4.239   9.538 -0.4739  0.2404 -0.0588
  536MOL0     C73874   1.848   4.288   9.660 -0.0708 -0.5511  0.5987
  536MOL0    Cl73875   1.728   4.161   9.715  0.0681 -0.4456 -0.2608
  536MOL0     C73876   2.066   3.930   8.594 -0.1409 -0.0107 -0.2294
  536MOL0     C73877   2.135   3.873   8.495  0.6702 -0.0736 -0.4339
  536MOL0     O73878   2.272   4.028   8.187 -0.2462 -0.4605 -0.3815
  536MOL0     C73879   2.324   3.888   7.935  0.2555 -0.9287  0.2170
  536MOL0     C73880   2.376   3.821   7.814 -0.1764 -0.0805  0.1685
  536MOL0     N73881   2.466   3.797   7.222  0.4266 -0.3582  0.3171
  536MOL0     N73882   2.430   3.806   7.100  0.3810  0.1430 -0.2209
  536MOL0     C73883   1.538   4.399   6.605  0.4032 -0.3625 -0.0305
  536MOL0     C73884   1.462   4.403   6.492  0.4047 -0.6026 -0.2852
  536MOL0     C73885   1.331   4.270   6.053 -0.6234 -0.4031  0.5791
  536MOL0     C73886   1.205   4.328   6.079  0.4899  0.1438 -0.9483
  536MOL0     C73887   1.089   4.306   5.993 -0.5632  0.2131 -0.6922
  536MOL0     C73888   1.104   4.223   5.878  0.3982 -0.5287  0.3880
  536MOL0     O73889   1.007   4.205   5.778  0.7068  0.3040  0.2735
  536MOL0     C73890   0.883   4.285   5.771 -0.9514  0.2538  0.6587
  536MOL0     C73891   0.784   4.246   5.880 -0.4613 -0.0332  0.1034
  536MOL0     C73892   0.654   4.202   5.816  0.8563 -0.0370  0.7035
  536MOL0     C73893   0.563   4.134   5.920 -0.5330  0.2066 -0.3799
  536MOL0     C73894   0.433   4.116   5.860 -0.4189 -0.5548 -0.7098
  536MOL0     C73895   0.324   4.081   5.813  0.3447  0.2937 -0.3837
  536MOL0     C73896   1.222   4.149   5.866  0.4134  0.4526  0.4748
  536MOL0     C73897   1.334   4.173   5.951  0.3061  0.1716 -0.3434
  536MOL0     C73898   1.453   4.071   5.935  0.2440  0.1103  0.4917
  536MOL0     H73899   1.627   4.191   6.295  2.4866  2.4659 -0.1846
  536MOL0     H73900   1.744   4.143   6.519  0.6090  1.9788  2.0031
  536MOL0     H73901   1.560   4.167   6.823  1.0487 -0.6580  0.4552
  536MOL0     H73902   1.592   4.336   6.892 -0.6262  0.1085 -0.8966
  536MOL0     H73903   1.810   4.253   6.969  1.3568 -1.4886  2.8350
  536MOL0     H73904   1.673   4.166   7.041  2.3377 -2.3073  1.2651
  536MOL0     H73905   1.694   3.981   6.902 -1.9439  2.3157  0.2564
  536MOL0     H73906   1.823   4.063   6.808  0.5111 -2.8905 -0.2768
  536MOL0     H73907   1.989   4.066   6.986  0.2257 -0.2916 -1.3384
  536MOL0     H73908   1.874   3.965   7.079 -0.0327 -3.1352  0.4570
  536MOL0     H73909   1.986   3.888   6.817 -2.5428 -1.5377 -0.7785
  536MOL0     H73910   1.873   3.783   6.908  0.1194 -1.5596  3.6774
  536MOL0     H73911   2.145   3.880   7.012  2.3785 -1.8329  0.5657
  536MOL0     H73912   2.036   3.777   7.094 -2.6956  2.8817 -0.3223
  536MOL0     H73913   2.097   3.680   6.812 -3.6493  2.0466  0.9956
  536MOL0     H73914   2.095   3.587   6.965 -0.5674  1.3520  3.8002
  536MOL0     H73915   2.312   3.587   6.892 -0.2331 -1.2828  2.8952
  536MOL0     H73916   2.313   3.761   6.860  2.1931 -2.0047 -1.2524
  536MOL0     H73917   2.235   3.567   7.202  1.0769 -0.7569 -0.1234
  536MOL0     H73918   2.328   3.555   7.421 -1.3376  0.8760 -2.1121
  536MOL0     H73919   2.401   3.700   7.489 -2.9759  0.3276 -0.3607
  536MOL0     H73920   2.572   3.502   7.349 -1.1648  1.6396 -0.0334
  536MOL0     H73921   2.615   3.658   7.424  3.1093 -1.6756  1.2760
  536MOL0     H73922   2.517   3.414   7.564 -1.2680  0.3489  1.5054
  536MOL0     H73923   2.680   3.469   7.576 -0.3289 -2.2098 -0.6267
  536MOL0     H73924   2.569   3.524   7.780 -3.9382 -1.8186  0.7226
  536MOL0     H73925   2.595   3.673   7.700 -1.5713  0.2144 -2.8720
  536MOL0     H73926   2.286   3.518   7.913  0.0937 -0.1118 -0.0128
  536MOL0     H73927   2.254   3.500   8.133 -0.0624 -0.9394 -0.6606
  536MOL0     H73928   2.116   3.609   8.181  0.2027  4.1507 -0.7996
  536MOL0     H73929   2.286   3.633   8.240 -2.8907  1.2048  1.2686
  536MOL0     H73930   2.031   4.087   8.246 -1.2401 -0.3674  0.0419
  536MOL0     H73931   1.912   4.195   8.442  2.2845  2.6139 -0.2432
  536MOL0     H73932   1.910   3.944   8.838  0.5366  0.0363 -0.1107
  536MOL0     H73933   2.041   4.063   8.831 -0.2909 -1.0385  2.1625
  536MOL0     H73934   1.908   4.241   8.912 -0.1193  0.9308  5.0204
  536MOL0     H73935   1.754   4.157   8.888 -0.5814 -1.3822  0.8314
  536MOL0     H73936   1.988   4.080   9.074  0.1045 -2.2295  1.7246
  536MOL0     H73937   1.855   3.999   9.082 -0.7839  1.5872  4.3812
  536MOL0     H73938   1.721   4.173   9.180  0.1019 -2.7277  0.1247
  536MOL0     H73939   1.847   4.298   9.150 -2.7281  0.3152  2.4672
  536MOL0     H73940   1.894   4.054   9.322  1.5401 -0.1933 -1.6669
  536MOL0     H73941   2.013   4.185   9.283 -0.3698  2.0823 -3.3625
  536MOL0     H73942   1.748   4.178   9.442  0.4297 -1.6433 -0.2206
  536MOL0     H73943   1.814   4.339   9.384  1.8907  0.3831  0.4180
  536MOL0     H73944   2.006   4.309   9.524 -0.0278 -0.4274 -0.8119
  536MOL0     H73945   1.966   4.142   9.564  1.5122  1.4353  1.3663
  536MOL0     H73946   1.785   4.374   9.634  1.4640 -0.2654 -2.7222
  536MOL0     H73947   1.918   4.312   9.740 -2.1782 -1.7805  2.9302
  536MOL0     H73948   2.077   3.874   8.687 -0.1880  0.7898  0.2665
  536MOL0     H73949   2.191   3.780   8.506 -0.0187 -0.2744  1.9711
  536MOL0     H73950   2.336   3.996   7.932 -0.3617 -0.8385 -2.9560
  536MOL0     H73951   2.395   3.880   7.725  0.4369  1.3764  1.2228
  536MOL0     H73952   1.512   4.465   6.686 -0.7005  1.1972 -1.5847
  536MOL0     H73953   1.375   4.468   6.491 -1.2141 -2.5463  2.2293
  536MOL0     H73954   1.175   4.387   6.165 -1.4472 -1.4828 -0.4415
  536MOL0     H73955   0.998   4.361   6.011  1.7151  4.1251  0.1446
  536MOL0     H73956   0.913   4.388   5.793  2.6014 -0.7557  1.3282
  536MOL0     H73957   0.844   4.269   5.670 -1.4762  0.5413  0.8136
  536MOL0     H73958   0.764   4.323   5.956 -4.7035 -1.8614  1.1205
  536MOL0     H73959   0.822   4.168   5.947  0.3356  1.1854  1.1191
  536MOL0     H73960   0.597   4.295   5.806 -0.9724 -0.9804  1.7525
  536MOL0     H73961   0.660   4.141   5.726  0.7669 -2.0375  1.9776
  536MOL0     H73962   0.556   4.198   6.008 -0.2677 -0.9950  0.5393
  536MOL0     H73963   0.603   4.037   5.950 -0.1856  0.2629 -0.6473
  536MOL0     H73964   0.228   4.051   5.776  0.1796 -1.2286  1.1726
  536MOL0     H73965   1.224   4.083   5.780 -0.3492 -1.1654  1.6349
  536MOL0     H73966   1.422   3.969   5.912 -0.9357  1.0619 -2.5408
  536MOL0     H73967   1.519   4.094   5.851 -0.2389 -0.0807  0.0536
  536MOL0     H73968   1.501   4.082   6.033 -1.4600  5.4116  1.0256
  537MOL0     O73969   4.636   0.970   4.025  0.3542 -0.4293 -0.5859
  537MOL0     C73970   4.741   1.028   4.063  0.1997 -0.6745  0.7296
  537MOL0     O73971   4.802   1.137   3.999 -0.3463  0.0985 -0.9150
  537MOL0     C73972   4.740   1.175   3.885  0.3710  0.3253  0.1719
  537MOL0     C73973   4.807   1.160   3.771 -0.1111 -0.3746  0.6557
  537MOL0     C73974   4.753   1.184   3.642  0.7073  0.9099  0.1301
  537MOL0     C73975   4.621   1.236   3.635  1.1483 -0.5203  0.7773
  537MOL0     O73976   4.550   1.239   3.515  0.0606 -1.1017  0.6389
  537MOL0     C73977   4.501   1.370   3.471 -0.1158 -0.5730  0.4372
  537MOL0     C73978   4.582   1.406   3.343  0.4059  0.1486  0.0965
  537MOL0     C73979   4.538   1.292   3.250 -0.2271 -0.0638 -0.3210
  537MOL0     C73980   4.557   1.326   3.100 -0.2163 -0.0392 -0.0532
  537MOL0     C73981   4.440   1.396   3.040  1.1056 -0.6540 -0.0716
  537MOL0     C73982   4.437   1.415   2.886  0.5278  0.3747  0.6134
  537MOL0     C73983   4.317   1.517   2.834 -0.7487 -0.1295  0.2313
  537MOL0     C73984   4.303   1.542   2.678 -0.3555  0.6183  0.3314
  537MOL0     N73985   4.165   1.559   2.634  0.1591 -1.4011 -0.9071
  537MOL0     C73986   4.091   1.675   2.659  0.8189  0.9385  0.0288
  537MOL0     C73987   3.981   1.657   2.579  0.2219  0.4395  0.7942
  537MOL0     C73988   3.855   1.750   2.575 -0.1346  0.4134  0.4736
  537MOL0     C73989   3.879   1.899   2.523  0.7673  0.7897 -0.7719
  537MOL0     C73990   3.741   1.971   2.522  0.4113  0.2424 -0.3170
  537MOL0     C73991   3.666   1.939   2.394 -0.0597  0.5333  1.0477
  537MOL0     O73992   3.739   1.981   2.277  0.0009  0.0597  0.5655
  537MOL0     C73993   3.710   2.106   2.239  0.0120  0.2038  0.6247
  537MOL0     C73994   3.783   2.216   2.274 -0.8059 -0.8074 -0.0816
  537MOL0     C73995   3.755   2.347   2.230  0.1593 -0.5726  0.1008
  537MOL0     C73996   3.851   2.462   2.259 -0.6478  0.0201 -0.0229
  537MOL0     C73997   3.653   2.369   2.135  0.1314 -1.0584 -0.4895
  537MOL0     C73998   3.608   2.502   2.081 -0.1758 -0.3432 -0.9353
  537MOL0     O73999   3.526   2.488   1.983  0.1093 -0.6645 -0.2692
  537MOL0     C74000   3.503   2.590   1.894  0.6241 -0.8783  0.3649
  537MOL0     C74001   3.601   2.660   1.831  0.0700 -0.3082  0.1305
  537MOL0     C74002   3.578   2.772   1.756  0.0734  0.0642  0.6171
  537MOL0     C74003   3.446   2.821   1.738  0.2416 -0.3641 -0.4744
  537MOL0     O74004   3.438   2.950   1.683  0.2225  0.1156 -0.2078
  537MOL0     C74005   3.303   2.989   1.651  0.4406  0.7954  0.6588
  537MOL0     C74006   3.330   3.097   1.550 -0.1365 -1.1796  0.3634
  537MOL0     C74007   3.214   3.208   1.558 -0.8599 -0.0998 -0.5454
  537MOL0     C74008   3.230   3.322   1.449  0.7111  1.1643  0.2570
  537MOL0     C74009   3.099   3.403   1.451 -0.5856  0.1398  0.1001
  537MOL0     C74010   3.099   3.484   1.310 -0.6914  0.9052  0.0799
  537MOL0     C74011   3.209   3.594   1.298 -0.6086 -0.1109 -0.0616
  537MOL0     C74012   3.209   3.654   1.157 -0.4231  0.1347 -0.1199
  537MOL0    Cl74013   3.287   3.811   1.157  0.1156 -0.0735  0.3971
  537MOL0     C74014   3.346   2.745   1.781 -0.1981 -0.0699 -0.2295
  537MOL0     C74015   3.369   2.629   1.853  0.5759  0.2473  0.0920
  537MOL0     O74016   3.644   2.609   2.131 -0.1252  0.3417 -0.6755
  537MOL0     C74017   3.588   2.254   2.082 -0.1960 -0.2377  0.6128
  537MOL0     C74018   3.617   2.127   2.136  0.3060  0.7121  0.7713
  537MOL0     N74019   3.991   1.544   2.516  0.5635  0.4035 -0.2277
  537MOL0     N74020   4.099   1.480   2.547 -0.0776 -1.1749  0.6966
  537MOL0     C74021   4.557   1.266   3.754 -0.6108 -0.5572 -0.0656
  537MOL0     C74022   4.613   1.233   3.877  0.4205 -0.8424 -0.3010
  537MOL0     C74023   4.799   1.017   4.204 -0.0821 -0.7372 -0.6197
  537MOL0     C74024   4.713   0.997   4.318 -0.0241 -0.2803 -0.0936
  537MOL0     C74025   4.760   0.983   4.443 -0.8690 -0.1500  0.2138
  537MOL0     C74026   4.895   1.013   4.475  0.0805  0.2348 -0.1840
  537MOL0     O74027   4.945   0.993   4.599  0.8719  0.3782 -0.8121
  537MOL0     C74028   4.877   0.997   4.724  0.0017 -0.3500 -0.2539
  537MOL0     C74029   4.869   0.869   4.814  0.3538  0.5682  1.6483
  537MOL0     C74030   4.984   0.777   4.788 -0.4604  0.1761 -0.3786
  537MOL0     C74031   5.015   0.678   4.905 -0.3063  0.7546  0.9369
  537MOL0     C74032   5.049   0.727   5.040  0.1515 -0.0222  0.4786
  537MOL0     C74033   5.049   0.796   5.138 -0.6501 -0.1696 -1.0172
  537MOL0     C74034   4.981   1.040   4.366  0.5679  0.3601  0.1681
  537MOL0     C74035   4.937   1.036   4.237 -0.0675 -0.8495 -1.3758
  537MOL0     C74036   5.052   1.072   4.141  0.0414  1.2940  0.3825
  537MOL0     H74037   4.903   1.110   3.767  0.1096  0.0330  0.8627
  537MOL0     H74038   4.801   1.153   3.550 -1.9370 -0.1522 -1.0254
  537MOL0     H74039   4.527   1.449   3.542 -0.4478 -0.5999  0.5912
  537MOL0     H74040   4.393   1.368   3.453  0.0220 -0.4832 -0.4639
  537MOL0     H74041   4.558   1.501   3.295  1.2337 -1.0945 -3.0218
  537MOL0     H74042   4.690   1.418   3.357  0.4201  2.2442 -1.3359
  537MOL0     H74043   4.591   1.198   3.267  1.0104  0.3800 -1.5784
  537MOL0     H74044   4.436   1.258   3.269 -1.7494  2.7695 -2.6019
  537MOL0     H74045   4.642   1.393   3.079  0.6370 -0.3792  2.0196
  537MOL0     H74046   4.576   1.235   3.043  1.9775 -0.6679  1.5014
  537MOL0     H74047   4.429   1.500   3.072 -2.4696 -0.3899 -1.7068
  537MOL0     H74048   4.354   1.340   3.076  1.3029 -1.6529 -1.1199
  537MOL0     H74049   4.530   1.462   2.853 -0.0554 -0.1243 -1.9528
  537MOL0     H74050   4.424   1.324   2.826 -1.3787  2.4361 -2.3353
  537MOL0     H74051   4.336   1.614   2.882 -0.0212  0.4222 -1.1386
  537MOL0     H74052   4.227   1.473   2.879  0.2764 -2.2927  0.2549
  537MOL0     H74053   4.364   1.629   2.650 -3.6753  2.3329 -2.4676
  537MOL0     H74054   4.336   1.448   2.633  0.0224  0.4997  0.8543
  537MOL0     H74055   4.126   1.756   2.722  2.3103 -0.5463  1.2100
  537MOL0     H74056   3.814   1.759   2.676 -1.3253 -1.0984  0.1725
  537MOL0     H74057   3.780   1.702   2.512  0.8627  1.7995 -1.8672
  537MOL0     H74058   3.955   1.946   2.586  0.1445  1.4589 -0.5033
  537MOL0     H74059   3.934   1.895   2.429  0.6581 -0.4167 -0.7995
  537MOL0     H74060   3.682   1.942   2.609  0.2766 -0.2767 -0.5804
  537MOL0     H74061   3.758   2.079   2.528 -0.4004  0.2980  1.4414
  537MOL0     H74062   3.639   1.833   2.393  1.0523  0.1408 -3.0663
  537MOL0     H74063   3.574   1.998   2.402  0.1627  0.6356  5.6195
  537MOL0     H74064   3.854   2.190   2.352 -1.9361  0.0609  1.3077
  537MOL0     H74065   3.911   2.476   2.169 -3.1783 -1.2493 -2.0268
  537MOL0     H74066   3.925   2.443   2.338 -0.0032  0.4841 -0.4964
  537MOL0     H74067   3.804   2.547   2.309  1.5685  0.7294  1.0079
  537MOL0     H74068   3.704   2.633   1.847  0.0091 -0.6685 -0.0888
  537MOL0     H74069   3.665   2.819   1.711 -0.7133  1.9873  1.0206
  537MOL0     H74070   3.233   2.913   1.613  1.3217 -1.0165  2.4192
  537MOL0     H74071   3.261   3.040   1.739  1.4936  4.2631 -0.6957
  537MOL0     H74072   3.421   3.155   1.561  1.0823 -2.7712 -0.8333
  537MOL0     H74073   3.333   3.056   1.448  0.1790 -0.3594  0.0389
  537MOL0     H74074   3.214   3.238   1.663 -2.3632  1.0294 -0.8466
  537MOL0     H74075   3.120   3.156   1.539 -0.3822 -0.4483 -2.1481
  537MOL0     H74076   3.246   3.275   1.351 -0.9853 -2.6434  1.5961
  537MOL0     H74077   3.321   3.374   1.477  3.2490 -1.1253 -2.9389
  537MOL0     H74078   3.005   3.348   1.448  0.2295 -1.2752 -0.7884
  537MOL0     H74079   3.111   3.469   1.538  0.2951  1.0655 -0.6841
  537MOL0     H74080   2.999   3.527   1.296 -1.6193 -1.4922 -1.4339
  537MOL0     H74081   3.114   3.411   1.230  1.4980  0.4813  0.7997
  537MOL0     H74082   3.310   3.571   1.334 -0.8953  1.1094  1.6785
  537MOL0     H74083   3.191   3.678   1.366  4.3438  0.2185  1.2852
  537MOL0     H74084   3.110   3.674   1.116 -1.1004  1.0997  1.8550
  537MOL0     H74085   3.258   3.583   1.089  0.9566 -1.9082  2.8097
  537MOL0     H74086   3.243   2.776   1.771 -0.1826 -0.5229 -2.2150
  537MOL0     H74087   3.277   2.589   1.896  0.7835 -0.1961  0.1316
  537MOL0     H74088   3.523   2.252   1.995  2.7385 -0.1539 -1.7896
  537MOL0     H74089   3.567   2.041   2.092  0.8977  0.2908  0.9160
  537MOL0     H74090   4.457   1.305   3.742  0.3345  1.1957 -3.4131
  537MOL0     H74091   4.547   1.246   3.962  0.6893 -4.4650  0.5854
  537MOL0     H74092   4.608   0.988   4.294 -0.1815  3.0490 -1.2717
  537MOL0     H74093   4.695   0.948   4.522  0.5925 -2.7888  0.3561
  537MOL0     H74094   4.934   1.077   4.773  1.9118 -2.3186  0.9078
  537MOL0     H74095   4.777   1.041   4.713  1.7533  3.3982 -4.7164
  537MOL0     H74096   4.779   0.821   4.776 -1.6376  3.9065  1.8163
  537MOL0     H74097   4.856   0.896   4.919  3.7814  1.6572  1.9402
  537MOL0     H74098   4.976   0.724   4.693  0.0735  0.5025 -0.6079
  537MOL0     H74099   5.076   0.836   4.783  1.1829 -2.2110 -0.1480
  537MOL0     H74100   5.095   0.606   4.883  1.9294  2.7773  2.0129
  537MOL0     H74101   4.922   0.621   4.910 -0.9926  1.6828 -0.5102
  537MOL0     H74102   5.057   0.856   5.226  1.3588 -1.1484 -0.4815
  537MOL0     H74103   5.085   1.054   4.392  0.4187  1.4684  0.2103
  537MOL0     H74104   5.032   1.032   4.041  1.2907 -0.4910  0.7969
  537MOL0     H74105   5.066   1.180   4.136  0.7633  1.1919  0.1752
  537MOL0     H74106   5.146   1.023   4.168  0.2226  0.7861 -1.0867
  538MOL0     O74107   2.531   4.403   5.035 -0.0993 -0.4001  0.1621
  538MOL0     C74108   2.616   4.388   5.123  0.1042  0.6727 -0.2296
  538MOL0     O74109   2.658   4.270   5.178  0.2749 -0.3156 -0.0775
  538MOL0     C74110   2.669   4.171   5.086  0.2606  0.4833 -0.7329
  538MOL0     C74111   2.767   4.157   4.999  0.5331 -0.2287  0.3082
  538MOL0     C74112   2.783   4.033   4.927  0.7947  0.5201 -0.4662
  538MOL0     C74113   2.692   3.925   4.947 -0.4675  0.8503  1.4215
  538MOL0     O74114   2.704   3.810   4.873 -0.1382 -0.6084  0.5170
  538MOL0     C74115   2.596   3.731   4.825  0.4723  0.2782 -0.0313
  538MOL0     C74116   2.497   3.801   4.734 -1.0281  0.4005  0.0326
  538MOL0     C74117   2.549   3.880   4.611 -0.6534 -0.2476 -0.1265
  538MOL0     C74118   2.610   3.781   4.509  0.6949 -0.5742 -0.1802
  538MOL0     C74119   2.684   3.838   4.385 -0.4831  0.2173 -0.4739
  538MOL0     C74120   2.816   3.765   4.356 -0.5144 -0.0318  0.2523
  538MOL0     C74121   2.940   3.795   4.441 -0.1235 -0.3505  0.8183
  538MOL0     C74122   3.051   3.676   4.437 -0.1248  0.4539 -0.4187
  538MOL0     N74123   2.997   3.554   4.491  0.5846  0.4350 -0.4108
  538MOL0     C74124   2.931   3.542   4.607  1.2717 -0.3502 -0.3755
  538MOL0     C74125   2.875   3.415   4.593 -1.0851 -0.7598  0.3952
  538MOL0     C74126   2.771   3.345   4.681  0.0766 -0.2049  0.1279
  538MOL0     C74127   2.857   3.237   4.761  0.7072  0.3144 -0.1207
  538MOL0     C74128   2.976   3.292   4.849  0.6911 -0.0502  0.6356
  538MOL0     C74129   2.941   3.419   4.927 -0.0234  0.5739 -0.2557
  538MOL0     O74130   3.050   3.454   5.015 -0.2299 -0.2413 -0.0816
  538MOL0     C74131   3.069   3.579   5.062 -0.7895  0.3273 -0.1137
  538MOL0     C74132   3.194   3.612   5.115 -0.0193  0.3727  0.9499
  538MOL0     C74133   3.229   3.731   5.165 -0.5141 -0.3106  0.3902
  538MOL0     C74134   3.375   3.744   5.223 -0.5219 -0.8868 -0.1206
  538MOL0     C74135   3.129   3.831   5.173  0.8595  0.0452  0.0303
  538MOL0     C74136   3.140   3.969   5.222  0.4174 -0.1527  0.5143
  538MOL0     O74137   3.038   4.065   5.185  0.2855 -0.3335 -0.3673
  538MOL0     C74138   3.032   4.177   5.258  0.5437 -0.4869 -0.1651
  538MOL0     C74139   2.950   4.185   5.381  0.2910  0.3388 -0.3743
  538MOL0     C74140   2.924   4.314   5.435  0.7823 -0.2678 -0.5517
  538MOL0     C74141   2.989   4.430   5.379 -0.5991  0.1364 -0.4317
  538MOL0     O74142   2.978   4.556   5.433  0.2741 -1.1509 -0.4915
  538MOL0     C74143   2.930   4.580   5.565  0.3141 -0.0375  0.1370
  538MOL0     C74144   2.969   4.717   5.613 -0.3458  0.6621  0.4216
  538MOL0     C74145   3.120   4.727   5.599  0.2999 -1.1557 -0.5942
  538MOL0     C74146   3.191   4.670   5.730 -0.3582 -0.1691 -0.0019
  538MOL0     C74147   3.322   4.740   5.756 -0.1512 -0.1194  0.2653
  538MOL0     C74148   3.293   4.893   5.790  0.1437  0.5392  0.1440
  538MOL0     C74149   3.413   4.961   5.859 -0.1959 -0.0823  0.0562
  538MOL0     C74150   3.529   4.976   5.765  0.2665  0.6096 -0.5071
  538MOL0    Cl74151   3.483   5.075   5.628 -0.5405 -0.2870 -0.4771
  538MOL0     C74152   3.068   4.415   5.265  0.2302  0.6238 -0.2456
  538MOL0     C74153   3.091   4.291   5.209  0.2172  0.5517  0.1829
  538MOL0     O74154   3.230   3.990   5.301  0.9144 -0.9824 -0.3747
  538MOL0     C74155   3.004   3.801   5.114 -0.2186 -0.1968 -0.6614
  538MOL0     C74156   2.974   3.680   5.062 -1.3019 -0.0125  0.9180
  538MOL0     N74157   2.921   3.350   4.480 -0.0720  0.0774  0.1076
  538MOL0     N74158   2.993   3.435   4.421 -0.5686 -0.1115  0.2721
  538MOL0     C74159   2.591   3.938   5.042  0.1674 -0.5725 -0.4602
  538MOL0     C74160   2.585   4.059   5.108  0.2275 -0.1868  0.1039
  538MOL0     C74161   2.629   4.512   5.202 -0.7150  0.3446  0.4232
  538MOL0     C74162   2.526   4.549   5.289  0.3822 -0.1118 -0.7006
  538MOL0     C74163   2.538   4.682   5.344  0.1379 -0.2116  0.5676
  538MOL0     C74164   2.642   4.767   5.310  0.2129 -0.6663 -0.5357
  538MOL0     O74165   2.631   4.889   5.380  0.6154  0.2429  0.1340
  538MOL0     C74166   2.724   4.996   5.350  0.4907 -0.4627  0.2630
  538MOL0     C74167   2.670   5.125   5.398  0.7013  0.2329 -0.4207
  538MOL0     C74168   2.617   5.102   5.539 -0.6889  0.4116  0.5120
  538MOL0     C74169   2.564   5.238   5.601 -0.1438  0.7095  0.5210
  538MOL0     C74170   2.481   5.323   5.520 -0.0525 -0.0765  0.6084
  538MOL0     C74171   2.419   5.382   5.428 -0.4461 -0.3606 -1.3394
  538MOL0     C74172   2.731   4.722   5.214 -0.5011 -0.7191 -0.8614
  538MOL0     C74173   2.730   4.597   5.159  0.2842 -0.1741  0.0172
  538MOL0     C74174   2.830   4.559   5.041 -0.7363 -0.1899 -0.1667
  538MOL0     H74175   2.835   4.240   4.984  0.5305 -0.2513  0.1604
  538MOL0     H74176   2.867   4.025   4.859  1.9941  0.3969  0.9793
  538MOL0     H74177   2.542   3.692   4.911  0.5992 -0.7577 -0.4101
  538MOL0     H74178   2.638   3.647   4.768  0.6123 -0.6357  1.3790
  538MOL0     H74179   2.413   3.737   4.707 -0.2670 -0.4215 -0.4798
  538MOL0     H74180   2.459   3.890   4.785  4.2928  2.9119  0.2951
  538MOL0     H74181   2.465   3.933   4.567  1.2008  3.2844  0.2863
  538MOL0     H74182   2.625   3.952   4.643  2.0625 -2.4735 -1.0337
  538MOL0     H74183   2.675   3.705   4.552  3.3700  2.5258  1.8329
  538MOL0     H74184   2.522   3.727   4.473 -2.1668  0.8204  3.9012
  538MOL0     H74185   2.695   3.945   4.405  1.8059  0.2135 -1.4147
  538MOL0     H74186   2.620   3.819   4.299 -0.8928 -0.3569 -0.0549
  538MOL0     H74187   2.804   3.656   4.352 -1.0554  0.0538 -2.5485
  538MOL0     H74188   2.826   3.773   4.247 -3.3346 -1.1834 -0.1979
  538MOL0     H74189   2.908   3.798   4.546 -0.3757 -0.8321  0.7611
  538MOL0     H74190   2.977   3.894   4.413 -0.4619 -0.7562 -1.2291
  538MOL0     H74191   3.090   3.653   4.338  1.1323 -0.8430  0.3417
  538MOL0     H74192   3.127   3.714   4.506 -1.5419  0.3514  1.2842
  538MOL0     H74193   2.908   3.621   4.678 -0.4398  0.1907 -1.4679
  538MOL0     H74194   2.698   3.291   4.620 -0.4183  0.0514  0.4864
  538MOL0     H74195   2.709   3.419   4.733 -0.0402 -1.9341  2.6583
  538MOL0     H74196   2.788   3.183   4.827  1.0651 -0.6197 -0.4877
  538MOL0     H74197   2.893   3.159   4.693  4.7796  0.2097  1.8831
  538MOL0     H74198   3.019   3.212   4.910 -0.5356 -1.1619  0.0943
  538MOL0     H74199   3.052   3.315   4.773  0.7649  1.1822  1.0524
  538MOL0     H74200   2.924   3.505   4.861  0.3150 -1.3080 -2.9506
  538MOL0     H74201   2.854   3.397   4.989  1.6969  1.6291  2.7381
  538MOL0     H74202   3.265   3.530   5.110  0.5948  0.8368  1.7350
  538MOL0     H74203   3.399   3.688   5.314  1.8381 -1.2715 -0.9001
  538MOL0     H74204   3.403   3.849   5.233 -1.6075 -0.2291 -2.8715
  538MOL0     H74205   3.441   3.711   5.142 -3.1315 -0.7824 -2.4654
  538MOL0     H74206   2.898   4.102   5.426 -0.0024  0.6957 -0.0491
  538MOL0     H74207   2.867   4.320   5.528  1.3065  1.9420 -0.3154
  538MOL0     H74208   2.823   4.562   5.571  0.2995  0.1511  0.4771
  538MOL0     H74209   2.968   4.508   5.638 -0.7311 -0.9473 -0.1981
  538MOL0     H74210   2.925   4.785   5.539 -1.8957 -0.9545 -0.2370
  538MOL0     H74211   2.923   4.747   5.708 -1.7602 -0.7175  0.2232
  538MOL0     H74212   3.129   4.836   5.599  1.5374 -1.2297 -1.4514
  538MOL0     H74213   3.158   4.696   5.501 -3.8157 -1.6872 -2.1894
  538MOL0     H74214   3.215   4.564   5.724 -0.9506 -0.3758  1.0444
  538MOL0     H74215   3.121   4.683   5.814 -0.8407 -1.9358 -0.0944
  538MOL0     H74216   3.381   4.693   5.836 -0.4279 -1.4313 -0.2719
  538MOL0     H74217   3.378   4.732   5.663 -3.4710 -2.5323 -1.7300
  538MOL0     H74218   3.206   4.908   5.854 -0.8529 -0.0658 -1.0386
  538MOL0     H74219   3.271   4.962   5.707  1.0107  1.8797  0.9846
  538MOL0     H74220   3.449   4.890   5.935  3.4699  0.9164 -0.5642
  538MOL0     H74221   3.380   5.058   5.896 -1.1175 -0.9398  1.6295
  538MOL0     H74222   3.565   4.884   5.718 -0.9174 -0.2656  0.2519
  538MOL0     H74223   3.595   5.019   5.841  1.4051 -1.1546 -0.4404
  538MOL0     H74224   3.113   4.507   5.227 -0.0629  0.8484 -0.0520
  538MOL0     H74225   3.146   4.284   5.116  2.1579  2.0056  1.1193
  538MOL0     H74226   2.919   3.869   5.118  0.3496  0.5139  2.2521
  538MOL0     H74227   2.877   3.672   5.014  0.8364 -0.2267 -3.9429
  538MOL0     H74228   2.514   3.869   5.073  0.1360  0.2868  1.5204
  538MOL0     H74229   2.504   4.057   5.180  0.1509 -0.0748  0.0205
  538MOL0     H74230   2.469   4.471   5.339  3.4168 -1.2224  1.3156
  538MOL0     H74231   2.469   4.708   5.423  0.1552 -2.4594  1.3908
  538MOL0     H74232   2.826   4.987   5.387  0.6985  0.3890 -0.0783
  538MOL0     H74233   2.733   4.990   5.241 -1.3060 -4.8256  0.1402
  538MOL0     H74234   2.580   5.152   5.341  0.1823  1.3426  0.8894
  538MOL0     H74235   2.751   5.198   5.398 -0.7053  1.8742  1.1508
  538MOL0     H74236   2.533   5.033   5.547 -0.7495  0.6673  2.7438
  538MOL0     H74237   2.701   5.065   5.598  0.9201 -2.2379 -3.0536
  538MOL0     H74238   2.651   5.299   5.629  0.1149 -0.3946  2.2409
  538MOL0     H74239   2.517   5.216   5.697 -0.2014  3.0946  1.0978
  538MOL0     H74240   2.400   5.432   5.335  3.4654  2.6029 -0.8679
  538MOL0     H74241   2.818   4.781   5.187 -0.5641 -1.5710 -3.1988
  538MOL0     H74242   2.779   4.569   4.945 -0.4527  0.5238 -0.2516
  538MOL0     H74243   2.919   4.623   5.036 -0.6993 -0.0733  1.4596
  538MOL0     H74244   2.863   4.457   5.063 -3.1035 -2.2816 -4.9480
  539MOL0     O74245   9.837   3.820   0.326 -0.3256 -0.0787  0.8647
  539MOL0     C74246   9.955   3.792   0.304  0.5877 -0.4955  0.0797
  539MOL0     O74247  10.052   3.870   0.242  0.4589 -0.9431  0.0250
  539MOL0     C74248  10.020   3.979   0.158  0.5696  0.0141 -0.7320
  539MOL0     C74249   9.901   3.977   0.080 -0.6311  0.4818 -0.1695
  539MOL0     C74250   9.888   4.070  -0.020  0.8678 -0.4881 -0.4373
  539MOL0     C74251   9.987   4.171  -0.051  0.8921  0.0235 -0.0265
  539MOL0     O74252   9.962   4.269  -0.145  0.4283 -0.2613 -0.1552
  539MOL0     C74253  10.043   4.386  -0.153  0.2121  0.7406 -0.2025
  539MOL0     C74254   9.997   4.458  -0.279 -1.2077 -0.5120  0.6462
  539MOL0     C74255  10.068   4.421  -0.412  0.1632 -0.8616 -0.0170
  539MOL0     C74256  10.070   4.551  -0.508  0.9238 -1.0804 -0.1871
  539MOL0     C74257   9.926   4.579  -0.553 -0.1953 -0.3090 -0.2181
  539MOL0     C74258   9.881   4.495  -0.673 -0.4091 -0.5598 -0.0607
  539MOL0     C74259   9.732   4.513  -0.708  0.9339 -0.5476  0.3117
  539MOL0     C74260   9.686   4.660  -0.735 -0.7892 -0.9407  0.6354
  539MOL0     N74261   9.746   4.730  -0.854 -0.3569 -0.4760  0.0788
  539MOL0     C74262   9.746   4.868  -0.871  0.4408  0.2744  1.0285
  539MOL0     C74263   9.852   4.888  -0.961 -0.2735 -0.4880  0.1075
  539MOL0     C74264   9.895   5.028  -1.004 -1.6052  0.2783 -0.3426
  539MOL0     C74265   9.791   5.124  -1.049  0.1260  0.2280  0.0392
  539MOL0     C74266   9.711   5.073  -1.174 -0.3242 -0.5932 -0.0342
  539MOL0     C74267   9.632   5.192  -1.234  0.6400 -0.2869 -0.3531
  539MOL0     O74268   9.585   5.158  -1.369 -0.0523  0.4983 -0.4552
  539MOL0     C74269   9.508   5.248  -1.441 -0.2053  0.3488  0.5628
  539MOL0     C74270   9.451   5.208  -1.556  0.3366  0.2085  0.1413
  539MOL0     C74271   9.375   5.289  -1.645  0.9039 -0.2327 -0.6164
  539MOL0     C74272   9.308   5.223  -1.760  0.3657  0.6630 -0.3257
  539MOL0     C74273   9.365   5.424  -1.614  0.2696 -0.0332  0.0112
  539MOL0     C74274   9.285   5.528  -1.696  0.0175  0.7256 -0.1209
  539MOL0     O74275   9.284   5.522  -1.824 -0.3681 -0.1056  0.0771
  539MOL0     C74276   9.200   5.607  -1.904 -0.5179  0.1904 -0.0876
  539MOL0     C74277   9.067   5.581  -1.921  0.2045 -0.4020  0.6891
  539MOL0     C74278   8.999   5.678  -1.998 -0.6351  0.2516  0.6596
  539MOL0     C74279   9.067   5.785  -2.075 -0.2667 -0.1245 -1.3641
  539MOL0     O74280   9.013   5.863  -2.171  0.7156 -0.0767 -0.3798
  539MOL0     C74281   8.896   5.810  -2.225  0.0883 -0.3087 -0.5008
  539MOL0     C74282   8.858   5.921  -2.326 -0.2526  0.6017 -0.4246
  539MOL0     C74283   8.708   5.923  -2.350  0.3202  0.6111  0.1525
  539MOL0     C74284   8.666   6.032  -2.450 -1.0384 -0.1025  0.1825
  539MOL0     C74285   8.517   6.057  -2.462 -1.1534 -0.3514 -0.0129
  539MOL0     C74286   8.447   5.931  -2.510  0.4392  0.0291  0.0869
  539MOL0     C74287   8.305   5.967  -2.557 -0.1639  0.2961  0.0970
  539MOL0     C74288   8.220   5.841  -2.574  0.0720 -0.3477  0.0673
  539MOL0    Cl74289   8.315   5.707  -2.649  0.3590 -0.8043  0.3377
  539MOL0     C74290   9.194   5.811  -2.041 -0.6832 -0.5994  0.4235
  539MOL0     C74291   9.263   5.724  -1.954 -0.2284  0.1840 -0.8791
  539MOL0     O74292   9.209   5.600  -1.628 -0.5190  0.4362 -0.7618
  539MOL0     C74293   9.425   5.471  -1.493  0.5222 -0.4541  0.1216
  539MOL0     C74294   9.497   5.383  -1.412  0.7297  0.7366 -0.1247
  539MOL0     N74295   9.906   4.769  -1.003 -0.7909  0.0071 -0.0629
  539MOL0     N74296   9.834   4.676  -0.938  0.3435 -0.0446  0.3619
  539MOL0     C74297  10.106   4.165   0.026 -0.5241 -0.7083  0.6089
  539MOL0     C74298  10.122   4.071   0.127  0.4346 -0.2002 -0.5254
  539MOL0     C74299  10.015   3.661   0.352 -0.2811  0.3253 -0.4459
  539MOL0     C74300  10.156   3.646   0.330  0.0830 -0.1352  0.0358
  539MOL0     C74301  10.229   3.524   0.365  0.0642 -0.1987  0.6615
  539MOL0     C74302  10.160   3.414   0.412  1.0374  0.2925  0.5382
  539MOL0     O74303  10.230   3.297   0.451  0.4526  0.3878  0.0937
  539MOL0     C74304  10.355   3.268   0.385 -0.1026  0.3109  0.3890
  539MOL0     C74305  10.371   3.113   0.367 -0.4328 -0.6066 -0.1580
  539MOL0     C74306  10.245   3.055   0.300  0.9330  0.7167  0.3688
  539MOL0     C74307  10.223   3.108   0.157  0.4699 -0.6447 -0.8389
  539MOL0     C74308  10.123   3.028   0.086 -0.9515 -0.3033  0.4560
  539MOL0     C74309  10.029   2.981   0.021 -0.5513 -0.2096  0.5324
  539MOL0     C74310  10.019   3.423   0.418  0.1740 -0.1269 -0.1330
  539MOL0     C74311   9.952   3.545   0.396  0.5330 -0.1043  0.8416
  539MOL0     C74312   9.801   3.521   0.380 -0.1504  0.1547  0.1593
  539MOL0     H74313   9.839   3.888   0.086  1.0586 -0.7886 -0.7068
  539MOL0     H74314   9.799   4.078  -0.082 -0.5891  2.7473  1.7498
  539MOL0     H74315  10.152   4.381  -0.153  0.1687 -0.4107 -0.3523
  539MOL0     H74316  10.021   4.456  -0.072  3.0586  0.2705  1.1039
  539MOL0     H74317   9.888   4.468  -0.282 -1.1141  0.5411  0.2508
  539MOL0     H74318  10.028   4.560  -0.254  0.4717 -1.5664  3.2750
  539MOL0     H74319  10.172   4.391  -0.402  1.0527  1.4679 -1.4065
  539MOL0     H74320  10.011   4.336  -0.450 -0.4392 -0.7314  0.5720
  539MOL0     H74321  10.102   4.641  -0.453 -0.6680  1.0432 -2.5443
  539MOL0     H74322  10.141   4.543  -0.591  1.2210  1.5768 -0.2795
  539MOL0     H74323   9.932   4.687  -0.572  2.5772 -0.5861 -1.5446
  539MOL0     H74324   9.854   4.556  -0.475 -3.3390  2.7550 -1.9439
  539MOL0     H74325   9.930   4.530  -0.764 -1.0010  2.0290  0.5250
  539MOL0     H74326   9.914   4.391  -0.667 -0.7585 -0.7858 -1.6306
  539MOL0     H74327   9.667   4.463  -0.635 -1.3571  1.7389 -0.0138
  539MOL0     H74328   9.703   4.482  -0.809  0.5318  1.8091 -0.3496
  539MOL0     H74329   9.577   4.668  -0.746 -0.5021  1.9159 -1.1890
  539MOL0     H74330   9.699   4.714  -0.640  0.6326 -1.5190  0.7976
  539MOL0     H74331   9.684   4.941  -0.820 -0.2040  0.1455  0.4441
  539MOL0     H74332   9.963   5.019  -1.090 -1.4771  1.4736 -0.3739
  539MOL0     H74333   9.952   5.061  -0.917  2.4805 -3.9746 -0.9401
  539MOL0     H74334   9.726   5.153  -0.966 -0.6956 -1.1812 -0.0778
  539MOL0     H74335   9.839   5.210  -1.095  2.1568 -0.1477  1.3033
  539MOL0     H74336   9.787   5.041  -1.246  1.5167  1.6518  0.7749
  539MOL0     H74337   9.651   4.983  -1.158 -0.3670 -1.1052 -2.7087
  539MOL0     H74338   9.547   5.213  -1.169  0.9906  1.6721 -0.4380
  539MOL0     H74339   9.689   5.285  -1.250 -1.6480  1.2345 -0.1760
  539MOL0     H74340   9.459   5.101  -1.569 -0.8156  0.2782 -1.2738
  539MOL0     H74341   9.232   5.283  -1.810 -1.0091 -0.7882 -0.0638
  539MOL0     H74342   9.260   5.129  -1.730  2.4138 -0.0548  0.9598
  539MOL0     H74343   9.387   5.177  -1.820  0.6041  0.2698  0.2830
  539MOL0     H74344   9.008   5.504  -1.873  0.8315 -1.1371  0.2922
  539MOL0     H74345   8.893   5.668  -2.020 -0.4803 -2.9158  0.9781
  539MOL0     H74346   8.905   5.709  -2.267 -1.8925 -0.7041 -0.0944
  539MOL0     H74347   8.813   5.801  -2.154 -0.8800 -0.0002 -1.5678
  539MOL0     H74348   8.889   6.014  -2.277  0.0658  0.0257  0.4913
  539MOL0     H74349   8.918   5.913  -2.417 -0.4062  4.4040 -1.0255
  539MOL0     H74350   8.661   5.937  -2.253  0.6029 -0.4750  0.4547
  539MOL0     H74351   8.681   5.824  -2.388 -0.4949  1.6179 -2.0647
  539MOL0     H74352   8.711   6.005  -2.546  1.4988 -0.7423  1.4744
  539MOL0     H74353   8.694   6.130  -2.410 -2.7370  0.3035  0.4537
  539MOL0     H74354   8.477   6.092  -2.366  0.3143  2.8057 -0.4214
  539MOL0     H74355   8.500   6.138  -2.533  1.4410  0.9866  0.7813
  539MOL0     H74356   8.448   5.855  -2.431 -0.0656 -1.3933 -1.2050
  539MOL0     H74357   8.495   5.895  -2.601 -0.5399  0.9127 -0.8097
  539MOL0     H74358   8.314   6.036  -2.641  0.7508  0.4730  0.3216
  539MOL0     H74359   8.250   6.026  -2.483 -0.6773  0.6188 -0.5343
  539MOL0     H74360   8.131   5.865  -2.633 -0.4381 -1.0202  0.5445
  539MOL0     H74361   8.193   5.809  -2.473  0.9994 -1.8396 -0.1091
  539MOL0     H74362   9.246   5.894  -2.088  0.5434  0.3376  3.2241
  539MOL0     H74363   9.361   5.757  -1.921 -1.3157  2.7395  0.0433
  539MOL0     H74364   9.409   5.577  -1.474  0.3156 -0.6610  1.1504
  539MOL0     H74365   9.548   5.429  -1.328 -0.1917  2.8135 -0.6466
  539MOL0     H74366  10.176   4.246   0.007  0.5751 -1.7641  0.0594
  539MOL0     H74367  10.211   4.056   0.187 -1.5391 -1.1259  2.3938
  539MOL0     H74368  10.220   3.731   0.310  1.8556 -1.0253  1.6889
  539MOL0     H74369  10.337   3.524   0.359  0.0129 -0.9155 -0.5545
  539MOL0     H74370  10.363   3.320   0.289 -1.4540 -0.5855 -0.2482
  539MOL0     H74371  10.428   3.312   0.453 -3.0175  3.4722  1.7755
  539MOL0     H74372  10.382   3.071   0.468  1.6665 -0.9588 -0.4835
  539MOL0     H74373  10.468   3.091   0.322 -0.4904 -0.8277 -0.1784
  539MOL0     H74374  10.259   2.947   0.296  1.4478  0.7984 -0.2078
  539MOL0     H74375  10.159   3.061   0.367  1.4400 -1.4357  1.2757
  539MOL0     H74376  10.315   3.101   0.099 -0.0888  0.8833 -2.0060
  539MOL0     H74377  10.188   3.211   0.167 -1.5326 -1.4142  0.7442
  539MOL0     H74378   9.954   2.939  -0.043 -0.4081  1.8685 -1.1240
  539MOL0     H74379   9.968   3.337   0.460 -0.7274  1.4468  2.2678
  539MOL0     H74380   9.747   3.583   0.453  0.4144 -0.0886  0.8000
  539MOL0     H74381   9.770   3.531   0.276  1.5159 -4.1339 -0.9733
  539MOL0     H74382   9.772   3.417   0.400 -3.3782  0.9955  0.4960
  540MOL0     O74383  10.167   6.959  11.410 -0.4408 -0.2835 -0.2834
  540MOL0     C74384  10.080   7.003  11.474  0.0691 -0.1033  0.3557
  540MOL0     O74385  10.026   6.945  11.581  0.3156  0.0647  0.4180
  540MOL0     C74386  10.047   6.810  11.607 -0.7549 -0.7422 -1.1892
  540MOL0     C74387  10.103   6.783  11.734 -0.3064 -0.3923  0.6294
  540MOL0     C74388  10.120   6.658  11.783  0.1668  0.2235  0.6825
  540MOL0     C74389  10.071   6.549  11.717 -0.5057  0.0330 -0.0013
  540MOL0     O74390  10.090   6.420  11.755  0.2469  0.3608 -0.5559
  540MOL0     C74391  10.228   6.388  11.805 -0.7186 -0.6475  0.9485
  540MOL0     C74392  10.234   6.256  11.865 -0.9614  0.6705 -0.9133
  540MOL0     C74393  10.165   6.242  12.006  0.1762  0.3708  0.3667
  540MOL0     C74394  10.238   6.323  12.110  0.0870 -0.4027  0.1150
  540MOL0     C74395  10.191   6.295  12.253 -0.0865  0.5316  0.3018
  540MOL0     C74396  10.035   6.276  12.271 -0.3388 -0.5255  0.0151
  540MOL0     C74397   9.955   6.399  12.242 -0.1590 -0.6747  0.0008
  540MOL0     C74398   9.811   6.378  12.192  0.8362  0.2195 -0.0437
  540MOL0     N74399   9.759   6.488  12.124  0.0050 -0.5774 -0.4762
  540MOL0     C74400   9.786   6.510  11.995 -0.4408  0.1762  0.2487
  540MOL0     C74401   9.698   6.603  11.953  0.6051 -0.1847  0.9067
  540MOL0     C74402   9.693   6.656  11.809 -0.1885 -0.0359 -0.4723
  540MOL0     C74403   9.705   6.815  11.793  0.1979 -0.8107 -0.4373
  540MOL0     C74404   9.674   6.851  11.653  0.2402 -0.0399  0.4995
  540MOL0     C74405   9.640   6.994  11.619 -0.4415  0.7868  0.4177
  540MOL0     O74406   9.522   7.033  11.695  0.1532  0.0023  0.4918
  540MOL0     C74407   9.497   7.167  11.692 -0.0970  0.1229 -0.3742
  540MOL0     C74408   9.393   7.224  11.618  0.9532 -0.1613 -0.0045
  540MOL0     C74409   9.355   7.368  11.619 -1.2647  1.3504  0.2076
  540MOL0     C74410   9.230   7.407  11.536 -0.0891  0.1193  0.3426
  540MOL0     C74411   9.446   7.439  11.704  0.5035  0.2835  0.2765
  540MOL0     C74412   9.425   7.591  11.715  0.2656  0.4559  0.6572
  540MOL0     O74413   9.350   7.658  11.625 -0.2416  0.3665  0.5622
  540MOL0     C74414   9.327   7.790  11.635  0.8352  1.0833  1.0855
  540MOL0     C74415   9.256   7.834  11.737 -0.4843  0.6272  0.3677
  540MOL0     C74416   9.238   7.972  11.737  0.7871 -0.7105  0.0041
  540MOL0     C74417   9.284   8.057  11.638 -0.0733 -0.6027  0.0694
  540MOL0     O74418   9.268   8.196  11.636  0.0922 -0.0144 -0.1228
  540MOL0     C74419   9.137   8.244  11.653 -0.4428  0.6169  0.6509
  540MOL0     C74420   9.134   8.400  11.662 -0.0915  0.1475 -0.6158
  540MOL0     C74421   9.170   8.477  11.540  0.4245 -0.0348 -0.4580
  540MOL0     C74422   9.218   8.622  11.577  0.2425  1.0012  0.1556
  540MOL0     C74423   9.261   8.692  11.449  1.2968  0.0410 -0.7354
  540MOL0     C74424   9.356   8.811  11.474 -0.0638 -0.2181  0.0510
  540MOL0     C74425   9.437   8.863  11.352 -0.1894 -0.8082  0.8022
  540MOL0     C74426   9.351   8.871  11.218  0.0464  0.9253 -0.5406
  540MOL0    Cl74427   9.431   8.935  11.073 -0.3317 -0.2179 -0.0542
  540MOL0     C74428   9.363   8.001  11.541 -0.0364 -0.1053  0.4282
  540MOL0     C74429   9.379   7.867  11.534 -0.0576 -1.4094  0.0995
  540MOL0     O74430   9.468   7.643  11.818  0.2321  0.1223 -0.1689
  540MOL0     C74431   9.552   7.378  11.772  0.3510  0.3064  0.1775
  540MOL0     C74432   9.566   7.246  11.776  0.0852  0.7557 -0.2580
  540MOL0     N74433   9.617   6.644  12.060 -0.0543  0.1565 -0.2568
  540MOL0     N74434   9.652   6.563  12.155  0.1214 -0.4893  0.2648
  540MOL0     C74435  10.006   6.570  11.587  0.1668 -0.0110  0.1474
  540MOL0     C74436  10.005   6.698  11.532 -0.3479  0.0766  0.3911
  540MOL0     C74437  10.045   7.147  11.439 -0.1102 -0.0382 -0.3202
  540MOL0     C74438   9.955   7.209  11.521 -0.5040  0.9310 -0.0531
  540MOL0     C74439   9.917   7.339  11.502 -0.2427  0.1620 -0.7357
  540MOL0     C74440   9.966   7.420  11.403  0.2875  0.2355  1.1050
  540MOL0     O74441   9.907   7.547  11.381 -0.1315  0.1226  0.6056
  540MOL0     C74442   9.974   7.641  11.286  0.0199 -0.2431  0.3559
  540MOL0     C74443   9.918   7.785  11.303  0.0127  0.9574  0.3714
  540MOL0     C74444   9.956   7.882  11.197 -1.2583  0.1512 -0.1878
  540MOL0     C74445   9.894   8.020  11.218  0.7970 -0.1201 -0.8313
  540MOL0     C74446   9.932   8.109  11.105  0.3663  0.6205  0.4339
  540MOL0     C74447   9.976   8.180  11.013 -0.6720  0.8364  0.0109
  540MOL0     C74448  10.058   7.356  11.320 -0.6220 -0.5052  0.4648
  540MOL0     C74449  10.103   7.226  11.334 -0.3034  0.2804  0.6409
  540MOL0     C74450  10.214   7.176  11.244  0.0041  0.5521 -0.4180
  540MOL0     H74451  10.126   6.865  11.801  0.5474 -0.4604  0.4348
  540MOL0     H74452  10.172   6.652  11.878  1.0100 -0.0143  0.2230
  540MOL0     H74453  10.254   6.461  11.883 -1.8592 -0.8798  1.5794
  540MOL0     H74454  10.300   6.390  11.723 -1.1748  1.3137  0.5434
  540MOL0     H74455  10.189   6.183  11.796  0.9868 -0.8906 -0.6240
  540MOL0     H74456  10.338   6.225  11.878 -1.1159 -0.2661 -1.8025
  540MOL0     H74457  10.057   6.259  11.998  0.0829 -0.4825 -0.3651
  540MOL0     H74458  10.183   6.139  12.038 -1.3571 -0.1246 -0.2755
  540MOL0     H74459  10.346   6.307  12.108  0.1685 -0.1291  1.3674
  540MOL0     H74460  10.224   6.430  12.090  0.0194 -0.3833  0.2648
  540MOL0     H74461  10.234   6.369  12.321 -0.1027 -0.5439  1.5141
  540MOL0     H74462  10.234   6.197  12.274 -2.3494 -0.3759  1.0519
  540MOL0     H74463   9.999   6.187  12.219 -3.5064 -0.1340  1.2882
  540MOL0     H74464  10.012   6.253  12.376 -2.2925 -0.4432 -0.3549
  540MOL0     H74465  10.016   6.452  12.168 -1.0990 -0.7800 -0.8667
  540MOL0     H74466   9.951   6.454  12.336 -1.0851 -1.5568  0.4978
  540MOL0     H74467   9.801   6.292  12.126  0.2263  0.8730 -0.8174
  540MOL0     H74468   9.739   6.347  12.269  1.9830  2.2699  2.0127
  540MOL0     H74469   9.862   6.472  11.927 -0.9326 -1.5495  0.6182
  540MOL0     H74470   9.599   6.627  11.763 -0.9120  3.9823 -1.9673
  540MOL0     H74471   9.775   6.603  11.760  0.4044  1.1724 -0.8382
  540MOL0     H74472   9.627   6.864  11.852  1.5924  1.0740 -0.0456
  540MOL0     H74473   9.804   6.842  11.833  0.8563 -2.9528 -0.5221
  540MOL0     H74474   9.763   6.831  11.593 -0.3610 -0.2013 -0.3638
  540MOL0     H74475   9.599   6.777  11.623 -0.4906  0.9964 -0.2758
  540MOL0     H74476   9.726   7.060  11.634 -1.4937  1.7822  2.4905
  540MOL0     H74477   9.614   6.994  11.512  0.2052 -3.4822  0.0888
  540MOL0     H74478   9.346   7.149  11.556 -2.3094  2.7073 -1.3299
  540MOL0     H74479   9.267   7.444  11.440  3.4031 -1.0251  1.0871
  540MOL0     H74480   9.182   7.492  11.585  0.4139  1.7722 -1.8797
  540MOL0     H74481   9.156   7.329  11.516 -1.1407  0.6910  1.7606
  540MOL0     H74482   9.206   7.762  11.801  1.8404 -0.0937  1.4714
  540MOL0     H74483   9.183   8.007  11.823 -1.5122 -1.3499 -1.1414
  540MOL0     H74484   9.082   8.224  11.561  1.7886  3.0057 -1.3274
  540MOL0     H74485   9.094   8.193  11.740  0.3054 -2.1748 -0.4846
  540MOL0     H74486   9.028   8.424  11.679 -0.5592 -2.0099 -0.1125
  540MOL0     H74487   9.193   8.431  11.748 -0.6285  2.2582 -0.9448
  540MOL0     H74488   9.086   8.486  11.471 -0.2943 -2.2267  0.0514
  540MOL0     H74489   9.247   8.418  11.490  2.1418 -0.2337  2.2274
  540MOL0     H74490   9.298   8.598  11.647 -0.0171 -2.1456 -0.4498
  540MOL0     H74491   9.140   8.677  11.631 -2.1720 -0.2908 -1.7840
  540MOL0     H74492   9.319   8.616  11.395 -1.9613 -2.3583 -1.1690
  540MOL0     H74493   9.174   8.729  11.394  0.8848  0.7526  0.3636
  540MOL0     H74494   9.430   8.780  11.547 -1.0887  0.6218  1.5072
  540MOL0     H74495   9.294   8.892  11.514 -1.4714 -1.0171 -0.4100
  540MOL0     H74496   9.525   8.800  11.342  0.6378  0.5591 -1.3104
  540MOL0     H74497   9.483   8.961  11.369  3.3283 -1.7845 -1.7693
  540MOL0     H74498   9.253   8.913  11.243  0.1932  1.4507 -0.8231
  540MOL0     H74499   9.323   8.769  11.191  1.3353  0.0885  1.1033
  540MOL0     H74500   9.416   8.058  11.466  0.9093 -0.2089  0.9951
  540MOL0     H74501   9.438   7.836  11.449  0.5535  0.9972 -0.4522
  540MOL0     H74502   9.633   7.438  11.814 -0.5013 -0.4440  3.0709
  540MOL0     H74503   9.644   7.199  11.836  0.6258  0.1695 -1.3863
  540MOL0     H74504   9.961   6.483  11.539 -3.4448  0.8182  1.6737
  540MOL0     H74505   9.962   6.708  11.433  3.4168 -3.6707 -1.9806
  540MOL0     H74506   9.907   7.156  11.602 -1.3376  2.8079  0.7393
  540MOL0     H74507   9.840   7.375  11.570 -0.8904  0.2002 -1.4806
  540MOL0     H74508  10.081   7.651  11.308  0.2177 -0.1599 -0.5766
  540MOL0     H74509   9.960   7.614  11.181  3.9825  1.8114 -0.9366
  540MOL0     H74510   9.958   7.828  11.395 -2.1092 -0.6210  2.1556
  540MOL0     H74511   9.810   7.780  11.321 -0.1343 -2.8448 -0.7866
  540MOL0     H74512  10.065   7.889  11.199 -1.2591  0.3196 -0.6086
  540MOL0     H74513   9.927   7.842  11.100 -0.1798 -1.3738  0.0939
  540MOL0     H74514   9.936   8.075  11.303 -2.0625 -0.1345  0.7095
  540MOL0     H74515   9.785   8.016  11.220  0.8003 -1.7008  2.3494
  540MOL0     H74516  10.023   8.223  10.927 -2.9826  0.0771 -1.7359
  540MOL0     H74517  10.092   7.407  11.230 -1.4923 -0.7312 -0.0124
  540MOL0     H74518  10.243   7.251  11.169 -1.9827 -2.7538 -4.9570
  540MOL0     H74519  10.305   7.148  11.298 -0.1107  2.9557  1.1755
  540MOL0     H74520  10.175   7.088  11.194 -2.3751  0.7259  0.9851
  541MOL0     O74521   7.147   8.509   6.924 -0.6501 -0.6568  0.6468
  541MOL0     C74522   7.239   8.585   6.963 -0.8738 -0.0498  1.0154
  541MOL0     O74523   7.363   8.542   6.994 -1.6153 -0.3266 -0.2624
  541MOL0     C74524   7.404   8.413   7.021  0.0801  0.3385  0.1588
  541MOL0     C74525   7.541   8.387   7.032  0.4186 -0.1417  0.0603
  541MOL0     C74526   7.599   8.259   7.055 -0.4759  0.1030  0.2029
  541MOL0     C74527   7.511   8.147   7.077  0.4504  0.1493  0.8786
  541MOL0     O74528   7.573   8.029   7.107 -0.3705  0.2484 -0.3974
  541MOL0     C74529   7.493   7.912   7.128 -0.8505 -0.0053  0.0934
  541MOL0     C74530   7.584   7.797   7.160 -0.0507 -1.1230 -0.8418
  541MOL0     C74531   7.646   7.729   7.033  0.6541 -1.1527 -0.8266
  541MOL0     C74532   7.769   7.652   7.064  0.5797 -0.3461 -0.2082
  541MOL0     C74533   7.825   7.541   6.970 -0.1615 -0.3494  0.3534
  541MOL0     C74534   7.856   7.616   6.833 -0.0245 -0.0364  0.0593
  541MOL0     C74535   7.875   7.508   6.722 -0.6134 -0.0997 -0.5256
  541MOL0     C74536   7.924   7.572   6.587 -0.3716 -0.4549  0.0411
  541MOL0     N74537   8.073   7.606   6.591 -0.4741 -0.2212  0.0626
  541MOL0     C74538   8.178   7.525   6.548 -1.3369  0.2749  0.4561
  541MOL0     C74539   8.287   7.609   6.560  1.0431  0.6273  0.8291
  541MOL0     C74540   8.429   7.576   6.529  0.2704  0.1597  0.3709
  541MOL0     C74541   8.453   7.427   6.510  0.5262 -1.2879 -0.1911
  541MOL0     C74542   8.604   7.393   6.512 -0.0073 -0.5259 -0.2772
  541MOL0     C74543   8.634   7.260   6.454  0.4715  0.1667 -0.2314
  541MOL0     O74544   8.758   7.209   6.506 -0.1208  0.9227  1.3824
  541MOL0     C74545   8.814   7.111   6.419  0.2955  0.2653 -0.0253
  541MOL0     C74546   8.951   7.106   6.415 -0.0625  0.1033  0.6153
  541MOL0     C74547   9.021   7.005   6.339  0.3542 -1.2403  0.1768
  541MOL0     C74548   9.171   7.005   6.377 -0.4028 -0.1526 -0.1530
  541MOL0     C74549   8.946   6.913   6.256 -0.5942 -0.9203 -0.5172
  541MOL0     C74550   9.007   6.815   6.172  0.6703 -0.6743  0.2915
  541MOL0     O74551   8.919   6.747   6.093  0.6406 -0.3777 -0.4008
  541MOL0     C74552   8.947   6.627   6.027  0.3726 -0.3669 -0.2761
  541MOL0     C74553   9.061   6.552   6.045 -0.4291  0.3208  0.3273
  541MOL0     C74554   9.068   6.422   5.991  1.0926 -1.0100 -0.2268
  541MOL0     C74555   8.957   6.371   5.921  0.3226  0.2917 -0.4564
  541MOL0     O74556   8.977   6.252   5.866 -0.4233  0.3739  0.3525
  541MOL0     C74557   8.891   6.201   5.761 -0.3040 -0.7583 -0.5314
  541MOL0     C74558   8.936   6.069   5.693  0.8685  0.2644 -0.1734
  541MOL0     C74559   8.986   5.957   5.789 -0.2160 -0.6161 -0.6692
  541MOL0     C74560   9.029   5.831   5.702  0.0069 -1.0355 -0.7038
  541MOL0     C74561   9.048   5.706   5.790 -0.1785 -0.4142 -0.0881
  541MOL0     C74562   8.935   5.654   5.878 -1.1498 -0.2726 -0.6626
  541MOL0     C74563   8.993   5.544   5.979  1.1445 -0.4347 -0.2667
  541MOL0     C74564   8.887   5.474   6.064 -0.5923 -0.1070 -0.2119
  541MOL0    Cl74565   8.823   5.569   6.196  0.5617 -0.2680  0.2649
  541MOL0     C74566   8.830   6.441   5.918  0.3921  0.8623  0.2209
  541MOL0     C74567   8.830   6.570   5.974  0.2284 -0.4838 -0.2976
  541MOL0     O74568   9.125   6.805   6.166 -0.7125 -0.0483  0.2004
  541MOL0     C74569   8.809   6.935   6.253 -0.4007 -0.0461 -0.2537
  541MOL0     C74570   8.746   7.014   6.349  0.3555 -0.3493 -0.6445
  541MOL0     N74571   8.250   7.730   6.607  0.5619 -0.2026  0.3041
  541MOL0     N74572   8.124   7.729   6.625  0.5415  0.3287 -0.7291
  541MOL0     C74573   7.379   8.170   7.084 -0.0807 -0.3869 -0.0854
  541MOL0     C74574   7.319   8.305   7.053  0.2470  0.0183  0.2437
  541MOL0     C74575   7.222   8.733   6.976 -0.2302  1.0821  0.7704
  541MOL0     C74576   7.335   8.819   7.003  0.0874  0.1366  0.7610
  541MOL0     C74577   7.316   8.957   7.025 -0.1527 -0.4298  0.8976
  541MOL0     C74578   7.191   9.014   7.038 -0.2299  0.1449 -0.2872
  541MOL0     O74579   7.187   9.142   7.096  0.7075 -0.2003 -0.1008
  541MOL0     C74580   7.062   9.191   7.147 -0.1901 -0.1400 -0.7151
  541MOL0     C74581   7.070   9.338   7.176 -1.1640 -0.1864 -0.4183
  541MOL0     C74582   7.087   9.420   7.053 -0.0600 -0.2077  0.5369
  541MOL0     C74583   7.228   9.439   6.992  0.1038  0.4180 -0.2680
  541MOL0     C74584   7.221   9.564   6.912  0.8555  0.2066 -0.2774
  541MOL0     C74585   7.211   9.675   6.859 -0.6029  0.6707  0.3780
  541MOL0     C74586   7.084   8.926   6.995 -0.5144  0.0651 -0.6687
  541MOL0     C74587   7.096   8.788   6.969 -0.2257  0.2311  1.3295
  541MOL0     C74588   6.967   8.712   6.937  0.2226 -0.4713  0.1500
  541MOL0     H74589   7.609   8.469   7.011 -0.8711  1.0332  0.2673
  541MOL0     H74590   7.706   8.243   7.050 -0.3453  1.1950 -4.1249
  541MOL0     H74591   7.426   7.897   7.043  2.5225  1.8519 -3.1627
  541MOL0     H74592   7.422   7.940   7.207 -0.9322  0.8159 -0.2577
  541MOL0     H74593   7.664   7.844   7.218  0.6395 -0.1343 -2.5078
  541MOL0     H74594   7.529   7.713   7.204  1.7790 -2.2635 -0.6078
  541MOL0     H74595   7.574   7.672   6.974 -1.0991  0.9314 -0.8078
  541MOL0     H74596   7.685   7.810   6.971 -0.6221  0.1900  0.0656
  541MOL0     H74597   7.849   7.727   7.056 -1.7845  2.2272 -1.4099
  541MOL0     H74598   7.754   7.599   7.158 -3.6975 -3.5912 -2.3702
  541MOL0     H74599   7.753   7.460   6.953 -3.6717  2.0999  2.2365
  541MOL0     H74600   7.915   7.491   7.006  0.0722 -0.9837 -1.0680
  541MOL0     H74601   7.780   7.689   6.805  2.0568  2.8364  1.3428
  541MOL0     H74602   7.942   7.685   6.832 -1.0073  1.3302  1.9193
  541MOL0     H74603   7.785   7.455   6.689  0.6690 -1.9723 -1.1848
  541MOL0     H74604   7.944   7.428   6.751 -0.6252 -1.1651 -3.1337
  541MOL0     H74605   7.910   7.495   6.511 -1.7643 -1.2937  1.0919
  541MOL0     H74606   7.861   7.657   6.559 -2.7703 -1.8109  1.0284
  541MOL0     H74607   8.186   7.420   6.520  0.6610  0.5784 -0.2719
  541MOL0     H74608   8.484   7.589   6.623  0.2452 -1.5484  0.6511
  541MOL0     H74609   8.468   7.642   6.451  2.3362  2.8754  3.4689
  541MOL0     H74610   8.390   7.369   6.578 -0.7006  1.8445  1.5419
  541MOL0     H74611   8.413   7.396   6.413  0.6274 -2.6344  0.1755
  541MOL0     H74612   8.652   7.473   6.455 -0.3975 -0.4304 -0.4705
  541MOL0     H74613   8.641   7.390   6.616 -1.5180 -0.3495  0.2881
  541MOL0     H74614   8.554   7.190   6.479 -0.3024  1.0306 -0.2378
  541MOL0     H74615   8.634   7.271   6.345  0.0521  1.0079 -0.1516
  541MOL0     H74616   9.013   7.175   6.471  1.1099 -0.8347  0.4997
  541MOL0     H74617   9.201   7.099   6.423  2.7837 -2.0303  1.9700
  541MOL0     H74618   9.236   6.988   6.290 -0.0647  2.1260 -0.4173
  541MOL0     H74619   9.209   6.925   6.440  2.0991  2.1411  1.4677
  541MOL0     H74620   9.155   6.579   6.094 -0.8650 -1.5873  2.3924
  541MOL0     H74621   9.147   6.351   6.016  0.7073 -0.8593  1.5783
  541MOL0     H74622   8.789   6.191   5.799 -0.6695  2.5724 -0.3407
  541MOL0     H74623   8.888   6.273   5.678  0.1756  0.7234  0.6854
  541MOL0     H74624   8.856   6.031   5.629  1.0164  0.7011 -0.6364
  541MOL0     H74625   9.028   6.087   5.636  2.0849 -1.8258  1.0251
  541MOL0     H74626   8.908   5.932   5.862  0.5532 -2.4797 -0.4235
  541MOL0     H74627   9.068   5.999   5.847 -2.4130  2.4418  0.4702
  541MOL0     H74628   9.128   5.854   5.661 -0.1745 -0.2479 -0.7086
  541MOL0     H74629   8.952   5.814   5.626  0.2049  2.6399 -1.9254
  541MOL0     H74630   9.059   5.623   5.720 -1.3597 -1.2994  0.7260
  541MOL0     H74631   9.139   5.725   5.847 -0.6787  2.0454 -0.0092
  541MOL0     H74632   8.850   5.612   5.824 -0.8723  1.0934 -2.2233
  541MOL0     H74633   8.894   5.739   5.934 -0.6093  1.8104 -3.2674
  541MOL0     H74634   9.069   5.596   6.039  2.6359 -0.1730 -2.2936
  541MOL0     H74635   9.049   5.472   5.920  0.4089 -1.3130  0.0850
  541MOL0     H74636   8.953   5.403   6.115  2.1501  1.7415 -0.9826
  541MOL0     H74637   8.812   5.429   5.998 -0.4035  2.0855 -2.0240
  541MOL0     H74638   8.742   6.384   5.888  0.4258  0.6410  0.5453
  541MOL0     H74639   8.740   6.630   5.968  0.7291  0.1755 -1.4261
  541MOL0     H74640   8.745   6.883   6.183 -3.1060  0.6264  1.5279
  541MOL0     H74641   8.638   7.002   6.352  0.3888 -2.0210 -3.2315
  541MOL0     H74642   7.301   8.097   7.104 -3.7463  3.2856  0.6348
  541MOL0     H74643   7.212   8.323   7.051  0.4632  1.3531 -1.2226
  541MOL0     H74644   7.432   8.780   7.033 -0.2888 -2.6813 -1.2577
  541MOL0     H74645   7.399   9.011   7.068 -0.7568  0.0001  1.5492
  541MOL0     H74646   6.985   9.161   7.076 -0.5630  0.1787 -0.4533
  541MOL0     H74647   7.032   9.135   7.236  0.3672 -1.2480 -1.2085
  541MOL0     H74648   7.162   9.361   7.230 -0.4494 -0.6138 -1.4141
  541MOL0     H74649   6.987   9.372   7.239 -0.3472 -0.2608  0.7289
  541MOL0     H74650   7.011   9.382   6.984  0.5618 -3.0198  1.2586
  541MOL0     H74651   7.064   9.516   7.099 -0.2707 -0.0756  0.1627
  541MOL0     H74652   7.263   9.349   6.940 -0.6800  0.2715 -0.5535
  541MOL0     H74653   7.303   9.455   7.070 -0.7497 -4.6843  2.0541
  541MOL0     H74654   7.200   9.775   6.823  0.1327  0.6597  0.1139
  541MOL0     H74655   6.981   8.962   6.992 -1.1576 -1.0666  2.8506
  541MOL0     H74656   6.886   8.784   6.952 -1.1500 -1.9899  0.2553
  541MOL0     H74657   6.954   8.673   6.836  0.2497  0.7503 -0.3420
  541MOL0     H74658   6.950   8.630   7.007 -2.2094 -0.0314  0.1779
  542MOL0     O74659   7.738   7.867   9.716  0.9958  0.1251 -0.1006
  542MOL0     C74660   7.851   7.894   9.736  0.0700 -0.3312  0.1743
  542MOL0     O74661   7.947   7.798   9.742 -0.9643 -0.0461 -0.0106
  542MOL0     C74662   7.920   7.694   9.818 -0.4199 -0.4253  0.2509
  542MOL0     C74663   8.032   7.618   9.825 -0.3682  0.4152 -0.1541
  542MOL0     C74664   8.050   7.522   9.924 -0.4684 -0.3630 -1.6150
  542MOL0     C74665   7.934   7.491  10.007  0.4958 -0.0818 -0.3585
  542MOL0     O74666   7.942   7.381  10.095  0.5210  0.2158 -0.2417
  542MOL0     C74667   8.055   7.291  10.100  0.2521 -0.5269 -0.1222
  542MOL0     C74668   8.012   7.179  10.197 -0.2384  0.7446  0.1665
  542MOL0     C74669   7.907   7.079  10.145  0.1254 -1.2168 -0.0108
  542MOL0     C74670   7.915   7.055   9.998  1.2672 -0.4108 -0.1445
  542MOL0     C74671   7.840   6.933   9.941 -0.2666 -0.7193 -0.1144
  542MOL0     C74672   7.931   6.827   9.882  0.3666  0.1090  0.5571
  542MOL0     C74673   7.874   6.721   9.779 -0.3814 -0.5580 -0.4007
  542MOL0     C74674   7.829   6.772   9.639  0.1823  0.2307 -0.4201
  542MOL0     N74675   7.919   6.865   9.576  0.3224  1.0428  0.7548
  542MOL0     C74676   7.920   6.999   9.590  0.3765  0.0677  0.2165
  542MOL0     C74677   8.037   7.032   9.536 -0.4380 -0.6629  0.8987
  542MOL0     C74678   8.110   7.165   9.545  0.0004 -0.1688  0.3031
  542MOL0     C74679   8.028   7.278   9.484 -0.0568 -0.8576 -0.5131
  542MOL0     C74680   8.117   7.410   9.482  0.9776 -1.3491  1.0382
  542MOL0     C74681   8.026   7.536   9.490  0.3394 -0.2439  0.0893
  542MOL0     O74682   7.988   7.588   9.360 -0.4945 -0.3639 -0.6214
  542MOL0     C74683   8.047   7.709   9.332  0.2692  0.1791  0.2855
  542MOL0     C74684   8.177   7.708   9.275 -0.7277 -0.9292  0.3817
  542MOL0     C74685   8.245   7.833   9.253 -0.6753  1.1293  1.2261
  542MOL0     C74686   8.396   7.810   9.206 -0.4794 -0.5563  0.2883
  542MOL0     C74687   8.179   7.952   9.274  0.3500 -0.4563 -0.3391
  542MOL0     C74688   8.246   8.087   9.270  0.3660  0.3652 -0.2433
  542MOL0     O74689   8.200   8.194   9.342 -0.0199  0.9609  0.7754
  542MOL0     C74690   8.255   8.321   9.343  0.0817  1.0036 -0.3481
  542MOL0     C74691   8.234   8.391   9.228 -0.2923 -0.1265 -0.3388
  542MOL0     C74692   8.292   8.523   9.207 -0.1519  0.2383  0.4755
  542MOL0     C74693   8.360   8.584   9.318  0.2282  0.4108 -0.6423
  542MOL0     O74694   8.435   8.703   9.317  0.1277  0.3677  0.1774
  542MOL0     C74695   8.363   8.821   9.294 -0.8417 -0.1143 -0.1060
  542MOL0     C74696   8.279   8.853   9.419  1.1595 -0.0809  0.2725
  542MOL0     C74697   8.171   8.955   9.384 -0.1507 -0.0565 -0.1023
  542MOL0     C74698   8.239   9.087   9.420 -0.2503 -0.3249 -0.6637
  542MOL0     C74699   8.143   9.203   9.390  1.1028 -0.7728 -0.5535
  542MOL0     C74700   8.168   9.321   9.488  0.3180 -0.0678  0.1267
  542MOL0     C74701   8.088   9.444   9.439  0.2385  0.1034 -0.3915
  542MOL0     C74702   8.182   9.515   9.341  0.1317 -0.2641 -0.6997
  542MOL0    Cl74703   8.326   9.573   9.407 -0.3238 -0.2623 -0.1196
  542MOL0     C74704   8.366   8.505   9.436 -0.5950  0.4092 -0.9092
  542MOL0     C74705   8.322   8.375   9.449  0.4795 -0.3119 -0.4661
  542MOL0     O74706   8.336   8.092   9.192 -1.5539  0.5109  0.3759
  542MOL0     C74707   8.042   7.951   9.323 -0.6299 -0.5990  0.3726
  542MOL0     C74708   7.984   7.829   9.354 -0.5169  0.6145 -0.2170
  542MOL0     N74709   8.095   6.925   9.468  0.7047  0.9382  0.2937
  542MOL0     N74710   8.011   6.820   9.488 -0.6624 -0.0166 -0.9879
  542MOL0     C74711   7.815   7.558   9.992 -0.0549 -0.5010  1.0234
  542MOL0     C74712   7.803   7.664   9.901 -0.1736  0.3606 -0.0282
  542MOL0     C74713   7.884   8.041   9.744  0.0057  0.0395 -0.6736
  542MOL0     C74714   7.782   8.120   9.784 -1.1603  0.1416  0.4299
  542MOL0     C74715   7.817   8.250   9.811  0.1914 -0.0982 -0.2770
  542MOL0     C74716   7.940   8.300   9.809 -0.6275 -0.7593 -0.4902
  542MOL0     O74717   7.954   8.430   9.859  0.1452  0.0449 -0.8855
  542MOL0     C74718   8.084   8.488   9.870 -0.0690 -0.7630  0.3641
  542MOL0     C74719   8.104   8.560   9.734  0.2170 -0.7746 -0.0718
  542MOL0     C74720   8.005   8.674   9.713  0.3748  0.1433 -0.0439
  542MOL0     C74721   8.032   8.787   9.809  0.8953 -0.1442  0.4478
  542MOL0     C74722   7.998   8.913   9.745 -0.8688  0.2058  0.3992
  542MOL0     C74723   7.974   9.015   9.692 -0.4585  0.1070 -0.0267
  542MOL0     C74724   8.042   8.227   9.754  0.1191  0.0073 -0.1277
  542MOL0     C74725   8.016   8.094   9.720  0.5218 -0.1605 -0.1619
  542MOL0     C74726   8.130   8.012   9.667 -0.1375 -0.4192  0.1258
  542MOL0     H74727   8.120   7.637   9.765 -0.3805  0.8802 -0.0337
  542MOL0     H74728   8.141   7.464   9.934 -0.8320 -0.8883 -1.3348
  542MOL0     H74729   8.152   7.323  10.137  0.3516 -1.9779  0.9336
  542MOL0     H74730   8.080   7.250  10.001  2.5909 -0.8423  0.5545
  542MOL0     H74731   8.111   7.132  10.204 -0.5399 -0.9563 -4.0129
  542MOL0     H74732   7.975   7.209  10.296 -1.3046  0.9013 -0.2723
  542MOL0     H74733   7.922   6.985  10.199 -0.5908 -0.7461  1.0539
  542MOL0     H74734   7.808   7.123  10.160  1.6147  2.6544 -0.3724
  542MOL0     H74735   7.870   7.144   9.952 -1.2897 -1.7757 -0.4726
  542MOL0     H74736   8.021   7.054   9.973  1.2265  0.1864 -0.3749
  542MOL0     H74737   7.787   6.971   9.853  2.2708  2.9289 -0.3118
  542MOL0     H74738   7.773   6.896  10.019 -0.0962  0.5917  0.6775
  542MOL0     H74739   8.018   6.869   9.829  0.5671  0.3108  1.0453
  542MOL0     H74740   7.972   6.768   9.965 -0.1773 -3.1895 -1.3063
  542MOL0     H74741   7.780   6.684   9.821 -0.8643  1.1481  0.0960
  542MOL0     H74742   7.941   6.636   9.759 -3.4446 -2.8758 -1.8108
  542MOL0     H74743   7.837   6.692   9.565  2.2154 -0.5636  0.5634
  542MOL0     H74744   7.724   6.802   9.638 -0.1863 -0.8844 -2.7677
  542MOL0     H74745   7.844   7.058   9.639 -1.5744 -1.5354 -0.7632
  542MOL0     H74746   8.206   7.167   9.493 -2.0783  1.1822 -3.9909
  542MOL0     H74747   8.133   7.188   9.650  3.3609  0.1342 -0.3941
  542MOL0     H74748   7.996   7.245   9.384  0.1510 -0.5106 -0.6957
  542MOL0     H74749   7.932   7.299   9.533 -1.1123 -1.9694 -2.0019
  542MOL0     H74750   8.175   7.412   9.575  0.1887 -0.3223  1.5263
  542MOL0     H74751   8.178   7.405   9.391 -0.3513 -1.3220  0.1078
  542MOL0     H74752   7.930   7.519   9.540 -0.4999  1.3935 -0.8966
  542MOL0     H74753   8.078   7.611   9.550  0.3063 -0.9499  1.0219
  542MOL0     H74754   8.217   7.608   9.258  1.0752 -0.4222  1.3378
  542MOL0     H74755   8.427   7.705   9.216 -0.6105 -0.7414 -1.0399
  542MOL0     H74756   8.462   7.867   9.272 -1.5447  0.5750  0.4060
  542MOL0     H74757   8.412   7.832   9.100  2.7943 -2.2508  0.2864
  542MOL0     H74758   8.184   8.341   9.146 -0.8642  1.7525 -1.1941
  542MOL0     H74759   8.289   8.570   9.109 -0.8997  0.6782  0.6985
  542MOL0     H74760   8.426   8.910   9.280  1.9543 -2.4709 -5.5313
  542MOL0     H74761   8.318   8.811   9.195 -1.3621  0.3551  0.0698
  542MOL0     H74762   8.227   8.761   9.450  1.7314 -0.9745 -1.3086
  542MOL0     H74763   8.338   8.889   9.504  3.7191 -0.4624 -1.2362
  542MOL0     H74764   8.083   8.935   9.445 -0.4359  1.9616  0.2234
  542MOL0     H74765   8.138   8.959   9.279 -0.6428  4.1428  0.0298
  542MOL0     H74766   8.330   9.111   9.364 -3.5219 -0.0011 -6.6504
  542MOL0     H74767   8.268   9.105   9.524 -2.6588 -0.2820  0.0562
  542MOL0     H74768   8.146   9.235   9.286 -1.0609 -1.7708 -0.9778
  542MOL0     H74769   8.038   9.177   9.407  0.2332  2.0549 -1.1142
  542MOL0     H74770   8.277   9.335   9.492 -0.0251  3.0657  2.6066
  542MOL0     H74771   8.141   9.301   9.592  1.1231  0.3929  0.4361
  542MOL0     H74772   8.074   9.514   9.522 -0.3280  0.8358 -1.1042
  542MOL0     H74773   7.991   9.419   9.395  0.2683  0.1577 -0.4845
  542MOL0     H74774   8.130   9.594   9.287 -0.3054 -0.8897 -1.2109
  542MOL0     H74775   8.215   9.455   9.256 -0.4153  0.7172 -1.6268
  542MOL0     H74776   8.424   8.555   9.513 -3.1541  0.9528  0.8133
  542MOL0     H74777   8.357   8.304   9.524  3.9031 -0.3020 -1.8754
  542MOL0     H74778   7.986   8.043   9.334 -1.5752 -1.1329  0.1807
  542MOL0     H74779   7.886   7.817   9.399 -0.6157 -2.3445 -1.0154
  542MOL0     H74780   7.738   7.537  10.065  0.1996  2.4140  2.2591
  542MOL0     H74781   7.707   7.713   9.895 -1.9878 -2.6192  1.8258
  542MOL0     H74782   7.688   8.083   9.826 -2.7454  1.5643 -1.6347
  542MOL0     H74783   7.734   8.311   9.846  0.4605 -1.0226  2.1442
  542MOL0     H74784   8.079   8.571   9.941  0.8862  0.1475 -0.5935
  542MOL0     H74785   8.159   8.417   9.903  1.2760  0.0489 -0.8263
  542MOL0     H74786   8.096   8.490   9.649 -0.3535  2.1602 -2.6001
  542MOL0     H74787   8.202   8.608   9.738 -0.2798  0.1864  2.2802
  542MOL0     H74788   8.026   8.717   9.615  1.3673  0.4490  0.2921
  542MOL0     H74789   7.904   8.633   9.711  0.4082  0.0692 -0.2567
  542MOL0     H74790   8.135   8.798   9.843  1.1313 -0.2531 -0.2236
  542MOL0     H74791   7.967   8.774   9.896  0.1282 -2.8696 -0.4367
  542MOL0     H74792   7.947   9.104   9.639 -1.6591 -0.0141  0.3421
  542MOL0     H74793   8.141   8.268   9.736  0.7594 -0.6592  1.6329
  542MOL0     H74794   8.086   7.952   9.586 -0.1100  1.3994 -1.2859
  542MOL0     H74795   8.215   8.074   9.638 -0.0208 -1.7214 -2.7159
  542MOL0     H74796   8.169   7.944   9.743  1.8505  1.5179  0.9282
  543MOL0     O74797   4.194   8.847   2.690 -0.4336  0.0507 -0.0269
  543MOL0     C74798   4.315   8.815   2.713 -1.0330 -0.2228  0.4581
  543MOL0     O74799   4.419   8.843   2.629  0.8823  0.1587  0.2978
  543MOL0     C74800   4.406   8.926   2.523 -0.2028 -0.9835 -0.1651
  543MOL0     C74801   4.334   9.048   2.526  0.2533 -0.1797 -0.2432
  543MOL0     C74802   4.327   9.133   2.414 -0.4040  1.3276 -0.2695
  543MOL0     C74803   4.391   9.102   2.290 -0.1874 -0.5533 -0.1125
  543MOL0     O74804   4.413   9.181   2.175  0.0468 -0.2171 -0.6532
  543MOL0     C74805   4.322   9.299   2.167 -0.9125  0.0362  0.5429
  543MOL0     C74806   4.404   9.416   2.245  0.2680  0.6374 -0.4288
  543MOL0     C74807   4.537   9.456   2.180  0.9566 -0.6160  1.3417
  543MOL0     C74808   4.523   9.557   2.064 -0.2869  1.2790  0.1835
  543MOL0     C74809   4.657   9.605   2.018 -0.6468 -0.2340 -0.7884
  543MOL0     C74810   4.657   9.697   1.893  0.5886  0.4191  0.3938
  543MOL0     C74811   4.799   9.749   1.862 -0.1797  0.6390  0.5180
  543MOL0     C74812   4.791   9.858   1.754 -1.3218  0.7604 -0.0395
  543MOL0     N74813   4.915   9.941   1.737 -0.1256 -0.1889 -0.5671
  543MOL0     C74814   4.920  10.063   1.805  0.2812  0.0841  0.9442
  543MOL0     C74815   5.025  10.129   1.754  0.0864 -0.3853  0.1512
  543MOL0     C74816   5.080  10.277   1.783  0.1880 -0.4348  0.2436
  543MOL0     C74817   4.968  10.386   1.747 -0.3513 -0.5031 -0.4244
  543MOL0     C74818   5.020  10.525   1.772 -0.5921 -1.0369 -0.4313
  543MOL0     C74819   4.939  10.629   1.703  0.3583  0.5409 -0.2183
  543MOL0     O74820   4.791  10.610   1.710  0.6001  0.0942 -0.1733
  543MOL0     C74821   4.725  10.721   1.745 -0.2707 -0.3311 -0.7690
  543MOL0     C74822   4.613  10.759   1.667  0.3341 -1.0990 -0.4666
  543MOL0     C74823   4.547  10.876   1.707 -0.2568  0.2845 -0.7232
  543MOL0     C74824   4.433  10.920   1.627  0.0212  0.3790 -0.0826
  543MOL0     C74825   4.575  10.946   1.831 -0.2740 -0.2098  0.5185
  543MOL0     C74826   4.518  11.080   1.881  0.0905  0.1219  0.1136
  543MOL0     O74827   4.392  11.121   1.850 -0.0541 -0.6561  0.8253
  543MOL0     C74828   4.341  11.232   1.913  0.6340 -0.1047 -0.3869
  543MOL0     C74829   4.309  11.350   1.830 -0.7160 -0.1841  0.8850
  543MOL0     C74830   4.264  11.470   1.887  0.0958  0.6667 -0.7007
  543MOL0     C74831   4.254  11.483   2.025 -0.2510  0.0194  0.7253
  543MOL0     O74832   4.218  11.602   2.092  0.4355  0.0590  0.4946
  543MOL0     C74833   4.163  11.713   2.022 -0.2246 -0.4089  0.2171
  543MOL0     C74834   4.100  11.802   2.129 -0.7832  0.5919 -0.4809
  543MOL0     C74835   3.967  11.755   2.190  0.2692  0.6551 -0.1252
  543MOL0     C74836   3.977  11.654   2.305  0.5265 -0.0599  0.0940
  543MOL0     C74837   4.036  11.715   2.434  0.1504 -0.4112 -0.1911
  543MOL0     C74838   4.050  11.613   2.545 -0.7396  0.2715 -1.2114
  543MOL0     C74839   4.134  11.487   2.490 -0.1030 -0.4191 -0.3845
  543MOL0     C74840   4.046  11.367   2.453 -0.1717  0.3634 -1.0488
  543MOL0    Cl74841   4.141  11.221   2.396 -0.0092 -0.8864  0.1528
  543MOL0     C74842   4.280  11.365   2.103 -0.3658  0.3622  0.7338
  543MOL0     C74843   4.320  11.238   2.054 -0.2763 -0.0241 -0.1127
  543MOL0     O74844   4.595  11.156   1.935 -0.2047  0.2549 -0.0404
  543MOL0     C74845   4.681  10.899   1.904  0.4913 -0.6979 -0.5608
  543MOL0     C74846   4.754  10.792   1.859 -0.1010 -0.4801 -0.0399
  543MOL0     N74847   5.080  10.050   1.650 -1.1078  0.1346 -0.0410
  543MOL0     N74848   5.018   9.936   1.641 -1.4249  0.5500  0.3315
  543MOL0     C74849   4.460   8.978   2.289  0.0982  0.5793 -0.2212
  543MOL0     C74850   4.468   8.891   2.408 -0.1025 -0.5585  1.1765
  543MOL0     C74851   4.337   8.735   2.839  0.7059 -0.1259 -0.3965
  543MOL0     C74852   4.468   8.734   2.888 -0.5539  0.2690  0.0890
  543MOL0     C74853   4.505   8.647   2.990  0.5862 -0.9703 -0.3753
  543MOL0     C74854   4.404   8.578   3.053 -0.5243  0.8548  0.1788
  543MOL0     O74855   4.420   8.499   3.161 -0.0371 -0.5291 -0.8022
  543MOL0     C74856   4.516   8.529   3.261  0.0670 -0.7139  0.2835
  543MOL0     C74857   4.495   8.430   3.382  0.5129  0.8422 -0.8316
  543MOL0     C74858   4.603   8.437   3.500  0.0314 -0.1481 -0.0877
  543MOL0     C74859   4.596   8.319   3.602 -0.3155 -0.7678  1.0354
  543MOL0     C74860   4.662   8.355   3.722 -0.1492 -1.0827 -0.0709
  543MOL0     C74861   4.731   8.412   3.808 -0.8319  0.4945  0.0516
  543MOL0     C74862   4.283   8.574   3.002 -0.1341  0.4166  0.2093
  543MOL0     C74863   4.241   8.640   2.890  0.4359 -0.7387  0.0937
  543MOL0     C74864   4.106   8.608   2.834  0.0956  1.1910 -0.3355
  543MOL0     H74865   4.286   9.082   2.618  1.4406  0.2760  0.2404
  543MOL0     H74866   4.269   9.223   2.428 -0.9022  0.9878 -0.1402
  543MOL0     H74867   4.223   9.282   2.210 -2.4044 -0.1075 -2.6154
  543MOL0     H74868   4.319   9.322   2.060  1.1630  3.5986  1.0897
  543MOL0     H74869   4.333   9.499   2.243 -0.2913  0.1614 -0.4756
  543MOL0     H74870   4.433   9.392   2.347  1.2337  1.1840 -0.5582
  543MOL0     H74871   4.607   9.500   2.251  2.1186  1.0719 -0.7307
  543MOL0     H74872   4.588   9.366   2.144  0.2415 -0.1680 -0.9486
  543MOL0     H74873   4.469   9.502   1.987  0.2874 -0.5087  1.0024
  543MOL0     H74874   4.467   9.642   2.106 -2.6049 -1.6047  3.5399
  543MOL0     H74875   4.711   9.510   2.011  0.2617  0.2319 -0.3022
  543MOL0     H74876   4.702   9.658   2.102 -1.4191  0.1137 -0.5885
  543MOL0     H74877   4.609   9.659   1.802 -0.8082 -1.5923  1.8974
  543MOL0     H74878   4.592   9.780   1.923  0.6854  1.2395 -1.5310
  543MOL0     H74879   4.865   9.669   1.827  1.7955  2.8649 -1.1983
  543MOL0     H74880   4.837   9.790   1.956  0.8587 -0.6048  0.6677
  543MOL0     H74881   4.761   9.809   1.661 -2.0483 -0.1495  0.6534
  543MOL0     H74882   4.706   9.923   1.777 -1.0528  0.3449  2.3120
  543MOL0     H74883   4.854  10.098   1.884  1.0768 -2.0271  2.6278
  543MOL0     H74884   5.177  10.292   1.736 -0.4162 -1.8723 -1.5993
  543MOL0     H74885   5.098  10.281   1.891  0.5375 -0.2431  0.1784
  543MOL0     H74886   4.940  10.376   1.642  2.4593  1.1307 -1.4635
  543MOL0     H74887   4.873  10.381   1.801  0.5834  0.7617  1.4445
  543MOL0     H74888   5.026  10.555   1.877  1.5852  0.5915 -0.9438
  543MOL0     H74889   5.122  10.529   1.732 -0.0545 -4.0109  0.4219
  543MOL0     H74890   4.974  10.723   1.746  0.8623  1.0085 -1.5971
  543MOL0     H74891   4.971  10.634   1.598  0.6264  0.9784 -0.1159
  543MOL0     H74892   4.585  10.702   1.579  0.8701  0.5175 -1.7332
  543MOL0     H74893   4.339  10.899   1.678  0.0917  0.3078  0.0191
  543MOL0     H74894   4.431  10.868   1.531  0.0312 -0.2315  0.2460
  543MOL0     H74895   4.445  11.028   1.613  2.2334  0.1405 -0.3332
  543MOL0     H74896   4.315  11.364   1.723 -0.5281 -1.5529  0.7047
  543MOL0     H74897   4.235  11.556   1.828 -0.7140  1.0577  0.2300
  543MOL0     H74898   4.242  11.769   1.971 -1.7521  0.6645 -1.0482
  543MOL0     H74899   4.086  11.688   1.948  0.2411 -0.0356 -0.4020
  543MOL0     H74900   4.175  11.815   2.207  0.4561 -1.7712 -1.1789
  543MOL0     H74901   4.080  11.903   2.091 -2.5584  1.4425  2.3579
  543MOL0     H74902   3.918  11.704   2.106 -0.8534 -1.8476  1.8919
  543MOL0     H74903   3.909  11.842   2.221  0.5567 -0.1696  3.0545
  543MOL0     H74904   4.030  11.566   2.269  2.6730  0.1181  2.5667
  543MOL0     H74905   3.872  11.626   2.317  0.3651 -0.4926 -1.8717
  543MOL0     H74906   4.135  11.752   2.404  0.0523 -0.3712 -0.4636
  543MOL0     H74907   3.966  11.794   2.461 -0.5793 -1.6133  1.6029
  543MOL0     H74908   3.954  11.579   2.585 -1.8668  0.9540 -3.1784
  543MOL0     H74909   4.096  11.660   2.632 -2.4795 -0.7703  0.3484
  543MOL0     H74910   4.205  11.458   2.568 -1.2909 -0.8049  0.5713
  543MOL0     H74911   4.193  11.508   2.401  3.1402 -2.3325  1.1294
  543MOL0     H74912   3.964  11.384   2.383  0.7211 -0.4845 -2.3472
  543MOL0     H74913   3.988  11.344   2.543 -0.3877  1.7495 -0.8101
  543MOL0     H74914   4.264  11.379   2.209 -0.4281 -0.3474  0.8247
  543MOL0     H74915   4.330  11.155   2.124 -0.8196  0.0638  0.0765
  543MOL0     H74916   4.712  10.925   2.005 -1.9580 -0.8763  0.2950
  543MOL0     H74917   4.829  10.755   1.929 -1.2888 -0.0926  1.4815
  543MOL0     H74918   4.512   8.965   2.194 -3.1795  3.9218 -2.8127
  543MOL0     H74919   4.517   8.794   2.402 -1.7820 -1.5060  1.8521
  543MOL0     H74920   4.548   8.796   2.848  2.3751 -2.1919  1.7190
  543MOL0     H74921   4.600   8.646   3.042 -0.5022 -0.6417  1.7069
  543MOL0     H74922   4.619   8.509   3.227  0.0420  0.8395 -0.8303
  543MOL0     H74923   4.510   8.635   3.287 -1.1913 -0.7223  0.0721
  543MOL0     H74924   4.482   8.325   3.352  1.2891 -0.7049  3.4317
  543MOL0     H74925   4.399   8.462   3.424 -0.0252 -1.3495 -0.2488
  543MOL0     H74926   4.700   8.432   3.451 -0.7843 -0.3664 -1.7379
  543MOL0     H74927   4.595   8.534   3.551  2.3982  1.0565 -1.7888
  543MOL0     H74928   4.643   8.228   3.565 -0.2101  0.1242 -1.1782
  543MOL0     H74929   4.491   8.304   3.629  0.0791 -1.1151  2.4484
  543MOL0     H74930   4.784   8.448   3.893  2.2503  0.6842 -1.8116
  543MOL0     H74931   4.215   8.508   3.054 -0.0870  1.6876  1.9576
  543MOL0     H74932   4.027   8.655   2.893 -0.2398 -0.3114  0.4512
  543MOL0     H74933   4.107   8.633   2.727  3.0523  1.6787 -0.2903
  543MOL0     H74934   4.088   8.500   2.838  2.4812  0.7545  0.3106
  544MOL0     O74935   9.524   7.141   0.886 -0.6207  0.3757 -0.4163
  544MOL0     C74936   9.563   7.049   0.821  0.0791 -0.5701 -0.3303
  544MOL0     O74937   9.558   6.918   0.869 -0.7565 -0.4457  1.1165
  544MOL0     C74938   9.497   6.882   0.986  0.2857 -0.6466 -0.5999
  544MOL0     C74939   9.537   6.939   1.108  0.2693  0.6404 -0.1433
  544MOL0     C74940   9.500   6.893   1.229  0.1472  0.6349  0.2516
  544MOL0     C74941   9.414   6.792   1.238  0.4613  0.2210 -0.5472
  544MOL0     O74942   9.386   6.740   1.359  0.1954  0.1516  0.3242
  544MOL0     C74943   9.252   6.760   1.411 -1.2127  0.5359  0.7622
  544MOL0     C74944   9.215   6.631   1.490  0.5533 -0.9475  0.5089
  544MOL0     C74945   9.110   6.643   1.605 -0.7034 -0.2331  0.6205
  544MOL0     C74946   9.037   6.505   1.632 -0.4320 -0.6047 -0.1849
  544MOL0     C74947   9.135   6.415   1.731  0.0570 -0.2862  0.0403
  544MOL0     C74948   9.078   6.277   1.757 -0.3507  0.7132 -0.1208
  544MOL0     C74949   8.987   6.277   1.882 -0.2224  0.4445  0.5045
  544MOL0     C74950   8.908   6.146   1.896 -0.0487 -0.6939  0.3419
  544MOL0     N74951   8.843   6.139   2.029 -0.5021 -0.9337 -0.2728
  544MOL0     C74952   8.730   6.212   2.061  0.6431 -0.1942  0.6646
  544MOL0     C74953   8.680   6.156   2.171 -0.2034  0.2033  0.4339
  544MOL0     C74954   8.552   6.194   2.242 -0.3340 -0.0095  0.6046
  544MOL0     C74955   8.433   6.222   2.153  0.1281 -0.3185 -0.4372
  544MOL0     C74956   8.386   6.096   2.075 -0.5136  0.4396  0.3197
  544MOL0     C74957   8.368   5.968   2.165  0.0966  0.3195 -0.0240
  544MOL0     O74958   8.331   5.862   2.080 -0.4369  0.6855 -0.5659
  544MOL0     C74959   8.316   5.732   2.125 -0.5302 -0.3969 -0.5999
  544MOL0     C74960   8.353   5.698   2.252 -0.1466 -0.8894  0.2633
  544MOL0     C74961   8.330   5.573   2.306 -0.1151  0.1677  0.6996
  544MOL0     C74962   8.400   5.538   2.442  0.2948 -0.9228  1.3213
  544MOL0     C74963   8.252   5.480   2.233  1.0083 -0.4096  0.7355
  544MOL0     C74964   8.203   5.350   2.293 -0.0188 -0.7293 -0.5335
  544MOL0     O74965   8.243   5.311   2.421 -0.6220  0.1680 -0.0460
  544MOL0     C74966   8.176   5.197   2.467  0.7585 -0.0126 -0.7930
  544MOL0     C74967   8.176   5.070   2.405 -0.2442  0.3663  0.1077
  544MOL0     C74968   8.105   4.965   2.455  1.1840 -0.0178  0.5278
  544MOL0     C74969   8.023   4.978   2.565  0.2412 -0.0190  0.1733
  544MOL0     O74970   7.928   4.883   2.607  0.4886 -0.6426  0.1836
  544MOL0     C74971   7.925   4.760   2.532  0.0770  0.2013  0.4954
  544MOL0     C74972   7.835   4.660   2.599  0.2416  0.3639  0.7075
  544MOL0     C74973   7.827   4.669   2.757 -1.0020  0.8210  0.8524
  544MOL0     C74974   7.721   4.555   2.789 -0.5689  0.8299 -0.1874
  544MOL0     C74975   7.580   4.616   2.808 -0.4778 -0.1426  1.3730
  544MOL0     C74976   7.559   4.716   2.930 -0.4514  0.3160 -0.2757
  544MOL0     C74977   7.427   4.796   2.924 -0.2710  0.5949 -0.7247
  544MOL0     C74978   7.313   4.747   3.014 -0.8128 -0.2317  0.8480
  544MOL0    Cl74979   7.281   4.580   2.966 -0.0200 -0.0592 -0.1856
  544MOL0     C74980   8.016   5.107   2.618  0.5912  0.1444  0.0391
  544MOL0     C74981   8.089   5.215   2.576  0.2251 -0.6804  0.9803
  544MOL0     O74982   8.110   5.295   2.227  0.1948 -0.2432  0.7756
  544MOL0     C74983   8.208   5.510   2.098 -0.8921  0.2495 -0.0847
  544MOL0     C74984   8.236   5.638   2.053 -0.3839 -0.4224 -0.0178
  544MOL0     N74985   8.768   6.059   2.211  0.2178 -0.4365 -0.9218
  544MOL0     N74986   8.868   6.048   2.131 -0.0138 -0.2850  0.4901
  544MOL0     C74987   9.364   6.734   1.117  0.5107  0.5166 -0.8668
  544MOL0     C74988   9.404   6.781   0.987 -1.2334 -0.0797 -0.0398
  544MOL0     C74989   9.642   7.082   0.700 -0.9427 -0.2273  0.1886
  544MOL0     C74990   9.719   6.981   0.647  0.2892 -0.5816 -0.4548
  544MOL0     C74991   9.802   7.006   0.541 -0.1894 -0.3917  0.1763
  544MOL0     C74992   9.835   7.140   0.496  0.3878  0.4917  0.4663
  544MOL0     O74993   9.932   7.177   0.394  0.0739 -0.3092 -0.2832
  544MOL0     C74994  10.015   7.295   0.424  0.5872 -0.0649 -0.6382
  544MOL0     C74995   9.990   7.414   0.325  0.2614 -0.8499  1.2260
  544MOL0     C74996  10.038   7.550   0.389 -0.5194 -0.1912  0.1149
  544MOL0     C74997   9.918   7.645   0.425  0.1053  0.2868 -0.2990
  544MOL0     C74998   9.867   7.691   0.301  0.8159 -0.3868  0.9949
  544MOL0     C74999   9.823   7.720   0.183 -0.8906  0.2663 -0.4252
  544MOL0     C75000   9.757   7.241   0.555 -0.4860 -0.5203  0.4917
  544MOL0     C75001   9.657   7.214   0.649  0.7010  0.5632  0.3819
  544MOL0     C75002   9.573   7.334   0.692  0.0324 -0.5523 -0.1276
  544MOL0     H75003   9.614   7.016   1.110 -0.1967  1.1379 -0.8642
  544MOL0     H75004   9.538   6.955   1.309 -0.4504  2.1426 -0.6002
  544MOL0     H75005   9.172   6.773   1.336 -1.5287  1.1806  1.2016
  544MOL0     H75006   9.253   6.851   1.471 -0.1140  1.1232 -0.1085
  544MOL0     H75007   9.191   6.547   1.425  1.3848 -1.8815  1.3731
  544MOL0     H75008   9.308   6.599   1.538  1.1193  1.9948  1.5559
  544MOL0     H75009   9.147   6.690   1.697  0.1552  0.8960 -0.2657
  544MOL0     H75010   9.052   6.726   1.562 -0.7825 -0.8361 -0.4817
  544MOL0     H75011   8.940   6.523   1.679 -2.1345 -1.5526 -3.0410
  544MOL0     H75012   9.007   6.452   1.541 -0.4931 -0.0083 -0.5189
  544MOL0     H75013   9.161   6.463   1.825 -1.8146 -0.8003  0.8667
  544MOL0     H75014   9.226   6.396   1.674 -0.3698 -0.7224 -0.5162
  544MOL0     H75015   9.020   6.239   1.672  0.8640 -4.0258  0.8384
  544MOL0     H75016   9.163   6.212   1.782  0.5273  2.1058  0.6534
  544MOL0     H75017   8.921   6.362   1.858  2.8357  2.3834 -1.9051
  544MOL0     H75018   9.044   6.300   1.972 -0.6602  1.3769  0.5647
  544MOL0     H75019   8.837   6.142   1.813 -0.4025  2.7251  0.3533
  544MOL0     H75020   8.979   6.062   1.890  0.9770  0.1994 -0.3398
  544MOL0     H75021   8.678   6.293   2.012  0.9473 -0.3458  0.0789
  544MOL0     H75022   8.576   6.285   2.298  1.0480  0.7197 -1.0804
  544MOL0     H75023   8.530   6.109   2.307 -0.2155 -2.2347 -2.1079
  544MOL0     H75024   8.353   6.267   2.212  1.3689  0.0378  1.0492
  544MOL0     H75025   8.458   6.305   2.086  0.0706 -2.2038 -2.9214
  544MOL0     H75026   8.304   6.136   2.013  0.3655  3.1635  0.7749
  544MOL0     H75027   8.468   6.075   2.005 -1.1902 -0.6438 -0.1794
  544MOL0     H75028   8.461   5.942   2.218 -0.3321 -0.9558  0.1330
  544MOL0     H75029   8.290   5.982   2.240  1.7680 -1.3568  2.1627
  544MOL0     H75030   8.403   5.767   2.319  0.8004  0.0385 -1.3324
  544MOL0     H75031   8.323   5.511   2.514 -0.0309  0.9862  1.7357
  544MOL0     H75032   8.446   5.633   2.471 -3.6839  1.7202 -0.1256
  544MOL0     H75033   8.475   5.460   2.425 -0.5859 -2.0639  2.5215
  544MOL0     H75034   8.241   5.057   2.319  0.5480 -2.7452  1.0575
  544MOL0     H75035   8.113   4.870   2.402  0.6039 -0.7287  1.6728
  544MOL0     H75036   7.908   4.765   2.424  2.2292  0.5781  0.1276
  544MOL0     H75037   8.031   4.734   2.537  0.5420  2.1077  1.9438
  544MOL0     H75038   7.734   4.671   2.558  0.9408  0.7995 -0.9642
  544MOL0     H75039   7.871   4.561   2.571  1.9464  1.1750 -0.1064
  544MOL0     H75040   7.783   4.766   2.785 -1.7181  0.9158 -0.5250
  544MOL0     H75041   7.925   4.643   2.798 -0.2477 -0.8391 -1.7881
  544MOL0     H75042   7.738   4.491   2.876 -1.7166 -1.4515 -1.5361
  544MOL0     H75043   7.728   4.476   2.713 -3.7167 -0.7387  0.9692
  544MOL0     H75044   7.564   4.682   2.722  1.3217  0.3067  1.3469
  544MOL0     H75045   7.501   4.541   2.808 -1.4468  0.7359 -1.4175
  544MOL0     H75046   7.637   4.791   2.915  0.4999 -0.7456 -0.7700
  544MOL0     H75047   7.566   4.667   3.028  0.6534  0.4983 -0.2554
  544MOL0     H75048   7.387   4.794   2.822 -1.2837 -2.3622 -0.3536
  544MOL0     H75049   7.460   4.897   2.953 -0.2398 -0.3493  2.9315
  544MOL0     H75050   7.227   4.812   2.998 -0.7583 -0.6258 -1.2971
  544MOL0     H75051   7.347   4.764   3.117  3.1083  0.8780 -0.4776
  544MOL0     H75052   7.953   5.132   2.703  0.2199 -1.5329  0.2838
  544MOL0     H75053   8.068   5.311   2.623 -1.3081 -0.8864  0.7860
  544MOL0     H75054   8.146   5.454   2.029  0.0409  1.1667 -1.7204
  544MOL0     H75055   8.197   5.678   1.960 -0.9081  0.4418  0.5455
  544MOL0     H75056   9.297   6.649   1.125  2.4416 -1.1365 -1.5017
  544MOL0     H75057   9.371   6.743   0.891  1.2499  2.2384 -1.9626
  544MOL0     H75058   9.712   6.882   0.691 -1.0789  0.0910  0.9384
  544MOL0     H75059   9.868   6.930   0.501 -0.0458 -1.1674  1.7821
  544MOL0     H75060   9.998   7.334   0.524  1.5218  0.8159 -0.8046
  544MOL0     H75061  10.116   7.254   0.417  0.2058 -1.0331 -0.6617
  544MOL0     H75062   9.883   7.413   0.300  0.8431 -4.8715 -2.1703
  544MOL0     H75063  10.038   7.386   0.231 -0.3636 -1.5659  1.1060
  544MOL0     H75064  10.102   7.524   0.474  2.2331  4.7657 -0.0638
  544MOL0     H75065  10.102   7.603   0.319  1.2103 -0.0370  1.7418
  544MOL0     H75066   9.932   7.724   0.498  0.1141 -0.4222  0.4803
  544MOL0     H75067   9.848   7.579   0.477 -0.6471  0.2695 -1.2968
  544MOL0     H75068   9.789   7.741   0.084  0.0479 -2.3705 -1.3937
  544MOL0     H75069   9.771   7.341   0.516  2.2648 -0.4515  1.4155
  544MOL0     H75070   9.612   7.368   0.789  1.0648 -0.8304 -0.4306
  544MOL0     H75071   9.588   7.421   0.628 -1.2593 -1.1281 -1.2469
  544MOL0     H75072   9.469   7.306   0.711  0.1264 -1.7725 -1.2661
  545MOL0     O75073   8.835  11.234   2.709 -0.0162  0.1250 -0.5466
  545MOL0     C75074   8.758  11.291   2.632  0.4946 -0.8502  0.8188
  545MOL0     O75075   8.643  11.248   2.587  0.8165 -0.8134 -0.3732
  545MOL0     C75076   8.603  11.122   2.603 -0.3731 -0.3362  0.6396
  545MOL0     C75077   8.677  11.003   2.574  0.3775 -0.2201 -0.3960
  545MOL0     C75078   8.618  10.878   2.585 -0.1435 -0.0339  0.5030
  545MOL0     C75079   8.495  10.853   2.638 -0.3111  0.4751 -0.2651
  545MOL0     O75080   8.438  10.731   2.660 -0.2146 -0.2340  0.1445
  545MOL0     C75081   8.526  10.618   2.687  0.3112 -0.0280  0.0060
  545MOL0     C75082   8.461  10.497   2.748  0.0472 -0.2229 -0.7922
  545MOL0     C75083   8.350  10.436   2.661  0.8323  0.0356  0.3684
  545MOL0     C75084   8.361  10.284   2.658 -0.5212  0.3297 -0.2458
  545MOL0     C75085   8.282  10.210   2.766 -0.0110  0.1067 -0.6643
  545MOL0     C75086   8.337  10.228   2.904 -0.5128 -0.4671 -0.5864
  545MOL0     C75087   8.281  10.147   3.022 -0.0117  0.1170  0.0999
  545MOL0     C75088   8.140  10.203   3.061  0.0032  0.4311 -1.2247
  545MOL0     N75089   8.032  10.122   3.001  0.7461 -0.0736 -0.3642
  545MOL0     C75090   7.958  10.162   2.889 -0.3600  0.6550  0.7407
  545MOL0     C75091   7.875  10.054   2.870  0.7548  0.5446  1.4284
  545MOL0     C75092   7.765  10.053   2.767  0.2563 -0.2932 -1.2492
  545MOL0     C75093   7.760   9.925   2.687 -0.0723  1.1308  0.2315
  545MOL0     C75094   7.902   9.881   2.626  0.1530 -0.2607  0.0061
  545MOL0     C75095   7.887   9.751   2.543 -1.0446 -0.3118 -0.3272
  545MOL0     O75096   7.820   9.795   2.430  0.2234 -0.0334  0.9682
  545MOL0     C75097   7.809   9.699   2.323 -0.4245 -0.8520 -0.1286
  545MOL0     C75098   7.797   9.562   2.346  1.4186 -0.3740  0.0734
  545MOL0     C75099   7.765   9.483   2.240  0.8634 -0.3446  0.6378
  545MOL0     C75100   7.767   9.327   2.266 -0.0898  0.3767  0.6343
  545MOL0     C75101   7.769   9.538   2.106 -0.0723 -0.8180  0.2976
  545MOL0     C75102   7.757   9.457   1.982  0.0870  0.1912  0.4066
  545MOL0     O75103   7.822   9.497   1.867 -0.0972  0.6401  0.1807
  545MOL0     C75104   7.803   9.409   1.764 -0.4971 -0.0137  0.1587
  545MOL0     C75105   7.858   9.277   1.753  1.0503 -0.7466  1.0277
  545MOL0     C75106   7.822   9.197   1.638  0.7575  0.3462  0.2571
  545MOL0     C75107   7.740   9.239   1.537 -0.6780 -1.0716  0.8076
  545MOL0     O75108   7.700   9.167   1.433  0.0235  0.6647  0.2535
  545MOL0     C75109   7.743   9.035   1.419  0.0332 -0.1270  0.7375
  545MOL0     C75110   7.656   8.973   1.306  0.7550  0.6169  0.3213
  545MOL0     C75111   7.499   8.970   1.339  0.5451 -0.4273 -0.2255
  545MOL0     C75112   7.444   8.824   1.344  0.5369  0.0350 -0.3747
  545MOL0     C75113   7.287   8.812   1.383 -0.2573 -0.0051  0.2615
  545MOL0     C75114   7.266   8.661   1.424  0.6830 -0.1904  0.2439
  545MOL0     C75115   7.117   8.643   1.459 -0.2788  0.2350  1.1359
  545MOL0     C75116   7.103   8.661   1.614  0.7155 -0.3486 -0.7971
  545MOL0    Cl75117   7.189   8.532   1.707  0.3467 -0.0469 -0.4846
  545MOL0     C75118   7.701   9.375   1.547  0.2226  0.7060  0.2569
  545MOL0     C75119   7.728   9.463   1.656 -0.0477 -0.5495  0.3146
  545MOL0     O75120   7.675   9.358   1.988 -0.5724 -0.6146  0.1077
  545MOL0     C75121   7.800   9.677   2.088  0.5006 -0.1254  0.5021
  545MOL0     C75122   7.814   9.755   2.197  0.6651  0.0144  0.2654
  545MOL0     N75123   7.894   9.961   2.965  0.0866  0.1755 -0.1522
  545MOL0     N75124   7.988   9.999   3.045 -0.1063 -0.0598 -0.2613
  545MOL0     C75125   8.424  10.969   2.679  0.2370  0.2609 -0.5815
  545MOL0     C75126   8.476  11.095   2.654  0.7053 -0.4372  0.2803
  545MOL0     C75127   8.799  11.428   2.593 -0.2277  0.4891  0.5526
  545MOL0     C75128   8.874  11.508   2.686 -0.5299  0.3777  0.1114
  545MOL0     C75129   8.920  11.632   2.650 -0.4234 -0.9054  0.9372
  545MOL0     C75130   8.909  11.693   2.529  0.2062  0.8358 -0.5890
  545MOL0     O75131   8.970  11.804   2.493 -0.3002 -0.2119  0.6367
  545MOL0     C75132   8.929  11.924   2.555  0.0053  0.0889  0.6985
  545MOL0     C75133   8.988  12.047   2.477  0.4685 -0.1259  0.8710
  545MOL0     C75134   8.967  12.185   2.536  0.4469  0.5523  0.3401
  545MOL0     C75135   8.819  12.219   2.573  0.1382 -0.0770  0.2516
  545MOL0     C75136   8.726  12.180   2.468 -1.2455  0.5980 -0.7156
  545MOL0     C75137   8.664  12.135   2.372 -0.4476 -0.0371 -0.4492
  545MOL0     C75138   8.842  11.623   2.435 -0.9202  0.4721  0.7609
  545MOL0     C75139   8.798  11.487   2.464  0.0808  0.0188 -0.4995
  545MOL0     C75140   8.742  11.414   2.339 -0.3231 -1.2082 -0.3550
  545MOL0     H75141   8.767  11.001   2.514 -1.1895  0.9247 -2.9265
  545MOL0     H75142   8.671  10.791   2.548  0.5871  0.1650  1.0301
  545MOL0     H75143   8.614  10.648   2.744  2.3120 -2.8650 -1.3718
  545MOL0     H75144   8.570  10.591   2.591  0.8339 -0.7082  0.4296
  545MOL0     H75145   8.533  10.427   2.789 -1.3060 -0.1696  1.8321
  545MOL0     H75146   8.408  10.538   2.834  1.9337  1.1506 -0.2072
  545MOL0     H75147   8.251  10.451   2.706  1.0507 -0.7868  1.1393
  545MOL0     H75148   8.350  10.465   2.555 -0.9119 -1.6738 -0.1546
  545MOL0     H75149   8.347  10.234   2.562  3.5448 -0.3377 -0.7068
  545MOL0     H75150   8.468  10.271   2.676 -1.0296  0.3548  3.4907
  545MOL0     H75151   8.273  10.103   2.742 -3.7280  0.4055 -1.3260
  545MOL0     H75152   8.178  10.244   2.761  0.2432  0.8798 -0.8584
  545MOL0     H75153   8.442  10.198   2.913  0.5448  2.9617 -0.2289
  545MOL0     H75154   8.345  10.334   2.930 -1.6437 -0.9108  1.8814
  545MOL0     H75155   8.356  10.155   3.102  1.5110  0.5141 -1.3166
  545MOL0     H75156   8.278  10.039   3.005 -0.7527  0.0150  0.8177
  545MOL0     H75157   8.122  10.193   3.169 -4.7080  2.6616 -1.5086
  545MOL0     H75158   8.125  10.310   3.045  0.0628  0.3813 -1.6082
  545MOL0     H75159   7.969  10.245   2.820  3.3467  0.2991  0.7224
  545MOL0     H75160   7.776  10.144   2.706 -1.9740  2.0565  1.5683
  545MOL0     H75161   7.676  10.068   2.829  2.9723  0.0293  2.8935
  545MOL0     H75162   7.730   9.843   2.752 -0.2831  1.4357  0.5156
  545MOL0     H75163   7.685   9.930   2.608  0.4365 -1.0307 -0.4730
  545MOL0     H75164   7.950   9.958   2.565  3.9873 -4.0812 -2.3985
  545MOL0     H75165   7.971   9.863   2.708  0.4200  1.7451  0.2684
  545MOL0     H75166   7.991   9.723   2.523 -1.0110 -1.2543  0.9724
  545MOL0     H75167   7.840   9.664   2.590  1.3089 -1.0907  0.7936
  545MOL0     H75168   7.808   9.520   2.446 -0.9729 -1.4324 -0.0515
  545MOL0     H75169   7.675   9.279   2.232  0.4093  0.3774 -0.7708
  545MOL0     H75170   7.785   9.293   2.368 -0.5870  0.4023  0.7341
  545MOL0     H75171   7.844   9.289   2.198  0.9203  2.2694  0.6460
  545MOL0     H75172   7.924   9.243   1.831  0.4647  2.3032  3.0521
  545MOL0     H75173   7.866   9.098   1.639  0.4926  0.2013 -0.9524
  545MOL0     H75174   7.848   9.030   1.390 -0.1615 -3.0223  0.2150
  545MOL0     H75175   7.720   8.974   1.508 -1.0458  1.3449  1.5106
  545MOL0     H75176   7.670   9.032   1.215 -2.9162 -1.3119 -1.7725
  545MOL0     H75177   7.693   8.870   1.295 -0.5429 -0.0280  1.6308
  545MOL0     H75178   7.436   9.025   1.269  0.3759 -0.2827  0.0363
  545MOL0     H75179   7.482   9.029   1.429  0.5273 -1.4713  0.4748
  545MOL0     H75180   7.501   8.766   1.417 -0.0753  0.7356  0.6934
  545MOL0     H75181   7.454   8.777   1.246 -0.5720 -0.1074 -0.4231
  545MOL0     H75182   7.273   8.883   1.465 -0.4900  2.1187 -1.5051
  545MOL0     H75183   7.217   8.839   1.303 -0.1565  0.6706  0.3977
  545MOL0     H75184   7.319   8.626   1.513 -2.2128 -1.4274  1.6271
  545MOL0     H75185   7.298   8.594   1.343 -1.3258  0.0655 -0.8253
  545MOL0     H75186   7.082   8.544   1.427  1.5972  0.1814 -1.0765
  545MOL0     H75187   7.052   8.711   1.404  2.7153  1.0403 -1.7783
  545MOL0     H75188   6.996   8.658   1.636  0.8984  0.4126  0.3023
  545MOL0     H75189   7.139   8.756   1.656 -2.4655  0.3948  0.5132
  545MOL0     H75190   7.646   9.409   1.460  2.2094 -2.0849 -2.2964
  545MOL0     H75191   7.700   9.567   1.641  0.9227 -0.2558  0.4786
  545MOL0     H75192   7.787   9.718   1.989 -1.2767  1.5283  1.3553
  545MOL0     H75193   7.811   9.863   2.188 -0.0152  0.0659  1.0127
  545MOL0     H75194   8.325  10.945   2.717  1.4260 -1.0960  1.8846
  545MOL0     H75195   8.418  11.185   2.668 -0.1060 -1.0763  1.1339
  545MOL0     H75196   8.873  11.477   2.790  1.2941  0.6302  0.2530
  545MOL0     H75197   8.965  11.698   2.722  0.1205 -1.4876  1.1349
  545MOL0     H75198   8.820  11.936   2.546 -0.7509 -2.1273  4.5659
  545MOL0     H75199   8.963  11.920   2.659  0.5385  0.4803  0.5405
  545MOL0     H75200   8.961  12.044   2.371 -2.1767 -0.4743  1.4867
  545MOL0     H75201   9.095  12.024   2.479  0.4030 -0.6884 -0.6577
  545MOL0     H75202   9.034  12.188   2.622 -0.7040 -0.3893  1.3024
  545MOL0     H75203   8.999  12.258   2.461  0.5504  0.6856  0.5114
  545MOL0     H75204   8.794  12.324   2.593  1.2930  0.5114 -1.2272
  545MOL0     H75205   8.804  12.164   2.667 -1.9107 -1.0362 -0.5784
  545MOL0     H75206   8.601  12.099   2.294  1.6100 -2.6747 -1.0136
  545MOL0     H75207   8.834  11.667   2.337 -2.8932 -0.1829  0.5672
  545MOL0     H75208   8.633  11.412   2.350 -0.8766  2.8356 -2.8585
  545MOL0     H75209   8.783  11.462   2.250  0.7631  2.9712  2.1086
  545MOL0     H75210   8.779  11.312   2.346 -1.3368 -1.6677 -1.4701
  546MOL0     O75211   2.086   1.691   6.616  0.0123 -0.6287 -0.6507
  546MOL0     C75212   2.106   1.769   6.520 -0.3713  0.1072  0.8086
  546MOL0     O75213   2.187   1.746   6.417 -0.4504 -0.1155 -0.5041
  546MOL0     C75214   2.227   1.617   6.384 -0.1644  0.1871 -0.3369
  546MOL0     C75215   2.145   1.503   6.370  0.6064 -0.4421  0.4761
  546MOL0     C75216   2.197   1.378   6.335 -0.2602 -0.0813 -0.1177
  546MOL0     C75217   2.333   1.365   6.324  1.4596  0.1718  0.1015
  546MOL0     O75218   2.369   1.236   6.293 -0.3003  0.0900 -0.0088
  546MOL0     C75219   2.505   1.192   6.298 -0.4469 -0.2081  0.2880
  546MOL0     C75220   2.506   1.042   6.296 -0.0187  0.2926 -0.9066
  546MOL0     C75221   2.650   0.991   6.341 -0.3944 -0.1543 -0.2238
  546MOL0     C75222   2.638   0.843   6.377 -0.6190  1.2762 -0.0929
  546MOL0     C75223   2.761   0.756   6.369  0.6485  0.1372  0.0098
  546MOL0     C75224   2.723   0.601   6.378  0.5939 -0.2567  0.6478
  546MOL0     C75225   2.848   0.513   6.369  0.3990 -0.4050 -0.1486
  546MOL0     C75226   2.867   0.468   6.222  0.0173 -0.6327  0.1348
  546MOL0     N75227   2.988   0.397   6.198  0.6988 -0.3040  0.2952
  546MOL0     C75228   2.995   0.267   6.181 -0.4481 -0.1657  0.0439
  546MOL0     C75229   3.100   0.232   6.100 -0.3571 -0.9471  0.3280
  546MOL0     C75230   3.145   0.093   6.067 -0.7630  0.3597  0.1781
  546MOL0     C75231   3.248   0.101   5.958  0.2512  0.0419  0.2693
  546MOL0     C75232   3.389   0.116   6.021 -0.9776 -0.0558 -0.0001
  546MOL0     C75233   3.496   0.131   5.917 -0.1065 -0.4506  0.6387
  546MOL0     O75234   3.619   0.171   5.986  0.0447  0.2887  0.1895
  546MOL0     C75235   3.740   0.096   5.984 -0.5387  0.6518 -0.4383
  546MOL0     C75236   3.850   0.140   6.064  0.1403  0.3861  0.4328
  546MOL0     C75237   3.957   0.055   6.086 -0.5932  1.3133 -0.4844
  546MOL0     C75238   4.077   0.103   6.177 -0.0222  0.2061 -0.1050
  546MOL0     C75239   3.963  -0.065   6.017  0.0275 -0.3895  0.0655
  546MOL0     C75240   4.080  -0.143   6.035 -0.6304 -0.0936  0.3160
  546MOL0     O75241   4.098  -0.225   6.145  0.1885 -0.7808 -0.1980
  546MOL0     C75242   4.220  -0.299   6.132 -0.1565 -0.3320 -0.5335
  546MOL0     C75243   4.196  -0.426   6.092 -0.6069 -0.2281  0.0683
  546MOL0     C75244   4.300  -0.505   6.067 -0.2307  0.2958 -0.5990
  546MOL0     C75245   4.433  -0.474   6.091 -0.8686 -0.3216 -0.5384
  546MOL0     O75246   4.526  -0.575   6.062  0.0242  0.1081 -1.0155
  546MOL0     C75247   4.665  -0.550   6.089 -0.2012  0.1539 -1.4944
  546MOL0     C75248   4.702  -0.601   6.230  0.1190  0.5564  0.1775
  546MOL0     C75249   4.852  -0.601   6.258  0.8937  0.1475 -0.4442
  546MOL0     C75250   4.926  -0.718   6.205  0.0401 -0.2221  0.4567
  546MOL0     C75251   4.882  -0.856   6.250 -0.1146 -0.1740 -0.4821
  546MOL0     C75252   4.874  -0.873   6.398 -0.0383  0.1036 -0.5401
  546MOL0     C75253   5.013  -0.868   6.464  0.4591  0.5329  0.3862
  546MOL0     C75254   5.106  -0.993   6.456  0.9465 -0.5043 -0.4410
  546MOL0    Cl75255   5.252  -0.937   6.547 -0.2155  0.1021  0.0154
  546MOL0     C75256   4.448  -0.357   6.162 -0.0870  0.1743 -0.0527
  546MOL0     C75257   4.342  -0.270   6.191 -0.3541  0.0788 -1.1268
  546MOL0     O75258   4.153  -0.138   5.937 -0.0500 -0.0777  0.3392
  546MOL0     C75259   3.861  -0.102   5.922  0.1456 -0.1196  0.6547
  546MOL0     C75260   3.753  -0.021   5.902 -0.6165 -0.3795  0.2567
  546MOL0     N75261   3.157   0.359   6.069  0.8818  0.6144 -0.1637
  546MOL0     N75262   3.092   0.452   6.130 -0.0744  0.0657  0.3487
  546MOL0     C75263   2.415   1.482   6.330 -1.0551  0.2210 -0.5608
  546MOL0     C75264   2.368   1.603   6.362  0.0971  0.1526 -1.7024
  546MOL0     C75265   2.025   1.898   6.518 -0.6289 -0.2425 -0.9519
  546MOL0     C75266   1.982   1.937   6.391 -0.7547  1.0609 -1.0421
  546MOL0     C75267   1.914   2.059   6.370  0.4026 -0.0312 -0.9070
  546MOL0     C75268   1.901   2.145   6.482  0.2878 -0.3102  0.8089
  546MOL0     O75269   1.831   2.264   6.485 -0.4649 -0.2562  0.2789
  546MOL0     C75270   1.781   2.309   6.359 -0.2836  0.0763 -0.1192
  546MOL0     C75271   1.716   2.444   6.375  0.7578  0.2844  0.1082
  546MOL0     C75272   1.574   2.443   6.431  1.0701  0.3244  0.9042
  546MOL0     C75273   1.572   2.386   6.574  0.7346  1.3292 -0.9637
  546MOL0     C75274   1.454   2.440   6.650  0.6849 -1.0546  0.2497
  546MOL0     C75275   1.351   2.484   6.690 -0.0929 -0.5841 -0.4784
  546MOL0     C75276   1.947   2.107   6.606 -0.1064  0.5362 -0.6204
  546MOL0     C75277   2.008   1.982   6.631  0.2222 -0.1173 -0.5950
  546MOL0     C75278   2.068   1.948   6.766  0.3839 -0.0778 -0.4692
  546MOL0     H75279   2.040   1.514   6.399  0.6160  1.2327 -0.0022
  546MOL0     H75280   2.129   1.295   6.328  0.1069 -0.2828 -1.5018
  546MOL0     H75281   2.556   1.224   6.389  0.4707  1.0582 -0.6427
  546MOL0     H75282   2.555   1.245   6.217 -2.3205  2.8152  0.9549
  546MOL0     H75283   2.421   1.002   6.352  0.5525 -1.0285 -0.9361
  546MOL0     H75284   2.474   1.021   6.193 -0.1691  2.0682 -1.2519
  546MOL0     H75285   2.714   1.001   6.252 -3.5341 -0.3495 -2.6883
  546MOL0     H75286   2.690   1.036   6.432  2.0662 -0.4039 -1.0965
  546MOL0     H75287   2.616   0.830   6.484 -0.3031 -3.3425 -0.3928
  546MOL0     H75288   2.549   0.803   6.329 -1.2414  0.1974  1.8618
  546MOL0     H75289   2.831   0.779   6.449  2.6479 -1.2964 -1.2513
  546MOL0     H75290   2.814   0.779   6.277  1.2065 -1.1671 -0.0116
  546MOL0     H75291   2.687   0.586   6.480 -0.5961  2.2249  0.6571
  546MOL0     H75292   2.645   0.572   6.307  0.1884 -1.9096  1.7102
  546MOL0     H75293   2.843   0.432   6.442  1.4537  0.6308  1.1170
  546MOL0     H75294   2.939   0.566   6.398 -0.4175  1.3817 -0.7271
  546MOL0     H75295   2.785   0.412   6.176 -0.6126 -0.7368  1.3413
  546MOL0     H75296   2.867   0.560   6.162 -0.0619 -1.2758 -0.8679
  546MOL0     H75297   2.932   0.194   6.231  1.5811 -1.6383  0.5765
  546MOL0     H75298   3.053   0.037   6.049 -1.4898  0.9155  1.9262
  546MOL0     H75299   3.178   0.056   6.165 -1.5781  0.5498  0.5321
  546MOL0     H75300   3.247   0.001   5.911 -0.2483 -1.5543  3.4155
  546MOL0     H75301   3.224   0.180   5.887  3.0727 -1.8640 -3.1447
  546MOL0     H75302   3.382   0.211   6.076  1.3092  0.8251 -1.0883
  546MOL0     H75303   3.410   0.031   6.087 -3.0748 -0.9715 -0.4311
  546MOL0     H75304   3.506   0.036   5.864 -0.0729 -1.7979  2.9208
  546MOL0     H75305   3.454   0.206   5.849 -0.2535  0.5206  1.7568
  546MOL0     H75306   3.859   0.237   6.112  1.6056 -1.3169  4.0050
  546MOL0     H75307   4.156   0.131   6.107  0.1576 -1.9312 -0.8047
  546MOL0     H75308   4.125   0.039   6.251  0.7687  0.4054 -0.4438
  546MOL0     H75309   4.039   0.187   6.237  1.3036  1.6042 -1.1548
  546MOL0     H75310   4.093  -0.449   6.065 -1.2356  0.7769  1.4580
  546MOL0     H75311   4.288  -0.595   6.007 -0.4888  0.1011 -0.2573
  546MOL0     H75312   4.732  -0.600   6.019  0.5587  0.8138 -1.2462
  546MOL0     H75313   4.686  -0.443   6.080 -0.6565  0.3382 -0.4472
  546MOL0     H75314   4.646  -0.545   6.306 -0.3174  1.5159 -0.8300
  546MOL0     H75315   4.681  -0.706   6.253  0.4055  0.8077  1.7281
  546MOL0     H75316   4.866  -0.588   6.366 -4.3732 -0.0126  0.4913
  546MOL0     H75317   4.894  -0.508   6.216 -0.9874  1.4263  0.3797
  546MOL0     H75318   5.033  -0.699   6.222  0.0309 -0.6785  1.0379
  546MOL0     H75319   4.920  -0.708   6.096  4.2038  4.2013  0.2682
  546MOL0     H75320   4.781  -0.891   6.225  0.2485 -1.7442  0.1384
  546MOL0     H75321   4.955  -0.926   6.209  0.8225 -0.0570  0.9433
  546MOL0     H75322   4.814  -0.962   6.415 -0.9903  0.9008  0.4104
  546MOL0     H75323   4.806  -0.799   6.441 -1.4407 -1.1801 -0.4867
  546MOL0     H75324   5.014  -0.845   6.571  3.4998 -0.5032  0.6658
  546MOL0     H75325   5.069  -0.785   6.420 -0.8414  0.0683 -2.3387
  546MOL0     H75326   5.113  -1.004   6.347 -1.4136  0.7484 -0.7860
  546MOL0     H75327   5.065  -1.086   6.496  0.4945 -0.8113 -1.5689
  546MOL0     H75328   4.546  -0.336   6.203 -1.4572  1.1804  3.0094
  546MOL0     H75329   4.355  -0.190   6.263  0.0568 -0.2956 -0.7788
  546MOL0     H75330   3.869  -0.198   5.873  2.6724  0.3195  0.0665
  546MOL0     H75331   3.682  -0.051   5.825 -0.8511  2.1762 -0.6216
  546MOL0     H75332   2.522   1.466   6.316 -0.7053  0.8582  1.0838
  546MOL0     H75333   2.440   1.682   6.379 -0.3312  0.3916 -0.9150
  546MOL0     H75334   2.005   1.876   6.304  1.3379  1.3086 -0.7266
  546MOL0     H75335   1.881   2.085   6.270 -0.3575 -0.5530 -0.8015
  546MOL0     H75336   1.850   2.332   6.278 -1.8827  0.8595 -1.3172
  546MOL0     H75337   1.703   2.240   6.326 -0.1275  0.0350 -0.3941
  546MOL0     H75338   1.727   2.502   6.283 -0.4107 -0.6742 -0.6582
  546MOL0     H75339   1.772   2.499   6.451 -0.0711 -0.3081  1.1690
  546MOL0     H75340   1.547   2.548   6.437 -0.9614 -0.1500  0.6724
  546MOL0     H75341   1.506   2.396   6.359  1.1890  0.3128  0.7986
  546MOL0     H75342   1.668   2.416   6.615 -0.2465  3.0199  0.2218
  546MOL0     H75343   1.562   2.277   6.572  1.2134  1.2953 -2.2143
  546MOL0     H75344   1.250   2.509   6.715 -0.1004  0.3099 -1.3406
  546MOL0     H75345   1.929   2.173   6.690  1.6988  2.1026 -1.3987
  546MOL0     H75346   2.055   2.027   6.841 -0.8890  0.9140 -1.6771
  546MOL0     H75347   2.026   1.855   6.805 -2.1473  1.5088  0.8968
  546MOL0     H75348   2.178   1.945   6.762  0.5649  0.5900  2.0341
  547MOL0     O75349  10.017   0.501   7.167  0.4907 -0.3604  0.5906
  547MOL0     C75350  10.097   0.487   7.254 -0.7370  0.0101 -0.0525
  547MOL0     O75351  10.196   0.391   7.251 -0.1783 -0.2748  0.6956
  547MOL0     C75352  10.234   0.339   7.126  0.1405 -0.6721 -0.1131
  547MOL0     C75353  10.236   0.402   7.003 -0.9401 -0.1283  0.1215
  547MOL0     C75354  10.291   0.342   6.893 -0.0655 -0.0799  0.4163
  547MOL0     C75355  10.330   0.205   6.898  0.3050  0.7165 -0.2764
  547MOL0     O75356  10.381   0.131   6.796  0.2246  0.4757  0.1169
  547MOL0     C75357  10.350   0.156   6.658  0.8560 -0.1678 -0.5636
  547MOL0     C75358  10.339   0.032   6.571 -0.3501 -0.4862  0.6307
  547MOL0     C75359  10.478  -0.016   6.516  0.7177  0.2801 -0.1889
  547MOL0     C75360  10.476  -0.160   6.475  0.6951 -0.0126  0.5910
  547MOL0     C75361  10.604  -0.204   6.415  0.2910  0.0589  0.2133
  547MOL0     C75362  10.596  -0.343   6.361  0.5228  0.9376 -0.3172
  547MOL0     C75363  10.742  -0.384   6.323 -0.1389  0.2258 -1.1680
  547MOL0     C75364  10.805  -0.472   6.437  0.2557 -0.6975  0.4571
  547MOL0     N75365  10.836  -0.380   6.549 -0.6060  0.0336 -0.5808
  547MOL0     C75366  10.960  -0.316   6.560 -0.6394 -0.5717 -0.6508
  547MOL0     C75367  10.960  -0.273   6.695 -0.0504 -0.0677 -1.3514
  547MOL0     C75368  11.064  -0.178   6.755 -0.8572  0.2365 -0.0587
  547MOL0     C75369  10.989  -0.063   6.839 -0.0692  0.6547  0.0850
  547MOL0     C75370  11.090   0.032   6.897 -1.1741 -0.4907  0.0845
  547MOL0     C75371  11.151  -0.012   7.031  0.6974  0.2009 -0.5722
  547MOL0     O75372  11.258  -0.115   7.025 -0.3269  0.2720 -0.4199
  547MOL0     C75373  11.357  -0.102   7.123 -0.0048 -0.4261  0.3738
  547MOL0     C75374  11.483  -0.142   7.080 -0.0991  0.1691  0.1418
  547MOL0     C75375  11.596  -0.115   7.160 -0.5471  0.4129 -0.3266
  547MOL0     C75376  11.730  -0.159   7.115  0.5388 -0.2651  0.5560
  547MOL0     C75377  11.575  -0.063   7.290  1.2957  0.0521  0.0795
  547MOL0     C75378  11.682  -0.055   7.388 -0.1494 -0.2628  0.3238
  547MOL0     O75379  11.649  -0.071   7.512 -1.0036  0.8954  0.3364
  547MOL0     C75380  11.740  -0.042   7.604 -0.3800  0.3745 -0.8989
  547MOL0     C75381  11.741   0.081   7.669 -0.7233 -1.0964 -0.4013
  547MOL0     C75382  11.837   0.113   7.774 -0.2279 -0.7083 -0.1238
  547MOL0     C75383  11.933   0.010   7.811 -1.3026 -0.7151 -0.6105
  547MOL0     O75384  12.043   0.020   7.899 -0.2677  0.8348  0.2493
  547MOL0     C75385  12.054   0.146   7.968  0.0041 -0.3963 -0.8106
  547MOL0     C75386  12.163   0.124   8.087 -0.3848 -0.4792  0.6186
  547MOL0     C75387  12.205   0.249   8.175  0.3464 -0.3248 -0.5044
  547MOL0     C75388  12.089   0.279   8.278  0.3661 -1.2793  0.1132
  547MOL0     C75389  12.132   0.407   8.364  0.1926 -0.2689  0.4662
  547MOL0     C75390  12.034   0.460   8.472 -0.0189  0.3823 -0.3344
  547MOL0     C75391  12.061   0.608   8.508 -0.2377 -0.9318 -0.7034
  547MOL0     C75392  11.976   0.659   8.632  0.7290 -0.3975  0.5124
  547MOL0    Cl75393  12.060   0.797   8.706 -0.2445  0.2703  0.2451
  547MOL0     C75394  11.933  -0.118   7.739  0.4603  0.1485  0.8440
  547MOL0     C75395  11.834  -0.141   7.646 -0.0211 -0.4641 -0.9741
  547MOL0     O75396  11.798  -0.039   7.349  0.4306  0.4538 -0.5293
  547MOL0     C75397  11.445  -0.037   7.333 -0.7853 -0.8591 -0.3309
  547MOL0     C75398  11.343  -0.045   7.245  0.5885 -0.8152  0.2349
  547MOL0     N75399  10.838  -0.303   6.752 -0.3006 -0.3414 -0.0881
  547MOL0     N75400  10.769  -0.372   6.662  0.9891  0.1467 -0.6888
  547MOL0     C75401  10.333   0.141   7.016  0.5605  0.1914  0.0035
  547MOL0     C75402  10.287   0.205   7.125  0.4238  0.6191 -0.6970
  547MOL0     C75403  10.090   0.558   7.381  0.1778 -0.9199 -0.4642
  547MOL0     C75404  10.201   0.548   7.471  0.1710 -0.5070 -0.1021
  547MOL0     C75405  10.199   0.605   7.599  0.6066  0.1465  0.6682
  547MOL0     C75406  10.089   0.682   7.635 -0.6690  0.3128 -0.0620
  547MOL0     O75407  10.086   0.746   7.752  0.6392 -0.4141 -0.5717
  547MOL0     C75408  10.102   0.674   7.871 -0.1999  0.1950  0.4063
  547MOL0     C75409   9.965   0.660   7.931  0.5136  0.2133  0.1852
  547MOL0     C75410   9.895   0.790   7.971  0.6221 -0.1558 -0.4508
  547MOL0     C75411   9.968   0.845   8.093  0.9778 -0.1985  0.1731
  547MOL0     C75412   9.901   0.972   8.127 -0.0299 -1.1255 -1.0447
  547MOL0     C75413   9.847   1.082   8.148  0.5674  0.6180 -0.5863
  547MOL0     C75414   9.983   0.693   7.544  0.9735  0.5007  0.4034
  547MOL0     C75415   9.981   0.633   7.422 -0.1341 -0.2880  0.6502
  547MOL0     C75416   9.866   0.664   7.332  0.0225 -0.3729  0.2072
  547MOL0     H75417  10.210   0.508   7.007  1.7563  0.7574 -2.3612
  547MOL0     H75418  10.295   0.416   6.813  2.3826  0.3320  0.8300
  547MOL0     H75419  10.423   0.222   6.610  0.3623  3.4964  3.0887
  547MOL0     H75420  10.253   0.207   6.651 -0.6394 -2.9381 -1.3543
  547MOL0     H75421  10.296  -0.052   6.627  1.6215 -2.5027 -0.6785
  547MOL0     H75422  10.266   0.059   6.494  0.1694  0.0837  0.3318
  547MOL0     H75423  10.517   0.043   6.433 -0.1122  1.2115  0.0672
  547MOL0     H75424  10.549   0.004   6.597  2.3858  4.2756 -2.3622
  547MOL0     H75425  10.450  -0.217   6.564 -0.4339 -2.1725 -1.0247
  547MOL0     H75426  10.390  -0.178   6.408  0.4681  0.7210  0.6709
  547MOL0     H75427  10.683  -0.193   6.490  1.1528 -2.2502 -0.2617
  547MOL0     H75428  10.643  -0.146   6.331  0.8159 -0.8642 -0.2034
  547MOL0     H75429  10.557  -0.420   6.429  3.1024  0.9861  1.3568
  547MOL0     H75430  10.524  -0.350   6.279 -1.3518 -0.4253  1.3548
  547MOL0     H75431  10.805  -0.298   6.301 -0.3776  0.0670 -2.5935
  547MOL0     H75432  10.730  -0.446   6.234  1.1639  0.7309 -1.7196
  547MOL0     H75433  10.742  -0.556   6.470 -0.4971 -0.2089  0.2988
  547MOL0     H75434  10.904  -0.506   6.408  3.4086  6.9325 -0.1973
  547MOL0     H75435  11.042  -0.315   6.490  0.3061 -1.0766  0.4230
  547MOL0     H75436  11.127  -0.132   6.679 -2.2030  2.2141 -0.0490
  547MOL0     H75437  11.128  -0.226   6.829 -3.1510  0.4533  2.2311
  547MOL0     H75438  10.916  -0.019   6.771 -0.7522 -1.0933 -0.3586
  547MOL0     H75439  10.937  -0.103   6.927 -0.0345  2.8887  1.1950
  547MOL0     H75440  11.176   0.045   6.830 -3.1408 -1.1878 -2.7412
  547MOL0     H75441  11.033   0.122   6.921 -0.1687  1.3113 -3.6653
  547MOL0     H75442  11.195   0.076   7.078  0.5706 -1.4495  2.9458
  547MOL0     H75443  11.069  -0.050   7.093  1.1844 -2.8521 -1.6186
  547MOL0     H75444  11.494  -0.198   6.988 -0.5791 -3.4821  2.0904
  547MOL0     H75445  11.775  -0.248   7.162  1.0989 -1.8259 -2.6802
  547MOL0     H75446  11.807  -0.082   7.121 -0.5040  0.7117  2.3164
  547MOL0     H75447  11.725  -0.191   7.011 -0.1228  3.2692 -0.6072
  547MOL0     H75448  11.689   0.165   7.624 -0.5583  0.7143  2.5304
  547MOL0     H75449  11.834   0.208   7.827  0.6760 -0.1773 -1.0144
  547MOL0     H75450  12.083   0.231   7.906  1.6870  0.7670  1.4673
  547MOL0     H75451  11.962   0.166   8.024 -0.1987 -1.6237 -0.6572
  547MOL0     H75452  12.121   0.041   8.145 -0.1806 -2.9013 -2.4103
  547MOL0     H75453  12.251   0.073   8.048 -1.9587 -1.4921 -1.8965
  547MOL0     H75454  12.213   0.337   8.110  0.2118 -1.1412 -1.6698
  547MOL0     H75455  12.298   0.232   8.228 -0.2676 -3.1223 -0.1652
  547MOL0     H75456  12.083   0.192   8.344 -0.2172 -1.1438  0.2433
  547MOL0     H75457  11.990   0.298   8.236  0.9680  2.0502 -0.0729
  547MOL0     H75458  12.229   0.391   8.413  0.2107 -3.1732 -0.2889
  547MOL0     H75459  12.150   0.487   8.292  0.8884 -0.8358 -0.0067
  547MOL0     H75460  12.049   0.397   8.560 -0.0309  1.0767  0.1728
  547MOL0     H75461  11.929   0.444   8.448 -0.1248  2.6314 -1.6493
  547MOL0     H75462  12.043   0.675   8.423  0.1800  0.7893  0.5023
  547MOL0     H75463  12.163   0.621   8.545 -1.1547  1.6214  1.2563
  547MOL0     H75464  11.958   0.584   8.709 -1.0498 -1.9774 -1.3450
  547MOL0     H75465  11.879   0.700   8.604  1.5958  1.9765  0.6937
  547MOL0     H75466  12.020  -0.180   7.756 -0.5801 -1.5556  0.1836
  547MOL0     H75467  11.817  -0.236   7.598 -2.7684 -0.3496 -0.3518
  547MOL0     H75468  11.426  -0.002   7.434  1.8754  0.7480 -0.2880
  547MOL0     H75469  11.246  -0.024   7.289  0.1824 -1.3245 -0.4107
  547MOL0     H75470  10.369   0.042   7.041  1.5279  0.1876 -1.3186
  547MOL0     H75471  10.296   0.146   7.216  3.6934  3.4264  1.0104
  547MOL0     H75472  10.297   0.497   7.465  0.7330  0.4551  0.2915
  547MOL0     H75473  10.280   0.593   7.670 -2.6000 -2.2355  4.4012
  547MOL0     H75474  10.136   0.573   7.844 -0.0003  0.7055 -1.3733
  547MOL0     H75475  10.174   0.715   7.942  0.8225  2.3542 -1.7521
  547MOL0     H75476   9.968   0.590   8.015  0.6538  0.4913  0.4116
  547MOL0     H75477   9.903   0.612   7.855 -1.4105 -0.5922  2.1729
  547MOL0     H75478   9.897   0.860   7.887 -1.2998  0.9104  0.3409
  547MOL0     H75479   9.796   0.770   8.013 -0.3045  4.5965  0.1963
  547MOL0     H75480  10.071   0.865   8.061  1.4729 -0.4710  1.5171
  547MOL0     H75481   9.980   0.782   8.182 -1.4325 -2.0174 -0.6998
  547MOL0     H75482   9.805   1.179   8.159 -2.2933 -0.5427 -0.3416
  547MOL0     H75483   9.900   0.748   7.588  2.8439  0.0707  5.0678
  547MOL0     H75484   9.813   0.568   7.322 -1.3556  0.5007 -1.5019
  547MOL0     H75485   9.789   0.728   7.376 -1.4330 -0.5490 -1.9125
  547MOL0     H75486   9.897   0.703   7.235  0.5379  2.6936  1.4946
  548MOL0     O75487  10.638   4.193   1.712 -0.4173  0.1770 -0.5708
  548MOL0     C75488  10.615   4.305   1.764  0.7012 -0.3020 -0.4283
  548MOL0     O75489  10.522   4.396   1.715 -0.2193  0.0931 -0.8162
  548MOL0     C75490  10.428   4.363   1.625  0.1818  0.6957  0.0843
  548MOL0     C75491  10.300   4.341   1.671 -0.4888  0.3515  0.2724
  548MOL0     C75492  10.197   4.320   1.586  0.1787 -0.3724  0.3291
  548MOL0     C75493  10.217   4.322   1.448 -0.2885  0.4586  0.6718
  548MOL0     O75494  10.116   4.292   1.359 -0.2698  0.1207  0.3468
  548MOL0     C75495  10.124   4.348   1.232  0.0324  0.1772  0.9982
  548MOL0     C75496   9.992   4.326   1.161  0.2015 -0.6715  0.2017
  548MOL0     C75497   9.991   4.381   1.026 -0.1853  0.3535  0.5692
  548MOL0     C75498   9.950   4.531   1.019 -0.1561  0.0224 -0.4916
  548MOL0     C75499  10.012   4.615   0.909  0.1479 -0.2207 -0.0793
  548MOL0     C75500  10.155   4.641   0.930 -0.2318 -0.2405  0.0730
  548MOL0     C75501  10.214   4.727   0.827 -0.1421  0.0087  0.3815
  548MOL0     C75502  10.365   4.738   0.833  0.2225  0.1473 -0.4343
  548MOL0     N75503  10.416   4.608   0.801 -0.5103  0.2740 -0.3122
  548MOL0     C75504  10.466   4.579   0.678 -0.4457 -0.4231  0.3632
  548MOL0     C75505  10.537   4.460   0.693 -0.1351  0.1364 -0.3711
  548MOL0     C75506  10.610   4.376   0.600 -0.5891 -0.9264 -0.2297
  548MOL0     C75507  10.520   4.327   0.489 -0.1684  0.2653  1.2175
  548MOL0     C75508  10.412   4.225   0.535 -0.3540  1.0242 -0.1439
  548MOL0     C75509  10.487   4.096   0.544 -0.2531  0.0251  0.1279
  548MOL0     O75510  10.397   3.989   0.555 -0.4139 -0.8700  0.0770
  548MOL0     C75511  10.316   3.969   0.664  0.7287  0.1605  0.7121
  548MOL0     C75512  10.223   3.867   0.652  0.1310 -0.6229  0.3943
  548MOL0     C75513  10.138   3.826   0.764  0.0724 -0.1420 -0.7720
  548MOL0     C75514  10.033   3.728   0.728  0.0361  0.3266 -1.0531
  548MOL0     C75515  10.153   3.896   0.885 -0.2859 -1.1313 -0.4836
  548MOL0     C75516  10.100   3.848   1.006  0.8533 -0.2774  0.2963
  548MOL0     O75517  10.072   3.714   1.025 -0.5415  0.6629 -0.2856
  548MOL0     C75518   9.985   3.679   1.125  0.3549  0.7153  0.5704
  548MOL0     C75519   9.887   3.590   1.088  1.1974  0.2315 -0.2748
  548MOL0     C75520   9.790   3.543   1.187 -0.5732 -0.2382  0.1864
  548MOL0     C75521   9.803   3.586   1.324  1.0833 -0.0155  1.2269
  548MOL0     O75522   9.699   3.531   1.405  0.2792  0.2403 -0.3505
  548MOL0     C75523   9.656   3.603   1.516 -0.3059  0.3244 -0.6449
  548MOL0     C75524   9.603   3.501   1.614  0.0841  0.7300 -0.4825
  548MOL0     C75525   9.550   3.559   1.751 -0.1545 -0.9627  0.3080
  548MOL0     C75526   9.653   3.629   1.839 -0.2994 -0.8988  0.7890
  548MOL0     C75527   9.577   3.691   1.964 -0.1253  0.2303  0.6205
  548MOL0     C75528   9.662   3.673   2.086 -0.3736 -0.8582 -0.2721
  548MOL0     C75529   9.638   3.534   2.148  0.1974  0.2510  0.0841
  548MOL0     C75530   9.736   3.509   2.269 -0.2008  0.1036 -0.4460
  548MOL0    Cl75531   9.894   3.454   2.221 -0.6240  0.0371 -0.7929
  548MOL0     C75532   9.907   3.673   1.356 -0.3228 -0.4369 -0.4773
  548MOL0     C75533  10.000   3.715   1.258  0.1921  0.9731  0.2632
  548MOL0     O75534  10.085   3.941   1.091 -0.6782  0.1610 -0.8959
  548MOL0     C75535  10.249   4.006   0.895 -0.0464 -0.0346 -0.2634
  548MOL0     C75536  10.326   4.035   0.783  0.8526 -0.2593 -0.3937
  548MOL0     N75537  10.525   4.427   0.824 -0.7283  0.0786 -0.4679
  548MOL0     N75538  10.462   4.518   0.888 -0.4713  0.5665 -0.7899
  548MOL0     C75539  10.352   4.349   1.399 -0.3741 -0.3622 -0.5909
  548MOL0     C75540  10.453   4.366   1.488  0.3565  0.5853  0.5332
  548MOL0     C75541  10.686   4.356   1.880 -0.8531  0.3164 -0.3960
  548MOL0     C75542  10.731   4.487   1.879  0.3343 -0.5803 -0.3565
  548MOL0     C75543  10.807   4.548   1.979 -0.7761 -0.4023 -0.5340
  548MOL0     C75544  10.842   4.467   2.097 -0.1078  0.0073  1.0246
  548MOL0     O75545  10.925   4.514   2.202 -0.2904  0.5648  0.1972
  548MOL0     C75546  11.025   4.614   2.172  0.3926 -0.1203  0.5247
  548MOL0     C75547  11.146   4.577   2.070  0.6215 -0.2682  0.5028
  548MOL0     C75548  11.210   4.443   2.117  0.3439  0.0713 -0.2858
  548MOL0     C75549  11.357   4.433   2.084  0.3373  0.2248 -0.1516
  548MOL0     C75550  11.362   4.403   1.939 -0.7381  0.0780 -0.5997
  548MOL0     C75551  11.371   4.399   1.817 -0.6992  0.8206 -0.9924
  548MOL0     C75552  10.786   4.334   2.100 -0.2948 -0.1257  0.8742
  548MOL0     C75553  10.704   4.280   1.993  0.0653  0.4575 -0.5873
  548MOL0     C75554  10.628   4.153   2.015 -0.0303  0.8292 -0.4394
  548MOL0     H75555  10.293   4.330   1.779  2.5013  1.1290  0.6335
  548MOL0     H75556  10.093   4.319   1.617 -0.3990 -2.6982 -1.3996
  548MOL0     H75557  10.196   4.300   1.165 -1.7008  2.6711 -3.0255
  548MOL0     H75558  10.148   4.454   1.241 -2.7162  0.9233  0.5223
  548MOL0     H75559   9.961   4.221   1.164 -1.4825 -0.2402 -0.9581
  548MOL0     H75560   9.911   4.368   1.221  0.9254  0.4368  0.4239
  548MOL0     H75561  10.087   4.358   0.978 -1.9037 -1.9783 -2.0829
  548MOL0     H75562   9.928   4.320   0.961  0.6257  0.3933 -0.2811
  548MOL0     H75563   9.842   4.537   0.999 -0.4790 -1.2033  0.7453
  548MOL0     H75564   9.971   4.582   1.113 -3.5885  3.2287 -1.2115
  548MOL0     H75565   9.957   4.708   0.894 -0.3285 -0.4337  0.3214
  548MOL0     H75566   9.996   4.562   0.814 -0.3962 -0.3594  0.0864
  548MOL0     H75567  10.155   4.691   1.027 -0.0366  0.7811 -0.4471
  548MOL0     H75568  10.201   4.543   0.949  0.2345  0.1250  0.8721
  548MOL0     H75569  10.176   4.830   0.828  2.8216  1.1932  1.5209
  548MOL0     H75570  10.190   4.687   0.728  4.1095 -0.0851 -0.8002
  548MOL0     H75571  10.391   4.820   0.766 -0.8759  1.6071  0.8697
  548MOL0     H75572  10.401   4.768   0.932 -1.6720  0.2427  0.2663
  548MOL0     H75573  10.458   4.644   0.591 -0.5857  0.7956  1.2588
  548MOL0     H75574  10.670   4.301   0.652 -2.5408 -1.6439  1.0804
  548MOL0     H75575  10.687   4.443   0.560 -2.4189  1.3855 -0.1022
  548MOL0     H75576  10.465   4.410   0.445 -1.3549 -1.8409 -1.5755
  548MOL0     H75577  10.569   4.278   0.405 -4.7010 -1.0215 -0.9812
  548MOL0     H75578  10.352   4.253   0.622 -0.5221 -0.4901  0.2461
  548MOL0     H75579  10.344   4.199   0.454 -1.1238 -0.7719  1.0164
  548MOL0     H75580  10.544   4.071   0.455  0.8258  0.6808  0.6152
  548MOL0     H75581  10.551   4.098   0.632 -0.4645 -0.3634  0.2935
  548MOL0     H75582  10.209   3.812   0.560  2.6889 -0.6807 -0.0170
  548MOL0     H75583   9.973   3.752   0.640 -3.7226  2.0667  1.6876
  548MOL0     H75584   9.953   3.709   0.801 -3.6555 -0.0632 -4.8023
  548MOL0     H75585  10.085   3.634   0.708  0.3992  0.1804  0.4210
  548MOL0     H75586   9.873   3.567   0.983  2.9417  0.1105 -0.5057
  548MOL0     H75587   9.704   3.485   1.159  0.0536 -0.2830 -1.7830
  548MOL0     H75588   9.736   3.656   1.569 -0.7155  3.2675 -2.6870
  548MOL0     H75589   9.577   3.669   1.478  0.0586  0.4819 -1.1382
  548MOL0     H75590   9.516   3.444   1.580 -1.0969  0.6847  2.3897
  548MOL0     H75591   9.674   3.428   1.654 -0.3514  1.3475  1.5473
  548MOL0     H75592   9.518   3.469   1.804  0.9704 -2.1958 -1.0652
  548MOL0     H75593   9.460   3.620   1.737  1.9783  1.9670 -1.8539
  548MOL0     H75594   9.700   3.712   1.786  1.1149 -0.9921  1.8529
  548MOL0     H75595   9.740   3.570   1.870  0.4122 -1.5901 -2.2033
  548MOL0     H75596   9.533   3.791   1.954 -1.4662 -0.4555 -0.7872
  548MOL0     H75597   9.491   3.628   1.987 -0.5509  0.9172  0.9169
  548MOL0     H75598   9.615   3.744   2.154 -0.5437  0.2087 -1.4685
  548MOL0     H75599   9.768   3.696   2.074  0.3148 -2.7865  1.4406
  548MOL0     H75600   9.648   3.465   2.064  0.0801  1.4407 -0.9414
  548MOL0     H75601   9.537   3.523   2.187 -0.1267  1.5464 -0.3400
  548MOL0     H75602   9.687   3.436   2.334  0.7262 -3.0732 -3.0342
  548MOL0     H75603   9.736   3.602   2.326  2.5098 -0.9025  1.3980
  548MOL0     H75604   9.904   3.710   1.458  1.5649 -1.7497  0.1105
  548MOL0     H75605  10.082   3.785   1.266  0.8084  0.3325 -0.3241
  548MOL0     H75606  10.271   4.047   0.993 -2.1306 -2.8401  1.5381
  548MOL0     H75607  10.408   4.106   0.788  0.3860  0.3529 -1.0504
  548MOL0     H75608  10.371   4.363   1.294  0.4743  2.6136 -0.1273
  548MOL0     H75609  10.560   4.376   1.472  0.1564  1.6880 -0.1533
  548MOL0     H75610  10.705   4.543   1.789 -0.0608 -0.6206 -0.2690
  548MOL0     H75611  10.837   4.653   1.982 -0.1938 -0.5875  0.7383
  548MOL0     H75612  10.973   4.703   2.133 -0.4567 -1.2362 -0.9834
  548MOL0     H75613  11.074   4.634   2.268  1.8645 -2.2976  0.2985
  548MOL0     H75614  11.210   4.665   2.059 -0.5353  0.4913 -0.3374
  548MOL0     H75615  11.096   4.564   1.974  0.7618  0.8158  0.2722
  548MOL0     H75616  11.205   4.441   2.226  0.0823  0.3118 -0.2925
  548MOL0     H75617  11.155   4.361   2.070  0.6062 -0.5676  0.4854
  548MOL0     H75618  11.393   4.349   2.145  0.6153 -0.4459 -1.2201
  548MOL0     H75619  11.413   4.525   2.107  0.1415 -0.0662  1.6959
  548MOL0     H75620  11.381   4.382   1.711 -0.3881  0.6769 -0.9388
  548MOL0     H75621  10.812   4.279   2.190  2.4949 -2.3690 -1.0835
  548MOL0     H75622  10.659   4.101   2.106 -0.2584 -0.6148 -1.1473
  548MOL0     H75623  10.519   4.163   2.015 -0.0051  1.7336 -2.5486
  548MOL0     H75624  10.647   4.078   1.937  4.0921  2.7118 -1.5236
  549MOL0     O75625  10.458   2.731  10.141  0.2727  0.0238  0.6189
  549MOL0     C75626  10.344   2.759  10.116 -0.7648  1.2857 -0.2651
  549MOL0     O75627  10.254   2.785  10.213  0.1713 -0.4667 -0.5583
  549MOL0     C75628  10.282   2.755  10.342  0.0454 -0.2381  0.3664
  549MOL0     C75629  10.303   2.867  10.426 -0.5495  0.1010 -1.0103
  549MOL0     C75630  10.335   2.846  10.562  0.7925 -0.5628  0.2769
  549MOL0     C75631  10.333   2.711  10.612  0.4687 -0.6251  0.8183
  549MOL0     O75632  10.384   2.704  10.738 -0.0477  0.5206  0.2305
  549MOL0     C75633  10.406   2.573  10.791  0.2488  0.1189 -0.3709
  549MOL0     C75634  10.485   2.590  10.922 -0.6756 -0.4803  0.1617
  549MOL0     C75635  10.606   2.677  10.905  0.0705 -0.2928 -0.5331
  549MOL0     C75636  10.665   2.701  11.050 -0.0508  0.2568  1.2122
  549MOL0     C75637  10.752   2.824  11.053 -0.2700 -0.1961  0.0017
  549MOL0     C75638  10.868   2.836  10.954  0.3093 -1.2302 -0.6078
  549MOL0     C75639  10.947   2.970  10.968  0.5006  0.0028  0.3518
  549MOL0     C75640  10.867   3.095  10.950 -0.3245 -0.2209  0.1446
  549MOL0     N75641  10.793   3.085  10.816 -0.1515 -0.0033  0.1066
  549MOL0     C75642  10.844   3.067  10.685  0.1322  0.3930  0.2936
  549MOL0     C75643  10.738   3.070  10.608  0.9637 -0.0423  1.3537
  549MOL0     C75644  10.726   3.042  10.460  0.3883 -0.4015 -1.0414
  549MOL0     C75645  10.776   2.902  10.426 -0.2012 -0.7584  0.2221
  549MOL0     C75646  10.675   2.790  10.455  0.2076 -0.5208 -0.1647
  549MOL0     C75647  10.746   2.655  10.459  0.4767  0.1976 -1.3347
  549MOL0     O75648  10.847   2.642  10.564 -0.2400 -0.1484 -0.4727
  549MOL0     C75649  10.883   2.513  10.611 -0.3745 -0.2309  0.4603
  549MOL0     C75650  10.863   2.393  10.529 -0.3575 -0.4531  0.2293
  549MOL0     C75651  10.908   2.267  10.569  0.3304  0.2323  0.5625
  549MOL0     C75652  10.884   2.155  10.454  1.0457 -0.5850 -0.6203
  549MOL0     C75653  10.958   2.247  10.705  0.1109  0.5861 -0.3291
  549MOL0     C75654  10.974   2.115  10.780 -0.5465  0.3820  1.0182
  549MOL0     O75655  11.019   2.123  10.905 -0.2390  0.3389  0.4512
  549MOL0     C75656  11.089   2.005  10.946  0.0395  0.2585  0.0089
  549MOL0     C75657  11.027   1.882  10.966  0.4681 -0.3559 -0.1156
  549MOL0     C75658  11.108   1.770  10.985 -1.3914  0.1686 -0.3738
  549MOL0     C75659  11.250   1.781  11.010 -0.4496  0.3703 -0.3159
  549MOL0     O75660  11.341   1.684  11.056  0.4358  0.7543  0.1900
  549MOL0     C75661  11.283   1.575  11.136 -0.9882 -0.3836 -0.1090
  549MOL0     C75662  11.412   1.519  11.193 -0.2143  0.0945  0.3977
  549MOL0     C75663  11.377   1.415  11.298 -0.2219  0.0338 -0.3067
  549MOL0     C75664  11.505   1.345  11.354  1.0449  0.1902  0.6118
  549MOL0     C75665  11.473   1.235  11.455 -0.2761  0.5736  0.0305
  549MOL0     C75666  11.593   1.185  11.544  1.8556  0.0068 -0.3820
  549MOL0     C75667  11.599   1.278  11.670  0.2092  0.7339 -0.1033
  549MOL0     C75668  11.733   1.255  11.738 -0.0850  0.8653  1.5585
  549MOL0    Cl75669  11.864   1.317  11.633  0.5888  0.1386 -0.1055
  549MOL0     C75670  11.304   1.912  11.014  0.0360 -0.5132  0.4089
  549MOL0     C75671  11.224   2.018  10.973  0.2469  0.4622 -0.1096
  549MOL0     O75672  10.936   2.018  10.725 -0.9173  0.5494 -0.2573
  549MOL0     C75673  10.972   2.368  10.779 -0.1176  0.3014  0.4499
  549MOL0     C75674  10.945   2.501  10.733 -0.0069  0.4519  0.3293
  549MOL0     N75675  10.625   3.099  10.681  0.0681 -0.5585  0.6799
  549MOL0     N75676  10.659   3.117  10.799  0.6321  0.6946 -0.1750
  549MOL0     C75677  10.314   2.602  10.529 -0.4224 -0.0780  0.0721
  549MOL0     C75678  10.282   2.624  10.393  0.2918 -0.3244 -0.5538
  549MOL0     C75679  10.308   2.780   9.977 -0.3719 -0.5816  0.2220
  549MOL0     C75680  10.181   2.864   9.964 -0.1585  0.4785 -0.1293
  549MOL0     C75681  10.145   2.902   9.838  0.1638  0.5680  0.0868
  549MOL0     C75682  10.221   2.879   9.728  0.0381 -0.7979 -0.1455
  549MOL0     O75683  10.158   2.904   9.605  0.4850 -0.2521  0.4632
  549MOL0     C75684  10.202   2.819   9.493 -0.2744 -0.6958 -0.1488
  549MOL0     C75685  10.283   2.913   9.415  0.2441  0.6648 -0.1993
  549MOL0     C75686  10.349   2.833   9.304 -0.3631 -0.6420  1.0325
  549MOL0     C75687  10.416   2.918   9.198  0.3305  0.3823 -0.2313
  549MOL0     C75688  10.330   2.960   9.089  0.9971 -1.3989 -0.3675
  549MOL0     C75689  10.274   2.983   8.990 -0.0686 -0.1103  0.8826
  549MOL0     C75690  10.349   2.822   9.742 -0.0516  0.4824 -0.1193
  549MOL0     C75691  10.393   2.768   9.864  0.3071 -0.4267  0.3720
  549MOL0     C75692  10.534   2.715   9.859 -0.1315 -0.3558 -0.6761
  549MOL0     H75693  10.306   2.970  10.392 -7.0582  1.5800  1.3601
  549MOL0     H75694  10.367   2.919  10.635 -2.5600  0.5298  0.8564
  549MOL0     H75695  10.449   2.501  10.721  1.0362  1.6207 -1.4676
  549MOL0     H75696  10.305   2.537  10.813  0.7416 -1.5417 -0.6289
  549MOL0     H75697  10.423   2.632  11.002  0.6889 -3.5562  3.0884
  549MOL0     H75698  10.526   2.497  10.964  1.9031 -0.0614 -1.2390
  549MOL0     H75699  10.679   2.634  10.836  3.9650  2.5075  1.4663
  549MOL0     H75700  10.587   2.777  10.865 -0.2905 -0.2883 -0.3605
  549MOL0     H75701  10.587   2.713  11.125 -2.8135 -0.9919 -1.2762
  549MOL0     H75702  10.728   2.612  11.061  0.5156 -0.1038 -3.2024
  549MOL0     H75703  10.797   2.842  11.150  0.2625  1.1142 -0.4701
  549MOL0     H75704  10.687   2.911  11.037  0.8053  1.1811  2.5957
  549MOL0     H75705  10.936   2.751  10.958 -2.2083 -3.3870 -0.6464
  549MOL0     H75706  10.837   2.836  10.849  1.1994  2.5833 -1.0263
  549MOL0     H75707  11.013   2.965  10.881 -1.6532  2.2668 -1.5646
  549MOL0     H75708  11.006   2.973  11.060 -1.2525  0.4327  1.5201
  549MOL0     H75709  10.799   3.115  11.033  0.7996 -0.9137  1.2694
  549MOL0     H75710  10.948   3.169  10.948 -1.3331  1.0433  2.0133
  549MOL0     H75711  10.943   3.035  10.655  0.8643  2.2625  0.5393
  549MOL0     H75712  10.788   3.120  10.415  0.7518 -0.0766 -0.0255
  549MOL0     H75713  10.626   3.052  10.416  0.3135 -1.5835 -1.1777
  549MOL0     H75714  10.796   2.905  10.318 -1.5297  0.2781 -0.0184
  549MOL0     H75715  10.876   2.887  10.468  1.3445  2.0596 -2.0916
  549MOL0     H75716  10.640   2.813  10.556  1.1764  1.1717 -0.1668
  549MOL0     H75717  10.596   2.777  10.381 -0.0914 -2.0532  0.3981
  549MOL0     H75718  10.667   2.586  10.489  1.2492  0.5894  1.9892
  549MOL0     H75719  10.789   2.623  10.364  1.1859  3.1301 -2.0849
  549MOL0     H75720  10.816   2.402  10.431 -0.5658 -1.3463  0.2308
  549MOL0     H75721  10.882   2.199  10.354 -1.7214 -0.1358 -0.4500
  549MOL0     H75722  10.796   2.096  10.483  1.5685 -2.1934 -2.1548
  549MOL0     H75723  10.964   2.083  10.474 -0.1262 -1.2231  2.3330
  549MOL0     H75724  10.919   1.880  10.953  0.4331 -0.8910  0.2372
  549MOL0     H75725  11.064   1.671  10.989 -0.0678 -0.5043 -1.4887
  549MOL0     H75726  11.220   1.612  11.217  0.8987  0.5266  1.0078
  549MOL0     H75727  11.228   1.507  11.070 -0.3837 -0.2768 -0.7389
  549MOL0     H75728  11.467   1.454  11.125  0.9596  1.1051  0.3350
  549MOL0     H75729  11.468   1.609  11.222  1.2632  0.3628 -2.8142
  549MOL0     H75730  11.310   1.337  11.261 -0.7726  0.7455 -0.8350
  549MOL0     H75731  11.328   1.468  11.381  2.4124 -0.8721  2.0082
  549MOL0     H75732  11.583   1.404  11.403  3.9223 -2.6696 -0.1767
  549MOL0     H75733  11.562   1.296  11.275 -1.0539 -2.1280  0.4179
  549MOL0     H75734  11.411   1.286  11.530  0.6492 -3.2809  3.8691
  549MOL0     H75735  11.418   1.150  11.413  0.8872 -0.0072 -0.3711
  549MOL0     H75736  11.673   1.200  11.470  0.5012 -1.2344 -2.1880
  549MOL0     H75737  11.578   1.079  11.568  1.1140  0.4045  0.9854
  549MOL0     H75738  11.525   1.244  11.743  0.2903 -0.5208 -0.5717
  549MOL0     H75739  11.596   1.385  11.649  1.1652  0.3784 -2.2471
  549MOL0     H75740  11.746   1.147  11.737  2.1913  1.0327 -0.9063
  549MOL0     H75741  11.740   1.304  11.835  0.4200  0.7682  1.5750
  549MOL0     H75742  11.405   1.939  11.040  0.4152 -2.3535  1.0237
  549MOL0     H75743  11.247   2.122  10.952 -4.1675  1.9367  1.3540
  549MOL0     H75744  11.023   2.360  10.874  2.6202  3.1352 -0.5673
  549MOL0     H75745  10.974   2.586  10.794 -0.9224  0.1060  1.2772
  549MOL0     H75746  10.319   2.498  10.560  3.7244 -1.7632 -4.8607
  549MOL0     H75747  10.273   2.535  10.332 -4.0174 -1.8093  1.8241
  549MOL0     H75748  10.112   2.887  10.045  0.0987 -1.5121  0.7227
  549MOL0     H75749  10.044   2.942   9.832  0.1539  0.3805 -1.2531
  549MOL0     H75750  10.249   2.724   9.519 -1.7209 -1.4099 -0.0314
  549MOL0     H75751  10.121   2.785   9.427 -0.2916  0.0190 -0.5015
  549MOL0     H75752  10.349   2.974   9.477  1.7031  0.2409 -1.3000
  549MOL0     H75753  10.210   2.986   9.379 -0.4815 -0.3398 -0.8299
  549MOL0     H75754  10.406   2.751   9.348  3.0162  1.6233  1.2871
  549MOL0     H75755  10.262   2.794   9.251 -0.0693  1.6179 -1.3092
  549MOL0     H75756  10.499   2.860   9.155 -0.3817 -1.9624  1.3275
  549MOL0     H75757  10.454   3.011   9.242  2.3625 -0.0887 -0.8810
  549MOL0     H75758  10.231   3.009   8.895  1.2555 -2.7319 -0.5671
  549MOL0     H75759  10.417   2.809   9.659  1.0403  0.5478  0.7422
  549MOL0     H75760  10.538   2.636   9.783 -0.4658  1.1809 -2.3890
  549MOL0     H75761  10.606   2.795   9.837  0.4807 -0.3462  1.2278
  549MOL0     H75762  10.563   2.672   9.955  2.1397  0.9379 -0.7054
  550MOL0     O75763   9.919   4.921   4.064  0.3600 -0.1929  0.0044
  550MOL0     C75764   9.798   4.946   4.042 -0.5384  0.3482  0.7391
  550MOL0     O75765   9.750   5.032   3.943  0.0957 -0.1732 -0.4386
  550MOL0     C75766   9.837   5.103   3.864 -0.8063 -0.0080 -0.1937
  550MOL0     C75767   9.913   5.036   3.770  0.2528  0.3553 -0.6184
  550MOL0     C75768  10.012   5.105   3.709 -0.2603 -0.5956 -0.2302
  550MOL0     C75769  10.047   5.235   3.739 -0.4167  0.1426 -0.4380
  550MOL0     O75770  10.148   5.311   3.689  0.1913  0.2211  0.3820
  550MOL0     C75771  10.254   5.261   3.603  0.2319 -0.2022  0.5378
  550MOL0     C75772  10.368   5.360   3.609  0.4806 -0.0136 -0.7930
  550MOL0     C75773  10.492   5.302   3.534 -0.2567  0.4192  0.6650
  550MOL0     C75774  10.615   5.387   3.571  0.4518 -0.0083 -0.0119
  550MOL0     C75775  10.747   5.342   3.520 -0.3291 -0.5760  0.2665
  550MOL0     C75776  10.853   5.416   3.604 -0.5179 -0.5174  0.0894
  550MOL0     C75777  11.004   5.378   3.569  0.2143  0.1016  0.3858
  550MOL0     C75778  11.040   5.430   3.433 -0.2337 -0.4804 -0.7655
  550MOL0     N75779  11.163   5.383   3.378  1.3968 -0.6619 -0.5061
  550MOL0     C75780  11.262   5.458   3.343 -0.9335 -0.4416  0.5838
  550MOL0     C75781  11.356   5.365   3.297 -0.0462 -0.7335  0.1990
  550MOL0     C75782  11.497   5.398   3.264  1.0855  0.9502  0.2331
  550MOL0     C75783  11.524   5.414   3.114 -1.1037  0.2545  0.1759
  550MOL0     C75784  11.625   5.531   3.097 -0.3712 -0.0480  0.1359
  550MOL0     C75785  11.560   5.660   3.124  0.6394  0.2631 -0.0048
  550MOL0     O75786  11.456   5.655   3.033 -0.4382 -0.0648 -0.0201
  550MOL0     C75787  11.378   5.765   3.022  0.7027  0.0620  0.5457
  550MOL0     C75788  11.299   5.768   2.909 -0.4812  0.1678 -0.3365
  550MOL0     C75789  11.223   5.890   2.872  0.8341  0.8873  0.0671
  550MOL0     C75790  11.143   5.885   2.746  0.0041  0.1072 -0.4330
  550MOL0     C75791  11.234   6.007   2.956  0.0090  0.8830  0.6987
  550MOL0     C75792  11.167   6.128   2.925 -0.5357  0.0066  0.3062
  550MOL0     O75793  11.227   6.204   2.834  0.2014 -0.0608  0.0993
  550MOL0     C75794  11.175   6.326   2.804 -0.5650 -1.0472  0.5451
  550MOL0     C75795  11.089   6.422   2.865 -0.3300 -0.5222  0.2516
  550MOL0     C75796  11.053   6.540   2.787 -0.3623 -0.0467 -0.7217
  550MOL0     C75797  11.089   6.564   2.655 -0.2559  0.1458 -0.1753
  550MOL0     O75798  11.041   6.678   2.600 -0.4474 -0.4231 -0.4836
  550MOL0     C75799  10.934   6.652   2.501 -0.1527 -0.2261  0.0155
  550MOL0     C75800  10.917   6.765   2.395 -1.1624  1.3526  0.2306
  550MOL0     C75801  11.051   6.780   2.322  0.3467  0.7908  0.2873
  550MOL0     C75802  11.025   6.843   2.186 -0.5458  0.8540 -0.7605
  550MOL0     C75803  11.152   6.820   2.101 -0.6051  0.3513  0.8227
  550MOL0     C75804  11.278   6.904   2.143 -0.3200  0.6062  0.3016
  550MOL0     C75805  11.408   6.858   2.077 -1.3177  0.5848  0.5088
  550MOL0     C75806  11.449   6.711   2.076 -0.2396 -0.1420 -0.0867
  550MOL0    Cl75807  11.429   6.663   2.238  0.7532  0.0318 -0.2463
  550MOL0     C75808  11.171   6.465   2.595 -0.7368 -0.8133  0.0242
  550MOL0     C75809  11.205   6.348   2.671  0.3738  0.3247 -0.4377
  550MOL0     O75810  11.057   6.152   2.979 -0.8070  0.2436  0.4111
  550MOL0     C75811  11.305   5.992   3.075  0.2178 -0.0532 -0.0592
  550MOL0     C75812  11.381   5.877   3.106  0.1713  0.0090  0.3721
  550MOL0     N75813  11.297   5.238   3.298 -0.8298 -0.0241  0.2299
  550MOL0     N75814  11.183   5.251   3.356 -0.5116 -0.9011 -0.8007
  550MOL0     C75815   9.980   5.299   3.843 -0.8458  0.6120  0.0138
  550MOL0     C75816   9.873   5.238   3.897  1.0640 -0.1534  0.1690
  550MOL0     C75817   9.704   4.889   4.136 -0.9399  0.3859  0.1152
  550MOL0     C75818   9.761   4.842   4.258 -0.1671 -0.5324  0.2709
  550MOL0     C75819   9.688   4.796   4.368  1.0070 -0.4186  0.1958
  550MOL0     C75820   9.549   4.791   4.353 -0.6108  0.4647 -0.3552
  550MOL0     O75821   9.489   4.744   4.472 -0.8472 -0.2977 -0.3567
  550MOL0     C75822   9.372   4.666   4.460  0.3318 -0.2861  0.7632
  550MOL0     C75823   9.413   4.525   4.421  0.5249  0.0660  1.0657
  550MOL0     C75824   9.511   4.452   4.507 -0.1511 -0.2730 -1.0570
  550MOL0     C75825   9.527   4.308   4.467 -1.0183  0.8030  0.3983
  550MOL0     C75826   9.579   4.284   4.335  0.2772  0.1344  0.1907
  550MOL0     C75827   9.632   4.256   4.224 -0.8500  0.7762 -0.4335
  550MOL0     C75828   9.489   4.848   4.238 -0.2075  0.7506 -1.2392
  550MOL0     C75829   9.563   4.892   4.132  0.7182 -0.8616  0.0370
  550MOL0     C75830   9.483   4.972   4.025  0.0118 -0.6178 -0.0844
  550MOL0     H75831   9.894   4.932   3.748 -0.2615  0.0883  0.9858
  550MOL0     H75832  10.060   5.065   3.620 -0.5405 -0.6041 -0.3791
  550MOL0     H75833  10.221   5.229   3.503 -1.1758  1.8294  0.2846
  550MOL0     H75834  10.294   5.171   3.649  0.9322 -0.0364  0.2631
  550MOL0     H75835  10.331   5.454   3.567  0.2477  0.0806 -0.3808
  550MOL0     H75836  10.394   5.381   3.713  0.2198  0.6399 -0.8558
  550MOL0     H75837  10.515   5.202   3.571  2.8873  0.9250  0.3428
  550MOL0     H75838  10.470   5.298   3.427  0.6040  1.2485  0.4468
  550MOL0     H75839  10.596   5.487   3.530  0.5885  1.0748  2.3816
  550MOL0     H75840  10.609   5.406   3.679 -1.6075  1.4008 -0.3077
  550MOL0     H75841  10.752   5.343   3.411 -0.2666 -2.0990  0.2290
  550MOL0     H75842  10.757   5.233   3.525 -0.1214 -0.5387  0.7397
  550MOL0     H75843  10.839   5.524   3.594 -2.5769 -0.1538  4.3924
  550MOL0     H75844  10.843   5.399   3.712 -1.2337  0.9384  0.2742
  550MOL0     H75845  10.999   5.269   3.569 -0.0803  0.0933 -1.2571
  550MOL0     H75846  11.073   5.417   3.644  1.0685  0.1909 -0.4341
  550MOL0     H75847  10.957   5.393   3.372 -1.4540 -0.5184  0.8324
  550MOL0     H75848  11.044   5.539   3.443  3.5861 -0.3657 -2.0615
  550MOL0     H75849  11.271   5.565   3.358  0.7513 -0.7500  2.0018
  550MOL0     H75850  11.564   5.327   3.312  0.7429  0.0250 -0.6163
  550MOL0     H75851  11.509   5.490   3.322 -2.2492  1.1389  0.8311
  550MOL0     H75852  11.577   5.325   3.078 -1.5492 -1.1727  2.8343
  550MOL0     H75853  11.435   5.433   3.054 -0.9306  3.3858  0.7177
  550MOL0     H75854  11.708   5.529   3.168 -0.6386  1.2102  0.5265
  550MOL0     H75855  11.680   5.538   3.003  3.4323  2.4620  2.3033
  550MOL0     H75856  11.532   5.667   3.229 -0.7624 -1.3947 -0.2264
  550MOL0     H75857  11.640   5.733   3.111  2.8141 -2.1110 -0.9793
  550MOL0     H75858  11.314   5.679   2.849  0.6060 -0.0298  0.1911
  550MOL0     H75859  11.056   5.950   2.759  0.8617  1.0456  0.9607
  550MOL0     H75860  11.119   5.782   2.720  3.4401 -0.5641 -1.4008
  550MOL0     H75861  11.204   5.928   2.666  2.0375 -0.6830  0.6222
  550MOL0     H75862  11.053   6.407   2.966 -1.0922  0.5687  0.1640
  550MOL0     H75863  10.992   6.609   2.843  0.5122  1.1623 -1.2060
  550MOL0     H75864  10.958   6.564   2.442  2.2187  2.5125 -3.5674
  550MOL0     H75865  10.839   6.639   2.554  0.3462  0.0543  1.0008
  550MOL0     H75866  10.841   6.720   2.331 -1.6853  2.3104  0.1694
  550MOL0     H75867  10.875   6.858   2.435 -0.8560  0.9706  1.5031
  550MOL0     H75868  11.092   6.680   2.308 -2.3064 -0.7540  2.4237
  550MOL0     H75869  11.117   6.839   2.386  0.8613  1.0478 -0.4692
  550MOL0     H75870  11.015   6.949   2.210  1.1386  0.6950  0.8909
  550MOL0     H75871  10.940   6.802   2.130  0.2976 -0.6256 -1.0146
  550MOL0     H75872  11.176   6.713   2.107 -0.9730  0.3150  1.8093
  550MOL0     H75873  11.141   6.850   1.996 -0.5690 -2.2521  0.0040
  550MOL0     H75874  11.303   6.892   2.249  4.9093  2.2614 -0.4196
  550MOL0     H75875  11.258   7.008   2.116  0.6902  0.8208  0.3129
  550MOL0     H75876  11.489   6.924   2.108 -2.1102  0.9808  1.8236
  550MOL0     H75877  11.388   6.885   1.973 -0.8126  0.7221  0.4472
  550MOL0     H75878  11.549   6.689   2.039 -0.4620  1.1031 -1.5295
  550MOL0     H75879  11.374   6.649   2.026 -1.6912 -0.5276  2.3711
  550MOL0     H75880  11.190   6.467   2.488  2.6923  1.9401  0.4921
  550MOL0     H75881  11.276   6.281   2.625  1.4047  1.3566 -0.3973
  550MOL0     H75882  11.297   6.076   3.142  1.1584  1.1542 -1.4050
  550MOL0     H75883  11.437   5.876   3.199 -2.3759 -0.2478  1.9852
  550MOL0     H75884  10.010   5.403   3.852 -2.2304  1.0895 -0.5808
  550MOL0     H75885   9.824   5.301   3.970 -1.4896 -1.5428 -0.2220
  550MOL0     H75886   9.868   4.833   4.274 -0.1672 -1.8493 -0.2799
  550MOL0     H75887   9.739   4.765   4.458  3.3425  0.3566 -0.7996
  550MOL0     H75888   9.325   4.657   4.558  1.1056 -1.0535  1.0790
  550MOL0     H75889   9.293   4.699   4.392  1.1221  0.5714  0.2372
  550MOL0     H75890   9.451   4.524   4.318 -0.7809  2.1557  0.4832
  550MOL0     H75891   9.317   4.473   4.416  0.0867  0.4633  3.7788
  550MOL0     H75892   9.610   4.497   4.500  0.0917 -0.8816 -1.6739
  550MOL0     H75893   9.473   4.465   4.609 -0.1955  1.6013 -1.2789
  550MOL0     H75894   9.435   4.249   4.464  0.4038 -1.6712  2.1458
  550MOL0     H75895   9.595   4.265   4.541 -0.8318  1.1105  0.4092
  550MOL0     H75896   9.671   4.241   4.125  0.8829  1.7823  0.0527
  550MOL0     H75897   9.382   4.833   4.238 -0.0777 -2.4916  3.1941
  550MOL0     H75898   9.505   5.078   4.043 -1.2171 -0.0317 -1.6960
  550MOL0     H75899   9.516   4.946   3.924  2.5724  1.2502  0.1711
  550MOL0     H75900   9.374   4.964   4.036 -0.3208 -1.7820 -3.1104
  551MOL0     O75901   4.728   8.753   6.604 -0.5957  0.7550  0.0847
  551MOL0     C75902   4.685   8.686   6.696 -0.0513  0.7130  0.3295
  551MOL0     O75903   4.748   8.604   6.780 -0.1262 -0.1936 -0.0863
  551MOL0     C75904   4.883   8.605   6.770  0.1030 -0.1015 -0.2304
  551MOL0     C75905   4.942   8.486   6.725  0.2651 -0.3975  0.8955
  551MOL0     C75906   5.077   8.490   6.697 -0.3355 -0.4754  0.6993
  551MOL0     C75907   5.155   8.604   6.720 -0.3066  0.1974 -0.1333
  551MOL0     O75908   5.283   8.591   6.693 -0.8109  0.0822  0.0479
  551MOL0     C75909   5.320   8.555   6.558 -0.1822 -0.2838  0.4990
  551MOL0     C75910   5.464   8.601   6.526  0.4171  0.1567 -0.8035
  551MOL0     C75911   5.561   8.543   6.637  0.0331  0.3086 -0.1986
  551MOL0     C75912   5.699   8.532   6.573  0.1545 -0.3784 -0.3114
  551MOL0     C75913   5.805   8.475   6.670 -0.0377  0.1651 -0.6543
  551MOL0     C75914   5.773   8.334   6.725 -0.1649 -1.0430  0.4547
  551MOL0     C75915   5.738   8.210   6.630 -0.2530 -0.3861  0.2194
  551MOL0     C75916   5.761   8.081   6.716 -0.1346 -0.5496  0.4650
  551MOL0     N75917   5.725   7.956   6.643  0.0436 -0.0832  0.0168
  551MOL0     C75918   5.795   7.843   6.637 -1.2159 -0.3200 -0.4482
  551MOL0     C75919   5.699   7.760   6.595  0.4823 -0.6729  0.1982
  551MOL0     C75920   5.741   7.622   6.575 -0.8492  0.5363  0.4901
  551MOL0     C75921   5.757   7.547   6.706 -0.9564  0.0282 -0.2731
  551MOL0     C75922   5.629   7.497   6.769 -0.5846 -0.1350  0.2573
  551MOL0     C75923   5.663   7.420   6.906 -0.2556 -0.8316 -0.3851
  551MOL0     O75924   5.762   7.320   6.864 -0.7187 -0.2242 -0.1940
  551MOL0     C75925   5.767   7.222   6.955  0.1912 -0.0751 -0.3874
  551MOL0     C75926   5.836   7.228   7.072 -0.9106  1.8248  0.0869
  551MOL0     C75927   5.850   7.117   7.162  0.5576  0.1110  0.4947
  551MOL0     C75928   5.910   7.146   7.296  0.6576  0.3263 -0.3910
  551MOL0     C75929   5.785   6.995   7.128 -0.6021  0.4274 -0.6588
  551MOL0     C75930   5.780   6.873   7.205  0.2552 -0.2932  0.5820
  551MOL0     O75931   5.707   6.772   7.157  0.3065  0.0708  0.2663
  551MOL0     C75932   5.706   6.655   7.220 -0.6674 -0.3632 -0.7030
  551MOL0     C75933   5.827   6.595   7.264  0.6147 -0.0047 -0.4282
  551MOL0     C75934   5.825   6.468   7.328  0.0988  0.1235  0.5046
  551MOL0     C75935   5.700   6.418   7.370 -0.4931  0.3083  0.1328
  551MOL0     O75936   5.677   6.296   7.427  0.4533  0.7694 -0.0927
  551MOL0     C75937   5.790   6.199   7.436  0.2363 -0.2147  0.1694
  551MOL0     C75938   5.744   6.065   7.485 -0.2219  0.5744  0.0324
  551MOL0     C75939   5.635   6.022   7.393 -0.3872 -0.2849 -0.6996
  551MOL0     C75940   5.608   5.871   7.416 -0.2696 -0.4080  0.0562
  551MOL0     C75941   5.466   5.839   7.467 -0.0517  0.3520  0.1824
  551MOL0     C75942   5.347   5.906   7.390  0.1861 -0.5930 -0.0423
  551MOL0     C75943   5.350   5.876   7.244 -0.5308  0.7829 -0.2381
  551MOL0     C75944   5.211   5.907   7.173 -0.1491 -0.6681 -0.3997
  551MOL0    Cl75945   5.229   5.922   7.003  0.2078  0.2038  0.2881
  551MOL0     C75946   5.587   6.488   7.341 -0.1447  0.0139  0.5380
  551MOL0     C75947   5.578   6.598   7.253 -0.4058 -1.3334 -0.5572
  551MOL0     O75948   5.829   6.872   7.315  0.5770  0.5824  0.2686
  551MOL0     C75949   5.709   6.993   7.006  0.0337  0.1527 -0.4439
  551MOL0     C75950   5.709   7.100   6.920  1.1475  0.2634 -0.3997
  551MOL0     N75951   5.579   7.826   6.573  0.5906 -0.3699 -0.4149
  551MOL0     N75952   5.606   7.945   6.593  0.2380 -0.6453 -0.0997
  551MOL0     C75953   5.107   8.723   6.778  0.5856 -0.9078 -0.2953
  551MOL0     C75954   4.965   8.719   6.799 -0.6092 -0.1147 -0.0928
  551MOL0     C75955   4.537   8.674   6.707  0.7745 -0.0821  0.2530
  551MOL0     C75956   4.480   8.658   6.840  0.0053  0.2985 -0.1142
  551MOL0     C75957   4.344   8.638   6.848  0.2741  0.2304  0.1108
  551MOL0     C75958   4.261   8.624   6.743 -0.4442  0.3248  0.6553
  551MOL0     O75959   4.132   8.594   6.770 -0.0312 -0.6758 -0.7166
  551MOL0     C75960   4.050   8.557   6.655 -0.2778 -0.1725  0.0597
  551MOL0     C75961   3.924   8.499   6.717  1.0988  1.0062  0.2992
  551MOL0     C75962   3.926   8.352   6.756  0.1386  0.1005  0.3254
  551MOL0     C75963   3.945   8.252   6.645  0.0807 -0.0817  1.0082
  551MOL0     C75964   3.936   8.113   6.703 -0.1647  0.5880  0.9392
  551MOL0     C75965   3.925   7.994   6.749  0.2850  0.5780 -1.0595
  551MOL0     C75966   4.316   8.648   6.615  0.1173  0.9615 -0.1116
  551MOL0     C75967   4.446   8.683   6.594  0.2336 -0.2260 -0.0144
  551MOL0     C75968   4.486   8.719   6.455 -0.2427 -0.6538 -0.7893
  551MOL0     H75969   4.881   8.400   6.699  0.5179 -0.6551  1.1417
  551MOL0     H75970   5.101   8.396   6.648 -4.6474 -0.8696 -1.0928
  551MOL0     H75971   5.256   8.588   6.476  1.4847  0.3659 -0.5909
  551MOL0     H75972   5.319   8.445   6.561 -3.2350 -0.3322  0.9631
  551MOL0     H75973   5.478   8.553   6.429  1.5928 -3.5269  0.9816
  551MOL0     H75974   5.481   8.708   6.535  2.1973 -0.1673  0.3242
  551MOL0     H75975   5.568   8.605   6.727  0.3110 -1.1600  0.8195
  551MOL0     H75976   5.528   8.445   6.672 -0.5472  0.8949  0.9370
  551MOL0     H75977   5.694   8.456   6.494  0.3187 -0.9486  0.2179
  551MOL0     H75978   5.738   8.625   6.529 -0.4676 -0.8953 -2.0457
  551MOL0     H75979   5.813   8.547   6.752  1.3783  1.4812 -1.8984
  551MOL0     H75980   5.904   8.487   6.627 -0.3392  0.6315 -1.2361
  551MOL0     H75981   5.859   8.312   6.789  0.1458 -0.7233  0.1532
  551MOL0     H75982   5.696   8.330   6.802  1.1697 -0.4585  1.8764
  551MOL0     H75983   5.788   8.213   6.532  2.0145  2.8144  1.3133
  551MOL0     H75984   5.630   8.210   6.614 -0.2089  1.9004 -0.5556
  551MOL0     H75985   5.868   8.077   6.738  0.3785  1.6696 -1.2095
  551MOL0     H75986   5.715   8.083   6.815  2.9354 -4.9368  2.2907
  551MOL0     H75987   5.901   7.832   6.656 -0.8560 -0.6683 -2.5136
  551MOL0     H75988   5.835   7.631   6.520 -1.7546  0.6022 -1.1177
  551MOL0     H75989   5.664   7.568   6.520  2.4211 -3.0839 -0.9637
  551MOL0     H75990   5.828   7.466   6.685  1.9151  2.1046  0.6126
  551MOL0     H75991   5.797   7.618   6.780 -0.4771 -0.2475 -0.2587
  551MOL0     H75992   5.554   7.576   6.777  1.3676  1.6828  1.5717
  551MOL0     H75993   5.593   7.427   6.693  2.4666  1.4310 -2.8854
  551MOL0     H75994   5.698   7.487   6.985 -5.4295  0.1870  1.3932
  551MOL0     H75995   5.574   7.372   6.947  0.5099 -1.4446  0.6299
  551MOL0     H75996   5.891   7.317   7.101 -1.9946  2.5046  0.1221
  551MOL0     H75997   5.968   7.238   7.308  2.1052  0.0218 -3.8548
  551MOL0     H75998   5.970   7.057   7.317 -3.4671 -2.7404 -0.5073
  551MOL0     H75999   5.825   7.135   7.363  2.0959  0.2321  1.5200
  551MOL0     H76000   5.919   6.640   7.226  0.1213  1.5951  0.1657
  551MOL0     H76001   5.917   6.421   7.361  0.3839 -1.6622 -2.4789
  551MOL0     H76002   5.829   6.195   7.334  1.4379  0.8399  0.5629
  551MOL0     H76003   5.873   6.232   7.500  0.3703 -1.6355  0.7674
  551MOL0     H76004   5.823   5.989   7.482  0.1782  0.9317  0.9963
  551MOL0     H76005   5.708   6.081   7.587 -1.8377  0.5673 -0.5060
  551MOL0     H76006   5.668   6.038   7.290 -0.6659 -0.4766 -0.8201
  551MOL0     H76007   5.546   6.082   7.415 -1.0102 -1.4829  0.1866
  551MOL0     H76008   5.676   5.824   7.488 -1.5446 -4.0332 -0.8865
  551MOL0     H76009   5.614   5.823   7.318  0.9190  3.2924 -1.8725
  551MOL0     H76010   5.444   5.732   7.467 -0.2340  0.2846 -2.9305
  551MOL0     H76011   5.456   5.867   7.572 -0.0832 -0.7449  0.4836
  551MOL0     H76012   5.345   6.013   7.409 -0.1181 -0.7661  0.9598
  551MOL0     H76013   5.258   5.862   7.436 -2.0764  1.7884 -1.8663
  551MOL0     H76014   5.372   5.771   7.225 -2.2343  0.5691 -1.2522
  551MOL0     H76015   5.427   5.940   7.200  0.3191  1.6459  2.3384
  551MOL0     H76016   5.183   6.009   7.201  2.7642  0.3496 -0.8248
  551MOL0     H76017   5.130   5.836   7.193 -0.3329  0.3709  3.4178
  551MOL0     H76018   5.494   6.433   7.356 -0.2622  0.6701  2.5845
  551MOL0     H76019   5.492   6.633   7.196 -0.6864 -2.6242 -0.9424
  551MOL0     H76020   5.668   6.901   6.965 -0.5226 -0.4377  1.3282
  551MOL0     H76021   5.659   7.092   6.824  0.5731  2.1271 -0.3033
  551MOL0     H76022   5.181   8.803   6.786  0.3702 -0.8810  2.6797
  551MOL0     H76023   4.911   8.803   6.842 -1.9669 -0.7374 -0.5186
  551MOL0     H76024   4.541   8.659   6.930  1.0010 -1.9405 -0.6933
  551MOL0     H76025   4.303   8.627   6.948  1.6931 -1.5638  0.5344
  551MOL0     H76026   4.010   8.641   6.598 -0.3319 -1.7269 -2.3370
  551MOL0     H76027   4.101   8.479   6.598 -4.6991 -3.6423  0.2497
  551MOL0     H76028   3.843   8.519   6.647  0.1497  1.7312  1.5824
  551MOL0     H76029   3.898   8.546   6.812 -1.2989 -0.8511  0.6435
  551MOL0     H76030   4.017   8.336   6.814  0.2808  1.8643  0.6439
  551MOL0     H76031   3.843   8.330   6.824 -1.2781  1.7047 -0.7883
  551MOL0     H76032   4.040   8.278   6.596 -1.0040 -0.1792 -1.2876
  551MOL0     H76033   3.867   8.274   6.571 -1.5681  1.7381  3.1645
  551MOL0     H76034   3.903   7.897   6.789 -2.2436  1.5981  0.2476
  551MOL0     H76035   4.259   8.625   6.525 -2.5100  1.3837  1.3502
  551MOL0     H76036   4.555   8.648   6.408  2.6362  0.9145  0.7847
  551MOL0     H76037   4.398   8.709   6.392 -0.0995  0.8531 -1.2639
  551MOL0     H76038   4.535   8.816   6.449  2.1423 -1.8138 -1.3817
  552MOL0     O76039   8.365   1.251   2.479  0.1131 -0.1696 -0.4653
  552MOL0     C76040   8.259   1.315   2.465 -0.8979  1.2689  0.7198
  552MOL0     O76041   8.238   1.449   2.503 -0.6420  0.8318 -0.0008
  552MOL0     C76042   8.353   1.523   2.521  0.0154  0.6713 -0.3832
  552MOL0     C76043   8.464   1.522   2.442  0.2999  0.3990  0.4697
  552MOL0     C76044   8.577   1.595   2.468 -0.4391  0.0051  0.0128
  552MOL0     C76045   8.577   1.690   2.578 -0.0186  0.2606  0.8842
  552MOL0     O76046   8.688   1.774   2.585  0.1240 -0.8835 -0.5732
  552MOL0     C76047   8.691   1.874   2.693  0.1670  0.4203  0.2202
  552MOL0     C76048   8.837   1.929   2.711  0.1092 -0.5908 -0.4268
  552MOL0     C76049   8.922   1.968   2.590  0.3665 -0.1449  0.8817
  552MOL0     C76050   9.063   2.013   2.628 -0.8378  0.1612 -0.6864
  552MOL0     C76051   9.151   2.005   2.502  0.1490  1.2850 -0.5704
  552MOL0     C76052   9.105   2.095   2.391  0.3749  0.2729 -0.3188
  552MOL0     C76053   9.079   2.246   2.427 -0.0050 -0.0075  0.2400
  552MOL0     C76054   9.202   2.330   2.448  0.2039  0.1679 -1.0789
  552MOL0     N76055   9.241   2.325   2.588 -0.1254 -0.4054  0.8754
  552MOL0     C76056   9.169   2.360   2.700  0.4756 -0.2908  0.7895
  552MOL0     C76057   9.260   2.372   2.795 -0.4229 -0.0093 -0.4231
  552MOL0     C76058   9.247   2.412   2.932 -0.6259  0.9525 -1.1403
  552MOL0     C76059   9.216   2.292   3.021  0.2949  0.1433  0.7299
  552MOL0     C76060   9.199   2.322   3.171 -0.0439  0.1629  0.5594
  552MOL0     C76061   9.334   2.297   3.247 -0.3197  0.9029  0.6298
  552MOL0     O76062   9.300   2.183   3.331 -0.0773  0.0184  0.6631
  552MOL0     C76063   9.386   2.150   3.432  0.0174 -0.7770  0.1485
  552MOL0     C76064   9.502   2.224   3.460  0.0236  1.0119  0.1422
  552MOL0     C76065   9.577   2.209   3.574 -0.6846 -0.4854  0.7154
  552MOL0     C76066   9.702   2.288   3.574 -0.7766 -1.1309 -0.6275
  552MOL0     C76067   9.547   2.109   3.666 -0.2675  0.0442 -0.4853
  552MOL0     C76068   9.642   2.073   3.773  0.5779  0.7011  0.5100
  552MOL0     O76069   9.697   2.185   3.833  0.2147 -0.2427 -0.0959
  552MOL0     C76070   9.768   2.168   3.959  0.0451  0.4350  1.1224
  552MOL0     C76071   9.892   2.231   3.972 -0.2316 -0.4946  0.0015
  552MOL0     C76072   9.953   2.225   4.098 -0.8919 -0.2642 -0.0479
  552MOL0     C76073   9.914   2.147   4.207 -0.1217  0.5303  0.4861
  552MOL0     O76074   9.984   2.136   4.330  1.0605  0.3415  0.0050
  552MOL0     C76075   9.921   2.095   4.449  0.2190 -1.0911 -0.3330
  552MOL0     C76076  10.007   2.135   4.569 -0.1447  0.0150  0.8989
  552MOL0     C76077  10.059   2.290   4.565  0.1669  0.1946 -0.5851
  552MOL0     C76078  10.169   2.296   4.676 -0.3202  0.4846  0.8220
  552MOL0     C76079  10.210   2.445   4.701  0.7407  0.2393 -0.3115
  552MOL0     C76080  10.285   2.466   4.834 -0.4406  0.6139 -0.9233
  552MOL0     C76081  10.426   2.519   4.805 -0.7505 -0.3705  0.1779
  552MOL0     C76082  10.520   2.532   4.929 -0.3179  0.4086  0.1240
  552MOL0    Cl76083  10.428   2.618   5.063 -0.1396 -0.1365  0.5282
  552MOL0     C76084   9.788   2.083   4.185  0.5762  0.0528 -1.4001
  552MOL0     C76085   9.721   2.094   4.070 -0.3348 -0.1431  1.5945
  552MOL0     O76086   9.668   1.955   3.790 -0.0780 -0.8166 -0.2015
  552MOL0     C76087   9.443   2.028   3.630  0.6105 -0.9520 -0.9310
  552MOL0     C76088   9.355   2.048   3.521  0.9102 -0.6538  0.7181
  552MOL0     N76089   9.386   2.330   2.750 -0.1075  0.5674  0.3611
  552MOL0     N76090   9.376   2.308   2.622 -0.6985 -0.6578  0.5788
  552MOL0     C76091   8.463   1.697   2.654  0.2918 -0.4703 -0.4070
  552MOL0     C76092   8.352   1.618   2.621  0.4550 -0.9076 -0.3584
  552MOL0     C76093   8.142   1.233   2.435 -0.5619  0.3855 -0.1460
  552MOL0     C76094   8.133   1.160   2.322  0.0616 -0.0381  0.2036
  552MOL0     C76095   8.015   1.086   2.291 -0.3948 -0.2310 -0.4244
  552MOL0     C76096   7.900   1.087   2.374  0.3693 -1.2861 -0.1242
  552MOL0     O76097   7.794   1.014   2.341  0.3641  0.1552  0.2991
  552MOL0     C76098   7.664   1.029   2.405  0.2157 -0.5659  0.2460
  552MOL0     C76099   7.570   0.917   2.363  0.2985  0.2489  0.6127
  552MOL0     C76100   7.517   0.931   2.224  0.3072  0.7741 -0.0687
  552MOL0     C76101   7.411   0.822   2.205 -0.9337 -0.7915  0.1498
  552MOL0     C76102   7.425   0.758   2.076 -0.1771 -0.1328  0.1433
  552MOL0     C76103   7.439   0.706   1.972 -0.6524  0.5132 -0.2181
  552MOL0     C76104   7.907   1.168   2.488 -0.2096 -0.5509 -0.1351
  552MOL0     C76105   8.029   1.231   2.520  0.0628  0.4690 -0.4891
  552MOL0     C76106   8.004   1.312   2.651 -1.3534  1.1492  1.0501
  552MOL0     H76107   8.470   1.446   2.365 -0.4839 -0.5706  1.3316
  552MOL0     H76108   8.669   1.595   2.411 -0.1869  3.9595  0.1495
  552MOL0     H76109   8.654   1.825   2.784  0.3842  0.2038  0.1965
  552MOL0     H76110   8.627   1.959   2.670  0.6413  1.2031  1.6685
  552MOL0     H76111   8.840   2.016   2.776 -2.3836 -1.7698  1.4707
  552MOL0     H76112   8.875   1.851   2.777  0.1809  0.7305  1.1360
  552MOL0     H76113   8.931   1.881   2.524  1.2505  2.4457 -2.7315
  552MOL0     H76114   8.866   2.046   2.538 -0.6020 -2.1914 -1.3385
  552MOL0     H76115   9.062   2.114   2.671  0.5774 -0.9498  2.2347
  552MOL0     H76116   9.097   1.947   2.709  0.4271  0.1744 -1.1818
  552MOL0     H76117   9.168   1.903   2.464  3.9030  1.1166  1.0269
  552MOL0     H76118   9.252   2.037   2.532  0.4037  0.6472 -0.7235
  552MOL0     H76119   9.174   2.096   2.306  0.4980 -2.9578 -0.4029
  552MOL0     H76120   9.019   2.056   2.335  3.1926 -0.8371 -4.3021
  552MOL0     H76121   9.011   2.245   2.512  0.0262 -1.2859  0.2751
  552MOL0     H76122   9.021   2.293   2.347  0.8796  2.0972  0.7602
  552MOL0     H76123   9.281   2.297   2.380 -0.0099 -2.1832 -0.2718
  552MOL0     H76124   9.178   2.434   2.422 -0.3310  0.1036 -0.8427
  552MOL0     H76125   9.071   2.406   2.709  0.8685  0.5219  0.9700
  552MOL0     H76126   9.150   2.462   2.940 -1.9598 -1.4916 -1.0622
  552MOL0     H76127   9.328   2.476   2.967  0.6319 -1.0242 -0.2060
  552MOL0     H76128   9.115   2.261   2.992  0.1431 -1.1978  2.5466
  552MOL0     H76129   9.284   2.207   3.011 -1.9893 -1.6263 -1.0757
  552MOL0     H76130   9.173   2.426   3.191  0.7547  0.7749 -1.3516
  552MOL0     H76131   9.123   2.261   3.221 -1.1043  1.6125  0.7701
  552MOL0     H76132   9.412   2.295   3.170 -0.5869  2.0100  0.3087
  552MOL0     H76133   9.363   2.381   3.311 -1.1755 -0.8140  3.4476
  552MOL0     H76134   9.547   2.288   3.384 -0.9848  0.3923 -1.0051
  552MOL0     H76135   9.724   2.355   3.490  1.7968  2.0655  2.2525
  552MOL0     H76136   9.779   2.211   3.581 -0.5247 -0.8296  0.0361
  552MOL0     H76137   9.703   2.358   3.659  0.4834  1.7649 -2.8381
  552MOL0     H76138   9.925   2.292   3.889  1.7498 -0.1915  0.9827
  552MOL0     H76139  10.053   2.265   4.112 -0.8006  1.0777 -3.4823
  552MOL0     H76140   9.825   2.145   4.463  0.9172  0.4548 -0.9242
  552MOL0     H76141   9.913   1.985   4.452 -3.1937 -0.9576  2.8733
  552MOL0     H76142   9.948   2.117   4.660  0.6043  0.6128  1.5210
  552MOL0     H76143  10.097   2.073   4.571  0.6597  1.1418  2.4379
  552MOL0     H76144   9.969   2.346   4.595 -0.4602 -1.6900  1.2618
  552MOL0     H76145  10.095   2.330   4.470  0.8428  3.0432  0.7466
  552MOL0     H76146  10.254   2.241   4.636 -1.8178 -0.8137 -0.7843
  552MOL0     H76147  10.130   2.251   4.767 -0.6514  1.9158  1.4107
  552MOL0     H76148  10.264   2.486   4.616 -1.2628  2.5960 -0.5627
  552MOL0     H76149  10.122   2.510   4.711  2.0068  2.1345 -1.0433
  552MOL0     H76150  10.290   2.378   4.898 -1.3983  1.3856  0.2770
  552MOL0     H76151  10.229   2.541   4.891  0.7270  1.0838 -0.3731
  552MOL0     H76152  10.403   2.619   4.767 -1.0628 -0.7970 -0.7919
  552MOL0     H76153  10.473   2.452   4.732 -2.0842 -1.6236  0.4395
  552MOL0     H76154  10.612   2.587   4.907 -0.8440  0.6497 -1.6757
  552MOL0     H76155  10.546   2.429   4.955  2.0837  1.5095  2.5123
  552MOL0     H76156   9.727   2.033   4.260  0.1698  0.0345 -1.7389
  552MOL0     H76157   9.640   2.025   4.050 -0.4449  0.2731  0.5179
  552MOL0     H76158   9.441   1.940   3.694  2.3228 -1.3596 -1.3902
  552MOL0     H76159   9.261   1.993   3.520  0.5712 -0.2114  2.7544
  552MOL0     H76160   8.451   1.768   2.736  1.3214  0.6590 -1.1954
  552MOL0     H76161   8.259   1.620   2.675  1.1657 -0.1804  0.8784
  552MOL0     H76162   8.219   1.150   2.257  1.2278  2.6825  1.1875
  552MOL0     H76163   7.996   1.037   2.195 -3.5204  1.8102 -0.9775
  552MOL0     H76164   7.680   1.027   2.514  2.8097 -0.6554 -0.0638
  552MOL0     H76165   7.629   1.132   2.395  2.1515  0.1925  0.7437
  552MOL0     H76166   7.483   0.942   2.424  0.9972  0.4627  1.5376
  552MOL0     H76167   7.618   0.821   2.384 -1.7476 -1.2548 -1.1952
  552MOL0     H76168   7.462   1.025   2.228 -1.5665 -0.2833  3.8926
  552MOL0     H76169   7.593   0.946   2.146  0.4087  0.8119  0.0363
  552MOL0     H76170   7.309   0.861   2.221 -1.1015 -1.2527  0.2198
  552MOL0     H76171   7.413   0.740   2.277  2.3067 -1.6585 -0.7730
  552MOL0     H76172   7.423   0.641   1.888 -3.7110 -0.9727  1.3764
  552MOL0     H76173   7.825   1.185   2.557 -1.2402  1.9088 -1.8324
  552MOL0     H76174   8.029   1.415   2.624 -2.2920  1.1389  0.1035
  552MOL0     H76175   7.906   1.298   2.699 -1.9807 -3.4239 -0.9801
  552MOL0     H76176   8.084   1.263   2.708 -0.9957 -0.9643 -1.1161
  553MOL0     O76177   0.203   0.455   9.109  0.3702  0.8537  0.8771
  553MOL0     C76178   0.319   0.445   9.072  0.0162  0.5070 -0.5075
  553MOL0     O76179   0.414   0.553   9.071 -0.3136 -0.3721  0.4240
  553MOL0     C76180   0.389   0.684   9.117  0.0371  0.3989 -0.5263
  553MOL0     C76181   0.294   0.718   9.218  0.6731  0.8358 -0.1914
  553MOL0     C76182   0.246   0.853   9.223 -0.1032 -0.3904  1.0804
  553MOL0     C76183   0.305   0.951   9.141  0.0764  1.0414  0.7933
  553MOL0     O76184   0.262   1.078   9.125 -0.1951 -0.0307  0.5279
  553MOL0     C76185   0.198   1.134   9.239 -0.1642 -0.2723  0.3487
  553MOL0     C76186   0.153   1.281   9.213 -0.0672 -0.4281 -0.0626
  553MOL0     C76187   0.263   1.368   9.145  0.1465  0.6119 -0.1767
  553MOL0     C76188   0.195   1.484   9.082  1.2480 -0.2158  0.5463
  553MOL0     C76189   0.270   1.624   9.079 -0.1941 -0.0038 -0.8015
  553MOL0     C76190   0.286   1.688   9.217  0.9081 -0.5072  0.4551
  553MOL0     C76191   0.153   1.728   9.298 -0.7969  0.3037  0.1083
  553MOL0     C76192   0.201   1.786   9.436  0.1331  0.1635  0.0321
  553MOL0     N76193   0.248   1.924   9.440 -0.0566 -0.7981 -0.3322
  553MOL0     C76194   0.375   1.966   9.422 -0.5066 -0.3494 -0.7557
  553MOL0     C76195   0.370   2.100   9.422 -1.4197  1.5885 -0.8812
  553MOL0     C76196   0.499   2.190   9.409  0.2601 -1.0232 -0.1936
  553MOL0     C76197   0.472   2.336   9.381 -0.2517 -0.2028 -0.2307
  553MOL0     C76198   0.603   2.423   9.363  0.6159  0.2715  0.3995
  553MOL0     C76199   0.588   2.538   9.266 -0.3826  0.4659 -0.0755
  553MOL0     O76200   0.616   2.493   9.132 -0.2910  0.5078 -0.4724
  553MOL0     C76201   0.521   2.532   9.038  0.5240 -0.0087  0.3736
  553MOL0     C76202   0.384   2.512   9.058 -0.7541 -0.3724 -0.1082
  553MOL0     C76203   0.302   2.550   8.958  0.5249  0.6490  0.1962
  553MOL0     C76204   0.155   2.534   8.989 -0.3888  0.1414 -0.1525
  553MOL0     C76205   0.345   2.601   8.830 -0.5795 -0.1832  0.2922
  553MOL0     C76206   0.251   2.652   8.732  0.4635 -0.3198  0.3647
  553MOL0     O76207   0.121   2.656   8.758 -0.7818  0.3424  0.2236
  553MOL0     C76208   0.025   2.742   8.693  0.0215  0.1284 -0.3614
  553MOL0     C76209   0.058   2.854   8.616  0.5441  0.3702  1.0017
  553MOL0     C76210  -0.041   2.934   8.556  0.2552  0.1857  0.5288
  553MOL0     C76211  -0.171   2.881   8.567  0.0895 -0.6788  0.1994
  553MOL0     O76212  -0.271   2.946   8.486  0.0587  0.8054 -0.0894
  553MOL0     C76213  -0.245   2.964   8.345  0.5910  0.4720 -0.6359
  553MOL0     C76214  -0.317   2.852   8.259 -0.1758  0.1993 -0.1506
  553MOL0     C76215  -0.463   2.888   8.231 -0.1096 -0.4333 -0.4941
  553MOL0     C76216  -0.544   2.770   8.165 -0.6231  0.0305 -0.2162
  553MOL0     C76217  -0.697   2.764   8.204  0.4574 -0.4836 -1.0577
  553MOL0     C76218  -0.758   2.652   8.118  1.3306 -0.4873  0.6536
  553MOL0     C76219  -0.905   2.666   8.092 -0.2624  0.8123 -0.0936
  553MOL0     C76220  -0.993   2.707   8.201  0.6000 -0.6080  0.2004
  553MOL0    Cl76221  -1.020   2.887   8.161 -0.0186  0.2710 -0.2396
  553MOL0     C76222  -0.206   2.779   8.649  0.1508 -0.3738 -0.9937
  553MOL0     C76223  -0.111   2.710   8.713 -0.6341 -0.0265  0.1607
  553MOL0     O76224   0.298   2.680   8.623 -0.7308 -0.4717 -0.4323
  553MOL0     C76225   0.488   2.607   8.812 -0.0755  1.1340  0.3502
  553MOL0     C76226   0.569   2.584   8.919  0.0775 -0.0448 -0.0652
  553MOL0     N76227   0.246   2.143   9.457 -0.0790 -0.1434 -0.1574
  553MOL0     N76228   0.180   2.038   9.466 -0.3328  0.6751  1.3285
  553MOL0     C76229   0.405   0.913   9.057  0.3548  0.1582 -0.2559
  553MOL0     C76230   0.449   0.785   9.038 -0.4725  0.5140  0.4346
  553MOL0     C76231   0.366   0.318   9.010  0.3599 -1.1495 -1.1742
  553MOL0     C76232   0.467   0.335   8.914 -0.7414 -0.3530  1.3874
  553MOL0     C76233   0.528   0.219   8.861  0.4605  0.1727  1.1225
  553MOL0     C76234   0.482   0.092   8.883  0.1446 -0.2199 -0.5126
  553MOL0     O76235   0.525  -0.029   8.831 -0.5753 -0.4547 -0.3850
  553MOL0     C76236   0.628  -0.017   8.730 -0.1906 -0.1352  0.3327
  553MOL0     C76237   0.728  -0.135   8.738  0.7350  0.8751  0.2446
  553MOL0     C76238   0.822  -0.148   8.613 -0.4450 -0.6645 -0.2260
  553MOL0     C76239   0.766  -0.112   8.477  0.1390 -0.0087  0.3247
  553MOL0     C76240   0.638  -0.183   8.448 -0.3060 -0.3550 -0.0523
  553MOL0     C76241   0.533  -0.242   8.421 -1.1587 -0.8226  0.4707
  553MOL0     C76242   0.374   0.078   8.975 -0.2407 -0.5572  0.2028
  553MOL0     C76243   0.321   0.188   9.043 -0.2951 -0.7485 -0.4267
  553MOL0     C76244   0.212   0.158   9.134 -1.0712  0.8245  0.0271
  553MOL0     H76245   0.247   0.647   9.286  1.5161 -0.9802 -1.4236
  553MOL0     H76246   0.178   0.883   9.302 -0.5941 -2.9625  1.7028
  553MOL0     H76247   0.264   1.133   9.326 -1.2493 -1.1179  1.1951
  553MOL0     H76248   0.106   1.080   9.263 -0.6694  0.8321  0.9501
  553MOL0     H76249   0.056   1.275   9.163 -1.2811 -2.9981  2.3818
  553MOL0     H76250   0.140   1.333   9.308  1.3366  0.1644 -0.1675
  553MOL0     H76251   0.340   1.390   9.219  1.2884  1.7520 -1.6541
  553MOL0     H76252   0.325   1.317   9.071 -0.1095  1.2538 -0.8577
  553MOL0     H76253   0.155   1.459   8.983 -1.6628  1.1553  1.2837
  553MOL0     H76254   0.105   1.498   9.143  1.3414 -1.4729  0.9933
  553MOL0     H76255   0.224   1.692   9.006 -0.4140  1.3239  0.5257
  553MOL0     H76256   0.370   1.613   9.037  0.2710 -1.7795  0.6551
  553MOL0     H76257   0.349   1.618   9.272  3.1222 -0.8152 -2.2459
  553MOL0     H76258   0.352   1.776   9.212  1.3381 -0.8925 -2.7682
  553MOL0     H76259   0.102   1.636   9.330 -0.5452  1.5952  5.0725
  553MOL0     H76260   0.091   1.803   9.249 -2.1035  0.1753  1.5042
  553MOL0     H76261   0.118   1.783   9.507  1.9918 -1.0237  2.3240
  553MOL0     H76262   0.274   1.713   9.473 -1.8701 -2.7157 -1.3424
  553MOL0     H76263   0.468   1.910   9.423 -0.2641  0.0178 -1.6379
  553MOL0     H76264   0.557   2.128   9.340 -0.4659  0.1867 -1.9464
  553MOL0     H76265   0.560   2.186   9.500  1.8377 -2.3582 -1.2578
  553MOL0     H76266   0.434   2.322   9.279 -0.2077  0.7848 -0.3938
  553MOL0     H76267   0.405   2.386   9.452 -0.0884 -0.0383 -0.1929
  553MOL0     H76268   0.634   2.463   9.460 -1.1855  0.8307  0.7827
  553MOL0     H76269   0.685   2.360   9.328 -1.4855 -0.1533 -4.6606
  553MOL0     H76270   0.501   2.604   9.265  0.1474  1.1688 -0.6041
  553MOL0     H76271   0.675   2.597   9.296 -2.1339  1.8518  2.6240
  553MOL0     H76272   0.350   2.487   9.158 -0.3452 -0.0868  0.1064
  553MOL0     H76273   0.146   2.526   9.098 -2.0040  2.2538 -0.0651
  553MOL0     H76274   0.110   2.441   8.952  1.8005 -0.2819 -1.9714
  553MOL0     H76275   0.087   2.617   8.970  1.2463  1.7364  0.6342
  553MOL0     H76276   0.159   2.894   8.623  0.7149 -0.0278  0.8305
  553MOL0     H76277  -0.013   3.029   8.511  1.4343  0.0045  0.8338
  553MOL0     H76278  -0.282   3.063   8.314 -1.0868  0.0498 -0.0996
  553MOL0     H76279  -0.139   2.965   8.321 -0.0275  0.4107 -3.6822
  553MOL0     H76280  -0.266   2.837   8.163 -1.0940  0.0242 -0.6298
  553MOL0     H76281  -0.316   2.755   8.309  1.1166 -0.8446 -2.0843
  553MOL0     H76282  -0.478   2.980   8.173  2.3383  2.2318  2.6883
  553MOL0     H76283  -0.498   2.905   8.333 -0.3476  0.0680 -0.6593
  553MOL0     H76284  -0.498   2.676   8.196 -1.7808 -0.3775  0.3016
  553MOL0     H76285  -0.510   2.782   8.061  2.7173  1.8764  0.9394
  553MOL0     H76286  -0.714   2.735   8.308 -0.2821 -0.0365 -1.0455
  553MOL0     H76287  -0.744   2.861   8.184 -1.1889 -1.5961 -3.0109
  553MOL0     H76288  -0.737   2.553   8.159  2.7676  0.0251  1.2105
  553MOL0     H76289  -0.722   2.669   8.016 -2.6656  1.5976 -0.5813
  553MOL0     H76290  -0.950   2.573   8.055 -1.5394  1.4854 -0.2748
  553MOL0     H76291  -0.913   2.731   8.005  1.2514  2.6882  1.0810
  553MOL0     H76292  -0.955   2.688   8.302 -1.4731 -0.6241  1.0168
  553MOL0     H76293  -1.091   2.660   8.194  1.2832 -1.8829 -1.3957
  553MOL0     H76294  -0.309   2.746   8.661 -0.8478  2.9400  0.7986
  553MOL0     H76295  -0.122   2.631   8.787  0.8985 -0.8839 -0.4572
  553MOL0     H76296   0.530   2.652   8.723  0.1147  2.4995  1.1060
  553MOL0     H76297   0.678   2.583   8.916  0.4505 -2.3754  4.7767
  553MOL0     H76298   0.451   0.988   8.995 -2.6789  1.7613 -0.7412
  553MOL0     H76299   0.524   0.772   8.960  0.0966  0.5582  0.9677
  553MOL0     H76300   0.518   0.429   8.897 -0.7328 -0.0915  2.7496
  553MOL0     H76301   0.595   0.255   8.783 -0.6847 -1.4914 -0.7255
  553MOL0     H76302   0.571  -0.022   8.637 -3.1416  0.7905  1.9650
  553MOL0     H76303   0.692   0.071   8.716  0.3998 -0.7657 -1.2028
  553MOL0     H76304   0.671  -0.229   8.748  2.5208 -0.2883 -0.1223
  553MOL0     H76305   0.799  -0.135   8.821  0.8538 -0.5808  0.1692
  553MOL0     H76306   0.912  -0.090   8.634 -1.9478  3.1499 -3.1363
  553MOL0     H76307   0.845  -0.255   8.607  1.4505 -0.2411 -1.1987
  553MOL0     H76308   0.834  -0.131   8.393 -0.7717  2.1019 -0.9979
  553MOL0     H76309   0.752  -0.003   8.467  2.0215  0.3439  1.1700
  553MOL0     H76310   0.446  -0.293   8.385  0.1756 -2.1744 -0.9609
  553MOL0     H76311   0.343  -0.025   8.991 -3.1806  0.2671  0.3142
  553MOL0     H76312   0.174   0.058   9.112 -0.6137  0.7042 -0.2252
  553MOL0     H76313   0.231   0.157   9.242 -1.4496 -2.6496  0.1753
  553MOL0     H76314   0.128   0.227   9.123 -0.5096  1.5045 -0.0701
  554MOL0     O76315   6.360   8.492   1.348 -0.1673  0.3600 -0.7453
  554MOL0     C76316   6.260   8.427   1.324  0.3432  0.3895 -0.5571
  554MOL0     O76317   6.211   8.413   1.195 -0.4130 -0.1212 -0.5689
  554MOL0     C76318   6.279   8.425   1.081  0.0196  1.3017 -1.6913
  554MOL0     C76319   6.416   8.408   1.067  0.6818  0.7070 -0.3194
  554MOL0     C76320   6.475   8.407   0.938  0.0079  0.6805  0.1647
  554MOL0     C76321   6.387   8.420   0.826 -0.5583 -0.1462  0.5631
  554MOL0     O76322   6.418   8.409   0.691  0.4650 -0.0868  0.8894
  554MOL0     C76323   6.544   8.348   0.661  0.1425 -0.4439 -0.9442
  554MOL0     C76324   6.663   8.440   0.666  0.0751  1.0552 -0.8494
  554MOL0     C76325   6.780   8.401   0.578 -0.8506 -0.7082  0.1148
  554MOL0     C76326   6.912   8.482   0.604 -0.5241  0.7615  0.2558
  554MOL0     C76327   7.012   8.468   0.487  0.5831 -0.3921 -0.2280
  554MOL0     C76328   7.139   8.575   0.502  0.0635  0.1256  0.3816
  554MOL0     C76329   7.245   8.548   0.396  0.1723  0.1107 -1.0808
  554MOL0     C76330   7.392   8.611   0.413  1.1277 -0.6054 -0.1391
  554MOL0     N76331   7.456   8.551   0.528  0.3594 -0.9557  0.9362
  554MOL0     C76332   7.484   8.418   0.551 -0.3511 -0.4306  1.2260
  554MOL0     C76333   7.590   8.415   0.638 -0.0088  0.3182 -0.4720
  554MOL0     C76334   7.652   8.284   0.680 -0.6217 -0.7516  0.2831
  554MOL0     C76335   7.551   8.198   0.767  0.0859 -0.3465 -0.3574
  554MOL0     C76336   7.561   8.228   0.921  0.1719  0.3925  0.2138
  554MOL0     C76337   7.473   8.130   1.006 -0.0966  0.2487  1.4994
  554MOL0     O76338   7.451   8.188   1.128 -0.4170 -0.3512  0.1719
  554MOL0     C76339   7.367   8.148   1.224 -0.2335  0.2705 -0.2540
  554MOL0     C76340   7.359   8.011   1.247  0.2235 -0.3101 -0.0795
  554MOL0     C76341   7.284   7.964   1.359 -0.1627 -1.4992  0.0582
  554MOL0     C76342   7.276   7.815   1.370 -0.4409  0.5624 -0.3630
  554MOL0     C76343   7.209   8.059   1.442  0.6706  0.0854 -0.9080
  554MOL0     C76344   7.103   8.022   1.545  0.3704 -0.8951  0.2889
  554MOL0     O76345   7.042   7.898   1.531  0.5977 -1.2247 -0.3971
  554MOL0     C76346   6.929   7.876   1.606  0.0184  1.2322 -0.4970
  554MOL0     C76347   6.812   7.912   1.544 -0.0195  0.8482  0.6586
  554MOL0     C76348   6.689   7.877   1.608 -0.0818 -0.0505  0.5417
  554MOL0     C76349   6.690   7.799   1.726 -0.0952 -0.5578 -1.2279
  554MOL0     O76350   6.581   7.733   1.780 -0.1745  0.0117 -0.3827
  554MOL0     C76351   6.457   7.727   1.715  0.9240  0.5086 -0.7351
  554MOL0     C76352   6.459   7.624   1.605 -0.2179 -0.4008  0.1385
  554MOL0     C76353   6.330   7.552   1.581  0.8259  0.2371  0.0181
  554MOL0     C76354   6.329   7.485   1.450 -0.1480  0.6053  0.0822
  554MOL0     C76355   6.220   7.375   1.430 -0.7141 -1.0744  0.3968
  554MOL0     C76356   6.080   7.404   1.475  0.3581  0.1134  0.5739
  554MOL0     C76357   6.001   7.483   1.366 -0.0653 -0.1661 -0.8275
  554MOL0     C76358   5.858   7.501   1.400  0.6214  0.1641  0.5272
  554MOL0    Cl76359   5.756   7.361   1.355  0.1433 -0.5677 -0.0654
  554MOL0     C76360   6.809   7.769   1.792 -0.6884  0.1083 -0.2987
  554MOL0     C76361   6.928   7.802   1.731 -0.4627  0.0248 -0.5350
  554MOL0     O76362   7.076   8.108   1.625  0.5432 -0.6276 -0.0979
  554MOL0     C76363   7.225   8.194   1.411 -0.4914 -0.1120  0.2669
  554MOL0     C76364   7.303   8.237   1.306  0.2908 -0.0067  0.2814
  554MOL0     N76365   7.609   8.547   0.683 -0.1939 -0.2214  0.5065
  554MOL0     N76366   7.534   8.623   0.616 -0.1359 -0.3375  0.3680
  554MOL0     C76367   6.265   8.456   0.851  0.1464 -0.9250  0.3130
  554MOL0     C76368   6.209   8.459   0.974  0.8245  0.2905 -0.6454
  554MOL0     C76369   6.167   8.406   1.439 -0.5258 -0.0754 -0.2893
  554MOL0     C76370   6.184   8.480   1.558 -0.7976  0.3119  0.3712
  554MOL0     C76371   6.106   8.452   1.667  0.2357 -0.0483 -0.1775
  554MOL0     C76372   6.001   8.360   1.665  0.0136 -0.4105  0.1174
  554MOL0     O76373   5.927   8.331   1.781  0.2203 -1.1379 -0.3969
  554MOL0     C76374   5.808   8.264   1.781  0.1400  0.5485 -0.4092
  554MOL0     C76375   5.835   8.117   1.805  0.3772 -0.0940  0.7808
  554MOL0     C76376   5.881   8.075   1.951 -0.2496 -0.0633  0.3274
  554MOL0     C76377   5.870   7.925   1.967 -0.8452  0.0192  0.0813
  554MOL0     C76378   5.733   7.876   1.972  0.1490 -0.1028 -0.0959
  554MOL0     C76379   5.632   7.846   2.018 -0.0565  1.2691  0.0410
  554MOL0     C76380   5.976   8.292   1.545 -0.3053  0.4185  0.6508
  554MOL0     C76381   6.057   8.318   1.433  0.3884  0.0439  0.7128
  554MOL0     C76382   6.032   8.216   1.313  0.2786 -1.0013 -0.5613
  554MOL0     H76383   6.475   8.392   1.157  1.0346  1.2493 -0.4472
  554MOL0     H76384   6.582   8.388   0.931 -0.2942 -0.9771 -0.4684
  554MOL0     H76385   6.550   8.314   0.557  5.1779  0.5594 -1.1947
  554MOL0     H76386   6.555   8.263   0.728 -2.1890  0.7798  1.1634
  554MOL0     H76387   6.623   8.537   0.635 -3.3402  0.0538  0.0187
  554MOL0     H76388   6.697   8.443   0.769 -3.0373 -0.2992  0.3601
  554MOL0     H76389   6.798   8.294   0.580  0.0058 -0.5655  0.4085
  554MOL0     H76390   6.748   8.425   0.476  2.4603 -1.6263 -1.2576
  554MOL0     H76391   6.878   8.585   0.613 -3.3120 -0.2565  3.5015
  554MOL0     H76392   6.955   8.454   0.700 -1.6924 -2.1301  0.0460
  554MOL0     H76393   6.961   8.468   0.390  0.5564 -1.2391 -0.2265
  554MOL0     H76394   7.045   8.365   0.502 -1.2721 -1.3953 -2.3452
  554MOL0     H76395   7.093   8.674   0.502  1.3173  0.7389 -1.0137
  554MOL0     H76396   7.189   8.567   0.599 -1.4445  2.4422  1.4468
  554MOL0     H76397   7.206   8.578   0.298 -0.2046  2.4021 -0.2718
  554MOL0     H76398   7.255   8.439   0.392 -2.7915 -0.4262  1.8271
  554MOL0     H76399   7.445   8.599   0.318 -1.4121 -1.4587 -1.5476
  554MOL0     H76400   7.383   8.719   0.424  0.1780 -0.6295 -0.5877
  554MOL0     H76401   7.442   8.324   0.515  1.1723 -0.7264  0.1346
  554MOL0     H76402   7.743   8.282   0.740 -2.9159 -0.8738  4.0704
  554MOL0     H76403   7.663   8.228   0.587  0.8226 -0.5016  0.2797
  554MOL0     H76404   7.450   8.218   0.731  0.4010  2.9736  0.2583
  554MOL0     H76405   7.574   8.093   0.747 -1.3040 -0.0479 -4.4966
  554MOL0     H76406   7.667   8.212   0.943  0.7866  3.2759 -0.2023
  554MOL0     H76407   7.546   8.334   0.946  2.7014  0.5841  1.1509
  554MOL0     H76408   7.381   8.118   0.948  1.9164 -2.7696 -1.4456
  554MOL0     H76409   7.526   8.034   1.014  2.7916  1.2193 -2.7326
  554MOL0     H76410   7.413   7.940   1.185  1.2724  0.1107  0.3435
  554MOL0     H76411   7.192   7.778   1.311 -0.2760 -1.5258  0.6224
  554MOL0     H76412   7.262   7.768   1.467 -0.7577 -3.4711 -2.1647
  554MOL0     H76413   7.370   7.768   1.339  0.2769  2.6676 -1.6039
  554MOL0     H76414   6.827   7.960   1.448 -0.9743  0.9961  0.5807
  554MOL0     H76415   6.593   7.904   1.566  0.4564  0.5093 -0.3649
  554MOL0     H76416   6.371   7.693   1.775  0.1536 -2.5153 -3.2840
  554MOL0     H76417   6.426   7.818   1.663 -2.7288 -0.6483 -0.8687
  554MOL0     H76418   6.479   7.677   1.511 -3.6853  3.3568  1.2073
  554MOL0     H76419   6.531   7.546   1.629  0.7951  0.6053  0.4288
  554MOL0     H76420   6.248   7.624   1.579 -1.5043 -2.2068  1.2488
  554MOL0     H76421   6.317   7.472   1.654 -1.7838 -0.1587 -0.8084
  554MOL0     H76422   6.426   7.440   1.427 -0.0423  1.1716 -0.6418
  554MOL0     H76423   6.318   7.573   1.385  1.1476  0.7466  0.0327
  554MOL0     H76424   6.215   7.359   1.322  0.6763 -0.9050  0.2832
  554MOL0     H76425   6.263   7.289   1.483  0.8615 -1.5348 -1.5060
  554MOL0     H76426   6.068   7.443   1.577 -1.6192 -2.3712  1.3972
  554MOL0     H76427   6.022   7.312   1.489  0.5715  0.2158  2.3971
  554MOL0     H76428   6.017   7.435   1.269  2.9977 -0.6527 -0.1994
  554MOL0     H76429   6.040   7.585   1.354 -2.3901  0.7060 -1.4797
  554MOL0     H76430   5.833   7.597   1.355  3.0177 -0.1415 -1.7485
  554MOL0     H76431   5.837   7.514   1.506 -1.0974  0.0255  0.2341
  554MOL0     H76432   6.803   7.709   1.882  3.3885  0.7905  0.6199
  554MOL0     H76433   7.021   7.767   1.774  0.1500  1.1963 -0.8603
  554MOL0     H76434   7.177   8.271   1.470  0.5831  0.6613  0.1431
  554MOL0     H76435   7.317   8.344   1.293  1.6641 -0.0940  0.7766
  554MOL0     H76436   6.191   8.484   0.777 -0.4132 -0.2707  1.1089
  554MOL0     H76437   6.104   8.483   0.975 -0.2578 -3.6334 -1.4972
  554MOL0     H76438   6.257   8.559   1.567 -0.2067 -0.0554 -1.0343
  554MOL0     H76439   6.134   8.500   1.760  0.6095 -2.4513  1.0196
  554MOL0     H76440   5.740   8.319   1.846  0.2971 -2.6545  2.7514
  554MOL0     H76441   5.761   8.266   1.682 -1.4253 -1.2126  0.2308
  554MOL0     H76442   5.914   8.085   1.737 -0.1659  2.2026 -1.0804
  554MOL0     H76443   5.745   8.061   1.778 -0.7936  1.5791  0.9820
  554MOL0     H76444   5.983   8.113   1.962  0.1145 -0.6816 -0.6799
  554MOL0     H76445   5.820   8.125   2.026 -0.6339  0.2636 -0.1947
  554MOL0     H76446   5.930   7.905   2.057  0.3944 -2.6631 -1.2315
  554MOL0     H76447   5.934   7.870   1.897  0.7327 -0.5134  1.8463
  554MOL0     H76448   5.546   7.798   2.058 -1.7269  2.5742 -1.7843
  554MOL0     H76449   5.907   8.208   1.548  0.8596 -0.6954 -1.4567
  554MOL0     H76450   6.125   8.210   1.256 -0.1629 -3.0240 -1.1559
  554MOL0     H76451   6.034   8.114   1.352  4.0529 -0.3193  1.4034
  554MOL0     H76452   5.943   8.237   1.253  1.4729 -0.4287 -2.2025
  555MOL0     O76453   3.065  11.419   8.770  0.5833  0.2758  0.1238
  555MOL0     C76454   3.166  11.369   8.826  0.2679 -1.5259 -0.4205
  555MOL0     O76455   3.167  11.266   8.915  0.6227 -0.3878 -0.2034
  555MOL0     C76456   3.047  11.226   8.966  0.2496 -0.8988 -0.3161
  555MOL0     C76457   2.970  11.310   9.055  0.3110  0.3744  0.1775
  555MOL0     C76458   2.850  11.259   9.100  0.1967  0.6835 -0.6076
  555MOL0     C76459   2.801  11.137   9.074  0.0508  0.3264  0.6029
  555MOL0     O76460   2.687  11.094   9.135 -0.1788  0.0640 -0.2929
  555MOL0     C76461   2.720  10.993   9.240 -0.5853 -1.2386 -1.2567
  555MOL0     C76462   2.607  10.987   9.344 -0.0041  0.5852  0.3322
  555MOL0     C76463   2.479  10.921   9.281 -0.3311 -0.4881  0.3606
  555MOL0     C76464   2.485  10.796   9.190 -0.0498 -0.0659 -0.0586
  555MOL0     C76465   2.345  10.775   9.132 -0.1821 -0.6404 -0.1827
  555MOL0     C76466   2.333  10.688   8.999 -0.9073 -1.3366 -0.5640
  555MOL0     C76467   2.387  10.769   8.879 -0.2214  0.0455 -0.3858
  555MOL0     C76468   2.345  10.711   8.747  1.0936 -0.6271 -0.4715
  555MOL0     N76469   2.456  10.628   8.684  0.0007 -0.3885  0.9287
  555MOL0     C76470   2.560  10.671   8.601  0.3509  0.3844  0.8357
  555MOL0     C76471   2.621  10.552   8.568 -0.4128  0.5134  0.5636
  555MOL0     C76472   2.742  10.538   8.481 -0.3185 -0.6928 -0.7755
  555MOL0     C76473   2.724  10.463   8.351  0.5076  0.1681 -0.1596
  555MOL0     C76474   2.826  10.505   8.239  0.3125  0.1684  0.2335
  555MOL0     C76475   2.759  10.507   8.101 -1.2659  0.4621 -0.2008
  555MOL0     O76476   2.639  10.591   8.087 -0.0775  0.5372 -0.7124
  555MOL0     C76477   2.559  10.576   7.980  0.2348  0.1805  0.4568
  555MOL0     C76478   2.605  10.535   7.857 -0.4755  0.8827  0.2170
  555MOL0     C76479   2.522  10.518   7.749 -0.1062  0.1990  0.3806
  555MOL0     C76480   2.577  10.460   7.620  0.0578 -0.1200  0.5802
  555MOL0     C76481   2.383  10.553   7.766 -0.2059 -0.2975 -0.5411
  555MOL0     C76482   2.292  10.523   7.661 -0.2614  0.4034 -0.2633
  555MOL0     O76483   2.215  10.630   7.621 -0.5159  0.2036 -0.0986
  555MOL0     C76484   2.112  10.610   7.532  0.1862  0.9332 -0.0209
  555MOL0     C76485   2.008  10.689   7.562 -0.0123 -1.3455  0.3049
  555MOL0     C76486   1.891  10.689   7.487 -0.6741 -0.3915  0.4406
  555MOL0     C76487   1.883  10.604   7.376 -0.1071  0.2532 -0.0271
  555MOL0     O76488   1.764  10.597   7.314  0.7306  0.4045  0.1646
  555MOL0     C76489   1.769  10.575   7.169 -0.5726 -0.0369 -0.6192
  555MOL0     C76490   1.631  10.614   7.112  0.7376 -0.3132  0.7602
  555MOL0     C76491   1.628  10.766   7.085 -0.3519  0.2294  0.0601
  555MOL0     C76492   1.490  10.800   7.030  0.1239  0.1563  0.1694
  555MOL0     C76493   1.472  10.953   6.984 -0.0759 -0.5167  0.1306
  555MOL0     C76494   1.572  11.016   6.888  0.2606 -0.0544  0.7323
  555MOL0     C76495   1.588  10.937   6.752 -0.3192 -0.2108  0.8033
  555MOL0     C76496   1.454  10.941   6.677 -0.2108 -0.0467 -0.8007
  555MOL0    Cl76497   1.402  11.110   6.613 -0.0117  0.0343  0.2422
  555MOL0     C76498   1.997  10.529   7.332 -0.0623 -1.2103 -0.2216
  555MOL0     C76499   2.109  10.538   7.416 -0.1006 -0.8497  0.0391
  555MOL0     O76500   2.281  10.407   7.628  0.0905 -0.3819  0.1853
  555MOL0     C76501   2.341  10.610   7.881 -0.8333  0.2996 -0.5791
  555MOL0     C76502   2.435  10.629   7.985 -0.4028 -0.1043  0.0206
  555MOL0     N76503   2.559  10.444   8.630 -0.5825 -0.1095  0.1844
  555MOL0     N76504   2.465  10.494   8.698  1.1189  0.0028 -0.1568
  555MOL0     C76505   2.873  11.059   8.987  0.3855  0.3238  0.1817
  555MOL0     C76506   2.983  11.104   8.921 -0.2673  0.7779 -0.6585
  555MOL0     C76507   3.299  11.422   8.773  0.4606  0.8178  0.4346
  555MOL0     C76508   3.359  11.533   8.815  0.7982 -1.1040  0.7863
  555MOL0     C76509   3.461  11.601   8.761 -0.1847  0.0916  0.0341
  555MOL0     C76510   3.511  11.555   8.635  0.9647 -0.2963  0.4269
  555MOL0     O76511   3.618  11.616   8.582 -0.4597  0.8804  0.7422
  555MOL0     C76512   3.739  11.528   8.573  0.3752 -0.3299  0.2059
  555MOL0     C76513   3.847  11.623   8.540  0.0228 -0.1941  1.2078
  555MOL0     C76514   3.981  11.563   8.569 -0.4004 -0.2139 -0.8315
  555MOL0     C76515   4.011  11.563   8.714 -0.0585 -0.1688 -0.2837
  555MOL0     C76516   4.158  11.564   8.734 -0.3881  0.2308 -0.3270
  555MOL0     C76517   4.279  11.559   8.739 -0.7834 -0.4273  1.2871
  555MOL0     C76518   3.459  11.430   8.598 -0.2606 -0.0996 -0.8959
  555MOL0     C76519   3.346  11.364   8.652  0.1732 -0.3920  0.3195
  555MOL0     C76520   3.301  11.238   8.590 -0.1188 -0.1061  0.4005
  555MOL0     H76521   2.991  11.414   9.078  1.9181  0.1550 -0.1761
  555MOL0     H76522   2.785  11.314   9.168  0.2483 -0.7331  0.6494
  555MOL0     H76523   2.815  11.030   9.278 -1.4490  1.4862 -1.5334
  555MOL0     H76524   2.736  10.891   9.204  1.3444 -2.5637  2.7843
  555MOL0     H76525   2.641  10.923   9.426  1.6134 -3.0592 -2.8722
  555MOL0     H76526   2.592  11.087   9.387  0.1994  2.9986 -4.5492
  555MOL0     H76527   2.421  10.915   9.374  0.0622 -0.8133  0.5913
  555MOL0     H76528   2.419  10.992   9.224 -1.4082 -0.1686  1.8267
  555MOL0     H76529   2.539  10.812   9.096 -3.0444 -2.8542 -2.5013
  555MOL0     H76530   2.526  10.709   9.242  0.2330 -0.6105 -1.1641
  555MOL0     H76531   2.289  10.863   9.098 -0.5942 -1.4714 -1.8001
  555MOL0     H76532   2.291  10.722   9.211 -0.7222 -2.0426 -1.4379
  555MOL0     H76533   2.403  10.605   9.011  2.2526  1.4197  1.8914
  555MOL0     H76534   2.229  10.657   8.984 -1.7118  1.1415 -0.6405
  555MOL0     H76535   2.495  10.776   8.893 -0.3446  0.2076  0.5915
  555MOL0     H76536   2.349  10.872   8.882  1.0863  0.6062 -1.9912
  555MOL0     H76537   2.256  10.649   8.755  1.2231 -0.7420  0.1057
  555MOL0     H76538   2.314  10.795   8.685 -3.0176 -2.1281 -0.7474
  555MOL0     H76539   2.567  10.771   8.559 -1.1978 -0.2855 -1.1678
  555MOL0     H76540   2.826  10.495   8.536  1.4568 -0.2413 -2.9761
  555MOL0     H76541   2.774  10.638   8.451  0.2880 -0.7809 -0.4403
  555MOL0     H76542   2.726  10.354   8.364  0.5395  0.1020 -0.6894
  555MOL0     H76543   2.620  10.473   8.319  1.1499  2.8711 -1.6995
  555MOL0     H76544   2.871  10.604   8.254  1.7041 -0.3513 -0.3800
  555MOL0     H76545   2.896  10.421   8.239 -0.7017 -0.7763 -2.3280
  555MOL0     H76546   2.832  10.521   8.021 -2.0929  0.3691 -0.9918
  555MOL0     H76547   2.727  10.407   8.070  1.1287  0.2623 -2.3853
  555MOL0     H76548   2.709  10.506   7.852 -0.4013  0.6103  2.2350
  555MOL0     H76549   2.539  10.358   7.609  1.5249 -0.7214  0.8887
  555MOL0     H76550   2.686  10.469   7.613  0.0693  0.3665  1.3611
  555MOL0     H76551   2.528  10.499   7.530  1.5501 -0.8160 -0.5742
  555MOL0     H76552   2.012  10.741   7.657  1.4015 -1.1506  0.1519
  555MOL0     H76553   1.805  10.744   7.523  0.6610  3.5666 -1.7197
  555MOL0     H76554   1.853  10.624   7.120 -0.5588 -0.4013 -0.9653
  555MOL0     H76555   1.782  10.468   7.148 -1.3021 -0.4443  0.8737
  555MOL0     H76556   1.595  10.556   7.026 -0.4727  0.0050  1.0386
  555MOL0     H76557   1.547  10.587   7.175  1.3309  0.1781  1.7834
  555MOL0     H76558   1.712  10.797   7.022 -0.1880 -0.7385 -0.2229
  555MOL0     H76559   1.640  10.818   7.180  1.0597  0.4010 -0.1876
  555MOL0     H76560   1.405  10.770   7.092 -0.4222 -3.1601 -1.9014
  555MOL0     H76561   1.480  10.740   6.939 -1.4700  1.4750 -0.5789
  555MOL0     H76562   1.371  10.972   6.947  0.1845  0.2094 -0.2336
  555MOL0     H76563   1.466  11.007   7.079  1.8292  2.1575 -1.1430
  555MOL0     H76564   1.671  11.014   6.935  0.2339 -2.8366  0.8354
  555MOL0     H76565   1.541  11.117   6.860  1.2810  0.0188 -0.2332
  555MOL0     H76566   1.628  10.837   6.774  0.8312 -0.2239 -1.0720
  555MOL0     H76567   1.670  10.988   6.700 -3.1109  2.3997 -1.3971
  555MOL0     H76568   1.370  10.899   6.733 -2.1514  1.9988 -1.9823
  555MOL0     H76569   1.453  10.885   6.583 -1.2141 -1.4845  0.0298
  555MOL0     H76570   1.995  10.471   7.240 -1.1858 -0.0786 -0.9495
  555MOL0     H76571   2.202  10.488   7.389  0.8741 -0.4548  2.3933
  555MOL0     H76572   2.236  10.635   7.889 -1.0906  0.0152 -2.4990
  555MOL0     H76573   2.399  10.677   8.075 -1.9437 -1.4633  0.1637
  555MOL0     H76574   2.830  10.960   8.977 -0.0089  0.2255  2.4382
  555MOL0     H76575   3.049  11.050   8.855 -0.9641  0.6825 -1.2867
  555MOL0     H76576   3.349  11.572   8.915  2.0944 -1.5592  1.1130
  555MOL0     H76577   3.503  11.690   8.805  4.0150 -0.0647 -3.0986
  555MOL0     H76578   3.765  11.488   8.672  1.5017 -0.7469 -0.2443
  555MOL0     H76579   3.723  11.448   8.501  0.9037  0.1968 -0.5114
  555MOL0     H76580   3.829  11.721   8.585  0.8536  0.3257  0.4513
  555MOL0     H76581   3.844  11.638   8.432 -0.9980  2.6818  1.5483
  555MOL0     H76582   3.981  11.457   8.545 -0.0772  0.0747 -2.1834
  555MOL0     H76583   4.058  11.596   8.499 -0.5021  2.1983  0.0866
  555MOL0     H76584   3.960  11.480   8.762 -1.2485  0.0720 -1.0869
  555MOL0     H76585   3.971  11.651   8.766  1.8246 -1.4360  3.7957
  555MOL0     H76586   4.386  11.567   8.737 -0.8365  0.6856 -1.5300
  555MOL0     H76587   3.509  11.396   8.508 -0.1526  1.3754 -1.4131
  555MOL0     H76588   3.355  11.157   8.640 -0.6623  0.7329  2.4667
  555MOL0     H76589   3.193  11.220   8.602 -0.2594  1.8296  2.8432
  555MOL0     H76590   3.314  11.247   8.482 -0.3789 -0.0709  0.3717
  556MOL0     O76591   3.591   1.690   9.512 -0.0883 -0.5951  0.3367
  556MOL0     C76592   3.545   1.592   9.574 -0.8206  0.5549 -0.9229
  556MOL0     O76593   3.565   1.460   9.541 -0.3102 -0.1570 -0.1476
  556MOL0     C76594   3.604   1.413   9.414 -0.2423  1.0822 -0.5067
  556MOL0     C76595   3.580   1.275   9.400 -0.1575  0.1429 -0.3565
  556MOL0     C76596   3.608   1.213   9.276 -0.4610 -0.1885  0.9285
  556MOL0     C76597   3.651   1.288   9.170 -0.4124 -0.8426 -0.1014
  556MOL0     O76598   3.669   1.214   9.058  0.1900  0.0986 -0.1588
  556MOL0     C76599   3.778   1.249   8.982 -0.3709  0.0182  0.5820
  556MOL0     C76600   3.884   1.141   8.999 -0.7338  0.6212 -0.2173
  556MOL0     C76601   3.832   1.020   8.916  0.0341  0.2053  1.4641
  556MOL0     C76602   3.941   0.909   8.910  0.4187 -0.4567 -0.7516
  556MOL0     C76603   3.908   0.790   8.819 -0.2539 -0.3414  0.7332
  556MOL0     C76604   3.805   0.688   8.858 -0.2972 -0.1951 -0.2555
  556MOL0     C76605   3.763   0.676   9.007 -0.8017 -0.6946 -0.0185
  556MOL0     C76606   3.872   0.631   9.105  0.1544 -0.4468 -0.1147
  556MOL0     N76607   3.931   0.496   9.077 -0.5324 -0.0465 -0.2116
  556MOL0     C76608   3.880   0.377   9.127  0.1075 -0.4120  0.3233
  556MOL0     C76609   3.954   0.274   9.092 -0.0610 -0.3073 -0.2031
  556MOL0     C76610   3.919   0.127   9.107 -0.8474 -1.1635  0.5258
  556MOL0     C76611   3.778   0.107   9.051  0.4674  0.4788 -0.7499
  556MOL0     C76612   3.727  -0.042   9.074  0.4130  0.8067  0.2003
  556MOL0     C76613   3.719  -0.080   9.225  0.1530 -0.1388 -0.3888
  556MOL0     O76614   3.649   0.023   9.291 -0.8933  0.6927  0.3855
  556MOL0     C76615   3.514   0.026   9.295  0.1486 -0.5499 -0.1739
  556MOL0     C76616   3.433  -0.077   9.322 -0.4204  0.0421 -0.4027
  556MOL0     C76617   3.298  -0.076   9.327  0.0758  0.6222  0.5536
  556MOL0     C76618   3.232  -0.199   9.357 -0.2063  0.2898  0.0934
  556MOL0     C76619   3.230   0.049   9.289 -0.6799 -0.7087  1.0512
  556MOL0     C76620   3.082   0.064   9.279  0.4543  0.2003  0.4443
  556MOL0     O76621   3.045   0.182   9.235 -0.7730 -0.3211  0.3629
  556MOL0     C76622   2.917   0.216   9.217 -0.5163 -0.5945  0.6097
  556MOL0     C76623   2.854   0.163   9.095 -0.2402 -0.6375 -0.2074
  556MOL0     C76624   2.726   0.211   9.076 -0.0713 -0.5775  0.5339
  556MOL0     C76625   2.657   0.307   9.150 -0.1848 -0.7125 -0.5752
  556MOL0     O76626   2.529   0.356   9.128  0.3725 -0.2269  0.3453
  556MOL0     C76627   2.461   0.337   9.002 -0.1181 -0.6581  0.3724
  556MOL0     C76628   2.375   0.465   8.990  0.4006 -0.4509 -0.0872
  556MOL0     C76629   2.254   0.451   8.894 -0.1469  0.1748 -0.7535
  556MOL0     C76630   2.166   0.578   8.908 -0.0964  0.0529  0.5879
  556MOL0     C76631   2.077   0.589   8.777 -0.1619 -0.2846  0.5328
  556MOL0     C76632   1.972   0.467   8.759 -0.1147 -0.0708 -0.3867
  556MOL0     C76633   1.877   0.487   8.637 -0.4880  0.7394 -0.7982
  556MOL0     C76634   1.797   0.360   8.617  0.1205 -0.0659  0.0928
  556MOL0    Cl76635   1.732   0.310   8.776  0.2799 -0.1022 -0.1775
  556MOL0     C76636   2.720   0.359   9.264  0.0304  0.3705  0.9998
  556MOL0     C76637   2.857   0.321   9.295  0.4577  0.0975 -0.2751
  556MOL0     O76638   3.006  -0.030   9.309  0.3188 -0.3839 -1.0808
  556MOL0     C76639   3.314   0.159   9.258  0.6852  0.8393 -0.0723
  556MOL0     C76640   3.453   0.147   9.256  1.1918  0.2193 -0.2627
  556MOL0     N76641   4.054   0.323   8.999 -0.3845 -0.3339 -0.3496
  556MOL0     N76642   4.038   0.455   8.999  0.1805 -0.3479 -0.8969
  556MOL0     C76643   3.671   1.427   9.186  0.2679 -0.6418  0.3106
  556MOL0     C76644   3.652   1.486   9.307  0.0910 -0.3723 -0.1612
  556MOL0     C76645   3.474   1.607   9.705 -0.0354 -0.8045  0.3300
  556MOL0     C76646   3.405   1.732   9.717 -0.7987  0.1831 -0.0518
  556MOL0     C76647   3.345   1.763   9.835 -0.1018 -0.8349 -0.2748
  556MOL0     C76648   3.330   1.670   9.939  0.3212 -0.0725  0.8218
  556MOL0     O76649   3.269   1.714  10.050 -0.4581 -0.0574 -0.8999
  556MOL0     C76650   3.356   1.746  10.166  0.0372 -0.7142 -0.5755
  556MOL0     C76651   3.411   1.629  10.236 -1.1770  0.1064 -0.1655
  556MOL0     C76652   3.440   1.658  10.386  0.0205 -0.2939 -0.6543
  556MOL0     C76653   3.315   1.681  10.456 -0.2181  0.2454 -1.0037
  556MOL0     C76654   3.346   1.655  10.595 -0.8136  0.0376  0.0602
  556MOL0     C76655   3.368   1.618  10.713 -0.1548  0.0594  0.3184
  556MOL0     C76656   3.408   1.551   9.933  0.0165  0.0712 -0.8709
  556MOL0     C76657   3.479   1.516   9.812 -0.0760  0.0930 -0.0437
  556MOL0     C76658   3.537   1.381   9.797  0.3298  0.2559  0.9302
  556MOL0     H76659   3.539   1.216   9.481  2.0177 -0.7729  0.1443
  556MOL0     H76660   3.576   1.109   9.271 -0.2077 -0.2143 -0.4226
  556MOL0     H76661   3.832   1.343   8.989 -0.1818 -0.1118  0.8525
  556MOL0     H76662   3.734   1.246   8.881 -0.1058  1.3142  0.4092
  556MOL0     H76663   3.984   1.174   8.969  0.8153  0.4170  4.0080
  556MOL0     H76664   3.893   1.113   9.104 -0.8046  0.7480 -0.1766
  556MOL0     H76665   3.733   0.986   8.945 -2.2153  3.2113 -1.7730
  556MOL0     H76666   3.820   1.052   8.812  0.4573  0.2154  1.4167
  556MOL0     H76667   4.033   0.950   8.866 -0.1417  2.1936  0.3438
  556MOL0     H76668   3.946   0.882   9.016 -0.4720  0.3454 -0.4945
  556MOL0     H76669   4.002   0.733   8.813  0.3920  0.7950 -3.9612
  556MOL0     H76670   3.883   0.829   8.720  0.6576  1.5942  1.2116
  556MOL0     H76671   3.713   0.726   8.812 -0.6493 -0.6403  0.0748
  556MOL0     H76672   3.818   0.584   8.826 -2.8405  0.0606 -2.4912
  556MOL0     H76673   3.678   0.606   9.004 -1.4853  0.1404 -2.3248
  556MOL0     H76674   3.724   0.773   9.040  0.9829 -0.3331  1.1222
  556MOL0     H76675   3.955   0.702   9.108 -2.3934  3.0324  5.2729
  556MOL0     H76676   3.827   0.621   9.204  0.7701 -0.8576  0.1251
  556MOL0     H76677   3.788   0.356   9.181 -2.0678  1.5200 -2.3191
  556MOL0     H76678   3.930   0.103   9.214  2.3541 -1.7440  0.1677
  556MOL0     H76679   3.988   0.057   9.058 -0.8984 -0.1518 -1.0458
  556MOL0     H76680   3.700   0.167   9.099  0.6182 -0.6689  1.0184
  556MOL0     H76681   3.775   0.129   8.944 -3.2523  1.2130 -0.6360
  556MOL0     H76682   3.630  -0.054   9.025  0.0355  0.9752  0.9037
  556MOL0     H76683   3.787  -0.123   9.030  1.7366 -0.1343  3.4160
  556MOL0     H76684   3.670  -0.178   9.235 -0.6371  0.3923  1.5798
  556MOL0     H76685   3.819  -0.087   9.268 -0.1772  1.5973  0.7616
  556MOL0     H76686   3.482  -0.170   9.348 -2.2150 -1.2617 -1.4175
  556MOL0     H76687   3.180  -0.235   9.267 -0.3193 -2.6071  1.2052
  556MOL0     H76688   3.161  -0.181   9.438 -0.1617  0.7880  0.0230
  556MOL0     H76689   3.302  -0.275   9.393  1.1232  0.9292 -1.0515
  556MOL0     H76690   2.901   0.106   9.016 -0.8039 -2.8650  0.9815
  556MOL0     H76691   2.678   0.184   8.982  0.0728 -0.1726  0.3417
  556MOL0     H76692   2.535   0.341   8.921  1.2340  3.1452  1.5732
  556MOL0     H76693   2.408   0.241   8.997 -3.4256  1.1085 -2.2728
  556MOL0     H76694   2.333   0.494   9.087  1.4718  0.3126  0.1601
  556MOL0     H76695   2.436   0.555   8.976  0.2964 -0.6888 -2.4395
  556MOL0     H76696   2.202   0.358   8.918  0.6505 -0.2084 -0.4796
  556MOL0     H76697   2.294   0.445   8.792  1.1606  3.5431 -0.5676
  556MOL0     H76698   2.222   0.671   8.916 -2.1239  1.6813 -2.1418
  556MOL0     H76699   2.099   0.566   8.994  1.7147  0.8657  2.1821
  556MOL0     H76700   2.020   0.683   8.778 -0.2554 -0.0614 -4.1547
  556MOL0     H76701   2.137   0.595   8.686 -1.9103  1.7562 -0.5940
  556MOL0     H76702   1.915   0.465   8.852 -1.8892 -0.9384 -1.4477
  556MOL0     H76703   2.030   0.378   8.731  1.3659  0.9292 -0.6508
  556MOL0     H76704   1.936   0.503   8.546 -2.7270 -2.4646 -3.0492
  556MOL0     H76705   1.817   0.576   8.656 -1.8339 -0.2691 -0.1949
  556MOL0     H76706   1.849   0.280   8.564 -1.1002 -0.5638 -0.3658
  556MOL0     H76707   1.707   0.383   8.561  1.3144  0.6067 -1.6316
  556MOL0     H76708   2.663   0.408   9.342 -1.1250 -2.1738  1.8866
  556MOL0     H76709   2.899   0.381   9.375 -0.8429  1.2995 -0.4590
  556MOL0     H76710   3.272   0.255   9.231  0.9914  1.4225  1.4442
  556MOL0     H76711   3.520   0.229   9.234  2.5472 -0.8214 -0.1709
  556MOL0     H76712   3.704   1.500   9.112  0.7938  0.8702  1.9687
  556MOL0     H76713   3.669   1.592   9.317  0.0329 -0.5203  1.8755
  556MOL0     H76714   3.412   1.814   9.646 -1.1658  0.3603  0.1121
  556MOL0     H76715   3.306   1.863   9.849  1.1292 -0.2777 -0.6635
  556MOL0     H76716   3.433   1.815  10.128  0.2422  0.9658  2.5796
  556MOL0     H76717   3.294   1.817  10.223  2.9091  3.3341 -1.9897
  556MOL0     H76718   3.501   1.588  10.189 -3.2537 -3.0877 -1.7579
  556MOL0     H76719   3.339   1.546  10.239  1.1941 -2.0859  0.0276
  556MOL0     H76720   3.509   1.590  10.436  0.3032  1.3752  1.3660
  556MOL0     H76721   3.496   1.752  10.397 -0.6017 -0.0144  0.1779
  556MOL0     H76722   3.229   1.625  10.417  0.2035 -1.2838  0.1513
  556MOL0     H76723   3.295   1.788  10.463 -0.6734  0.1695 -1.1130
  556MOL0     H76724   3.376   1.577  10.811  1.1429 -0.4847  0.0103
  556MOL0     H76725   3.386   1.474  10.006  1.3230 -0.0338 -0.5557
  556MOL0     H76726   3.638   1.385   9.754 -0.2012 -0.0372 -0.4192
  556MOL0     H76727   3.549   1.330   9.893 -0.8228  3.1762  2.7509
  556MOL0     H76728   3.482   1.315   9.729  4.7669 -0.7275 -2.1025
  557MOL0     O76729   1.389   4.754   1.636 -0.0461 -0.1018 -0.3947
  557MOL0     C76730   1.359   4.841   1.718 -0.6301  0.2993 -0.2961
  557MOL0     O76731   1.246   4.912   1.717 -0.0419 -0.7842 -0.0504
  557MOL0     C76732   1.164   4.897   1.610  0.8717  0.3147 -0.7824
  557MOL0     C76733   1.028   4.883   1.642  0.4999 -1.0858 -0.6735
  557MOL0     C76734   0.933   4.866   1.550  0.3449 -0.2555  0.8621
  557MOL0     C76735   0.963   4.855   1.419 -0.7338 -0.4989 -1.0151
  557MOL0     O76736   0.885   4.835   1.307  0.5315 -1.4675 -0.1867
  557MOL0     C76737   0.742   4.848   1.314 -0.1420  0.1543  0.5343
  557MOL0     C76738   0.699   4.987   1.281 -0.4190  0.4592  0.0329
  557MOL0     C76739   0.546   5.021   1.314 -0.2594 -0.6627 -0.3602
  557MOL0     C76740   0.529   5.178   1.298  0.4702  0.5039  0.6344
  557MOL0     C76741   0.541   5.248   1.433 -0.3915  0.8035  0.7341
  557MOL0     C76742   0.541   5.400   1.422 -0.4788  0.5389 -0.9374
  557MOL0     C76743   0.420   5.454   1.338 -0.0595  0.3631 -0.0532
  557MOL0     C76744   0.287   5.401   1.387 -0.7104 -0.7007  0.7661
  557MOL0     N76745   0.251   5.415   1.530 -0.3066 -0.2870  0.4886
  557MOL0     C76746   0.226   5.532   1.589 -0.2784 -0.6215  0.4334
  557MOL0     C76747   0.188   5.504   1.716 -0.0941 -1.0313  0.2921
  557MOL0     C76748   0.162   5.596   1.836  0.2596 -0.4487 -0.7732
  557MOL0     C76749   0.059   5.551   1.937  0.7051 -0.5787  0.3998
  557MOL0     C76750  -0.078   5.543   1.870 -0.2082  0.1522 -0.0935
  557MOL0     C76751  -0.187   5.502   1.975 -0.6060  0.0832  0.0596
  557MOL0     O76752  -0.138   5.437   2.092 -1.1253  0.2066  0.1191
  557MOL0     C76753  -0.239   5.364   2.160 -0.2818  0.1498  0.5411
  557MOL0     C76754  -0.250   5.220   2.146 -0.1337 -0.3333  0.3180
  557MOL0     C76755  -0.339   5.136   2.215 -0.2933 -0.3519  0.8078
  557MOL0     C76756  -0.344   4.987   2.175 -0.4691 -0.0650  0.0347
  557MOL0     C76757  -0.413   5.193   2.313  0.3901 -0.7232 -0.5016
  557MOL0     C76758  -0.521   5.122   2.392  0.1270  0.2600 -0.0574
  557MOL0     O76759  -0.567   5.196   2.497  0.3263 -0.1793 -0.7092
  557MOL0     C76760  -0.660   5.136   2.581  0.3865 -0.8636  0.2627
  557MOL0     C76761  -0.615   5.066   2.690  0.2852 -0.4516  0.4175
  557MOL0     C76762  -0.704   4.999   2.774 -0.2038  0.6557  0.3181
  557MOL0     C76763  -0.840   5.010   2.758 -0.0954  0.4945 -0.0372
  557MOL0     O76764  -0.935   4.957   2.847 -1.0863  0.5771 -0.0200
  557MOL0     C76765  -0.928   4.998   2.985 -0.3548  0.6572  0.8917
  557MOL0     C76766  -1.073   4.961   3.032  0.4434 -0.3049 -0.5776
  557MOL0     C76767  -1.100   5.011   3.184 -0.0278 -0.4032  0.8443
  557MOL0     C76768  -1.021   4.935   3.292  0.5868 -0.9969 -0.0079
  557MOL0     C76769  -1.082   4.923   3.432 -0.0351 -0.2297 -0.1346
  557MOL0     C76770  -1.223   4.873   3.438 -0.0995  0.7083 -0.0093
  557MOL0     C76771  -1.225   4.777   3.559  0.1521 -0.0854  0.5668
  557MOL0     C76772  -1.200   4.859   3.692 -0.6525 -0.6846 -0.9098
  557MOL0    Cl76773  -1.268   4.751   3.824  0.3983 -0.6288  0.1369
  557MOL0     C76774  -0.888   5.093   2.661  0.1734 -0.3549 -0.1502
  557MOL0     C76775  -0.797   5.148   2.570  0.8846  0.7403  0.6878
  557MOL0     O76776  -0.555   5.002   2.361 -0.5170 -0.6117 -0.2192
  557MOL0     C76777  -0.397   5.331   2.333  0.0822 -0.1203  0.1803
  557MOL0     C76778  -0.321   5.419   2.252 -0.4766 -0.7688  0.3499
  557MOL0     N76779   0.180   5.363   1.718  0.0380 -1.4596  0.6491
  557MOL0     N76780   0.214   5.318   1.611 -0.8144  0.1525 -0.3519
  557MOL0     C76781   1.103   4.864   1.385  0.3812 -0.0930 -0.5596
  557MOL0     C76782   1.204   4.894   1.471 -0.6789  0.2407 -0.1383
  557MOL0     C76783   1.445   4.871   1.838 -0.3588  0.5297  0.5338
  557MOL0     C76784   1.432   4.997   1.904  0.8920 -0.1790  0.7405
  557MOL0     C76785   1.524   5.043   2.006  0.7105  0.5348 -0.2323
  557MOL0     C76786   1.630   4.959   2.042  0.8995  0.8221  0.3751
  557MOL0     O76787   1.715   4.975   2.151  0.4980 -0.1969 -0.1107
  557MOL0     C76788   1.758   5.109   2.175  0.6290  0.7100  0.3361
  557MOL0     C76789   1.890   5.091   2.246  0.2371 -0.5037 -0.2193
  557MOL0     C76790   1.955   5.214   2.309 -0.0439  0.5837  0.5421
  557MOL0     C76791   2.059   5.288   2.211 -0.3463  1.3492  0.5173
  557MOL0     C76792   2.182   5.224   2.190 -0.9323  0.3639  0.3566
  557MOL0     C76793   2.299   5.177   2.200  0.0420 -0.2637 -0.5482
  557MOL0     C76794   1.640   4.831   1.975 -0.3067 -0.4916 -1.2296
  557MOL0     C76795   1.552   4.786   1.878 -0.2069 -0.0751 -0.0098
  557MOL0     C76796   1.564   4.645   1.829 -0.3439  0.9162  0.2614
  557MOL0     H76797   0.987   4.890   1.742 -2.3743 -1.5991 -1.7072
  557MOL0     H76798   0.833   4.868   1.591  0.0330  1.5953  0.1070
  557MOL0     H76799   0.702   4.829   1.414 -3.1031 -0.4961 -0.6622
  557MOL0     H76800   0.700   4.782   1.237  0.5557 -0.6752  0.8466
  557MOL0     H76801   0.767   5.041   1.347  1.0446 -4.1744  2.7741
  557MOL0     H76802   0.721   5.027   1.181  2.7520 -2.1767 -0.5041
  557MOL0     H76803   0.469   4.962   1.263 -2.3360 -0.0730  1.9034
  557MOL0     H76804   0.538   4.991   1.419  0.1637 -1.6709 -0.6047
  557MOL0     H76805   0.588   5.212   1.213 -1.3260  0.1872 -0.7911
  557MOL0     H76806   0.424   5.182   1.267  0.4203 -0.1864  0.6932
  557MOL0     H76807   0.638   5.230   1.480 -1.7187 -3.3903  2.3118
  557MOL0     H76808   0.467   5.220   1.509 -0.4560 -1.6476 -0.1384
  557MOL0     H76809   0.520   5.442   1.521 -0.9943 -0.1311 -0.7610
  557MOL0     H76810   0.634   5.443   1.383 -0.4000  0.2322 -1.0891
  557MOL0     H76811   0.435   5.433   1.232  1.1195  0.1119  0.1480
  557MOL0     H76812   0.404   5.562   1.344 -0.7085  0.2821 -0.3553
  557MOL0     H76813   0.213   5.451   1.324  0.8589  0.1476 -0.4885
  557MOL0     H76814   0.280   5.296   1.359  1.4993 -1.1327  1.6301
  557MOL0     H76815   0.258   5.626   1.544 -0.9564 -1.1341 -1.1948
  557MOL0     H76816   0.130   5.693   1.795  1.3050 -0.4996 -1.7448
  557MOL0     H76817   0.261   5.612   1.878 -0.0493  0.1924 -0.2586
  557MOL0     H76818   0.079   5.455   1.986 -1.3637 -1.3959 -0.2212
  557MOL0     H76819   0.050   5.623   2.019 -1.8886 -0.4050  0.0493
  557MOL0     H76820  -0.087   5.643   1.826  1.4627  0.2833 -0.1845
  557MOL0     H76821  -0.067   5.469   1.790 -2.6687 -0.0940 -0.3003
  557MOL0     H76822  -0.239   5.589   2.015 -1.8380  0.2528 -1.8120
  557MOL0     H76823  -0.271   5.451   1.927 -4.0495  2.1014  3.3494
  557MOL0     H76824  -0.192   5.173   2.068  0.2029 -1.6181  1.3147
  557MOL0     H76825  -0.263   4.961   2.106  1.5329  0.2638  2.1578
  557MOL0     H76826  -0.441   4.964   2.129 -0.2260  2.7917 -2.2010
  557MOL0     H76827  -0.328   4.943   2.274 -3.2332  2.7431  1.9082
  557MOL0     H76828  -0.508   5.058   2.701  0.1659  0.4788  3.1107
  557MOL0     H76829  -0.667   4.949   2.864  0.6990 -0.0247 -0.4118
  557MOL0     H76830  -0.847   4.952   3.042 -1.0198  0.1266  1.4287
  557MOL0     H76831  -0.916   5.106   2.998 -1.5978  1.1162 -1.2960
  557MOL0     H76832  -1.149   4.996   2.961  0.1854  0.0937 -0.1133
  557MOL0     H76833  -1.089   4.853   3.036  1.0081 -0.4048 -0.8545
  557MOL0     H76834  -1.208   5.013   3.198 -1.0017  0.0809 -4.5742
  557MOL0     H76835  -1.075   5.117   3.175 -0.4628 -0.3412  0.3034
  557MOL0     H76836  -0.918   4.971   3.303  0.9234 -2.3027  1.4373
  557MOL0     H76837  -1.015   4.833   3.252  0.3932 -1.8751  2.1013
  557MOL0     H76838  -1.006   4.871   3.490 -0.2980 -0.5894 -0.1068
  557MOL0     H76839  -1.088   5.024   3.474  1.7356  0.1371 -0.6736
  557MOL0     H76840  -1.250   4.825   3.344 -1.0981  1.2253  0.0008
  557MOL0     H76841  -1.290   4.958   3.457  2.8679  2.8252  1.7073
  557MOL0     H76842  -1.144   4.704   3.558  1.5368  1.3417  1.8772
  557MOL0     H76843  -1.326   4.736   3.569 -1.1409  2.5542 -0.5536
  557MOL0     H76844  -1.256   4.950   3.671  0.4385  0.2885  0.2657
  557MOL0     H76845  -1.096   4.888   3.704 -0.5940 -1.0680 -0.4550
  557MOL0     H76846  -0.990   5.127   2.648  1.1743  3.2976  0.3809
  557MOL0     H76847  -0.830   5.214   2.490  3.0844 -1.5792 -2.4078
  557MOL0     H76848  -0.447   5.399   2.401 -0.1327  2.3888 -2.3222
  557MOL0     H76849  -0.309   5.525   2.272  2.5353 -1.0256  0.3526
  557MOL0     H76850   1.114   4.856   1.277 -1.7853  1.4243 -0.9714
  557MOL0     H76851   1.304   4.897   1.430 -1.0579  2.7618 -1.0643
  557MOL0     H76852   1.351   5.065   1.881  2.9480  2.4537  0.7505
  557MOL0     H76853   1.516   5.132   2.066 -0.3808 -0.4474  1.1278
  557MOL0     H76854   1.766   5.160   2.079 -2.4781 -1.5839 -1.3498
  557MOL0     H76855   1.681   5.160   2.234 -0.9408 -0.7101 -0.3970
  557MOL0     H76856   1.961   5.049   2.175  0.9137 -2.2886  1.4321
  557MOL0     H76857   1.886   5.010   2.320  0.3328 -0.6170 -0.3396
  557MOL0     H76858   1.868   5.278   2.329 -0.8172  0.4407 -2.0494
  557MOL0     H76859   1.992   5.189   2.409 -1.0787  1.1486  1.0960
  557MOL0     H76860   2.074   5.391   2.246  0.5865  1.3712  0.0924
  557MOL0     H76861   2.024   5.297   2.108 -4.3734 -1.4335  1.4117
  557MOL0     H76862   2.397   5.135   2.198 -1.0630 -3.2940 -4.3401
  557MOL0     H76863   1.732   4.776   1.996 -1.6354 -1.8778  1.5848
  557MOL0     H76864   1.573   4.626   1.722  1.0106 -0.7713  0.6325
  557MOL0     H76865   1.657   4.598   1.862 -0.5581  0.1322 -0.2270
  557MOL0     H76866   1.474   4.589   1.854 -0.8838  0.9152 -1.5570
  558MOL0     O76867   9.993   2.872   3.932 -0.5142 -0.0288 -0.6730
  558MOL0     C76868   9.918   2.941   3.999 -0.0662 -0.5495 -0.2777
  558MOL0     O76869   9.793   2.964   3.967  0.4581  0.0287  0.1482
  558MOL0     C76870   9.742   2.912   3.846  0.3909 -0.3830  0.0046
  558MOL0     C76871   9.739   2.775   3.808 -0.3966  0.1670  0.5776
  558MOL0     C76872   9.703   2.735   3.679 -0.1907 -0.3787  0.0404
  558MOL0     C76873   9.656   2.831   3.592 -0.0081  0.5501  0.0717
  558MOL0     O76874   9.624   2.775   3.473  0.3973  0.3615 -0.3934
  558MOL0     C76875   9.587   2.868   3.372  0.5176 -0.3794  0.0255
  558MOL0     C76876   9.580   2.794   3.240  0.4393  0.5772 -0.2086
  558MOL0     C76877   9.524   2.889   3.139 -1.1539  0.4837 -0.7261
  558MOL0     C76878   9.465   2.808   3.022  1.0631 -0.1449  0.1609
  558MOL0     C76879   9.373   2.903   2.947  0.2879  0.5709  0.3231
  558MOL0     C76880   9.307   2.824   2.830  0.4089 -0.4198  0.5022
  558MOL0     C76881   9.400   2.787   2.712 -0.1362 -1.4543  0.0499
  558MOL0     C76882   9.328   2.725   2.597 -0.7954 -0.1776  0.6166
  558MOL0     N76883   9.184   2.740   2.584 -0.4877  0.8578 -0.2231
  558MOL0     C76884   9.116   2.807   2.486 -0.0463  0.0877 -0.3666
  558MOL0     C76885   8.990   2.762   2.500 -0.1559 -0.1319 -0.5959
  558MOL0     C76886   8.873   2.797   2.418  0.6705  0.5157 -0.4264
  558MOL0     C76887   8.865   2.719   2.282 -0.7161 -0.2586 -0.2686
  558MOL0     C76888   8.843   2.573   2.299  0.1726 -0.6240 -0.4738
  558MOL0     C76889   8.819   2.502   2.169 -0.2850  0.9860  0.9742
  558MOL0     O76890   8.830   2.363   2.205 -0.2554  0.1567 -0.0279
  558MOL0     C76891   8.764   2.269   2.143  0.2341 -0.1638 -0.1046
  558MOL0     C76892   8.746   2.157   2.214 -0.6318  0.3377  0.5714
  558MOL0     C76893   8.689   2.043   2.152  0.1102 -0.4625  0.8989
  558MOL0     C76894   8.704   1.914   2.233  0.0747  0.4489  0.1923
  558MOL0     C76895   8.639   2.065   2.018 -0.0964 -0.3526  0.0302
  558MOL0     C76896   8.556   1.956   1.948 -0.9552  0.3362 -1.0777
  558MOL0     O76897   8.572   1.960   1.817  0.0599 -0.6401  0.4737
  558MOL0     C76898   8.531   1.848   1.743  0.0669 -0.3052  0.0392
  558MOL0     C76899   8.453   1.860   1.631  0.6080 -0.3421 -0.7462
  558MOL0     C76900   8.414   1.750   1.556  0.5692 -0.2501 -0.5680
  558MOL0     C76901   8.458   1.619   1.590 -0.0774  0.0429  0.2321
  558MOL0     O76902   8.425   1.515   1.503 -0.9548 -0.2916 -0.4260
  558MOL0     C76903   8.405   1.384   1.558 -0.2400 -0.1515  0.4776
  558MOL0     C76904   8.304   1.307   1.477 -0.6083 -0.4892 -0.2454
  558MOL0     C76905   8.304   1.158   1.530 -0.4002 -0.6722 -1.7287
  558MOL0     C76906   8.208   1.073   1.450  0.8151 -0.4966 -0.9436
  558MOL0     C76907   8.190   0.934   1.506  0.9176 -0.0804 -0.7014
  558MOL0     C76908   8.073   0.858   1.440 -0.8843  0.3562  0.5242
  558MOL0     C76909   8.119   0.825   1.300  0.2117 -0.4166  0.2404
  558MOL0     C76910   8.053   0.688   1.268  0.2623 -0.7418 -1.0328
  558MOL0    Cl76911   8.114   0.636   1.107  0.0117  0.1301 -0.4857
  558MOL0     C76912   8.540   1.613   1.705 -0.1442  0.5961  0.4269
  558MOL0     C76913   8.570   1.721   1.783  0.6286  0.9060  0.4719
  558MOL0     O76914   8.519   1.858   2.016  0.2320 -0.3905 -0.2431
  558MOL0     C76915   8.655   2.188   1.941  0.3564  0.4186 -0.6627
  558MOL0     C76916   8.723   2.284   2.015  0.5988 -0.3796  0.6031
  558MOL0     N76917   8.995   2.660   2.597  0.4050  1.7059 -0.6047
  558MOL0     N76918   9.101   2.654   2.658 -1.0446  0.4336  0.1969
  558MOL0     C76919   9.631   2.962   3.635  0.9625 -0.3298 -0.0711
  558MOL0     C76920   9.683   3.002   3.761 -0.1169 -0.0872  0.6223
  558MOL0     C76921   9.976   3.007   4.123  0.2207 -0.1942  0.4951
  558MOL0     C76922   9.884   3.041   4.223 -0.8974  0.8298  0.2741
  558MOL0     C76923   9.931   3.089   4.346  0.1185 -0.5510  0.1813
  558MOL0     C76924  10.062   3.110   4.375  1.1566 -1.3692 -1.0591
  558MOL0     O76925  10.084   3.180   4.488  0.3558 -0.0292  0.3803
  558MOL0     C76926  10.217   3.202   4.535  0.3175 -0.3373 -0.9543
  558MOL0     C76927  10.272   3.345   4.492  0.1322 -0.7341  0.3086
  558MOL0     C76928  10.332   3.350   4.336  1.1180 -0.5094 -0.3191
  558MOL0     C76929  10.389   3.484   4.322  0.9757  0.3182  0.5919
  558MOL0     C76930  10.410   3.525   4.190  0.4721  0.8414  0.9906
  558MOL0     C76931  10.402   3.540   4.065  0.3498  0.8185 -0.2293
  558MOL0     C76932  10.150   3.065   4.277  0.1649 -0.5949 -0.3695
  558MOL0     C76933  10.108   3.011   4.156 -0.2522 -0.0609  0.4619
  558MOL0     C76934  10.226   2.980   4.062 -0.0157 -0.4773 -0.2692
  558MOL0     H76935   9.794   2.699   3.861 -1.8896 -0.0294  1.9119
  558MOL0     H76936   9.716   2.632   3.646 -1.2322 -0.0785 -1.4257
  558MOL0     H76937   9.655   2.953   3.366  1.7385 -1.1253  2.2469
  558MOL0     H76938   9.487   2.903   3.399  0.9306  1.8629 -1.1282
  558MOL0     H76939   9.683   2.767   3.213 -0.5037 -0.9493 -2.6548
  558MOL0     H76940   9.529   2.699   3.252  0.3133  0.2730 -2.6637
  558MOL0     H76941   9.446   2.942   3.195 -1.9548 -1.1970 -0.1796
  558MOL0     H76942   9.603   2.954   3.101  2.3629 -2.2668  1.2897
  558MOL0     H76943   9.537   2.762   2.953 -1.2344 -0.1942 -2.3653
  558MOL0     H76944   9.395   2.738   3.069 -0.3394 -0.6111 -2.3953
  558MOL0     H76945   9.428   2.986   2.901  0.3470  0.4056  0.0927
  558MOL0     H76946   9.298   2.941   3.017 -2.4819 -4.3213  0.4035
  558MOL0     H76947   9.253   2.737   2.870 -0.2996  0.9600  2.7319
  558MOL0     H76948   9.228   2.888   2.790 -0.6344 -0.9805  1.6042
  558MOL0     H76949   9.483   2.720   2.740 -0.8788 -2.1489  0.6380
  558MOL0     H76950   9.439   2.878   2.665 -0.2024 -2.6349 -2.4402
  558MOL0     H76951   9.374   2.763   2.505  2.1456 -0.1879  1.9803
  558MOL0     H76952   9.347   2.618   2.609  2.1446  0.1674 -0.0683
  558MOL0     H76953   9.159   2.873   2.410  1.0297 -1.5280 -1.2202
  558MOL0     H76954   8.868   2.902   2.390 -0.1234  1.7285  3.6151
  558MOL0     H76955   8.785   2.768   2.477  1.8510 -1.2288  0.5996
  558MOL0     H76956   8.787   2.754   2.213 -1.1366  0.7817  0.7031
  558MOL0     H76957   8.964   2.723   2.235 -1.5084  2.3884 -1.9647
  558MOL0     H76958   8.932   2.535   2.350 -0.0539  1.9577  2.0784
  558MOL0     H76959   8.748   2.554   2.350  2.4779 -3.8488  3.1733
  558MOL0     H76960   8.724   2.519   2.117  1.0632  1.9024 -1.3095
  558MOL0     H76961   8.896   2.522   2.094 -1.1692 -1.2887 -0.6461
  558MOL0     H76962   8.790   2.147   2.313  1.6762  1.1014 -0.3246
  558MOL0     H76963   8.673   1.827   2.175 -0.2748  0.6520  0.0693
  558MOL0     H76964   8.633   1.929   2.315 -0.8895  0.2589 -0.5808
  558MOL0     H76965   8.805   1.899   2.272  0.8253 -1.1290 -2.1184
  558MOL0     H76966   8.428   1.960   1.598 -1.1460 -0.1636  0.9085
  558MOL0     H76967   8.360   1.774   1.464 -0.4447  1.0976  0.3249
  558MOL0     H76968   8.496   1.326   1.544 -0.4607  0.0810 -2.6069
  558MOL0     H76969   8.369   1.392   1.661 -1.3116 -0.4421  0.1355
  558MOL0     H76970   8.204   1.347   1.500 -1.9572 -3.2574 -0.8421
  558MOL0     H76971   8.316   1.307   1.368 -2.3933 -0.6804 -0.4807
  558MOL0     H76972   8.282   1.144   1.636  0.2410  0.3251 -1.4591
  558MOL0     H76973   8.402   1.116   1.506  0.0180 -1.0718  0.4589
  558MOL0     H76974   8.236   1.076   1.344 -0.0004  2.1334 -1.1398
  558MOL0     H76975   8.113   1.121   1.472  1.9654  0.0150  3.9481
  558MOL0     H76976   8.280   0.875   1.482  0.7655 -0.0657 -1.3157
  558MOL0     H76977   8.176   0.945   1.613  0.8813 -1.7456 -0.5113
  558MOL0     H76978   7.989   0.927   1.432  0.2314  1.8730  1.3973
  558MOL0     H76979   8.055   0.762   1.489  0.4562 -0.2914 -0.1946
  558MOL0     H76980   8.223   0.843   1.272 -0.0780 -0.9494 -1.2821
  558MOL0     H76981   8.068   0.899   1.237 -0.4489 -2.1455 -1.3750
  558MOL0     H76982   7.944   0.694   1.267  0.3176  1.0873  0.2284
  558MOL0     H76983   8.078   0.609   1.340  1.5348 -0.0923 -0.7245
  558MOL0     H76984   8.575   1.513   1.728 -1.3192 -0.0385 -0.4379
  558MOL0     H76985   8.644   1.720   1.863  1.7629 -2.2194 -0.4653
  558MOL0     H76986   8.627   2.204   1.837  1.5855 -0.4267 -1.1491
  558MOL0     H76987   8.754   2.366   1.951 -0.3020 -0.9997 -0.6679
  558MOL0     H76988   9.590   3.038   3.568 -0.0207 -0.4163  0.4269
  558MOL0     H76989   9.686   3.108   3.784 -0.3132  0.6296 -2.2617
  558MOL0     H76990   9.777   3.047   4.211 -0.7211  3.9672 -0.6173
  558MOL0     H76991   9.856   3.123   4.417  0.6584  1.4941 -0.1501
  558MOL0     H76992  10.215   3.202   4.645 -2.7538 -1.9801 -0.9073
  558MOL0     H76993  10.284   3.120   4.508  0.2077  0.0681 -2.5253
  558MOL0     H76994  10.360   3.360   4.554  0.4949 -0.4365 -0.2781
  558MOL0     H76995  10.206   3.427   4.523  0.6780 -1.0470  2.4820
  558MOL0     H76996  10.404   3.270   4.315  2.4811  1.3168 -3.2146
  558MOL0     H76997  10.252   3.328   4.264  2.1645  1.0873 -2.0424
  558MOL0     H76998  10.482   3.488   4.379  1.9434  1.2000 -0.9952
  558MOL0     H76999  10.314   3.553   4.363  1.4086  0.5255  1.0399
  558MOL0     H77000  10.403   3.557   3.959  1.7910  1.9641 -0.0670
  558MOL0     H77001  10.255   3.089   4.290 -0.3392  1.5748  0.1063
  558MOL0     H77002  10.203   3.009   3.959  3.6920  0.2156 -1.0450
  558MOL0     H77003  10.323   3.023   4.090 -0.0258 -0.5662 -0.0958
  558MOL0     H77004  10.245   2.872   4.062  1.9637 -0.1911  0.8682
  559MOL0     O77005   1.162   1.506   9.424  0.7784  0.0220 -0.1353
  559MOL0     C77006   1.081   1.569   9.492 -1.3538 -0.4658 -0.3259
  559MOL0     O77007   1.072   1.708   9.487  1.1491  0.1305 -1.2572
  559MOL0     C77008   1.179   1.767   9.420  0.5155 -0.2103 -0.6548
  559MOL0     C77009   1.317   1.737   9.438  0.3737 -0.0956  0.8890
  559MOL0     C77010   1.417   1.817   9.380 -0.0792  0.7539 -0.1835
  559MOL0     C77011   1.383   1.928   9.291  0.3616  0.4675  0.0904
  559MOL0     O77012   1.471   1.996   9.212  0.1103 -0.1105  0.0126
  559MOL0     C77013   1.582   2.048   9.283  0.1241  0.0042 -0.8116
  559MOL0     C77014   1.540   2.175   9.342 -0.2193 -1.4140  0.2957
  559MOL0     C77015   1.482   2.267   9.230  0.6798  0.2912 -0.8603
  559MOL0     C77016   1.397   2.379   9.296 -0.9811 -0.1734  0.2352
  559MOL0     C77017   1.449   2.526   9.256  0.4353 -0.2284  0.0789
  559MOL0     C77018   1.575   2.574   9.330  0.1305  0.4355  0.2216
  559MOL0     C77019   1.543   2.607   9.475 -0.2019  0.0611 -0.0097
  559MOL0     C77020   1.669   2.620   9.556  0.5048 -0.2689  0.4612
  559MOL0     N77021   1.660   2.714   9.677  0.2195  0.4476  0.3397
  559MOL0     C77022   1.741   2.695   9.787  0.4099  0.1558 -0.6191
  559MOL0     C77023   1.715   2.807   9.869  1.2118 -0.0709  0.9652
  559MOL0     C77024   1.778   2.831   9.998  0.6241 -0.7601 -0.7453
  559MOL0     C77025   1.869   2.960  10.000  1.6354 -0.8076  0.9590
  559MOL0     C77026   1.899   2.991  10.143 -0.0790  0.2802 -0.2835
  559MOL0     C77027   1.792   3.080  10.194 -0.0663  0.3020  0.2903
  559MOL0     O77028   1.803   3.094  10.334 -0.9020 -0.0367  1.0062
  559MOL0     C77029   1.707   3.164  10.402 -0.9199  0.1706  1.0353
  559MOL0     C77030   1.742   3.204  10.535 -0.3458  0.3577  1.3621
  559MOL0     C77031   1.665   3.293  10.610  0.2326 -0.7741  0.2024
  559MOL0     C77032   1.732   3.340  10.746  0.2223  0.4630 -0.2054
  559MOL0     C77033   1.536   3.330  10.566  0.1831 -0.9922 -0.2749
  559MOL0     C77034   1.430   3.399  10.642 -1.0860 -1.1658 -0.7807
  559MOL0     O77035   1.314   3.418  10.573 -0.0791  1.0944  0.3015
  559MOL0     C77036   1.206   3.463  10.640  0.2405  0.3953  0.3239
  559MOL0     C77037   1.142   3.575  10.613  0.0593 -0.6261  0.2793
  559MOL0     C77038   1.013   3.599  10.669 -0.1988 -0.4574 -0.7409
  559MOL0     C77039   0.957   3.506  10.765  0.0838 -0.7391 -0.1130
  559MOL0     O77040   0.828   3.516  10.827  0.5003 -0.2948 -0.9892
  559MOL0     C77041   0.772   3.649  10.818  0.6013  0.3654  0.5600
  559MOL0     C77042   0.702   3.679  10.695 -0.5933  0.6371  0.2443
  559MOL0     C77043   0.633   3.569  10.617  0.0411 -0.6912  0.4144
  559MOL0     C77044   0.538   3.471  10.700  0.1095 -0.1671  0.7640
  559MOL0     C77045   0.505   3.349  10.607  0.4388  0.0560 -1.0461
  559MOL0     C77046   0.371   3.283  10.661 -1.2065  0.7689  0.0874
  559MOL0     C77047   0.334   3.171  10.573  0.3892 -0.5286 -0.2051
  559MOL0     C77048   0.262   3.204  10.441 -0.5797 -0.4047  0.6541
  559MOL0    Cl77049   0.084   3.230  10.464  0.2587 -0.4089 -0.1002
  559MOL0     C77050   1.027   3.389  10.784  0.2049  0.2056  0.0686
  559MOL0     C77051   1.147   3.367  10.719  1.1128  0.8058  0.0498
  559MOL0     O77052   1.448   3.442  10.758 -0.5320 -0.1951  0.2578
  559MOL0     C77053   1.497   3.286  10.436 -0.4820 -0.9342 -0.0509
  559MOL0     C77054   1.588   3.211  10.351  0.0307  0.7116 -0.2039
  559MOL0     N77055   1.610   2.880   9.816 -0.6938  0.0491 -0.6687
  559MOL0     N77056   1.582   2.829   9.697  0.2863  0.7954 -0.3241
  559MOL0     C77057   1.246   1.954   9.279  0.4189 -0.9132 -0.7702
  559MOL0     C77058   1.147   1.872   9.333  0.3137 -0.0039  0.4602
  559MOL0     C77059   1.002   1.487   9.574  0.4640  0.1827 -0.1485
  559MOL0     C77060   0.936   1.550   9.679  0.4971  0.8938  0.0355
  559MOL0     C77061   0.860   1.477   9.779  0.0458  0.3819  0.6228
  559MOL0     C77062   0.842   1.340   9.767  0.0456  0.1721  0.5882
  559MOL0     O77063   0.756   1.263   9.848 -0.6821  0.3036  0.6094
  559MOL0     C77064   0.687   1.336   9.960 -0.0523 -0.4872 -0.8957
  559MOL0     C77065   0.603   1.246  10.053 -1.1586 -0.5835 -0.0103
  559MOL0     C77066   0.494   1.155   9.982  0.3091  0.5110  0.0228
  559MOL0     C77067   0.424   1.057  10.085 -0.3877  0.3551  0.0796
  559MOL0     C77068   0.516   0.959  10.138 -0.0259  0.0160 -0.1617
  559MOL0     C77069   0.609   0.897  10.193  1.0605  0.2274 -0.1628
  559MOL0     C77070   0.893   1.274   9.655 -0.4791  0.3640 -0.7359
  559MOL0     C77071   0.975   1.344   9.559 -1.0539  0.0541  0.8797
  559MOL0     C77072   1.028   1.251   9.451 -0.3997 -0.0310  0.7851
  559MOL0     H77073   1.339   1.647   9.494 -1.3542 -3.2131 -2.9023
  559MOL0     H77074   1.522   1.793   9.389 -0.2006  0.2477 -0.0210
  559MOL0     H77075   1.658   2.049   9.204  1.6765 -2.0350  0.5296
  559MOL0     H77076   1.632   1.988   9.360  3.0158  1.9920 -0.9672
  559MOL0     H77077   1.477   2.138   9.424  0.2235 -3.6520 -0.3016
  559MOL0     H77078   1.619   2.229   9.395  1.2332 -0.1291 -2.9157
  559MOL0     H77079   1.559   2.313   9.167 -0.1292 -0.2334 -2.2671
  559MOL0     H77080   1.423   2.215   9.155  0.3143 -1.1395  0.3773
  559MOL0     H77081   1.298   2.376   9.249 -1.4333  2.5911  0.8887
  559MOL0     H77082   1.397   2.361   9.404  2.9536 -0.1602  0.3757
  559MOL0     H77083   1.367   2.597   9.271 -0.7432 -1.1083 -1.7918
  559MOL0     H77084   1.471   2.527   9.149  0.7444  0.1240  0.1447
  559MOL0     H77085   1.661   2.506   9.330  1.3828  1.9548  0.8531
  559MOL0     H77086   1.610   2.662   9.276 -0.4680  0.3106 -0.3823
  559MOL0     H77087   1.479   2.537   9.530  3.7099 -4.1182 -0.2571
  559MOL0     H77088   1.487   2.701   9.486 -2.2772 -1.1129 -0.0357
  559MOL0     H77089   1.709   2.522   9.583  0.9290 -0.7577 -1.7387
  559MOL0     H77090   1.741   2.667   9.489 -0.3984  1.5916  0.7226
  559MOL0     H77091   1.799   2.605   9.805  0.4417  0.4281  0.7934
  559MOL0     H77092   1.840   2.744  10.024  0.5334  0.1789  3.2438
  559MOL0     H77093   1.702   2.848  10.074  1.0091 -0.4844 -0.4162
  559MOL0     H77094   1.954   2.952   9.933  0.9947 -0.3644  0.0761
  559MOL0     H77095   1.811   3.046   9.966  0.5429 -1.4488  1.1293
  559MOL0     H77096   1.900   2.896  10.199  3.1697  0.4766  0.1373
  559MOL0     H77097   1.999   3.032  10.156  0.2000 -1.0034  2.1832
  559MOL0     H77098   1.806   3.180  10.150  0.9375 -0.5527 -1.4485
  559MOL0     H77099   1.695   3.040  10.164 -1.1498  3.0157 -0.1815
  559MOL0     H77100   1.842   3.182  10.570  0.5116  3.3222  1.0677
  559MOL0     H77101   1.718   3.257  10.816  1.9999  0.8195  0.6278
  559MOL0     H77102   1.687   3.430  10.788  0.3452  2.1218 -3.3363
  559MOL0     H77103   1.835   3.371  10.730  0.3767 -0.5078 -1.1878
  559MOL0     H77104   1.195   3.640  10.545  2.3631 -1.3346  1.3103
  559MOL0     H77105   0.970   3.694  10.640  2.8290  0.7053 -1.8717
  559MOL0     H77106   0.703   3.655  10.903 -0.7454  0.2303 -0.5011
  559MOL0     H77107   0.858   3.715  10.830  1.3446 -0.8768  2.7005
  559MOL0     H77108   0.622   3.748  10.721 -3.5105 -1.1777 -2.9915
  559MOL0     H77109   0.765   3.734  10.624 -2.1298  2.2596  0.0915
  559MOL0     H77110   0.725   3.515  10.591  0.8864 -0.2089  2.1780
  559MOL0     H77111   0.586   3.597  10.523 -0.0232 -1.9420  0.0575
  559MOL0     H77112   0.448   3.530  10.718  0.5654  0.5514  0.7508
  559MOL0     H77113   0.591   3.445  10.793  1.1081  0.1260  0.2962
  559MOL0     H77114   0.486   3.391  10.508  0.9464  1.6162 -0.5181
  559MOL0     H77115   0.594   3.286  10.599  1.7328  1.4557  1.3121
  559MOL0     H77116   0.289   3.355  10.670 -3.4575 -1.7394  1.0389
  559MOL0     H77117   0.402   3.232  10.753 -4.2139  0.4252  1.0113
  559MOL0     H77118   0.260   3.111  10.627 -1.4213  1.6859 -0.0805
  559MOL0     H77119   0.419   3.105  10.552 -0.1808 -0.9042 -1.4811
  559MOL0     H77120   0.275   3.120  10.372  1.0821  0.2439  0.1462
  559MOL0     H77121   0.302   3.299  10.405  3.3100 -0.9752  2.8758
  559MOL0     H77122   0.995   3.312  10.854  0.3328 -0.6723 -0.8192
  559MOL0     H77123   1.206   3.277  10.737  2.0041  0.7864 -2.6124
  559MOL0     H77124   1.407   3.319  10.386 -0.4090 -0.4461  0.1390
  559MOL0     H77125   1.544   3.193  10.253  0.3538  3.7460 -1.0229
  559MOL0     H77126   1.203   2.027   9.211 -0.3678 -1.2838 -0.6916
  559MOL0     H77127   1.040   1.882   9.326  0.4192 -0.2886 -2.9813
  559MOL0     H77128   0.939   1.656   9.702  0.5598  0.7626  0.6563
  559MOL0     H77129   0.804   1.544   9.844 -0.1458  0.1779  0.6709
  559MOL0     H77130   0.763   1.385  10.021  1.6702 -1.7349 -1.9421
  559MOL0     H77131   0.625   1.417   9.921  2.0202  1.7679  0.2828
  559MOL0     H77132   0.569   1.300  10.141 -0.4605 -2.1321  1.2728
  559MOL0     H77133   0.683   1.181  10.090  1.1310  2.1397  0.1963
  559MOL0     H77134   0.423   1.223   9.935 -0.6652  1.4663  2.7180
  559MOL0     H77135   0.534   1.093   9.901 -1.4433  0.2209 -0.6637
  559MOL0     H77136   0.344   1.007  10.030 -1.1196  2.0001 -0.4150
  559MOL0     H77137   0.375   1.105  10.171 -1.9094  0.1800 -0.6575
  559MOL0     H77138   0.674   0.822  10.234 -1.4553 -1.2619  1.3722
  559MOL0     H77139   0.863   1.171   9.642 -0.7399  0.2202  0.7969
  559MOL0     H77140   1.016   1.144   9.472  2.6851 -0.8870 -1.1632
  559MOL0     H77141   0.982   1.276   9.355 -1.2463  1.0981  1.4626
  559MOL0     H77142   1.133   1.275   9.432 -0.3398  0.3358  1.5770
  560MOL0     O77143   9.492   3.542  11.422 -1.0715  0.0018 -0.5950
  560MOL0     C77144   9.577   3.481  11.499  0.5971 -0.5262  0.0319
  560MOL0     O77145   9.541   3.389  11.583 -0.0717  0.9170  0.6314
  560MOL0     C77146   9.410   3.364  11.607  0.0310 -0.1717  0.3196
  560MOL0     C77147   9.329   3.464  11.660  0.0142 -0.0992 -0.1158
  560MOL0     C77148   9.195   3.435  11.694 -1.0631  0.0350 -0.7369
  560MOL0     C77149   9.140   3.310  11.658 -0.5871 -0.0103  0.8511
  560MOL0     O77150   9.007   3.277  11.685 -1.4684  0.1604  0.7110
  560MOL0     C77151   8.937   3.226  11.574 -0.9341  0.4850 -0.2512
  560MOL0     C77152   8.787   3.258  11.562 -0.6411  0.7278 -0.1134
  560MOL0     C77153   8.759   3.403  11.580  0.8944 -0.2218  0.0687
  560MOL0     C77154   8.826   3.502  11.478 -0.6236 -0.9223 -1.1510
  560MOL0     C77155   8.797   3.655  11.503  0.0808 -0.1060 -0.5756
  560MOL0     C77156   8.885   3.713  11.621 -0.1167  0.1563 -0.6839
  560MOL0     C77157   8.837   3.854  11.648  0.3079 -0.0637  0.4146
  560MOL0     C77158   8.873   3.909  11.786 -0.3229 -0.0740 -0.5271
  560MOL0     N77159   8.892   4.054  11.776  0.6500  0.6026 -0.5626
  560MOL0     C77160   8.812   4.150  11.721  0.1756  0.1105  0.9060
  560MOL0     C77161   8.863   4.267  11.757  0.4899  0.0618  0.7088
  560MOL0     C77162   8.815   4.407  11.717 -0.2609  0.2335 -1.1228
  560MOL0     C77163   8.825   4.516  11.816 -0.0853  0.2218  0.3591
  560MOL0     C77164   8.704   4.531  11.918  0.6580  1.2118 -0.1307
  560MOL0     C77165   8.725   4.665  11.996  0.1398 -0.2527 -0.9374
  560MOL0     O77166   8.630   4.699  12.102 -0.0593 -0.6049 -0.1040
  560MOL0     C77167   8.644   4.819  12.174  0.7144 -0.1440 -0.4306
  560MOL0     C77168   8.574   4.835  12.293  0.7425  0.3513 -0.1433
  560MOL0     C77169   8.603   4.937  12.384 -0.0351 -0.0322  0.6694
  560MOL0     C77170   8.524   4.929  12.506 -0.7487 -0.3961 -0.5092
  560MOL0     C77171   8.696   5.035  12.354 -0.5064 -1.3305  0.2894
  560MOL0     C77172   8.745   5.132  12.455 -0.8027  0.7742  1.0626
  560MOL0     O77173   8.806   5.240  12.392  0.2779 -0.5862 -0.9096
  560MOL0     C77174   8.874   5.341  12.471  0.7348  1.1809  0.5565
  560MOL0     C77175   8.826   5.471  12.469 -0.3529 -0.7526  0.7434
  560MOL0     C77176   8.881   5.566  12.546 -0.1016  0.3750  0.1165
  560MOL0     C77177   8.993   5.531  12.628  0.7558  0.7114  0.6903
  560MOL0     O77178   9.043   5.633  12.701 -0.4904 -0.7096 -0.7709
  560MOL0     C77179   9.140   5.587  12.796 -0.3819  0.2098  0.2746
  560MOL0     C77180   9.076   5.509  12.916  0.0722  0.4024 -0.1872
  560MOL0     C77181   8.990   5.597  13.005 -0.3512  0.0134  0.1043
  560MOL0     C77182   8.863   5.659  12.948  0.4501  0.8501 -0.2710
  560MOL0     C77183   8.760   5.564  12.884  0.3292  0.6957 -0.2168
  560MOL0     C77184   8.622   5.624  12.861 -0.0280 -0.1648 -0.5058
  560MOL0     C77185   8.579   5.624  12.723 -0.2775 -0.6136 -0.0332
  560MOL0     C77186   8.437   5.692  12.724  0.4965  0.2843 -0.3749
  560MOL0    Cl77187   8.331   5.645  12.860  0.2672 -0.1611 -0.1004
  560MOL0     C77188   9.055   5.404  12.613 -0.2019  0.1517  1.1665
  560MOL0     C77189   8.990   5.310  12.527 -0.4236  0.0992  0.1860
  560MOL0     O77190   8.717   5.127  12.576  0.6481 -0.4845  0.3181
  560MOL0     C77191   8.755   5.029  12.229 -0.0941  0.2058  0.0555
  560MOL0     C77192   8.728   4.923  12.144 -1.0793 -0.3962  0.4263
  560MOL0     N77193   8.973   4.242  11.834  0.8556 -0.4646  0.0039
  560MOL0     N77194   8.991   4.115  11.849 -0.3802 -0.8408  0.1071
  560MOL0     C77195   9.229   3.206  11.609  0.7251  0.1332 -0.2674
  560MOL0     C77196   9.362   3.233  11.586 -1.2271  0.1643  0.0151
  560MOL0     C77197   9.721   3.512  11.494 -0.1620  0.2375 -0.5767
  560MOL0     C77198   9.764   3.641  11.463 -0.0881 -0.6072 -0.9602
  560MOL0     C77199   9.896   3.663  11.440 -1.1904 -0.7349  0.5941
  560MOL0     C77200   9.995   3.573  11.461  0.1286  1.0625 -0.5590
  560MOL0     O77201  10.121   3.585  11.418  0.0847  0.7103  0.4514
  560MOL0     C77202  10.207   3.695  11.462  0.2328  0.1063 -0.2400
  560MOL0     C77203  10.351   3.655  11.424 -0.8745 -0.2831  0.1522
  560MOL0     C77204  10.391   3.546  11.520  0.1178  0.7441  0.0661
  560MOL0     C77205  10.533   3.547  11.545  0.6879  0.4264  0.0907
  560MOL0     C77206  10.566   3.461  11.662  1.1325  1.2001  0.7571
  560MOL0     C77207  10.617   3.375  11.727  0.5917  0.3197  0.3386
  560MOL0     C77208   9.959   3.448  11.504  0.3368  0.3677 -0.9168
  560MOL0     C77209   9.822   3.414  11.513  0.2746 -0.6759  0.0021
  560MOL0     C77210   9.788   3.271  11.517  0.0915  0.2451  0.4449
  560MOL0     H77211   9.367   3.561  11.691  1.1591 -0.6123  0.1377
  560MOL0     H77212   9.135   3.505  11.751  1.9250  0.1677  2.6191
  560MOL0     H77213   8.957   3.118  11.578 -1.7701  0.1974 -2.5624
  560MOL0     H77214   8.983   3.251  11.479 -2.4807 -0.3405 -1.2551
  560MOL0     H77215   8.765   3.219  11.462 -1.5184  0.4974  0.1578
  560MOL0     H77216   8.733   3.211  11.644 -0.6042 -0.0543 -0.5190
  560MOL0     H77217   8.652   3.418  11.568  1.1978  0.2949 -2.4903
  560MOL0     H77218   8.802   3.446  11.671 -0.9444  0.8092  0.4897
  560MOL0     H77219   8.934   3.488  11.489 -0.1740  1.5922 -1.7837
  560MOL0     H77220   8.803   3.479  11.374  0.6069 -2.0190 -1.2064
  560MOL0     H77221   8.688   3.659  11.516  0.2950  2.3160  1.0903
  560MOL0     H77222   8.811   3.713  11.411 -1.9634  3.2074  1.0231
  560MOL0     H77223   8.870   3.650  11.710 -1.6512  3.5472  1.7074
  560MOL0     H77224   8.993   3.709  11.606  0.2401  3.6199  0.0048
  560MOL0     H77225   8.730   3.851  11.624  0.7403 -2.4011 -1.6417
  560MOL0     H77226   8.870   3.920  11.567 -2.2581 -0.4410 -1.0383
  560MOL0     H77227   8.798   3.890  11.863  1.8709  2.0375  2.3737
  560MOL0     H77228   8.964   3.857  11.817 -0.8466 -0.6240  0.1193
  560MOL0     H77229   8.725   4.139  11.657  0.8541  0.5831 -0.1275
  560MOL0     H77230   8.707   4.401  11.697 -1.3987  3.5968  2.7097
  560MOL0     H77231   8.858   4.443  11.623  0.7883  1.6619 -0.1327
  560MOL0     H77232   8.922   4.509  11.866  0.2388  0.3573 -0.2422
  560MOL0     H77233   8.836   4.606  11.755  0.4716  1.7181  2.5494
  560MOL0     H77234   8.608   4.533  11.866  0.6609 -0.4927 -0.2584
  560MOL0     H77235   8.694   4.443  11.982 -3.7826  2.1718  0.8044
  560MOL0     H77236   8.827   4.669  12.036 -0.7728 -0.8468  1.6253
  560MOL0     H77237   8.705   4.749  11.929 -0.5869  1.4036  1.2712
  560MOL0     H77238   8.519   4.749  12.330 -1.1501  1.5223 -0.0860
  560MOL0     H77239   8.596   4.916  12.587 -0.2904 -1.9562 -1.1378
  560MOL0     H77240   8.462   4.840  12.522  2.2133 -2.0409  3.5151
  560MOL0     H77241   8.462   5.019  12.520 -1.1383 -0.3682 -2.2322
  560MOL0     H77242   8.738   5.501  12.413 -0.0170 -2.5649 -0.8737
  560MOL0     H77243   8.835   5.665  12.546 -0.7327  0.1022 -1.3557
  560MOL0     H77244   9.230   5.545  12.750 -0.0787 -1.5810  2.3417
  560MOL0     H77245   9.182   5.680  12.836 -0.0900 -0.3502  1.3224
  560MOL0     H77246   9.017   5.422  12.886 -1.2367  0.4127  2.1013
  560MOL0     H77247   9.161   5.471  12.974 -0.6112  1.2942  1.4748
  560MOL0     H77248   9.044   5.691  13.022 -1.8981  0.7724  1.0098
  560MOL0     H77249   8.986   5.543  13.101  3.4887  2.3063  1.7907
  560MOL0     H77250   8.899   5.741  12.885  1.2414 -1.0131 -2.3887
  560MOL0     H77251   8.811   5.704  13.033 -1.5740  0.9861 -1.5082
  560MOL0     H77252   8.807   5.526  12.793  5.1683 -0.3786  2.3983
  560MOL0     H77253   8.748   5.474  12.945 -1.7945  0.8737 -0.2943
  560MOL0     H77254   8.627   5.723  12.908  3.4571  0.6501 -2.3054
  560MOL0     H77255   8.556   5.562  12.923  2.2308 -3.0175 -0.7275
  560MOL0     H77256   8.573   5.529  12.670  1.3162  0.4980 -2.3539
  560MOL0     H77257   8.654   5.685  12.672 -1.2257 -1.2409 -2.2782
  560MOL0     H77258   8.383   5.676  12.630 -2.4764  1.1620  1.0746
  560MOL0     H77259   8.450   5.801  12.732 -1.1291  0.4101  1.2422
  560MOL0     H77260   9.147   5.369  12.659 -0.5398  0.3577  2.0119
  560MOL0     H77261   9.038   5.213  12.521  3.2255  1.7798 -1.4509
  560MOL0     H77262   8.821   5.114  12.214 -0.5548  1.0304  2.3138
  560MOL0     H77263   8.782   4.925  12.050 -0.7736 -3.0987  0.4900
  560MOL0     H77264   9.196   3.105  11.587  2.6250 -0.5891  0.0409
  560MOL0     H77265   9.423   3.154  11.542 -0.0666  1.2886 -0.4426
  560MOL0     H77266   9.705   3.730  11.444  4.3613  3.4595  1.8860
  560MOL0     H77267   9.932   3.763  11.419  3.2364 -1.7094  2.4507
  560MOL0     H77268  10.171   3.777  11.399 -3.1653  0.1086  1.4481
  560MOL0     H77269  10.201   3.732  11.564 -1.0172 -3.4548  1.1222
  560MOL0     H77270  10.415   3.742  11.411 -1.9631  0.4267 -0.6442
  560MOL0     H77271  10.356   3.614  11.322 -0.3185  0.0733  0.0288
  560MOL0     H77272  10.351   3.573  11.619  1.9779 -0.0817  1.1066
  560MOL0     H77273  10.364   3.443  11.496  0.6851  0.5722  0.1543
  560MOL0     H77274  10.579   3.646  11.555 -0.0136  1.3088 -3.7031
  560MOL0     H77275  10.583   3.502  11.459 -0.4853 -0.5409 -0.1129
  560MOL0     H77276  10.669   3.291  11.767  0.3007 -0.7552 -1.4597
  560MOL0     H77277  10.029   3.365  11.507 -1.0791 -1.0989 -3.6050
  560MOL0     H77278   9.749   3.227  11.609  3.7276  0.3049  2.2131
  560MOL0     H77279   9.714   3.257  11.438  1.7752 -2.8556 -0.7966
  560MOL0     H77280   9.872   3.209  11.484  0.8666  1.1188  0.7519
  561MOL0     O77281   8.419   2.767   4.571  0.2465  0.3174 -0.2113
  561MOL0     C77282   8.533   2.731   4.587  0.1765  0.2365  0.9837
  561MOL0     O77283   8.574   2.606   4.619 -0.3713 -0.2877 -0.1752
  561MOL0     C77284   8.490   2.504   4.606 -0.9978 -0.1666 -0.2831
  561MOL0     C77285   8.495   2.438   4.481 -0.4198  0.9654  0.4113
  561MOL0     C77286   8.420   2.322   4.466  0.7239  0.2948 -0.5603
  561MOL0     C77287   8.347   2.264   4.567  0.4337  0.7071 -0.2152
  561MOL0     O77288   8.296   2.140   4.540  0.3759 -0.4913  0.1518
  561MOL0     C77289   8.187   2.090   4.616  0.4172  0.3928 -0.3181
  561MOL0     C77290   8.100   1.999   4.521  0.4874 -0.0114  0.6253
  561MOL0     C77291   8.167   1.872   4.476 -0.4076 -0.3847  0.0093
  561MOL0     C77292   8.069   1.808   4.374  0.1733 -0.1272  0.9050
  561MOL0     C77293   8.120   1.665   4.349 -0.6585 -0.0839  0.5973
  561MOL0     C77294   8.048   1.603   4.231 -0.0120 -0.8562 -0.3509
  561MOL0     C77295   8.119   1.476   4.192  0.1439 -0.2393  0.1790
  561MOL0     C77296   8.072   1.427   4.052  0.7021 -0.5419 -0.7570
  561MOL0     N77297   7.917   1.397   4.063 -0.7292 -0.0065  0.1381
  561MOL0     C77298   7.812   1.485   4.044 -0.3418  0.7980 -0.0325
  561MOL0     C77299   7.705   1.404   4.055  0.2079  0.3925  0.3433
  561MOL0     C77300   7.560   1.443   4.037  0.2223  1.1849 -0.4147
  561MOL0     C77301   7.510   1.414   3.905 -0.3021  0.2304 -0.4090
  561MOL0     C77302   7.596   1.465   3.787  0.3945  0.1840  0.5025
  561MOL0     C77303   7.613   1.615   3.792  0.5788 -0.1571  0.0878
  561MOL0     O77304   7.483   1.671   3.800 -0.0882 -0.3591 -1.4388
  561MOL0     C77305   7.473   1.805   3.822  0.6076 -0.2251 -1.0705
  561MOL0     C77306   7.347   1.864   3.830  0.6384  0.6851  0.3318
  561MOL0     C77307   7.324   2.002   3.847 -0.3731 -0.3796  0.0243
  561MOL0     C77308   7.190   2.055   3.862  0.2325 -0.1661  0.9859
  561MOL0     C77309   7.446   2.088   3.840  0.2411 -0.5536  0.2839
  561MOL0     C77310   7.436   2.236   3.861  0.4145  0.1700  0.4045
  561MOL0     O77311   7.530   2.309   3.803  0.2652  0.1928  0.3683
  561MOL0     C77312   7.534   2.440   3.836 -0.2965 -0.2864  0.0199
  561MOL0     C77313   7.657   2.496   3.882  0.9785  0.3704 -0.9481
  561MOL0     C77314   7.669   2.633   3.901  0.1673  0.2905 -0.0124
  561MOL0     C77315   7.564   2.715   3.857 -0.1051 -0.5484 -0.8115
  561MOL0     O77316   7.569   2.853   3.873 -0.4710 -0.1950  1.1326
  561MOL0     C77317   7.627   2.915   3.760  0.5629 -0.6745  0.2711
  561MOL0     C77318   7.635   3.058   3.784 -0.0558 -0.0477 -0.2330
  561MOL0     C77319   7.776   3.111   3.837  0.5145 -0.2867  0.5429
  561MOL0     C77320   7.801   3.067   3.985  0.5534 -0.5804  0.1789
  561MOL0     C77321   7.950   3.095   4.019 -0.5432 -0.5171 -0.2923
  561MOL0     C77322   7.981   3.038   4.166  0.5966  0.7844  0.3034
  561MOL0     C77323   8.130   3.060   4.196 -0.1405  0.1743  0.0628
  561MOL0     C77324   8.171   3.000   4.333 -0.3810  0.3313  0.2985
  561MOL0    Cl77325   8.093   3.075   4.471 -0.1614 -0.1299  0.1388
  561MOL0     C77326   7.459   2.662   3.793 -0.3674  1.4870 -0.1699
  561MOL0     C77327   7.444   2.524   3.776 -0.9975  0.8659 -0.8406
  561MOL0     O77328   7.348   2.271   3.940 -0.6089  0.3717  0.6172
  561MOL0     C77329   7.576   2.028   3.829  0.1006 -0.0009 -0.0739
  561MOL0     C77330   7.586   1.892   3.826  0.0114  0.3061  1.4489
  561MOL0     N77331   7.741   1.275   4.069  0.2235  0.2571  0.0733
  561MOL0     N77332   7.870   1.272   4.055 -0.0049  1.1762  0.4125
  561MOL0     C77333   8.354   2.324   4.687 -0.3877  0.2482  0.2444
  561MOL0     C77334   8.414   2.448   4.704  0.5056 -0.3354 -0.9441
  561MOL0     C77335   8.637   2.837   4.599  0.2594 -0.3886  0.8628
  561MOL0     C77336   8.764   2.812   4.532 -0.8539  0.3143 -0.5352
  561MOL0     C77337   8.864   2.906   4.526  0.0289 -0.5508  0.3291
  561MOL0     C77338   8.840   3.027   4.592  0.2906 -0.0909 -1.2580
  561MOL0     O77339   8.945   3.117   4.605 -0.3730 -0.2077  0.5531
  561MOL0     C77340   8.939   3.218   4.702 -0.6473  0.1374  0.0131
  561MOL0     C77341   8.955   3.169   4.836  0.5232 -0.1330  0.5133
  561MOL0     C77342   8.895   3.264   4.946 -0.5622  0.1048 -0.0224
  561MOL0     C77343   8.958   3.410   4.941 -0.6047  0.6398 -0.7412
  561MOL0     C77344   8.958   3.492   4.828  1.2004  0.5114 -0.0170
  561MOL0     C77345   8.975   3.556   4.730  0.8610  0.0354 -0.0300
  561MOL0     C77346   8.711   3.050   4.658  0.2038  0.3641  1.0728
  561MOL0     C77347   8.611   2.950   4.667  0.0348 -0.5588  0.2724
  561MOL0     C77348   8.492   2.977   4.762 -0.1179  0.1944  0.0617
  561MOL0     H77349   8.563   2.471   4.403  2.2724 -0.2865  2.1013
  561MOL0     H77350   8.432   2.268   4.372 -2.7075 -1.5792 -0.0859
  561MOL0     H77351   8.130   2.178   4.648 -2.3537 -1.6399  0.8453
  561MOL0     H77352   8.230   2.027   4.695  0.3975 -0.8062 -1.2278
  561MOL0     H77353   8.000   1.980   4.559  0.4772  1.5437  1.4888
  561MOL0     H77354   8.091   2.061   4.431 -2.3926 -3.7106 -1.9103
  561MOL0     H77355   8.255   1.899   4.418 -1.2222  2.5946 -0.0414
  561MOL0     H77356   8.186   1.803   4.559  1.4674 -0.1512 -0.1938
  561MOL0     H77357   7.966   1.809   4.411 -0.6522 -0.4263 -1.1918
  561MOL0     H77358   8.069   1.866   4.281  0.1042 -0.5533  0.6345
  561MOL0     H77359   8.095   1.603   4.436  1.4831 -1.7378  0.1185
  561MOL0     H77360   8.227   1.666   4.325 -0.9124  0.5161 -0.5675
  561MOL0     H77361   7.944   1.583   4.257  0.8284 -1.4829  2.8796
  561MOL0     H77362   8.050   1.676   4.150 -4.2745  0.6632  0.6468
  561MOL0     H77363   8.091   1.398   4.264 -1.8687  1.3137  1.1805
  561MOL0     H77364   8.227   1.487   4.183  0.1292 -1.3609 -1.8603
  561MOL0     H77365   8.086   1.495   3.967 -2.8919  0.5720 -0.6428
  561MOL0     H77366   8.117   1.335   4.015  0.5067 -1.4083  1.0599
  561MOL0     H77367   7.819   1.592   4.029  1.1467  0.6198 -0.8446
  561MOL0     H77368   7.554   1.550   4.059  0.3655  0.6956  2.3513
  561MOL0     H77369   7.485   1.392   4.098 -0.1143 -0.0374 -1.7943
  561MOL0     H77370   7.507   1.305   3.898  3.7655 -0.1669  1.5191
  561MOL0     H77371   7.412   1.457   3.879  0.1572  3.1511  2.1131
  561MOL0     H77372   7.695   1.419   3.793  2.1140  3.1649 -1.9069
  561MOL0     H77373   7.536   1.440   3.699 -0.3998  1.9967  0.4706
  561MOL0     H77374   7.671   1.641   3.882  2.5595 -1.1343 -0.8352
  561MOL0     H77375   7.662   1.647   3.700 -0.2680  2.0989  0.3520
  561MOL0     H77376   7.278   1.781   3.817  1.4880  0.3958 -3.5339
  561MOL0     H77377   7.174   2.086   3.965  0.5713  1.0184  0.7043
  561MOL0     H77378   7.119   1.978   3.829 -2.9591  2.5899  0.8708
  561MOL0     H77379   7.174   2.138   3.793 -3.8387  0.8789  2.9181
  561MOL0     H77380   7.739   2.432   3.911  0.5565 -0.0705 -0.7204
  561MOL0     H77381   7.766   2.673   3.926  2.4762 -3.0869 -2.7561
  561MOL0     H77382   7.725   2.869   3.739  0.1469 -0.4286 -2.6511
  561MOL0     H77383   7.571   2.897   3.668 -1.0456 -0.2133  1.1317
  561MOL0     H77384   7.622   3.118   3.693 -0.9464 -1.2834 -0.9489
  561MOL0     H77385   7.547   3.080   3.845 -0.4735 -0.7681 -0.5563
  561MOL0     H77386   7.774   3.220   3.844 -2.6691 -0.3325  2.2253
  561MOL0     H77387   7.863   3.083   3.777  0.6173  1.3817 -0.1459
  561MOL0     H77388   7.788   2.959   3.997  3.4859 -0.8029  3.0965
  561MOL0     H77389   7.728   3.118   4.048 -1.4902  1.0042 -3.1788
  561MOL0     H77390   8.004   3.028   3.951 -0.8433  0.9386 -2.0286
  561MOL0     H77391   7.979   3.199   4.003  3.4257 -1.0413  2.1568
  561MOL0     H77392   7.937   2.940   4.184 -2.4892  1.9111 -0.4662
  561MOL0     H77393   7.928   3.101   4.238  0.0666 -2.8484  3.3696
  561MOL0     H77394   8.141   3.168   4.205  0.4124  0.1113  0.1657
  561MOL0     H77395   8.188   3.025   4.110  0.3346 -2.7726  1.4611
  561MOL0     H77396   8.278   3.016   4.347 -0.6391  1.2677  1.2874
  561MOL0     H77397   8.151   2.893   4.319  0.8845  0.1357 -0.0950
  561MOL0     H77398   7.370   2.712   3.755 -1.3311 -0.2378 -0.2919
  561MOL0     H77399   7.364   2.476   3.720  1.0191 -0.4264 -2.8410
  561MOL0     H77400   7.667   2.081   3.853  0.5305 -1.2088  1.1345
  561MOL0     H77401   7.684   1.847   3.833  0.6102  1.1158 -0.6975
  561MOL0     H77402   8.312   2.281   4.778  0.5243 -0.0935  0.5131
  561MOL0     H77403   8.403   2.491   4.803  1.3863  0.3855 -1.1512
  561MOL0     H77404   8.782   2.720   4.478 -0.8036 -0.6590  1.0914
  561MOL0     H77405   8.956   2.891   4.469  0.9567 -3.2897  2.3373
  561MOL0     H77406   9.012   3.297   4.684 -1.9704  1.5686  0.7052
  561MOL0     H77407   8.846   3.275   4.703 -0.7808 -0.0792  1.2069
  561MOL0     H77408   9.064   3.170   4.848  1.5333 -0.1730 -5.6906
  561MOL0     H77409   8.914   3.069   4.848 -1.4728  0.6404  0.5013
  561MOL0     H77410   8.787   3.269   4.929 -0.3327 -0.4208 -1.9324
  561MOL0     H77411   8.910   3.216   5.043  1.2376 -0.9529 -0.7700
  561MOL0     H77412   9.066   3.398   4.954 -0.0993 -1.6439 -5.0787
  561MOL0     H77413   8.924   3.460   5.032  1.9899 -2.1004  1.9566
  561MOL0     H77414   8.997   3.617   4.645  0.1087 -1.9172 -1.6989
  561MOL0     H77415   8.696   3.135   4.724 -1.3991 -0.1638  1.4380
  561MOL0     H77416   8.497   2.893   4.832  1.6403  1.4883  1.5770
  561MOL0     H77417   8.517   3.060   4.829 -0.6187  1.2848 -1.0790
  561MOL0     H77418   8.396   2.987   4.710  0.8093  2.0902 -1.4336
  562MOL0     O77419   4.733   7.273   5.214 -0.0936  0.4634 -0.5560
  562MOL0     C77420   4.839   7.229   5.167 -0.6360  0.9523  0.5445
  562MOL0     O77421   4.849   7.100   5.102 -0.1282  0.0278 -0.9641
  562MOL0     C77422   4.735   7.031   5.094  0.3598 -0.1832  0.4291
  562MOL0     C77423   4.642   6.998   5.194  0.9866 -0.8022  0.0587
  562MOL0     C77424   4.524   6.930   5.185  0.5575  0.3920  0.6191
  562MOL0     C77425   4.498   6.860   5.076  0.5639  0.1825 -0.3441
  562MOL0     O77426   4.383   6.792   5.067 -0.2008 -0.4475 -0.0070
  562MOL0     C77427   4.386   6.657   5.018 -0.1608  0.2516 -1.0411
  562MOL0     C77428   4.423   6.565   5.138  1.1628  0.1376 -0.4220
  562MOL0     C77429   4.318   6.556   5.242  0.2893  0.4557 -0.4875
  562MOL0     C77430   4.359   6.460   5.349  0.2607  0.1027  0.3172
  562MOL0     C77431   4.249   6.463   5.456  0.4576  0.5438  0.6385
  562MOL0     C77432   4.268   6.345   5.556  0.4285 -0.8852  0.2498
  562MOL0     C77433   4.185   6.379   5.682 -0.2743  0.4274 -0.2914
  562MOL0     C77434   4.037   6.373   5.653 -0.6982  0.1547  0.4482
  562MOL0     N77435   4.006   6.237   5.624  0.0862  0.8142 -1.0580
  562MOL0     C77436   4.025   6.126   5.707 -0.6933 -0.3997  0.6071
  562MOL0     C77437   3.990   6.021   5.627  0.6495 -0.1249  0.4384
  562MOL0     C77438   3.983   5.878   5.664 -0.5223 -0.1760 -0.2716
  562MOL0     C77439   4.104   5.799   5.625  0.1461 -0.7751  0.2637
  562MOL0     C77440   4.095   5.662   5.692 -0.2048 -0.1276  0.4561
  562MOL0     C77441   4.102   5.645   5.842 -0.1204  0.1762 -1.0578
  562MOL0     O77442   4.210   5.732   5.891 -0.3822  0.7144 -0.2922
  562MOL0     C77443   4.322   5.685   5.957  1.1231 -0.6638 -0.6259
  562MOL0     C77444   4.313   5.576   6.048 -0.5652 -0.8989 -0.3029
  562MOL0     C77445   4.424   5.524   6.110 -0.1411 -0.5440  0.0967
  562MOL0     C77446   4.415   5.425   6.222  0.0308  0.4359  0.4124
  562MOL0     C77447   4.549   5.579   6.072 -0.8270 -0.1627  0.0515
  562MOL0     C77448   4.673   5.514   6.116 -0.2969 -0.3773 -0.5210
  562MOL0     O77449   4.762   5.605   6.174  0.0948 -0.2388  0.5336
  562MOL0     C77450   4.895   5.577   6.145 -0.5278 -0.2571  0.1843
  562MOL0     C77451   4.946   5.594   6.016 -1.0845 -0.8106 -0.0878
  562MOL0     C77452   5.072   5.546   5.984 -0.3912  0.4416 -0.1886
  562MOL0     C77453   5.147   5.469   6.073 -0.5400  0.6992 -0.5724
  562MOL0     O77454   5.274   5.418   6.038  0.0436 -0.2246 -0.8341
  562MOL0     C77455   5.285   5.276   6.052 -0.8199  0.6607  0.2850
  562MOL0     C77456   5.412   5.236   5.963 -0.2604  0.4648 -0.2766
  562MOL0     C77457   5.388   5.263   5.812 -1.1404 -0.4897 -0.7390
  562MOL0     C77458   5.500   5.213   5.726 -0.0577 -0.2154 -0.5373
  562MOL0     C77459   5.501   5.270   5.582  0.0803 -0.8673 -1.2235
  562MOL0     C77460   5.572   5.176   5.491 -0.0119 -0.2389 -0.1763
  562MOL0     C77461   5.555   5.221   5.345 -0.7603 -0.3240  0.0694
  562MOL0     C77462   5.438   5.154   5.281  0.4516  0.8020  0.0695
  562MOL0    Cl77463   5.474   4.978   5.239  0.0838  0.1301 -0.0471
  562MOL0     C77464   5.090   5.445   6.197  0.5156 -0.9340 -0.2300
  562MOL0     C77465   4.970   5.506   6.239  0.3015  0.2226 -0.5269
  562MOL0     O77466   4.692   5.391   6.108  0.6203 -0.6063  0.1118
  562MOL0     C77467   4.557   5.689   5.989 -0.2823  0.0517  0.4094
  562MOL0     C77468   4.440   5.739   5.930 -0.0445 -0.1106 -0.3285
  562MOL0     N77469   3.971   6.065   5.499 -0.0522  1.0770  0.4190
  562MOL0     N77470   3.976   6.188   5.500  0.1778  1.2661 -1.1641
  562MOL0     C77471   4.587   6.873   4.968  0.4268  0.0398 -0.0826
  562MOL0     C77472   4.696   6.963   4.976 -0.4192 -0.6651 -0.1021
  562MOL0     C77473   4.972   7.299   5.167 -1.1910 -0.9770  0.0324
  562MOL0     C77474   5.072   7.281   5.075 -0.5840  0.0894  0.0205
  562MOL0     C77475   5.196   7.350   5.078 -0.7630  0.4204 -0.0546
  562MOL0     C77476   5.216   7.445   5.174  0.5727 -0.4228 -0.5458
  562MOL0     O77477   5.338   7.514   5.180 -0.0125 -0.3973  0.1058
  562MOL0     C77478   5.400   7.551   5.056 -0.1953  0.1454 -0.1374
  562MOL0     C77479   5.520   7.653   5.084 -0.2824 -0.0470  1.2331
  562MOL0     C77480   5.642   7.593   5.139 -0.5126  0.2035  0.3462
  562MOL0     C77481   5.758   7.695   5.172 -0.2581 -0.0513  0.6861
  562MOL0     C77482   5.809   7.742   5.047  0.5596 -0.2944  0.1873
  562MOL0     C77483   5.819   7.797   4.936  0.4244  0.3827 -1.1603
  562MOL0     C77484   5.117   7.465   5.273 -0.3890 -1.0852  0.3571
  562MOL0     C77485   5.004   7.389   5.272  0.3065  0.5332 -0.1547
  562MOL0     C77486   4.921   7.390   5.406 -0.0313  0.4412 -0.2805
  562MOL0     H77487   4.658   7.032   5.296 -2.1307 -0.7289  0.6448
  562MOL0     H77488   4.454   6.924   5.267 -2.4718 -1.6353 -1.8437
  562MOL0     H77489   4.452   6.633   4.933 -2.6595 -1.3575 -2.6531
  562MOL0     H77490   4.288   6.627   4.981 -0.5573 -2.1183  1.5568
  562MOL0     H77491   4.451   6.469   5.093  0.1716 -0.2634 -0.2108
  562MOL0     H77492   4.506   6.606   5.196  0.7667 -0.3119  0.4742
  562MOL0     H77493   4.309   6.658   5.282  1.1996  0.2226  0.3390
  562MOL0     H77494   4.226   6.522   5.194  0.3351 -0.1052 -0.1850
  562MOL0     H77495   4.365   6.362   5.300 -1.2248 -0.8746  1.9791
  562MOL0     H77496   4.462   6.480   5.379  0.3980 -1.2023  0.7876
  562MOL0     H77497   4.148   6.456   5.415  1.4115 -0.6923 -1.7110
  562MOL0     H77498   4.264   6.560   5.503 -0.4791  0.2555  1.5604
  562MOL0     H77499   4.248   6.248   5.509 -1.4250 -0.4194 -0.0019
  562MOL0     H77500   4.371   6.329   5.588 -0.1238 -3.4273  1.0600
  562MOL0     H77501   4.196   6.485   5.707  0.3120  0.6068 -1.2545
  562MOL0     H77502   4.206   6.314   5.767 -3.7442 -1.3329 -0.5707
  562MOL0     H77503   3.981   6.390   5.746 -0.9494 -1.4452  0.6268
  562MOL0     H77504   3.996   6.435   5.572 -0.6939  0.7521  0.8973
  562MOL0     H77505   4.058   6.128   5.810 -1.4189  1.2680  0.8366
  562MOL0     H77506   3.898   5.833   5.612 -0.2339  0.6890 -1.5582
  562MOL0     H77507   3.978   5.879   5.773  0.1851 -0.0171 -0.2346
  562MOL0     H77508   4.128   5.797   5.518  1.6006 -0.6357  0.5599
  562MOL0     H77509   4.195   5.847   5.663  0.1367 -2.6528  2.8781
  562MOL0     H77510   4.004   5.607   5.664  0.5443 -0.9693 -0.3966
  562MOL0     H77511   4.184   5.605   5.664 -0.7643 -2.5913  3.1780
  562MOL0     H77512   4.019   5.687   5.899  1.8028  4.1383 -0.8330
  562MOL0     H77513   4.113   5.539   5.865 -0.0780  0.3967 -0.0207
  562MOL0     H77514   4.222   5.527   6.080 -0.5455 -0.0526  1.1390
  562MOL0     H77515   4.472   5.461   6.309 -1.1741  0.1967  1.3300
  562MOL0     H77516   4.442   5.324   6.192  0.7719  1.3082 -2.1568
  562MOL0     H77517   4.313   5.417   6.259  0.1044 -0.3746  0.4538
  562MOL0     H77518   4.878   5.634   5.941 -2.5095 -1.0207  1.0558
  562MOL0     H77519   5.104   5.545   5.880 -1.3879 -4.8061 -0.7088
  562MOL0     H77520   5.313   5.248   6.154  0.8107 -0.2821 -0.3798
  562MOL0     H77521   5.190   5.233   6.019 -3.5421  3.9089  2.9621
  562MOL0     H77522   5.510   5.263   6.004  0.2737 -0.8834 -0.6263
  562MOL0     H77523   5.426   5.128   5.973 -3.5784  0.0418  0.9483
  562MOL0     H77524   5.376   5.371   5.818  0.1894 -0.1712 -2.9341
  562MOL0     H77525   5.297   5.208   5.784 -0.0566 -2.8713  0.1714
  562MOL0     H77526   5.494   5.104   5.725 -4.6754 -0.2146  1.6406
  562MOL0     H77527   5.602   5.238   5.757 -0.2401  3.2624 -2.2221
  562MOL0     H77528   5.394   5.278   5.559 -0.1657  0.6063  0.1953
  562MOL0     H77529   5.543   5.370   5.575 -0.3555 -0.6831 -1.2703
  562MOL0     H77530   5.530   5.076   5.499 -0.1976 -0.3635 -2.1767
  562MOL0     H77531   5.669   5.153   5.535 -0.8753 -0.7237  1.5247
  562MOL0     H77532   5.646   5.197   5.288 -0.3092 -1.8474  1.3272
  562MOL0     H77533   5.540   5.327   5.326  1.4976 -0.4364 -3.1559
  562MOL0     H77534   5.407   5.213   5.194  2.5131 -1.9763 -2.7596
  562MOL0     H77535   5.348   5.155   5.342  0.5071 -0.8995  0.2202
  562MOL0     H77536   5.141   5.367   6.252 -0.5259 -0.5316  1.3554
  562MOL0     H77537   4.917   5.478   6.329  0.1556  0.6503 -0.4767
  562MOL0     H77538   4.655   5.726   5.960 -0.3837  0.2335  0.2942
  562MOL0     H77539   4.441   5.825   5.864 -1.5718 -0.0666 -0.3394
  562MOL0     H77540   4.559   6.842   4.868 -2.7034  0.0174  0.6889
  562MOL0     H77541   4.758   6.977   4.889  4.2120 -0.7675  2.8395
  562MOL0     H77542   5.046   7.218   4.990 -1.5214 -0.4181  0.6632
  562MOL0     H77543   5.276   7.334   5.006 -0.7708  1.8250 -0.4211
  562MOL0     H77544   5.448   7.465   5.008  0.4506  0.3024  0.2181
  562MOL0     H77545   5.328   7.586   4.981 -0.3819  1.6810  0.7105
  562MOL0     H77546   5.478   7.727   5.153 -0.5036 -1.6705  2.9262
  562MOL0     H77547   5.539   7.703   4.989  2.1251  2.0664  2.6677
  562MOL0     H77548   5.629   7.522   5.221  4.2422 -3.3787 -1.5254
  562MOL0     H77549   5.686   7.524   5.067  2.0989 -1.9261  3.6930
  562MOL0     H77550   5.838   7.633   5.214 -0.0567  0.0480  0.4493
  562MOL0     H77551   5.718   7.773   5.238  0.4398 -0.6734  1.8798
  562MOL0     H77552   5.842   7.850   4.846 -1.5240  1.6663 -0.9468
  562MOL0     H77553   5.127   7.535   5.356 -0.9761  0.5215 -0.8619
  562MOL0     H77554   4.835   7.456   5.394  0.2874  0.6595 -1.4821
  562MOL0     H77555   4.895   7.286   5.427  1.5666 -0.2691 -1.6066
  562MOL0     H77556   4.984   7.422   5.490 -1.1002 -0.7748  1.0468
  563MOL0     O77557   9.152   2.718   4.053 -0.2795  0.0026 -0.3720
  563MOL0     C77558   9.125   2.806   4.127 -0.5549 -0.0528 -0.3329
  563MOL0     O77559   9.023   2.805   4.214 -0.0283 -0.8976 -0.5181
  563MOL0     C77560   8.956   2.686   4.222  0.5933 -0.1172 -0.4278
  563MOL0     C77561   8.831   2.657   4.182  1.1273 -0.5650 -0.9742
  563MOL0     C77562   8.763   2.542   4.218 -0.2006  0.2490 -0.4506
  563MOL0     C77563   8.830   2.434   4.273  0.3654 -0.6337 -1.0079
  563MOL0     O77564   8.760   2.316   4.299  0.1281  0.8532  1.0943
  563MOL0     C77565   8.803   2.230   4.398  0.4019 -0.6152 -0.0569
  563MOL0     C77566   8.734   2.091   4.397  0.6268 -0.0508  0.4186
  563MOL0     C77567   8.672   2.061   4.528  0.0329  0.4118 -0.2449
  563MOL0     C77568   8.586   1.933   4.512  0.1252 -0.1144 -0.6934
  563MOL0     C77569   8.525   1.886   4.650  0.3561  1.2857 -0.4627
  563MOL0     C77570   8.518   1.726   4.661 -0.1036 -1.5301 -0.3466
  563MOL0     C77571   8.411   1.670   4.760 -0.4536  0.2161 -0.1699
  563MOL0     C77572   8.427   1.515   4.772 -0.4110 -0.5271 -0.1456
  563MOL0     N77573   8.415   1.454   4.643 -0.5552 -0.5420 -0.3303
  563MOL0     C77574   8.510   1.381   4.573 -0.3071  0.4576 -0.2821
  563MOL0     C77575   8.463   1.381   4.452 -0.9252 -0.4036  0.1350
  563MOL0     C77576   8.518   1.293   4.350 -0.2950  0.0338  0.2018
  563MOL0     C77577   8.430   1.162   4.348  0.2810  0.0127  0.5212
  563MOL0     C77578   8.495   1.059   4.261  0.3401  0.1895  0.0161
  563MOL0     C77579   8.446   0.910   4.281  0.2848 -0.4371  0.3081
  563MOL0     O77580   8.518   0.832   4.185  0.4869 -0.3379 -0.6167
  563MOL0     C77581   8.637   0.772   4.218  0.2261  0.8655  0.1677
  563MOL0     C77582   8.711   0.781   4.334  0.6782 -0.1476  0.2749
  563MOL0     C77583   8.830   0.715   4.355  0.7714  0.3155 -0.5837
  563MOL0     C77584   8.878   0.722   4.505 -0.6801 -0.6466 -0.3646
  563MOL0     C77585   8.880   0.625   4.256  0.2850  0.2890  1.2038
  563MOL0     C77586   9.000   0.551   4.272  0.1310  0.6438 -0.5014
  563MOL0     O77587   9.081   0.534   4.160  0.0018  0.5763 -0.3059
  563MOL0     C77588   9.196   0.454   4.153 -0.1332 -0.1950 -0.9999
  563MOL0     C77589   9.256   0.451   4.024 -0.7491  0.3638  0.0958
  563MOL0     C77590   9.380   0.398   4.004  0.0999 -0.6330 -0.1717
  563MOL0     C77591   9.455   0.336   4.100 -0.1354 -1.0386  0.0959
  563MOL0     O77592   9.557   0.251   4.060 -0.1983  0.0776 -0.2833
  563MOL0     C77593   9.647   0.190   4.160 -0.3483  0.4415  0.7216
  563MOL0     C77594   9.764   0.105   4.090  0.2576 -0.9764 -0.1382
  563MOL0     C77595   9.864   0.054   4.188  0.5296  0.2618  0.5612
  563MOL0     C77596   9.978  -0.021   4.118 -1.4232 -0.5468  0.0401
  563MOL0     C77597  10.066  -0.093   4.225 -0.5037 -1.3189 -0.3752
  563MOL0     C77598  10.123  -0.007   4.341 -0.2981 -0.4874  0.2446
  563MOL0     C77599  10.212  -0.097   4.428 -0.8453  0.6344 -0.4185
  563MOL0     C77600  10.286  -0.000   4.514 -0.1966  0.3788 -0.9822
  563MOL0    Cl77601  10.391  -0.073   4.647 -0.4674 -0.1424  0.3272
  563MOL0     C77602   9.403   0.339   4.229 -0.2685 -0.5494 -0.2687
  563MOL0     C77603   9.276   0.389   4.255  0.9672 -0.2732  0.9193
  563MOL0     O77604   9.008   0.488   4.377  0.4771  0.0649 -0.4946
  563MOL0     C77605   8.808   0.611   4.137  0.0958 -0.7672 -0.2316
  563MOL0     C77606   8.690   0.683   4.115  0.0058  1.0410 -0.7320
  563MOL0     N77607   8.338   1.430   4.456 -0.0644  0.1167  0.2199
  563MOL0     N77608   8.309   1.484   4.568  0.0688  0.0899  1.1936
  563MOL0     C77609   8.966   2.458   4.310 -0.7888  0.1509 -1.0454
  563MOL0     C77610   9.021   2.581   4.289 -0.1058 -0.2359  0.4626
  563MOL0     C77611   9.211   2.931   4.110  1.2099 -0.9687  0.6191
  563MOL0     C77612   9.189   3.047   4.197  0.4392 -1.3061  0.1080
  563MOL0     C77613   9.262   3.161   4.188  0.2511  0.4918 -0.7536
  563MOL0     C77614   9.363   3.178   4.099 -0.5412  0.9955  0.2991
  563MOL0     O77615   9.435   3.290   4.106 -0.1696  0.2139 -0.1389
  563MOL0     C77616   9.517   3.331   4.001  0.5806 -1.4393  1.3755
  563MOL0     C77617   9.552   3.476   4.007 -0.4154 -0.5087  1.0302
  563MOL0     C77618   9.654   3.512   4.120  0.6343  0.2461 -0.2229
  563MOL0     C77619   9.786   3.427   4.109  0.1361  0.3324  0.1148
  563MOL0     C77620   9.869   3.479   3.997 -0.0566  1.1379  0.7244
  563MOL0     C77621   9.948   3.534   3.927 -0.3833  0.2431 -0.1532
  563MOL0     C77622   9.379   3.072   4.009  0.1401 -0.5534 -0.4069
  563MOL0     C77623   9.314   2.953   4.014  0.3264  0.8130 -0.7114
  563MOL0     C77624   9.359   2.848   3.917  0.3586  0.6498 -0.4591
  563MOL0     H77625   8.771   2.735   4.134 -1.7278 -1.1764  1.3153
  563MOL0     H77626   8.655   2.534   4.217 -0.2724  0.2790  1.7214
  563MOL0     H77627   8.795   2.281   4.494 -1.8986  2.4410 -1.6936
  563MOL0     H77628   8.906   2.201   4.372  0.9775 -0.1853  1.6394
  563MOL0     H77629   8.656   2.088   4.321 -2.3433  1.8623  3.1448
  563MOL0     H77630   8.810   2.015   4.374  0.8022  0.5648 -1.2190
  563MOL0     H77631   8.758   2.052   4.595  2.2392  1.1745 -2.7963
  563MOL0     H77632   8.607   2.136   4.573 -2.6949 -1.6232 -0.5983
  563MOL0     H77633   8.503   1.947   4.443 -0.0945 -1.5744 -0.7516
  563MOL0     H77634   8.652   1.859   4.465  0.4535 -0.5728  0.4583
  563MOL0     H77635   8.421   1.921   4.640 -0.3606 -0.4295  0.5081
  563MOL0     H77636   8.578   1.926   4.737 -0.8535 -0.7654  1.3611
  563MOL0     H77637   8.499   1.690   4.559  1.2885 -1.3557 -0.7029
  563MOL0     H77638   8.619   1.696   4.691 -0.5036 -0.8506  1.8457
  563MOL0     H77639   8.312   1.709   4.735  0.0617  2.7241  1.2982
  563MOL0     H77640   8.433   1.707   4.861 -1.0773 -1.3961  0.5904
  563MOL0     H77641   8.528   1.500   4.810  0.0268  0.6766 -0.7709
  563MOL0     H77642   8.352   1.474   4.840 -2.1769  1.2511 -0.8979
  563MOL0     H77643   8.604   1.337   4.604  0.5601  1.5860 -1.2396
  563MOL0     H77644   8.624   1.277   4.372 -0.3333 -1.8695 -0.8370
  563MOL0     H77645   8.509   1.338   4.251 -2.3401 -2.4440 -0.8712
  563MOL0     H77646   8.417   1.118   4.447 -1.9940 -2.1189 -0.6211
  563MOL0     H77647   8.329   1.178   4.310 -0.4901 -1.2602  1.9536
  563MOL0     H77648   8.466   1.091   4.161  0.0243  0.4621  0.1905
  563MOL0     H77649   8.603   1.065   4.272  0.1225  1.3748  2.0961
  563MOL0     H77650   8.464   0.877   4.383  2.0491  0.4726  0.3225
  563MOL0     H77651   8.338   0.900   4.263  0.6102  0.0093 -2.3414
  563MOL0     H77652   8.674   0.855   4.404  1.4992 -0.5944  1.2038
  563MOL0     H77653   8.801   0.759   4.573  0.7255 -2.1800  2.2386
  563MOL0     H77654   8.978   0.767   4.504 -0.4515 -1.1516 -0.8225
  563MOL0     H77655   8.893   0.621   4.543 -1.6791 -1.6290 -2.3765
  563MOL0     H77656   9.203   0.494   3.940 -5.9952 -2.0533  1.7454
  563MOL0     H77657   9.418   0.403   3.902 -0.6042  2.4405 -0.3881
  563MOL0     H77658   9.693   0.262   4.228  0.5170  0.9245 -0.3312
  563MOL0     H77659   9.594   0.113   4.216  3.0844 -1.6959  1.3890
  563MOL0     H77660   9.719   0.012   4.056  0.8491 -1.2318 -0.2338
  563MOL0     H77661   9.813   0.163   4.010  0.6344 -3.8314 -2.1143
  563MOL0     H77662   9.812  -0.017   4.252 -1.5951  0.2913 -1.0253
  563MOL0     H77663   9.900   0.138   4.249 -3.1268  1.2000  1.6810
  563MOL0     H77664  10.045   0.048   4.066 -1.3653 -2.3898 -2.5077
  563MOL0     H77665   9.944  -0.088   4.039  0.3765 -0.7754 -0.5837
  563MOL0     H77666  10.006  -0.179   4.255 -0.2644 -1.7514 -1.1176
  563MOL0     H77667  10.154  -0.128   4.170 -0.9459  1.4948 -3.1361
  563MOL0     H77668  10.045   0.041   4.401 -1.2219 -1.0595 -0.4731
  563MOL0     H77669  10.181   0.075   4.297 -0.7309 -0.6111 -0.5714
  563MOL0     H77670  10.292  -0.139   4.366  1.2964  1.5501  1.5621
  563MOL0     H77671  10.164  -0.167   4.497  0.1321  1.2975  0.9781
  563MOL0     H77672  10.209   0.051   4.572  1.1411  0.7058  0.5982
  563MOL0     H77673  10.344   0.074   4.460 -1.0211  1.2189 -0.7382
  563MOL0     H77674   9.459   0.292   4.309  3.4651 -0.6063 -2.7120
  563MOL0     H77675   9.234   0.393   4.355  1.3675  0.0841  1.0790
  563MOL0     H77676   8.845   0.554   4.052  3.2373  0.3633  0.2695
  563MOL0     H77677   8.636   0.669   4.022  2.5287 -3.1175 -1.8216
  563MOL0     H77678   9.015   2.378   4.364 -1.0746  0.8173  0.2353
  563MOL0     H77679   9.122   2.595   4.326 -0.1613 -1.9590  1.3624
  563MOL0     H77680   9.114   3.056   4.275 -1.8167  2.3897 -2.1572
  563MOL0     H77681   9.233   3.238   4.259 -2.6075 -0.5273 -0.6794
  563MOL0     H77682   9.614   3.283   3.987  1.7314  1.0992 -0.1514
  563MOL0     H77683   9.470   3.321   3.903  1.9914  0.6726  0.4017
  563MOL0     H77684   9.462   3.538   4.012 -0.4376 -0.4330 -0.2166
  563MOL0     H77685   9.609   3.514   3.922  2.4696 -0.0513  2.9916
  563MOL0     H77686   9.689   3.615   4.108 -2.2187  1.4419  0.8121
  563MOL0     H77687   9.603   3.494   4.214  1.9841 -0.2868  0.4255
  563MOL0     H77688   9.776   3.318   4.107 -0.6460  0.3973 -1.6177
  563MOL0     H77689   9.844   3.463   4.194  0.1813  2.4961 -0.7786
  563MOL0     H77690  10.026   3.576   3.867 -0.7559  1.2432  0.0279
  563MOL0     H77691   9.459   3.096   3.939  0.1083 -2.8417 -1.3192
  563MOL0     H77692   9.445   2.885   3.861  0.4030 -0.0239 -0.8381
  563MOL0     H77693   9.387   2.760   3.976 -1.8860  1.0392  1.2921
  563MOL0     H77694   9.281   2.818   3.848  0.2439  0.9292 -0.4524
  564MOL0     O77695   0.232   4.155  10.684  0.8285  0.6282 -0.3466
  564MOL0     C77696   0.248   4.049  10.752  1.5383 -0.3612 -0.1048
  564MOL0     O77697   0.353   3.966  10.745  0.5490  0.4084  0.5050
  564MOL0     C77698   0.467   3.999  10.686  0.4517  0.1589 -0.1057
  564MOL0     C77699   0.572   3.993  10.771 -0.0623  1.2882 -0.7768
  564MOL0     C77700   0.705   4.016  10.729  0.5855 -0.1045 -0.3556
  564MOL0     C77701   0.729   4.031  10.592 -0.2159 -0.4416  0.4612
  564MOL0     O77702   0.856   4.027  10.535  0.3842 -0.7329 -0.2177
  564MOL0     C77703   0.971   4.019  10.619 -0.2532  0.1739 -0.3343
  564MOL0     C77704   1.098   3.983  10.546  0.6306  0.2526  0.9842
  564MOL0     C77705   1.227   4.017  10.625  0.3136 -0.1751  0.4410
  564MOL0     C77706   1.231   3.939  10.757  0.2467 -0.8271  0.2376
  564MOL0     C77707   1.371   3.943  10.830  0.3519 -0.3600 -0.1455
  564MOL0     C77708   1.385   3.822  10.919 -0.0519  0.8029  0.7563
  564MOL0     C77709   1.526   3.791  10.964  0.2186  0.5795 -0.6746
  564MOL0     C77710   1.526   3.701  11.094  0.9494  0.1135 -0.5927
  564MOL0     N77711   1.655   3.693  11.166 -0.6975 -0.5729  0.7180
  564MOL0     C77712   1.714   3.787  11.246  0.8790  0.0050  0.4825
  564MOL0     C77713   1.820   3.729  11.302  0.0301  1.3841 -0.5011
  564MOL0     C77714   1.921   3.784  11.399 -0.0899  0.0170  0.1105
  564MOL0     C77715   2.058   3.791  11.346 -0.5423  0.2418  1.3497
  564MOL0     C77716   2.084   3.898  11.236  0.4360  0.6068  0.1005
  564MOL0     C77717   2.219   3.876  11.174  0.2357  0.9680 -0.2735
  564MOL0     O77718   2.216   3.755  11.090  0.3521 -0.7025  0.8095
  564MOL0     C77719   2.116   3.751  10.989  0.9608 -0.1846  0.2642
  564MOL0     C77720   2.127   3.855  10.892 -0.2760 -0.5623  0.4056
  564MOL0     C77721   2.048   3.846  10.779  0.4518 -0.1297  0.2622
  564MOL0     C77722   2.080   3.941  10.666 -0.2022  0.1298  0.1301
  564MOL0     C77723   1.947   3.749  10.756  0.0995  0.5717 -0.0107
  564MOL0     C77724   1.851   3.745  10.643  0.2029 -0.4855 -0.4482
  564MOL0     O77725   1.797   3.623  10.628 -0.7160  0.0038 -0.0945
  564MOL0     C77726   1.717   3.615  10.511 -0.6682  0.2623  0.1257
  564MOL0     C77727   1.584   3.652  10.517  0.5628 -0.0822  0.4629
  564MOL0     C77728   1.504   3.630  10.406  0.6207 -0.5168 -0.5397
  564MOL0     C77729   1.562   3.589  10.286 -0.1598 -0.2662 -0.0349
  564MOL0     O77730   1.481   3.560  10.175 -0.3694  0.0906  1.1742
  564MOL0     C77731   1.531   3.536  10.047 -0.9848  0.4725  0.0735
  564MOL0     C77732   1.426   3.519   9.938 -0.3850 -0.3023  0.3834
  564MOL0     C77733   1.346   3.650   9.929  0.4357  0.7963  0.3356
  564MOL0     C77734   1.366   3.736   9.808 -0.0957  0.2105  0.2565
  564MOL0     C77735   1.341   3.654   9.680  0.7139 -0.1834 -0.6464
  564MOL0     C77736   1.219   3.687   9.599  0.0144  0.2052  0.4503
  564MOL0     C77737   1.089   3.655   9.678 -0.5872  0.1285 -0.2748
  564MOL0     C77738   0.973   3.639   9.592 -0.3990  0.0169  0.7948
  564MOL0    Cl77739   0.838   3.599   9.703  0.2141 -0.2750  0.0121
  564MOL0     C77740   1.694   3.555  10.286  0.2231 -0.0700  0.2102
  564MOL0     C77741   1.771   3.563  10.397 -0.1713 -0.3715  0.6539
  564MOL0     O77742   1.814   3.850  10.598 -0.2981 -0.7198  0.8236
  564MOL0     C77743   1.921   3.662  10.869  0.5548 -0.4128  0.3829
  564MOL0     C77744   2.012   3.660  10.976  0.6989 -0.6340 -0.7376
  564MOL0     N77745   1.829   3.609  11.246 -0.1774 -0.1003  0.7771
  564MOL0     N77746   1.737   3.581  11.165  0.1289 -0.5545 -0.6122
  564MOL0     C77747   0.620   4.035  10.503  0.0647  0.4194 -0.5529
  564MOL0     C77748   0.485   4.022  10.551  0.0838  0.7917 -0.6371
  564MOL0     C77749   0.137   4.027  10.851 -1.1519  1.0009  0.4203
  564MOL0     C77750   0.159   3.944  10.971 -0.5308  0.0183 -0.5472
  564MOL0     C77751   0.055   3.896  11.052  0.1692 -0.2433 -0.3153
  564MOL0     C77752  -0.082   3.928  11.017 -0.7871  0.0885 -0.3650
  564MOL0     O77753  -0.192   3.884  11.083 -0.1429  0.0187 -0.0541
  564MOL0     C77754  -0.183   3.825  11.212 -0.7210 -0.5813  0.3483
  564MOL0     C77755  -0.309   3.748  11.240 -0.7995 -0.3810  1.2405
  564MOL0     C77756  -0.433   3.807  11.186  1.3026 -1.1905 -0.1584
  564MOL0     C77757  -0.474   3.956  11.217 -0.1397 -0.3691 -1.3710
  564MOL0     C77758  -0.491   3.981  11.361  0.7308  0.4008 -0.1006
  564MOL0     C77759  -0.508   4.000  11.480  0.2052  0.3368  0.2210
  564MOL0     C77760  -0.102   4.012  10.903 -0.4673  0.2843  0.5363
  564MOL0     C77761  -0.001   4.056  10.822 -0.2279 -0.3436  0.4545
  564MOL0     C77762  -0.053   4.139  10.706  0.4498 -1.0585 -0.6695
  564MOL0     H77763   0.555   3.993  10.878 -1.7505 -1.7324 -0.9447
  564MOL0     H77764   0.787   4.032  10.797  1.3646  1.5824 -1.6326
  564MOL0     H77765   0.952   3.955  10.706 -1.0799  0.5407 -0.2280
  564MOL0     H77766   1.000   4.121  10.647  1.0224  0.2459 -1.7598
  564MOL0     H77767   1.088   3.890  10.489 -2.9281  0.8286  0.3949
  564MOL0     H77768   1.102   4.046  10.456 -3.2971  1.0357  1.1670
  564MOL0     H77769   1.311   3.979  10.567 -1.1271 -0.1837 -1.7765
  564MOL0     H77770   1.235   4.123  10.652 -0.1162 -0.1840  0.6139
  564MOL0     H77771   1.150   3.978  10.820 -0.7312  1.2084 -2.0983
  564MOL0     H77772   1.210   3.833  10.745 -0.8948 -0.5652 -0.1628
  564MOL0     H77773   1.368   4.034  10.891 -2.8404 -0.2708 -0.2874
  564MOL0     H77774   1.454   3.951  10.759 -0.0590  0.1142 -0.5812
  564MOL0     H77775   1.322   3.839  11.007 -1.6005  0.6450 -0.2809
  564MOL0     H77776   1.354   3.727  10.875  1.3667  1.1467 -1.0999
  564MOL0     H77777   1.581   3.878  11.002 -1.3035 -0.4489  4.7262
  564MOL0     H77778   1.581   3.742  10.883 -1.3348 -1.3977 -0.6089
  564MOL0     H77779   1.444   3.733  11.159  0.4882 -3.0284  0.5386
  564MOL0     H77780   1.504   3.600  11.059 -2.1808  1.2050 -2.1263
  564MOL0     H77781   1.670   3.883  11.272  2.9074  1.1425 -0.0195
  564MOL0     H77782   1.938   3.709  11.477  2.4916 -3.2414 -3.2214
  564MOL0     H77783   1.892   3.885  11.427  3.5992  1.6878 -1.4850
  564MOL0     H77784   2.132   3.818  11.423  2.5531  0.5524 -1.5146
  564MOL0     H77785   2.083   3.688  11.319  0.9890  0.7459  0.7312
  564MOL0     H77786   2.005   3.898  11.161 -0.7134 -1.9190  1.1832
  564MOL0     H77787   2.089   3.996  11.285  0.9753  0.8151 -0.3567
  564MOL0     H77788   2.251   3.968  11.125  0.2766  2.5718  2.5375
  564MOL0     H77789   2.287   3.864  11.259 -0.8317  0.6552  0.5519
  564MOL0     H77790   2.197   3.937  10.906  0.5189 -1.1250 -0.1700
  564MOL0     H77791   2.083   3.883  10.573  2.4853  0.5962 -0.1758
  564MOL0     H77792   2.183   3.977  10.679  1.1061 -2.2194 -2.5776
  564MOL0     H77793   2.012   4.025  10.655 -0.7889 -0.2061  1.0800
  564MOL0     H77794   1.534   3.689  10.606  0.2152  2.5683 -0.7418
  564MOL0     H77795   1.397   3.650  10.403  0.8480  0.7617 -2.3902
  564MOL0     H77796   1.591   3.622  10.019 -0.8487 -0.2395 -2.0019
  564MOL0     H77797   1.583   3.440  10.040 -0.7013  0.7401 -3.0459
  564MOL0     H77798   1.470   3.491   9.841 -0.9129  0.8010 -0.1950
  564MOL0     H77799   1.351   3.446   9.969 -2.0847  1.0257 -0.4313
  564MOL0     H77800   1.378   3.711  10.014  1.3858  2.1939 -0.9948
  564MOL0     H77801   1.240   3.630   9.947  0.4174 -0.7671 -1.2306
  564MOL0     H77802   1.462   3.789   9.808  0.3525 -0.5029 -2.1442
  564MOL0     H77803   1.296   3.821   9.804  1.9823  1.9639 -2.0052
  564MOL0     H77804   1.419   3.688   9.611  1.2906  0.3413  0.2318
  564MOL0     H77805   1.346   3.545   9.688 -0.8952 -0.1476  1.7772
  564MOL0     H77806   1.230   3.625   9.510 -3.7196  1.7276 -1.2695
  564MOL0     H77807   1.208   3.794   9.577  0.4808  0.4074  1.1652
  564MOL0     H77808   1.069   3.737   9.748  0.7253  1.5896 -1.5267
  564MOL0     H77809   1.087   3.562   9.736 -0.0360 -1.5066 -2.7422
  564MOL0     H77810   0.991   3.556   9.524  1.0094  0.7344  0.2468
  564MOL0     H77811   0.951   3.735   9.545  1.5760  1.0927  1.8952
  564MOL0     H77812   1.749   3.510  10.204  0.0911  0.8745 -0.4179
  564MOL0     H77813   1.872   3.526  10.389  0.3011  0.6253  1.7814
  564MOL0     H77814   1.830   3.604  10.873  2.4258 -3.6154  0.4532
  564MOL0     H77815   1.995   3.590  11.057  3.6190  0.3777  0.8949
  564MOL0     H77816   0.639   4.060  10.399  0.4805  2.5022 -0.0306
  564MOL0     H77817   0.406   4.002  10.480 -2.4603  2.7792  1.4702
  564MOL0     H77818   0.262   3.918  10.992  0.3478  1.3032 -2.8535
  564MOL0     H77819   0.084   3.842  11.141 -1.5562  0.2851  0.6076
  564MOL0     H77820  -0.094   3.764  11.226  0.6950  1.3985  0.3276
  564MOL0     H77821  -0.186   3.908  11.284  1.8345  1.1630 -1.4094
  564MOL0     H77822  -0.323   3.733  11.347 -2.2109  2.0262  1.4715
  564MOL0     H77823  -0.294   3.649  11.196  0.1313  1.2166 -2.4936
  564MOL0     H77824  -0.420   3.784  11.080 -0.4776 -2.7228 -0.1179
  564MOL0     H77825  -0.517   3.747  11.225  0.5653 -1.9679 -2.7291
  564MOL0     H77826  -0.566   3.975  11.161  0.5333 -0.3661 -2.5125
  564MOL0     H77827  -0.391   4.022  11.189  0.2564  0.2036  0.9247
  564MOL0     H77828  -0.512   4.010  11.587  3.7271 -1.8321  0.7343
  564MOL0     H77829  -0.206   4.039  10.885  0.0130  2.8336  1.2249
  564MOL0     H77830  -0.161   4.147  10.721  0.8112  0.3228  1.5989
  564MOL0     H77831  -0.014   4.241  10.707  0.0326 -0.8802 -1.4737
  564MOL0     H77832  -0.034   4.094  10.608  0.5936  3.7917 -3.1546
  565MOL0     O77833   1.784  11.366   7.999 -0.4943 -0.2173 -0.1976
  565MOL0     C77834   1.688  11.436   8.026  0.1147 -0.7655  0.2690
  565MOL0     O77835   1.679  11.515   8.139  0.6251 -0.1858  0.4569
  565MOL0     C77836   1.779  11.528   8.234 -0.4398  0.9897 -1.6301
  565MOL0     C77837   1.729  11.546   8.361  0.5853  0.6237  0.0747
  565MOL0     C77838   1.810  11.575   8.465  0.0835 -0.3776 -0.3004
  565MOL0     C77839   1.953  11.586   8.442 -0.6318  0.2886 -0.3989
  565MOL0     O77840   2.048  11.633   8.539 -0.3763 -0.2454  0.1503
  565MOL0     C77841   2.038  11.574   8.667 -0.5970 -0.1086  0.7057
  565MOL0     C77842   2.165  11.609   8.742 -0.2017 -0.6165  0.1389
  565MOL0     C77843   2.297  11.556   8.684 -0.2118  0.4124  1.2355
  565MOL0     C77844   2.412  11.578   8.778 -0.5188  0.4037  0.5830
  565MOL0     C77845   2.555  11.562   8.703 -0.1983 -0.1840 -0.0413
  565MOL0     C77846   2.580  11.413   8.669  0.9043 -0.8747  0.1420
  565MOL0     C77847   2.725  11.389   8.625  0.2613  0.3956  0.6979
  565MOL0     C77848   2.761  11.239   8.630  0.0313  0.2783  0.0008
  565MOL0     N77849   2.670  11.154   8.557  0.0920  0.4447  0.2023
  565MOL0     C77850   2.619  11.172   8.429  0.1016  0.3684 -0.1761
  565MOL0     C77851   2.532  11.067   8.421 -0.3586  0.1983  0.4912
  565MOL0     C77852   2.451  11.020   8.309  0.9859  0.5093  1.1760
  565MOL0     C77853   2.528  10.924   8.210  0.0220 -0.1794 -0.3695
  565MOL0     C77854   2.657  10.993   8.160 -1.1270 -0.2846 -0.3516
  565MOL0     C77855   2.727  10.912   8.049  0.4322  0.0005  0.1720
  565MOL0     O77856   2.652  10.924   7.919 -0.2464 -0.5794 -0.1763
  565MOL0     C77857   2.701  10.863   7.812  0.0776 -0.3162 -0.9593
  565MOL0     C77858   2.615  10.861   7.712  0.5617 -0.2635 -0.6738
  565MOL0     C77859   2.639  10.837   7.580 -1.3386 -1.5150 -0.1657
  565MOL0     C77860   2.528  10.860   7.488  0.1479  0.7395 -0.1458
  565MOL0     C77861   2.769  10.783   7.549 -0.1335  0.6459 -0.6693
  565MOL0     C77862   2.800  10.741   7.411  0.9550  0.6663 -0.2721
  565MOL0     O77863   2.732  10.798   7.304  0.8425  0.5152 -0.2008
  565MOL0     C77864   2.711  10.735   7.183 -0.8092  0.3862 -0.2220
  565MOL0     C77865   2.663  10.605   7.190 -0.1495  0.4833  0.5734
  565MOL0     C77866   2.623  10.545   7.062  0.1473 -0.7456 -1.5437
  565MOL0     C77867   2.635  10.609   6.940 -0.2752 -0.0535  0.8905
  565MOL0     O77868   2.596  10.559   6.815  0.2901 -0.5724  0.1347
  565MOL0     C77869   2.621  10.419   6.787 -0.6066 -0.4635  0.2500
  565MOL0     C77870   2.772  10.397   6.756  0.6406 -0.1265  0.7184
  565MOL0     C77871   2.819  10.445   6.616  0.7247 -0.2116  0.0121
  565MOL0     C77872   2.812  10.343   6.495  0.0943 -0.5017 -0.0742
  565MOL0     C77873   2.902  10.400   6.389 -0.2070  0.2415 -0.3407
  565MOL0     C77874   2.900  10.323   6.259 -0.3066 -0.1840 -0.1810
  565MOL0     C77875   2.908  10.166   6.277 -0.9186 -0.4714 -1.5278
  565MOL0     C77876   2.899  10.086   6.143  0.2623 -0.0112 -0.6613
  565MOL0    Cl77877   3.050  10.038   6.084 -0.0096  0.0223  0.1065
  565MOL0     C77878   2.698  10.731   6.945 -0.6791 -0.3615 -0.0407
  565MOL0     C77879   2.730  10.792   7.060 -0.2880  1.0127 -0.1540
  565MOL0     O77880   2.887  10.657   7.398 -0.4287  0.3146  1.0525
  565MOL0     C77881   2.860  10.757   7.662  0.7511 -0.2677  0.1914
  565MOL0     C77882   2.827  10.804   7.790  0.5698 -0.4900  0.3564
  565MOL0     N77883   2.527  10.998   8.543  0.1979  0.2382  0.2764
  565MOL0     N77884   2.617  11.053   8.620  0.2493 -0.1371  0.3708
  565MOL0     C77885   2.007  11.563   8.321  0.3042  0.1271 -0.7938
  565MOL0     C77886   1.919  11.527   8.212 -0.8899 -0.9421 -0.1814
  565MOL0     C77887   1.574  11.448   7.936 -0.1736  1.2204 -0.3517
  565MOL0     C77888   1.454  11.495   8.004  0.1495  0.0428  1.0192
  565MOL0     C77889   1.341  11.510   7.932 -0.0572 -0.4148  0.6180
  565MOL0     C77890   1.333  11.497   7.795  0.4492  0.6826 -0.1532
  565MOL0     O77891   1.210  11.509   7.734  1.0657  1.2019 -0.6689
  565MOL0     C77892   1.154  11.404   7.651  0.0782 -0.7820  0.1648
  565MOL0     C77893   1.130  11.465   7.511 -0.8682 -0.6818  1.2207
  565MOL0     C77894   1.057  11.391   7.399 -0.6226  0.4612  1.1979
  565MOL0     C77895   1.133  11.377   7.269  0.7214 -0.4370 -0.0602
  565MOL0     C77896   1.226  11.277   7.267 -0.2053  0.6657  1.0470
  565MOL0     C77897   1.293  11.173   7.261  0.1341 -0.0982  0.7212
  565MOL0     C77898   1.457  11.457   7.729  0.0915  0.0960 -0.3489
  565MOL0     C77899   1.579  11.429   7.799 -0.4097 -0.9833  0.7217
  565MOL0     C77900   1.701  11.392   7.709 -0.2453  0.0399  0.4594
  565MOL0     H77901   1.621  11.533   8.362  0.4671  1.4631  1.7082
  565MOL0     H77902   1.758  11.586   8.560  1.2010  1.8202  0.1052
  565MOL0     H77903   2.023  11.468   8.649 -3.1349  0.8393 -4.9370
  565MOL0     H77904   1.951  11.620   8.715  0.2144  1.6645  0.5638
  565MOL0     H77905   2.168  11.719   8.745 -1.3528 -0.5780  0.4407
  565MOL0     H77906   2.157  11.567   8.843  2.4790 -2.6787 -0.3943
  565MOL0     H77907   2.283  11.454   8.649 -0.3025  1.2775 -1.4532
  565MOL0     H77908   2.331  11.606   8.593  1.2939  0.6302  1.8809
  565MOL0     H77909   2.399  11.671   8.833 -1.1300  0.3087  0.6069
  565MOL0     H77910   2.412  11.503   8.858  2.8943 -0.3081  0.0783
  565MOL0     H77911   2.637  11.593   8.769 -2.0616  1.8546  1.4736
  565MOL0     H77912   2.571  11.613   8.608  3.8950 -0.0948  0.4847
  565MOL0     H77913   2.577  11.361   8.765 -0.0816  0.9895  1.1842
  565MOL0     H77914   2.512  11.361   8.601  0.3868 -0.6414  0.4708
  565MOL0     H77915   2.792  11.450   8.686  0.8584 -0.0875  0.5313
  565MOL0     H77916   2.732  11.419   8.520 -0.0126 -3.2845 -0.5484
  565MOL0     H77917   2.865  11.224   8.600  0.2419  0.0490  0.8079
  565MOL0     H77918   2.754  11.206   8.734  1.0464 -0.7637 -0.2437
  565MOL0     H77919   2.648  11.250   8.359 -0.3174  3.5920  2.9685
  565MOL0     H77920   2.406  11.101   8.252  0.7087 -0.1011  0.5023
  565MOL0     H77921   2.359  10.973   8.345 -0.4230  2.4019  0.1957
  565MOL0     H77922   2.553  10.836   8.270  0.8448  0.2505 -0.0449
  565MOL0     H77923   2.471  10.901   8.120 -0.0679 -0.8980 -0.1277
  565MOL0     H77924   2.650  11.093   8.117  1.0149  0.0417 -0.0324
  565MOL0     H77925   2.732  10.990   8.240 -0.0441  2.3277 -1.1700
  565MOL0     H77926   2.826  10.951   8.022  1.3022 -2.0200  0.2990
  565MOL0     H77927   2.734  10.816   8.100  1.5814 -0.0288 -0.0308
  565MOL0     H77928   2.514  10.890   7.741  0.2811  0.3488 -2.1797
  565MOL0     H77929   2.498  10.774   7.428 -1.5972  1.9463 -1.0835
  565MOL0     H77930   2.554  10.932   7.410 -0.6774 -0.5124 -1.6142
  565MOL0     H77931   2.436  10.901   7.532 -0.6216  0.0863 -1.0991
  565MOL0     H77932   2.650  10.548   7.281 -1.1607  2.4499  1.7383
  565MOL0     H77933   2.565  10.453   7.063  1.0197 -1.3122 -2.1227
  565MOL0     H77934   2.598  10.351   6.870 -0.1401 -0.5366  0.3191
  565MOL0     H77935   2.559  10.379   6.706  0.3538  0.3880 -0.9465
  565MOL0     H77936   2.842  10.439   6.829  1.9864  1.9746 -1.6086
  565MOL0     H77937   2.782  10.288   6.759  0.0197 -0.2820 -1.3246
  565MOL0     H77938   2.921  10.483   6.624  1.1693 -1.5694  1.3539
  565MOL0     H77939   2.757  10.533   6.599  1.5206  0.3503 -0.0145
  565MOL0     H77940   2.715  10.319   6.452 -0.2467 -3.7268  2.1501
  565MOL0     H77941   2.870  10.257   6.529  1.9208  1.1126  1.1448
  565MOL0     H77942   2.872  10.503   6.369  0.0124  0.4353  0.3160
  565MOL0     H77943   3.007  10.390   6.417 -0.5487  0.4898  1.1044
  565MOL0     H77944   2.980  10.370   6.201 -1.8521  1.9825 -0.6818
  565MOL0     H77945   2.803  10.338   6.212  0.4111  2.9233 -0.8876
  565MOL0     H77946   2.823  10.134   6.337  0.8454 -0.3212  1.1922
  565MOL0     H77947   3.001  10.146   6.331 -1.8538 -1.6031 -0.2882
  565MOL0     H77948   2.853  10.140   6.060 -0.4622 -1.5338 -1.2909
  565MOL0     H77949   2.837   9.997   6.161 -0.5513  0.5297 -0.7534
  565MOL0     H77950   2.717  10.785   6.853 -1.7162  1.1234  0.5745
  565MOL0     H77951   2.757  10.897   7.064  2.2862  0.5552 -2.2520
  565MOL0     H77952   2.957  10.712   7.640  0.4188 -0.5214 -0.8098
  565MOL0     H77953   2.902  10.785   7.866  2.8851 -1.6109 -2.0406
  565MOL0     H77954   2.115  11.573   8.316  0.5636 -1.2177  0.9826
  565MOL0     H77955   1.961  11.515   8.113  1.6478  1.6634  0.4383
  565MOL0     H77956   1.458  11.528   8.108 -0.8482  0.5733  0.8994
  565MOL0     H77957   1.251  11.543   7.983  0.2670  0.0952  0.8716
  565MOL0     H77958   1.210  11.310   7.644 -0.1002 -0.8236 -1.0361
  565MOL0     H77959   1.054  11.383   7.689 -1.8441  4.6697 -0.9670
  565MOL0     H77960   1.233  11.488   7.480 -0.2024 -2.9580  1.5478
  565MOL0     H77961   1.068  11.552   7.532 -0.5230 -0.4158  1.1472
  565MOL0     H77962   1.032  11.293   7.440  0.3908 -0.5172 -0.4224
  565MOL0     H77963   0.959  11.435   7.380 -0.3359  0.7054  0.2330
  565MOL0     H77964   1.180  11.474   7.249  2.0322 -0.7316  1.3865
  565MOL0     H77965   1.053  11.348   7.201  1.5972  1.5427 -2.0544
  565MOL0     H77966   1.359  11.089   7.263 -1.0352 -1.1271 -0.7690
  565MOL0     H77967   1.459  11.450   7.620 -0.7671  1.5659 -0.4886
  565MOL0     H77968   1.780  11.468   7.713 -0.3097  0.1157  0.3002
  565MOL0     H77969   1.744  11.302   7.754  2.2696  1.5467  1.3299
  565MOL0     H77970   1.667  11.359   7.611 -0.7143  0.2849  0.5381
  566MOL0     O77971   6.525   1.003   1.396 -0.1674 -0.5342  0.1887
  566MOL0     C77972   6.580   1.086   1.328  0.3579  0.5970 -0.0611
  566MOL0     O77973   6.514   1.191   1.261 -0.1832  0.0403 -0.3611
  566MOL0     C77974   6.380   1.177   1.233  0.1395  0.8118 -0.7878
  566MOL0     C77975   6.331   1.068   1.155 -0.1461  0.7550  0.0706
  566MOL0     C77976   6.192   1.050   1.145 -0.2428 -0.1524 -0.2328
  566MOL0     C77977   6.109   1.130   1.215 -0.8150 -0.5159 -0.3268
  566MOL0     O77978   5.970   1.119   1.215  0.1574  0.7372 -0.2256
  566MOL0     C77979   5.910   1.012   1.139 -0.3532  0.1373  0.2337
  566MOL0     C77980   5.756   1.011   1.167 -0.3298 -0.1574 -0.1252
  566MOL0     C77981   5.702   0.922   1.288  0.4246  0.0583 -0.5754
  566MOL0     C77982   5.653   0.789   1.246 -0.6633  0.4571  0.2938
  566MOL0     C77983   5.647   0.688   1.371  0.3958  0.4511  0.2265
  566MOL0     C77984   5.609   0.548   1.338  0.0848 -0.1350 -0.0212
  566MOL0     C77985   5.629   0.445   1.459 -0.0514  0.2272  0.9298
  566MOL0     C77986   5.585   0.307   1.425 -0.3703  0.5709  0.1865
  566MOL0     N77987   5.611   0.242   1.552 -0.0913  0.1095 -0.5219
  566MOL0     C77988   5.736   0.200   1.596 -0.3854 -0.3132 -0.5468
  566MOL0     C77989   5.723   0.151   1.723  0.5287 -0.3535 -0.2192
  566MOL0     C77990   5.823   0.096   1.830  0.0390 -0.5722 -0.4664
  566MOL0     C77991   5.885   0.213   1.919 -0.6943  1.1840  0.4193
  566MOL0     C77992   6.024   0.171   1.975  0.4058 -0.1892  1.0388
  566MOL0     C77993   6.088   0.283   2.062 -0.0986 -0.8302 -0.8287
  566MOL0     O77994   6.224   0.253   2.107 -0.0345  0.0852  0.4184
  566MOL0     C77995   6.337   0.308   2.044 -0.0487  0.4237  0.1061
  566MOL0     C77996   6.451   0.272   2.105  0.3935  0.2227  0.9429
  566MOL0     C77997   6.575   0.326   2.050  0.2974  0.3773  0.1822
  566MOL0     C77998   6.701   0.283   2.125  0.2508 -0.0666 -0.3791
  566MOL0     C77999   6.581   0.408   1.940 -0.7083  0.6179 -0.1262
  566MOL0     C78000   6.698   0.470   1.886 -0.7171 -0.2380  1.0735
  566MOL0     O78001   6.695   0.520   1.752  1.3709 -0.0603 -0.9109
  566MOL0     C78002   6.813   0.572   1.712 -0.3424  0.8825 -1.0022
  566MOL0     C78003   6.814   0.713   1.693 -0.9452  0.3647  0.8226
  566MOL0     C78004   6.943   0.772   1.653 -0.2526  0.1910 -0.9208
  566MOL0     C78005   7.053   0.688   1.608  0.2489 -0.3599  0.0958
  566MOL0     O78006   7.176   0.723   1.563  0.1059  0.3415  0.5938
  566MOL0     C78007   7.232   0.834   1.624  0.0291  0.0943  0.0664
  566MOL0     C78008   7.386   0.828   1.594 -0.4996 -0.8529 -0.1582
  566MOL0     C78009   7.434   0.973   1.601 -0.8556 -0.7518 -0.3362
  566MOL0     C78010   7.544   1.006   1.500 -0.2500 -0.3864  0.4161
  566MOL0     C78011   7.677   0.936   1.545  0.2920  0.0368 -0.1891
  566MOL0     C78012   7.714   0.948   1.694 -0.2729 -0.4114 -0.0376
  566MOL0     C78013   7.866   0.919   1.742 -0.6490 -0.6647  0.3762
  566MOL0     C78014   7.866   0.901   1.892  0.5785  0.2547  0.9730
  566MOL0    Cl78015   7.789   0.741   1.928  0.1182  0.9794  0.4563
  566MOL0     C78016   7.035   0.556   1.623 -0.3957 -0.0069 -0.2141
  566MOL0     C78017   6.918   0.498   1.672 -0.4471 -0.1944  0.5480
  566MOL0     O78018   6.794   0.484   1.961  0.7101  0.6165 -0.1105
  566MOL0     C78019   6.455   0.439   1.879 -0.2078 -0.2044 -0.2479
  566MOL0     C78020   6.337   0.398   1.934 -0.4892  0.1323 -0.1188
  566MOL0     N78021   5.589   0.154   1.748 -0.3022  0.0764 -0.5675
  566MOL0     N78022   5.522   0.210   1.650 -0.1845  0.7183 -0.6317
  566MOL0     C78023   6.159   1.234   1.300  1.2455 -0.0940  0.6402
  566MOL0     C78024   6.291   1.253   1.308  0.2533  0.2521 -0.3860
  566MOL0     C78025   6.726   1.082   1.337 -0.3569 -0.7966 -0.5595
  566MOL0     C78026   6.802   1.205   1.330 -0.0406  0.4607  0.1689
  566MOL0     C78027   6.935   1.192   1.321  0.4760  0.2453  0.0250
  566MOL0     C78028   7.010   1.077   1.329  0.1328  0.3812  0.4231
  566MOL0     O78029   7.146   1.098   1.341 -0.5027  0.7992 -0.4966
  566MOL0     C78030   7.229   0.995   1.278  1.0999 -0.0435 -0.7422
  566MOL0     C78031   7.335   1.064   1.194 -0.1505  0.2682  0.5892
  566MOL0     C78032   7.361   1.212   1.238  0.3911 -0.1954  0.1706
  566MOL0     C78033   7.483   1.270   1.157 -0.7716 -0.2534  0.7299
  566MOL0     C78034   7.494   1.413   1.190  0.1198  0.0931 -1.5378
  566MOL0     C78035   7.490   1.528   1.235 -0.0749  0.2067 -0.6145
  566MOL0     C78036   6.941   0.953   1.331 -0.6456  0.7388  0.1420
  566MOL0     C78037   6.799   0.956   1.330  0.7592 -0.1539  0.2584
  566MOL0     C78038   6.722   0.829   1.309 -0.2810  0.5887  1.0583
  566MOL0     H78039   6.408   1.001   1.117 -0.4579  0.8025 -0.6558
  566MOL0     H78040   6.151   0.977   1.076 -1.6227  1.4792 -1.2397
  566MOL0     H78041   5.959   0.921   1.173 -2.8694 -1.3173  0.2095
  566MOL0     H78042   5.918   1.016   1.030 -0.1455 -0.6354  0.2177
  566MOL0     H78043   5.727   1.116   1.183 -1.0908 -0.2561 -0.7692
  566MOL0     H78044   5.704   0.979   1.076 -1.1283  2.7801 -0.8273
  566MOL0     H78045   5.781   0.910   1.363 -1.0344 -3.0410  0.6278
  566MOL0     H78046   5.625   0.974   1.347  2.4312 -0.0806  2.3804
  566MOL0     H78047   5.560   0.796   1.190  1.2016  0.7163 -3.0287
  566MOL0     H78048   5.722   0.755   1.169 -2.7198 -3.0727 -0.2439
  566MOL0     H78049   5.585   0.730   1.451 -1.5212  0.5250 -1.2240
  566MOL0     H78050   5.749   0.683   1.410  0.6534  0.8687 -0.3634
  566MOL0     H78051   5.505   0.547   1.303 -0.2065 -4.2549  0.4695
  566MOL0     H78052   5.674   0.524   1.254  0.0305  1.4366 -0.5450
  566MOL0     H78053   5.577   0.488   1.545 -0.2426 -1.8026  1.8934
  566MOL0     H78054   5.737   0.436   1.475  0.1346  1.0370  0.2135
  566MOL0     H78055   5.476   0.304   1.418 -0.6765  1.7916  3.0347
  566MOL0     H78056   5.634   0.261   1.338  0.3143  0.8411  0.4230
  566MOL0     H78057   5.829   0.206   1.541  0.8481  2.8217  1.5540
  566MOL0     H78058   5.899   0.043   1.772  2.3082  0.1875  1.6122
  566MOL0     H78059   5.777   0.029   1.903 -1.1190  0.1634 -0.4831
  566MOL0     H78060   5.905   0.302   1.858  1.7584  1.1243  1.0292
  566MOL0     H78061   5.814   0.243   1.996 -2.5231 -0.8802 -0.3537
  566MOL0     H78062   6.011   0.074   2.024  2.6405 -0.8724  0.3883
  566MOL0     H78063   6.084   0.159   1.884 -2.2138 -1.5426 -0.6182
  566MOL0     H78064   6.077   0.381   2.016  1.8813  0.4781  1.3082
  566MOL0     H78065   6.021   0.286   2.149 -1.2396  1.7800 -1.7127
  566MOL0     H78066   6.440   0.198   2.184  0.0669 -0.9674 -0.1728
  566MOL0     H78067   6.687   0.197   2.191 -1.2704 -0.4700 -1.1796
  566MOL0     H78068   6.717   0.376   2.181  1.0348 -0.0649 -0.5892
  566MOL0     H78069   6.786   0.268   2.058 -2.5289  0.1787 -4.2420
  566MOL0     H78070   6.722   0.769   1.704 -1.7105 -1.0739  2.0881
  566MOL0     H78071   6.958   0.878   1.631 -0.9308  0.6744  0.7525
  566MOL0     H78072   7.184   0.927   1.589  1.2593  1.2732  1.4065
  566MOL0     H78073   7.216   0.843   1.732  1.7901  2.9437  0.1919
  566MOL0     H78074   7.445   0.764   1.661  0.6315 -0.1036 -0.4085
  566MOL0     H78075   7.403   0.787   1.494  1.3124  1.4995 -0.9119
  566MOL0     H78076   7.454   1.002   1.705 -3.7460  1.3121 -0.2359
  566MOL0     H78077   7.356   1.046   1.578  0.5342  2.0784  2.9410
  566MOL0     H78078   7.561   1.113   1.483 -2.0843 -0.2918 -1.0343
  566MOL0     H78079   7.514   0.964   1.404  0.4075 -0.5754  0.2834
  566MOL0     H78080   7.649   0.832   1.522 -2.2508  0.8109 -0.8692
  566MOL0     H78081   7.761   0.961   1.480 -0.5704  2.3756 -0.5056
  566MOL0     H78082   7.646   0.882   1.749  0.2577  0.0976  1.2681
  566MOL0     H78083   7.687   1.050   1.725  1.4023 -0.0682  0.4104
  566MOL0     H78084   7.926   1.009   1.722  2.1124 -1.9870  2.1294
  566MOL0     H78085   7.917   0.838   1.688  0.9119  1.0978 -0.9495
  566MOL0     H78086   7.813   0.981   1.944 -2.0382 -1.8567  1.7486
  566MOL0     H78087   7.974   0.894   1.912  0.9517 -0.3997 -1.0149
  566MOL0     H78088   7.113   0.484   1.600 -0.1700  0.1870 -0.0610
  566MOL0     H78089   6.908   0.390   1.672  0.0070 -0.2502 -0.6610
  566MOL0     H78090   6.447   0.507   1.795 -1.5310 -0.6987 -0.5574
  566MOL0     H78091   6.246   0.433   1.885  0.3675 -1.2859 -2.9689
  566MOL0     H78092   6.098   1.301   1.359  0.7295  0.7344 -0.8008
  566MOL0     H78093   6.337   1.324   1.376  2.7075 -2.7108  1.2986
  566MOL0     H78094   6.749   1.299   1.341  2.5993  1.9524  0.9537
  566MOL0     H78095   6.998   1.279   1.327 -0.3929  0.7891  2.5461
  566MOL0     H78096   7.274   0.934   1.356 -2.2712 -0.4041  1.0964
  566MOL0     H78097   7.172   0.930   1.211  0.6956  0.0845 -0.5224
  566MOL0     H78098   7.297   1.066   1.091  1.1107 -2.6037 -0.0230
  566MOL0     H78099   7.430   1.010   1.197  0.0872  0.5827 -0.6458
  566MOL0     H78100   7.270   1.265   1.206  1.5220  1.6328 -0.2021
  566MOL0     H78101   7.384   1.224   1.344 -0.6398 -0.0726  0.3901
  566MOL0     H78102   7.462   1.274   1.050 -0.7585 -0.7599  0.7098
  566MOL0     H78103   7.578   1.221   1.178  0.9064  1.6677 -1.8767
  566MOL0     H78104   7.494   1.628   1.271  2.1079 -0.2680  0.6018
  566MOL0     H78105   7.000   0.863   1.322 -0.3976  1.0353 -1.5112
  566MOL0     H78106   6.683   0.802   1.408  1.4681  0.9313  1.8847
  566MOL0     H78107   6.647   0.828   1.230  1.2795 -3.9723 -0.7109
  566MOL0     H78108   6.794   0.749   1.292 -0.0930  0.8839  0.4627
  567MOL0     O78109   7.592   9.001   8.012  0.5164  0.6150  0.1306
  567MOL0     C78110   7.499   9.080   8.038 -0.4407 -0.0544 -0.5799
  567MOL0     O78111   7.365   9.052   8.046  0.3148 -0.0499  0.4965
  567MOL0     C78112   7.318   8.926   8.029 -0.7097  0.6285  0.4623
  567MOL0     C78113   7.206   8.906   7.960  0.8345 -0.1930 -0.4645
  567MOL0     C78114   7.134   8.786   7.965 -0.3729 -0.0864  0.5771
  567MOL0     C78115   7.175   8.677   8.038 -0.3922 -0.2626  0.2831
  567MOL0     O78116   7.115   8.555   8.041 -0.3754  0.3114 -0.3613
  567MOL0     C78117   6.976   8.555   8.039 -0.2400  0.0225  0.0579
  567MOL0     C78118   6.940   8.408   8.034 -0.9707 -0.1503 -0.1971
  567MOL0     C78119   6.984   8.330   8.166 -0.3721 -0.0416 -0.0165
  567MOL0     C78120   6.929   8.189   8.161  0.9512  0.5756  0.7124
  567MOL0     C78121   6.983   8.100   8.268 -0.1545  0.0719 -0.6024
  567MOL0     C78122   6.911   7.961   8.264  0.3664  0.0857 -0.5493
  567MOL0     C78123   6.767   7.980   8.310  0.0225 -0.4279  0.0673
  567MOL0     C78124   6.716   7.842   8.355  0.3172 -0.4741  0.6171
  567MOL0     N78125   6.715   7.725   8.261 -0.6060 -0.2193 -0.1888
  567MOL0     C78126   6.618   7.626   8.257 -0.9142 -0.3892  0.1976
  567MOL0     C78127   6.670   7.537   8.171  0.6470  0.6400  0.3541
  567MOL0     C78128   6.612   7.405   8.110 -0.6345  0.2551 -0.2859
  567MOL0     C78129   6.556   7.299   8.210  0.1173 -0.0903  0.8472
  567MOL0     C78130   6.506   7.171   8.131 -1.1333  0.2275 -0.0518
  567MOL0     C78131   6.628   7.099   8.067  0.1575 -0.2043  0.9816
  567MOL0     O78132   6.672   7.018   8.173 -0.6374 -0.1982 -0.5790
  567MOL0     C78133   6.770   6.921   8.143  0.5091  0.6038 -0.2944
  567MOL0     C78134   6.831   6.855   8.248 -0.5764  0.4817 -0.8944
  567MOL0     C78135   6.922   6.749   8.229 -0.1133  0.5653  0.4491
  567MOL0     C78136   6.963   6.660   8.349 -0.5317 -0.4905 -0.4442
  567MOL0     C78137   6.962   6.704   8.099  0.0470  0.6497  0.5736
  567MOL0     C78138   7.037   6.580   8.061  1.1934 -0.3049 -0.5685
  567MOL0     O78139   7.017   6.534   7.933 -0.0708  0.6177 -0.1905
  567MOL0     C78140   7.092   6.431   7.875  0.6041 -0.7670  1.2402
  567MOL0     C78141   7.206   6.361   7.925  0.6705  0.1470 -0.0957
  567MOL0     C78142   7.264   6.256   7.862  0.4711  0.1632  0.2593
  567MOL0     C78143   7.226   6.221   7.732  0.3445  0.9290 -0.5416
  567MOL0     O78144   7.289   6.130   7.650  0.1954  0.2519 -0.8756
  567MOL0     C78145   7.430   6.115   7.648  0.2722  0.5102 -0.1562
  567MOL0     C78146   7.471   6.056   7.505  0.8448 -0.2595  0.5462
  567MOL0     C78147   7.617   6.007   7.505  0.7191 -0.4807  0.6365
  567MOL0     C78148   7.656   5.916   7.389 -0.8726  0.3591  0.6905
  567MOL0     C78149   7.802   5.874   7.408  0.3057  0.1123  0.6575
  567MOL0     C78150   7.846   5.796   7.280 -0.2829 -0.0224  0.3511
  567MOL0     C78151   7.985   5.757   7.293  0.8684  1.3413  0.1879
  567MOL0     C78152   8.020   5.650   7.194  0.3935 -0.2339  0.0138
  567MOL0    Cl78153   7.927   5.498   7.225 -0.1856  0.2212  0.0499
  567MOL0     C78154   7.111   6.289   7.677 -0.2517 -0.0599 -0.6819
  567MOL0     C78155   7.050   6.391   7.751  0.0298  0.2473 -0.5053
  567MOL0     O78156   7.094   6.515   8.150  0.3379 -0.7289  0.2929
  567MOL0     C78157   6.903   6.778   8.001 -0.1501  0.3908  0.3587
  567MOL0     C78158   6.807   6.883   8.013 -0.1159 -0.6426  0.3895
  567MOL0     N78159   6.803   7.569   8.147 -0.2761  0.7826  0.8749
  567MOL0     N78160   6.829   7.688   8.183  0.3454  0.0151  0.7484
  567MOL0     C78161   7.294   8.696   8.114 -0.3132  1.3416  0.2098
  567MOL0     C78162   7.365   8.819   8.108 -0.7236 -0.7341  0.3400
  567MOL0     C78163   7.524   9.218   8.085 -0.1695  0.6016 -0.5298
  567MOL0     C78164   7.641   9.234   8.157  0.4385  0.3505  0.0631
  567MOL0     C78165   7.673   9.357   8.221  0.1586 -0.3697 -0.0461
  567MOL0     C78166   7.590   9.468   8.207 -0.7941  0.4234 -0.4837
  567MOL0     O78167   7.621   9.575   8.285 -0.3585 -0.1031 -0.6843
  567MOL0     C78168   7.638   9.700   8.218 -0.0247 -0.1326  0.0576
  567MOL0     C78169   7.502   9.771   8.208  0.2802  0.3276  0.5167
  567MOL0     C78170   7.520   9.928   8.210  0.1297 -0.1984  0.5876
  567MOL0     C78171   7.607   9.978   8.099 -0.5512  0.3421  0.3696
  567MOL0     C78172   7.601  10.119   8.073 -0.5656  0.2869  0.6339
  567MOL0     C78173   7.625  10.236   8.039 -0.1830  0.5087  0.5323
  567MOL0     C78174   7.473   9.454   8.127 -0.1201 -0.5058 -0.4933
  567MOL0     C78175   7.438   9.329   8.066  0.8748 -0.3057 -0.0674
  567MOL0     C78176   7.320   9.335   7.963  1.3515 -0.2837 -0.8152
  567MOL0     H78177   7.162   8.991   7.908 -2.1755 -1.1489  0.2966
  567MOL0     H78178   7.040   8.779   7.912 -0.0004 -2.4586  0.1176
  567MOL0     H78179   6.921   8.594   7.953 -0.4460 -1.2888 -0.4344
  567MOL0     H78180   6.955   8.605   8.134 -1.6943  1.8283 -1.1382
  567MOL0     H78181   6.831   8.404   8.037 -1.0720  1.0292 -1.3373
  567MOL0     H78182   6.982   8.360   7.945  0.3129  2.3842 -1.0778
  567MOL0     H78183   7.093   8.331   8.177 -0.5895  0.9824  3.4711
  567MOL0     H78184   6.951   8.369   8.263  2.7553  1.4918  0.5548
  567MOL0     H78185   6.824   8.199   8.189  1.0530  3.0939  0.4243
  567MOL0     H78186   6.936   8.143   8.061 -1.3249  0.7382  0.4044
  567MOL0     H78187   6.991   8.139   8.369  1.0811  0.0426 -0.6769
  567MOL0     H78188   7.086   8.076   8.242 -0.5455  0.1064 -2.3171
  567MOL0     H78189   6.915   7.922   8.162  0.8374 -2.4710  0.3616
  567MOL0     H78190   6.969   7.893   8.327 -0.2827 -0.1311 -0.1755
  567MOL0     H78191   6.698   8.003   8.228 -1.2529 -2.1759  0.5970
  567MOL0     H78192   6.762   8.043   8.399 -0.4931  1.4759 -1.2405
  567MOL0     H78193   6.771   7.816   8.446  2.6032 -3.3050 -1.3853
  567MOL0     H78194   6.613   7.857   8.387 -0.7994  3.6537 -3.6379
  567MOL0     H78195   6.516   7.637   8.291 -0.4122  2.2439  1.0220
  567MOL0     H78196   6.692   7.361   8.050  0.3714  1.5162  0.1006
  567MOL0     H78197   6.535   7.427   8.035 -1.1274 -0.0616  0.1206
  567MOL0     H78198   6.631   7.268   8.283  1.5309 -0.8828 -0.8671
  567MOL0     H78199   6.475   7.352   8.262  0.8792  1.0396  0.9157
  567MOL0     H78200   6.457   7.106   8.205  1.4249 -1.0495  0.6200
  567MOL0     H78201   6.443   7.203   8.048  0.6424 -1.5116 -2.1785
  567MOL0     H78202   6.583   7.030   7.995  1.1028 -1.7431  1.8034
  567MOL0     H78203   6.705   7.163   8.025  0.0296  0.5643  1.8782
  567MOL0     H78204   6.813   6.891   8.349  5.1598  1.4633  0.0872
  567MOL0     H78205   7.068   6.629   8.345 -0.1674  0.8046 -1.8271
  567MOL0     H78206   6.891   6.579   8.349 -2.7471  1.3786 -1.1171
  567MOL0     H78207   6.964   6.724   8.438  1.3642  1.5515 -1.8156
  567MOL0     H78208   7.245   6.394   8.021 -0.0684  1.3470 -0.1887
  567MOL0     H78209   7.342   6.208   7.922 -0.6734  1.3753  2.9000
  567MOL0     H78210   7.484   6.209   7.655 -0.3218  0.9601 -1.3983
  567MOL0     H78211   7.452   6.044   7.729 -0.0019  2.6902  1.9305
  567MOL0     H78212   7.403   5.972   7.487 -2.6192  2.3566  0.2369
  567MOL0     H78213   7.456   6.134   7.429  1.0440  1.1152  1.8584
  567MOL0     H78214   7.627   5.955   7.601 -0.8110 -3.0289 -0.4590
  567MOL0     H78215   7.676   6.099   7.504 -1.9748  1.3634  0.8803
  567MOL0     H78216   7.643   5.971   7.296 -0.3033  3.2537  2.1765
  567MOL0     H78217   7.589   5.830   7.385 -1.9483  1.1730  0.6366
  567MOL0     H78218   7.883   5.947   7.420  1.1259 -0.8544  1.1157
  567MOL0     H78219   7.803   5.806   7.493  0.5493  0.3343  0.8321
  567MOL0     H78220   7.835   5.860   7.192  0.1568  0.0266  0.3313
  567MOL0     H78221   7.786   5.705   7.267 -0.1512 -0.0129 -0.4082
  567MOL0     H78222   7.988   5.707   7.391  0.2601 -2.9843 -1.7337
  567MOL0     H78223   8.052   5.843   7.288 -1.5060  3.2961  0.2335
  567MOL0     H78224   8.128   5.633   7.201  1.2437  1.8575 -4.2156
  567MOL0     H78225   7.999   5.699   7.098  3.2628  0.8989 -0.1206
  567MOL0     H78226   7.087   6.258   7.575  0.2797  0.5764 -1.0066
  567MOL0     H78227   6.962   6.445   7.717  0.9485  1.4506 -1.0467
  567MOL0     H78228   6.916   6.747   7.898  1.9117 -1.6009  1.1297
  567MOL0     H78229   6.768   6.927   7.922  1.3614 -0.2328 -0.0744
  567MOL0     H78230   7.323   8.619   8.185  0.4477  0.3789 -1.0788
  567MOL0     H78231   7.452   8.833   8.172  0.9222  2.0775 -2.2045
  567MOL0     H78232   7.711   9.154   8.179  0.3914 -0.7029 -3.0597
  567MOL0     H78233   7.748   9.352   8.299  0.7845  0.3649 -0.5913
  567MOL0     H78234   7.704   9.766   8.275 -0.8575  0.5775  0.2378
  567MOL0     H78235   7.683   9.697   8.119  0.4185  1.5039  0.1757
  567MOL0     H78236   7.430   9.730   8.279 -0.4612 -0.6001 -0.7192
  567MOL0     H78237   7.474   9.747   8.105  2.8610 -3.5986  0.4974
  567MOL0     H78238   7.421   9.972   8.198  0.1265 -0.7661 -1.9300
  567MOL0     H78239   7.564   9.955   8.307  0.7028 -0.2311  0.3387
  567MOL0     H78240   7.574   9.928   8.007  3.4000 -2.0700  0.0429
  567MOL0     H78241   7.707   9.938   8.117 -1.0765 -0.5693  1.3574
  567MOL0     H78242   7.631  10.339   8.012 -1.4185  0.7248  0.9966
  567MOL0     H78243   7.408   9.541   8.120  1.2303  0.5353 -0.4904
  567MOL0     H78244   7.222   9.298   7.997  1.0835 -0.2950 -1.5816
  567MOL0     H78245   7.308   9.431   7.911  0.9670 -0.5322 -1.1965
  567MOL0     H78246   7.351   9.269   7.882  2.6723  0.7208 -1.1555
  568MOL0     O78247   2.063   6.198  10.466  0.0111  0.5993  1.4839
  568MOL0     C78248   1.972   6.175  10.382  0.9705  0.5425 -1.2723
  568MOL0     O78249   1.951   6.054  10.335  0.1307  0.5519 -0.2647
  568MOL0     C78250   2.047   5.965  10.372  0.5490  0.4267 -0.3960
  568MOL0     C78251   2.008   5.837  10.439  0.6946 -1.4043 -0.0403
  568MOL0     C78252   2.104   5.746  10.488  0.6952 -0.0111  0.3193
  568MOL0     C78253   2.236   5.768  10.464 -0.4013 -0.5417 -0.0110
  568MOL0     O78254   2.319   5.666  10.504  0.5196  0.1791  0.3086
  568MOL0     C78255   2.459   5.694  10.488 -0.5288  0.8638 -0.5911
  568MOL0     C78256   2.537   5.563  10.515 -0.6283  0.2467 -1.0726
  568MOL0     C78257   2.530   5.499  10.648 -0.4797  1.3219 -1.0765
  568MOL0     C78258   2.596   5.588  10.759  0.2771 -0.0093 -0.4058
  568MOL0     C78259   2.577   5.525  10.905  0.6650  0.4565 -0.9507
  568MOL0     C78260   2.596   5.640  11.010 -0.4858 -0.3739  0.3857
  568MOL0     C78261   2.585   5.592  11.153  0.8471 -0.2900  0.5715
  568MOL0     C78262   2.682   5.480  11.182 -0.4680 -0.2396  0.0263
  568MOL0     N78263   2.691   5.457  11.323 -0.6786 -0.1492  0.7900
  568MOL0     C78264   2.597   5.401  11.397  0.1750 -0.1111 -0.1160
  568MOL0     C78265   2.645   5.388  11.520  0.5565 -0.1622  0.6385
  568MOL0     C78266   2.582   5.331  11.641  0.6194 -0.6044 -0.1354
  568MOL0     C78267   2.473   5.433  11.700 -1.0982  0.2838  0.1705
  568MOL0     C78268   2.413   5.398  11.835 -0.1182 -0.2340 -0.3778
  568MOL0     C78269   2.293   5.470  11.884 -0.7420 -0.2629 -0.0507
  568MOL0     O78270   2.316   5.611  11.873 -0.3556  0.5012  0.8935
  568MOL0     C78271   2.201   5.684  11.911 -0.2472  0.9407  0.6837
  568MOL0     C78272   2.211   5.821  11.877  0.7967  0.8580 -0.5895
  568MOL0     C78273   2.096   5.903  11.899  0.4327 -0.5025  0.6122
  568MOL0     C78274   2.115   6.040  11.845  0.2308 -0.3278 -0.9185
  568MOL0     C78275   1.971   5.845  11.951  0.2003 -0.8704  0.1606
  568MOL0     C78276   1.841   5.917  11.944  0.1222  0.5293 -0.4589
  568MOL0     O78277   1.740   5.844  11.987 -0.0302 -0.7074  0.1635
  568MOL0     C78278   1.610   5.891  11.998  0.1623 -0.5720  0.3716
  568MOL0     C78279   1.576   6.017  12.034  1.0343  0.6921 -0.6775
  568MOL0     C78280   1.442   6.058  12.038 -0.1016 -0.2816  1.6009
  568MOL0     C78281   1.342   5.970  12.010  0.0508 -0.1622  0.3487
  568MOL0     O78282   1.212   5.998  12.020 -0.5761  0.1743 -0.3527
  568MOL0     C78283   1.174   6.081  12.134  0.2630 -0.5794  0.1930
  568MOL0     C78284   1.029   6.095  12.174  0.0451  0.5104  0.0114
  568MOL0     C78285   0.999   5.997  12.288  0.9044  0.0663  0.5254
  568MOL0     C78286   0.849   5.960  12.304  1.2056 -0.5441  0.5358
  568MOL0     C78287   0.751   6.071  12.299 -0.5417 -0.6732 -0.2228
  568MOL0     C78288   0.614   6.032  12.344  0.7031  0.0527 -0.1353
  568MOL0     C78289   0.535   6.159  12.360 -0.0952  0.5509 -0.7601
  568MOL0     C78290   0.397   6.119  12.413 -0.1109  0.8702 -0.6232
  568MOL0    Cl78291   0.302   6.029  12.295  0.2266  1.0268  0.4721
  568MOL0     C78292   1.377   5.839  11.972 -0.0993 -0.3303  0.1677
  568MOL0     C78293   1.516   5.804  11.962  0.8261  0.5599 -0.7892
  568MOL0     O78294   1.833   6.024  11.893  0.9257  1.0600  0.0565
  568MOL0     C78295   1.973   5.706  11.985 -0.4109 -0.6083  0.0053
  568MOL0     C78296   2.082   5.622  11.963 -1.1385  0.2228 -0.0534
  568MOL0     N78297   2.771   5.454  11.513  0.0772  0.4415  0.3368
  568MOL0     N78298   2.805   5.481  11.392 -0.9763  0.2037 -0.3612
  568MOL0     C78299   2.277   5.882  10.394 -0.2139  0.7698  0.2346
  568MOL0     C78300   2.184   5.974  10.337 -0.2430 -0.6128  0.0508
  568MOL0     C78301   1.902   6.284  10.309 -1.5141 -0.4601 -1.0939
  568MOL0     C78302   1.831   6.249  10.191 -0.2171  0.1725 -0.5369
  568MOL0     C78303   1.752   6.342  10.129 -0.7145 -0.9201  1.2510
  568MOL0     C78304   1.748   6.483  10.167  0.6128  1.0108  0.3596
  568MOL0     O78305   1.655   6.570  10.117  0.0712 -0.3916 -0.2031
  568MOL0     C78306   1.555   6.532  10.020  0.3555 -0.4675  0.2479
  568MOL0     C78307   1.463   6.655   9.988  0.0413  0.3296 -0.0951
  568MOL0     C78308   1.509   6.746   9.876  0.0208  0.2303  1.5655
  568MOL0     C78309   1.415   6.859   9.849  0.4710  0.6258  0.1260
  568MOL0     C78310   1.284   6.816   9.791 -0.6229  0.1571  0.4760
  568MOL0     C78311   1.179   6.777   9.748  0.1172 -0.2019  0.4712
  568MOL0     C78312   1.822   6.515  10.278 -0.8417  0.3704 -0.5975
  568MOL0     C78313   1.904   6.426  10.354  0.9153  0.8560 -0.3924
  568MOL0     C78314   1.961   6.465  10.482 -0.0964  0.0037 -0.4319
  568MOL0     H78315   1.903   5.839  10.467  0.3640  2.9873 -0.9871
  568MOL0     H78316   2.079   5.660  10.549  0.7904  1.8531  3.1695
  568MOL0     H78317   2.479   5.770  10.563  0.2451 -0.3950  0.5166
  568MOL0     H78318   2.487   5.728  10.387 -4.0836  1.3914 -1.5336
  568MOL0     H78319   2.508   5.490  10.439  2.3141 -0.8698 -1.2551
  568MOL0     H78320   2.644   5.584  10.500  0.0151 -0.0374  2.3242
  568MOL0     H78321   2.428   5.498  10.686  0.1026  0.2889  0.5401
  568MOL0     H78322   2.573   5.399  10.642 -1.2956  0.8449  0.5517
  568MOL0     H78323   2.701   5.602  10.731  0.2952  0.8862  0.0980
  568MOL0     H78324   2.535   5.679  10.751 -3.4551 -2.3875 -1.9555
  568MOL0     H78325   2.650   5.447  10.929  2.7232  2.0133 -1.8491
  568MOL0     H78326   2.483   5.470  10.917  0.2687  1.5037  1.2808
  568MOL0     H78327   2.698   5.675  10.996 -1.1486  0.9367 -1.6453
  568MOL0     H78328   2.526   5.722  10.989  1.1550  0.7977 -0.7526
  568MOL0     H78329   2.488   5.548  11.177  0.8442 -0.7570 -0.2752
  568MOL0     H78330   2.613   5.671  11.224  1.1220  0.3603 -0.2423
  568MOL0     H78331   2.637   5.389  11.140  1.6917 -0.7650 -1.3356
  568MOL0     H78332   2.783   5.488  11.140 -0.0991 -2.0731  0.4511
  568MOL0     H78333   2.499   5.364  11.369 -1.8030  4.5358 -0.0896
  568MOL0     H78334   2.658   5.304  11.715 -0.5038  0.4038  1.4784
  568MOL0     H78335   2.524   5.240  11.628 -1.2557  0.2907  1.3586
  568MOL0     H78336   2.505   5.536  11.716 -0.7501  0.2803 -0.4783
  568MOL0     H78337   2.398   5.452  11.623  0.2449  1.7211 -0.8466
  568MOL0     H78338   2.387   5.292  11.839  1.2588 -0.5644  0.3995
  568MOL0     H78339   2.491   5.403  11.912 -0.3037  3.1992 -0.2450
  568MOL0     H78340   2.215   5.430  11.818  0.1649 -1.6738 -0.3231
  568MOL0     H78341   2.277   5.440  11.988  0.0837  3.2972  1.2343
  568MOL0     H78342   2.310   5.854  11.847  0.8282  0.5366 -0.8465
  568MOL0     H78343   2.215   6.068  11.813  0.1754  2.5519  1.0210
  568MOL0     H78344   2.103   6.115  11.924  2.8402 -0.6144 -0.1671
  568MOL0     H78345   2.043   6.057  11.764 -1.2720 -0.9972  0.2128
  568MOL0     H78346   1.650   6.092  12.064  0.5708  0.7409  0.3908
  568MOL0     H78347   1.425   6.162  12.064  0.5644  0.6876 -1.4375
  568MOL0     H78348   1.237   6.048  12.217 -1.4994 -1.6469  1.1697
  568MOL0     H78349   1.208   6.181  12.106  2.7676 -1.7324 -1.2645
  568MOL0     H78350   1.007   6.194  12.215 -1.0196  0.3907 -0.2323
  568MOL0     H78351   0.968   6.059  12.091 -0.8971  1.4832  0.2623
  568MOL0     H78352   1.028   6.028  12.389 -0.2733  0.8810  0.6357
  568MOL0     H78353   1.056   5.906  12.270  1.3319  0.6615 -1.4493
  568MOL0     H78354   0.834   5.897  12.392  0.2022  1.9373  2.2599
  568MOL0     H78355   0.827   5.901  12.215 -0.3315 -1.6762  1.6119
  568MOL0     H78356   0.786   6.147  12.369  1.3672 -1.8405  0.1478
  568MOL0     H78357   0.754   6.101  12.194  1.4376 -0.0960 -0.0305
  568MOL0     H78358   0.615   5.970  12.434  0.2376  1.0796  0.5978
  568MOL0     H78359   0.562   5.968  12.272 -3.8836  1.9450  1.1620
  568MOL0     H78360   0.515   6.218  12.270 -1.0535  0.7269 -0.4414
  568MOL0     H78361   0.582   6.233  12.426 -1.5379  1.6623 -0.9342
  568MOL0     H78362   0.338   6.208  12.439 -2.0414 -0.7321  0.8032
  568MOL0     H78363   0.408   6.064  12.506 -0.5424  2.4845  0.4224
  568MOL0     H78364   1.299   5.764  11.958  0.3140 -0.8699  0.7071
  568MOL0     H78365   1.552   5.710  11.924  0.4067  0.3320 -0.6270
  568MOL0     H78366   1.882   5.661  12.023  0.2251 -2.2484 -0.3562
  568MOL0     H78367   2.077   5.518  11.995  1.2111  0.3151  0.8092
  568MOL0     H78368   2.381   5.904  10.372 -0.4300  1.2915 -0.2968
  568MOL0     H78369   2.237   6.055  10.287  1.5673 -0.9221  1.3765
  568MOL0     H78370   1.847   6.153  10.144  0.1034  0.2353 -0.5578
  568MOL0     H78371   1.697   6.319  10.038  0.2546  0.1833  0.3391
  568MOL0     H78372   1.604   6.505   9.926  0.6290  1.5425 -0.2556
  568MOL0     H78373   1.496   6.445  10.047 -0.0489  0.2955  1.9181
  568MOL0     H78374   1.447   6.711  10.081  1.4789 -1.2474  1.1633
  568MOL0     H78375   1.366   6.625   9.949  0.8214 -2.6075  0.0488
  568MOL0     H78376   1.593   6.804   9.914  1.1662  1.8241 -2.7570
  568MOL0     H78377   1.554   6.691   9.793 -0.7626 -0.3263  1.4965
  568MOL0     H78378   1.463   6.924   9.775 -0.8779 -0.9175 -2.2419
  568MOL0     H78379   1.397   6.923   9.935  2.6443 -2.7105  3.3873
  568MOL0     H78380   1.083   6.756   9.706  0.8487  0.3264 -1.5978
  568MOL0     H78381   1.816   6.616  10.316 -0.6825 -0.4261  1.6991
  568MOL0     H78382   1.940   6.571  10.499  1.3708  0.2642 -0.0777
  568MOL0     H78383   1.917   6.403  10.561  0.1042  0.3158 -0.0697
  568MOL0     H78384   2.068   6.448  10.472 -0.5630 -2.3262 -2.5436
  569MOL0     O78385   8.995   7.921   9.346  0.0839 -0.3797 -0.5653
  569MOL0     C78386   8.999   7.841   9.257 -0.4711  0.3959  0.3860
  569MOL0     O78387   8.924   7.847   9.144  0.1812 -0.6336  0.3737
  569MOL0     C78388   8.875   7.972   9.120 -0.1463 -0.2615  0.1497
  569MOL0     C78389   8.940   8.068   9.037 -0.3526  0.2462 -0.2784
  569MOL0     C78390   8.869   8.188   9.014 -0.6489  0.2325 -0.3962
  569MOL0     C78391   8.736   8.205   9.055 -0.6446  0.1852 -0.0163
  569MOL0     O78392   8.678   8.320   9.003  0.2745 -0.2612 -0.2317
  569MOL0     C78393   8.596   8.412   9.078  0.2705  0.2993 -0.6823
  569MOL0     C78394   8.684   8.519   9.147  0.2755 -0.1740 -0.7512
  569MOL0     C78395   8.661   8.650   9.078 -0.2430  0.5879 -0.7336
  569MOL0     C78396   8.727   8.666   8.944 -0.0016 -0.3233  0.4803
  569MOL0     C78397   8.645   8.751   8.847  0.5389  0.6580 -0.3861
  569MOL0     C78398   8.513   8.682   8.799  0.0786 -0.5971 -0.0357
  569MOL0     C78399   8.416   8.778   8.734  0.2361 -0.8148 -0.1108
  569MOL0     C78400   8.311   8.821   8.836  0.0369  0.1131 -0.2775
  569MOL0     N78401   8.206   8.895   8.768  0.3838  0.4934  0.4402
  569MOL0     C78402   8.152   8.862   8.641  0.4851  0.0546  1.0705
  569MOL0     C78403   8.053   8.954   8.625  0.0732  0.0927  0.0361
  569MOL0     C78404   7.950   8.956   8.514 -0.2751  0.0422 -0.4377
  569MOL0     C78405   7.938   9.091   8.442  0.0214 -0.7021 -0.3094
  569MOL0     C78406   8.058   9.120   8.352  0.0881  0.0227  0.6166
  569MOL0     C78407   8.045   9.247   8.248 -0.0825  0.5631 -0.8117
  569MOL0     O78408   7.964   9.200   8.144  1.0032  1.0463 -0.0261
  569MOL0     C78409   8.022   9.171   8.024  0.4386 -0.0303 -0.0504
  569MOL0     C78410   8.165   9.162   8.003  0.1549 -0.5216  0.6808
  569MOL0     C78411   8.229   9.149   7.883 -0.5649 -0.9886 -0.6167
  569MOL0     C78412   8.378   9.145   7.873  0.7661 -0.3256  0.0917
  569MOL0     C78413   8.147   9.126   7.770  0.4173  0.0808  0.0884
  569MOL0     C78414   8.203   9.097   7.637 -0.2193  0.2242  0.1337
  569MOL0     O78415   8.317   9.164   7.597 -0.0993  0.4761 -0.7158
  569MOL0     C78416   8.361   9.157   7.469 -0.5786 -0.6488 -0.4696
  569MOL0     C78417   8.287   9.123   7.355  1.1972 -0.0750 -0.0327
  569MOL0     C78418   8.346   9.062   7.236 -0.0703 -1.3655  0.2651
  569MOL0     C78419   8.485   9.069   7.224 -0.2305 -0.8423 -0.6748
  569MOL0     O78420   8.565   9.044   7.114 -0.0419  0.0067  0.2309
  569MOL0     C78421   8.520   8.926   7.039 -0.4490  0.6913 -0.6870
  569MOL0     C78422   8.612   8.902   6.918  0.3128 -1.2552  0.0970
  569MOL0     C78423   8.580   8.766   6.853  0.0016 -0.5387  0.0887
  569MOL0     C78424   8.694   8.737   6.761  0.3428 -0.3990  0.5237
  569MOL0     C78425   8.647   8.617   6.671 -0.5775 -0.4431 -0.2341
  569MOL0     C78426   8.747   8.582   6.564  0.1204 -0.7829 -0.3006
  569MOL0     C78427   8.690   8.481   6.466 -0.2669  0.0151 -0.3152
  569MOL0     C78428   8.772   8.444   6.344  0.0055  0.4201  0.2878
  569MOL0    Cl78429   8.810   8.590   6.235 -0.0378 -0.1943 -0.1104
  569MOL0     C78430   8.559   9.127   7.324  0.3743  0.1442 -0.6827
  569MOL0     C78431   8.501   9.174   7.448  0.4138 -0.2535 -0.6554
  569MOL0     O78432   8.129   9.029   7.566  0.6504  0.5234  0.0478
  569MOL0     C78433   8.003   9.124   7.785  0.4529  0.0998  0.0007
  569MOL0     C78434   7.942   9.142   7.913 -1.0928  0.4045  0.8608
  569MOL0     N78435   8.062   9.046   8.729  0.6083  0.0036 -0.7074
  569MOL0     N78436   8.148   9.014   8.813 -1.0875 -0.3830  0.0298
  569MOL0     C78437   8.665   8.118   9.125 -0.3189  0.0794  0.2568
  569MOL0     C78438   8.746   7.998   9.158  0.0854 -0.2697  0.3419
  569MOL0     C78439   9.091   7.726   9.266 -0.1305 -0.4666 -0.7431
  569MOL0     C78440   9.094   7.658   9.390  0.2386  1.4721 -0.4483
  569MOL0     C78441   9.181   7.547   9.410  0.2222  0.9433 -0.3240
  569MOL0     C78442   9.256   7.504   9.300 -0.1128 -0.5515 -0.3518
  569MOL0     O78443   9.350   7.403   9.293  0.0995  0.4067  0.2124
  569MOL0     C78444   9.344   7.303   9.394  0.0089  0.0387  0.0640
  569MOL0     C78445   9.457   7.195   9.376 -0.9979  0.5569 -0.7261
  569MOL0     C78446   9.597   7.253   9.393 -1.0503 -0.6509 -0.4823
  569MOL0     C78447   9.683   7.213   9.279 -0.1161 -0.6799 -0.2614
  569MOL0     C78448   9.703   7.072   9.264 -0.8128 -1.0528 -0.3316
  569MOL0     C78449   9.735   6.964   9.242  0.1052  0.0758 -0.1309
  569MOL0     C78450   9.246   7.562   9.182 -0.6601  0.6379  0.1949
  569MOL0     C78451   9.172   7.678   9.157  0.2773  0.5595 -0.9323
  569MOL0     C78452   9.176   7.734   9.019  0.1028  0.5106  0.6771
  569MOL0     H78453   9.036   8.039   8.995 -1.9066 -0.3760 -3.7297
  569MOL0     H78454   8.918   8.271   8.964  1.2567  1.4614  3.1200
  569MOL0     H78455   8.549   8.354   9.158 -1.7963 -2.3434 -3.5913
  569MOL0     H78456   8.521   8.466   9.019  0.1467  2.7838  1.5559
  569MOL0     H78457   8.651   8.535   9.251 -1.8905 -1.3945 -1.1967
  569MOL0     H78458   8.791   8.499   9.154  0.4283  0.9849  1.1269
  569MOL0     H78459   8.560   8.690   9.082  1.2456  4.7523  0.9439
  569MOL0     H78460   8.711   8.720   9.147  0.2962 -2.9011  2.8132
  569MOL0     H78461   8.822   8.720   8.950  0.3413 -1.0311  1.9129
  569MOL0     H78462   8.757   8.577   8.887  0.2077  0.4412 -0.6404
  569MOL0     H78463   8.699   8.765   8.753 -3.3796  1.7855 -2.6974
  569MOL0     H78464   8.626   8.848   8.894  0.6220  1.3464 -1.7337
  569MOL0     H78465   8.540   8.605   8.726  2.7417 -0.9648  1.2190
  569MOL0     H78466   8.473   8.636   8.889 -0.4711 -1.7829 -0.8633
  569MOL0     H78467   8.374   8.744   8.639 -0.1933  1.8852 -0.9543
  569MOL0     H78468   8.477   8.860   8.694 -0.7729 -0.5369 -1.1182
  569MOL0     H78469   8.267   8.734   8.886  1.1797  0.9811  2.4359
  569MOL0     H78470   8.356   8.874   8.920  1.8816  0.8247 -1.6417
  569MOL0     H78471   8.168   8.787   8.564  0.0196  2.9703 -2.1049
  569MOL0     H78472   7.855   8.915   8.548  0.4359 -0.0175  1.6046
  569MOL0     H78473   7.987   8.883   8.442  1.5927 -0.9960  1.4632
  569MOL0     H78474   7.853   9.082   8.373  0.3534 -0.0279 -0.8203
  569MOL0     H78475   7.925   9.172   8.514  0.3996  0.3962 -1.4339
  569MOL0     H78476   8.150   9.142   8.406  0.3567 -0.8214  0.5283
  569MOL0     H78477   8.076   9.028   8.294 -2.3177  0.8258 -1.5973
  569MOL0     H78478   7.999   9.336   8.291 -4.8451 -2.5339  1.2724
  569MOL0     H78479   8.146   9.273   8.215  0.3381 -1.5535 -1.3127
  569MOL0     H78480   8.238   9.160   8.084  0.7793 -3.9686  0.1821
  569MOL0     H78481   8.406   9.059   7.811  0.3370 -0.0264 -0.5285
  569MOL0     H78482   8.427   9.135   7.970 -1.1852  1.1658  1.2960
  569MOL0     H78483   8.427   9.229   7.823  0.1204  0.4888  0.8102
  569MOL0     H78484   8.180   9.113   7.366  1.1748 -0.4888 -0.5770
  569MOL0     H78485   8.289   9.031   7.149  2.3446 -1.6347 -1.3213
  569MOL0     H78486   8.525   8.838   7.105 -0.1029  0.5155 -0.9426
  569MOL0     H78487   8.415   8.942   7.012 -0.7042  0.7019  0.2762
  569MOL0     H78488   8.590   8.985   6.851  0.3148 -0.8506  0.5943
  569MOL0     H78489   8.717   8.898   6.950 -0.1930 -0.9698  1.8999
  569MOL0     H78490   8.483   8.763   6.801 -0.4000 -1.1569  0.8385
  569MOL0     H78491   8.586   8.685   6.926  0.6171 -1.0009 -0.4523
  569MOL0     H78492   8.788   8.716   6.812 -0.3030  0.7685  2.2854
  569MOL0     H78493   8.704   8.827   6.699  2.3602 -1.2159 -0.4381
  569MOL0     H78494   8.631   8.537   6.744 -1.3842  0.7385  0.9326
  569MOL0     H78495   8.554   8.657   6.630  0.3192  3.2408  0.9555
  569MOL0     H78496   8.829   8.541   6.623 -2.5100 -0.5234  3.9372
  569MOL0     H78497   8.775   8.674   6.512  0.2246 -1.6783 -1.8981
  569MOL0     H78498   8.590   8.506   6.430 -0.7159 -0.4680  0.5763
  569MOL0     H78499   8.692   8.387   6.521  1.5160  0.7111  0.9024
  569MOL0     H78500   8.713   8.373   6.285  1.3613  0.7785 -1.5754
  569MOL0     H78501   8.862   8.393   6.377  1.0830  2.3680  0.5120
  569MOL0     H78502   8.667   9.126   7.317  0.5716 -0.9376  1.5568
  569MOL0     H78503   8.566   9.202   7.531  0.1550  1.0430 -0.8640
  569MOL0     H78504   7.934   9.125   7.701  0.5438 -1.4150 -0.1307
  569MOL0     H78505   7.833   9.144   7.908 -1.0390  1.2173 -3.7922
  569MOL0     H78506   8.561   8.139   9.147  0.5163  1.1385  3.7532
  569MOL0     H78507   8.701   7.923   9.222  1.8278 -2.4869 -0.9266
  569MOL0     H78508   9.033   7.677   9.478 -0.4608 -0.0540 -0.5835
  569MOL0     H78509   9.177   7.491   9.503  1.4977  2.0112  0.3996
  569MOL0     H78510   9.366   7.353   9.489  3.6269  1.5132 -1.4061
  569MOL0     H78511   9.242   7.262   9.400 -0.0161  0.1045  0.0900
  569MOL0     H78512   9.430   7.158   9.276 -0.5339  1.3112 -1.1324
  569MOL0     H78513   9.434   7.125   9.458 -2.8306  0.7629 -1.0153
  569MOL0     H78514   9.609   7.361   9.404  2.1350 -0.7323 -1.9953
  569MOL0     H78515   9.642   7.212   9.484  0.6648  0.1259 -0.9393
  569MOL0     H78516   9.783   7.256   9.290  0.4569 -2.2485  1.1638
  569MOL0     H78517   9.647   7.256   9.185 -0.3308  1.7542  0.8646
  569MOL0     H78518   9.778   6.866   9.237  1.2249  0.4326  1.6857
  569MOL0     H78519   9.309   7.522   9.103 -0.4503 -0.4350  0.8917
  569MOL0     H78520   9.160   7.842   9.027 -0.9626  0.6971 -2.7769
  569MOL0     H78521   9.261   7.711   8.956 -1.8097 -0.4423 -1.7131
  569MOL0     H78522   9.090   7.696   8.964  0.3530  0.8356  0.0573
  570MOL0     O78523   8.562   3.627   7.842  0.3779 -0.1697 -0.9166
  570MOL0     C78524   8.632   3.702   7.907 -0.4582  0.7327 -0.5544
  570MOL0     O78525   8.772   3.703   7.919 -0.0123  0.2410  0.0321
  570MOL0     C78526   8.837   3.591   7.882 -0.2928 -0.3272  0.1393
  570MOL0     C78527   8.901   3.524   7.984  0.6101  1.0385 -0.2645
  570MOL0     C78528   8.990   3.415   7.960 -0.5752 -0.7489 -0.4142
  570MOL0     C78529   9.021   3.381   7.830 -0.0071  0.6186 -0.4710
  570MOL0     O78530   9.103   3.278   7.811 -0.5514  0.2174  0.4367
  570MOL0     C78531   9.198   3.271   7.700 -0.8989 -0.5579 -0.3185
  570MOL0     C78532   9.339   3.252   7.766 -0.5378 -0.4468 -0.2934
  570MOL0     C78533   9.441   3.254   7.659 -0.6306  0.1753  0.3223
  570MOL0     C78534   9.591   3.255   7.718  0.9939  0.4106 -0.2558
  570MOL0     C78535   9.693   3.334   7.635 -0.1110  0.0216  0.0210
  570MOL0     C78536   9.721   3.484   7.685  0.0686 -0.4835  0.3665
  570MOL0     C78537   9.755   3.582   7.568 -0.3323 -0.6589  0.2126
  570MOL0     C78538   9.768   3.717   7.623  0.2593 -0.0792  0.4008
  570MOL0     N78539   9.811   3.811   7.520  0.2419  0.1745  0.2119
  570MOL0     C78540   9.940   3.832   7.503 -0.7135 -0.2947  0.1600
  570MOL0     C78541   9.945   3.916   7.400  0.2055 -0.1937  0.4666
  570MOL0     C78542  10.052   4.006   7.348  0.6242  0.7173  1.2238
  570MOL0     C78543  10.119   4.100   7.451 -0.1083  0.9135 -0.0780
  570MOL0     C78544  10.039   4.166   7.572 -0.3145  0.5200 -0.2153
  570MOL0     C78545  10.128   4.265   7.654 -0.8777  0.0090 -0.7836
  570MOL0     O78546  10.169   4.379   7.572  0.2535  0.1577 -0.4369
  570MOL0     C78547  10.279   4.458   7.615 -0.0986 -0.2316 -0.9199
  570MOL0     C78548  10.293   4.572   7.535 -0.2097  0.5826 -0.2698
  570MOL0     C78549  10.397   4.657   7.565 -0.5333 -0.8180 -0.8801
  570MOL0     C78550  10.386   4.789   7.496  0.7049  0.1841  0.5908
  570MOL0     C78551  10.497   4.621   7.657  0.3854 -0.4532 -0.9153
  570MOL0     C78552  10.599   4.719   7.703  0.0978  0.0352 -0.0360
  570MOL0     O78553  10.646   4.805   7.609 -0.0187 -1.0555 -0.2002
  570MOL0     C78554  10.755   4.879   7.645  0.2109 -0.0733 -1.0650
  570MOL0     C78555  10.739   5.018   7.624  0.5828  0.5129 -0.3071
  570MOL0     C78556  10.847   5.105   7.667 -0.4084  0.3818 -0.1536
  570MOL0     C78557  10.976   5.061   7.704 -0.4879 -0.1047 -0.0200
  570MOL0     O78558  11.073   5.164   7.727 -0.3875  0.8267 -1.1548
  570MOL0     C78559  11.195   5.131   7.786 -1.1796  0.0910 -0.7220
  570MOL0     C78560  11.258   5.263   7.838 -0.9331 -0.0989 -0.0632
  570MOL0     C78561  11.284   5.371   7.729  0.6507  0.0012  0.4630
  570MOL0     C78562  11.345   5.499   7.796  0.2177 -0.0223  0.3484
  570MOL0     C78563  11.447   5.569   7.697  0.3337  0.3221 -0.5095
  570MOL0     C78564  11.525   5.672   7.772 -0.1184 -0.1555 -1.1236
  570MOL0     C78565  11.435   5.784   7.819  0.6517  0.0808  0.3350
  570MOL0     C78566  11.508   5.910   7.878 -0.6676  0.4586  0.7203
  570MOL0    Cl78567  11.617   5.996   7.769 -0.0705  0.1591  0.2931
  570MOL0     C78568  10.991   4.926   7.710 -0.5751  1.3305  0.2186
  570MOL0     C78569  10.883   4.836   7.684  0.0255  0.4631 -0.1996
  570MOL0     O78570  10.644   4.708   7.818 -0.3375 -0.0694 -0.1338
  570MOL0     C78571  10.477   4.506   7.737 -0.3085  0.0028 -0.4333
  570MOL0     C78572  10.365   4.426   7.709 -0.1944 -0.1858 -0.7756
  570MOL0     N78573   9.810   3.945   7.372  0.7040 -0.9539  0.6105
  570MOL0     N78574   9.730   3.886   7.442 -0.9342 -0.6862  0.2654
  570MOL0     C78575   8.956   3.449   7.725  0.5438  0.6809 -0.3670
  570MOL0     C78576   8.874   3.554   7.748  0.2594  0.3111  0.7867
  570MOL0     C78577   8.561   3.795   7.991  0.2379 -0.0613  0.1688
  570MOL0     C78578   8.640   3.901   8.043 -0.4135  0.3172 -0.8534
  570MOL0     C78579   8.593   4.002   8.133  0.5002 -0.4923  0.1412
  570MOL0     C78580   8.454   3.996   8.166 -0.1153  0.3746 -0.6900
  570MOL0     O78581   8.415   4.094   8.250 -0.4439  0.0518  0.7447
  570MOL0     C78582   8.280   4.138   8.238 -0.7750  0.0069  0.0463
  570MOL0     C78583   8.268   4.284   8.283  1.1849 -0.1471 -0.5642
  570MOL0     C78584   8.283   4.381   8.161  0.1005  0.3024  0.2754
  570MOL0     C78585   8.243   4.520   8.209  0.8118 -0.3149 -0.4303
  570MOL0     C78586   8.257   4.635   8.119  0.2489 -0.5725 -0.6206
  570MOL0     C78587   8.272   4.729   8.042 -0.2930 -0.3371  0.9822
  570MOL0     C78588   8.375   3.900   8.108  0.2196  0.6542 -0.1210
  570MOL0     C78589   8.421   3.796   8.028  0.0449 -0.8169  0.7545
  570MOL0     C78590   8.321   3.697   7.985  0.1937  0.5675  0.1357
  570MOL0     H78591   8.895   3.550   8.089 -1.9625  1.0038 -0.3272
  570MOL0     H78592   9.030   3.364   8.047 -2.9006  1.8491  2.4059
  570MOL0     H78593   9.195   3.363   7.640  1.1717  1.2139  2.0523
  570MOL0     H78594   9.178   3.185   7.636 -2.2144  1.2786 -2.5524
  570MOL0     H78595   9.365   3.334   7.834  0.2024  0.5699 -1.7483
  570MOL0     H78596   9.352   3.157   7.819  2.9976  0.3019  0.4432
  570MOL0     H78597   9.432   3.168   7.593 -0.5308  0.6929 -0.3825
  570MOL0     H78598   9.430   3.338   7.590  0.2730  1.3158  1.5097
  570MOL0     H78599   9.590   3.291   7.821 -1.3904  0.0936 -0.1273
  570MOL0     H78600   9.619   3.150   7.722  1.5598  0.4014 -2.6961
  570MOL0     H78601   9.664   3.346   7.530  0.2700  2.6464  0.1565
  570MOL0     H78602   9.784   3.273   7.634 -1.8969 -2.8699 -1.6867
  570MOL0     H78603   9.634   3.530   7.735  0.6067  1.6874 -0.5751
  570MOL0     H78604   9.797   3.476   7.763  1.2075  1.4123 -0.4703
  570MOL0     H78605   9.677   3.590   7.491  1.7295 -1.9701 -2.1808
  570MOL0     H78606   9.846   3.558   7.511 -0.3435  1.7395 -0.9490
  570MOL0     H78607   9.670   3.749   7.660 -0.7646 -0.1438 -2.0666
  570MOL0     H78608   9.839   3.709   7.705 -0.4043 -0.2717  0.9734
  570MOL0     H78609  10.020   3.798   7.568 -1.4406  0.8540  1.7254
  570MOL0     H78610  10.003   4.063   7.270 -2.6705 -1.8022  1.2137
  570MOL0     H78611  10.122   3.940   7.296  0.9441 -1.4160  4.1029
  570MOL0     H78612  10.208   4.044   7.482  0.6913  0.6285 -2.6325
  570MOL0     H78613  10.164   4.184   7.398  2.5041  1.3004  2.4993
  570MOL0     H78614   9.950   4.209   7.524 -0.6645  1.0042  0.8391
  570MOL0     H78615  10.009   4.086   7.640  3.8019 -0.6639  0.4565
  570MOL0     H78616  10.070   4.293   7.743 -3.2527  2.6334 -2.9747
  570MOL0     H78617  10.222   4.214   7.678 -0.4398 -0.4977 -3.3546
  570MOL0     H78618  10.226   4.586   7.451  2.2389 -0.5324 -2.5708
  570MOL0     H78619  10.372   4.871   7.567 -3.4652 -0.1370  0.4104
  570MOL0     H78620  10.306   4.796   7.422 -2.3652  0.4361  3.6570
  570MOL0     H78621  10.484   4.802   7.450  2.0182 -4.1270  1.6780
  570MOL0     H78622  10.643   5.062   7.598  1.6446  1.5696 -2.6668
  570MOL0     H78623  10.851   5.213   7.662  0.2350  0.6302  3.2824
  570MOL0     H78624  11.192   5.061   7.869 -3.8662  1.1813  0.2023
  570MOL0     H78625  11.264   5.096   7.709  1.2894  2.2770  0.3247
  570MOL0     H78626  11.204   5.304   7.923 -2.6001  0.8082 -1.4926
  570MOL0     H78627  11.356   5.246   7.882 -0.2441  3.7595  0.2842
  570MOL0     H78628  11.193   5.386   7.670  1.4049  1.5365 -0.3784
  570MOL0     H78629  11.350   5.324   7.655 -0.0243 -2.0576  1.0999
  570MOL0     H78630  11.396   5.476   7.890 -1.7424 -2.4531  0.9289
  570MOL0     H78631  11.267   5.571   7.823 -0.8728  0.2200 -2.9256
  570MOL0     H78632  11.513   5.494   7.653 -1.7989 -1.2260 -1.2246
  570MOL0     H78633  11.392   5.622   7.619  2.1896  1.2149 -1.2617
  570MOL0     H78634  11.604   5.706   7.705 -0.8043 -0.5922 -2.1908
  570MOL0     H78635  11.574   5.629   7.860  1.6359 -0.0972 -2.0372
  570MOL0     H78636  11.369   5.749   7.899 -1.3466 -2.0002 -2.0415
  570MOL0     H78637  11.376   5.821   7.735  0.5874  1.6293  1.0323
  570MOL0     H78638  11.564   5.876   7.965  1.8969  1.9041 -0.2777
  570MOL0     H78639  11.434   5.981   7.917  0.6160  2.7012 -0.7045
  570MOL0     H78640  11.089   4.882   7.720  1.3164  4.6794 -1.7299
  570MOL0     H78641  10.893   4.728   7.685 -1.2518  0.3293  0.3888
  570MOL0     H78642  10.552   4.478   7.810 -2.7267 -3.0389  1.1358
  570MOL0     H78643  10.344   4.334   7.763  0.6145 -0.6077 -1.1545
  570MOL0     H78644   8.965   3.411   7.624 -4.3482 -0.0645 -0.7386
  570MOL0     H78645   8.825   3.600   7.663  0.7911  2.4352  1.5591
  570MOL0     H78646   8.745   3.915   8.018 -0.1313 -0.5599 -0.2245
  570MOL0     H78647   8.661   4.081   8.164 -0.1005  0.1419 -0.1222
  570MOL0     H78648   8.257   4.133   8.132 -1.0665 -1.8524  0.1609
  570MOL0     H78649   8.215   4.070   8.294  0.2619  0.3914  1.8305
  570MOL0     H78650   8.334   4.300   8.369 -3.1136  1.9589  2.7008
  570MOL0     H78651   8.169   4.301   8.325  0.4464 -1.5698 -1.6691
  570MOL0     H78652   8.387   4.384   8.129 -0.1182  2.4640 -0.3661
  570MOL0     H78653   8.229   4.342   8.074  3.6242 -0.7314 -1.6249
  570MOL0     H78654   8.310   4.548   8.290  0.1060  1.6517 -0.4635
  570MOL0     H78655   8.139   4.516   8.243 -0.2938 -0.2755 -3.4145
  570MOL0     H78656   8.261   4.808   7.970 -0.9657 -1.7923 -0.6018
  570MOL0     H78657   8.268   3.905   8.125  0.4303 -0.4490  1.9555
  570MOL0     H78658   8.321   3.697   7.876 -2.6687  2.9970 -0.0123
  570MOL0     H78659   8.347   3.595   8.014 -2.0868 -0.8994 -2.5077
  570MOL0     H78660   8.228   3.715   8.040  1.7195 -2.4012  4.1227
  571MOL0     O78661   7.850   0.439   2.470 -0.7494  0.0855 -0.4053
  571MOL0     C78662   7.822   0.485   2.352 -0.3755  1.2635  0.4070
  571MOL0     O78663   7.851   0.614   2.303 -0.2878  0.7009 -0.3692
  571MOL0     C78664   7.967   0.657   2.367  0.6970  0.1679 -0.2031
  571MOL0     C78665   8.098   0.612   2.339  0.6712  0.8334 -0.3326
  571MOL0     C78666   8.212   0.669   2.401 -0.3723  0.1718  0.0712
  571MOL0     C78667   8.204   0.773   2.491 -0.4802 -0.6043 -0.6431
  571MOL0     O78668   8.321   0.818   2.543 -0.8622 -0.0695 -0.6050
  571MOL0     C78669   8.336   0.941   2.616  0.2898 -0.0256  1.0032
  571MOL0     C78670   8.464   0.936   2.704 -0.0552  0.0752 -0.7779
  571MOL0     C78671   8.453   1.031   2.837 -0.3804  0.7771  0.2193
  571MOL0     C78672   8.422   1.174   2.800  0.3692 -0.0596  0.1358
  571MOL0     C78673   8.457   1.260   2.921  0.4447  0.7691  0.7510
  571MOL0     C78674   8.382   1.390   2.924  1.3253 -0.2222  0.6312
  571MOL0     C78675   8.466   1.508   2.970 -0.3591  0.0165  0.1296
  571MOL0     C78676   8.532   1.485   3.107  0.3271 -0.4331  0.1644
  571MOL0     N78677   8.473   1.569   3.213 -0.6186 -0.2610 -0.0203
  571MOL0     C78678   8.522   1.569   3.339  0.0690 -0.2185  0.1819
  571MOL0     C78679   8.479   1.689   3.396 -0.6537 -0.6954 -0.4825
  571MOL0     C78680   8.539   1.738   3.521 -0.7163  0.2601 -0.5077
  571MOL0     C78681   8.571   1.888   3.531  0.1403 -0.1246  0.0505
  571MOL0     C78682   8.664   1.927   3.651 -0.0975 -0.7858 -0.1113
  571MOL0     C78683   8.593   1.885   3.790  0.4504  0.7810 -0.3107
  571MOL0     O78684   8.673   1.924   3.907  0.0615 -0.3827 -0.1554
  571MOL0     C78685   8.787   1.866   3.949  0.2488  0.6868  0.4655
  571MOL0     C78686   8.850   1.949   4.035 -0.3652 -0.3664 -0.7189
  571MOL0     C78687   8.974   1.910   4.098 -0.0963  1.5925  0.7260
  571MOL0     C78688   9.047   2.004   4.190  0.6199 -0.2718  0.0684
  571MOL0     C78689   9.019   1.782   4.074  0.6044  0.0702 -0.5273
  571MOL0     C78690   9.148   1.724   4.132 -0.3859 -0.4682 -0.0662
  571MOL0     O78691   9.254   1.806   4.140 -0.4471  0.0070 -0.1786
  571MOL0     C78692   9.375   1.780   4.204  0.8467 -0.5066 -0.3270
  571MOL0     C78693   9.501   1.776   4.134 -0.2448 -0.5714  0.3489
  571MOL0     C78694   9.619   1.731   4.202 -1.4514 -0.3734 -0.4856
  571MOL0     C78695   9.609   1.700   4.342  0.5381 -1.1788  0.2737
  571MOL0     O78696   9.730   1.676   4.408  0.3429 -0.4180 -0.5592
  571MOL0     C78697   9.746   1.622   4.540  0.0844 -0.1251  0.4125
  571MOL0     C78698   9.896   1.601   4.561 -0.1342  0.1036 -0.0420
  571MOL0     C78699   9.958   1.470   4.497 -0.5536 -0.5668 -0.5139
  571MOL0     C78700   9.897   1.345   4.566  0.7678 -0.0019  0.0902
  571MOL0     C78701   9.958   1.213   4.530 -0.5357 -0.2079 -0.0657
  571MOL0     C78702   9.945   1.184   4.380 -0.2117 -0.7090  0.4866
  571MOL0     C78703  10.002   1.050   4.331  0.4929  0.0982 -0.1948
  571MOL0     C78704   9.947   0.920   4.403 -0.6355 -0.6806  0.4592
  571MOL0    Cl78705   9.768   0.915   4.390 -0.5203 -0.3875  0.3509
  571MOL0     C78706   9.484   1.723   4.409 -1.4953  0.4069  0.5126
  571MOL0     C78707   9.372   1.754   4.337  0.5358  0.5526 -0.1834
  571MOL0     O78708   9.148   1.605   4.156  0.4922  0.3638 -0.0540
  571MOL0     C78709   8.946   1.697   3.988 -0.1681  0.6296 -0.6254
  571MOL0     C78710   8.821   1.733   3.940  0.0804 -1.1134  0.0549
  571MOL0     N78711   8.391   1.740   3.299  0.2112 -0.7385  0.1853
  571MOL0     N78712   8.403   1.679   3.187 -0.2406  0.1694 -0.7932
  571MOL0     C78713   8.071   0.814   2.523 -0.7362 -0.0026  0.2083
  571MOL0     C78714   7.960   0.764   2.459  0.8152 -0.5649  0.2020
  571MOL0     C78715   7.714   0.412   2.274  0.0237  0.7389  0.2598
  571MOL0     C78716   7.644   0.470   2.175  0.0632 -0.6419  0.0160
  571MOL0     C78717   7.548   0.393   2.102  0.1576 -0.7471  0.3793
  571MOL0     C78718   7.521   0.259   2.130 -0.0426 -0.0173 -0.1254
  571MOL0     O78719   7.419   0.187   2.074  0.5783  0.8640 -0.8747
  571MOL0     C78720   7.309   0.251   2.007 -0.7036 -0.3510 -0.3346
  571MOL0     C78721   7.229   0.344   2.107 -0.8467 -0.6033  0.6017
  571MOL0     C78722   7.171   0.274   2.228  0.7016 -0.2022 -0.6493
  571MOL0     C78723   7.060   0.176   2.181 -0.3037  0.1119  0.2983
  571MOL0     C78724   6.964   0.138   2.281  0.7646 -0.6350 -0.4618
  571MOL0     C78725   6.875   0.121   2.367 -0.0747 -0.0337  0.1860
  571MOL0     C78726   7.595   0.203   2.233 -0.1752  0.3490  0.2615
  571MOL0     C78727   7.695   0.266   2.295 -0.1738  0.2140 -0.4836
  571MOL0     C78728   7.783   0.186   2.387  0.8306 -0.4341 -0.6177
  571MOL0     H78729   8.110   0.534   2.264 -0.1829 -1.2040  1.5476
  571MOL0     H78730   8.312   0.631   2.383 -1.4424 -2.3413 -1.0370
  571MOL0     H78731   8.256   0.963   2.687 -0.7918  1.8779 -0.6940
  571MOL0     H78732   8.350   1.023   2.544  0.9234 -1.6298 -0.7804
  571MOL0     H78733   8.486   0.834   2.735 -0.1305  0.7952  1.8410
  571MOL0     H78734   8.552   0.969   2.646 -0.1275  0.7973 -0.4911
  571MOL0     H78735   8.377   0.985   2.900 -0.6439  1.3628  0.3307
  571MOL0     H78736   8.552   1.028   2.883  0.0274  1.5909 -0.5774
  571MOL0     H78737   8.471   1.212   2.710 -1.4715  0.3111 -0.7589
  571MOL0     H78738   8.316   1.180   2.775  0.7194  2.5897 -0.9593
  571MOL0     H78739   8.564   1.277   2.913  0.1040  2.1867 -1.6948
  571MOL0     H78740   8.424   1.219   3.017  1.2183  0.2934  0.8251
  571MOL0     H78741   8.342   1.429   2.830  2.4028  0.0362  0.2770
  571MOL0     H78742   8.294   1.376   2.988  1.6993  1.2799  1.5055
  571MOL0     H78743   8.398   1.594   2.974 -0.7952 -0.1670 -2.1126
  571MOL0     H78744   8.547   1.534   2.901  1.9788 -1.2498  2.2369
  571MOL0     H78745   8.526   1.382   3.143 -1.2359 -1.2031 -2.1324
  571MOL0     H78746   8.638   1.513   3.104  0.7920 -2.0642  0.4324
  571MOL0     H78747   8.586   1.493   3.381  0.2614  0.0637  0.4049
  571MOL0     H78748   8.635   1.689   3.543 -1.9086 -1.0432  2.2905
  571MOL0     H78749   8.478   1.723   3.610 -0.5330  2.6451  0.1044
  571MOL0     H78750   8.618   1.906   3.434 -0.7116 -2.3806 -0.8286
  571MOL0     H78751   8.480   1.948   3.532 -0.9024 -1.6633 -0.0770
  571MOL0     H78752   8.760   1.875   3.647 -0.3395 -1.1713 -2.5266
  571MOL0     H78753   8.684   2.035   3.644 -0.1298 -0.6169  1.7610
  571MOL0     H78754   8.503   1.944   3.808 -0.7779 -0.6122 -1.6270
  571MOL0     H78755   8.552   1.784   3.795 -1.4282  1.4266 -1.4692
  571MOL0     H78756   8.805   2.043   4.064 -1.1432 -0.3572 -1.8977
  571MOL0     H78757   8.981   2.090   4.205  0.6938  0.0658 -1.3686
  571MOL0     H78758   9.145   2.031   4.150  1.6728 -0.3484  2.4333
  571MOL0     H78759   9.061   1.944   4.281 -1.8303 -1.2662 -0.1306
  571MOL0     H78760   9.505   1.795   4.027 -2.7956 -1.4932  0.0147
  571MOL0     H78761   9.715   1.725   4.152 -0.7642  0.5098  0.6625
  571MOL0     H78762   9.705   1.702   4.603 -0.9134 -0.0640 -0.2922
  571MOL0     H78763   9.679   1.536   4.553  0.7121 -0.7217 -0.2321
  571MOL0     H78764   9.943   1.688   4.513  0.7002 -2.2946 -4.0297
  571MOL0     H78765   9.909   1.610   4.669 -2.1673  2.0347  0.1160
  571MOL0     H78766  10.067   1.477   4.506 -0.6801  1.3379 -0.2099
  571MOL0     H78767   9.932   1.459   4.391  2.6714  0.0114 -1.4627
  571MOL0     H78768   9.789   1.351   4.552  0.4566  1.1303  2.5275
  571MOL0     H78769   9.930   1.367   4.668  0.5050  1.7268 -0.1666
  571MOL0     H78770  10.060   1.229   4.566 -1.2102 -0.2619  1.9797
  571MOL0     H78771   9.923   1.129   4.590  3.0259 -1.8786 -0.0703
  571MOL0     H78772   9.994   1.261   4.320 -2.1857 -1.5796 -2.4874
  571MOL0     H78773   9.837   1.189   4.362 -0.3491 -0.5428  1.3240
  571MOL0     H78774  10.110   1.040   4.318  0.2625 -0.2215 -2.1880
  571MOL0     H78775   9.961   1.038   4.230  1.4935  0.0525 -0.6154
  571MOL0     H78776   9.972   0.912   4.509 -1.7221 -2.6639  0.6176
  571MOL0     H78777   9.984   0.826   4.359 -0.9210 -1.3592  1.6165
  571MOL0     H78778   9.492   1.719   4.518 -1.1572  0.3247  0.4859
  571MOL0     H78779   9.273   1.776   4.377  0.2136  1.9173 -1.6715
  571MOL0     H78780   8.974   1.593   3.971 -2.1097  0.0678 -0.5927
  571MOL0     H78781   8.762   1.661   3.884  0.7249 -1.2829 -0.4304
  571MOL0     H78782   8.069   0.884   2.606  3.9715  0.8006 -0.0701
  571MOL0     H78783   7.863   0.803   2.487  1.2764  0.8401 -0.0749
  571MOL0     H78784   7.668   0.574   2.151  4.0046 -1.7906 -2.0054
  571MOL0     H78785   7.482   0.459   2.047  1.1092  1.1000  1.3453
  571MOL0     H78786   7.356   0.303   1.923  0.9145  0.9088  1.2777
  571MOL0     H78787   7.245   0.169   1.973  0.1983 -0.6748 -1.2889
  571MOL0     H78788   7.145   0.399   2.062  1.2719  0.8790 -1.7697
  571MOL0     H78789   7.294   0.420   2.151 -3.0716  1.1086  1.1164
  571MOL0     H78790   7.249   0.216   2.279  0.9113  1.4216  1.0102
  571MOL0     H78791   7.121   0.350   2.290 -3.1055 -0.3376 -3.1938
  571MOL0     H78792   7.123   0.093   2.149  0.7309  0.3634  1.5840
  571MOL0     H78793   7.011   0.219   2.093  0.9651 -0.7060 -0.8342
  571MOL0     H78794   6.813   0.104   2.453 -0.0077  1.2827  0.5053
  571MOL0     H78795   7.564   0.100   2.252  1.6180 -0.0422  1.3778
  571MOL0     H78796   7.767   0.079   2.372  0.3649 -0.3165 -0.9771
  571MOL0     H78797   7.890   0.206   2.371  1.4013 -1.6424  1.3909
  571MOL0     H78798   7.762   0.205   2.493  1.5495 -0.6224 -0.4310
  572MOL0     O78799   8.857   2.618   5.279  0.6862 -0.3220  0.3144
  572MOL0     C78800   8.804   2.678   5.189 -0.1715 -0.1537  0.7989
  572MOL0     O78801   8.792   2.628   5.057  0.0711 -0.2790 -0.2242
  572MOL0     C78802   8.831   2.491   5.034 -0.8197 -0.6434 -0.0191
  572MOL0     C78803   8.928   2.414   5.095 -0.5820 -0.5781  0.1347
  572MOL0     C78804   8.949   2.276   5.082  0.4415  0.0461 -0.7157
  572MOL0     C78805   8.872   2.206   4.993 -0.1256  0.8998  0.8565
  572MOL0     O78806   8.872   2.071   5.007 -0.0827 -0.6043 -0.2027
  572MOL0     C78807   8.843   2.002   4.882  0.7498 -0.0733 -0.5089
  572MOL0     C78808   8.922   1.877   4.872 -0.5547 -0.2691 -0.1843
  572MOL0     C78809   8.867   1.768   4.963 -0.6358  0.4782 -0.6743
  572MOL0     C78810   8.866   1.634   4.891  0.4022 -0.5517  1.4788
  572MOL0     C78811   8.790   1.523   4.942  0.2601 -0.0058 -1.1591
  572MOL0     C78812   8.854   1.456   5.062 -0.0460 -0.4025 -0.3322
  572MOL0     C78813   8.790   1.307   5.075  0.1028  0.2486  0.7361
  572MOL0     C78814   8.804   1.229   5.213 -0.3543  0.2592  0.9458
  572MOL0     N78815   8.948   1.196   5.237  0.4951  0.4772  0.1190
  572MOL0     C78816   9.014   1.197   5.358 -0.4968  0.0116  0.7801
  572MOL0     C78817   9.146   1.177   5.329  0.5089 -0.3871  0.2760
  572MOL0     C78818   9.263   1.149   5.426 -0.3297  0.0994 -0.3368
  572MOL0     C78819   9.263   1.019   5.493  1.1020  0.0761 -0.3101
  572MOL0     C78820   9.287   0.906   5.395  0.2030 -0.1547  0.4541
  572MOL0     C78821   9.310   0.768   5.460 -0.1035  0.9445 -1.2077
  572MOL0     O78822   9.421   0.776   5.552 -0.0912  0.4510  0.6744
  572MOL0     C78823   9.548   0.759   5.500  0.4911 -0.4878 -1.0432
  572MOL0     C78824   9.647   0.762   5.594  0.4307 -0.4067 -0.1961
  572MOL0     C78825   9.789   0.742   5.567  0.5796 -0.5379  0.4076
  572MOL0     C78826   9.885   0.737   5.689  0.3587  0.1185  0.1234
  572MOL0     C78827   9.824   0.720   5.434 -0.2536  0.0512 -0.0519
  572MOL0     C78828   9.962   0.686   5.385 -1.6196  0.3760  0.2805
  572MOL0     O78829  10.065   0.665   5.472 -1.2396  0.4043  0.2279
  572MOL0     C78830  10.185   0.623   5.436  0.1041  0.3488 -0.4380
  572MOL0     C78831  10.238   0.502   5.492 -0.3090 -1.1690 -0.0581
  572MOL0     C78832  10.354   0.444   5.449 -0.7019  0.3529  0.2477
  572MOL0     C78833  10.430   0.506   5.350 -0.0761  0.2477  0.0546
  572MOL0     O78834  10.555   0.456   5.331 -0.4424  0.1605 -0.0816
  572MOL0     C78835  10.662   0.518   5.410 -0.5351  0.3228  0.4424
  572MOL0     C78836  10.777   0.410   5.441 -0.5927 -0.6471  0.2770
  572MOL0     C78837  10.736   0.309   5.565 -0.5238 -1.0214  0.4280
  572MOL0     C78838  10.859   0.238   5.629  0.3426 -0.4317 -0.5564
  572MOL0     C78839  10.826   0.155   5.759  0.3834 -0.0731  0.2603
  572MOL0     C78840  10.955   0.136   5.838 -0.5012  0.0583  0.0661
  572MOL0     C78841  10.933   0.070   5.972 -0.6665 -1.5768  0.5553
  572MOL0     C78842  10.942  -0.081   5.954  0.0172  0.1712  0.1662
  572MOL0    Cl78843  10.935  -0.145   6.121 -0.4448  0.0807 -0.6715
  572MOL0     C78844  10.378   0.619   5.283 -0.4804 -1.2583 -0.0131
  572MOL0     C78845  10.261   0.673   5.329 -0.4789 -1.3848 -0.2594
  572MOL0     O78846   9.971   0.667   5.265 -0.8790  0.3376  0.1773
  572MOL0     C78847   9.723   0.720   5.340 -0.2429  0.0832  0.1071
  572MOL0     C78848   9.589   0.745   5.362 -0.4404 -0.4222 -0.1836
  572MOL0     N78849   9.164   1.181   5.192 -0.8088  0.9489 -0.2540
  572MOL0     N78850   9.043   1.182   5.143  0.6377  0.6098  0.1985
  572MOL0     C78851   8.783   2.282   4.911  0.6891 -0.3544 -0.3112
  572MOL0     C78852   8.763   2.423   4.939 -0.1597 -0.7092  0.1616
  572MOL0     C78853   8.745   2.817   5.214 -0.1655 -0.5434  0.8344
  572MOL0     C78854   8.733   2.899   5.098 -0.2664  0.2838 -0.0608
  572MOL0     C78855   8.699   3.031   5.108  0.0748 -0.4462 -0.6190
  572MOL0     C78856   8.658   3.086   5.233  0.2727 -0.2528  0.5111
  572MOL0     O78857   8.572   3.192   5.219  0.0617 -0.1285  0.3673
  572MOL0     C78858   8.581   3.292   5.324  0.6651  0.2825 -0.1851
  572MOL0     C78859   8.592   3.431   5.257  0.4961 -0.2162 -0.3448
  572MOL0     C78860   8.477   3.479   5.185  0.8542  0.7356 -0.5860
  572MOL0     C78861   8.518   3.607   5.110 -0.0648  0.8119 -0.2681
  572MOL0     C78862   8.403   3.656   5.028 -0.5539 -0.1400  0.0333
  572MOL0     C78863   8.314   3.689   4.955 -0.6136 -0.2077 -0.2867
  572MOL0     C78864   8.665   3.003   5.347  0.3481  0.6142 -0.6981
  572MOL0     C78865   8.706   2.874   5.336  0.0311  0.1245 -1.2973
  572MOL0     C78866   8.704   2.786   5.459  0.2430 -0.4730 -0.8111
  572MOL0     H78867   9.001   2.468   5.154 -0.0631 -2.4482  1.2734
  572MOL0     H78868   9.018   2.216   5.141  1.1224  1.2232 -0.2840
  572MOL0     H78869   8.877   2.069   4.802  3.3914  0.5748  1.0427
  572MOL0     H78870   8.736   1.980   4.889  0.8448 -0.1539  1.0985
  572MOL0     H78871   8.922   1.841   4.769  1.2002 -1.1004  0.0837
  572MOL0     H78872   9.024   1.904   4.899 -0.8929 -0.0935  1.0043
  572MOL0     H78873   8.938   1.761   5.047 -0.5448  1.9467 -0.6002
  572MOL0     H78874   8.772   1.789   5.014 -0.8570 -3.0863  0.6652
  572MOL0     H78875   8.817   1.657   4.796  0.3776  0.4271  1.7175
  572MOL0     H78876   8.971   1.610   4.868  0.7531  2.1082 -0.0904
  572MOL0     H78877   8.784   1.445   4.865 -0.1685 -0.4069 -0.7251
  572MOL0     H78878   8.689   1.557   4.967 -0.3283 -1.4335 -1.4913
  572MOL0     H78879   8.963   1.465   5.048  0.0863 -1.4286 -0.0484
  572MOL0     H78880   8.822   1.508   5.153 -4.6252 -2.5897 -0.4204
  572MOL0     H78881   8.818   1.249   4.987  1.8957  0.6995  0.9797
  572MOL0     H78882   8.682   1.315   5.057  0.1954 -1.0167 -0.6398
  572MOL0     H78883   8.763   1.290   5.294 -1.2819  1.9369 -0.7093
  572MOL0     H78884   8.753   1.133   5.207  2.3244 -1.1894 -1.1936
  572MOL0     H78885   8.963   1.187   5.453 -2.2958  1.1963 -0.0014
  572MOL0     H78886   9.262   1.227   5.504 -1.2350 -0.1661 -0.0683
  572MOL0     H78887   9.358   1.159   5.374  3.2351 -2.4340  4.8493
  572MOL0     H78888   9.336   1.031   5.573 -1.3423 -0.1853  2.0782
  572MOL0     H78889   9.170   0.996   5.545  1.6132  0.1835  0.6673
  572MOL0     H78890   9.193   0.897   5.339  0.9455 -1.0217 -0.7020
  572MOL0     H78891   9.376   0.912   5.332 -0.8503 -0.9286 -1.1776
  572MOL0     H78892   9.220   0.739   5.514 -0.6671  3.9698 -0.3375
  572MOL0     H78893   9.327   0.689   5.387 -0.7204 -0.1883 -0.1523
  572MOL0     H78894   9.619   0.786   5.696  1.2377  2.2253 -0.5112
  572MOL0     H78895   9.988   0.765   5.664  1.5891 -2.6610  1.6659
  572MOL0     H78896   9.892   0.634   5.723  2.9849 -0.8828 -2.9579
  572MOL0     H78897   9.859   0.802   5.774  0.1458  0.7195 -0.3905
  572MOL0     H78898  10.179   0.445   5.563 -1.8821  0.1411 -0.2624
  572MOL0     H78899  10.390   0.350   5.490 -2.0020 -0.6631 -0.8230
  572MOL0     H78900  10.723   0.594   5.361 -1.8799  1.2677  0.1845
  572MOL0     H78901  10.620   0.553   5.505  1.3657  0.7662  1.1718
  572MOL0     H78902  10.813   0.347   5.359 -1.7533 -0.2782 -0.5531
  572MOL0     H78903  10.857   0.479   5.466 -2.2366  1.5755 -0.2875
  572MOL0     H78904  10.678   0.231   5.515  0.3016 -2.7145  2.0404
  572MOL0     H78905  10.676   0.361   5.640 -1.6918  0.1979 -1.2507
  572MOL0     H78906  10.932   0.319   5.636 -2.7716  2.6052 -0.8698
  572MOL0     H78907  10.905   0.178   5.550  1.7862  1.3902 -1.1649
  572MOL0     H78908  10.759   0.214   5.823  1.1553  1.2599 -0.1189
  572MOL0     H78909  10.769   0.063   5.746  1.5340 -0.8754  0.7061
  572MOL0     H78910  11.004   0.230   5.867  1.8437 -1.0876  0.0374
  572MOL0     H78911  11.033   0.087   5.779 -0.5029  0.4694 -0.2836
  572MOL0     H78912  10.832   0.091   6.008  0.4617  1.4836  2.3577
  572MOL0     H78913  11.004   0.115   6.042 -0.5879  0.1610 -0.5752
  572MOL0     H78914  11.035  -0.119   5.910 -0.3379 -4.8130  2.9144
  572MOL0     H78915  10.865  -0.117   5.885  0.8041 -0.6091 -0.3220
  572MOL0     H78916  10.420   0.661   5.192  2.4722 -0.4883  1.5849
  572MOL0     H78917  10.236   0.768   5.285  2.5501  1.2205  3.0339
  572MOL0     H78918   9.731   0.686   5.237 -0.2548 -0.4112  0.2691
  572MOL0     H78919   9.511   0.744   5.286 -2.8310 -0.2674  2.1305
  572MOL0     H78920   8.725   2.232   4.834 -0.9408  1.9767 -0.6867
  572MOL0     H78921   8.682   2.472   4.886 -0.6530  0.1612  1.6534
  572MOL0     H78922   8.744   2.856   4.999 -0.2063 -1.4769  0.6692
  572MOL0     H78923   8.700   3.080   5.011  2.7656 -1.9849 -1.5019
  572MOL0     H78924   8.499   3.285   5.396 -2.3473  1.7997 -3.2105
  572MOL0     H78925   8.674   3.275   5.380  1.6102 -0.9249 -1.9964
  572MOL0     H78926   8.676   3.433   5.187 -0.7655  0.9298 -1.8973
  572MOL0     H78927   8.611   3.507   5.333 -0.3158  0.8040 -1.1305
  572MOL0     H78928   8.449   3.415   5.102  0.1305  0.0711  0.1543
  572MOL0     H78929   8.391   3.503   5.249  2.4756  2.9629  0.9421
  572MOL0     H78930   8.597   3.592   5.036 -0.0628 -2.5796  0.2549
  572MOL0     H78931   8.551   3.689   5.175  0.9686  0.6952 -0.6171
  572MOL0     H78932   8.226   3.742   4.924 -0.2458  1.2163  1.0261
  572MOL0     H78933   8.633   3.028   5.448 -1.0245 -5.5119  0.8413
  572MOL0     H78934   8.636   2.705   5.432 -0.5018  0.0965 -0.6987
  572MOL0     H78935   8.805   2.753   5.483 -0.7770 -2.0435  1.7020
  572MOL0     H78936   8.658   2.833   5.547 -1.5266  1.0001 -2.4160
  573MOL0     O78937   7.622  10.098   9.333  0.2965  0.1195  0.2630
  573MOL0     C78938   7.523  10.150   9.381  0.5465 -0.4140 -0.0572
  573MOL0     O78939   7.487  10.284   9.374 -0.2691  0.6723  0.0325
  573MOL0     C78940   7.524  10.364   9.271  0.3564 -0.0930  0.1734
  573MOL0     C78941   7.647  10.369   9.193 -0.0029  0.1976  0.5294
  573MOL0     C78942   7.673  10.468   9.087 -0.0553 -1.2621  1.1808
  573MOL0     C78943   7.590  10.573   9.063  1.0549 -0.9671  0.6837
  573MOL0     O78944   7.621  10.666   8.967  0.1959 -0.2362  0.4170
  573MOL0     C78945   7.500  10.729   8.916  0.8448  0.6529  0.4258
  573MOL0     C78946   7.421  10.640   8.823 -0.0586 -0.5169  0.2245
  573MOL0     C78947   7.282  10.687   8.800  0.1809 -0.2736 -0.7526
  573MOL0     C78948   7.203  10.604   8.701 -1.3668  0.3688  0.3116
  573MOL0     C78949   7.174  10.459   8.745  0.0972  0.0726 -0.6777
  573MOL0     C78950   7.092  10.388   8.638  0.0987 -0.6182  0.1861
  573MOL0     C78951   7.021  10.264   8.691  0.1992  0.1880  0.7381
  573MOL0     C78952   6.928  10.197   8.586 -0.2933 -0.1399  0.1251
  573MOL0     N78953   6.993  10.119   8.469 -0.1707  0.1731  0.3591
  573MOL0     C78954   7.048   9.992   8.479  0.4766  0.5269 -0.1835
  573MOL0     C78955   7.089   9.972   8.357 -0.0783  0.6057  0.9567
  573MOL0     C78956   7.143   9.837   8.328  0.1130  0.1116  0.0301
  573MOL0     C78957   7.034   9.749   8.247 -0.5583  0.1482 -0.4546
  573MOL0     C78958   7.102   9.673   8.134  0.5858  0.5468  0.9058
  573MOL0     C78959   7.135   9.769   8.010 -1.4068  1.0798 -0.1806
  573MOL0     O78960   7.191   9.693   7.901  0.0364  0.1491 -0.7678
  573MOL0     C78961   7.183   9.749   7.776  0.3476 -0.0975  0.3490
  573MOL0     C78962   7.185   9.665   7.665 -0.1693  0.5946  1.0674
  573MOL0     C78963   7.186   9.709   7.530 -0.5750 -0.4846 -0.7476
  573MOL0     C78964   7.182   9.592   7.430  0.0035  0.6429  1.8292
  573MOL0     C78965   7.153   9.846   7.507 -0.4095  0.6011 -0.5146
  573MOL0     C78966   7.155   9.902   7.368 -0.3115 -0.1384 -0.5609
  573MOL0     O78967   7.155  10.041   7.355  0.9294 -0.2605  0.4607
  573MOL0     C78968   7.184  10.116   7.243  0.0304 -0.4999  1.2069
  573MOL0     C78969   7.097  10.214   7.204 -0.0977 -0.3423  0.4447
  573MOL0     C78970   7.137  10.301   7.101 -0.6276 -0.4096 -0.5495
  573MOL0     C78971   7.273  10.291   7.048 -0.1279  0.0206 -0.0684
  573MOL0     O78972   7.323  10.386   6.967  0.0086 -0.2538 -0.1511
  573MOL0     C78973   7.290  10.515   6.998  1.0596  0.1679 -0.0480
  573MOL0     C78974   7.412  10.602   6.974  0.3700  0.5745  0.0432
  573MOL0     C78975   7.524  10.574   7.073  0.7697  0.6785 -1.0026
  573MOL0     C78976   7.652  10.651   7.067 -0.9445 -0.3534 -0.2246
  573MOL0     C78977   7.761  10.571   7.153  0.9620 -0.1612 -1.4603
  573MOL0     C78978   7.908  10.623   7.164  0.1214 -0.3529  0.0876
  573MOL0     C78979   7.951  10.676   7.029 -0.8040 -0.2948 -0.3183
  573MOL0     C78980   8.099  10.708   7.035  0.8304 -0.1187 -0.1577
  573MOL0    Cl78981   8.187  10.564   7.099 -0.2295 -0.3337 -0.4615
  573MOL0     C78982   7.347  10.184   7.080 -0.1066  0.1936  0.0226
  573MOL0     C78983   7.310  10.103   7.186  0.5538 -0.4579  0.1405
  573MOL0     O78984   7.166   9.821   7.273  0.3372  0.3970  0.7339
  573MOL0     C78985   7.142   9.926   7.624  0.5816 -0.6083  0.8943
  573MOL0     C78986   7.157   9.882   7.748 -1.7289 -0.2018 -0.3058
  573MOL0     N78987   7.084  10.083   8.279 -0.9093 -0.2715 -0.1518
  573MOL0     N78988   7.018  10.173   8.345 -0.8649 -0.3141 -0.1793
  573MOL0     C78989   7.479  10.587   9.144 -0.3300  0.2238 -0.3074
  573MOL0     C78990   7.454  10.480   9.232 -0.4404  0.1354 -0.4162
  573MOL0     C78991   7.439  10.068   9.480  0.8745 -0.4036 -0.0043
  573MOL0     C78992   7.501   9.985   9.566  0.5263  0.2678 -0.3200
  573MOL0     C78993   7.432   9.903   9.653 -0.0873 -0.8966  0.6045
  573MOL0     C78994   7.296   9.931   9.666 -0.4324  0.5054 -0.3085
  573MOL0     O78995   7.238   9.865   9.762  0.5608  1.0303  0.4900
  573MOL0     C78996   7.177   9.733   9.734  0.5534 -0.2212 -0.0551
  573MOL0     C78997   7.047   9.718   9.812  0.2871 -0.0341  0.9799
  573MOL0     C78998   6.995   9.572   9.789 -0.4169 -0.0741 -0.0837
  573MOL0     C78999   6.875   9.552   9.883 -0.3050  0.0090 -1.2334
  573MOL0     C79000   6.812   9.424   9.833 -0.4814  0.7055  0.0918
  573MOL0     C79001   6.752   9.324   9.812  0.1424 -0.1135  0.7712
  573MOL0     C79002   7.223  10.018   9.583 -0.0648  0.3794 -0.8627
  573MOL0     C79003   7.295  10.082   9.487  0.9074 -0.6449  0.3485
  573MOL0     C79004   7.215  10.178   9.393  1.3430  0.4924 -0.1595
  573MOL0     H79005   7.735  10.312   9.219 -0.0432 -0.7864 -1.3307
  573MOL0     H79006   7.765  10.452   9.032 -0.9369  0.6530 -0.9865
  573MOL0     H79007   7.528  10.819   8.861  0.3282  1.5107  1.5299
  573MOL0     H79008   7.432  10.773   8.990  1.8674  0.3579  1.5718
  573MOL0     H79009   7.476  10.639   8.728  1.1297 -2.0457  0.8755
  573MOL0     H79010   7.410  10.538   8.863 -1.6608 -0.8975 -1.1077
  573MOL0     H79011   7.234  10.691   8.899  2.1102  2.2339  0.1776
  573MOL0     H79012   7.296  10.789   8.763 -1.5818  0.1062 -0.4634
  573MOL0     H79013   7.102  10.646   8.700 -1.6392 -0.1855  1.7345
  573MOL0     H79014   7.246  10.603   8.600 -3.6284  0.5753 -0.7350
  573MOL0     H79015   7.119  10.474   8.838 -0.7797  0.1711 -1.1985
  573MOL0     H79016   7.267  10.412   8.777 -0.1540  0.2642  0.3788
  573MOL0     H79017   7.017  10.452   8.590  0.8573 -1.5380 -2.3710
  573MOL0     H79018   7.155  10.366   8.551 -5.9539 -2.2124 -4.4959
  573MOL0     H79019   6.965  10.274   8.784 -1.3117 -0.4905 -0.0598
  573MOL0     H79020   7.103  10.196   8.717  0.5039  1.6304  3.9312
  573MOL0     H79021   6.867  10.121   8.636  1.8503 -1.0162  1.5496
  573MOL0     H79022   6.866  10.269   8.532 -0.7182  0.0281  0.8227
  573MOL0     H79023   7.037   9.913   8.552 -0.5212 -2.3830 -3.2688
  573MOL0     H79024   7.185   9.782   8.413 -0.1344  0.2143  0.2216
  573MOL0     H79025   7.234   9.851   8.269  3.0342  0.6232  4.1584
  573MOL0     H79026   6.977   9.673   8.303  2.4086 -2.1292 -0.2605
  573MOL0     H79027   6.962   9.823   8.212 -2.2832 -1.2988 -0.1670
  573MOL0     H79028   7.188   9.623   8.179 -1.5108 -2.2194  2.1507
  573MOL0     H79029   7.051   9.584   8.095 -1.1815  1.1016  1.8531
  573MOL0     H79030   7.042   9.813   7.973  0.1461  4.3233 -0.5149
  573MOL0     H79031   7.206   9.844   8.046  0.6209 -1.2847  1.0631
  573MOL0     H79032   7.182   9.558   7.684 -0.4645  0.5622  0.8464
  573MOL0     H79033   7.253   9.603   7.347  0.3743 -3.4354  1.4126
  573MOL0     H79034   7.081   9.587   7.388  1.1170  0.4118 -1.0860
  573MOL0     H79035   7.208   9.495   7.473  1.1540 -0.3629 -0.8734
  573MOL0     H79036   7.007  10.224   7.263  0.0248 -0.7713  0.7091
  573MOL0     H79037   7.081  10.386   7.064  1.6578 -0.2405 -4.1034
  573MOL0     H79038   7.208  10.536   6.930  1.6839 -2.1010 -1.6208
  573MOL0     H79039   7.252  10.530   7.100 -2.0473  0.7509 -1.2078
  573MOL0     H79040   7.442  10.565   6.875  0.1340 -1.9084  0.8218
  573MOL0     H79041   7.364  10.699   6.973 -2.9872 -0.9588 -0.4786
  573MOL0     H79042   7.552  10.469   7.059  0.4047  0.4913 -0.3418
  573MOL0     H79043   7.481  10.591   7.172 -3.5522  1.9167 -2.8978
  573MOL0     H79044   7.634  10.754   7.101 -2.7647 -1.0381  1.0291
  573MOL0     H79045   7.694  10.652   6.966  0.0218 -1.1787  0.1488
  573MOL0     H79046   7.729  10.559   7.257  1.0552 -0.6144 -1.4827
  573MOL0     H79047   7.764  10.469   7.115  2.9148  0.5077 -3.2533
  573MOL0     H79048   7.965  10.534   7.193  1.1897 -0.2129 -1.4094
  573MOL0     H79049   7.916  10.704   7.237  0.5982  0.8147 -1.2111
  573MOL0     H79050   7.908  10.774   7.008  1.3328  0.9655  0.7842
  573MOL0     H79051   7.942  10.602   6.948  1.4506  0.9847 -1.8640
  573MOL0     H79052   8.112  10.793   7.102 -4.5871  1.9353 -1.1471
  573MOL0     H79053   8.130  10.735   6.933  0.0190 -0.3341 -0.4652
  573MOL0     H79054   7.446  10.180   7.035 -0.0165 -2.8521  0.2636
  573MOL0     H79055   7.374  10.022   7.217 -0.8453 -0.6562  2.7458
  573MOL0     H79056   7.120  10.031   7.606 -1.1738 -1.0060  0.5743
  573MOL0     H79057   7.144   9.945   7.835  2.7256 -1.2055  1.3865
  573MOL0     H79058   7.409  10.670   9.147 -0.0854  0.4547 -0.8300
  573MOL0     H79059   7.369  10.512   9.291  0.6992 -1.8521  2.5505
  573MOL0     H79060   7.608   9.968   9.553  0.4754  1.8813 -4.3204
  573MOL0     H79061   7.486   9.834   9.718 -0.9615 -1.1673  1.0663
  573MOL0     H79062   7.159   9.733   9.626 -1.4164 -1.7376  0.2221
  573MOL0     H79063   7.246   9.649   9.745 -0.3225 -0.8849  0.4119
  573MOL0     H79064   6.970   9.784   9.773  2.0317  0.1155 -2.6433
  573MOL0     H79065   7.075   9.735   9.916  2.7741 -0.5716  0.4676
  573MOL0     H79066   6.961   9.564   9.686 -3.0324  0.8869  0.6262
  573MOL0     H79067   7.072   9.494   9.799 -2.5191 -2.2389  0.2586
  573MOL0     H79068   6.810   9.640   9.890  1.7918  1.5218  1.1374
  573MOL0     H79069   6.905   9.528   9.986 -1.5978 -0.2216 -0.8895
  573MOL0     H79070   6.700   9.232   9.794 -0.1512  0.3888 -1.1480
  573MOL0     H79071   7.115  10.024   9.595  0.1820 -0.1154  2.5666
  573MOL0     H79072   7.211  10.280   9.430  1.6294 -0.1852  1.8662
  573MOL0     H79073   7.250  10.176   9.289 -2.5683  1.5938 -1.6684
  573MOL0     H79074   7.108  10.154   9.385  1.5398  0.2135 -3.3856
  574MOL0     O79075   2.452   5.045  10.475  0.3102 -0.3323  0.1122
  574MOL0     C79076   2.500   4.934  10.470 -0.1908 -0.4053  0.7911
  574MOL0     O79077   2.615   4.908  10.537 -0.8442  0.4279 -0.2067
  574MOL0     C79078   2.689   5.008  10.603 -1.3157 -0.2470  0.4888
  574MOL0     C79079   2.804   5.049  10.534 -0.1380 -0.6156 -0.8250
  574MOL0     C79080   2.866   5.164  10.581 -0.2100 -1.1390 -0.0990
  574MOL0     C79081   2.817   5.233  10.697  0.0189 -0.4104 -0.2908
  574MOL0     O79082   2.864   5.351  10.747 -0.0370 -0.5468 -0.6855
  574MOL0     C79083   2.975   5.412  10.681 -0.2534 -0.2572  0.5662
  574MOL0     C79084   2.997   5.561  10.722  0.4589 -0.1433  0.3127
  574MOL0     C79085   3.011   5.594  10.869 -0.6105 -0.9124  0.2933
  574MOL0     C79086   3.038   5.745  10.908 -0.5273  0.0889 -0.2755
  574MOL0     C79087   3.070   5.785  11.045  0.2047 -0.7541  0.1521
  574MOL0     C79088   2.952   5.768  11.137  0.0146  0.0700 -1.1830
  574MOL0     C79089   2.967   5.819  11.279 -0.2159 -0.1748  0.8296
  574MOL0     C79090   3.076   5.743  11.357  0.1791  0.2555 -1.0371
  574MOL0     N79091   3.090   5.772  11.505  0.1948  0.3988  0.4753
  574MOL0     C79092   3.209   5.761  11.566 -0.8652 -0.6061 -0.2032
  574MOL0     C79093   3.205   5.844  11.676  0.0945  0.5014  0.3068
  574MOL0     C79094   3.310   5.872  11.767 -0.2546  0.0750 -0.6714
  574MOL0     C79095   3.311   6.023  11.811 -0.0542  0.3670  0.3894
  574MOL0     C79096   3.451   6.073  11.835 -0.5696 -0.2007 -0.1868
  574MOL0     C79097   3.470   6.221  11.883  0.4099 -0.2454 -0.7889
  574MOL0     O79098   3.487   6.231  12.028 -0.3893  0.3932 -0.0562
  574MOL0     C79099   3.592   6.311  12.078  1.3684  0.4996  0.1661
  574MOL0     C79100   3.626   6.281  12.209  0.0420  0.2633 -0.3132
  574MOL0     C79101   3.701   6.372  12.280  0.2502 -0.3501 -0.5885
  574MOL0     C79102   3.712   6.332  12.425  0.0110 -0.1667 -0.3413
  574MOL0     C79103   3.755   6.483  12.219  0.0206  0.2193 -0.1225
  574MOL0     C79104   3.853   6.576  12.289 -0.3766 -0.9872  0.4223
  574MOL0     O79105   3.946   6.646  12.212 -0.2592 -0.5291  0.8703
  574MOL0     C79106   3.997   6.769  12.264  0.5227  1.0804 -1.3925
  574MOL0     C79107   4.128   6.790  12.235 -0.0968 -0.0841  0.3338
  574MOL0     C79108   4.200   6.902  12.281  0.0887 -0.3929 -0.2074
  574MOL0     C79109   4.136   6.991  12.361 -0.6193  0.2016  0.1534
  574MOL0     O79110   4.207   7.084  12.423 -1.3217 -0.9730  0.0105
  574MOL0     C79111   4.155   7.225  12.410 -0.2133  0.2324  0.6430
  574MOL0     C79112   4.195   7.298  12.535  0.2570  0.2129  0.5287
  574MOL0     C79113   4.139   7.440  12.529  0.0341  1.5015  0.2946
  574MOL0     C79114   4.231   7.545  12.468 -0.2574  0.0423 -1.0995
  574MOL0     C79115   4.188   7.682  12.524  0.4722  1.3577 -0.4061
  574MOL0     C79116   4.253   7.798  12.443  0.1360 -0.5309  0.6761
  574MOL0     C79117   4.226   7.933  12.515 -0.6574 -0.1745  0.4727
  574MOL0     C79118   4.079   7.971  12.523 -0.0641  0.0005  0.7554
  574MOL0    Cl79119   3.980   7.912  12.667  0.2860 -0.0200 -0.7903
  574MOL0     C79120   4.009   6.967  12.406  0.5373  0.1731  0.1816
  574MOL0     C79121   3.933   6.857  12.352  0.0857 -0.0277 -0.0415
  574MOL0     O79122   3.864   6.580  12.410 -0.1592 -0.5045 -0.1274
  574MOL0     C79123   3.732   6.508  12.085 -0.3789 -1.1050 -0.8429
  574MOL0     C79124   3.647   6.426  12.012  0.7287  1.3185  0.1522
  574MOL0     N79125   3.082   5.913  11.677 -0.3008 -0.6699 -0.0551
  574MOL0     N79126   3.012   5.867  11.576  0.2383  0.0169 -0.1097
  574MOL0     C79127   2.716   5.179  10.767 -0.2821 -0.3340  1.0468
  574MOL0     C79128   2.652   5.066  10.727 -0.1865 -0.6511  1.3888
  574MOL0     C79129   2.436   4.826  10.386  0.4694  0.6571  0.2072
  574MOL0     C79130   2.458   4.692  10.419  0.5202 -0.1696  0.5473
  574MOL0     C79131   2.413   4.589  10.338 -0.1529 -0.2037 -0.4973
  574MOL0     C79132   2.329   4.615  10.234  0.1653 -0.6650 -0.5555
  574MOL0     O79133   2.262   4.520  10.161  0.1463 -0.9392  0.4034
  574MOL0     C79134   2.317   4.398  10.149 -0.0355  0.4512  0.7346
  574MOL0     C79135   2.256   4.300  10.250  0.3876 -0.2109  0.4047
  574MOL0     C79136   2.285   4.157  10.215  0.3429 -0.0217  0.2004
  574MOL0     C79137   2.239   4.054  10.326 -0.2756 -0.4375  0.9111
  574MOL0     C79138   2.294   3.924  10.289 -0.3773  0.3651 -0.7500
  574MOL0     C79139   2.339   3.816  10.271 -0.3120 -0.2658 -1.6054
  574MOL0     C79140   2.300   4.747  10.200 -0.2113 -0.4229  0.2076
  574MOL0     C79141   2.353   4.851  10.273 -0.8023 -1.0007 -0.9196
  574MOL0     C79142   2.313   4.993  10.230 -0.4307  0.6105 -1.5759
  574MOL0     H79143   2.833   5.002  10.441  1.3466 -2.8555  0.6681
  574MOL0     H79144   2.951   5.204  10.527 -0.4104  0.4687  0.7000
  574MOL0     H79145   2.967   5.400  10.572  1.2285 -2.4513  0.6460
  574MOL0     H79146   3.055   5.347  10.715 -0.6505 -1.5240 -0.7779
  574MOL0     H79147   3.082   5.606  10.671 -0.2105 -1.1782 -1.8453
  574MOL0     H79148   2.911   5.617  10.686  1.7223  1.2323 -0.6699
  574MOL0     H79149   2.921   5.557  10.919 -1.6043  1.2070  0.1962
  574MOL0     H79150   3.095   5.537  10.908 -0.1353 -0.2928  0.1948
  574MOL0     H79151   3.137   5.765  10.865  1.1056 -3.7810  1.1984
  574MOL0     H79152   2.972   5.817  10.858  2.8861  4.7688  1.2427
  574MOL0     H79153   3.088   5.893  11.043 -2.8781 -0.1491  0.0380
  574MOL0     H79154   3.157   5.741  11.094  0.3114  0.6264  1.2519
  574MOL0     H79155   2.870   5.818  11.084  0.5321  3.0437  0.6069
  574MOL0     H79156   2.933   5.660  11.138  1.2491 -0.1584  0.4138
  574MOL0     H79157   2.871   5.814  11.330 -2.2143  0.9702 -2.5077
  574MOL0     H79158   3.001   5.923  11.272 -1.9513  0.3906  0.5296
  574MOL0     H79159   3.054   5.637  11.343  0.1122 -0.1233  1.4208
  574MOL0     H79160   3.176   5.762  11.318  0.9061 -1.1382  0.0332
  574MOL0     H79161   3.299   5.715  11.525 -0.1198 -1.3368  2.0821
  574MOL0     H79162   3.406   5.844  11.723  0.5097 -1.3862  1.7274
  574MOL0     H79163   3.296   5.810  11.856  2.8450 -1.1656 -0.9525
  574MOL0     H79164   3.268   6.081  11.729 -1.2254 -0.0115  0.7240
  574MOL0     H79165   3.238   6.047  11.889 -0.3526 -1.0039  0.5527
  574MOL0     H79166   3.508   6.002  11.896 -3.7801 -2.8145  0.0573
  574MOL0     H79167   3.507   6.075  11.741  2.2543  0.0655  1.3903
  574MOL0     H79168   3.560   6.259  11.834  0.1963  2.6406  0.8415
  574MOL0     H79169   3.388   6.287  11.855 -1.6873 -1.8242  1.2173
  574MOL0     H79170   3.584   6.188  12.245  2.1104  0.4536  2.9956
  574MOL0     H79171   3.648   6.245  12.439  1.1087 -1.0164 -0.5348
  574MOL0     H79172   3.675   6.408  12.495  2.4889  1.8882 -1.1269
  574MOL0     H79173   3.814   6.302  12.452 -0.4000 -0.3365  1.1291
  574MOL0     H79174   4.167   6.715  12.167 -1.8059 -1.1922  0.5191
  574MOL0     H79175   4.305   6.912  12.255 -0.1778  1.3357 -0.7666
  574MOL0     H79176   4.206   7.268  12.324  0.6790 -1.3007  0.3677
  574MOL0     H79177   4.049   7.228  12.384  0.2202 -0.6563 -1.3647
  574MOL0     H79178   4.158   7.234  12.616 -1.4196  2.1135  1.3528
  574MOL0     H79179   4.305   7.298  12.542  0.1893 -0.6497  1.7974
  574MOL0     H79180   4.132   7.461  12.636  0.2398 -0.5633  0.7701
  574MOL0     H79181   4.035   7.443  12.496 -0.4777 -2.5277  0.9569
  574MOL0     H79182   4.219   7.521  12.361 -0.1150 -2.3593 -0.6380
  574MOL0     H79183   4.338   7.535  12.491 -0.3935 -2.8818 -1.2789
  574MOL0     H79184   4.078   7.685  12.529  0.4361 -0.2330  0.1298
  574MOL0     H79185   4.220   7.676  12.628  0.9997 -0.6831 -0.6617
  574MOL0     H79186   4.210   7.788  12.343 -1.1622  1.2091  1.0104
  574MOL0     H79187   4.359   7.776  12.432  0.4483  1.7582 -1.6951
  574MOL0     H79188   4.278   8.021  12.475 -1.9741  0.1330 -0.5993
  574MOL0     H79189   4.272   7.912  12.612 -0.3308  1.6898  0.7455
  574MOL0     H79190   4.022   7.941  12.435  2.0117  1.4791 -1.2111
  574MOL0     H79191   4.071   8.080  12.523 -1.3689 -0.0865  0.0353
  574MOL0     H79192   3.954   7.022  12.482 -1.5723  0.4175 -1.4102
  574MOL0     H79193   3.827   6.847  12.376  0.4865  0.6234  2.2006
  574MOL0     H79194   3.775   6.597  12.042  0.7762 -1.6061 -0.7741
  574MOL0     H79195   3.611   6.459  11.915 -1.0567 -1.4074 -0.2147
  574MOL0     H79196   2.685   5.235  10.855 -4.1400 -1.5257  0.6151
  574MOL0     H79197   2.578   5.006  10.779 -0.8278 -1.5272 -0.4786
  574MOL0     H79198   2.531   4.674  10.497  1.4390  1.7223  0.1619
  574MOL0     H79199   2.442   4.489  10.367 -2.4965 -1.1046 -1.0637
  574MOL0     H79200   2.303   4.364  10.046 -0.3025  1.3671  0.4626
  574MOL0     H79201   2.426   4.396  10.163  0.1551 -1.1926 -0.6711
  574MOL0     H79202   2.148   4.316  10.257  0.3918 -0.8083  2.6800
  574MOL0     H79203   2.296   4.317  10.351  0.9903 -0.3388  0.1924
  574MOL0     H79204   2.242   4.123  10.120 -1.1405  1.9091  0.1355
  574MOL0     H79205   2.393   4.145  10.201 -0.0031 -3.0364 -0.7088
  574MOL0     H79206   2.132   4.033  10.321  0.3245 -3.8343 -2.6834
  574MOL0     H79207   2.265   4.083  10.428 -0.2005 -0.7276  0.9769
  574MOL0     H79208   2.378   3.721  10.241 -1.8963 -1.3473 -0.3918
  574MOL0     H79209   2.228   4.754  10.119  1.8443 -2.4772 -1.9682
  574MOL0     H79210   2.407   5.044  10.203  0.4977  0.2363  0.6477
  574MOL0     H79211   2.249   4.980  10.143 -0.8432 -1.2438 -1.0347
  574MOL0     H79212   2.255   5.060  10.295  0.5412  1.0007 -1.0731
  575MOL0     O79213   6.035   9.981   2.764 -0.6450 -0.2819 -0.1105
  575MOL0     C79214   6.077  10.101   2.756  0.1954  1.2551  0.6359
  575MOL0     O79215   6.003  10.212   2.771 -0.6432 -0.0187  0.0942
  575MOL0     C79216   5.868  10.212   2.801 -0.6294  0.0777  0.0716
  575MOL0     C79217   5.785  10.111   2.763  1.2889 -0.5778  0.5515
  575MOL0     C79218   5.648  10.112   2.794  0.7665  0.2659  0.4918
  575MOL0     C79219   5.597  10.226   2.861 -1.5865  0.2069 -0.0562
  575MOL0     O79220   5.472  10.262   2.887  0.1898 -0.0985 -0.3365
  575MOL0     C79221   5.373  10.163   2.863  1.6369  0.0841  0.2154
  575MOL0     C79222   5.237  10.188   2.942 -0.2257 -0.3299 -0.5973
  575MOL0     C79223   5.274  10.192   3.085  0.3424 -0.5469  0.2847
  575MOL0     C79224   5.156  10.175   3.179  0.8231  0.8337  0.1576
  575MOL0     C79225   5.212  10.154   3.326 -0.5392 -0.1277 -0.9520
  575MOL0     C79226   5.111  10.168   3.439 -0.7686 -0.5013  0.7871
  575MOL0     C79227   5.014  10.049   3.442  0.4098 -0.4648 -0.3498
  575MOL0     C79228   4.906  10.061   3.548  0.7424  0.4292 -0.2847
  575MOL0     N79229   4.806  10.169   3.528 -0.1829 -0.2226  0.3401
  575MOL0     C79230   4.764  10.216   3.404  0.1997 -0.4099 -0.1854
  575MOL0     C79231   4.699  10.326   3.429 -0.0909 -0.9315 -0.4493
  575MOL0     C79232   4.634  10.431   3.342  0.0301 -0.7866  0.7864
  575MOL0     C79233   4.746  10.511   3.269  0.5031 -0.3032 -0.6068
  575MOL0     C79234   4.788  10.458   3.134  0.0088  0.1229  0.0569
  575MOL0     C79235   4.685  10.481   3.026 -0.5124 -0.0760 -0.5000
  575MOL0     O79236   4.597  10.378   3.026  0.4353  0.3930 -0.4441
  575MOL0     C79237   4.477  10.392   2.957 -0.5387  0.0230 -0.2170
  575MOL0     C79238   4.387  10.285   2.960  0.2151 -0.7001  0.5200
  575MOL0     C79239   4.258  10.305   2.908 -1.0200  0.6140  0.6088
  575MOL0     C79240   4.158  10.189   2.919  0.7351  0.2027 -0.0449
  575MOL0     C79241   4.227  10.424   2.840  0.1201  0.0349 -0.7816
  575MOL0     C79242   4.094  10.451   2.773 -0.1928  0.0338 -0.6698
  575MOL0     O79243   4.091  10.558   2.686  0.7669 -0.4041  0.2759
  575MOL0     C79244   3.988  10.596   2.600  0.1105 -0.6988  0.8480
  575MOL0     C79245   3.887  10.510   2.564  0.5073 -0.5231  0.3146
  575MOL0     C79246   3.777  10.558   2.484 -0.1003  0.6653 -0.1489
  575MOL0     C79247   3.774  10.688   2.438  0.1326 -0.6335  0.0228
  575MOL0     O79248   3.666  10.737   2.379  0.2874  1.0095  0.8252
  575MOL0     C79249   3.566  10.653   2.327 -0.1642 -0.3973 -0.0580
  575MOL0     C79250   3.455  10.623   2.431  0.3905 -0.1006  0.3353
  575MOL0     C79251   3.346  10.535   2.358  0.3498  0.1849  0.7354
  575MOL0     C79252   3.238  10.624   2.300  0.2595 -0.8831  0.1396
  575MOL0     C79253   3.134  10.547   2.227  0.0142  1.3488  0.0452
  575MOL0     C79254   3.010  10.629   2.172 -0.9137 -0.0075 -0.4938
  575MOL0     C79255   2.911  10.534   2.104  1.0879 -1.2855 -0.8618
  575MOL0     C79256   2.781  10.603   2.077  0.2799 -0.9513 -1.4909
  575MOL0    Cl79257   2.667  10.502   1.993 -0.2557  0.1251  0.1115
  575MOL0     C79258   3.885  10.768   2.473  0.1106  1.3444 -0.4708
  575MOL0     C79259   3.986  10.728   2.557 -0.0057  1.3959  0.4264
  575MOL0     O79260   4.005  10.377   2.804 -0.5543  0.2292  0.9417
  575MOL0     C79261   4.328  10.527   2.817  0.2416 -0.1766 -0.0955
  575MOL0     C79262   4.453  10.509   2.882  0.5867  0.4420 -0.2038
  575MOL0     N79263   4.687  10.336   3.568  0.6254 -0.0004  0.8608
  575MOL0     N79264   4.757  10.248   3.626  0.1170  0.1847  0.2556
  575MOL0     C79265   5.693  10.318   2.904 -0.5402 -0.4334 -0.3268
  575MOL0     C79266   5.829  10.317   2.872 -0.3454 -0.1027  0.0435
  575MOL0     C79267   6.213  10.122   2.703 -0.9325  0.6063  0.5628
  575MOL0     C79268   6.294  10.010   2.715 -0.0823  0.3226 -0.0426
  575MOL0     C79269   6.431  10.017   2.701  0.3657 -0.3878  0.1411
  575MOL0     C79270   6.495  10.133   2.650  0.6372 -0.5738 -0.6636
  575MOL0     O79271   6.628  10.128   2.634 -0.7069 -0.4559  0.2190
  575MOL0     C79272   6.703  10.222   2.557  0.0911  0.3780 -0.5700
  575MOL0     C79273   6.735  10.352   2.631  0.4910  0.0551 -0.0663
  575MOL0     C79274   6.822  10.452   2.551  0.1588  0.1922  0.6399
  575MOL0     C79275   6.982  10.427   2.579 -0.4830 -0.3317  0.6598
  575MOL0     C79276   7.031  10.301   2.539  0.4982  0.3370 -0.3981
  575MOL0     C79277   7.083  10.192   2.526 -0.3274 -0.4506 -0.4995
  575MOL0     C79278   6.408  10.239   2.608  0.5600  0.5709  0.0448
  575MOL0     C79279   6.269  10.240   2.637 -0.9405  0.2214 -0.5246
  575MOL0     C79280   6.198  10.366   2.598  0.2399  0.5383  0.0842
  575MOL0     H79281   5.822  10.032   2.699 -0.0414 -1.4570  0.8242
  575MOL0     H79282   5.583  10.029   2.769 -3.8463  3.5072  0.4301
  575MOL0     H79283   5.408  10.063   2.892 -1.3954 -0.3842  2.6981
  575MOL0     H79284   5.348  10.169   2.757  0.1469  2.2458  0.6218
  575MOL0     H79285   5.197  10.287   2.922 -0.4953 -0.4760 -0.7958
  575MOL0     H79286   5.167  10.106   2.921  1.2765 -1.8299 -0.0207
  575MOL0     H79287   5.338  10.105   3.105 -1.0839 -1.7725 -0.2801
  575MOL0     H79288   5.323  10.289   3.094  1.9902 -1.1302 -1.6807
  575MOL0     H79289   5.091  10.263   3.183 -2.2477 -1.3312  1.2568
  575MOL0     H79290   5.096  10.089   3.150 -0.0226  1.8030 -1.1059
  575MOL0     H79291   5.288  10.231   3.342 -0.9971  0.4545 -1.5216
  575MOL0     H79292   5.254  10.053   3.338 -1.1723 -0.1430  1.6049
  575MOL0     H79293   5.166  10.181   3.533  0.7791 -3.4831  0.3848
  575MOL0     H79294   5.051  10.257   3.413 -0.5978 -1.4895 -3.6210
  575MOL0     H79295   5.066   9.954   3.459  0.7047  0.1298  2.8632
  575MOL0     H79296   4.956  10.038   3.350 -0.3446  0.2190  0.0313
  575MOL0     H79297   4.859   9.962   3.548  0.5422  0.5210  0.6473
  575MOL0     H79298   4.948  10.078   3.647  1.5736 -1.3025 -0.2957
  575MOL0     H79299   4.787  10.189   3.301  2.6225 -0.1790  0.2265
  575MOL0     H79300   4.560  10.494   3.392 -0.9575 -0.1173 -1.3677
  575MOL0     H79301   4.578  10.382   3.262  0.8616 -0.9949  0.3248
  575MOL0     H79302   4.725  10.618   3.266  2.4306  0.1779  0.8414
  575MOL0     H79303   4.834  10.501   3.333  0.0855 -0.3219 -0.0265
  575MOL0     H79304   4.879  10.509   3.100 -0.8094 -0.2869 -3.0180
  575MOL0     H79305   4.827  10.358   3.155  1.8834  0.3335 -2.0524
  575MOL0     H79306   4.639  10.578   3.048  1.5968  0.7530  0.6489
  575MOL0     H79307   4.732  10.494   2.928  0.4950 -0.6602 -0.1103
  575MOL0     H79308   4.407  10.191   3.011 -2.5507 -2.8931 -2.1234
  575MOL0     H79309   4.094  10.208   3.006  1.0506 -0.7195  0.4058
  575MOL0     H79310   4.214  10.096   2.933  0.5563  0.1001 -0.0001
  575MOL0     H79311   4.091  10.173   2.834  1.7614  3.6990 -1.6654
  575MOL0     H79312   3.884  10.409   2.603 -2.0810 -0.1822  1.1897
  575MOL0     H79313   3.695  10.488   2.464  1.8550 -2.1544  1.0423
  575MOL0     H79314   3.517  10.704   2.243  0.2132 -1.2385 -0.8074
  575MOL0     H79315   3.595  10.558   2.281  0.8675 -0.2006  0.1827
  575MOL0     H79316   3.485  10.556   2.512  0.7689  0.8081  0.9647
  575MOL0     H79317   3.416  10.717   2.470  0.8206  1.0508 -1.8344
  575MOL0     H79318   3.294  10.471   2.430 -0.9187 -1.5301 -1.5579
  575MOL0     H79319   3.386  10.473   2.277 -1.0581 -1.7602  1.4392
  575MOL0     H79320   3.284  10.700   2.236 -1.7704  0.0722 -0.2670
  575MOL0     H79321   3.187  10.673   2.384  1.2335  0.7406 -0.1805
  575MOL0     H79322   3.167  10.484   2.144 -2.3265  0.6279 -0.4196
  575MOL0     H79323   3.115  10.475   2.307  0.0770 -1.4064 -2.2705
  575MOL0     H79324   3.050  10.708   2.107 -0.2028 -1.0420 -1.3517
  575MOL0     H79325   2.947  10.673   2.249  0.6525 -0.8772  1.3481
  575MOL0     H79326   2.898  10.452   2.175 -0.6436  1.5007  2.3536
  575MOL0     H79327   2.945  10.489   2.010 -0.1630 -3.6005 -0.2822
  575MOL0     H79328   2.791  10.689   2.010 -0.2551 -1.4957 -2.2984
  575MOL0     H79329   2.740  10.630   2.175  1.6081  0.4485 -1.3003
  575MOL0     H79330   3.874  10.870   2.440 -1.1450 -0.0751 -5.0857
  575MOL0     H79331   4.059  10.802   2.587  1.1753  1.0168 -1.3777
  575MOL0     H79332   4.309  10.609   2.748  0.2742 -2.3116 -2.8288
  575MOL0     H79333   4.521  10.593   2.868 -1.6237  2.3826  0.1146
  575MOL0     H79334   5.653  10.399   2.964 -0.5923 -0.3675 -0.4485
  575MOL0     H79335   5.895  10.397   2.904  0.3100 -1.3798  2.0610
  575MOL0     H79336   6.265   9.913   2.754  1.5592  0.6289  2.1513
  575MOL0     H79337   6.492   9.930   2.721 -1.8420 -1.8512  0.7550
  575MOL0     H79338   6.791  10.166   2.526 -2.5159 -3.3426 -2.0824
  575MOL0     H79339   6.647  10.249   2.466  1.6093 -1.1237 -2.0112
  575MOL0     H79340   6.774  10.338   2.732  0.3421 -1.7210 -0.2256
  575MOL0     H79341   6.640  10.400   2.656 -0.2260 -1.2436 -0.2188
  575MOL0     H79342   6.802  10.445   2.444 -5.5291  2.0586  1.2087
  575MOL0     H79343   6.784  10.554   2.566 -0.4701  0.0565  0.0199
  575MOL0     H79344   6.983  10.426   2.689 -3.9073  0.0869  0.8003
  575MOL0     H79345   7.049  10.498   2.530  0.0515 -0.6479  0.9151
  575MOL0     H79346   7.131  10.096   2.534  1.3535  0.5029  1.6937
  575MOL0     H79347   6.461  10.327   2.572  1.4699  0.5548  1.2706
  575MOL0     H79348   6.170  10.415   2.691  0.5523  0.0851  0.4236
  575MOL0     H79349   6.250  10.435   2.532  0.6663 -0.4198 -0.6031
  575MOL0     H79350   6.104  10.349   2.544  0.4745  1.0674 -0.4994
  576MOL0     O79351   6.022   7.659   8.889  0.5744 -0.4101 -0.0815
  576MOL0     C79352   5.903   7.699   8.884 -0.9911  0.5461  0.5080
  576MOL0     O79353   5.844   7.803   8.959 -0.2436 -0.5363 -0.3623
  576MOL0     C79354   5.924   7.891   9.030  0.7473  0.5788  1.4796
  576MOL0     C79355   5.898   7.909   9.166 -0.8512  0.8476  1.1041
  576MOL0     C79356   5.974   8.014   9.214 -0.4642 -0.3199 -0.0826
  576MOL0     C79357   6.078   8.086   9.148 -0.1029 -0.0159 -0.5000
  576MOL0     O79358   6.139   8.190   9.211  0.4425  0.0673  0.4240
  576MOL0     C79359   6.117   8.317   9.142 -0.6415  1.1278  0.0302
  576MOL0     C79360   5.978   8.361   9.122  1.2046 -0.4026 -0.2979
  576MOL0     C79361   5.931   8.343   8.977  0.5969  0.2895 -0.3502
  576MOL0     C79362   5.778   8.311   8.973 -0.4850 -0.6392 -0.1995
  576MOL0     C79363   5.724   8.284   8.836 -0.5331 -0.1310 -0.1383
  576MOL0     C79364   5.745   8.133   8.814 -0.6163  0.6375 -0.3599
  576MOL0     C79365   5.697   8.098   8.672 -0.1855  1.2858  0.8183
  576MOL0     C79366   5.707   7.948   8.658 -0.3155 -0.0522  0.2456
  576MOL0     N79367   5.665   7.907   8.523  0.1907  0.7258  0.2285
  576MOL0     C79368   5.759   7.864   8.430 -0.7307 -0.6714  0.2234
  576MOL0     C79369   5.682   7.852   8.325 -0.4471  0.4186 -0.5512
  576MOL0     C79370   5.713   7.776   8.206  0.1602 -0.2933 -0.6788
  576MOL0     C79371   5.644   7.636   8.218 -1.0998  0.0027  0.1810
  576MOL0     C79372   5.681   7.558   8.090  0.6782  0.2616  0.7958
  576MOL0     C79373   5.590   7.582   7.967  1.1283  0.2524  0.6067
  576MOL0     O79374   5.452   7.556   7.992 -0.5367  0.1952  0.0399
  576MOL0     C79375   5.391   7.468   7.905 -0.1240  0.7281  0.1080
  576MOL0     C79376   5.264   7.423   7.954 -0.3529 -0.9965  0.3703
  576MOL0     C79377   5.186   7.331   7.891 -0.5461  0.4269  0.1078
  576MOL0     C79378   5.043   7.311   7.934  0.1953 -0.2166  0.4277
  576MOL0     C79379   5.225   7.268   7.777  0.2200 -0.4110 -0.3917
  576MOL0     C79380   5.134   7.182   7.693 -0.1974  0.1429  0.7748
  576MOL0     O79381   5.176   7.058   7.677 -0.0405  0.8380 -0.0148
  576MOL0     C79382   5.106   6.968   7.599 -0.8185  0.0291 -0.1970
  576MOL0     C79383   5.077   6.839   7.643 -0.0802 -0.0230  0.6764
  576MOL0     C79384   5.009   6.743   7.567  0.1743  0.6459  0.4851
  576MOL0     C79385   4.975   6.766   7.428  0.1574 -1.5409 -0.0921
  576MOL0     O79386   4.915   6.660   7.363 -0.3489 -0.5407 -0.6627
  576MOL0     C79387   4.895   6.677   7.225 -0.4631  0.1351  0.6565
  576MOL0     C79388   4.764   6.735   7.197 -0.4045  0.2167  0.7449
  576MOL0     C79389   4.665   6.623   7.203  0.1259 -0.2657 -0.2089
  576MOL0     C79390   4.536   6.662   7.278 -0.7913 -0.2977  1.0679
  576MOL0     C79391   4.433   6.549   7.288 -0.2689  0.0620 -0.4740
  576MOL0     C79392   4.296   6.582   7.346 -0.6844  0.1526  0.2979
  576MOL0     C79393   4.220   6.456   7.365  1.2257 -0.2275 -0.1570
  576MOL0     C79394   4.084   6.467   7.301  0.9675  0.3446  0.4479
  576MOL0    Cl79395   4.006   6.301   7.254 -0.3741 -0.1202 -0.5065
  576MOL0     C79396   5.005   6.896   7.394 -0.1695 -0.1109  0.2748
  576MOL0     C79397   5.063   6.994   7.472 -0.3812 -0.0266  0.0681
  576MOL0     O79398   5.039   7.236   7.644 -0.3516  0.1419  0.2726
  576MOL0     C79399   5.353   7.300   7.726 -0.3259  0.9123 -0.2065
  576MOL0     C79400   5.438   7.400   7.791  0.2391 -0.1922  0.4233
  576MOL0     N79401   5.556   7.889   8.354  0.9043  0.4889 -0.1834
  576MOL0     N79402   5.539   7.929   8.470 -0.2249  0.6640 -0.3369
  576MOL0     C79403   6.110   8.047   9.018  0.4315 -0.9556 -0.1057
  576MOL0     C79404   6.031   7.954   8.961  0.3486  0.0023 -0.6149
  576MOL0     C79405   5.816   7.639   8.779  0.0381 -0.0771 -0.9063
  576MOL0     C79406   5.686   7.612   8.822 -0.3045 -0.0348  1.3894
  576MOL0     C79407   5.597   7.547   8.729  0.4103  0.2157 -0.2086
  576MOL0     C79408   5.637   7.510   8.598  0.0131  0.2426 -0.3294
  576MOL0     O79409   5.567   7.444   8.507  0.3130  0.3647  0.1653
  576MOL0     C79410   5.474   7.341   8.551 -0.1212  0.5925  0.5294
  576MOL0     C79411   5.392   7.280   8.426  0.8208 -0.2557  0.0713
  576MOL0     C79412   5.467   7.198   8.325 -0.1930  0.1568  1.2870
  576MOL0     C79413   5.382   7.165   8.204 -0.5818  0.9897  0.2559
  576MOL0     C79414   5.459   7.096   8.106  0.0629  1.3854  0.4840
  576MOL0     C79415   5.531   7.042   8.025  0.0536  1.0186 -0.4426
  576MOL0     C79416   5.767   7.548   8.563  0.3644  0.1140 -0.0985
  576MOL0     C79417   5.860   7.603   8.645 -0.1938 -0.2579  0.3665
  576MOL0     C79418   5.995   7.633   8.600 -0.2086 -1.4344 -0.4165
  576MOL0     H79419   5.821   7.858   9.224 -5.3795  1.8560 -3.3714
  576MOL0     H79420   5.965   8.052   9.316  2.1165 -2.6755  1.1533
  576MOL0     H79421   6.168   8.322   9.046  0.2083  1.8596  0.5074
  576MOL0     H79422   6.158   8.387   9.216  0.9253 -1.0306  1.3371
  576MOL0     H79423   5.908   8.302   9.182 -0.3925  0.7653 -0.9544
  576MOL0     H79424   5.965   8.462   9.163 -1.0798 -1.3578  1.5822
  576MOL0     H79425   5.941   8.429   8.911 -0.5799 -1.4035 -2.8739
  576MOL0     H79426   5.981   8.264   8.919 -0.4144 -0.6696  0.0503
  576MOL0     H79427   5.747   8.238   9.049  2.3339  2.3843  4.3130
  576MOL0     H79428   5.734   8.406   9.004  1.3954 -0.5587  2.5218
  576MOL0     H79429   5.775   8.331   8.751  0.3322 -3.2511 -1.5102
  576MOL0     H79430   5.617   8.303   8.846 -0.4754 -0.7939  2.2844
  576MOL0     H79431   5.853   8.121   8.827 -0.8424 -2.3549 -0.7113
  576MOL0     H79432   5.709   8.081   8.903  1.8369  0.1546  0.4371
  576MOL0     H79433   5.754   8.151   8.594 -1.4114 -0.0067 -1.0444
  576MOL0     H79434   5.594   8.133   8.668 -0.6183 -0.0638 -1.1132
  576MOL0     H79435   5.814   7.923   8.661 -0.3168 -1.3650 -3.8684
  576MOL0     H79436   5.655   7.895   8.738  1.1245  3.9890  4.3117
  576MOL0     H79437   5.862   7.835   8.446  0.0918  1.6032 -0.5480
  576MOL0     H79438   5.821   7.768   8.191  0.1505  0.6596 -1.2909
  576MOL0     H79439   5.674   7.833   8.122 -3.1861  1.2446  1.6832
  576MOL0     H79440   5.674   7.576   8.304  1.2076 -0.7211 -1.0471
  576MOL0     H79441   5.536   7.637   8.238 -1.1969  0.3496 -0.3288
  576MOL0     H79442   5.782   7.584   8.058  0.8772 -1.2672  0.0807
  576MOL0     H79443   5.676   7.454   8.121 -2.5020  0.7115  2.1972
  576MOL0     H79444   5.599   7.688   7.941  1.5065  0.1756  0.4189
  576MOL0     H79445   5.627   7.518   7.887 -1.6186 -0.2554 -0.3557
  576MOL0     H79446   5.227   7.480   8.039  1.0892  1.9762 -0.8537
  576MOL0     H79447   4.992   7.357   7.849  0.6150  1.6672  1.1574
  576MOL0     H79448   5.026   7.346   8.037  0.7627  0.5549  0.2640
  576MOL0     H79449   5.003   7.209   7.940 -1.7171  0.3375 -1.5925
  576MOL0     H79450   5.117   6.816   7.742 -0.7069  0.2943  1.0098
  576MOL0     H79451   4.978   6.652   7.617  0.4037  0.0764 -0.3881
  576MOL0     H79452   4.975   6.741   7.187  0.2056 -1.5564 -0.9750
  576MOL0     H79453   4.908   6.582   7.173 -0.0372  1.3792 -1.6347
  576MOL0     H79454   4.743   6.826   7.255 -0.0969  0.2096  0.8691
  576MOL0     H79455   4.762   6.767   7.093 -3.3334  0.2765  0.7385
  576MOL0     H79456   4.706   6.533   7.251  0.8263 -0.4129 -1.0402
  576MOL0     H79457   4.633   6.591   7.103  0.8821  0.8511 -0.8218
  576MOL0     H79458   4.492   6.752   7.235 -1.3674 -0.3655  1.5063
  576MOL0     H79459   4.573   6.698   7.375  3.2949  0.5370 -0.6088
  576MOL0     H79460   4.405   6.514   7.188 -1.6955 -0.9251  0.2335
  576MOL0     H79461   4.474   6.460   7.336  1.0241  0.8077 -0.1568
  576MOL0     H79462   4.239   6.643   7.275 -0.5460  1.6489  1.4320
  576MOL0     H79463   4.312   6.636   7.440  0.8350  0.7842 -0.3002
  576MOL0     H79464   4.206   6.427   7.469  0.2289 -2.5740 -0.8831
  576MOL0     H79465   4.262   6.367   7.318 -1.1591 -0.7251 -1.5229
  576MOL0     H79466   4.088   6.530   7.212 -0.4705 -0.3152 -0.1160
  576MOL0     H79467   4.020   6.514   7.376  1.3866  0.9369  0.4416
  576MOL0     H79468   4.984   6.933   7.294  2.4103  1.0430  0.0792
  576MOL0     H79469   5.104   7.086   7.431  2.2216 -1.0701  0.1179
  576MOL0     H79470   5.375   7.249   7.633 -1.6746  1.0511 -0.6302
  576MOL0     H79471   5.529   7.424   7.739 -0.1976 -1.6570 -1.1072
  576MOL0     H79472   6.199   8.091   8.976 -0.6172  2.2145  0.6936
  576MOL0     H79473   6.052   7.920   8.860  1.4646 -0.7008 -0.1667
  576MOL0     H79474   5.652   7.646   8.919 -0.8207  2.2533  0.4790
  576MOL0     H79475   5.493   7.544   8.760  0.0320 -0.8057 -1.4527
  576MOL0     H79476   5.530   7.256   8.592 -0.0359  1.8266  3.1463
  576MOL0     H79477   5.402   7.382   8.623 -3.8300  1.0672 -3.0777
  576MOL0     H79478   5.350   7.369   8.377  1.2308  0.6825  1.3416
  576MOL0     H79479   5.311   7.218   8.466 -0.5887  0.9559 -0.7787
  576MOL0     H79480   5.557   7.248   8.289 -0.1271 -0.8116  0.0663
  576MOL0     H79481   5.492   7.108   8.383  2.5354  0.5254  0.8327
  576MOL0     H79482   5.347   7.259   8.161 -1.3395  0.2980 -0.7034
  576MOL0     H79483   5.295   7.106   8.233 -1.0173  1.3403 -0.3272
  576MOL0     H79484   5.586   6.984   7.953 -1.6467 -2.6554  0.9307
  576MOL0     H79485   5.808   7.525   8.465  1.8077  0.3436  0.4124
  576MOL0     H79486   6.003   7.742   8.601  1.6389 -1.5186 -1.8279
  576MOL0     H79487   6.072   7.591   8.664  0.9800  0.3812 -0.5647
  576MOL0     H79488   6.021   7.609   8.497  1.1088  6.7309 -2.7144
  577MOL0     O79489  10.096   0.474   2.289  0.4236  0.3267 -0.3727
  577MOL0     C79490   9.984   0.500   2.249 -0.3820 -0.2967  0.9379
  577MOL0     O79491   9.891   0.565   2.319 -0.3553  0.5421 -0.0967
  577MOL0     C79492   9.936   0.665   2.400 -0.2815  0.3269 -0.5903
  577MOL0     C79493   9.915   0.805   2.367 -0.6362  0.5282 -0.2003
  577MOL0     C79494   9.967   0.905   2.454  0.7130 -0.2491  0.1170
  577MOL0     C79495  10.021   0.875   2.580  0.3129  0.8817 -0.8332
  577MOL0     O79496  10.081   0.958   2.673  0.3934  1.0303 -0.6167
  577MOL0     C79497  10.033   1.096   2.686  0.0513  0.5976 -0.2594
  577MOL0     C79498  10.088   1.174   2.800  0.8653 -0.3677  0.6047
  577MOL0     C79499  10.019   1.314   2.821 -0.0833  0.3980  0.5887
  577MOL0     C79500  10.102   1.388   2.922 -0.2197 -0.4793 -0.2300
  577MOL0     C79501  10.029   1.506   2.977 -1.1797 -0.5592  0.3157
  577MOL0     C79502  10.096   1.584   3.088 -0.1357  0.4755 -0.2957
  577MOL0     C79503  10.213   1.670   3.059  0.1428 -0.0574 -0.8327
  577MOL0     C79504  10.189   1.748   2.934 -0.4026  0.5874  1.3392
  577MOL0     N79505  10.062   1.825   2.934 -0.1632  0.5445 -0.4452
  577MOL0     C79506  10.021   1.916   3.030  0.2434  0.4096 -0.5963
  577MOL0     C79507   9.906   1.967   2.991  0.5945 -0.4502 -0.6271
  577MOL0     C79508   9.842   2.081   3.066 -0.1087  0.2292  0.4365
  577MOL0     C79509   9.861   2.215   3.002  0.3448  0.2772 -0.7691
  577MOL0     C79510   9.988   2.300   3.052  0.5785 -0.3528  0.0524
  577MOL0     C79511  10.009   2.414   2.952  0.6667 -0.1503  0.0381
  577MOL0     O79512   9.876   2.478   2.932 -0.1789 -0.0748  0.1212
  577MOL0     C79513   9.862   2.551   2.822  0.1113 -0.6441  0.8490
  577MOL0     C79514   9.968   2.630   2.771  0.3623  0.1294 -0.4092
  577MOL0     C79515   9.942   2.714   2.654 -0.3664 -0.3398  0.3396
  577MOL0     C79516  10.072   2.786   2.603  0.5313 -0.0311  0.2028
  577MOL0     C79517   9.820   2.711   2.587 -0.1906  0.2157 -0.8670
  577MOL0     C79518   9.797   2.774   2.454  0.4335  0.0639 -0.1213
  577MOL0     O79519   9.899   2.803   2.377 -0.1239  0.5429 -1.0094
  577MOL0     C79520   9.889   2.886   2.274  0.4035 -0.6172 -0.1551
  577MOL0     C79521   9.921   2.830   2.155  0.3622  0.3734  0.3568
  577MOL0     C79522   9.917   2.909   2.036 -0.3190  0.2349 -0.5872
  577MOL0     C79523   9.902   3.046   2.043 -0.0485  0.5317  0.1398
  577MOL0     O79524   9.895   3.111   1.920 -0.0663 -0.1339 -0.3640
  577MOL0     C79525   9.916   3.262   1.921  0.1058  0.8053 -0.5081
  577MOL0     C79526   9.919   3.287   1.776  0.1541 -0.0114  0.9943
  577MOL0     C79527  10.029   3.217   1.699 -0.3246 -0.1344 -0.2659
  577MOL0     C79528  10.019   3.260   1.546  0.2692  1.0142  0.2763
  577MOL0     C79529  10.139   3.229   1.466  0.1198  0.1336  0.3867
  577MOL0     C79530  10.227   3.347   1.439  0.5978 -0.1231 -0.3764
  577MOL0     C79531  10.312   3.388   1.567  0.2163  0.2202  0.4554
  577MOL0     C79532  10.419   3.492   1.540  0.4536  0.4216 -0.1669
  577MOL0    Cl79533  10.488   3.533   1.704 -0.0550  0.0079 -0.1638
  577MOL0     C79534   9.888   3.098   2.173  0.6763 -1.1609  0.7292
  577MOL0     C79535   9.894   3.023   2.290 -0.3675  0.1779 -0.9391
  577MOL0     O79536   9.682   2.798   2.423  0.3714  0.4795  0.8710
  577MOL0     C79537   9.717   2.641   2.648 -0.2274 -0.4224 -0.8217
  577MOL0     C79538   9.740   2.558   2.759  0.2898  0.6551  0.4413
  577MOL0     N79539   9.877   1.906   2.867 -0.4047  0.1091 -0.7089
  577MOL0     N79540   9.968   1.820   2.832  0.1194  0.4068  0.1995
  577MOL0     C79541  10.026   0.738   2.620  0.4651  0.4858 -0.4965
  577MOL0     C79542   9.985   0.637   2.527  0.1059 -0.1043 -0.0684
  577MOL0     C79543   9.957   0.455   2.095  0.2862 -0.0309  0.5123
  577MOL0     C79544   9.852   0.526   2.020 -0.6331 -0.2835 -0.0536
  577MOL0     C79545   9.850   0.507   1.884 -0.8442 -0.3994  0.4575
  577MOL0     C79546   9.926   0.420   1.815  0.1284  0.4761 -0.4536
  577MOL0     O79547   9.901   0.399   1.683 -0.2407 -0.4395 -0.4486
  577MOL0     C79548   9.995   0.325   1.594  0.9672 -0.3791 -0.6146
  577MOL0     C79549   9.958   0.344   1.448  0.8084 -0.4566 -0.2604
  577MOL0     C79550  10.040   0.260   1.352 -0.4108 -1.1013  0.0441
  577MOL0     C79551   9.999   0.278   1.195 -0.5070  0.2259  0.6524
  577MOL0     C79552   9.968   0.420   1.149  0.0724  0.1497 -0.5913
  577MOL0     C79553   9.952   0.535   1.131  0.7155  0.2562  0.0926
  577MOL0     C79554  10.003   0.330   1.891  0.1744  1.0130 -0.2270
  577MOL0     C79555  10.027   0.345   2.028  0.0505 -0.8795  0.9371
  577MOL0     C79556  10.129   0.257   2.095  0.1601 -0.6434  0.2210
  577MOL0     H79557   9.872   0.829   2.270  0.7869  2.7924 -0.3501
  577MOL0     H79558   9.958   1.007   2.417 -2.1437 -0.2898  0.4843
  577MOL0     H79559   9.924   1.086   2.687 -0.1079  1.9522 -0.7227
  577MOL0     H79560  10.054   1.140   2.588 -1.1500 -2.2767 -1.9408
  577MOL0     H79561  10.067   1.115   2.890  3.1951 -0.6699  1.0011
  577MOL0     H79562  10.197   1.183   2.794  1.2378 -3.3173  1.4809
  577MOL0     H79563  10.014   1.375   2.731 -2.1668  3.0548  2.3367
  577MOL0     H79564   9.923   1.295   2.870 -1.2945 -1.2250 -2.1550
  577MOL0     H79565  10.125   1.329   3.011 -1.0690 -1.3695 -0.5933
  577MOL0     H79566  10.191   1.414   2.864 -1.1398  1.1416 -0.9766
  577MOL0     H79567   9.940   1.474   3.032  1.3029  0.6689  5.7294
  577MOL0     H79568  10.002   1.574   2.896  2.6073  1.1880  0.3028
  577MOL0     H79569  10.020   1.657   3.117  2.3720  3.1016  0.1032
  577MOL0     H79570  10.116   1.510   3.166  0.1896 -1.7298 -2.3679
  577MOL0     H79571  10.298   1.601   3.055  0.1844 -0.1320  0.7633
  577MOL0     H79572  10.226   1.737   3.145 -2.8825 -0.1994 -0.1241
  577MOL0     H79573  10.267   1.823   2.918 -2.1578  2.0093 -1.2148
  577MOL0     H79574  10.188   1.691   2.840  0.1700  2.2262  0.2788
  577MOL0     H79575  10.087   1.939   3.114 -0.1108 -1.4812  0.2562
  577MOL0     H79576   9.883   2.079   3.168  2.3985  0.0408 -0.5076
  577MOL0     H79577   9.736   2.059   3.082 -0.0960 -1.5022 -1.4842
  577MOL0     H79578   9.860   2.202   2.893  1.5893  2.6695 -1.1212
  577MOL0     H79579   9.771   2.271   3.030  0.1072  0.6744 -2.2493
  577MOL0     H79580   9.982   2.334   3.156  2.3065 -1.8799  0.7079
  577MOL0     H79581  10.080   2.242   3.051  0.0411 -1.2923 -2.6085
  577MOL0     H79582  10.071   2.492   2.997 -0.1355  1.6737 -1.8476
  577MOL0     H79583  10.056   2.387   2.857  1.1562  0.9107 -0.0360
  577MOL0     H79584  10.073   2.624   2.797  1.0587 -4.6787 -3.1142
  577MOL0     H79585  10.059   2.892   2.582  2.2689  0.2366  0.3065
  577MOL0     H79586  10.082   2.744   2.502 -2.4780 -3.7354  1.2159
  577MOL0     H79587  10.167   2.768   2.655  1.5319  3.9374  0.1132
  577MOL0     H79588   9.906   2.723   2.145 -3.5492  0.9133 -1.2861
  577MOL0     H79589   9.934   2.864   1.939 -3.4752 -1.3498 -0.5594
  577MOL0     H79590   9.826   3.306   1.964 -0.8932 -2.1912  0.7341
  577MOL0     H79591  10.015   3.284   1.962  1.2446 -0.2561 -2.5217
  577MOL0     H79592   9.823   3.269   1.727  0.8157 -0.9984  0.0035
  577MOL0     H79593   9.941   3.394   1.772 -0.3484  0.0974  1.0951
  577MOL0     H79594  10.011   3.110   1.691 -1.3938 -0.0766  0.9628
  577MOL0     H79595  10.126   3.241   1.743 -0.6993 -1.0368  1.1011
  577MOL0     H79596  10.007   3.369   1.536 -0.9464  0.7664 -1.2516
  577MOL0     H79597   9.935   3.206   1.502 -2.7964  1.6500  4.6800
  577MOL0     H79598  10.192   3.150   1.521 -0.1756 -1.0687 -0.9953
  577MOL0     H79599  10.102   3.197   1.368 -0.8065  0.4416  0.6205
  577MOL0     H79600  10.181   3.435   1.394  2.0526  0.6146 -0.4712
  577MOL0     H79601  10.299   3.321   1.361 -1.1951  1.4837 -2.7325
  577MOL0     H79602  10.369   3.300   1.598 -1.9354 -1.4449 -0.0226
  577MOL0     H79603  10.239   3.420   1.642 -1.2233 -1.7811  0.0107
  577MOL0     H79604  10.388   3.578   1.480  4.0850  3.9050  2.3532
  577MOL0     H79605  10.500   3.457   1.476  0.4099 -0.5675  0.2956
  577MOL0     H79606   9.877   3.206   2.181 -1.4779 -1.3694  1.3257
  577MOL0     H79607   9.885   3.059   2.392 -0.1366 -0.2538 -0.7648
  577MOL0     H79608   9.621   2.616   2.603 -0.3778 -0.6773 -0.3679
  577MOL0     H79609   9.660   2.489   2.784  1.3443 -0.1973  1.5966
  577MOL0     H79610  10.066   0.720   2.719  1.9764  2.3100 -0.7171
  577MOL0     H79611  10.012   0.534   2.553  1.0499  0.1033 -0.1794
  577MOL0     H79612   9.786   0.595   2.072  1.2385  0.1679  1.8471
  577MOL0     H79613   9.780   0.566   1.825  0.8715  1.2636 -0.0150
  577MOL0     H79614  10.096   0.364   1.611  0.5536  0.8370 -0.8847
  577MOL0     H79615   9.998   0.215   1.602 -0.2740 -0.6786 -3.1261
  577MOL0     H79616   9.963   0.450   1.419  1.3369 -0.6938 -1.0695
  577MOL0     H79617   9.851   0.325   1.437  0.7922 -0.2482 -0.4986
  577MOL0     H79618  10.144   0.291   1.364 -1.1928  2.1739 -0.5849
  577MOL0     H79619  10.031   0.155   1.381 -0.6375 -0.5839  1.9611
  577MOL0     H79620   9.918   0.206   1.177  0.5055 -2.2021  4.4907
  577MOL0     H79621  10.086   0.247   1.137 -0.4189 -2.0178  1.8678
  577MOL0     H79622   9.920   0.638   1.135  2.5213  0.8971 -1.0191
  577MOL0     H79623  10.047   0.243   1.842 -3.9030 -2.1009  1.0472
  577MOL0     H79624  10.120   0.167   2.034 -2.1694  0.4407 -1.1665
  577MOL0     H79625  10.223   0.311   2.086 -0.9856  1.8342  1.7301
  577MOL0     H79626  10.120   0.233   2.202  0.7661  2.8142  1.1910
  578MOL0     O79627   9.154   8.162  11.229 -0.7015  0.0077 -0.3606
  578MOL0     C79628   9.116   8.045  11.237  0.0142  0.7821 -0.1598
  578MOL0     O79629   9.189   7.938  11.190  0.2590 -0.2220 -0.1443
  578MOL0     C79630   9.301   7.932  11.122 -0.6921 -0.1028  0.6795
  578MOL0     C79631   9.356   8.048  11.054  0.4267  0.2674 -0.0837
  578MOL0     C79632   9.491   8.049  11.010 -0.3383  0.6809 -0.5419
  578MOL0     C79633   9.570   7.941  11.034  0.1342 -0.8785  1.1278
  578MOL0     O79634   9.695   7.946  10.980  0.5980 -0.0344 -0.5071
  578MOL0     C79635   9.697   7.907  10.838  0.2569  0.7694 -0.1580
  578MOL0     C79636   9.832   7.922  10.766 -0.4553  0.4225  1.1076
  578MOL0     C79637   9.841   8.060  10.711  0.0504  0.7149 -0.3460
  578MOL0     C79638   9.968   8.075  10.638 -0.5637  0.3253  0.5318
  578MOL0     C79639   9.987   8.213  10.579  0.2901 -0.4359 -1.1279
  578MOL0     C79640  10.135   8.237  10.540  1.0146  1.0405 -0.1233
  578MOL0     C79641  10.160   8.381  10.502  0.6288 -0.4483  1.0951
  578MOL0     C79642  10.301   8.419  10.457  0.1937  0.0911  0.4430
  578MOL0     N79643  10.344   8.356  10.335 -0.2056  0.1166 -0.0664
  578MOL0     C79644  10.295   8.371  10.211  0.2124 -1.0548 -0.0586
  578MOL0     C79645  10.358   8.285  10.127  0.2513 -0.1179 -0.7340
  578MOL0     C79646  10.312   8.262   9.987 -0.9641  0.5810  0.6422
  578MOL0     C79647  10.391   8.154   9.901 -0.2498 -0.1137 -0.2777
  578MOL0     C79648  10.512   8.205   9.828 -0.3242 -0.5915 -0.0558
  578MOL0     C79649  10.616   8.097   9.783 -0.0942  0.4778  0.6474
  578MOL0     O79650  10.571   8.019   9.668 -0.1695  0.5592 -0.1398
  578MOL0     C79651  10.652   7.930   9.605 -0.9446 -0.1532  0.5372
  578MOL0     C79652  10.597   7.851   9.508 -1.0657 -0.1005  0.1551
  578MOL0     C79653  10.678   7.750   9.437  0.4615 -0.0001 -0.3093
  578MOL0     C79654  10.609   7.667   9.340  0.4717 -0.3732 -0.4473
  578MOL0     C79655  10.817   7.732   9.472  1.0508 -0.1156 -0.3499
  578MOL0     C79656  10.915   7.626   9.415  0.5737 -0.2799  0.4955
  578MOL0     O79657  10.864   7.524   9.340  0.7426 -0.2426  0.2286
  578MOL0     C79658  10.933   7.404   9.355  0.0862  1.6719  0.3521
  578MOL0     C79659  10.840   7.296   9.374 -0.1173  0.7210  0.5121
  578MOL0     C79660  10.874   7.157   9.377  0.6456  0.8449  0.3294
  578MOL0     C79661  11.011   7.132   9.360  0.4842 -0.1174  0.2528
  578MOL0     O79662  11.045   6.999   9.359 -0.4734 -0.6775  0.0943
  578MOL0     C79663  11.154   6.955   9.441  0.5298 -0.1110  0.5259
  578MOL0     C79664  11.148   7.013   9.582 -0.3824 -0.5099  0.6125
  578MOL0     C79665  11.263   6.959   9.673 -0.5128 -0.2134 -0.2136
  578MOL0     C79666  11.403   6.970   9.592  0.5738 -1.5926  0.8973
  578MOL0     C79667  11.526   6.946   9.662 -0.1553 -0.6251  0.5208
  578MOL0     C79668  11.659   6.944   9.575 -0.0729 -0.1436  0.4954
  578MOL0     C79669  11.671   7.045   9.464 -0.6884 -0.0823  0.1810
  578MOL0     C79670  11.805   7.050   9.385  0.7040  1.0165  0.2050
  578MOL0    Cl79671  11.825   6.879   9.313 -0.0926  0.0552 -0.1427
  578MOL0     C79672  11.103   7.235   9.331  0.0230 -0.2778 -1.1325
  578MOL0     C79673  11.069   7.373   9.338  0.2935 -0.2063 -0.9612
  578MOL0     O79674  11.028   7.641   9.444  0.1176  0.1758 -0.3148
  578MOL0     C79675  10.867   7.818   9.563  0.1164  0.8329  1.2823
  578MOL0     C79676  10.788   7.917   9.624  0.4646  1.1830  0.0157
  578MOL0     N79677  10.445   8.217  10.208 -0.8018 -0.2393 -0.3619
  578MOL0     N79678  10.441   8.266  10.325 -0.5337  0.1866 -1.0702
  578MOL0     C79679   9.523   7.822  11.085  0.1098 -0.7307 -0.5978
  578MOL0     C79680   9.383   7.815  11.130 -0.0067  0.7794  1.0159
  578MOL0     C79681   8.976   8.011  11.267  0.0665 -0.1566  0.2129
  578MOL0     C79682   8.882   8.111  11.238  0.6266 -0.4155 -0.0067
  578MOL0     C79683   8.740   8.088  11.256  0.3299  0.8378 -0.1372
  578MOL0     C79684   8.698   7.961  11.299  0.4222  0.1548 -0.9235
  578MOL0     O79685   8.572   7.925  11.331 -0.3994  0.1770 -0.5057
  578MOL0     C79686   8.459   8.000  11.279  0.9294 -0.4784  0.3385
  578MOL0     C79687   8.331   7.958  11.347  0.2030  0.0304 -0.3665
  578MOL0     C79688   8.288   7.820  11.294  0.0608  0.1255 -0.7334
  578MOL0     C79689   8.233   7.814  11.148 -0.5332 -0.1976 -1.1686
  578MOL0     C79690   8.117   7.909  11.138  0.0335  0.7329 -0.2654
  578MOL0     C79691   8.024   7.985  11.139  0.5441  0.9567  0.6068
  578MOL0     C79692   8.792   7.867  11.334 -1.1517  0.5758  0.6915
  578MOL0     C79693   8.930   7.889  11.322  0.1200  0.0435 -0.1858
  578MOL0     C79694   9.030   7.794  11.384  0.4028 -0.9560 -0.4696
  578MOL0     H79695   9.293   8.134  11.030  0.1285 -0.2045 -1.0079
  578MOL0     H79696   9.540   8.130  10.958 -0.2094  0.0988 -1.3435
  578MOL0     H79697   9.629   7.974  10.784  1.7492  2.5381  0.0551
  578MOL0     H79698   9.649   7.810  10.821 -3.2834  2.6695 -2.2033
  578MOL0     H79699   9.915   7.888  10.830  0.5477  1.0780  0.1944
  578MOL0     H79700   9.832   7.843  10.690 -0.1910 -1.6251  3.1182
  578MOL0     H79701   9.752   8.078  10.649  0.6457  0.0310 -1.4317
  578MOL0     H79702   9.831   8.126  10.798 -0.1647  0.7900 -0.4283
  578MOL0     H79703  10.055   8.045  10.697 -1.3915 -5.4120 -0.6517
  578MOL0     H79704   9.963   8.000  10.559  4.5876 -0.9726  1.0568
  578MOL0     H79705   9.960   8.289  10.653  0.9362  2.7021 -3.9025
  578MOL0     H79706   9.928   8.214  10.487 -0.3726  0.1295 -0.7082
  578MOL0     H79707  10.206   8.219  10.621  3.2270  0.7803 -2.0012
  578MOL0     H79708  10.162   8.165  10.462 -2.8282  0.7147 -1.3612
  578MOL0     H79709  10.131   8.447  10.585 -1.2093 -2.1949  1.9281
  578MOL0     H79710  10.095   8.402  10.417  2.0994 -1.4755 -0.3315
  578MOL0     H79711  10.309   8.527  10.445 -1.3527  0.9272  4.8911
  578MOL0     H79712  10.367   8.387  10.539  1.5403 -0.3207 -0.7656
  578MOL0     H79713  10.206   8.432  10.198  0.9811  0.7928  2.4907
  578MOL0     H79714  10.317   8.361   9.939  0.8476 -0.0091 -0.4647
  578MOL0     H79715  10.209   8.227   9.998 -0.7423  0.5003  2.7828
  578MOL0     H79716  10.431   8.084   9.975 -0.2563 -0.8004 -0.9061
  578MOL0     H79717  10.321   8.102   9.834  0.7257 -1.5089 -0.2617
  578MOL0     H79718  10.478   8.261   9.740  0.0016 -0.7162 -0.2601
  578MOL0     H79719  10.570   8.267   9.897  3.1796 -0.0186 -3.2082
  578MOL0     H79720  10.709   8.152   9.766 -0.9749  1.8884  0.1782
  578MOL0     H79721  10.634   8.031   9.868 -0.9248 -2.8871 -1.5994
  578MOL0     H79722  10.491   7.862   9.487 -0.6815  2.1200 -0.8847
  578MOL0     H79723  10.506   7.700   9.323  0.2862 -1.9550 -2.7884
  578MOL0     H79724  10.601   7.565   9.379  1.9961  0.2527  1.7022
  578MOL0     H79725  10.675   7.679   9.254  1.9968  2.5120  0.9800
  578MOL0     H79726  10.735   7.320   9.359 -0.0156  0.9132  0.0897
  578MOL0     H79727  10.800   7.078   9.380  0.4741  1.0180  2.0449
  578MOL0     H79728  11.151   6.847   9.456 -0.2159 -0.4906 -1.9057
  578MOL0     H79729  11.245   6.977   9.384  0.7557 -2.9196 -0.3367
  578MOL0     H79730  11.164   7.120   9.569  0.7712 -0.9848 -3.4094
  578MOL0     H79731  11.048   6.999   9.623 -1.2958 -1.5488 -1.7640
  578MOL0     H79732  11.245   6.855   9.702 -0.6756 -0.8314 -2.3354
  578MOL0     H79733  11.261   7.017   9.765  0.4318 -1.0133  0.3208
  578MOL0     H79734  11.418   7.065   9.540 -0.5851 -2.6478 -1.5309
  578MOL0     H79735  11.406   6.905   9.505 -0.2553  0.0098 -0.3958
  578MOL0     H79736  11.530   7.022   9.741  0.1076  0.3908 -0.4327
  578MOL0     H79737  11.527   6.844   9.701  1.0697 -0.4168  1.0906
  578MOL0     H79738  11.672   6.845   9.529 -1.5679  1.0561 -2.8025
  578MOL0     H79739  11.748   6.957   9.638  2.9502 -0.8282 -3.2718
  578MOL0     H79740  11.659   7.144   9.509  2.2351 -0.9879  3.4341
  578MOL0     H79741  11.605   7.029   9.378  1.5383 -0.3695 -1.5650
  578MOL0     H79742  11.890   7.080   9.446  2.7725 -1.2498 -1.3904
  578MOL0     H79743  11.798   7.129   9.309  0.9807 -0.5948 -1.5567
  578MOL0     H79744  11.207   7.207   9.329  0.9402  2.7871 -1.6535
  578MOL0     H79745  11.140   7.448   9.304  0.0325  2.4976  3.5055
  578MOL0     H79746  10.971   7.818   9.596 -0.0386 -0.9394  1.8341
  578MOL0     H79747  10.834   7.968   9.708 -0.4792  0.1618  1.1919
  578MOL0     H79748   9.590   7.737  11.081 -2.4303 -2.8883 -0.1545
  578MOL0     H79749   9.356   7.723  11.181  4.3672 -1.7821 -0.7871
  578MOL0     H79750   8.913   8.195  11.177 -0.5311  0.3018  0.3545
  578MOL0     H79751   8.673   8.174  11.249  0.7422  1.3514  1.7567
  578MOL0     H79752   8.472   8.107  11.300 -0.5664 -0.1727 -0.1826
  578MOL0     H79753   8.462   7.980  11.172 -0.0887  1.1648 -0.0340
  578MOL0     H79754   8.251   8.032  11.345 -0.5248 -0.6814  0.8637
  578MOL0     H79755   8.342   7.947  11.456  0.0057  2.3366 -0.0669
  578MOL0     H79756   8.364   7.741  11.293  0.8787  0.8765  0.4129
  578MOL0     H79757   8.207   7.782  11.357  1.4941  2.5305  2.8700
  578MOL0     H79758   8.217   7.708  11.126  0.3798 -0.6856  0.3394
  578MOL0     H79759   8.306   7.857  11.078  0.1656  0.5922  0.0052
  578MOL0     H79760   7.944   8.056  11.138  0.9901  1.4634 -0.3391
  578MOL0     H79761   8.769   7.765  11.363  2.9575 -0.9409 -0.6079
  578MOL0     H79762   8.976   7.734  11.458 -1.3810  1.4372  0.3146
  578MOL0     H79763   9.087   7.732  11.313  3.3376  1.5322 -0.4982
  578MOL0     H79764   9.105   7.858  11.432  0.2505  0.3405 -1.8761
  579MOL0     O79765   9.916   1.442   5.070 -0.5513 -0.2849 -0.3101
  579MOL0     C79766   9.923   1.497   5.182  1.0284 -0.6241 -0.3901
  579MOL0     O79767  10.039   1.516   5.250  0.1991  0.0089 -0.3613
  579MOL0     C79768  10.159   1.475   5.207  0.5072  0.2161 -0.3567
  579MOL0     C79769  10.242   1.398   5.292  0.4222  0.3829  1.2531
  579MOL0     C79770  10.354   1.336   5.244  0.1729  0.7575 -0.1031
  579MOL0     C79771  10.390   1.348   5.105 -0.3972 -0.1449  0.2064
  579MOL0     O79772  10.522   1.303   5.080 -0.7730  0.0917 -0.1781
  579MOL0     C79773  10.577   1.299   4.945  0.0476 -0.1700 -0.8848
  579MOL0     C79774  10.724   1.240   4.953  0.9570  0.1569  1.3125
  579MOL0     C79775  10.814   1.362   4.981 -0.2350 -0.3195 -0.0946
  579MOL0     C79776  10.961   1.327   4.986 -0.2929 -0.6142 -0.3937
  579MOL0     C79777  11.022   1.278   4.853  0.3291 -0.3452 -0.5612
  579MOL0     C79778  11.123   1.153   4.860  1.1975  0.2734  0.3422
  579MOL0     C79779  11.139   1.090   4.729 -0.6091 -1.7286 -1.0837
  579MOL0     C79780  11.207   0.949   4.726 -0.0661  0.5865  0.0149
  579MOL0     N79781  11.227   0.906   4.591  0.1951  1.6521  1.4745
  579MOL0     C79782  11.334   0.932   4.508 -0.1093  0.1141 -0.1424
  579MOL0     C79783  11.328   0.853   4.402  0.6869 -0.7959 -0.4344
  579MOL0     C79784  11.411   0.847   4.290 -0.4070  0.2897 -0.0155
  579MOL0     C79785  11.357   0.922   4.165 -0.7222 -0.0024  0.0147
  579MOL0     C79786  11.238   0.857   4.101  1.4406  0.5083 -0.6896
  579MOL0     C79787  11.205   0.930   3.968 -0.7385  0.6374  0.0098
  579MOL0     O79788  11.104   0.858   3.898  0.0981  0.0480 -0.0413
  579MOL0     C79789  11.127   0.730   3.860  0.1876  0.6346  0.6678
  579MOL0     C79790  11.019   0.673   3.787  0.8399  0.3006 -1.1128
  579MOL0     C79791  11.010   0.532   3.753 -0.0782 -0.0129  0.3103
  579MOL0     C79792  10.876   0.487   3.688 -0.0167  0.1713  0.2451
  579MOL0     C79793  11.120   0.451   3.766 -0.0442  0.6819 -0.3986
  579MOL0     C79794  11.125   0.303   3.719 -1.0594 -0.1218 -0.3148
  579MOL0     O79795  11.023   0.248   3.646  0.1200 -0.3913  0.1668
  579MOL0     C79796  11.058   0.149   3.555 -0.7258  0.7198 -1.1723
  579MOL0     C79797  11.112   0.028   3.608  0.4749 -0.1263  0.0826
  579MOL0     C79798  11.159  -0.074   3.523  0.9968  0.0693  0.1581
  579MOL0     C79799  11.139  -0.057   3.380  1.1105 -0.9233  1.0844
  579MOL0     O79800  11.161  -0.161   3.291  0.3678  0.2023  0.1139
  579MOL0     C79801  11.287  -0.137   3.229 -0.0346  0.3516  0.4714
  579MOL0     C79802  11.301  -0.247   3.116 -0.9259  0.5407  0.1069
  579MOL0     C79803  11.241  -0.390   3.152 -0.7012  0.2995 -0.2026
  579MOL0     C79804  11.357  -0.479   3.192  1.3284  0.3168 -0.5422
  579MOL0     C79805  11.323  -0.628   3.220 -0.7311 -0.5056  0.4445
  579MOL0     C79806  11.281  -0.713   3.098 -0.7245  0.8423 -1.4199
  579MOL0     C79807  11.220  -0.848   3.140 -0.5177  0.7703  0.1844
  579MOL0     C79808  11.202  -0.943   3.018  0.1220  0.0096  0.8485
  579MOL0    Cl79809  11.105  -1.092   3.059  0.8078 -0.0796  0.1671
  579MOL0     C79810  11.077   0.064   3.332  0.0964  0.0501  0.7897
  579MOL0     C79811  11.046   0.168   3.419 -0.0110 -0.4324 -0.3128
  579MOL0     O79812  11.238   0.259   3.717  0.2314 -0.4895 -0.0442
  579MOL0     C79813  11.233   0.510   3.823  0.3792 -0.4876 -0.0522
  579MOL0     C79814  11.233   0.651   3.860  1.0589 -0.2309  0.5234
  579MOL0     N79815  11.215   0.777   4.412 -0.2739  0.3890 -0.4721
  579MOL0     N79816  11.157   0.807   4.521 -0.6445 -0.6031  0.0008
  579MOL0     C79817  10.314   1.429   5.027 -0.5786  0.2352  0.6766
  579MOL0     C79818  10.209   1.498   5.079  0.5302  0.1667 -0.2207
  579MOL0     C79819   9.793   1.528   5.245  0.7425  0.5667  0.5123
  579MOL0     C79820   9.792   1.635   5.336 -0.6976 -0.3994 -0.0315
  579MOL0     C79821   9.680   1.658   5.407  0.1126 -0.3903 -0.0725
  579MOL0     C79822   9.566   1.569   5.396 -0.5456 -1.0839  0.0516
  579MOL0     O79823   9.452   1.606   5.465 -0.0731  0.8159 -0.3041
  579MOL0     C79824   9.322   1.536   5.463 -1.1387 -0.2393 -1.0811
  579MOL0     C79825   9.230   1.566   5.345  0.1399  0.7646  0.2300
  579MOL0     C79826   9.196   1.701   5.300 -0.7547  0.0244  0.0393
  579MOL0     C79827   9.305   1.769   5.226 -0.4253 -0.0011 -0.0561
  579MOL0     C79828   9.266   1.890   5.157  0.5207 -0.5228 -0.2019
  579MOL0     C79829   9.219   1.981   5.093  0.7471 -0.3147 -0.2944
  579MOL0     C79830   9.562   1.473   5.301 -0.6893  0.4430 -0.5026
  579MOL0     C79831   9.674   1.445   5.231 -0.9137 -0.5776  1.1042
  579MOL0     C79832   9.669   1.330   5.136 -0.2044  0.1753 -0.6364
  579MOL0     H79833  10.224   1.378   5.397 -0.3436 -3.7308  0.4844
  579MOL0     H79834  10.407   1.272   5.314 -3.8569 -2.1268  0.7145
  579MOL0     H79835  10.578   1.399   4.901  0.1995 -0.6992 -2.1496
  579MOL0     H79836  10.519   1.226   4.887 -0.2652 -0.5223 -0.1341
  579MOL0     H79837  10.735   1.167   5.035 -0.7321  0.0773  1.5004
  579MOL0     H79838  10.751   1.182   4.864 -1.0184  1.2224 -0.0479
  579MOL0     H79839  10.805   1.438   4.902 -1.8430  1.2709  1.5389
  579MOL0     H79840  10.782   1.406   5.075 -0.0845 -2.4646  1.0251
  579MOL0     H79841  11.023   1.413   5.012 -1.2789 -0.2474  0.8185
  579MOL0     H79842  10.959   1.242   5.056  0.8132  0.5878  1.1663
  579MOL0     H79843  11.070   1.360   4.798  2.1187 -0.0682  1.2960
  579MOL0     H79844  10.939   1.254   4.786 -0.9139  0.6964  0.5407
  579MOL0     H79845  11.214   1.194   4.905  1.9389 -1.1692  0.2035
  579MOL0     H79846  11.067   1.081   4.921 -0.3724 -0.5306 -1.8921
  579MOL0     H79847  11.198   1.162   4.672 -2.3250  1.9270  1.3667
  579MOL0     H79848  11.042   1.085   4.680 -1.0092 -1.1379 -0.3787
  579MOL0     H79849  11.312   0.941   4.758 -0.1370  1.1737  0.4112
  579MOL0     H79850  11.143   0.874   4.774 -1.1829 -0.6065 -3.0464
  579MOL0     H79851  11.419   0.992   4.538 -0.4332 -0.2820  1.7616
  579MOL0     H79852  11.451   0.749   4.262  1.2448  1.4332 -1.9351
  579MOL0     H79853  11.499   0.908   4.314  0.3236 -0.3555 -0.9685
  579MOL0     H79854  11.324   1.021   4.195 -0.6264  0.0519 -0.0600
  579MOL0     H79855  11.437   0.930   4.091 -1.1587 -0.3901 -0.5200
  579MOL0     H79856  11.255   0.750   4.092 -1.6027  0.0303 -2.0322
  579MOL0     H79857  11.145   0.860   4.159 -0.5052 -4.6354 -2.9836
  579MOL0     H79858  11.176   1.033   3.993  1.8375  0.9280  2.2837
  579MOL0     H79859  11.304   0.930   3.921  0.3989 -0.9870  2.2592
  579MOL0     H79860  10.934   0.741   3.782  0.5518  0.3119  1.9167
  579MOL0     H79861  10.842   0.391   3.727  0.5123 -0.1492 -0.0735
  579MOL0     H79862  10.875   0.481   3.579 -0.0442  1.8504  0.1297
  579MOL0     H79863  10.804   0.557   3.732 -1.9693 -1.9773  0.6515
  579MOL0     H79864  11.118   0.013   3.716  0.2801  0.5711  0.1963
  579MOL0     H79865  11.184  -0.170   3.567  1.6409  0.5961  0.9699
  579MOL0     H79866  11.289  -0.047   3.167  0.7894 -1.7017 -2.7254
  579MOL0     H79867  11.364  -0.147   3.306 -0.9610  0.1819  1.3937
  579MOL0     H79868  11.242  -0.211   3.031  0.5979  2.3958 -0.2487
  579MOL0     H79869  11.404  -0.256   3.079 -0.8898  0.4775  0.2244
  579MOL0     H79870  11.182  -0.427   3.068  0.0205  1.1370 -1.1011
  579MOL0     H79871  11.178  -0.389   3.241 -0.0714 -0.0690  0.2520
  579MOL0     H79872  11.407  -0.434   3.278  1.9995 -0.4951 -0.4852
  579MOL0     H79873  11.436  -0.472   3.116  1.2424  1.3921 -0.5509
  579MOL0     H79874  11.404  -0.687   3.263  0.3306 -0.0505 -0.8523
  579MOL0     H79875  11.250  -0.635   3.301 -0.9082  0.3884  0.3769
  579MOL0     H79876  11.361  -0.734   3.026 -0.9880 -2.5997 -0.8782
  579MOL0     H79877  11.201  -0.657   3.048  0.2282  2.5150 -1.1544
  579MOL0     H79878  11.123  -0.814   3.177 -0.3882  0.7474  0.5481
  579MOL0     H79879  11.272  -0.899   3.222  0.4703 -0.2971 -1.0572
  579MOL0     H79880  11.298  -0.971   2.973  0.0625 -0.9990  1.3104
  579MOL0     H79881  11.142  -0.893   2.942  1.8340 -0.3722 -0.8346
  579MOL0     H79882  11.068   0.070   3.224  5.2054 -0.8634  0.0395
  579MOL0     H79883  11.008   0.265   3.388  0.3167 -0.1709  0.0987
  579MOL0     H79884  11.331   0.466   3.839  0.1750 -0.8813  0.1116
  579MOL0     H79885  11.322   0.703   3.893 -0.2821  2.1641  0.5862
  579MOL0     H79886  10.344   1.445   4.924 -0.3341 -1.0788  0.5303
  579MOL0     H79887  10.157   1.571   5.017 -0.9194 -0.8100 -0.1897
  579MOL0     H79888   9.876   1.697   5.366 -0.4337 -0.9969  0.4855
  579MOL0     H79889   9.659   1.732   5.483  0.5965  0.5603 -0.8427
  579MOL0     H79890   9.358   1.432   5.462 -1.3651 -0.3260 -0.5521
  579MOL0     H79891   9.263   1.560   5.552  1.1450 -0.2601  0.5271
  579MOL0     H79892   9.138   1.511   5.367 -0.3813  0.1080 -3.0762
  579MOL0     H79893   9.258   1.507   5.257  0.3340  0.9446  0.1697
  579MOL0     H79894   9.104   1.695   5.240 -3.4956 -4.0878  3.9971
  579MOL0     H79895   9.167   1.768   5.382  0.2589  2.9783 -1.8384
  579MOL0     H79896   9.364   1.701   5.164  2.1583 -0.2041  2.3637
  579MOL0     H79897   9.378   1.813   5.295  0.7547 -1.4332 -0.3464
  579MOL0     H79898   9.166   2.054   5.037 -1.5909  0.1497  2.3535
  579MOL0     H79899   9.477   1.411   5.272  1.8225 -3.1286 -0.9137
  579MOL0     H79900   9.596   1.249   5.143  2.0161 -1.7883  2.3598
  579MOL0     H79901   9.669   1.363   5.032 -0.1124 -0.2467 -0.7731
  579MOL0     H79902   9.769   1.293   5.157 -0.5664  0.5773  2.1132
  580MOL0     O79903   1.335   9.643   6.301  0.2237  0.5240  0.2873
  580MOL0     C79904   1.302   9.638   6.181 -0.8770 -0.3232  0.0576
  580MOL0     O79905   1.217   9.545   6.129 -0.3318  0.8227  0.0995
  580MOL0     C79906   1.118   9.498   6.212 -0.4154 -0.5839  0.0621
  580MOL0     C79907   1.079   9.362   6.194 -0.8933 -0.2935 -0.6081
  580MOL0     C79908   0.955   9.318   6.243 -0.3219 -0.6402 -0.3697
  580MOL0     C79909   0.881   9.399   6.322 -0.0903 -0.1168 -1.3954
  580MOL0     O79910   0.773   9.336   6.374  0.4108  0.4591 -0.0604
  580MOL0     C79911   0.743   9.362   6.513 -1.1697 -1.0507  1.0114
  580MOL0     C79912   0.619   9.465   6.511 -0.6027 -0.3106  0.2900
  580MOL0     C79913   0.553   9.458   6.645  0.2744 -0.0614  0.1801
  580MOL0     C79914   0.655   9.520   6.745  0.6015 -0.3729  0.0617
  580MOL0     C79915   0.588   9.568   6.873 -0.6335 -0.6901  0.2038
  580MOL0     C79916   0.672   9.654   6.970 -0.4994  0.1641  1.0051
  580MOL0     C79917   0.597   9.730   7.083  0.1967 -0.0556  0.7716
  580MOL0     C79918   0.531   9.639   7.199 -0.7128 -0.0434  0.0588
  580MOL0     N79919   0.462   9.717   7.301  0.6829 -0.7405 -0.2578
  580MOL0     C79920   0.354   9.799   7.294 -0.3455 -0.3839 -0.0152
  580MOL0     C79921   0.324   9.833   7.422  0.1157  0.2207 -0.2544
  580MOL0     C79922   0.198   9.898   7.466  0.5424  0.5961  0.7889
  580MOL0     C79923   0.237  10.003   7.572 -0.2034  0.2494  0.0372
  580MOL0     C79924   0.117  10.055   7.641  0.5889  0.4517  0.2941
  580MOL0     C79925   0.144  10.179   7.724  0.5067 -0.5058 -0.3252
  580MOL0     O79926   0.021  10.223   7.782  0.0430  0.2658 -0.2255
  580MOL0     C79927  -0.070  10.304   7.714 -0.8271  0.5922 -0.1749
  580MOL0     C79928  -0.055  10.346   7.583  0.7217  0.6279  0.4243
  580MOL0     C79929  -0.134  10.443   7.529  0.8306  0.3264 -0.2698
  580MOL0     C79930  -0.105  10.474   7.380  0.4145  0.1711 -0.1797
  580MOL0     C79931  -0.249  10.492   7.599  0.6301  1.3839  0.3175
  580MOL0     C79932  -0.342  10.587   7.543 -0.2528  0.2328 -0.7593
  580MOL0     O79933  -0.476  10.589   7.597  0.0412 -0.4260  0.3593
  580MOL0     C79934  -0.549  10.692   7.572 -1.1368  0.3741  0.9409
  580MOL0     C79935  -0.508  10.829   7.575  0.5168  0.5893 -0.0095
  580MOL0     C79936  -0.607  10.924   7.558 -1.0084  0.0293  0.0291
  580MOL0     C79937  -0.740  10.895   7.536 -0.2130 -0.0374 -1.0378
  580MOL0     O79938  -0.823  10.999   7.500  0.5048 -0.3185  0.5750
  580MOL0     C79939  -0.900  11.041   7.613  0.7837 -0.1796 -0.3001
  580MOL0     C79940  -1.035  11.108   7.558 -0.4147 -0.6182 -0.2143
  580MOL0     C79941  -1.007  11.255   7.517 -0.3444 -0.4323  0.2386
  580MOL0     C79942  -1.127  11.350   7.544 -0.2919  0.3146  0.6284
  580MOL0     C79943  -1.097  11.494   7.524  0.2869 -0.4970  0.5918
  580MOL0     C79944  -1.212  11.585   7.559 -0.4061 -0.3255  0.6938
  580MOL0     C79945  -1.165  11.726   7.536 -0.2232 -0.7346  0.1325
  580MOL0     C79946  -1.099  11.780   7.666  0.5947 -0.0865  0.3424
  580MOL0    Cl79947  -1.009  11.933   7.641  0.0210 -0.3355  0.2586
  580MOL0     C79948  -0.773  10.761   7.505  0.4903  0.3848 -0.5769
  580MOL0     C79949  -0.680  10.661   7.529 -0.0323 -0.2629  0.3454
  580MOL0     O79950  -0.311  10.649   7.438  0.0020  0.0078  0.2958
  580MOL0     C79951  -0.282  10.442   7.730 -0.2827 -0.3775 -0.4415
  580MOL0     C79952  -0.190  10.347   7.783 -0.7794  0.0479 -0.0328
  580MOL0     N79953   0.423   9.783   7.511 -0.4408 -0.9954  0.0251
  580MOL0     N79954   0.497   9.715   7.431 -0.2371  0.2257  0.7126
  580MOL0     C79955   0.920   9.532   6.342 -0.4018  0.6950  0.6648
  580MOL0     C79956   1.039   9.579   6.285 -0.4919  0.0708 -0.2264
  580MOL0     C79957   1.337   9.760   6.088  0.0276  0.2765 -0.3769
  580MOL0     C79958   1.308   9.747   5.949  0.9355 -0.4418 -0.0872
  580MOL0     C79959   1.327   9.849   5.849  0.3917 -0.1805 -0.3494
  580MOL0     C79960   1.376   9.974   5.898 -0.9160  0.7159 -0.5834
  580MOL0     O79961   1.414  10.077   5.826 -0.2171  0.1696 -0.2084
  580MOL0     C79962   1.391  10.091   5.682  0.3361  0.1861  0.2021
  580MOL0     C79963   1.237  10.097   5.653 -0.7124 -0.3335  0.8116
  580MOL0     C79964   1.220  10.115   5.500  0.6106 -0.3722 -1.2149
  580MOL0     C79965   1.073  10.123   5.460  0.6423  0.2044 -0.5457
  580MOL0     C79966   1.009   9.991   5.484  0.1562  0.5617  0.9709
  580MOL0     C79967   0.965   9.877   5.501 -0.8083 -0.0995  0.1260
  580MOL0     C79968   1.410   9.986   6.033  0.0378  0.5726 -1.0368
  580MOL0     C79969   1.389   9.878   6.132 -0.7997 -0.2098 -0.2667
  580MOL0     C79970   1.442   9.908   6.270  0.5688  0.5992 -0.3046
  580MOL0     H79971   1.139   9.291   6.139 -2.0811 -1.2839 -0.6668
  580MOL0     H79972   0.907   9.224   6.218 -0.0249 -0.6581 -0.8756
  580MOL0     H79973   0.837   9.393   6.559 -1.1172 -3.1217  2.4521
  580MOL0     H79974   0.709   9.267   6.556 -3.2116 -1.4181 -1.2315
  580MOL0     H79975   0.645   9.568   6.487 -3.1458  0.8425  2.0263
  580MOL0     H79976   0.553   9.434   6.429  0.6108 -2.9703  0.2197
  580MOL0     H79977   0.460   9.516   6.636 -0.7225 -1.5442  0.5237
  580MOL0     H79978   0.532   9.353   6.669 -1.1862  0.0417 -0.5338
  580MOL0     H79979   0.742   9.458   6.769 -1.3100 -2.7450  1.3318
  580MOL0     H79980   0.696   9.614   6.706 -0.6168  1.8817  3.6718
  580MOL0     H79981   0.558   9.479   6.929 -1.5311 -1.7119 -1.8197
  580MOL0     H79982   0.490   9.611   6.849 -1.0588 -2.0100 -0.5274
  580MOL0     H79983   0.750   9.588   7.010  0.4806 -1.3604 -2.9180
  580MOL0     H79984   0.730   9.733   6.922 -1.5262 -0.4624 -1.4235
  580MOL0     H79985   0.517   9.794   7.042  0.5901  0.8098  1.3362
  580MOL0     H79986   0.677   9.795   7.118 -0.1273  0.7592  0.0597
  580MOL0     H79987   0.445   9.580   7.166 -1.2174 -1.3408  3.2394
  580MOL0     H79988   0.597   9.561   7.240 -1.4052  0.6333  2.6274
  580MOL0     H79989   0.281   9.821   7.216 -4.0995 -3.2493  2.3414
  580MOL0     H79990   0.115   9.834   7.495 -0.3753  0.4281 -1.9653
  580MOL0     H79991   0.168   9.958   7.379  0.6400 -0.1364  0.2416
  580MOL0     H79992   0.303   9.969   7.652  0.2366 -4.0406 -1.8806
  580MOL0     H79993   0.290  10.081   7.518  1.1538  2.3624  3.9971
  580MOL0     H79994   0.057  10.086   7.555 -0.0698 -1.7695 -0.1194
  580MOL0     H79995   0.064   9.979   7.699 -0.9731  0.6290 -0.8151
  580MOL0     H79996   0.214  10.148   7.801  0.5149  0.1477 -0.0693
  580MOL0     H79997   0.196  10.257   7.668 -0.4637 -1.7447 -3.1448
  580MOL0     H79998   0.021  10.306   7.516 -2.0962 -0.5476 -2.3269
  580MOL0     H79999  -0.191  10.470   7.313  0.0020 -0.2583  0.3704
  580MOL0     H80000  -0.042  10.394   7.340 -0.6292 -0.3632 -0.7700
  580MOL0     H80001  -0.043  10.564   7.367  1.7048 -0.6154  0.3933
  580MOL0     H80002  -0.410  10.851   7.615  0.3099 -0.7048  1.3184
  580MOL0     H80003  -0.577  11.028   7.553  1.9101 -0.7081  0.1343
  580MOL0     H80004  -0.922  10.951   7.671 -0.7843 -1.0426 -2.1244
  580MOL0     H80005  -0.849  11.111   7.680  3.9237 -0.4891 -2.1606
  580MOL0     H80006  -1.073  11.044   7.478  0.1760  0.5997 -1.5266
  580MOL0     H80007  -1.116  11.116   7.630  0.4559  2.1673  0.6149
  580MOL0     H80008  -0.980  11.261   7.411 -0.1110 -1.4392  0.2319
  580MOL0     H80009  -0.933  11.291   7.589 -1.1749 -0.1195  0.9543
  580MOL0     H80010  -1.157  11.330   7.648 -2.9013 -1.4618 -0.3703
  580MOL0     H80011  -1.216  11.326   7.485  0.7050  0.1622 -0.8700
  580MOL0     H80012  -1.014  11.516   7.593  1.5698 -3.7242  0.2399
  580MOL0     H80013  -1.063  11.519   7.423 -1.5167  0.3053  0.1437
  580MOL0     H80014  -1.255  11.581   7.659  2.5377 -2.1663  1.9930
  580MOL0     H80015  -1.292  11.570   7.485  1.0072 -0.6314 -0.8304
  580MOL0     H80016  -1.256  11.777   7.503  0.7028  0.6825 -0.3452
  580MOL0     H80017  -1.098  11.730   7.449 -0.3661 -0.5431  0.0311
  580MOL0     H80018  -1.031  11.704   7.706  3.5459  1.6509 -1.0527
  580MOL0     H80019  -1.183  11.782   7.736 -0.6234  1.2312 -1.0791
  580MOL0     H80020  -0.872  10.730   7.473 -0.3736 -0.2191  2.4030
  580MOL0     H80021  -0.708  10.556   7.527 -0.2327 -0.2853  2.2854
  580MOL0     H80022  -0.363  10.480   7.792 -1.3460  0.1060 -2.0853
  580MOL0     H80023  -0.206  10.308   7.883  2.9213  0.8323  1.0096
  580MOL0     H80024   0.859   9.602   6.398  0.2529 -0.1071  2.4338
  580MOL0     H80025   1.049   9.684   6.312  3.2724 -0.2009  0.0155
  580MOL0     H80026   1.267   9.655   5.909  1.0184 -0.3885 -0.2963
  580MOL0     H80027   1.312   9.830   5.744  1.5694 -0.6411 -0.4480
  580MOL0     H80028   1.435  10.184   5.647  0.8661 -0.0415  0.2478
  580MOL0     H80029   1.431  10.014   5.615 -2.0184  0.0760 -1.2099
  580MOL0     H80030   1.188  10.175   5.713 -2.6111 -0.7062 -0.1899
  580MOL0     H80031   1.190  10.002   5.682 -0.7937 -0.4557  0.2845
  580MOL0     H80032   1.272  10.205   5.467 -1.5855  0.7882 -1.7234
  580MOL0     H80033   1.268  10.025   5.459  2.4079 -0.2742  0.5403
  580MOL0     H80034   1.063  10.155   5.356 -1.4844  0.1558 -0.3996
  580MOL0     H80035   1.018  10.202   5.512  0.9912  0.4864 -0.5970
  580MOL0     H80036   0.932   9.776   5.517  0.0749 -0.4671 -0.3037
  580MOL0     H80037   1.458  10.072   6.079  0.4964 -0.4272  0.4309
  580MOL0     H80038   1.370   9.893   6.352  1.3944  1.1549  0.5399
  580MOL0     H80039   1.514   9.831   6.299  0.5103  1.4529  2.3769
  580MOL0     H80040   1.488  10.007   6.275  2.3996 -0.1316 -1.6976
  581MOL0     O80041   7.734   8.071   5.124  0.2054 -0.2776  0.2925
  581MOL0     C80042   7.753   8.148   5.023  0.8327 -0.4441 -0.8061
  581MOL0     O80043   7.751   8.116   4.895 -1.0270  0.9937  0.3097
  581MOL0     C80044   7.692   7.997   4.857  0.4253  0.0375  0.7363
  581MOL0     C80045   7.757   7.885   4.811  0.3022  0.0380  0.3697
  581MOL0     C80046   7.691   7.769   4.766  0.4277  0.3149 -0.2753
  581MOL0     C80047   7.549   7.769   4.763  0.2787 -0.5830 -0.0985
  581MOL0     O80048   7.473   7.664   4.724  0.0002  0.0112  0.3346
  581MOL0     C80049   7.510   7.602   4.597  0.0351  0.0654  0.1181
  581MOL0     C80050   7.568   7.461   4.602  0.9347 -0.7774 -1.6022
  581MOL0     C80051   7.582   7.396   4.460 -0.3232  0.5420 -0.1441
  581MOL0     C80052   7.620   7.246   4.479  0.5655 -0.4427 -0.1977
  581MOL0     C80053   7.773   7.232   4.517 -0.4521 -0.5156 -0.4135
  581MOL0     C80054   7.872   7.275   4.405  0.4364  0.5170  0.4462
  581MOL0     C80055   8.020   7.268   4.461  0.9276 -0.4968 -1.0215
  581MOL0     C80056   8.127   7.306   4.363 -0.0768 -0.5811  0.7630
  581MOL0     N80057   8.121   7.216   4.245 -0.1742  0.3152  0.2694
  581MOL0     C80058   8.108   7.079   4.239  0.2305 -0.1164  0.2046
  581MOL0     C80059   8.131   7.053   4.104  0.0495  0.5658 -0.1166
  581MOL0     C80060   8.134   6.915   4.056  0.5100  0.1601 -1.2164
  581MOL0     C80061   8.051   6.911   3.928 -0.1512  0.0704  0.6851
  581MOL0     C80062   8.024   6.758   3.899 -0.6252  0.4998 -0.2865
  581MOL0     C80063   8.151   6.666   3.894 -1.2532 -0.0356 -0.4062
  581MOL0     O80064   8.241   6.717   3.785 -0.0126  0.2571  0.7233
  581MOL0     C80065   8.349   6.639   3.754 -0.1419  1.6120 -0.5211
  581MOL0     C80066   8.421   6.692   3.648 -0.3496 -0.0429 -1.0557
  581MOL0     C80067   8.534   6.618   3.598 -0.3253  0.0920 -0.5270
  581MOL0     C80068   8.603   6.682   3.481  0.3191  0.0720  0.3926
  581MOL0     C80069   8.586   6.497   3.657  0.5750 -0.3470  0.6076
  581MOL0     C80070   8.697   6.420   3.599  0.7872 -0.9165  0.0134
  581MOL0     O80071   8.690   6.286   3.622 -0.0249 -1.1471  0.0489
  581MOL0     C80072   8.787   6.206   3.556 -0.5943  0.2517  0.4166
  581MOL0     C80073   8.778   6.162   3.425  0.2316 -0.7906  0.1099
  581MOL0     C80074   8.871   6.073   3.372  0.0635 -0.4940  0.7869
  581MOL0     C80075   8.984   6.027   3.445  0.5523 -0.3485  0.3757
  581MOL0     O80076   9.072   5.946   3.375 -0.5516  0.3219  0.8649
  581MOL0     C80077   9.175   5.879   3.452 -0.0744 -0.3071 -0.2213
  581MOL0     C80078   9.264   5.806   3.347  0.0005 -0.4261 -0.4440
  581MOL0     C80079   9.406   5.790   3.403 -0.2391  0.3806 -0.6966
  581MOL0     C80080   9.467   5.664   3.343 -0.7049  0.1819  0.5165
  581MOL0     C80081   9.603   5.629   3.405 -1.1074  0.6550 -0.1761
  581MOL0     C80082   9.581   5.577   3.553 -1.5384 -0.6226 -0.1775
  581MOL0     C80083   9.722   5.553   3.618  0.3108  0.8876  0.3235
  581MOL0     C80084   9.701   5.511   3.766  0.6007 -0.8368 -0.6943
  581MOL0    Cl80085   9.590   5.362   3.799 -0.0631  0.0755 -0.0534
  581MOL0     C80086   8.989   6.064   3.583  0.6545  1.2408 -0.2743
  581MOL0     C80087   8.893   6.147   3.637  0.6724 -0.6607  0.2251
  581MOL0     O80088   8.798   6.477   3.564 -0.2775 -1.2889  0.1273
  581MOL0     C80089   8.518   6.460   3.775  0.4322 -0.3747  0.2822
  581MOL0     C80090   8.401   6.528   3.821 -0.0817 -0.5084  0.9667
  581MOL0     N80091   8.168   7.163   4.033 -0.1110  0.2669 -0.0595
  581MOL0     N80092   8.153   7.259   4.115 -0.9923  0.2271 -0.4051
  581MOL0     C80093   7.476   7.885   4.794 -0.7729 -0.1141 -0.2509
  581MOL0     C80094   7.551   7.993   4.846 -0.1401  0.2707  0.1305
  581MOL0     C80095   7.755   8.296   5.050  0.4714 -0.6433 -0.3302
  581MOL0     C80096   7.763   8.387   4.938  0.8738  1.8000 -0.6809
  581MOL0     C80097   7.757   8.526   4.950 -0.6291  0.6821 -0.0331
  581MOL0     C80098   7.737   8.582   5.074  1.1304 -0.9302  0.1252
  581MOL0     O80099   7.734   8.717   5.100 -0.1818  0.0200 -0.7222
  581MOL0     C80100   7.778   8.812   5.012  0.2161  1.0709  0.2734
  581MOL0     C80101   7.758   8.955   5.087  0.2065  0.4215  0.0859
  581MOL0     C80102   7.793   9.078   5.011  0.0233 -1.2370 -0.7570
  581MOL0     C80103   7.788   9.217   5.088  0.0537  1.1402  0.5766
  581MOL0     C80104   7.846   9.224   5.224  0.5646  0.1701  0.3709
  581MOL0     C80105   7.894   9.230   5.337 -0.2631  0.1329  0.9914
  581MOL0     C80106   7.714   8.501   5.184 -0.0553  0.4817 -0.4381
  581MOL0     C80107   7.739   8.360   5.178 -0.3856 -0.3951 -0.0349
  581MOL0     C80108   7.731   8.287   5.308 -0.2697  0.2100  0.0160
  581MOL0     H80109   7.864   7.890   4.792  0.1778 -3.2278 -2.1086
  581MOL0     H80110   7.739   7.676   4.735 -3.9626 -2.3770  0.0736
  581MOL0     H80111   7.574   7.671   4.541  0.1705 -0.7107 -0.7075
  581MOL0     H80112   7.420   7.593   4.536  0.8247 -4.7737 -0.7144
  581MOL0     H80113   7.663   7.480   4.653 -0.2154  1.5197 -0.1801
  581MOL0     H80114   7.509   7.400   4.671 -1.3778  0.8857 -2.0056
  581MOL0     H80115   7.482   7.384   4.417 -0.8942 -0.6686  1.4241
  581MOL0     H80116   7.638   7.455   4.386 -1.0609 -0.3227 -1.4386
  581MOL0     H80117   7.558   7.200   4.557  0.2413 -3.1821 -1.9371
  581MOL0     H80118   7.607   7.192   4.385  2.1434  3.9006 -3.2013
  581MOL0     H80119   7.784   7.128   4.550 -2.2966  0.0777  2.3942
  581MOL0     H80120   7.794   7.292   4.605  2.6418 -0.2023 -1.2517
  581MOL0     H80121   7.868   7.200   4.326  1.8100  0.9009 -0.0241
  581MOL0     H80122   7.857   7.378   4.370 -0.9454  0.3514  0.5103
  581MOL0     H80123   8.036   7.161   4.479 -0.9355 -0.2370  3.1763
  581MOL0     H80124   8.027   7.302   4.564 -3.5544  1.1411 -1.0065
  581MOL0     H80125   8.114   7.412   4.342  2.0998 -0.7659 -2.0985
  581MOL0     H80126   8.221   7.297   4.418  0.2625  0.7607  0.4236
  581MOL0     H80127   8.078   7.009   4.316 -3.4912 -1.0147 -1.8546
  581MOL0     H80128   8.087   6.846   4.127 -2.0690  2.9001 -0.0269
  581MOL0     H80129   8.235   6.892   4.023  1.0599  1.5730 -0.5807
  581MOL0     H80130   7.957   6.964   3.944  0.0432  0.6002  0.1105
  581MOL0     H80131   8.105   6.953   3.843 -3.9169  1.6474 -1.1184
  581MOL0     H80132   7.965   6.717   3.982  1.6560 -0.4585  0.9524
  581MOL0     H80133   7.965   6.754   3.807 -1.0288 -3.3832 -0.0040
  581MOL0     H80134   8.210   6.683   3.984 -0.5399  2.1500 -1.2145
  581MOL0     H80135   8.141   6.560   3.869  0.2798  0.5257 -4.1015
  581MOL0     H80136   8.390   6.782   3.595 -0.1043 -0.5968 -2.1595
  581MOL0     H80137   8.701   6.721   3.512  0.4894 -0.0424 -0.0049
  581MOL0     H80138   8.549   6.769   3.441  0.0663 -1.0019 -1.7231
  581MOL0     H80139   8.600   6.611   3.398 -0.5456  0.0150  0.4656
  581MOL0     H80140   8.693   6.183   3.361 -0.0415 -3.0721 -0.3950
  581MOL0     H80141   8.856   6.022   3.277 -3.6642 -0.3391  1.1622
  581MOL0     H80142   9.232   5.953   3.509  2.5577  0.0511 -3.0363
  581MOL0     H80143   9.131   5.808   3.522 -0.8563 -0.8858 -1.2632
  581MOL0     H80144   9.207   5.717   3.320 -3.1179  0.6576  1.9878
  581MOL0     H80145   9.277   5.873   3.262 -0.5239 -1.8253 -1.6709
  581MOL0     H80146   9.402   5.805   3.512 -0.1517  1.3875 -0.8235
  581MOL0     H80147   9.465   5.878   3.377 -0.9428  1.4063  0.9649
  581MOL0     H80148   9.480   5.676   3.235 -0.1670 -2.3891  0.2192
  581MOL0     H80149   9.401   5.577   3.350  1.2954 -1.7337 -2.2896
  581MOL0     H80150   9.651   5.559   3.336 -0.5976  1.8135 -1.0416
  581MOL0     H80151   9.667   5.718   3.399  0.3376 -0.3866 -0.7677
  581MOL0     H80152   9.522   5.485   3.545 -1.4126 -0.8235  1.0281
  581MOL0     H80153   9.528   5.655   3.609  0.2591 -1.7327  3.3326
  581MOL0     H80154   9.783   5.644   3.605  2.5754 -0.1940  2.6139
  581MOL0     H80155   9.777   5.469   3.575  0.1258  1.0270 -0.1928
  581MOL0     H80156   9.633   5.586   3.806 -0.4500 -1.2563 -1.6366
  581MOL0     H80157   9.799   5.509   3.816  0.4154 -2.9826 -0.2958
  581MOL0     H80158   9.072   6.034   3.647 -0.4272  0.5183  0.8421
  581MOL0     H80159   8.900   6.160   3.745 -0.7045 -2.7828  0.6375
  581MOL0     H80160   8.558   6.376   3.831 -0.1936 -0.5472  0.4733
  581MOL0     H80161   8.344   6.504   3.910 -2.0431 -0.4902 -0.2327
  581MOL0     H80162   7.369   7.903   4.791 -0.2553  4.4094  0.4861
  581MOL0     H80163   7.494   8.078   4.884  0.0315  0.6201 -0.3739
  581MOL0     H80164   7.775   8.344   4.839 -0.2301 -1.1783  0.3793
  581MOL0     H80165   7.767   8.594   4.866  1.0147  2.8861  1.8278
  581MOL0     H80166   7.884   8.802   4.988  0.5043  3.7237  0.1661
  581MOL0     H80167   7.713   8.819   4.924 -1.4022 -0.2480  1.2832
  581MOL0     H80168   7.800   8.948   5.188  1.0452 -2.6445 -0.3618
  581MOL0     H80169   7.654   8.974   5.115  0.8512  3.2960  0.8363
  581MOL0     H80170   7.894   9.074   4.967 -0.1147  1.6405 -1.5854
  581MOL0     H80171   7.718   9.088   4.933  0.6447 -1.8482 -1.4485
  581MOL0     H80172   7.683   9.250   5.095 -0.7038 -0.9047 -0.4322
  581MOL0     H80173   7.843   9.294   5.034 -0.8541  0.2007 -1.8127
  581MOL0     H80174   7.959   9.239   5.421  1.3794 -0.1672 -0.1780
  581MOL0     H80175   7.691   8.547   5.280 -1.3331 -3.2132  1.2054
  581MOL0     H80176   7.719   8.362   5.386  0.7525  0.5677 -0.1448
  581MOL0     H80177   7.654   8.210   5.299  0.5838 -0.7335  0.5986
  581MOL0     H80178   7.821   8.227   5.327  1.9628  2.4573 -2.4893
  582MOL0     O80179   6.353   4.990   5.648  0.1342 -0.8657  1.0501
  582MOL0     C80180   6.313   5.052   5.738  0.8652  0.5528  0.2804
  582MOL0     O80181   6.392   5.115   5.829 -0.2534  0.7147  0.3442
  582MOL0     C80182   6.516   5.057   5.852  0.0499  0.2531  0.0688
  582MOL0     C80183   6.544   4.938   5.909 -1.3601  0.5658 -0.0509
  582MOL0     C80184   6.673   4.887   5.927  0.1669  0.5054 -0.1301
  582MOL0     C80185   6.775   4.960   5.870 -0.2909  0.1214 -0.5056
  582MOL0     O80186   6.906   4.907   5.892 -0.4356  0.7315 -0.2908
  582MOL0     C80187   7.011   4.991   5.850  0.4262  1.3120  0.0279
  582MOL0     C80188   7.140   4.910   5.863 -0.7808  0.4031  0.9700
  582MOL0     C80189   7.270   4.971   5.805 -0.2991 -0.0545 -0.7972
  582MOL0     C80190   7.376   4.858   5.827  0.7696 -0.0947  0.1156
  582MOL0     C80191   7.508   4.913   5.771 -0.0772 -0.5810  0.1934
  582MOL0     C80192   7.616   4.805   5.791 -0.3068 -0.1933  0.7393
  582MOL0     C80193   7.756   4.842   5.723  0.2328  0.4344 -0.2553
  582MOL0     C80194   7.809   4.978   5.759  0.4766  0.0195 -0.3843
  582MOL0     N80195   7.955   4.978   5.750  0.5527  0.1245  0.8608
  582MOL0     C80196   8.030   5.039   5.659  0.0394  0.4471  0.9251
  582MOL0     C80197   8.159   5.018   5.696  1.1120 -0.7775  0.1846
  582MOL0     C80198   8.266   5.049   5.603 -0.3852  0.3260  0.1238
  582MOL0     C80199   8.412   5.047   5.661 -0.1072 -0.6049  0.0367
  582MOL0     C80200   8.447   5.183   5.731 -0.6979 -0.4949  0.3958
  582MOL0     C80201   8.589   5.179   5.771  0.2908  0.0814  0.1212
  582MOL0     O80202   8.634   5.308   5.801 -0.6091  0.6093 -0.4970
  582MOL0     C80203   8.586   5.367   5.916  0.1234 -0.1340 -0.1247
  582MOL0     C80204   8.533   5.498   5.912 -0.3273  0.3502  0.1979
  582MOL0     C80205   8.473   5.556   6.021  0.0689  0.1233  0.2681
  582MOL0     C80206   8.413   5.697   6.004 -0.0932 -1.2826 -0.9831
  582MOL0     C80207   8.463   5.488   6.148  0.1035 -0.5206 -0.6614
  582MOL0     C80208   8.396   5.540   6.269  0.4416 -0.8594 -0.3246
  582MOL0     O80209   8.386   5.451   6.379  0.7070 -0.4309 -0.3106
  582MOL0     C80210   8.424   5.512   6.496 -0.0384  0.7440  0.2816
  582MOL0     C80211   8.546   5.581   6.520 -0.4823 -0.0729  0.2885
  582MOL0     C80212   8.567   5.639   6.647 -0.6921 -0.2298  0.2367
  582MOL0     C80213   8.470   5.630   6.744  0.2369  0.0760  0.2747
  582MOL0     O80214   8.496   5.702   6.861  0.7172 -0.3745 -0.1341
  582MOL0     C80215   8.394   5.712   6.958 -0.9424  0.2069  0.4794
  582MOL0     C80216   8.302   5.829   6.926 -0.2296 -0.1545  0.2821
  582MOL0     C80217   8.363   5.964   6.898 -0.8716 -0.0798  0.1168
  582MOL0     C80218   8.452   6.017   7.002  0.2712 -0.0044 -0.0350
  582MOL0     C80219   8.367   6.059   7.121 -0.4752 -0.2490  0.0895
  582MOL0     C80220   8.419   6.179   7.203 -0.0775  0.1523  0.7986
  582MOL0     C80221   8.307   6.226   7.310  0.1663 -1.3908 -0.3571
  582MOL0     C80222   8.373   6.332   7.404 -0.1573 -0.2957 -0.0057
  582MOL0    Cl80223   8.293   6.339   7.564  0.3207 -0.3682  0.3917
  582MOL0     C80224   8.345   5.585   6.707  0.3429  0.7068 -0.4113
  582MOL0     C80225   8.328   5.517   6.592  1.0730 -0.0904  0.2618
  582MOL0     O80226   8.368   5.658   6.279 -0.8716 -0.2018  0.2717
  582MOL0     C80227   8.521   5.361   6.158 -0.4058 -0.1091  0.4084
  582MOL0     C80228   8.581   5.301   6.044  0.4505 -0.0685 -0.1625
  582MOL0     N80229   8.150   4.964   5.824  0.4393  0.5911 -0.0399
  582MOL0     N80230   8.026   4.933   5.843 -0.0479  0.3114 -0.3407
  582MOL0     C80231   6.746   5.087   5.828 -0.5437  0.5508 -0.3979
  582MOL0     C80232   6.616   5.139   5.815 -1.1822  0.3870  0.2828
  582MOL0     C80233   6.165   5.058   5.756 -0.2583  0.5754 -0.0355
  582MOL0     C80234   6.086   4.964   5.685  1.3422 -0.1622  0.0134
  582MOL0     C80235   5.941   4.952   5.699  0.6723 -0.5109 -0.4597
  582MOL0     C80236   5.873   5.026   5.795 -1.4426  0.6552 -0.3706
  582MOL0     O80237   5.739   5.007   5.815 -0.0001  0.1857 -0.5501
  582MOL0     C80238   5.713   4.878   5.864  0.6053 -0.5106 -0.5798
  582MOL0     C80239   5.561   4.837   5.836  0.6079 -0.6667 -0.0724
  582MOL0     C80240   5.532   4.809   5.685  0.5980  0.3264 -0.0409
  582MOL0     C80241   5.378   4.796   5.652 -0.2144 -0.7313 -0.8641
  582MOL0     C80242   5.296   4.666   5.690 -1.1420 -0.0641 -0.5726
  582MOL0     C80243   5.223   4.579   5.728 -0.5025 -0.2121  0.3538
  582MOL0     C80244   5.956   5.122   5.868 -0.2220  0.8385 -0.4538
  582MOL0     C80245   6.097   5.138   5.855  0.7357  0.5091 -0.7687
  582MOL0     C80246   6.168   5.235   5.950  0.0608  0.8531 -0.0206
  582MOL0     H80247   6.463   4.880   5.954  2.2559 -3.5500  1.8430
  582MOL0     H80248   6.700   4.790   5.969 -0.6231 -1.8286 -4.4934
  582MOL0     H80249   7.022   5.084   5.907  1.3684  1.9073 -1.0762
  582MOL0     H80250   7.004   5.014   5.743 -1.7082  1.0403  0.0781
  582MOL0     H80251   7.148   4.882   5.968 -3.4988 -0.0032  1.1392
  582MOL0     H80252   7.123   4.818   5.808  2.2344  0.8200 -0.9021
  582MOL0     H80253   7.243   4.984   5.700 -1.1525  0.7633 -0.4861
  582MOL0     H80254   7.294   5.062   5.860 -0.7698 -0.5929  0.3353
  582MOL0     H80255   7.396   4.856   5.934 -0.6825 -3.4873  0.4334
  582MOL0     H80256   7.337   4.766   5.783 -3.6164  0.4976  2.1727
  582MOL0     H80257   7.521   5.013   5.814 -1.1393  0.7938 -2.4987
  582MOL0     H80258   7.500   4.940   5.666 -0.0968  0.3588  0.4302
  582MOL0     H80259   7.625   4.777   5.897 -1.5017 -0.6520  0.7398
  582MOL0     H80260   7.567   4.718   5.747 -0.5867  1.3824 -2.3123
  582MOL0     H80261   7.738   4.841   5.615 -0.6346  0.1199 -0.1177
  582MOL0     H80262   7.825   4.761   5.748  0.1356  0.2585 -0.5619
  582MOL0     H80263   7.764   5.059   5.700 -0.4164 -1.0289 -1.1940
  582MOL0     H80264   7.781   5.000   5.862 -0.9646 -1.3930 -0.4385
  582MOL0     H80265   8.005   5.082   5.563 -1.0782 -0.7340  0.6683
  582MOL0     H80266   8.251   5.144   5.551  0.6478  0.6075  0.3083
  582MOL0     H80267   8.259   4.981   5.518 -0.9051  1.3997 -0.7170
  582MOL0     H80268   8.410   4.960   5.727 -2.3799  0.0570  0.9159
  582MOL0     H80269   8.477   5.029   5.574  0.6144  3.0151 -0.3545
  582MOL0     H80270   8.435   5.266   5.660 -3.0772 -1.5049 -0.5135
  582MOL0     H80271   8.385   5.199   5.820  3.0053  1.2353  2.8737
  582MOL0     H80272   8.602   5.108   5.854  0.1913 -2.7622 -2.1230
  582MOL0     H80273   8.644   5.140   5.685  0.2496  0.3966 -0.0470
  582MOL0     H80274   8.522   5.564   5.826  1.4358 -1.4935 -1.5683
  582MOL0     H80275   8.400   5.728   5.900  2.1706  0.6548 -0.7756
  582MOL0     H80276   8.471   5.768   6.062 -3.6707 -0.6732  2.2101
  582MOL0     H80277   8.316   5.702   6.053  0.0812 -1.5572 -0.6012
  582MOL0     H80278   8.623   5.597   6.445 -1.4123  0.5752 -0.5569
  582MOL0     H80279   8.659   5.687   6.681  0.0794 -2.0872  0.8600
  582MOL0     H80280   8.331   5.623   6.968  0.5363 -1.0187 -0.7862
  582MOL0     H80281   8.432   5.738   7.057  1.9570  1.4919 -0.8596
  582MOL0     H80282   8.239   5.816   6.838 -1.1470  1.0987  0.7291
  582MOL0     H80283   8.247   5.826   7.021  1.7378  1.4786  1.5724
  582MOL0     H80284   8.287   6.040   6.881 -0.8512  0.0654  0.6643
  582MOL0     H80285   8.419   5.966   6.805  0.9698 -0.2228  1.1721
  582MOL0     H80286   8.514   6.093   6.953 -0.5578 -1.6248 -4.0228
  582MOL0     H80287   8.533   5.951   7.036  1.1985 -0.2756 -2.5120
  582MOL0     H80288   8.268   6.081   7.082 -0.3031 -0.0583 -0.2468
  582MOL0     H80289   8.364   5.971   7.186  2.2877 -1.1716 -0.8658
  582MOL0     H80290   8.434   6.271   7.145  0.0825  0.1894  0.8980
  582MOL0     H80291   8.521   6.161   7.239  0.4983 -0.8572 -1.2247
  582MOL0     H80292   8.285   6.139   7.373  0.3855  0.0689  1.8608
  582MOL0     H80293   8.215   6.270   7.270  0.8179  2.1346  1.5687
  582MOL0     H80294   8.384   6.433   7.362  0.8982 -0.2775  0.2894
  582MOL0     H80295   8.468   6.285   7.430 -1.6133 -2.2415  2.0902
  582MOL0     H80296   8.261   5.604   6.773  1.3278  0.5190  0.9517
  582MOL0     H80297   8.232   5.469   6.578  1.4683 -1.0065  0.6392
  582MOL0     H80298   8.538   5.307   6.250  0.1505 -0.8979 -0.1465
  582MOL0     H80299   8.619   5.200   6.059 -0.9540 -0.4606  0.9528
  582MOL0     H80300   6.817   5.163   5.798 -0.0326  1.8014  3.4184
  582MOL0     H80301   6.603   5.238   5.775 -3.2708  0.2580  0.5182
  582MOL0     H80302   6.132   4.885   5.626 -1.4715 -3.0273  1.3192
  582MOL0     H80303   5.883   4.874   5.652  1.9725 -1.4807 -0.5277
  582MOL0     H80304   5.774   4.794   5.829  1.9494 -1.4022  3.3989
  582MOL0     H80305   5.751   4.874   5.966 -0.7148  1.1861  0.0289
  582MOL0     H80306   5.503   4.916   5.885 -0.3188 -1.8377  0.7797
  582MOL0     H80307   5.539   4.745   5.891  2.6365 -1.1784 -0.0472
  582MOL0     H80308   5.570   4.898   5.634 -3.0586  1.4245 -1.1983
  582MOL0     H80309   5.588   4.721   5.651 -1.2752 -1.4539  1.2460
  582MOL0     H80310   5.360   4.825   5.548  1.6553  0.1448 -0.9959
  582MOL0     H80311   5.334   4.870   5.719  1.1959  0.7237 -1.4791
  582MOL0     H80312   5.152   4.500   5.742 -1.2379  0.1756 -0.9796
  582MOL0     H80313   5.902   5.193   5.930 -0.0049 -1.6568  2.9007
  582MOL0     H80314   6.220   5.174   6.025 -0.9066  0.6115  0.4848
  582MOL0     H80315   6.233   5.304   5.897 -0.7159  2.5517  1.1352
  582MOL0     H80316   6.088   5.295   5.995 -3.7278 -2.9057 -1.0173
  583MOL0     O80317   5.007   9.972   8.365  0.0161  0.4752  0.7215
  583MOL0     C80318   5.049   9.872   8.300 -0.0562  0.6816 -0.9185
  583MOL0     O80319   5.041   9.836   8.167 -0.1463 -0.3729 -0.2644
  583MOL0     C80320   4.991   9.932   8.087  0.3985  1.0575 -1.2973
  583MOL0     C80321   4.852   9.941   8.077  0.3664 -0.4328 -1.0272
  583MOL0     C80322   4.802  10.029   7.987 -0.6712 -0.0248  1.2969
  583MOL0     C80323   4.880  10.133   7.925 -0.1409  0.6823 -0.3378
  583MOL0     O80324   4.830  10.234   7.856 -0.0900 -0.3499 -0.1170
  583MOL0     C80325   4.688  10.267   7.852  0.1980 -0.3151  0.3201
  583MOL0     C80326   4.655  10.408   7.797  0.3165  0.4309 -0.6188
  583MOL0     C80327   4.679  10.513   7.904 -0.5080 -0.2192 -1.3464
  583MOL0     C80328   4.656  10.652   7.844 -0.0540 -0.7571 -1.0543
  583MOL0     C80329   4.693  10.765   7.939  0.1996 -0.5958 -0.2008
  583MOL0     C80330   4.705  10.895   7.866  1.1544 -0.2312 -0.2809
  583MOL0     C80331   4.742  11.003   7.964  0.9810  0.1921  0.2845
  583MOL0     C80332   4.766  11.137   7.896  0.1799 -0.0427  0.5738
  583MOL0     N80333   4.820  11.245   7.991 -0.0064 -0.6794  0.0659
  583MOL0     C80334   4.897  11.354   7.962  0.4879 -0.7302  0.9013
  583MOL0     C80335   4.905  11.420   8.081 -0.8151  0.9409 -0.0821
  583MOL0     C80336   4.975  11.550   8.124 -0.4003 -0.0766  0.3597
  583MOL0     C80337   5.108  11.583   8.059 -0.2338  0.0283  0.0316
  583MOL0     C80338   5.089  11.619   7.912  0.3248  0.3525  0.4648
  583MOL0     C80339   5.221  11.650   7.844  0.6050 -0.1471  0.4054
  583MOL0     O80340   5.279  11.767   7.912  0.1811 -0.3516 -0.0276
  583MOL0     C80341   5.414  11.772   7.905 -0.1457 -0.3980  0.6107
  583MOL0     C80342   5.494  11.727   7.798  0.4458 -0.5685 -0.3052
  583MOL0     C80343   5.638  11.729   7.808 -0.8435  0.3586 -0.7130
  583MOL0     C80344   5.713  11.667   7.695  0.4442  0.1076  0.3727
  583MOL0     C80345   5.694  11.801   7.916  0.2929 -0.4611  0.5886
  583MOL0     C80346   5.841  11.800   7.947  0.4554 -0.0034 -0.5431
  583MOL0     O80347   5.879  11.906   8.023 -0.1651 -0.0568  0.1992
  583MOL0     C80348   6.009  11.907   8.072 -0.3261 -0.0150 -0.3836
  583MOL0     C80349   6.036  11.901   8.212  0.3974 -0.1907  0.6792
  583MOL0     C80350   6.171  11.893   8.253 -0.3466  0.5374 -0.9254
  583MOL0     C80351   6.281  11.879   8.165 -0.0545 -0.0625 -0.3760
  583MOL0     O80352   6.409  11.853   8.210 -0.2433 -0.0836  0.5481
  583MOL0     C80353   6.431  11.728   8.279  0.2727 -0.2330  0.0480
  583MOL0     C80354   6.577  11.725   8.325  0.0787  0.0939 -0.5739
  583MOL0     C80355   6.608  11.814   8.447  0.3519 -0.0890  0.9553
  583MOL0     C80356   6.758  11.817   8.470  0.1199  0.7582 -0.2979
  583MOL0     C80357   6.787  11.890   8.597 -0.3900 -0.7172 -0.7290
  583MOL0     C80358   6.936  11.924   8.602 -0.1690  0.3360  0.0231
  583MOL0     C80359   6.968  12.042   8.694 -0.4545  0.4263  0.7017
  583MOL0     C80360   7.099  12.020   8.772  0.6507 -0.6566 -0.4055
  583MOL0    Cl80361   7.099  12.127   8.912  0.3445  0.2390  0.2218
  583MOL0     C80362   6.251  11.868   8.029  1.0064  0.4184 -0.2734
  583MOL0     C80363   6.111  11.885   7.980 -0.9874 -0.6085  0.3076
  583MOL0     O80364   5.915  11.707   7.915 -0.6389 -0.1323  0.7769
  583MOL0     C80365   5.611  11.859   8.007 -0.0294 -0.2904 -0.4049
  583MOL0     C80366   5.469  11.845   8.012  0.3519 -0.4513 -0.1363
  583MOL0     N80367   4.820  11.353   8.170 -0.8403 -0.2952  0.2816
  583MOL0     N80368   4.765  11.258   8.118  0.6848  0.2020  0.6104
  583MOL0     C80369   5.020  10.121   7.937 -0.8229 -0.1833  0.0278
  583MOL0     C80370   5.075  10.012   8.005  0.0915 -0.2942  0.5362
  583MOL0     C80371   5.128   9.769   8.382 -0.0057 -0.1136 -0.4151
  583MOL0     C80372   5.093   9.733   8.511 -0.0750 -0.1885  0.4888
  583MOL0     C80373   5.166   9.656   8.590 -0.4580 -0.1606 -0.1681
  583MOL0     C80374   5.284   9.591   8.551 -0.0789  0.0569  0.2821
  583MOL0     O80375   5.365   9.522   8.631 -0.0762 -0.6496 -0.0324
  583MOL0     C80376   5.356   9.499   8.773  0.3086  0.1972  0.9533
  583MOL0     C80377   5.478   9.411   8.811 -0.2727 -0.0530 -0.2557
  583MOL0     C80378   5.462   9.357   8.950 -0.0705 -0.3578 -0.6527
  583MOL0     C80379   5.589   9.373   9.030 -0.4371  0.0769 -0.1731
  583MOL0     C80380   5.693   9.295   8.962 -0.4787  1.0950 -0.5221
  583MOL0     C80381   5.772   9.233   8.889  0.8296 -0.8107  0.3468
  583MOL0     C80382   5.320   9.612   8.414 -0.0290  0.9174  0.4492
  583MOL0     C80383   5.250   9.702   8.335  0.2654  0.2118  0.0246
  583MOL0     C80384   5.311   9.741   8.203 -0.1397 -0.2013 -0.0914
  583MOL0     H80385   4.785   9.875   8.133  0.0870  0.4763 -0.2693
  583MOL0     H80386   4.695  10.042   7.978 -0.6666  1.2127  2.5547
  583MOL0     H80387   4.640  10.248   7.949 -1.6903 -4.1945 -1.1665
  583MOL0     H80388   4.632  10.186   7.803  2.4326 -2.6275  1.3222
  583MOL0     H80389   4.720  10.435   7.714 -0.8083 -0.4044 -1.8188
  583MOL0     H80390   4.551  10.405   7.762  0.0470  1.0116  0.1058
  583MOL0     H80391   4.609  10.495   7.986  0.7756 -1.8156 -0.5500
  583MOL0     H80392   4.781  10.495   7.940 -1.0753 -2.6295 -0.7928
  583MOL0     H80393   4.724  10.655   7.757  0.6083  0.4399 -0.5235
  583MOL0     H80394   4.553  10.656   7.808  0.4019  1.8610 -2.3127
  583MOL0     H80395   4.791  10.750   7.985  1.9953  1.3702 -3.0192
  583MOL0     H80396   4.620  10.780   8.018  0.2970 -0.0544 -0.2109
  583MOL0     H80397   4.783  10.882   7.791  1.3042 -4.0447  0.3204
  583MOL0     H80398   4.609  10.919   7.818 -0.1443  1.2776  2.7500
  583MOL0     H80399   4.829  10.975   8.024 -0.0748  0.9582  2.3039
  583MOL0     H80400   4.660  11.018   8.035  0.8320 -2.6519  0.8063
  583MOL0     H80401   4.852  11.117   7.832  0.7472 -3.3864  2.2037
  583MOL0     H80402   4.677  11.165   7.838 -0.1002  2.8592  2.2324
  583MOL0     H80403   4.938  11.379   7.865  0.0611 -0.8713  0.6826
  583MOL0     H80404   5.004  11.529   8.227  1.3568  1.1944  0.1771
  583MOL0     H80405   4.903  11.631   8.140 -0.5739 -0.4609  1.6028
  583MOL0     H80406   5.154  11.670   8.109  2.9013  0.4263 -3.1190
  583MOL0     H80407   5.165  11.491   8.070 -0.7631 -0.4782 -1.3054
  583MOL0     H80408   5.024  11.550   7.859 -1.2516  1.2517  1.1446
  583MOL0     H80409   5.025  11.708   7.913 -3.3069 -2.0388  0.7961
  583MOL0     H80410   5.276  11.558   7.863  0.4203 -0.3621 -0.0980
  583MOL0     H80411   5.207  11.668   7.737  3.8678 -3.5982 -0.8256
  583MOL0     H80412   5.459  11.689   7.703  1.2522  2.2231 -1.8400
  583MOL0     H80413   5.776  11.586   7.735  0.3921 -0.1473 -0.0630
  583MOL0     H80414   5.783  11.744   7.663  1.0632 -0.7054 -0.2692
  583MOL0     H80415   5.657  11.638   7.606  0.7159  2.3463 -0.5860
  583MOL0     H80416   5.957  11.891   8.286 -0.5815 -2.0064 -0.5397
  583MOL0     H80417   6.188  11.875   8.359  0.2135 -1.9825 -1.3919
  583MOL0     H80418   6.359  11.720   8.361 -3.1838  0.4205 -2.6688
  583MOL0     H80419   6.418  11.640   8.216  0.6770 -0.0476 -0.3012
  583MOL0     H80420   6.598  11.624   8.361  0.6821 -0.0527 -1.3098
  583MOL0     H80421   6.635  11.755   8.236 -2.2052  3.7336 -1.0617
  583MOL0     H80422   6.549  11.781   8.533 -1.3759  0.2439 -0.0422
  583MOL0     H80423   6.582  11.919   8.430  1.9519  0.3749  1.2088
  583MOL0     H80424   6.808  11.857   8.382 -1.7931  0.4780 -1.5577
  583MOL0     H80425   6.799  11.715   8.474  0.2076  0.7582 -1.0112
  583MOL0     H80426   6.725  11.980   8.600  0.8309  0.1566 -0.7887
  583MOL0     H80427   6.760  11.837   8.689 -0.5585  2.3456  1.1528
  583MOL0     H80428   6.976  11.952   8.504 -0.9948  3.4228  0.4699
  583MOL0     H80429   6.990  11.835   8.636  1.8561  1.1524 -0.8417
  583MOL0     H80430   6.890  12.044   8.772 -1.1918  3.3470  0.0296
  583MOL0     H80431   6.978  12.134   8.636  1.2225 -0.7985 -1.0696
  583MOL0     H80432   7.182  12.034   8.702 -0.5125 -1.9451 -2.1558
  583MOL0     H80433   7.112  11.919   8.814 -0.8627 -0.8778 -0.4318
  583MOL0     H80434   6.329  11.833   7.962  0.5334 -1.5475  0.1476
  583MOL0     H80435   6.090  11.869   7.875 -3.4957 -2.3518  0.9625
  583MOL0     H80436   5.641  11.927   8.086 -1.2276 -0.8675  0.5752
  583MOL0     H80437   5.419  11.888   8.098 -1.2271 -1.2100 -0.6380
  583MOL0     H80438   5.083  10.198   7.894 -2.1067  0.3349 -1.0048
  583MOL0     H80439   5.183  10.002   8.002  0.3460  2.0730 -2.3508
  583MOL0     H80440   5.012   9.788   8.558 -0.8534 -0.6188 -0.3148
  583MOL0     H80441   5.143   9.644   8.696 -1.0385  1.1193 -0.1199
  583MOL0     H80442   5.353   9.595   8.827  1.8738  1.6763 -1.3892
  583MOL0     H80443   5.262   9.445   8.776 -0.6057  1.1143 -3.8915
  583MOL0     H80444   5.565   9.477   8.807 -0.9581  1.1024  1.9817
  583MOL0     H80445   5.488   9.325   8.744  0.5114 -1.7553  1.9347
  583MOL0     H80446   5.387   9.411   9.008  1.6204  0.7272  0.6131
  583MOL0     H80447   5.440   9.250   8.951 -0.4515 -0.2761  0.6220
  583MOL0     H80448   5.580   9.340   9.134  1.6125  1.3701  0.4761
  583MOL0     H80449   5.628   9.475   9.025 -1.3311  0.4080 -0.6430
  583MOL0     H80450   5.835   9.184   8.818  1.3876  1.7279 -1.0595
  583MOL0     H80451   5.416   9.576   8.377 -0.1245 -1.0387  1.9563
  583MOL0     H80452   5.416   9.712   8.198 -0.4274 -1.1721 -0.5752
  583MOL0     H80453   5.247   9.697   8.126  0.0958  2.5148 -1.9733
  583MOL0     H80454   5.303   9.849   8.188 -0.6049 -0.3065 -0.6565
  584MOL0     O80455   3.188   5.769   5.966  0.8830 -0.3611  0.5291
  584MOL0     C80456   3.169   5.657   6.010 -1.3375 -0.0095 -0.5642
  584MOL0     O80457   3.060   5.576   6.006  0.2040  0.2073 -0.3028
  584MOL0     C80458   2.950   5.608   5.932 -0.1457  0.2268 -0.0333
  584MOL0     C80459   2.830   5.603   5.998 -0.5023 -0.8636 -0.3813
  584MOL0     C80460   2.719   5.629   5.918  0.1628  1.2348 -0.5978
  584MOL0     C80461   2.720   5.645   5.776 -0.9163 -0.2472 -0.6512
  584MOL0     O80462   2.621   5.654   5.690  0.6926 -0.2511  0.7034
  584MOL0     C80463   2.484   5.623   5.719 -0.7582 -0.2255 -0.4475
  584MOL0     C80464   2.416   5.749   5.775 -0.7211  0.7624 -0.1187
  584MOL0     C80465   2.268   5.724   5.805  0.3790 -0.2017 -0.7521
  584MOL0     C80466   2.225   5.782   5.942  0.5922 -0.2012  0.7106
  584MOL0     C80467   2.074   5.786   5.960 -0.2078 -0.0475 -0.5558
  584MOL0     C80468   2.018   5.644   5.968 -0.2748  0.1299  1.0596
  584MOL0     C80469   1.885   5.639   6.038  1.1700 -0.3961  0.2135
  584MOL0     C80470   1.830   5.509   6.068 -0.0533 -0.0793  0.1075
  584MOL0     N80471   1.796   5.447   5.942 -0.0685  0.3544  0.0153
  584MOL0     C80472   1.870   5.354   5.887 -1.4574  0.7172 -1.0816
  584MOL0     C80473   1.802   5.323   5.780  1.1536 -0.3660  0.8003
  584MOL0     C80474   1.840   5.225   5.671  0.0560  0.9739 -0.5526
  584MOL0     C80475   1.710   5.147   5.622  0.3212  0.2372 -0.3368
  584MOL0     C80476   1.761   5.019   5.544  0.4845  0.7203  0.5841
  584MOL0     C80477   1.827   4.899   5.624  0.4020  0.1492  0.1389
  584MOL0     O80478   1.865   4.789   5.542 -0.4930 -0.4199  0.0746
  584MOL0     C80479   1.877   4.671   5.603 -0.6279 -1.3885 -0.6501
  584MOL0     C80480   1.850   4.560   5.527 -0.6336  0.3206 -0.1450
  584MOL0     C80481   1.881   4.428   5.573  0.2997 -0.6848 -0.0371
  584MOL0     C80482   1.847   4.312   5.478 -0.2253 -0.4047 -0.1917
  584MOL0     C80483   1.925   4.416   5.712 -0.3155 -0.3236  0.0415
  584MOL0     C80484   1.945   4.293   5.791  0.1027 -0.1167 -0.0973
  584MOL0     O80485   1.953   4.315   5.923  0.3573 -0.1517 -0.8939
  584MOL0     C80486   1.932   4.215   6.015  0.4100  0.8339  0.1150
  584MOL0     C80487   2.021   4.195   6.111 -0.1587  0.6003 -0.4201
  584MOL0     C80488   2.004   4.083   6.204  0.0934  0.8035  0.8624
  584MOL0     C80489   1.884   4.006   6.204 -0.6154  0.2630 -0.5224
  584MOL0     O80490   1.857   3.907   6.297  0.2044 -0.1487  0.4757
  584MOL0     C80491   1.925   3.904   6.418  0.0800  0.1372  0.0042
  584MOL0     C80492   1.867   3.783   6.488  1.5527  0.4348  0.4846
  584MOL0     C80493   1.870   3.650   6.408  0.3565  0.6801 -0.4226
  584MOL0     C80494   1.899   3.524   6.499 -0.2300 -0.0456  0.4156
  584MOL0     C80495   1.769   3.476   6.575  0.0093  0.3203 -0.8075
  584MOL0     C80496   1.807   3.344   6.639  0.0734 -0.0864  0.0011
  584MOL0     C80497   1.674   3.277   6.699  0.3764  0.7432  0.8114
  584MOL0     C80498   1.706   3.151   6.774  0.3492 -0.5151  0.9832
  584MOL0    Cl80499   1.800   3.181   6.919  0.1337 -0.0494  0.1262
  584MOL0     C80500   1.806   4.021   6.096  0.1806  0.5052  0.2447
  584MOL0     C80501   1.830   4.121   6.000  0.6110  0.3311 -0.5558
  584MOL0     O80502   1.950   4.187   5.734 -0.0310  0.0323  0.3307
  584MOL0     C80503   1.950   4.539   5.782 -0.5972 -0.3050 -0.3692
  584MOL0     C80504   1.936   4.661   5.725  0.2752 -0.0783 -0.1827
  584MOL0     N80505   1.684   5.387   5.780 -0.1536 -0.0948  0.0714
  584MOL0     N80506   1.679   5.474   5.875  0.1348  0.8438 -0.0387
  584MOL0     C80507   2.849   5.661   5.718 -0.0831  0.1633 -1.0550
  584MOL0     C80508   2.961   5.649   5.804  0.5011 -0.0294  0.6334
  584MOL0     C80509   3.287   5.601   6.077  0.5537  0.3434 -0.8130
  584MOL0     C80510   3.381   5.684   6.147  0.7042 -0.5613  1.1843
  584MOL0     C80511   3.488   5.639   6.211  0.1412  0.2496  0.3023
  584MOL0     C80512   3.503   5.498   6.218  0.9519  0.2144  0.2136
  584MOL0     O80513   3.611   5.432   6.270 -0.6363 -0.1728 -0.4134
  584MOL0     C80514   3.637   5.464   6.415  0.2209  0.2698  0.6499
  584MOL0     C80515   3.700   5.332   6.479 -0.2272 -0.5718 -0.0988
  584MOL0     C80516   3.596   5.225   6.481  0.7888  0.4559 -0.6747
  584MOL0     C80517   3.633   5.092   6.566  0.2733 -0.0888  0.8623
  584MOL0     C80518   3.522   4.994   6.536  0.2064 -0.2678  0.8099
  584MOL0     C80519   3.442   4.900   6.523 -1.2155 -0.5080 -0.1463
  584MOL0     C80520   3.418   5.410   6.149 -1.1900 -0.0691  1.0312
  584MOL0     C80521   3.308   5.458   6.078  0.4599 -0.0820  0.8600
  584MOL0     C80522   3.241   5.353   5.998  0.4688 -0.1709 -0.7306
  584MOL0     H80523   2.851   5.584   6.103 -0.3228  2.8139  0.3959
  584MOL0     H80524   2.625   5.630   5.973  0.0048 -2.1246 -0.5910
  584MOL0     H80525   2.476   5.540   5.789 -1.3705 -1.4053 -1.8728
  584MOL0     H80526   2.434   5.591   5.628 -1.1106 -0.9226 -0.0109
  584MOL0     H80527   2.468   5.789   5.862 -0.1271 -1.0924  0.4168
  584MOL0     H80528   2.417   5.816   5.689 -0.9718  1.2467  0.2546
  584MOL0     H80529   2.197   5.761   5.729 -3.2049 -2.7368  1.0450
  584MOL0     H80530   2.252   5.616   5.809 -0.4051 -0.1714 -2.3515
  584MOL0     H80531   2.290   5.735   6.016  3.8539  1.2766 -0.9831
  584MOL0     H80532   2.255   5.887   5.944 -0.6609  0.2965 -2.1329
  584MOL0     H80533   2.022   5.853   5.892  1.1666  1.5318 -0.1116
  584MOL0     H80534   2.053   5.831   6.058  1.4558 -2.6290  1.1030
  584MOL0     H80535   2.000   5.606   5.867 -0.8179 -0.3444  1.3246
  584MOL0     H80536   2.084   5.581   6.029 -0.3530  1.5794  2.7234
  584MOL0     H80537   1.814   5.684   5.967  0.8552 -2.9303 -1.1766
  584MOL0     H80538   1.881   5.697   6.131 -1.3928 -0.2875  0.0951
  584MOL0     H80539   1.898   5.446   6.126 -2.3785  0.1556  3.4114
  584MOL0     H80540   1.736   5.520   6.123 -0.2166 -1.1082  0.0552
  584MOL0     H80541   1.966   5.320   5.923 -1.0065  0.9549 -2.0246
  584MOL0     H80542   1.913   5.148   5.697 -1.9283 -1.2803 -1.3354
  584MOL0     H80543   1.888   5.282   5.590 -0.1114 -0.3699 -1.6335
  584MOL0     H80544   1.647   5.120   5.707 -1.0033 -0.2676 -1.4344
  584MOL0     H80545   1.649   5.216   5.562 -2.4265  1.0933  3.1173
  584MOL0     H80546   1.678   4.977   5.487  3.3069  0.7649 -4.0908
  584MOL0     H80547   1.825   5.045   5.459 -1.0119  0.6904 -0.5907
  584MOL0     H80548   1.906   4.925   5.695 -0.3546 -1.6936  1.7098
  584MOL0     H80549   1.748   4.866   5.691  1.0273  0.8284  1.2581
  584MOL0     H80550   1.809   4.567   5.427  0.4735 -1.0276 -0.7307
  584MOL0     H80551   1.787   4.340   5.391  0.4024 -0.3894 -0.6233
  584MOL0     H80552   1.805   4.226   5.532  0.1384  1.3288  3.0965
  584MOL0     H80553   1.947   4.277   5.453 -0.8636 -0.9063 -2.2556
  584MOL0     H80554   2.106   4.262   6.113  0.8311 -0.6187  0.1918
  584MOL0     H80555   2.076   4.070   6.284 -1.0647 -0.9405  1.6729
  584MOL0     H80556   2.031   3.883   6.403 -0.2992 -1.1717 -0.9768
  584MOL0     H80557   1.903   3.996   6.473 -1.9898  0.9990 -2.0814
  584MOL0     H80558   1.933   3.771   6.574  3.1375  3.6392 -0.1284
  584MOL0     H80559   1.764   3.796   6.524  0.3450 -2.5237 -1.5682
  584MOL0     H80560   1.938   3.654   6.322 -0.7575 -0.2556 -1.3912
  584MOL0     H80561   1.767   3.646   6.370  0.5070  0.8263 -0.8539
  584MOL0     H80562   1.983   3.539   6.568  0.9144 -0.9807 -0.7252
  584MOL0     H80563   1.927   3.442   6.432 -0.8787  0.1064 -0.0462
  584MOL0     H80564   1.732   3.548   6.648 -1.1705  0.0149 -1.0755
  584MOL0     H80565   1.691   3.456   6.501 -2.5020 -0.2548  1.8137
  584MOL0     H80566   1.884   3.349   6.717  0.3476 -2.2232 -0.0754
  584MOL0     H80567   1.841   3.279   6.558  0.9068  1.1645 -0.6882
  584MOL0     H80568   1.607   3.251   6.616 -0.2249  2.3205  0.7603
  584MOL0     H80569   1.617   3.347   6.761  1.5710  2.3989  0.1385
  584MOL0     H80570   1.760   3.079   6.713 -1.8102  1.2752 -3.4568
  584MOL0     H80571   1.614   3.095   6.796  0.5923 -1.7124 -0.8579
  584MOL0     H80572   1.727   3.948   6.085 -2.6989  3.3232  0.6415
  584MOL0     H80573   1.756   4.116   5.922  0.2902  1.5770 -0.3591
  584MOL0     H80574   1.993   4.542   5.881 -0.2109 -2.5117 -0.4137
  584MOL0     H80575   1.972   4.753   5.769  0.5990  0.0251 -0.6523
  584MOL0     H80576   2.862   5.682   5.612  1.7314  3.9720 -0.2649
  584MOL0     H80577   3.057   5.668   5.756  1.7368 -2.8376  1.8266
  584MOL0     H80578   3.370   5.791   6.135  0.2722 -0.6870  0.3426
  584MOL0     H80579   3.554   5.712   6.258 -0.0227  0.2641  0.5111
  584MOL0     H80580   3.716   5.539   6.421 -1.0541  1.6005  1.4434
  584MOL0     H80581   3.549   5.498   6.469 -0.5625  0.5877 -0.7612
  584MOL0     H80582   3.726   5.362   6.581 -4.3308  1.2594  0.5997
  584MOL0     H80583   3.788   5.295   6.426  0.6292 -0.3821  1.1460
  584MOL0     H80584   3.498   5.258   6.517  2.0288  3.4754  0.3118
  584MOL0     H80585   3.575   5.195   6.378  0.4895 -3.2769  0.3354
  584MOL0     H80586   3.653   5.103   6.673 -0.8021  0.2791  1.0413
  584MOL0     H80587   3.724   5.050   6.522  0.2181 -0.0023  0.6651
  584MOL0     H80588   3.371   4.820   6.531 -2.0952 -0.0420 -2.4469
  584MOL0     H80589   3.453   5.308   6.139  2.5129  1.1001  0.4147
  584MOL0     H80590   3.209   5.391   5.901 -2.1254  4.5622  1.6125
  584MOL0     H80591   3.298   5.260   5.997  1.5797  0.4368  0.8029
  584MOL0     H80592   3.152   5.315   6.050  1.0636 -0.2981  0.2381
  585MOL0     O80593   0.862   0.521   3.744 -0.2981 -0.4901  0.9476
  585MOL0     C80594   0.794   0.512   3.646  0.1279  0.3906 -0.9116
  585MOL0     O80595   0.833   0.543   3.524 -0.6801  0.0737 -0.1280
  585MOL0     C80596   0.969   0.551   3.503 -0.1695 -0.7536  0.1177
  585MOL0     C80597   1.040   0.678   3.517  0.5845  0.2050 -0.2116
  585MOL0     C80598   1.169   0.689   3.478 -0.6164 -0.1165 -0.5850
  585MOL0     C80599   1.240   0.573   3.439  0.1622  0.7692  0.4477
  585MOL0     O80600   1.375   0.587   3.398  0.5519 -0.6347  0.7114
  585MOL0     C80601   1.476   0.486   3.422  0.3039 -0.3861  0.5625
  585MOL0     C80602   1.580   0.479   3.301 -1.1193  0.6905 -0.4923
  585MOL0     C80603   1.512   0.476   3.155  0.2863 -1.7706 -0.2578
  585MOL0     C80604   1.449   0.335   3.124 -0.4261 -0.1507  1.0208
  585MOL0     C80605   1.355   0.342   3.003 -0.3619 -1.0373 -0.6204
  585MOL0     C80606   1.442   0.343   2.879 -0.0196  0.5824 -0.2374
  585MOL0     C80607   1.351   0.326   2.756  0.2313  0.1123  0.5098
  585MOL0     C80608   1.440   0.339   2.624 -0.3717 -0.6506 -0.7497
  585MOL0     N80609   1.486   0.217   2.562  0.6343 -0.8299 -0.3048
  585MOL0     C80610   1.454   0.175   2.437 -0.1846 -0.5399  0.4829
  585MOL0     C80611   1.549   0.080   2.405  0.3266 -0.1685  0.2954
  585MOL0     C80612   1.565   0.030   2.266  0.1492  0.3299 -0.3995
  585MOL0     C80613   1.681   0.092   2.179 -0.2813  0.4321 -0.4989
  585MOL0     C80614   1.729   0.000   2.066  0.4597  0.5295 -0.0031
  585MOL0     C80615   1.822   0.061   1.958 -0.5007 -0.2299 -0.4651
  585MOL0     O80616   1.773   0.190   1.907 -0.4988  0.0026 -0.6571
  585MOL0     C80617   1.809   0.223   1.779  0.3582 -0.4362 -0.1749
  585MOL0     C80618   1.743   0.320   1.713 -0.1205 -1.2955  0.5421
  585MOL0     C80619   1.755   0.357   1.574 -0.5247  0.9455 -0.3643
  585MOL0     C80620   1.678   0.469   1.515 -0.2805  0.3676  0.6776
  585MOL0     C80621   1.836   0.270   1.493 -1.4411  0.2264  0.6921
  585MOL0     C80622   1.854   0.282   1.339 -0.3477  0.8968  0.0904
  585MOL0     O80623   1.985   0.256   1.297  0.5213 -0.4425  0.0459
  585MOL0     C80624   2.005   0.274   1.170 -0.1415 -0.2141  1.0188
  585MOL0     C80625   1.993   0.175   1.073  0.7307  0.0143  1.5026
  585MOL0     C80626   2.006   0.208   0.942  0.7792  0.0572  0.1613
  585MOL0     C80627   2.058   0.334   0.899  0.5810 -0.0578  0.6649
  585MOL0     O80628   2.088   0.373   0.773  0.1358  0.5455  0.7753
  585MOL0     C80629   1.983   0.334   0.679 -1.6773 -0.7663  0.2608
  585MOL0     C80630   1.978   0.440   0.567  0.0540  0.4419  0.5341
  585MOL0     C80631   1.857   0.416   0.473  0.2317 -0.8547  0.5690
  585MOL0     C80632   1.855   0.509   0.350  0.0617 -0.5314 -0.3169
  585MOL0     C80633   1.750   0.466   0.238 -0.2819  0.4587 -0.0300
  585MOL0     C80634   1.821   0.368   0.145 -0.6033  0.2828 -0.2572
  585MOL0     C80635   1.743   0.364   0.014  0.9678 -0.0215  0.3340
  585MOL0     C80636   1.775   0.477  -0.077 -0.1718 -0.4273 -0.6883
  585MOL0    Cl80637   1.950   0.474  -0.137 -0.4696  0.0934  0.1347
  585MOL0     C80638   2.089   0.426   1.007  0.2222 -0.0674 -0.0367
  585MOL0     C80639   2.058   0.401   1.134 -0.1054 -0.0070  0.5599
  585MOL0     O80640   1.755   0.309   1.267  0.0344  0.1089  0.5842
  585MOL0     C80641   1.911   0.171   1.560 -0.2284  0.8983 -0.0185
  585MOL0     C80642   1.908   0.158   1.699 -0.4940  0.5433 -0.8042
  585MOL0     N80643   1.624   0.064   2.523 -0.1540  0.6455 -0.5081
  585MOL0     N80644   1.592   0.150   2.617 -0.3586 -0.5654 -0.1241
  585MOL0     C80645   1.179   0.448   3.432  0.2038 -0.4044 -0.9392
  585MOL0     C80646   1.040   0.445   3.461  0.3957  0.2820 -0.2318
  585MOL0     C80647   0.641   0.488   3.668  0.1236 -0.4290  0.3972
  585MOL0     C80648   0.559   0.527   3.566 -0.3258 -0.6244 -0.1469
  585MOL0     C80649   0.422   0.510   3.575  0.4421  0.0024 -0.0139
  585MOL0     C80650   0.369   0.458   3.689  0.4283  0.0317  0.1508
  585MOL0     O80651   0.233   0.453   3.694 -0.1737  1.5676  0.0701
  585MOL0     C80652   0.174   0.325   3.646 -0.1483 -0.2281  0.1250
  585MOL0     C80653   0.060   0.350   3.555  0.7272 -0.6791 -0.0409
  585MOL0     C80654  -0.029   0.226   3.511 -0.5342 -1.3558 -0.2708
  585MOL0     C80655  -0.144   0.271   3.419 -0.1980 -0.2130  0.5125
  585MOL0     C80656  -0.100   0.348   3.302  0.4832 -0.3059  0.7303
  585MOL0     C80657  -0.064   0.410   3.201 -0.1897 -0.7197 -0.1807
  585MOL0     C80658   0.454   0.425   3.795  0.0632  0.4787  0.1938
  585MOL0     C80659   0.587   0.444   3.789 -0.9852 -0.3397 -0.4095
  585MOL0     C80660   0.660   0.410   3.922 -0.2062 -0.6678  0.3580
  585MOL0     H80661   0.986   0.770   3.537 -0.1723 -0.4923  1.0586
  585MOL0     H80662   1.230   0.777   3.490 -0.2622 -0.6852  2.5961
  585MOL0     H80663   1.438   0.385   3.440  1.8614 -1.3466 -1.2083
  585MOL0     H80664   1.531   0.521   3.510 -2.0311  0.7307  1.6544
  585MOL0     H80665   1.639   0.568   3.321 -1.9943  0.4797  4.1405
  585MOL0     H80666   1.646   0.392   3.313 -2.8750 -0.9479 -2.0974
  585MOL0     H80667   1.437   0.555   3.164  0.4253 -1.5253 -1.1179
  585MOL0     H80668   1.596   0.496   3.088  0.2447 -0.7468 -0.0108
  585MOL0     H80669   1.528   0.263   3.103  0.9207  1.9393 -1.8123
  585MOL0     H80670   1.389   0.310   3.212 -0.5090 -1.5825  0.5868
  585MOL0     H80671   1.292   0.431   3.016  2.4612  0.7085  2.8884
  585MOL0     H80672   1.289   0.255   2.999  1.1347 -2.3732  1.6398
  585MOL0     H80673   1.503   0.433   2.880  1.1318 -0.1745 -0.1926
  585MOL0     H80674   1.508   0.256   2.885 -0.9722 -0.2858 -1.7405
  585MOL0     H80675   1.286   0.413   2.750 -0.4598 -0.4428 -0.2361
  585MOL0     H80676   1.290   0.235   2.757 -0.0550  0.3005  1.6308
  585MOL0     H80677   1.398   0.410   2.552 -0.2589  2.5147  2.0528
  585MOL0     H80678   1.530   0.391   2.660 -1.2033  0.9820 -0.9496
  585MOL0     H80679   1.375   0.219   2.376  0.4326 -1.7226 -1.2648
  585MOL0     H80680   1.467   0.038   2.218 -0.4704 -2.6153  0.1910
  585MOL0     H80681   1.589  -0.076   2.277 -0.3121  0.4272  2.2037
  585MOL0     H80682   1.648   0.186   2.135  1.3920  0.4418 -1.8688
  585MOL0     H80683   1.767   0.121   2.240  1.3887 -1.3335 -1.8743
  585MOL0     H80684   1.770  -0.090   2.113 -0.9733 -1.0978 -1.7056
  585MOL0     H80685   1.639  -0.043   2.021  0.1125  1.3047 -0.0649
  585MOL0     H80686   1.923   0.075   1.999 -0.3699 -1.3862 -0.3634
  585MOL0     H80687   1.832  -0.011   1.877  1.0008 -0.0071 -0.5135
  585MOL0     H80688   1.663   0.380   1.755 -0.0862 -0.9265  0.0908
  585MOL0     H80689   1.613   0.516   1.589 -1.2771  0.9403 -0.5135
  585MOL0     H80690   1.605   0.431   1.442 -1.6664  1.0156  1.6773
  585MOL0     H80691   1.737   0.547   1.466 -0.9069 -0.1327 -0.9521
  585MOL0     H80692   1.969   0.074   1.106  0.5184 -0.3100  0.3966
  585MOL0     H80693   1.987   0.128   0.871 -2.5722 -1.8411  2.8869
  585MOL0     H80694   2.003   0.232   0.643  2.4371 -0.6393  1.7389
  585MOL0     H80695   1.887   0.340   0.730 -0.7891 -2.2044  2.2036
  585MOL0     H80696   1.958   0.529   0.627 -1.1433  0.0076  0.8028
  585MOL0     H80697   2.073   0.453   0.513 -0.3213  2.8734  0.3423
  585MOL0     H80698   1.759   0.417   0.523 -0.5146  1.6547 -0.7466
  585MOL0     H80699   1.867   0.319   0.425  0.7088 -0.5134 -0.0408
  585MOL0     H80700   1.951   0.513   0.297 -1.2728 -1.5661 -3.0555
  585MOL0     H80701   1.844   0.613   0.381  1.6354 -0.9413  1.8239
  585MOL0     H80702   1.666   0.409   0.277 -0.7454  0.6839 -0.6851
  585MOL0     H80703   1.715   0.554   0.183  0.3665  0.5370 -0.3298
  585MOL0     H80704   1.819   0.265   0.184  1.9880  0.2022 -0.1649
  585MOL0     H80705   1.928   0.387   0.144 -0.4081 -0.2312  2.5617
  585MOL0     H80706   1.634   0.361   0.022  0.7145  1.2164 -1.9852
  585MOL0     H80707   1.774   0.269  -0.031  2.0722 -1.6045  4.0332
  585MOL0     H80708   1.761   0.574  -0.030  1.3165 -0.3671 -0.3148
  585MOL0     H80709   1.709   0.464  -0.164 -0.8740  1.4704 -0.4697
  585MOL0     H80710   2.138   0.519   0.980 -3.0335  1.0884 -2.6842
  585MOL0     H80711   2.076   0.485   1.201 -0.1722 -0.0031  0.5726
  585MOL0     H80712   1.961   0.095   1.502 -0.4481  0.7079  0.0423
  585MOL0     H80713   1.965   0.084   1.753 -0.4859  0.5766 -0.7673
  585MOL0     H80714   1.232   0.363   3.391  0.0984 -0.7803 -0.3139
  585MOL0     H80715   0.985   0.354   3.442 -0.6529  0.4632  1.7418
  585MOL0     H80716   0.587   0.576   3.473 -2.0906 -0.7964 -0.7937
  585MOL0     H80717   0.362   0.547   3.493  0.9063 -1.0959 -0.8749
  585MOL0     H80718   0.255   0.260   3.610 -1.0478 -2.7774  2.3320
  585MOL0     H80719   0.133   0.280   3.737 -2.7128  1.2848 -0.2106
  585MOL0     H80720   0.112   0.397   3.472  2.3096  3.1122  2.8108
  585MOL0     H80721  -0.001   0.428   3.600 -0.4860 -2.7770  2.1865
  585MOL0     H80722   0.042   0.159   3.462  1.7666  0.8283 -0.1024
  585MOL0     H80723  -0.072   0.172   3.596  0.2807 -1.7609 -0.1122
  585MOL0     H80724  -0.221   0.317   3.483  1.4159  1.1133  1.6236
  585MOL0     H80725  -0.190   0.181   3.377 -3.5615  1.2771  0.6682
  585MOL0     H80726  -0.043   0.472   3.116  0.4426 -2.1289 -1.0920
  585MOL0     H80727   0.404   0.386   3.883  0.2549  0.6325  0.3727
  585MOL0     H80728   0.675   0.302   3.916 -1.8366 -0.9271  0.2729
  585MOL0     H80729   0.751   0.466   3.942 -1.6090  0.6098  4.0336
  585MOL0     H80730   0.598   0.435   4.009 -0.6619  2.3521 -0.6899
  586MOL0     O80731   4.076   7.324   9.839  0.2458  0.2994  0.0299
  586MOL0     C80732   3.986   7.382   9.774 -0.0113  0.1770  0.8386
  586MOL0     O80733   3.962   7.514   9.770  0.6624 -1.0559  0.5525
  586MOL0     C80734   4.051   7.579   9.846 -0.3427  0.0734 -0.5967
  586MOL0     C80735   4.010   7.611   9.973  0.0930  0.2593 -1.3658
  586MOL0     C80736   4.081   7.698  10.063 -0.8028 -0.6550 -0.2054
  586MOL0     C80737   4.198   7.761  10.016 -0.0908  0.9307  0.4565
  586MOL0     O80738   4.279   7.842  10.090  0.3667  0.5460  0.3629
  586MOL0     C80739   4.255   7.861  10.231 -0.8701 -0.3976 -0.0275
  586MOL0     C80740   4.373   7.928  10.304 -0.7674  0.6192  0.0808
  586MOL0     C80741   4.400   8.068  10.254  0.8532 -0.1949  0.1647
  586MOL0     C80742   4.326   8.186  10.329  0.3498  0.4640 -0.0086
  586MOL0     C80743   4.356   8.333  10.296 -0.2304 -0.2505 -0.3527
  586MOL0     C80744   4.333   8.372  10.151 -0.2406 -0.1407  0.0164
  586MOL0     C80745   4.335   8.528  10.139  0.5876  0.4123  0.6445
  586MOL0     C80746   4.319   8.577   9.990  0.3803  0.1149 -0.4306
  586MOL0     N80747   4.238   8.494   9.909 -0.2565  0.9931  0.6354
  586MOL0     C80748   4.111   8.455   9.940 -0.1692  0.2048  0.2003
  586MOL0     C80749   4.047   8.419   9.820 -0.9234  0.0327  0.2189
  586MOL0     C80750   3.905   8.366   9.813  0.4538  0.0228 -0.0015
  586MOL0     C80751   3.807   8.487   9.794 -0.0126  0.5874  0.5489
  586MOL0     C80752   3.830   8.566   9.664  0.3996  0.0637 -0.7878
  586MOL0     C80753   3.779   8.492   9.532  0.3906 -1.0958  0.2098
  586MOL0     O80754   3.638   8.480   9.551  0.2777  0.1095 -0.2673
  586MOL0     C80755   3.567   8.414   9.451 -0.4578 -0.7397  0.1154
  586MOL0     C80756   3.439   8.366   9.482  0.5411  0.1830  0.2387
  586MOL0     C80757   3.360   8.304   9.379 -0.7895 -0.3621 -0.2166
  586MOL0     C80758   3.215   8.293   9.412  0.2165  0.3945  0.5078
  586MOL0     C80759   3.414   8.270   9.252  0.4902  0.5480 -0.3138
  586MOL0     C80760   3.343   8.202   9.139 -0.7286 -1.0215 -0.6896
  586MOL0     O80761   3.235   8.126   9.173  0.7516  1.1115 -0.5162
  586MOL0     C80762   3.181   8.053   9.064 -0.2285  0.1253  0.0460
  586MOL0     C80763   3.237   7.929   9.036 -1.2524 -0.2842 -1.0336
  586MOL0     C80764   3.184   7.868   8.924  0.4064  0.3072  0.2866
  586MOL0     C80765   3.054   7.897   8.879  0.8015 -0.1085  0.6406
  586MOL0     O80766   2.986   7.836   8.780 -0.7292 -0.3058 -0.3111
  586MOL0     C80767   3.022   7.697   8.745  0.1733 -1.1572  0.1809
  586MOL0     C80768   2.925   7.645   8.635  0.1857 -0.4652  0.1794
  586MOL0     C80769   2.777   7.649   8.687 -0.2972 -0.7455 -0.0203
  586MOL0     C80770   2.674   7.570   8.611  0.1646 -0.4538  0.3690
  586MOL0     C80771   2.530   7.604   8.632 -0.6400 -0.4218 -0.3492
  586MOL0     C80772   2.442   7.524   8.534  0.8773 -0.7519  0.2099
  586MOL0     C80773   2.295   7.561   8.537 -0.3217 -0.2837 -0.5715
  586MOL0     C80774   2.211   7.513   8.424  0.9648  0.0222  0.3383
  586MOL0    Cl80775   2.250   7.341   8.379  0.2119 -0.0721 -0.4775
  586MOL0     C80776   2.996   8.019   8.914 -0.0086  0.1593  0.6481
  586MOL0     C80777   3.072   8.092   8.998 -0.1816 -1.0760  0.3577
  586MOL0     O80778   3.395   8.206   9.027  0.1072  0.0464 -0.6785
  586MOL0     C80779   3.538   8.329   9.219  0.1488  0.0941  0.2087
  586MOL0     C80780   3.611   8.396   9.321  0.3998  0.0877 -0.3669
  586MOL0     N80781   4.126   8.459   9.718  0.0746  0.3586  0.4144
  586MOL0     N80782   4.247   8.491   9.766  0.6035 -0.4786 -0.0531
  586MOL0     C80783   4.244   7.724   9.882 -0.3793  0.0266  0.5348
  586MOL0     C80784   4.171   7.631   9.804  0.4233 -0.4433 -0.1227
  586MOL0     C80785   3.882   7.310   9.693 -0.5380  0.3970 -0.1873
  586MOL0     C80786   3.850   7.362   9.566  0.5610  0.5325  0.2462
  586MOL0     C80787   3.779   7.280   9.474 -0.6191  0.3507  0.6223
  586MOL0     C80788   3.742   7.148   9.509  0.1831  0.0514 -0.8460
  586MOL0     O80789   3.661   7.058   9.426  0.0628  0.0593  0.4709
  586MOL0     C80790   3.650   7.078   9.278 -0.0787 -0.7201  0.0498
  586MOL0     C80791   3.612   6.949   9.219  0.1888  0.0856 -0.7496
  586MOL0     C80792   3.590   6.969   9.070 -0.2898 -1.2735 -0.1977
  586MOL0     C80793   3.528   6.837   9.007 -0.6011 -0.6676  0.2326
  586MOL0     C80794   3.619   6.729   8.989  0.0036  0.5170 -1.0251
  586MOL0     C80795   3.701   6.642   8.983  0.8407  0.3472 -1.1010
  586MOL0     C80796   3.776   7.106   9.637  0.5983 -0.4025 -0.3839
  586MOL0     C80797   3.842   7.182   9.729  0.2510 -0.0495  0.6189
  586MOL0     C80798   3.852   7.118   9.867 -0.3218  0.0169 -0.0929
  586MOL0     H80799   3.925   7.567  10.024 -0.4549  0.1763 -2.3355
  586MOL0     H80800   4.036   7.713  10.160 -2.2362 -3.8128 -0.2741
  586MOL0     H80801   4.231   7.761  10.267 -0.3598  0.3151  2.5386
  586MOL0     H80802   4.165   7.920  10.251  1.2539  2.1127  3.0923
  586MOL0     H80803   4.357   7.916  10.411  0.7292 -2.3769  0.0939
  586MOL0     H80804   4.461   7.864  10.287  0.3105  2.4182 -1.5153
  586MOL0     H80805   4.509   8.081  10.250  1.3269 -3.3514  0.1632
  586MOL0     H80806   4.352   8.081  10.157 -0.6373 -0.5539  0.8328
  586MOL0     H80807   4.218   8.167  10.323  0.7740 -1.7146 -2.8339
  586MOL0     H80808   4.346   8.171  10.436  2.6383 -1.0967 -0.5752
  586MOL0     H80809   4.464   8.344  10.314 -0.1147 -1.7830  0.0757
  586MOL0     H80810   4.291   8.393  10.360 -0.2181 -2.9808  2.5032
  586MOL0     H80811   4.419   8.325  10.102  3.2114  4.1271  1.2354
  586MOL0     H80812   4.238   8.325  10.125 -1.4130 -0.1799  3.8556
  586MOL0     H80813   4.434   8.561  10.172  0.6765  0.8785 -0.0604
  586MOL0     H80814   4.246   8.568  10.188 -0.3859 -0.9107  0.0552
  586MOL0     H80815   4.267   8.673   9.990 -2.1113 -1.1166 -2.2994
  586MOL0     H80816   4.410   8.570   9.931 -0.5803 -0.1932 -1.9203
  586MOL0     H80817   4.071   8.439  10.039  0.9410 -1.2932  0.4414
  586MOL0     H80818   3.884   8.297   9.896 -0.6733  0.2606 -0.0862
  586MOL0     H80819   3.897   8.297   9.729  1.1319 -0.1322  0.0528
  586MOL0     H80820   3.704   8.449   9.793  0.6556 -1.4367 -1.3965
  586MOL0     H80821   3.826   8.545   9.884  2.1083 -0.2527  0.6853
  586MOL0     H80822   3.773   8.657   9.685 -0.4565 -0.6043 -0.1354
  586MOL0     H80823   3.935   8.594   9.649  0.7114 -0.0865  0.9254
  586MOL0     H80824   3.810   8.535   9.437 -1.8129 -2.2332 -1.1163
  586MOL0     H80825   3.826   8.396   9.509  1.1849 -0.7508  0.3707
  586MOL0     H80826   3.393   8.386   9.579  0.2247 -0.2643  0.1852
  586MOL0     H80827   3.189   8.190   9.439 -1.4380  0.7572  0.4068
  586MOL0     H80828   3.157   8.342   9.333 -0.3810 -0.0398  0.6630
  586MOL0     H80829   3.190   8.353   9.500 -0.8645 -1.0570  1.2495
  586MOL0     H80830   3.323   7.884   9.084 -1.1837 -0.5723 -1.4269
  586MOL0     H80831   3.223   7.773   8.889 -1.9253 -0.1303 -1.4096
  586MOL0     H80832   3.120   7.680   8.702 -0.3571 -0.5226 -1.3538
  586MOL0     H80833   3.014   7.645   8.841  2.8405  0.4779  1.4124
  586MOL0     H80834   2.944   7.700   8.542 -1.5791 -1.3890 -0.7801
  586MOL0     H80835   2.965   7.545   8.615  3.4966  0.8333 -0.3669
  586MOL0     H80836   2.757   7.757   8.687  0.2010 -0.6446  0.6015
  586MOL0     H80837   2.779   7.608   8.789 -0.9721  1.4485  0.9430
  586MOL0     H80838   2.699   7.464   8.619  0.5680 -0.3303  0.7480
  586MOL0     H80839   2.696   7.587   8.505 -0.5668  3.0102  0.6654
  586MOL0     H80840   2.496   7.572   8.731  1.8064 -1.0502  0.3792
  586MOL0     H80841   2.527   7.711   8.612  2.4631  0.1796  1.6505
  586MOL0     H80842   2.458   7.421   8.566 -0.2292 -0.8818  0.3639
  586MOL0     H80843   2.475   7.548   8.433  0.8113  3.3228  0.9854
  586MOL0     H80844   2.289   7.670   8.545 -0.4503 -0.3177 -0.1211
  586MOL0     H80845   2.259   7.519   8.631 -0.0607  1.5200  0.3901
  586MOL0     H80846   2.240   7.583   8.346  0.9782 -0.6330 -0.2602
  586MOL0     H80847   2.106   7.515   8.456  0.5048  3.1913 -1.0319
  586MOL0     H80848   2.895   8.049   8.885 -0.4809  1.0088  2.9823
  586MOL0     H80849   3.035   8.191   9.024  0.7415 -0.1620 -1.5265
  586MOL0     H80850   3.592   8.313   9.126 -0.8308  3.4188 -1.0676
  586MOL0     H80851   3.695   8.461   9.302  0.5668 -0.0352 -0.0617
  586MOL0     H80852   4.336   7.772   9.850 -1.4325  1.6807 -0.1520
  586MOL0     H80853   4.206   7.606   9.704 -2.3841 -3.1019 -0.5647
  586MOL0     H80854   3.888   7.458   9.531  1.6960 -0.1170 -0.3593
  586MOL0     H80855   3.760   7.309   9.371  3.9615 -0.5598 -0.7283
  586MOL0     H80856   3.578   7.158   9.258  1.8593  1.2952  0.7065
  586MOL0     H80857   3.746   7.107   9.235 -0.6939  1.0575 -0.2034
  586MOL0     H80858   3.519   6.911   9.262  2.7040 -0.7754  4.8126
  586MOL0     H80859   3.684   6.871   9.246 -1.4225 -1.4947 -0.7806
  586MOL0     H80860   3.513   7.046   9.070  0.2256 -0.7272  1.1314
  586MOL0     H80861   3.676   6.998   9.009 -0.3859 -1.0279 -0.2176
  586MOL0     H80862   3.498   6.867   8.905 -0.7589  1.4568  0.8585
  586MOL0     H80863   3.437   6.809   9.060 -2.0813  2.4618 -0.3827
  586MOL0     H80864   3.766   6.558   8.964 -0.6087 -1.8396  2.5714
  586MOL0     H80865   3.739   7.008   9.666  0.2924 -0.3938 -0.7405
  586MOL0     H80866   3.833   7.194   9.942  2.3046  1.0851 -0.4206
  586MOL0     H80867   3.792   7.028   9.885  3.1739 -2.7340 -1.1088
  586MOL0     H80868   3.951   7.072   9.872 -0.7220 -1.5705 -3.4761
  587MOL0     O80869   2.004  10.289   4.912  0.6373  0.6464  1.1851
  587MOL0     C80870   2.106  10.338   4.886 -0.0217  0.0769 -0.8528
  587MOL0     O80871   2.182  10.383   4.980  0.5234 -0.5043  0.8539
  587MOL0     C80872   2.150  10.383   5.114  0.0657 -0.5572  1.1630
  587MOL0     C80873   2.192  10.501   5.179 -0.6860  0.0970  1.5061
  587MOL0     C80874   2.192  10.509   5.311 -0.4679  0.0731 -0.2039
  587MOL0     C80875   2.112  10.431   5.389 -0.6219  0.2184 -0.8784
  587MOL0     O80876   2.113  10.462   5.523  0.5201 -0.7645 -0.3539
  587MOL0     C80877   2.023  10.391   5.610  0.4900 -0.3879  0.0326
  587MOL0     C80878   2.037  10.433   5.759 -0.4486 -0.0392 -1.1121
  587MOL0     C80879   2.167  10.376   5.810 -0.3102  0.2520 -0.2707
  587MOL0     C80880   2.167  10.336   5.961 -0.3017  0.1024  0.1056
  587MOL0     C80881   2.121  10.453   6.043  0.1309 -0.3793 -0.4033
  587MOL0     C80882   2.167  10.430   6.192  0.1633 -0.2984 -0.5121
  587MOL0     C80883   2.303  10.472   6.211  0.3058 -0.2009  0.0754
  587MOL0     C80884   2.360  10.414   6.339 -0.7847 -0.2290 -0.8507
  587MOL0     N80885   2.422  10.275   6.321  0.8124 -0.4242  0.0759
  587MOL0     C80886   2.340  10.163   6.328  0.2501  0.1864  0.2774
  587MOL0     C80887   2.410  10.052   6.278  0.5577 -0.7843  0.0818
  587MOL0     C80888   2.365   9.913   6.260 -1.1357  0.0603 -0.1253
  587MOL0     C80889   2.357   9.842   6.389  0.0665 -0.1398  0.1030
  587MOL0     C80890   2.294   9.699   6.388 -0.0089 -0.2834  1.0869
  587MOL0     C80891   2.342   9.633   6.516  0.0372 -0.0276 -0.6793
  587MOL0     O80892   2.317   9.719   6.634 -0.0623 -0.4072 -0.5383
  587MOL0     C80893   2.187   9.727   6.694 -0.4074 -0.4835  0.4400
  587MOL0     C80894   2.072   9.681   6.639  0.5954  0.4702  0.2886
  587MOL0     C80895   1.945   9.712   6.688 -0.7858  0.4519  0.4713
  587MOL0     C80896   1.844   9.638   6.613 -0.1418 -1.3273 -0.2068
  587MOL0     C80897   1.933   9.798   6.797  0.3912 -0.0676  0.1011
  587MOL0     C80898   1.802   9.828   6.868 -0.3700  0.7180  1.1569
  587MOL0     O80899   1.794   9.927   6.972 -0.1319 -0.9188  0.2954
  587MOL0     C80900   1.676   9.975   7.017  0.3111 -0.2167  0.6157
  587MOL0     C80901   1.557   9.997   6.940  0.7774  0.4740 -1.0372
  587MOL0     C80902   1.450  10.067   7.002 -1.1766 -0.6123 -0.4418
  587MOL0     C80903   1.457  10.115   7.128 -0.0213  0.4503 -0.5339
  587MOL0     O80904   1.343  10.186   7.176  0.2197 -0.6384  0.1377
  587MOL0     C80905   1.367  10.283   7.274  0.7326 -0.0691  0.5834
  587MOL0     C80906   1.263  10.397   7.253 -0.0435 -0.7341 -1.4763
  587MOL0     C80907   1.123  10.360   7.283  0.2792  0.3724  0.2957
  587MOL0     C80908   1.033  10.460   7.221  1.5295 -0.4340  0.6157
  587MOL0     C80909   0.901  10.510   7.284  0.8241  0.1951 -0.3013
  587MOL0     C80910   0.787  10.402   7.282 -1.1411  0.2632  0.6068
  587MOL0     C80911   0.667  10.467   7.343 -0.4846 -0.4241  0.1503
  587MOL0     C80912   0.556  10.354   7.351  0.7525 -0.7999  0.3810
  587MOL0    Cl80913   0.610  10.190   7.367  0.0106  0.0929 -0.0623
  587MOL0     C80914   1.568  10.082   7.205 -0.3291  0.3182  0.8190
  587MOL0     C80915   1.684  10.019   7.145 -0.4146  0.1251  0.3896
  587MOL0     O80916   1.707   9.757   6.833  0.1204  0.0812  1.2249
  587MOL0     C80917   2.042   9.852   6.856 -0.9671 -0.2596 -0.7115
  587MOL0     C80918   2.178   9.827   6.801  0.5911  0.0280 -0.3595
  587MOL0     N80919   2.528  10.106   6.239 -0.3514  0.4556 -0.2540
  587MOL0     N80920   2.538  10.232   6.266 -0.1802 -0.4007 -0.7069
  587MOL0     C80921   2.054  10.320   5.323 -0.2108 -0.2347 -0.3372
  587MOL0     C80922   2.077  10.292   5.188 -0.0300 -1.0887  0.6046
  587MOL0     C80923   2.146  10.350   4.743  0.3112  0.1720 -0.0545
  587MOL0     C80924   2.138  10.233   4.675 -0.1361  0.8725 -1.1315
  587MOL0     C80925   2.188  10.221   4.553  0.4114  0.1233 -1.0011
  587MOL0     C80926   2.227  10.333   4.486 -0.0506  0.6672  0.0008
  587MOL0     O80927   2.247  10.329   4.345 -0.4740 -0.6929  0.5516
  587MOL0     C80928   2.199  10.226   4.264 -0.5343  0.1396  0.1324
  587MOL0     C80929   2.056  10.197   4.265  0.8920  0.7978 -0.4956
  587MOL0     C80930   1.967  10.327   4.255 -0.6983 -1.1331 -0.8712
  587MOL0     C80931   1.827  10.281   4.244  1.0676 -0.4636  0.3972
  587MOL0     C80932   1.790  10.235   4.107  1.3310  0.1405  0.1832
  587MOL0     C80933   1.737  10.207   3.999  0.7665  0.2142 -0.8356
  587MOL0     C80934   2.233  10.455   4.553  0.1964 -0.8231  0.3016
  587MOL0     C80935   2.193  10.470   4.688 -0.1000 -0.0394  0.1006
  587MOL0     C80936   2.185  10.604   4.758 -0.1214 -0.5637 -0.1583
  587MOL0     H80937   2.247  10.569   5.115  1.8907 -1.8276  1.5287
  587MOL0     H80938   2.254  10.585   5.358  0.0653 -1.7349  2.1993
  587MOL0     H80939   2.048  10.287   5.588 -0.4540  0.0988 -4.0443
  587MOL0     H80940   1.929  10.421   5.562 -0.2661 -1.6683  0.6388
  587MOL0     H80941   2.026  10.541   5.763 -0.5610 -0.0835  0.4546
  587MOL0     H80942   1.954  10.383   5.810  1.7583 -1.2886  1.5202
  587MOL0     H80943   2.176  10.288   5.746  0.1507  1.2385 -1.6334
  587MOL0     H80944   2.247  10.447   5.786 -0.5018  0.4995 -0.1866
  587MOL0     H80945   2.099  10.251   5.969  0.2169 -0.6612 -2.4331
  587MOL0     H80946   2.270  10.304   5.981 -0.3615 -0.0508  0.1636
  587MOL0     H80947   2.012  10.453   6.052  0.0933  0.7465 -0.7649
  587MOL0     H80948   2.153  10.548   6.001 -0.4042 -0.3628 -0.7892
  587MOL0     H80949   2.104  10.485   6.262 -2.0322  1.6925 -3.7430
  587MOL0     H80950   2.150  10.326   6.218  4.1653 -1.3187 -1.3106
  587MOL0     H80951   2.306  10.580   6.228  1.4312 -0.0069 -1.1969
  587MOL0     H80952   2.374  10.446   6.133  1.0457 -3.7833  1.7246
  587MOL0     H80953   2.420  10.490   6.390 -0.3894 -1.4135  0.5048
  587MOL0     H80954   2.275  10.397   6.407 -0.4716  0.6273 -0.2234
  587MOL0     H80955   2.237  10.167   6.361 -0.0261  1.0066 -0.6429
  587MOL0     H80956   2.425   9.859   6.186  1.4294  0.1591  1.7530
  587MOL0     H80957   2.260   9.915   6.229 -1.4358 -0.7480  0.7972
  587MOL0     H80958   2.460   9.828   6.424 -1.2224  0.7295  5.1062
  587MOL0     H80959   2.303   9.907   6.458 -0.7251  3.0091 -3.2366
  587MOL0     H80960   2.186   9.707   6.370  0.4856  1.4519 -1.5418
  587MOL0     H80961   2.335   9.641   6.305 -2.7132  1.5795 -1.7525
  587MOL0     H80962   2.303   9.531   6.524  1.7222 -0.5875  0.8331
  587MOL0     H80963   2.449   9.613   6.509 -0.0506 -0.4367 -0.8931
  587MOL0     H80964   2.085   9.612   6.556 -0.7939  1.3512 -0.7242
  587MOL0     H80965   1.851   9.644   6.504 -0.4237  3.0715 -0.1618
  587MOL0     H80966   1.742   9.677   6.610  1.2198  2.8045  0.7808
  587MOL0     H80967   1.845   9.533   6.644  1.1612 -1.0909  0.6190
  587MOL0     H80968   1.558   9.969   6.835  0.6352 -0.0086 -0.9078
  587MOL0     H80969   1.364  10.096   6.942  0.6177 -1.9571 -3.9161
  587MOL0     H80970   1.345  10.230   7.367  0.2574  1.2778  1.2670
  587MOL0     H80971   1.467  10.328   7.276  0.8036 -0.1239 -0.8610
  587MOL0     H80972   1.288  10.484   7.314 -0.1491 -0.2966 -2.0481
  587MOL0     H80973   1.283  10.428   7.150 -3.2322 -2.4195 -2.7394
  587MOL0     H80974   1.115  10.363   7.392  1.0840  0.6510  0.3538
  587MOL0     H80975   1.108  10.254   7.263 -0.5914 -0.0798  2.9485
  587MOL0     H80976   1.001  10.415   7.127  2.7175 -0.9475  0.4454
  587MOL0     H80977   1.095  10.548   7.200  0.7965  0.5248  2.2601
  587MOL0     H80978   0.920  10.558   7.380  2.4828  1.1229 -1.0483
  587MOL0     H80979   0.870  10.593   7.220  1.2060  2.0703  1.7968
  587MOL0     H80980   0.826  10.319   7.342 -1.3332 -0.2599  0.0234
  587MOL0     H80981   0.761  10.362   7.183 -2.0721  2.3466 -0.0333
  587MOL0     H80982   0.638  10.551   7.280  0.3563  0.6210  1.1180
  587MOL0     H80983   0.706  10.495   7.441  0.9509 -2.9336  0.3729
  587MOL0     H80984   0.505  10.359   7.254  0.7652  0.9092  0.4261
  587MOL0     H80985   0.494  10.369   7.440  3.4050  1.9875  1.9574
  587MOL0     H80986   1.558  10.110   7.309  1.8362  0.5360  1.0305
  587MOL0     H80987   1.763  10.013   7.219 -1.5559  2.5756  1.9477
  587MOL0     H80988   2.047   9.916   6.942  1.2991 -1.0518 -0.1864
  587MOL0     H80989   2.270   9.872   6.837 -0.2108  1.2578  0.2037
  587MOL0     H80990   1.985  10.252   5.373 -0.7061  0.3976 -0.1494
  587MOL0     H80991   2.017  10.219   5.133  0.2489  0.0810 -1.3601
  587MOL0     H80992   2.094  10.142   4.714 -1.8773  2.1763  0.0913
  587MOL0     H80993   2.179  10.129   4.497 -0.3939  0.1631 -0.9508
  587MOL0     H80994   2.229  10.248   4.161 -1.0269  0.5451  0.0701
  587MOL0     H80995   2.246  10.130   4.286 -2.8909 -0.8748  1.1649
  587MOL0     H80996   2.020  10.143   4.353  0.7134 -2.3127 -2.3280
  587MOL0     H80997   2.032  10.132   4.180 -0.0101 -0.6149  0.7875
  587MOL0     H80998   1.971  10.385   4.348 -2.5243  0.8629 -1.9614
  587MOL0     H80999   2.004  10.388   4.173  3.8629  3.0473  3.5961
  587MOL0     H81000   1.775  10.377   4.252 -2.3233 -2.0610 -0.7008
  587MOL0     H81001   1.780  10.210   4.313 -3.5678  1.1232 -0.7778
  587MOL0     H81002   1.689  10.197   3.904 -0.5754  0.1077 -0.1747
  587MOL0     H81003   2.251  10.542   4.491 -0.2180  2.1107  3.9162
  587MOL0     H81004   2.210  10.609   4.865  3.8748  2.9327 -1.0028
  587MOL0     H81005   2.252  10.675   4.710  0.2720 -1.4887 -1.0145
  587MOL0     H81006   2.084  10.644   4.747  0.7738  2.1966  0.8643
  588MOL0     O81007   8.274   2.213  11.342  0.3108  1.2157  0.5423
  588MOL0     C81008   8.186   2.288  11.379 -0.2908 -0.1336 -0.4895
  588MOL0     O81009   8.057   2.264  11.368  0.2517 -0.2174 -0.0666
  588MOL0     C81010   8.017   2.136  11.385 -0.2091 -0.3260 -0.2412
  588MOL0     C81011   8.090   2.028  11.449  0.7062  0.1220 -0.3543
  588MOL0     C81012   8.039   1.901  11.442 -0.3377  1.0217  0.6766
  588MOL0     C81013   7.911   1.875  11.375  0.2306  0.0987  0.1014
  588MOL0     O81014   7.867   1.746  11.350  0.3497 -0.9032 -0.0803
  588MOL0     C81015   7.973   1.657  11.311  0.0226 -1.1000 -0.6680
  588MOL0     C81016   7.911   1.539  11.250  1.0153  0.9480 -0.4563
  588MOL0     C81017   7.837   1.457  11.354 -0.0794  0.7622 -0.7517
  588MOL0     C81018   7.801   1.312  11.312 -0.4324 -0.1418  0.1044
  588MOL0     C81019   7.729   1.291  11.181 -1.2520  0.7720  0.0041
  588MOL0     C81020   7.703   1.148  11.149 -0.4385 -0.6646 -0.1957
  588MOL0     C81021   7.629   1.153  11.015 -0.8911 -0.3414  0.3688
  588MOL0     C81022   7.709   1.208  10.890 -0.5386  0.6216 -0.1341
  588MOL0     N81023   7.635   1.171  10.765 -0.0197 -0.3160  0.4742
  588MOL0     C81024   7.511   1.229  10.720 -0.3903  1.1746 -0.3529
  588MOL0     C81025   7.490   1.170  10.602 -0.8340 -0.7145  0.3656
  588MOL0     C81026   7.370   1.188  10.510  0.4017  0.0541 -0.4622
  588MOL0     C81027   7.348   1.329  10.471  0.7027 -0.0425  0.4670
  588MOL0     C81028   7.215   1.361  10.391  0.9957 -0.3029 -0.1529
  588MOL0     C81029   7.076   1.312  10.452 -0.4643 -0.2758  0.4221
  588MOL0     O81030   6.965   1.364  10.384  0.2672 -0.7015  0.6628
  588MOL0     C81031   6.836   1.322  10.403 -0.2748 -0.7437  0.2489
  588MOL0     C81032   6.804   1.218  10.487 -0.6015  1.1299  0.4055
  588MOL0     C81033   6.668   1.187  10.519  0.0670  0.8386  0.0513
  588MOL0     C81034   6.656   1.066  10.613  0.6151  0.0943  0.4613
  588MOL0     C81035   6.560   1.247  10.441 -0.2409 -0.7660  0.0546
  588MOL0     C81036   6.421   1.201  10.441  1.0787 -0.0915  0.5047
  588MOL0     O81037   6.334   1.255  10.349  0.0370 -0.5749 -0.5663
  588MOL0     C81038   6.205   1.211  10.354  0.2189  0.3526 -0.4634
  588MOL0     C81039   6.104   1.288  10.405 -0.2011  0.4161 -0.4113
  588MOL0     C81040   5.974   1.237  10.404  0.1733  0.3197  0.0743
  588MOL0     C81041   5.949   1.114  10.342 -0.4124 -0.8196  0.4489
  588MOL0     O81042   5.832   1.059  10.314  0.3845 -0.4447  0.4779
  588MOL0     C81043   5.712   1.146  10.316 -0.6238  0.5576  0.5356
  588MOL0     C81044   5.603   1.078  10.230  0.2207 -0.7258 -0.5237
  588MOL0     C81045   5.661   1.058  10.087 -0.0483  1.1741  0.5887
  588MOL0     C81046   5.557   1.012   9.979  0.4233 -0.4782  0.0749
  588MOL0     C81047   5.596   0.992   9.833 -0.3803  0.3448 -0.4260
  588MOL0     C81048   5.697   0.879   9.794 -0.5585 -1.6195 -0.2219
  588MOL0     C81049   5.661   0.733   9.818  0.0597  1.4613 -0.0291
  588MOL0     C81050   5.702   0.677   9.952  0.1290  0.0103  0.2253
  588MOL0    Cl81051   5.664   0.502   9.964  0.1340  0.0706  0.1729
  588MOL0     C81052   6.053   1.038  10.290 -0.0800  0.7270 -0.4562
  588MOL0     C81053   6.184   1.080  10.303 -0.3624 -0.3232  1.2107
  588MOL0     O81054   6.393   1.103  10.510 -0.3169  0.1404 -0.1891
  588MOL0     C81055   6.598   1.362  10.358 -0.2541  0.5357  0.0236
  588MOL0     C81056   6.726   1.392  10.340  0.0053 -0.4064 -0.2276
  588MOL0     N81057   7.599   1.090  10.568 -0.1236  0.3478 -0.5434
  588MOL0     N81058   7.680   1.098  10.665 -0.7929 -0.4941  0.8877
  588MOL0     C81059   7.830   1.989  11.338  0.3405 -0.1248  0.0744
  588MOL0     C81060   7.887   2.119  11.351 -0.5587 -0.3585 -0.1070
  588MOL0     C81061   8.227   2.425  11.425 -0.0381 -0.0864 -0.0281
  588MOL0     C81062   8.138   2.525  11.401  0.5344 -1.4150 -0.5417
  588MOL0     C81063   8.161   2.656  11.428 -0.4796 -0.2484 -0.3410
  588MOL0     C81064   8.272   2.699  11.488  0.0859 -1.0721 -0.4519
  588MOL0     O81065   8.271   2.836  11.540  0.5712  0.1820  0.7378
  588MOL0     C81066   8.365   2.871  11.643  0.9421 -0.0350 -0.3431
  588MOL0     C81067   8.487   2.940  11.578  0.7225  0.5298 -0.6389
  588MOL0     C81068   8.616   2.923  11.676  0.0834 -0.1291  0.2518
  588MOL0     C81069   8.586   2.971  11.813 -0.5833 -0.4919  0.6764
  588MOL0     C81070   8.708   2.990  11.889  0.1068 -0.4796 -0.8064
  588MOL0     C81071   8.809   3.019  11.946 -0.5976 -0.4913  0.5616
  588MOL0     C81072   8.375   2.607  11.514  0.2111  0.4418  1.0164
  588MOL0     C81073   8.358   2.471  11.476  1.2844 -0.9972 -0.0676
  588MOL0     C81074   8.455   2.365  11.512 -0.6967 -0.1343 -0.3627
  588MOL0     H81075   8.180   2.034  11.509  0.6939 -1.5389 -0.1261
  588MOL0     H81076   8.086   1.819  11.495 -0.8967 -0.3392 -0.8452
  588MOL0     H81077   8.022   1.634  11.406  0.5249  3.0878  0.2730
  588MOL0     H81078   8.045   1.703  11.243 -0.7182  0.8698 -0.1896
  588MOL0     H81079   7.837   1.564  11.174  0.2278 -2.9284 -1.1489
  588MOL0     H81080   7.989   1.484  11.197 -0.5864 -1.9035 -0.0547
  588MOL0     H81081   7.896   1.453  11.446 -0.5746  1.0533 -0.4139
  588MOL0     H81082   7.744   1.513  11.370 -0.5906  0.3513 -2.1335
  588MOL0     H81083   7.902   1.269  11.315  0.0003  0.9001  0.8250
  588MOL0     H81084   7.740   1.263  11.388 -2.2985 -2.6612 -2.7934
  588MOL0     H81085   7.793   1.339  11.106 -2.3399  0.3929 -1.1935
  588MOL0     H81086   7.638   1.351  11.189  1.2757  5.4064 -1.9123
  588MOL0     H81087   7.791   1.083  11.150 -2.0653 -3.3932  5.1003
  588MOL0     H81088   7.642   1.088  11.219  0.9632 -0.7393  1.0020
  588MOL0     H81089   7.542   1.217  11.034 -1.9157 -1.1043 -1.5008
  588MOL0     H81090   7.601   1.049  10.996  1.5447 -0.7606 -1.3328
  588MOL0     H81091   7.706   1.317  10.900 -2.1686  0.6405 -0.7039
  588MOL0     H81092   7.810   1.167  10.901 -0.5252  0.9369  1.1437
  588MOL0     H81093   7.452   1.291  10.786  1.3097  0.0527  2.4046
  588MOL0     H81094   7.285   1.155  10.571  1.8594  0.5525  1.9848
  588MOL0     H81095   7.381   1.119  10.425 -0.1775  1.4617 -1.7246
  588MOL0     H81096   7.367   1.394  10.556  2.9352  2.9842 -2.0915
  588MOL0     H81097   7.435   1.343  10.405  0.2927 -0.3001 -0.1399
  588MOL0     H81098   7.216   1.470  10.394  3.3445 -0.1468 -2.8358
  588MOL0     H81099   7.245   1.333  10.290  2.8503 -0.8727  0.5076
  588MOL0     H81100   7.093   1.204  10.452  0.9315 -0.0890 -0.5253
  588MOL0     H81101   7.065   1.341  10.557  0.0971 -3.1830  1.3722
  588MOL0     H81102   6.891   1.164  10.523 -0.9460 -0.7982 -1.4428
  588MOL0     H81103   6.744   1.054  10.676  1.1442  0.7397 -0.1425
  588MOL0     H81104   6.646   0.972  10.558  3.0718 -0.4659  0.8461
  588MOL0     H81105   6.568   1.076  10.676  0.1759  0.1779 -0.1530
  588MOL0     H81106   6.131   1.387  10.442  3.0966 -0.6133  0.2515
  588MOL0     H81107   5.903   1.301  10.455 -0.0350  0.5898 -0.5476
  588MOL0     H81108   5.668   1.167  10.414  1.2566 -4.0928  2.6363
  588MOL0     H81109   5.735   1.239  10.262 -1.5682  1.5773  1.8286
  588MOL0     H81110   5.587   0.977  10.268 -0.3263 -0.5911 -0.3835
  588MOL0     H81111   5.507   1.132  10.229 -0.5508 -2.0394 -2.1092
  588MOL0     H81112   5.737   0.980  10.088 -0.4994  0.7395  1.5833
  588MOL0     H81113   5.706   1.143  10.035  0.2981 -0.7721 -2.5495
  588MOL0     H81114   5.492   1.099   9.987  0.7528 -0.2913  0.8447
  588MOL0     H81115   5.508   0.921  10.016 -2.5478  1.2400  0.6325
  588MOL0     H81116   5.509   0.969   9.771  0.6673 -3.4642 -0.7499
  588MOL0     H81117   5.645   1.083   9.800  1.6421  0.0560  1.5211
  588MOL0     H81118   5.786   0.900   9.855 -0.3522 -3.3045  0.1068
  588MOL0     H81119   5.733   0.899   9.693  2.1637  1.1639  1.1359
  588MOL0     H81120   5.699   0.669   9.738  0.2327  0.5044  0.7868
  588MOL0     H81121   5.553   0.718   9.821  0.2200  0.0264 -0.7677
  588MOL0     H81122   5.660   0.725  10.041  0.4251 -2.3231  1.7201
  588MOL0     H81123   5.808   0.706   9.953 -0.1309  0.9870  0.8307
  588MOL0     H81124   6.033   0.941  10.246  0.5143 -1.0605  2.9159
  588MOL0     H81125   6.262   1.013  10.268  0.1571  1.4049 -1.2368
  588MOL0     H81126   6.533   1.410  10.286  1.3290  0.9218 -1.1972
  588MOL0     H81127   6.751   1.473  10.273 -0.7643  1.2051  1.3465
  588MOL0     H81128   7.728   1.981  11.303 -0.1567  1.2811  1.1181
  588MOL0     H81129   7.827   2.205  11.323 -1.5410 -0.4215  1.6509
  588MOL0     H81130   8.043   2.490  11.362 -1.0857 -3.0156  4.2312
  588MOL0     H81131   8.072   2.716  11.417 -1.3312 -1.6316 -1.2294
  588MOL0     H81132   8.307   2.940  11.706 -1.4156 -0.6259 -1.7609
  588MOL0     H81133   8.384   2.780  11.701 -2.0630 -0.1931  0.5813
  588MOL0     H81134   8.467   3.042  11.546 -1.5294  1.0509  2.0069
  588MOL0     H81135   8.501   2.891  11.481 -1.2472  0.5153 -0.9571
  588MOL0     H81136   8.649   2.819  11.673  0.5099  0.0180 -0.5206
  588MOL0     H81137   8.698   2.980  11.630  0.2567  1.4557  2.3572
  588MOL0     H81138   8.523   2.894  11.859  0.9846 -1.6454  0.9505
  588MOL0     H81139   8.541   3.071  11.808 -1.4115 -0.8847  0.0962
  588MOL0     H81140   8.908   3.047  11.976 -1.2660  1.6989  0.8914
  588MOL0     H81141   8.472   2.622  11.560  0.4448 -1.9980  1.4732
  588MOL0     H81142   8.491   2.307  11.427 -0.7888 -1.8619  0.7366
  588MOL0     H81143   8.546   2.410  11.553 -1.8235  0.4005  1.7469
  588MOL0     H81144   8.422   2.295  11.590 -1.1601  1.1194  0.6068
  589MOL0     O81145   6.698   4.987   8.406  0.1792  0.5403  0.4514
  589MOL0     C81146   6.797   5.061   8.415 -0.1450  0.5202  0.1409
  589MOL0     O81147   6.851   5.113   8.538 -1.1883  0.0493 -0.0794
  589MOL0     C81148   6.825   5.025   8.640  0.0426  0.0725 -0.8624
  589MOL0     C81149   6.902   4.909   8.655  0.1110 -0.7455 -0.6057
  589MOL0     C81150   6.876   4.809   8.744 -0.3336  0.6133 -0.8864
  589MOL0     C81151   6.763   4.818   8.835  0.0882  0.0452  1.0663
  589MOL0     O81152   6.722   4.729   8.929  0.3698 -0.0502 -0.4080
  589MOL0     C81153   6.807   4.617   8.946 -0.0163  0.6170 -0.8847
  589MOL0     C81154   6.922   4.631   9.044  0.2315  0.3467  0.0036
  589MOL0     C81155   6.898   4.725   9.156  0.1831 -0.4199 -0.7826
  589MOL0     C81156   7.012   4.730   9.255  0.3019  0.0976 -0.5128
  589MOL0     C81157   7.007   4.854   9.346  0.4288  0.3826  0.1579
  589MOL0     C81158   6.869   4.871   9.412  0.2919 -0.0879 -1.2454
  589MOL0     C81159   6.889   4.966   9.533  0.1214 -1.0642 -1.4105
  589MOL0     C81160   6.905   5.108   9.479 -1.2298  0.7561 -0.2267
  589MOL0     N81161   6.896   5.211   9.584  0.2203 -0.5679  0.4449
  589MOL0     C81162   6.999   5.240   9.666  0.4659 -0.5626  0.1330
  589MOL0     C81163   6.971   5.361   9.724 -0.5882  0.3200 -0.7589
  589MOL0     C81164   7.053   5.429   9.835 -0.1753  0.6850  0.4626
  589MOL0     C81165   6.991   5.548   9.902 -0.0502  0.1012 -0.1474
  589MOL0     C81166   6.962   5.667   9.812 -0.2947  0.9500 -0.3106
  589MOL0     C81167   6.910   5.793   9.886  0.4006 -0.6819 -0.6376
  589MOL0     O81168   7.019   5.855   9.965  0.7864 -0.2916  0.4773
  589MOL0     C81169   6.993   5.901  10.092 -0.1802  0.9651  0.1203
  589MOL0     C81170   7.101   5.921  10.174 -0.4590 -0.3709 -0.8032
  589MOL0     C81171   7.088   5.963  10.304  0.1180 -0.1565  0.6993
  589MOL0     C81172   7.214   5.971  10.388  0.7397 -0.3346  0.2800
  589MOL0     C81173   6.958   5.993  10.362  0.3326  0.2158  0.8727
  589MOL0     C81174   6.932   6.026  10.508 -0.2628 -0.1572 -0.0138
  589MOL0     O81175   6.810   6.001  10.546 -0.0563 -0.3513 -0.3178
  589MOL0     C81176   6.784   6.011  10.675  0.4119 -0.9988 -0.0026
  589MOL0     C81177   6.691   6.105  10.715  0.3111 -0.6019  0.1040
  589MOL0     C81178   6.659   6.123  10.849  1.0686 -0.2884  0.0765
  589MOL0     C81179   6.732   6.050  10.952 -0.2917 -0.0368 -0.0220
  589MOL0     O81180   6.724   6.058  11.090  0.6557 -0.4935 -0.7911
  589MOL0     C81181   6.584   6.054  11.143 -0.7206  0.5095 -0.6790
  589MOL0     C81182   6.560   6.196  11.205 -0.0120  0.3996 -0.2462
  589MOL0     C81183   6.426   6.210  11.285 -0.1151  0.4172 -0.2992
  589MOL0     C81184   6.409   6.107  11.406 -0.5541 -0.4628  0.5418
  589MOL0     C81185   6.277   6.131  11.468 -0.9356 -0.5912 -0.1690
  589MOL0     C81186   6.152   6.071  11.396 -0.1086  0.1723  0.5460
  589MOL0     C81187   6.025   6.138  11.434  0.3726 -0.3762 -0.0273
  589MOL0     C81188   5.951   6.087  11.565 -0.3547 -0.5296  0.8638
  589MOL0    Cl81189   5.795   6.173  11.574  0.0417  0.3391  0.5544
  589MOL0     C81190   6.834   5.975  10.912  0.1445  1.0679  0.3915
  589MOL0     C81191   6.861   5.944  10.779  0.6913 -0.5404  0.0691
  589MOL0     O81192   7.015   6.079  10.579 -0.7672 -0.4058  1.2301
  589MOL0     C81193   6.851   5.972  10.272  0.9332  0.0073 -0.6450
  589MOL0     C81194   6.874   5.935  10.147 -0.3656  0.3893  0.4806
  589MOL0     N81195   6.848   5.403   9.672  0.6206  0.0621  0.5843
  589MOL0     N81196   6.799   5.316   9.592 -1.6521 -0.3856  0.0897
  589MOL0     C81197   6.687   4.939   8.824  0.8337  0.3000  0.1949
  589MOL0     C81198   6.715   5.034   8.727 -0.3800 -0.1715  1.0318
  589MOL0     C81199   6.858   5.105   8.294 -0.7123 -0.0937 -0.6566
  589MOL0     C81200   6.865   5.245   8.275 -0.0590  0.2074 -0.2298
  589MOL0     C81201   6.929   5.291   8.159  0.7807 -0.1627 -0.2891
  589MOL0     C81202   6.976   5.215   8.056 -0.7232 -0.4377 -0.9047
  589MOL0     O81203   7.037   5.253   7.940  0.1704 -1.0598 -0.9633
  589MOL0     C81204   6.999   5.379   7.890  0.5282 -0.1194  0.2800
  589MOL0     C81205   6.874   5.351   7.802 -0.6252 -0.4808  0.6807
  589MOL0     C81206   6.821   5.476   7.716  0.1301  0.6962 -0.3865
  589MOL0     C81207   6.711   5.561   7.789 -0.0821  0.8043 -0.9358
  589MOL0     C81208   6.745   5.594   7.927  0.6087 -0.0820  0.2700
  589MOL0     C81209   6.763   5.590   8.045 -0.0888 -0.1220  0.0858
  589MOL0     C81210   6.950   5.078   8.076  0.1763  0.7141  0.7158
  589MOL0     C81211   6.901   5.023   8.193  0.2008  0.3275  0.5256
  589MOL0     C81212   6.893   4.870   8.199 -0.4006  0.2076  0.3694
  589MOL0     H81213   6.982   4.907   8.581  2.0492 -0.1768  1.3832
  589MOL0     H81214   6.943   4.723   8.741 -1.4822 -0.5738  2.7101
  589MOL0     H81215   6.831   4.570   8.850  2.7780 -1.0711  0.5186
  589MOL0     H81216   6.740   4.540   8.987  2.9844  0.0142  3.4730
  589MOL0     H81217   6.947   4.530   9.078 -3.2467 -0.3710  0.8278
  589MOL0     H81218   7.008   4.670   8.989  2.6632 -5.0929 -0.7441
  589MOL0     H81219   6.885   4.824   9.110  0.9153 -0.2483 -0.6408
  589MOL0     H81220   6.811   4.679   9.203  2.1447 -3.0925  0.4845
  589MOL0     H81221   7.008   4.642   9.321  0.5484  1.8245  1.9670
  589MOL0     H81222   7.109   4.723   9.204 -0.9568 -1.5106 -2.8972
  589MOL0     H81223   7.031   4.945   9.290 -1.7697  0.8043 -0.1999
  589MOL0     H81224   7.084   4.833   9.421 -2.0962 -3.0567  2.0722
  589MOL0     H81225   6.788   4.899   9.344  1.0623  1.3012 -1.6270
  589MOL0     H81226   6.857   4.771   9.456  4.3494  0.8628  2.8147
  589MOL0     H81227   6.982   4.942   9.585 -0.8831 -1.2793  0.3719
  589MOL0     H81228   6.807   4.963   9.605  3.5700 -2.6152  2.9345
  589MOL0     H81229   7.004   5.119   9.434 -0.8743 -0.4169  0.2153
  589MOL0     H81230   6.832   5.123   9.399  0.0283 -0.3793 -1.6443
  589MOL0     H81231   7.089   5.181   9.679  0.4667 -0.3999  0.8839
  589MOL0     H81232   7.154   5.448   9.799  0.3513  0.7264  1.9056
  589MOL0     H81233   7.067   5.360   9.919 -4.6023 -0.4545  0.5214
  589MOL0     H81234   6.895   5.519   9.946  1.3144 -0.1978  2.9116
  589MOL0     H81235   7.066   5.589   9.971 -1.5435  0.5989  1.2464
  589MOL0     H81236   7.051   5.691   9.753 -1.8423  5.0944 -1.3107
  589MOL0     H81237   6.880   5.643   9.743  0.8526  1.0456 -1.7651
  589MOL0     H81238   6.865   5.871   9.824 -0.0651 -0.0302  0.4887
  589MOL0     H81239   6.827   5.760   9.948 -0.4747 -3.2453 -2.9461
  589MOL0     H81240   7.201   5.901  10.137  0.8898 -0.7285  2.6884
  589MOL0     H81241   7.236   6.078  10.399  0.2268 -0.3301  1.3772
  589MOL0     H81242   7.300   5.918  10.347  0.3190 -1.9857  1.4473
  589MOL0     H81243   7.195   5.936  10.490  3.2955  1.5613  1.5448
  589MOL0     H81244   6.649   6.169  10.638  3.0285 -0.5146 -1.4332
  589MOL0     H81245   6.578   6.184  10.887  1.2941 -0.0911  0.2456
  589MOL0     H81246   6.506   6.028  11.071 -1.5025 -1.3599  0.7520
  589MOL0     H81247   6.572   5.980  11.223 -0.6489 -0.6684 -1.7198
  589MOL0     H81248   6.639   6.203  11.280 -0.6009 -0.5494  0.4996
  589MOL0     H81249   6.564   6.280  11.135 -1.0154  1.2689  0.7012
  589MOL0     H81250   6.351   6.195  11.207  2.5204 -1.3835 -2.7431
  589MOL0     H81251   6.425   6.313  11.322  0.8282  0.2354  0.2690
  589MOL0     H81252   6.481   6.119  11.487 -0.1954  0.2405  0.1213
  589MOL0     H81253   6.413   6.005  11.366  3.4805 -1.9580  3.9817
  589MOL0     H81254   6.279   6.097  11.572 -1.0752 -2.5973 -0.7885
  589MOL0     H81255   6.256   6.239  11.468 -0.6569 -0.5245 -1.3580
  589MOL0     H81256   6.133   5.965  11.417 -3.4593  0.7825  1.0939
  589MOL0     H81257   6.175   6.082  11.289 -2.6494  0.7988  0.0039
  589MOL0     H81258   5.963   6.099  11.352  1.7474 -1.5752 -0.5421
  589MOL0     H81259   6.036   6.247  11.441  4.9938 -0.5163 -1.9685
  589MOL0     H81260   6.003   6.118  11.656 -0.3197 -0.0084  0.6661
  589MOL0     H81261   5.939   5.978  11.569 -0.5615 -0.5592 -0.3454
  589MOL0     H81262   6.891   5.924  10.988 -1.9586 -1.2091  0.5754
  589MOL0     H81263   6.935   5.867  10.762 -1.4056 -2.4185 -0.9632
  589MOL0     H81264   6.748   5.983  10.304  0.9394 -0.8313 -0.2903
  589MOL0     H81265   6.784   5.930  10.088  0.1933 -0.8883 -0.3131
  589MOL0     H81266   6.596   4.952   8.881  0.3940 -2.1037  0.1690
  589MOL0     H81267   6.650   5.121   8.724  0.7276  0.7416 -3.0567
  589MOL0     H81268   6.799   5.314   8.326 -1.8584 -0.4983 -1.4888
  589MOL0     H81269   6.942   5.397   8.142  1.4995 -0.4327 -1.5876
  589MOL0     H81270   6.984   5.464   7.957  1.7146  0.9058 -0.7017
  589MOL0     H81271   7.078   5.405   7.820  1.3302 -2.5390  0.1948
  589MOL0     H81272   6.792   5.315   7.865  1.3498 -0.9955  3.0931
  589MOL0     H81273   6.903   5.267   7.738 -0.1363  0.8894 -0.9789
  589MOL0     H81274   6.895   5.553   7.693 -0.1491  1.8099  2.0394
  589MOL0     H81275   6.782   5.429   7.625 -1.1371  0.5535  0.2014
  589MOL0     H81276   6.620   5.501   7.797  0.8083 -0.3185  3.6243
  589MOL0     H81277   6.685   5.649   7.728  1.4554  1.2334 -0.9997
  589MOL0     H81278   6.783   5.555   8.143  0.0977 -1.7308 -0.5050
  589MOL0     H81279   6.998   5.025   7.994 -1.1090 -1.1383  1.1000
  589MOL0     H81280   6.975   4.825   8.143  0.6597  2.0305  0.3837
  589MOL0     H81281   6.896   4.835   8.303 -2.1160 -0.0705  0.3604
  589MOL0     H81282   6.795   4.826   8.178 -0.5117  1.1740 -1.2761
  590MOL0     O81283   6.575   5.177   0.249  0.3823  0.7359 -0.5941
  590MOL0     C81284   6.458   5.145   0.262  0.0041 -0.1284 -0.5009
  590MOL0     O81285   6.393   5.056   0.187  0.2408 -0.1050 -0.0924
  590MOL0     C81286   6.463   4.983   0.097 -0.3542 -0.6290 -0.4045
  590MOL0     C81287   6.529   5.036  -0.013  0.5013 -0.9139  0.6144
  590MOL0     C81288   6.606   4.952  -0.098  0.1106  0.3371 -0.5066
  590MOL0     C81289   6.613   4.815  -0.064 -0.0309  0.2929  1.0370
  590MOL0     O81290   6.705   4.734  -0.128 -0.2408  0.7523 -0.7824
  590MOL0     C81291   6.681   4.703  -0.263 -0.0170 -0.0855  0.9344
  590MOL0     C81292   6.579   4.587  -0.293  0.4348 -0.3261 -0.2086
  590MOL0     C81293   6.643   4.460  -0.246 -0.1575  0.4791 -0.1402
  590MOL0     C81294   6.560   4.342  -0.290 -0.7808 -0.1893  0.5362
  590MOL0     C81295   6.453   4.293  -0.190  0.3451 -0.8504 -0.0401
  590MOL0     C81296   6.498   4.216  -0.068  0.6943 -0.5397 -0.2078
  590MOL0     C81297   6.384   4.154   0.019 -0.0608 -0.4909 -1.2283
  590MOL0     C81298   6.300   4.049  -0.045 -0.7726  0.6036 -0.6475
  590MOL0     N81299   6.217   3.987   0.052 -0.0533  0.2718 -1.1648
  590MOL0     C81300   6.083   4.008   0.061 -0.4365 -0.2604 -1.1595
  590MOL0     C81301   6.040   3.941   0.177  0.1609 -0.1230 -0.0591
  590MOL0     C81302   5.905   3.928   0.238 -1.0157  0.4002 -0.1249
  590MOL0     C81303   5.848   3.787   0.208  0.2990  0.4209 -0.0232
  590MOL0     C81304   5.806   3.770   0.056  0.4678  0.6767 -0.0449
  590MOL0     C81305   5.775   3.621   0.016  0.1964 -0.1349 -0.9218
  590MOL0     O81306   5.716   3.624  -0.115  0.1721 -0.2878 -0.4006
  590MOL0     C81307   5.665   3.513  -0.173 -0.2899 -0.7398 -0.0792
  590MOL0     C81308   5.635   3.530  -0.308 -0.6885 -0.0288 -0.3667
  590MOL0     C81309   5.577   3.424  -0.385 -0.1741 -0.0462 -1.0637
  590MOL0     C81310   5.539   3.463  -0.526 -0.2446  0.4478  0.0712
  590MOL0     C81311   5.565   3.295  -0.326  0.8552 -0.4557  0.5918
  590MOL0     C81312   5.523   3.183  -0.415 -0.3018 -0.1862 -0.0659
  590MOL0     O81313   5.597   3.186  -0.533  0.8804  0.6859  0.2021
  590MOL0     C81314   5.585   3.093  -0.637 -0.3375 -0.1861 -0.5750
  590MOL0     C81315   5.698   3.066  -0.715 -0.1468  0.5055 -0.8728
  590MOL0     C81316   5.682   2.990  -0.830 -0.3455 -0.0818 -0.8591
  590MOL0     C81317   5.567   2.934  -0.872  0.4272  0.2594 -0.1903
  590MOL0     O81318   5.546   2.874  -0.997  0.0475 -0.3211  0.3065
  590MOL0     C81319   5.653   2.880  -1.101 -0.5113 -0.3826  0.0992
  590MOL0     C81320   5.620   2.799  -1.227  0.5644 -0.0494 -0.1796
  590MOL0     C81321   5.515   2.871  -1.313 -0.0385 -0.6568 -0.2716
  590MOL0     C81322   5.478   2.770  -1.433  0.2877 -1.2670 -0.2511
  590MOL0     C81323   5.386   2.853  -1.519  0.1343 -0.3246  0.2674
  590MOL0     C81324   5.332   2.787  -1.649  0.5602 -0.0252  1.0635
  590MOL0     C81325   5.213   2.857  -1.714 -0.0843 -0.5775  0.3056
  590MOL0     C81326   5.228   3.004  -1.740 -0.4397  0.1999 -0.5876
  590MOL0    Cl81327   5.372   3.043  -1.838  0.4453 -0.3601 -0.0242
  590MOL0     C81328   5.446   2.966  -0.799 -0.5964 -0.7136 -0.2072
  590MOL0     C81329   5.457   3.038  -0.683  0.0446 -1.0958  0.1351
  590MOL0     O81330   5.424   3.118  -0.384  0.4344  0.7066 -0.7962
  590MOL0     C81331   5.585   3.287  -0.185 -1.1979  1.2928  0.2492
  590MOL0     C81332   5.641   3.395  -0.108  0.2430  0.5647 -0.0052
  590MOL0     N81333   6.153   3.886   0.234  0.0522 -0.5479  0.4556
  590MOL0     N81334   6.254   3.906   0.164 -0.6053 -0.4802  0.7948
  590MOL0     C81335   6.531   4.762   0.027 -0.2890  0.6432 -0.6848
  590MOL0     C81336   6.455   4.855   0.107  0.4566 -0.3662  0.2805
  590MOL0     C81337   6.377   5.239   0.347 -0.0093 -0.0438 -0.1026
  590MOL0     C81338   6.443   5.363   0.377  0.1761 -0.0527  0.1971
  590MOL0     C81339   6.376   5.448   0.459 -0.0467  0.1088  0.2403
  590MOL0     C81340   6.256   5.416   0.521  0.0446 -0.2368  0.7074
  590MOL0     O81341   6.204   5.498   0.619 -0.9173  0.0449 -0.2712
  590MOL0     C81342   6.260   5.625   0.651 -0.2805 -0.2040 -1.0542
  590MOL0     C81343   6.163   5.693   0.752  0.4089 -0.4481 -0.3222
  590MOL0     C81344   6.231   5.813   0.825 -0.2883  0.2401  0.8516
  590MOL0     C81345   6.285   5.928   0.729 -0.4735 -0.2745  0.0078
  590MOL0     C81346   6.411   5.909   0.642  0.4588 -0.1241  0.4321
  590MOL0     C81347   6.512   5.906   0.578  0.0054 -0.1706  0.2847
  590MOL0     C81348   6.187   5.309   0.475  0.4512  0.1623  0.4931
  590MOL0     C81349   6.243   5.217   0.391  0.8649  0.7276 -0.6047
  590MOL0     C81350   6.163   5.087   0.373  0.0617 -0.5096 -0.2587
  590MOL0     H81351   6.515   5.142  -0.033 -2.1451 -0.7759  2.6272
  590MOL0     H81352   6.673   4.994  -0.172 -0.3174  1.2314 -0.3969
  590MOL0     H81353   6.772   4.680  -0.319 -1.6701 -1.5771 -1.3292
  590MOL0     H81354   6.660   4.798  -0.313 -0.4061 -0.7156 -0.1545
  590MOL0     H81355   6.483   4.609  -0.245  0.2134  1.2061 -1.2697
  590MOL0     H81356   6.555   4.581  -0.399 -0.8699  2.0842 -0.1324
  590MOL0     H81357   6.735   4.434  -0.300 -0.3572 -2.5788  0.7948
  590MOL0     H81358   6.668   4.456  -0.139 -0.2081  2.0275 -0.0511
  590MOL0     H81359   6.510   4.359  -0.386  0.6712 -1.9376 -0.6186
  590MOL0     H81360   6.621   4.252  -0.302  0.2550  0.5232  0.3366
  590MOL0     H81361   6.381   4.243  -0.254  0.5874  0.3710 -1.3013
  590MOL0     H81362   6.407   4.382  -0.145 -1.4074 -2.4820  1.5875
  590MOL0     H81363   6.555   4.133  -0.111 -1.5564 -1.4882 -1.5195
  590MOL0     H81364   6.572   4.276  -0.014  0.4153 -0.2515 -0.1390
  590MOL0     H81365   6.311   4.232   0.041 -0.4312 -1.3060  0.5961
  590MOL0     H81366   6.418   4.131   0.120  1.1059  0.4115 -1.3935
  590MOL0     H81367   6.238   4.105  -0.116 -0.2504  1.6452 -0.3079
  590MOL0     H81368   6.376   3.984  -0.090  0.1784  2.1089 -1.2972
  590MOL0     H81369   6.018   4.060  -0.009  0.1851  0.5443 -1.1501
  590MOL0     H81370   5.841   4.014   0.217  0.8569  2.5111  2.1744
  590MOL0     H81371   5.917   3.937   0.346  2.2568 -2.3999 -0.0593
  590MOL0     H81372   5.922   3.711   0.231 -0.5734  0.0335  1.6974
  590MOL0     H81373   5.753   3.773   0.262 -1.1164 -0.1741 -2.5190
  590MOL0     H81374   5.715   3.827   0.032 -0.1942 -0.6711 -0.9052
  590MOL0     H81375   5.881   3.806  -0.015  0.1883 -0.8094 -1.1649
  590MOL0     H81376   5.861   3.554   0.019 -0.4938 -1.0258  1.5735
  590MOL0     H81377   5.713   3.580   0.097 -0.9955  0.8241 -1.3218
  590MOL0     H81378   5.639   3.629  -0.352  0.8527  0.8881  1.7163
  590MOL0     H81379   5.600   3.420  -0.605 -2.1617 -2.4734  0.0217
  590MOL0     H81380   5.535   3.572  -0.532 -2.4483  0.3129 -2.5551
  590MOL0     H81381   5.439   3.426  -0.551 -0.6864  2.3722 -1.2492
  590MOL0     H81382   5.796   3.100  -0.683  0.7647 -0.2144 -2.7495
  590MOL0     H81383   5.768   2.979  -0.895  1.5369 -0.3108  1.5516
  590MOL0     H81384   5.667   2.985  -1.125  0.6543 -0.6229 -0.3592
  590MOL0     H81385   5.751   2.837  -1.077 -0.2786 -0.2521 -0.6037
  590MOL0     H81386   5.710   2.773  -1.283  0.9350 -2.1387  1.2895
  590MOL0     H81387   5.584   2.698  -1.207 -0.1934  0.1883 -0.3061
  590MOL0     H81388   5.548   2.967  -1.353 -0.3774 -1.5679 -2.9105
  590MOL0     H81389   5.420   2.887  -1.260 -0.4245  1.5466 -1.4998
  590MOL0     H81390   5.425   2.686  -1.388 -3.8196  2.1903  2.1779
  590MOL0     H81391   5.572   2.741  -1.482  2.3846  1.1648  1.9815
  590MOL0     H81392   5.300   2.878  -1.457  1.5780  0.6682  1.9690
  590MOL0     H81393   5.428   2.949  -1.549 -0.5091 -0.7436 -2.1443
  590MOL0     H81394   5.305   2.682  -1.633 -1.8161  0.4157  0.4009
  590MOL0     H81395   5.412   2.784  -1.724 -2.4061  1.9181 -2.5172
  590MOL0     H81396   5.119   2.838  -1.660 -0.6769  0.2678 -0.3984
  590MOL0     H81397   5.198   2.810  -1.811  0.5698  0.9707 -0.5718
  590MOL0     H81398   5.230   3.069  -1.652  0.8767  0.2467 -0.6336
  590MOL0     H81399   5.133   3.027  -1.790 -2.5245 -3.1968  1.4017
  590MOL0     H81400   5.348   2.931  -0.829 -0.1246  0.5828 -3.7403
  590MOL0     H81401   5.370   3.062  -0.623 -0.7764  2.0578 -2.1001
  590MOL0     H81402   5.556   3.190  -0.145  0.2767  1.1290  0.9981
  590MOL0     H81403   5.657   3.386  -0.001  1.0045  2.7660  0.1192
  590MOL0     H81404   6.518   4.656   0.047  1.8214  0.3155 -0.8570
  590MOL0     H81405   6.383   4.800   0.166 -0.1000 -0.9992 -0.9370
  590MOL0     H81406   6.537   5.390   0.330 -0.3158 -0.6082 -1.1731
  590MOL0     H81407   6.416   5.548   0.472  2.4293 -0.8244  0.2667
  590MOL0     H81408   6.361   5.625   0.695  0.0811  1.9601 -1.8005
  590MOL0     H81409   6.272   5.690   0.565  1.5983 -0.9645 -1.4365
  590MOL0     H81410   6.129   5.622   0.828  0.0444  1.7312  1.7072
  590MOL0     H81411   6.071   5.732   0.707  1.2700  0.7003 -1.1384
  590MOL0     H81412   6.152   5.851   0.891 -0.6210  1.1200 -0.0281
  590MOL0     H81413   6.318   5.786   0.886 -0.5042 -1.6685  0.3726
  590MOL0     H81414   6.308   6.018   0.786  0.3742  1.8934 -3.4876
  590MOL0     H81415   6.204   5.963   0.665  0.2230  1.3372 -0.0224
  590MOL0     H81416   6.601   5.900   0.518  1.6514  2.2827  2.2568
  590MOL0     H81417   6.090   5.301   0.522  0.2713  3.2399  0.8419
  590MOL0     H81418   6.167   5.043   0.473 -0.2863 -0.9899 -0.4512
  590MOL0     H81419   6.059   5.114   0.355 -0.2976 -0.4682  1.6890
  590MOL0     H81420   6.204   5.012   0.304  0.1820  1.2114 -2.1424
  591MOL0     O81421   6.559   6.915   3.853 -0.0398  0.2618 -0.4329
  591MOL0     C81422   6.485   6.828   3.896  0.8689  1.0751 -0.5210
  591MOL0     O81423   6.406   6.829   4.006  0.1780  0.5996 -0.0899
  591MOL0     C81424   6.438   6.910   4.104  0.8593  0.1198 -0.1964
  591MOL0     C81425   6.564   6.898   4.175  0.2567 -0.1257  0.2617
  591MOL0     C81426   6.592   6.989   4.290 -0.6386  0.4083  0.4406
  591MOL0     C81427   6.505   7.096   4.318  0.9739  0.6309 -0.3123
  591MOL0     O81428   6.554   7.200   4.403  0.5201 -0.3931  0.2658
  591MOL0     C81429   6.479   7.319   4.411 -0.0108 -0.0341  0.0616
  591MOL0     C81430   6.548   7.435   4.505 -0.3051  0.0927  0.1289
  591MOL0     C81431   6.583   7.365   4.639 -0.1894 -0.8707 -0.1960
  591MOL0     C81432   6.655   7.475   4.724  0.4556  0.5003 -0.4760
  591MOL0     C81433   6.627   7.453   4.884  0.9403 -0.1011  0.1181
  591MOL0     C81434   6.733   7.530   4.968  0.3894 -0.7804  0.4072
  591MOL0     C81435   6.712   7.524   5.118  0.0507  0.0491  0.0831
  591MOL0     C81436   6.816   7.598   5.198  0.5433  0.2141  0.3044
  591MOL0     N81437   6.818   7.555   5.334  0.2135 -1.2348 -0.1656
  591MOL0     C81438   6.850   7.434   5.378  0.1168  0.5489  0.1285
  591MOL0     C81439   6.843   7.443   5.514 -0.6818  0.9373 -0.7159
  591MOL0     C81440   6.888   7.337   5.611  0.0220  0.6358  0.1434
  591MOL0     C81441   7.013   7.371   5.691 -0.1497 -0.5741  0.4903
  591MOL0     C81442   7.045   7.281   5.808  0.5482  1.1331  0.6806
  591MOL0     C81443   7.168   7.322   5.888  0.5788  0.9659 -0.7483
  591MOL0     O81444   7.143   7.429   5.983 -0.1217  0.3664  0.0998
  591MOL0     C81445   7.094   7.411   6.106 -0.1139  0.3215 -0.3050
  591MOL0     C81446   7.034   7.295   6.156 -0.5429 -0.1060  0.2638
  591MOL0     C81447   6.992   7.282   6.287  0.5729 -0.5686 -0.4400
  591MOL0     C81448   6.927   7.147   6.331 -0.1273 -0.3274 -0.3444
  591MOL0     C81449   7.004   7.394   6.382  0.0762 -0.2311 -0.4583
  591MOL0     C81450   6.943   7.397   6.519 -0.4867  0.2567 -1.1289
  591MOL0     O81451   6.930   7.526   6.567 -0.2196 -0.5462 -0.1253
  591MOL0     C81452   6.843   7.551   6.668  0.5179  0.1190  0.4676
  591MOL0     C81453   6.745   7.648   6.645  0.3544 -0.1390  0.0630
  591MOL0     C81454   6.665   7.700   6.749  0.3079 -1.2277 -0.0326
  591MOL0     C81455   6.686   7.640   6.879  0.0395 -0.0796 -0.2172
  591MOL0     O81456   6.633   7.702   6.985  0.3975  0.1216  0.4012
  591MOL0     C81457   6.621   7.632   7.113 -0.9079  0.2864 -0.4278
  591MOL0     C81458   6.507   7.696   7.188 -0.6893 -0.1382 -1.0462
  591MOL0     C81459   6.551   7.830   7.239  0.6694  0.3418  0.5868
  591MOL0     C81460   6.444   7.886   7.331 -0.3186 -0.6252  0.3499
  591MOL0     C81461   6.504   8.026   7.370  0.1252 -0.4769 -0.0437
  591MOL0     C81462   6.430   8.076   7.496 -1.2510 -0.0146  0.6677
  591MOL0     C81463   6.283   8.089   7.470  0.7963  0.2507  0.2018
  591MOL0     C81464   6.218   8.174   7.586  0.6389  0.1439 -0.0812
  591MOL0    Cl81465   6.256   8.343   7.572 -0.2570 -0.2126  0.1217
  591MOL0     C81466   6.790   7.544   6.897 -0.3818  0.4296 -0.6264
  591MOL0     C81467   6.863   7.497   6.790 -0.5610 -0.5451 -0.5430
  591MOL0     O81468   6.898   7.294   6.575  0.2765 -0.6658 -1.2589
  591MOL0     C81469   7.082   7.505   6.330 -0.8658  0.2818  0.1658
  591MOL0     C81470   7.129   7.510   6.194  0.5799  0.1182 -0.1656
  591MOL0     N81471   6.815   7.572   5.541 -0.6403 -0.4974 -0.5623
  591MOL0     N81472   6.801   7.640   5.440 -0.7168  0.8214 -0.3221
  591MOL0     C81473   6.378   7.101   4.246  0.0454  0.8447 -0.4955
  591MOL0     C81474   6.343   7.008   4.146 -0.0772  0.1386  0.9668
  591MOL0     C81475   6.454   6.725   3.793  0.0320  0.2847  0.4349
  591MOL0     C81476   6.493   6.589   3.828 -0.7176  0.1176  0.4687
  591MOL0     C81477   6.478   6.482   3.735  1.0239  0.7372 -0.2595
  591MOL0     C81478   6.422   6.509   3.615  0.6525 -0.3544 -0.2352
  591MOL0     O81479   6.419   6.405   3.526  0.3540  0.2175 -0.0492
  591MOL0     C81480   6.363   6.435   3.396 -0.1151  0.6330 -0.1858
  591MOL0     C81481   6.348   6.300   3.312 -0.4584  0.1115 -0.8283
  591MOL0     C81482   6.481   6.223   3.309 -0.0439 -0.1462  0.3974
  591MOL0     C81483   6.477   6.080   3.373 -0.3553  0.1238 -0.0234
  591MOL0     C81484   6.380   5.993   3.314 -0.2806 -0.2879 -0.1614
  591MOL0     C81485   6.297   5.913   3.279  0.8480  0.2681  0.2490
  591MOL0     C81486   6.377   6.638   3.585  0.0901  0.2375  1.1310
  591MOL0     C81487   6.397   6.744   3.667  0.8768 -0.4410  0.5524
  591MOL0     C81488   6.333   6.888   3.636  0.5296  0.7790 -0.2179
  591MOL0     H81489   6.628   6.813   4.152  0.8066  0.0422  1.1381
  591MOL0     H81490   6.688   6.982   4.341 -0.0945 -1.9362 -0.7448
  591MOL0     H81491   6.374   7.307   4.440  0.1624  0.0924  0.7553
  591MOL0     H81492   6.478   7.365   4.311 -0.3271  0.0635  0.1112
  591MOL0     H81493   6.635   7.476   4.454 -1.7083  0.4954 -2.1003
  591MOL0     H81494   6.466   7.504   4.525 -0.1483 -0.4761  3.0603
  591MOL0     H81495   6.498   7.318   4.690 -2.3329  3.4350  0.6842
  591MOL0     H81496   6.647   7.283   4.605  0.7284  0.2446 -1.2289
  591MOL0     H81497   6.762   7.471   4.703 -0.1520 -0.7001 -3.9086
  591MOL0     H81498   6.614   7.575   4.703 -1.9245 -0.0982  0.8923
  591MOL0     H81499   6.630   7.350   4.921  1.1269  1.5598  5.6581
  591MOL0     H81500   6.530   7.495   4.910  1.8414  2.8810 -0.9705
  591MOL0     H81501   6.824   7.474   4.942  1.2474  0.5387  0.4487
  591MOL0     H81502   6.741   7.634   4.936 -1.0264 -0.3157  1.4464
  591MOL0     H81503   6.733   7.419   5.141  2.4538  0.7258  1.3408
  591MOL0     H81504   6.617   7.563   5.155  0.3561  1.4439 -0.5417
  591MOL0     H81505   6.911   7.580   5.148  0.6122  2.5110 -0.5011
  591MOL0     H81506   6.795   7.705   5.198 -2.2139 -0.2184 -1.8857
  591MOL0     H81507   6.866   7.350   5.311 -0.3311  0.2168  0.4285
  591MOL0     H81508   6.907   7.247   5.551 -2.2042 -1.5810  2.4741
  591MOL0     H81509   6.805   7.309   5.676 -0.3181  0.6116 -0.2932
  591MOL0     H81510   7.100   7.367   5.624 -2.0878  0.8442 -2.3298
  591MOL0     H81511   7.004   7.474   5.726  1.9913  0.6711 -2.2213
  591MOL0     H81512   6.957   7.263   5.870  1.1307 -0.2325  1.1619
  591MOL0     H81513   7.070   7.182   5.767 -0.2213  0.9933  0.5415
  591MOL0     H81514   7.191   7.226   5.935 -0.7782  1.3474  0.7707
  591MOL0     H81515   7.255   7.354   5.830  1.3988  1.9724  0.9526
  591MOL0     H81516   7.035   7.200   6.103 -1.2372  0.5993 -1.0708
  591MOL0     H81517   6.981   7.118   6.422  0.8593 -0.4695 -0.9659
  591MOL0     H81518   6.935   7.072   6.253 -0.5926 -3.3355  2.3097
  591MOL0     H81519   6.821   7.158   6.356 -1.2277 -6.6168 -0.5860
  591MOL0     H81520   6.729   7.688   6.546 -2.3090 -0.9124  0.1156
  591MOL0     H81521   6.600   7.784   6.728  1.0164 -0.9097 -1.0452
  591MOL0     H81522   6.607   7.526   7.091  1.5888 -0.2662  0.4088
  591MOL0     H81523   6.714   7.644   7.168 -2.2419  0.9522  1.7988
  591MOL0     H81524   6.422   7.720   7.124 -0.0712 -1.9606 -2.6800
  591MOL0     H81525   6.486   7.628   7.271  2.1984 -1.6856 -1.4333
  591MOL0     H81526   6.572   7.903   7.160  2.6151 -1.8695 -1.1106
  591MOL0     H81527   6.638   7.812   7.302 -0.7008 -0.4739  2.3340
  591MOL0     H81528   6.439   7.823   7.420 -0.1357 -2.6925 -1.0290
  591MOL0     H81529   6.346   7.892   7.283 -0.4693  1.5906  0.8086
  591MOL0     H81530   6.612   8.022   7.388  0.7864 -0.0302 -3.3902
  591MOL0     H81531   6.485   8.097   7.289  1.0544 -1.1030 -0.8176
  591MOL0     H81532   6.481   8.168   7.527  3.2608 -2.5187  1.4808
  591MOL0     H81533   6.440   8.005   7.578 -0.9395 -1.3257 -0.4770
  591MOL0     H81534   6.230   7.993   7.477  0.6040  0.0705 -2.6709
  591MOL0     H81535   6.256   8.113   7.367  1.2709  1.1854  0.2907
  591MOL0     H81536   6.252   8.137   7.683  1.2342 -1.2879 -0.8082
  591MOL0     H81537   6.109   8.166   7.579  0.7319 -0.1933 -1.5337
  591MOL0     H81538   6.802   7.500   6.995 -2.3012  0.1821 -0.4694
  591MOL0     H81539   6.945   7.427   6.802 -1.7308 -2.1097 -1.5041
  591MOL0     H81540   7.118   7.588   6.390  2.2912  0.4456 -1.7363
  591MOL0     H81541   7.200   7.590   6.177 -1.1401  2.1378  1.6726
  591MOL0     H81542   6.314   7.184   4.275  1.4594  1.2972  1.5586
  591MOL0     H81543   6.245   7.006   4.100  0.0758  2.1896  0.4646
  591MOL0     H81544   6.527   6.580   3.930  1.6692  0.7167 -0.1924
  591MOL0     H81545   6.535   6.391   3.749  0.7742  0.7011  0.5525
  591MOL0     H81546   6.264   6.481   3.404  0.1090  1.0523  0.2103
  591MOL0     H81547   6.436   6.504   3.353  0.5245 -1.4972 -2.7724
  591MOL0     H81548   6.322   6.336   3.212  2.9297  1.3280 -1.3819
  591MOL0     H81549   6.269   6.239   3.358  2.1201 -0.3369  3.5998
  591MOL0     H81550   6.509   6.208   3.204 -1.4443  1.2610 -0.2028
  591MOL0     H81551   6.554   6.284   3.363  0.8640 -2.2029  1.6208
  591MOL0     H81552   6.462   6.080   3.482 -0.4875  2.5262  0.0263
  591MOL0     H81553   6.572   6.030   3.357 -0.7744 -1.6455  2.4776
  591MOL0     H81554   6.228   5.848   3.228 -0.5034  1.9977 -0.2110
  591MOL0     H81555   6.317   6.650   3.495  1.4718 -0.6531  0.0316
  591MOL0     H81556   6.394   6.926   3.554  1.2061  1.1985  0.4609
  591MOL0     H81557   6.227   6.892   3.613  0.2426  1.8692  1.1743
  591MOL0     H81558   6.330   6.960   3.718 -3.1932 -0.2188  0.7268
  592MOL0     O81559   0.527   3.042   4.712  0.1893 -0.4643  0.4253
  592MOL0     C81560   0.436   3.032   4.792 -0.0993  0.4044 -0.6659
  592MOL0     O81561   0.325   2.961   4.767  0.7941 -0.7422  0.6362
  592MOL0     C81562   0.317   2.911   4.638  0.7634  0.3853 -0.1235
  592MOL0     C81563   0.266   2.982   4.525 -0.4273 -0.0513 -0.5366
  592MOL0     C81564   0.266   2.912   4.403  0.3374 -0.8256 -0.5966
  592MOL0     C81565   0.319   2.781   4.390 -0.3878 -0.7250  0.1721
  592MOL0     O81566   0.331   2.729   4.263 -0.1927 -0.2636  0.6686
  592MOL0     C81567   0.213   2.716   4.187 -0.1091  0.1322  0.3921
  592MOL0     C81568   0.117   2.635   4.257  0.4694  0.3764  0.7866
  592MOL0     C81569   0.179   2.491   4.263  0.7791 -0.5376 -0.1756
  592MOL0     C81570   0.089   2.388   4.328  1.0117  0.1810 -0.8784
  592MOL0     C81571   0.167   2.263   4.365  0.1481  0.2070  0.6952
  592MOL0     C81572   0.062   2.154   4.390  0.7017 -0.4512  0.6168
  592MOL0     C81573   0.128   2.034   4.455 -0.1318  0.0337  0.4338
  592MOL0     C81574   0.131   2.042   4.610  0.0818  1.7265  0.3948
  592MOL0     N81575  -0.003   2.045   4.673  0.7541  0.4789  0.1461
  592MOL0     C81576  -0.068   2.151   4.717 -0.3676  0.6000 -0.6662
  592MOL0     C81577  -0.169   2.093   4.786  0.0303 -0.6331  0.2677
  592MOL0     C81578  -0.288   2.158   4.843 -0.2524 -0.3020  0.3885
  592MOL0     C81579  -0.281   2.161   4.995 -0.7561 -0.5771  0.2883
  592MOL0     C81580  -0.394   2.246   5.059  0.1900  0.1521  0.4264
  592MOL0     C81581  -0.538   2.198   5.041  0.1934 -0.3780  0.0180
  592MOL0     O81582  -0.618   2.298   5.114 -0.4323 -0.0974  0.5092
  592MOL0     C81583  -0.750   2.283   5.135 -0.2233 -1.3394 -0.8401
  592MOL0     C81584  -0.834   2.206   5.059 -0.3360 -0.6484 -0.8414
  592MOL0     C81585  -0.980   2.223   5.085 -0.2714 -0.6978  0.7817
  592MOL0     C81586  -1.066   2.124   4.999 -0.3467  0.1707  0.0804
  592MOL0     C81587  -1.037   2.307   5.187 -0.1712 -0.4869 -0.0370
  592MOL0     C81588  -1.175   2.321   5.223  0.1402 -0.1217 -0.8700
  592MOL0     O81589  -1.203   2.403   5.333  0.3938  0.7234  0.0791
  592MOL0     C81590  -1.340   2.427   5.361 -1.6159 -0.5658  0.6412
  592MOL0     C81591  -1.419   2.345   5.428 -0.4533 -1.1981  0.0323
  592MOL0     C81592  -1.555   2.388   5.446 -0.2118  0.2249 -0.2461
  592MOL0     C81593  -1.606   2.512   5.400 -0.4426  0.1538 -0.5123
  592MOL0     O81594  -1.726   2.567   5.420  0.5459 -0.2016  0.1756
  592MOL0     C81595  -1.831   2.492   5.477 -0.1314 -0.4856 -1.0622
  592MOL0     C81596  -1.948   2.591   5.498 -0.4647 -0.0026 -0.3540
  592MOL0     C81597  -1.919   2.703   5.600  1.4302  0.1435  0.8391
  592MOL0     C81598  -2.046   2.786   5.645 -1.1105 -0.2062 -0.1497
  592MOL0     C81599  -2.101   2.854   5.516  0.0046 -0.1038 -0.3761
  592MOL0     C81600  -2.210   2.953   5.548  0.6770  0.6879  0.1967
  592MOL0     C81601  -2.319   2.881   5.633  0.6302 -0.2447 -0.6410
  592MOL0     C81602  -2.445   2.967   5.643  0.3301  0.5716  0.3874
  592MOL0    Cl81603  -2.580   2.891   5.731 -0.2349  0.3793 -0.6599
  592MOL0     C81604  -1.521   2.587   5.327 -1.0817 -0.3327 -0.3450
  592MOL0     C81605  -1.388   2.551   5.307 -0.1322 -0.5706 -1.0026
  592MOL0     O81606  -1.262   2.259   5.162 -0.3806 -0.5594 -0.5649
  592MOL0     C81607  -0.945   2.382   5.259 -0.7481 -0.8790  0.3228
  592MOL0     C81608  -0.802   2.378   5.231  0.6391 -0.1988 -0.8801
  592MOL0     N81609  -0.174   1.957   4.775 -0.2365  0.0202  0.2272
  592MOL0     N81610  -0.085   1.931   4.687 -0.6552 -1.3889 -0.1067
  592MOL0     C81611   0.377   2.723   4.492  0.2435  0.2840 -1.4084
  592MOL0     C81612   0.366   2.780   4.616  0.3649 -0.4252  0.0499
  592MOL0     C81613   0.457   3.094   4.928  0.6893  0.4839 -0.4171
  592MOL0     C81614   0.545   3.198   4.934 -0.0608  0.1695 -0.6010
  592MOL0     C81615   0.554   3.272   5.056  0.5830 -0.2518  0.3388
  592MOL0     C81616   0.489   3.237   5.172  0.5818  0.5413  0.8573
  592MOL0     O81617   0.485   3.325   5.274 -0.3545 -0.2893 -0.1374
  592MOL0     C81618   0.490   3.268   5.402 -0.0554  0.5123 -0.3982
  592MOL0     C81619   0.464   3.363   5.525 -0.5198  0.2095 -0.2872
  592MOL0     C81620   0.536   3.508   5.499  0.3591  0.0275 -0.3505
  592MOL0     C81621   0.681   3.512   5.487 -0.3151 -0.2879 -0.5063
  592MOL0     C81622   0.736   3.472   5.622  0.3314  1.8150  0.1692
  592MOL0     C81623   0.783   3.442   5.727 -1.2002 -0.1929 -0.2058
  592MOL0     C81624   0.396   3.130   5.158  0.0816  0.4498 -0.3203
  592MOL0     C81625   0.383   3.048   5.042 -0.4004 -0.1873  0.4751
  592MOL0     C81626   0.292   2.927   5.042  0.1541 -0.4938 -0.9534
  592MOL0     H81627   0.254   3.089   4.534  1.6242  0.2613 -0.8506
  592MOL0     H81628   0.231   2.971   4.318  1.3514  2.6379  1.1840
  592MOL0     H81629   0.250   2.655   4.103 -1.5423 -1.0395  0.5745
  592MOL0     H81630   0.171   2.810   4.151  0.2616 -0.6532 -2.2894
  592MOL0     H81631   0.090   2.672   4.357 -3.4047  0.2337 -0.0415
  592MOL0     H81632   0.024   2.638   4.199  1.2298  2.0245 -0.4333
  592MOL0     H81633   0.210   2.460   4.162  5.1966  1.5249  0.3254
  592MOL0     H81634   0.264   2.497   4.332 -0.2861 -0.1238  1.1194
  592MOL0     H81635   0.048   2.434   4.419  2.3749  1.5240 -0.9038
  592MOL0     H81636   0.007   2.365   4.260 -0.7992  0.2337  1.1713
  592MOL0     H81637   0.225   2.274   4.457 -1.1879 -1.0523  1.7384
  592MOL0     H81638   0.240   2.238   4.288  0.3811  0.1541  0.9304
  592MOL0     H81639  -0.023   2.203   4.439  2.3657  2.0907  1.1948
  592MOL0     H81640   0.019   2.124   4.294  0.3114 -1.6634  1.1561
  592MOL0     H81641   0.233   2.024   4.427  0.3131 -0.9540  2.3119
  592MOL0     H81642   0.069   1.949   4.422  0.5878 -0.7987  1.2258
  592MOL0     H81643   0.186   1.953   4.642  2.6468  1.5830 -3.6725
  592MOL0     H81644   0.193   2.126   4.642  3.6155  1.9062 -5.4762
  592MOL0     H81645  -0.042   2.257   4.717 -0.6907  0.6791 -0.5189
  592MOL0     H81646  -0.381   2.104   4.823 -1.2046  1.7575 -0.9348
  592MOL0     H81647  -0.302   2.257   4.799  0.2249 -1.5215 -2.7335
  592MOL0     H81648  -0.289   2.063   5.043 -3.8749  0.2477  1.6690
  592MOL0     H81649  -0.183   2.207   5.014 -1.6908  2.2403 -1.2010
  592MOL0     H81650  -0.365   2.251   5.164 -0.4989  1.3399  0.5835
  592MOL0     H81651  -0.388   2.346   5.013  0.4853  0.5791  1.3596
  592MOL0     H81652  -0.564   2.200   4.935 -1.6311 -1.0394  0.4176
  592MOL0     H81653  -0.552   2.100   5.088 -0.4696  0.9576  2.7926
  592MOL0     H81654  -0.787   2.147   4.982  1.5709  0.2145 -0.3800
  592MOL0     H81655  -1.161   2.175   4.982  0.6759  2.1992  0.1587
  592MOL0     H81656  -1.104   2.037   5.053 -0.1740  0.2205  0.2843
  592MOL0     H81657  -1.022   2.104   4.901  0.5099 -2.6538  0.9477
  592MOL0     H81658  -1.367   2.260   5.470 -0.0264 -0.5725  0.8148
  592MOL0     H81659  -1.627   2.321   5.493  1.3348 -1.1099  0.3351
  592MOL0     H81660  -1.861   2.406   5.417 -3.4948 -0.8417  0.8422
  592MOL0     H81661  -1.795   2.461   5.576  1.4237  2.8943 -0.4090
  592MOL0     H81662  -1.962   2.639   5.400 -0.4097  1.8036  0.4698
  592MOL0     H81663  -2.036   2.536   5.533  0.1845 -1.7804 -1.3772
  592MOL0     H81664  -1.846   2.763   5.546 -0.2739  0.5512 -1.1558
  592MOL0     H81665  -1.878   2.663   5.693  1.9389 -2.1283 -0.2904
  592MOL0     H81666  -2.025   2.865   5.717 -0.7172 -2.2861  2.1725
  592MOL0     H81667  -2.120   2.715   5.686  0.4123 -1.9104 -0.2294
  592MOL0     H81668  -2.016   2.901   5.465  0.0073 -0.2374 -0.4927
  592MOL0     H81669  -2.148   2.775   5.457  0.5451 -1.6808  1.2092
  592MOL0     H81670  -2.248   2.985   5.451 -1.5336 -1.5613  0.2214
  592MOL0     H81671  -2.159   3.031   5.606  2.7074 -0.8326  0.5894
  592MOL0     H81672  -2.287   2.858   5.735 -1.8049  1.3740  0.6103
  592MOL0     H81673  -2.350   2.786   5.588 -1.2040 -1.5978  3.0670
  592MOL0     H81674  -2.474   2.988   5.540  0.7067 -0.5325  0.0434
  592MOL0     H81675  -2.429   3.067   5.686 -2.5182 -0.1730  3.6276
  592MOL0     H81676  -1.545   2.680   5.276  1.8760 -0.8130 -2.9590
  592MOL0     H81677  -1.332   2.617   5.241  1.1481  0.3349  0.8934
  592MOL0     H81678  -0.983   2.447   5.337 -1.0945 -2.0338  1.1362
  592MOL0     H81679  -0.726   2.429   5.288  0.7635 -2.6251  1.3383
  592MOL0     H81680   0.420   2.623   4.488 -2.3671 -1.1071  1.0544
  592MOL0     H81681   0.386   2.716   4.701  1.1028 -1.0715 -0.6009
  592MOL0     H81682   0.602   3.229   4.848  1.7976  1.7165  1.0907
  592MOL0     H81683   0.614   3.361   5.045  0.9145 -0.4344  0.6558
  592MOL0     H81684   0.424   3.182   5.418 -0.8959  1.3748  1.0027
  592MOL0     H81685   0.588   3.224   5.426 -1.2578 -0.9881  2.1783
  592MOL0     H81686   0.509   3.316   5.613  3.3701  2.8140 -0.6728
  592MOL0     H81687   0.358   3.380   5.547 -0.2180 -0.9382  2.4701
  592MOL0     H81688   0.497   3.553   5.407  0.2095  1.5558  0.4288
  592MOL0     H81689   0.501   3.569   5.583  1.6130  0.2406  0.0379
  592MOL0     H81690   0.716   3.609   5.449 -1.3314  0.6891  0.9142
  592MOL0     H81691   0.719   3.440   5.414 -0.3656  1.5402 -2.4528
  592MOL0     H81692   0.808   3.411   5.827  2.8421 -1.1045 -1.2995
  592MOL0     H81693   0.332   3.105   5.243 -0.0595 -2.1059 -1.1052
  592MOL0     H81694   0.216   2.939   4.963  1.2455  0.3825 -1.9016
  592MOL0     H81695   0.339   2.830   5.029  1.4002 -0.2694  1.3994
  592MOL0     H81696   0.236   2.934   5.136 -2.6906  1.7787 -2.6263
  593MOL0     O81697   0.970   0.721  10.668  0.4234  0.4349  0.1405
  593MOL0     C81698   0.880   0.786  10.720  0.1576  0.3027 -0.5941
  593MOL0     O81699   0.792   0.744  10.815  0.4251 -0.1272 -0.5959
  593MOL0     C81700   0.826   0.648  10.908  0.8104  0.1081 -0.2737
  593MOL0     C81701   0.717   0.612  10.992  0.5060  0.0036 -0.9440
  593MOL0     C81702   0.733   0.513  11.090  0.1787 -0.7875  0.5092
  593MOL0     C81703   0.859   0.448  11.104  0.8962  0.6596  0.1699
  593MOL0     O81704   0.877   0.347  11.199  0.0649 -0.1142  0.0509
  593MOL0     C81705   0.972   0.244  11.170  0.1488 -0.6312  0.6071
  593MOL0     C81706   0.945   0.151  11.288  0.5613  0.6425 -0.3187
  593MOL0     C81707   0.987   0.205  11.427 -0.2470  0.0660 -0.5946
  593MOL0     C81708   0.932   0.112  11.534 -0.2644 -0.5869  0.3522
  593MOL0     C81709   0.961   0.141  11.682 -0.1800  0.1685  0.0691
  593MOL0     C81710   0.935   0.017  11.767  0.9932  0.1364 -0.5752
  593MOL0     C81711   0.802  -0.052  11.765 -0.1120 -0.4623 -0.1627
  593MOL0     C81712   0.781  -0.161  11.656  0.8086 -0.2114 -0.6514
  593MOL0     N81713   0.863  -0.282  11.672 -0.8297  0.2102  0.3753
  593MOL0     C81714   0.988  -0.294  11.620 -0.5002  0.1196 -0.5188
  593MOL0     C81715   1.027  -0.417  11.660  0.1751 -0.0733 -0.6168
  593MOL0     C81716   1.158  -0.484  11.620 -0.2291 -1.2145 -0.3639
  593MOL0     C81717   1.283  -0.399  11.666 -0.2012 -0.6071 -0.2942
  593MOL0     C81718   1.302  -0.394  11.815 -0.3866  0.4895 -0.4030
  593MOL0     C81719   1.445  -0.340  11.839  0.1243 -0.6481 -1.5888
  593MOL0     O81720   1.477  -0.210  11.796  0.0515  1.0413  0.2613
  593MOL0     C81721   1.418  -0.095  11.845  0.3339 -0.9377 -0.0385
  593MOL0     C81722   1.425   0.013  11.759  0.3588  0.2506 -0.4096
  593MOL0     C81723   1.389   0.140  11.803 -0.5140  0.2052 -0.2398
  593MOL0     C81724   1.406   0.256  11.716  0.1489  0.1813  0.6773
  593MOL0     C81725   1.342   0.148  11.941 -0.7453 -0.1092 -0.2949
  593MOL0     C81726   1.296   0.276  12.004  0.6255  0.1600  0.7165
  593MOL0     O81727   1.178   0.269  12.070  0.0016 -0.2130  1.0501
  593MOL0     C81728   1.142   0.379  12.149 -0.8206  0.4157 -0.4781
  593MOL0     C81729   1.218   0.440  12.239  0.5625  0.3439  0.1395
  593MOL0     C81730   1.155   0.537  12.321  0.0536  0.1644  0.2351
  593MOL0     C81731   1.009   0.555  12.333 -0.2169 -0.6842 -0.2500
  593MOL0     O81732   0.940   0.631  12.424 -0.3955 -0.3297 -0.3026
  593MOL0     C81733   1.019   0.716  12.507 -0.0678 -0.2164  0.0505
  593MOL0     C81734   0.925   0.793  12.601  0.0473 -0.1943 -0.3807
  593MOL0     C81735   0.979   0.917  12.674  0.0151  0.2578  0.0392
  593MOL0     C81736   0.893   0.960  12.796  0.6676  0.7691 -0.9466
  593MOL0     C81737   0.895   1.102  12.844 -0.1659 -0.1389 -0.0812
  593MOL0     C81738   1.026   1.161  12.829  0.1011 -0.0258 -0.1587
  593MOL0     C81739   1.051   1.269  12.933 -0.2990 -0.7511  0.4887
  593MOL0     C81740   0.994   1.405  12.885 -0.2084  0.4545  0.0038
  593MOL0    Cl81741   1.004   1.520  13.025 -0.3580 -0.0518  0.1421
  593MOL0     C81742   0.942   0.482  12.247  0.4523 -0.1749  0.4884
  593MOL0     C81743   1.001   0.401  12.147 -0.1568  0.1168 -0.8432
  593MOL0     O81744   1.371   0.374  11.990  0.5658  0.3715  0.5547
  593MOL0     C81745   1.337   0.037  12.022  0.0476  0.4349  0.2625
  593MOL0     C81746   1.366  -0.085  11.973  0.0213 -0.5693  0.1341
  593MOL0     N81747   0.941  -0.475  11.754  0.1916 -0.3443 -0.1171
  593MOL0     N81748   0.841  -0.387  11.756  0.2536  0.2567 -0.6003
  593MOL0     C81749   0.961   0.485  11.023  0.8241  0.1636  0.6855
  593MOL0     C81750   0.940   0.575  10.923 -0.4942  0.0886  0.3909
  593MOL0     C81751   0.838   0.908  10.653 -0.1616 -0.3371 -0.2720
  593MOL0     C81752   0.783   1.012  10.733  0.3720 -0.5486  0.4972
  593MOL0     C81753   0.729   1.130  10.678 -0.1522 -0.2975 -0.1454
  593MOL0     C81754   0.727   1.144  10.545 -0.3277  0.1431 -0.6318
  593MOL0     O81755   0.667   1.247  10.474 -0.3831  0.4262 -1.4538
  593MOL0     C81756   0.608   1.354  10.560 -0.4619 -1.0236  0.3138
  593MOL0     C81757   0.478   1.315  10.615  0.3038 -0.4678 -0.8879
  593MOL0     C81758   0.364   1.353  10.519 -0.1863 -0.6008 -0.2624
  593MOL0     C81759   0.227   1.376  10.589  0.6914 -0.1536 -0.3739
  593MOL0     C81760   0.136   1.461  10.509 -0.7413 -0.4593  0.3037
  593MOL0     C81761   0.072   1.543  10.452 -0.5743  0.2057 -0.3576
  593MOL0     C81762   0.785   1.043  10.460 -0.1378 -0.2275  0.0233
  593MOL0     C81763   0.843   0.933  10.515 -0.1946 -0.4335  0.7268
  593MOL0     C81764   0.925   0.847  10.420  0.8633  0.3194 -0.1941
  593MOL0     H81765   0.626   0.672  10.994  0.4469  0.0794 -3.4419
  593MOL0     H81766   0.656   0.481  11.160  0.0142 -0.5553  0.4346
  593MOL0     H81767   1.077   0.274  11.183 -0.0226  0.7328 -0.9437
  593MOL0     H81768   0.960   0.193  11.074 -2.4298 -0.5996  0.8433
  593MOL0     H81769   0.839   0.124  11.285  0.6017  0.5160 -0.6239
  593MOL0     H81770   0.999   0.057  11.272  2.5482  2.1721 -3.7520
  593MOL0     H81771   1.095   0.216  11.432 -0.3030  0.4610 -0.1087
  593MOL0     H81772   0.947   0.306  11.440 -0.7606 -0.0854 -0.9256
  593MOL0     H81773   0.825   0.091  11.527 -0.3896 -0.3054  1.2472
  593MOL0     H81774   0.970   0.011  11.518  1.0714 -0.1090  0.3995
  593MOL0     H81775   0.892   0.218  11.718  2.7775  2.1810  1.8931
  593MOL0     H81776   1.063   0.179  11.690 -0.7672  1.4705  2.1912
  593MOL0     H81777   1.016  -0.053  11.745  0.6115 -0.2216 -0.8839
  593MOL0     H81778   0.947   0.042  11.873  2.1778  0.0881 -0.6853
  593MOL0     H81779   0.724   0.018  11.734 -1.4126 -2.6711 -2.1928
  593MOL0     H81780   0.779  -0.113  11.853  0.0599  0.0447  0.2391
  593MOL0     H81781   0.676  -0.191  11.663  1.1148 -1.2416 -0.3132
  593MOL0     H81782   0.812  -0.124  11.558 -1.3383 -0.9962 -1.6909
  593MOL0     H81783   1.049  -0.223  11.565  0.1877 -1.4022 -1.8026
  593MOL0     H81784   1.155  -0.517  11.516  0.4161 -0.6228 -0.5789
  593MOL0     H81785   1.169  -0.580  11.672 -0.0119  1.1172  4.4857
  593MOL0     H81786   1.378  -0.440  11.631  0.5143 -1.2284  2.2018
  593MOL0     H81787   1.276  -0.299  11.622  2.7442  0.7083  1.8441
  593MOL0     H81788   1.225  -0.325  11.851  0.6660  1.0625  0.8588
  593MOL0     H81789   1.291  -0.499  11.844 -1.4026  0.4884 -0.7535
  593MOL0     H81790   1.465  -0.349  11.947  1.9454 -0.9076 -1.9235
  593MOL0     H81791   1.507  -0.416  11.792  1.8393  0.9928 -2.0874
  593MOL0     H81792   1.472  -0.005  11.663  2.6523 -0.5359  0.8058
  593MOL0     H81793   1.412   0.217  11.614  1.4197  1.1522  0.3573
  593MOL0     H81794   1.491   0.315  11.751 -0.1346  0.6865  0.5301
  593MOL0     H81795   1.314   0.313  11.736  0.6369  1.2167  0.0618
  593MOL0     H81796   1.321   0.416  12.264  0.6405  1.0239  0.4982
  593MOL0     H81797   1.214   0.597  12.389  1.2716 -0.7608  0.0293
  593MOL0     H81798   1.082   0.652  12.568  1.4749  0.7006 -0.5363
  593MOL0     H81799   1.076   0.784  12.442 -0.7247 -0.5625 -0.9191
  593MOL0     H81800   0.842   0.837  12.545 -1.8072  1.6391  3.4771
  593MOL0     H81801   0.876   0.719  12.665  1.5802  0.5278  1.7005
  593MOL0     H81802   1.000   1.005  12.611  1.7149  1.1060  1.6875
  593MOL0     H81803   1.079   0.889  12.708 -0.4972 -1.7667  0.0086
  593MOL0     H81804   0.929   0.897  12.877 -2.2699  1.5511  1.1012
  593MOL0     H81805   0.788   0.943  12.772  0.9294 -0.5366 -1.1967
  593MOL0     H81806   0.819   1.161  12.791 -0.4968 -1.0958 -0.7045
  593MOL0     H81807   0.877   1.094  12.952  0.4291 -0.7079 -0.0185
  593MOL0     H81808   1.038   1.197  12.726  3.2399 -1.2846 -0.3344
  593MOL0     H81809   1.110   1.093  12.842  2.3542  2.8203  1.4618
  593MOL0     H81810   1.155   1.289  12.961 -0.5800 -2.7157  3.3425
  593MOL0     H81811   1.003   1.261  13.031  0.1197  2.8486  1.1262
  593MOL0     H81812   0.889   1.384  12.862  0.7970 -2.2052 -2.9059
  593MOL0     H81813   1.038   1.446  12.794 -1.1910  0.3080 -0.5589
  593MOL0     H81814   0.837   0.500  12.225  0.1175 -1.9833  0.4925
  593MOL0     H81815   0.936   0.349  12.077  0.1831 -1.4169 -0.0707
  593MOL0     H81816   1.329   0.058  12.129  2.5389  1.9886  0.2294
  593MOL0     H81817   1.371  -0.180  12.027  0.2163 -2.5525 -3.1058
  593MOL0     H81818   1.059   0.439  11.020  0.9565  0.4850 -1.6457
  593MOL0     H81819   1.028   0.591  10.862 -2.5377  0.9447 -2.5536
  593MOL0     H81820   0.777   1.012  10.842  1.3137  0.6552  0.5647
  593MOL0     H81821   0.697   1.213  10.740  2.9130  1.6612 -0.9565
  593MOL0     H81822   0.677   1.384  10.640 -1.5459 -1.1335  1.3301
  593MOL0     H81823   0.599   1.441  10.495  1.3346 -0.1543  1.1650
  593MOL0     H81824   0.468   1.361  10.714 -1.1236 -2.4365 -0.0505
  593MOL0     H81825   0.476   1.206  10.625  1.5312 -0.6923 -2.7457
  593MOL0     H81826   0.388   1.456  10.494  0.3551 -0.7344 -0.3183
  593MOL0     H81827   0.346   1.288  10.433  1.2140 -0.2507 -0.8463
  593MOL0     H81828   0.238   1.429  10.684 -0.1781 -3.5861  1.8353
  593MOL0     H81829   0.178   1.280  10.604  0.5071  0.2982  2.4029
  593MOL0     H81830   0.006   1.620  10.418 -1.6087  0.3257  1.7842
  593MOL0     H81831   0.779   1.063  10.354 -3.0907  1.4954  0.3823
  593MOL0     H81832   1.029   0.868  10.446  0.8551 -0.4568  0.5241
  593MOL0     H81833   0.900   0.744  10.448 -0.4730 -0.1629 -2.8441
  593MOL0     H81834   0.902   0.859  10.314  4.7032 -0.5503 -1.2553
  594MOL0     O81835   3.590   6.569  10.198 -0.1301 -0.4024 -0.0747
  594MOL0     C81836   3.570   6.500  10.303 -0.4262 -0.0310  1.4794
  594MOL0     O81837   3.659   6.406  10.359  0.7536  0.7643  0.0289
  594MOL0     C81838   3.753   6.346  10.276  0.5512 -0.2517  0.2981
  594MOL0     C81839   3.790   6.211  10.320  0.4433 -0.7235 -0.1876
  594MOL0     C81840   3.905   6.145  10.270 -0.5711  0.3637  1.0790
  594MOL0     C81841   3.977   6.210  10.159  0.4673  0.1433 -0.4032
  594MOL0     O81842   4.083   6.156  10.095 -0.7322  0.6531 -0.4229
  594MOL0     C81843   4.162   6.047  10.163  0.3207 -0.4001  0.3584
  594MOL0     C81844   4.224   6.093  10.288 -0.8602 -0.1474  0.4221
  594MOL0     C81845   4.319   5.985  10.341 -0.6569 -0.0603  0.0332
  594MOL0     C81846   4.266   5.930  10.473  0.6620  0.3776  0.3474
  594MOL0     C81847   4.334   5.805  10.520 -0.6930  0.3127 -0.2118
  594MOL0     C81848   4.278   5.759  10.655  0.0712 -0.2511 -0.4837
  594MOL0     C81849   4.291   5.613  10.692 -0.8508  0.1798  0.5084
  594MOL0     C81850   4.418   5.584  10.777 -0.0200  0.6485 -0.2495
  594MOL0     N81851   4.402   5.592  10.919  0.2064 -0.4788 -0.8367
  594MOL0     C81852   4.507   5.564  11.007 -0.4683  0.3606  0.8661
  594MOL0     C81853   4.472   5.629  11.122  0.2158 -0.5250  0.8781
  594MOL0     C81854   4.560   5.631  11.244 -1.1460 -0.0704  0.6611
  594MOL0     C81855   4.520   5.521  11.345  1.0641 -1.1319  1.6131
  594MOL0     C81856   4.398   5.575  11.421 -0.5386 -1.2543 -0.5734
  594MOL0     C81857   4.382   5.503  11.559  0.1451 -0.0979 -0.6637
  594MOL0     O81858   4.303   5.386  11.546  0.3755 -0.4447  0.5612
  594MOL0     C81859   4.375   5.270  11.586  0.8591  0.0028 -0.1442
  594MOL0     C81860   4.389   5.250  11.724 -0.7666 -0.5187 -0.1940
  594MOL0     C81861   4.433   5.128  11.782  0.4144  1.0523  0.3003
  594MOL0     C81862   4.437   5.115  11.929 -0.3716  0.4457  0.1202
  594MOL0     C81863   4.473   5.032  11.686 -0.2144 -0.2874  0.1318
  594MOL0     C81864   4.538   4.912  11.730  1.0161  0.5038 -0.0396
  594MOL0     O81865   4.638   4.930  11.827 -0.9016  0.0464 -0.3325
  594MOL0     C81866   4.670   4.836  11.922 -0.0205  0.4291 -0.3023
  594MOL0     C81867   4.570   4.756  11.977  0.2850  0.0332  0.4742
  594MOL0     C81868   4.600   4.660  12.074 -0.0331 -0.2624 -0.3317
  594MOL0     C81869   4.732   4.653  12.124 -0.0254 -0.5378 -0.5377
  594MOL0     O81870   4.779   4.561  12.213  0.1588  0.7415  0.3681
  594MOL0     C81871   4.685   4.475  12.289  0.0565  0.1454  0.2354
  594MOL0     C81872   4.786   4.403  12.386  0.7085  0.2393 -0.0673
  594MOL0     C81873   4.715   4.283  12.450  0.9090  0.2232 -0.3778
  594MOL0     C81874   4.721   4.157  12.366  0.4693  0.5628  0.2980
  594MOL0     C81875   4.730   4.024  12.447 -0.7135  0.0352 -0.0482
  594MOL0     C81876   4.793   3.903  12.370  0.2854 -0.1081  0.6815
  594MOL0     C81877   4.724   3.767  12.387 -0.0766 -0.6120  0.0503
  594MOL0     C81878   4.793   3.687  12.497  1.2350 -0.4983  0.7245
  594MOL0    Cl81879   4.753   3.515  12.503 -0.5617 -0.1332  0.3179
  594MOL0     C81880   4.829   4.737  12.062  0.1527  0.4403  0.5431
  594MOL0     C81881   4.795   4.833  11.966  0.3224 -0.1593  0.6579
  594MOL0     O81882   4.507   4.805  11.682  0.2865 -0.2313  0.5364
  594MOL0     C81883   4.451   5.038  11.541 -0.0276  0.5654 -0.5751
  594MOL0     C81884   4.396   5.162  11.496  0.2367  0.1301 -0.2896
  594MOL0     N81885   4.353   5.689  11.109  0.0789  0.8367 -0.4513
  594MOL0     N81886   4.310   5.667  10.984  0.2326 -0.3955  1.0588
  594MOL0     C81887   3.931   6.335  10.108  0.0637  0.8874 -0.0471
  594MOL0     C81888   3.835   6.409  10.173  0.9460 -0.5694 -1.0426
  594MOL0     C81889   3.466   6.565  10.385 -0.4878  0.5403 -0.0056
  594MOL0     C81890   3.498   6.554  10.521 -0.7126 -0.7163  0.0592
  594MOL0     C81891   3.412   6.613  10.612 -0.9347 -0.5597 -0.9393
  594MOL0     C81892   3.294   6.671  10.577  0.7292  0.2527 -0.6266
  594MOL0     O81893   3.202   6.730  10.669  0.4083 -0.2128  0.7218
  594MOL0     C81894   3.245   6.747  10.805  1.0663 -0.6383 -0.4309
  594MOL0     C81895   3.133   6.827  10.864 -0.2563  0.8165 -0.7538
  594MOL0     C81896   3.138   6.974  10.806  0.2111  0.2230  0.7963
  594MOL0     C81897   3.235   7.059  10.893 -0.7040 -0.1108  0.4872
  594MOL0     C81898   3.244   7.206  10.859 -0.3338 -0.0407 -0.4448
  594MOL0     C81899   3.264   7.317  10.814 -0.0914  0.7566 -0.3021
  594MOL0     C81900   3.260   6.690  10.438  1.2419  0.0602 -0.0089
  594MOL0     C81901   3.347   6.626  10.340 -0.5084 -0.6561 -1.2146
  594MOL0     C81902   3.317   6.653  10.196  0.8083 -0.1296 -0.5869
  594MOL0     H81903   3.738   6.177  10.409  1.6718  3.3177  2.3338
  594MOL0     H81904   3.930   6.048  10.312 -1.9152 -0.5290 -0.0939
  594MOL0     H81905   4.244   6.018  10.096 -3.0173 -2.7807 -3.1080
  594MOL0     H81906   4.094   5.962  10.172 -0.5660  0.0854 -1.2637
  594MOL0     H81907   4.280   6.183  10.263  1.6936 -2.0962 -1.3907
  594MOL0     H81908   4.154   6.117  10.369  2.0096  2.9307  2.2338
  594MOL0     H81909   4.328   5.895  10.280  0.7500 -0.0597  0.2120
  594MOL0     H81910   4.419   6.024  10.358  0.2845 -2.7226  1.2185
  594MOL0     H81911   4.257   6.002  10.555 -3.1458 -1.6175  1.9170
  594MOL0     H81912   4.165   5.891  10.459 -0.2131  2.9330 -1.2293
  594MOL0     H81913   4.442   5.826  10.524 -0.9692  1.8873 -0.5959
  594MOL0     H81914   4.311   5.719  10.457 -2.7116  1.7705 -1.5742
  594MOL0     H81915   4.309   5.824  10.737 -1.1393 -1.3169  0.8892
  594MOL0     H81916   4.172   5.788  10.650 -0.1498  0.4661  4.0555
  594MOL0     H81917   4.290   5.545  10.606 -0.8760  0.6383  0.1396
  594MOL0     H81918   4.203   5.592  10.753 -1.4202 -1.9775 -0.9194
  594MOL0     H81919   4.445   5.480  10.759  1.6292  0.5419  2.3130
  594MOL0     H81920   4.507   5.624  10.727  2.6751 -2.7815  1.3576
  594MOL0     H81921   4.600   5.518  10.976 -1.5643 -0.2906 -1.7348
  594MOL0     H81922   4.551   5.728  11.294 -2.2065 -1.1312  2.6191
  594MOL0     H81923   4.667   5.630  11.222 -0.9574  3.2845  0.8519
  594MOL0     H81924   4.496   5.424  11.299 -0.6498 -0.3874  0.8612
  594MOL0     H81925   4.608   5.502  11.408  1.5863 -1.4097  0.8066
  594MOL0     H81926   4.414   5.682  11.433 -2.6498 -0.7852 -1.4564
  594MOL0     H81927   4.308   5.569  11.359 -0.1871  0.4620 -1.3071
  594MOL0     H81928   4.476   5.482  11.610 -1.0698  1.7600  2.6330
  594MOL0     H81929   4.342   5.578  11.628  2.1915 -0.8064  1.4151
  594MOL0     H81930   4.363   5.328  11.795  1.1309 -0.8802  0.9742
  594MOL0     H81931   4.353   5.173  11.969 -0.6336  1.8692 -2.3127
  594MOL0     H81932   4.538   5.137  11.963  0.6191 -1.3205 -1.4748
  594MOL0     H81933   4.394   5.018  11.956 -0.0705 -0.2800 -1.8454
  594MOL0     H81934   4.471   4.779  11.941  0.3570  0.5044  0.5661
  594MOL0     H81935   4.525   4.590  12.110  1.1084 -1.6638 -0.6136
  594MOL0     H81936   4.610   4.528  12.347  2.0584  0.2334  2.9024
  594MOL0     H81937   4.638   4.400  12.225 -1.0467  0.5770  0.5165
  594MOL0     H81938   4.878   4.366  12.341 -1.1143 -0.9490 -3.1518
  594MOL0     H81939   4.812   4.480  12.460  1.3402  2.1952 -2.2021
  594MOL0     H81940   4.608   4.305  12.462  0.4262 -1.7868 -0.6740
  594MOL0     H81941   4.762   4.270  12.548 -0.8262  2.5195  0.8750
  594MOL0     H81942   4.817   4.157  12.314  0.2402 -1.3091 -0.2355
  594MOL0     H81943   4.639   4.143  12.294 -0.2255 -3.0009  1.5567
  594MOL0     H81944   4.805   4.029  12.528 -2.0325 -0.3668  1.2406
  594MOL0     H81945   4.633   4.013  12.496 -0.6402  1.4449  0.4367
  594MOL0     H81946   4.902   3.905  12.377  0.4580  1.9010 -1.3075
  594MOL0     H81947   4.773   3.926  12.264 -1.9013  1.8518  1.4326
  594MOL0     H81948   4.728   3.704  12.298  3.6426  1.5455 -1.5808
  594MOL0     H81949   4.620   3.782  12.418  0.3390 -2.8573  2.9313
  594MOL0     H81950   4.760   3.738  12.587  0.0088 -2.8051  1.6884
  594MOL0     H81951   4.902   3.697  12.493  1.5016 -2.9126 -0.3662
  594MOL0     H81952   4.925   4.726  12.112 -0.3514 -1.6936  1.1685
  594MOL0     H81953   4.865   4.907  11.929  0.8340 -0.5066  0.9160
  594MOL0     H81954   4.462   4.954  11.472  1.5130 -0.2344  0.5618
  594MOL0     H81955   4.367   5.186  11.394  2.6218 -0.4840 -1.1860
  594MOL0     H81956   3.986   6.379  10.025  2.6137  1.4130  1.8094
  594MOL0     H81957   3.819   6.513  10.147  0.5571 -0.0229  1.2218
  594MOL0     H81958   3.597   6.521  10.552  0.1693 -0.8666 -2.7154
  594MOL0     H81959   3.454   6.606  10.711 -0.5836  1.4230 -0.9054
  594MOL0     H81960   3.254   6.649  10.854 -2.2032 -0.3391  1.0503
  594MOL0     H81961   3.343   6.794  10.799  0.7996 -0.2275 -2.1946
  594MOL0     H81962   3.141   6.815  10.972  0.6562 -2.0781 -1.0556
  594MOL0     H81963   3.035   6.792  10.829 -0.8813  1.6283  0.1386
  594MOL0     H81964   3.166   6.975  10.701 -1.7997  3.1858  0.1494
  594MOL0     H81965   3.033   7.007  10.805 -0.1310 -0.7748  1.7094
  594MOL0     H81966   3.342   7.036  10.889 -0.8049 -0.5139 -2.8228
  594MOL0     H81967   3.203   7.047  10.997 -1.3633 -3.5723 -0.0154
  594MOL0     H81968   3.285   7.409  10.764 -0.6625  2.4428  2.3828
  594MOL0     H81969   3.171   6.740  10.403  1.4207 -1.6920 -3.3285
  594MOL0     H81970   3.407   6.693  10.148  0.7271 -2.3150 -2.7598
  594MOL0     H81971   3.287   6.562  10.145 -0.1970  1.1006 -2.2686
  594MOL0     H81972   3.232   6.719  10.175  1.7948  1.9828  1.5145
  595MOL0     O81973   6.287   9.461   8.681  0.7067 -0.6759  0.2127
  595MOL0     C81974   6.166   9.454   8.714 -0.4153  0.1122  0.0520
  595MOL0     O81975   6.126   9.417   8.832 -0.1402 -0.1947  0.3362
  595MOL0     C81976   6.214   9.400   8.940 -0.0107 -0.5629  0.0270
  595MOL0     C81977   6.326   9.474   8.956 -0.8332  0.4559 -0.8812
  595MOL0     C81978   6.408   9.464   9.080 -0.2066 -0.6953  1.0363
  595MOL0     C81979   6.362   9.381   9.184 -0.8961  0.5000  0.3761
  595MOL0     O81980   6.445   9.372   9.290  0.2973 -0.8071 -0.1622
  595MOL0     C81981   6.437   9.248   9.368 -0.2469  0.5842  1.3343
  595MOL0     C81982   6.530   9.137   9.293  0.5329  0.0865 -0.7268
  595MOL0     C81983   6.492   9.096   9.153  0.2104 -0.3296  0.0361
  595MOL0     C81984   6.591   9.159   9.052 -0.4204  0.7413 -1.1901
  595MOL0     C81985   6.549   9.175   8.906  1.2384 -0.2038 -0.3685
  595MOL0     C81986   6.476   9.049   8.843 -0.9169  0.0337  0.7393
  595MOL0     C81987   6.385   9.097   8.733  0.5715  0.9833  0.2654
  595MOL0     C81988   6.467   9.141   8.607 -0.7741 -0.1104 -0.6646
  595MOL0     N81989   6.375   9.165   8.498 -0.0129  0.4202  0.9538
  595MOL0     C81990   6.373   9.268   8.409  0.3305 -0.3531  1.0221
  595MOL0     C81991   6.299   9.229   8.304 -0.2043  0.2762  0.3132
  595MOL0     C81992   6.255   9.301   8.177 -0.1542 -0.0487  1.4302
  595MOL0     C81993   6.102   9.328   8.179 -0.8693  0.5934 -0.0811
  595MOL0     C81994   6.056   9.391   8.049 -0.3203 -0.3515 -0.7012
  595MOL0     C81995   5.931   9.464   8.084  0.1014 -0.1498  0.4431
  595MOL0     O81996   5.837   9.449   7.977 -0.2459 -0.2829  0.0316
  595MOL0     C81997   5.745   9.551   7.938  0.4509 -0.2792 -0.4953
  595MOL0     C81998   5.671   9.520   7.831 -0.0514 -0.6258  0.4354
  595MOL0     C81999   5.580   9.615   7.777  0.1996  0.0283 -0.0365
  595MOL0     C82000   5.536   9.592   7.634 -0.2530 -0.8674  0.6682
  595MOL0     C82001   5.546   9.730   7.847 -0.5637 -0.3750  0.9468
  595MOL0     C82002   5.444   9.825   7.811  0.0407  0.7115 -1.0281
  595MOL0     O82003   5.340   9.778   7.743  0.0260  0.4269  0.2173
  595MOL0     C82004   5.270   9.884   7.679 -0.5920 -0.0315 -0.2420
  595MOL0     C82005   5.137   9.894   7.712  0.2572 -0.3107  0.2270
  595MOL0     C82006   5.049   9.985   7.654  1.0850 -1.1545 -0.3417
  595MOL0     C82007   5.099  10.064   7.557 -0.3258 -0.1687 -0.2164
  595MOL0     O82008   5.022  10.155   7.501  0.2294 -0.2653  0.5851
  595MOL0     C82009   4.899  10.119   7.447 -0.0747  0.2560 -0.5786
  595MOL0     C82010   4.806  10.230   7.483 -0.3407  0.0023  0.4830
  595MOL0     C82011   4.668  10.176   7.463  0.4173  0.8283  0.0700
  595MOL0     C82012   4.634  10.174   7.319 -0.1462 -0.3177  0.7683
  595MOL0     C82013   4.485  10.128   7.290  0.7643  0.3251 -1.1914
  595MOL0     C82014   4.366  10.213   7.351 -0.3640 -0.2256  0.7523
  595MOL0     C82015   4.229  10.170   7.299 -0.6922 -0.7216  0.5510
  595MOL0     C82016   4.193  10.023   7.315 -0.2521  0.1021  0.1897
  595MOL0    Cl82017   4.215   9.980   7.486 -0.4331 -0.0545  0.1783
  595MOL0     C82018   5.243  10.060   7.533  0.7781 -0.5433  0.5525
  595MOL0     C82019   5.327   9.971   7.596  1.0802 -0.0245  0.0034
  595MOL0     O82020   5.468   9.944   7.840 -0.4421  0.0115  0.6577
  595MOL0     C82021   5.612   9.756   7.967 -0.0080  0.4586 -0.4975
  595MOL0     C82022   5.718   9.670   8.007 -0.4797  0.5236  0.1601
  595MOL0     N82023   6.259   9.096   8.330  0.2012 -0.2064  0.9720
  595MOL0     N82024   6.297   9.064   8.442 -0.1501  0.0712 -0.2270
  595MOL0     C82025   6.237   9.315   9.171  0.5739  0.0133 -0.6211
  595MOL0     C82026   6.164   9.319   9.050 -0.7373  0.7320 -0.1476
  595MOL0     C82027   6.067   9.514   8.619  0.1983 -0.5234  0.3624
  595MOL0     C82028   5.940   9.516   8.665 -0.1144  0.2647  0.4269
  595MOL0     C82029   5.838   9.564   8.588 -0.2483 -0.9861 -0.2347
  595MOL0     C82030   5.871   9.626   8.464 -0.2504 -0.3343  1.1188
  595MOL0     O82031   5.781   9.682   8.376  0.0618  0.0857 -0.5228
  595MOL0     C82032   5.670   9.733   8.440 -0.3045 -0.0826 -0.2802
  595MOL0     C82033   5.611   9.847   8.352 -0.2481 -0.6298 -0.1874
  595MOL0     C82034   5.699   9.971   8.350  0.4503 -0.4238 -0.7687
  595MOL0     C82035   5.617  10.089   8.290  0.3673 -0.5213 -0.2264
  595MOL0     C82036   5.469  10.080   8.312 -0.0381  0.3860  0.2351
  595MOL0     C82037   5.347  10.084   8.347 -0.5478  0.3734  0.0061
  595MOL0     C82038   5.998   9.625   8.414 -1.0065 -0.4318  1.1603
  595MOL0     C82039   6.099   9.576   8.491 -0.6726 -0.3751 -0.1595
  595MOL0     C82040   6.233   9.613   8.438 -0.2513 -0.1512 -0.4505
  595MOL0     H82041   6.362   9.545   8.882 -0.6037  0.3905 -0.8309
  595MOL0     H82042   6.496   9.527   9.088  0.7732 -1.4538 -2.2801
  595MOL0     H82043   6.333   9.221   9.391  0.5854 -2.6020  1.9219
  595MOL0     H82044   6.479   9.265   9.467  0.3504 -0.6573  1.3222
  595MOL0     H82045   6.634   9.166   9.306  0.5042  0.1657 -0.6698
  595MOL0     H82046   6.530   9.045   9.351  0.8475  1.7732  2.1740
  595MOL0     H82047   6.487   8.987   9.148 -1.2214 -0.3197  0.6045
  595MOL0     H82048   6.389   9.122   9.127 -0.6567 -3.2573  0.1957
  595MOL0     H82049   6.618   9.257   9.092  0.5657 -0.0566  0.2079
  595MOL0     H82050   6.682   9.099   9.061 -1.1087 -0.1814 -0.0411
  595MOL0     H82051   6.632   9.201   8.839 -1.9489  2.4390 -3.7234
  595MOL0     H82052   6.476   9.256   8.912  2.4067  0.7836  1.5182
  595MOL0     H82053   6.554   8.977   8.819 -2.5378 -2.2766  2.0123
  595MOL0     H82054   6.420   9.005   8.926  1.3635 -1.0373  1.8032
  595MOL0     H82055   6.315   9.172   8.772 -1.5084  0.1278 -1.5956
  595MOL0     H82056   6.338   9.007   8.694  2.0196 -0.0050  0.7250
  595MOL0     H82057   6.522   9.231   8.633  2.0424 -1.6308 -0.9562
  595MOL0     H82058   6.539   9.064   8.577 -1.4138 -0.6903 -0.7556
  595MOL0     H82059   6.415   9.367   8.422  0.1930  0.1388 -1.7590
  595MOL0     H82060   6.270   9.241   8.087  1.1315  2.4390 -0.1269
  595MOL0     H82061   6.307   9.395   8.157 -1.2431  0.0643 -1.3986
  595MOL0     H82062   6.052   9.231   8.192  0.8568 -0.1286  1.8552
  595MOL0     H82063   6.075   9.387   8.267 -2.9705  4.5647 -3.0935
  595MOL0     H82064   6.132   9.462   8.014  0.5391  0.3874  2.3340
  595MOL0     H82065   6.031   9.314   7.975 -0.2316 -1.1901  0.1181
  595MOL0     H82066   5.892   9.437   8.182 -4.5342  3.7060  0.0036
  595MOL0     H82067   5.962   9.566   8.112 -0.0469  0.1389 -0.4243
  595MOL0     H82068   5.707   9.446   7.759  0.2483  0.4498 -0.5631
  595MOL0     H82069   5.615   9.539   7.579 -0.5458 -1.0047  0.3754
  595MOL0     H82070   5.528   9.694   7.594  0.7356 -0.8550  0.4732
  595MOL0     H82071   5.447   9.531   7.620  0.0920 -1.0552 -0.9509
  595MOL0     H82072   5.083   9.838   7.788 -1.7685  1.1556 -0.0347
  595MOL0     H82073   4.947   9.997   7.691  1.3156  0.4366 -0.1777
  595MOL0     H82074   4.908  10.112   7.338 -1.9662 -1.7508 -0.6938
  595MOL0     H82075   4.860  10.020   7.472  0.9832  0.1627  0.7790
  595MOL0     H82076   4.821  10.259   7.587  1.7015  3.0198 -0.4880
  595MOL0     H82077   4.834  10.311   7.415 -2.7685 -1.4178 -2.4279
  595MOL0     H82078   4.592  10.236   7.512 -0.9348  0.7497 -1.8132
  595MOL0     H82079   4.658  10.077   7.508 -0.4599  0.9947  0.2476
  595MOL0     H82080   4.707  10.109   7.268 -0.9841 -0.4502 -0.2944
  595MOL0     H82081   4.649  10.277   7.288 -0.1772 -0.0834  1.5174
  595MOL0     H82082   4.478  10.118   7.181 -2.6144 -0.6004 -0.9897
  595MOL0     H82083   4.478  10.027   7.333 -0.8474  1.5345  1.6975
  595MOL0     H82084   4.378  10.320   7.331  3.0814 -0.9012 -1.6682
  595MOL0     H82085   4.377  10.199   7.458  0.5313 -1.7207  0.4816
  595MOL0     H82086   4.222  10.180   7.190 -0.8084  1.1094  0.6909
  595MOL0     H82087   4.149  10.234   7.339 -2.8734 -2.4718 -0.7445
  595MOL0     H82088   4.250   9.958   7.248 -0.2788 -2.5408  2.5311
  595MOL0     H82089   4.089  10.008   7.282 -0.3562  0.9187  0.1208
  595MOL0     H82090   5.297  10.123   7.463 -2.0815  0.7686 -0.6505
  595MOL0     H82091   5.435   9.976   7.590  0.9682  2.6542 -2.0526
  595MOL0     H82092   5.589   9.843   8.029 -1.4545 -1.1817  1.3905
  595MOL0     H82093   5.772   9.696   8.098 -0.1061  2.3712 -0.5450
  595MOL0     H82094   6.195   9.251   9.248  1.7244  1.2916  1.1496
  595MOL0     H82095   6.079   9.259   9.021 -0.7289  0.0470  1.1832
  595MOL0     H82096   5.920   9.487   8.767  1.8671  2.0376  1.4019
  595MOL0     H82097   5.733   9.554   8.616  0.1786 -1.1410  1.3998
  595MOL0     H82098   5.591   9.659   8.455  1.3714 -1.5072  2.1434
  595MOL0     H82099   5.691   9.777   8.538  0.6816  3.4277 -1.8958
  595MOL0     H82100   5.514   9.866   8.399 -0.5189 -1.5634 -0.3609
  595MOL0     H82101   5.595   9.819   8.248 -3.4171 -1.2462  0.3737
  595MOL0     H82102   5.733  10.004   8.449  0.8374  0.9164 -1.3209
  595MOL0     H82103   5.787   9.946   8.290 -0.1731 -0.9892 -1.4487
  595MOL0     H82104   5.643  10.091   8.184  1.0963  2.3199 -0.0764
  595MOL0     H82105   5.641  10.189   8.329 -1.1612  0.5359 -1.8312
  595MOL0     H82106   5.245  10.087   8.378 -0.9907  0.4416 -1.3586
  595MOL0     H82107   6.015   9.679   8.321  1.0428  2.5887  3.1048
  595MOL0     H82108   6.229   9.650   8.335  2.4984  0.3629 -0.4522
  595MOL0     H82109   6.301   9.676   8.496  0.5260 -1.6482  0.3265
  595MOL0     H82110   6.283   9.517   8.425 -0.7111 -0.3551 -0.7213
  596MOL0     O82111   8.287  10.597   0.417  0.4502  0.5338 -0.6328
  596MOL0     C82112   8.286  10.502   0.490  0.3042  0.1229 -0.0353
  596MOL0     O82113   8.387  10.465   0.570 -0.4890  0.5123  0.1694
  596MOL0     C82114   8.497  10.550   0.604  0.6415  0.7841  0.7900
  596MOL0     C82115   8.548  10.659   0.532  0.4043 -0.7247  1.1014
  596MOL0     C82116   8.664  10.724   0.571  0.0494 -0.3718  0.2344
  596MOL0     C82117   8.740  10.681   0.677  0.8834  0.9123  0.2986
  596MOL0     O82118   8.851  10.757   0.726 -0.1407 -0.1929 -0.4102
  596MOL0     C82119   8.951  10.812   0.644  0.8123 -0.3839  0.7522
  596MOL0     C82120   9.057  10.884   0.729 -0.3499  0.0656 -0.0760
  596MOL0     C82121   9.105  10.800   0.847  0.4869  0.0132  0.1253
  596MOL0     C82122   9.225  10.865   0.911  0.2710  1.4063  0.6183
  596MOL0     C82123   9.271  10.779   1.031 -0.4662  0.6625  0.3152
  596MOL0     C82124   9.413  10.816   1.068 -0.5721  0.8997 -0.3443
  596MOL0     C82125   9.460  10.728   1.189  0.6871  0.2711  0.7006
  596MOL0     C82126   9.394  10.776   1.322 -0.4743  0.6896  0.8793
  596MOL0     N82127   9.426  10.685   1.432 -0.4169  0.5945  0.2320
  596MOL0     C82128   9.539  10.683   1.513  0.4718 -0.1415 -0.2660
  596MOL0     C82129   9.510  10.593   1.616 -0.7200 -0.2119  0.4396
  596MOL0     C82130   9.604  10.558   1.727 -0.3440  0.1711  0.9952
  596MOL0     C82131   9.593  10.658   1.830 -0.2714 -0.0686  0.8066
  596MOL0     C82132   9.551  10.599   1.965 -0.0193  0.1788  0.2122
  596MOL0     C82133   9.546  10.700   2.063  0.4699 -0.1930 -1.5175
  596MOL0     O82134   9.533  10.623   2.190  0.2004 -0.1869 -0.8388
  596MOL0     C82135   9.562  10.666   2.316  0.7563 -1.0425  0.1341
  596MOL0     C82136   9.544  10.801   2.355 -0.0181 -1.1348  0.2661
  596MOL0     C82137   9.563  10.845   2.489  0.3958 -0.1949  1.1442
  596MOL0     C82138   9.523  10.996   2.526  1.0222  0.0744 -0.2429
  596MOL0     C82139   9.606  10.752   2.585 -0.3806  0.8594 -0.1022
  596MOL0     C82140   9.651  10.789   2.724  0.1402 -0.8729  0.0812
  596MOL0     O82141   9.700  10.915   2.744 -0.3809  0.3695 -0.2405
  596MOL0     C82142   9.710  10.968   2.864 -0.5286  0.4764  0.4318
  596MOL0     C82143   9.827  11.032   2.897  0.0497 -0.2852 -0.1815
  596MOL0     C82144   9.843  11.101   3.023  0.3678 -0.0700  0.7333
  596MOL0     C82145   9.738  11.112   3.119 -0.4280  0.0783  0.4980
  596MOL0     O82146   9.745  11.172   3.239 -0.3854 -0.1433  0.2888
  596MOL0     C82147   9.831  11.281   3.272  0.1100 -0.2849 -0.2232
  596MOL0     C82148   9.802  11.335   3.406 -0.2735 -0.6283  0.5858
  596MOL0     C82149   9.840  11.238   3.512 -0.3197  0.8356  0.2000
  596MOL0     C82150   9.833  11.295   3.657  0.6446 -0.3330  0.6610
  596MOL0     C82151   9.829  11.202   3.771 -1.0458 -0.0154 -1.1880
  596MOL0     C82152   9.973  11.136   3.785 -0.4175 -0.2332  0.4413
  596MOL0     C82153   9.971  11.025   3.897 -0.5224 -0.7358  0.4552
  596MOL0     C82154   9.973  11.069   4.041 -0.0826 -0.0730 -0.4901
  596MOL0    Cl82155  10.126  11.140   4.075  0.0683 -0.7825  0.2398
  596MOL0     C82156   9.622  11.044   3.089 -0.7900  0.4228 -0.4004
  596MOL0     C82157   9.610  10.973   2.968  0.4821 -0.3031  0.9973
  596MOL0     O82158   9.656  10.706   2.809  1.7749  0.8910 -0.0639
  596MOL0     C82159   9.633  10.618   2.541  0.0839 -0.1345  0.4678
  596MOL0     C82160   9.612  10.576   2.406  0.2129  0.0616  0.0615
  596MOL0     N82161   9.382  10.543   1.593  0.2230 -0.1863  0.0150
  596MOL0     N82162   9.333  10.594   1.484  0.0001  0.1182 -0.0829
  596MOL0     C82163   8.692  10.580   0.748 -0.3974  0.6014  0.8962
  596MOL0     C82164   8.575  10.513   0.721  1.5419  0.6232  0.4815
  596MOL0     C82165   8.181  10.387   0.460  0.2470 -1.3639  0.3824
  596MOL0     C82166   8.226  10.262   0.432 -0.4095  0.3027 -0.3462
  596MOL0     C82167   8.148  10.150   0.425 -0.4225  0.8303 -0.0208
  596MOL0     C82168   8.012  10.163   0.429 -0.1978 -0.0325  0.1685
  596MOL0     O82169   7.924  10.058   0.393  0.3395 -0.0595  0.6270
  596MOL0     C82170   7.982   9.945   0.314 -0.3162 -0.4036 -0.4399
  596MOL0     C82171   7.879   9.835   0.313  0.5313  0.2480  0.5469
  596MOL0     C82172   7.832   9.810   0.460  0.4430  0.6699 -0.3539
  596MOL0     C82173   7.956   9.789   0.555  0.5372 -0.8093 -0.4776
  596MOL0     C82174   7.907   9.753   0.693 -0.8725 -0.1996 -0.0578
  596MOL0     C82175   7.878   9.720   0.811  0.3476 -0.4727 -0.3745
  596MOL0     C82176   7.954  10.290   0.444  0.6792 -0.8268 -0.1727
  596MOL0     C82177   8.037  10.407   0.456  0.1091 -0.3027  1.0203
  596MOL0     C82178   7.979  10.541   0.477  0.2567 -1.2864  0.0157
  596MOL0     H82179   8.492  10.695   0.446  0.2858 -1.3744  0.9031
  596MOL0     H82180   8.678  10.814   0.512  0.0162 -0.8119 -0.4493
  596MOL0     H82181   8.908  10.889   0.578  1.6476 -2.1044 -1.9844
  596MOL0     H82182   9.007  10.738   0.585  1.5165 -0.9169  2.0617
  596MOL0     H82183   9.150  10.893   0.673  2.2930 -2.3469  3.4434
  596MOL0     H82184   9.017  10.975   0.774 -0.0625 -0.5775  1.5928
  596MOL0     H82185   9.024  10.800   0.919 -2.8638  2.2421 -3.2227
  596MOL0     H82186   9.126  10.700   0.810  0.3994 -0.0190  0.1648
  596MOL0     H82187   9.309  10.885   0.844 -0.9881  1.4100 -1.0477
  596MOL0     H82188   9.188  10.963   0.942 -0.0529  1.8978 -1.1935
  596MOL0     H82189   9.265  10.671   1.015  1.4853  0.0945  2.8029
  596MOL0     H82190   9.202  10.786   1.117  0.4292  0.5243  1.0588
  596MOL0     H82191   9.488  10.807   0.988  2.9798 -0.1707  2.8191
  596MOL0     H82192   9.434  10.918   1.100  2.4012  1.5473 -3.6657
  596MOL0     H82193   9.568  10.747   1.190  0.5448  1.1289  1.5091
  596MOL0     H82194   9.441  10.625   1.160  0.6818 -0.1033  1.9843
  596MOL0     H82195   9.449  10.869   1.335  2.0312 -0.4533 -0.7378
  596MOL0     H82196   9.288  10.803   1.317 -0.2771  2.0480  3.0104
  596MOL0     H82197   9.631  10.741   1.505  1.0701 -1.3199 -3.2138
  596MOL0     H82198   9.708  10.547   1.697 -0.5514  1.5102 -0.3728
  596MOL0     H82199   9.570  10.462   1.765  1.4835 -2.1905 -2.7368
  596MOL0     H82200   9.693  10.703   1.829 -1.2621  2.3340  1.5639
  596MOL0     H82201   9.521  10.734   1.799  0.0216 -0.7125 -1.6588
  596MOL0     H82202   9.448  10.560   1.967  0.6409 -1.6047  1.1155
  596MOL0     H82203   9.625  10.526   1.998  1.7240  1.2877 -1.0247
  596MOL0     H82204   9.640  10.757   2.069  1.6857 -2.2312  1.4477
  596MOL0     H82205   9.462  10.769   2.057  1.8680  2.0706  1.8910
  596MOL0     H82206   9.515  10.871   2.277  1.6838 -1.7837 -1.0132
  596MOL0     H82207   9.612  11.058   2.539  1.6879 -0.5766 -1.4600
  596MOL0     H82208   9.455  10.991   2.611  1.3883  0.2266  0.0592
  596MOL0     H82209   9.458  11.030   2.445 -1.1877 -2.7455  0.1638
  596MOL0     H82210   9.903  11.021   2.821  0.5094  0.5545  0.1418
  596MOL0     H82211   9.939  11.143   3.050  1.6003 -1.9851 -0.3910
  596MOL0     H82212   9.930  11.235   3.281  0.2411  0.3588  2.2093
  596MOL0     H82213   9.837  11.358   3.195 -1.0747  0.2783  0.2373
  596MOL0     H82214   9.865  11.425   3.407  1.0582 -1.2760 -3.9916
  596MOL0     H82215   9.697  11.364   3.410 -0.3021 -0.7649  0.9404
  596MOL0     H82216   9.940  11.195   3.501 -0.1185 -0.1716  4.3636
  596MOL0     H82217   9.765  11.159   3.510 -0.0816  0.5828  1.0366
  596MOL0     H82218   9.733  11.338   3.668  0.1540 -1.9863  4.1329
  596MOL0     H82219   9.901  11.378   3.673 -2.2710  2.3667  0.0425
  596MOL0     H82220   9.822  11.257   3.865  0.0769 -0.2942 -0.9220
  596MOL0     H82221   9.750  11.128   3.755  0.9519 -2.8076  0.6840
  596MOL0     H82222  10.054  11.206   3.804  0.9843 -1.7040  0.1493
  596MOL0     H82223   9.990  11.085   3.689 -3.4459  0.5668 -0.6590
  596MOL0     H82224  10.059  10.963   3.874  0.4300  0.5642  0.4734
  596MOL0     H82225   9.883  10.962   3.879  0.2252 -1.8078  0.4164
  596MOL0     H82226   9.965  10.976   4.097  1.0160 -0.1923 -0.5000
  596MOL0     H82227   9.884  11.127   4.067  0.6330  1.8701 -2.0516
  596MOL0     H82228   9.547  11.031   3.167  0.5315 -0.3345  0.8007
  596MOL0     H82229   9.523  10.914   2.940 -0.9845  1.9643  0.4842
  596MOL0     H82230   9.674  10.547   2.613 -5.2140 -1.4116  2.6940
  596MOL0     H82231   9.629  10.472   2.381 -1.2700 -0.8079  2.3755
  596MOL0     H82232   8.745  10.527   0.827 -0.5488 -0.6400  0.1779
  596MOL0     H82233   8.541  10.426   0.775  3.1076  0.1529  0.7622
  596MOL0     H82234   8.333  10.254   0.442 -0.4862  0.9977  1.5952
  596MOL0     H82235   8.193  10.053   0.444  2.2255  1.8010 -0.8396
  596MOL0     H82236   7.998   9.967   0.208 -2.0344 -2.9208 -1.3121
  596MOL0     H82237   8.075   9.913   0.361 -1.8208  0.1035  3.2610
  596MOL0     H82238   7.927   9.744   0.275  1.4813  0.9752 -0.0538
  596MOL0     H82239   7.801   9.859   0.240  1.4658 -2.8648 -1.6643
  596MOL0     H82240   7.766   9.888   0.499 -0.1259  0.1218 -0.1936
  596MOL0     H82241   7.772   9.718   0.462  2.5518 -0.7887  0.1444
  596MOL0     H82242   8.004   9.886   0.569 -0.9785 -0.0587 -0.3078
  596MOL0     H82243   8.028   9.722   0.508  3.6444  0.4375  2.1278
  596MOL0     H82244   7.855   9.710   0.915 -1.9112 -1.7361 -0.9366
  596MOL0     H82245   7.846  10.294   0.437  0.5751  1.3857  1.3641
  596MOL0     H82246   8.007  10.589   0.571  0.2841  0.4951 -0.8712
  596MOL0     H82247   8.001  10.613   0.398  0.4826  0.5045  1.6459
  596MOL0     H82248   7.870  10.529   0.471  0.2395 -1.6544  0.9722
  597MOL0     O82249   1.253  10.797   1.993 -0.5416  0.0256 -0.6031
  597MOL0     C82250   1.223  10.914   1.983  1.1877 -0.3356  0.1746
  597MOL0     O82251   1.274  11.005   1.889 -0.0498  0.5498  0.1030
  597MOL0     C82252   1.346  10.950   1.780  0.7263 -0.1676 -0.6729
  597MOL0     C82253   1.307  10.829   1.714  0.0090  0.7908  0.9033
  597MOL0     C82254   1.377  10.779   1.601  0.0851 -0.3878 -0.0110
  597MOL0     C82255   1.473  10.861   1.537  0.6507  1.0108 -0.2976
  597MOL0     O82256   1.521  10.840   1.406 -0.7853 -0.4597  0.6119
  597MOL0     C82257   1.492  10.936   1.298 -0.4224  0.0099  0.0904
  597MOL0     C82258   1.342  10.925   1.261 -0.5645  0.5292 -0.6209
  597MOL0     C82259   1.302  11.027   1.153 -0.7748 -0.1790 -0.6993
  597MOL0     C82260   1.290  11.170   1.213  0.5404 -0.8474 -0.9175
  597MOL0     C82261   1.180  11.193   1.321 -0.1914  0.0768  0.4185
  597MOL0     C82262   1.160  11.335   1.371 -0.0574  0.2974  0.1624
  597MOL0     C82263   1.094  11.417   1.256 -0.3810 -0.1425 -0.5108
  597MOL0     C82264   1.111  11.566   1.292  0.7403 -1.2224 -0.0802
  597MOL0     N82265   1.008  11.617   1.381  0.0961  0.1000 -0.1441
  597MOL0     C82266   1.028  11.628   1.515  0.0945  0.3742  0.4469
  597MOL0     C82267   0.912  11.687   1.557 -0.3621 -0.3357  0.0364
  597MOL0     C82268   0.859  11.721   1.700  0.0899  0.2057  0.5482
  597MOL0     C82269   0.833  11.593   1.785  0.6653 -0.3212  0.2243
  597MOL0     C82270   0.737  11.625   1.904 -0.7430 -0.2285 -0.0527
  597MOL0     C82271   0.714  11.512   1.993 -0.1147  0.5884  0.2409
  597MOL0     O82272   0.612  11.546   2.082  0.7033 -1.0011  0.0984
  597MOL0     C82273   0.477  11.537   2.038  0.0382 -0.4201  0.1407
  597MOL0     C82274   0.439  11.482   1.918 -0.5452  0.0368 -0.5679
  597MOL0     C82275   0.307  11.474   1.888 -0.3734 -0.2263  1.2373
  597MOL0     C82276   0.267  11.453   1.739  0.2724 -0.2223 -0.7254
  597MOL0     C82277   0.202  11.502   1.981 -0.4859 -0.1844 -0.9363
  597MOL0     C82278   0.058  11.464   1.979  0.4639  0.9241  0.4503
  597MOL0     O82279  -0.029  11.551   2.033 -0.1082  0.7966  0.3305
  597MOL0     C82280  -0.155  11.512   2.066  0.3060  1.1234  0.0906
  597MOL0     C82281  -0.235  11.429   1.981  0.8652 -0.5674  0.1428
  597MOL0     C82282  -0.369  11.410   2.005 -0.1166  0.0763 -0.0202
  597MOL0     C82283  -0.431  11.477   2.107 -0.0521 -0.9692 -0.5434
  597MOL0     O82284  -0.564  11.467   2.113 -0.3615 -0.2985 -0.4230
  597MOL0     C82285  -0.651  11.584   2.115  0.0987  0.3023 -0.5224
  597MOL0     C82286  -0.800  11.549   2.088 -0.0081  0.6048  0.1702
  597MOL0     C82287  -0.902  11.648   2.131 -0.3979 -0.5679  0.5153
  597MOL0     C82288  -0.900  11.765   2.034  0.0663  0.7112  0.3907
  597MOL0     C82289  -1.009  11.870   2.074  0.2655 -0.3700  0.2472
  597MOL0     C82290  -0.948  11.986   2.164  0.0380  0.0447 -0.3503
  597MOL0     C82291  -1.062  12.081   2.209  0.1714 -0.6569 -0.0552
  597MOL0     C82292  -0.997  12.221   2.244 -0.5931  0.2626  1.0264
  597MOL0    Cl82293  -0.846  12.208   2.327 -0.2704 -0.1293  0.1187
  597MOL0     C82294  -0.350  11.547   2.202  0.3519  0.8700  1.0214
  597MOL0     C82295  -0.214  11.557   2.184 -0.2094  0.4658  0.3544
  597MOL0     O82296   0.036  11.357   1.927 -0.2227  0.1644  0.0233
  597MOL0     C82297   0.238  11.551   2.107  1.0468  0.1513  0.1177
  597MOL0     C82298   0.374  11.573   2.129  0.7886 -0.7849 -0.2224
  597MOL0     N82299   0.831  11.725   1.455 -1.1606  0.1598 -0.0741
  597MOL0     N82300   0.887  11.676   1.346  0.4110 -0.0653  0.3237
  597MOL0     C82301   1.503  10.980   1.597 -0.7705 -0.2325  0.5238
  597MOL0     C82302   1.452  11.020   1.722  1.0826 -0.0264 -0.6097
  597MOL0     C82303   1.112  10.979   2.063  0.7412 -0.3870  0.2851
  597MOL0     C82304   1.073  11.113   2.036  0.4619  0.1132  0.8790
  597MOL0     C82305   0.973  11.178   2.110  1.3972 -0.2907  0.4230
  597MOL0     C82306   0.911  11.104   2.213  0.7155  0.0968 -0.6593
  597MOL0     O82307   0.802  11.150   2.281  0.0327 -0.1995 -0.2210
  597MOL0     C82308   0.749  11.280   2.269 -0.1743 -0.4563  0.2795
  597MOL0     C82309   0.843  11.389   2.332 -0.2616  0.5522  0.3364
  597MOL0     C82310   0.861  11.357   2.480 -0.1203  0.3250  0.4802
  597MOL0     C82311   0.771  11.446   2.558  0.5986  0.2883 -0.5785
  597MOL0     C82312   0.789  11.414   2.697 -0.4000  0.5097 -0.5211
  597MOL0     C82313   0.813  11.406   2.814  0.0248  0.6474  0.0048
  597MOL0     C82314   0.958  10.976   2.241  0.2025  0.3476 -0.1179
  597MOL0     C82315   1.053  10.910   2.161  0.7424  0.3876 -1.2949
  597MOL0     C82316   1.064  10.761   2.198  0.6088  0.2388  0.5369
  597MOL0     H82317   1.239  10.755   1.756  0.0539  2.0797  3.4920
  597MOL0     H82318   1.357  10.685   1.552  0.8424 -0.7479  0.3569
  597MOL0     H82319   1.549  10.905   1.209  0.2876 -0.7922  0.8060
  597MOL0     H82320   1.532  11.032   1.333 -0.4202 -0.4578  1.4156
  597MOL0     H82321   1.331  10.825   1.219 -2.5080 -0.4621  2.0578
  597MOL0     H82322   1.288  10.943   1.354 -0.5116 -0.1075 -0.4665
  597MOL0     H82323   1.376  11.030   1.073 -0.0040 -0.0374  0.0067
  597MOL0     H82324   1.214  10.981   1.107  0.2290 -2.3965 -0.5348
  597MOL0     H82325   1.381  11.204   1.264 -1.2309  0.9940  1.2396
  597MOL0     H82326   1.269  11.241   1.132 -0.0523 -0.2652 -0.2731
  597MOL0     H82327   1.213  11.145   1.414  1.7822  0.3767 -0.0902
  597MOL0     H82328   1.085  11.149   1.291 -0.7312  0.4433  1.5080
  597MOL0     H82329   1.100  11.351   1.461  0.3058  1.7949  0.1681
  597MOL0     H82330   1.259  11.372   1.397  0.5005 -0.3620 -0.9397
  597MOL0     H82331   0.988  11.393   1.257 -0.5788  0.7052  0.2018
  597MOL0     H82332   1.147  11.410   1.160  1.0666 -1.9264  0.3523
  597MOL0     H82333   1.211  11.590   1.329  1.0914 -1.4969 -0.8398
  597MOL0     H82334   1.083  11.620   1.201  0.2814 -1.0751  0.1428
  597MOL0     H82335   1.112  11.596   1.576  2.5381  3.3390 -1.0944
  597MOL0     H82336   0.767  11.780   1.699  0.2861  0.5137  0.1955
  597MOL0     H82337   0.924  11.788   1.757  1.2058 -0.9320  0.6475
  597MOL0     H82338   0.787  11.511   1.729  0.8271 -0.8915  0.9212
  597MOL0     H82339   0.930  11.563   1.824  0.8616 -0.3252 -0.2628
  597MOL0     H82340   0.771  11.708   1.965 -2.8467 -0.2077  1.2040
  597MOL0     H82341   0.645  11.667   1.862  0.3435  1.1530 -1.1411
  597MOL0     H82342   0.690  11.422   1.937 -1.1663  1.2223 -0.3685
  597MOL0     H82343   0.803  11.485   2.052 -2.2292 -0.2779  3.2840
  597MOL0     H82344   0.507  11.451   1.839 -2.8709  0.8325 -3.0198
  597MOL0     H82345   0.263  11.348   1.710 -2.6533 -0.3161 -0.2951
  597MOL0     H82346   0.341  11.507   1.680 -0.9762  1.3586 -0.9254
  597MOL0     H82347   0.169  11.493   1.709 -0.2922  0.3772  1.6857
  597MOL0     H82348  -0.199  11.402   1.883  2.1948 -0.6146  0.6178
  597MOL0     H82349  -0.436  11.359   1.937 -0.7603 -2.3499  2.2779
  597MOL0     H82350  -0.661  11.627   2.215 -1.5098  0.3574 -0.6787
  597MOL0     H82351  -0.619  11.667   2.051  0.6207  1.7424  1.5263
  597MOL0     H82352  -0.809  11.530   1.981  0.3577  1.7583 -0.0897
  597MOL0     H82353  -0.820  11.454   2.139  0.9342  0.7396  0.8273
  597MOL0     H82354  -0.880  11.672   2.235 -0.6901 -1.1326  0.7150
  597MOL0     H82355  -1.004  11.610   2.125 -0.1962 -1.1158  0.4414
  597MOL0     H82356  -0.938  11.733   1.937 -0.2993  0.8157  0.5000
  597MOL0     H82357  -0.800  11.810   2.027  1.7500 -2.8331 -0.8404
  597MOL0     H82358  -1.029  11.925   1.982  4.4707  1.9510  0.4588
  597MOL0     H82359  -1.094  11.825   2.126 -1.2890  0.8381 -1.1502
  597MOL0     H82360  -0.865  12.038   2.115 -1.2579  0.6210 -2.0068
  597MOL0     H82361  -0.910  11.943   2.257 -1.9787 -0.6148  0.2104
  597MOL0     H82362  -1.111  12.045   2.300  0.5139  1.1404  0.8965
  597MOL0     H82363  -1.128  12.096   2.123  1.7144  2.3400 -0.8639
  597MOL0     H82364  -1.071  12.290   2.286  1.7194  1.9910  2.4520
  597MOL0     H82365  -0.963  12.275   2.155 -1.0502  1.6180  1.6495
  597MOL0     H82366  -0.394  11.596   2.288  2.6485  1.7496  1.7849
  597MOL0     H82367  -0.160  11.603   2.266 -0.6207 -1.8107  1.9751
  597MOL0     H82368   0.164  11.555   2.187  0.7284 -3.2540  0.1376
  597MOL0     H82369   0.394  11.612   2.228 -5.2637 -2.6614  2.1568
  597MOL0     H82370   1.572  11.055   1.560  2.7540 -1.3153  4.1025
  597MOL0     H82371   1.479  11.116   1.765  0.2530  0.8224 -1.9130
  597MOL0     H82372   1.108  11.177   1.955  0.5174  0.9490  1.5538
  597MOL0     H82373   0.952  11.278   2.071  0.1220 -0.8958 -0.4897
  597MOL0     H82374   0.733  11.309   2.165 -0.4000  0.2166  0.4935
  597MOL0     H82375   0.658  11.298   2.327 -0.6496  3.7315 -1.4027
  597MOL0     H82376   0.802  11.488   2.309  0.5966  0.5878 -1.2365
  597MOL0     H82377   0.946  11.380   2.295 -1.1241 -2.5983 -1.7484
  597MOL0     H82378   0.870  11.251   2.506 -1.0135  0.8424  3.1709
  597MOL0     H82379   0.962  11.387   2.508  0.5310 -1.6294  0.3885
  597MOL0     H82380   0.664  11.438   2.536  0.6170 -0.1923 -0.5247
  597MOL0     H82381   0.797  11.551   2.549  3.8940 -0.2193  1.1984
  597MOL0     H82382   0.844  11.382   2.913 -0.3799  0.4387  0.0833
  597MOL0     H82383   0.927  10.941   2.340 -0.2159  2.3762  0.5080
  597MOL0     H82384   1.038  10.705   2.107  1.6475 -1.1558  1.0522
  597MOL0     H82385   1.161  10.739   2.244  0.5846 -0.6330  0.2027
  597MOL0     H82386   0.990  10.740   2.275 -1.2512 -0.5730 -1.3601
  598MOL0     O82387   8.694   1.645   5.669 -1.0145  0.5922 -0.7913
  598MOL0     C82388   8.740   1.666   5.562  0.1890  0.0012 -0.2904
  598MOL0     O82389   8.724   1.591   5.455  0.0137 -0.0039 -0.8342
  598MOL0     C82390   8.670   1.463   5.472  0.3970  0.2952 -0.3900
  598MOL0     C82391   8.532   1.434   5.439 -0.5675 -0.7337  0.4159
  598MOL0     C82392   8.483   1.309   5.462 -0.0001 -0.3592 -0.7940
  598MOL0     C82393   8.557   1.209   5.515 -0.1480 -0.2571  1.0466
  598MOL0     O82394   8.491   1.096   5.538  0.1957  0.0052 -0.2429
  598MOL0     C82395   8.510   1.021   5.653  0.7928  0.1560 -0.6734
  598MOL0     C82396   8.558   0.881   5.612 -0.5571  0.7262  0.2473
  598MOL0     C82397   8.699   0.874   5.540  0.0318  1.6235 -0.7400
  598MOL0     C82398   8.757   0.732   5.527  1.1745 -0.5924 -0.4122
  598MOL0     C82399   8.868   0.733   5.431  0.3440 -0.2490 -0.2957
  598MOL0     C82400   8.931   0.591   5.445  0.3776  0.2537  0.3651
  598MOL0     C82401   9.020   0.579   5.325  0.3677 -0.3058 -0.1193
  598MOL0     C82402   9.071   0.436   5.298  0.2294 -1.1331 -0.1686
  598MOL0     N82403   9.145   0.377   5.409 -0.4988 -0.6522 -1.0343
  598MOL0     C82404   9.128   0.255   5.455  0.1065  1.0505  0.2877
  598MOL0     C82405   9.227   0.231   5.552  0.4420 -0.6683 -0.3821
  598MOL0     C82406   9.267   0.096   5.602  0.0655  0.1946  0.3687
  598MOL0     C82407   9.237   0.074   5.755 -1.0299  0.0913 -0.4289
  598MOL0     C82408   9.339   0.132   5.849 -0.0412 -0.8598  0.7814
  598MOL0     C82409   9.296   0.253   5.942  0.3132  0.2788  0.5245
  598MOL0     O82410   9.203   0.191   6.036 -0.7270  0.1047 -0.8587
  598MOL0     C82411   9.178   0.262   6.149  0.8100 -0.6502  0.6682
  598MOL0     C82412   9.160   0.404   6.160  0.0290  0.3616 -0.3323
  598MOL0     C82413   9.139   0.464   6.274  0.7200 -0.2470 -0.2773
  598MOL0     C82414   9.107   0.610   6.254  0.6601  0.6324 -1.0865
  598MOL0     C82415   9.112   0.391   6.390  0.1699  0.2629 -0.9536
  598MOL0     C82416   9.095   0.458   6.523 -0.2911  0.7383  1.3243
  598MOL0     O82417   9.068   0.366   6.622 -0.5462  0.5519  0.4025
  598MOL0     C82418   9.026   0.427   6.735 -0.7117  0.0218  0.4729
  598MOL0     C82419   8.909   0.499   6.740  0.5903 -0.1192 -0.0194
  598MOL0     C82420   8.860   0.560   6.858 -0.8144  1.0793 -0.1084
  598MOL0     C82421   8.937   0.555   6.972  0.4474  0.0686  0.1988
  598MOL0     O82422   8.908   0.624   7.082  1.0073 -0.2967  0.0550
  598MOL0     C82423   8.794   0.570   7.157 -0.5126  0.6456  0.0800
  598MOL0     C82424   8.810   0.420   7.212 -0.0730 -0.1899 -0.0257
  598MOL0     C82425   8.908   0.420   7.332 -0.1810  0.1975 -0.9425
  598MOL0     C82426   8.935   0.271   7.376  0.0783  0.1057  0.5911
  598MOL0     C82427   9.007   0.243   7.512 -1.3346  0.5096  0.0932
  598MOL0     C82428   8.925   0.292   7.631 -0.3370  0.3763 -0.1291
  598MOL0     C82429   8.940   0.198   7.754 -0.5444 -0.1131 -0.5887
  598MOL0     C82430   8.861   0.062   7.742  0.4738 -0.2541 -0.1986
  598MOL0    Cl82431   8.915  -0.058   7.628 -0.1957 -0.1586 -0.1951
  598MOL0     C82432   9.059   0.495   6.969  0.0107  0.3768 -1.0573
  598MOL0     C82433   9.103   0.420   6.859  0.6453 -0.3512  0.4720
  598MOL0     O82434   9.101   0.578   6.541 -0.9801 -0.3956  0.2667
  598MOL0     C82435   9.122   0.250   6.382 -0.5051 -0.6098 -0.4183
  598MOL0     C82436   9.145   0.187   6.259 -0.5227 -0.8775 -0.0241
  598MOL0     N82437   9.281   0.360   5.575 -0.3763  0.4276  0.4228
  598MOL0     N82438   9.227   0.443   5.491 -0.4482 -0.8914 -0.5461
  598MOL0     C82439   8.697   1.237   5.555  0.1743  0.0902  0.5573
  598MOL0     C82440   8.749   1.363   5.534  0.0261 -0.2944  0.1210
  598MOL0     C82441   8.819   1.794   5.546 -0.4421 -0.4612 -0.2889
  598MOL0     C82442   8.875   1.863   5.658  0.2019  1.1023 -0.3331
  598MOL0     C82443   8.968   1.961   5.633  0.1870 -0.1751  0.4579
  598MOL0     C82444   9.005   2.006   5.511  0.3298 -0.5032 -0.3576
  598MOL0     O82445   9.100   2.107   5.516 -0.2961 -0.1044  0.1424
  598MOL0     C82446   9.188   2.115   5.404 -0.2021  0.5534 -0.3193
  598MOL0     C82447   9.286   2.229   5.425  0.6838 -0.5111  0.7076
  598MOL0     C82448   9.401   2.257   5.326 -0.4390  1.2787 -0.3061
  598MOL0     C82449   9.344   2.297   5.184  0.0146  0.2469 -1.0290
  598MOL0     C82450   9.315   2.440   5.196  0.7357 -0.4010  0.4608
  598MOL0     C82451   9.281   2.553   5.219  0.2880  0.1486  0.4351
  598MOL0     C82452   8.947   1.952   5.397  0.3667 -0.4812  0.0024
  598MOL0     C82453   8.853   1.853   5.415 -0.4100 -0.1890  0.4231
  598MOL0     C82454   8.792   1.808   5.286  0.8046  0.0066 -0.0667
  598MOL0     H82455   8.467   1.509   5.395 -1.5675 -0.6112  2.0232
  598MOL0     H82456   8.382   1.287   5.429 -1.2512 -1.4709  3.1857
  598MOL0     H82457   8.414   1.023   5.705  0.7248  4.2441 -0.6936
  598MOL0     H82458   8.574   1.062   5.731 -0.5133  0.3797  0.3066
  598MOL0     H82459   8.574   0.821   5.703  4.3511  1.0146 -0.1671
  598MOL0     H82460   8.486   0.838   5.542  2.6190 -0.7647 -2.3563
  598MOL0     H82461   8.701   0.925   5.444 -0.4850  2.4320 -0.3320
  598MOL0     H82462   8.769   0.932   5.601 -2.1896  2.9693  0.6589
  598MOL0     H82463   8.793   0.689   5.621  0.4192 -1.4979 -0.5197
  598MOL0     H82464   8.677   0.669   5.487  0.4272  0.5516 -0.7671
  598MOL0     H82465   8.939   0.809   5.467 -1.7159  0.5214  2.5154
  598MOL0     H82466   8.841   0.758   5.328 -0.4747 -0.4846 -0.1394
  598MOL0     H82467   8.997   0.577   5.531  0.3506 -2.9843 -0.0033
  598MOL0     H82468   8.841   0.529   5.436 -1.4727  2.9817 -1.5375
  598MOL0     H82469   9.105   0.647   5.319 -0.8061  1.0296 -3.3652
  598MOL0     H82470   8.964   0.611   5.237  1.7245  0.0071 -0.9009
  598MOL0     H82471   8.982   0.381   5.268  1.0502 -2.2294 -0.6546
  598MOL0     H82472   9.142   0.448   5.216  0.0523 -0.3722 -0.2174
  598MOL0     H82473   9.069   0.174   5.413  1.1270  0.5444 -0.2225
  598MOL0     H82474   9.373   0.077   5.586 -0.1056  0.4485 -1.1817
  598MOL0     H82475   9.209   0.017   5.552  0.2604 -0.8187  1.6745
  598MOL0     H82476   9.137   0.115   5.776 -2.1312 -1.8273 -1.6609
  598MOL0     H82477   9.228  -0.034   5.770 -2.0828  0.0586 -1.1620
  598MOL0     H82478   9.372   0.052   5.916  1.5136  1.0137  2.4259
  598MOL0     H82479   9.436   0.146   5.801  0.3324  1.9301  2.1315
  598MOL0     H82480   9.380   0.307   5.986  1.8013 -1.4291 -0.0803
  598MOL0     H82481   9.235   0.319   5.881  2.2822  0.1432 -1.7508
  598MOL0     H82482   9.187   0.464   6.074 -1.7154 -1.5257 -2.3279
  598MOL0     H82483   9.022   0.641   6.315  0.5325 -0.4360 -0.6890
  598MOL0     H82484   9.099   0.630   6.147 -0.2098 -1.0773 -1.3760
  598MOL0     H82485   9.196   0.659   6.295  0.1598  0.3184  0.4277
  598MOL0     H82486   8.858   0.517   6.646  1.4617  1.1250 -0.2869
  598MOL0     H82487   8.765   0.611   6.871 -0.0331  3.1368 -1.7401
  598MOL0     H82488   8.776   0.626   7.249  3.5966 -1.8901  2.7596
  598MOL0     H82489   8.706   0.566   7.092 -1.3217 -3.3932  1.1743
  598MOL0     H82490   8.714   0.385   7.251 -1.9111  1.3603 -2.8479
  598MOL0     H82491   8.840   0.359   7.126 -1.5476 -3.8849  1.8348
  598MOL0     H82492   8.862   0.470   7.417 -1.4736 -0.1732 -1.4035
  598MOL0     H82493   9.010   0.450   7.303 -0.3783 -0.3424 -2.2712
  598MOL0     H82494   9.003   0.229   7.301  0.7854 -3.6245  3.0468
  598MOL0     H82495   8.839   0.218   7.381 -1.3196  2.3573 -0.6520
  598MOL0     H82496   9.022   0.136   7.529  1.6702  0.9077  0.5930
  598MOL0     H82497   9.110   0.280   7.514 -0.3486 -2.0941  1.3005
  598MOL0     H82498   8.821   0.312   7.607 -1.4051 -1.7192  2.2866
  598MOL0     H82499   8.969   0.388   7.660  0.5084 -0.3307  1.0595
  598MOL0     H82500   8.905   0.257   7.839  4.1220  1.5226  0.5237
  598MOL0     H82501   9.045   0.179   7.778  0.5522  1.4105 -3.7155
  598MOL0     H82502   8.758   0.097   7.731  0.0732 -1.6371 -1.1744
  598MOL0     H82503   8.857   0.009   7.838 -1.4243  2.5192  1.3867
  598MOL0     H82504   9.129   0.493   7.052 -0.4723  0.3547 -0.6423
  598MOL0     H82505   9.194   0.362   6.871  1.4926  1.1449  1.6576
  598MOL0     H82506   9.102   0.191   6.471  0.1542 -0.6614 -0.3038
  598MOL0     H82507   9.153   0.078   6.258 -0.1044 -0.8460 -1.4300
  598MOL0     H82508   8.761   1.159   5.596  0.3976 -1.5059 -2.5844
  598MOL0     H82509   8.849   1.391   5.564  0.2144 -1.2155  0.3722
  598MOL0     H82510   8.847   1.833   5.759 -0.2543  2.1364 -0.1397
  598MOL0     H82511   9.023   1.994   5.721 -1.3690  0.3754  1.2625
  598MOL0     H82512   9.235   2.016   5.402 -1.4314 -0.0471 -0.8115
  598MOL0     H82513   9.134   2.132   5.311  0.6867 -0.7266 -1.1090
  598MOL0     H82514   9.340   2.215   5.520  0.5763  1.1656  1.0464
  598MOL0     H82515   9.223   2.317   5.436  1.7400  0.3941 -0.2638
  598MOL0     H82516   9.462   2.340   5.363 -1.7793  0.3947  4.6412
  598MOL0     H82517   9.459   2.166   5.308 -1.4311  1.0197 -2.4371
  598MOL0     H82518   9.253   2.239   5.164 -0.4242  0.6123 -0.1263
  598MOL0     H82519   9.422   2.289   5.107  0.1393  0.2301 -0.9008
  598MOL0     H82520   9.241   2.651   5.235 -0.1121 -0.2100  1.7629
  598MOL0     H82521   8.964   1.981   5.294 -0.5915 -4.0761 -1.3380
  598MOL0     H82522   8.822   1.876   5.206  4.3074 -2.0510 -0.7479
  598MOL0     H82523   8.819   1.704   5.265 -1.9827 -0.7949 -0.0291
  598MOL0     H82524   8.683   1.812   5.286  0.5890 -1.8975 -3.5208
  599MOL0     O82525  11.257   0.432   9.517  0.1405 -0.3800  0.6778
  599MOL0     C82526  11.225   0.361   9.423  0.0807  0.2117  0.1809
  599MOL0     O82527  11.296   0.249   9.396  0.2479 -0.5306 -0.5284
  599MOL0     C82528  11.381   0.210   9.502  0.3520 -0.3083  0.6240
  599MOL0     C82529  11.342   0.102   9.585 -0.5331 -0.1326  0.8934
  599MOL0     C82530  11.442   0.052   9.674 -0.2755  0.0096 -0.3732
  599MOL0     C82531  11.554   0.131   9.701 -0.5499  0.6302 -0.8297
  599MOL0     O82532  11.646   0.115   9.807  0.6376 -0.0739  0.1261
  599MOL0     C82533  11.601   0.068   9.940  0.3084 -0.7420 -0.0990
  599MOL0     C82534  11.684  -0.048   9.976 -0.5283  1.2018 -0.2852
  599MOL0     C82535  11.842  -0.009   9.968 -0.1136 -0.3937  0.1572
  599MOL0     C82536  11.916  -0.141  10.005  0.2767  0.2356  0.3618
  599MOL0     C82537  12.065  -0.122  10.031  0.3216 -0.0002 -0.1636
  599MOL0     C82538  12.118  -0.238  10.107  1.0762  0.0839 -0.4187
  599MOL0     C82539  12.091  -0.231  10.262  0.3609 -0.2100 -0.9178
  599MOL0     C82540  12.168  -0.341  10.338  0.4662 -0.6026  0.0188
  599MOL0     N82541  12.308  -0.314  10.333 -0.9833  0.3944  0.8619
  599MOL0     C82542  12.394  -0.386  10.246 -0.2302  0.5684  0.0947
  599MOL0     C82543  12.520  -0.324  10.256  0.3918 -0.0093 -0.2628
  599MOL0     C82544  12.653  -0.368  10.214 -0.8552 -0.6325 -0.9004
  599MOL0     C82545  12.661  -0.381  10.061  0.8322 -0.5192 -0.5280
  599MOL0     C82546  12.680  -0.247   9.988 -0.7023  0.4201 -0.8022
  599MOL0     C82547  12.562  -0.150  10.014  0.2634 -1.1732  0.8966
  599MOL0     O82548  12.565  -0.037   9.926 -0.1909 -0.0599 -0.6535
  599MOL0     C82549  12.460   0.051   9.922 -0.4963 -0.4272 -1.2886
  599MOL0     C82550  12.396   0.090  10.038 -0.2325  0.2090  0.3381
  599MOL0     C82551  12.294   0.184  10.043  0.3429  0.3337  0.8927
  599MOL0     C82552  12.236   0.241  10.180  0.5218  0.3614  0.3342
  599MOL0     C82553  12.248   0.235   9.914  1.2098 -0.6514  0.3675
  599MOL0     C82554  12.123   0.323   9.889 -0.2717  0.8591  0.3725
  599MOL0     O82555  12.030   0.309   9.984 -0.1386 -0.4009 -0.4850
  599MOL0     C82556  11.932   0.405   9.981  0.3440 -0.6357  0.3921
  599MOL0     C82557  11.957   0.535  10.039 -0.8144  0.2007  0.3369
  599MOL0     C82558  11.862   0.633  10.039 -0.2581  0.1144  0.2225
  599MOL0     C82559  11.733   0.614   9.988 -0.2457  0.2589  0.6978
  599MOL0     O82560  11.626   0.704   9.991  0.3067  0.7869  0.3119
  599MOL0     C82561  11.615   0.788  10.100  0.5233  0.2594  0.5192
  599MOL0     C82562  11.472   0.845  10.124 -0.3181 -0.6501 -0.4076
  599MOL0     C82563  11.453   0.975  10.047  0.2128 -0.1428 -0.3396
  599MOL0     C82564  11.308   1.017  10.057  1.4983 -0.6962 -0.2097
  599MOL0     C82565  11.294   1.170  10.024 -0.0059  0.6673 -0.7102
  599MOL0     C82566  11.348   1.268  10.129 -0.6240  0.8823 -0.4684
  599MOL0     C82567  11.301   1.415  10.109  0.0111  0.8923  0.9155
  599MOL0     C82568  11.385   1.504  10.195  0.4209  0.4118 -0.1330
  599MOL0    Cl82569  11.294   1.645  10.228  0.6129  0.2442 -0.7529
  599MOL0     C82570  11.710   0.487   9.929 -0.8401 -1.0332  0.8825
  599MOL0     C82571  11.803   0.391   9.927 -1.1462  0.6549  0.2170
  599MOL0     O82572  12.117   0.406   9.800 -0.7668 -0.3028 -0.0069
  599MOL0     C82573  12.328   0.207   9.800  0.1841 -0.1286  0.4296
  599MOL0     C82574  12.433   0.121   9.807  0.1010  0.2592  0.4401
  599MOL0     N82575  12.503  -0.220  10.341 -0.0073 -0.3965 -0.2648
  599MOL0     N82576  12.378  -0.201  10.375 -0.2763 -0.2153 -0.5684
  599MOL0     C82577  11.584   0.234   9.623 -0.0264 -0.9199 -0.0302
  599MOL0     C82578  11.504   0.275   9.522  0.0753  0.4983 -0.1119
  599MOL0     C82579  11.104   0.402   9.351 -0.0526 -0.7416 -0.0709
  599MOL0     C82580  11.105   0.380   9.214 -0.7618  0.4706 -0.1018
  599MOL0     C82581  11.000   0.410   9.128  0.7271 -0.2939  0.8046
  599MOL0     C82582  10.896   0.483   9.184 -0.5577  0.6907  0.1068
  599MOL0     O82583  10.804   0.501   9.086 -0.6684 -0.2425 -0.8025
  599MOL0     C82584  10.683   0.567   9.125 -0.0109 -0.5774 -0.2427
  599MOL0     C82585  10.612   0.599   9.000  0.2641  0.6254  0.1526
  599MOL0     C82586  10.496   0.694   9.022  0.5867 -0.0399 -0.1604
  599MOL0     C82587  10.495   0.830   8.948 -0.5729  0.5690  0.4890
  599MOL0     C82588  10.388   0.914   8.994  0.2658  0.1696 -0.8330
  599MOL0     C82589  10.310   0.986   9.043  0.3774 -0.1227 -0.7373
  599MOL0     C82590  10.891   0.515   9.320 -1.2601  0.0492 -0.6014
  599MOL0     C82591  10.995   0.477   9.398  1.8575  0.0187  0.3565
  599MOL0     C82592  10.980   0.525   9.539  0.5932  0.5223  0.0907
  599MOL0     H82593  11.247   0.049   9.581 -0.3103 -0.5813  1.4008
  599MOL0     H82594  11.418  -0.034   9.735 -2.5723  1.5147  1.0206
  599MOL0     H82595  11.494   0.046   9.954  0.4619 -2.0830 -0.8445
  599MOL0     H82596  11.620   0.155  10.004 -0.2500 -1.4653  1.1080
  599MOL0     H82597  11.651  -0.090  10.071  0.6750 -2.6910 -1.3913
  599MOL0     H82598  11.680  -0.127   9.900  3.3379  0.9174 -0.3894
  599MOL0     H82599  11.878   0.027   9.871 -1.2108  0.3102  0.0035
  599MOL0     H82600  11.870   0.063  10.045 -2.1621 -0.9487  1.4875
  599MOL0     H82601  11.865  -0.178  10.094  0.5383 -0.2540  0.3127
  599MOL0     H82602  11.902  -0.219   9.929  4.4504 -2.2311  1.7834
  599MOL0     H82603  12.069  -0.022  10.076 -2.1638  1.9026 -3.6299
  599MOL0     H82604  12.120  -0.119   9.936  1.5694  0.0152  0.5448
  599MOL0     H82605  12.077  -0.328  10.060  0.4980  0.6497 -1.0120
  599MOL0     H82606  12.225  -0.243  10.084  1.4415  1.1681  0.8892
  599MOL0     H82607  11.983  -0.239  10.280  0.7064 -4.1725  0.1420
  599MOL0     H82608  12.121  -0.130  10.293 -2.3251  0.4204 -0.0715
  599MOL0     H82609  12.134  -0.344  10.442 -0.2138 -2.3440 -0.2158
  599MOL0     H82610  12.143  -0.443  10.308 -0.3475 -0.9499  1.6889
  599MOL0     H82611  12.366  -0.478  10.194 -0.2592 -0.0717  1.2077
  599MOL0     H82612  12.680  -0.463  10.262 -1.0793  0.3262  1.2182
  599MOL0     H82613  12.716  -0.289  10.255 -2.4172  0.4800 -0.5731
  599MOL0     H82614  12.735  -0.458  10.035  2.9585  0.9021  0.9481
  599MOL0     H82615  12.563  -0.419  10.031  0.7744 -1.4240  0.7295
  599MOL0     H82616  12.776  -0.209  10.022 -1.3809  1.5473 -0.0718
  599MOL0     H82617  12.689  -0.272   9.882  0.4988 -0.0920 -0.5910
  599MOL0     H82618  12.469  -0.206  10.003 -0.7153  0.6670 -0.8535
  599MOL0     H82619  12.578  -0.107  10.113  2.8986 -1.6329  0.7572
  599MOL0     H82620  12.417   0.044  10.134 -1.2366 -1.0826 -0.0406
  599MOL0     H82621  12.297   0.197  10.259  0.9011 -0.0856 -0.1961
  599MOL0     H82622  12.130   0.220  10.198  0.9927 -1.9965  0.6136
  599MOL0     H82623  12.255   0.349  10.171  1.0078  0.1180 -3.9619
  599MOL0     H82624  12.057   0.562  10.070 -1.0521  0.6269  0.7390
  599MOL0     H82625  11.878   0.726  10.094  0.2610  0.4518 -0.4845
  599MOL0     H82626  11.639   0.734  10.192 -1.4253 -1.3314  0.1480
  599MOL0     H82627  11.688   0.869  10.086  2.0168 -0.9014  1.2786
  599MOL0     H82628  11.395   0.776  10.089  0.0107 -0.0196 -2.5010
  599MOL0     H82629  11.449   0.872  10.227 -1.5012  3.1172 -1.5050
  599MOL0     H82630  11.483   0.949   9.945  0.0511 -1.1277 -0.1513
  599MOL0     H82631  11.518   1.057  10.077 -1.1812  0.8235  0.1248
  599MOL0     H82632  11.260   0.997  10.153 -5.4026  0.5125 -2.8212
  599MOL0     H82633  11.238   0.959   9.996 -1.9221  1.9389  0.8955
  599MOL0     H82634  11.348   1.195   9.932 -0.3732 -0.4696 -1.2405
  599MOL0     H82635  11.188   1.183  10.004 -0.6945 -2.8673  0.0035
  599MOL0     H82636  11.457   1.268  10.130 -0.6284  0.3690  0.5531
  599MOL0     H82637  11.313   1.243  10.230  0.9539 -0.9431 -0.3258
  599MOL0     H82638  11.194   1.432  10.122 -0.4598 -1.2459  0.2466
  599MOL0     H82639  11.322   1.443  10.005 -3.1950  3.2563  0.7536
  599MOL0     H82640  11.484   1.534  10.158  0.4966 -0.4507 -0.6382
  599MOL0     H82641  11.395   1.472  10.299 -0.6244  0.3251 -0.0455
  599MOL0     H82642  11.615   0.460   9.884  1.1334 -2.2159 -3.0572
  599MOL0     H82643  11.787   0.296   9.876  0.4504  0.7209 -0.4541
  599MOL0     H82644  12.306   0.247   9.702  0.4257  1.1237  0.8750
  599MOL0     H82645  12.501   0.090   9.728 -0.6479 -0.3933  0.0400
  599MOL0     H82646  11.669   0.297   9.649 -0.2106 -0.5624 -0.2849
  599MOL0     H82647  11.540   0.357   9.461 -1.6269  1.6087  0.3055
  599MOL0     H82648  11.189   0.327   9.171 -3.1028 -3.4345 -0.3776
  599MOL0     H82649  11.014   0.383   9.024  1.2242  0.8718  0.5591
  599MOL0     H82650  10.619   0.500   9.182  0.0469 -0.6289 -0.2388
  599MOL0     H82651  10.700   0.655   9.188  0.5020 -0.4142 -0.5980
  599MOL0     H82652  10.571   0.504   8.962 -1.3219  0.8708  1.1209
  599MOL0     H82653  10.677   0.637   8.922  1.9644 -2.9171 -0.3674
  599MOL0     H82654  10.411   0.629   9.001  0.4072 -0.2907  1.2954
  599MOL0     H82655  10.487   0.720   9.128  3.4478  4.3483 -0.6981
  599MOL0     H82656  10.484   0.814   8.840 -0.4277 -0.4588  0.6106
  599MOL0     H82657  10.592   0.865   8.985  1.2323 -3.2819 -0.0822
  599MOL0     H82658  10.254   1.064   9.091  0.8753 -1.6763  2.6726
  599MOL0     H82659  10.805   0.562   9.368  0.2688  0.2855  2.1020
  599MOL0     H82660  10.995   0.633   9.544  2.4316  0.4286 -1.8543
  599MOL0     H82661  10.880   0.485   9.561  2.0952 -3.9549 -0.0579
  599MOL0     H82662  11.046   0.488   9.619  1.7302  1.2357 -0.4924
  600MOL0     O82663   7.142   4.226  11.393  0.2614  0.2219 -0.2834
  600MOL0     C82664   7.069   4.325  11.385 -0.3524 -0.5340  0.5230
  600MOL0     O82665   7.078   4.420  11.282  0.4009  0.3245  0.2643
  600MOL0     C82666   7.195   4.446  11.208 -1.0753  0.2227 -0.6359
  600MOL0     C82667   7.272   4.338  11.155  0.3571  0.4224  0.5206
  600MOL0     C82668   7.391   4.368  11.091  0.5324  0.5356 -0.3585
  600MOL0     C82669   7.435   4.501  11.092 -0.4874  0.7714  0.5248
  600MOL0     O82670   7.555   4.541  11.046 -0.4653  0.3185  0.1943
  600MOL0     C82671   7.662   4.529  11.148 -0.8011 -0.0799 -0.2030
  600MOL0     C82672   7.760   4.637  11.114  0.5611 -0.6969 -0.0873
  600MOL0     C82673   7.706   4.775  11.153  1.1357 -0.0434  1.3408
  600MOL0     C82674   7.737   4.814  11.289 -0.1816 -0.3950  0.6222
  600MOL0     C82675   7.719   4.958  11.314 -0.2580 -0.1830 -0.3171
  600MOL0     C82676   7.758   4.991  11.464 -0.9548 -0.8303  0.1073
  600MOL0     C82677   7.902   5.052  11.475  0.7528 -0.8394  0.2210
  600MOL0     C82678   8.019   4.957  11.439 -0.7135 -0.2096 -0.5362
  600MOL0     N82679   8.028   4.834  11.506  0.0357 -0.3324  0.0529
  600MOL0     C82680   8.125   4.740  11.486 -0.1826  0.3560 -0.0153
  600MOL0     C82681   8.101   4.640  11.568  0.7927  0.4681 -0.6080
  600MOL0     C82682   8.166   4.501  11.562  0.5956  0.7502 -0.0286
  600MOL0     C82683   8.259   4.502  11.684  0.0163  0.0017  0.0688
  600MOL0     C82684   8.383   4.400  11.678  0.4410 -0.4324  0.2808
  600MOL0     C82685   8.339   4.250  11.642 -0.1041  0.2716 -0.5221
  600MOL0     O82686   8.465   4.180  11.630 -0.5629 -0.2874  0.2181
  600MOL0     C82687   8.493   4.109  11.520 -0.2458  0.7128 -0.1103
  600MOL0     C82688   8.425   3.985  11.494 -0.0085  0.0549 -0.7153
  600MOL0     C82689   8.462   3.899  11.385  0.8414 -1.0529 -1.1824
  600MOL0     C82690   8.366   3.790  11.346  0.1244 -0.4744  0.4155
  600MOL0     C82691   8.571   3.944  11.304  0.4308  0.5660  0.5314
  600MOL0     C82692   8.611   3.870  11.178 -0.2262 -0.2649  0.6209
  600MOL0     O82693   8.689   3.943  11.101 -0.0439 -0.1142 -0.2879
  600MOL0     C82694   8.709   3.910  10.969 -0.6361 -0.0413  0.3341
  600MOL0     C82695   8.838   3.934  10.915  0.1535 -0.6913 -0.8903
  600MOL0     C82696   8.867   3.899  10.786  0.9954 -0.5055  0.2292
  600MOL0     C82697   8.771   3.834  10.707  1.1870 -0.7532  0.5072
  600MOL0     O82698   8.793   3.789  10.578  0.1792  0.1534  0.3123
  600MOL0     C82699   8.905   3.821  10.503 -0.0624  0.3567  0.6590
  600MOL0     C82700   9.012   3.706  10.519 -0.1806 -0.6123 -0.2542
  600MOL0     C82701   8.955   3.564  10.502 -0.3588 -1.0055  0.3150
  600MOL0     C82702   8.926   3.518  10.363 -0.2435 -0.1820 -0.9138
  600MOL0     C82703   9.045   3.472  10.279  0.6955  0.3988 -0.6584
  600MOL0     C82704   9.001   3.407  10.148  0.8305 -0.1390  0.1819
  600MOL0     C82705   9.107   3.370  10.043  0.4945 -0.2282 -1.1015
  600MOL0     C82706   9.160   3.226  10.064 -0.6231  0.1616  0.6199
  600MOL0    Cl82707   9.254   3.178   9.917 -0.6075  0.0835  0.3733
  600MOL0     C82708   8.657   3.793  10.765  0.4672  0.0159 -0.0962
  600MOL0     C82709   8.620   3.834  10.892  0.8159  0.4256  0.2849
  600MOL0     O82710   8.575   3.755  11.156  0.8486 -0.1537 -0.2060
  600MOL0     C82711   8.642   4.061  11.340 -1.2361  0.7641 -0.5822
  600MOL0     C82712   8.603   4.146  11.449  0.1338 -0.2907 -0.2369
  600MOL0     N82713   7.991   4.667  11.648 -0.1914  0.0270 -0.1052
  600MOL0     N82714   7.952   4.780  11.602 -0.4641 -0.6211 -0.1056
  600MOL0     C82715   7.354   4.605  11.127  0.0964  0.3040  0.4360
  600MOL0     C82716   7.235   4.574  11.184  0.0328  0.0753 -0.4789
  600MOL0     C82717   6.968   4.368  11.487  1.7250  0.7827 -0.3286
  600MOL0     C82718   6.952   4.505  11.513 -0.1594 -0.0421  0.1063
  600MOL0     C82719   6.879   4.545  11.621 -0.3469  0.5307  0.0845
  600MOL0     C82720   6.821   4.455  11.707 -0.3080  0.7007 -0.6642
  600MOL0     O82721   6.738   4.510  11.798  0.4094 -0.6567  0.0215
  600MOL0     C82722   6.677   4.437  11.901 -0.0456 -0.1542  0.7539
  600MOL0     C82723   6.534   4.405  11.853  0.9749 -0.1997 -0.0635
  600MOL0     C82724   6.450   4.537  11.871 -0.0290  0.1446  0.5121
  600MOL0     C82725   6.367   4.553  11.997  1.1445  0.9389  0.1798
  600MOL0     C82726   6.339   4.692  12.025  0.3749  0.0670 -0.8409
  600MOL0     C82727   6.330   4.804  12.056 -0.0225 -0.3932  0.8814
  600MOL0     C82728   6.830   4.323  11.683  0.1407  0.1025 -0.0372
  600MOL0     C82729   6.891   4.283  11.568  0.5744  0.4092  0.0800
  600MOL0     C82730   6.891   4.132  11.543 -0.5268 -0.1389 -0.2544
  600MOL0     H82731   7.230   4.238  11.159  2.4748 -0.5413 -0.1853
  600MOL0     H82732   7.450   4.287  11.049  2.5790  0.7559  1.8720
  600MOL0     H82733   7.706   4.429  11.146  2.3300  1.1879 -0.4674
  600MOL0     H82734   7.623   4.549  11.248 -1.7882  2.0542 -0.9409
  600MOL0     H82735   7.856   4.624  11.164  0.4933  0.6794  0.4322
  600MOL0     H82736   7.766   4.634  11.005 -0.7434  1.7291 -0.3155
  600MOL0     H82737   7.755   4.846  11.086  0.8951 -1.0936  0.0048
  600MOL0     H82738   7.599   4.778  11.134  1.3898  1.0207 -0.0706
  600MOL0     H82739   7.672   4.765  11.363 -0.6051  3.9497  3.5057
  600MOL0     H82740   7.843   4.789  11.305 -0.1027 -0.5696 -0.1341
  600MOL0     H82741   7.619   4.987  11.281  0.0419 -1.3778 -2.4725
  600MOL0     H82742   7.791   5.000  11.243  1.0850  1.0734  1.6829
  600MOL0     H82743   7.695   5.065  11.514  2.8275  1.0853  2.5311
  600MOL0     H82744   7.750   4.907  11.533 -2.6828 -0.7473  0.0570
  600MOL0     H82745   7.924   5.064  11.581 -0.1114 -3.6475  0.7967
  600MOL0     H82746   7.906   5.138  11.407  0.7895 -0.4202  0.7519
  600MOL0     H82747   8.007   4.951  11.330 -0.3842  0.8762 -0.6429
  600MOL0     H82748   8.112   5.011  11.461  0.1165  0.0253 -3.9967
  600MOL0     H82749   8.217   4.737  11.429  0.5672 -2.8885  1.1602
  600MOL0     H82750   8.216   4.494  11.466  0.9864  3.3116 -0.0805
  600MOL0     H82751   8.086   4.429  11.578  0.1591  0.7263 -2.0958
  600MOL0     H82752   8.305   4.601  11.694 -0.1652  0.3933 -2.4375
  600MOL0     H82753   8.200   4.473  11.772 -1.9486 -1.1860 -1.5641
  600MOL0     H82754   8.452   4.428  11.597 -3.0399  1.3780 -2.3424
  600MOL0     H82755   8.438   4.402  11.772  1.6157  0.6253 -0.3837
  600MOL0     H82756   8.284   4.210  11.727  0.9990 -1.6465 -0.6292
  600MOL0     H82757   8.278   4.245  11.551 -0.4689 -0.0114 -0.2635
  600MOL0     H82758   8.337   3.969  11.555  0.7335 -0.8820  0.1252
  600MOL0     H82759   8.269   3.809  11.395 -0.9998 -0.8946 -1.5601
  600MOL0     H82760   8.403   3.691  11.373  0.2505 -0.6499 -0.3874
  600MOL0     H82761   8.336   3.790  11.241  3.6433 -0.6503 -0.7033
  600MOL0     H82762   8.918   3.974  10.976  0.2116 -2.3659  0.2028
  600MOL0     H82763   8.965   3.904  10.739  0.4044 -3.3613 -1.5713
  600MOL0     H82764   8.897   3.828  10.394  0.3842  0.4897  0.6326
  600MOL0     H82765   8.935   3.920  10.539  0.6551  0.3345  0.1525
  600MOL0     H82766   9.097   3.713  10.451  1.7323 -0.0092  2.0543
  600MOL0     H82767   9.066   3.707  10.614 -0.7396 -1.4814  0.0863
  600MOL0     H82768   8.860   3.554  10.556 -1.3792 -1.1808 -1.4453
  600MOL0     H82769   9.024   3.495  10.551  0.4545 -3.3392 -3.7126
  600MOL0     H82770   8.872   3.595  10.307  1.7942 -0.3515 -3.3069
  600MOL0     H82771   8.864   3.429  10.368  1.5705 -1.4367  0.9680
  600MOL0     H82772   9.092   3.566  10.247 -0.5008  2.4472  2.9848
  600MOL0     H82773   9.115   3.409  10.334 -0.5391  0.5455  1.1446
  600MOL0     H82774   8.913   3.454  10.104  0.1887 -1.2154  0.2744
  600MOL0     H82775   8.965   3.310  10.184 -0.1677  0.8815  2.1194
  600MOL0     H82776   9.186   3.445  10.041 -2.7429  3.5821  0.0215
  600MOL0     H82777   9.061   3.381   9.944 -0.7948 -1.6361 -0.7068
  600MOL0     H82778   9.080   3.152  10.072  0.3662 -1.3750 -2.0382
  600MOL0     H82779   9.225   3.221  10.152  2.3812 -0.9741 -1.4912
  600MOL0     H82780   8.599   3.719  10.712 -0.8498  0.5910  0.5021
  600MOL0     H82781   8.522   3.812  10.931  0.2579  1.2215 -0.6088
  600MOL0     H82782   8.729   4.101  11.290  0.7609 -0.5502  1.6157
  600MOL0     H82783   8.665   4.232  11.470 -1.9446  0.5714  3.2395
  600MOL0     H82784   7.391   4.706  11.135  1.6516 -0.1055 -1.1208
  600MOL0     H82785   7.177   4.656  11.223 -0.6457 -1.2425  1.4254
  600MOL0     H82786   6.999   4.580  11.451  1.6805 -2.9908 -2.3551
  600MOL0     H82787   6.857   4.650  11.637  1.1532  1.1703 -1.6527
  600MOL0     H82788   6.738   4.348  11.918 -1.8301 -1.7637 -0.7537
  600MOL0     H82789   6.679   4.496  11.993  0.4215  0.2349  0.4976
  600MOL0     H82790   6.489   4.335  11.924 -2.1801 -0.0983 -1.8108
  600MOL0     H82791   6.518   4.373  11.750  1.2001  1.8185 -0.7718
  600MOL0     H82792   6.516   4.624  11.872 -0.0811  0.2782 -1.7933
  600MOL0     H82793   6.385   4.544  11.783  0.9277 -0.2454 -0.2353
  600MOL0     H82794   6.411   4.496  12.080 -1.5580 -1.7792 -0.0619
  600MOL0     H82795   6.270   4.502  11.995  0.3046  2.4828 -0.5130
  600MOL0     H82796   6.319   4.907  12.084 -1.5189 -0.3457  0.1792
  600MOL0     H82797   6.779   4.252  11.748  1.0558  0.1542  0.7513
  600MOL0     H82798   6.965   4.093  11.613 -0.6721 -0.3974 -0.2450
  600MOL0     H82799   6.795   4.089  11.574  0.2636 -0.7133  1.5222
  600MOL0     H82800   6.915   4.100  11.441  0.3343 -0.6463  0.0977
  601MOL0     O82801  10.459   6.698   6.844  0.1503  0.1273 -0.1052
  601MOL0     C82802  10.553   6.770   6.857 -0.9331 -0.8304  0.4069
  601MOL0     O82803  10.655   6.757   6.950  0.3499 -0.3508  0.3951
  601MOL0     C82804  10.659   6.657   7.035 -0.2485  0.5039  0.2005
  601MOL0     C82805  10.617   6.670   7.162  0.4367 -0.8683  0.7624
  601MOL0     C82806  10.639   6.569   7.245  0.0760  0.3138  0.0988
  601MOL0     C82807  10.706   6.449   7.207  0.2551  0.1906 -0.3232
  601MOL0     O82808  10.735   6.340   7.283  0.5036 -0.5383 -0.5063
  601MOL0     C82809  10.638   6.315   7.388 -0.7715  0.3906 -0.2748
  601MOL0     C82810  10.705   6.236   7.499 -1.0586 -0.2599 -0.4974
  601MOL0     C82811  10.602   6.147   7.576 -0.1188 -0.2726  0.3010
  601MOL0     C82812  10.532   6.226   7.686 -0.6725  0.1221  0.1640
  601MOL0     C82813  10.420   6.141   7.735  0.6304 -0.7172  0.1669
  601MOL0     C82814  10.471   6.041   7.825 -0.6831  0.6042 -0.3215
  601MOL0     C82815  10.367   5.941   7.859  0.2146 -0.0288  0.2434
  601MOL0     C82816  10.325   5.844   7.746  0.1770 -0.7218 -0.5177
  601MOL0     N82817  10.204   5.777   7.791 -0.4492  0.9321 -0.4196
  601MOL0     C82818  10.208   5.675   7.883  0.2167  0.9874 -0.2314
  601MOL0     C82819  10.075   5.649   7.924 -0.2059 -0.9802 -0.3675
  601MOL0     C82820  10.035   5.548   8.021  0.7625  0.1821 -0.3244
  601MOL0     C82821  10.110   5.414   7.993  0.0130 -0.9821 -0.0689
  601MOL0     C82822  10.018   5.287   7.990 -0.7502  0.6538 -0.7894
  601MOL0     C82823   9.915   5.306   7.872 -0.2088 -0.3105 -0.9903
  601MOL0     O82824   9.989   5.300   7.753  0.1940 -0.3243 -0.1526
  601MOL0     C82825   9.913   5.298   7.641 -1.1652  0.3528  0.4695
  601MOL0     C82826   9.973   5.389   7.546  0.2453 -1.1830  0.1650
  601MOL0     C82827   9.924   5.404   7.414  0.7253 -1.0531 -0.2950
  601MOL0     C82828   9.998   5.493   7.326 -0.0722 -0.6256 -0.0199
  601MOL0     C82829   9.801   5.337   7.382 -1.2642 -0.3062  0.3090
  601MOL0     C82830   9.738   5.369   7.258  0.2058 -0.7252 -0.0649
  601MOL0     O82831   9.669   5.257   7.205 -1.1874 -0.0403 -0.2078
  601MOL0     C82832   9.584   5.294   7.108  0.1139 -0.1803  0.0266
  601MOL0     C82833   9.629   5.305   6.973 -0.3571 -0.3299 -0.0059
  601MOL0     C82834   9.534   5.333   6.880  0.6390 -0.3500  0.1193
  601MOL0     C82835   9.399   5.358   6.904 -0.3728 -0.0780 -0.0174
  601MOL0     O82836   9.309   5.385   6.807 -0.0918  0.8835  0.2884
  601MOL0     C82837   9.344   5.417   6.683  0.7434  0.4892  0.4295
  601MOL0     C82838   9.231   5.504   6.627  0.5545 -0.0239 -0.4375
  601MOL0     C82839   9.092   5.448   6.630  0.1520  0.1560 -0.0494
  601MOL0     C82840   9.032   5.441   6.769  0.0720  0.1164  0.3079
  601MOL0     C82841   8.879   5.414   6.758  0.3178  0.6397  0.1133
  601MOL0     C82842   8.807   5.402   6.892 -0.2999  0.6053 -0.8294
  601MOL0     C82843   8.807   5.536   6.970  0.2189  0.6350  0.9861
  601MOL0     C82844   8.700   5.553   7.085 -0.1242  0.5232 -0.3679
  601MOL0    Cl82845   8.702   5.719   7.170  0.1017 -0.4699  0.1106
  601MOL0     C82846   9.363   5.353   7.041 -0.4546  0.6794 -0.7788
  601MOL0     C82847   9.453   5.324   7.142 -0.0648 -0.1885  0.1871
  601MOL0     O82848   9.750   5.478   7.203  0.3763 -0.3165 -0.3740
  601MOL0     C82849   9.755   5.235   7.476  0.8078 -0.9111  0.0980
  601MOL0     C82850   9.810   5.208   7.607  0.6108 -0.6214 -0.4299
  601MOL0     N82851   9.995   5.739   7.845 -0.5047  0.8369  1.1025
  601MOL0     N82852  10.070   5.814   7.776 -0.5846  0.5288 -0.2201
  601MOL0     C82853  10.765   6.445   7.087  0.2725 -0.4667  1.4225
  601MOL0     C82854  10.737   6.548   6.994  0.4312 -0.2401  0.1852
  601MOL0     C82855  10.556   6.888   6.763 -1.4087 -0.5338  1.2897
  601MOL0     C82856  10.493   6.867   6.635  0.1888 -0.2148  0.3158
  601MOL0     C82857  10.482   6.960   6.534  0.0481  0.2541 -0.7053
  601MOL0     C82858  10.532   7.082   6.553 -0.6311 -0.1141 -0.4390
  601MOL0     O82859  10.517   7.174   6.451  0.3407  0.1075  0.0475
  601MOL0     C82860  10.624   7.266   6.433 -0.4653 -0.3054 -0.1597
  601MOL0     C82861  10.620   7.309   6.281 -0.4580 -1.1946 -0.6575
  601MOL0     C82862  10.490   7.377   6.243  0.0247 -0.0936 -0.7989
  601MOL0     C82863  10.369   7.289   6.215 -0.0940 -0.0297 -0.1719
  601MOL0     C82864  10.267   7.379   6.163 -0.7181 -0.5010 -0.8983
  601MOL0     C82865  10.187   7.447   6.102  0.4415 -0.4018 -0.1418
  601MOL0     C82866  10.602   7.115   6.674 -0.8186  0.9069  0.4094
  601MOL0     C82867  10.626   7.016   6.773 -0.2625 -0.6282  0.1657
  601MOL0     C82868  10.716   7.058   6.878 -0.3589  0.6289 -0.2546
  601MOL0     H82869  10.561   6.752   7.206  1.3700 -0.5542  1.3809
  601MOL0     H82870  10.587   6.590   7.338 -0.0330  0.9002 -0.0892
  601MOL0     H82871  10.558   6.250   7.353 -1.3478  0.1750  1.3810
  601MOL0     H82872  10.593   6.400   7.440 -1.3935 -1.5762  2.5993
  601MOL0     H82873  10.775   6.174   7.441 -2.0357  2.7353 -5.4810
  601MOL0     H82874  10.752   6.302   7.572 -1.9079  1.6685 -1.6440
  601MOL0     H82875  10.528   6.106   7.507 -0.0097 -1.3594  0.8049
  601MOL0     H82876  10.659   6.060   7.610 -0.3463 -0.9196 -0.9094
  601MOL0     H82877  10.602   6.241   7.768 -0.0062  1.5128 -0.6309
  601MOL0     H82878  10.492   6.319   7.646 -0.5945 -0.0619 -0.3521
  601MOL0     H82879  10.357   6.101   7.656  1.9823 -1.1869 -0.7098
  601MOL0     H82880  10.358   6.202   7.802  1.7251  0.8027 -0.1530
  601MOL0     H82881  10.556   5.985   7.784  2.1672  1.5799  3.6329
  601MOL0     H82882  10.513   6.085   7.916  5.3771 -0.3043 -2.2189
  601MOL0     H82883  10.282   6.003   7.890  2.7201  2.9472  1.7387
  601MOL0     H82884  10.392   5.895   7.955  2.3051  2.2736  0.9149
  601MOL0     H82885  10.300   5.898   7.654  2.8970 -0.0090 -0.9230
  601MOL0     H82886  10.403   5.773   7.718 -0.1443 -1.7938  1.1899
  601MOL0     H82887  10.295   5.615   7.906  1.0389  0.9016 -3.1399
  601MOL0     H82888   9.928   5.529   8.008  0.9517 -0.6246 -0.8124
  601MOL0     H82889  10.053   5.578   8.124  1.1393 -2.4510  0.4488
  601MOL0     H82890  10.169   5.433   7.903 -0.9799  2.0839 -0.1996
  601MOL0     H82891  10.188   5.402   8.069 -0.8048  0.0645  0.9780
  601MOL0     H82892  10.089   5.205   7.978 -1.6192 -1.0765  3.8076
  601MOL0     H82893   9.974   5.262   8.087 -0.2853 -0.9022 -0.9558
  601MOL0     H82894   9.831   5.237   7.877  0.5182 -1.1194  2.5836
  601MOL0     H82895   9.872   5.407   7.876 -1.7054 -0.9542  1.1166
  601MOL0     H82896  10.060   5.445   7.578 -0.2035 -0.1134 -0.4607
  601MOL0     H82897  10.013   5.449   7.227  1.0099 -1.0988  0.3441
  601MOL0     H82898  10.085   5.537   7.375 -1.2748 -0.2303  1.8434
  601MOL0     H82899   9.941   5.584   7.305 -2.2160 -1.5062  1.6469
  601MOL0     H82900   9.731   5.290   6.938 -0.3741  0.1337 -0.2571
  601MOL0     H82901   9.572   5.342   6.779 -0.6862  0.1608 -0.3501
  601MOL0     H82902   9.434   5.478   6.672  0.6061  0.5890 -0.1640
  601MOL0     H82903   9.353   5.324   6.626 -1.4413 -0.3156  1.2973
  601MOL0     H82904   9.227   5.595   6.687  1.6312 -0.8863  1.0429
  601MOL0     H82905   9.248   5.538   6.525  1.2472 -0.0293 -0.3324
  601MOL0     H82906   9.098   5.354   6.574  1.0099  1.2331 -1.8626
  601MOL0     H82907   9.025   5.507   6.567 -2.7204 -4.2351 -1.5814
  601MOL0     H82908   9.069   5.525   6.828  0.4838  1.8122 -2.2200
  601MOL0     H82909   9.063   5.351   6.824  2.7923  0.9457  0.2713
  601MOL0     H82910   8.826   5.488   6.697 -0.6124  0.9389  1.2341
  601MOL0     H82911   8.869   5.319   6.705 -3.0186  0.5151  0.7323
  601MOL0     H82912   8.865   5.329   6.948 -2.5413  0.5167  1.5566
  601MOL0     H82913   8.708   5.356   6.886 -0.6444  0.5808  2.7351
  601MOL0     H82914   8.789   5.613   6.894 -0.8875 -1.8191 -1.4469
  601MOL0     H82915   8.910   5.554   7.001  0.8322 -0.9358 -0.0036
  601MOL0     H82916   8.707   5.473   7.159  0.4157  0.4967 -0.4476
  601MOL0     H82917   8.603   5.532   7.039  0.6360 -4.9735 -0.0476
  601MOL0     H82918   9.255   5.367   7.051 -0.7023  0.3268 -2.5298
  601MOL0     H82919   9.418   5.297   7.241  2.6546 -0.2638  1.2120
  601MOL0     H82920   9.661   5.185   7.455 -0.6617  0.1473  3.3963
  601MOL0     H82921   9.771   5.137   7.679  1.8685  0.4926  1.4000
  601MOL0     H82922  10.830   6.370   7.042  1.0968  0.7328  0.5525
  601MOL0     H82923  10.760   6.545   6.887  1.1910  1.7415  0.2529
  601MOL0     H82924  10.454   6.767   6.619 -2.0292  0.0814  3.0920
  601MOL0     H82925  10.419   6.931   6.450  0.9123 -1.0629 -0.9320
  601MOL0     H82926  10.610   7.348   6.505  0.8131 -0.2919  0.0971
  601MOL0     H82927  10.724   7.227   6.457 -0.5754  0.0850  1.0031
  601MOL0     H82928  10.633   7.223   6.214 -1.1013 -1.0319 -1.0034
  601MOL0     H82929  10.700   7.380   6.263 -0.0948 -1.1151  1.1277
  601MOL0     H82930  10.460   7.442   6.326 -1.9084 -0.7241 -0.9575
  601MOL0     H82931  10.512   7.437   6.154  1.4010 -2.2978 -2.0154
  601MOL0     H82932  10.330   7.235   6.303 -1.3377 -0.8567 -1.1940
  601MOL0     H82933  10.387   7.219   6.133 -2.5538  1.8555 -2.5219
  601MOL0     H82934  10.117   7.505   6.047  0.9569 -0.4796 -0.8969
  601MOL0     H82935  10.642   7.216   6.681  2.0195  0.0107 -1.1481
  601MOL0     H82936  10.777   7.143   6.847 -1.1649  1.0460 -0.7338
  601MOL0     H82937  10.653   7.093   6.961  1.6127  2.0496  0.7206
  601MOL0     H82938  10.780   6.979   6.917 -0.8346 -0.0908 -0.9089
  602MOL0     O82939  10.332   9.326   9.256  0.3708  0.2527  0.4641
  602MOL0     C82940  10.430   9.248   9.251  0.6492  0.7874 -0.3975
  602MOL0     O82941  10.447   9.141   9.167 -0.5119 -0.3353  0.1518
  602MOL0     C82942  10.336   9.097   9.097 -0.9528  0.2924 -0.1843
  602MOL0     C82943  10.254   8.994   9.155 -0.8425 -0.1054 -0.1913
  602MOL0     C82944  10.150   8.944   9.083  0.8562 -0.2254  0.4160
  602MOL0     C82945  10.120   8.988   8.954 -0.4249 -0.1989  0.9862
  602MOL0     O82946  10.026   8.931   8.870 -0.6498 -0.4520  0.5053
  602MOL0     C82947   9.894   8.932   8.919  0.3374 -0.4831 -0.8641
  602MOL0     C82948   9.795   8.847   8.841 -0.0110  0.0582  0.8328
  602MOL0     C82949   9.762   8.919   8.707  0.4392  0.1492 -0.2898
  602MOL0     C82950   9.696   8.811   8.611 -0.5656 -0.1458 -0.7860
  602MOL0     C82951   9.617   8.889   8.507  0.6462 -0.5880 -0.3536
  602MOL0     C82952   9.557   8.822   8.389  0.3232 -0.4785 -0.5189
  602MOL0     C82953   9.469   8.700   8.423 -0.0673  0.2341  0.0260
  602MOL0     C82954   9.402   8.640   8.301 -0.0066 -0.2990 -0.0674
  602MOL0     N82955   9.295   8.537   8.342 -0.2059 -0.6069  0.2568
  602MOL0     C82956   9.261   8.502   8.467 -0.0113 -0.5234 -0.0629
  602MOL0     C82957   9.194   8.382   8.452  0.2309 -0.5259  0.8655
  602MOL0     C82958   9.155   8.297   8.566  0.2385 -0.0260  0.9973
  602MOL0     C82959   9.014   8.271   8.604  0.3757  0.3708  0.3525
  602MOL0     C82960   8.945   8.186   8.499  1.3414  0.0256  0.5131
  602MOL0     C82961   8.806   8.148   8.535  0.1715 -0.4851  0.0972
  602MOL0     O82962   8.714   8.257   8.491 -0.1464  1.0875 -0.6131
  602MOL0     C82963   8.591   8.277   8.556  0.4466  0.1329  0.6405
  602MOL0     C82964   8.545   8.211   8.667  0.6649  0.3065  1.2259
  602MOL0     C82965   8.428   8.251   8.735  1.1349 -0.2995  0.3072
  602MOL0     C82966   8.409   8.169   8.854  0.6777 -1.1991 -0.7871
  602MOL0     C82967   8.345   8.353   8.687  0.8753 -0.0619 -0.6378
  602MOL0     C82968   8.213   8.405   8.738  0.5464 -0.0658  0.5823
  602MOL0     O82969   8.149   8.488   8.663 -0.4382 -0.5257  0.4604
  602MOL0     C82970   8.021   8.539   8.687 -0.7009  0.4953 -1.2805
  602MOL0     C82971   7.968   8.557   8.822 -0.1684  1.1391  0.5012
  602MOL0     C82972   7.839   8.604   8.848  1.2986  0.5046  0.5948
  602MOL0     C82973   7.767   8.657   8.742 -0.1199 -1.0059 -0.2350
  602MOL0     O82974   7.651   8.724   8.752  0.3988  0.6284  0.1236
  602MOL0     C82975   7.660   8.826   8.859  0.5089  0.4625 -0.1290
  602MOL0     C82976   7.560   8.927   8.814  1.7179  1.0651  1.0268
  602MOL0     C82977   7.594   8.983   8.668  0.1738  0.0157  0.0585
  602MOL0     C82978   7.482   9.080   8.625 -0.1248  0.2669 -0.4512
  602MOL0     C82979   7.497   9.128   8.480  0.9276 -0.4687  1.0151
  602MOL0     C82980   7.396   9.244   8.450 -0.8442  1.3182  0.1612
  602MOL0     C82981   7.404   9.371   8.537  0.8158 -0.3257 -1.2378
  602MOL0     C82982   7.320   9.485   8.485  0.6354 -0.0427 -0.6778
  602MOL0    Cl82983   7.272   9.610   8.604  0.0367 -0.0318  0.0368
  602MOL0     C82984   7.809   8.634   8.616 -0.0804 -0.7251  0.7649
  602MOL0     C82985   7.931   8.572   8.583  1.0411  0.0571  0.2881
  602MOL0     O82986   8.165   8.351   8.831  0.5781 -0.1037  0.5949
  602MOL0     C82987   8.392   8.410   8.564  0.4139  0.1319 -1.0658
  602MOL0     C82988   8.506   8.373   8.502  0.0622 -0.0460  0.0397
  602MOL0     N82989   9.199   8.351   8.320  0.2646  0.1647  0.4805
  602MOL0     N82990   9.249   8.446   8.256 -1.0360  0.1192  0.2308
  602MOL0     C82991  10.191   9.100   8.905 -0.1963 -0.1339 -0.1000
  602MOL0     C82992  10.299   9.154   8.973  0.1965  0.6949 -1.4509
  602MOL0     C82993  10.539   9.258   9.357 -0.0638 -0.1846  0.5632
  602MOL0     C82994  10.651   9.174   9.341  0.8410 -0.2023  0.8645
  602MOL0     C82995  10.766   9.187   9.417 -0.7281  1.1932  1.5194
  602MOL0     C82996  10.775   9.279   9.521  0.7388  0.3042  0.2897
  602MOL0     O82997  10.889   9.291   9.601 -0.9521  0.3261 -0.5807
  602MOL0     C82998  11.011   9.220   9.559  0.1489 -0.7889  0.4090
  602MOL0     C82999  11.090   9.302   9.451  0.1468  0.6960  0.3719
  602MOL0     C83000  11.234   9.248   9.435 -0.1377  1.2575 -0.1441
  602MOL0     C83001  11.300   9.330   9.318  0.2834  0.0961  0.4937
  602MOL0     C83002  11.234   9.303   9.184  0.2341  0.4813  1.0240
  602MOL0     C83003  11.185   9.274   9.079  0.0576 -0.9148  0.6840
  602MOL0     C83004  10.657   9.353   9.540 -0.2606  0.2649 -0.7912
  602MOL0     C83005  10.540   9.341   9.468 -0.6520  0.0903  0.5584
  602MOL0     C83006  10.427   9.435   9.516  0.3109  0.4855 -0.0370
  602MOL0     H83007  10.271   8.949   9.252  0.7016 -2.7521 -1.5785
  602MOL0     H83008  10.108   8.863   9.142  0.7483 -1.1891 -0.9494
  602MOL0     H83009   9.857   9.032   8.943 -0.6435 -1.1649  0.6196
  602MOL0     H83010   9.896   8.891   9.021 -0.8104  0.4429 -0.4502
  602MOL0     H83011   9.831   8.751   8.803  0.9730  1.2441 -1.4101
  602MOL0     H83012   9.708   8.821   8.902 -1.7483 -1.4600 -2.1199
  602MOL0     H83013   9.698   9.002   8.737  0.1687 -0.9731  2.5059
  602MOL0     H83014   9.854   8.958   8.663 -0.8943 -0.2140 -3.7901
  602MOL0     H83015   9.771   8.742   8.570 -1.7326 -2.1913  0.3817
  602MOL0     H83016   9.635   8.737   8.663 -1.2515 -1.6223 -3.4926
  602MOL0     H83017   9.688   8.969   8.484  0.1235  0.6682  2.0625
  602MOL0     H83018   9.525   8.936   8.543 -2.4636 -3.4495 -3.7357
  602MOL0     H83019   9.490   8.894   8.339 -1.1464 -0.6241  1.1458
  602MOL0     H83020   9.637   8.795   8.319 -1.4652 -1.0664 -2.4446
  602MOL0     H83021   9.388   8.727   8.491  0.2588  0.2276  0.4188
  602MOL0     H83022   9.532   8.623   8.469  3.3747  1.4318 -2.2878
  602MOL0     H83023   9.368   8.725   8.242  2.0107 -1.2674 -2.8739
  602MOL0     H83024   9.475   8.587   8.239 -0.2991 -1.0649  0.2175
  602MOL0     H83025   9.279   8.551   8.562 -1.9781  1.8623 -0.8341
  602MOL0     H83026   9.193   8.349   8.654 -1.5071 -0.8576  2.2989
  602MOL0     H83027   9.213   8.205   8.559  3.6136  1.7590  3.0270
  602MOL0     H83028   9.002   8.227   8.703 -0.0208  1.8554  0.9876
  602MOL0     H83029   8.963   8.367   8.609 -0.6857 -0.0410 -1.5005
  602MOL0     H83030   8.942   8.232   8.400  2.7423  0.9883  0.9017
  602MOL0     H83031   8.995   8.089   8.489 -1.5685 -1.4223 -1.9038
  602MOL0     H83032   8.780   8.059   8.479 -0.6308  2.5988 -5.0569
  602MOL0     H83033   8.810   8.145   8.644  0.8633 -0.1717  0.0867
  602MOL0     H83034   8.609   8.133   8.707  0.3942  0.5398  2.1337
  602MOL0     H83035   8.450   8.067   8.855 -1.7831 -2.2740 -0.4948
  602MOL0     H83036   8.302   8.152   8.870  0.5543 -0.8627 -1.2278
  602MOL0     H83037   8.434   8.222   8.946 -3.1162 -1.3275  0.5097
  602MOL0     H83038   8.025   8.525   8.909  1.0552 -0.4399 -0.8281
  602MOL0     H83039   7.808   8.634   8.948 -1.7431  2.8611 -0.8785
  602MOL0     H83040   7.629   8.779   8.953  2.1295 -1.7632 -0.6206
  602MOL0     H83041   7.755   8.879   8.853  0.9848 -0.2572  0.8749
  602MOL0     H83042   7.467   8.871   8.801  2.0369  0.7310  0.0641
  602MOL0     H83043   7.546   9.010   8.884  0.7192  2.7876 -1.0975
  602MOL0     H83044   7.613   8.901   8.598  0.1080 -0.4406  0.5632
  602MOL0     H83045   7.683   9.043   8.685  0.1060 -0.2418  1.4397
  602MOL0     H83046   7.458   9.158   8.698 -0.8854 -1.0149  0.7082
  602MOL0     H83047   7.391   9.020   8.621 -0.1609  0.2680  0.2378
  602MOL0     H83048   7.601   9.161   8.472  0.7957 -0.0074  1.1766
  602MOL0     H83049   7.476   9.050   8.406 -0.3694  0.5659  0.2514
  602MOL0     H83050   7.296   9.204   8.466 -1.3277  1.9853 -1.0515
  602MOL0     H83051   7.411   9.271   8.345  2.7008 -3.2320 -0.8237
  602MOL0     H83052   7.507   9.408   8.538  0.9870 -0.8048 -0.9727
  602MOL0     H83053   7.366   9.340   8.635 -0.4834 -0.9844 -1.9305
  602MOL0     H83054   7.230   9.454   8.431 -0.5517  1.4402  0.3602
  602MOL0     H83055   7.386   9.534   8.413  0.9182 -1.3466 -1.3353
  602MOL0     H83056   7.739   8.647   8.535 -1.0416  0.0251  1.6895
  602MOL0     H83057   7.952   8.541   8.481 -2.4169 -2.7463  0.2584
  602MOL0     H83058   8.357   8.492   8.502 -2.1182 -0.7882 -0.9700
  602MOL0     H83059   8.533   8.424   8.410 -1.8656  0.6348 -0.1807
  602MOL0     H83060  10.161   9.135   8.807 -1.6010  1.3073  0.8015
  602MOL0     H83061  10.360   9.234   8.934  1.3036 -0.2401 -1.6989
  602MOL0     H83062  10.659   9.092   9.269  1.3082 -0.6767  1.4463
  602MOL0     H83063  10.848   9.124   9.383  1.0948  1.7327  4.5221
  602MOL0     H83064  11.075   9.214   9.647  0.4549  0.2322  0.2710
  602MOL0     H83065  10.993   9.117   9.525  0.7388 -0.6446 -0.3934
  602MOL0     H83066  11.104   9.405   9.484  0.2052  0.5364  0.8594
  602MOL0     H83067  11.039   9.302   9.355 -0.0842  2.8038  0.4572
  602MOL0     H83068  11.291   9.259   9.528 -0.2956  2.4420 -0.1744
  602MOL0     H83069  11.235   9.142   9.410 -0.5262  1.4145 -0.8510
  602MOL0     H83070  11.406   9.305   9.310  0.5856  0.9547  1.5981
  602MOL0     H83071  11.292   9.436   9.341  0.4023  0.3615 -0.6323
  602MOL0     H83072  11.143   9.259   8.982  0.2042 -0.8858  0.6175
  602MOL0     H83073  10.668   9.431   9.615 -0.6897 -2.3243  2.1899
  602MOL0     H83074  10.448   9.540   9.539  3.2506 -0.4748  2.2130
  602MOL0     H83075  10.336   9.437   9.455 -0.5611 -1.8408  1.0855
  602MOL0     H83076  10.391   9.399   9.612  3.3930 -1.1236  0.6569
  603MOL0     O83077   4.231   2.328   6.322  0.3081  0.4211 -0.1666
  603MOL0     C83078   4.244   2.421   6.248  0.1110  0.4005 -0.6953
  603MOL0     O83079   4.360   2.446   6.181  0.0471  0.5377  0.0173
  603MOL0     C83080   4.472   2.366   6.180  0.0663 -0.7078 -0.6727
  603MOL0     C83081   4.507   2.310   6.058  0.8023  0.1666 -0.2029
  603MOL0     C83082   4.615   2.228   6.046  0.6032 -0.5353 -0.5709
  603MOL0     C83083   4.694   2.203   6.162 -0.1566 -0.1911 -0.0860
  603MOL0     O83084   4.813   2.137   6.152  0.3573  0.4194 -0.0495
  603MOL0     C83085   4.816   2.008   6.086  0.2414 -0.7549  0.2041
  603MOL0     C83086   4.923   1.905   6.141 -1.2990 -0.3595 -0.4287
  603MOL0     C83087   4.891   1.893   6.288  0.3052 -0.7487 -0.3962
  603MOL0     C83088   4.909   1.751   6.348 -1.0407  0.0769 -0.0402
  603MOL0     C83089   4.881   1.752   6.500 -0.7341 -0.0435  0.3034
  603MOL0     C83090   4.898   1.620   6.554  0.5672  0.1227 -0.4213
  603MOL0     C83091   4.876   1.604   6.700 -0.6205  0.6301 -0.8701
  603MOL0     C83092   5.008   1.592   6.777 -0.0659 -0.7660 -0.0171
  603MOL0     N83093   5.033   1.701   6.880  0.2893 -0.2214  0.8975
  603MOL0     C83094   5.007   1.682   7.013  0.1376 -0.0074 -0.1017
  603MOL0     C83095   5.030   1.805   7.073 -0.4626  0.1055 -0.7495
  603MOL0     C83096   5.021   1.829   7.225  0.5648  0.1474 -0.1700
  603MOL0     C83097   4.896   1.899   7.277 -0.2783  0.5506 -0.0982
  603MOL0     C83098   4.903   2.053   7.245  0.4740  0.8058  0.4289
  603MOL0     C83099   4.762   2.109   7.257  0.5111  1.1188 -0.5986
  603MOL0     O83100   4.706   2.105   7.390  0.1572 -0.1686  0.0401
  603MOL0     C83101   4.751   2.200   7.483 -0.1153 -0.0403  0.4608
  603MOL0     C83102   4.821   2.325   7.461 -0.2049 -0.7065  0.9640
  603MOL0     C83103   4.868   2.406   7.568 -0.1942  0.5981 -0.9249
  603MOL0     C83104   4.943   2.534   7.535  0.5160 -0.1491 -0.3272
  603MOL0     C83105   4.850   2.366   7.706  0.4959  0.2791 -0.8166
  603MOL0     C83106   4.908   2.427   7.829  1.1733 -0.3851 -0.4315
  603MOL0     O83107   4.877   2.361   7.951 -0.0528  0.6171 -0.2255
  603MOL0     C83108   4.908   2.435   8.063  0.4352 -0.6759  0.1436
  603MOL0     C83109   4.863   2.561   8.084  0.0735  0.3199 -0.9341
  603MOL0     C83110   4.902   2.632   8.200  0.0086  0.3517 -0.2145
  603MOL0     C83111   4.992   2.577   8.288 -0.7788 -0.7567 -0.6999
  603MOL0     O83112   5.028   2.661   8.397  0.7702 -0.5614 -0.0210
  603MOL0     C83113   5.065   2.595   8.521  0.3031  0.3183 -0.2956
  603MOL0     C83114   5.100   2.691   8.630 -1.0132  0.1901 -0.1425
  603MOL0     C83115   5.246   2.746   8.612 -0.5213  0.7092 -0.0930
  603MOL0     C83116   5.286   2.820   8.732  0.5578 -0.1346 -0.3407
  603MOL0     C83117   5.421   2.901   8.696  1.1525  0.0790 -1.0075
  603MOL0     C83118   5.460   3.014   8.793 -0.3154 -0.2740 -0.2598
  603MOL0     C83119   5.376   3.143   8.775  0.5450 -0.0174  0.7728
  603MOL0     C83120   5.421   3.242   8.666 -0.1449  0.2203  0.3197
  603MOL0    Cl83121   5.313   3.385   8.644 -0.2582  0.2704 -0.2013
  603MOL0     C83122   5.040   2.449   8.259 -0.9105 -0.5327 -0.0367
  603MOL0     C83123   4.999   2.386   8.144 -0.6810 -0.2419  0.2727
  603MOL0     O83124   4.977   2.525   7.826 -0.1352  0.6263  0.0959
  603MOL0     C83125   4.767   2.251   7.724  0.5603  0.6403  0.6265
  603MOL0     C83126   4.730   2.169   7.616  0.1705 -0.7328 -0.3627
  603MOL0     N83127   5.063   1.897   6.970 -0.2438  0.1006 -0.0642
  603MOL0     N83128   5.055   1.832   6.856  0.1128 -0.5316 -0.6335
  603MOL0     C83129   4.651   2.243   6.281  0.6983  0.0951 -0.1451
  603MOL0     C83130   4.553   2.341   6.291  0.5620  0.5664 -0.0728
  603MOL0     C83131   4.132   2.527   6.224  1.3760  0.4949 -0.4799
  603MOL0     C83132   4.038   2.561   6.325 -0.2251  1.0533  0.1903
  603MOL0     C83133   3.952   2.668   6.321 -0.1158  0.2862  1.0761
  603MOL0     C83134   3.951   2.744   6.206  1.5117  1.0703  0.1423
  603MOL0     O83135   3.840   2.833   6.187 -0.6238 -0.7855  0.5911
  603MOL0     C83136   3.856   2.959   6.128 -0.4547 -0.9401  0.0380
  603MOL0     C83137   3.743   3.058   6.171 -0.1165 -0.6782 -0.2665
  603MOL0     C83138   3.768   3.090   6.320  0.4640 -0.1052  0.3702
  603MOL0     C83139   3.741   3.240   6.356 -0.4450  0.0433 -0.3072
  603MOL0     C83140   3.856   3.324   6.316  0.0634 -0.9825  0.1745
  603MOL0     C83141   3.939   3.411   6.293 -0.8676 -0.2115  0.7236
  603MOL0     C83142   4.040   2.722   6.100 -0.3570  0.1862  0.1902
  603MOL0     C83143   4.126   2.604   6.107  0.6308 -0.4523  0.2088
  603MOL0     C83144   4.204   2.582   5.984  0.9001  0.1532 -0.0934
  603MOL0     H83145   4.449   2.347   5.974  1.1200 -0.6867 -0.8107
  603MOL0     H83146   4.659   2.215   5.947  1.3922 -0.3337 -0.2565
  603MOL0     H83147   4.833   2.025   5.979  2.8096 -0.8146  0.5304
  603MOL0     H83148   4.721   1.956   6.099 -0.1747 -0.1404 -0.3062
  603MOL0     H83149   4.913   1.804   6.100  0.4293 -0.1177 -1.5517
  603MOL0     H83150   5.027   1.935   6.123 -1.8183  2.9351  1.2718
  603MOL0     H83151   4.963   1.952   6.346  1.3568 -1.0067 -1.4050
  603MOL0     H83152   4.789   1.924   6.312  0.1885 -0.8253 -0.7983
  603MOL0     H83153   4.850   1.675   6.296 -1.6669  0.7785 -0.3848
  603MOL0     H83154   5.014   1.723   6.333 -0.8704  1.6709 -2.2949
  603MOL0     H83155   4.782   1.798   6.504 -0.9657 -0.0313 -2.6618
  603MOL0     H83156   4.958   1.812   6.550  2.5075 -0.3386 -3.7244
  603MOL0     H83157   4.834   1.545   6.506  0.2088 -0.6049  1.1215
  603MOL0     H83158   5.001   1.589   6.533 -0.4696 -2.9661 -1.4763
  603MOL0     H83159   4.826   1.513   6.735 -0.6064  0.7800 -0.4457
  603MOL0     H83160   4.824   1.695   6.734 -0.4184  1.1345 -1.8789
  603MOL0     H83161   5.007   1.496   6.830 -0.4584  0.1943  1.8031
  603MOL0     H83162   5.092   1.600   6.708 -1.6203  0.2345 -1.8551
  603MOL0     H83163   4.990   1.588   7.065  1.1330  0.3260  0.8794
  603MOL0     H83164   5.110   1.888   7.251 -0.2096  0.1016  2.9837
  603MOL0     H83165   5.030   1.733   7.275  0.7877 -0.0526 -0.5875
  603MOL0     H83166   4.805   1.856   7.233 -0.3891  0.2953  0.3660
  603MOL0     H83167   4.888   1.876   7.384 -0.0932  0.7840 -0.0350
  603MOL0     H83168   4.970   2.103   7.316  2.6028 -1.1117 -0.1069
  603MOL0     H83169   4.943   2.065   7.144  2.7271  0.0850  1.1774
  603MOL0     H83170   4.776   2.215   7.231 -0.9782  1.2800 -0.7785
  603MOL0     H83171   4.703   2.048   7.189  0.2797  0.6493  0.0183
  603MOL0     H83172   4.849   2.358   7.361 -1.1947 -3.0333 -0.1651
  603MOL0     H83173   4.896   2.627   7.569  0.2736 -0.9249  1.5915
  603MOL0     H83174   4.933   2.563   7.430  1.9290  1.7504  0.0037
  603MOL0     H83175   5.049   2.526   7.561  0.8729 -1.2471 -1.9385
  603MOL0     H83176   4.778   2.595   8.025 -0.5276 -0.5128 -0.5578
  603MOL0     H83177   4.858   2.729   8.217  3.0177  1.7113  0.5961
  603MOL0     H83178   4.979   2.536   8.555  1.3328 -1.3847 -0.5330
  603MOL0     H83179   5.138   2.516   8.502  2.0986  2.0626 -0.8921
  603MOL0     H83180   5.022   2.767   8.627  0.5827  1.8630 -2.5111
  603MOL0     H83181   5.090   2.648   8.730  1.1988 -1.1076 -0.4034
  603MOL0     H83182   5.240   2.809   8.523 -1.9194 -1.1243 -1.3721
  603MOL0     H83183   5.318   2.666   8.594  2.7092  3.5017 -0.6764
  603MOL0     H83184   5.302   2.750   8.815 -0.3160  1.3763  1.1690
  603MOL0     H83185   5.206   2.889   8.762  0.6202  0.4170 -1.3818
  603MOL0     H83186   5.505   2.832   8.707  0.0021 -0.9178  2.8688
  603MOL0     H83187   5.420   2.935   8.592  2.5452 -1.2837 -1.4976
  603MOL0     H83188   5.563   3.041   8.765  0.3788 -0.0869  2.2598
  603MOL0     H83189   5.462   2.983   8.897  2.2226  0.1672 -0.1105
  603MOL0     H83190   5.373   3.203   8.867 -1.2813  1.6709 -0.3168
  603MOL0     H83191   5.273   3.118   8.748  1.1460 -2.4383  0.3961
  603MOL0     H83192   5.443   3.190   8.572  3.7144  3.0451 -0.6077
  603MOL0     H83193   5.515   3.289   8.697 -0.7164  1.0177  0.8807
  603MOL0     H83194   5.111   2.405   8.327 -0.9121  0.3802  0.5759
  603MOL0     H83195   5.053   2.297   8.113  0.9619  1.2919 -1.5456
  603MOL0     H83196   4.728   2.223   7.821 -2.3600  3.4386  0.4353
  603MOL0     H83197   4.678   2.077   7.641  0.5111 -1.2764 -1.5675
  603MOL0     H83198   4.698   2.211   6.374  1.2202 -0.5846 -0.6325
  603MOL0     H83199   4.531   2.380   6.390  2.0213 -1.3303  1.0789
  603MOL0     H83200   4.033   2.516   6.424 -0.9315  0.9228  0.1014
  603MOL0     H83201   3.880   2.696   6.397 -1.4191  1.4106 -0.5103
  603MOL0     H83202   3.951   3.003   6.158  0.3900 -2.5949 -0.1351
  603MOL0     H83203   3.868   2.960   6.019  0.8478  0.7718  0.1409
  603MOL0     H83204   3.641   3.023   6.152 -1.2216  2.0953  0.0930
  603MOL0     H83205   3.750   3.152   6.115  0.8917 -1.6551 -1.8582
  603MOL0     H83206   3.707   3.020   6.379  0.7799  0.2212  1.1012
  603MOL0     H83207   3.868   3.060   6.353  0.5980 -2.5818 -1.9744
  603MOL0     H83208   3.726   3.247   6.464 -4.5328 -0.6398 -0.6846
  603MOL0     H83209   3.646   3.270   6.313 -1.6802 -1.8738  0.9110
  603MOL0     H83210   4.016   3.485   6.284 -0.8545 -0.1268  1.4597
  603MOL0     H83211   4.030   2.782   6.010  1.8149 -1.4732 -1.2680
  603MOL0     H83212   4.228   2.478   5.959  0.3993 -0.0340  0.1814
  603MOL0     H83213   4.147   2.624   5.901 -0.5145 -0.3491  0.5782
  603MOL0     H83214   4.298   2.638   5.983 -0.7218  3.0623 -1.9625
  604MOL0     O83215   7.407   0.440  10.183  0.4695  0.6538  0.2600
  604MOL0     C83216   7.409   0.493  10.292  0.8168  0.3475  0.2315
  604MOL0     O83217   7.456   0.616  10.318 -0.5362 -0.2617  0.4996
  604MOL0     C83218   7.407   0.703  10.421  0.8213  1.0572  0.7244
  604MOL0     C83219   7.280   0.756  10.404  0.2320 -0.3416  0.3717
  604MOL0     C83220   7.208   0.826  10.498  0.2179  0.5618  0.4226
  604MOL0     C83221   7.272   0.847  10.619  0.0110  0.4801  0.7000
  604MOL0     O83222   7.196   0.916  10.716  0.0727  0.3949 -0.9881
  604MOL0     C83223   7.157   0.833  10.831  0.3902  0.9507  0.5752
  604MOL0     C83224   7.019   0.871  10.890 -0.3318  0.6593  0.0999
  604MOL0     C83225   6.908   0.835  10.794 -0.5403 -0.3173  0.2906
  604MOL0     C83226   6.925   0.686  10.731  0.0112 -0.8576 -0.7028
  604MOL0     C83227   6.810   0.635  10.645  0.2800 -1.0947  0.3527
  604MOL0     C83228   6.836   0.481  10.625  0.9438  0.8946  0.5616
  604MOL0     C83229   6.714   0.405  10.558  0.8473 -1.0083  0.3873
  604MOL0     C83230   6.574   0.430  10.631  0.0850 -1.2020  0.8650
  604MOL0     N83231   6.467   0.340  10.585  0.5279 -0.1371 -0.4225
  604MOL0     C83232   6.376   0.364  10.483  0.1970 -0.2246  0.0514
  604MOL0     C83233   6.268   0.277  10.503  1.5945 -0.4998  0.1095
  604MOL0     C83234   6.147   0.265  10.413  0.5325  0.4210  0.8595
  604MOL0     C83235   6.169   0.177  10.288  0.3829  0.0270 -0.0602
  604MOL0     C83236   6.033   0.146  10.212  0.9064 -0.2405  0.8375
  604MOL0     C83237   6.029   0.027  10.111  1.0377  0.8832  0.6724
  604MOL0     O83238   6.147   0.019  10.036 -0.3269  0.2127 -0.3674
  604MOL0     C83239   6.156   0.113   9.934 -0.6288 -0.7714 -0.0082
  604MOL0     C83240   6.066   0.219   9.904 -0.5898  0.0573 -0.6611
  604MOL0     C83241   6.093   0.307   9.795 -0.3565 -0.6094  0.3418
  604MOL0     C83242   6.003   0.427   9.786  0.5618  0.1223 -0.2280
  604MOL0     C83243   6.211   0.304   9.715  0.0186 -0.4826  0.8768
  604MOL0     C83244   6.248   0.396   9.601  0.6222  0.2902 -0.8194
  604MOL0     O83245   6.386   0.413   9.576 -0.8103 -0.1293  0.4556
  604MOL0     C83246   6.421   0.532   9.520  0.2580 -0.1866 -0.2290
  604MOL0     C83247   6.420   0.559   9.388 -0.1074 -0.3597 -0.1247
  604MOL0     C83248   6.457   0.677   9.335 -0.2709 -0.6840  0.8577
  604MOL0     C83249   6.507   0.775   9.419  0.9037  0.2572 -0.7088
  604MOL0     O83250   6.547   0.900   9.378 -0.0510 -0.3339 -0.1281
  604MOL0     C83251   6.438   0.998   9.373 -0.9388 -0.4067  0.5691
  604MOL0     C83252   6.427   1.087   9.501  0.0923  0.9823 -0.4822
  604MOL0     C83253   6.324   1.196   9.488  0.3934 -0.5827 -0.0824
  604MOL0     C83254   6.182   1.132   9.495  0.2827  0.6330 -0.7562
  604MOL0     C83255   6.066   1.231   9.462  0.0830  0.2980  0.3138
  604MOL0     C83256   5.926   1.176   9.485 -0.1399 -0.1209 -0.4665
  604MOL0     C83257   5.820   1.285   9.461  0.9422 -0.2806  0.1672
  604MOL0     C83258   5.686   1.249   9.528  0.5954 -0.6303  0.4824
  604MOL0    Cl83259   5.615   1.098   9.449 -0.0261 -0.2731 -0.0543
  604MOL0     C83260   6.505   0.756   9.558 -0.3739  0.4728  0.0002
  604MOL0     C83261   6.455   0.631   9.608  0.2409 -0.7117  0.4240
  604MOL0     O83262   6.149   0.459   9.547 -0.4563 -0.4398 -0.3554
  604MOL0     C83263   6.296   0.199   9.741 -0.4333 -0.1193  0.0681
  604MOL0     C83264   6.271   0.113   9.847  0.4663  0.3870 -0.0027
  604MOL0     N83265   6.290   0.211  10.626 -0.4657 -0.9033 -0.7325
  604MOL0     N83266   6.406   0.257  10.672 -0.5825 -0.1535 -0.4997
  604MOL0     C83267   7.395   0.780  10.645  0.2158 -0.8178  0.1815
  604MOL0     C83268   7.458   0.712  10.547 -0.2752  0.4903  0.8208
  604MOL0     C83269   7.365   0.413  10.403  0.4097  0.6735 -1.0839
  604MOL0     C83270   7.450   0.376  10.512 -0.2700 -0.6006  0.6274
  604MOL0     C83271   7.417   0.298  10.620 -0.8796 -0.7273 -0.5055
  604MOL0     C83272   7.291   0.246  10.626  0.5544 -0.3921 -0.7709
  604MOL0     O83273   7.267   0.152  10.727 -0.3105  0.2972 -0.5189
  604MOL0     C83274   7.265   0.017  10.678  0.4917  0.4446  1.0084
  604MOL0     C83275   7.345  -0.084  10.775  0.4010 -1.0214 -0.3794
  604MOL0     C83276   7.382  -0.209  10.707 -0.4798 -0.2276 -0.8264
  604MOL0     C83277   7.454  -0.305  10.812  0.7378  0.3539  0.6094
  604MOL0     C83278   7.580  -0.354  10.767 -0.3971  0.0706 -0.6969
  604MOL0     C83279   7.680  -0.413  10.727  0.2066 -0.0224 -0.2302
  604MOL0     C83280   7.198   0.273  10.526 -0.5311  0.4625 -0.1734
  604MOL0     C83281   7.232   0.355  10.413  0.3853  0.5356 -0.0802
  604MOL0     C83282   7.133   0.379  10.304 -0.3798  0.3569  0.2049
  604MOL0     H83283   7.224   0.732  10.313 -0.4841  2.2746  0.0561
  604MOL0     H83284   7.107   0.860  10.474 -0.9061 -2.6368  0.0848
  604MOL0     H83285   7.229   0.856  10.910  0.6677  0.1263  0.5739
  604MOL0     H83286   7.177   0.729  10.802 -0.3539  0.8291  0.4760
  604MOL0     H83287   7.013   0.812  10.981 -0.6919 -0.0855 -0.3958
  604MOL0     H83288   7.004   0.977  10.912 -0.1981  0.8497 -0.6853
  604MOL0     H83289   6.811   0.859  10.840 -0.8791 -2.0724  0.5705
  604MOL0     H83290   6.918   0.895  10.703 -0.6777  3.9369  2.8135
  604MOL0     H83291   7.017   0.670  10.674 -1.4028 -0.8998 -3.0996
  604MOL0     H83292   6.931   0.613  10.813 -2.6388  0.5516  0.8872
  604MOL0     H83293   6.804   0.696  10.555  4.9888 -0.5905  0.1176
  604MOL0     H83294   6.718   0.651  10.702  1.9308 -1.5803  3.3999
  604MOL0     H83295   6.918   0.483  10.553  2.2334 -0.6663  1.9249
  604MOL0     H83296   6.853   0.439  10.724  0.3987  0.2626  0.3898
  604MOL0     H83297   6.721   0.297  10.547 -1.3104 -0.9976 -1.8444
  604MOL0     H83298   6.703   0.451  10.460 -2.3903  0.5637  1.3332
  604MOL0     H83299   6.592   0.418  10.738 -0.0555 -0.2915  1.0017
  604MOL0     H83300   6.528   0.528  10.617 -1.4151 -2.0230 -0.1969
  604MOL0     H83301   6.390   0.427  10.396  1.2863 -0.0108  0.3621
  604MOL0     H83302   6.121   0.365  10.377  0.1467  0.2428  0.6286
  604MOL0     H83303   6.064   0.224  10.472  0.2872  0.5399  0.5967
  604MOL0     H83304   6.239   0.224  10.218  0.5054 -1.1235 -0.7396
  604MOL0     H83305   6.210   0.079  10.312 -1.8905 -1.7254 -2.6582
  604MOL0     H83306   5.956   0.126  10.286  0.7940  0.3480  0.8882
  604MOL0     H83307   6.007   0.238  10.158 -0.8630 -0.3031  1.5249
  604MOL0     H83308   6.019  -0.071  10.158  1.0675  1.1771  1.2997
  604MOL0     H83309   5.939   0.034  10.049  1.2255  1.4189  0.4532
  604MOL0     H83310   5.975   0.237   9.961 -0.4573 -2.6136  0.5535
  604MOL0     H83311   6.067   0.516   9.790  1.5468 -0.5873  0.3952
  604MOL0     H83312   5.937   0.425   9.873  2.7480 -0.4174  1.5083
  604MOL0     H83313   5.931   0.421   9.703  1.2053 -1.9195 -0.6864
  604MOL0     H83314   6.395   0.471   9.331  1.4340 -0.1245 -1.2042
  604MOL0     H83315   6.457   0.696   9.229  0.2417  3.0713  1.3838
  604MOL0     H83316   6.456   1.064   9.288 -2.4907  2.4319  2.2703
  604MOL0     H83317   6.347   0.945   9.346 -0.4209 -0.0192 -2.2131
  604MOL0     H83318   6.402   1.020   9.584  1.9112  0.3007 -0.4253
  604MOL0     H83319   6.522   1.137   9.524 -0.3869  0.1509  4.3983
  604MOL0     H83320   6.348   1.245   9.393  0.2225 -1.6096 -0.6733
  604MOL0     H83321   6.326   1.268   9.570  0.2321  2.0954 -2.2772
  604MOL0     H83322   6.163   1.096   9.596 -0.6720  1.8060 -0.4932
  604MOL0     H83323   6.169   1.048   9.425 -2.5071 -0.1740  0.5841
  604MOL0     H83324   6.069   1.319   9.527 -0.3520 -0.9506  2.0783
  604MOL0     H83325   6.081   1.256   9.356 -2.7917 -1.1879 -0.5615
  604MOL0     H83326   5.926   1.138   9.588  3.3276  1.3573  0.1764
  604MOL0     H83327   5.909   1.098   9.410  2.9141  1.1690 -2.7203
  604MOL0     H83328   5.805   1.286   9.352 -0.6537 -2.2048  0.3178
  604MOL0     H83329   5.863   1.376   9.505 -2.4081 -0.1829  3.6938
  604MOL0     H83330   5.616   1.332   9.520 -0.1899 -1.1908  1.3521
  604MOL0     H83331   5.713   1.247   9.634  0.5884  0.5999  0.5167
  604MOL0     H83332   6.540   0.839   9.619  0.2193 -0.7108  1.3297
  604MOL0     H83333   6.440   0.604   9.712 -1.0561 -1.0211  0.1876
  604MOL0     H83334   6.379   0.169   9.679 -2.2734 -3.6232 -0.9784
  604MOL0     H83335   6.336   0.026   9.855 -1.9881 -1.6629 -1.1657
  604MOL0     H83336   7.449   0.796  10.737 -0.0425  0.7963  0.0803
  604MOL0     H83337   7.555   0.671  10.571 -0.7692 -1.7314 -0.5822
  604MOL0     H83338   7.554   0.407  10.505  0.3596 -2.9156 -2.2082
  604MOL0     H83339   7.496   0.276  10.691 -1.3113 -0.5215  0.0430
  604MOL0     H83340   7.164  -0.018  10.657  1.3693 -0.8927 -1.4712
  604MOL0     H83341   7.316   0.024  10.581 -0.1180 -0.3447  0.6201
  604MOL0     H83342   7.279  -0.097  10.862 -2.2501 -0.3422 -2.1675
  604MOL0     H83343   7.439  -0.042  10.812  0.2774 -0.7176 -0.4076
  604MOL0     H83344   7.297  -0.272  10.681 -1.0413 -1.4528  3.2146
  604MOL0     H83345   7.439  -0.195  10.615 -1.3966  1.1235 -1.2096
  604MOL0     H83346   7.392  -0.393  10.833 -2.4558  1.8020 -2.0715
  604MOL0     H83347   7.477  -0.259  10.909  0.2987 -0.8085  1.2941
  604MOL0     H83348   7.767  -0.452  10.678 -0.1845  0.4147 -1.3106
  604MOL0     H83349   7.099   0.230  10.527 -0.9185  1.3063  1.1661
  604MOL0     H83350   7.140   0.487  10.283  0.5874  0.0860 -0.9645
  604MOL0     H83351   7.160   0.330  10.210 -0.4637  1.4634 -0.4210
  604MOL0     H83352   7.029   0.359  10.333 -0.5744 -2.0229 -1.8071
  605MOL0     O83353   9.206   7.531   3.743 -0.3226  0.2703 -0.2339
  605MOL0     C83354   9.212   7.552   3.864  0.1426  0.2998  0.3889
  605MOL0     O83355   9.109   7.594   3.939 -0.4963 -0.3874 -0.2974
  605MOL0     C83356   8.997   7.657   3.890  0.8396 -1.1708  0.5402
  605MOL0     C83357   8.877   7.619   3.945  0.0367  1.5779  0.2171
  605MOL0     C83358   8.761   7.680   3.907 -0.3072 -0.5096 -0.1860
  605MOL0     C83359   8.755   7.791   3.824  0.4164  0.4367  0.6925
  605MOL0     O83360   8.636   7.849   3.812  0.5303  0.2717  0.9664
  605MOL0     C83361   8.630   7.962   3.730  0.6064  0.3593 -0.2371
  605MOL0     C83362   8.501   8.042   3.762 -0.4844  0.6266  0.0123
  605MOL0     C83363   8.375   7.956   3.753  0.3523 -1.1743 -0.2772
  605MOL0     C83364   8.251   8.036   3.809 -0.5607  0.2844  0.6263
  605MOL0     C83365   8.178   8.101   3.680  0.1744  0.0451  0.4024
  605MOL0     C83366   8.047   8.172   3.727  0.5276  0.1480  0.1671
  605MOL0     C83367   8.005   8.278   3.626  0.1124 -0.3020  1.1219
  605MOL0     C83368   7.972   8.220   3.492  0.7208  0.5327 -0.7727
  605MOL0     N83369   7.924   8.324   3.404  0.7362  0.0338 -0.0856
  605MOL0     C83370   7.810   8.326   3.323 -0.7914  0.6713  0.2267
  605MOL0     C83371   7.843   8.405   3.221 -0.4780 -0.0557 -0.7356
  605MOL0     C83372   7.764   8.432   3.094 -0.5325  1.0740 -0.0520
  605MOL0     C83373   7.695   8.568   3.110 -0.0171 -0.5965 -0.3710
  605MOL0     C83374   7.777   8.687   3.127  0.6893  0.0898  0.4859
  605MOL0     C83375   7.689   8.815   3.105 -0.1227  0.3723 -0.4440
  605MOL0     O83376   7.588   8.825   3.212 -0.5053  0.8198 -0.3483
  605MOL0     C83377   7.617   8.878   3.337  0.3198 -0.1172 -0.8705
  605MOL0     C83378   7.519   8.870   3.438  1.2387 -0.2290  0.7745
  605MOL0     C83379   7.535   8.910   3.572 -0.0324  0.3101 -0.5066
  605MOL0     C83380   7.428   8.882   3.674  0.3437 -0.2475  0.1986
  605MOL0     C83381   7.665   8.968   3.605  0.7413 -0.1957 -0.0982
  605MOL0     C83382   7.693   9.013   3.739 -0.1041  0.1596 -0.3636
  605MOL0     O83383   7.831   9.017   3.773  0.1884 -0.4636 -0.1025
  605MOL0     C83384   7.863   9.090   3.886  0.6364 -0.6605 -0.0607
  605MOL0     C83385   7.969   9.193   3.872 -0.1126 -0.2827 -0.5738
  605MOL0     C83386   8.014   9.253   3.984 -0.8354  0.8492 -0.2693
  605MOL0     C83387   7.972   9.218   4.110 -0.3567 -1.0805 -0.1178
  605MOL0     O83388   8.038   9.280   4.209 -0.1628 -0.0622  0.6483
  605MOL0     C83389   8.160   9.229   4.245  0.3119 -0.8455 -0.3322
  605MOL0     C83390   8.231   9.337   4.326  0.7647  0.5301  0.2225
  605MOL0     C83391   8.275   9.463   4.247 -0.7698  0.5067 -0.2663
  605MOL0     C83392   8.228   9.599   4.304 -0.8249  0.2753  0.0670
  605MOL0     C83393   8.290   9.720   4.240 -1.0259 -0.5520 -0.7737
  605MOL0     C83394   8.195   9.841   4.253  0.8390  0.1292 -0.4068
  605MOL0     C83395   8.143   9.863   4.392 -1.2652  0.4536 -0.6485
  605MOL0     C83396   8.032   9.962   4.405  0.1214  0.1588 -0.4738
  605MOL0    Cl83397   8.046  10.041   4.565  0.3041 -0.2216  0.0463
  605MOL0     C83398   7.871   9.126   4.125 -0.9946  0.2240 -0.0152
  605MOL0     C83399   7.818   9.058   4.017  0.5870  0.5948 -0.5550
  605MOL0     O83400   7.602   9.055   3.808 -0.4081  0.2723  0.3070
  605MOL0     C83401   7.760   8.978   3.499  0.4000 -0.0355 -0.0004
  605MOL0     C83402   7.741   8.929   3.371  0.1481  0.8454 -0.1360
  605MOL0     N83403   7.974   8.464   3.239  0.0562  0.3735 -0.5160
  605MOL0     N83404   8.015   8.404   3.344  0.5449 -0.4714 -0.2910
  605MOL0     C83405   8.872   7.821   3.747 -0.3383  0.4449  1.0157
  605MOL0     C83406   8.997   7.750   3.776 -0.2454 -0.4321 -0.4743
  605MOL0     C83407   9.345   7.526   3.939  0.0517  0.4081  0.3344
  605MOL0     C83408   9.349   7.502   4.075  0.8044  0.1587 -0.3030
  605MOL0     C83409   9.464   7.481   4.152  0.1548  0.7582  0.3520
  605MOL0     C83410   9.591   7.469   4.087 -0.1289 -0.3225 -0.0293
  605MOL0     O83411   9.704   7.440   4.161  0.4914  0.8596 -0.5111
  605MOL0     C83412   9.701   7.434   4.307 -0.1111 -0.1041  0.0651
  605MOL0     C83413   9.844   7.447   4.353 -0.2624  0.1812 -0.0664
  605MOL0     C83414   9.900   7.594   4.346  0.1302  0.2198 -0.2934
  605MOL0     C83415  10.013   7.619   4.436 -0.0863 -0.3602 -0.5701
  605MOL0     C83416   9.969   7.652   4.572 -0.2388 -0.5535 -0.6994
  605MOL0     C83417   9.937   7.693   4.685  1.1377 -0.0894 -0.8567
  605MOL0     C83418   9.591   7.492   3.951 -0.4056  0.1415  1.1315
  605MOL0     C83419   9.476   7.524   3.875 -0.1328  0.1852  0.3667
  605MOL0     C83420   9.494   7.546   3.728  0.2051 -0.1954  0.7407
  605MOL0     H83421   8.877   7.532   4.010  0.7305  1.6251  0.2931
  605MOL0     H83422   8.664   7.663   3.953 -1.0478  1.9254 -0.6837
  605MOL0     H83423   8.629   7.929   3.625 -2.3049 -2.4767  0.5081
  605MOL0     H83424   8.707   8.035   3.757 -0.4559  0.8214  1.7226
  605MOL0     H83425   8.517   8.091   3.858 -4.6351  2.2270  0.0947
  605MOL0     H83426   8.510   8.124   3.690 -2.0946  0.2241 -0.7022
  605MOL0     H83427   8.355   7.933   3.648 -2.5055  2.2296 -0.6745
  605MOL0     H83428   8.386   7.855   3.793 -0.1129 -1.8989 -1.8997
  605MOL0     H83429   8.179   7.963   3.848  1.4838 -2.1140  0.0782
  605MOL0     H83430   8.279   8.108   3.887  0.0536  0.1978  0.4844
  605MOL0     H83431   8.143   8.019   3.618 -3.7789  0.0333  2.3622
  605MOL0     H83432   8.230   8.178   3.622 -3.1424  0.6460 -2.0583
  605MOL0     H83433   7.959   8.108   3.744 -0.3640  1.1591 -0.5260
  605MOL0     H83434   8.062   8.218   3.824 -1.8110  2.7533 -0.5723
  605MOL0     H83435   8.087   8.347   3.603  1.5475 -2.9847 -3.0145
  605MOL0     H83436   7.919   8.334   3.666 -0.4410 -2.7759  3.6824
  605MOL0     H83437   8.053   8.164   3.444  0.1305  0.7460 -2.0575
  605MOL0     H83438   7.889   8.150   3.504 -1.7063  2.7803 -3.0689
  605MOL0     H83439   7.723   8.263   3.335  1.9361 -3.8373 -1.1127
  605MOL0     H83440   7.690   8.354   3.076  1.3413 -0.2906 -2.5481
  605MOL0     H83441   7.825   8.421   3.003 -0.3945 -1.1066  0.2666
  605MOL0     H83442   7.634   8.583   3.021  0.7766 -1.9301 -1.1850
  605MOL0     H83443   7.625   8.573   3.194  1.2936  1.5808  0.6896
  605MOL0     H83444   7.828   8.686   3.224  2.0419  0.7349 -0.1888
  605MOL0     H83445   7.852   8.681   3.047  0.3891 -1.8010  0.3005
  605MOL0     H83446   7.764   8.895   3.103 -1.2127  1.4828  1.0954
  605MOL0     H83447   7.638   8.813   3.008  0.7823 -2.8205 -0.9708
  605MOL0     H83448   7.419   8.836   3.413  0.5160  0.5603  2.4598
  605MOL0     H83449   7.347   8.824   3.631 -1.5291  2.0482  0.4016
  605MOL0     H83450   7.384   8.979   3.703  1.3594  0.2243  0.2083
  605MOL0     H83451   7.453   8.823   3.762 -1.4508 -0.0657  0.8613
  605MOL0     H83452   8.003   9.214   3.771  0.3456 -1.9237 -0.7900
  605MOL0     H83453   8.096   9.324   3.976  1.2354 -1.4435 -0.6448
  605MOL0     H83454   8.163   9.135   4.300  2.5813 -0.2883  0.6374
  605MOL0     H83455   8.221   9.200   4.159  0.1529 -2.8207  0.1845
  605MOL0     H83456   8.168   9.364   4.410 -2.3423 -1.3468 -1.3364
  605MOL0     H83457   8.321   9.293   4.369 -2.0903 -3.6084  2.6155
  605MOL0     H83458   8.258   9.456   4.139  0.1098 -1.1359 -0.3299
  605MOL0     H83459   8.383   9.479   4.256 -1.0027  2.2116 -0.1246
  605MOL0     H83460   8.242   9.592   4.412 -0.0290  0.5782 -0.0118
  605MOL0     H83461   8.119   9.600   4.288 -0.8468  2.3449  0.0413
  605MOL0     H83462   8.384   9.749   4.287  0.1739 -0.8441 -2.8785
  605MOL0     H83463   8.307   9.700   4.134 -1.1104  0.3543 -0.9633
  605MOL0     H83464   8.111   9.837   4.183  0.6188  2.6059 -0.3569
  605MOL0     H83465   8.260   9.924   4.224  2.1208  0.3654  2.7124
  605MOL0     H83466   8.223   9.909   4.451 -0.5784  0.2492 -1.4107
  605MOL0     H83467   8.122   9.767   4.441  2.4504  0.1413  0.6891
  605MOL0     H83468   7.939   9.905   4.398 -0.1431  0.7123 -1.5773
  605MOL0     H83469   8.046  10.036   4.326  1.4177  0.3289 -0.1038
  605MOL0     H83470   7.837   9.108   4.227  3.7151  0.4966  1.8272
  605MOL0     H83471   7.742   8.983   4.035  2.9429 -2.1861 -1.4048
  605MOL0     H83472   7.849   9.037   3.521  0.2119  1.0064 -1.7916
  605MOL0     H83473   7.819   8.921   3.295 -1.4001 -1.5682 -1.6032
  605MOL0     H83474   8.879   7.905   3.678  0.6688 -1.6594 -1.6256
  605MOL0     H83475   9.092   7.774   3.731  1.1410  1.3753  2.9853
  605MOL0     H83476   9.259   7.512   4.136  1.3804 -1.3813  0.8784
  605MOL0     H83477   9.453   7.486   4.260  2.6690 -3.4718  1.0307
  605MOL0     H83478   9.637   7.506   4.359 -1.5017 -3.0855  2.8223
  605MOL0     H83479   9.672   7.336   4.345  0.8862  0.2442  1.8750
  605MOL0     H83480   9.910   7.388   4.289 -0.3157 -0.3583  0.3661
  605MOL0     H83481   9.861   7.402   4.451  1.3328 -0.3296 -0.5493
  605MOL0     H83482   9.922   7.616   4.241 -1.5725  1.4966 -0.4297
  605MOL0     H83483   9.827   7.672   4.372  1.1560  0.9073  0.6152
  605MOL0     H83484  10.063   7.710   4.400 -3.3316  0.7828 -2.6493
  605MOL0     H83485  10.079   7.532   4.429  0.1415 -0.0883 -2.0363
  605MOL0     H83486   9.922   7.744   4.778 -2.1713 -0.6098 -0.9873
  605MOL0     H83487   9.681   7.504   3.892 -2.0846  2.1609 -1.2175
  605MOL0     H83488   9.426   7.486   3.667 -1.1509  1.2209  0.7973
  605MOL0     H83489   9.486   7.653   3.706 -0.4350 -1.1828 -5.4431
  605MOL0     H83490   9.596   7.526   3.694 -0.6909 -1.3334 -1.4410
  606MOL0     O83491   1.552   9.948   2.843 -0.4547  0.2511  0.6541
  606MOL0     C83492   1.611  10.003   2.758 -0.7648 -0.6555 -0.3457
  606MOL0     O83493   1.656   9.949   2.643  0.2639  0.0357 -0.0829
  606MOL0     C83494   1.623   9.820   2.628 -0.6064  0.8244 -0.1611
  606MOL0     C83495   1.693   9.717   2.696 -0.5048  0.2994  0.6804
  606MOL0     C83496   1.662   9.580   2.665  0.7180  0.4986 -0.6262
  606MOL0     C83497   1.552   9.546   2.583  0.5152  0.1914 -0.3045
  606MOL0     O83498   1.522   9.412   2.570 -0.2356 -0.3035  1.0574
  606MOL0     C83499   1.549   9.353   2.448  0.1286  0.1469 -0.6234
  606MOL0     C83500   1.675   9.263   2.468 -0.3154  0.0447 -0.3029
  606MOL0     C83501   1.666   9.187   2.608 -0.7694 -0.2649 -0.3379
  606MOL0     C83502   1.530   9.106   2.632 -0.0769 -0.5071  0.1302
  606MOL0     C83503   1.528   9.038   2.766 -0.3977  0.5951 -0.2895
  606MOL0     C83504   1.635   8.930   2.773  0.6341 -0.2993 -0.0369
  606MOL0     C83505   1.602   8.803   2.693  0.4342 -0.0369  0.8113
  606MOL0     C83506   1.555   8.686   2.779 -0.2087  0.1918  0.1019
  606MOL0     N83507   1.438   8.705   2.856  0.2249  0.4681  0.1833
  606MOL0     C83508   1.317   8.642   2.846 -0.4362  0.1305 -0.8934
  606MOL0     C83509   1.247   8.670   2.959 -0.5880  0.2042 -0.0002
  606MOL0     C83510   1.109   8.624   2.989  0.3464 -0.8528 -0.6121
  606MOL0     C83511   1.089   8.614   3.140 -0.2998 -0.9228  0.3652
  606MOL0     C83512   0.974   8.525   3.175  0.9509 -0.3774 -0.1491
  606MOL0     C83513   0.977   8.373   3.134  1.2049 -1.4622  0.1827
  606MOL0     O83514   1.068   8.291   3.210 -0.6096 -0.7125  0.5670
  606MOL0     C83515   1.057   8.269   3.345  0.0423  0.0384  0.7215
  606MOL0     C83516   0.966   8.322   3.437  0.0160 -0.0248  0.8785
  606MOL0     C83517   0.964   8.289   3.578 -0.0734  0.1510  0.3418
  606MOL0     C83518   0.869   8.351   3.671  0.1408 -0.6422  0.6779
  606MOL0     C83519   1.060   8.196   3.625  0.3350  0.0038  0.0538
  606MOL0     C83520   1.087   8.142   3.761 -0.9314  0.0636  0.7074
  606MOL0     O83521   1.196   8.069   3.790 -0.0448 -0.7467  0.2598
  606MOL0     C83522   1.197   7.995   3.907 -0.4111 -0.7591  0.0986
  606MOL0     C83523   1.124   7.878   3.929  0.5795  0.1706  0.4477
  606MOL0     C83524   1.121   7.821   4.047  0.4369 -0.1715 -0.5370
  606MOL0     C83525   1.208   7.866   4.153 -0.0730  0.3683 -0.2817
  606MOL0     O83526   1.211   7.794   4.266 -0.0527 -0.1842 -0.0635
  606MOL0     C83527   1.333   7.770   4.334  0.1196  0.1465 -0.4308
  606MOL0     C83528   1.324   7.660   4.434 -0.1591  0.5267  0.2790
  606MOL0     C83529   1.456   7.608   4.485 -1.0286  0.3673  0.6067
  606MOL0     C83530   1.491   7.654   4.631 -0.3088  0.1463  0.5107
  606MOL0     C83531   1.637   7.622   4.660  0.3651  0.5792 -0.3946
  606MOL0     C83532   1.646   7.565   4.801  0.0161  1.1251 -0.1724
  606MOL0     C83533   1.785   7.544   4.857  0.0626 -0.3544  0.9361
  606MOL0     C83534   1.800   7.433   4.946  0.6909  0.4729 -0.0982
  606MOL0    Cl83535   1.784   7.452   5.120  0.0745  0.2100 -0.4873
  606MOL0     C83536   1.270   7.988   4.136 -0.2383 -0.7483 -0.0613
  606MOL0     C83537   1.261   8.055   4.010  0.2438 -0.3427 -0.6769
  606MOL0     O83538   1.003   8.168   3.849 -0.2367  0.6707  0.4995
  606MOL0     C83539   1.142   8.130   3.524 -0.1574 -1.0767 -0.0284
  606MOL0     C83540   1.151   8.180   3.388 -0.6507  0.6489  0.0066
  606MOL0     N83541   1.327   8.761   3.026  0.1991  0.1499  0.2629
  606MOL0     N83542   1.433   8.780   2.964 -0.4158  0.2964 -0.0326
  606MOL0     C83543   1.490   9.646   2.525  0.2007 -0.2050  0.1510
  606MOL0     C83544   1.515   9.781   2.548 -0.3197 -0.0518 -1.0142
  606MOL0     C83545   1.636  10.149   2.756 -0.1756  0.3510  0.5165
  606MOL0     C83546   1.682  10.219   2.643  0.2500  0.6773 -0.1369
  606MOL0     C83547   1.720  10.360   2.652  0.3134  0.4073 -0.5666
  606MOL0     C83548   1.707  10.427   2.775 -0.7700  0.7392  0.2133
  606MOL0     O83549   1.757  10.558   2.778 -0.4408  0.6892  1.3050
  606MOL0     C83550   1.813  10.620   2.902  0.4477 -0.2134 -0.7416
  606MOL0     C83551   1.946  10.561   2.968  1.0487  1.2518  0.7282
  606MOL0     C83552   2.012  10.653   3.074  0.3524 -0.0498 -0.9223
  606MOL0     C83553   1.916  10.694   3.184  0.1370  0.1245 -0.0794
  606MOL0     C83554   1.856  10.578   3.245 -0.0786  1.0192 -0.1825
  606MOL0     C83555   1.801  10.490   3.299  0.2556  0.0723  0.2379
  606MOL0     C83556   1.670  10.355   2.890  0.1971 -0.7245  0.3895
  606MOL0     C83557   1.634  10.223   2.884  0.9255  0.2764  0.5153
  606MOL0     C83558   1.596  10.155   3.013  0.5570 -0.4948  0.0462
  606MOL0     H83559   1.785   9.742   2.748  3.0932 -1.0071 -4.3184
  606MOL0     H83560   1.722   9.497   2.701  0.2332  0.9732  1.4093
  606MOL0     H83561   1.571   9.420   2.365 -0.4615  0.5621 -0.4453
  606MOL0     H83562   1.463   9.289   2.428  0.1218 -1.1320  2.7754
  606MOL0     H83563   1.707   9.198   2.387  2.2258  0.1794  0.4935
  606MOL0     H83564   1.767   9.323   2.472  0.6552 -1.3349 -1.1020
  606MOL0     H83565   1.754   9.124   2.614  0.6045  1.6315  0.5443
  606MOL0     H83566   1.683   9.253   2.693  1.3925  0.1830 -1.0639
  606MOL0     H83567   1.452   9.181   2.650 -0.0508 -0.7672  1.4780
  606MOL0     H83568   1.499   9.044   2.548 -1.8719  1.3478 -0.6388
  606MOL0     H83569   1.430   8.994   2.782  0.6014 -1.6433  0.1013
  606MOL0     H83570   1.547   9.120   2.836  2.4274 -0.5046  0.4024
  606MOL0     H83571   1.736   8.966   2.750  1.2729 -0.7740  1.7903
  606MOL0     H83572   1.645   8.911   2.881  1.2020 -1.0190 -0.2045
  606MOL0     H83573   1.693   8.761   2.650  0.8427  1.7198 -0.1252
  606MOL0     H83574   1.526   8.824   2.618 -1.2630  0.8270  2.6635
  606MOL0     H83575   1.554   8.602   2.709  1.8882  1.7042 -1.8768
  606MOL0     H83576   1.646   8.672   2.838  0.9294  2.1977 -1.0579
  606MOL0     H83577   1.289   8.558   2.783 -0.5880  0.0874 -0.7703
  606MOL0     H83578   1.092   8.525   2.947  2.0969 -1.2793 -0.3847
  606MOL0     H83579   1.040   8.699   2.947 -1.2165 -2.5650 -1.2245
  606MOL0     H83580   1.179   8.576   3.190  0.1153  2.1637  2.2146
  606MOL0     H83581   1.069   8.712   3.184  1.6045  0.1805 -1.0769
  606MOL0     H83582   0.960   8.532   3.283 -0.7630  2.6678 -0.4616
  606MOL0     H83583   0.883   8.570   3.134  0.5955 -1.2243 -0.3154
  606MOL0     H83584   0.872   8.343   3.145  0.4772  0.6650 -0.5239
  606MOL0     H83585   1.002   8.358   3.029  0.9688 -0.1662 -0.0762
  606MOL0     H83586   0.886   8.382   3.393  0.4709 -0.5927 -0.8195
  606MOL0     H83587   0.802   8.413   3.610  1.1233  0.4284  0.6481
  606MOL0     H83588   0.920   8.412   3.746 -0.8972  1.3572 -0.1696
  606MOL0     H83589   0.810   8.272   3.718 -0.6867  0.8583  2.2831
  606MOL0     H83590   1.080   7.826   3.845 -1.0305 -1.0656  1.9687
  606MOL0     H83591   1.065   7.731   4.070  0.2305 -0.1285 -0.8682
  606MOL0     H83592   1.416   7.742   4.269  2.4085 -2.4139  3.1799
  606MOL0     H83593   1.352   7.860   4.394 -1.0335 -0.8917  1.6277
  606MOL0     H83594   1.264   7.693   4.519  0.6793  0.5626  0.8746
  606MOL0     H83595   1.271   7.570   4.402 -2.0241  0.0332  4.1381
  606MOL0     H83596   1.541   7.635   4.422 -2.1337 -0.1338 -1.1748
  606MOL0     H83597   1.456   7.499   4.487  0.9648  0.3323  0.6184
  606MOL0     H83598   1.421   7.603   4.699  2.6875 -1.3184  2.7275
  606MOL0     H83599   1.483   7.761   4.652 -0.3670  1.1973 -3.8844
  606MOL0     H83600   1.682   7.543   4.599 -0.8496 -0.1144 -0.4068
  606MOL0     H83601   1.699   7.711   4.646  0.8907 -0.2066 -3.8605
  606MOL0     H83602   1.592   7.471   4.801  2.3509 -0.3136  0.0486
  606MOL0     H83603   1.593   7.642   4.857  0.9897 -0.4361  3.1561
  606MOL0     H83604   1.811   7.642   4.896 -0.4609  0.6695 -1.1272
  606MOL0     H83605   1.849   7.526   4.770 -3.6181  2.5681 -2.7730
  606MOL0     H83606   1.898   7.388   4.933 -0.0718 -1.4301  0.3248
  606MOL0     H83607   1.728   7.355   4.918 -1.0596  1.7258  0.6758
  606MOL0     H83608   1.325   8.038   4.215 -1.4906  1.6216 -0.6019
  606MOL0     H83609   1.308   8.152   4.011  4.1279 -1.8985 -4.0036
  606MOL0     H83610   1.214   8.056   3.557  1.3408 -0.5435 -1.9580
  606MOL0     H83611   1.222   8.146   3.313  1.4560 -0.9032  2.5536
  606MOL0     H83612   1.401   9.623   2.467 -0.3143 -2.9758  1.8138
  606MOL0     H83613   1.475   9.854   2.478 -0.2217 -0.1009 -1.1203
  606MOL0     H83614   1.694  10.164   2.550  1.5015 -0.3672  0.6165
  606MOL0     H83615   1.762  10.403   2.562  0.3052  0.3029 -0.6210
  606MOL0     H83616   1.830  10.726   2.885 -1.0951  0.1394 -0.2483
  606MOL0     H83617   1.735  10.606   2.977  0.9596 -1.2208 -0.3644
  606MOL0     H83618   2.016  10.533   2.890  2.1478 -0.7139  2.3290
  606MOL0     H83619   1.913  10.469   3.017  0.8833  0.8534 -0.1215
  606MOL0     H83620   2.101  10.604   3.114  1.7980  0.8577 -2.8240
  606MOL0     H83621   2.032  10.747   3.022 -1.8643  0.6119 -0.6819
  606MOL0     H83622   1.842  10.765   3.146  0.3165 -0.6319 -1.9383
  606MOL0     H83623   1.979  10.734   3.264  1.6583 -1.8556 -0.2050
  606MOL0     H83624   1.764  10.412   3.363  0.0216  0.9305  1.1875
  606MOL0     H83625   1.683  10.403   2.986  2.9406 -0.5471  0.0269
  606MOL0     H83626   1.491  10.121   3.016 -0.3164  2.0307  1.8943
  606MOL0     H83627   1.650  10.064   3.041  0.2520  0.1586  3.1310
  606MOL0     H83628   1.624  10.220   3.096  3.5641 -1.8115  0.1803
  607MOL0     O83629   4.930   5.616   9.904  0.5948 -0.9881  0.6505
  607MOL0     C83630   4.909   5.604   9.777  0.9976  0.3341  0.2044
  607MOL0     O83631   4.945   5.689   9.680  0.7240  0.2592  0.0174
  607MOL0     C83632   4.997   5.805   9.728 -0.5223  0.2177  1.2210
  607MOL0     C83633   5.118   5.847   9.671  0.3480  0.1857  0.9962
  607MOL0     C83634   5.175   5.964   9.721  0.8885  0.0772 -0.3539
  607MOL0     C83635   5.122   6.034   9.831 -0.1704 -0.3662 -0.1219
  607MOL0     O83636   5.195   6.137   9.884  0.1421  0.5549 -0.3193
  607MOL0     C83637   5.297   6.098   9.976 -0.1782  0.1994 -0.2492
  607MOL0     C83638   5.319   6.220  10.072 -0.0611  0.2995  0.5571
  607MOL0     C83639   5.379   6.345  10.001 -0.5098 -0.7738  0.6266
  607MOL0     C83640   5.420   6.444  10.109  0.8146  0.2745  1.0722
  607MOL0     C83641   5.479   6.571  10.056  0.4661 -0.9015  0.8199
  607MOL0     C83642   5.365   6.658  10.006  0.0999 -0.4096  0.0212
  607MOL0     C83643   5.423   6.778   9.932  0.3574  0.2176  0.3921
  607MOL0     C83644   5.403   6.908  10.004  0.0297 -0.3517 -0.6512
  607MOL0     N83645   5.429   7.020   9.908  0.2062 -0.1058 -0.7137
  607MOL0     C83646   5.355   7.127   9.866  0.2754  0.3831 -1.4480
  607MOL0     C83647   5.443   7.200   9.799 -0.0659  0.3066  0.7462
  607MOL0     C83648   5.413   7.328   9.719  0.1453 -0.3905  0.3649
  607MOL0     C83649   5.319   7.296   9.602 -0.3385 -0.3954 -0.4458
  607MOL0     C83650   5.381   7.188   9.510  0.0706 -0.3338  0.6754
  607MOL0     C83651   5.297   7.178   9.388 -1.0112 -0.0199  0.8838
  607MOL0     O83652   5.386   7.095   9.308  0.5002  0.7809  0.3078
  607MOL0     C83653   5.348   6.986   9.227  0.5877 -0.9911  0.0008
  607MOL0     C83654   5.212   6.964   9.187 -1.0334  0.5246  0.1953
  607MOL0     C83655   5.193   6.882   9.069 -0.4284  1.7281 -0.3641
  607MOL0     C83656   5.057   6.891   9.006 -0.8012  0.0749  0.6458
  607MOL0     C83657   5.296   6.785   9.036 -0.7322 -0.8957  0.5288
  607MOL0     C83658   5.284   6.668   8.944  0.5562 -0.5731 -1.0929
  607MOL0     O83659   5.389   6.583   8.947  0.0987 -0.3334 -0.0136
  607MOL0     C83660   5.391   6.472   8.863  0.7637 -1.3875 -0.7815
  607MOL0     C83661   5.508   6.456   8.791 -0.0364  0.7980  0.1839
  607MOL0     C83662   5.510   6.345   8.704 -0.3906 -0.9564 -0.3149
  607MOL0     C83663   5.415   6.239   8.703 -0.2285  0.2543  0.1655
  607MOL0     O83664   5.413   6.119   8.637  0.6393 -0.4352  0.2289
  607MOL0     C83665   5.498   6.111   8.520 -0.4192  0.9782  0.1423
  607MOL0     C83666   5.430   6.157   8.390 -0.0158 -0.8397 -0.9811
  607MOL0     C83667   5.376   6.305   8.404  0.8050 -0.1809  0.1540
  607MOL0     C83668   5.357   6.365   8.257  0.1282  0.5012 -0.9650
  607MOL0     C83669   5.329   6.515   8.273 -0.0782 -0.8593 -0.4256
  607MOL0     C83670   5.351   6.588   8.137  0.2679  0.0037 -0.3511
  607MOL0     C83671   5.318   6.736   8.153  0.6583  0.1884  0.0678
  607MOL0     C83672   5.248   6.801   8.025  0.1296  0.6772 -1.4304
  607MOL0    Cl83673   5.066   6.776   8.029  0.3576  0.1426  0.1873
  607MOL0     C83674   5.311   6.261   8.789  0.0617  0.8842  1.4377
  607MOL0     C83675   5.294   6.377   8.861 -0.1115  0.1859 -0.6356
  607MOL0     O83676   5.177   6.647   8.886 -0.5012 -0.8103 -1.1097
  607MOL0     C83677   5.424   6.808   9.098 -0.3921  0.5248 -0.1646
  607MOL0     C83678   5.451   6.906   9.188  0.1091  0.9234 -0.6161
  607MOL0     N83679   5.569   7.140   9.805  0.2214  0.0103  0.1999
  607MOL0     N83680   5.558   7.039   9.876  0.0617 -0.0587  1.0176
  607MOL0     C83681   5.000   5.998   9.886  0.3902  1.4605  0.7774
  607MOL0     C83682   4.936   5.888   9.824  1.1041 -0.8166  0.1307
  607MOL0     C83683   4.842   5.477   9.725  0.1740  1.0838 -0.2043
  607MOL0     C83684   4.798   5.463   9.591  0.2167  0.2171  0.9001
  607MOL0     C83685   4.731   5.355   9.547 -0.4951  0.0899  0.0049
  607MOL0     C83686   4.709   5.243   9.628 -0.8727  0.8229 -0.4094
  607MOL0     O83687   4.656   5.120   9.589 -0.4538 -0.2680  0.7205
  607MOL0     C83688   4.571   5.110   9.474  0.3561  0.4523  0.4458
  607MOL0     C83689   4.438   5.193   9.514  0.6260  0.2924 -0.0238
  607MOL0     C83690   4.362   5.137   9.637 -0.7693 -0.5015 -0.1503
  607MOL0     C83691   4.245   5.227   9.650 -0.1012  0.8157 -1.4842
  607MOL0     C83692   4.143   5.204   9.549  0.0306  0.2349 -0.3993
  607MOL0     C83693   4.061   5.184   9.461  0.0922 -0.3086 -0.6118
  607MOL0     C83694   4.763   5.240   9.754 -0.0671  0.3568  0.4764
  607MOL0     C83695   4.826   5.354   9.802  0.5893  0.2273 -0.0032
  607MOL0     C83696   4.878   5.343   9.943  0.1271  1.1329  0.3602
  607MOL0     H83697   5.174   5.795   9.594  2.8744  1.1567  2.0560
  607MOL0     H83698   5.267   6.000   9.677  2.0965 -1.7886  0.5169
  607MOL0     H83699   5.391   6.065   9.931 -0.0039  2.5337 -1.7473
  607MOL0     H83700   5.258   6.023  10.045  2.2152  2.0897  3.4800
  607MOL0     H83701   5.227   6.238  10.128 -0.7188 -1.3540  0.0491
  607MOL0     H83702   5.385   6.187  10.154  1.6045  2.7644  0.3128
  607MOL0     H83703   5.471   6.315   9.950  0.4949 -2.8482  3.4003
  607MOL0     H83704   5.301   6.378   9.930 -0.2163 -0.0831  0.6184
  607MOL0     H83705   5.331   6.457  10.172 -1.4566 -0.5542 -1.7591
  607MOL0     H83706   5.496   6.390  10.166 -0.5961 -1.6901  1.1948
  607MOL0     H83707   5.550   6.553   9.974  0.3975 -0.4762  0.6686
  607MOL0     H83708   5.543   6.619  10.130  0.6038  1.3988 -0.7141
  607MOL0     H83709   5.306   6.588   9.945  0.8151  1.0952 -2.5668
  607MOL0     H83710   5.298   6.687  10.087 -0.5075  0.8382 -0.8973
  607MOL0     H83711   5.354   6.788   9.847 -1.3658 -0.7174  1.6249
  607MOL0     H83712   5.525   6.756   9.898 -0.4063 -1.0162 -1.2222
  607MOL0     H83713   5.303   6.914  10.049 -0.3497  1.3055 -1.6298
  607MOL0     H83714   5.477   6.925  10.083  0.5459  2.0789 -1.5677
  607MOL0     H83715   5.249   7.151   9.878  0.3994 -0.1379  1.0873
  607MOL0     H83716   5.500   7.378   9.675 -1.5361 -0.7338 -3.9047
  607MOL0     H83717   5.354   7.392   9.786 -0.7641 -0.3091 -0.4789
  607MOL0     H83718   5.223   7.257   9.636 -0.2256  0.1833  0.5518
  607MOL0     H83719   5.309   7.386   9.542  1.8641  0.2470  0.0380
  607MOL0     H83720   5.479   7.227   9.482  0.1708 -1.3787 -0.5100
  607MOL0     H83721   5.389   7.088   9.552 -0.1181 -0.3257  0.7298
  607MOL0     H83722   5.208   7.117   9.407 -1.2533  0.2458  0.6084
  607MOL0     H83723   5.267   7.273   9.342  2.0261  1.7822  2.2788
  607MOL0     H83724   5.136   7.021   9.240 -1.0239  0.4168  0.3260
  607MOL0     H83725   4.997   6.815   9.056 -3.5752  1.4858 -0.2990
  607MOL0     H83726   5.058   6.878   8.898  0.1718 -4.5557  1.0018
  607MOL0     H83727   5.020   6.991   9.032  2.3713  0.7231  3.2818
  607MOL0     H83728   5.573   6.542   8.802 -1.0021  1.6634 -0.6476
  607MOL0     H83729   5.600   6.347   8.644 -0.3212  1.2110 -0.2225
  607MOL0     H83730   5.581   6.180   8.538  0.5800 -0.2242  0.2669
  607MOL0     H83731   5.535   6.009   8.509 -4.9893 -1.0584  1.4323
  607MOL0     H83732   5.489   6.139   8.300 -0.8783  0.3114 -1.8141
  607MOL0     H83733   5.342   6.093   8.378  1.0221 -2.0562 -2.5807
  607MOL0     H83734   5.436   6.384   8.449 -1.0935  0.1669  2.2235
  607MOL0     H83735   5.275   6.314   8.446  0.8541  0.7619  0.0873
  607MOL0     H83736   5.271   6.315   8.212 -1.5535  0.7256  1.7853
  607MOL0     H83737   5.447   6.360   8.194  0.1548  0.2895 -0.9129
  607MOL0     H83738   5.226   6.520   8.311  0.6227  1.2030  1.3486
  607MOL0     H83739   5.392   6.546   8.356  1.0946 -1.9661 -0.8708
  607MOL0     H83740   5.290   6.546   8.057 -2.1747  0.9555  0.8934
  607MOL0     H83741   5.451   6.568   8.096 -0.0858 -1.6504 -0.4648
  607MOL0     H83742   5.408   6.792   8.184  0.5872 -0.5068  1.6188
  607MOL0     H83743   5.246   6.738   8.235 -0.1428 -1.9588 -0.5327
  607MOL0     H83744   5.292   6.753   7.937  1.3079  1.1207 -1.0914
  607MOL0     H83745   5.271   6.908   8.026  2.1195  0.2944 -1.7322
  607MOL0     H83746   5.237   6.182   8.796 -1.0645  1.9724  2.1266
  607MOL0     H83747   5.210   6.371   8.929 -1.5178 -0.0955 -2.3258
  607MOL0     H83748   5.520   6.766   9.070 -0.1897  0.2942  0.8431
  607MOL0     H83749   5.554   6.935   9.209 -0.0797  1.6103 -0.6216
  607MOL0     H83750   4.958   6.069   9.957 -0.0407  3.3968 -1.3038
  607MOL0     H83751   4.847   5.872   9.884  1.2459 -1.8578  0.0801
  607MOL0     H83752   4.817   5.544   9.521 -2.6323  1.1511  1.1021
  607MOL0     H83753   4.706   5.341   9.442 -1.1543 -2.5215  0.4470
  607MOL0     H83754   4.617   5.152   9.385  1.3864  0.2819  0.8923
  607MOL0     H83755   4.541   5.006   9.454  3.0083 -0.0661 -1.3105
  607MOL0     H83756   4.379   5.192   9.422  0.4254 -1.2945  0.1078
  607MOL0     H83757   4.455   5.300   9.531 -0.3585  0.0870  2.8814
  607MOL0     H83758   4.332   5.036   9.608  2.1878 -0.9250 -2.2088
  607MOL0     H83759   4.414   5.139   9.733 -2.6395 -1.9417  0.9664
  607MOL0     H83760   4.276   5.331   9.652  1.0641  0.4989  1.1777
  607MOL0     H83761   4.209   5.211   9.752  0.4008  1.6523 -1.1672
  607MOL0     H83762   3.997   5.166   9.376 -1.7397 -1.1598  0.8741
  607MOL0     H83763   4.773   5.152   9.817 -0.3782 -0.9503 -1.2228
  607MOL0     H83764   4.844   5.255   9.999  1.7236  2.3190  3.4190
  607MOL0     H83765   4.987   5.340   9.930  0.1074 -1.8693  0.1675
  607MOL0     H83766   4.845   5.428  10.003  0.1294  1.3980 -0.0134
  608MOL0     O83767  10.573   4.066   8.118 -0.6112 -0.3792 -0.7036
  608MOL0     C83768  10.548   4.180   8.071 -0.7329  0.2960 -0.4121
  608MOL0     O83769  10.452   4.201   7.977 -0.2956 -0.7613  0.2067
  608MOL0     C83770  10.349   4.115   7.973  0.5289  0.0026  0.4727
  608MOL0     C83771  10.260   4.106   8.082 -0.2035  0.0591 -0.0124
  608MOL0     C83772  10.156   4.010   8.071 -0.5365  0.1595 -0.5623
  608MOL0     C83773  10.114   3.955   7.958 -0.3413  0.5899  0.8560
  608MOL0     O83774  10.006   3.885   7.926 -0.1850 -0.7634  0.6887
  608MOL0     C83775   9.888   3.936   7.977 -0.3083  0.3753 -0.2460
  608MOL0     C83776   9.769   3.866   7.921 -0.5008  0.5421 -0.0818
  608MOL0     C83777   9.653   3.856   8.023  0.5098  0.0522  0.2915
  608MOL0     C83778   9.549   3.754   7.967 -0.1303 -0.3199  1.2233
  608MOL0     C83779   9.413   3.754   8.043 -0.3045 -0.8796  0.1935
  608MOL0     C83780   9.312   3.868   7.997  0.5685  0.8688  0.5192
  608MOL0     C83781   9.187   3.864   8.092  0.7005  0.2165 -0.3938
  608MOL0     C83782   9.085   3.958   8.060  0.4206 -0.0874 -0.2257
  608MOL0     N83783   8.993   3.966   8.175 -0.2244  0.5896 -0.0934
  608MOL0     C83784   8.912   3.859   8.221 -0.8130 -0.0655  0.6478
  608MOL0     C83785   8.858   3.927   8.333 -0.5954  0.8854  0.5727
  608MOL0     C83786   8.751   3.866   8.422  0.5911 -0.5093 -0.8671
  608MOL0     C83787   8.778   3.725   8.470 -0.3302 -0.8118 -0.4057
  608MOL0     C83788   8.638   3.663   8.513 -1.2484 -0.9056  0.1872
  608MOL0     C83789   8.636   3.524   8.584  0.4858  0.4889 -0.3081
  608MOL0     O83790   8.755   3.487   8.649  0.6494  0.0817  0.5042
  608MOL0     C83791   8.750   3.363   8.704  0.0449  0.8279 -0.9964
  608MOL0     C83792   8.843   3.265   8.674  0.6382  1.1928 -0.2779
  608MOL0     C83793   8.845   3.143   8.750  0.1111  0.3681  0.3560
  608MOL0     C83794   8.946   3.049   8.700 -0.0238 -0.0384  0.6805
  608MOL0     C83795   8.756   3.126   8.864 -0.0365 -1.1331  0.7802
  608MOL0     C83796   8.745   3.000   8.935  0.1399 -0.1178  0.4177
  608MOL0     O83797   8.659   2.996   9.038  0.5235  0.6821  0.4593
  608MOL0     C83798   8.691   2.909   9.136  0.2683  0.0714  0.2101
  608MOL0     C83799   8.712   2.978   9.249 -0.4977  0.0786 -0.0243
  608MOL0     C83800   8.722   2.911   9.373  0.2366 -0.5217 -0.8385
  608MOL0     C83801   8.700   2.774   9.381  0.5686  0.3005 -0.3922
  608MOL0     O83802   8.716   2.706   9.501 -0.1792 -0.2625 -0.8406
  608MOL0     C83803   8.769   2.578   9.500  0.1259  0.3588  0.5722
  608MOL0     C83804   8.832   2.559   9.637 -0.0386 -0.3661 -0.1928
  608MOL0     C83805   8.913   2.434   9.628 -0.0044 -0.7098 -0.4629
  608MOL0     C83806   8.835   2.297   9.619  0.0107 -0.3973 -0.2352
  608MOL0     C83807   8.939   2.189   9.592 -0.3514  0.0142 -0.5747
  608MOL0     C83808   8.891   2.043   9.561  0.4480 -0.1065  0.7398
  608MOL0     C83809   9.011   1.943   9.575  0.3727 -0.1459 -1.2936
  608MOL0     C83810   8.981   1.802   9.525 -0.4938  0.2073  0.4931
  608MOL0    Cl83811   9.002   1.805   9.345  0.1690  0.3593 -0.0182
  608MOL0     C83812   8.682   2.707   9.260  0.1341  0.2230 -0.1313
  608MOL0     C83813   8.679   2.772   9.140 -0.3613 -0.0382 -0.1253
  608MOL0     O83814   8.812   2.901   8.904  0.3925  0.4973  0.1237
  608MOL0     C83815   8.665   3.232   8.893  0.4073  0.0458 -0.1135
  608MOL0     C83816   8.658   3.337   8.810 -0.5826 -1.0047  0.6038
  608MOL0     N83817   8.899   4.058   8.338 -0.3199  0.0079  0.0712
  608MOL0     N83818   8.976   4.083   8.239  0.1593  0.2115 -0.6742
  608MOL0     C83819  10.205   3.965   7.855 -0.2564  1.1268 -0.0809
  608MOL0     C83820  10.328   4.038   7.865  0.0880 -0.6005  0.0847
  608MOL0     C83821  10.633   4.289   8.112  0.7704  0.4307 -1.0023
  608MOL0     C83822  10.594   4.413   8.071  0.0294  0.0304 -0.7366
  608MOL0     C83823  10.674   4.526   8.090  0.5486 -0.1259  0.1011
  608MOL0     C83824  10.799   4.522   8.153 -0.0291 -0.0174  0.2499
  608MOL0     O83825  10.874   4.637   8.169 -0.8390 -0.3765  0.8506
  608MOL0     C83826  10.929   4.691   8.041  0.1733 -0.5425 -0.5740
  608MOL0     C83827  11.007   4.822   8.068 -0.4378  0.6902 -0.2618
  608MOL0     C83828  10.913   4.928   8.120 -0.1644 -0.2828 -0.8553
  608MOL0     C83829  11.000   5.050   8.166  1.1743 -0.3405 -0.2325
  608MOL0     C83830  10.901   5.155   8.179  0.5028  0.7566 -0.0600
  608MOL0     C83831  10.798   5.227   8.173  0.3537  0.6711  0.7592
  608MOL0     C83832  10.832   4.399   8.213 -0.2836 -0.7386  0.0816
  608MOL0     C83833  10.759   4.283   8.184  0.8595 -0.2476 -0.1327
  608MOL0     C83834  10.821   4.158   8.237 -0.3461  0.0451  0.4767
  608MOL0     H83835  10.268   4.172   8.169 -2.2374  0.2394  0.0707
  608MOL0     H83836  10.097   3.999   8.161  1.7260 -1.5038  0.8185
  608MOL0     H83837   9.890   4.045   7.974  2.0496  0.3796 -0.8287
  608MOL0     H83838   9.905   3.908   8.082  7.7988 -0.1045 -1.0401
  608MOL0     H83839   9.728   3.924   7.838  0.8938  1.2503 -0.3090
  608MOL0     H83840   9.792   3.768   7.879 -0.4175  2.2005 -4.4225
  608MOL0     H83841   9.687   3.822   8.121 -2.1473 -2.9662  0.3223
  608MOL0     H83842   9.606   3.954   8.038  2.4596  0.7433  2.5108
  608MOL0     H83843   9.541   3.788   7.863  0.4004  3.1677  2.2079
  608MOL0     H83844   9.600   3.657   7.973  0.0941 -0.6163 -2.7240
  608MOL0     H83845   9.425   3.770   8.150 -0.6358  1.1700 -0.0272
  608MOL0     H83846   9.359   3.662   8.019  0.1130 -1.2783  0.7797
  608MOL0     H83847   9.367   3.962   8.010  1.5269  0.0219  3.2674
  608MOL0     H83848   9.286   3.862   7.891  2.3632 -0.4251  0.1125
  608MOL0     H83849   9.222   3.899   8.189  0.1496  3.9887 -1.3866
  608MOL0     H83850   9.150   3.761   8.091  0.9698 -0.0219  2.8905
  608MOL0     H83851   9.130   4.054   8.037 -0.8125  0.0960 -2.0452
  608MOL0     H83852   9.031   3.923   7.972  0.5129  1.4564 -0.9196
  608MOL0     H83853   8.890   3.760   8.182  0.9107 -0.3229  0.2385
  608MOL0     H83854   8.653   3.873   8.374 -0.6684  0.2871  1.6562
  608MOL0     H83855   8.728   3.929   8.509 -0.7856  0.1066 -1.6406
  608MOL0     H83856   8.832   3.676   8.389  0.7183  0.6270 -0.6112
  608MOL0     H83857   8.844   3.713   8.556  0.4960  1.1050 -0.7202
  608MOL0     H83858   8.596   3.731   8.588 -0.6725  1.2317 -1.3368
  608MOL0     H83859   8.579   3.663   8.422 -0.0456 -1.0752 -0.6170
  608MOL0     H83860   8.559   3.527   8.662  1.4548 -0.6075  0.7236
  608MOL0     H83861   8.614   3.453   8.504  1.1572  0.3344 -0.3593
  608MOL0     H83862   8.899   3.276   8.582 -0.0520 -0.1785 -0.9000
  608MOL0     H83863   9.016   3.105   8.637  0.1964  1.2498  2.0173
  608MOL0     H83864   8.902   2.962   8.651  0.0123  0.4264 -0.1905
  608MOL0     H83865   9.002   3.009   8.785 -3.1911 -2.1229  1.9614
  608MOL0     H83866   8.701   3.086   9.254  0.0439  0.2908 -2.2513
  608MOL0     H83867   8.727   2.968   9.466 -0.8534 -1.2327 -0.3206
  608MOL0     H83868   8.688   2.508   9.477 -0.1856  1.8231 -4.0635
  608MOL0     H83869   8.842   2.573   9.419  1.7976 -0.7505  2.0855
  608MOL0     H83870   8.907   2.637   9.653  1.7655 -1.9653 -0.5313
  608MOL0     H83871   8.755   2.559   9.715 -1.7228 -0.0522 -1.7945
  608MOL0     H83872   8.982   2.435   9.713 -1.0158 -1.5353  0.3909
  608MOL0     H83873   8.985   2.438   9.545 -1.2039  0.2069 -1.4877
  608MOL0     H83874   8.758   2.293   9.542 -0.0159  1.2908 -0.3398
  608MOL0     H83875   8.789   2.279   9.716 -1.8386 -1.7758 -1.3163
  608MOL0     H83876   9.008   2.219   9.512 -0.0602 -1.2461 -0.8211
  608MOL0     H83877   9.000   2.183   9.683 -1.2801  0.3967  0.0846
  608MOL0     H83878   8.857   2.035   9.457  0.3968 -0.4113  0.7787
  608MOL0     H83879   8.805   2.009   9.620 -1.0079  3.2453  0.7980
  608MOL0     H83880   9.038   1.947   9.681 -1.6458  0.4193 -0.7567
  608MOL0     H83881   9.087   1.997   9.518  1.5139 -0.7168 -0.3646
  608MOL0     H83882   8.878   1.772   9.546 -0.6381 -1.3144 -2.0025
  608MOL0     H83883   9.055   1.731   9.563  0.8910  1.4031  0.1232
  608MOL0     H83884   8.661   2.601   9.262 -3.0540  0.7564  2.0565
  608MOL0     H83885   8.666   2.714   9.049  0.9255 -1.2442  0.4124
  608MOL0     H83886   8.593   3.231   8.974  1.1495  2.5132  0.6531
  608MOL0     H83887   8.601   3.420   8.849  1.9641  0.8540  0.6172
  608MOL0     H83888  10.185   3.928   7.755  2.7786  1.8232 -1.0633
  608MOL0     H83889  10.389   4.041   7.775 -0.4904  1.9304 -0.2985
  608MOL0     H83890  10.501   4.427   8.017 -0.1131 -0.0628 -0.5143
  608MOL0     H83891  10.636   4.619   8.050  0.1602 -0.1407  0.4341
  608MOL0     H83892  10.997   4.615   8.003  0.8581 -0.2311 -0.0008
  608MOL0     H83893  10.853   4.712   7.965  1.0953  0.7802 -1.1808
  608MOL0     H83894  11.063   4.850   7.979  2.3192 -0.6549  0.9236
  608MOL0     H83895  11.080   4.807   8.148 -2.7255 -1.3820  1.6452
  608MOL0     H83896  10.834   4.950   8.047  0.4246 -0.3122 -1.5109
  608MOL0     H83897  10.868   4.885   8.210  0.3894 -0.4712 -0.6613
  608MOL0     H83898  11.077   5.075   8.092  2.3741 -0.3439  0.9606
  608MOL0     H83899  11.043   5.021   8.263  2.5392  0.9456 -0.4188
  608MOL0     H83900  10.706   5.283   8.172  0.7224  1.2735 -0.3599
  608MOL0     H83901  10.927   4.389   8.265 -0.2244  1.1871  0.4236
  608MOL0     H83902  10.817   4.078   8.162  1.0760  1.6994 -1.4801
  608MOL0     H83903  10.923   4.179   8.271 -1.2689  2.9384  1.8004
  608MOL0     H83904  10.759   4.130   8.323 -0.7950 -1.8405 -0.4020
  609MOL0     O83905  11.291   5.319   8.199 -0.7812 -0.8702  0.3077
  609MOL0     C83906  11.321   5.436   8.229 -0.4019  0.5389  0.4786
  609MOL0     O83907  11.415   5.478   8.323  0.6198  0.5157 -0.1761
  609MOL0     C83908  11.493   5.380   8.389 -0.0548  1.0068  0.3339
  609MOL0     C83909  11.575   5.303   8.306  0.1985  0.7838  0.4277
  609MOL0     C83910  11.666   5.223   8.367  0.3387 -0.6953  0.1212
  609MOL0     C83911  11.670   5.215   8.505 -1.4244  0.7840  0.6944
  609MOL0     O83912  11.767   5.133   8.545  0.4130  0.5374 -0.2485
  609MOL0     C83913  11.886   5.199   8.584 -0.1313  0.6959  0.0190
  609MOL0     C83914  11.991   5.098   8.565 -1.1338 -0.5767  1.1013
  609MOL0     C83915  12.131   5.152   8.530  0.3186 -0.6619  0.4280
  609MOL0     C83916  12.204   5.195   8.657  0.8000 -0.3674  0.2326
  609MOL0     C83917  12.351   5.206   8.644  0.9756  0.0531  0.0622
  609MOL0     C83918  12.401   5.317   8.544 -0.5830 -0.6418 -0.1631
  609MOL0     C83919  12.563   5.321   8.551 -0.9096  0.1512 -0.7391
  609MOL0     C83920  12.616   5.416   8.445 -0.2877  0.8180  0.0504
  609MOL0     N83921  12.763   5.385   8.428 -0.3318  0.0971  0.5391
  609MOL0     C83922  12.869   5.456   8.474 -0.4825 -0.2586  0.4447
  609MOL0     C83923  12.977   5.406   8.405  0.0493 -0.1171 -0.1321
  609MOL0     C83924  13.119   5.453   8.399  0.3670 -0.6632 -0.3315
  609MOL0     C83925  13.215   5.378   8.485  0.1796 -0.0737 -0.6965
  609MOL0     C83926  13.177   5.374   8.638  0.6073  0.6348 -0.4435
  609MOL0     C83927  13.199   5.515   8.696 -0.0779 -0.2882 -0.1223
  609MOL0     O83928  13.333   5.570   8.669  0.1592 -0.4171 -0.6723
  609MOL0     C83929  13.348   5.700   8.647  0.5711  0.8259 -0.5039
  609MOL0     C83930  13.450   5.723   8.551  0.2770 -0.5670 -0.3556
  609MOL0     C83931  13.465   5.859   8.508 -0.5262 -0.1140  0.3570
  609MOL0     C83932  13.570   5.893   8.395 -0.6465 -0.4401 -0.1257
  609MOL0     C83933  13.397   5.967   8.569  1.3070  0.2061 -0.0263
  609MOL0     C83934  13.403   6.109   8.532 -0.2743  0.6228  0.3559
  609MOL0     O83935  13.396   6.194   8.637  0.4097 -0.4203  0.5122
  609MOL0     C83936  13.413   6.334   8.649 -0.2493  0.6245  0.2555
  609MOL0     C83937  13.427   6.418   8.545  1.2263  0.3375 -0.3116
  609MOL0     C83938  13.456   6.555   8.577  0.1846 -0.1268 -0.5472
  609MOL0     C83939  13.465   6.603   8.711  0.2543 -0.1033  0.1314
  609MOL0     O83940  13.500   6.731   8.755 -0.6661 -0.5513  0.0027
  609MOL0     C83941  13.595   6.783   8.666  0.6238  0.9127 -0.2244
  609MOL0     C83942  13.665   6.908   8.724 -0.1299 -0.8289 -0.2325
  609MOL0     C83943  13.581   7.025   8.709 -0.3733  0.7314 -0.1887
  609MOL0     C83944  13.643   7.154   8.753  0.2034 -0.1488  0.0677
  609MOL0     C83945  13.589   7.299   8.728 -0.3291 -0.1295  0.2416
  609MOL0     C83946  13.449   7.315   8.779  0.0380 -0.3957  0.3186
  609MOL0     C83947  13.395   7.457   8.754 -0.0850  0.7619  0.7532
  609MOL0     C83948  13.438   7.576   8.831 -0.8498 -0.1489 -0.2074
  609MOL0    Cl83949  13.376   7.562   8.995  0.3625 -0.1590  0.6805
  609MOL0     C83950  13.452   6.503   8.808 -0.5909  0.4791 -0.1855
  609MOL0     C83951  13.435   6.375   8.785  0.5878 -0.7132 -0.6357
  609MOL0     O83952  13.402   6.131   8.416  0.7545 -0.1395  0.8252
  609MOL0     C83953  13.298   5.940   8.661 -0.3597  0.1128 -0.3551
  609MOL0     C83954  13.272   5.810   8.699  0.4194  0.5020  0.0090
  609MOL0     N83955  12.936   5.310   8.312 -0.1021  0.2218 -0.7653
  609MOL0     N83956  12.805   5.302   8.327 -0.6845  0.5786  0.3113
  609MOL0     C83957  11.585   5.288   8.580  0.7939  0.5939 -0.3282
  609MOL0     C83958  11.494   5.373   8.521  0.2176 -1.1047  0.2317
  609MOL0     C83959  11.263   5.558   8.169 -0.5499 -0.4150  0.2155
  609MOL0     C83960  11.126   5.540   8.150  1.0226  0.1019  0.3751
  609MOL0     C83961  11.042   5.648   8.132 -0.2054  0.1454  0.0136
  609MOL0     C83962  11.089   5.776   8.118  0.0185  0.1818  0.3053
  609MOL0     O83963  11.012   5.891   8.102 -0.9345 -0.2646  0.0554
  609MOL0     C83964  10.874   5.874   8.068 -0.2498 -0.0634  0.1758
  609MOL0     C83965  10.823   6.008   8.008 -0.2588 -0.4664 -0.2097
  609MOL0     C83966  10.896   6.137   8.062  0.5831  0.5811 -0.7144
  609MOL0     C83967  10.844   6.257   7.992 -0.3523  0.7014  0.3448
  609MOL0     C83968  10.912   6.371   8.051  0.0065 -0.5079  0.3287
  609MOL0     C83969  10.963   6.467   8.106  0.1084  0.7184 -1.0420
  609MOL0     C83970  11.228   5.796   8.125 -1.0364 -0.2432 -0.0676
  609MOL0     C83971  11.317   5.685   8.157 -0.7314  0.3228 -0.1256
  609MOL0     C83972  11.468   5.712   8.182  0.5710  0.4096 -0.5127
  609MOL0     H83973  11.588   5.298   8.198 -1.1612 -1.4245  0.2866
  609MOL0     H83974  11.743   5.184   8.300  0.3566  1.4416 -1.2151
  609MOL0     H83975  11.885   5.239   8.686  1.3123  1.5647 -0.2818
  609MOL0     H83976  11.893   5.285   8.517 -2.3364 -0.5078 -1.8763
  609MOL0     H83977  12.002   5.017   8.638  3.9981  1.0225  2.4847
  609MOL0     H83978  11.963   5.058   8.467  1.3318  0.9168 -0.3218
  609MOL0     H83979  12.184   5.067   8.487  1.0520  0.1217 -0.2648
  609MOL0     H83980  12.122   5.229   8.453  0.2511 -1.2312 -0.1410
  609MOL0     H83981  12.167   5.296   8.678  2.4530 -0.2458  2.9395
  609MOL0     H83982  12.182   5.137   8.747 -1.2824 -0.8190 -0.4951
  609MOL0     H83983  12.375   5.104   8.613  1.1348 -0.1486  0.8337
  609MOL0     H83984  12.383   5.220   8.747  0.8098  0.5243  0.0538
  609MOL0     H83985  12.367   5.295   8.443 -2.3460  4.1749 -0.8737
  609MOL0     H83986  12.349   5.409   8.575  0.7429  0.4687 -1.0832
  609MOL0     H83987  12.604   5.220   8.540  1.0626  0.7577  0.7010
  609MOL0     H83988  12.600   5.360   8.646  0.4102 -0.4117 -1.0014
  609MOL0     H83989  12.548   5.413   8.359 -0.0576 -3.1123 -0.1750
  609MOL0     H83990  12.612   5.516   8.489  1.7165  0.6093  0.8303
  609MOL0     H83991  12.863   5.548   8.532  1.4106  0.6406 -0.6837
  609MOL0     H83992  13.127   5.557   8.432  1.3802 -0.4534 -1.1846
  609MOL0     H83993  13.151   5.454   8.294 -0.4283 -0.8001 -0.5813
  609MOL0     H83994  13.223   5.276   8.446  1.7612 -0.6343  0.9412
  609MOL0     H83995  13.313   5.425   8.474 -0.4870  2.0231  1.4954
  609MOL0     H83996  13.073   5.340   8.648  0.5673  0.8399 -0.1588
  609MOL0     H83997  13.242   5.308   8.695  0.3980  0.0526 -0.8608
  609MOL0     H83998  13.116   5.579   8.665  0.8924  0.2902 -1.6464
  609MOL0     H83999  13.183   5.490   8.801 -1.6611  1.3479  0.0839
  609MOL0     H84000  13.520   5.645   8.521 -0.4258 -0.0796 -3.6272
  609MOL0     H84001  13.633   5.808   8.366 -0.0509  0.8574 -2.9634
  609MOL0     H84002  13.631   5.977   8.429 -2.9481  1.8352 -1.2755
  609MOL0     H84003  13.515   5.934   8.310 -1.4324 -1.3235 -0.0517
  609MOL0     H84004  13.419   6.386   8.442  1.1945  1.3807 -0.6441
  609MOL0     H84005  13.480   6.615   8.490 -1.2827 -0.0622 -0.9343
  609MOL0     H84006  13.676   6.712   8.646  0.5535  1.0080 -0.8719
  609MOL0     H84007  13.545   6.815   8.575 -0.7235  0.3066  0.2824
  609MOL0     H84008  13.684   6.897   8.831 -3.6905  1.2816  0.7581
  609MOL0     H84009  13.757   6.932   8.669 -0.1755  0.7386  0.3364
  609MOL0     H84010  13.495   7.005   8.774  1.9473 -5.0185  1.7190
  609MOL0     H84011  13.552   7.036   8.604 -2.7972 -2.2899 -0.0001
  609MOL0     H84012  13.748   7.151   8.722  1.3616 -1.2693  3.6390
  609MOL0     H84013  13.651   7.159   8.862 -0.6781  3.2996  0.1008
  609MOL0     H84014  13.645   7.376   8.782 -1.8258 -0.1494  1.9378
  609MOL0     H84015  13.590   7.310   8.619 -0.4108 -1.3986  0.1022
  609MOL0     H84016  13.450   7.284   8.884 -1.4902  0.8154  0.7184
  609MOL0     H84017  13.387   7.247   8.719  0.7552  0.1703 -1.1002
  609MOL0     H84018  13.289   7.435   8.773  0.2380 -1.3617  0.3332
  609MOL0     H84019  13.403   7.487   8.650  0.7886 -1.3737  0.1505
  609MOL0     H84020  13.401   7.670   8.789  0.2628  0.9209  1.0820
  609MOL0     H84021  13.547   7.574   8.822 -0.8200  0.4535 -0.0374
  609MOL0     H84022  13.470   6.530   8.912  3.3477  0.4097 -0.7113
  609MOL0     H84023  13.428   6.321   8.879 -0.1716 -1.7754 -1.2890
  609MOL0     H84024  13.248   6.017   8.719 -0.4252 -0.5399  0.4742
  609MOL0     H84025  13.183   5.807   8.760 -1.4292  3.0750 -2.3194
  609MOL0     H84026  11.579   5.267   8.687 -0.5547  1.0391 -0.2981
  609MOL0     H84027  11.432   5.440   8.579  1.5696 -1.2706  1.9601
  609MOL0     H84028  11.079   5.442   8.158 -0.6595  0.8554  0.0928
  609MOL0     H84029  10.938   5.617   8.138  0.5992 -2.7509  0.9148
  609MOL0     H84030  10.877   5.801   7.987  1.7780 -2.3682  2.1605
  609MOL0     H84031  10.811   5.840   8.151  1.2770 -2.6103  0.4082
  609MOL0     H84032  10.714   6.014   8.007 -0.2128  2.4305  0.5050
  609MOL0     H84033  10.851   6.007   7.903 -2.3847  2.3868 -0.9288
  609MOL0     H84034  10.887   6.155   8.169 -0.1133  1.4118 -0.9016
  609MOL0     H84035  10.999   6.146   8.028  0.2490  0.5661 -1.7851
  609MOL0     H84036  10.738   6.261   8.018 -0.4067  3.3667  0.0085
  609MOL0     H84037  10.861   6.246   7.884  1.4169  1.3030  0.5293
  609MOL0     H84038  11.016   6.534   8.171  4.5618 -1.7675 -1.7765
  609MOL0     H84039  11.266   5.895   8.105  0.4173 -0.2437  2.2711
  609MOL0     H84040  11.528   5.634   8.133 -1.6710 -2.2083  0.6294
  609MOL0     H84041  11.487   5.812   8.142 -0.2765  2.2237  3.1701
  609MOL0     H84042  11.498   5.710   8.288  2.4781  1.5998 -0.9711
  610MOL0     O84043   3.132  10.797   8.507  0.1622  0.3725 -0.2325
  610MOL0     C84044   3.178  10.688   8.560  0.6112 -0.2578 -0.3571
  610MOL0     O84045   3.299  10.620   8.531  0.6122  0.4352  0.1292
  610MOL0     C84046   3.373  10.683   8.441  0.7329 -0.0205 -0.1451
  610MOL0     C84047   3.338  10.669   8.304 -0.6070 -0.7489 -1.0441
  610MOL0     C84048   3.403  10.747   8.203 -0.5848  0.4121 -0.1202
  610MOL0     C84049   3.504  10.835   8.241 -0.2472 -0.5263 -0.5217
  610MOL0     O84050   3.581  10.895   8.145 -0.3382  0.1190 -0.4358
  610MOL0     C84051   3.632  11.016   8.186 -0.4827 -1.4719 -0.4270
  610MOL0     C84052   3.649  11.091   8.049  0.2245 -0.4412 -0.4880
  610MOL0     C84053   3.774  11.188   8.036  0.3420  0.3554 -0.8687
  610MOL0     C84054   3.786  11.254   7.902  0.5733 -0.1186 -0.4300
  610MOL0     C84055   3.929  11.280   7.858  1.2432  0.8585 -0.4524
  610MOL0     C84056   3.951  11.332   7.718  0.8965  0.3357 -0.2346
  610MOL0     C84057   4.090  11.384   7.692  0.3388  0.0116  0.4117
  610MOL0     C84058   4.206  11.286   7.676 -0.3986  0.2204 -0.5260
  610MOL0     N84059   4.194  11.197   7.559  0.7856 -0.0968  0.4749
  610MOL0     C84060   4.194  11.060   7.567 -0.5118  0.6452 -0.6058
  610MOL0     C84061   4.175  11.020   7.442 -0.5651 -0.0146 -0.5029
  610MOL0     C84062   4.178  10.878   7.391 -0.1299  0.2198  0.4492
  610MOL0     C84063   4.067  10.862   7.284 -0.3967 -0.2231 -0.4919
  610MOL0     C84064   4.038  10.716   7.248 -0.4551 -0.2265  0.3706
  610MOL0     C84065   3.994  10.628   7.373 -0.4099 -0.9430  0.4128
  610MOL0     O84066   3.945  10.505   7.336  0.0399  0.4313  0.8791
  610MOL0     C84067   3.895  10.428   7.431  0.0291  0.1451  0.1247
  610MOL0     C84068   3.875  10.295   7.418  0.0370  0.5262  0.8617
  610MOL0     C84069   3.848  10.205   7.520  0.2522 -0.9779  0.2746
  610MOL0     C84070   3.848  10.063   7.487 -0.0205  0.5028 -0.9788
  610MOL0     C84071   3.826  10.257   7.649  0.0769 -0.1876 -0.2532
  610MOL0     C84072   3.790  10.166   7.768 -0.7592 -0.4655  0.3881
  610MOL0     O84073   3.679  10.089   7.748  0.4291 -0.0365 -0.2055
  610MOL0     C84074   3.636  10.037   7.866  0.8164 -0.8225  0.0377
  610MOL0     C84075   3.519  10.091   7.923 -1.2779 -0.6546 -0.3443
  610MOL0     C84076   3.473  10.043   8.045  0.7673 -0.2635  0.2537
  610MOL0     C84077   3.535   9.933   8.110 -0.2282  0.0074  0.6081
  610MOL0     O84078   3.478   9.905   8.227 -0.7352  0.3228 -0.9105
  610MOL0     C84079   3.527   9.789   8.305  0.1696  0.4958  0.5802
  610MOL0     C84080   3.444   9.784   8.441  0.0782 -0.4189 -0.1022
  610MOL0     C84081   3.294   9.750   8.407 -0.0918 -0.6193  0.6992
  610MOL0     C84082   3.188   9.798   8.506 -0.4328 -0.0734  0.0750
  610MOL0     C84083   3.050   9.781   8.449 -0.3767 -0.3850 -0.9411
  610MOL0     C84084   2.939   9.843   8.532  0.0640 -1.2466 -0.4123
  610MOL0     C84085   2.815   9.818   8.465  0.0236  0.1636 -0.3741
  610MOL0     C84086   2.690   9.881   8.527 -0.0827  0.0156  0.5422
  610MOL0    Cl84087   2.713  10.063   8.530 -0.0475 -0.2535  0.0926
  610MOL0     C84088   3.637   9.873   8.046 -0.9708  0.3276  0.6254
  610MOL0     C84089   3.693   9.928   7.927 -0.0589  0.1322 -0.1206
  610MOL0     O84090   3.863  10.179   7.872 -0.2061 -0.3596 -0.2790
  610MOL0     C84091   3.846  10.388   7.665  0.2756  0.0442  1.0421
  610MOL0     C84092   3.868  10.474   7.563 -0.3524  0.0322  0.0500
  610MOL0     N84093   4.173  11.136   7.361  0.9220  0.0445  0.4334
  610MOL0     N84094   4.176  11.241   7.436 -0.3674 -0.4143 -0.5046
  610MOL0     C84095   3.539  10.846   8.385  0.0676  1.0831 -1.0136
  610MOL0     C84096   3.471  10.777   8.481  0.5384  0.8543 -0.2838
  610MOL0     C84097   3.088  10.612   8.669  0.3810 -0.4674  1.0828
  610MOL0     C84098   3.139  10.483   8.711 -0.1048 -0.2798  0.8575
  610MOL0     C84099   3.050  10.404   8.794 -0.2676  0.1979 -0.0285
  610MOL0     C84100   2.927  10.453   8.835 -0.1074  1.2116  0.4059
  610MOL0     O84101   2.850  10.370   8.917 -0.0706 -0.1563 -0.3432
  610MOL0     C84102   2.737  10.328   8.846  0.5817 -0.3256  0.1766
  610MOL0     C84103   2.700  10.188   8.883 -0.2451  0.1292  0.0426
  610MOL0     C84104   2.802  10.085   8.845  0.6448 -0.0959  0.7570
  610MOL0     C84105   2.886  10.029   8.960 -0.2646  0.6663 -0.8670
  610MOL0     C84106   2.807   9.921   9.036 -0.4924  0.2305 -0.5005
  610MOL0     C84107   2.770   9.817   9.079 -0.2848  0.0278  0.2259
  610MOL0     C84108   2.898  10.589   8.804  0.4496  0.6652 -0.6453
  610MOL0     C84109   2.972  10.671   8.725  1.0467  0.7962 -0.4556
  610MOL0     C84110   2.905  10.798   8.678  0.2660  0.8133  0.4876
  610MOL0     H84111   3.248  10.611   8.286 -1.9773  1.4782 -1.6383
  610MOL0     H84112   3.367  10.761   8.102  0.0220  0.8796 -0.2719
  610MOL0     H84113   3.729  11.013   8.237 -1.2342 -3.2745  1.0101
  610MOL0     H84114   3.573  11.071   8.260  1.0341 -0.9067  0.3954
  610MOL0     H84115   3.668  11.017   7.971 -0.3537 -1.9637  0.7579
  610MOL0     H84116   3.556  11.138   8.014 -0.0888 -1.3254 -0.8687
  610MOL0     H84117   3.766  11.268   8.111 -2.0734 -1.0854  0.5577
  610MOL0     H84118   3.857  11.124   8.069  0.6512  1.8805  1.5768
  610MOL0     H84119   3.745  11.183   7.831  2.8310 -1.2253 -0.7318
  610MOL0     H84120   3.721  11.341   7.894  0.5254  0.0249  1.2617
  610MOL0     H84121   3.987  11.187   7.857  0.0328  0.0051  1.3671
  610MOL0     H84122   3.981  11.346   7.928 -0.3533 -0.1189  1.7913
  610MOL0     H84123   3.927  11.260   7.639 -1.6134  2.5813 -1.6811
  610MOL0     H84124   3.869  11.401   7.696 -0.0976  0.2676  2.8807
  610MOL0     H84125   4.106  11.463   7.766 -2.1245  1.1821 -0.1794
  610MOL0     H84126   4.091  11.431   7.593 -0.1330 -1.3593 -0.2660
  610MOL0     H84127   4.291  11.348   7.647 -2.0028  1.7237 -2.2897
  610MOL0     H84128   4.233  11.225   7.763  0.7623  0.4732 -0.6905
  610MOL0     H84129   4.232  11.001   7.650  1.4192  0.0370 -1.8590
  610MOL0     H84130   4.161  10.806   7.472 -1.5860 -0.3501 -0.3185
  610MOL0     H84131   4.273  10.842   7.350 -1.0574 -0.5025 -1.1282
  610MOL0     H84132   3.971  10.900   7.320  1.4560  2.6400  1.8793
  610MOL0     H84133   4.105  10.916   7.197  0.7716  3.3994  2.0234
  610MOL0     H84134   3.960  10.732   7.173 -1.5300 -1.0693  1.2804
  610MOL0     H84135   4.122  10.669   7.196 -1.8038 -3.6064  1.0300
  610MOL0     H84136   4.074  10.629   7.447 -1.3207 -2.9711  1.5283
  610MOL0     H84137   3.912  10.687   7.415 -0.6825  1.0374 -2.6469
  610MOL0     H84138   3.900  10.259   7.318  1.1200  0.7434  1.0389
  610MOL0     H84139   3.908  10.011   7.562 -0.6211  0.9065 -0.2013
  610MOL0     H84140   3.897  10.032   7.395 -0.2450 -1.3207 -0.5235
  610MOL0     H84141   3.745  10.025   7.483  0.3247 -0.3764 -4.2400
  610MOL0     H84142   3.477  10.177   7.872 -0.6398  0.9082  1.6356
  610MOL0     H84143   3.381  10.081   8.090 -0.8703 -4.2669  0.7577
  610MOL0     H84144   3.513   9.695   8.250 -0.6076  0.9561 -0.0310
  610MOL0     H84145   3.633   9.807   8.322 -0.5572  3.3077  3.0337
  610MOL0     H84146   3.483   9.711   8.513 -1.1102  1.5550  2.7226
  610MOL0     H84147   3.463   9.881   8.487  0.7842 -0.6534  0.1270
  610MOL0     H84148   3.285   9.642   8.397 -3.1022 -0.3669 -0.4123
  610MOL0     H84149   3.272   9.784   8.306  0.4858 -1.3741  0.3148
  610MOL0     H84150   3.215   9.901   8.530  3.9049 -0.5635 -1.7899
  610MOL0     H84151   3.213   9.732   8.590 -2.1037 -2.0652 -0.8939
  610MOL0     H84152   3.048   9.830   8.351 -1.2408 -1.0588 -1.2781
  610MOL0     H84153   3.021   9.676   8.440 -1.7098  0.1142 -3.7967
  610MOL0     H84154   2.962   9.949   8.544 -0.6380 -1.0809 -0.4472
  610MOL0     H84155   2.945   9.807   8.635  2.1629  1.6715  0.5999
  610MOL0     H84156   2.792   9.711   8.463  0.3977  0.0126  1.5390
  610MOL0     H84157   2.815   9.859   8.363  0.0158 -1.8962 -1.2582
  610MOL0     H84158   2.684   9.825   8.621  3.3304 -1.0209  0.2760
  610MOL0     H84159   2.601   9.853   8.470  0.0171 -2.0344  1.3096
  610MOL0     H84160   3.692   9.795   8.098 -0.8694 -0.9338 -1.2532
  610MOL0     H84161   3.783   9.880   7.890  1.8836  0.4951  3.6077
  610MOL0     H84162   3.836  10.425   7.767 -1.1930  1.9056  0.3031
  610MOL0     H84163   3.868  10.576   7.598  2.9131 -0.5262  2.0551
  610MOL0     H84164   3.631  10.900   8.408  2.7864 -2.4256 -2.5471
  610MOL0     H84165   3.511  10.787   8.582 -1.3629  1.7284  0.4256
  610MOL0     H84166   3.241  10.454   8.689  0.2495  3.1668 -3.2476
  610MOL0     H84167   3.081  10.305   8.825 -3.0710 -0.5232  0.7487
  610MOL0     H84168   2.648  10.380   8.882 -0.7367 -3.7044  2.3407
  610MOL0     H84169   2.748  10.345   8.739 -2.1630  0.4166 -0.0630
  610MOL0     H84170   2.614  10.169   8.818  0.5228 -1.1822 -0.6328
  610MOL0     H84171   2.672  10.167   8.986 -1.3693  1.9528  0.1500
  610MOL0     H84172   2.749   9.999   8.804 -2.8028  2.2283 -0.1150
  610MOL0     H84173   2.863  10.133   8.768  0.2288  1.0352  1.0992
  610MOL0     H84174   2.918  10.104   9.032  1.2476 -0.2060 -0.5996
  610MOL0     H84175   2.976   9.982   8.919 -0.8608  0.7171 -2.3299
  610MOL0     H84176   2.722   9.729   9.116 -1.4605  0.9578  0.9739
  610MOL0     H84177   2.797  10.616   8.832  0.4637  0.9653 -0.8777
  610MOL0     H84178   2.906  10.802   8.569  2.7545  0.6687  0.4501
  610MOL0     H84179   2.797  10.798   8.695 -0.3601 -1.1142 -2.7005
  610MOL0     H84180   2.958  10.879   8.730 -2.7810  1.5638  2.7074
  611MOL0     O84181  10.612   4.332   5.033 -0.0965 -0.8296  1.0910
  611MOL0     C84182  10.651   4.320   5.149  0.0801  0.1713 -0.5330
  611MOL0     O84183  10.582   4.249   5.245  0.5109  0.4100 -0.1408
  611MOL0     C84184  10.493   4.158   5.197  0.3376  0.0086  0.2064
  611MOL0     C84185  10.554   4.028   5.202 -0.1004  0.2306  1.3015
  611MOL0     C84186  10.473   3.913   5.181 -0.6223  1.3400 -0.4411
  611MOL0     C84187  10.336   3.923   5.147  0.0610  0.5059  0.2973
  611MOL0     O84188  10.253   3.820   5.129  0.0896 -0.1505  0.9079
  611MOL0     C84189  10.275   3.750   5.009  0.0777 -0.2383  0.6936
  611MOL0     C84190  10.263   3.607   5.054  0.3850  1.0664 -0.0315
  611MOL0     C84191  10.287   3.520   4.939  0.2900  0.4644 -0.1971
  611MOL0     C84192  10.241   3.377   4.955  0.8620 -0.7173 -0.2937
  611MOL0     C84193  10.326   3.286   5.037  0.6905  0.3797 -0.0999
  611MOL0     C84194  10.282   3.146   5.090 -0.0275 -0.0169  0.2873
  611MOL0     C84195  10.262   3.065   4.957  0.3330 -0.4622 -0.0018
  611MOL0     C84196  10.202   2.924   4.979 -0.1163 -0.6757 -0.8466
  611MOL0     N84197  10.181   2.860   4.849  0.3920  0.5433  1.0925
  611MOL0     C84198  10.060   2.815   4.797 -0.4060  0.4118 -0.3103
  611MOL0     C84199  10.097   2.781   4.663  1.1945 -0.2855 -1.2297
  611MOL0     C84200  10.017   2.719   4.555 -0.5923  0.4081 -1.0412
  611MOL0     C84201  10.085   2.696   4.421  0.6556 -0.0658  0.2557
  611MOL0     C84202   9.996   2.624   4.317  0.0569  1.0064  0.4029
  611MOL0     C84203  10.063   2.607   4.173 -0.7293  0.4330  0.1032
  611MOL0     O84204  10.194   2.535   4.170  0.4160  0.7829 -0.5826
  611MOL0     C84205  10.270   2.532   4.053  0.5095  0.3929  0.6159
  611MOL0     C84206  10.254   2.611   3.944 -0.4170  0.1357  0.5143
  611MOL0     C84207  10.338   2.596   3.833  0.3400  0.0138  0.5232
  611MOL0     C84208  10.311   2.693   3.724 -0.1872  0.1386  0.1807
  611MOL0     C84209  10.445   2.493   3.831  0.8757 -1.0707  0.0653
  611MOL0     C84210  10.539   2.467   3.718  1.5506 -0.0146 -0.7872
  611MOL0     O84211  10.612   2.352   3.719  0.0306  0.2703 -0.3270
  611MOL0     C84212  10.698   2.303   3.616 -0.3630 -0.0879  0.1352
  611MOL0     C84213  10.755   2.374   3.501  0.5288 -0.2307 -0.0885
  611MOL0     C84214  10.835   2.310   3.401  0.2795 -0.8456  0.2297
  611MOL0     C84215  10.874   2.180   3.420  0.1179  0.0514  0.0571
  611MOL0     O84216  10.922   2.103   3.319 -0.1985  0.2123  0.5805
  611MOL0     C84217  11.063   2.077   3.327 -0.5300 -0.9183  0.2289
  611MOL0     C84218  11.091   1.930   3.312  1.0477 -0.5009 -0.2248
  611MOL0     C84219  11.033   1.878   3.177  0.7624 -0.0178 -0.9066
  611MOL0     C84220  11.076   1.731   3.161  0.8922 -0.3665  0.9646
  611MOL0     C84221  11.038   1.685   3.022  0.3655  0.1590 -0.0816
  611MOL0     C84222  11.057   1.528   3.006 -1.0920  0.2893 -1.2650
  611MOL0     C84223  11.013   1.466   2.878 -0.1454  0.5212 -0.1929
  611MOL0     C84224  11.076   1.327   2.864 -0.5866 -0.5713 -0.7686
  611MOL0    Cl84225  11.156   1.313   2.702 -0.1313 -0.0316 -0.1010
  611MOL0     C84226  10.845   2.117   3.550  0.1740  0.0888 -0.7267
  611MOL0     C84227  10.755   2.178   3.637  0.1303 -0.1686 -1.1184
  611MOL0     O84228  10.545   2.554   3.633 -0.3481  0.8618 -0.7711
  611MOL0     C84229  10.446   2.406   3.943 -0.0407 -0.4746 -0.1293
  611MOL0     C84230  10.359   2.423   4.051 -0.7694 -0.9789 -0.0926
  611MOL0     N84231  10.230   2.812   4.651  0.6706 -0.5246  0.2053
  611MOL0     N84232  10.284   2.851   4.756  0.7155 -0.6814 -0.1216
  611MOL0     C84233  10.282   4.052   5.138  0.0120  0.1425  0.1745
  611MOL0     C84234  10.359   4.172   5.157 -0.5579  0.3149  0.3759
  611MOL0     C84235  10.781   4.374   5.199 -0.1232  0.6020  0.1739
  611MOL0     C84236  10.833   4.325   5.323 -1.7180  0.0653 -0.9026
  611MOL0     C84237  10.953   4.362   5.379 -0.2304  0.2972  0.9029
  611MOL0     C84238  11.034   4.455   5.312 -0.3284 -0.9228  0.6712
  611MOL0     O84239  11.151   4.516   5.345 -0.6501 -0.0063 -0.4341
  611MOL0     C84240  11.189   4.495   5.476 -0.7944  0.9390  0.0552
  611MOL0     C84241  11.332   4.556   5.492 -0.4885  0.3701 -0.4285
  611MOL0     C84242  11.339   4.706   5.509  0.0867 -0.1740  0.0106
  611MOL0     C84243  11.476   4.731   5.588  0.8638 -0.2347  0.3285
  611MOL0     C84244  11.464   4.708   5.734 -0.2740  0.0271  0.7759
  611MOL0     C84245  11.435   4.707   5.851 -0.3624 -0.6015  1.5095
  611MOL0     C84246  10.992   4.502   5.182 -0.5337  0.5810  0.7160
  611MOL0     C84247  10.869   4.460   5.125 -0.1282  0.3892 -0.7123
  611MOL0     C84248  10.836   4.537   4.999  0.4150  0.0531 -0.0619
  611MOL0     H84249  10.652   4.021   5.247 -0.2349  0.8230  1.7134
  611MOL0     H84250  10.512   3.813   5.196 -2.2403  0.6665 -0.4575
  611MOL0     H84251  10.369   3.773   4.958  2.2498 -2.3439  3.4702
  611MOL0     H84252  10.189   3.765   4.943 -0.4647 -1.5336  1.0800
  611MOL0     H84253  10.328   3.574   5.136 -3.5548  0.2133  3.0397
  611MOL0     H84254  10.162   3.597   5.093  0.2589  1.1159 -0.3462
  611MOL0     H84255  10.226   3.556   4.856  0.9996  0.5154 -0.7070
  611MOL0     H84256  10.394   3.528   4.917  0.7442  2.8983  2.3024
  611MOL0     H84257  10.137   3.366   4.986 -0.2681  1.8232 -2.7366
  611MOL0     H84258  10.245   3.332   4.855 -2.2862 -1.7649 -0.0591
  611MOL0     H84259  10.345   3.352   5.122  1.9071  0.5309 -0.4757
  611MOL0     H84260  10.421   3.280   4.983 -0.0809 -1.1049 -1.3901
  611MOL0     H84261  10.364   3.117   5.155  0.9353  0.3402 -0.7431
  611MOL0     H84262  10.193   3.147   5.154  0.0385  1.1700  0.3943
  611MOL0     H84263  10.358   3.037   4.912 -0.1152 -2.6550  0.3097
  611MOL0     H84264  10.199   3.115   4.883  1.5080  0.2054 -0.5900
  611MOL0     H84265  10.280   2.860   5.021  0.8312  0.0066 -1.4913
  611MOL0     H84266  10.108   2.927   5.034 -0.0245  0.0070 -0.7109
  611MOL0     H84267   9.967   2.797   4.850 -0.7069 -1.1901 -1.3262
  611MOL0     H84268   9.927   2.779   4.537 -1.4107 -0.4079  0.1607
  611MOL0     H84269   9.972   2.629   4.598  1.9668  1.2075  4.1114
  611MOL0     H84270  10.111   2.787   4.367 -0.4677 -0.4840 -1.0404
  611MOL0     H84271  10.182   2.647   4.431  1.5047  1.5733  0.4404
  611MOL0     H84272   9.960   2.530   4.360 -0.5269  1.7832  1.6571
  611MOL0     H84273   9.911   2.688   4.291 -1.0963 -0.2921  0.8563
  611MOL0     H84274   9.987   2.557   4.112 -3.7656  0.2645  3.6568
  611MOL0     H84275  10.076   2.706   4.128  0.4205  0.6288  0.8322
  611MOL0     H84276  10.166   2.674   3.941 -2.3514 -2.2076  3.1086
  611MOL0     H84277  10.284   2.636   3.634 -0.7162  1.0210 -0.2386
  611MOL0     H84278  10.390   2.766   3.705 -0.5018  0.8239  1.4058
  611MOL0     H84279  10.230   2.754   3.764  1.1633  1.0130  1.6641
  611MOL0     H84280  10.731   2.479   3.488 -0.4567 -0.3400  0.7594
  611MOL0     H84281  10.856   2.366   3.310 -0.5688 -0.1531  0.4454
  611MOL0     H84282  11.112   2.129   3.244  2.5879 -1.0402  1.8694
  611MOL0     H84283  11.104   2.122   3.417  0.6537  2.5079 -1.8297
  611MOL0     H84284  11.199   1.919   3.326  0.9296 -0.1695  1.0784
  611MOL0     H84285  11.044   1.876   3.395  3.0424 -0.2303  1.1527
  611MOL0     H84286  11.076   1.939   3.098 -0.1286 -0.7230 -1.9750
  611MOL0     H84287  10.926   1.898   3.176  1.0277  2.2624  2.2732
  611MOL0     H84288  11.019   1.676   3.236 -4.5894  0.0007 -2.3172
  611MOL0     H84289  11.181   1.708   3.178  0.4743 -2.5501  0.8203
  611MOL0     H84290  10.934   1.712   3.000  0.5026 -0.1756 -1.2022
  611MOL0     H84291  11.106   1.732   2.950  2.8081  0.8360  2.5274
  611MOL0     H84292  11.016   1.481   3.096 -2.8954  0.7460 -1.8061
  611MOL0     H84293  11.165   1.511   3.014 -1.2250  0.1699  1.1395
  611MOL0     H84294  11.053   1.528   2.797  1.8689 -0.7794 -0.2745
  611MOL0     H84295  10.904   1.464   2.872 -0.0548  0.0015 -2.6935
  611MOL0     H84296  10.998   1.251   2.879 -2.3750  1.3304  0.1191
  611MOL0     H84297  11.141   1.313   2.951 -2.1879  2.4324  1.0858
  611MOL0     H84298  10.886   2.023   3.584 -0.2229  0.3841  0.6466
  611MOL0     H84299  10.724   2.126   3.728 -1.9799  1.7222 -0.6736
  611MOL0     H84300  10.530   2.337   3.940  0.4958  0.2026 -2.0306
  611MOL0     H84301  10.369   2.370   4.145 -1.6889  0.2463  0.7445
  611MOL0     H84302  10.176   4.051   5.113 -0.5613  0.5231  2.3732
  611MOL0     H84303  10.304   4.263   5.140 -0.9118  0.3095  1.4318
  611MOL0     H84304  10.773   4.249   5.373 -1.7806 -0.0938 -1.2202
  611MOL0     H84305  10.975   4.325   5.478  1.4198 -1.0935  0.0556
  611MOL0     H84306  11.120   4.548   5.543  3.0492  4.9628  1.2789
  611MOL0     H84307  11.202   4.389   5.503  0.4681  0.7257 -1.2805
  611MOL0     H84308  11.401   4.517   5.416  0.3696  1.0997 -0.0347
  611MOL0     H84309  11.375   4.512   5.582  0.8464  1.9367 -0.2640
  611MOL0     H84310  11.332   4.766   5.418 -0.8562  1.0534  0.8577
  611MOL0     H84311  11.258   4.733   5.578  0.4634  1.7361 -0.2457
  611MOL0     H84312  11.515   4.833   5.576 -0.3125  0.9622  4.7215
  611MOL0     H84313  11.554   4.668   5.544 -0.7412 -1.2163 -1.2026
  611MOL0     H84314  11.408   4.691   5.954 -1.9483  2.2267  1.6104
  611MOL0     H84315  11.051   4.573   5.125 -4.0497  0.2052 -3.9352
  611MOL0     H84316  10.811   4.461   4.924  1.7656 -2.3475  1.7890
  611MOL0     H84317  10.745   4.598   4.998  1.2958  1.4169 -1.0326
  611MOL0     H84318  10.909   4.607   4.958 -2.4864  2.4330 -1.5511
  612MOL0     O84319   0.435   2.969  11.425  0.9599 -0.5265  0.3440
  612MOL0     C84320   0.344   2.992  11.348 -0.4115  0.4006  0.8122
  612MOL0     O84321   0.268   3.092  11.356 -0.0420 -1.1410 -0.3009
  612MOL0     C84322   0.262   3.174  11.467  0.1638  0.8245  0.3142
  612MOL0     C84323   0.254   3.311  11.451 -0.4488 -0.1898 -0.3814
  612MOL0     C84324   0.237   3.389  11.560 -0.6122  0.2581  0.2196
  612MOL0     C84325   0.228   3.344  11.691  1.0071 -0.4744  0.4569
  612MOL0     O84326   0.200   3.439  11.790 -0.8020  0.3358  0.4932
  612MOL0     C84327   0.169   3.376  11.912  0.4379  0.5463 -0.8181
  612MOL0     C84328   0.093   3.485  11.993  0.0106  0.1810  0.2300
  612MOL0     C84329   0.051   3.421  12.122 -0.3505 -0.5081  0.0871
  612MOL0     C84330  -0.019   3.514  12.227 -0.9473 -0.2466 -0.8705
  612MOL0     C84331   0.084   3.581  12.327 -0.6535  0.8545 -0.1041
  612MOL0     C84332   0.185   3.689  12.266  0.1687 -0.0735 -0.6250
  612MOL0     C84333   0.268   3.761  12.379 -0.4616  1.0229  0.6284
  612MOL0     C84334   0.380   3.855  12.335  0.2050 -0.4784 -1.6722
  612MOL0     N84335   0.457   3.894  12.462 -0.4894 -0.8953  0.6125
  612MOL0     C84336   0.527   3.813  12.552 -0.9227  0.4425  0.9115
  612MOL0     C84337   0.575   3.900  12.644 -1.1536  0.2835  0.4711
  612MOL0     C84338   0.678   3.867  12.752  0.1337 -0.3669  0.4103
  612MOL0     C84339   0.814   3.844  12.692  0.2897 -0.1338  0.6915
  612MOL0     C84340   0.924   3.846  12.794  0.0474  0.1483 -0.6662
  612MOL0     C84341   0.914   3.758  12.929 -0.1436 -0.4084  0.1574
  612MOL0     O84342   0.888   3.834  13.048  0.1886  1.0532 -0.7533
  612MOL0     C84343   0.987   3.899  13.110  0.1252  0.1688  1.6839
  612MOL0     C84344   0.957   3.975  13.221 -0.8281  0.5345  0.7126
  612MOL0     C84345   1.052   4.057  13.284 -0.1969  0.2310  0.0473
  612MOL0     C84346   0.996   4.139  13.398 -0.1046  0.3961 -0.1858
  612MOL0     C84347   1.187   4.067  13.234  0.4567  1.2918 -0.5272
  612MOL0     C84348   1.303   4.144  13.289 -0.6012 -0.3179 -0.6806
  612MOL0     O84349   1.428   4.150  13.225  0.0714 -0.0472  0.1998
  612MOL0     C84350   1.537   4.216  13.275  0.4345 -0.3411 -0.6926
  612MOL0     C84351   1.562   4.251  13.411  1.7195  0.2978  0.3496
  612MOL0     C84352   1.685   4.304  13.456 -0.2368 -0.3779  0.6120
  612MOL0     C84353   1.787   4.330  13.368 -0.1577 -0.2295  0.3209
  612MOL0     O84354   1.907   4.385  13.409 -0.5551  0.2691 -0.5949
  612MOL0     C84355   2.029   4.321  13.365  0.8334 -0.0278 -0.6006
  612MOL0     C84356   2.144   4.389  13.432 -0.2536 -0.1171 -0.6613
  612MOL0     C84357   2.265   4.294  13.433  0.1945 -0.3376  0.1263
  612MOL0     C84358   2.367   4.325  13.527  0.0851  0.6746  0.3126
  612MOL0     C84359   2.495   4.240  13.497 -0.4537 -0.7221 -0.2117
  612MOL0     C84360   2.608   4.255  13.604  0.0221  0.0553  0.2838
  612MOL0     C84361   2.682   4.381  13.574  0.2926  0.0018 -0.2411
  612MOL0     C84362   2.812   4.402  13.648  1.1558 -0.2659 -0.6230
  612MOL0    Cl84363   2.790   4.362  13.817  0.4044  0.1909 -0.8145
  612MOL0     C84364   1.771   4.285  13.232 -0.3036 -0.4856  0.1337
  612MOL0     C84365   1.643   4.237  13.188 -0.2638  0.2119  0.2923
  612MOL0     O84366   1.277   4.208  13.393  0.3468  0.7989  0.2515
  612MOL0     C84367   1.213   3.999  13.117  0.0369 -0.3441 -1.2421
  612MOL0     C84368   1.122   3.918  13.055  0.2839  0.4721  0.1202
  612MOL0     N84369   0.523   4.026  12.620 -0.4595 -0.2939  0.3733
  612MOL0     N84370   0.456   4.021  12.521 -0.2383  0.4669 -0.2730
  612MOL0     C84371   0.236   3.205  11.706 -0.3005  0.9218  0.3149
  612MOL0     C84372   0.246   3.119  11.597 -0.0267 -0.4505 -0.0029
  612MOL0     C84373   0.313   2.890  11.238  0.0434  0.4384 -0.5704
  612MOL0     C84374   0.363   2.762  11.251  0.9839 -0.4544 -0.4223
  612MOL0     C84375   0.340   2.663  11.148  0.2494 -0.2362 -0.6861
  612MOL0     C84376   0.253   2.691  11.042  0.5408  0.3346  0.1488
  612MOL0     O84377   0.234   2.602  10.936 -0.9299 -0.3016 -0.2251
  612MOL0     C84378   0.219   2.463  10.983  0.4888 -0.5479  0.9020
  612MOL0     C84379   0.078   2.417  10.922 -1.0881 -1.0011  0.2515
  612MOL0     C84380  -0.015   2.363  11.027  0.1562  0.7503  0.0680
  612MOL0     C84381   0.010   2.214  11.054 -0.7999 -0.3905 -0.3260
  612MOL0     C84382  -0.003   2.136  10.928 -1.0594  0.1884 -0.5169
  612MOL0     C84383  -0.001   2.077  10.822 -0.2156 -0.1065 -0.3650
  612MOL0     C84384   0.206   2.824  11.030  0.9371  0.3301  0.0943
  612MOL0     C84385   0.226   2.921  11.132  0.4353  0.4453  0.4453
  612MOL0     C84386   0.161   3.056  11.087 -0.1489 -0.2211 -0.1662
  612MOL0     H84387   0.234   3.366  11.359 -0.3803  2.1828  0.9544
  612MOL0     H84388   0.217   3.492  11.533 -0.1099  0.3521  0.2066
  612MOL0     H84389   0.265   3.351  11.957  1.0634  2.4054 -1.0163
  612MOL0     H84390   0.100   3.291  11.917  0.9242  0.1174 -1.3068
  612MOL0     H84391   0.160   3.567  12.019 -0.7153  0.6999  0.5058
  612MOL0     H84392  -0.000   3.526  11.953  1.0526  3.8509  1.2145
  612MOL0     H84393  -0.011   3.333  12.101  2.2585 -2.4485 -0.0391
  612MOL0     H84394   0.141   3.379  12.169  0.6944 -0.3008 -1.6124
  612MOL0     H84395  -0.068   3.590  12.166 -2.7341 -1.3054 -0.8083
  612MOL0     H84396  -0.093   3.462  12.290 -0.8066  0.7911  0.1899
  612MOL0     H84397   0.143   3.500  12.371  0.6599  2.1249  0.5483
  612MOL0     H84398   0.026   3.635  12.403 -2.5978 -0.2907 -0.7040
  612MOL0     H84399   0.248   3.632  12.198 -2.1960 -1.9383 -1.4148
  612MOL0     H84400   0.136   3.758  12.196 -1.4993  1.4416  1.8605
  612MOL0     H84401   0.315   3.682  12.438  2.1573  1.0811 -1.2211
  612MOL0     H84402   0.196   3.812  12.443 -2.4501 -0.0318 -0.6466
  612MOL0     H84403   0.439   3.813  12.253  1.2703  2.0967 -2.3182
  612MOL0     H84404   0.334   3.946  12.294  0.5245  1.8245  2.5332
  612MOL0     H84405   0.562   3.712  12.538  1.5702  1.5092 -1.5804
  612MOL0     H84406   0.646   3.775  12.802  0.5406 -2.9133 -3.5617
  612MOL0     H84407   0.677   3.950  12.824 -1.4579 -0.8598  1.0229
  612MOL0     H84408   0.804   3.745  12.646 -2.3669  0.3016  0.1970
  612MOL0     H84409   0.843   3.920  12.619 -0.6787 -0.8467 -0.4807
  612MOL0     H84410   1.018   3.816  12.747  1.2201 -0.3311  1.8285
  612MOL0     H84411   0.947   3.945  12.833 -3.5198  0.8431 -0.0465
  612MOL0     H84412   0.830   3.690  12.914  0.2354 -0.5711 -1.3611
  612MOL0     H84413   1.005   3.699  12.939  0.1268  0.0929  0.6906
  612MOL0     H84414   0.858   3.961  13.264 -0.7319 -3.4824  0.0051
  612MOL0     H84415   1.054   4.145  13.491 -0.2091 -1.3654  0.0313
  612MOL0     H84416   0.895   4.104  13.421 -0.3295 -0.3529 -2.1524
  612MOL0     H84417   0.994   4.245  13.373  1.3009  0.0368 -2.0331
  612MOL0     H84418   1.485   4.238  13.487 -0.2690  2.0900 -1.2080
  612MOL0     H84419   1.692   4.334  13.560 -2.3590  1.3551  0.3087
  612MOL0     H84420   2.019   4.220  13.406  0.3252  2.0517  5.1865
  612MOL0     H84421   2.027   4.339  13.257 -1.2978  2.5488 -0.2361
  612MOL0     H84422   2.178   4.477  13.377 -0.8089  0.7231  0.3029
  612MOL0     H84423   2.114   4.416  13.534  2.5276 -3.6281  1.3252
  612MOL0     H84424   2.299   4.284  13.329  1.4396 -1.3090  0.6090
  612MOL0     H84425   2.227   4.194  13.457 -0.6312 -0.0544  0.0301
  612MOL0     H84426   2.331   4.285  13.622 -1.8104 -1.9386 -1.3730
  612MOL0     H84427   2.378   4.434  13.524 -0.3386  0.7365 -3.0359
  612MOL0     H84428   2.458   4.137  13.491  2.3026 -1.7503 -1.0492
  612MOL0     H84429   2.541   4.254  13.399  1.1956 -4.8858 -0.2073
  612MOL0     H84430   2.681   4.174  13.604 -0.3220 -0.2618 -0.2479
  612MOL0     H84431   2.567   4.269  13.704 -0.2514 -0.9784  0.3298
  612MOL0     H84432   2.618   4.467  13.596 -2.1607 -1.0494 -2.6596
  612MOL0     H84433   2.712   4.391  13.469  0.6080 -0.9087 -0.2516
  612MOL0     H84434   2.838   4.508  13.653 -3.1192  0.9458  1.0742
  612MOL0     H84435   2.894   4.348  13.599  2.9605  3.2979 -1.8751
  612MOL0     H84436   1.860   4.289  13.170 -0.8675  3.0998 -0.6705
  612MOL0     H84437   1.645   4.203  13.085 -0.3664 -1.1179  0.7176
  612MOL0     H84438   1.305   4.016  13.063 -0.2845 -1.4824 -2.1740
  612MOL0     H84439   1.144   3.864  12.964 -0.0801 -1.5486  1.1704
  612MOL0     H84440   0.233   3.161  11.805 -0.2617  5.0283  2.3490
  612MOL0     H84441   0.252   3.011  11.608 -0.4372 -0.7586 -2.2589
  612MOL0     H84442   0.424   2.741  11.338 -0.2061 -1.1243  0.2736
  612MOL0     H84443   0.387   2.566  11.158  2.2860  0.6969 -0.8180
  612MOL0     H84444   0.299   2.398  10.948 -0.9046 -1.6019 -0.5047
  612MOL0     H84445   0.215   2.458  11.093 -1.6717  0.8023  0.9478
  612MOL0     H84446   0.104   2.355  10.836  1.3329 -2.0407  1.6364
  612MOL0     H84447   0.029   2.506  10.881 -1.0550 -1.2330 -0.3071
  612MOL0     H84448  -0.002   2.424  11.117 -2.5179 -0.2082  1.1881
  612MOL0     H84449  -0.118   2.372  10.992  0.7073 -0.4428 -2.0518
  612MOL0     H84450  -0.064   2.176  11.125  0.1530 -1.5528  0.0647
  612MOL0     H84451   0.108   2.211  11.101  0.1202 -0.7424 -2.1593
  612MOL0     H84452  -0.008   2.017  10.734  0.7712  0.7069 -1.0223
  612MOL0     H84453   0.134   2.842  10.951 -0.3939 -2.9794  0.3836
  612MOL0     H84454   0.246   3.122  11.070  0.3099 -0.8943 -0.5453
  612MOL0     H84455   0.111   3.042  10.991  0.3119 -1.8720 -0.2123
  612MOL0     H84456   0.095   3.098  11.164 -1.3970  0.4777 -1.5876
  613MOL0     O84457   2.527   9.827   9.951  0.9153  0.7149  0.6681
  613MOL0     C84458   2.578   9.836  10.063 -0.7492 -0.8668  0.2914
  613MOL0     O84459   2.633   9.731  10.133  0.1044  0.1439  0.3516
  613MOL0     C84460   2.589   9.608  10.095  0.2149  0.3215 -0.7404
  613MOL0     C84461   2.460   9.564  10.130  0.9280  0.0972  1.1511
  613MOL0     C84462   2.412   9.440  10.087 -0.7812 -0.7146 -0.7340
  613MOL0     C84463   2.488   9.366   9.994 -0.4230 -1.2456 -0.5148
  613MOL0     O84464   2.446   9.244   9.943 -0.0865  0.5943  0.3753
  613MOL0     C84465   2.331   9.185  10.000  0.2409  0.0086  0.6572
  613MOL0     C84466   2.295   9.044   9.947 -0.7895 -0.0602 -0.2338
  613MOL0     C84467   2.171   8.976  10.008  0.3067  0.7710  0.4667
  613MOL0     C84468   2.162   8.827   9.968 -0.8231 -0.3284  0.2483
  613MOL0     C84469   2.050   8.760  10.048  0.3998  0.5910 -0.2530
  613MOL0     C84470   2.058   8.604  10.035 -0.1036  0.5667  0.0608
  613MOL0     C84471   1.943   8.532  10.118 -0.7588  0.4487  1.6144
  613MOL0     C84472   1.960   8.376  10.088  0.9133 -0.0614 -0.2822
  613MOL0     N84473   1.923   8.336   9.953 -0.5087 -0.1620 -0.5884
  613MOL0     C84474   2.019   8.322   9.851  0.5982  0.3412 -0.2113
  613MOL0     C84475   1.945   8.282   9.742 -0.4144  0.3302 -0.3785
  613MOL0     C84476   2.003   8.263   9.599 -0.0168  0.2181 -0.6385
  613MOL0     C84477   2.048   8.385   9.521  0.4779  0.7017  0.5832
  613MOL0     C84478   1.943   8.501   9.506 -0.8305 -0.1849 -0.9871
  613MOL0     C84479   1.977   8.607   9.615  0.0675 -0.1366 -0.3161
  613MOL0     O84480   1.901   8.724   9.590 -0.2027 -0.1765 -0.4252
  613MOL0     C84481   1.813   8.758   9.697  0.1256 -0.7107 -0.6396
  613MOL0     C84482   1.733   8.661   9.756  0.1363 -0.3829 -0.3264
  613MOL0     C84483   1.661   8.691   9.873  0.1556 -0.3851  0.1261
  613MOL0     C84484   1.580   8.569   9.925 -0.0631 -0.3929 -0.1036
  613MOL0     C84485   1.666   8.818   9.927 -0.0524 -0.2566 -1.0343
  613MOL0     C84486   1.581   8.870  10.043  0.3496  0.2295  0.2304
  613MOL0     O84487   1.581   9.007  10.060 -0.7301 -0.6738 -0.4140
  613MOL0     C84488   1.519   9.064  10.172  0.0813 -0.6079  1.0636
  613MOL0     C84489   1.566   9.183  10.229 -0.0171 -1.1026 -0.3413
  613MOL0     C84490   1.493   9.246  10.333 -0.7424 -0.3088  0.1023
  613MOL0     C84491   1.365   9.200  10.385 -0.2328 -0.0753 -0.1890
  613MOL0     O84492   1.305   9.282  10.472  0.2111  0.6257  0.5027
  613MOL0     C84493   1.166   9.253  10.491 -0.7811 -0.2858 -0.8238
  613MOL0     C84494   1.113   9.364  10.593  0.1499  0.0828  0.0623
  613MOL0     C84495   1.182   9.400  10.721 -1.3235 -0.4532  0.1321
  613MOL0     C84496   1.128   9.521  10.800  0.3883  0.1964 -0.1116
  613MOL0     C84497   0.998   9.502  10.867  0.3601  0.3488 -0.4665
  613MOL0     C84498   1.004   9.394  10.977 -0.7778 -0.5375  0.0676
  613MOL0     C84499   0.857   9.369  11.019 -0.5311 -0.5833 -0.7327
  613MOL0     C84500   0.837   9.287  11.152 -0.8291 -0.3273  0.5209
  613MOL0    Cl84501   0.660   9.270  11.170 -0.1598 -0.2625 -0.0995
  613MOL0     C84502   1.316   9.074  10.331 -0.1238  0.1788 -0.2664
  613MOL0     C84503   1.389   9.021  10.221  0.3137 -0.6896 -0.0461
  613MOL0     O84504   1.518   8.789  10.113  1.1971  0.1994  0.2974
  613MOL0     C84505   1.745   8.916   9.857  0.3776 -0.0820  0.0780
  613MOL0     C84506   1.820   8.889   9.745 -1.2519  0.1767  0.1505
  613MOL0     N84507   1.807   8.285   9.780 -0.6361 -0.0825  0.4123
  613MOL0     N84508   1.803   8.314   9.901  0.1737  0.5434 -0.4691
  613MOL0     C84509   2.620   9.406   9.964  1.0941 -0.1848  0.3674
  613MOL0     C84510   2.667   9.532  10.004 -0.3454 -0.6251 -0.2339
  613MOL0     C84511   2.604   9.973  10.129  0.2286  0.0110 -0.4724
  613MOL0     C84512   2.637   9.962  10.271 -0.6763  0.1423 -0.0295
  613MOL0     C84513   2.649  10.079  10.345 -0.0045  0.0628  0.4488
  613MOL0     C84514   2.649  10.207  10.289  0.2632  0.6178 -1.1023
  613MOL0     O84515   2.664  10.312  10.374  0.2000 -0.7775 -0.3062
  613MOL0     C84516   2.794  10.335  10.430  0.1862  0.6367 -0.2968
  613MOL0     C84517   2.887  10.416  10.332 -0.6235  1.4156 -0.8060
  613MOL0     C84518   2.928  10.341  10.198  0.4588 -0.1237  0.1723
  613MOL0     C84519   3.019  10.210  10.208  0.6987 -0.9796  0.8243
  613MOL0     C84520   3.146  10.254  10.262 -0.6450 -0.3335 -0.9441
  613MOL0     C84521   3.248  10.296  10.318 -0.1581  0.0280  0.0628
  613MOL0     C84522   2.622  10.219  10.152  0.7475 -0.9329  0.2802
  613MOL0     C84523   2.594  10.103  10.069  0.1869  0.0566  0.0499
  613MOL0     C84524   2.573  10.117   9.922  0.9330  0.2241 -0.8995
  613MOL0     H84525   2.400   9.630  10.192 -1.3895  0.8322 -1.6539
  613MOL0     H84526   2.312   9.403  10.109 -0.9317 -1.2824 -2.2218
  613MOL0     H84527   2.250   9.257   9.990  1.4029  1.2683 -0.0457
  613MOL0     H84528   2.351   9.181  10.108  2.0378 -0.1752  0.3527
  613MOL0     H84529   2.286   9.049   9.838 -0.8990  0.6998 -0.1919
  613MOL0     H84530   2.385   8.987   9.973  0.0200  1.9229  1.6766
  613MOL0     H84531   2.177   8.988  10.117  2.5511  0.4492  0.4258
  613MOL0     H84532   2.084   9.033   9.972  1.8931  1.7978 -1.9880
  613MOL0     H84533   2.135   8.816   9.862  1.5968 -1.2424 -0.3312
  613MOL0     H84534   2.254   8.775   9.997  0.8513  2.4082  0.2265
  613MOL0     H84535   1.956   8.800  10.007  0.7658  0.8787 -0.8201
  613MOL0     H84536   2.052   8.769  10.157  2.0851 -0.2195 -0.2026
  613MOL0     H84537   2.061   8.574   9.929  0.8586  0.3848  0.1272
  613MOL0     H84538   2.153   8.581  10.085 -0.7126 -2.2006  0.1572
  613MOL0     H84539   1.847   8.560  10.075  1.1583 -1.5643 -5.2105
  613MOL0     H84540   1.946   8.555  10.225 -1.7681 -0.6327  1.8944
  613MOL0     H84541   2.055   8.340  10.129 -1.0771 -1.7311  3.3703
  613MOL0     H84542   1.900   8.313  10.154  2.3799  1.4229  2.6556
  613MOL0     H84543   2.128   8.320   9.850  0.7092  2.7886  0.4514
  613MOL0     H84544   1.919   8.213   9.549 -0.7519 -0.1778  0.9299
  613MOL0     H84545   2.087   8.194   9.596 -0.2752 -0.4895  3.1572
  613MOL0     H84546   2.152   8.406   9.549  1.3150 -1.6030 -0.5080
  613MOL0     H84547   2.054   8.345   9.420  2.5156  2.7129 -0.1741
  613MOL0     H84548   1.940   8.539   9.403  1.3961 -3.8149 -2.5970
  613MOL0     H84549   1.841   8.463   9.520 -0.4413 -1.0262 -0.3015
  613MOL0     H84550   1.967   8.583   9.722  2.4638  2.8417  0.6951
  613MOL0     H84551   2.082   8.635   9.609 -0.4367  2.0752  0.2171
  613MOL0     H84552   1.741   8.566   9.703  0.8797  0.6492 -2.1704
  613MOL0     H84553   1.594   8.496   9.845  1.4927  1.0751 -1.2470
  613MOL0     H84554   1.475   8.597   9.928  0.2419  1.3892 -2.6491
  613MOL0     H84555   1.618   8.521  10.016  0.5134 -1.2330 -0.7790
  613MOL0     H84556   1.660   9.230  10.202 -0.2044 -1.3479 -1.4461
  613MOL0     H84557   1.537   9.333  10.381 -1.2443  0.1768 -0.3117
  613MOL0     H84558   1.108   9.268  10.400  1.1020  1.2114 -1.8527
  613MOL0     H84559   1.149   9.157  10.540 -2.2896 -0.4832 -1.6769
  613MOL0     H84560   1.125   9.450  10.526 -1.7178 -0.3234 -0.8503
  613MOL0     H84561   1.009   9.347  10.622  1.2136 -1.1299  3.7488
  613MOL0     H84562   1.284   9.426  10.690 -0.8348 -2.8232 -0.4653
  613MOL0     H84563   1.205   9.319  10.790  2.6648  0.0946 -0.2635
  613MOL0     H84564   1.131   9.604  10.729  1.8518  0.1631 -0.1216
  613MOL0     H84565   1.198   9.542  10.881 -0.4270 -3.1804  1.6713
  613MOL0     H84566   0.958   9.587  10.922  4.4341  1.1090  1.7553
  613MOL0     H84567   0.923   9.469  10.795  0.8584  0.5870 -1.0986
  613MOL0     H84568   1.077   9.433  11.049  0.7473 -0.4901 -1.4412
  613MOL0     H84569   1.054   9.299  10.954  1.1187  0.3574  0.3153
  613MOL0     H84570   0.810   9.311  10.939  4.8746 -1.1807 -3.9740
  613MOL0     H84571   0.805   9.465  11.021  0.6399  0.0730 -0.7277
  613MOL0     H84572   0.877   9.337  11.241  0.6501 -2.3834  1.0768
  613MOL0     H84573   0.892   9.193  11.138 -0.1338  0.2176 -0.5826
  613MOL0     H84574   1.235   9.013  10.370 -1.5508  1.6316 -0.8189
  613MOL0     H84575   1.342   8.936  10.173  0.7055 -0.0242 -1.6742
  613MOL0     H84576   1.743   9.020   9.887 -1.0688  0.5812 -2.0924
  613MOL0     H84577   1.875   8.968   9.695  1.4492 -1.8232 -0.2978
  613MOL0     H84578   2.677   9.336   9.903  1.3062  0.2473  0.0626
  613MOL0     H84579   2.772   9.559   9.998  0.0680 -1.9668  0.5480
  613MOL0     H84580   2.641   9.867  10.323 -0.0662 -0.8128 -1.7545
  613MOL0     H84581   2.689  10.082  10.445  0.6040  4.2300  0.2618
  613MOL0     H84582   2.782  10.399  10.518  1.5826 -0.8238  0.9912
  613MOL0     H84583   2.845  10.249  10.474  0.2892  2.1710  2.8452
  613MOL0     H84584   2.978  10.432  10.390 -1.4603 -3.0709  2.2645
  613MOL0     H84585   2.831  10.507  10.308 -0.8601  1.0477 -1.6996
  613MOL0     H84586   2.837  10.324  10.138 -0.5832  1.8683  1.1165
  613MOL0     H84587   2.985  10.412  10.138  1.1348 -0.8499 -0.0643
  613MOL0     H84588   3.034  10.164  10.109  4.8595 -1.5444  1.5094
  613MOL0     H84589   2.969  10.136  10.271  0.4409 -1.4024  0.1406
  613MOL0     H84590   3.324  10.346  10.373  0.7911  0.5975 -1.7002
  613MOL0     H84591   2.624  10.320  10.113  1.3642 -0.3948  1.6302
  613MOL0     H84592   2.472  10.099   9.882 -0.3163  2.2993  1.0294
  613MOL0     H84593   2.612  10.212   9.884  0.5387  0.3345 -1.0343
  613MOL0     H84594   2.636  10.038   9.882 -1.6067 -1.2476 -2.2803
  614MOL0     O84595   7.114   7.795   3.651 -0.5297  0.3669  0.3480
  614MOL0     C84596   7.093   7.758   3.767  0.2924 -1.1586 -0.4346
  614MOL0     O84597   7.023   7.642   3.806  0.5786 -0.0268 -0.1598
  614MOL0     C84598   6.942   7.570   3.722  0.8665  0.8646  0.4993
  614MOL0     C84599   6.919   7.575   3.582  0.1250 -0.1879 -0.0863
  614MOL0     C84600   6.829   7.482   3.515  0.6398  0.2306 -0.0626
  614MOL0     C84601   6.763   7.384   3.597  0.6355  0.5454  0.3218
  614MOL0     O84602   6.663   7.309   3.536 -0.4739  0.1815 -0.6561
  614MOL0     C84603   6.560   7.246   3.618  0.6616 -0.4952  0.4446
  614MOL0     C84604   6.467   7.357   3.657  0.2761 -0.7070 -0.1575
  614MOL0     C84605   6.433   7.328   3.801  0.4037  1.1840 -0.0557
  614MOL0     C84606   6.306   7.404   3.850 -0.5057  0.8244  0.2648
  614MOL0     C84607   6.254   7.330   3.976 -0.0630 -0.8435 -0.0763
  614MOL0     C84608   6.121   7.401   4.019 -1.3188 -0.6691  0.4586
  614MOL0     C84609   6.150   7.522   4.106  0.3200  0.4928  0.2394
  614MOL0     C84610   6.178   7.496   4.257  0.3870 -0.8930  0.2825
  614MOL0     N84611   6.076   7.416   4.323  0.0778  0.1223 -0.1206
  614MOL0     C84612   5.945   7.444   4.311  0.9652  0.7083 -0.2405
  614MOL0     C84613   5.886   7.336   4.367  0.5930  0.1576  0.0421
  614MOL0     C84614   5.734   7.318   4.385  1.1399 -0.1218  0.8917
  614MOL0     C84615   5.654   7.307   4.253  0.4249  1.1325 -0.2420
  614MOL0     C84616   5.653   7.170   4.192 -0.4331  0.8715 -0.4601
  614MOL0     C84617   5.551   7.160   4.078  0.5051 -0.0761 -0.1221
  614MOL0     O84618   5.567   7.042   4.000 -0.2018 -0.3363  0.7166
  614MOL0     C84619   5.455   6.991   3.940 -0.2434  0.0636 -0.5694
  614MOL0     C84620   5.439   6.855   3.948 -0.1302  0.0264  0.3814
  614MOL0     C84621   5.338   6.795   3.879 -0.3579  0.0683  1.1362
  614MOL0     C84622   5.341   6.642   3.877  0.4841  0.3810 -0.0239
  614MOL0     C84623   5.238   6.867   3.805 -0.2862 -0.3650  0.2939
  614MOL0     C84624   5.131   6.808   3.725 -0.7083  0.4515 -0.0567
  614MOL0     O84625   5.026   6.889   3.691  0.5613  0.0764 -0.7549
  614MOL0     C84626   4.925   6.851   3.602  0.0092 -0.0591 -0.9210
  614MOL0     C84627   4.798   6.889   3.622  0.0837 -0.7666 -0.4324
  614MOL0     C84628   4.698   6.853   3.531  0.4624 -0.1410  1.1416
  614MOL0     C84629   4.723   6.756   3.436 -0.3181 -0.6382  0.5472
  614MOL0     O84630   4.626   6.695   3.356  0.2626 -0.0214  0.1419
  614MOL0     C84631   4.667   6.592   3.270 -1.0986  0.0232 -0.4284
  614MOL0     C84632   4.546   6.525   3.205  0.3225 -0.4829  0.1454
  614MOL0     C84633   4.583   6.425   3.105  0.8287  0.9962 -0.1083
  614MOL0     C84634   4.589   6.280   3.174  0.7626 -0.3781  0.2801
  614MOL0     C84635   4.562   6.166   3.079  0.3077 -0.2739  0.1938
  614MOL0     C84636   4.606   6.040   3.139 -0.4566  0.7160  0.4631
  614MOL0     C84637   4.571   5.923   3.052 -0.5681  0.8869  0.4067
  614MOL0     C84638   4.684   5.821   3.066  1.4679  0.0918 -0.4650
  614MOL0    Cl84639   4.829   5.844   2.961  0.0751 -0.1827  0.1924
  614MOL0     C84640   4.858   6.722   3.423 -0.3447 -0.2811  0.7055
  614MOL0     C84641   4.959   6.775   3.500  0.1406  0.3403  0.6150
  614MOL0     O84642   5.141   6.689   3.693 -0.0102 -0.2922  0.3206
  614MOL0     C84643   5.241   7.009   3.823 -0.5962  0.0076  0.3373
  614MOL0     C84644   5.356   7.068   3.879 -0.4463  0.5054  0.7002
  614MOL0     N84645   5.976   7.247   4.415 -0.5623  0.6767 -0.0243
  614MOL0     N84646   6.089   7.301   4.395  0.5496  0.2900  0.0203
  614MOL0     C84647   6.786   7.381   3.735 -0.5076  0.4988  0.0831
  614MOL0     C84648   6.872   7.470   3.795  0.3370 -0.0579  0.0635
  614MOL0     C84649   7.107   7.860   3.885 -0.0102  0.6904  0.1788
  614MOL0     C84650   7.001   7.868   3.984  0.0007  0.3532  0.8302
  614MOL0     C84651   7.009   7.959   4.075 -0.9244 -1.4123 -0.3867
  614MOL0     C84652   7.106   8.062   4.076 -0.4239 -0.5394 -0.2340
  614MOL0     O84653   7.120   8.166   4.167 -0.8620  0.4672  0.7440
  614MOL0     C84654   7.051   8.289   4.154 -0.3954 -1.3385  0.5288
  614MOL0     C84655   7.155   8.405   4.148  0.6176 -0.3986 -0.0101
  614MOL0     C84656   7.226   8.413   4.020 -1.1538  0.6085 -0.1124
  614MOL0     C84657   7.230   8.562   3.976  0.0321  0.6197 -0.3290
  614MOL0     C84658   7.258   8.573   3.831  0.3810 -0.6316 -0.6009
  614MOL0     C84659   7.262   8.578   3.714  0.9343 -0.6931  0.0611
  614MOL0     C84660   7.203   8.064   3.974  0.3920  0.0014 -0.0747
  614MOL0     C84661   7.207   7.963   3.880 -0.3273  0.1574 -0.2110
  614MOL0     C84662   7.321   7.960   3.781  0.0518 -0.1616 -0.9792
  614MOL0     H84663   6.968   7.655   3.527 -0.6706 -0.1229 -0.7146
  614MOL0     H84664   6.802   7.495   3.411 -0.2594 -0.6244  0.0392
  614MOL0     H84665   6.590   7.172   3.692 -0.3128 -2.0723 -0.6629
  614MOL0     H84666   6.500   7.186   3.548 -1.1197 -0.5200  1.9359
  614MOL0     H84667   6.511   7.458   3.664 -0.8440 -0.0098 -2.3087
  614MOL0     H84668   6.378   7.361   3.594  1.0624  0.0208 -1.2867
  614MOL0     H84669   6.405   7.222   3.796 -0.0671  1.3302 -0.7749
  614MOL0     H84670   6.520   7.350   3.864 -0.5421  0.2427  1.6729
  614MOL0     H84671   6.346   7.501   3.879  1.3721  0.1080  0.1866
  614MOL0     H84672   6.224   7.415   3.778 -1.2804 -1.1795  0.7472
  614MOL0     H84673   6.327   7.340   4.057 -0.0823  1.7362 -0.3084
  614MOL0     H84674   6.227   7.225   3.962 -5.1489  0.2999 -0.7026
  614MOL0     H84675   6.072   7.433   3.927  1.6603  2.7063 -0.1822
  614MOL0     H84676   6.055   7.338   4.078  0.7840  0.1884  4.0750
  614MOL0     H84677   6.063   7.588   4.106 -0.2930 -0.2616 -1.3830
  614MOL0     H84678   6.223   7.593   4.068 -0.3235  1.2966  0.4762
  614MOL0     H84679   6.271   7.438   4.260  1.2213  0.4338  1.3317
  614MOL0     H84680   6.182   7.596   4.301 -2.9983  0.8962 -2.9503
  614MOL0     H84681   5.892   7.526   4.264  0.8798  1.2091  0.6865
  614MOL0     H84682   5.688   7.396   4.446 -1.1795 -1.3279  0.8282
  614MOL0     H84683   5.711   7.230   4.445  0.3695 -0.3398  0.2995
  614MOL0     H84684   5.551   7.331   4.280 -1.0520 -1.4574 -3.0083
  614MOL0     H84685   5.700   7.381   4.186 -1.5656  1.1987 -1.6011
  614MOL0     H84686   5.752   7.149   4.150 -2.0315  0.6230 -4.5483
  614MOL0     H84687   5.624   7.100   4.271  1.2315  0.9649  0.2924
  614MOL0     H84688   5.453   7.157   4.126  1.0993 -0.9724  1.0782
  614MOL0     H84689   5.563   7.251   4.017 -0.8424  1.3450  1.6197
  614MOL0     H84690   5.512   6.791   3.996 -0.0068 -1.8512 -2.0712
  614MOL0     H84691   5.366   6.620   3.773 -1.5692 -1.5145 -0.1958
  614MOL0     H84692   5.243   6.603   3.905 -0.3330  2.7762  0.7139
  614MOL0     H84693   5.413   6.604   3.950  0.5499 -0.5844 -0.5658
  614MOL0     H84694   4.776   6.956   3.705  2.5345 -2.3880  1.6625
  614MOL0     H84695   4.599   6.896   3.548 -0.4449  1.4962 -5.4587
  614MOL0     H84696   4.726   6.639   3.191 -1.2433  2.0440  0.6031
  614MOL0     H84697   4.724   6.512   3.320 -0.0462  0.7683 -0.4032
  614MOL0     H84698   4.481   6.484   3.283 -0.8143 -2.0335 -1.5334
  614MOL0     H84699   4.485   6.608   3.169 -2.4061 -0.8858  3.3429
  614MOL0     H84700   4.677   6.441   3.050  0.8585 -4.2418 -2.0847
  614MOL0     H84701   4.496   6.422   3.039 -1.4575 -1.9995  2.7319
  614MOL0     H84702   4.527   6.274   3.264  0.7937  0.0725  0.3335
  614MOL0     H84703   4.690   6.270   3.213  0.8230 -1.2077 -0.0741
  614MOL0     H84704   4.453   6.157   3.068  0.0935 -0.3010  1.9865
  614MOL0     H84705   4.625   6.181   2.991  1.3092  1.5122  1.1619
  614MOL0     H84706   4.572   6.032   3.242  0.5859 -2.0233  0.6626
  614MOL0     H84707   4.715   6.040   3.148 -0.4336 -0.2161  0.2702
  614MOL0     H84708   4.564   5.939   2.944  0.0419  1.2568  0.4139
  614MOL0     H84709   4.479   5.876   3.088  1.0161 -1.1004  2.0802
  614MOL0     H84710   4.648   5.724   3.030 -0.2452  0.9490 -1.1612
  614MOL0     H84711   4.711   5.802   3.170 -2.7882 -0.2426  0.7864
  614MOL0     H84712   4.891   6.651   3.348 -0.5026  1.5188 -1.1576
  614MOL0     H84713   5.060   6.751   3.467 -0.3305  1.0711 -1.5495
  614MOL0     H84714   5.159   7.066   3.781 -0.8511  0.3294  1.2509
  614MOL0     H84715   5.377   7.174   3.873  1.5618  0.3303  3.1107
  614MOL0     H84716   6.746   7.305   3.801 -1.0301 -1.1609 -2.0235
  614MOL0     H84717   6.890   7.466   3.902 -0.4020  0.3009  0.2073
  614MOL0     H84718   6.928   7.788   3.990  2.1197 -2.0791 -2.1862
  614MOL0     H84719   6.927   7.964   4.146 -0.7789 -0.9448 -0.2527
  614MOL0     H84720   7.000   8.293   4.057  2.3563 -2.2252 -1.0660
  614MOL0     H84721   6.986   8.298   4.242 -2.3190 -1.2834 -0.8293
  614MOL0     H84722   7.231   8.381   4.222  3.5228  0.5266 -2.4876
  614MOL0     H84723   7.101   8.497   4.174  0.5563 -0.8762  1.6204
  614MOL0     H84724   7.325   8.374   4.047 -1.0626 -0.1498 -1.4703
  614MOL0     H84725   7.190   8.347   3.941 -0.4746 -1.7920  1.4702
  614MOL0     H84726   7.309   8.621   4.025 -0.8075 -0.0732  1.9746
  614MOL0     H84727   7.133   8.610   3.992  0.5889  1.3776  0.9133
  614MOL0     H84728   7.268   8.575   3.607 -0.0763  2.0126 -0.1669
  614MOL0     H84729   7.273   8.145   3.958  3.3906 -2.1695  1.1477
  614MOL0     H84730   7.379   8.050   3.806 -0.6106  0.4993 -1.7532
  614MOL0     H84731   7.386   7.872   3.783  0.1347 -0.1094  1.2913
  614MOL0     H84732   7.286   7.973   3.678  0.8328 -2.1278 -1.5240
  615MOL0     O84733   7.383   9.151   4.427  0.2101  0.9591  0.3266
  615MOL0     C84734   7.393   9.150   4.302  0.2954 -0.2001  0.6842
  615MOL0     O84735   7.372   9.033   4.224 -0.4537 -0.3303 -0.3750
  615MOL0     C84736   7.308   8.919   4.278 -0.0713  0.2405 -0.0951
  615MOL0     C84737   7.170   8.923   4.307 -0.1008  1.0086  0.6716
  615MOL0     C84738   7.100   8.817   4.372 -0.0625  0.0951  0.2675
  615MOL0     C84739   7.182   8.704   4.399  0.0832 -0.3821 -0.2331
  615MOL0     O84740   7.144   8.588   4.454 -0.6768 -0.4348  0.1199
  615MOL0     C84741   7.007   8.565   4.466  0.2777  0.0334 -0.9693
  615MOL0     C84742   6.968   8.428   4.533  0.0348  0.0199  0.9821
  615MOL0     C84743   6.820   8.414   4.560 -0.9892  0.4849 -1.3209
  615MOL0     C84744   6.784   8.263   4.553 -0.1965  0.5523  0.0786
  615MOL0     C84745   6.750   8.205   4.410 -0.1758 -0.2493  0.9331
  615MOL0     C84746   6.606   8.188   4.381 -0.0941  0.2577 -0.0136
  615MOL0     C84747   6.513   8.316   4.388 -0.8065 -0.0817  0.6045
  615MOL0     C84748   6.526   8.423   4.276  0.1002 -0.4190 -0.4234
  615MOL0     N84749   6.483   8.374   4.145  0.0037 -0.0808 -0.6433
  615MOL0     C84750   6.493   8.440   4.032  0.1082  0.7069  0.7568
  615MOL0     C84751   6.428   8.373   3.937 -0.1437  0.3723  0.3793
  615MOL0     C84752   6.396   8.434   3.806  0.2312  0.2825 -0.2276
  615MOL0     C84753   6.248   8.493   3.808  0.0045  0.0157  0.1363
  615MOL0     C84754   6.264   8.631   3.882  0.6605 -0.2402 -0.6268
  615MOL0     C84755   6.140   8.714   3.859 -0.3453 -0.2179  0.4446
  615MOL0     O84756   6.155   8.845   3.911  0.1712 -0.0663 -0.8652
  615MOL0     C84757   6.040   8.901   3.939  1.0222  0.2123 -0.2076
  615MOL0     C84758   5.941   8.926   3.845  0.8659  0.4520  0.9893
  615MOL0     C84759   5.836   9.013   3.881 -0.2546 -0.1934 -0.2208
  615MOL0     C84760   5.750   9.066   3.769  0.1400 -0.0979  0.7330
  615MOL0     C84761   5.809   9.037   4.016 -0.4930  0.6404 -0.5382
  615MOL0     C84762   5.692   9.113   4.069 -0.7528  0.3472  0.1461
  615MOL0     O84763   5.705   9.180   4.191  0.7534 -0.4699 -0.3995
  615MOL0     C84764   5.604   9.265   4.233 -0.2171  0.8784 -0.5033
  615MOL0     C84765   5.621   9.401   4.219 -0.5122 -0.1969  0.3118
  615MOL0     C84766   5.528   9.487   4.259  1.0397 -1.1466 -0.8769
  615MOL0     C84767   5.412   9.450   4.330 -0.7932  0.4230  0.7084
  615MOL0     O84768   5.321   9.533   4.389 -0.3367  0.7875  0.3490
  615MOL0     C84769   5.315   9.663   4.343  0.3366 -0.4081  0.1684
  615MOL0     C84770   5.207   9.750   4.392  1.0218 -0.4139 -0.5759
  615MOL0     C84771   5.066   9.689   4.349  0.0948 -0.7230 -0.3412
  615MOL0     C84772   4.990   9.621   4.466  0.1296  0.5061 -0.1027
  615MOL0     C84773   4.855   9.556   4.412 -0.4555 -0.6461 -0.4750
  615MOL0     C84774   4.862   9.415   4.354  0.1921  0.2577 -0.7176
  615MOL0     C84775   4.729   9.367   4.286 -0.5784  0.3644 -0.8571
  615MOL0     C84776   4.746   9.230   4.258 -0.1808  0.7809  0.4828
  615MOL0    Cl84777   4.610   9.170   4.179  0.2102 -0.0839 -0.0163
  615MOL0     C84778   5.409   9.315   4.363  0.2395 -0.1505 -0.0699
  615MOL0     C84779   5.496   9.228   4.311 -0.2567  0.5490  0.1924
  615MOL0     O84780   5.582   9.099   4.017 -0.2499  0.3206  0.2876
  615MOL0     C84781   5.906   9.004   4.106  1.1545  0.1485 -0.3104
  615MOL0     C84782   6.019   8.929   4.073 -1.2852  0.0399  0.9645
  615MOL0     N84783   6.357   8.271   3.991 -0.6787  0.7203  0.0787
  615MOL0     N84784   6.402   8.267   4.122 -0.0025  0.0606  1.1382
  615MOL0     C84785   7.320   8.699   4.366  0.3665 -0.2282  0.6375
  615MOL0     C84786   7.383   8.813   4.299 -0.3193  0.3817 -0.4823
  615MOL0     C84787   7.457   9.258   4.224  0.2545 -0.5904 -0.2750
  615MOL0     C84788   7.549   9.234   4.116 -0.3468  1.3052  0.5637
  615MOL0     C84789   7.593   9.328   4.024 -0.8660  0.3344 -0.7805
  615MOL0     C84790   7.582   9.462   4.063 -0.2048  0.4402  0.3678
  615MOL0     O84791   7.650   9.546   3.986  0.3497 -0.6690 -0.6361
  615MOL0     C84792   7.635   9.687   4.008  1.0747 -0.5729  0.1168
  615MOL0     C84793   7.720   9.766   3.908 -0.0924 -0.0031  0.0354
  615MOL0     C84794   7.870   9.773   3.924  0.0748  1.0957 -0.0970
  615MOL0     C84795   7.936   9.634   3.890 -0.2629  0.1360 -1.0203
  615MOL0     C84796   8.077   9.645   3.896  0.1959  0.8150 -0.2639
  615MOL0     C84797   8.196   9.658   3.901 -0.5800  0.6113  0.1128
  615MOL0     C84798   7.499   9.490   4.181 -0.1684 -1.0511  0.2258
  615MOL0     C84799   7.449   9.391   4.266  0.1561 -0.6115  0.3729
  615MOL0     C84800   7.391   9.438   4.388 -0.2803 -0.3021  0.2905
  615MOL0     H84801   7.121   9.015   4.279  1.1816  1.8217  1.0108
  615MOL0     H84802   6.997   8.840   4.396  0.2601  1.8698  0.0419
  615MOL0     H84803   6.952   8.562   4.371 -2.3963 -0.6948  0.4897
  615MOL0     H84804   6.961   8.644   4.526  3.3534  0.7979  0.5449
  615MOL0     H84805   7.003   8.349   4.465  2.5741 -0.4749  2.7455
  615MOL0     H84806   7.025   8.414   4.625  1.9926 -0.5403 -0.2349
  615MOL0     H84807   6.806   8.451   4.662  1.0418 -2.3082  0.1321
  615MOL0     H84808   6.758   8.469   4.489  0.4349  3.1518 -0.6421
  615MOL0     H84809   6.864   8.202   4.595  0.3486  0.8890 -0.4606
  615MOL0     H84810   6.701   8.250   4.623  1.0637 -1.7632  1.2361
  615MOL0     H84811   6.810   8.114   4.403  3.0649  1.8198 -0.4741
  615MOL0     H84812   6.776   8.288   4.344  0.3887 -1.6541 -0.6658
  615MOL0     H84813   6.603   8.137   4.285 -0.6247  0.6630 -0.2184
  615MOL0     H84814   6.565   8.124   4.460 -1.9211  2.2656  0.7704
  615MOL0     H84815   6.546   8.368   4.477 -0.3823 -1.4353  1.2669
  615MOL0     H84816   6.411   8.285   4.413  0.1614 -2.3751  2.0667
  615MOL0     H84817   6.460   8.509   4.291 -1.2536 -0.8929 -3.1215
  615MOL0     H84818   6.621   8.474   4.292 -1.7632  2.8707  1.2560
  615MOL0     H84819   6.548   8.533   4.017 -0.7776  0.8140 -2.6543
  615MOL0     H84820   6.393   8.356   3.730  0.6606  0.2020 -0.1674
  615MOL0     H84821   6.482   8.498   3.781  1.8247 -2.4600 -2.4663
  615MOL0     H84822   6.222   8.497   3.702  4.7050  2.6622 -1.2363
  615MOL0     H84823   6.179   8.437   3.872  1.1822 -2.5282 -0.6978
  615MOL0     H84824   6.277   8.618   3.990 -2.2107  1.6115  0.0548
  615MOL0     H84825   6.353   8.678   3.840  0.7562  1.0092  0.8651
  615MOL0     H84826   6.123   8.722   3.751 -0.1775 -0.5186  0.3953
  615MOL0     H84827   6.058   8.660   3.906 -0.5878 -1.9043 -1.7497
  615MOL0     H84828   5.958   8.904   3.740  1.3279 -2.2366  1.5413
  615MOL0     H84829   5.807   9.074   3.676  1.9128 -1.6689  1.6288
  615MOL0     H84830   5.706   9.165   3.781 -2.7890 -1.2370  0.4181
  615MOL0     H84831   5.672   8.993   3.744 -1.8000  2.7698 -2.4347
  615MOL0     H84832   5.708   9.440   4.167 -1.5592 -0.5299 -1.8252
  615MOL0     H84833   5.543   9.588   4.223 -1.6302  0.0386  1.0170
  615MOL0     H84834   5.412   9.702   4.375  1.0280 -3.0170  1.5462
  615MOL0     H84835   5.315   9.661   4.233  0.8297 -1.9022  0.1663
  615MOL0     H84836   5.214   9.764   4.500 -1.0225  1.8047 -0.6478
  615MOL0     H84837   5.211   9.848   4.343 -1.8640  0.5637  0.9142
  615MOL0     H84838   5.090   9.620   4.268 -0.8043  1.4285 -2.5620
  615MOL0     H84839   5.005   9.772   4.312  0.8660  1.5296  2.9441
  615MOL0     H84840   4.955   9.698   4.534 -3.0053  0.6699 -1.7358
  615MOL0     H84841   5.058   9.556   4.523 -1.1942  1.5917  2.9233
  615MOL0     H84842   4.775   9.560   4.486  0.0727 -1.9530  0.1921
  615MOL0     H84843   4.814   9.619   4.333 -2.2799 -0.7599  0.3433
  615MOL0     H84844   4.881   9.346   4.437  0.3763  1.0741 -0.0615
  615MOL0     H84845   4.937   9.419   4.275  1.0952 -1.9204 -0.0462
  615MOL0     H84846   4.697   9.419   4.195 -1.1954  3.0711  0.7709
  615MOL0     H84847   4.644   9.376   4.354 -1.3763 -0.4830 -1.7181
  615MOL0     H84848   4.766   9.186   4.356 -3.9409 -0.8219  0.6835
  615MOL0     H84849   4.829   9.210   4.189 -2.8822 -0.0531 -2.7803
  615MOL0     H84850   5.326   9.293   4.430  0.7168  0.9008  0.8812
  615MOL0     H84851   5.483   9.125   4.341 -1.1438  1.2248  2.3289
  615MOL0     H84852   5.881   9.036   4.207 -1.3442 -1.2374 -0.3967
  615MOL0     H84853   6.094   8.895   4.144  1.5291  0.1867 -1.7180
  615MOL0     H84854   7.380   8.613   4.393  1.2563  0.4398  0.8341
  615MOL0     H84855   7.487   8.808   4.267 -0.1659 -0.5053  0.1171
  615MOL0     H84856   7.563   9.131   4.083 -2.2852  1.1076  0.2656
  615MOL0     H84857   7.653   9.299   3.939 -2.2486  1.6308 -2.2678
  615MOL0     H84858   7.532   9.723   4.010  0.8361 -1.2552  1.2624
  615MOL0     H84859   7.671   9.705   4.110  0.0063  0.7088  0.3038
  615MOL0     H84860   7.676   9.865   3.897 -2.7841 -0.8522  2.1418
  615MOL0     H84861   7.702   9.712   3.814 -1.2591 -1.6788  1.1596
  615MOL0     H84862   7.906   9.854   3.860  1.2646 -0.2582 -1.2218
  615MOL0     H84863   7.892   9.805   4.026 -0.3637 -1.2006  0.7938
  615MOL0     H84864   7.914   9.605   3.787 -0.9879  1.4579 -1.2494
  615MOL0     H84865   7.904   9.563   3.967 -0.0322 -0.2988 -1.3180
  615MOL0     H84866   8.303   9.649   3.909 -0.1719  1.5566 -2.8354
  615MOL0     H84867   7.485   9.592   4.215 -1.2633 -1.3552  0.7393
  615MOL0     H84868   7.402   9.546   4.405 -2.3590 -0.3695  2.7736
  615MOL0     H84869   7.283   9.418   4.397 -0.3532 -0.2627 -0.4086
  615MOL0     H84870   7.444   9.380   4.463  1.1620 -0.9690 -1.1960
  616MOL0     O84871   8.849   8.006   7.326  0.8274  0.2341 -0.4477
  616MOL0     C84872   8.732   8.027   7.292  0.2246 -0.4782 -0.0947
  616MOL0     O84873   8.698   8.096   7.174 -0.0237  0.1109  0.7281
  616MOL0     C84874   8.787   8.132   7.075  0.7742 -0.3120 -0.4708
  616MOL0     C84875   8.732   8.176   6.954  0.1710 -0.0131 -0.3819
  616MOL0     C84876   8.804   8.212   6.846 -0.7571 -0.3678  0.5542
  616MOL0     C84877   8.942   8.208   6.852 -0.6563 -0.3965 -0.0246
  616MOL0     O84878   9.002   8.240   6.732  0.5759  0.2325  0.6515
  616MOL0     C84879   9.130   8.312   6.736  0.2633 -0.4691 -0.2326
  616MOL0     C84880   9.133   8.442   6.653 -0.0968  0.4379 -0.1627
  616MOL0     C84881   9.143   8.419   6.503  0.0811 -0.2090  0.6223
  616MOL0     C84882   9.134   8.559   6.441 -0.6108  0.8045 -0.1081
  616MOL0     C84883   9.162   8.544   6.291  0.0546 -0.5847 -0.2328
  616MOL0     C84884   9.197   8.668   6.210  1.0541  0.1553  0.1502
  616MOL0     C84885   9.126   8.796   6.255 -0.5471  0.9551 -0.8074
  616MOL0     C84886   9.175   8.906   6.166 -0.6159  1.0872  0.1159
  616MOL0     N84887   9.109   9.040   6.179  0.4407 -0.1431  0.0964
  616MOL0     C84888   9.057   9.103   6.061  0.1922  0.8766 -0.7960
  616MOL0     C84889   9.025   9.228   6.098 -0.4977  0.2413  0.0968
  616MOL0     C84890   8.971   9.344   6.018  0.3067  1.4867 -0.6580
  616MOL0     C84891   8.823   9.377   6.052  0.2586 -0.4734 -0.3879
  616MOL0     C84892   8.731   9.261   6.019  1.1103 -0.8555 -0.9158
  616MOL0     C84893   8.708   9.247   5.863 -0.9101  0.5013 -0.6843
  616MOL0     O84894   8.806   9.162   5.816 -0.2478 -0.1059 -0.0933
  616MOL0     C84895   8.847   9.177   5.685  0.1610  0.3238 -0.0604
  616MOL0     C84896   8.793   9.262   5.587 -0.2437 -0.6560 -0.1047
  616MOL0     C84897   8.843   9.270   5.455  0.2479 -0.5396 -0.4180
  616MOL0     C84898   8.766   9.368   5.361  0.2138 -0.2326  0.0287
  616MOL0     C84899   8.951   9.184   5.416  0.0605  0.2075 -0.2832
  616MOL0     C84900   9.010   9.188   5.273 -0.5687  0.7153 -0.4726
  616MOL0     O84901   8.991   9.304   5.193  0.0012 -0.4895  0.0641
  616MOL0     C84902   9.038   9.325   5.063 -0.1664 -0.1721 -0.0302
  616MOL0     C84903   8.943   9.336   4.964  0.1917  0.3707  0.7688
  616MOL0     C84904   8.976   9.367   4.827  0.0636  0.3420 -0.2401
  616MOL0     C84905   9.116   9.372   4.790  0.2733  1.0526  0.3257
  616MOL0     O84906   9.178   9.395   4.670 -0.4101 -0.6134  0.1615
  616MOL0     C84907   9.087   9.419   4.563  0.0734  0.8089  0.5735
  616MOL0     C84908   9.169   9.506   4.472  0.2190  0.3616 -0.5145
  616MOL0     C84909   9.108   9.489   4.328 -0.5886  0.3554 -0.7863
  616MOL0     C84910   9.198   9.527   4.217  0.4939 -0.3057 -0.2084
  616MOL0     C84911   9.133   9.488   4.086  0.7068 -0.8221  0.1813
  616MOL0     C84912   9.199   9.559   3.968  0.4522  0.5314  0.0867
  616MOL0     C84913   9.161   9.502   3.825 -0.4180  0.0048  0.1985
  616MOL0     C84914   9.170   9.612   3.716 -0.0680 -0.1215  0.7290
  616MOL0    Cl84915   9.029   9.719   3.749 -0.0356 -0.1422 -0.6293
  616MOL0     C84916   9.213   9.348   4.889 -0.2964  0.6858  1.1996
  616MOL0     C84917   9.169   9.323   5.023 -0.1111  0.6029 -0.5563
  616MOL0     O84918   9.098   9.102   5.250  0.2758  0.7099 -1.3310
  616MOL0     C84919   9.006   9.103   5.521 -0.3240  0.3736 -0.0094
  616MOL0     C84920   8.956   9.099   5.653 -0.1834  0.4806 -0.6226
  616MOL0     N84921   9.073   9.242   6.231 -0.1926  0.1889  0.0662
  616MOL0     N84922   9.126   9.133   6.279  0.4201 -0.4363 -0.2316
  616MOL0     C84923   9.002   8.180   6.974  0.0506 -0.4106  0.7072
  616MOL0     C84924   8.924   8.140   7.089  0.3571  0.7927  0.9713
  616MOL0     C84925   8.617   7.985   7.386  0.0434  0.5265  1.2070
  616MOL0     C84926   8.488   7.973   7.334  0.7253  0.3181  0.1104
  616MOL0     C84927   8.376   7.940   7.411  0.8019 -0.1551  0.8956
  616MOL0     C84928   8.381   7.907   7.542  0.5231  0.0299 -0.4007
  616MOL0     O84929   8.282   7.855   7.620  0.5386  0.0591  0.0468
  616MOL0     C84930   8.174   7.789   7.562  1.0183  1.6277  0.1046
  616MOL0     C84931   8.223   7.658   7.495  1.1449 -1.4842  0.0080
  616MOL0     C84932   8.107   7.560   7.464  0.9040  0.0451  0.5886
  616MOL0     C84933   8.010   7.594   7.349  0.1332  0.5218 -0.6175
  616MOL0     C84934   8.073   7.595   7.215 -0.8112 -0.2170  0.0221
  616MOL0     C84935   8.123   7.603   7.104 -0.2351 -0.0984 -0.4511
  616MOL0     C84936   8.503   7.912   7.596  0.2341  0.2376 -0.9987
  616MOL0     C84937   8.618   7.958   7.521  0.1457 -0.2699  0.1475
  616MOL0     C84938   8.748   7.977   7.596  0.1787 -0.0715 -0.8015
  616MOL0     H84939   8.624   8.167   6.947  0.1270 -1.0886  1.2655
  616MOL0     H84940   8.753   8.229   6.751 -0.7740  0.8153  0.7533
  616MOL0     H84941   9.221   8.253   6.726  2.3911  2.3528  0.9129
  616MOL0     H84942   9.135   8.355   6.837  1.6080 -0.9772 -0.0598
  616MOL0     H84943   9.041   8.494   6.680  1.1918  2.2266  0.9702
  616MOL0     H84944   9.217   8.503   6.686 -1.0649  2.0264 -0.5388
  616MOL0     H84945   9.243   8.381   6.481  0.6547  1.0276  0.9801
  616MOL0     H84946   9.067   8.344   6.480 -0.8512 -0.0982  3.0938
  616MOL0     H84947   9.036   8.605   6.454 -0.9059  0.6349 -1.5544
  616MOL0     H84948   9.211   8.625   6.481 -0.4593 -1.5976  4.1934
  616MOL0     H84949   9.077   8.480   6.263 -1.8160  1.9123 -0.6904
  616MOL0     H84950   9.255   8.490   6.273  1.7711  1.5996  1.5472
  616MOL0     H84951   9.305   8.679   6.218  0.9382  0.1080  2.4402
  616MOL0     H84952   9.169   8.656   6.105  1.5941 -3.6869  0.3234
  616MOL0     H84953   9.143   8.800   6.363  1.8261 -0.7834 -1.0286
  616MOL0     H84954   9.021   8.773   6.238 -0.4646 -0.7768  0.7494
  616MOL0     H84955   9.278   8.915   6.200 -0.5630 -2.3246  1.2904
  616MOL0     H84956   9.171   8.875   6.061  1.3090  1.6852 -0.1543
  616MOL0     H84957   9.038   9.041   5.974 -0.0900 -0.3982  0.1352
  616MOL0     H84958   8.974   9.319   5.912  2.4978  0.0340 -0.3114
  616MOL0     H84959   9.041   9.426   6.039  0.2157  1.2111  0.8742
  616MOL0     H84960   8.801   9.418   6.151 -3.8724 -2.0122 -0.4581
  616MOL0     H84961   8.793   9.456   5.983  3.6215  0.4278 -0.9852
  616MOL0     H84962   8.754   9.166   6.068 -0.6140 -0.2255  1.3040
  616MOL0     H84963   8.627   9.286   6.046  0.3188 -0.7811 -3.7357
  616MOL0     H84964   8.611   9.201   5.845 -1.0323  0.1917  0.6443
  616MOL0     H84965   8.724   9.348   5.826  1.1547  1.2268  1.9230
  616MOL0     H84966   8.724   9.342   5.611  0.5977  1.5946 -4.2066
  616MOL0     H84967   8.664   9.395   5.387 -0.2776 -1.1591 -0.8647
  616MOL0     H84968   8.751   9.318   5.265  0.5461 -0.5030  0.1126
  616MOL0     H84969   8.827   9.458   5.348 -0.6744  0.7168  2.0202
  616MOL0     H84970   8.840   9.342   4.999 -0.3871 -0.2450 -0.7640
  616MOL0     H84971   8.901   9.377   4.749 -0.1915 -0.3729 -0.0989
  616MOL0     H84972   9.054   9.324   4.521 -1.1105  1.0921  0.8232
  616MOL0     H84973   8.995   9.470   4.593 -2.3311 -1.0391 -2.9270
  616MOL0     H84974   9.160   9.611   4.504 -0.8703  0.3405 -0.7081
  616MOL0     H84975   9.270   9.465   4.471 -0.6607 -1.9043 -0.7555
  616MOL0     H84976   9.008   9.534   4.330 -0.7689  0.4869  4.8588
  616MOL0     H84977   9.097   9.381   4.315  1.2717  0.3034 -2.2982
  616MOL0     H84978   9.298   9.488   4.239  0.3494  1.1362  3.7971
  616MOL0     H84979   9.212   9.635   4.206  2.1793 -0.5081 -0.2815
  616MOL0     H84980   9.143   9.381   4.063  0.5927 -0.3068 -2.7313
  616MOL0     H84981   9.027   9.512   4.083  0.4837 -1.6016  1.2588
  616MOL0     H84982   9.308   9.550   3.976  0.4773  0.7561  0.0085
  616MOL0     H84983   9.175   9.666   3.972 -1.7018  0.0564  2.2959
  616MOL0     H84984   9.057   9.470   3.825 -0.7711  1.0493 -1.5844
  616MOL0     H84985   9.217   9.409   3.807  0.2953  0.1100  1.7357
  616MOL0     H84986   9.167   9.583   3.611  2.3129  1.3829  0.1476
  616MOL0     H84987   9.267   9.663   3.718  0.4286 -0.9774 -0.6791
  616MOL0     H84988   9.317   9.344   4.858 -1.1517  0.0903 -1.9455
  616MOL0     H84989   9.239   9.309   5.104 -0.8337  0.0291 -0.0212
  616MOL0     H84990   9.091   9.036   5.505 -1.7397 -1.5700  0.2380
  616MOL0     H84991   8.994   9.039   5.736  0.6589  2.9795  0.9105
  616MOL0     H84992   9.110   8.185   6.984 -0.0418 -0.7391  2.0956
  616MOL0     H84993   8.985   8.114   7.175  1.2840 -1.6451 -0.3203
  616MOL0     H84994   8.480   7.996   7.229 -0.1671  0.1993  0.1399
  616MOL0     H84995   8.281   7.957   7.361  0.7802 -0.3374  0.8747
  616MOL0     H84996   8.094   7.775   7.635 -0.9521  1.1506 -2.0296
  616MOL0     H84997   8.125   7.847   7.483 -1.2412  1.2322  1.1397
  616MOL0     H84998   8.302   7.614   7.557  0.2150 -1.4239  1.2803
  616MOL0     H84999   8.262   7.684   7.396 -0.8442  2.0581  0.0049
  616MOL0     H85000   8.150   7.460   7.453 -2.2686 -1.6905  2.2921
  616MOL0     H85001   8.044   7.561   7.553  0.7807 -1.2491  0.5288
  616MOL0     H85002   7.960   7.690   7.364 -2.0274 -0.6539  0.0539
  616MOL0     H85003   7.937   7.513   7.347 -1.5223  1.8844  1.3124
  616MOL0     H85004   8.162   7.610   7.004 -1.8356 -0.6969 -1.1516
  616MOL0     H85005   8.514   7.891   7.702  1.4129  0.5668 -1.0404
  616MOL0     H85006   8.730   7.961   7.703  1.0683 -3.4198 -1.0513
  616MOL0     H85007   8.821   7.898   7.577 -2.7977 -2.7269 -2.1942
  616MOL0     H85008   8.791   8.076   7.578 -2.1007  0.8855 -1.4457
  617MOL0     O85009   8.007   4.561   1.213 -0.3003 -0.4411  0.5273
  617MOL0     C85010   7.984   4.676   1.169  0.3497 -0.7163  0.7925
  617MOL0     O85011   8.079   4.751   1.106 -0.3747  0.1777 -0.0201
  617MOL0     C85012   8.206   4.693   1.108  1.1236 -0.1651  0.3781
  617MOL0     C85013   8.253   4.602   1.011 -0.0922 -0.6221  0.5733
  617MOL0     C85014   8.372   4.539   1.029  0.2616  0.4116 -0.0573
  617MOL0     C85015   8.449   4.549   1.146 -0.8002  0.4205  0.4309
  617MOL0     O85016   8.567   4.464   1.157  0.4203 -0.1248  0.0045
  617MOL0     C85017   8.682   4.504   1.231 -1.0489 -0.6721  0.1007
  617MOL0     C85018   8.746   4.632   1.172  0.4454 -0.4968  0.2280
  617MOL0     C85019   8.774   4.631   1.016  0.6364 -0.0133 -0.3260
  617MOL0     C85020   8.864   4.521   0.964  0.0266 -1.0306 -0.7151
  617MOL0     C85021   8.826   4.506   0.811 -0.1257 -0.3017  1.0332
  617MOL0     C85022   8.878   4.374   0.753 -0.8962 -0.8531  0.8193
  617MOL0     C85023   8.806   4.242   0.808  0.0119  0.6997  0.6524
  617MOL0     C85024   8.860   4.122   0.734 -0.2456  0.3153  0.1445
  617MOL0     N85025   8.771   4.004   0.738  0.5728 -0.1860 -0.0357
  617MOL0     C85026   8.652   3.994   0.671  0.2056  0.3198  0.2528
  617MOL0     C85027   8.620   3.861   0.700  0.1058 -0.8124  0.4319
  617MOL0     C85028   8.501   3.788   0.632  0.0048 -0.1360 -0.1837
  617MOL0     C85029   8.475   3.648   0.675  0.0403 -0.0725 -0.6067
  617MOL0     C85030   8.582   3.552   0.635 -0.0474  0.5677 -0.5709
  617MOL0     C85031   8.601   3.532   0.487  1.2172  0.0664 -0.5399
  617MOL0     O85032   8.697   3.619   0.441 -0.8782 -0.9823  0.1426
  617MOL0     C85033   8.834   3.598   0.470  2.0900 -0.5421  0.0388
  617MOL0     C85034   8.905   3.704   0.529 -0.1844 -0.4825 -0.2761
  617MOL0     C85035   9.041   3.690   0.549 -0.0333  1.3036  0.3674
  617MOL0     C85036   9.109   3.805   0.598 -0.3310 -0.1495 -0.2213
  617MOL0     C85037   9.099   3.563   0.526  0.4190  0.1355  0.2481
  617MOL0     C85038   9.244   3.531   0.544 -0.9168  0.3058 -0.2722
  617MOL0     O85039   9.281   3.405   0.512  0.4034  0.0884 -0.0976
  617MOL0     C85040   9.410   3.373   0.548  0.2735 -0.4955 -0.9803
  617MOL0     C85041   9.454   3.361   0.682 -0.0417 -0.1026 -0.4957
  617MOL0     C85042   9.580   3.322   0.728 -0.9664  0.1705  0.4961
  617MOL0     C85043   9.655   3.263   0.628 -0.7171  0.8424  0.7399
  617MOL0     O85044   9.766   3.190   0.646  0.0473 -0.3963  0.5006
  617MOL0     C85045   9.813   3.169   0.777 -0.0214  0.2453  0.7597
  617MOL0     C85046   9.937   3.074   0.779  0.4582 -0.4822 -0.2717
  617MOL0     C85047  10.063   3.161   0.735  0.1336  0.2426 -0.4170
  617MOL0     C85048  10.134   3.219   0.848 -0.9779 -0.8191 -0.6709
  617MOL0     C85049  10.256   3.309   0.804  0.6789  0.7994 -0.0759
  617MOL0     C85050  10.335   3.366   0.924 -0.1463  0.4015  0.6048
  617MOL0     C85051  10.340   3.523   0.915 -0.2637  0.4168 -1.1877
  617MOL0     C85052  10.428   3.569   1.036  0.7649 -0.5461  0.4806
  617MOL0    Cl85053  10.355   3.534   1.189 -0.6706 -0.1995  0.0801
  617MOL0     C85054   9.618   3.244   0.497 -0.3135 -0.0193  0.0208
  617MOL0     C85055   9.500   3.312   0.459  0.3875 -0.4016 -0.5634
  617MOL0     O85056   9.324   3.612   0.590 -0.0281  0.3414  0.9567
  617MOL0     C85057   9.014   3.456   0.484 -0.7572  0.5266  0.5801
  617MOL0     C85058   8.890   3.477   0.445  1.2100 -0.6110 -0.3624
  617MOL0     N85059   8.704   3.803   0.794  0.5811  1.4614  0.0962
  617MOL0     N85060   8.797   3.894   0.805 -0.3445  0.7146  0.1478
  617MOL0     C85061   8.412   4.650   1.238 -0.5396  0.2264 -0.0325
  617MOL0     C85062   8.293   4.718   1.221  0.2108 -0.9868 -0.3196
  617MOL0     C85063   7.851   4.740   1.189 -0.1547 -0.8415  0.6117
  617MOL0     C85064   7.855   4.878   1.185  0.1888 -0.1325 -0.0017
  617MOL0     C85065   7.748   4.955   1.214  0.4415 -1.0388  0.2842
  617MOL0     C85066   7.628   4.893   1.252  0.0028  1.0547  0.4082
  617MOL0     O85067   7.531   4.979   1.288 -0.0749 -0.6537  0.1291
  617MOL0     C85068   7.398   4.927   1.287 -0.2682 -0.4182 -0.0086
  617MOL0     C85069   7.355   4.883   1.430  0.2341  0.2178  0.0796
  617MOL0     C85070   7.257   4.769   1.408  0.9299 -0.4417  0.2603
  617MOL0     C85071   7.181   4.717   1.530 -0.5933  1.3755  0.2564
  617MOL0     C85072   7.263   4.629   1.604 -0.3471  0.3388  0.0428
  617MOL0     C85073   7.339   4.574   1.682  0.0922  0.6054 -0.4527
  617MOL0     C85074   7.615   4.753   1.254  0.1283 -0.0968  0.0985
  617MOL0     C85075   7.731   4.673   1.224 -0.7352 -0.4096  0.4237
  617MOL0     C85076   7.723   4.524   1.244  0.0088  0.1497 -0.1503
  617MOL0     H85077   8.192   4.598   0.922  0.4523 -0.3189  0.1770
  617MOL0     H85078   8.406   4.464   0.958  0.8935 -0.5012  1.1625
  617MOL0     H85079   8.757   4.426   1.240 -0.4694 -0.1949 -0.4818
  617MOL0     H85080   8.654   4.519   1.336  0.7811 -1.3438  0.7257
  617MOL0     H85081   8.672   4.707   1.204 -1.7907 -1.0341 -3.1371
  617MOL0     H85082   8.834   4.657   1.232 -0.1188 -2.3990  1.9986
  617MOL0     H85083   8.677   4.611   0.971  0.9502 -0.4709 -0.8202
  617MOL0     H85084   8.815   4.723   0.973  1.3567 -0.9074 -1.6198
  617MOL0     H85085   8.968   4.548   0.980 -0.6614  0.8443  1.1715
  617MOL0     H85086   8.839   4.432   1.024  2.0107 -0.0710  1.7082
  617MOL0     H85087   8.863   4.597   0.763 -2.7201  0.4912  0.3850
  617MOL0     H85088   8.717   4.504   0.800 -0.2349 -4.6747  1.0855
  617MOL0     H85089   8.866   4.376   0.644 -3.8553 -0.6197  1.0568
  617MOL0     H85090   8.983   4.363   0.782 -0.7367 -0.2271  0.4929
  617MOL0     H85091   8.699   4.260   0.797 -0.0007  0.2705  0.0318
  617MOL0     H85092   8.826   4.246   0.916  2.8355  2.9129  0.1781
  617MOL0     H85093   8.863   4.145   0.627  0.4930 -1.9175 -0.3555
  617MOL0     H85094   8.962   4.101   0.764  0.6752  2.5158 -1.1766
  617MOL0     H85095   8.599   4.067   0.612 -1.0752 -0.1360  0.7893
  617MOL0     H85096   8.527   3.784   0.526 -0.1362  1.0539 -0.2680
  617MOL0     H85097   8.417   3.857   0.634  0.3334  0.3621 -1.8966
  617MOL0     H85098   8.459   3.637   0.783  3.0299  0.7346  0.0053
  617MOL0     H85099   8.376   3.623   0.634 -0.7292  2.4187 -0.4533
  617MOL0     H85100   8.676   3.575   0.687  0.0940 -2.2444  0.6092
  617MOL0     H85101   8.572   3.451   0.677  0.9262  0.5709 -0.3104
  617MOL0     H85102   8.630   3.428   0.475  0.7576 -0.5916  2.8586
  617MOL0     H85103   8.510   3.546   0.429  1.3810 -0.0711 -0.8279
  617MOL0     H85104   8.857   3.800   0.548  2.3629  0.4287  2.2680
  617MOL0     H85105   9.072   3.899   0.555  0.9534  0.1401 -0.7412
  617MOL0     H85106   9.217   3.815   0.592 -0.2371  0.1226  1.3336
  617MOL0     H85107   9.085   3.805   0.705  1.2548 -1.7888  0.1758
  617MOL0     H85108   9.388   3.406   0.755 -0.4348  1.9178 -2.0098
  617MOL0     H85109   9.611   3.325   0.832 -1.3215  2.5468  0.5877
  617MOL0     H85110   9.824   3.258   0.840 -0.4232 -1.3440  3.2566
  617MOL0     H85111   9.740   3.108   0.832  1.4904 -0.0728  2.5055
  617MOL0     H85112   9.956   3.030   0.877 -2.4595 -2.7173 -0.5823
  617MOL0     H85113   9.920   2.985   0.717  2.2426  0.9645 -3.0398
  617MOL0     H85114  10.021   3.245   0.679  1.7869  0.4638 -1.3825
  617MOL0     H85115  10.130   3.097   0.677 -1.5398 -0.4493 -1.6538
  617MOL0     H85116  10.156   3.147   0.927 -0.4222 -0.5903 -0.6110
  617MOL0     H85117  10.062   3.284   0.897  1.7329  2.6062 -0.8240
  617MOL0     H85118  10.329   3.267   0.735 -0.5257  1.9308 -2.1139
  617MOL0     H85119  10.212   3.396   0.755 -4.0450 -0.3101  1.6815
  617MOL0     H85120  10.438   3.333   0.911 -0.4640 -0.2679 -0.4168
  617MOL0     H85121  10.295   3.326   1.017 -2.7064  2.8509  0.6883
  617MOL0     H85122  10.244   3.575   0.911  0.8401  2.6964  0.1635
  617MOL0     H85123  10.398   3.543   0.824 -1.9343 -0.8850 -2.6250
  617MOL0     H85124  10.459   3.674   1.031  0.3743 -0.4856 -1.4573
  617MOL0     H85125  10.518   3.508   1.028  1.4757  0.6774 -3.9637
  617MOL0     H85126   9.679   3.205   0.416 -2.0868 -1.0253 -0.8766
  617MOL0     H85127   9.478   3.307   0.353  1.8235  0.6715 -0.9374
  617MOL0     H85128   9.047   3.353   0.474 -3.9482 -0.5172 -0.1051
  617MOL0     H85129   8.825   3.392   0.428  0.3474  0.0096 -0.2215
  617MOL0     H85130   8.484   4.660   1.318  1.0807 -2.3191 -1.0273
  617MOL0     H85131   8.267   4.784   1.303 -0.4551 -0.4913 -0.9277
  617MOL0     H85132   7.949   4.933   1.178  0.9386 -1.2688  0.7723
  617MOL0     H85133   7.756   5.063   1.206 -1.3970 -0.9564 -1.0083
  617MOL0     H85134   7.343   5.016   1.256  1.0222 -0.2860 -2.1364
  617MOL0     H85135   7.388   4.849   1.210 -0.2283  1.5526 -2.0940
  617MOL0     H85136   7.304   4.966   1.480  0.3122 -1.3904  3.0159
  617MOL0     H85137   7.439   4.854   1.493  0.3940  1.0580  0.2713
  617MOL0     H85138   7.179   4.809   1.342 -0.6126 -1.0762  1.6403
  617MOL0     H85139   7.304   4.684   1.358  0.9075  0.5135 -1.4917
  617MOL0     H85140   7.096   4.659   1.493  1.3033 -1.8625  0.6572
  617MOL0     H85141   7.144   4.795   1.598 -0.0696  1.4974  0.4007
  617MOL0     H85142   7.417   4.538   1.746  0.7245 -0.5892 -1.8234
  617MOL0     H85143   7.530   4.693   1.284  1.1464 -1.4613  0.3253
  617MOL0     H85144   7.757   4.483   1.149 -3.0735 -0.1208 -1.2282
  617MOL0     H85145   7.776   4.477   1.328 -0.6847 -3.2245 -1.4510
  617MOL0     H85146   7.619   4.490   1.250  0.2400 -0.3602  1.6284
  618MOL0     O85147   8.711   4.841   8.513 -0.7542 -1.3702  0.0543
  618MOL0     C85148   8.757   4.896   8.409  0.9508 -0.1133  0.1167
  618MOL0     O85149   8.868   4.859   8.349 -0.1072  0.2315 -0.3098
  618MOL0     C85150   8.880   4.912   8.219  0.3842  0.8153 -0.6872
  618MOL0     C85151   9.005   4.966   8.187 -0.1405 -0.6886 -1.0621
  618MOL0     C85152   9.033   5.023   8.065  0.1568  0.5999 -0.2523
  618MOL0     C85153   8.944   4.993   7.958 -0.9359 -0.5624 -0.5082
  618MOL0     O85154   8.982   5.001   7.831 -0.0857 -0.3767  0.1462
  618MOL0     C85155   9.010   4.869   7.765  1.0062 -0.8375 -0.1051
  618MOL0     C85156   9.018   4.894   7.617 -0.3187 -0.2754 -0.1024
  618MOL0     C85157   8.885   4.929   7.538 -0.9521 -0.3140  0.3874
  618MOL0     C85158   8.766   4.840   7.588 -1.1350 -1.0181  1.0810
  618MOL0     C85159   8.640   4.860   7.495 -0.1718 -0.1837  0.2220
  618MOL0     C85160   8.530   4.774   7.550  0.3404  1.6192 -0.0005
  618MOL0     C85161   8.548   4.624   7.520  0.9360  0.3610 -0.1721
  618MOL0     C85162   8.434   4.538   7.562 -0.1901 -0.7914 -0.0588
  618MOL0     N85163   8.313   4.560   7.477 -0.0820  0.3803 -0.6763
  618MOL0     C85164   8.292   4.586   7.343 -0.5942  0.1394 -0.1296
  618MOL0     C85165   8.153   4.606   7.338 -0.1661 -0.6714  0.2416
  618MOL0     C85166   8.075   4.632   7.210 -0.1583  0.2574 -0.1713
  618MOL0     C85167   8.076   4.776   7.159 -1.2228  0.1101  0.0261
  618MOL0     C85168   8.023   4.878   7.256  0.4635 -1.0093  0.1658
  618MOL0     C85169   8.023   5.021   7.212 -0.3099  0.1798  0.4749
  618MOL0     O85170   7.921   5.027   7.121 -0.0751 -0.2377  0.3801
  618MOL0     C85171   7.937   5.104   7.008 -0.3149 -0.7356  0.0519
  618MOL0     C85172   8.021   5.210   7.001 -0.0943  0.7243  0.0228
  618MOL0     C85173   8.028   5.297   6.887 -0.0535  0.3720  0.4778
  618MOL0     C85174   8.125   5.402   6.889  0.3065 -1.5012 -0.1755
  618MOL0     C85175   7.941   5.266   6.771 -0.2591  0.0034 -1.3208
  618MOL0     C85176   7.939   5.345   6.644 -0.5500  0.0163 -0.6398
  618MOL0     O85177   7.889   5.279   6.537 -0.0488 -0.1752  0.5795
  618MOL0     C85178   7.901   5.324   6.409  1.2562 -0.4608 -0.1836
  618MOL0     C85179   7.821   5.253   6.316  0.6174 -0.7462 -0.7857
  618MOL0     C85180   7.847   5.268   6.183  0.9264  0.2003 -0.5853
  618MOL0     C85181   7.955   5.344   6.134 -0.2222 -0.0473  0.2195
  618MOL0     O85182   7.968   5.358   6.003 -0.2344  0.5644  0.3308
  618MOL0     C85183   8.093   5.321   5.946  0.4045 -0.5304 -0.3061
  618MOL0     C85184   8.114   5.392   5.808  0.5041  0.1003  0.2754
  618MOL0     C85185   8.159   5.538   5.814  0.6867  0.2738 -0.2737
  618MOL0     C85186   8.064   5.626   5.738  0.7764  0.2156 -0.0739
  618MOL0     C85187   7.928   5.652   5.805 -0.3130 -0.1512  1.0588
  618MOL0     C85188   7.940   5.717   5.947  0.2539  0.0846  0.8810
  618MOL0     C85189   8.041   5.832   5.961 -0.3414 -0.0508 -0.0888
  618MOL0     C85190   8.005   5.978   5.907 -0.1708  1.6173  0.3872
  618MOL0    Cl85191   7.915   6.080   6.011  0.2474 -0.1802  0.3845
  618MOL0     C85192   8.041   5.408   6.224  0.5393 -0.2255 -0.3143
  618MOL0     C85193   8.013   5.398   6.357 -0.8611 -0.0761  0.1085
  618MOL0     O85194   7.980   5.460   6.643  0.1418  0.6193  0.1710
  618MOL0     C85195   7.859   5.156   6.780 -1.4824 -0.0052  0.5815
  618MOL0     C85196   7.852   5.076   6.896 -0.7502 -0.4301  0.9018
  618MOL0     N85197   8.098   4.584   7.458 -0.3782 -0.2417 -0.0061
  618MOL0     N85198   8.195   4.559   7.536 -0.1012 -0.3281  0.1537
  618MOL0     C85199   8.819   4.948   7.993  0.2895 -0.9901  0.3604
  618MOL0     C85200   8.783   4.914   8.121  0.5015 -0.9611 -0.5697
  618MOL0     C85201   8.684   5.025   8.379  0.2339  0.2030 -0.2183
  618MOL0     C85202   8.543   5.024   8.336 -0.1613  0.6040 -0.0732
  618MOL0     C85203   8.463   5.133   8.325  0.4716  0.3661  0.0957
  618MOL0     C85204   8.505   5.252   8.379 -0.6036 -0.5956  0.0128
  618MOL0     O85205   8.415   5.349   8.408 -0.1703  0.1941  0.3314
  618MOL0     C85206   8.460   5.478   8.440 -0.5479 -0.1653  0.2211
  618MOL0     C85207   8.332   5.575   8.445 -0.6706 -0.5973 -0.3330
  618MOL0     C85208   8.238   5.537   8.565 -0.2579 -0.0782 -0.2953
  618MOL0     C85209   8.132   5.433   8.531 -0.2245  0.1254  0.0341
  618MOL0     C85210   8.075   5.436   8.395 -0.4632  0.1995  0.0329
  618MOL0     C85211   8.028   5.427   8.281  0.2676  0.8555  0.0538
  618MOL0     C85212   8.644   5.267   8.415 -0.2701 -0.3705  0.0282
  618MOL0     C85213   8.737   5.155   8.416  0.7331 -0.1360  0.7515
  618MOL0     C85214   8.878   5.178   8.454  0.1636  0.3284 -0.2036
  618MOL0     H85215   9.086   4.955   8.258 -1.5914 -3.9052  0.3052
  618MOL0     H85216   9.128   5.065   8.033  1.3089 -2.8739 -1.7825
  618MOL0     H85217   8.930   4.796   7.778 -0.8227  1.0056 -0.4136
  618MOL0     H85218   9.104   4.822   7.797  0.9888  1.2732  3.5413
  618MOL0     H85219   9.096   4.969   7.602  1.2307 -1.9686 -1.0601
  618MOL0     H85220   9.055   4.799   7.577 -1.7641 -2.4488  3.3117
  618MOL0     H85221   8.870   5.037   7.546 -1.2354 -0.1282 -1.9536
  618MOL0     H85222   8.904   4.913   7.431  7.1518  1.9829  0.7652
  618MOL0     H85223   8.809   4.739   7.583  2.9779  0.5634  0.6579
  618MOL0     H85224   8.746   4.858   7.694 -1.6097 -1.1792  1.0218
  618MOL0     H85225   8.655   4.840   7.388 -0.3584 -1.9639  0.4971
  618MOL0     H85226   8.606   4.964   7.497 -4.0097 -1.3097  1.6583
  618MOL0     H85227   8.520   4.787   7.659  0.0165 -2.7699  0.6425
  618MOL0     H85228   8.435   4.800   7.504 -0.2081  2.2440  1.4318
  618MOL0     H85229   8.633   4.584   7.576  0.5524 -0.8189 -0.3848
  618MOL0     H85230   8.565   4.629   7.412  1.6000  1.8425 -0.0216
  618MOL0     H85231   8.466   4.434   7.549  1.1071 -0.2029 -2.1643
  618MOL0     H85232   8.417   4.559   7.668  3.9499 -0.0464  0.6586
  618MOL0     H85233   8.366   4.594   7.264  0.2938  3.3204  0.8834
  618MOL0     H85234   7.970   4.603   7.223  0.2592 -1.0748  0.3767
  618MOL0     H85235   8.127   4.574   7.133  2.0232 -0.6820  1.8762
  618MOL0     H85236   8.179   4.808   7.140 -1.6013  2.1770  1.2090
  618MOL0     H85237   8.023   4.793   7.066 -3.9822  1.0223  1.6573
  618MOL0     H85238   7.927   4.855   7.304  0.4295  0.6088  0.9524
  618MOL0     H85239   8.096   4.877   7.338  0.4740  5.2515  0.6974
  618MOL0     H85240   8.007   5.099   7.287  1.9555  0.0530  1.1778
  618MOL0     H85241   8.124   5.040   7.172  0.0123 -0.6624  0.8652
  618MOL0     H85242   8.075   5.247   7.087 -1.4755  1.4870  0.6041
  618MOL0     H85243   8.191   5.380   6.804 -1.5267 -1.4413 -1.6908
  618MOL0     H85244   8.181   5.420   6.981  4.1578  0.2585 -2.6031
  618MOL0     H85245   8.070   5.496   6.877  0.4357 -0.8843  3.0833
  618MOL0     H85246   7.746   5.179   6.338  0.1381 -1.6387 -4.7670
  618MOL0     H85247   7.775   5.224   6.114  2.8180 -3.2848 -0.5507
  618MOL0     H85248   8.178   5.339   6.014  2.0919 -0.7664 -2.2637
  618MOL0     H85249   8.098   5.213   5.932  2.2316 -0.2713 -2.0583
  618MOL0     H85250   8.196   5.344   5.752 -0.5013  0.2750 -1.3985
  618MOL0     H85251   8.020   5.377   5.755  0.8192  0.2085 -0.3292
  618MOL0     H85252   8.255   5.546   5.761  0.1716  0.2566 -1.2349
  618MOL0     H85253   8.171   5.563   5.920 -0.8340 -3.0111  0.8448
  618MOL0     H85254   8.059   5.584   5.637  0.9302  1.7671 -0.7583
  618MOL0     H85255   8.119   5.720   5.725  6.2445 -2.5583  0.1497
  618MOL0     H85256   7.882   5.727   5.739  0.9010 -1.1616 -1.0349
  618MOL0     H85257   7.868   5.560   5.811 -0.9097  0.1542  0.1259
  618MOL0     H85258   7.989   5.636   6.002  0.0507 -3.0589 -3.1098
  618MOL0     H85259   7.841   5.739   5.987 -0.7321 -0.6679 -1.0570
  618MOL0     H85260   8.139   5.808   5.919 -0.7811 -3.6457  0.6022
  618MOL0     H85261   8.064   5.846   6.067 -0.2154  2.2889 -0.3876
  618MOL0     H85262   7.961   5.965   5.807  0.6046  1.2469  0.0812
  618MOL0     H85263   8.095   6.037   5.886  0.0438  0.7006 -1.4802
  618MOL0     H85264   8.123   5.475   6.198  0.1917  0.2700 -0.1342
  618MOL0     H85265   8.081   5.457   6.417 -0.5465  0.0825 -0.3942
  618MOL0     H85266   7.785   5.134   6.704 -3.7092  0.1357  2.6264
  618MOL0     H85267   7.782   4.995   6.909  1.7121 -2.9232 -0.4066
  618MOL0     H85268   8.742   4.945   7.917 -0.2984 -2.3658  0.9940
  618MOL0     H85269   8.677   4.893   8.130 -0.4491  2.6337 -1.5781
  618MOL0     H85270   8.495   4.927   8.320 -1.5150  0.5520  3.3517
  618MOL0     H85271   8.360   5.112   8.299  1.0432  0.2478 -2.2347
  618MOL0     H85272   8.520   5.480   8.531  0.4708  0.8163 -0.4395
  618MOL0     H85273   8.528   5.502   8.358 -0.7365 -1.2185 -0.2614
  618MOL0     H85274   8.285   5.587   8.347  0.7446  0.5894 -0.9113
  618MOL0     H85275   8.377   5.672   8.470  2.6114 -2.0604  0.0256
  618MOL0     H85276   8.306   5.501   8.644 -0.5748 -0.1841 -0.0700
  618MOL0     H85277   8.192   5.629   8.602  1.9797  1.4562 -1.0801
  618MOL0     H85278   8.062   5.430   8.615 -0.2415 -3.8952  0.0739
  618MOL0     H85279   8.185   5.337   8.534 -3.3646 -1.7708 -0.1420
  618MOL0     H85280   7.989   5.424   8.181  3.8928 -0.7222 -1.4787
  618MOL0     H85281   8.687   5.363   8.442  1.0010 -0.0593 -2.8079
  618MOL0     H85282   8.927   5.088   8.493  2.2389  1.6744  0.4391
  618MOL0     H85283   8.933   5.216   8.367  2.1436 -2.3927 -0.2822
  618MOL0     H85284   8.884   5.247   8.538  1.7667 -1.0059  0.8385
  619MOL0     O85285   6.863   9.317   1.935 -0.1037 -0.5442 -0.0041
  619MOL0     C85286   6.877   9.315   2.057 -0.3855  0.2784  0.4497
  619MOL0     O85287   6.800   9.239   2.140  0.4158  0.7248  0.0858
  619MOL0     C85288   6.835   9.224   2.271  0.0014 -1.0158 -0.0480
  619MOL0     C85289   6.870   9.092   2.313 -0.1050  0.1699 -0.3742
  619MOL0     C85290   6.939   9.071   2.435  0.3382  0.5184 -0.5569
  619MOL0     C85291   6.941   9.170   2.531  0.7238 -0.9414 -0.1100
  619MOL0     O85292   6.989   9.151   2.658  0.4894 -0.0056 -0.1061
  619MOL0     C85293   6.879   9.176   2.750  0.3380 -0.3265 -0.0267
  619MOL0     C85294   6.864   9.049   2.839  0.3958 -0.6681 -0.3573
  619MOL0     C85295   6.779   9.078   2.963  0.1532 -0.2644  0.1627
  619MOL0     C85296   6.751   8.944   3.033 -0.5139 -0.5691  0.4784
  619MOL0     C85297   6.645   8.949   3.142  0.2268  0.8985  0.5402
  619MOL0     C85298   6.620   8.810   3.208  0.1295  0.0672  0.4258
  619MOL0     C85299   6.515   8.836   3.325  0.3378 -0.0296  0.5005
  619MOL0     C85300   6.486   8.716   3.417  0.0693  1.1623  0.5410
  619MOL0     N85301   6.351   8.652   3.381 -0.6109 -0.2480  0.3056
  619MOL0     C85302   6.338   8.519   3.353  0.0520  0.3337 -0.5880
  619MOL0     C85303   6.207   8.504   3.336 -0.5169 -1.5004 -0.3483
  619MOL0     C85304   6.136   8.377   3.301  0.4360  0.3188  0.1966
  619MOL0     C85305   6.140   8.274   3.409  0.1879  0.0596  0.4347
  619MOL0     C85306   6.064   8.304   3.540  0.3939 -0.1339 -0.5171
  619MOL0     C85307   5.946   8.203   3.563  0.1252  0.4325 -0.2473
  619MOL0     O85308   5.847   8.214   3.462  0.1553 -0.7417 -0.1412
  619MOL0     C85309   5.802   8.098   3.395  0.3112  0.4037 -0.3064
  619MOL0     C85310   5.664   8.088   3.370 -0.4038  0.2584  0.1834
  619MOL0     C85311   5.611   7.978   3.310 -0.7982 -0.0918  0.4169
  619MOL0     C85312   5.469   7.992   3.305 -0.1367 -0.4058  0.1958
  619MOL0     C85313   5.687   7.861   3.279  0.0596 -1.1481 -0.1719
  619MOL0     C85314   5.632   7.731   3.230 -0.6305  0.2639  0.1141
  619MOL0     O85315   5.712   7.627   3.250 -0.5503  0.0793  0.0489
  619MOL0     C85316   5.690   7.502   3.219  0.0468 -0.0512 -0.3324
  619MOL0     C85317   5.783   7.406   3.255 -1.0559  0.4259 -0.3827
  619MOL0     C85318   5.767   7.271   3.213 -1.0737  0.0566  0.8382
  619MOL0     C85319   5.651   7.226   3.144 -0.3785 -0.0172  0.3401
  619MOL0     O85320   5.648   7.093   3.116 -0.2410 -0.1089 -0.2998
  619MOL0     C85321   5.523   7.043   3.066 -0.0388 -0.7082  0.1674
  619MOL0     C85322   5.510   6.886   3.104 -0.2082 -0.2113  0.0549
  619MOL0     C85323   5.623   6.792   3.058  0.7502  0.2131  0.2324
  619MOL0     C85324   5.570   6.637   3.046 -1.1721 -0.3315  0.6229
  619MOL0     C85325   5.681   6.551   2.986  0.0955  0.0284 -0.0064
  619MOL0     C85326   5.662   6.514   2.834 -0.4032  0.7921 -0.1334
  619MOL0     C85327   5.769   6.430   2.768 -0.2507 -0.7508 -0.6765
  619MOL0     C85328   5.740   6.391   2.625 -0.2973  0.3491 -0.0762
  619MOL0    Cl85329   5.879   6.294   2.572 -0.4535 -0.4798 -0.1825
  619MOL0     C85330   5.568   7.317   3.109  0.5551 -0.2261 -0.0236
  619MOL0     C85331   5.574   7.452   3.144 -0.8135 -0.1241 -1.1361
  619MOL0     O85332   5.521   7.729   3.200  0.8561  0.4949 -0.5183
  619MOL0     C85333   5.826   7.874   3.308 -0.7578 -0.5173  1.6288
  619MOL0     C85334   5.882   7.989   3.359 -0.0194 -0.0854  0.7210
  619MOL0     N85335   6.145   8.615   3.375  0.1354 -0.5804 -0.4856
  619MOL0     N85336   6.233   8.706   3.402 -0.0625 -0.3694  0.5026
  619MOL0     C85337   6.909   9.299   2.488 -0.2393  0.0112  0.6147
  619MOL0     C85338   6.843   9.328   2.364  0.0327 -0.6831  1.5217
  619MOL0     C85339   6.979   9.407   2.106  0.2144 -0.3601  0.6614
  619MOL0     C85340   7.101   9.354   2.145  0.0942 -0.5351 -0.8562
  619MOL0     C85341   7.206   9.432   2.187 -0.1303  0.8781 -0.0723
  619MOL0     C85342   7.188   9.569   2.197 -0.9528 -0.8290 -0.0814
  619MOL0     O85343   7.294   9.638   2.253  0.1891  0.2332 -0.3653
  619MOL0     C85344   7.338   9.764   2.207 -0.2253 -0.2705  0.7581
  619MOL0     C85345   7.404   9.767   2.066 -0.9988 -0.3793 -0.1077
  619MOL0     C85346   7.374   9.907   2.002 -0.2371  0.5370  0.4516
  619MOL0     C85347   7.406   9.920   1.856  0.2034  0.5466 -0.1137
  619MOL0     C85348   7.537   9.874   1.816 -0.6584  0.3231  0.6542
  619MOL0     C85349   7.656   9.841   1.788  0.1977  0.0597  0.0221
  619MOL0     C85350   7.075   9.627   2.151 -0.8870  0.4176  0.5816
  619MOL0     C85351   6.966   9.552   2.100 -1.1722  0.5455  0.4382
  619MOL0     C85352   6.850   9.624   2.036 -0.9052  0.0374 -0.1191
  619MOL0     H85353   6.856   9.012   2.241 -1.4286 -0.0500  0.1043
  619MOL0     H85354   6.969   8.970   2.461  0.4282  0.9857  1.3356
  619MOL0     H85355   6.783   9.199   2.702 -0.4106  0.3616  1.7421
  619MOL0     H85356   6.891   9.267   2.809 -1.5477  0.3785 -0.6606
  619MOL0     H85357   6.817   8.966   2.784 -1.6927 -0.3814  0.8700
  619MOL0     H85358   6.962   9.015   2.872 -0.2663 -2.6386 -0.2927
  619MOL0     H85359   6.812   9.163   3.024  3.8068 -0.0809 -1.8104
  619MOL0     H85360   6.679   9.108   2.929  0.7747 -1.0075 -2.5490
  619MOL0     H85361   6.732   8.858   2.968 -3.2458  0.6667 -0.4871
  619MOL0     H85362   6.847   8.933   3.085  0.7768  1.5613 -1.2603
  619MOL0     H85363   6.550   8.978   3.096 -1.1563 -2.2786  1.0637
  619MOL0     H85364   6.688   9.012   3.220  5.8245 -2.0803  0.3290
  619MOL0     H85365   6.579   8.744   3.131 -1.6184  0.4204  1.0105
  619MOL0     H85366   6.715   8.770   3.243  0.0558 -1.9209 -1.4402
  619MOL0     H85367   6.417   8.862   3.282  0.8147  1.1079  0.0662
  619MOL0     H85368   6.553   8.921   3.382  0.2003  3.0294 -3.4713
  619MOL0     H85369   6.559   8.639   3.389 -1.5924 -0.6025  0.8981
  619MOL0     H85370   6.500   8.742   3.522 -1.5663  2.3229  0.5087
  619MOL0     H85371   6.408   8.437   3.343  0.7786  0.6969  1.0769
  619MOL0     H85372   6.193   8.345   3.214  2.0172  1.0549  0.9131
  619MOL0     H85373   6.033   8.397   3.268  0.8638  0.1244 -1.3214
  619MOL0     H85374   6.117   8.181   3.357  0.1256 -0.5320  1.5063
  619MOL0     H85375   6.244   8.252   3.434  0.6847  1.7707  0.0369
  619MOL0     H85376   6.129   8.288   3.626 -2.9096 -2.4260  1.8158
  619MOL0     H85377   6.028   8.405   3.559  0.4785 -0.6751  3.0929
  619MOL0     H85378   5.981   8.100   3.572 -1.1355 -0.2187 -2.2014
  619MOL0     H85379   5.901   8.220   3.661  0.8688  0.4302  0.1045
  619MOL0     H85380   5.612   8.177   3.404  2.6889  2.0264  0.6545
  619MOL0     H85381   5.415   7.913   3.359  2.6803 -1.3477  1.8151
  619MOL0     H85382   5.438   7.999   3.200 -3.6565  2.9640  1.2175
  619MOL0     H85383   5.420   8.073   3.361 -1.5159  0.4060 -2.0320
  619MOL0     H85384   5.876   7.440   3.300  0.0336 -0.7648 -1.6400
  619MOL0     H85385   5.839   7.192   3.234  2.6847  2.9899 -0.0082
  619MOL0     H85386   5.428   7.085   3.102 -0.7567 -3.9794  2.5374
  619MOL0     H85387   5.521   7.060   2.958  0.3078  0.0186  0.2685
  619MOL0     H85388   5.502   6.884   3.213  2.4911 -1.2472  0.3117
  619MOL0     H85389   5.412   6.844   3.080 -1.6523  1.8405  1.9041
  619MOL0     H85390   5.703   6.792   3.133  0.6763  0.6257  0.3128
  619MOL0     H85391   5.658   6.823   2.959  1.5191  1.3957  0.8534
  619MOL0     H85392   5.491   6.643   2.971 -1.1389 -0.6459  0.5652
  619MOL0     H85393   5.538   6.602   3.144  0.7697 -0.6762  1.1706
  619MOL0     H85394   5.773   6.609   2.993 -0.2542  0.6650 -0.6292
  619MOL0     H85395   5.693   6.462   3.048 -0.1653 -1.0295 -1.4208
  619MOL0     H85396   5.654   6.609   2.779 -0.2984 -0.0397 -1.6191
  619MOL0     H85397   5.568   6.460   2.826 -0.2341  0.1781  1.5963
  619MOL0     H85398   5.784   6.352   2.842 -2.8875  0.2880  1.1020
  619MOL0     H85399   5.864   6.483   2.760 -0.1848 -1.0213 -1.8771
  619MOL0     H85400   5.716   6.474   2.558 -3.4687  0.5530  1.1478
  619MOL0     H85401   5.648   6.331   2.628  1.5045 -2.6437  0.2493
  619MOL0     H85402   5.489   7.305   3.035  1.0039  0.8999 -0.7216
  619MOL0     H85403   5.496   7.516   3.104  0.4489  1.2564 -1.4880
  619MOL0     H85404   5.888   7.785   3.304  0.4268  0.2598  2.0538
  619MOL0     H85405   5.988   7.999   3.380  0.1653 -0.0440 -0.2025
  619MOL0     H85406   6.911   9.364   2.575  0.1738 -0.0462  0.6468
  619MOL0     H85407   6.822   9.431   2.340 -0.2618 -0.3690  3.0511
  619MOL0     H85408   7.109   9.247   2.129  2.0215 -0.6386  0.4110
  619MOL0     H85409   7.299   9.379   2.206 -0.3714  0.7055  0.6619
  619MOL0     H85410   7.256   9.836   2.216 -2.8144 -2.6942 -1.4649
  619MOL0     H85411   7.406   9.802   2.284 -0.2117 -0.3007  0.7609
  619MOL0     H85412   7.363   9.690   1.999 -0.3529 -0.3861 -0.4987
  619MOL0     H85413   7.512   9.756   2.069 -1.1191 -1.6273  0.2378
  619MOL0     H85414   7.269   9.934   2.019 -0.8163 -1.1567 -0.2169
  619MOL0     H85415   7.435   9.984   2.051  1.2131  0.9178 -1.8084
  619MOL0     H85416   7.412  10.026   1.832  0.8863  0.6288  0.3991
  619MOL0     H85417   7.326   9.879   1.793  1.0297 -2.3727  0.5775
  619MOL0     H85418   7.751   9.808   1.753  0.0707  0.7778 -1.0475
  619MOL0     H85419   7.076   9.735   2.137  2.3996  0.3097 -1.3105
  619MOL0     H85420   6.755   9.580   2.068 -2.5162  1.3792 -2.7064
  619MOL0     H85421   6.855   9.727   2.072  2.2296  0.6732 -1.9781
  619MOL0     H85422   6.861   9.609   1.928 -2.1843 -0.0932 -0.2476
  620MOL0     O85423   0.158  10.742   6.383  0.2372 -0.0708  0.7266
  620MOL0     C85424   0.058  10.802   6.343 -0.6764  0.7562 -0.0590
  620MOL0     O85425  -0.049  10.750   6.285  0.2354 -0.6256 -0.0249
  620MOL0     C85426  -0.089  10.620   6.296  1.3029 -0.5176  0.3933
  620MOL0     C85427  -0.031  10.518   6.383  0.5514 -0.3632 -0.6213
  620MOL0     C85428  -0.089  10.394   6.391 -0.4919  0.3501  0.8014
  620MOL0     C85429  -0.198  10.360   6.315  0.0763 -0.7858  1.1204
  620MOL0     O85430  -0.273  10.248   6.325 -0.0905  0.4103  0.3001
  620MOL0     C85431  -0.222  10.128   6.391  0.2794  0.5012 -0.1538
  620MOL0     C85432  -0.325  10.023   6.429  0.5681 -0.5376 -0.0165
  620MOL0     C85433  -0.270   9.916   6.524 -0.1177  0.5789 -0.5411
  620MOL0     C85434  -0.378   9.812   6.557  0.7881  0.0696  0.5327
  620MOL0     C85435  -0.330   9.694   6.639  0.1681 -1.1066  0.1944
  620MOL0     C85436  -0.446   9.615   6.704 -0.4125  0.6432  0.6027
  620MOL0     C85437  -0.554   9.560   6.606  0.3941 -0.2890 -0.2339
  620MOL0     C85438  -0.647   9.461   6.679 -0.7920  0.1264  0.5906
  620MOL0     N85439  -0.575   9.333   6.695 -0.1001 -0.2750  0.8039
  620MOL0     C85440  -0.555   9.230   6.600 -0.2590 -0.4654  0.0833
  620MOL0     C85441  -0.495   9.133   6.674  0.0733 -0.3165  0.4575
  620MOL0     C85442  -0.445   9.001   6.621 -0.3618  0.5205  0.4047
  620MOL0     C85443  -0.537   8.889   6.657  0.2714 -0.5556 -0.1123
  620MOL0     C85444  -0.515   8.764   6.580 -0.8223 -0.6800 -0.4495
  620MOL0     C85445  -0.628   8.668   6.603 -0.4127  0.2254 -0.5231
  620MOL0     O85446  -0.632   8.602   6.728  0.4716  0.1111 -0.5702
  620MOL0     C85447  -0.524   8.547   6.787  0.4898  0.1014 -0.7109
  620MOL0     C85448  -0.521   8.567   6.927 -0.4286 -1.3295  0.2462
  620MOL0     C85449  -0.409   8.532   7.007  0.4359  0.1572  0.0705
  620MOL0     C85450  -0.410   8.565   7.154 -0.6609 -0.4116 -0.9501
  620MOL0     C85451  -0.308   8.456   6.940  0.4028 -0.4557 -0.4095
  620MOL0     C85452  -0.194   8.408   7.019  0.0639  1.2447 -0.2040
  620MOL0     O85453  -0.082   8.481   7.025  0.1613 -0.3892 -0.1894
  620MOL0     C85454   0.027   8.439   7.092 -0.9518  0.7236  0.1970
  620MOL0     C85455   0.091   8.320   7.071 -0.0269  0.9573 -0.0956
  620MOL0     C85456   0.184   8.264   7.152 -0.0876  0.3005 -0.3780
  620MOL0     C85457   0.221   8.341   7.272 -0.1847  0.2516  0.5050
  620MOL0     O85458   0.317   8.296   7.354 -0.2539  0.1586  0.1246
  620MOL0     C85459   0.264   8.282   7.484 -0.0669  0.5558  0.1213
  620MOL0     C85460   0.378   8.245   7.578 -0.3315  0.2490 -0.0474
  620MOL0     C85461   0.457   8.108   7.557 -0.6561  0.3893 -0.1097
  620MOL0     C85462   0.548   8.036   7.675  0.3815 -0.0161  1.1062
  620MOL0     C85463   0.672   7.974   7.628  0.0065 -0.1333  0.2704
  620MOL0     C85464   0.649   7.863   7.518 -0.1301 -0.7983 -0.4512
  620MOL0     C85465   0.612   7.732   7.583  0.6243  0.1493  1.0508
  620MOL0     C85466   0.483   7.662   7.520 -0.5000  0.2018 -0.2079
  620MOL0    Cl85467   0.495   7.644   7.349 -0.8294 -0.3445 -0.3913
  620MOL0     C85468   0.162   8.464   7.291 -0.2547  0.5052  0.8085
  620MOL0     C85469   0.072   8.520   7.202 -0.5233 -0.1443 -0.1578
  620MOL0     O85470  -0.201   8.295   7.060  0.0200 -0.1347 -0.0485
  620MOL0     C85471  -0.320   8.426   6.799 -0.0744  0.7799 -0.3489
  620MOL0     C85472  -0.437   8.457   6.727 -0.2453  0.2203  0.2500
  620MOL0     N85473  -0.482   9.163   6.808  0.7487  0.3313  0.0493
  620MOL0     N85474  -0.530   9.286   6.814  0.3944 -0.2351 -0.5701
  620MOL0     C85475  -0.257  10.457   6.227  0.4341  0.0071 -0.1189
  620MOL0     C85476  -0.207  10.583   6.222  0.3400 -0.4019  0.5361
  620MOL0     C85477   0.043  10.947   6.374 -0.7061  0.7890 -0.1063
  620MOL0     C85478  -0.091  10.988   6.394 -0.6996 -0.9820  0.4669
  620MOL0     C85479  -0.112  11.123   6.438  0.0061 -0.2166  0.5275
  620MOL0     C85480  -0.011  11.217   6.441  0.1965 -0.2491  0.3885
  620MOL0     O85481  -0.036  11.354   6.473  0.0078  0.4995  0.5612
  620MOL0     C85482  -0.059  11.388   6.617  0.0705 -0.0025  0.1326
  620MOL0     C85483   0.075  11.409   6.685  0.5818 -0.4320  0.6032
  620MOL0     C85484   0.148  11.528   6.615 -0.1709  0.2343  0.4961
  620MOL0     C85485   0.296  11.526   6.648  0.1612 -0.3540  0.1258
  620MOL0     C85486   0.351  11.615   6.754 -0.0214  0.0765  0.9150
  620MOL0     C85487   0.397  11.665   6.850  0.7182  1.0159 -0.2084
  620MOL0     C85488   0.118  11.177   6.413 -0.2806  0.5740  0.8257
  620MOL0     C85489   0.153  11.041   6.380  0.1512 -0.5922  0.2863
  620MOL0     C85490   0.288  10.998   6.341 -1.3276 -0.1101  0.1704
  620MOL0     H85491   0.052  10.540   6.449  0.5168  1.0106 -1.0184
  620MOL0     H85492  -0.041  10.332   6.466  0.9010 -1.4769 -1.4701
  620MOL0     H85493  -0.169  10.155   6.482 -2.3816  0.1269  1.6252
  620MOL0     H85494  -0.148  10.080   6.326  0.6820  0.6992  0.1558
  620MOL0     H85495  -0.413  10.077   6.466  1.0627 -1.7934  3.3576
  620MOL0     H85496  -0.353   9.970   6.337  1.4405  3.1764 -2.6772
  620MOL0     H85497  -0.201   9.853   6.466 -0.5335 -1.1821  0.8132
  620MOL0     H85498  -0.238   9.958   6.619 -0.5206 -0.8463  0.2504
  620MOL0     H85499  -0.447   9.866   6.622 -1.3914 -0.9491 -0.8415
  620MOL0     H85500  -0.437   9.775   6.473 -1.1345  3.0909  0.4158
  620MOL0     H85501  -0.269   9.736   6.719  0.5809 -0.6950 -0.3297
  620MOL0     H85502  -0.269   9.630   6.574  1.7763  1.8316 -1.3830
  620MOL0     H85503  -0.400   9.532   6.759  1.8356  1.6468  0.3371
  620MOL0     H85504  -0.500   9.682   6.771  0.3300  1.7530  0.1099
  620MOL0     H85505  -0.513   9.502   6.523 -1.9800 -1.1210 -0.9123
  620MOL0     H85506  -0.608   9.649   6.570  1.3091  1.5322  2.5522
  620MOL0     H85507  -0.686   9.500   6.773 -0.3748 -2.5577  1.9628
  620MOL0     H85508  -0.736   9.438   6.621 -0.3135 -0.4213  0.0564
  620MOL0     H85509  -0.576   9.227   6.494  2.1513 -0.0563 -0.4657
  620MOL0     H85510  -0.346   8.984   6.664  1.7944  0.2766 -4.0818
  620MOL0     H85511  -0.434   9.015   6.513  1.4526  1.6867  0.6852
  620MOL0     H85512  -0.528   8.870   6.764 -1.5162  2.0275  0.6066
  620MOL0     H85513  -0.641   8.919   6.640 -0.2784 -0.3287  3.1050
  620MOL0     H85514  -0.504   8.784   6.473 -0.3280  1.5384 -0.0305
  620MOL0     H85515  -0.421   8.719   6.611 -0.3328  0.1729 -0.6612
  620MOL0     H85516  -0.724   8.717   6.586  0.0358  1.8126  1.2410
  620MOL0     H85517  -0.621   8.584   6.534 -0.5339 -0.1666 -0.0601
  620MOL0     H85518  -0.593   8.635   6.972  1.7582  0.8539  0.6440
  620MOL0     H85519  -0.457   8.482   7.206  1.1045 -2.9497 -3.1604
  620MOL0     H85520  -0.471   8.654   7.174  0.1906 -0.2899  1.3248
  620MOL0     H85521  -0.308   8.593   7.181 -0.8146 -1.9112  1.4687
  620MOL0     H85522   0.060   8.260   6.986  2.0061 -1.3805  0.6940
  620MOL0     H85523   0.218   8.162   7.140 -1.7412 -0.6478  2.2063
  620MOL0     H85524   0.231   8.380   7.519 -0.0569  0.4570  0.4079
  620MOL0     H85525   0.190   8.201   7.491  0.9442 -0.2421  2.3623
  620MOL0     H85526   0.441   8.334   7.589 -1.1409  1.1133 -1.8341
  620MOL0     H85527   0.339   8.233   7.679 -1.8510  1.3310 -0.4720
  620MOL0     H85528   0.525   8.140   7.477  0.0530  0.2384  0.4254
  620MOL0     H85529   0.396   8.034   7.505  0.3009  0.6125 -1.6322
  620MOL0     H85530   0.490   7.956   7.722  0.9858 -0.4750  1.0816
  620MOL0     H85531   0.575   8.117   7.743  5.1905  0.2545 -0.7780
  620MOL0     H85532   0.746   8.049   7.600  1.1932 -0.8190  1.4536
  620MOL0     H85533   0.726   7.928   7.711 -0.0458 -0.0703  0.3401
  620MOL0     H85534   0.748   7.844   7.477  0.1321 -2.8823  1.0400
  620MOL0     H85535   0.575   7.889   7.441  0.6032 -0.0871 -0.9263
  620MOL0     H85536   0.598   7.751   7.689 -0.4601  0.6476  0.8235
  620MOL0     H85537   0.694   7.659   7.581  1.2016  0.8096  0.1091
  620MOL0     H85538   0.397   7.724   7.545  0.8570  2.3499 -0.6509
  620MOL0     H85539   0.466   7.561   7.560  2.4563  0.0627  0.9627
  620MOL0     H85540   0.193   8.527   7.374  1.9093  1.3188 -0.5252
  620MOL0     H85541   0.026   8.617   7.214  0.2325  0.0462  1.4287
  620MOL0     H85542  -0.245   8.374   6.741 -0.6595  0.5689 -0.9297
  620MOL0     H85543  -0.439   8.417   6.626 -0.2556 -1.1518  0.7745
  620MOL0     H85544  -0.337  10.421   6.165 -0.2252 -0.0910  0.7704
  620MOL0     H85545  -0.244  10.664   6.160  4.0426  1.0255 -0.0368
  620MOL0     H85546  -0.173  10.917   6.398 -0.5534 -1.1072  1.9509
  620MOL0     H85547  -0.212  11.149   6.469 -0.0454  0.4772 -0.1802
  620MOL0     H85548  -0.114  11.483   6.615 -0.1064 -0.1143 -0.8279
  620MOL0     H85549  -0.107  11.307   6.672  0.3753 -1.8830 -2.2258
  620MOL0     H85550   0.126  11.314   6.663  1.6393 -0.5458  3.1644
  620MOL0     H85551   0.067  11.428   6.792 -1.3654  2.1499  0.0830
  620MOL0     H85552   0.136  11.532   6.506 -0.9685 -2.6879  0.3941
  620MOL0     H85553   0.100  11.622   6.644 -1.6723 -1.0433  2.4467
  620MOL0     H85554   0.342  11.562   6.555  1.0424 -1.8682 -0.0497
  620MOL0     H85555   0.330  11.424   6.664  0.8455 -0.4015 -1.3960
  620MOL0     H85556   0.427  11.716   6.939  0.5391  0.9190 -0.0918
  620MOL0     H85557   0.203  11.244   6.412 -0.4315  0.8903 -2.5992
  620MOL0     H85558   0.335  10.925   6.408 -0.6822 -1.8392 -2.0636
  620MOL0     H85559   0.304  10.961   6.240  3.9533 -2.7632  1.5901
  620MOL0     H85560   0.354  11.085   6.357 -0.5657 -0.3618 -1.4130
  621MOL0     O85561   1.671   2.159   0.667 -0.6991  0.0115 -0.6182
  621MOL0     C85562   1.608   2.127   0.766  0.7388  0.0842 -0.1311
  621MOL0     O85563   1.579   1.995   0.792 -0.4919 -1.1319 -0.0064
  621MOL0     C85564   1.619   1.889   0.714  0.3681 -0.7000 -0.1983
  621MOL0     C85565   1.753   1.876   0.670  0.8150  0.2982  0.1541
  621MOL0     C85566   1.792   1.766   0.585  0.1788 -0.2263  0.1980
  621MOL0     C85567   1.689   1.683   0.548  1.0029 -0.3962  0.3331
  621MOL0     O85568   1.702   1.564   0.483 -0.2771  0.9995  0.9101
  621MOL0     C85569   1.820   1.481   0.465  0.3782 -0.3408  0.3647
  621MOL0     C85570   1.797   1.353   0.378 -0.5191  0.8261 -0.4150
  621MOL0     C85571   1.710   1.242   0.451 -0.6183  0.4508 -0.2978
  621MOL0     C85572   1.554   1.255   0.453  0.0057  0.1686  0.9553
  621MOL0     C85573   1.484   1.113   0.482 -0.2746 -0.1655 -0.7334
  621MOL0     C85574   1.331   1.120   0.467  0.3133 -0.4928 -0.1408
  621MOL0     C85575   1.261   1.212   0.361 -0.3018 -0.2424 -0.1939
  621MOL0     C85576   1.110   1.198   0.354 -0.0637  0.0611 -0.3307
  621MOL0     N85577   1.039   1.301   0.278  0.3237  0.4746  0.2004
  621MOL0     C85578   1.030   1.441   0.296 -0.7362  0.0400 -0.7222
  621MOL0     C85579   0.927   1.484   0.227 -0.8517 -0.0792  0.1248
  621MOL0     C85580   0.879   1.623   0.216 -0.3987  0.2384 -0.6211
  621MOL0     C85581   0.978   1.721   0.151  0.0173  0.7283 -0.5376
  621MOL0     C85582   0.911   1.865   0.156  0.8389 -0.4596  0.4732
  621MOL0     C85583   0.996   1.971   0.066  0.2806  0.2679 -0.2858
  621MOL0     O85584   0.931   2.105   0.075 -0.0745 -0.0587 -0.3641
  621MOL0     C85585   0.819   2.122  -0.009  0.4178  0.7571 -0.4078
  621MOL0     C85586   0.765   2.249  -0.012 -0.0476 -0.4616  0.2966
  621MOL0     C85587   0.660   2.285  -0.102 -0.4222  0.0139 -0.9852
  621MOL0     C85588   0.601   2.424  -0.080 -0.3231 -0.6710 -0.2783
  621MOL0     C85589   0.608   2.190  -0.187  0.3086 -0.5331 -0.1854
  621MOL0     C85590   0.511   2.222  -0.300 -0.8807  0.1836  0.0845
  621MOL0     O85591   0.496   2.126  -0.400 -0.4054 -0.3827  0.1937
  621MOL0     C85592   0.467   2.171  -0.531 -0.1540  0.4332 -0.7905
  621MOL0     C85593   0.529   2.279  -0.582 -0.2918 -0.5195  0.5968
  621MOL0     C85594   0.496   2.325  -0.712 -0.7622  0.2644  0.0745
  621MOL0     C85595   0.396   2.255  -0.778  0.1939  0.0406  0.4608
  621MOL0     O85596   0.359   2.303  -0.895  0.3741  0.9585  0.1719
  621MOL0     C85597   0.358   2.201  -0.998 -0.2904  0.1167 -0.2871
  621MOL0     C85598   0.345   2.292  -1.120 -0.5134 -1.0131  0.0442
  621MOL0     C85599   0.254   2.221  -1.230 -0.3447  0.2728  0.6064
  621MOL0     C85600   0.341   2.129  -1.321 -0.0188 -0.5349 -1.2309
  621MOL0     C85601   0.273   2.069  -1.437 -0.6598 -1.1241  0.3346
  621MOL0     C85602   0.172   1.956  -1.405  1.1642  0.4350  0.2714
  621MOL0     C85603   0.111   1.888  -1.538 -0.1623 -0.4411 -0.4372
  621MOL0     C85604   0.204   1.772  -1.576 -0.0655 -0.9675  0.3477
  621MOL0    Cl85605   0.140   1.716  -1.729 -0.5641 -0.0061 -0.4833
  621MOL0     C85606   0.341   2.139  -0.720 -0.8310  0.9712  0.2203
  621MOL0     C85607   0.371   2.094  -0.601  0.0930  0.3822 -0.1378
  621MOL0     O85608   0.457   2.335  -0.300 -0.8253 -0.0287 -0.3772
  621MOL0     C85609   0.661   2.057  -0.178  1.0457 -0.4811  0.2185
  621MOL0     C85610   0.771   2.024  -0.096  0.6131 -0.5043 -0.0256
  621MOL0     N85611   0.879   1.373   0.157  0.0082  0.2469  0.2661
  621MOL0     N85612   0.937   1.270   0.191 -0.1891  0.3863  0.4815
  621MOL0     C85613   1.556   1.698   0.595  0.4721 -0.7222 -0.0786
  621MOL0     C85614   1.524   1.801   0.679  0.3829 -0.6373  0.2800
  621MOL0     C85615   1.567   2.217   0.881  0.0724 -0.3332  0.0423
  621MOL0     C85616   1.514   2.161   1.003  0.4208 -0.1533 -1.0094
  621MOL0     C85617   1.487   2.241   1.117 -0.4543 -0.2403  0.4410
  621MOL0     C85618   1.543   2.377   1.117  0.1329  0.0601  1.2767
  621MOL0     O85619   1.548   2.456   1.219  0.1095  0.4129  0.5569
  621MOL0     C85620   1.515   2.407   1.345  1.0993 -0.1963  0.1555
  621MOL0     C85621   1.629   2.331   1.413 -0.5398 -0.3577 -0.1172
  621MOL0     C85622   1.768   2.399   1.378 -0.4187 -0.1607 -1.1994
  621MOL0     C85623   1.884   2.359   1.468 -0.1983  0.1512 -0.1567
  621MOL0     C85624   2.002   2.443   1.449  0.1107  0.0958 -1.3172
  621MOL0     C85625   2.103   2.504   1.449 -0.2974  0.3606  0.1733
  621MOL0     C85626   1.584   2.439   1.004  0.1282  0.4599  0.8274
  621MOL0     C85627   1.591   2.359   0.885  0.3180 -0.0138  0.7622
  621MOL0     C85628   1.619   2.428   0.755  0.7977 -0.1580 -0.6165
  621MOL0     H85629   1.823   1.951   0.704  1.9662 -1.4211  1.8068
  621MOL0     H85630   1.898   1.758   0.563  0.3956 -1.3795  1.5328
  621MOL0     H85631   1.864   1.460   0.563 -0.9932 -3.6255  0.4097
  621MOL0     H85632   1.881   1.549   0.405 -0.4091  0.7807  0.7991
  621MOL0     H85633   1.743   1.392   0.291 -2.5702 -2.4931 -0.8076
  621MOL0     H85634   1.896   1.313   0.353 -2.2772 -3.7864 -0.8964
  621MOL0     H85635   1.732   1.145   0.405  1.1086  1.0963 -0.8958
  621MOL0     H85636   1.747   1.240   0.554  4.5141 -1.3744 -1.8531
  621MOL0     H85637   1.524   1.320   0.535  1.6582  0.0920  1.6555
  621MOL0     H85638   1.530   1.297   0.355  0.6684 -2.7146 -0.5787
  621MOL0     H85639   1.513   1.081   0.583  1.1487 -1.7135 -1.5669
  621MOL0     H85640   1.524   1.045   0.406 -0.2240 -0.1079 -0.7573
  621MOL0     H85641   1.296   1.022   0.435  3.1261 -0.5135 -3.8578
  621MOL0     H85642   1.302   1.134   0.572  2.8208  0.4999  0.5056
  621MOL0     H85643   1.308   1.188   0.265  0.2680 -2.2868  0.5510
  621MOL0     H85644   1.277   1.317   0.386  3.5267 -0.9275  0.7620
  621MOL0     H85645   1.091   1.098   0.314 -2.4482 -0.1096  1.0483
  621MOL0     H85646   1.067   1.202   0.455  0.0922  1.1807 -0.2955
  621MOL0     H85647   1.099   1.497   0.359  0.9954 -1.6608 -0.9904
  621MOL0     H85648   0.870   1.672   0.314  1.3611 -1.1635  0.2937
  621MOL0     H85649   0.786   1.621   0.158  0.1530  1.4088 -1.6011
  621MOL0     H85650   1.074   1.733   0.202 -0.3080 -4.8211  2.1903
  621MOL0     H85651   0.989   1.690   0.047 -0.7966  0.9076 -0.6875
  621MOL0     H85652   0.806   1.863   0.123  0.6942 -0.8196  0.9559
  621MOL0     H85653   0.906   1.906   0.257 -2.0295 -1.0260  0.6542
  621MOL0     H85654   1.094   1.975   0.114 -0.6359  2.4579  1.6067
  621MOL0     H85655   1.017   1.947  -0.039 -3.0322  0.4607 -1.0928
  621MOL0     H85656   0.807   2.330   0.047 -0.8175 -0.0197  0.2495
  621MOL0     H85657   0.577   2.490  -0.163 -0.9586  1.0899  1.2408
  621MOL0     H85658   0.683   2.475  -0.027  0.6567  0.2538 -2.5643
  621MOL0     H85659   0.515   2.434  -0.014 -1.2115  1.7913 -1.6976
  621MOL0     H85660   0.614   2.335  -0.546  1.2599 -0.5109 -2.7306
  621MOL0     H85661   0.541   2.408  -0.765 -0.7343  0.4123  0.3285
  621MOL0     H85662   0.453   2.146  -0.994  0.5025  1.5389  1.8855
  621MOL0     H85663   0.286   2.119  -0.985  1.3426 -0.9650  3.0751
  621MOL0     H85664   0.301   2.388  -1.094  2.3271  0.2840  0.4660
  621MOL0     H85665   0.446   2.316  -1.154 -0.3114 -0.1045  1.2263
  621MOL0     H85666   0.189   2.294  -1.278  1.7715  1.3722 -0.7588
  621MOL0     H85667   0.183   2.156  -1.178  0.3744  0.6011  2.0781
  621MOL0     H85668   0.375   2.045  -1.259 -1.4278 -0.4660 -0.3308
  621MOL0     H85669   0.431   2.183  -1.351 -0.9076  1.2562 -0.7943
  621MOL0     H85670   0.221   2.151  -1.488 -0.8824 -1.4438  0.0411
  621MOL0     H85671   0.357   2.022  -1.489  0.1670 -1.9354  2.3292
  621MOL0     H85672   0.089   2.007  -1.356  1.2077  0.6173  0.1595
  621MOL0     H85673   0.203   1.879  -1.334 -2.0811 -3.5673 -2.1560
  621MOL0     H85674   0.107   1.956  -1.624 -2.4347 -0.3268 -0.2905
  621MOL0     H85675   0.007   1.867  -1.513 -0.4024  1.0052 -0.1434
  621MOL0     H85676   0.195   1.698  -1.497  0.1758 -3.0842 -1.5044
  621MOL0     H85677   0.308   1.801  -1.594  0.3475 -1.8622  1.2219
  621MOL0     H85678   0.262   2.103  -0.784 -2.3651  3.3536  0.6632
  621MOL0     H85679   0.322   2.005  -0.561 -0.6872 -0.0334 -1.9325
  621MOL0     H85680   0.624   1.979  -0.243 -1.0855  0.0108  0.7669
  621MOL0     H85681   0.817   1.927  -0.110  2.1486 -0.3509  3.1223
  621MOL0     H85682   1.478   1.627   0.571 -1.7227  1.1803  1.0447
  621MOL0     H85683   1.420   1.813   0.710 -1.5725  1.6215 -5.6929
  621MOL0     H85684   1.503   2.053   1.004  0.5049 -0.1657  0.4144
  621MOL0     H85685   1.453   2.190   1.207  0.2709 -2.3842 -0.4269
  621MOL0     H85686   1.494   2.498   1.403  3.2290  0.0885  0.5692
  621MOL0     H85687   1.420   2.352   1.344 -2.3166  4.8465 -2.5668
  621MOL0     H85688   1.629   2.228   1.376 -1.0358 -0.4331  0.0844
  621MOL0     H85689   1.612   2.321   1.520 -2.3565 -0.4089 -0.3919
  621MOL0     H85690   1.780   2.380   1.271 -0.9833 -3.6970 -0.7484
  621MOL0     H85691   1.758   2.507   1.393  1.9728  0.4766 -3.5418
  621MOL0     H85692   1.904   2.252   1.461 -1.6944 -0.4919  3.3490
  621MOL0     H85693   1.859   2.368   1.574  1.2898  0.1542  0.2248
  621MOL0     H85694   2.198   2.552   1.464 -0.7503  2.2136 -2.2343
  621MOL0     H85695   1.603   2.545   1.015 -1.5674  0.9723 -0.7543
  621MOL0     H85696   1.549   2.405   0.674  0.2042 -0.4222 -0.0328
  621MOL0     H85697   1.600   2.534   0.775 -3.1333 -0.8529  0.2521
  621MOL0     H85698   1.721   2.417   0.716  1.8097  0.0187  1.8087
  622MOL0     O85699   5.859   8.416   7.630  0.4578  0.7470 -0.2697
  622MOL0     C85700   5.905   8.399   7.745 -0.0457  0.2638 -0.1141
  622MOL0     O85701   5.853   8.314   7.844 -0.0242 -0.1743  0.2521
  622MOL0     C85702   5.788   8.207   7.794 -0.7513 -0.4889 -0.3145
  622MOL0     C85703   5.685   8.145   7.879 -0.9882 -0.2070  0.1262
  622MOL0     C85704   5.628   8.024   7.844 -0.0108  0.1474  0.3665
  622MOL0     C85705   5.669   7.960   7.722  0.2944 -0.2461  0.4838
  622MOL0     O85706   5.621   7.841   7.691  0.2502  0.4754  0.0300
  622MOL0     C85707   5.551   7.833   7.572  0.6210  0.8435 -0.3622
  622MOL0     C85708   5.477   7.696   7.546  0.3648  0.2785  0.1365
  622MOL0     C85709   5.389   7.694   7.416  0.2058 -0.1818  0.1126
  622MOL0     C85710   5.347   7.547   7.376 -0.6433 -0.5230 -0.4970
  622MOL0     C85711   5.213   7.563   7.302  0.4000  0.4416 -0.2316
  622MOL0     C85712   5.134   7.429   7.311  0.1299 -1.3819 -0.1290
  622MOL0     C85713   4.989   7.456   7.263 -0.6678  0.8772  0.2644
  622MOL0     C85714   4.894   7.523   7.366  0.4643 -0.1863  0.4348
  622MOL0     N85715   4.779   7.580   7.296 -0.8321 -0.7749  0.6968
  622MOL0     C85716   4.725   7.700   7.329 -0.5577  0.2638  0.0971
  622MOL0     C85717   4.607   7.711   7.252  0.1719  0.0533 -0.1446
  622MOL0     C85718   4.510   7.817   7.229  0.1656 -0.3595 -0.5796
  622MOL0     C85719   4.496   7.931   7.337 -0.2138 -0.0907 -0.4450
  622MOL0     C85720   4.479   7.880   7.480  1.0986 -0.2366  0.5255
  622MOL0     C85721   4.326   7.837   7.500 -0.0987 -0.0420 -0.3125
  622MOL0     O85722   4.261   7.961   7.506  0.1280 -0.0169 -0.5569
  622MOL0     C85723   4.129   7.973   7.512  0.1292  0.0928 -0.9326
  622MOL0     C85724   4.072   8.100   7.526 -1.3648 -0.3030 -0.6276
  622MOL0     C85725   3.941   8.130   7.542  0.6220 -1.1386  0.1885
  622MOL0     C85726   3.896   8.276   7.589  0.1058  0.6333  0.3071
  622MOL0     C85727   3.846   8.023   7.520  0.0891  0.1517  0.4368
  622MOL0     C85728   3.699   8.044   7.522  0.0078 -0.7922  0.6796
  622MOL0     O85729   3.641   7.919   7.548 -0.2664 -0.2841  0.5367
  622MOL0     C85730   3.507   7.892   7.578 -0.4674 -0.0955 -1.3708
  622MOL0     C85731   3.432   7.981   7.659  0.9939  0.4176  0.0565
  622MOL0     C85732   3.298   7.954   7.673  0.2236  0.0375 -0.9124
  622MOL0     C85733   3.235   7.843   7.611 -0.1236 -0.0945 -0.8513
  622MOL0     O85734   3.102   7.825   7.612  0.0487  0.0610  0.0801
  622MOL0     C85735   3.010   7.934   7.652 -0.2363  0.1866  0.4022
  622MOL0     C85736   2.874   7.893   7.620 -0.4640 -0.0757  0.4350
  622MOL0     C85737   2.769   7.964   7.696 -0.2313  0.0193  0.7767
  622MOL0     C85738   2.639   7.965   7.613  0.3250 -0.3000  0.7479
  622MOL0     C85739   2.538   8.065   7.674 -0.4922  0.2135  0.3322
  622MOL0     C85740   2.579   8.213   7.692  0.0412 -0.6056  0.4681
  622MOL0     C85741   2.477   8.300   7.759 -0.1964 -0.3435  0.4649
  622MOL0     C85742   2.490   8.455   7.736 -0.8631 -0.2311  0.4743
  622MOL0    Cl85743   2.654   8.499   7.772  0.4094  0.2973 -0.2092
  622MOL0     C85744   3.309   7.766   7.529  0.7281  0.1154 -0.8661
  622MOL0     C85745   3.447   7.783   7.510 -0.1798 -0.5555 -0.7523
  622MOL0     O85746   3.640   8.155   7.514  0.8599  0.2183  1.0217
  622MOL0     C85747   3.907   7.894   7.503 -0.1283 -0.0547 -0.6293
  622MOL0     C85748   4.042   7.868   7.500  0.2207  0.0847 -0.1566
  622MOL0     N85749   4.603   7.604   7.165 -0.6445 -0.0544  0.3373
  622MOL0     N85750   4.696   7.525   7.204  0.9440  0.7405  0.4868
  622MOL0     C85751   5.764   8.015   7.643 -1.1289  0.3255  0.6093
  622MOL0     C85752   5.824   8.138   7.672 -0.1769 -0.7762 -0.3753
  622MOL0     C85753   6.027   8.468   7.793 -0.1840 -0.0290  0.3093
  622MOL0     C85754   6.107   8.402   7.890  0.8880 -0.8519  0.3317
  622MOL0     C85755   6.217   8.470   7.947  0.7275 -0.3663 -0.4798
  622MOL0     C85756   6.264   8.591   7.888 -0.2817 -0.2709  0.2710
  622MOL0     O85757   6.394   8.623   7.920 -0.1668 -0.3341 -1.1179
  622MOL0     C85758   6.451   8.736   7.854 -0.0269 -0.6021 -0.5451
  622MOL0     C85759   6.593   8.752   7.886 -0.2406 -0.5499 -0.7673
  622MOL0     C85760   6.614   8.775   8.042 -0.9753  0.6829  1.1262
  622MOL0     C85761   6.518   8.882   8.100 -0.8220  0.9085 -0.5841
  622MOL0     C85762   6.521   9.008   8.028  0.2991  0.9137 -0.8509
  622MOL0     C85763   6.515   9.105   7.959 -0.9138 -0.2382 -0.5619
  622MOL0     C85764   6.190   8.664   7.786  0.1858 -0.4419 -0.2489
  622MOL0     C85765   6.066   8.602   7.750 -0.3132  0.0876 -0.3227
  622MOL0     C85766   5.993   8.684   7.646  0.3610  0.2816 -0.5443
  622MOL0     H85767   5.661   8.196   7.972  1.7122  3.7855 -1.1103
  622MOL0     H85768   5.552   7.980   7.907 -2.4542 -0.5591 -2.7974
  622MOL0     H85769   5.619   7.846   7.487 -1.5869  0.4026 -2.3122
  622MOL0     H85770   5.478   7.915   7.577  0.2764  0.5283 -0.1644
  622MOL0     H85771   5.555   7.620   7.555  1.0914  1.0979  0.9432
  622MOL0     H85772   5.408   7.672   7.628 -0.6475  0.6594 -0.5728
  622MOL0     H85773   5.302   7.758   7.428 -0.1712 -0.1311 -2.5154
  622MOL0     H85774   5.446   7.748   7.340 -1.7824  3.6508  1.0863
  622MOL0     H85775   5.414   7.497   7.305 -3.3374 -0.3387 -3.4220
  622MOL0     H85776   5.328   7.486   7.464 -0.6617  0.0611 -0.0927
  622MOL0     H85777   5.220   7.591   7.197  0.7222 -0.8226 -0.5728
  622MOL0     H85778   5.150   7.632   7.358  1.2563 -0.3778  1.8295
  622MOL0     H85779   5.187   7.356   7.248 -0.8106 -0.0107 -2.6334
  622MOL0     H85780   5.127   7.400   7.416  2.2101  0.0345  0.4597
  622MOL0     H85781   4.941   7.362   7.234 -0.0992  1.1415 -1.7012
  622MOL0     H85782   4.993   7.515   7.171  0.1970 -1.9151 -1.6146
  622MOL0     H85783   4.854   7.451   7.438  0.8577  1.6321  2.5998
  622MOL0     H85784   4.950   7.602   7.417  0.4034 -0.0118  0.2314
  622MOL0     H85785   4.760   7.767   7.407  3.1918  0.1818 -1.3003
  622MOL0     H85786   4.410   7.773   7.229 -0.9882  1.7548 -4.0362
  622MOL0     H85787   4.515   7.864   7.130  0.8526 -1.4616 -1.0864
  622MOL0     H85788   4.587   7.991   7.330 -1.0414  0.9697 -4.5835
  622MOL0     H85789   4.414   7.998   7.311 -1.6102 -1.0529  1.2486
  622MOL0     H85790   4.554   7.804   7.504  1.3360  0.3171  1.6087
  622MOL0     H85791   4.498   7.962   7.549  3.8075  0.4493 -0.8983
  622MOL0     H85792   4.296   7.772   7.418  2.0518 -2.7996  0.9381
  622MOL0     H85793   4.323   7.785   7.596  0.9061  0.0019 -0.2440
  622MOL0     H85794   4.146   8.180   7.531 -1.3832 -0.3495  2.8113
  622MOL0     H85795   3.846   8.328   7.507 -0.0388 -2.9907 -2.1074
  622MOL0     H85796   3.986   8.331   7.620  1.6644 -1.6291  0.0763
  622MOL0     H85797   3.831   8.262   7.676  1.3724  0.2209  1.2187
  622MOL0     H85798   3.472   8.073   7.702 -1.1866 -0.5764  4.9259
  622MOL0     H85799   3.240   8.023   7.734  3.2967  3.0439 -1.1099
  622MOL0     H85800   3.013   7.952   7.760  1.1997 -1.5475  0.6989
  622MOL0     H85801   3.039   8.028   7.604 -0.5872  0.5228  0.8312
  622MOL0     H85802   2.850   7.904   7.514 -0.9660  2.1480  0.7344
  622MOL0     H85803   2.867   7.787   7.646  2.6079 -1.0742 -2.1826
  622MOL0     H85804   2.798   8.066   7.723 -0.6048  0.4559 -0.3853
  622MOL0     H85805   2.746   7.921   7.794 -0.4085 -1.1175  0.2503
  622MOL0     H85806   2.601   7.866   7.589 -1.4886  1.4280 -5.3744
  622MOL0     H85807   2.666   8.009   7.516  1.1416 -1.7942  0.2622
  622MOL0     H85808   2.454   8.075   7.604  0.7184  0.0034 -1.2009
  622MOL0     H85809   2.518   8.025   7.774 -1.2659  1.3873  0.6684
  622MOL0     H85810   2.605   8.256   7.595  1.3412  0.0228  1.0741
  622MOL0     H85811   2.669   8.224   7.753  1.2370 -0.5076 -1.2489
  622MOL0     H85812   2.488   8.275   7.864 -0.5386 -0.3506  0.5006
  622MOL0     H85813   2.373   8.271   7.746 -0.4874 -0.0131  1.8641
  622MOL0     H85814   2.413   8.512   7.789 -1.2774 -0.9683  0.6914
  622MOL0     H85815   2.476   8.476   7.629  0.6809 -2.1418 -0.1663
  622MOL0     H85816   3.261   7.678   7.488  2.0271 -1.3606  0.6578
  622MOL0     H85817   3.503   7.724   7.439  0.8272  1.1089 -1.3974
  622MOL0     H85818   3.849   7.802   7.507  0.1816 -0.2325  0.0311
  622MOL0     H85819   4.090   7.771   7.491  3.5385  1.6720 -1.1634
  622MOL0     H85820   5.812   7.954   7.566  2.3646 -1.5684  3.9495
  622MOL0     H85821   5.891   8.181   7.597 -0.3131  1.5477  0.7434
  622MOL0     H85822   6.098   8.308   7.943 -0.6940 -2.4665 -2.5757
  622MOL0     H85823   6.275   8.429   8.029  1.7399  1.5998 -0.1596
  622MOL0     H85824   6.450   8.707   7.748 -0.6659 -3.1531  0.1086
  622MOL0     H85825   6.390   8.827   7.861  0.8439 -0.0185 -0.4064
  622MOL0     H85826   6.635   8.842   7.840  2.4299 -0.0700  2.2691
  622MOL0     H85827   6.644   8.665   7.841  1.1094 -0.8434  1.2049
  622MOL0     H85828   6.594   8.679   8.090 -1.2289 -1.1216 -2.2950
  622MOL0     H85829   6.716   8.801   8.068 -0.5244 -2.0761  2.4995
  622MOL0     H85830   6.534   8.905   8.205  1.1987 -1.5614 -0.2582
  622MOL0     H85831   6.419   8.834   8.096  0.5389 -2.2290  0.1975
  622MOL0     H85832   6.513   9.201   7.911  0.0529 -1.7093 -3.8111
  622MOL0     H85833   6.225   8.760   7.748  0.1938  0.7547  2.5180
  622MOL0     H85834   6.023   8.788   7.656  1.3332  0.2082 -2.2718
  622MOL0     H85835   6.023   8.646   7.548  2.0236 -1.0133  0.4093
  622MOL0     H85836   5.887   8.675   7.670  0.7117  2.7553  2.6512
  623MOL0     O85837   2.637   0.062   2.306  0.3531  0.1478 -0.1171
  623MOL0     C85838   2.583  -0.023   2.376 -0.1838 -0.5615  0.3295
  623MOL0     O85839   2.470   0.001   2.458 -0.1164 -0.8387 -0.6468
  623MOL0     C85840   2.424   0.133   2.468 -0.0428  0.9466 -0.3894
  623MOL0     C85841   2.312   0.167   2.388 -0.4158  0.2733  0.1794
  623MOL0     C85842   2.256   0.295   2.406  1.0992  0.5618  0.0222
  623MOL0     C85843   2.311   0.392   2.496 -0.3481 -0.0769 -0.6148
  623MOL0     O85844   2.260   0.519   2.494 -0.0294 -0.2428 -0.5144
  623MOL0     C85845   2.224   0.577   2.366  0.1477  0.7365 -0.0807
  623MOL0     C85846   2.195   0.724   2.394  0.2108  0.0495 -0.3052
  623MOL0     C85847   2.323   0.803   2.419 -0.3907  0.5158 -0.7510
  623MOL0     C85848   2.286   0.946   2.472  0.1618 -0.1722  0.0554
  623MOL0     C85849   2.266   1.036   2.353 -0.9466  0.3018 -0.1082
  623MOL0     C85850   2.270   1.183   2.382  0.9721  0.5232 -0.7532
  623MOL0     C85851   2.140   1.235   2.432 -0.0450 -0.1759  0.0537
  623MOL0     C85852   2.163   1.384   2.466  0.5259 -0.6224 -0.0634
  623MOL0     N85853   2.032   1.455   2.497 -0.0709  0.2569 -0.1451
  623MOL0     C85854   1.942   1.490   2.397 -0.8734  0.1584  0.2062
  623MOL0     C85855   1.828   1.537   2.457  0.4051 -0.7732  0.3775
  623MOL0     C85856   1.697   1.586   2.409  0.4098  0.6242  0.6270
  623MOL0     C85857   1.610   1.466   2.372  0.0242 -0.3890  1.0259
  623MOL0     C85858   1.466   1.516   2.347  0.1425 -0.0517  0.1740
  623MOL0     C85859   1.380   1.394   2.343 -0.3407  0.6633 -0.1905
  623MOL0     O85860   1.404   1.313   2.227  0.1175 -0.4506 -0.2213
  623MOL0     C85861   1.314   1.208   2.197 -0.3791 -0.0051 -0.5196
  623MOL0     C85862   1.210   1.163   2.275 -0.2620 -0.1533 -0.1163
  623MOL0     C85863   1.116   1.061   2.233  0.8841 -0.0134 -0.4803
  623MOL0     C85864   1.008   1.024   2.331  0.7850  0.0621 -0.6312
  623MOL0     C85865   1.143   0.991   2.109  0.1099 -0.1622 -0.0800
  623MOL0     C85866   1.064   0.879   2.052  0.2883  0.4564 -0.4338
  623MOL0     O85867   0.997   0.803   2.143 -0.3994  0.3754  0.5693
  623MOL0     C85868   0.904   0.714   2.094  0.4886  0.5311 -0.5131
  623MOL0     C85869   0.775   0.759   2.055 -0.2833 -0.0916 -0.2510
  623MOL0     C85870   0.679   0.677   1.987  0.1165  0.3430  0.0748
  623MOL0     C85871   0.701   0.539   1.966 -0.0833 -0.8286  0.2110
  623MOL0     O85872   0.618   0.453   1.905 -0.7185  0.1194 -0.3798
  623MOL0     C85873   0.481   0.477   1.917 -0.4266 -0.1213 -0.2853
  623MOL0     C85874   0.413   0.355   1.851 -0.4273  0.4494 -0.2840
  623MOL0     C85875   0.266   0.375   1.810 -0.3956  0.2506 -0.3051
  623MOL0     C85876   0.172   0.343   1.923  0.4123 -0.1870 -0.3361
  623MOL0     C85877   0.026   0.335   1.893  0.7692  0.3896  0.7179
  623MOL0     C85878  -0.005   0.239   1.778 -0.3956  0.4441  0.0584
  623MOL0     C85879  -0.151   0.244   1.758  0.4348 -0.2949  0.2626
  623MOL0     C85880  -0.197   0.125   1.681  0.3631  0.5149  0.4848
  623MOL0    Cl85881  -0.087   0.045   1.558  0.2749 -0.4908  0.3378
  623MOL0     C85882   0.815   0.490   2.022 -0.5332  0.7127 -0.4305
  623MOL0     C85883   0.916   0.573   2.091 -0.4492 -0.2275  0.3057
  623MOL0     O85884   1.081   0.856   1.937  0.0885  0.4980  0.0540
  623MOL0     C85885   1.257   1.050   2.034  0.3286  0.7517  0.2777
  623MOL0     C85886   1.339   1.151   2.076 -0.6868  0.4909  1.2626
  623MOL0     N85887   1.845   1.518   2.593 -0.7123 -0.1380  0.0608
  623MOL0     N85888   1.962   1.458   2.620  0.0255  0.3493  0.3263
  623MOL0     C85889   2.420   0.354   2.572 -0.9502  0.2857 -0.0269
  623MOL0     C85890   2.478   0.222   2.561 -0.2992 -0.4135  0.2605
  623MOL0     C85891   2.648  -0.146   2.411 -0.1855  0.7874  0.5155
  623MOL0     C85892   2.597  -0.208   2.530  0.9330  0.3373 -0.1419
  623MOL0     C85893   2.655  -0.331   2.576  0.2511 -0.9889  0.6529
  623MOL0     C85894   2.753  -0.393   2.496 -0.1601 -0.7454 -0.7983
  623MOL0     O85895   2.808  -0.509   2.535 -0.7777 -0.1087  0.1080
  623MOL0     C85896   2.721  -0.615   2.560  0.0463  0.3642  0.8514
  623MOL0     C85897   2.755  -0.732   2.482  0.0073  0.0088 -0.4703
  623MOL0     C85898   2.903  -0.785   2.513  0.3696 -0.2379 -0.1781
  623MOL0     C85899   2.940  -0.777   2.663  0.0429  0.3143  0.3501
  623MOL0     C85900   2.843  -0.863   2.747  0.3530 -0.8136  0.3640
  623MOL0     C85901   2.762  -0.916   2.820 -0.3728  0.4893 -0.7164
  623MOL0     C85902   2.797  -0.332   2.384  0.3939  0.1177  0.9709
  623MOL0     C85903   2.751  -0.207   2.336  0.9810  0.2123 -0.4471
  623MOL0     C85904   2.808  -0.141   2.207 -0.8059 -0.3280 -0.3361
  623MOL0     H85905   2.263   0.101   2.316  0.6093  0.2705 -0.5389
  623MOL0     H85906   2.162   0.325   2.361  0.0896 -1.8386  0.3864
  623MOL0     H85907   2.129   0.541   2.326  0.2728  1.9730 -1.5667
  623MOL0     H85908   2.296   0.573   2.283  0.2818  0.8885  0.0261
  623MOL0     H85909   2.140   0.757   2.305  0.5052 -2.8584 -1.6929
  623MOL0     H85910   2.124   0.734   2.476 -0.5158 -2.6999 -0.5147
  623MOL0     H85911   2.374   0.739   2.492 -2.9657 -1.8702 -0.8851
  623MOL0     H85912   2.386   0.814   2.330 -1.9615  2.8548 -1.6758
  623MOL0     H85913   2.200   0.952   2.540 -2.0805 -1.9873 -2.4398
  623MOL0     H85914   2.370   0.980   2.532  2.1186 -4.8532  0.4382
  623MOL0     H85915   2.172   1.003   2.306  0.1197 -2.3174 -0.5878
  623MOL0     H85916   2.347   1.018   2.281  0.6195  0.7815  1.4796
  623MOL0     H85917   2.345   1.206   2.459  0.3744  1.5221 -0.4451
  623MOL0     H85918   2.297   1.242   2.294 -1.3043  1.5175 -0.8443
  623MOL0     H85919   2.110   1.178   2.519  3.1411 -0.6407  0.9663
  623MOL0     H85920   2.068   1.226   2.350  1.1266  0.0795 -1.0446
  623MOL0     H85921   2.229   1.409   2.550 -0.9488  4.2646 -0.0207
  623MOL0     H85922   2.201   1.443   2.382 -1.8943  0.3612 -0.5699
  623MOL0     H85923   1.963   1.476   2.291  2.1858  2.7703  0.3173
  623MOL0     H85924   1.709   1.651   2.322  1.0407  0.2737  0.4484
  623MOL0     H85925   1.643   1.646   2.483 -1.3879  1.1367 -1.0144
  623MOL0     H85926   1.641   1.426   2.275 -3.4427  2.5198 -1.5774
  623MOL0     H85927   1.608   1.388   2.449 -0.2836  0.1651  1.5883
  623MOL0     H85928   1.428   1.578   2.428 -1.4575 -1.2887  0.4103
  623MOL0     H85929   1.465   1.571   2.252 -0.1616 -1.9675 -0.9845
  623MOL0     H85930   1.391   1.334   2.434  2.8168  1.8069  0.3310
  623MOL0     H85931   1.274   1.417   2.329 -1.1041 -1.7869  1.0248
  623MOL0     H85932   1.192   1.210   2.371 -1.1685  0.6234 -0.6461
  623MOL0     H85933   1.037   1.079   2.421 -1.6012  2.0378 -0.9651
  623MOL0     H85934   1.008   0.918   2.358  2.4666 -0.6108 -2.8930
  623MOL0     H85935   0.913   1.051   2.285 -2.0467 -3.1130  2.8009
  623MOL0     H85936   0.759   0.867   2.057 -2.6140 -0.3127 -2.1481
  623MOL0     H85937   0.602   0.728   1.929 -0.0235 -2.6350 -2.6860
  623MOL0     H85938   0.441   0.490   2.018 -1.1683 -0.4435 -0.5279
  623MOL0     H85939   0.458   0.568   1.861 -0.1228 -0.4271 -0.9164
  623MOL0     H85940   0.476   0.324   1.767  1.3597  0.1173  1.1003
  623MOL0     H85941   0.426   0.271   1.921  2.0680 -0.0541 -1.2365
  623MOL0     H85942   0.230   0.308   1.731 -1.2162 -0.0933  0.3382
  623MOL0     H85943   0.247   0.474   1.769 -0.2794 -0.3740 -1.9245
  623MOL0     H85944   0.188   0.421   1.998 -2.4506 -0.4125  0.6445
  623MOL0     H85945   0.199   0.250   1.973  0.1934 -0.6684 -1.0947
  623MOL0     H85946  -0.040   0.311   1.977  1.6230 -1.1950  0.9728
  623MOL0     H85947  -0.007   0.432   1.855 -0.2371 -0.8903 -1.9934
  623MOL0     H85948   0.032   0.137   1.791  1.0731  0.6932 -1.7298
  623MOL0     H85949   0.046   0.275   1.688 -1.6282  0.7063 -0.5489
  623MOL0     H85950  -0.164   0.332   1.696 -1.9903  0.3709  1.5908
  623MOL0     H85951  -0.216   0.262   1.845 -2.3762 -1.8226 -1.3782
  623MOL0     H85952  -0.296   0.139   1.635  0.1723  1.8584  1.2503
  623MOL0     H85953  -0.211   0.045   1.754  0.9367  0.0404  0.0785
  623MOL0     H85954   0.832   0.384   2.033 -0.2850  0.9887  2.6277
  623MOL0     H85955   1.012   0.534   2.124  0.7150  2.7625  0.7200
  623MOL0     H85956   1.274   1.013   1.934  1.8458  0.7285  0.5260
  623MOL0     H85957   1.418   1.182   2.009 -1.8444 -1.5934 -1.2125
  623MOL0     H85958   2.456   0.434   2.635 -1.6045  0.2540  0.3959
  623MOL0     H85959   2.558   0.202   2.632  1.3701  1.5119 -0.9986
  623MOL0     H85960   2.503  -0.183   2.578 -0.1665 -0.6680 -1.6566
  623MOL0     H85961   2.627  -0.379   2.669  0.5363 -0.8063  0.8317
  623MOL0     H85962   2.723  -0.638   2.667 -2.6272 -0.4692  0.8206
  623MOL0     H85963   2.613  -0.601   2.548  0.1388 -0.1489 -0.8359
  623MOL0     H85964   2.756  -0.712   2.374 -0.8120 -1.2106 -0.7107
  623MOL0     H85965   2.679  -0.810   2.493 -1.3253  1.4490  1.2054
  623MOL0     H85966   2.920  -0.884   2.469 -0.8235  0.3198 -1.9985
  623MOL0     H85967   2.982  -0.725   2.466  2.0230 -1.9566  0.2782
  623MOL0     H85968   2.941  -0.673   2.698  2.6113  0.3482  0.3261
  623MOL0     H85969   3.038  -0.821   2.680  0.0709  0.3350  0.2429
  623MOL0     H85970   2.706  -0.978   2.888 -0.3653  0.8674 -0.3626
  623MOL0     H85971   2.862  -0.384   2.314  0.5186  3.2955 -1.4806
  623MOL0     H85972   2.733  -0.129   2.128 -0.2175 -0.7055 -0.9650
  623MOL0     H85973   2.847  -0.045   2.243 -2.4800 -0.6881  2.7772
  623MOL0     H85974   2.889  -0.195   2.158 -1.1582  0.6755 -2.1566
  624MOL0     O85975  10.244   4.359   5.436  0.0164  0.0162 -0.3533
  624MOL0     C85976  10.156   4.438   5.476  0.6732  1.2761  0.8583
  624MOL0     O85977  10.090   4.525   5.385 -0.2112 -0.4336 -0.4364
  624MOL0     C85978  10.146   4.548   5.262 -0.2031  0.0804 -0.6979
  624MOL0     C85979  10.055   4.582   5.171 -0.8196  0.7324  0.6913
  624MOL0     C85980  10.083   4.608   5.035 -0.6401 -0.1530 -1.2181
  624MOL0     C85981  10.211   4.592   4.996  0.1436  0.0176  1.0880
  624MOL0     O85982  10.237   4.618   4.861 -1.1675 -0.5771 -0.2142
  624MOL0     C85983  10.330   4.534   4.796 -0.0247  0.3868  0.8902
  624MOL0     C85984  10.401   4.616   4.680  0.8567  0.9503 -0.2507
  624MOL0     C85985  10.510   4.516   4.632 -0.5469  0.1598 -0.8395
  624MOL0     C85986  10.628   4.589   4.568  0.4215 -0.4361 -0.0168
  624MOL0     C85987  10.745   4.483   4.551  0.2896  0.5976 -0.2015
  624MOL0     C85988  10.869   4.552   4.485  0.9269 -0.4430  0.0524
  624MOL0     C85989  10.987   4.463   4.475 -0.0733  0.5271  0.0739
  624MOL0     C85990  10.986   4.395   4.347  0.4620 -0.0552  0.5467
  624MOL0     N85991  11.124   4.356   4.303 -0.6553  0.0568  0.4058
  624MOL0     C85992  11.184   4.411   4.196  0.3304  0.3206 -0.8773
  624MOL0     C85993  11.298   4.345   4.189  0.1761 -0.2115  0.7234
  624MOL0     C85994  11.408   4.396   4.099 -0.3893 -0.3252  0.1292
  624MOL0     C85995  11.410   4.330   3.969 -1.1063 -0.8109  0.2473
  624MOL0     C85996  11.536   4.356   3.888  0.2104 -0.5945 -0.7305
  624MOL0     C85997  11.562   4.501   3.846 -0.2709 -0.0543  0.3705
  624MOL0     O85998  11.694   4.521   3.805  0.1165  0.5603 -0.0220
  624MOL0     C85999  11.741   4.513   3.671  1.0346  0.4183 -0.3846
  624MOL0     C86000  11.657   4.549   3.566 -0.1308 -0.8280 -0.2959
  624MOL0     C86001  11.704   4.547   3.433  0.5595 -0.7123  0.8501
  624MOL0     C86002  11.611   4.559   3.319 -0.0892  0.3901  0.3690
  624MOL0     C86003  11.833   4.520   3.405 -0.7726  0.7106  0.3402
  624MOL0     C86004  11.896   4.517   3.267 -0.3854  1.2316 -0.2005
  624MOL0     O86005  11.829   4.573   3.158 -0.4975 -0.6950 -0.7739
  624MOL0     C86006  11.871   4.539   3.034 -0.1181  0.4920  1.0912
  624MOL0     C86007  11.862   4.403   2.996 -1.2993 -0.6026  0.6076
  624MOL0     C86008  11.901   4.359   2.876  0.0785 -0.7221  0.0879
  624MOL0     C86009  11.960   4.448   2.785  0.2710 -0.8050  0.3714
  624MOL0     O86010  12.028   4.398   2.673  1.0111 -0.3716  1.5551
  624MOL0     C86011  12.034   4.260   2.664 -0.0347  0.1931 -0.5931
  624MOL0     C86012  12.112   4.217   2.533 -0.3897  0.2931  0.2353
  624MOL0     C86013  12.258   4.286   2.531  0.2084 -1.2875  0.0126
  624MOL0     C86014  12.321   4.264   2.394 -0.9653  0.5026 -0.2090
  624MOL0     C86015  12.463   4.323   2.385 -0.4049  0.4452 -1.0562
  624MOL0     C86016  12.554   4.290   2.267 -0.4316 -0.7771 -0.2322
  624MOL0     C86017  12.622   4.153   2.279  0.1482 -0.1778 -0.7768
  624MOL0     C86018  12.765   4.145   2.222  0.6712 -0.0634 -0.5398
  624MOL0    Cl86019  12.873   4.272   2.320  0.0045 -0.1141 -0.4251
  624MOL0     C86020  11.960   4.588   2.808  0.0893 -0.7009  0.5213
  624MOL0     C86021  11.918   4.626   2.939 -0.4726  0.0961  0.7282
  624MOL0     O86022  12.005   4.454   3.262  0.8107  0.0379  0.2822
  624MOL0     C86023  11.915   4.491   3.517  0.7987 -0.1006 -0.3836
  624MOL0     C86024  11.873   4.481   3.643  0.2614  0.5093  0.3424
  624MOL0     N86025  11.306   4.238   4.281 -0.7992  0.1388  1.2546
  624MOL0     N86026  11.198   4.247   4.340  0.6289 -0.1177  0.4073
  624MOL0     C86027  10.314   4.563   5.090  0.3741 -0.4776 -0.8452
  624MOL0     C86028  10.283   4.536   5.224  1.4236  0.8051  0.9770
  624MOL0     C86029  10.078   4.406   5.598 -0.2034 -0.2584  1.1592
  624MOL0     C86030   9.989   4.505   5.643  0.4177  1.3268 -0.0377
  624MOL0     C86031   9.916   4.484   5.759 -0.4259 -0.4375  0.3487
  624MOL0     C86032   9.966   4.387   5.848 -0.5178 -0.6710  0.3830
  624MOL0     O86033   9.922   4.389   5.974 -0.3788  0.3950 -0.2060
  624MOL0     C86034   9.948   4.502   6.057  0.2687  0.7899  0.8217
  624MOL0     C86035  10.095   4.498   6.105 -0.3006  0.1023  0.5592
  624MOL0     C86036  10.148   4.631   6.160 -0.6692 -0.8361 -1.2170
  624MOL0     C86037  10.297   4.625   6.214 -0.2965 -0.2787  0.3826
  624MOL0     C86038  10.316   4.728   6.314 -0.0458 -0.4082  0.5046
  624MOL0     C86039  10.322   4.823   6.390 -0.3237  0.3034 -0.5133
  624MOL0     C86040  10.052   4.292   5.805 -1.1544  0.3191 -0.7709
  624MOL0     C86041  10.098   4.290   5.675  0.2911 -0.4147  0.0981
  624MOL0     C86042  10.178   4.165   5.635  0.4446 -1.6501  0.3721
  624MOL0     H86043   9.952   4.572   5.204 -1.6416  0.3470 -1.8226
  624MOL0     H86044  10.006   4.638   4.965 -3.0566 -1.1972  0.8224
  624MOL0     H86045  10.271   4.454   4.750  0.5289 -0.8447  2.2510
  624MOL0     H86046  10.398   4.481   4.864  1.0365  0.6281  0.0339
  624MOL0     H86047  10.323   4.636   4.606  0.0022  0.9416  0.6198
  624MOL0     H86048  10.432   4.716   4.712 -1.7544  1.3091  1.5491
  624MOL0     H86049  10.554   4.455   4.712 -0.8466 -0.9843 -1.5193
  624MOL0     H86050  10.472   4.445   4.559 -0.1700 -1.3147  0.3452
  624MOL0     H86051  10.589   4.621   4.471 -0.0164 -0.8740  0.0101
  624MOL0     H86052  10.661   4.668   4.636  3.0908 -2.5677  1.3320
  624MOL0     H86053  10.723   4.403   4.480 -0.0642  2.3687 -2.1682
  624MOL0     H86054  10.759   4.443   4.652  1.9459 -0.5126 -0.8348
  624MOL0     H86055  10.829   4.595   4.392 -0.1152 -2.0051 -0.2531
  624MOL0     H86056  10.904   4.631   4.552  0.8781  0.0849 -0.5365
  624MOL0     H86057  10.992   4.393   4.559  0.7303 -2.6779 -2.4043
  624MOL0     H86058  11.069   4.535   4.478 -0.1389  0.5740  1.2550
  624MOL0     H86059  10.913   4.315   4.359  0.0812  0.5900  2.9649
  624MOL0     H86060  10.951   4.461   4.267  2.7276 -1.1863 -1.5426
  624MOL0     H86061  11.164   4.506   4.149  2.0826  1.1415 -0.0424
  624MOL0     H86062  11.503   4.363   4.143 -1.0007 -2.3557  0.0349
  624MOL0     H86063  11.400   4.504   4.086 -3.3453 -0.2305  1.9811
  624MOL0     H86064  11.408   4.221   3.984  0.5556 -0.6023  2.4721
  624MOL0     H86065  11.322   4.360   3.912  0.0079 -2.8659 -2.8227
  624MOL0     H86066  11.628   4.326   3.940  0.4993 -1.5419 -1.7416
  624MOL0     H86067  11.536   4.298   3.796  1.2024  0.2658 -1.2883
  624MOL0     H86068  11.488   4.527   3.770  0.8673  0.4686 -0.5806
  624MOL0     H86069  11.543   4.578   3.922  0.3734  1.7378 -1.2129
  624MOL0     H86070  11.555   4.586   3.570  0.0545 -0.0745 -1.7957
  624MOL0     H86071  11.509   4.570   3.357  0.1651  2.1133  0.6173
  624MOL0     H86072  11.627   4.471   3.255  1.2441  1.2785 -0.5621
  624MOL0     H86073  11.630   4.656   3.273  1.9377 -1.0623 -2.1321
  624MOL0     H86074  11.804   4.342   3.064  0.0805 -3.7497 -0.8480
  624MOL0     H86075  11.878   4.255   2.855  0.2178 -0.4131 -1.7562
  624MOL0     H86076  12.079   4.222   2.756 -0.5751  1.3259  0.1690
  624MOL0     H86077  11.936   4.213   2.651 -1.1838  2.6746 -1.4520
  624MOL0     H86078  12.123   4.110   2.519  0.5310  0.5848 -1.4023
  624MOL0     H86079  12.065   4.261   2.445 -1.5109  1.4084  1.3331
  624MOL0     H86080  12.327   4.256   2.611 -1.6958  0.2231  2.3743
  624MOL0     H86081  12.251   4.395   2.540  1.8947 -1.2022  0.7236
  624MOL0     H86082  12.272   4.308   2.306  0.2871  1.8340 -0.2776
  624MOL0     H86083  12.323   4.156   2.380  0.0063  0.6434 -1.3339
  624MOL0     H86084  12.458   4.431   2.402  5.2399  0.8726 -0.1122
  624MOL0     H86085  12.512   4.291   2.477 -1.0557  1.6518 -0.2579
  624MOL0     H86086  12.631   4.367   2.275 -0.1487 -1.1398  0.7326
  624MOL0     H86087  12.504   4.316   2.173  0.7118  0.1438 -0.6063
  624MOL0     H86088  12.559   4.087   2.220  0.4673  0.1308 -1.4698
  624MOL0     H86089  12.607   4.112   2.379 -0.1543 -2.3954 -1.6932
  624MOL0     H86090  12.772   4.193   2.124 -0.0944  0.6429 -0.2534
  624MOL0     H86091  12.802   4.042   2.215 -0.3353 -0.3887 -1.1317
  624MOL0     H86092  12.012   4.665   2.751  2.6917 -0.9495  2.3689
  624MOL0     H86093  11.923   4.730   2.972  1.5815  0.7880 -1.5279
  624MOL0     H86094  12.021   4.466   3.513  1.0189 -0.4597  3.3357
  624MOL0     H86095  11.942   4.467   3.726 -0.6547  3.5227  1.7692
  624MOL0     H86096  10.421   4.567   5.076  0.6355 -1.0647  0.7718
  624MOL0     H86097  10.367   4.500   5.282  2.7315  0.2551 -1.1623
  624MOL0     H86098   9.961   4.587   5.578 -0.6324  0.5302 -0.6344
  624MOL0     H86099   9.839   4.553   5.790  0.3200  1.2948 -1.3770
  624MOL0     H86100   9.930   4.598   6.008  0.1331  0.2592 -0.1951
  624MOL0     H86101   9.884   4.480   6.144  2.2143 -2.3907  1.6303
  624MOL0     H86102  10.152   4.462   6.019 -0.8611  0.2833  0.1021
  624MOL0     H86103  10.111   4.426   6.186  0.9090  1.1106  1.2509
  624MOL0     H86104  10.143   4.714   6.089 -2.3843  0.9852  0.8433
  624MOL0     H86105  10.099   4.656   6.255  2.7127  0.7607  0.2843
  624MOL0     H86106  10.371   4.651   6.138  0.7589  0.0132  1.4836
  624MOL0     H86107  10.310   4.520   6.242  1.6896 -0.2692 -0.3485
  624MOL0     H86108  10.315   4.902   6.462 -4.6498 -0.6935  0.4310
  624MOL0     H86109  10.077   4.206   5.868  2.0456  1.0686 -0.8586
  624MOL0     H86110  10.138   4.078   5.688 -2.8182 -2.5273 -3.0549
  624MOL0     H86111  10.167   4.132   5.531  0.1655  0.6869 -0.3995
  624MOL0     H86112  10.279   4.180   5.674  0.3854  0.3881 -0.1125
  625MOL0     O86113   4.100   7.081   6.829 -0.2591 -1.2270 -0.0641
  625MOL0     C86114   3.994   7.017   6.857 -0.8943 -0.4355 -0.7088
  625MOL0     O86115   3.982   6.882   6.878 -0.6625 -0.1351  0.0377
  625MOL0     C86116   4.090   6.801   6.910  0.4326 -0.4634 -0.0397
  625MOL0     C86117   4.216   6.834   6.974  0.1081  0.1893  0.6252
  625MOL0     C86118   4.322   6.739   6.966 -0.0077 -0.8131  1.0198
  625MOL0     C86119   4.303   6.614   6.914 -0.7563  0.3777  0.0514
  625MOL0     O86120   4.418   6.536   6.909 -0.4794  0.1128  0.6159
  625MOL0     C86121   4.398   6.388   6.918  0.0042  0.6697 -0.2771
  625MOL0     C86122   4.528   6.303   6.934 -0.2594 -0.8597  0.0708
  625MOL0     C86123   4.507   6.149   6.920 -0.2249  0.4296  0.3203
  625MOL0     C86124   4.636   6.070   6.894 -0.6103  0.9288 -0.0264
  625MOL0     C86125   4.631   5.934   6.813 -0.5846  0.0633  0.0059
  625MOL0     C86126   4.718   5.827   6.890  0.6777 -0.6689 -0.4602
  625MOL0     C86127   4.861   5.854   6.860 -0.3345  0.4005  0.1177
  625MOL0     C86128   4.962   5.761   6.930  0.0254 -0.0669 -0.4251
  625MOL0     N86129   4.925   5.619   6.933  0.6519 -0.5679  0.1278
  625MOL0     C86130   4.966   5.521   6.843  0.1636 -0.3917  0.0392
  625MOL0     C86131   4.939   5.398   6.895 -0.4191 -0.5332 -0.3499
  625MOL0     C86132   4.985   5.273   6.838 -0.4471 -0.4935 -0.0195
  625MOL0     C86133   5.138   5.252   6.868  1.1442 -0.5168  0.2575
  625MOL0     C86134   5.161   5.173   6.994 -0.3056 -1.1957  0.5169
  625MOL0     C86135   5.306   5.180   7.036 -0.2186  0.0847  0.2433
  625MOL0     O86136   5.309   5.092   7.149 -0.7284 -0.3283  0.0261
  625MOL0     C86137   5.416   4.998   7.144 -0.4740  0.1774  0.0283
  625MOL0     C86138   5.423   4.885   7.067 -0.1296  0.3078  0.0754
  625MOL0     C86139   5.533   4.798   7.090 -0.0723  0.1374 -0.2503
  625MOL0     C86140   5.525   4.676   6.999  0.0664 -0.2997 -0.2376
  625MOL0     C86141   5.627   4.810   7.192  0.2087 -0.3322  0.5660
  625MOL0     C86142   5.730   4.710   7.226 -0.1244  0.2523 -0.2183
  625MOL0     O86143   5.825   4.770   7.298  0.1491  0.4510  0.2244
  625MOL0     C86144   5.925   4.692   7.350 -0.0169  0.1494 -0.8191
  625MOL0     C86145   5.937   4.632   7.484 -0.5883 -0.2164  0.0077
  625MOL0     C86146   6.030   4.543   7.517 -0.8659 -0.6012 -0.2802
  625MOL0     C86147   6.131   4.514   7.425 -0.2599  0.3976 -1.1121
  625MOL0     O86148   6.216   4.412   7.449 -0.2923 -0.0378 -0.0915
  625MOL0     C86149   6.172   4.308   7.535 -0.3858  0.1130  0.1390
  625MOL0     C86150   6.272   4.188   7.521  0.4373 -0.5038  0.0272
  625MOL0     C86151   6.377   4.184   7.627  0.4590 -0.3400  0.1416
  625MOL0     C86152   6.482   4.087   7.602 -0.4263  0.7658 -0.3618
  625MOL0     C86153   6.583   4.086   7.723 -0.3257 -0.4457  0.0949
  625MOL0     C86154   6.706   3.993   7.706  0.7536 -0.5492  0.2379
  625MOL0     C86155   6.796   4.024   7.826  0.1168  1.2045  0.6488
  625MOL0     C86156   6.918   3.930   7.818  0.7435  0.5898 -1.0733
  625MOL0    Cl86157   7.047   3.998   7.710  0.5824 -0.1596 -0.0349
  625MOL0     C86158   6.136   4.577   7.302  0.1725  0.2178  0.8630
  625MOL0     C86159   6.036   4.667   7.261  0.4775 -0.5859  0.2677
  625MOL0     O86160   5.727   4.595   7.200  0.1948  0.5532 -0.3340
  625MOL0     C86161   5.621   4.940   7.255 -0.6018  1.4193 -0.0639
  625MOL0     C86162   5.514   5.031   7.236 -0.4291 -0.4239 -0.1377
  625MOL0     N86163   4.875   5.422   7.018 -0.5420  0.7254 -0.2448
  625MOL0     N86164   4.869   5.550   7.030 -0.8334 -0.3489 -0.0022
  625MOL0     C86165   4.173   6.572   6.880 -0.3194 -0.1418  0.7031
  625MOL0     C86166   4.071   6.662   6.874 -0.3920  0.3724 -0.0313
  625MOL0     C86167   3.881   7.105   6.859  0.0337 -0.5965 -0.3671
  625MOL0     C86168   3.759   7.036   6.842 -0.5614  0.6692  0.2249
  625MOL0     C86169   3.633   7.104   6.836 -0.8169 -0.8943 -0.0697
  625MOL0     C86170   3.633   7.241   6.835  0.2810 -0.3705 -0.4609
  625MOL0     O86171   3.511   7.298   6.824 -0.0704 -0.2696  0.7079
  625MOL0     C86172   3.497   7.398   6.710 -1.4474 -0.2998 -1.0104
  625MOL0     C86173   3.534   7.338   6.576 -0.8037  0.7381  0.4614
  625MOL0     C86174   3.450   7.208   6.542 -0.7244 -0.1326  0.1246
  625MOL0     C86175   3.529   7.110   6.443  0.4429 -1.1306 -0.0946
  625MOL0     C86176   3.546   7.160   6.308  0.1285  0.0763  0.2230
  625MOL0     C86177   3.565   7.197   6.199  0.1398  0.0296  0.3673
  625MOL0     C86178   3.753   7.314   6.864  0.3235 -0.8865  1.3558
  625MOL0     C86179   3.883   7.247   6.873  0.5293  0.2565 -0.2508
  625MOL0     C86180   3.999   7.345   6.883 -0.4791 -0.0870 -0.7558
  625MOL0     H86181   4.235   6.925   7.030  3.4744  1.0060 -1.5599
  625MOL0     H86182   4.411   6.778   7.014  0.1020 -2.8869  2.6816
  625MOL0     H86183   4.332   6.367   6.833 -2.4943 -0.1006  1.7396
  625MOL0     H86184   4.341   6.359   7.007  0.2743  0.6846 -0.0967
  625MOL0     H86185   4.598   6.342   6.860 -3.1744  3.5740 -0.7340
  625MOL0     H86186   4.569   6.318   7.034 -1.6936  0.4660  0.5018
  625MOL0     H86187   4.471   6.125   7.020  1.5204 -2.5053  0.3705
  625MOL0     H86188   4.429   6.129   6.846 -0.3760 -2.3934  1.1202
  625MOL0     H86189   4.706   6.143   6.852 -1.3589  0.9416 -1.3257
  625MOL0     H86190   4.680   6.040   6.990  0.5078  0.7673 -0.5693
  625MOL0     H86191   4.667   5.948   6.710 -4.3018  4.4520 -1.0111
  625MOL0     H86192   4.523   5.925   6.799 -0.8566  3.3588 -0.6292
  625MOL0     H86193   4.705   5.820   6.999  1.1589  5.0713  0.2715
  625MOL0     H86194   4.699   5.732   6.841  3.1487 -1.8229  0.6427
  625MOL0     H86195   4.898   5.956   6.876  4.4640 -0.9701 -0.7061
  625MOL0     H86196   4.882   5.821   6.758  2.1136  2.3851 -0.1182
  625MOL0     H86197   5.059   5.783   6.884 -0.2021  2.5516  0.1994
  625MOL0     H86198   4.965   5.797   7.034  3.5397  4.0427 -1.6465
  625MOL0     H86199   5.024   5.544   6.754  1.5298 -2.5310  0.2939
  625MOL0     H86200   4.965   5.284   6.731  2.1903  3.7085 -0.2978
  625MOL0     H86201   4.926   5.185   6.867 -3.0152  0.9615 -0.5121
  625MOL0     H86202   5.170   5.191   6.783  0.9655 -0.4111  0.1138
  625MOL0     H86203   5.192   5.346   6.862  0.6300 -0.2456 -0.2394
  625MOL0     H86204   5.099   5.214   7.074  0.7438  0.9306  0.2917
  625MOL0     H86205   5.141   5.068   6.971  0.5877 -1.7658  2.2023
  625MOL0     H86206   5.373   5.150   6.955 -1.0746 -0.5206 -0.2704
  625MOL0     H86207   5.328   5.282   7.068  0.6302 -0.4595  1.4404
  625MOL0     H86208   5.343   4.872   6.995  0.6486  0.5571 -0.8609
  625MOL0     H86209   5.624   4.661   6.955  0.2102  0.5081 -0.1979
  625MOL0     H86210   5.452   4.675   6.918  0.0476 -0.0629 -0.2248
  625MOL0     H86211   5.494   4.594   7.065 -2.4947  0.9541  0.2484
  625MOL0     H86212   5.855   4.654   7.552 -2.5699 -0.6457 -2.1155
  625MOL0     H86213   6.033   4.487   7.610  2.7413 -0.1437  0.0092
  625MOL0     H86214   6.170   4.330   7.642 -1.9030  1.0390 -0.0551
  625MOL0     H86215   6.080   4.267   7.493  0.2219 -0.2325 -0.8778
  625MOL0     H86216   6.212   4.097   7.514  1.4911 -1.1794 -0.5346
  625MOL0     H86217   6.331   4.193   7.429 -0.7377 -1.3192 -0.7937
  625MOL0     H86218   6.336   4.168   7.727 -2.8166 -1.1726 -1.2262
  625MOL0     H86219   6.420   4.285   7.627  1.1511 -0.6038  1.5192
  625MOL0     H86220   6.539   4.119   7.515 -2.1609 -0.1563 -1.9103
  625MOL0     H86221   6.441   3.988   7.577  2.3710 -0.4942 -0.3100
  625MOL0     H86222   6.616   4.187   7.749 -2.0067 -0.5374  3.0113
  625MOL0     H86223   6.524   4.056   7.810  2.5620 -1.8003  1.7327
  625MOL0     H86224   6.764   4.017   7.616 -2.0447  0.8803 -1.3204
  625MOL0     H86225   6.674   3.889   7.697 -0.1206 -0.2906  0.2867
  625MOL0     H86226   6.743   3.989   7.915  0.3459  1.1965  0.7808
  625MOL0     H86227   6.821   4.128   7.844 -0.8732  1.5644  0.0603
  625MOL0     H86228   6.892   3.828   7.787  1.1648  1.0434 -3.0637
  625MOL0     H86229   6.952   3.930   7.922  0.2672  2.3887 -0.8896
  625MOL0     H86230   6.214   4.543   7.235  1.2666 -2.1196  3.1814
  625MOL0     H86231   6.027   4.711   7.162 -1.6082 -0.8088  0.3303
  625MOL0     H86232   5.695   4.959   7.332  0.3754  0.0311 -0.6182
  625MOL0     H86233   5.500   5.127   7.284 -0.6754 -0.1263 -0.8007
  625MOL0     H86234   4.155   6.469   6.850 -2.0814  0.3272  0.0366
  625MOL0     H86235   3.977   6.628   6.830  0.8437  0.4534 -2.9433
  625MOL0     H86236   3.766   6.929   6.853  1.0269  0.8048  0.7240
  625MOL0     H86237   3.543   7.048   6.815 -0.3077 -0.7748 -2.8357
  625MOL0     H86238   3.397   7.441   6.707 -0.6345  1.6414 -2.2951
  625MOL0     H86239   3.561   7.486   6.721 -0.7392 -1.0685  2.5887
  625MOL0     H86240   3.638   7.307   6.590 -1.3825 -1.5736  0.1869
  625MOL0     H86241   3.511   7.400   6.489 -5.1579 -1.1637 -0.0111
  625MOL0     H86242   3.432   7.161   6.639 -1.0672  2.6466  1.5221
  625MOL0     H86243   3.355   7.239   6.496  0.5734 -0.1135 -2.7548
  625MOL0     H86244   3.475   7.015   6.439 -2.7150  0.5739 -2.2521
  625MOL0     H86245   3.630   7.094   6.482  1.1906  3.0840  0.1616
  625MOL0     H86246   3.600   7.223   6.100 -0.7598  0.2064  0.0876
  625MOL0     H86247   3.750   7.423   6.857 -0.3396 -0.9142  1.1551
  625MOL0     H86248   4.066   7.299   6.956 -1.5022 -0.6275 -0.1249
  625MOL0     H86249   4.047   7.353   6.785  3.2822  0.3375  0.9499
  625MOL0     H86250   3.982   7.448   6.915  0.3147  0.0768 -0.8584
  626MOL0     O86251   9.322   4.210   9.769 -0.4801 -0.1003 -0.7210
  626MOL0     C86252   9.267   4.120   9.834  0.1499 -0.6130 -0.3013
  626MOL0     O86253   9.172   4.037   9.776 -0.4641 -0.2391  0.2613
  626MOL0     C86254   9.180   4.045   9.642  0.1566  0.1710 -0.0975
  626MOL0     C86255   9.071   4.104   9.579 -0.6857 -0.3326  0.1887
  626MOL0     C86256   9.061   4.123   9.439 -0.0183  0.6960 -0.9550
  626MOL0     C86257   9.171   4.065   9.353  0.7865 -0.2422 -0.5160
  626MOL0     O86258   9.161   4.086   9.216  0.3522 -0.2157  0.0121
  626MOL0     C86259   9.262   4.044   9.129 -0.4218 -0.0339  0.9013
  626MOL0     C86260   9.224   4.085   8.991 -0.3308 -0.0063  0.0961
  626MOL0     C86261   9.111   3.992   8.935 -0.0900 -0.3925 -0.1428
  626MOL0     C86262   9.075   4.014   8.784 -0.2180  0.1904 -0.4912
  626MOL0     C86263   9.202   4.040   8.706  0.9480  0.1039 -0.6052
  626MOL0     C86264   9.156   4.039   8.564 -0.1804 -0.2982  0.1483
  626MOL0     C86265   9.266   4.100   8.461 -0.0839 -0.3548  0.9568
  626MOL0     C86266   9.399   4.025   8.468  0.1474  0.2676 -0.0710
  626MOL0     N86267   9.514   4.094   8.409  0.2983  0.3455 -0.9771
  626MOL0     C86268   9.585   4.191   8.491 -0.6648  0.0071  1.3370
  626MOL0     C86269   9.713   4.201   8.451  1.1901 -0.4219  0.4999
  626MOL0     C86270   9.815   4.289   8.511 -0.2484  0.0985 -0.4036
  626MOL0     C86271   9.932   4.211   8.572 -0.2306  0.2134 -0.2115
  626MOL0     C86272  10.038   4.306   8.618  0.5716 -0.1508 -0.3465
  626MOL0     C86273  10.154   4.222   8.664 -0.8364 -0.2630 -0.0127
  626MOL0     O86274  10.222   4.182   8.541  1.1074  0.2656  0.1903
  626MOL0     C86275  10.311   4.081   8.548  0.1881 -0.1679 -0.0909
  626MOL0     C86276  10.357   4.022   8.672  0.2603 -0.4802  0.0385
  626MOL0     C86277  10.463   3.922   8.679  0.0671 -0.9489  0.3602
  626MOL0     C86278  10.491   3.870   8.820 -0.0164 -0.6965 -0.2822
  626MOL0     C86279  10.529   3.901   8.561  0.4382  0.5213  0.6095
  626MOL0     C86280  10.650   3.826   8.563  0.0714  0.6448 -0.1997
  626MOL0     O86281  10.661   3.732   8.464  0.8707 -0.0574  0.8446
  626MOL0     C86282  10.783   3.668   8.432  0.8199 -0.2141  0.1038
  626MOL0     C86283  10.906   3.736   8.418 -0.4005  0.5617  0.1358
  626MOL0     C86284  11.021   3.680   8.364  0.3814 -0.8077 -0.1643
  626MOL0     C86285  11.029   3.552   8.310  1.1003 -0.5998 -0.4297
  626MOL0     O86286  11.124   3.492   8.239  0.6288  0.2112  0.3660
  626MOL0     C86287  11.231   3.583   8.206 -0.1081 -0.1493 -0.5380
  626MOL0     C86288  11.280   3.534   8.070 -0.0401  0.0862 -0.5962
  626MOL0     C86289  11.426   3.595   8.025  0.7818  0.7476 -1.1721
  626MOL0     C86290  11.480   3.524   7.900 -0.2616  0.0630  1.2249
  626MOL0     C86291  11.626   3.572   7.877 -0.4017 -0.4270 -0.4124
  626MOL0     C86292  11.700   3.488   7.779  0.2602  0.6321  0.3100
  626MOL0     C86293  11.843   3.518   7.788 -0.3509 -0.0944  0.3253
  626MOL0     C86294  11.926   3.450   7.682  0.0945  0.1448 -0.7788
  626MOL0    Cl86295  11.938   3.280   7.719 -0.3980  0.4580 -0.1316
  626MOL0     C86296  10.901   3.484   8.316 -0.7005  0.3599  0.3300
  626MOL0     C86297  10.791   3.538   8.386  0.3992  0.0060  0.6213
  626MOL0     O86298  10.750   3.870   8.623  0.7905 -0.2457 -0.2663
  626MOL0     C86299  10.483   3.950   8.438 -0.1377 -0.0919  0.4237
  626MOL0     C86300  10.377   4.034   8.429  0.3391 -0.4612 -1.3148
  626MOL0     N86301   9.721   4.098   8.366  0.2868 -0.4318 -0.6497
  626MOL0     N86302   9.609   4.042   8.339  0.5233 -0.2220 -0.1215
  626MOL0     C86303   9.272   3.990   9.420  0.5484 -0.7023 -0.4756
  626MOL0     C86304   9.276   3.978   9.563  0.2857 -0.8566  0.5408
  626MOL0     C86305   9.300   4.082   9.979  0.2864  0.0318  0.6219
  626MOL0     C86306   9.213   3.989  10.034 -0.5863 -0.1998  0.3611
  626MOL0     C86307   9.247   3.949  10.163 -0.3750  0.0475 -0.5684
  626MOL0     C86308   9.362   4.001  10.234 -1.0188  0.4315 -0.3412
  626MOL0     O86309   9.366   3.950  10.361 -1.2016 -0.4213  0.4399
  626MOL0     C86310   9.440   4.032  10.455 -0.0125 -0.0758  0.8222
  626MOL0     C86311   9.418   3.990  10.603 -0.3550 -0.2306  1.0720
  626MOL0     C86312   9.494   4.075  10.702  0.4765  0.5192  0.5162
  626MOL0     C86313   9.431   4.202  10.764  0.1664  1.1586  0.2036
  626MOL0     C86314   9.430   4.313  10.664  0.2976 -0.3710 -1.2913
  626MOL0     C86315   9.443   4.401  10.582 -0.8279 -0.1006 -0.8990
  626MOL0     C86316   9.446   4.095  10.185  0.1994 -0.4969  0.7608
  626MOL0     C86317   9.414   4.139  10.050  0.9845 -0.2419  0.1422
  626MOL0     C86318   9.513   4.232   9.987  0.7114 -0.7076 -0.1380
  626MOL0     H86319   8.987   4.128   9.643 -2.1502 -3.1953 -0.5031
  626MOL0     H86320   8.971   4.171   9.402 -1.2240 -1.1120 -0.5212
  626MOL0     H86321   9.265   3.935   9.142 -4.1090 -0.5208 -0.9439
  626MOL0     H86322   9.359   4.083   9.162 -1.0387  1.2108  1.3108
  626MOL0     H86323   9.194   4.189   8.981  0.1538  0.0920 -0.4205
  626MOL0     H86324   9.317   4.064   8.936 -2.2702 -0.7377 -3.1754
  626MOL0     H86325   9.142   3.887   8.948 -5.3621 -2.0758  1.2628
  626MOL0     H86326   9.023   4.015   8.995  2.7269  3.7575  2.9286
  626MOL0     H86327   9.030   3.923   8.741  0.7862 -0.5817  0.0609
  626MOL0     H86328   9.001   4.094   8.778 -1.0497 -0.4002  1.1725
  626MOL0     H86329   9.275   3.962   8.730  3.3214  2.6686  1.0191
  626MOL0     H86330   9.242   4.138   8.730  1.6980  0.3776 -2.7379
  626MOL0     H86331   9.130   3.944   8.518 -0.9836  0.6733 -1.5220
  626MOL0     H86332   9.066   4.101   8.548  0.3695 -0.0902 -2.6802
  626MOL0     H86333   9.274   4.209   8.473  0.2942 -0.1219 -1.0047
  626MOL0     H86334   9.231   4.076   8.360  0.5623 -1.1100  0.9058
  626MOL0     H86335   9.425   4.021   8.574 -0.8259 -0.9903  0.1360
  626MOL0     H86336   9.383   3.926   8.425 -1.5153  0.3833  0.2295
  626MOL0     H86337   9.547   4.253   8.571 -1.4290 -0.9148  1.7049
  626MOL0     H86338   9.775   4.343   8.597 -0.7802  0.6128 -0.9657
  626MOL0     H86339   9.849   4.346   8.424  2.1563 -2.6892 -1.4801
  626MOL0     H86340   9.905   4.139   8.650 -0.1018  0.0012 -0.3599
  626MOL0     H86341   9.972   4.158   8.485 -0.4925  0.5395 -0.5328
  626MOL0     H86342  10.076   4.375   8.542  1.0367  0.2414  0.2251
  626MOL0     H86343  10.000   4.360   8.705 -1.8906  0.1810 -1.5538
  626MOL0     H86344  10.231   4.271   8.724 -0.5375  0.3820 -0.9061
  626MOL0     H86345  10.122   4.132   8.719  2.4330  0.5748  3.6764
  626MOL0     H86346  10.317   4.067   8.762 -0.4724 -1.3355  0.1514
  626MOL0     H86347  10.408   3.882   8.891 -0.2301 -1.2786 -0.4242
  626MOL0     H86348  10.574   3.928   8.859 -0.7384  2.0978 -2.5949
  626MOL0     H86349  10.514   3.764   8.805  0.8939 -0.3413 -1.4921
  626MOL0     H86350  10.907   3.842   8.440  0.9867  0.7434 -0.7237
  626MOL0     H86351  11.109   3.744   8.366 -0.5395  0.4744  0.3712
  626MOL0     H86352  11.209   3.686   8.177 -1.9154  0.0930  1.3997
  626MOL0     H86353  11.308   3.571   8.282 -1.7681  0.0757  1.2617
  626MOL0     H86354  11.276   3.426   8.050 -1.0793  0.4623 -2.6788
  626MOL0     H86355  11.214   3.579   7.996  0.9560  0.9257 -1.0044
  626MOL0     H86356  11.493   3.578   8.110 -2.1645  1.4353  1.4791
  626MOL0     H86357  11.411   3.702   8.009  1.3798  0.9284 -0.5978
  626MOL0     H86358  11.422   3.553   7.812  0.0949 -0.0106  0.9635
  626MOL0     H86359  11.480   3.415   7.904  0.5093 -0.2954 -3.4452
  626MOL0     H86360  11.619   3.675   7.843 -2.0295 -0.1275  0.7205
  626MOL0     H86361  11.676   3.565   7.974  1.7278  2.1017 -1.2176
  626MOL0     H86362  11.661   3.521   7.683  1.7560 -0.1379 -0.6042
  626MOL0     H86363  11.680   3.382   7.799  1.9907  0.3815  0.8832
  626MOL0     H86364  11.879   3.488   7.887  1.7804 -1.2736 -0.7487
  626MOL0     H86365  11.871   3.623   7.783  1.6570 -0.5967  0.3438
  626MOL0     H86366  12.029   3.485   7.675  0.6748 -0.7700  2.0833
  626MOL0     H86367  11.868   3.452   7.589 -0.8066 -2.8256 -0.3944
  626MOL0     H86368  10.896   3.383   8.277  2.1702  0.1081  0.3652
  626MOL0     H86369  10.704   3.472   8.388  0.3278  0.0821  0.1348
  626MOL0     H86370  10.550   3.935   8.354  1.3989 -0.6984  1.7108
  626MOL0     H86371  10.355   4.096   8.343 -4.9186 -1.2143 -0.8447
  626MOL0     H86372   9.332   3.931   9.350  0.6525 -3.5692  1.8292
  626MOL0     H86373   9.335   3.901   9.612  0.3193 -1.3177 -0.2152
  626MOL0     H86374   9.134   3.938   9.979  0.1586 -0.3605 -0.6007
  626MOL0     H86375   9.187   3.868  10.201 -0.6209  0.2257 -0.5752
  626MOL0     H86376   9.547   4.017  10.436  0.9698  3.2236  2.9050
  626MOL0     H86377   9.401   4.133  10.440  1.4895  0.2602 -1.1435
  626MOL0     H86378   9.459   3.889  10.605 -1.7143 -0.8137  0.6980
  626MOL0     H86379   9.313   3.980  10.632  0.5567 -3.1167  3.9388
  626MOL0     H86380   9.523   4.015  10.789  2.0923  0.1456 -0.2510
  626MOL0     H86381   9.593   4.094  10.660 -0.0223  1.8358 -0.1540
  626MOL0     H86382   9.496   4.224  10.849 -1.4496  1.7669  1.3172
  626MOL0     H86383   9.329   4.190  10.801  0.2720  0.4636  0.2892
  626MOL0     H86384   9.450   4.473  10.503 -1.4845 -2.2816 -3.0751
  626MOL0     H86385   9.533   4.135  10.236 -1.0906  3.7485 -0.0445
  626MOL0     H86386   9.472   4.333   9.974 -1.9272 -1.7164 -0.4622
  626MOL0     H86387   9.593   4.240  10.061 -0.5231  0.6389  1.1203
  626MOL0     H86388   9.542   4.184   9.893 -1.0836 -0.3857 -0.9004
  627MOL0     O86389   3.635   9.626   7.509 -0.4219 -0.3236 -0.4956
  627MOL0     C86390   3.630   9.501   7.508  0.7219 -0.2523 -0.5939
  627MOL0     O86391   3.703   9.427   7.425 -0.3215 -0.5032  0.2673
  627MOL0     C86392   3.792   9.485   7.334  0.1404 -0.4752  0.7230
  627MOL0     C86393   3.890   9.576   7.376 -1.7412  0.5450 -0.2789
  627MOL0     C86394   3.983   9.626   7.282 -0.1512  0.1857 -0.1303
  627MOL0     C86395   3.977   9.590   7.148  0.0524 -0.6635 -0.2019
  627MOL0     O86396   4.073   9.642   7.066 -0.5796  0.2692  0.2753
  627MOL0     C86397   4.022   9.683   6.933  0.6616  0.2554  0.8315
  627MOL0     C86398   4.126   9.770   6.870  0.3793  0.4986  0.2054
  627MOL0     C86399   4.151   9.893   6.952  0.0713 -0.0958 -0.0162
  627MOL0     C86400   4.241   9.998   6.887 -0.0685  0.5155  1.0089
  627MOL0     C86401   4.394   9.966   6.907 -0.5100  0.7724  0.2546
  627MOL0     C86402   4.498  10.074   6.862  0.3494  0.6954 -0.1400
  627MOL0     C86403   4.500  10.100   6.706 -1.0252  0.7084 -0.4493
  627MOL0     C86404   4.588  10.228   6.680 -0.4223  0.4021 -0.7233
  627MOL0     N86405   4.572  10.273   6.543 -0.3841  1.0494  0.3484
  627MOL0     C86406   4.481  10.356   6.477 -0.6617  0.1956 -0.8285
  627MOL0     C86407   4.528  10.396   6.358  0.5679  0.1947  0.8477
  627MOL0     C86408   4.474  10.503   6.257 -0.6518 -0.4995  0.2295
  627MOL0     C86409   4.349  10.447   6.183 -0.6535 -1.1234 -0.0695
  627MOL0     C86410   4.268  10.553   6.121  0.1293  0.0884  0.7256
  627MOL0     C86411   4.331  10.583   5.989 -0.1894  0.0736 -0.0526
  627MOL0     O86412   4.262  10.686   5.926  0.0215  0.3853 -0.0453
  627MOL0     C86413   4.256  10.700   5.792 -0.5417 -0.1527 -0.1779
  627MOL0     C86414   4.319  10.616   5.703 -0.0404  0.4061  0.4993
  627MOL0     C86415   4.298  10.623   5.560 -0.2205  0.8030  0.0278
  627MOL0     C86416   4.349  10.502   5.479  0.3790 -0.2637 -0.6550
  627MOL0     C86417   4.225  10.729   5.505 -0.3710 -0.7751  0.2900
  627MOL0     C86418   4.231  10.758   5.356 -1.0859 -0.3968 -1.2780
  627MOL0     O86419   4.153  10.855   5.315 -0.4008 -0.4752  0.5644
  627MOL0     C86420   4.153  10.884   5.181  0.1897 -0.2090 -0.4562
  627MOL0     C86421   4.099  10.800   5.083  0.4974  0.1544  0.6235
  627MOL0     C86422   4.109  10.833   4.948 -0.7435 -0.3953  0.4515
  627MOL0     C86423   4.182  10.954   4.912 -0.3925 -0.2964 -1.1337
  627MOL0     O86424   4.211  10.986   4.785  0.1006 -0.2022  1.0154
  627MOL0     C86425   4.149  10.917   4.676  0.3350 -0.0277  0.4801
  627MOL0     C86426   4.185  11.015   4.560  0.2274 -0.3759 -0.2940
  627MOL0     C86427   4.325  10.985   4.489 -0.1441 -0.1228 -0.0690
  627MOL0     C86428   4.329  11.051   4.358 -0.0015 -0.2781  0.2505
  627MOL0     C86429   4.467  11.039   4.286  0.1921 -0.4362  0.2926
  627MOL0     C86430   4.579  11.118   4.359  0.0519  1.1688  0.5303
  627MOL0     C86431   4.707  11.096   4.288 -1.0163 -0.1187 -0.4153
  627MOL0     C86432   4.811  11.173   4.364 -0.1157  0.6712 -0.5240
  627MOL0    Cl86433   4.966  11.152   4.278 -0.4721  0.1730 -0.3785
  627MOL0     C86434   4.221  11.049   5.015 -0.8238  0.1047 -0.3515
  627MOL0     C86435   4.188  11.010   5.152  0.1329 -0.1997 -0.0919
  627MOL0     O86436   4.319  10.703   5.293  0.5654 -0.6007  0.1114
  627MOL0     C86437   4.155  10.817   5.597 -0.0502 -0.5361 -0.4469
  627MOL0     C86438   4.174  10.801   5.738 -0.1319  0.1932  0.6027
  627MOL0     N86439   4.648  10.333   6.344  0.0537  0.6047  0.3354
  627MOL0     N86440   4.675  10.260   6.449  0.6600 -0.9043 -0.1657
  627MOL0     C86441   3.868   9.517   7.105 -0.5696 -0.9075  0.2614
  627MOL0     C86442   3.786   9.457   7.200  0.3843  0.0612 -0.4323
  627MOL0     C86443   3.528   9.424   7.599 -0.0700  0.6243 -0.9620
  627MOL0     C86444   3.497   9.298   7.548 -0.1996 -0.0806  0.9209
  627MOL0     C86445   3.414   9.224   7.627  1.4772 -0.1853  0.5101
  627MOL0     C86446   3.356   9.269   7.747  0.0736 -0.6189  0.5536
  627MOL0     O86447   3.269   9.176   7.798  1.5305  0.4154 -1.0345
  627MOL0     C86448   3.207   9.203   7.930 -0.4817  1.2168  0.2895
  627MOL0     C86449   3.316   9.194   8.039 -0.2406 -0.4991  0.5344
  627MOL0     C86450   3.363   9.046   8.066  1.2062 -0.4719  0.9952
  627MOL0     C86451   3.413   9.029   8.214 -0.3789 -0.5892  0.2003
  627MOL0     C86452   3.310   8.986   8.307  0.5171  0.5710 -0.5105
  627MOL0     C86453   3.235   8.952   8.392  0.1869 -0.2841  0.0669
  627MOL0     C86454   3.393   9.397   7.798  0.5747  0.2013  0.8319
  627MOL0     C86455   3.476   9.477   7.723  0.5324  0.7386  0.3132
  627MOL0     C86456   3.515   9.615   7.780  0.2831  0.1015 -0.6110
  627MOL0     H86457   3.907   9.613   7.477 -2.3241 -2.2633  0.9573
  627MOL0     H86458   4.068   9.685   7.315 -0.0512  1.6242 -2.7369
  627MOL0     H86459   3.931   9.744   6.941  1.3871  1.2335  2.0199
  627MOL0     H86460   3.997   9.594   6.874 -2.1972  0.4828  1.5532
  627MOL0     H86461   4.213   9.707   6.853 -0.2299 -1.0387  2.3751
  627MOL0     H86462   4.091   9.799   6.770 -0.6324  1.9524  0.9430
  627MOL0     H86463   4.053   9.941   6.958 -1.2521 -2.7479  1.0590
  627MOL0     H86464   4.176   9.871   7.056 -0.8768  1.9904  0.7095
  627MOL0     H86465   4.213  10.008   6.782 -1.4498 -0.7567  1.2318
  627MOL0     H86466   4.220  10.094   6.936  2.7458  2.1868 -0.7800
  627MOL0     H86467   4.428   9.876   6.854  0.8983  2.9321 -2.8440
  627MOL0     H86468   4.415   9.959   7.014  0.1138  0.4527  0.1191
  627MOL0     H86469   4.475  10.163   6.921 -0.4725  0.1623  0.3621
  627MOL0     H86470   4.600  10.046   6.888  1.1255  2.1060 -1.4907
  627MOL0     H86471   4.398  10.119   6.673 -1.2112 -3.4780 -3.0462
  627MOL0     H86472   4.540  10.018   6.646  1.6318  0.6682  1.2140
  627MOL0     H86473   4.561  10.304   6.754  1.1172  2.2356 -1.9657
  627MOL0     H86474   4.691  10.191   6.691 -0.9475 -0.9488 -0.1100
  627MOL0     H86475   4.383  10.378   6.517  0.6625 -0.0780  2.9544
  627MOL0     H86476   4.546  10.526   6.177 -2.6472 -0.1097 -1.5689
  627MOL0     H86477   4.446  10.592   6.313  2.1663 -0.2203  1.3254
  627MOL0     H86478   4.384  10.367   6.117  0.9334  1.2950 -2.3782
  627MOL0     H86479   4.294  10.411   6.271  0.3138  0.1514  1.0911
  627MOL0     H86480   4.166  10.515   6.112  0.2567 -0.5270  1.7595
  627MOL0     H86481   4.267  10.644   6.182  0.0010 -0.0055  0.8634
  627MOL0     H86482   4.437  10.607   6.002  0.4328 -2.6435  0.3707
  627MOL0     H86483   4.322  10.490   5.933  1.4715 -1.0518  1.4127
  627MOL0     H86484   4.373  10.532   5.746 -0.6442  1.0000  2.5447
  627MOL0     H86485   4.366  10.416   5.545 -1.6724  1.3210  2.1533
  627MOL0     H86486   4.445  10.532   5.436  1.0989 -1.0863  0.3241
  627MOL0     H86487   4.271  10.485   5.404 -0.1770  0.6839 -0.3057
  627MOL0     H86488   4.051  10.708   5.116 -2.6927  1.2452 -0.5313
  627MOL0     H86489   4.060  10.768   4.876 -1.1733  1.0698 -0.6209
  627MOL0     H86490   4.195  10.818   4.666  0.9196  0.3847 -1.1841
  627MOL0     H86491   4.044  10.890   4.694  1.0951 -1.7043  2.7507
  627MOL0     H86492   4.115  10.997   4.478  0.9538 -1.4135 -0.7077
  627MOL0     H86493   4.180  11.116   4.601  2.2346 -0.5050  0.4069
  627MOL0     H86494   4.334  10.877   4.472 -4.4498 -0.6931  0.1112
  627MOL0     H86495   4.402  11.032   4.551 -2.2202  2.8990  0.4155
  627MOL0     H86496   4.314  11.155   4.385 -1.1314 -0.3746  0.0416
  627MOL0     H86497   4.243  11.018   4.299  0.9192 -0.2530 -1.1651
  627MOL0     H86498   4.502  10.935   4.278  0.0548 -0.4791  0.2526
  627MOL0     H86499   4.450  11.075   4.184 -0.1172 -0.5571  0.3010
  627MOL0     H86500   4.583  11.077   4.460 -1.1298  0.7433  0.4190
  627MOL0     H86501   4.555  11.224   4.372 -0.7439  0.7641  2.7539
  627MOL0     H86502   4.705  11.140   4.188  0.0518  0.9634  0.0101
  627MOL0     H86503   4.724  10.988   4.290 -1.0616 -0.1248 -0.3811
  627MOL0     H86504   4.816  11.137   4.468  1.6878 -0.6520 -1.0244
  627MOL0     H86505   4.786  11.280   4.361 -0.4466  0.7268  1.8789
  627MOL0     H86506   4.271  11.142   4.989  2.0251 -1.2364 -0.0402
  627MOL0     H86507   4.210  11.080   5.232 -1.0132 -0.5897  0.5958
  627MOL0     H86508   4.091  10.892   5.553  0.1578 -0.1147 -0.0488
  627MOL0     H86509   4.119  10.872   5.799  0.0605  2.8001 -2.0488
  627MOL0     H86510   3.862   9.502   6.998 -1.3102 -2.0371  0.4457
  627MOL0     H86511   3.722   9.380   7.158  1.6892 -0.9850 -0.5686
  627MOL0     H86512   3.540   9.252   7.459 -2.1309  2.3547 -1.4229
  627MOL0     H86513   3.391   9.121   7.602 -1.6973  0.6733 -0.5937
  627MOL0     H86514   3.159   9.301   7.938 -0.2231  1.6264 -2.1583
  627MOL0     H86515   3.121   9.139   7.951 -2.5973  3.8185  0.1176
  627MOL0     H86516   3.269   9.224   8.133 -2.0969 -4.4161  1.0981
  627MOL0     H86517   3.404   9.255   8.021 -0.1348 -0.7984 -0.0011
  627MOL0     H86518   3.279   8.976   8.057  0.8799 -0.0664  0.8753
  627MOL0     H86519   3.442   9.020   7.995  2.6116  3.1712  1.0375
  627MOL0     H86520   3.458   9.122   8.250  0.3863 -1.0467  0.4563
  627MOL0     H86521   3.492   8.953   8.219  1.9552  1.7885  2.0583
  627MOL0     H86522   3.163   8.920   8.464  1.5022 -1.6833  0.8280
  627MOL0     H86523   3.345   9.447   7.881  2.4690  0.4536  1.8370
  627MOL0     H86524   3.478   9.642   7.879 -0.5795  0.5758 -1.0464
  627MOL0     H86525   3.622   9.633   7.797 -0.0928  2.6118 -0.5281
  627MOL0     H86526   3.487   9.699   7.716  0.5952  0.5331 -0.1840
  628MOL0     O86527   4.073   4.149   3.145  0.6359 -0.2482 -0.0651
  628MOL0     C86528   3.967   4.107   3.189  0.4190 -0.7677 -0.6582
  628MOL0     O86529   3.843   4.164   3.178  0.7262 -0.0204 -0.2873
  628MOL0     C86530   3.822   4.259   3.081 -0.1123 -0.0378 -0.7842
  628MOL0     C86531   3.733   4.215   2.978 -0.5650  0.0481  0.6201
  628MOL0     C86532   3.679   4.312   2.893 -0.8696  0.9629 -0.3469
  628MOL0     C86533   3.723   4.450   2.889  0.2438  0.4390 -0.4907
  628MOL0     O86534   3.685   4.546   2.803  0.0191 -0.1802  0.4117
  628MOL0     C86535   3.585   4.524   2.703  0.1067  0.1066  0.3534
  628MOL0     C86536   3.461   4.601   2.738 -0.2481 -0.5279 -0.4615
  628MOL0     C86537   3.476   4.754   2.755 -0.9289 -0.4541 -0.1310
  628MOL0     C86538   3.340   4.818   2.727  0.3397 -0.3038  0.2294
  628MOL0     C86539   3.347   4.973   2.760  0.5436  0.0953 -0.4255
  628MOL0     C86540   3.228   5.053   2.699 -0.3085 -0.0647 -0.1422
  628MOL0     C86541   3.227   5.204   2.730  0.4115  0.3060  0.3539
  628MOL0     C86542   3.153   5.237   2.861  0.8883  0.0473  1.5250
  628MOL0     N86543   3.021   5.178   2.854 -0.1249  0.9236 -0.7018
  628MOL0     C86544   2.925   5.184   2.755  0.4728 -0.4649  0.7831
  628MOL0     C86545   2.805   5.144   2.807  0.7618 -0.6694  0.1203
  628MOL0     C86546   2.677   5.159   2.729  0.4129 -0.6262 -0.2657
  628MOL0     C86547   2.589   5.283   2.763  0.3208  0.2193 -0.5622
  628MOL0     C86548   2.534   5.373   2.641  0.1659  0.7406 -0.2857
  628MOL0     C86549   2.404   5.447   2.692 -0.4886  0.5428  0.2258
  628MOL0     O86550   2.307   5.340   2.722  0.0977 -0.7893 -0.4104
  628MOL0     C86551   2.169   5.362   2.710  0.5866 -0.0962 -0.5281
  628MOL0     C86552   2.116   5.467   2.637 -0.0469 -1.0843 -0.7956
  628MOL0     C86553   1.979   5.468   2.601 -0.2583  0.0649  0.3032
  628MOL0     C86554   1.937   5.584   2.526  0.1683  0.2589  0.1155
  628MOL0     C86555   1.901   5.353   2.621 -0.0035  0.0587  0.1666
  628MOL0     C86556   1.764   5.337   2.576 -0.8846  0.3657 -0.3700
  628MOL0     O86557   1.693   5.235   2.641  0.6094 -0.5311 -0.1965
  628MOL0     C86558   1.587   5.178   2.575  0.5124  0.6689 -0.4015
  628MOL0     C86559   1.457   5.198   2.609  1.0080  0.6123  0.0627
  628MOL0     C86560   1.354   5.123   2.547 -0.1522 -0.3936 -0.7183
  628MOL0     C86561   1.383   5.023   2.457 -0.5626  0.3418  0.4269
  628MOL0     O86562   1.277   4.944   2.413  0.1677 -0.1764  0.2986
  628MOL0     C86563   1.301   4.844   2.303 -0.3894 -0.5272 -0.3655
  628MOL0     C86564   1.171   4.782   2.244 -0.3843 -0.3943  0.1728
  628MOL0     C86565   1.207   4.704   2.122 -0.1037  0.5480  0.5477
  628MOL0     C86566   1.080   4.626   2.083  0.1752  0.2375 -0.4362
  628MOL0     C86567   1.099   4.523   1.966  0.1552  0.8570 -0.4173
  628MOL0     C86568   1.121   4.580   1.826  0.5382  0.3904 -0.4165
  628MOL0     C86569   1.077   4.474   1.721  0.5138  0.0753  0.0971
  628MOL0     C86570   1.115   4.517   1.580 -0.1192 -0.5980  0.6838
  628MOL0    Cl86571   1.103   4.386   1.463 -0.2859 -0.0965  0.0684
  628MOL0     C86572   1.520   5.016   2.410 -0.4825 -1.0408 -0.4210
  628MOL0     C86573   1.623   5.096   2.468  0.2296 -0.6813  0.3173
  628MOL0     O86574   1.721   5.398   2.482  0.3786 -0.0974 -0.2095
  628MOL0     C86575   1.952   5.258   2.718 -0.4090  0.5786  0.4109
  628MOL0     C86576   2.081   5.261   2.760 -0.2703 -0.6628 -0.2729
  628MOL0     N86577   2.834   5.111   2.942  0.1315 -0.0665 -0.8044
  628MOL0     N86578   2.961   5.121   2.956 -0.2057 -0.2620  0.1253
  628MOL0     C86579   3.813   4.489   2.990 -0.1884 -0.5314  0.7378
  628MOL0     C86580   3.861   4.396   3.085 -0.2663 -0.1930 -0.2984
  628MOL0     C86581   3.960   3.991   3.281  0.8749 -0.2088  0.8119
  628MOL0     C86582   3.852   3.983   3.373  0.6962  0.3742  0.8946
  628MOL0     C86583   3.850   3.905   3.486  0.6991  1.0021  0.5924
  628MOL0     C86584   3.951   3.810   3.511 -0.0314  0.0270  0.1676
  628MOL0     O86585   3.941   3.733   3.623  0.5774 -0.7191  0.6825
  628MOL0     C86586   4.046   3.637   3.647  0.1427  0.2096 -0.5279
  628MOL0     C86587   4.013   3.571   3.780 -0.6726  0.7615  0.2212
  628MOL0     C86588   4.136   3.497   3.826  0.6020 -0.1707 -0.2040
  628MOL0     C86589   4.100   3.351   3.868  0.0256  0.5502  0.2688
  628MOL0     C86590   4.219   3.309   3.952  0.3889 -0.0108  0.4812
  628MOL0     C86591   4.310   3.270   4.018 -0.9368  0.0356  0.3105
  628MOL0     C86592   4.054   3.798   3.412 -0.2018  0.2662  0.8867
  628MOL0     C86593   4.057   3.890   3.299 -0.2997  0.3050 -0.1126
  628MOL0     C86594   4.161   3.859   3.198  0.2399 -0.4557  0.1644
  628MOL0     H86595   3.696   4.113   2.983  0.1261 -0.2501  0.0070
  628MOL0     H86596   3.601   4.269   2.831 -1.1883 -0.7673  1.1612
  628MOL0     H86597   3.573   4.420   2.671  2.6047  0.5512 -2.4748
  628MOL0     H86598   3.611   4.571   2.608  4.9103 -2.7271 -0.0771
  628MOL0     H86599   3.386   4.572   2.663 -2.6797  0.5963  1.3809
  628MOL0     H86600   3.423   4.560   2.832 -0.2523 -4.1368 -1.8497
  628MOL0     H86601   3.505   4.774   2.858  1.0534  0.6497 -0.8515
  628MOL0     H86602   3.558   4.792   2.693  1.0357 -3.4937  0.4161
  628MOL0     H86603   3.309   4.810   2.623  1.2994 -2.1384  0.0456
  628MOL0     H86604   3.272   4.758   2.789  1.1342 -2.9138 -1.2746
  628MOL0     H86605   3.440   5.014   2.719  0.5519  3.1015  2.2215
  628MOL0     H86606   3.344   4.981   2.869 -1.7108  0.1873 -0.4428
  628MOL0     H86607   3.249   5.042   2.592 -0.0290  1.5921 -0.2857
  628MOL0     H86608   3.128   5.009   2.704  0.4744 -1.8578  0.5147
  628MOL0     H86609   3.164   5.240   2.648  1.7769 -1.5299 -1.5938
  628MOL0     H86610   3.323   5.257   2.731 -1.1309  3.3419  0.2420
  628MOL0     H86611   3.202   5.176   2.938 -0.3803 -1.2170  1.3623
  628MOL0     H86612   3.142   5.344   2.886 -2.2401  0.1137  0.2663
  628MOL0     H86613   2.934   5.218   2.652 -3.1965  0.1224  0.5281
  628MOL0     H86614   2.618   5.066   2.724  1.3390 -1.2158 -0.3942
  628MOL0     H86615   2.700   5.179   2.624 -3.4814  1.9891 -0.8350
  628MOL0     H86616   2.514   5.227   2.820 -1.4648  1.6716 -1.4013
  628MOL0     H86617   2.633   5.360   2.826 -1.3369  1.7756 -1.2178
  628MOL0     H86618   2.612   5.444   2.613  1.0646  0.5585  1.5892
  628MOL0     H86619   2.496   5.318   2.555 -0.3259  2.6068 -1.3093
  628MOL0     H86620   2.436   5.498   2.783  0.3324  2.3647 -0.9988
  628MOL0     H86621   2.376   5.523   2.617  1.1695  2.7841  1.7361
  628MOL0     H86622   2.175   5.549   2.598  1.9989 -2.1819 -0.1318
  628MOL0     H86623   1.850   5.639   2.562 -1.7413 -0.1381 -3.3928
  628MOL0     H86624   1.910   5.564   2.422  0.4887  1.6844 -0.2681
  628MOL0     H86625   2.011   5.665   2.520 -1.8757  2.3662  1.6369
  628MOL0     H86626   1.442   5.265   2.693  0.4750 -0.1911  0.6155
  628MOL0     H86627   1.253   5.130   2.588 -0.8157 -0.0344 -2.3624
  628MOL0     H86628   1.350   4.894   2.219  0.9963 -1.5085 -0.1765
  628MOL0     H86629   1.369   4.762   2.328  0.3525  0.1740 -0.0407
  628MOL0     H86630   1.114   4.737   2.326 -0.6832  1.6969  1.1729
  628MOL0     H86631   1.125   4.878   2.219  3.8002  1.3192 -1.9257
  628MOL0     H86632   1.289   4.633   2.136  0.7642  1.0723 -1.5058
  628MOL0     H86633   1.230   4.775   2.042  0.7860 -0.3791 -0.0556
  628MOL0     H86634   0.999   4.699   2.067  2.1916  2.4365 -1.2273
  628MOL0     H86635   1.036   4.568   2.164 -1.0139  1.1425 -0.3917
  628MOL0     H86636   1.189   4.463   1.981 -1.0057 -0.9503 -0.3726
  628MOL0     H86637   1.010   4.460   1.977  1.5912 -1.0399  0.9250
  628MOL0     H86638   1.229   4.593   1.817  0.6971  0.0922  0.7766
  628MOL0     H86639   1.070   4.675   1.810  1.7426  1.4474  1.5927
  628MOL0     H86640   0.974   4.438   1.723 -0.0188  1.4424 -0.9481
  628MOL0     H86641   1.136   4.388   1.754 -0.1191  0.8269  3.6654
  628MOL0     H86642   1.217   4.552   1.566 -0.0068 -0.5453  1.5960
  628MOL0     H86643   1.045   4.598   1.557 -0.0262 -0.2719  1.5244
  628MOL0     H86644   1.546   4.932   2.347 -1.7748 -2.4412  0.8344
  628MOL0     H86645   1.730   5.093   2.447  0.6293 -3.3089  2.2254
  628MOL0     H86646   1.892   5.175   2.756 -0.1674 -0.8220 -2.0684
  628MOL0     H86647   2.115   5.187   2.831  1.8740 -1.2271 -1.8031
  628MOL0     H86648   3.854   4.590   2.988 -1.3504 -0.0469 -0.9018
  628MOL0     H86649   3.918   4.431   3.171 -1.3154 -2.6834  1.5321
  628MOL0     H86650   3.769   4.053   3.364  0.3651 -0.2101 -1.1069
  628MOL0     H86651   3.761   3.907   3.548 -0.1380 -1.8316 -0.3811
  628MOL0     H86652   4.056   3.563   3.567  0.5366  1.2113 -1.4445
  628MOL0     H86653   4.144   3.685   3.658  1.5783 -2.5334 -0.3430
  628MOL0     H86654   3.923   3.510   3.771 -0.0714  0.0838 -1.7828
  628MOL0     H86655   4.001   3.642   3.862  2.8371 -1.6860  3.2232
  628MOL0     H86656   4.203   3.489   3.740  0.3429 -0.6412 -0.3683
  628MOL0     H86657   4.181   3.545   3.913 -2.8833  0.3855  1.4632
  628MOL0     H86658   4.074   3.288   3.783 -0.4184 -2.1300  2.2623
  628MOL0     H86659   4.011   3.359   3.931 -1.3195  2.2563 -1.7072
  628MOL0     H86660   4.387   3.235   4.083 -1.5044 -1.5008  0.1961
  628MOL0     H86661   4.140   3.732   3.410  1.1207  1.8292 -3.1669
  628MOL0     H86662   4.236   3.790   3.239  0.8117  1.0461  1.7640
  628MOL0     H86663   4.128   3.807   3.107 -1.6903 -3.6998  2.5054
  628MOL0     H86664   4.216   3.948   3.169 -0.5193 -0.0487 -0.0662
  629MOL0     O86665   9.672   6.086   5.733  0.3848 -1.0061  0.1211
  629MOL0     C86666   9.547   6.080   5.761 -0.3707 -0.0313  0.1665
  629MOL0     O86667   9.456   6.003   5.700 -0.1711 -0.2530  0.3278
  629MOL0     C86668   9.490   5.876   5.654  0.0081  0.2160  0.0025
  629MOL0     C86669   9.573   5.793   5.735  0.1582  1.0359  0.3574
  629MOL0     C86670   9.598   5.663   5.690  0.9154  0.0513  0.2982
  629MOL0     C86671   9.534   5.609   5.576  0.3176 -1.3842 -0.0802
  629MOL0     O86672   9.549   5.476   5.561  0.0041  0.3101  0.0364
  629MOL0     C86673   9.428   5.408   5.601 -0.2568 -0.5087  0.6540
  629MOL0     C86674   9.474   5.322   5.723 -0.0116  0.5785 -0.7882
  629MOL0     C86675   9.359   5.241   5.780  0.5008  0.4795  0.0616
  629MOL0     C86676   9.271   5.168   5.675 -0.0384 -0.4207 -0.4379
  629MOL0     C86677   9.193   5.046   5.735 -0.4772 -0.0051  0.7189
  629MOL0     C86678   9.073   5.086   5.821  0.5892 -0.3336 -0.1155
  629MOL0     C86679   8.991   4.956   5.851  0.1229  0.2003  0.0870
  629MOL0     C86680   8.899   4.901   5.743  0.1303  0.1606 -0.3891
  629MOL0     N86681   8.812   4.798   5.789 -0.4087  0.0663  0.4142
  629MOL0     C86682   8.844   4.669   5.822 -1.3115 -0.5780  0.3777
  629MOL0     C86683   8.722   4.606   5.829 -0.2595  0.4551  0.7919
  629MOL0     C86684   8.691   4.467   5.875 -0.3618  0.3671 -0.6072
  629MOL0     C86685   8.630   4.388   5.762  0.1738  0.4912  1.1243
  629MOL0     C86686   8.562   4.268   5.813 -0.2806  0.6438  0.0717
  629MOL0     C86687   8.509   4.180   5.705  0.4286  0.2625  0.0386
  629MOL0     O86688   8.443   4.077   5.779  0.1597  0.2881 -1.0757
  629MOL0     C86689   8.429   3.961   5.715  0.6840 -1.0114  0.1200
  629MOL0     C86690   8.359   3.944   5.590  0.8666  0.5272 -0.4001
  629MOL0     C86691   8.335   3.816   5.544  1.7042  0.4600 -0.3102
  629MOL0     C86692   8.277   3.799   5.401  0.5863  0.5469 -0.3396
  629MOL0     C86693   8.367   3.705   5.621  0.2615  0.2616  0.2203
  629MOL0     C86694   8.363   3.563   5.572  0.2685 -0.4911  0.2090
  629MOL0     O86695   8.450   3.476   5.628  0.1463  0.0931  0.5353
  629MOL0     C86696   8.435   3.337   5.626 -0.5536  0.0335 -0.0166
  629MOL0     C86697   8.536   3.263   5.684 -0.1430  0.1011 -0.9875
  629MOL0     C86698   8.539   3.133   5.710 -0.2765  0.0962  0.1123
  629MOL0     C86699   8.440   3.046   5.663  0.2348 -0.3559 -0.3668
  629MOL0     O86700   8.451   2.920   5.693  0.2186 -0.3211  0.5319
  629MOL0     C86701   8.328   2.854   5.746 -0.1434 -0.4266  0.1550
  629MOL0     C86702   8.279   2.763   5.639 -0.0059  0.1184  0.8081
  629MOL0     C86703   8.366   2.641   5.631  0.2885  0.0790 -1.0837
  629MOL0     C86704   8.328   2.549   5.513 -0.5393  0.3363  0.3988
  629MOL0     C86705   8.410   2.414   5.522  0.0553 -0.7242  0.2180
  629MOL0     C86706   8.564   2.439   5.484 -1.2765  0.6644 -1.2809
  629MOL0     C86707   8.635   2.294   5.501 -0.5413 -1.3335  0.2593
  629MOL0     C86708   8.792   2.306   5.474 -0.7734 -0.3372 -0.2847
  629MOL0    Cl86709   8.862   2.408   5.599  0.5408 -0.1592 -0.1777
  629MOL0     C86710   8.320   3.115   5.604 -0.9621  1.2654 -0.3302
  629MOL0     C86711   8.323   3.259   5.589  0.3382 -0.4280  0.2239
  629MOL0     O86712   8.271   3.533   5.499  0.0413 -0.2299  0.0370
  629MOL0     C86713   8.438   3.723   5.737  0.4617 -0.7975 -0.6043
  629MOL0     C86714   8.468   3.848   5.784  0.3180  0.4827 -0.6001
  629MOL0     N86715   8.626   4.697   5.783  0.1350  0.2485 -0.0854
  629MOL0     N86716   8.685   4.802   5.758 -0.3849 -0.2640  0.3140
  629MOL0     C86717   9.457   5.702   5.498 -0.2347  0.4679  0.1658
  629MOL0     C86718   9.446   5.836   5.528  0.0388  0.0875 -0.6836
  629MOL0     C86719   9.499   6.175   5.845  0.3258 -0.0797  0.4383
  629MOL0     C86720   9.423   6.277   5.787  0.8025 -1.1474  0.5110
  629MOL0     C86721   9.381   6.384   5.861  0.3152  0.6583 -0.8342
  629MOL0     C86722   9.413   6.394   6.001 -0.1056  0.2648 -0.2601
  629MOL0     O86723   9.384   6.507   6.068 -0.6647 -1.0897  0.2198
  629MOL0     C86724   9.498   6.595   6.084  0.7369  0.5424  0.4422
  629MOL0     C86725   9.458   6.730   6.146  1.0308  1.0244  0.4832
  629MOL0     C86726   9.567   6.804   6.217 -0.0138 -0.6607  0.0305
  629MOL0     C86727   9.524   6.938   6.276 -0.1916  0.9555  0.9568
  629MOL0     C86728   9.490   7.034   6.169 -0.5252 -0.5293  0.7202
  629MOL0     C86729   9.469   7.112   6.075 -0.6386 -0.3870 -0.8933
  629MOL0     C86730   9.494   6.290   6.061 -0.8346 -0.3613 -0.4872
  629MOL0     C86731   9.540   6.181   5.988 -0.1578 -0.2131  1.0479
  629MOL0     C86732   9.625   6.071   6.043 -0.9720 -0.4165 -0.0607
  629MOL0     H86733   9.618   5.818   5.831 -1.4172 -0.3964  1.5285
  629MOL0     H86734   9.655   5.597   5.755  0.3606 -0.0177  0.7154
  629MOL0     H86735   9.390   5.346   5.519 -0.2109 -1.8192  1.5941
  629MOL0     H86736   9.348   5.479   5.626 -1.2414 -0.1423 -2.9891
  629MOL0     H86737   9.553   5.248   5.708 -1.7938 -1.3246 -1.1509
  629MOL0     H86738   9.511   5.377   5.810  1.3731  0.5854 -1.3585
  629MOL0     H86739   9.396   5.175   5.859 -0.3068 -0.0594  0.0081
  629MOL0     H86740   9.292   5.302   5.842 -1.4649 -0.8720 -0.6015
  629MOL0     H86741   9.187   5.230   5.641 -1.5338 -1.0434  1.8520
  629MOL0     H86742   9.332   5.124   5.597  1.6271 -0.1444  0.6642
  629MOL0     H86743   9.261   4.976   5.784  1.2662  0.1143 -1.3886
  629MOL0     H86744   9.172   4.986   5.645  0.9148  3.0351 -1.8453
  629MOL0     H86745   9.103   5.138   5.912 -0.8122 -2.6072  1.7407
  629MOL0     H86746   9.005   5.154   5.769 -2.8222 -1.6087  2.3456
  629MOL0     H86747   8.926   4.980   5.935  0.1610 -3.1979  1.2471
  629MOL0     H86748   9.061   4.880   5.888 -0.3910 -0.6537 -0.6491
  629MOL0     H86749   8.840   4.985   5.704  1.0007  2.0218  2.0525
  629MOL0     H86750   8.959   4.866   5.659 -0.5371  0.0939 -0.8453
  629MOL0     H86751   8.944   4.626   5.827 -1.6484 -1.3203  0.8159
  629MOL0     H86752   8.607   4.480   5.945 -1.0232  0.5262 -1.4202
  629MOL0     H86753   8.771   4.416   5.929  1.4641  1.6569 -1.9793
  629MOL0     H86754   8.553   4.449   5.713 -1.4725 -1.6620  0.8791
  629MOL0     H86755   8.701   4.359   5.685 -1.7594 -1.8124  0.0771
  629MOL0     H86756   8.635   4.223   5.881 -3.4403 -3.9002  0.8444
  629MOL0     H86757   8.475   4.296   5.873 -0.3257  0.5824  0.0333
  629MOL0     H86758   8.451   4.229   5.626 -1.3656 -2.5180 -0.5393
  629MOL0     H86759   8.590   4.124   5.658 -0.3330 -3.4519  2.6958
  629MOL0     H86760   8.301   4.026   5.548  2.1798  3.0082  2.2301
  629MOL0     H86761   8.341   3.733   5.341  2.6880  0.1411  2.1839
  629MOL0     H86762   8.274   3.897   5.352 -1.3817  0.1299 -1.1319
  629MOL0     H86763   8.173   3.767   5.405  0.5062  0.5350 -1.7823
  629MOL0     H86764   8.613   3.326   5.727  0.2868 -0.6054 -0.6925
  629MOL0     H86765   8.617   3.079   5.762 -0.2526 -0.2015 -0.2289
  629MOL0     H86766   8.357   2.799   5.836  1.2986 -1.7530 -1.0773
  629MOL0     H86767   8.246   2.921   5.775  1.0876 -0.2060  3.5319
  629MOL0     H86768   8.181   2.724   5.669 -0.5774  2.2841  1.9429
  629MOL0     H86769   8.272   2.825   5.549  2.2552 -0.5430  0.1030
  629MOL0     H86770   8.357   2.581   5.722 -1.3982 -1.1662 -2.0163
  629MOL0     H86771   8.468   2.679   5.619  0.0340  1.3054  0.3473
  629MOL0     H86772   8.355   2.603   5.422  0.4912  0.2771  0.6614
  629MOL0     H86773   8.226   2.510   5.502  1.3714 -4.4734 -4.2106
  629MOL0     H86774   8.397   2.353   5.612 -1.5577 -4.1569 -2.1184
  629MOL0     H86775   8.369   2.352   5.441  0.8335  0.6085 -1.2467
  629MOL0     H86776   8.612   2.514   5.547 -0.6615 -2.3843  2.2094
  629MOL0     H86777   8.577   2.479   5.383  2.1751  1.7418 -0.5502
  629MOL0     H86778   8.603   2.224   5.423 -0.2763 -2.3485  1.0424
  629MOL0     H86779   8.608   2.259   5.601 -0.5205 -2.2630 -0.0466
  629MOL0     H86780   8.804   2.345   5.372 -0.8673 -3.2085 -1.5016
  629MOL0     H86781   8.844   2.210   5.483 -2.1860 -1.0151  1.1365
  629MOL0     H86782   8.233   3.061   5.567  0.3996 -0.3527 -1.3220
  629MOL0     H86783   8.239   3.310   5.543  1.2977  3.8305  2.6610
  629MOL0     H86784   8.487   3.645   5.794  2.0807  2.7427  3.4159
  629MOL0     H86785   8.523   3.863   5.876 -1.4360 -0.3893  0.6541
  629MOL0     H86786   9.413   5.661   5.407  0.0862 -0.2955  0.3454
  629MOL0     H86787   9.385   5.899   5.464  0.5286 -0.8869 -2.1811
  629MOL0     H86788   9.396   6.275   5.682 -4.4089  0.9000  1.5042
  629MOL0     H86789   9.318   6.463   5.822 -0.0052  1.5375  1.3268
  629MOL0     H86790   9.558   6.542   6.159  3.3014  0.5002 -1.5281
  629MOL0     H86791   9.545   6.606   5.986  0.0983  0.5206  0.1309
  629MOL0     H86792   9.379   6.718   6.221  0.3167 -1.3276 -0.5573
  629MOL0     H86793   9.418   6.796   6.068  1.0515  0.0692 -0.3533
  629MOL0     H86794   9.594   6.739   6.301  0.6710 -0.8840 -0.3590
  629MOL0     H86795   9.638   6.830   6.139 -1.9968 -1.9613 -2.3388
  629MOL0     H86796   9.614   6.983   6.320  2.0208 -1.5705 -0.7097
  629MOL0     H86797   9.448   6.913   6.351 -2.5126 -0.7920 -1.7769
  629MOL0     H86798   9.445   7.191   6.007 -4.2494  1.4689  2.1577
  629MOL0     H86799   9.535   6.298   6.161 -0.3466 -0.0563 -0.7065
  629MOL0     H86800   9.631   6.076   6.152 -3.6927  0.8707  0.1026
  629MOL0     H86801   9.586   5.977   6.003 -1.2774  0.4398 -1.8773
  629MOL0     H86802   9.726   6.071   6.002 -0.8185 -3.8194  0.0095
  630MOL0     O86803   5.935   5.119  11.275  0.7471 -0.5035  0.1732
  630MOL0     C86804   6.037   5.157  11.332 -0.2609  0.1782 -0.1659
  630MOL0     O86805   6.056   5.143  11.462 -0.1965 -0.4726 -0.1062
  630MOL0     C86806   5.951   5.110  11.541  0.1867  0.5362 -0.2367
  630MOL0     C86807   5.961   5.000  11.628  0.5392  0.5640 -0.2553
  630MOL0     C86808   5.848   4.962  11.701  0.0114  0.6350  0.7587
  630MOL0     C86809   5.735   5.043  11.714  0.4035 -0.5823  0.7573
  630MOL0     O86810   5.637   4.997  11.809 -0.0869 -0.4077 -0.2632
  630MOL0     C86811   5.546   5.085  11.880  0.9953  0.3124  0.1848
  630MOL0     C86812   5.422   5.109  11.792 -0.5546  0.4391  0.0291
  630MOL0     C86813   5.319   5.178  11.877 -0.4687 -0.1414 -0.7046
  630MOL0     C86814   5.260   5.307  11.812  0.2781  0.0847  0.1992
  630MOL0     C86815   5.170   5.392  11.894  0.5141 -0.6029  0.0748
  630MOL0     C86816   5.146   5.539  11.863  0.5641 -0.2098  1.1382
  630MOL0     C86817   5.053   5.594  11.971 -0.1509 -0.3236 -0.7751
  630MOL0     C86818   4.993   5.726  11.935 -0.4158 -0.0597  0.2706
  630MOL0     N86819   4.939   5.791  12.053 -0.2573 -0.1540 -0.0543
  630MOL0     C86820   4.879   5.728  12.164  1.5739  0.5900 -0.5082
  630MOL0     C86821   4.901   5.802  12.272  0.1029  0.8198 -0.8489
  630MOL0     C86822   4.844   5.765  12.412  0.0244 -0.0075  0.3756
  630MOL0     C86823   4.947   5.670  12.472 -0.6613  0.0120  1.0593
  630MOL0     C86824   4.940   5.525  12.415  0.5268  0.3482 -0.2977
  630MOL0     C86825   5.016   5.423  12.508 -0.2310  0.0474 -0.2919
  630MOL0     O86826   4.923   5.389  12.613  0.9695 -0.2782  1.0515
  630MOL0     C86827   4.963   5.282  12.687  0.0133  0.0744 -0.4365
  630MOL0     C86828   4.892   5.272  12.806  0.1521 -0.0635 -0.0297
  630MOL0     C86829   4.901   5.152  12.877 -1.1688 -1.2684 -0.0859
  630MOL0     C86830   4.793   5.141  12.988 -0.5763  0.4966  0.6677
  630MOL0     C86831   4.993   5.048  12.843  0.3282  0.4195  0.2512
  630MOL0     C86832   5.010   4.917  12.922 -0.0192  0.4326 -0.7477
  630MOL0     O86833   4.959   4.912  13.049 -0.8178 -0.0170 -0.4359
  630MOL0     C86834   4.982   4.793  13.115  0.7211 -0.2465  0.5779
  630MOL0     C86835   5.111   4.741  13.146 -0.2444 -0.1960  0.7095
  630MOL0     C86836   5.128   4.626  13.215  1.2578 -0.3434  1.0565
  630MOL0     C86837   5.017   4.543  13.254  0.6986 -0.5746 -0.1777
  630MOL0     O86838   5.028   4.422  13.318  0.4281  0.1497 -0.3824
  630MOL0     C86839   5.087   4.433  13.443 -0.1106  0.1318 -0.4835
  630MOL0     C86840   5.216   4.344  13.451  0.8702 -0.4993 -0.0298
  630MOL0     C86841   5.179   4.206  13.414 -0.3412  0.2618  0.4676
  630MOL0     C86842   5.313   4.115  13.396  0.1398  0.0927 -0.4577
  630MOL0     C86843   5.277   3.967  13.382 -0.5247  0.3133  0.8774
  630MOL0     C86844   5.225   3.920  13.248  0.0608 -0.1368  0.0762
  630MOL0     C86845   5.210   3.763  13.243  0.4598  0.8308 -0.0761
  630MOL0     C86846   5.207   3.697  13.108  0.4281 -0.1040  0.4067
  630MOL0    Cl86847   5.360   3.712  13.033 -0.4821 -0.2644  0.3330
  630MOL0     C86848   4.888   4.592  13.226 -0.2580 -0.3730 -0.3852
  630MOL0     C86849   4.874   4.722  13.160  0.5092  1.2486 -0.9093
  630MOL0     O86850   5.062   4.824  12.867  0.5929  0.4531  0.7122
  630MOL0     C86851   5.070   5.063  12.722  0.4499  0.3199 -0.0539
  630MOL0     C86852   5.061   5.180  12.648  0.6271  0.6282  0.6094
  630MOL0     N86853   4.969   5.917  12.231 -0.5484 -0.4402  0.1335
  630MOL0     N86854   5.005   5.904  12.105 -0.2525 -0.5405  0.4213
  630MOL0     C86855   5.733   5.163  11.641 -0.5646 -0.2790  0.6102
  630MOL0     C86856   5.839   5.189  11.551 -0.6043 -0.1268 -0.3769
  630MOL0     C86857   6.131   5.240  11.250 -0.4999  0.1116 -0.6537
  630MOL0     C86858   6.119   5.230  11.108 -0.4754 -0.1129 -0.2264
  630MOL0     C86859   6.201   5.310  11.028  0.7376 -0.4041 -0.4760
  630MOL0     C86860   6.289   5.395  11.085 -0.0924  0.3511  0.3235
  630MOL0     O86861   6.359   5.466  11.009  0.1985 -0.7092  0.5734
  630MOL0     C86862   6.351   5.613  11.020  0.2890  0.7792  0.2684
  630MOL0     C86863   6.479   5.659  10.950  0.2428 -0.4363  0.0399
  630MOL0     C86864   6.464   5.655  10.796 -0.3836  0.4466 -0.0292
  630MOL0     C86865   6.574   5.718  10.727 -1.3332  0.2095  0.3101
  630MOL0     C86866   6.592   5.693  10.582  0.1470  0.6268 -0.4014
  630MOL0     C86867   6.615   5.673  10.466  0.4167 -0.4529  0.2341
  630MOL0     C86868   6.310   5.405  11.214  0.2169  0.5666 -0.8956
  630MOL0     C86869   6.239   5.320  11.300  0.3378  0.1377 -0.2329
  630MOL0     C86870   6.267   5.331  11.442  0.1192 -0.0989 -0.9257
  630MOL0     H86871   6.054   4.945  11.628  1.2756  1.7835 -1.0193
  630MOL0     H86872   5.858   4.878  11.769 -0.3302 -1.5031 -1.6704
  630MOL0     H86873   5.591   5.182  11.902  0.7962  0.4242  0.1029
  630MOL0     H86874   5.528   5.050  11.982  0.1663  2.4897  0.8388
  630MOL0     H86875   5.451   5.170  11.706 -0.7719  2.0477  1.0356
  630MOL0     H86876   5.386   5.011  11.761 -1.5582 -1.2626  5.5116
  630MOL0     H86877   5.237   5.111  11.904 -1.3778  1.3909  0.4609
  630MOL0     H86878   5.358   5.204  11.976 -0.3498  0.4946 -0.9155
  630MOL0     H86879   5.342   5.364  11.768 -1.1228 -0.0354 -2.7498
  630MOL0     H86880   5.184   5.286  11.737 -0.7083 -1.1610  1.4856
  630MOL0     H86881   5.211   5.386  11.995 -1.6228  3.2868  1.3741
  630MOL0     H86882   5.073   5.341  11.893  0.9185 -1.3801  0.3084
  630MOL0     H86883   5.238   5.597  11.864  2.3591 -2.8528 -0.2838
  630MOL0     H86884   5.099   5.549  11.765 -1.0880 -0.5802  1.8458
  630MOL0     H86885   5.119   5.617  12.055 -2.0268  0.2256  0.6161
  630MOL0     H86886   4.975   5.524  12.005  0.0803 -1.5528 -2.6262
  630MOL0     H86887   5.074   5.784  11.890  0.2954  0.4908  2.1433
  630MOL0     H86888   4.921   5.720  11.853  2.7221  0.4367 -2.7859
  630MOL0     H86889   4.825   5.634  12.156  2.5171  0.1249 -1.6851
  630MOL0     H86890   4.744   5.725  12.394  0.2121  0.3978 -1.8777
  630MOL0     H86891   4.832   5.853  12.475 -2.7003  0.3747 -0.5475
  630MOL0     H86892   5.048   5.701  12.443 -1.4687  0.1495 -1.9537
  630MOL0     H86893   4.939   5.664  12.581 -3.0308 -1.6500  0.8745
  630MOL0     H86894   4.837   5.492  12.402  1.0811 -1.0577 -1.3825
  630MOL0     H86895   4.994   5.507  12.322  0.0530 -1.3811 -0.2674
  630MOL0     H86896   5.061   5.344  12.448 -0.9545 -2.2048  1.9934
  630MOL0     H86897   5.098   5.475  12.557  0.6910 -0.9875 -0.7130
  630MOL0     H86898   4.808   5.336  12.828  0.4948  0.0177  1.0980
  630MOL0     H86899   4.766   5.036  13.004  0.7818  0.0655  0.2147
  630MOL0     H86900   4.707   5.205  12.964 -1.9184 -0.9609  1.3810
  630MOL0     H86901   4.819   5.175  13.089 -0.5162 -3.9246  2.3576
  630MOL0     H86902   5.191   4.798  13.101 -1.6855  0.6523 -0.9173
  630MOL0     H86903   5.232   4.601  13.236  0.4441 -3.1020  2.3061
  630MOL0     H86904   5.106   4.535  13.478  1.8374 -0.5818  0.7348
  630MOL0     H86905   5.024   4.390  13.522  1.7093 -5.2318 -1.5542
  630MOL0     H86906   5.281   4.393  13.378 -0.4254  1.0394 -0.1888
  630MOL0     H86907   5.258   4.338  13.552  1.1420  0.4889 -0.0761
  630MOL0     H86908   5.128   4.204  13.317  1.8158  0.9477 -0.7746
  630MOL0     H86909   5.107   4.156  13.479 -1.0377 -2.9521 -2.4350
  630MOL0     H86910   5.376   4.136  13.483  2.2107 -2.1434 -1.2911
  630MOL0     H86911   5.378   4.155  13.318  2.5563  0.4206  1.5884
  630MOL0     H86912   5.364   3.906  13.408 -1.6948 -1.2451  1.3017
  630MOL0     H86913   5.210   3.938  13.463 -0.5041  1.7170  1.4148
  630MOL0     H86914   5.299   3.942  13.171 -0.6060 -2.0871 -1.1935
  630MOL0     H86915   5.134   3.978  13.227  0.9036  1.3356  0.3789
  630MOL0     H86916   5.108   3.739  13.276 -0.6943  2.2692 -2.3562
  630MOL0     H86917   5.287   3.707  13.297  0.4908 -0.3153 -1.2704
  630MOL0     H86918   5.141   3.747  13.037 -0.0083 -1.8027 -0.4439
  630MOL0     H86919   5.181   3.591  13.100 -2.4826  0.6458 -1.5804
  630MOL0     H86920   4.798   4.538  13.252  1.3275 -2.2108  1.5664
  630MOL0     H86921   4.776   4.756  13.127 -0.7228 -0.8749  0.2200
  630MOL0     H86922   5.133   4.981  12.688  0.8548  0.0029  1.3963
  630MOL0     H86923   5.126   5.186  12.561 -0.3656  1.5936 -0.1096
  630MOL0     H86924   5.653   5.236  11.630  1.2676  1.4019 -3.3061
  630MOL0     H86925   5.836   5.273  11.482  1.0937 -2.0313 -2.9428
  630MOL0     H86926   6.041   5.163  11.072 -0.0491 -1.7616  1.7424
  630MOL0     H86927   6.212   5.315  10.920 -0.2909  2.4631 -0.5231
  630MOL0     H86928   6.259   5.647  10.972 -0.5347  0.1808  1.3888
  630MOL0     H86929   6.350   5.648  11.124 -0.3901 -1.9455  1.2768
  630MOL0     H86930   6.572   5.620  10.992  1.7966  2.3950 -0.5200
  630MOL0     H86931   6.497   5.763  10.979  2.8749 -0.8120 -0.0086
  630MOL0     H86932   6.458   5.548  10.778  0.2750  0.1245  1.5297
  630MOL0     H86933   6.369   5.701  10.764 -0.0588  0.3494 -1.1906
  630MOL0     H86934   6.664   5.680  10.774 -0.8287  0.9249 -0.0515
  630MOL0     H86935   6.568   5.824  10.753 -2.9259  0.0772  0.5621
  630MOL0     H86936   6.617   5.658  10.360 -2.2612 -1.7099  0.2653
  630MOL0     H86937   6.382   5.479  11.248  0.3014 -0.2576  0.8253
  630MOL0     H86938   6.356   5.390  11.469  0.3843 -1.0600  0.3982
  630MOL0     H86939   6.179   5.368  11.495  0.8061  1.6043 -0.8944
  630MOL0     H86940   6.302   5.233  11.475  1.3099  1.0376  1.4613
  631MOL0     O86941  10.359   2.353   7.017 -0.9263 -0.6813 -0.3592
  631MOL0     C86942  10.398   2.303   7.127  1.1590  0.3950 -0.3856
  631MOL0     O86943  10.417   2.373   7.246 -0.7049 -0.2769  0.2071
  631MOL0     C86944  10.502   2.480   7.249 -0.1372  0.0321  0.0895
  631MOL0     C86945  10.520   2.574   7.147  0.0145 -0.6429  0.0071
  631MOL0     C86946  10.603   2.690   7.172 -0.8297 -0.6292  0.1176
  631MOL0     C86947  10.637   2.730   7.303 -0.4364  0.1439 -0.3678
  631MOL0     O86948  10.710   2.846   7.326 -0.4305 -0.2877 -0.3658
  631MOL0     C86949  10.712   2.951   7.226 -0.3238  0.0063 -0.1852
  631MOL0     C86950  10.742   3.094   7.274  0.2626  0.6906 -0.9547
  631MOL0     C86951  10.640   3.133   7.383 -0.2738  0.1485  0.0988
  631MOL0     C86952  10.689   3.257   7.462  0.0644  0.7480  1.0477
  631MOL0     C86953  10.665   3.392   7.380 -0.8939  1.1689  0.6168
  631MOL0     C86954  10.705   3.508   7.467 -0.2168  0.5703  0.4498
  631MOL0     C86955  10.595   3.550   7.567  0.7756  0.1839 -0.1771
  631MOL0     C86956  10.601   3.688   7.631 -0.6804 -0.1734  0.3720
  631MOL0     N86957  10.620   3.793   7.528  0.7503 -0.5420 -0.1912
  631MOL0     C86958  10.515   3.844   7.448  0.5302 -0.5778 -0.4755
  631MOL0     C86959  10.577   3.947   7.387 -0.4348  0.3775  0.8411
  631MOL0     C86960  10.509   4.037   7.294  0.2876 -0.9324 -0.3977
  631MOL0     C86961  10.581   4.063   7.160 -0.0266 -1.1538  0.7270
  631MOL0     C86962  10.502   4.161   7.073 -0.4354 -0.4112  0.4365
  631MOL0     C86963  10.360   4.116   7.043 -0.2281 -0.4786  0.1665
  631MOL0     O86964  10.300   4.210   6.951  0.4332 -0.4654  0.1613
  631MOL0     C86965  10.315   4.193   6.816  1.4440  1.0036 -1.2199
  631MOL0     C86966  10.255   4.290   6.733  0.1879  0.6617  0.9473
  631MOL0     C86967  10.247   4.282   6.590 -0.7154  0.0719 -0.5560
  631MOL0     C86968  10.176   4.399   6.523  0.5152  0.3246  0.4418
  631MOL0     C86969  10.322   4.170   6.531 -0.2728 -0.7740  0.1331
  631MOL0     C86970  10.319   4.150   6.387  0.1313 -0.3841 -0.0439
  631MOL0     O86971  10.338   4.023   6.341 -0.0348  0.2412  0.6230
  631MOL0     C86972  10.341   4.008   6.204  1.0083 -0.3707  0.4502
  631MOL0     C86973  10.465   3.981   6.142  0.1122 -0.3834  0.1340
  631MOL0     C86974  10.483   3.962   6.006  0.1163 -0.2005  0.8822
  631MOL0     C86975  10.366   3.966   5.927  0.4006 -0.1276 -0.0997
  631MOL0     O86976  10.363   3.943   5.795 -0.3176 -0.4181  0.2939
  631MOL0     C86977  10.479   3.940   5.717  1.3120  0.4282 -0.0828
  631MOL0     C86978  10.423   3.895   5.579  0.0602  0.1842 -0.0375
  631MOL0     C86979  10.329   3.765   5.590 -0.3870  0.3440 -0.4405
  631MOL0     C86980  10.329   3.687   5.456  0.3649  0.4750  0.3579
  631MOL0     C86981  10.236   3.556   5.459 -0.1319  0.0264 -0.6254
  631MOL0     C86982  10.307   3.438   5.535  0.7265 -0.3472 -0.1191
  631MOL0     C86983  10.408   3.359   5.450 -0.2868 -0.2387 -0.4226
  631MOL0     C86984  10.474   3.255   5.547 -0.3040  0.3449 -0.4631
  631MOL0    Cl86985  10.587   3.149   5.454  0.0564 -0.3581 -0.1253
  631MOL0     C86986  10.244   4.001   5.985  0.0113 -0.1748 -0.1507
  631MOL0     C86987  10.229   4.021   6.120 -0.1303 -0.1372 -0.6532
  631MOL0     O86988  10.295   4.245   6.321 -0.4557 -0.4505  0.5034
  631MOL0     C86989  10.380   4.069   6.615 -0.3630  0.4835 -0.0256
  631MOL0     C86990  10.374   4.078   6.756 -0.2389 -0.5359  0.7170
  631MOL0     N86991  10.695   3.971   7.448 -0.7792 -0.2323  0.0059
  631MOL0     N86992  10.728   3.882   7.536  0.8990  0.7704  0.7158
  631MOL0     C86993  10.619   2.625   7.400 -0.0708 -0.3402  0.4919
  631MOL0     C86994  10.558   2.504   7.370  0.3694  0.1838  0.2486
  631MOL0     C86995  10.407   2.158   7.158  0.1648  0.1768 -0.3040
  631MOL0     C86996  10.520   2.102   7.226  0.2956 -0.7436  0.2778
  631MOL0     C86997  10.521   1.966   7.250 -1.2221  0.0679  0.0814
  631MOL0     C86998  10.428   1.880   7.206  1.2075  0.8327  0.3750
  631MOL0     O86999  10.453   1.752   7.230 -0.0213  0.1871 -0.4482
  631MOL0     C87000  10.403   1.648   7.143  0.1320 -0.2995 -0.1667
  631MOL0     C87001  10.274   1.591   7.192  0.9804  0.1753  0.0822
  631MOL0     C87002  10.274   1.545   7.340 -0.7934  0.2183  0.7400
  631MOL0     C87003  10.132   1.489   7.378  0.0353 -0.5138  0.1512
  631MOL0     C87004  10.040   1.604   7.379 -1.0252 -0.7168 -0.5063
  631MOL0     C87005   9.992   1.715   7.385 -0.3248 -0.7460 -0.9379
  631MOL0     C87006  10.320   1.927   7.140 -0.6139 -0.0276  0.2445
  631MOL0     C87007  10.306   2.069   7.117  0.2286 -0.5102  0.3841
  631MOL0     C87008  10.191   2.117   7.039  0.5034 -0.8288  0.7234
  631MOL0     H87009  10.489   2.557   7.044 -1.3930 -0.5683  0.4090
  631MOL0     H87010  10.626   2.754   7.088 -1.6780 -0.5783 -0.0897
  631MOL0     H87011  10.617   2.955   7.171 -0.5619 -0.6043  0.1593
  631MOL0     H87012  10.794   2.931   7.157  4.6984  2.9995  4.0933
  631MOL0     H87013  10.844   3.102   7.313 -0.0481  0.4255 -0.0622
  631MOL0     H87014  10.736   3.156   7.184  3.0809  2.5622  0.0049
  631MOL0     H87015  10.547   3.162   7.333  0.1162  0.5576 -0.4012
  631MOL0     H87016  10.629   3.053   7.457  2.9108 -2.2535 -1.7476
  631MOL0     H87017  10.644   3.265   7.562 -1.2475  0.7694  0.4743
  631MOL0     H87018  10.798   3.244   7.469  0.2859  1.5670 -0.4287
  631MOL0     H87019  10.564   3.405   7.342  0.4368 -0.6316 -4.1643
  631MOL0     H87020  10.723   3.395   7.288  0.9450 -0.9164  1.6075
  631MOL0     H87021  10.800   3.488   7.517  1.6626 -0.1219 -3.0439
  631MOL0     H87022  10.732   3.596   7.408  4.0833  0.6211  2.1575
  631MOL0     H87023  10.574   3.466   7.634  0.0821 -0.7117 -1.4840
  631MOL0     H87024  10.501   3.560   7.511  0.2338  3.8575  1.0874
  631MOL0     H87025  10.514   3.717   7.690 -0.1274 -2.0598  2.2622
  631MOL0     H87026  10.689   3.687   7.697 -0.2401  0.4428 -0.1956
  631MOL0     H87027  10.416   3.803   7.430  0.0356  0.5208 -0.3752
  631MOL0     H87028  10.493   4.137   7.335 -2.3733 -0.4850 -2.2416
  631MOL0     H87029  10.416   3.986   7.269  0.0701 -0.9124  0.3531
  631MOL0     H87030  10.671   4.116   7.192  0.7443 -0.9613 -1.6173
  631MOL0     H87031  10.616   3.977   7.102 -0.1739 -1.2866  0.8342
  631MOL0     H87032  10.501   4.264   7.112  4.1738  0.8517 -2.0095
  631MOL0     H87033  10.562   4.176   6.983  1.3242 -0.2036  1.6033
  631MOL0     H87034  10.374   4.014   7.008  3.1278  0.2429 -1.0025
  631MOL0     H87035  10.301   4.124   7.135 -0.4542  0.7418 -0.0587
  631MOL0     H87036  10.220   4.384   6.775  1.1683  2.0557 -1.1711
  631MOL0     H87037  10.098   4.443   6.585 -2.3418 -0.6599 -2.1861
  631MOL0     H87038  10.118   4.369   6.435  0.0353  2.7385 -0.1388
  631MOL0     H87039  10.242   4.481   6.493 -1.0769  0.9586 -1.5677
  631MOL0     H87040  10.557   3.978   6.198  1.0577  2.4605 -1.0729
  631MOL0     H87041  10.580   3.973   5.960  0.4742 -0.2586  1.6131
  631MOL0     H87042  10.521   4.040   5.708 -0.1500  1.2106  1.0973
  631MOL0     H87043  10.549   3.866   5.756 -0.0158  0.4745  2.7078
  631MOL0     H87044  10.367   3.978   5.535 -1.7385  0.5463  2.6704
  631MOL0     H87045  10.502   3.877   5.507 -0.0787  2.6842 -0.8992
  631MOL0     H87046  10.225   3.787   5.616  0.0890  2.2442  0.0007
  631MOL0     H87047  10.367   3.706   5.674  0.3911  1.4786  0.0373
  631MOL0     H87048  10.432   3.667   5.428  1.2587  2.2871  2.0886
  631MOL0     H87049  10.289   3.759   5.385 -1.7334 -2.0529 -1.1985
  631MOL0     H87050  10.142   3.593   5.501 -1.2315  1.5498 -4.0661
  631MOL0     H87051  10.214   3.512   5.361  0.9103 -1.5020 -0.2125
  631MOL0     H87052  10.227   3.367   5.557 -1.7769  2.0097 -0.9794
  631MOL0     H87053  10.354   3.476   5.626  2.5015 -3.1563  0.2584
  631MOL0     H87054  10.480   3.422   5.397  1.1818 -2.5098 -1.2973
  631MOL0     H87055  10.355   3.296   5.378 -1.4317 -2.1220  1.9416
  631MOL0     H87056  10.396   3.186   5.582 -0.2666  0.2190 -0.6246
  631MOL0     H87057  10.540   3.309   5.614 -0.0911  0.9199 -1.1222
  631MOL0     H87058  10.156   4.001   5.922 -3.3324  0.4666  4.0152
  631MOL0     H87059  10.135   4.054   6.164  0.4557  0.3724  0.2309
  631MOL0     H87060  10.427   3.979   6.577 -0.0071  0.7954 -0.3306
  631MOL0     H87061  10.434   4.008   6.813  0.3654 -2.2599 -1.8624
  631MOL0     H87062  10.659   2.648   7.498 -0.5547 -1.8275  1.0629
  631MOL0     H87063  10.539   2.430   7.448  1.3825 -0.3457 -0.0029
  631MOL0     H87064  10.609   2.155   7.259 -0.2725  2.4920 -2.7506
  631MOL0     H87065  10.615   1.925   7.285  0.0196  2.4851 -0.2123
  631MOL0     H87066  10.375   1.676   7.041 -2.8189 -0.3577  0.5175
  631MOL0     H87067  10.479   1.570   7.133  0.4421  0.0839 -0.8489
  631MOL0     H87068  10.259   1.503   7.128  1.6398 -0.7641  1.1801
  631MOL0     H87069  10.195   1.661   7.163  1.8837  0.9653 -0.5574
  631MOL0     H87070  10.349   1.465   7.338  1.8343  2.5933 -0.7295
  631MOL0     H87071  10.304   1.624   7.409 -0.6653 -0.4307  1.4441
  631MOL0     H87072  10.143   1.453   7.481 -0.6455  1.1074  0.8443
  631MOL0     H87073  10.098   1.409   7.313  0.8745  0.3382 -1.4026
  631MOL0     H87074   9.949   1.813   7.391  1.7764  0.1732  0.3322
  631MOL0     H87075  10.249   1.858   7.095 -2.8676  2.8636 -0.9521
  631MOL0     H87076  10.215   2.151   6.938 -2.4388 -0.2911  0.0979
  631MOL0     H87077  10.105   2.051   7.023 -0.6285  0.3754  1.6283
  631MOL0     H87078  10.144   2.201   7.091  0.6703  2.0448 -3.3151
  632MOL0     O87079   1.387   5.433   9.772 -0.7034  0.5319  0.0615
  632MOL0     C87080   1.388   5.391   9.656  0.1826 -0.2223  0.7598
  632MOL0     O87081   1.334   5.458   9.548  0.4188  0.5210 -0.0153
  632MOL0     C87082   1.261   5.577   9.554 -0.0981  0.3678 -0.6617
  632MOL0     C87083   1.180   5.615   9.659 -1.3579 -0.6268 -0.3404
  632MOL0     C87084   1.108   5.736   9.659 -0.0192 -0.9126  0.0258
  632MOL0     C87085   1.102   5.811   9.546  0.3782 -0.4305 -0.7397
  632MOL0     O87086   1.014   5.915   9.551  0.0839 -0.3255  0.1952
  632MOL0     C87087   0.980   5.992   9.442  0.3629 -0.3390 -0.2455
  632MOL0     C87088   0.925   6.121   9.474  0.9819 -0.3887  0.2371
  632MOL0     C87089   0.828   6.105   9.592 -0.0494 -0.2425 -0.0552
  632MOL0     C87090   0.754   6.238   9.637  0.3379  0.7532  0.5547
  632MOL0     C87091   0.635   6.214   9.735  0.2829  0.3597  0.1882
  632MOL0     C87092   0.622   6.076   9.814  0.6961  0.2396  0.6601
  632MOL0     C87093   0.502   6.080   9.915  0.5369  0.4062 -0.2095
  632MOL0     C87094   0.432   5.951   9.961  0.0810  1.2776 -0.1901
  632MOL0     N87095   0.348   5.891   9.849 -0.2935 -0.7141 -0.2640
  632MOL0     C87096   0.235   5.947   9.793  0.0697  0.6918 -0.3288
  632MOL0     C87097   0.208   5.865   9.686  1.1816  0.3242  0.2932
  632MOL0     C87098   0.099   5.877   9.588  0.7752 -0.7836  1.1982
  632MOL0     C87099  -0.040   5.895   9.651  1.1006 -0.5528  0.6249
  632MOL0     C87100  -0.108   6.025   9.618  1.2728 -0.5868 -0.1672
  632MOL0     C87101  -0.240   6.044   9.693 -0.4412  1.2268 -0.3787
  632MOL0     O87102  -0.195   6.064   9.828  0.5679 -0.6083  0.5741
  632MOL0     C87103  -0.158   6.195   9.855  0.7443 -0.6103  0.5100
  632MOL0     C87104  -0.186   6.308   9.774 -0.7530 -0.5595 -0.1262
  632MOL0     C87105  -0.140   6.434   9.803 -0.0537  0.8928  0.1783
  632MOL0     C87106  -0.190   6.540   9.718  0.1725  0.0915 -0.5921
  632MOL0     C87107  -0.075   6.454   9.929 -0.2594 -0.9906 -0.6274
  632MOL0     C87108  -0.031   6.595   9.983  0.1299  0.1426  0.6599
  632MOL0     O87109   0.042   6.587  10.098 -0.6361 -0.3535  0.5907
  632MOL0     C87110   0.071   6.701  10.168 -0.1163  0.4171  0.4854
  632MOL0     C87111   0.202   6.713  10.206  0.8244 -0.0056 -1.8104
  632MOL0     C87112   0.237   6.824  10.281  1.0322  0.1187 -0.5689
  632MOL0     C87113   0.141   6.923  10.313 -0.0971 -0.5612  0.1068
  632MOL0     O87114   0.161   7.040  10.367 -0.3755 -0.5256  0.0154
  632MOL0     C87115   0.190   7.034  10.507 -0.8745  0.6156 -0.1109
  632MOL0     C87116   0.208   7.169  10.569 -0.2071  0.1140  0.0524
  632MOL0     C87117   0.075   7.244  10.565  0.1979  0.2506  0.4108
  632MOL0     C87118   0.109   7.393  10.567  0.4512  0.1387  0.6799
  632MOL0     C87119  -0.006   7.494  10.567 -0.1921  0.0255 -0.5084
  632MOL0     C87120   0.037   7.638  10.570  1.3436  0.1880 -0.2235
  632MOL0     C87121  -0.080   7.732  10.558  0.3197 -0.4823  0.6971
  632MOL0     C87122  -0.038   7.875  10.535 -0.3031 -0.0732 -0.1505
  632MOL0    Cl87123   0.021   7.961  10.686  0.2207 -0.0231 -0.3613
  632MOL0     C87124   0.013   6.894  10.271  0.5876 -0.8990 -0.0764
  632MOL0     C87125  -0.028   6.780  10.204 -0.8053 -0.2274  0.8983
  632MOL0     O87126  -0.037   6.691   9.907 -0.0907 -0.0400  0.4501
  632MOL0     C87127  -0.042   6.340  10.002  0.0653  0.5350 -0.3783
  632MOL0     C87128  -0.076   6.208   9.969 -0.6974 -0.2949  0.3601
  632MOL0     N87129   0.297   5.758   9.686  0.2525  1.2905  0.4553
  632MOL0     N87130   0.386   5.785   9.773  0.1843  0.2934  0.0726
  632MOL0     C87131   1.171   5.770   9.432 -0.0221 -0.0029  0.2728
  632MOL0     C87132   1.251   5.658   9.439  0.1433  0.4421 -0.5549
  632MOL0     C87133   1.451   5.261   9.631 -0.7942  0.4931 -0.5810
  632MOL0     C87134   1.422   5.209   9.506  0.3238  0.4098 -0.2677
  632MOL0     C87135   1.473   5.077   9.463  0.3769  0.1264 -0.0275
  632MOL0     C87136   1.543   4.999   9.554  0.9177 -0.1460 -0.3041
  632MOL0     O87137   1.607   4.888   9.502 -0.2154  0.0995 -0.8914
  632MOL0     C87138   1.740   4.851   9.540  0.9623  0.1811 -0.9137
  632MOL0     C87139   1.783   4.741   9.441  0.5278 -0.5559 -0.5515
  632MOL0     C87140   1.919   4.690   9.484  0.0799 -0.1870  0.1598
  632MOL0     C87141   1.988   4.635   9.355  0.5249  0.0383 -0.6111
  632MOL0     C87142   2.075   4.730   9.293  1.2680 -0.1218 -0.0239
  632MOL0     C87143   2.130   4.819   9.229  0.4254 -0.5724 -0.9723
  632MOL0     C87144   1.562   5.052   9.690  0.0144 -0.3388  0.1409
  632MOL0     C87145   1.511   5.173   9.728  0.1690 -0.4377  0.0121
  632MOL0     C87146   1.534   5.199   9.875  0.7984  0.2365  0.5205
  632MOL0     H87147   1.176   5.548   9.745 -0.1743 -1.0298 -0.5736
  632MOL0     H87148   1.051   5.764   9.747  1.5672 -0.4095  0.9491
  632MOL0     H87149   0.914   5.928   9.383  1.0144 -2.9983  1.6957
  632MOL0     H87150   1.071   6.007   9.382  0.5558  0.4460  0.2243
  632MOL0     H87151   1.001   6.197   9.498 -1.2505  3.0131 -2.3286
  632MOL0     H87152   0.868   6.170   9.394  1.6927  1.6478  0.9042
  632MOL0     H87153   0.752   6.028   9.572 -0.0802 -0.1331 -0.3640
  632MOL0     H87154   0.893   6.082   9.676  0.1725  1.1288  0.1696
  632MOL0     H87155   0.831   6.308   9.669  4.3395 -1.8025 -2.5330
  632MOL0     H87156   0.711   6.278   9.545 -0.8961  2.0489  1.6567
  632MOL0     H87157   0.538   6.227   9.686 -1.3845 -0.1306  3.1315
  632MOL0     H87158   0.623   6.292   9.810  0.1097 -1.5366  2.2396
  632MOL0     H87159   0.617   5.989   9.747  0.5212  1.4068 -0.8977
  632MOL0     H87160   0.710   6.060   9.877 -0.4514 -0.8454  2.0586
  632MOL0     H87161   0.423   6.150   9.888 -1.0894 -1.1147  0.4386
  632MOL0     H87162   0.550   6.134   9.998 -0.2316  3.1244 -1.4321
  632MOL0     H87163   0.500   5.881  10.011 -3.8045 -2.4604  0.3954
  632MOL0     H87164   0.359   5.973  10.039 -1.3837  2.7218 -1.8890
  632MOL0     H87165   0.189   6.030   9.844 -0.2438 -0.5686  1.5434
  632MOL0     H87166   0.097   5.793   9.517 -1.7733  1.4296 -1.5979
  632MOL0     H87167   0.134   5.959   9.524  0.9742 -1.7454  0.0191
  632MOL0     H87168  -0.095   5.808   9.615 -0.1796 -0.3927  2.1021
  632MOL0     H87169  -0.038   5.880   9.759  1.2937  1.7256  0.9891
  632MOL0     H87170  -0.042   6.112   9.618 -0.6012  1.0934 -4.5581
  632MOL0     H87171  -0.145   6.016   9.516 -0.7574 -1.6917  0.6143
  632MOL0     H87172  -0.308   6.113   9.643  0.3601  2.8279  0.6692
  632MOL0     H87173  -0.288   5.946   9.699  3.1452 -0.8696 -2.5306
  632MOL0     H87174  -0.242   6.306   9.680  0.8358 -0.2800 -1.1096
  632MOL0     H87175  -0.257   6.515   9.635  1.9036  0.4566 -2.1397
  632MOL0     H87176  -0.109   6.600   9.677 -0.1789  2.2905  1.6977
  632MOL0     H87177  -0.246   6.610   9.780 -1.9768 -0.4455 -1.8083
  632MOL0     H87178   0.274   6.644  10.164 -0.0094 -3.0072  1.1940
  632MOL0     H87179   0.341   6.842  10.305  1.5552 -1.9914 -1.0307
  632MOL0     H87180   0.102   6.980  10.544  0.1062 -0.7667  0.2626
  632MOL0     H87181   0.278   6.972  10.521 -1.9952 -1.0917 -0.2641
  632MOL0     H87182   0.238   7.156  10.673 -1.3564  0.7718  0.4874
  632MOL0     H87183   0.287   7.221  10.513 -0.6872 -1.4427 -2.2036
  632MOL0     H87184  -0.008   7.208  10.628 -1.5323  2.2528 -0.6114
  632MOL0     H87185   0.031   7.227  10.466 -2.2282  1.0237  1.2747
  632MOL0     H87186   0.157   7.412  10.471 -2.6158 -2.9552 -1.7136
  632MOL0     H87187   0.181   7.418  10.646  0.6240  0.5181  0.4060
  632MOL0     H87188  -0.058   7.468  10.474 -0.5639  0.5699 -0.4580
  632MOL0     H87189  -0.081   7.479  10.645  0.8650  2.9160  1.2318
  632MOL0     H87190   0.109   7.658  10.490  1.1295  1.9828 -0.0156
  632MOL0     H87191   0.084   7.664  10.665 -2.6938  4.1401  0.9840
  632MOL0     H87192  -0.146   7.722  10.645 -1.9789  3.4110 -0.3465
  632MOL0     H87193  -0.135   7.704  10.467  1.8077  0.1841 -0.4396
  632MOL0     H87194  -0.127   7.927  10.499 -0.9031  0.1360  1.5511
  632MOL0     H87195   0.038   7.872  10.456 -2.0282  0.7154 -1.9295
  632MOL0     H87196  -0.071   6.961  10.282  2.0272  0.7530  1.4239
  632MOL0     H87197  -0.130   6.747  10.186 -0.2699 -1.8964  0.7525
  632MOL0     H87198   0.001   6.355  10.100 -0.5018 -2.8450  0.5253
  632MOL0     H87199  -0.040   6.126  10.031 -0.0654 -1.0871 -1.0008
  632MOL0     H87200   1.163   5.812   9.332  1.4340 -0.8675 -0.2352
  632MOL0     H87201   1.312   5.624   9.356 -1.0185 -0.2395 -1.1510
  632MOL0     H87202   1.374   5.264   9.426 -0.0179  0.6631  0.1078
  632MOL0     H87203   1.451   5.037   9.365 -2.5610 -2.0968  1.3819
  632MOL0     H87204   1.803   4.939   9.525 -0.3662  0.9100 -2.6313
  632MOL0     H87205   1.753   4.808   9.639  0.2838 -3.3555 -2.2257
  632MOL0     H87206   1.791   4.782   9.340  1.8329 -1.0630 -0.6774
  632MOL0     H87207   1.713   4.658   9.440 -2.1074  1.2948  3.3171
  632MOL0     H87208   1.996   4.751   9.532 -0.2818 -1.7047  2.8741
  632MOL0     H87209   1.903   4.610   9.557  0.2903  1.9368  2.7029
  632MOL0     H87210   1.918   4.586   9.286 -0.2515 -1.3079  1.0400
  632MOL0     H87211   2.049   4.553   9.395 -0.5032 -0.2612  0.4325
  632MOL0     H87212   2.192   4.876   9.163 -0.7695 -1.2283 -2.6994
  632MOL0     H87213   1.618   5.000   9.768 -0.3690  1.8164  1.9497
  632MOL0     H87214   1.595   5.125   9.926  4.1552  1.4969 -1.3738
  632MOL0     H87215   1.594   5.288   9.895  1.5311 -0.4373  1.3839
  632MOL0     H87216   1.433   5.194   9.918  0.2052  2.0485 -0.5204
  633MOL0     O87217   3.079   8.618   3.865  0.3981 -0.0729  0.3463
  633MOL0     C87218   3.069   8.741   3.865  0.9364 -0.5989 -0.1777
  633MOL0     O87219   3.145   8.817   3.781 -0.2534  0.1146 -0.4784
  633MOL0     C87220   3.231   8.743   3.704  0.5022 -0.2479  0.0323
  633MOL0     C87221   3.193   8.713   3.578 -0.6412  0.7036  0.2164
  633MOL0     C87222   3.282   8.634   3.503 -1.1742  0.4955  0.3127
  633MOL0     C87223   3.405   8.585   3.546  0.5805 -1.0509  1.0780
  633MOL0     O87224   3.476   8.498   3.471 -0.6990  0.0549  0.1432
  633MOL0     C87225   3.503   8.376   3.548  0.1820  0.9235 -0.6664
  633MOL0     C87226   3.588   8.272   3.477 -0.3756 -0.2801  0.3456
  633MOL0     C87227   3.727   8.337   3.443 -0.0692  0.7258  0.2122
  633MOL0     C87228   3.820   8.319   3.569 -0.2742  0.0489  0.4157
  633MOL0     C87229   3.955   8.368   3.522  0.1260  0.2882 -0.0224
  633MOL0     C87230   4.065   8.359   3.636 -0.5593 -0.1823 -0.3144
  633MOL0     C87231   4.045   8.446   3.762  1.0252 -0.4341 -0.1729
  633MOL0     C87232   4.034   8.593   3.732 -0.3492 -0.2964  0.5039
  633MOL0     N87233   4.124   8.646   3.632 -0.3853 -0.2187 -0.1843
  633MOL0     C87234   4.082   8.753   3.548  0.7904  0.0139 -0.0742
  633MOL0     C87235   4.193   8.776   3.474 -0.4239 -0.7526  0.3217
  633MOL0     C87236   4.176   8.872   3.356  0.1065  0.1574 -0.4562
  633MOL0     C87237   4.322   8.914   3.320  0.2545 -0.5718  0.1035
  633MOL0     C87238   4.303   9.013   3.199 -0.0327 -0.2071 -0.5706
  633MOL0     C87239   4.444   9.066   3.166 -0.0614  0.1562  0.4623
  633MOL0     O87240   4.463   9.091   3.020 -0.2462 -0.1074 -0.4564
  633MOL0     C87241   4.427   9.213   2.963  0.8280 -0.5031  0.3753
  633MOL0     C87242   4.336   9.309   3.016 -0.1605  0.2363 -0.6734
  633MOL0     C87243   4.287   9.421   2.950 -0.7029 -0.0915  0.2509
  633MOL0     C87244   4.206   9.518   3.026 -0.5894  0.7585  0.0848
  633MOL0     C87245   4.305   9.435   2.812  0.0649 -0.2376  0.2634
  633MOL0     C87246   4.249   9.541   2.726  0.5431  0.6014  0.3751
  633MOL0     O87247   4.226   9.656   2.790 -0.1157 -1.2550 -0.0659
  633MOL0     C87248   4.178   9.760   2.708  0.4596 -0.3768  0.5136
  633MOL0     C87249   4.244   9.810   2.600 -0.7727 -0.5213 -0.4270
  633MOL0     C87250   4.200   9.921   2.532 -0.7288 -0.3752  1.3336
  633MOL0     C87251   4.076   9.978   2.555 -0.2093 -0.8100 -0.7790
  633MOL0     O87252   4.019  10.097   2.502  0.0420 -0.1184 -0.1308
  633MOL0     C87253   4.054  10.124   2.367  0.3387 -0.0341  0.8535
  633MOL0     C87254   3.935  10.165   2.290  0.1899  0.0060  0.1056
  633MOL0     C87255   3.833  10.046   2.291  0.1958  0.1189  0.1716
  633MOL0     C87256   3.722  10.040   2.191 -0.9961 -0.9141  0.3721
  633MOL0     C87257   3.766  10.011   2.046  0.1414 -0.3285  0.9035
  633MOL0     C87258   3.654  10.055   1.947 -0.4310  0.4016  0.3842
  633MOL0     C87259   3.528   9.961   1.948 -0.6958  0.7591  0.3612
  633MOL0     C87260   3.434   9.983   1.830 -0.7186 -0.3029  0.0436
  633MOL0    Cl87261   3.324  10.122   1.865  0.4653  0.0240  0.5583
  633MOL0     C87262   4.003   9.930   2.665  0.3820  0.5297  0.7386
  633MOL0     C87263   4.056   9.833   2.743 -0.3224  0.5745 -0.5375
  633MOL0     O87264   4.214   9.518   2.609  0.2012 -0.0666  0.2168
  633MOL0     C87265   4.394   9.342   2.749 -0.0436  0.5001 -0.0972
  633MOL0     C87266   4.452   9.234   2.829  0.4622 -0.2021  0.4055
  633MOL0     N87267   4.294   8.683   3.515  0.2874  0.0014 -0.4218
  633MOL0     N87268   4.250   8.612   3.608  0.1061  0.1463 -0.0966
  633MOL0     C87269   3.442   8.628   3.668 -0.2418  0.6113 -0.6327
  633MOL0     C87270   3.355   8.698   3.750 -0.3626  0.8458  0.2256
  633MOL0     C87271   2.985   8.799   3.958  0.0345  0.4976  0.9430
  633MOL0     C87272   3.032   8.819   4.081  0.0702  0.3666  0.4251
  633MOL0     C87273   2.947   8.848   4.188 -0.0094  0.0599 -0.4714
  633MOL0     C87274   2.817   8.895   4.163 -0.2113 -0.7754 -0.0062
  633MOL0     O87275   2.752   8.943   4.278 -0.1109  0.1065  0.2530
  633MOL0     C87276   2.648   9.039   4.242 -0.0062 -0.2508  0.3945
  633MOL0     C87277   2.553   9.077   4.358 -0.4459  0.6777  0.5772
  633MOL0     C87278   2.642   9.128   4.474 -0.1916 -0.4121  0.4813
  633MOL0     C87279   2.582   9.221   4.566 -0.4198 -1.1113  0.0416
  633MOL0     C87280   2.556   9.355   4.502  0.2026  0.1005  1.6725
  633MOL0     C87281   2.532   9.467   4.446  1.0759  0.9759 -0.4826
  633MOL0     C87282   2.766   8.876   4.034 -0.2704  0.2875  1.3254
  633MOL0     C87283   2.847   8.823   3.932  0.2085 -1.3226 -0.4707
  633MOL0     C87284   2.783   8.798   3.796 -0.6569 -0.0404 -0.0760
  633MOL0     H87285   3.092   8.728   3.543 -0.8727 -3.5407 -1.5323
  633MOL0     H87286   3.249   8.595   3.407 -0.4194 -0.4441  0.4244
  633MOL0     H87287   3.418   8.328   3.597  3.0394 -3.6934  0.4294
  633MOL0     H87288   3.567   8.408   3.630  0.7186 -2.0121  0.1795
  633MOL0     H87289   3.601   8.193   3.551 -0.5051  2.8264  4.0097
  633MOL0     H87290   3.537   8.226   3.391  1.0969  0.6700 -1.0909
  633MOL0     H87291   3.770   8.289   3.355  0.7510  2.6260 -0.4786
  633MOL0     H87292   3.724   8.445   3.426  0.5635  1.1112  2.2367
  633MOL0     H87293   3.775   8.366   3.657  0.7794 -0.4011  1.2074
  633MOL0     H87294   3.840   8.212   3.576 -0.6877  0.0043  0.9383
  633MOL0     H87295   3.945   8.468   3.479 -2.3196 -1.3368 -3.7008
  633MOL0     H87296   3.992   8.321   3.431 -0.8706  0.4732 -0.5337
  633MOL0     H87297   4.076   8.260   3.682  2.3569  0.8928  1.5406
  633MOL0     H87298   4.159   8.380   3.583 -0.4039 -1.0791 -0.4261
  633MOL0     H87299   4.125   8.429   3.834 -0.6223 -0.0780  1.8186
  633MOL0     H87300   3.949   8.412   3.802  0.8063  1.2147  0.7791
  633MOL0     H87301   3.930   8.595   3.699 -0.8191 -3.2176  1.5177
  633MOL0     H87302   4.037   8.660   3.819 -4.3162 -2.8435  2.8920
  633MOL0     H87303   3.982   8.791   3.528  1.7510  2.9429  0.1701
  633MOL0     H87304   4.117   8.963   3.368 -0.6430 -0.3165 -0.5024
  633MOL0     H87305   4.134   8.819   3.270  1.0255  2.1517 -2.2155
  633MOL0     H87306   4.377   8.975   3.393  0.7088 -0.6445 -0.1715
  633MOL0     H87307   4.382   8.833   3.277  0.4155  1.2588 -3.4713
  633MOL0     H87308   4.256   8.961   3.115  1.0371 -2.4488  0.1698
  633MOL0     H87309   4.246   9.104   3.221 -1.2940 -1.0126 -0.4006
  633MOL0     H87310   4.465   9.150   3.233  4.0463  0.6548 -1.1607
  633MOL0     H87311   4.521   8.992   3.190 -1.4066 -1.0228  1.3284
  633MOL0     H87312   4.307   9.283   3.117 -2.0050 -2.2308 -1.7134
  633MOL0     H87313   4.105   9.527   2.983  0.5112  1.5217 -2.5539
  633MOL0     H87314   4.242   9.621   3.033  1.9889 -0.1911  3.2144
  633MOL0     H87315   4.206   9.486   3.130  2.0587  0.6126  0.0897
  633MOL0     H87316   4.331   9.757   2.561 -0.2411  0.4134 -0.5394
  633MOL0     H87317   4.264   9.952   2.450 -0.9611 -0.3573  1.1570
  633MOL0     H87318   4.135  10.195   2.347  0.6779 -0.5120  0.5039
  633MOL0     H87319   4.096  10.032   2.323 -1.7902  0.7115 -3.2549
  633MOL0     H87320   3.899  10.259   2.332 -2.9864 -1.2725  0.5431
  633MOL0     H87321   3.964  10.186   2.187 -0.5960  2.1153  0.2769
  633MOL0     H87322   3.776  10.057   2.384  0.9829 -0.8305  0.7923
  633MOL0     H87323   3.891   9.953   2.293  2.1327  1.0957 -3.0873
  633MOL0     H87324   3.672  10.137   2.197  0.0269 -0.3336 -0.1184
  633MOL0     H87325   3.650   9.961   2.215 -4.8508  1.3838 -2.3936
  633MOL0     H87326   3.854  10.072   2.026 -0.2078  0.2704  1.1464
  633MOL0     H87327   3.802   9.908   2.041  0.2787 -0.3208  1.5991
  633MOL0     H87328   3.701  10.066   1.849 -0.3646 -0.0874  0.3583
  633MOL0     H87329   3.613  10.149   1.985 -0.6351 -0.3060  1.9921
  633MOL0     H87330   3.489   9.959   2.050  2.8740  2.8472  1.9883
  633MOL0     H87331   3.559   9.859   1.923  0.5621  1.3687 -0.7025
  633MOL0     H87332   3.386   9.889   1.800  4.5498 -2.7211 -2.2116
  633MOL0     H87333   3.502  10.002   1.746 -0.4006 -0.2044  0.3238
  633MOL0     H87334   3.910   9.973   2.701 -0.1016 -0.1423  0.3083
  633MOL0     H87335   4.012   9.809   2.839  0.8892  0.7900  0.0886
  633MOL0     H87336   4.423   9.366   2.647  0.4909  3.5158  0.6789
  633MOL0     H87337   4.530   9.174   2.785  1.2702  1.8945 -1.2155
  633MOL0     H87338   3.541   8.604   3.704 -0.5999 -2.5449 -1.4828
  633MOL0     H87339   3.388   8.725   3.850  0.6875 -1.5531  0.5969
  633MOL0     H87340   3.136   8.796   4.101  0.4166  0.9473 -0.6686
  633MOL0     H87341   2.989   8.849   4.288 -1.5125  1.6422  0.1792
  633MOL0     H87342   2.697   9.127   4.201  3.3565 -1.6951  1.0062
  633MOL0     H87343   2.570   8.992   4.180  1.7662 -0.4910 -1.7764
  633MOL0     H87344   2.490   8.991   4.382  1.4441 -0.2524  2.5862
  633MOL0     H87345   2.489   9.158   4.321  0.2138  1.0942  0.3275
  633MOL0     H87346   2.659   9.039   4.536  2.2589  0.2918  0.9406
  633MOL0     H87347   2.742   9.168   4.455 -1.1134  1.0580 -1.6775
  633MOL0     H87348   2.651   9.239   4.649 -1.3418 -1.2650  0.8620
  633MOL0     H87349   2.490   9.181   4.611 -0.4042  0.9577  2.1201
  633MOL0     H87350   2.509   9.556   4.391 -2.1138  0.9342  0.5387
  633MOL0     H87351   2.671   8.915   3.999 -0.5841  0.3521  2.2232
  633MOL0     H87352   2.674   8.805   3.792 -0.5578  1.6872 -0.2687
  633MOL0     H87353   2.827   8.871   3.728 -1.9926  2.1979  1.3163
  633MOL0     H87354   2.814   8.699   3.761 -1.3833 -0.9226  1.6406
  634MOL0     O87355   8.650   7.371  10.044  0.4581 -0.2432 -0.2261
  634MOL0     C87356   8.566   7.429   9.980  0.7844  0.6840  1.1897
  634MOL0     O87357   8.446   7.371   9.935 -1.4934  0.3831 -0.0286
  634MOL0     C87358   8.434   7.233   9.950 -0.7033  0.2104  0.0545
  634MOL0     C87359   8.378   7.165   9.840  0.6298 -0.6975 -1.2461
  634MOL0     C87360   8.347   7.036   9.840 -0.0158 -0.9131 -0.1542
  634MOL0     C87361   8.368   6.959   9.958 -0.1135  0.5014  1.5911
  634MOL0     O87362   8.335   6.826   9.963 -0.6481 -0.3504  0.3886
  634MOL0     C87363   8.332   6.755   9.834  0.0476 -0.3764  0.5311
  634MOL0     C87364   8.290   6.602   9.851 -0.2987  0.6903  0.5322
  634MOL0     C87365   8.373   6.516   9.761  0.7041  0.5110  1.0855
  634MOL0     C87366   8.348   6.535   9.610  0.3431 -0.1018 -0.1553
  634MOL0     C87367   8.363   6.403   9.521 -0.4132 -0.1130  0.4373
  634MOL0     C87368   8.509   6.342   9.542  0.0175  0.3376  1.0415
  634MOL0     C87369   8.517   6.197   9.486 -0.7168 -0.0520 -0.5728
  634MOL0     C87370   8.658   6.133   9.519  0.9361 -0.5373  0.3108
  634MOL0     N87371   8.633   6.000   9.584  0.6926 -0.2961  0.8917
  634MOL0     C87372   8.544   5.974   9.684  0.1823  0.5958  0.3760
  634MOL0     C87373   8.557   5.838   9.708  0.0573 -0.1031  0.4840
  634MOL0     C87374   8.471   5.766   9.811  0.2731  0.2319  0.1920
  634MOL0     C87375   8.354   5.673   9.756  0.9059 -0.5134 -0.6525
  634MOL0     C87376   8.268   5.620   9.866 -0.4501  1.3269 -0.2768
  634MOL0     C87377   8.139   5.573   9.803 -0.1823 -0.4145 -0.4448
  634MOL0     O87378   8.057   5.533   9.913 -0.4855  0.5450  1.1643
  634MOL0     C87379   7.966   5.614   9.971  0.1116 -0.4768  0.9838
  634MOL0     C87380   7.946   5.749   9.951 -0.1308 -0.2496  0.1769
  634MOL0     C87381   7.865   5.830  10.031  0.0531  0.0397 -0.1191
  634MOL0     C87382   7.876   5.980  10.007  0.7086  0.6395  0.6315
  634MOL0     C87383   7.782   5.766  10.128  0.6483  1.5334 -0.1341
  634MOL0     C87384   7.696   5.840  10.226 -0.7868 -0.8234 -0.8287
  634MOL0     O87385   7.677   5.802  10.357 -0.0749  0.1113 -0.0879
  634MOL0     C87386   7.592   5.884  10.439 -1.3756  0.2021  0.4622
  634MOL0     C87387   7.502   5.825  10.523  0.9372  0.8288 -0.9027
  634MOL0     C87388   7.442   5.904  10.617 -0.8519 -0.3141  0.9515
  634MOL0     C87389   7.475   6.037  10.630  1.0398  0.3163  0.3967
  634MOL0     O87390   7.424   6.115  10.729  1.2585 -0.4687  0.0780
  634MOL0     C87391   7.286   6.154  10.712  0.3582 -0.1999 -0.0716
  634MOL0     C87392   7.235   6.212  10.850 -0.3831  0.4748  0.3707
  634MOL0     C87393   7.242   6.099  10.960  0.2140 -0.7197  0.4801
  634MOL0     C87394   7.152   6.135  11.073  0.0143 -0.3363 -0.1827
  634MOL0     C87395   7.173   6.023  11.171 -0.1703 -0.3034 -0.2281
  634MOL0     C87396   7.070   6.016  11.288 -0.5827 -0.5337 -0.0203
  634MOL0     C87397   7.110   5.914  11.394  0.3647 -1.1215 -0.7635
  634MOL0     C87398   7.100   5.766  11.339  0.5334 -0.7081  0.1243
  634MOL0    Cl87399   7.206   5.654  11.422 -0.2568 -0.0469 -0.2159
  634MOL0     C87400   7.571   6.100  10.547  0.5426  0.3066  0.3623
  634MOL0     C87401   7.630   6.012  10.453 -0.3783  0.4604  0.5324
  634MOL0     O87402   7.646   5.938  10.167 -0.0268 -0.3558  0.9287
  634MOL0     C87403   7.784   5.627  10.136 -0.2514 -0.0514 -0.2953
  634MOL0     C87404   7.882   5.552  10.062  1.0656  0.2200  0.3813
  634MOL0     N87405   8.643   5.792   9.606  1.0247 -0.1785  0.7738
  634MOL0     N87406   8.699   5.893   9.550 -0.0618  0.5520  0.6127
  634MOL0     C87407   8.403   7.036  10.075 -0.3711  0.9688 -0.1999
  634MOL0     C87408   8.434   7.164  10.068  0.3558 -0.3647 -0.0815
  634MOL0     C87409   8.575   7.567   9.938 -0.1429 -0.5521 -0.4672
  634MOL0     C87410   8.688   7.611   9.869  0.0016  0.3837 -0.2390
  634MOL0     C87411   8.702   7.745   9.813  0.0382  0.3828 -0.8948
  634MOL0     C87412   8.597   7.833   9.827  0.9939 -0.3559 -0.4980
  634MOL0     O87413   8.593   7.957   9.765 -0.6652 -0.3905 -0.2962
  634MOL0     C87414   8.694   8.009   9.675 -0.3117  0.6059  0.1433
  634MOL0     C87415   8.660   8.147   9.603  0.2255 -0.1098  0.1292
  634MOL0     C87416   8.765   8.177   9.486  0.0945  0.3060 -0.3426
  634MOL0     C87417   8.749   8.318   9.434 -0.4759  1.4499  0.6124
  634MOL0     C87418   8.742   8.417   9.536  0.0073  0.5807  0.1005
  634MOL0     C87419   8.734   8.492   9.629 -1.1657  0.4865 -1.4146
  634MOL0     C87420   8.471   7.796   9.905 -0.2071  0.3361  0.6245
  634MOL0     C87421   8.474   7.659   9.971 -0.0893 -1.1821 -0.0718
  634MOL0     C87422   8.365   7.645  10.077 -0.5341 -0.0617  0.5123
  634MOL0     H87423   8.355   7.222   9.751 -1.8673  3.7840  1.8514
  634MOL0     H87424   8.292   7.003   9.753  1.0051  1.4339 -1.7730
  634MOL0     H87425   8.436   6.764   9.802 -0.0796  2.5682  0.6600
  634MOL0     H87426   8.269   6.805   9.759 -0.1997 -0.0193  0.9669
  634MOL0     H87427   8.318   6.569   9.952 -0.2987 -2.5181 -0.4117
  634MOL0     H87428   8.183   6.596   9.832  0.0720  0.7152 -1.8941
  634MOL0     H87429   8.481   6.517   9.778  0.8940 -0.9624  0.1582
  634MOL0     H87430   8.327   6.420   9.788 -2.0088  1.4836  0.2969
  634MOL0     H87431   8.246   6.572   9.602  0.5708  0.1207 -3.3164
  634MOL0     H87432   8.411   6.615   9.569  2.7925 -2.5633 -1.5372
  634MOL0     H87433   8.332   6.437   9.421 -1.0540  1.8722  1.2616
  634MOL0     H87434   8.298   6.321   9.555  1.0627 -1.5389 -0.0628
  634MOL0     H87435   8.596   6.391   9.497  0.1895  0.5393  1.5867
  634MOL0     H87436   8.526   6.345   9.650 -0.0570 -1.8924  1.1469
  634MOL0     H87437   8.506   6.197   9.377  1.3807 -0.1466 -0.8280
  634MOL0     H87438   8.431   6.138   9.519 -1.1160 -0.1557 -1.7703
  634MOL0     H87439   8.703   6.110   9.422 -1.5888  1.0995 -1.3441
  634MOL0     H87440   8.724   6.199   9.575  1.3658 -0.2359 -0.5371
  634MOL0     H87441   8.479   6.045   9.735 -0.5541 -0.3057  0.7128
  634MOL0     H87442   8.430   5.838   9.883  4.8474  3.5608 -0.0782
  634MOL0     H87443   8.532   5.696   9.870 -2.1806 -0.8945  1.5303
  634MOL0     H87444   8.291   5.737   9.693 -1.6080  0.1605  2.2717
  634MOL0     H87445   8.386   5.598   9.684 -3.5270 -1.4148 -1.9985
  634MOL0     H87446   8.321   5.534   9.909 -0.6458  0.7821 -1.1047
  634MOL0     H87447   8.248   5.697   9.941  0.5437 -1.4139  3.0428
  634MOL0     H87448   8.079   5.644   9.745 -1.2337  0.9405  2.1480
  634MOL0     H87449   8.168   5.495   9.732 -1.1430 -2.2069  1.0465
  634MOL0     H87450   7.998   5.802   9.872 -2.1075  1.1313 -0.2974
  634MOL0     H87451   7.786   6.016   9.956  0.2557  0.8134  1.5347
  634MOL0     H87452   7.958   5.989   9.935  3.0258 -1.6131  2.7844
  634MOL0     H87453   7.884   6.037  10.100 -0.5891  4.1727 -1.2286
  634MOL0     H87454   7.481   5.719  10.522  3.6494  0.2117 -0.3597
  634MOL0     H87455   7.378   5.861  10.694  0.6804 -1.0682  1.8406
  634MOL0     H87456   7.265   6.230  10.636 -4.8799  0.1415  1.3432
  634MOL0     H87457   7.225   6.067  10.687 -0.7398  1.1574 -2.5614
  634MOL0     H87458   7.285   6.303  10.885  0.0482  1.6531 -2.9088
  634MOL0     H87459   7.130   6.233  10.827  0.7208  1.7638 -4.9297
  634MOL0     H87460   7.342   6.073  10.995  0.1421 -2.7845 -0.6870
  634MOL0     H87461   7.198   6.019  10.900 -1.7061  1.1522 -0.7760
  634MOL0     H87462   7.048   6.138  11.037 -0.0672 -0.5153  0.0333
  634MOL0     H87463   7.165   6.229  11.126  0.7360 -0.7259  0.3440
  634MOL0     H87464   7.183   5.923  11.128  0.4175  0.1752 -1.2499
  634MOL0     H87465   7.273   6.040  11.212 -0.2371  0.4173 -0.3509
  634MOL0     H87466   6.970   5.991  11.251 -0.5299 -2.1954  0.8461
  634MOL0     H87467   7.087   6.112  11.337 -1.1358  0.2273 -1.2552
  634MOL0     H87468   7.042   5.937  11.476  0.4931  2.2781 -1.4457
  634MOL0     H87469   7.213   5.935  11.423  0.8284  0.3853 -3.1559
  634MOL0     H87470   7.123   5.759  11.232  0.0908 -2.7319  0.1110
  634MOL0     H87471   6.994   5.741  11.344 -0.1341  1.8551  0.1083
  634MOL0     H87472   7.586   6.207  10.548  0.7593  0.2800  0.1087
  634MOL0     H87473   7.722   6.044  10.404 -0.4079 -2.4063 -1.6944
  634MOL0     H87474   7.709   5.578  10.197  0.5923  1.4022  2.0252
  634MOL0     H87475   7.883   5.444  10.058 -0.9052  0.1339  0.9602
  634MOL0     H87476   8.417   6.978  10.166  0.2711  4.3575  2.0274
  634MOL0     H87477   8.482   7.217  10.150 -1.5891 -2.2054  2.4225
  634MOL0     H87478   8.775   7.547   9.871  0.7925  1.3587 -1.3393
  634MOL0     H87479   8.800   7.774   9.777  2.1068  0.6985  4.1898
  634MOL0     H87480   8.794   8.019   9.718  0.9685 -2.9864 -1.5757
  634MOL0     H87481   8.705   7.933   9.598 -0.0180  2.0871 -1.3540
  634MOL0     H87482   8.661   8.228   9.677  0.6269  0.9534 -0.9999
  634MOL0     H87483   8.558   8.134   9.564  0.7506 -1.5784 -0.8367
  634MOL0     H87484   8.866   8.169   9.527  0.2530  1.3034 -0.4906
  634MOL0     H87485   8.748   8.101   9.410 -1.1230  0.1343  0.0889
  634MOL0     H87486   8.655   8.314   9.379 -1.3060 -3.1143  1.9462
  634MOL0     H87487   8.834   8.349   9.373 -1.0626  3.5564  0.7832
  634MOL0     H87488   8.724   8.554   9.716 -0.9662 -1.1276 -0.2095
  634MOL0     H87489   8.386   7.863   9.909 -0.9425 -0.5784  0.7791
  634MOL0     H87490   8.339   7.546  10.115 -1.6125 -0.6229 -1.5332
  634MOL0     H87491   8.386   7.716  10.157  0.5470 -0.5711  0.6935
  634MOL0     H87492   8.269   7.682  10.039 -0.6115 -2.0323 -1.3616
  635MOL0     O87493   2.643   8.947   6.285  0.5212 -0.3820 -0.1495
  635MOL0     C87494   2.737   9.005   6.230  0.8025 -0.1822 -0.0994
  635MOL0     O87495   2.722   9.126   6.186 -0.1229  0.0301 -0.5453
  635MOL0     C87496   2.596   9.180   6.194  0.4328 -0.2236  1.0027
  635MOL0     C87497   2.544   9.248   6.310 -0.4595 -1.1911  1.1083
  635MOL0     C87498   2.428   9.317   6.304 -0.0572 -0.3294  0.4971
  635MOL0     C87499   2.353   9.325   6.190 -0.2779 -0.5290 -0.9992
  635MOL0     O87500   2.229   9.380   6.183 -0.0006  0.8262  0.2071
  635MOL0     C87501   2.211   9.476   6.071 -0.1102  0.0593 -0.8095
  635MOL0     C87502   2.070   9.526   6.048 -0.1795  0.2722 -0.9205
  635MOL0     C87503   2.064   9.629   5.942  0.3053  0.0159  0.2671
  635MOL0     C87504   1.922   9.634   5.898 -0.2174  0.0239  0.4602
  635MOL0     C87505   1.891   9.758   5.826 -0.3518 -0.3359 -0.1067
  635MOL0     C87506   1.746   9.761   5.774  0.2941 -0.6215 -0.1680
  635MOL0     C87507   1.707   9.878   5.684  0.2023 -0.0891 -0.1972
  635MOL0     C87508   1.807   9.932   5.582 -0.1800  0.2682 -0.5953
  635MOL0     N87509   1.760  10.052   5.514 -0.2998  0.1896 -0.0632
  635MOL0     C87510   1.735  10.056   5.380 -0.1762 -0.7861  0.1629
  635MOL0     C87511   1.705  10.183   5.365 -0.0183  0.0125 -0.7003
  635MOL0     C87512   1.674  10.250   5.240  0.0709  0.7794 -0.7606
  635MOL0     C87513   1.588  10.153   5.145 -0.5065  0.0614  0.3078
  635MOL0     C87514   1.542  10.245   5.035 -0.6252 -0.4369 -0.5644
  635MOL0     C87515   1.477  10.154   4.927 -0.7740  0.3962  0.1337
  635MOL0     O87516   1.532  10.193   4.795  0.4629 -1.0286  0.7105
  635MOL0     C87517   1.481  10.146   4.679 -0.4217  0.3385 -0.0969
  635MOL0     C87518   1.395  10.038   4.671 -0.7410  0.9390 -0.1162
  635MOL0     C87519   1.351   9.996   4.544 -0.6839  0.0571 -0.5640
  635MOL0     C87520   1.252   9.875   4.553  0.1911  0.0785  0.4895
  635MOL0     C87521   1.385  10.074   4.427 -0.2478  0.3928  1.5036
  635MOL0     C87522   1.321  10.035   4.287 -0.0589  0.7353  0.3242
  635MOL0     O87523   1.386  10.092   4.183  0.5932  0.1888  0.1187
  635MOL0     C87524   1.372  10.039   4.052  0.3325  0.2426  0.0234
  635MOL0     C87525   1.353  10.122   3.939 -0.0567 -1.5822  0.3332
  635MOL0     C87526   1.334  10.060   3.812  0.7302 -0.1354 -0.9798
  635MOL0     C87527   1.319   9.922   3.803  0.5586  0.0472 -0.3632
  635MOL0     O87528   1.311   9.880   3.674 -0.8221 -0.7368  0.2967
  635MOL0     C87529   1.252   9.749   3.634 -0.6465 -0.9742 -0.3976
  635MOL0     C87530   1.116   9.719   3.684 -0.1237 -0.8822  0.0317
  635MOL0     C87531   1.012   9.828   3.650  0.4160 -0.2823 -0.0318
  635MOL0     C87532   0.949   9.838   3.504  0.8288 -0.1076  0.2562
  635MOL0     C87533   0.832   9.742   3.494  0.2255 -0.2990  0.1219
  635MOL0     C87534   0.748   9.771   3.368 -0.6833  0.1368 -0.0745
  635MOL0     C87535   0.823   9.775   3.230  0.5044 -0.6883  0.0274
  635MOL0     C87536   0.716   9.825   3.127 -0.2083 -0.5372 -0.5705
  635MOL0    Cl87537   0.597   9.691   3.111 -0.5707 -0.2596  0.4737
  635MOL0     C87538   1.330   9.841   3.918 -0.3253  0.6304 -0.7367
  635MOL0     C87539   1.366   9.898   4.035  0.0836 -0.1963 -0.1607
  635MOL0     O87540   1.230   9.949   4.279  0.4983 -0.6693  0.1702
  635MOL0     C87541   1.468  10.182   4.438 -0.6255  0.2409  0.2818
  635MOL0     C87542   1.518  10.213   4.563 -0.6291 -0.3212 -0.0107
  635MOL0     N87543   1.727  10.257   5.479 -0.2047  0.1954 -1.1574
  635MOL0     N87544   1.766  10.177   5.570  0.1619 -0.0894 -0.2145
  635MOL0     C87545   2.391   9.245   6.082 -0.2664 -0.2241  0.9524
  635MOL0     C87546   2.510   9.178   6.074  0.0976 -0.0972 -0.4700
  635MOL0     C87547   2.866   8.930   6.202  0.5041  0.4508  0.2495
  635MOL0     C87548   2.954   8.986   6.116 -0.5076  0.2392  1.1916
  635MOL0     C87549   3.082   8.939   6.090  0.4807 -0.4502 -0.1900
  635MOL0     C87550   3.111   8.810   6.144  0.2374 -0.3743 -0.6243
  635MOL0     O87551   3.211   8.723   6.117 -1.0024 -0.1819 -0.3052
  635MOL0     C87552   3.326   8.783   6.059  0.4910 -0.2929 -0.7192
  635MOL0     C87553   3.420   8.683   6.013  0.0660 -0.4049 -0.8196
  635MOL0     C87554   3.547   8.748   5.947 -0.0518  0.1673 -0.4889
  635MOL0     C87555   3.680   8.702   6.018  0.2436 -0.1630  0.4267
  635MOL0     C87556   3.738   8.576   5.969 -0.2537  0.1966 -0.5713
  635MOL0     C87557   3.783   8.461   5.959  0.5128 -0.8356  0.9216
  635MOL0     C87558   3.021   8.753   6.225 -0.2078  0.7669 -0.1065
  635MOL0     C87559   2.901   8.814   6.267 -0.2822  0.6394 -0.3425
  635MOL0     C87560   2.817   8.740   6.366  0.1954  0.3828  0.3413
  635MOL0     H87561   2.607   9.251   6.399  4.4395 -2.5119 -1.9459
  635MOL0     H87562   2.385   9.377   6.384 -1.9520  2.5038 -2.4009
  635MOL0     H87563   2.232   9.429   5.975 -1.5702  0.1269 -1.1934
  635MOL0     H87564   2.274   9.564   6.088 -3.5070  2.2521  2.0085
  635MOL0     H87565   2.003   9.443   6.022  1.2966 -0.4198 -2.6917
  635MOL0     H87566   2.029   9.565   6.142  2.1700  1.5915 -0.3776
  635MOL0     H87567   2.092   9.723   5.992 -1.6991  1.4545 -1.1546
  635MOL0     H87568   2.123   9.613   5.851 -0.3074  0.2741 -0.1810
  635MOL0     H87569   1.899   9.557   5.824 -0.9999  0.8880 -0.2334
  635MOL0     H87570   1.855   9.617   5.983 -0.5150 -0.5119  0.1265
  635MOL0     H87571   1.966   9.757   5.746  3.0621 -0.4785  2.8877
  635MOL0     H87572   1.901   9.853   5.880 -1.1281 -0.1550 -0.2610
  635MOL0     H87573   1.720   9.664   5.730 -0.7685 -0.3625 -0.1383
  635MOL0     H87574   1.679   9.776   5.859 -0.4669 -1.7559 -0.5350
  635MOL0     H87575   1.675   9.965   5.742  3.9413  2.1241 -1.1735
  635MOL0     H87576   1.618   9.842   5.632  1.4712 -1.3456 -1.5815
  635MOL0     H87577   1.886   9.960   5.653 -1.1247 -3.1027  2.0237
  635MOL0     H87578   1.841   9.856   5.512  1.8222 -1.2435  1.8312
  635MOL0     H87579   1.718   9.975   5.310  1.5056 -0.7922 -0.2676
  635MOL0     H87580   1.764  10.280   5.186  0.7513  0.8662  0.3811
  635MOL0     H87581   1.618  10.343   5.258 -0.1902  0.7072 -1.1832
  635MOL0     H87582   1.663  10.087   5.101  4.7500  3.9450  2.3377
  635MOL0     H87583   1.500  10.102   5.186 -0.3493  0.0531  0.6376
  635MOL0     H87584   1.477  10.322   5.077  1.9258  1.5282  0.0839
  635MOL0     H87585   1.628  10.294   4.989 -0.9325  1.7389  1.0369
  635MOL0     H87586   1.499  10.048   4.946 -1.6650  0.5961  2.6961
  635MOL0     H87587   1.369  10.167   4.931 -1.4354 -3.5702 -0.3570
  635MOL0     H87588   1.371   9.979   4.758  0.6875 -0.5995 -0.7219
  635MOL0     H87589   1.292   9.793   4.492  0.5597 -0.4642  1.4500
  635MOL0     H87590   1.149   9.895   4.522 -0.3402 -3.4784 -0.4884
  635MOL0     H87591   1.256   9.835   4.654  2.3571  0.2797  0.5458
  635MOL0     H87592   1.357  10.230   3.953  1.4310 -2.0010  4.9791
  635MOL0     H87593   1.322  10.118   3.720  1.1322 -0.1948 -1.0675
  635MOL0     H87594   1.244   9.744   3.525 -2.8969  1.6341 -0.4661
  635MOL0     H87595   1.315   9.665   3.665  0.3451 -0.2916 -0.4825
  635MOL0     H87596   1.074   9.638   3.624  2.3287 -0.9570 -1.7570
  635MOL0     H87597   1.122   9.705   3.792  2.8596  1.9186  0.3759
  635MOL0     H87598   1.062   9.925   3.659  0.3619  0.2008 -3.6949
  635MOL0     H87599   0.923   9.835   3.714 -0.4743  2.3366 -1.4144
  635MOL0     H87600   1.020   9.821   3.422 -0.6903 -1.7819 -0.7863
  635MOL0     H87601   0.905   9.938   3.507 -6.0851 -2.5158 -1.5236
  635MOL0     H87602   0.861   9.637   3.495  0.5842 -0.3136 -2.5282
  635MOL0     H87603   0.760   9.738   3.576  0.3548  1.0704  0.3327
  635MOL0     H87604   0.683   9.858   3.384  0.1342  0.7215  0.1365
  635MOL0     H87605   0.665   9.701   3.351  1.2094 -1.4809 -3.8641
  635MOL0     H87606   0.860   9.677   3.197  4.5645  0.6165  0.1090
  635MOL0     H87607   0.913   9.838   3.225  2.3283 -3.1832 -0.5177
  635MOL0     H87608   0.765   9.843   3.031  1.2671  0.7684  0.3918
  635MOL0     H87609   0.665   9.919   3.151  0.9157  0.0301 -0.3427
  635MOL0     H87610   1.342   9.733   3.919  0.6012  0.6019  3.6009
  635MOL0     H87611   1.385   9.834   4.121  1.5414  1.1695  0.5688
  635MOL0     H87612   1.493  10.240   4.350 -2.5851 -1.9843 -1.9220
  635MOL0     H87613   1.586  10.297   4.579 -2.6099  1.6058 -1.1684
  635MOL0     H87614   2.339   9.236   5.988 -0.8037 -1.0963  1.3170
  635MOL0     H87615   2.544   9.133   5.981 -0.9018 -2.2403  0.1541
  635MOL0     H87616   2.932   9.082   6.070  1.8790 -1.3411 -3.9859
  635MOL0     H87617   3.149   8.998   6.028  0.7008 -0.3566  0.1296
  635MOL0     H87618   3.284   8.845   5.979 -0.3545  2.1147  1.4465
  635MOL0     H87619   3.379   8.843   6.133 -1.5409 -0.0096  0.5960
  635MOL0     H87620   3.379   8.617   5.937  1.4282 -0.8466 -1.1846
  635MOL0     H87621   3.446   8.625   6.102 -2.2108  0.4795  0.5197
  635MOL0     H87622   3.556   8.716   5.843  0.0930 -3.3367  0.4893
  635MOL0     H87623   3.534   8.856   5.957 -0.3606  0.0776  0.0815
  635MOL0     H87624   3.658   8.710   6.125  1.5657 -0.5107  0.7430
  635MOL0     H87625   3.760   8.774   5.999  2.7107 -2.9393 -0.4742
  635MOL0     H87626   3.817   8.360   5.947 -0.8554 -1.1239 -1.1233
  635MOL0     H87627   3.045   8.656   6.267  2.0034  0.3845 -2.0466
  635MOL0     H87628   2.805   8.793   6.461  0.2845 -0.8910  1.0759
  635MOL0     H87629   2.716   8.721   6.331  0.6075 -1.2490 -0.0314
  635MOL0     H87630   2.864   8.644   6.387  0.3769 -0.0573 -1.8400
  636MOL0     O87631   3.359   6.001   4.680 -0.0650  0.0021 -0.8207
  636MOL0     C87632   3.294   5.905   4.726  0.6502 -0.6783 -0.3188
  636MOL0     O87633   3.353   5.813   4.813  0.1549 -0.6786  0.3121
  636MOL0     C87634   3.471   5.757   4.766 -0.5953  0.1647 -0.0379
  636MOL0     C87635   3.563   5.713   4.856  0.2723 -0.1223 -0.0503
  636MOL0     C87636   3.667   5.632   4.810  0.1606  0.2297 -0.5575
  636MOL0     C87637   3.702   5.607   4.683  0.5072 -0.0534  0.0482
  636MOL0     O87638   3.813   5.538   4.634 -0.0136 -0.3941  0.6581
  636MOL0     C87639   3.934   5.526   4.720  1.1333 -0.5859 -0.1635
  636MOL0     C87640   4.058   5.495   4.637 -0.1415 -0.1801  0.0926
  636MOL0     C87641   4.192   5.514   4.711 -0.0971 -0.2032  0.0560
  636MOL0     C87642   4.308   5.495   4.612 -0.4908  0.5617  0.4673
  636MOL0     C87643   4.434   5.528   4.690 -0.2502  0.9438  0.1432
  636MOL0     C87644   4.560   5.480   4.614 -0.2074 -0.4726 -0.6222
  636MOL0     C87645   4.699   5.527   4.654 -0.2849 -0.6730  0.1720
  636MOL0     C87646   4.781   5.442   4.760  0.2695  0.0608  0.4420
  636MOL0     N87647   4.926   5.470   4.753 -0.5718  0.4946  0.2902
  636MOL0     C87648   5.018   5.364   4.774 -0.5849 -0.7578 -0.0834
  636MOL0     C87649   5.138   5.428   4.802  0.2313  0.2607 -0.4529
  636MOL0     C87650   5.263   5.365   4.851 -0.5748 -1.0144  0.5253
  636MOL0     C87651   5.290   5.228   4.782  0.2684  0.2804 -0.2932
  636MOL0     C87652   5.403   5.150   4.856  1.0316  0.1806 -0.6709
  636MOL0     C87653   5.544   5.224   4.846  0.8484  0.2471  0.8253
  636MOL0     O87654   5.624   5.167   4.737  0.3005  0.0618  0.4649
  636MOL0     C87655   5.679   5.039   4.748  0.5478  0.8452 -0.6251
  636MOL0     C87656   5.759   4.991   4.649 -0.0219 -0.6282  0.0369
  636MOL0     C87657   5.827   4.868   4.659 -0.2624  0.5047 -0.8253
  636MOL0     C87658   5.904   4.832   4.534 -0.0711 -1.1955  0.4794
  636MOL0     C87659   5.807   4.786   4.779 -0.8617  0.1254 -0.3937
  636MOL0     C87660   5.868   4.646   4.799 -1.0897 -0.8500  0.1300
  636MOL0     O87661   5.814   4.575   4.896 -0.1656  0.2913 -0.0871
  636MOL0     C87662   5.901   4.479   4.952 -0.0338  0.1410 -0.2018
  636MOL0     C87663   6.001   4.514   5.043  0.6464 -0.2691 -0.4622
  636MOL0     C87664   6.083   4.429   5.104  0.7658  0.5649  0.5728
  636MOL0     C87665   6.067   4.294   5.074  0.5911 -0.4669 -0.3843
  636MOL0     O87666   6.151   4.209   5.141  0.3932  0.5663 -0.2721
  636MOL0     C87667   6.122   4.068   5.146 -0.8717  0.2674 -0.6012
  636MOL0     C87668   6.199   3.991   5.257  0.3647  0.2280 -0.2589
  636MOL0     C87669   6.185   3.832   5.239 -0.5360  0.3941 -1.4023
  636MOL0     C87670   6.051   3.776   5.296 -0.4280 -0.9020 -0.3200
  636MOL0     C87671   6.031   3.631   5.264 -0.5945 -0.0003  0.1704
  636MOL0     C87672   5.903   3.554   5.301 -0.6856  0.0974 -0.1885
  636MOL0     C87673   5.786   3.585   5.218  0.5142 -0.1527 -0.0676
  636MOL0     C87674   5.656   3.557   5.295 -0.2070  0.3458 -0.7003
  636MOL0    Cl87675   5.646   3.376   5.312 -0.1842  0.4358  0.0673
  636MOL0     C87676   5.977   4.245   4.979  0.2760 -0.6810  0.3121
  636MOL0     C87677   5.890   4.340   4.931  0.5137  0.1249 -0.4863
  636MOL0     O87678   5.959   4.602   4.725  0.3716  0.2491  1.1196
  636MOL0     C87679   5.718   4.834   4.875 -0.0550 -0.3913  0.0500
  636MOL0     C87680   5.657   4.960   4.862  0.4858 -0.7867  0.1638
  636MOL0     N87681   5.116   5.564   4.801 -0.3005  0.1530  1.1093
  636MOL0     N87682   4.998   5.585   4.762  0.6617  1.0950  0.6913
  636MOL0     C87683   3.617   5.666   4.584 -0.4809 -0.5354 -0.0499
  636MOL0     C87684   3.499   5.729   4.621  0.2695 -1.1879  0.2748
  636MOL0     C87685   3.140   5.905   4.712  0.1123 -0.2414  0.6386
  636MOL0     C87686   3.076   5.812   4.791  0.6387  0.4684  0.1358
  636MOL0     C87687   2.940   5.797   4.792  0.1639  0.4613  0.6218
  636MOL0     C87688   2.860   5.894   4.718  0.7298 -0.6820 -0.8251
  636MOL0     O87689   2.720   5.892   4.722  0.1040  0.1966  0.0455
  636MOL0     C87690   2.643   5.998   4.656  0.3290  0.3430 -0.7447
  636MOL0     C87691   2.489   5.970   4.662 -0.8051  0.2863  1.0490
  636MOL0     C87692   2.419   6.069   4.569  0.4664  0.8290  0.4422
  636MOL0     C87693   2.294   6.140   4.618  0.1580 -0.9122 -0.4219
  636MOL0     C87694   2.176   6.057   4.652 -0.0281 -0.2300  0.8229
  636MOL0     C87695   2.076   5.980   4.647 -0.6914 -0.0095  0.5968
  636MOL0     C87696   2.928   5.980   4.637 -0.3890 -0.0952  0.3004
  636MOL0     C87697   3.068   5.980   4.624 -0.3298  0.8675 -0.1317
  636MOL0     C87698   3.129   6.065   4.524  0.0693  0.6432 -0.3731
  636MOL0     H87699   3.543   5.727   4.961  0.9033 -3.2559  0.5754
  636MOL0     H87700   3.719   5.574   4.886 -2.2389  1.0561  1.9091
  636MOL0     H87701   3.929   5.456   4.804  1.1594  1.0652  1.2708
  636MOL0     H87702   3.945   5.627   4.761 -4.6561 -0.6798  2.6521
  636MOL0     H87703   4.054   5.391   4.603  0.8607 -0.2136  0.0560
  636MOL0     H87704   4.067   5.572   4.560  3.7995  0.2076  0.7283
  636MOL0     H87705   4.191   5.610   4.763  4.1013 -0.3780  0.8202
  636MOL0     H87706   4.196   5.447   4.797 -2.3226  1.6570  1.7492
  636MOL0     H87707   4.304   5.393   4.573 -0.1953  0.8649 -0.3741
  636MOL0     H87708   4.299   5.556   4.521 -0.8699 -1.0300 -0.6110
  636MOL0     H87709   4.434   5.478   4.787 -2.0755  1.2119  0.3191
  636MOL0     H87710   4.442   5.636   4.703  3.5416  1.1562 -2.3404
  636MOL0     H87711   4.567   5.371   4.619 -1.2273 -0.4965  2.6596
  636MOL0     H87712   4.554   5.517   4.511  1.2449 -1.8430 -1.2411
  636MOL0     H87713   4.680   5.629   4.689  0.8957 -1.1449  2.4105
  636MOL0     H87714   4.762   5.533   4.565 -1.9386 -2.0764 -1.1842
  636MOL0     H87715   4.749   5.455   4.863  0.8893 -1.6973  0.8961
  636MOL0     H87716   4.759   5.337   4.737 -1.2695  0.4101  0.1772
  636MOL0     H87717   4.995   5.258   4.783  0.1864 -0.8113  1.8414
  636MOL0     H87718   5.259   5.351   4.960  1.4049 -1.7315  0.5401
  636MOL0     H87719   5.337   5.440   4.821  1.4967 -1.9080  2.9568
  636MOL0     H87720   5.191   5.182   4.782 -0.2806  1.3871  0.8022
  636MOL0     H87721   5.323   5.242   4.678  0.4965 -2.1117 -0.6001
  636MOL0     H87722   5.369   5.129   4.958 -0.0023 -0.8894 -1.2098
  636MOL0     H87723   5.403   5.050   4.811  1.0368  0.5247 -1.4340
  636MOL0     H87724   5.539   5.333   4.846  0.8472  0.2495  0.2314
  636MOL0     H87725   5.608   5.209   4.934  4.1190 -2.3240 -1.7096
  636MOL0     H87726   5.761   5.051   4.558 -2.2720 -1.6989 -0.7790
  636MOL0     H87727   6.001   4.882   4.533 -0.6031 -0.0834 -1.2694
  636MOL0     H87728   5.861   4.873   4.442 -0.1405  0.6217  1.2823
  636MOL0     H87729   5.920   4.725   4.521  0.3738 -0.9811 -0.9576
  636MOL0     H87730   6.022   4.620   5.045  1.8628 -0.4889 -0.8221
  636MOL0     H87731   6.152   4.459   5.182 -0.0756  4.1039  0.1225
  636MOL0     H87732   6.016   4.054   5.173 -0.0415  0.5670  3.4075
  636MOL0     H87733   6.141   4.013   5.053 -0.3532 -2.8055  1.1821
  636MOL0     H87734   6.304   4.021   5.245  0.1375  0.8436 -0.7909
  636MOL0     H87735   6.165   4.028   5.354 -2.2895  1.3836 -1.5026
  636MOL0     H87736   6.268   3.797   5.300 -2.3345 -1.1254  0.3084
  636MOL0     H87737   6.192   3.796   5.136  0.2533 -0.6264 -1.0106
  636MOL0     H87738   5.965   3.833   5.259 -0.7908 -1.1236  0.1697
  636MOL0     H87739   6.059   3.789   5.404  3.6479  0.1818 -0.5826
  636MOL0     H87740   6.047   3.629   5.156  0.1426  1.2215  0.2394
  636MOL0     H87741   6.114   3.583   5.316  1.0795  1.0546 -1.4013
  636MOL0     H87742   5.893   3.562   5.410 -0.2721  0.1090 -0.1491
  636MOL0     H87743   5.925   3.450   5.277 -1.4549 -0.0424 -0.3086
  636MOL0     H87744   5.783   3.530   5.123  2.8181 -0.3589 -0.0862
  636MOL0     H87745   5.779   3.690   5.188 -2.4728  0.3110  1.8785
  636MOL0     H87746   5.568   3.602   5.247 -0.3539  1.1200  0.2693
  636MOL0     H87747   5.667   3.592   5.398 -1.8997 -2.0483  0.3758
  636MOL0     H87748   5.957   4.141   4.957  1.0582 -0.9760  0.9426
  636MOL0     H87749   5.812   4.307   4.863 -0.7890  0.9317  0.5601
  636MOL0     H87750   5.685   4.772   4.959  0.7594 -1.7151 -0.5722
  636MOL0     H87751   5.593   4.998   4.941  2.4167  1.9116  0.5896
  636MOL0     H87752   3.633   5.658   4.477  2.8266  2.2653  0.0778
  636MOL0     H87753   3.421   5.763   4.554  2.6172  4.0253 -0.3305
  636MOL0     H87754   3.137   5.749   4.855  0.4179  0.0503 -0.0623
  636MOL0     H87755   2.902   5.712   4.848  3.0513 -1.5482 -0.2708
  636MOL0     H87756   2.652   6.088   4.717  1.1532 -1.1684  1.4772
  636MOL0     H87757   2.684   6.026   4.558  1.9139  1.0394  0.0816
  636MOL0     H87758   2.459   5.976   4.767  0.1347 -2.1188  1.5288
  636MOL0     H87759   2.483   5.869   4.619  3.7587  0.2287  0.0319
  636MOL0     H87760   2.498   6.139   4.538  0.4884  1.1432  1.1738
  636MOL0     H87761   2.387   6.012   4.482 -1.3691  1.7567  0.4754
  636MOL0     H87762   2.262   6.222   4.553  2.8580  0.3925 -0.2667
  636MOL0     H87763   2.332   6.196   4.704  0.0695 -0.0010 -0.9656
  636MOL0     H87764   1.994   5.911   4.638 -0.7444  0.0485  0.6405
  636MOL0     H87765   2.884   6.049   4.565  0.8130 -1.3835 -1.7758
  636MOL0     H87766   3.210   6.004   4.483  0.1499 -0.8720  1.8411
  636MOL0     H87767   3.062   6.113   4.453 -0.5205  0.6462  0.1745
  636MOL0     H87768   3.185   6.149   4.568 -0.7943  0.5710  0.9122
  637MOL0     O87769  10.367   8.798   8.199  0.3615 -0.4008  0.2945
  637MOL0     C87770  10.470   8.869   8.199  0.8662 -0.8706  1.4243
  637MOL0     O87771  10.507   8.960   8.097  0.5999  0.0678 -0.0812
  637MOL0     C87772  10.418   8.984   7.992 -0.2748 -0.2297  0.8911
  637MOL0     C87773  10.465   8.950   7.863  0.4251  0.2546 -0.8832
  637MOL0     C87774  10.398   8.995   7.752  1.3391 -0.3097  0.2615
  637MOL0     C87775  10.286   9.077   7.758 -0.1675  0.1880  0.7569
  637MOL0     O87776  10.226   9.128   7.643 -0.1398  0.2334  0.8282
  637MOL0     C87777  10.242   9.272   7.632 -0.1146 -0.0350  0.2734
  637MOL0     C87778  10.211   9.337   7.498 -0.3865 -0.0995  0.0658
  637MOL0     C87779  10.250   9.482   7.508 -0.3923  0.5100 -0.4237
  637MOL0     C87780  10.215   9.569   7.384  0.1828 -0.7128  0.9669
  637MOL0     C87781  10.214   9.715   7.434  0.1602 -0.1968  1.2879
  637MOL0     C87782  10.203   9.810   7.314 -0.6451  0.2453 -0.0320
  637MOL0     C87783  10.191   9.952   7.381 -0.3331 -0.6109  0.5418
  637MOL0     C87784  10.055   9.978   7.432 -0.0377 -0.8586  0.6619
  637MOL0     N87785  10.034  10.123   7.445  0.0344  0.6837 -0.5028
  637MOL0     C87786   9.993  10.208   7.349 -0.4010 -0.4213  0.6988
  637MOL0     C87787  10.012  10.330   7.408  0.1291 -0.1293  0.1450
  637MOL0     C87788   9.997  10.465   7.342 -0.0554  0.1482 -0.5924
  637MOL0     C87789  10.140  10.506   7.296 -1.2364 -0.1488 -0.0376
  637MOL0     C87790  10.227  10.550   7.418 -0.6861 -0.3921  0.2176
  637MOL0     C87791  10.332  10.449   7.428 -0.6708  0.6608 -0.5571
  637MOL0     O87792  10.429  10.490   7.533  0.6878  0.0137  0.2075
  637MOL0     C87793  10.518  10.404   7.583 -0.0076  0.0030 -0.7762
  637MOL0     C87794  10.605  10.448   7.678  0.1179  0.2904  0.5786
  637MOL0     C87795  10.698  10.363   7.745  0.7496 -0.0330 -0.2238
  637MOL0     C87796  10.786  10.440   7.853  0.0956 -0.0896 -0.0677
  637MOL0     C87797  10.714  10.228   7.700  0.2389 -0.2687 -0.0975
  637MOL0     C87798  10.814  10.143   7.761 -1.2000  0.6713  1.0840
  637MOL0     O87799  10.790  10.009   7.749 -0.5795 -0.1022  0.0618
  637MOL0     C87800  10.855   9.905   7.827 -0.3529 -0.1012  0.7908
  637MOL0     C87801  10.932   9.923   7.939 -0.0011  0.0572  0.1690
  637MOL0     C87802  10.983   9.819   8.019 -0.1266 -0.0046 -1.3091
  637MOL0     C87803  10.979   9.691   7.961  0.3554  0.0967  0.0717
  637MOL0     O87804  11.037   9.581   8.028  0.4962 -0.3520  0.0227
  637MOL0     C87805  11.179   9.600   8.045  0.5561 -0.6968  0.2390
  637MOL0     C87806  11.199   9.561   8.184  0.3659 -0.4078 -0.5593
  637MOL0     C87807  11.338   9.603   8.243 -0.2794  0.5141 -0.2403
  637MOL0     C87808  11.330   9.645   8.397  0.1666  0.2769  0.6885
  637MOL0     C87809  11.459   9.712   8.448  0.6179  0.3699 -1.6639
  637MOL0     C87810  11.433   9.841   8.522 -0.5414 -0.4616  0.4565
  637MOL0     C87811  11.559   9.883   8.607  0.1258 -0.2040 -1.1240
  637MOL0     C87812  11.545  10.016   8.688 -0.1402 -0.0303 -0.1259
  637MOL0    Cl87813  11.444   9.985   8.845  0.3708  0.0274  0.1492
  637MOL0     C87814  10.905   9.669   7.845  0.4376 -0.1991 -0.3694
  637MOL0     C87815  10.837   9.774   7.777 -0.0765 -0.2764 -0.5345
  637MOL0     O87816  10.926  10.182   7.795  0.8012 -0.4224 -0.3044
  637MOL0     C87817  10.619  10.179   7.608  0.3710 -0.4344 -0.1667
  637MOL0     C87818  10.527  10.268   7.543  1.0161 -0.6389 -0.5700
  637MOL0     N87819  10.039  10.314   7.543 -0.1032  0.3918 -0.0723
  637MOL0     N87820  10.044  10.192   7.562 -0.5860 -0.5805 -0.1408
  637MOL0     C87821  10.251   9.117   7.893 -0.0892  0.1188 -0.0883
  637MOL0     C87822  10.319   9.077   8.005 -0.6916  0.7426  0.9509
  637MOL0     C87823  10.544   8.884   8.329 -0.0718 -0.2681 -0.2629
  637MOL0     C87824  10.630   8.996   8.344  0.0717  0.9131  0.6233
  637MOL0     C87825  10.701   9.022   8.465  0.1040 -0.4813 -0.0230
  637MOL0     C87826  10.684   8.942   8.579  0.3600  0.7383 -0.1147
  637MOL0     O87827  10.739   8.972   8.701 -0.2299  0.6161 -0.3594
  637MOL0     C87828  10.866   9.040   8.707 -0.3329  0.1991  0.3926
  637MOL0     C87829  10.942   9.011   8.835  0.8823 -0.0771 -0.2147
  637MOL0     C87830  11.002   8.868   8.854  0.7868  0.1672 -0.1494
  637MOL0     C87831  11.121   8.816   8.760  0.3222 -0.8388 -0.6169
  637MOL0     C87832  11.058   8.782   8.631  0.7306 -1.0310 -0.1318
  637MOL0     C87833  11.010   8.739   8.529 -0.3328 -0.0397 -0.3003
  637MOL0     C87834  10.623   8.819   8.555 -0.5605 -0.8122  0.0820
  637MOL0     C87835  10.549   8.793   8.437 -0.6756  0.8534  0.6985
  637MOL0     C87836  10.472   8.661   8.439 -0.5163 -0.1260 -1.0184
  637MOL0     H87837  10.554   8.891   7.844  0.5981  0.8364 -1.9400
  637MOL0     H87838  10.428   8.962   7.653  1.1511 -0.1781  0.1603
  637MOL0     H87839  10.345   9.304   7.654 -0.4870  2.8206 -1.5801
  637MOL0     H87840  10.163   9.310   7.698 -1.6056 -1.7759 -0.4233
  637MOL0     H87841  10.274   9.283   7.427  0.6956 -1.1675  1.7677
  637MOL0     H87842  10.106   9.323   7.472 -0.5922 -1.5231  1.5146
  637MOL0     H87843  10.201   9.527   7.595  1.0138  1.4126 -0.0646
  637MOL0     H87844  10.357   9.484   7.530 -0.6430  1.2835  0.8376
  637MOL0     H87845  10.297   9.561   7.312 -0.7448  1.9799 -0.5252
  637MOL0     H87846  10.125   9.543   7.328  0.9075 -0.3417 -0.4007
  637MOL0     H87847  10.309   9.744   7.479  0.6413 -1.0965  0.8674
  637MOL0     H87848  10.134   9.728   7.508 -0.2390 -0.1624  0.8601
  637MOL0     H87849  10.286   9.804   7.244  0.0238  3.8115  0.2553
  637MOL0     H87850  10.117   9.789   7.250 -1.8634  4.0019  0.1481
  637MOL0     H87851  10.213  10.012   7.292  2.9204 -0.8676  1.0369
  637MOL0     H87852  10.275   9.966   7.450  0.6011 -0.3803 -0.6024
  637MOL0     H87853   9.982   9.936   7.362 -0.7533  0.7844  0.3573
  637MOL0     H87854  10.039   9.929   7.528 -0.8307 -2.0749 -0.0594
  637MOL0     H87855   9.974  10.189   7.244  1.9554  0.2521  0.0801
  637MOL0     H87856   9.934  10.540   7.391 -1.0208 -0.0151 -1.5593
  637MOL0     H87857   9.941  10.451   7.249 -1.4757 -1.6345  0.4639
  637MOL0     H87858  10.185  10.423   7.239  2.3389  1.1928  0.5609
  637MOL0     H87859  10.138  10.592   7.229 -0.2920 -1.0858 -1.3114
  637MOL0     H87860  10.274  10.647   7.395 -0.9888  0.2052  1.9600
  637MOL0     H87861  10.163  10.559   7.506  0.7376  1.8108  1.1338
  637MOL0     H87862  10.278  10.360   7.460 -2.1060  1.2662 -1.1892
  637MOL0     H87863  10.387  10.430   7.336  0.4802 -0.9591  0.4312
  637MOL0     H87864  10.600  10.553   7.706  2.4110  0.4590  0.5279
  637MOL0     H87865  10.735  10.526   7.897 -1.1700 -0.1149 -1.4040
  637MOL0     H87866  10.871  10.489   7.805 -2.0448  3.2501 -0.8027
  637MOL0     H87867  10.815  10.366   7.928 -2.3018 -0.7137  0.3206
  637MOL0     H87868  10.948  10.018   7.988 -0.6220  0.1452  0.2030
  637MOL0     H87869  11.029   9.830   8.117 -1.7035 -2.0028 -0.2904
  637MOL0     H87870  11.226   9.516   7.996  0.4897 -0.8303  0.4020
  637MOL0     H87871  11.211   9.704   8.032 -1.0289 -0.4873 -3.0909
  637MOL0     H87872  11.122   9.605   8.248  0.5347 -0.7535 -0.1103
  637MOL0     H87873  11.195   9.452   8.181 -1.3194 -0.3450 -1.8822
  637MOL0     H87874  11.399   9.669   8.180  0.3918  1.0218  0.9174
  637MOL0     H87875  11.405   9.516   8.245 -2.1408 -1.0111  3.3909
  637MOL0     H87876  11.297   9.559   8.456 -0.1590  0.3053  0.5463
  637MOL0     H87877  11.250   9.720   8.398 -0.9874 -0.9140  0.2576
  637MOL0     H87878  11.511   9.641   8.513 -0.6894  1.4390  0.6830
  637MOL0     H87879  11.528   9.744   8.369  1.4398 -1.4727 -1.7231
  637MOL0     H87880  11.348   9.843   8.591  0.1015 -2.0239  1.3374
  637MOL0     H87881  11.417   9.917   8.444 -0.9152 -0.8753  0.1223
  637MOL0     H87882  11.642   9.884   8.536  0.7606 -2.5359 -0.5178
  637MOL0     H87883  11.592   9.813   8.684  3.3566  0.7269 -1.5406
  637MOL0     H87884  11.490  10.087   8.626 -3.3436 -2.8694 -0.8712
  637MOL0     H87885  11.644  10.061   8.699  0.7026 -1.2775 -2.0269
  637MOL0     H87886  10.898   9.567   7.809  3.6482 -1.8575  3.0132
  637MOL0     H87887  10.772   9.762   7.691 -0.4256  1.7224 -0.6018
  637MOL0     H87888  10.623  10.073   7.587 -1.1639 -0.4849 -0.3234
  637MOL0     H87889  10.455  10.225   7.475  2.4767 -0.0596 -2.5865
  637MOL0     H87890  10.163   9.179   7.908  0.7810  1.4811 -0.4611
  637MOL0     H87891  10.277   9.115   8.098 -1.5303  0.2344  0.7974
  637MOL0     H87892  10.634   9.075   8.270 -2.3095  0.4390 -0.0719
  637MOL0     H87893  10.771   9.103   8.480 -1.5050  0.6585  1.9410
  637MOL0     H87894  10.928   9.006   8.623 -1.1865 -1.4468  0.3939
  637MOL0     H87895  10.847   9.147   8.694 -1.4033  0.2328  1.9900
  637MOL0     H87896  10.872   9.044   8.912 -0.2724  0.3290 -1.3982
  637MOL0     H87897  11.026   9.081   8.843 -0.0019  0.8332  1.8355
  637MOL0     H87898  11.029   8.877   8.959 -0.0420  0.4996  0.0427
  637MOL0     H87899  10.930   8.786   8.860  3.5062 -2.3136  0.7968
  637MOL0     H87900  11.182   8.738   8.807 -1.8861 -1.8583  0.7204
  637MOL0     H87901  11.194   8.895   8.744 -2.4143  2.6352  2.3402
  637MOL0     H87902  10.978   8.687   8.441  0.9000 -2.7393  0.7390
  637MOL0     H87903  10.620   8.747   8.637  0.5423 -3.1087 -1.7846
  637MOL0     H87904  10.520   8.584   8.500  0.4907  1.1591 -0.1422
  637MOL0     H87905  10.372   8.681   8.478  1.0003  0.5734  3.0049
  637MOL0     H87906  10.467   8.623   8.337 -0.3933 -0.2345 -0.9840
  638MOL0     O87907   2.910   4.827   0.491  0.5490  0.0934  0.0863
  638MOL0     C87908   2.873   4.908   0.408 -0.3140 -0.2782  0.1917
  638MOL0     O87909   2.784   4.886   0.307  0.3741 -0.2687  0.2071
  638MOL0     C87910   2.730   4.757   0.310 -0.4295 -0.3552 -0.8527
  638MOL0     C87911   2.808   4.641   0.304  0.8664 -0.2415  0.7184
  638MOL0     C87912   2.746   4.515   0.337  0.2892  0.1889 -0.1343
  638MOL0     C87913   2.611   4.511   0.351  0.4791  0.0420  0.9710
  638MOL0     O87914   2.546   4.384   0.373  0.9366 -0.4339  0.5934
  638MOL0     C87915   2.586   4.269   0.296 -0.8031 -0.1942  0.0947
  638MOL0     C87916   2.482   4.172   0.260  0.9742 -0.3426  0.8410
  638MOL0     C87917   2.380   4.244   0.161  0.1581  0.9166 -0.7567
  638MOL0     C87918   2.286   4.141   0.096 -0.7740  0.4779  0.1608
  638MOL0     C87919   2.218   4.215  -0.019  0.7359 -0.4010 -0.1876
  638MOL0     C87920   2.303   4.223  -0.150 -0.6185  1.2145  0.6051
  638MOL0     C87921   2.214   4.280  -0.250 -0.3769  0.8387 -0.1316
  638MOL0     C87922   2.279   4.372  -0.354 -0.2522  0.1723 -0.6454
  638MOL0     N87923   2.362   4.302  -0.450  0.2697  0.4224  0.1146
  638MOL0     C87924   2.493   4.269  -0.439  0.3043  0.0554  0.4116
  638MOL0     C87925   2.529   4.217  -0.562 -0.1656 -0.1583  0.3099
  638MOL0     C87926   2.657   4.148  -0.597  0.1437  0.0063 -0.5870
  638MOL0     C87927   2.658   4.009  -0.533 -0.0552  1.1311 -0.3277
  638MOL0     C87928   2.574   3.904  -0.606 -0.5249  0.3611 -0.1510
  638MOL0     C87929   2.544   3.764  -0.542 -0.3417  0.2978  0.3747
  638MOL0     O87930   2.659   3.681  -0.564 -0.1617  0.9134  0.0097
  638MOL0     C87931   2.726   3.639  -0.452  0.1677  0.2301 -0.2914
  638MOL0     C87932   2.766   3.509  -0.450  0.8047  0.4107 -0.6280
  638MOL0     C87933   2.850   3.461  -0.350  0.5595 -0.9625  0.4971
  638MOL0     C87934   2.891   3.324  -0.362 -0.7698 -0.4527  0.1131
  638MOL0     C87935   2.880   3.555  -0.234  0.0385  0.3025  0.3009
  638MOL0     C87936   2.946   3.501  -0.115  0.2140 -0.5935 -1.0810
  638MOL0     O87937   2.998   3.589  -0.023 -0.1409  0.6228  0.0604
  638MOL0     C87938   3.103   3.557   0.059  0.1720  0.1983 -0.3587
  638MOL0     C87939   3.206   3.467   0.023 -0.1896 -0.9438 -0.5113
  638MOL0     C87940   3.309   3.426   0.117  0.8391  0.1380  1.3922
  638MOL0     C87941   3.317   3.491   0.235  0.9802  0.9781  0.2192
  638MOL0     O87942   3.398   3.454   0.337  0.0836 -0.7966 -0.2678
  638MOL0     C87943   3.541   3.475   0.308  0.0604 -0.0307  0.3134
  638MOL0     C87944   3.624   3.419   0.422 -1.1032 -0.0201  0.2293
  638MOL0     C87945   3.594   3.479   0.562 -0.2742  0.8481 -0.3260
  638MOL0     C87946   3.708   3.458   0.660 -0.1895  0.4452  0.4536
  638MOL0     C87947   3.712   3.330   0.737 -0.4045  0.6298  0.1591
  638MOL0     C87948   3.751   3.207   0.649  0.5181 -0.3399  0.4109
  638MOL0     C87949   3.743   3.076   0.728  0.2084 -0.6008  0.2431
  638MOL0     C87950   3.801   2.957   0.647  0.0635  0.4378 -0.0866
  638MOL0    Cl87951   3.705   2.919   0.488 -0.2549  0.3191  0.0567
  638MOL0     C87952   3.214   3.573   0.278 -0.7539  0.4616  0.5212
  638MOL0     C87953   3.109   3.607   0.189 -0.0665 -0.1221  0.2736
  638MOL0     O87954   2.955   3.383  -0.097  0.2710  0.2194 -0.0599
  638MOL0     C87955   2.839   3.692  -0.241 -0.2153 -0.8394 -0.2726
  638MOL0     C87956   2.758   3.723  -0.352  0.2147  0.5962  0.5444
  638MOL0     N87957   2.416   4.212  -0.639  0.7033 -0.3121  0.6737
  638MOL0     N87958   2.314   4.259  -0.569  0.8177  0.8587 -0.7053
  638MOL0     C87959   2.531   4.625   0.354  0.0111 -0.2201  0.9875
  638MOL0     C87960   2.589   4.752   0.339  0.0628  0.4936 -0.1025
  638MOL0     C87961   2.943   5.044   0.407  0.7158  0.0319 -0.9961
  638MOL0     C87962   2.882   5.145   0.325 -0.7762  0.5789 -0.4118
  638MOL0     C87963   2.927   5.272   0.321  0.9497 -1.3276  0.3131
  638MOL0     C87964   3.037   5.313   0.391 -0.4915  1.3159 -1.5504
  638MOL0     O87965   3.103   5.436   0.396  0.4177 -0.2698  0.4848
  638MOL0     C87966   3.073   5.536   0.297 -0.1035  0.0698  0.6065
  638MOL0     C87967   2.954   5.626   0.326 -0.4951  0.5577 -0.9145
  638MOL0     C87968   2.973   5.712   0.457 -0.5683 -0.4893 -0.5858
  638MOL0     C87969   2.860   5.812   0.464 -0.1000 -0.1792 -0.3065
  638MOL0     C87970   2.863   5.883   0.588 -0.5889  0.0626 -0.2751
  638MOL0     C87971   2.887   5.949   0.691  0.3656 -0.3453  0.5053
  638MOL0     C87972   3.102   5.214   0.467  0.1763 -0.4826 -0.9941
  638MOL0     C87973   3.063   5.074   0.480  0.2062  1.1950 -0.3200
  638MOL0     C87974   3.139   4.991   0.577 -0.0493  0.5420  0.8602
  638MOL0     H87975   2.914   4.636   0.283  0.9960  0.0392  1.2744
  638MOL0     H87976   2.798   4.421   0.351 -1.6271 -0.8353  0.5455
  638MOL0     H87977   2.656   4.221   0.366  0.7668  2.5495  0.5631
  638MOL0     H87978   2.644   4.295   0.207  1.1628  3.2971  2.1522
  638MOL0     H87979   2.526   4.080   0.220  2.1838  0.0446  1.2353
  638MOL0     H87980   2.431   4.144   0.353  4.2357 -1.5829  2.4271
  638MOL0     H87981   2.316   4.302   0.230 -0.1133  0.2385 -0.4214
  638MOL0     H87982   2.429   4.311   0.090  0.3042 -1.9074 -3.5197
  638MOL0     H87983   2.342   4.058   0.052  0.4960  2.3120 -1.9061
  638MOL0     H87984   2.208   4.108   0.164 -1.7562 -0.7553 -1.4952
  638MOL0     H87985   2.189   4.315   0.013  0.4103  0.1076 -1.9354
  638MOL0     H87986   2.140   4.141  -0.038  2.8561 -2.5783 -0.9466
  638MOL0     H87987   2.393   4.282  -0.135  0.7928 -0.4307 -0.9449
  638MOL0     H87988   2.341   4.127  -0.184  1.2427  2.7961 -2.2706
  638MOL0     H87989   2.145   4.350  -0.202 -0.5566  0.7432 -0.2499
  638MOL0     H87990   2.158   4.201  -0.301  0.8139  0.3717 -0.7604
  638MOL0     H87991   2.197   4.422  -0.405 -1.3874 -1.5830 -0.5779
  638MOL0     H87992   2.342   4.443  -0.298 -1.3082 -0.8583  1.9897
  638MOL0     H87993   2.566   4.290  -0.361  0.0038  1.9404  0.2085
  638MOL0     H87994   2.746   4.192  -0.551 -0.3330  1.6576 -1.2027
  638MOL0     H87995   2.674   4.151  -0.705 -1.5236  0.6327 -0.8692
  638MOL0     H87996   2.760   3.969  -0.529 -0.2994  0.3683 -1.3013
  638MOL0     H87997   2.629   4.013  -0.428  4.0205  1.9136  0.9359
  638MOL0     H87998   2.477   3.950  -0.630 -1.7040 -2.7045 -1.9504
  638MOL0     H87999   2.622   3.892  -0.704  2.0870 -1.5860  1.2515
  638MOL0     H88000   2.523   3.774  -0.435 -2.4009 -3.1801  0.4644
  638MOL0     H88001   2.451   3.723  -0.583 -1.3762  0.0681  2.7826
  638MOL0     H88002   2.725   3.444  -0.527  1.3148  0.1383 -0.6775
  638MOL0     H88003   2.852   3.245  -0.297  2.8320 -2.8275 -0.3067
  638MOL0     H88004   3.000   3.326  -0.352 -0.5434  1.3477 -1.8884
  638MOL0     H88005   2.876   3.282  -0.461  2.5458 -1.3566 -0.1286
  638MOL0     H88006   3.212   3.445  -0.083 -1.4718 -0.4003 -0.7129
  638MOL0     H88007   3.370   3.342   0.086 -1.1578 -1.4116  1.4512
  638MOL0     H88008   3.569   3.417   0.220  1.3723 -3.3408  2.6797
  638MOL0     H88009   3.566   3.580   0.293 -0.1994  0.2785  1.8884
  638MOL0     H88010   3.605   3.311   0.426  1.0003 -0.4228  0.1495
  638MOL0     H88011   3.731   3.439   0.413 -1.2148  0.6349  0.3145
  638MOL0     H88012   3.498   3.448   0.604  0.7201  0.1327  1.5572
  638MOL0     H88013   3.583   3.587   0.551  1.7792  1.2477  0.9310
  638MOL0     H88014   3.691   3.529   0.741  1.1594 -0.8606  1.9676
  638MOL0     H88015   3.804   3.476   0.611 -0.7137 -1.0813 -1.2579
  638MOL0     H88016   3.793   3.347   0.809  0.4296  2.6081 -1.1682
  638MOL0     H88017   3.618   3.307   0.788  1.1221 -1.6099  2.1991
  638MOL0     H88018   3.853   3.224   0.613  0.0068  1.7379 -0.1993
  638MOL0     H88019   3.674   3.196   0.572  0.4081 -0.0535  0.4789
  638MOL0     H88020   3.637   3.070   0.755  0.7496  0.7192  3.0636
  638MOL0     H88021   3.799   3.087   0.821  2.2532  1.1323 -1.1060
  638MOL0     H88022   3.808   2.869   0.711  2.0164  1.4883  1.2194
  638MOL0     H88023   3.908   2.978   0.637  0.0972  0.4019  0.2038
  638MOL0     H88024   3.219   3.602   0.382  0.4201  2.6194 -0.0728
  638MOL0     H88025   3.022   3.661   0.227  0.0235  0.4900 -0.3699
  638MOL0     H88026   2.867   3.769  -0.171  1.1825 -0.7498 -0.9080
  638MOL0     H88027   2.749   3.831  -0.361  1.5299  0.5582 -2.3459
  638MOL0     H88028   2.428   4.611   0.385 -1.4527  0.8577 -2.7546
  638MOL0     H88029   2.535   4.845   0.327 -1.8582 -0.6119 -0.4587
  638MOL0     H88030   2.802   5.138   0.252  0.2105 -1.3870 -1.3888
  638MOL0     H88031   2.883   5.348   0.258 -3.2982 -2.3486  1.7499
  638MOL0     H88032   3.161   5.601   0.290 -0.7717  0.8033 -3.2387
  638MOL0     H88033   3.060   5.489   0.199 -1.6045  0.7249  0.4621
  638MOL0     H88034   2.864   5.570   0.354 -0.9976  2.2354  1.0682
  638MOL0     H88035   2.931   5.694   0.244 -0.0180 -1.5562 -2.9098
  638MOL0     H88036   2.982   5.650   0.547 -1.0300  0.6516  0.2738
  638MOL0     H88037   3.067   5.767   0.446  0.0513 -1.4261 -0.0833
  638MOL0     H88038   2.764   5.761   0.452  0.3666 -2.0274  2.7512
  638MOL0     H88039   2.870   5.887   0.385 -1.2131 -0.7340 -1.0045
  638MOL0     H88040   2.904   6.012   0.775  1.2612  1.9468 -1.2691
  638MOL0     H88041   3.184   5.259   0.522 -1.7685  2.0592  0.0339
  638MOL0     H88042   3.136   4.884   0.554 -3.1784  0.5350  0.8625
  638MOL0     H88043   3.243   5.020   0.563  0.0725  0.0950  0.8308
  638MOL0     H88044   3.094   5.004   0.676 -1.6869 -1.2569  0.4135
  639MOL0     O88045   3.258  10.106   2.640 -1.0042  0.3262 -0.4409
  639MOL0     C88046   3.334  10.179   2.582  0.0403  0.0317 -0.4228
  639MOL0     O88047   3.354  10.180   2.449  0.7374 -0.0100  0.1642
  639MOL0     C88048   3.271  10.100   2.367 -0.2245 -0.0714 -0.2006
  639MOL0     C88049   3.319  10.012   2.271  0.0387  0.2333  0.3738
  639MOL0     C88050   3.238   9.937   2.190 -0.6314  0.4006  1.3239
  639MOL0     C88051   3.091   9.960   2.194  0.6283  0.6357  0.1003
  639MOL0     O88052   3.020   9.881   2.108 -0.6937  0.0752  0.2704
  639MOL0     C88053   2.889   9.934   2.081 -0.2144  0.3313  0.6813
  639MOL0     C88054   2.793   9.831   2.006 -0.4182 -0.0654  0.6799
  639MOL0     C88055   2.832   9.820   1.850  0.1178  0.0126  0.1073
  639MOL0     C88056   2.982   9.782   1.850 -0.1477 -0.1796  0.0826
  639MOL0     C88057   3.028   9.727   1.713  0.9040  0.8579 -0.2157
  639MOL0     C88058   2.962   9.790   1.592  0.4196  0.3165 -0.1509
  639MOL0     C88059   2.974   9.727   1.462  0.3412 -1.0902  0.5509
  639MOL0     C88060   3.105   9.776   1.387  0.0846  0.9459 -0.6753
  639MOL0     N88061   3.224   9.761   1.461 -0.7457 -0.0345  0.2529
  639MOL0     C88062   3.291   9.641   1.474  0.6085  0.6124 -0.5848
  639MOL0     C88063   3.404   9.671   1.542  0.6804 -0.5003 -1.1088
  639MOL0     C88064   3.508   9.572   1.582 -0.7488 -0.0910  0.0686
  639MOL0     C88065   3.649   9.611   1.510  0.4505  0.5540  0.4747
  639MOL0     C88066   3.766   9.524   1.552  0.3837  0.2436  0.1841
  639MOL0     C88067   3.781   9.529   1.711  0.3904 -0.1789  0.7654
  639MOL0     O88068   3.778   9.661   1.756 -0.9173  0.5310 -0.6732
  639MOL0     C88069   3.890   9.742   1.736 -0.0977 -0.2779 -0.2816
  639MOL0     C88070   4.024   9.694   1.725  0.3274 -0.4358 -0.4380
  639MOL0     C88071   4.132   9.775   1.678  0.0524 -0.9885  1.0574
  639MOL0     C88072   4.282   9.728   1.693  0.0326 -0.4452  0.4670
  639MOL0     C88073   4.095   9.916   1.646  0.1713  1.0524 -0.1261
  639MOL0     C88074   4.190  10.018   1.600 -0.5046 -0.4959  0.2368
  639MOL0     O88075   4.320   9.976   1.584 -0.3143  0.0784 -0.0384
  639MOL0     C88076   4.418  10.063   1.539  0.4931  0.1806 -0.3445
  639MOL0     C88077   4.405  10.132   1.419  0.6975  0.6068  0.4397
  639MOL0     C88078   4.498  10.238   1.389  1.0328 -0.1503 -0.5820
  639MOL0     C88079   4.609  10.266   1.473  0.4935 -1.0583  0.6008
  639MOL0     O88080   4.699  10.366   1.457 -0.7529 -0.3626 -0.1435
  639MOL0     C88081   4.664  10.471   1.360 -0.1057  0.5759  0.0088
  639MOL0     C88082   4.772  10.565   1.334  0.4357 -0.1726 -0.4091
  639MOL0     C88083   4.711  10.672   1.247 -0.1995 -1.1709  0.0349
  639MOL0     C88084   4.820  10.777   1.221  0.1330  0.7061  0.2032
  639MOL0     C88085   4.872  10.857   1.347  0.3501 -0.1810 -0.4440
  639MOL0     C88086   5.024  10.835   1.350  0.4171 -0.6334  0.5988
  639MOL0     C88087   5.091  10.900   1.467 -0.8532 -0.4560 -1.2401
  639MOL0     C88088   5.222  10.833   1.510 -0.0877  0.5654  0.1592
  639MOL0    Cl88089   5.324  10.800   1.372 -0.0849 -0.3520  0.2528
  639MOL0     C88090   4.616  10.194   1.584  0.5905  0.2725 -0.9016
  639MOL0     C88091   4.526  10.095   1.621  0.0532 -0.0668  0.6218
  639MOL0     O88092   4.152  10.132   1.572  0.1904  0.3503  0.2947
  639MOL0     C88093   3.960   9.956   1.663 -1.0359 -0.3636  0.1903
  639MOL0     C88094   3.861   9.874   1.706 -0.4527  0.1733 -0.3013
  639MOL0     N88095   3.409   9.811   1.545 -0.2834  0.0870 -0.5208
  639MOL0     N88096   3.300   9.861   1.506 -0.0878 -0.0938  0.6687
  639MOL0     C88097   3.042  10.055   2.290 -0.4391  0.4047  0.2818
  639MOL0     C88098   3.131  10.120   2.374 -1.0376  0.0571 -0.3422
  639MOL0     C88099   3.403  10.254   2.686 -0.7014 -0.9300  0.3886
  639MOL0     C88100   3.323  10.326   2.776 -0.9332 -0.5773  0.0350
  639MOL0     C88101   3.388  10.423   2.853 -0.7851 -0.8441 -0.0960
  639MOL0     C88102   3.534  10.432   2.860  0.4714 -0.3715 -0.0371
  639MOL0     O88103   3.592  10.493   2.965 -0.2108 -0.8732 -0.2161
  639MOL0     C88104   3.736  10.493   2.980  0.2517  0.2002  0.5591
  639MOL0     C88105   3.769  10.578   3.094 -0.5181 -0.8375 -0.0548
  639MOL0     C88106   3.923  10.594   3.139  0.0431  0.0403 -0.3883
  639MOL0     C88107   3.998  10.465   3.187  0.3261  0.8747  0.8001
  639MOL0     C88108   4.143  10.490   3.190 -0.0766 -0.6572 -0.0157
  639MOL0     C88109   4.261  10.519   3.202 -0.6965  0.2243 -0.2978
  639MOL0     C88110   3.603  10.339   2.777 -0.5441 -1.8658 -0.3536
  639MOL0     C88111   3.537  10.260   2.682 -0.4118 -0.3364 -0.7589
  639MOL0     C88112   3.626  10.182   2.592 -0.5812  0.5593 -0.2378
  639MOL0     H88113   3.426   9.997   2.270 -0.0680 -0.8370  1.9478
  639MOL0     H88114   3.288   9.881   2.112 -2.7743  0.7323 -0.4015
  639MOL0     H88115   2.880  10.033   2.036 -2.5269 -1.2954 -2.9154
  639MOL0     H88116   2.839   9.928   2.179 -0.5108 -2.4258  0.4565
  639MOL0     H88117   2.804   9.731   2.051  3.4172  0.6129  1.6473
  639MOL0     H88118   2.690   9.865   2.020  0.2954  1.5677  2.3573
  639MOL0     H88119   2.764   9.748   1.804 -1.1755  1.5266 -0.4344
  639MOL0     H88120   2.828   9.915   1.796 -1.3504  0.3933  0.8148
  639MOL0     H88121   3.040   9.870   1.879 -0.5538 -0.1612  0.8900
  639MOL0     H88122   3.002   9.708   1.928 -1.2760  0.2845  0.8491
  639MOL0     H88123   3.005   9.623   1.688 -2.9101  0.6179  3.2308
  639MOL0     H88124   3.137   9.732   1.707  1.0976 -1.1709  0.6939
  639MOL0     H88125   2.855   9.780   1.613  0.8383  0.3273  2.3181
  639MOL0     H88126   2.999   9.893   1.583  1.2318  0.2077  1.4974
  639MOL0     H88127   2.886   9.760   1.407  1.2025  1.0041  0.3318
  639MOL0     H88128   2.972   9.618   1.471 -2.2768 -1.1043  0.3606
  639MOL0     H88129   3.104   9.718   1.295  0.4464  2.1342 -1.4412
  639MOL0     H88130   3.091   9.883   1.371 -1.8226  1.2337  2.0307
  639MOL0     H88131   3.246   9.544   1.454 -1.4914  1.5264 -0.6230
  639MOL0     H88132   3.474   9.474   1.547  0.0449 -0.1388 -0.5826
  639MOL0     H88133   3.516   9.568   1.691  0.1664 -0.6407 -0.0160
  639MOL0     H88134   3.637   9.616   1.402  1.8166  3.6272  0.3609
  639MOL0     H88135   3.665   9.718   1.529  2.4712  0.3236  0.3165
  639MOL0     H88136   3.744   9.421   1.522  0.3341 -0.1636  1.5590
  639MOL0     H88137   3.863   9.554   1.511  0.6764  0.1136  0.7718
  639MOL0     H88138   3.697   9.475   1.755 -0.8153  0.3151 -0.8225
  639MOL0     H88139   3.870   9.470   1.736  1.0879 -0.6143 -2.2915
  639MOL0     H88140   4.049   9.593   1.754  2.5388  0.4649  1.1132
  639MOL0     H88141   4.338   9.727   1.599 -0.4669 -1.2410  0.1666
  639MOL0     H88142   4.277   9.622   1.719 -0.9589  0.1624  3.0815
  639MOL0     H88143   4.329   9.783   1.775 -2.7479  0.0024  1.9090
  639MOL0     H88144   4.316  10.109   1.360  2.6243 -0.6349 -2.1701
  639MOL0     H88145   4.470  10.297   1.302 -0.1793 -0.7633 -0.6242
  639MOL0     H88146   4.639  10.423   1.265 -1.6676 -0.5696  0.9440
  639MOL0     H88147   4.578  10.524   1.402  0.6225  3.2231 -1.6075
  639MOL0     H88148   4.818  10.602   1.426  1.4626 -0.5020 -0.7796
  639MOL0     H88149   4.855  10.506   1.295  1.3851  0.4522  0.6015
  639MOL0     H88150   4.622  10.713   1.296  0.1764  1.8205 -1.6234
  639MOL0     H88151   4.690  10.620   1.153 -1.0314 -0.5470 -0.1374
  639MOL0     H88152   4.804  10.856   1.147  1.4897  1.5414  0.7774
  639MOL0     H88153   4.905  10.720   1.183  1.8896  2.5866  1.1346
  639MOL0     H88154   4.846  10.962   1.332 -1.5357 -0.6532 -0.7550
  639MOL0     H88155   4.813  10.833   1.435 -2.7198  2.6739 -1.5213
  639MOL0     H88156   5.071  10.886   1.265 -1.0846  1.5015  0.9928
  639MOL0     H88157   5.043  10.727   1.342 -0.4190 -0.6415 -3.0533
  639MOL0     H88158   5.027  10.896   1.555  1.0123 -1.6595  0.1394
  639MOL0     H88159   5.107  11.004   1.436 -0.6532 -0.0891  0.0459
  639MOL0     H88160   5.204  10.739   1.563  3.1211 -1.3504 -1.7857
  639MOL0     H88161   5.276  10.895   1.583  2.4278  0.0838 -1.1700
  639MOL0     H88162   4.691  10.214   1.660  0.0622  3.8408 -1.1413
  639MOL0     H88163   4.527  10.036   1.712 -5.4108 -0.1229  0.9419
  639MOL0     H88164   3.926  10.057   1.646  1.8725  0.5974 -0.6453
  639MOL0     H88165   3.757   9.899   1.724  0.5145  2.3782  3.1496
  639MOL0     H88166   2.935  10.057   2.309 -0.0997 -0.6907  2.7029
  639MOL0     H88167   3.082  10.189   2.442  0.3864  1.9900 -1.1878
  639MOL0     H88168   3.215  10.321   2.787 -1.0578  2.9815  1.7476
  639MOL0     H88169   3.328  10.488   2.917 -0.3751 -0.9756  0.4308
  639MOL0     H88170   3.775  10.392   3.000  0.5107  0.2370  0.2482
  639MOL0     H88171   3.783  10.530   2.888 -3.1375 -1.0508 -1.8629
  639MOL0     H88172   3.715  10.551   3.186  0.9569  2.4782  2.0129
  639MOL0     H88173   3.728  10.677   3.069 -0.0208 -0.3980  0.7902
  639MOL0     H88174   3.976  10.636   3.053  0.1849 -0.3256 -0.4848
  639MOL0     H88175   3.924  10.665   3.222  1.9461 -0.9697  0.5286
  639MOL0     H88176   3.981  10.383   3.117 -0.8401  0.0593  1.9786
  639MOL0     H88177   3.964  10.433   3.286 -0.7443  2.9688  1.1454
  639MOL0     H88178   4.367  10.533   3.199 -0.6772 -0.1166 -2.2501
  639MOL0     H88179   3.711  10.337   2.780 -0.2597 -0.0695 -4.0875
  639MOL0     H88180   3.589  10.166   2.491 -1.6392 -1.4279  0.4071
  639MOL0     H88181   3.722  10.231   2.573  0.0904  0.2592  2.0423
  639MOL0     H88182   3.658  10.089   2.639  4.0029  2.1801  0.3694
  640MOL0     O88183   7.275   2.327   1.529 -0.4599  0.1435 -0.3841
  640MOL0     C88184   7.281   2.277   1.416 -0.2337 -0.3295 -0.6427
  640MOL0     O88185   7.369   2.313   1.323  0.0395  0.4417  0.6521
  640MOL0     C88186   7.453   2.423   1.333  0.9971 -0.3502 -0.0913
  640MOL0     C88187   7.425   2.546   1.402 -0.5618  0.6851 -0.6029
  640MOL0     C88188   7.530   2.641   1.418 -0.2458  1.4169  1.4015
  640MOL0     C88189   7.662   2.622   1.355 -0.4072  0.5002  0.4503
  640MOL0     O88190   7.767   2.709   1.383  0.1742  0.0331  0.1061
  640MOL0     C88191   7.741   2.851   1.399  0.1026 -0.2323  0.6439
  640MOL0     C88192   7.868   2.918   1.369  0.2891  0.0742  0.2305
  640MOL0     C88193   7.885   2.930   1.219  0.0265  1.1810  0.0380
  640MOL0     C88194   8.011   3.020   1.190 -0.3453 -0.0764  0.1453
  640MOL0     C88195   8.030   3.030   1.038 -0.3440 -0.0480  0.4804
  640MOL0     C88196   8.161   3.106   0.996 -0.2669 -0.1042 -0.9589
  640MOL0     C88197   8.187   3.082   0.851  0.7867 -0.2691  0.4392
  640MOL0     C88198   8.294   3.176   0.790  0.0781  1.0777 -0.3175
  640MOL0     N88199   8.299   3.170   0.642  0.2126 -0.1500  0.0214
  640MOL0     C88200   8.310   3.278   0.557  0.0631 -0.6698  0.2601
  640MOL0     C88201   8.334   3.223   0.438  0.5468 -0.4425 -0.2936
  640MOL0     C88202   8.346   3.304   0.306  0.1011 -0.0785  0.5203
  640MOL0     C88203   8.244   3.248   0.190 -0.4524  0.2382  0.6432
  640MOL0     C88204   8.248   3.327   0.059  0.0470  0.8184 -0.1942
  640MOL0     C88205   8.219   3.472   0.058  0.4215 -0.4888  0.4685
  640MOL0     O88206   8.327   3.553   0.105 -0.6283  0.8304  0.8912
  640MOL0     C88207   8.316   3.653   0.206 -0.2218  0.3244 -0.1764
  640MOL0     C88208   8.219   3.654   0.311 -0.0719  1.0835  0.5149
  640MOL0     C88209   8.206   3.762   0.407  0.1632 -0.4521  1.1498
  640MOL0     C88210   8.097   3.759   0.510 -0.0518 -0.5239 -0.3884
  640MOL0     C88211   8.303   3.867   0.395  0.6062  0.0718 -0.0324
  640MOL0     C88212   8.304   4.001   0.466  0.2881  0.1036  0.4742
  640MOL0     O88213   8.179   4.033   0.510 -0.3672 -0.1401  0.8796
  640MOL0     C88214   8.158   4.145   0.579  0.1071  0.3082  0.5429
  640MOL0     C88215   8.202   4.157   0.706  0.1845  0.5897 -0.1896
  640MOL0     C88216   8.137   4.255   0.790  0.0811  0.0070  1.0661
  640MOL0     C88217   8.052   4.353   0.738 -0.5446  0.1055  0.0343
  640MOL0     O88218   7.995   4.449   0.829 -0.2328  1.0529 -0.5594
  640MOL0     C88219   7.953   4.576   0.780  0.6619 -0.1178 -0.5878
  640MOL0     C88220   7.805   4.559   0.731  0.4098  0.9769 -0.3859
  640MOL0     C88221   7.709   4.563   0.851 -0.6306  0.4493  0.5662
  640MOL0     C88222   7.572   4.536   0.810  0.5527 -0.2253 -0.2198
  640MOL0     C88223   7.481   4.539   0.930  0.3935  0.3824  0.2671
  640MOL0     C88224   7.354   4.449   0.911  0.4306 -0.4927  0.4219
  640MOL0     C88225   7.288   4.411   1.056 -0.8039 -0.0273 -0.3284
  640MOL0     C88226   7.288   4.269   1.081  0.2443  1.0784 -0.5766
  640MOL0    Cl88227   7.460   4.212   1.088  0.2001 -0.0725 -0.9118
  640MOL0     C88228   8.040   4.356   0.602 -1.1842 -0.0604  1.1104
  640MOL0     C88229   8.085   4.249   0.525  0.3418 -0.2345  0.1769
  640MOL0     O88230   8.397   4.076   0.484 -0.2541 -0.0143 -0.2981
  640MOL0     C88231   8.403   3.853   0.290  0.1010  0.7309 -1.4257
  640MOL0     C88232   8.411   3.752   0.199 -0.3552 -0.6698 -0.5728
  640MOL0     N88233   8.335   3.085   0.444 -0.0059  0.0433 -0.1694
  640MOL0     N88234   8.318   3.058   0.569 -0.6390  0.7056  0.6171
  640MOL0     C88235   7.679   2.510   1.281  0.3016 -0.1040 -0.4158
  640MOL0     C88236   7.578   2.415   1.272 -0.2653  1.0756  1.0848
  640MOL0     C88237   7.169   2.193   1.370  0.5832  0.2334  0.5509
  640MOL0     C88238   7.043   2.209   1.431  0.0692 -0.0304  0.4685
  640MOL0     C88239   6.934   2.140   1.377 -0.7941  0.3012 -0.4027
  640MOL0     C88240   6.948   2.071   1.255 -0.8144 -0.8854  0.4926
  640MOL0     O88241   6.827   2.041   1.195 -0.1083  0.0565 -0.1464
  640MOL0     C88242   6.828   1.966   1.071 -0.7934  0.1352 -0.8242
  640MOL0     C88243   6.697   1.918   1.024  1.0000  0.6539 -0.9596
  640MOL0     C88244   6.620   1.808   1.107  0.0029  0.0540  0.0161
  640MOL0     C88245   6.686   1.664   1.114  0.1217  0.0374  0.6422
  640MOL0     C88246   6.615   1.581   1.206 -0.5652 -1.0669  0.0261
  640MOL0     C88247   6.563   1.501   1.278  1.2435 -0.1061 -0.0335
  640MOL0     C88248   7.075   2.052   1.202 -0.5941  0.7599  0.3509
  640MOL0     C88249   7.186   2.098   1.263 -1.2160 -0.1886 -0.4630
  640MOL0     C88250   7.325   2.069   1.208  0.9703  0.4981  0.0446
  640MOL0     H88251   7.326   2.554   1.447 -1.8079 -1.3966 -2.7315
  640MOL0     H88252   7.505   2.723   1.485 -0.8929  2.2660  0.1529
  640MOL0     H88253   7.728   2.889   1.501 -0.8235  2.8285 -0.5036
  640MOL0     H88254   7.656   2.885   1.339  1.1182 -0.7708 -1.1510
  640MOL0     H88255   7.869   3.015   1.419 -3.0768 -0.2130  1.1175
  640MOL0     H88256   7.956   2.863   1.406  1.6094  2.8105  1.4497
  640MOL0     H88257   7.901   2.832   1.173 -1.9264  1.7441 -2.0323
  640MOL0     H88258   7.792   2.961   1.172 -1.2304 -0.2572  1.4856
  640MOL0     H88259   7.997   3.118   1.236 -1.3741 -0.6944  1.2317
  640MOL0     H88260   8.102   2.977   1.234 -0.7067 -1.4725 -0.3956
  640MOL0     H88261   7.954   3.097   0.996  1.5948  2.2279  0.4085
  640MOL0     H88262   8.033   2.930   0.993 -0.9061  0.5991 -1.0753
  640MOL0     H88263   8.143   3.212   1.016 -1.4754 -0.6700  1.2212
  640MOL0     H88264   8.253   3.079   1.049  1.3353  2.8350 -1.9803
  640MOL0     H88265   8.095   3.105   0.797  1.1473  1.5652  0.5378
  640MOL0     H88266   8.220   2.982   0.820  0.1952  0.8746 -4.9562
  640MOL0     H88267   8.269   3.280   0.816  1.7641  1.5791 -0.5901
  640MOL0     H88268   8.393   3.154   0.830 -0.3544  1.7205  1.1938
  640MOL0     H88269   8.290   3.382   0.580 -0.1132 -0.7559  0.5059
  640MOL0     H88270   8.449   3.278   0.277 -0.8084 -1.6220 -1.6169
  640MOL0     H88271   8.333   3.411   0.322 -1.2418  0.1306 -1.5553
  640MOL0     H88272   8.284   3.154   0.151 -4.0029 -0.2762 -2.3482
  640MOL0     H88273   8.146   3.235   0.235 -0.7212  0.6953  0.1973
  640MOL0     H88274   8.341   3.306   0.005  0.6579 -2.8923  1.9378
  640MOL0     H88275   8.158   3.290   0.009 -2.4150  0.4771  4.0662
  640MOL0     H88276   8.208   3.497  -0.048  2.8163 -3.9643 -0.8013
  640MOL0     H88277   8.121   3.480   0.106 -0.8846 -0.8495 -1.9728
  640MOL0     H88278   8.143   3.577   0.311 -2.0913  2.9465 -0.5834
  640MOL0     H88279   8.048   3.662   0.498  1.0192 -1.0487 -0.6429
  640MOL0     H88280   8.030   3.845   0.494  1.5971  0.5529 -1.8122
  640MOL0     H88281   8.144   3.767   0.609  1.6029 -1.6079 -1.0524
  640MOL0     H88282   8.263   4.080   0.753  0.9194  0.2258 -1.6645
  640MOL0     H88283   8.144   4.258   0.898 -3.7735  0.7481  1.4607
  640MOL0     H88284   7.954   4.656   0.855  0.2695  1.1418 -1.8711
  640MOL0     H88285   8.023   4.603   0.700  2.2741 -3.4680 -0.4940
  640MOL0     H88286   7.785   4.646   0.668 -1.6782  1.1452  0.4252
  640MOL0     H88287   7.781   4.479   0.661  0.8329  2.3930 -2.2468
  640MOL0     H88288   7.731   4.661   0.893  2.0355 -0.1021  0.6779
  640MOL0     H88289   7.747   4.494   0.927 -0.4594  0.8783  0.8755
  640MOL0     H88290   7.560   4.437   0.767 -0.9068 -1.0233  1.8639
  640MOL0     H88291   7.547   4.614   0.737  3.5259  0.3463 -0.7567
  640MOL0     H88292   7.541   4.512   1.018  3.5524  3.0228 -0.8932
  640MOL0     H88293   7.449   4.640   0.953  1.1129  0.7963 -0.4871
  640MOL0     H88294   7.389   4.359   0.858  2.3877 -0.8586  2.2120
  640MOL0     H88295   7.282   4.500   0.846  3.0279 -0.5621 -2.7957
  640MOL0     H88296   7.196   4.469   1.066  0.4034  1.7806  1.0134
  640MOL0     H88297   7.346   4.446   1.143  5.0598 -2.7660 -2.5738
  640MOL0     H88298   7.249   4.211   0.996  1.1314 -1.6825  0.7674
  640MOL0     H88299   7.225   4.244   1.167  1.6383 -0.2397  0.1094
  640MOL0     H88300   7.991   4.434   0.545  2.7261  3.0832  1.5836
  640MOL0     H88301   8.057   4.247   0.420 -1.5999  0.4606  0.6368
  640MOL0     H88302   8.468   3.938   0.274  0.8080  0.1579 -1.6520
  640MOL0     H88303   8.482   3.753   0.117 -0.6443 -2.3416 -0.8749
  640MOL0     H88304   7.777   2.501   1.235  0.5453  0.5050 -0.0364
  640MOL0     H88305   7.599   2.325   1.215  0.2490  2.0029 -0.2374
  640MOL0     H88306   7.023   2.286   1.505  0.1373  1.0071 -0.5757
  640MOL0     H88307   6.834   2.158   1.415 -1.2195  3.1804 -2.5620
  640MOL0     H88308   6.870   2.036   0.998  2.9331  0.0792  1.0077
  640MOL0     H88309   6.881   1.871   1.088 -0.9258 -0.0761 -1.5486
  640MOL0     H88310   6.697   1.877   0.922 -2.0900 -0.3313 -0.6798
  640MOL0     H88311   6.625   1.999   1.008 -1.1305 -0.8503  0.4107
  640MOL0     H88312   6.596   1.846   1.207 -1.2524  3.1558 -1.3431
  640MOL0     H88313   6.523   1.789   1.059 -1.1287 -2.6765  3.0197
  640MOL0     H88314   6.790   1.661   1.148  0.5558 -6.0366 -0.0254
  640MOL0     H88315   6.683   1.618   1.014  1.8085  1.1033  0.0505
  640MOL0     H88316   6.522   1.442   1.357 -0.5792 -0.5639 -1.2406
  640MOL0     H88317   7.084   1.992   1.112  0.7927 -1.3327  1.7817
  640MOL0     H88318   7.325   1.972   1.159  1.7272  0.4072  0.2186
  640MOL0     H88319   7.342   2.156   1.144 -3.0512  1.4716  0.0126
  640MOL0     H88320   7.402   2.062   1.285  2.0429  1.0524 -0.9360
  641MOL0     O88321   5.721   5.091   0.834  0.0574 -0.2390 -0.0146
  641MOL0     C88322   5.763   5.113   0.722  0.2084 -0.4416 -0.3345
  641MOL0     O88323   5.746   5.010   0.629 -0.0146  0.5912 -0.8927
  641MOL0     C88324   5.839   4.900   0.647  0.9117  0.2670  0.7710
  641MOL0     C88325   5.817   4.787   0.568 -0.2971  0.7139  0.0219
  641MOL0     C88326   5.900   4.669   0.580  0.3130 -0.2427  0.7991
  641MOL0     C88327   5.992   4.662   0.680 -0.4467  0.1020  0.2892
  641MOL0     O88328   6.061   4.549   0.709  0.8882 -0.2263 -0.1631
  641MOL0     C88329   5.998   4.418   0.720  0.4390 -0.4375  0.0047
  641MOL0     C88330   6.028   4.365   0.858  0.2052  0.2155 -0.3765
  641MOL0     C88331   5.984   4.221   0.872  0.0325 -0.0263  0.2035
  641MOL0     C88332   6.012   4.126   0.748  0.1006 -0.0314 -0.4028
  641MOL0     C88333   6.069   3.991   0.803 -0.5707  0.3410 -0.1152
  641MOL0     C88334   6.104   3.885   0.703 -0.1316  0.0042  0.6759
  641MOL0     C88335   6.217   3.911   0.592 -0.2597  0.6829  0.1952
  641MOL0     C88336   6.349   3.925   0.659 -1.2744  0.1169  0.6306
  641MOL0     N88337   6.445   3.953   0.549 -0.2082 -0.0828  1.0640
  641MOL0     C88338   6.465   3.882   0.431  0.2978  0.5226  0.2217
  641MOL0     C88339   6.571   3.934   0.373 -0.1461  0.4553 -0.6894
  641MOL0     C88340   6.624   3.908   0.229  0.5217  0.9105  0.9649
  641MOL0     C88341   6.741   3.804   0.214  0.6707 -0.0711  0.0139
  641MOL0     C88342   6.879   3.843   0.275 -0.3484 -0.4445 -0.3927
  641MOL0     C88343   6.984   3.748   0.223 -0.3272 -0.3498 -0.5099
  641MOL0     O88344   7.045   3.797   0.102  0.6548 -0.0813 -0.4405
  641MOL0     C88345   7.160   3.741   0.056  0.6111 -0.3082  0.5955
  641MOL0     C88346   7.214   3.619   0.095  0.7018  0.7628 -0.3920
  641MOL0     C88347   7.329   3.564   0.042  0.2514 -0.5541 -0.5803
  641MOL0     C88348   7.385   3.439   0.108 -0.5414  0.7343  0.2925
  641MOL0     C88349   7.384   3.626  -0.066 -0.1947 -0.2675 -0.0582
  641MOL0     C88350   7.504   3.580  -0.140  0.9924  0.1275 -0.0445
  641MOL0     O88351   7.502   3.447  -0.175 -0.1917 -0.5812  0.1885
  641MOL0     C88352   7.593   3.416  -0.273  0.1816  0.3392 -0.6267
  641MOL0     C88353   7.716   3.366  -0.231  0.7071 -0.0908 -0.3940
  641MOL0     C88354   7.810   3.327  -0.335  0.1616  0.5162 -0.1754
  641MOL0     C88355   7.783   3.353  -0.468 -0.3819 -0.1874 -0.2570
  641MOL0     O88356   7.870   3.299  -0.564  0.7779 -0.6744  0.0514
  641MOL0     C88357   7.821   3.288  -0.701  0.3380  0.2814 -1.0385
  641MOL0     C88358   7.935   3.233  -0.794  0.3134  0.4513  0.3999
  641MOL0     C88359   8.002   3.102  -0.735 -0.5596 -0.0694  0.2545
  641MOL0     C88360   8.121   3.059  -0.821  0.7428 -0.2185 -0.7573
  641MOL0     C88361   8.180   2.923  -0.766  0.2006 -0.4939  0.2337
  641MOL0     C88362   8.306   2.861  -0.834 -0.5906  0.7376 -0.6645
  641MOL0     C88363   8.289   2.828  -0.979 -0.9717  0.0923 -0.3374
  641MOL0     C88364   8.411   2.733  -1.010 -0.0573 -0.4029  0.1308
  641MOL0    Cl88365   8.393   2.663  -1.169 -0.4082  0.2123  0.2396
  641MOL0     C88366   7.660   3.415  -0.504 -0.1303  0.4935 -0.0937
  641MOL0     C88367   7.566   3.447  -0.405  0.2376 -0.0259 -0.2066
  641MOL0     O88368   7.595   3.658  -0.160  0.1743  0.3660  0.4608
  641MOL0     C88369   7.333   3.751  -0.101 -0.1187  0.2873  0.1446
  641MOL0     C88370   7.226   3.814  -0.044 -0.8387  0.4258  0.6813
  641MOL0     N88371   6.614   4.038   0.448  0.2711  0.8244 -0.6117
  641MOL0     N88372   6.538   4.047   0.554 -0.0320 -0.5802  0.7047
  641MOL0     C88373   6.028   4.787   0.741  0.1690 -0.2610  1.0420
  641MOL0     C88374   5.944   4.905   0.734 -0.9549  0.4702  0.2617
  641MOL0     C88375   5.800   5.247   0.679 -0.0981 -1.2772  0.1760
  641MOL0     C88376   5.820   5.280   0.544 -0.0521  0.6154  0.6480
  641MOL0     C88377   5.850   5.412   0.505  0.3610  0.0997  0.4263
  641MOL0     C88378   5.853   5.515   0.592 -0.9127 -0.2463  0.3873
  641MOL0     O88379   5.861   5.632   0.524  0.6146  0.5816 -0.0563
  641MOL0     C88380   5.804   5.748   0.590  0.3125 -0.4388 -0.4895
  641MOL0     C88381   5.824   5.887   0.518 -0.0539  0.8748 -0.1459
  641MOL0     C88382   5.739   5.998   0.584 -0.6368 -0.2076 -0.5266
  641MOL0     C88383   5.795   6.054   0.713  0.1338 -0.3641  0.2178
  641MOL0     C88384   5.926   6.128   0.694 -0.3677  0.3557 -0.0610
  641MOL0     C88385   6.014   6.215   0.691 -0.3834 -1.3434 -0.1096
  641MOL0     C88386   5.835   5.493   0.729  0.2566 -0.0718 -0.6306
  641MOL0     C88387   5.813   5.364   0.774 -0.3905 -0.9675  0.3424
  641MOL0     C88388   5.808   5.350   0.922  0.5721 -0.4410 -1.2331
  641MOL0     H88389   5.735   4.779   0.497 -0.0859 -1.8049 -0.0508
  641MOL0     H88390   5.882   4.580   0.521  0.2091 -0.1878  0.7474
  641MOL0     H88391   6.027   4.355   0.636 -0.9012  1.7196 -2.1903
  641MOL0     H88392   5.889   4.424   0.718  0.2871 -1.5047  2.0114
  641MOL0     H88393   6.137   4.373   0.865  0.4413  0.0911 -2.8949
  641MOL0     H88394   5.972   4.427   0.929  0.6029 -2.0778  2.1415
  641MOL0     H88395   6.014   4.183   0.970 -1.0793 -1.8764 -0.1195
  641MOL0     H88396   5.876   4.218   0.890  0.1304 -0.5520  0.7192
  641MOL0     H88397   5.913   4.112   0.704  0.1986 -0.0055 -0.6333
  641MOL0     H88398   6.088   4.156   0.675  0.2732 -1.6933 -0.9543
  641MOL0     H88399   5.999   3.954   0.879 -1.3653  2.0442  0.0137
  641MOL0     H88400   6.155   4.012   0.867  0.0001 -3.7159  0.7393
  641MOL0     H88401   6.130   3.791   0.753  2.4345  0.5643  0.5255
  641MOL0     H88402   6.009   3.874   0.650  0.1309  2.0948 -0.3063
  641MOL0     H88403   6.207   4.008   0.543  2.4816 -0.2911 -2.6032
  641MOL0     H88404   6.219   3.835   0.513  0.4542  2.5838 -1.6808
  641MOL0     H88405   6.350   3.996   0.742  2.9476  3.1681 -1.6388
  641MOL0     H88406   6.383   3.832   0.705 -0.0508  0.8852  1.3540
  641MOL0     H88407   6.413   3.797   0.389  0.9043  0.6811 -0.8778
  641MOL0     H88408   6.653   3.999   0.175  1.5429  1.3360  2.1720
  641MOL0     H88409   6.546   3.859   0.171  0.3887  1.3263  0.7895
  641MOL0     H88410   6.705   3.710   0.257 -0.1645  0.5560  0.7227
  641MOL0     H88411   6.741   3.793   0.105 -0.2942 -0.2431  0.0202
  641MOL0     H88412   6.909   3.944   0.246  0.1264 -1.5372 -4.1884
  641MOL0     H88413   6.874   3.836   0.384  1.3675 -2.5755 -0.3955
  641MOL0     H88414   7.070   3.751   0.290  1.7458  0.2149 -3.0100
  641MOL0     H88415   6.948   3.646   0.207  0.0333 -0.4422 -0.7356
  641MOL0     H88416   7.175   3.571   0.184  4.2335 -2.9528 -0.5707
  641MOL0     H88417   7.490   3.433   0.077 -0.2840  3.4718  0.3396
  641MOL0     H88418   7.336   3.346   0.078  2.3714 -0.1075 -2.4093
  641MOL0     H88419   7.370   3.449   0.216 -1.0264 -0.9133  0.3925
  641MOL0     H88420   7.730   3.354  -0.124  0.8542  4.8265  0.3687
  641MOL0     H88421   7.891   3.260  -0.307 -1.9209 -1.9453  0.3304
  641MOL0     H88422   7.740   3.214  -0.702  0.5687 -0.0649  1.4499
  641MOL0     H88423   7.798   3.384  -0.748 -3.8205 -1.0638 -2.2362
  641MOL0     H88424   7.884   3.212  -0.888 -1.6743  0.2528  1.4580
  641MOL0     H88425   7.999   3.320  -0.808 -3.5053  3.0615 -3.7219
  641MOL0     H88426   7.927   3.022  -0.735 -1.3378  0.6150 -1.2096
  641MOL0     H88427   8.030   3.117  -0.630 -0.9210  1.0636  0.2043
  641MOL0     H88428   8.187   3.144  -0.840  1.7283 -0.8691 -0.3521
  641MOL0     H88429   8.069   3.036  -0.915  1.8300 -0.9493 -1.2047
  641MOL0     H88430   8.211   2.946  -0.664  1.4567 -0.2829 -0.1795
  641MOL0     H88431   8.110   2.840  -0.775  0.3353 -0.4715 -1.3740
  641MOL0     H88432   8.322   2.776  -0.769 -0.7643  1.5714  0.4969
  641MOL0     H88433   8.396   2.919  -0.816  0.0156  0.5255 -2.7394
  641MOL0     H88434   8.285   2.920  -1.038  1.3840 -0.8833 -2.1800
  641MOL0     H88435   8.200   2.766  -0.989 -0.1869 -1.3870  1.2502
  641MOL0     H88436   8.412   2.648  -0.942 -2.9778  0.0539  0.8519
  641MOL0     H88437   8.501   2.791  -0.988  1.7261 -1.9709 -2.3573
  641MOL0     H88438   7.637   3.430  -0.609 -0.6960 -0.7102 -0.1564
  641MOL0     H88439   7.479   3.494  -0.449 -0.6241 -1.6468 -0.3192
  641MOL0     H88440   7.379   3.792  -0.191 -2.4374 -0.2129 -1.3623
  641MOL0     H88441   7.186   3.914  -0.055 -0.6332  1.0521  4.2578
  641MOL0     H88442   6.130   4.783   0.779  0.5405  1.4930  0.3488
  641MOL0     H88443   5.973   4.991   0.793  3.3423  1.3116 -2.5849
  641MOL0     H88444   5.802   5.215   0.458 -0.8874  0.1674  1.1530
  641MOL0     H88445   5.869   5.431   0.399 -2.1981 -2.3769 -0.5847
  641MOL0     H88446   5.698   5.723   0.590  0.2513 -0.1876 -0.0440
  641MOL0     H88447   5.842   5.763   0.692 -3.2879  0.7796  0.8250
  641MOL0     H88448   5.779   5.877   0.419 -2.1651 -3.5034  0.9991
  641MOL0     H88449   5.926   5.924   0.507 -0.9264  2.8077 -2.5465
  641MOL0     H88450   5.715   6.079   0.514  0.4503 -1.9994 -3.1016
  641MOL0     H88451   5.637   5.963   0.604 -0.9101  1.0936  0.5402
  641MOL0     H88452   5.822   5.970   0.778  2.0808 -0.9160 -1.1954
  641MOL0     H88453   5.717   6.114   0.760 -0.6264 -0.5653 -0.7259
  641MOL0     H88454   6.091   6.287   0.675  0.6637 -2.2756  0.5981
  641MOL0     H88455   5.824   5.583   0.789  1.0946  0.1237 -0.7574
  641MOL0     H88456   5.713   5.304   0.950 -0.0272 -0.0236 -2.5145
  641MOL0     H88457   5.896   5.291   0.949  0.2414 -1.0734 -1.5146
  641MOL0     H88458   5.810   5.454   0.957  0.2426 -0.1713 -1.9766
  642MOL0     O88459  10.319  10.488   1.097 -1.1472  0.2409  0.8786
  642MOL0     C88460  10.402  10.433   1.164  0.9556 -0.3545  0.4004
  642MOL0     O88461  10.531  10.421   1.133 -0.1050  0.2394 -0.1482
  642MOL0     C88462  10.583  10.524   1.054 -0.0185 -0.0541  0.2236
  642MOL0     C88463  10.664  10.490   0.950 -0.6882  0.0034 -0.3004
  642MOL0     C88464  10.715  10.577   0.856 -0.2018  0.4266  1.0107
  642MOL0     C88465  10.689  10.717   0.864  0.5285  0.1239  0.0622
  642MOL0     O88466  10.698  10.812   0.768  0.6110 -0.6890  0.8568
  642MOL0     C88467  10.819  10.874   0.735 -0.7749  0.3607 -0.2704
  642MOL0     C88468  10.888  10.786   0.625 -0.5780 -0.0521 -0.3596
  642MOL0     C88469  10.787  10.776   0.510 -0.6442  0.1507 -0.4710
  642MOL0     C88470  10.834  10.704   0.390  0.7201  0.0728  0.5505
  642MOL0     C88471  10.741  10.727   0.269  0.7483  0.3174  0.5049
  642MOL0     C88472  10.609  10.643   0.284  0.7139 -0.0898 -0.6446
  642MOL0     C88473  10.528  10.646   0.157 -0.1327 -0.1460 -0.3671
  642MOL0     C88474  10.590  10.567   0.041 -0.6240 -0.0028 -0.0822
  642MOL0     N88475  10.627  10.427   0.080 -0.5823  0.1955 -0.6207
  642MOL0     C88476  10.559  10.314   0.075 -0.6849 -0.0894 -0.6339
  642MOL0     C88477  10.648  10.214   0.096 -0.3240  0.5034 -1.0125
  642MOL0     C88478  10.622  10.067   0.091 -0.9806 -0.6977  0.4599
  642MOL0     C88479  10.623  10.010   0.227  0.2186  0.3909 -0.6191
  642MOL0     C88480  10.588   9.862   0.216 -0.1822 -0.1349 -0.3842
  642MOL0     C88481  10.633   9.775   0.320 -0.1968  0.2767 -0.6414
  642MOL0     O88482  10.606   9.631   0.299  0.2488 -0.2249  0.4664
  642MOL0     C88483  10.684   9.536   0.362  0.8817  0.0385 -0.1980
  642MOL0     C88484  10.610   9.419   0.396 -0.4585  0.5846 -0.2555
  642MOL0     C88485  10.685   9.305   0.452  1.1484  0.2723  0.4635
  642MOL0     C88486  10.600   9.193   0.510 -0.2264 -0.2776  0.5259
  642MOL0     C88487  10.829   9.320   0.468  0.0605 -0.2434 -0.1321
  642MOL0     C88488  10.904   9.221   0.550 -0.1802  0.5750 -0.3576
  642MOL0     O88489  11.015   9.264   0.614 -0.5966  0.8951  0.0961
  642MOL0     C88490  11.088   9.194   0.706  0.0290 -0.6685 -0.7875
  642MOL0     C88491  11.131   9.264   0.820 -0.6471  1.0979 -0.3607
  642MOL0     C88492  11.211   9.208   0.919  0.2584 -0.5797  0.1340
  642MOL0     C88493  11.251   9.080   0.904 -0.2600  0.3319  0.1606
  642MOL0     O88494  11.330   9.010   0.991 -0.4918 -0.3084 -0.6399
  642MOL0     C88495  11.346   9.075   1.115 -0.6413  0.2761 -0.4143
  642MOL0     C88496  11.441   8.987   1.194 -0.3972  0.7563 -0.1211
  642MOL0     C88497  11.462   9.040   1.339  0.7808  0.5988  0.4972
  642MOL0     C88498  11.572   8.957   1.417 -0.4391  0.1775 -0.3142
  642MOL0     C88499  11.576   9.003   1.553  0.4333 -0.2283  0.0262
  642MOL0     C88500  11.653   9.137   1.562 -0.4509  0.9490  0.6945
  642MOL0     C88501  11.579   9.267   1.603  0.3191  0.6415 -1.8383
  642MOL0     C88502  11.677   9.389   1.581  0.1223  0.2671 -0.2543
  642MOL0    Cl88503  11.804   9.395   1.707  0.3434 -0.1544  0.2091
  642MOL0     C88504  11.214   9.008   0.788  1.0533 -0.7563  0.4761
  642MOL0     C88505  11.126   9.063   0.694 -0.8118  0.6745 -0.0585
  642MOL0     O88506  10.855   9.103   0.569 -0.5181  0.1556  0.0346
  642MOL0     C88507  10.891   9.438   0.440 -0.1482  1.0472 -0.2918
  642MOL0     C88508  10.819   9.545   0.395  0.1747  0.0680  0.2953
  642MOL0     N88509  10.776  10.271   0.114  0.4602 -0.0893 -0.3945
  642MOL0     N88510  10.758  10.403   0.099 -0.8298 -0.6708  0.0548
  642MOL0     C88511  10.619  10.759   0.978  0.4176  1.1566  0.4363
  642MOL0     C88512  10.563  10.662   1.067  0.1146 -1.1412 -0.4812
  642MOL0     C88513  10.354  10.388   1.295  0.8139  0.4953  0.1430
  642MOL0     C88514  10.217  10.341   1.302 -0.1294  0.1982 -0.1736
  642MOL0     C88515  10.165  10.284   1.418  0.6092  0.8717  0.3904
  642MOL0     C88516  10.252  10.260   1.524 -0.6914  0.3579  0.2172
  642MOL0     O88517  10.192  10.200   1.642  0.4572 -0.4121 -0.4816
  642MOL0     C88518  10.260  10.120   1.746 -0.0426 -0.4197 -0.0356
  642MOL0     C88519  10.291   9.985   1.691  0.2252 -0.9886 -0.1512
  642MOL0     C88520  10.155   9.928   1.628  0.1550  0.2759 -0.3105
  642MOL0     C88521  10.121   9.780   1.660  0.4963 -0.2725 -0.1691
  642MOL0     C88522  10.070   9.780   1.799 -0.1409 -0.5353  0.1690
  642MOL0     C88523  10.054   9.791   1.920 -0.2660  1.1684  0.1697
  642MOL0     C88524  10.390  10.287   1.520  0.1425 -0.2457 -0.3954
  642MOL0     C88525  10.441  10.353   1.408  0.1299  0.0089 -0.2671
  642MOL0     C88526  10.591  10.371   1.413  0.1433 -0.4651 -0.3910
  642MOL0     H88527  10.703  10.389   0.941  2.2948  1.0968 -0.7823
  642MOL0     H88528  10.769  10.539   0.770  0.0831  1.3484  0.7737
  642MOL0     H88529  10.890  10.885   0.818 -0.7830  0.4664 -0.2768
  642MOL0     H88530  10.800  10.973   0.692  1.3695  1.9197  2.0845
  642MOL0     H88531  10.978  10.836   0.589  0.5269 -2.0483 -0.4638
  642MOL0     H88532  10.914  10.688   0.667  0.8742  0.0905 -0.9014
  642MOL0     H88533  10.693  10.731   0.541 -1.5906  2.0399 -0.4354
  642MOL0     H88534  10.757  10.876   0.476 -0.7786  0.5386  0.7370
  642MOL0     H88535  10.934  10.740   0.363  0.9486 -1.3943 -0.6886
  642MOL0     H88536  10.842  10.596   0.402  0.4443  0.3017  3.3999
  642MOL0     H88537  10.791  10.695   0.177 -1.7044  0.3742 -0.9437
  642MOL0     H88538  10.722  10.832   0.245 -0.4562  0.5172  2.1486
  642MOL0     H88539  10.637  10.540   0.306 -2.1960 -0.4402  2.3197
  642MOL0     H88540  10.555  10.692   0.367  0.2256 -3.1278  0.9683
  642MOL0     H88541  10.521  10.751   0.127 -0.8853 -0.8049 -2.6943
  642MOL0     H88542  10.427  10.609   0.180 -0.2337  0.3322 -0.0249
  642MOL0     H88543  10.526  10.556  -0.047  0.9031 -2.4764 -0.9950
  642MOL0     H88544  10.672  10.634   0.015  0.6524 -0.5420  2.2694
  642MOL0     H88545  10.454  10.293   0.061 -0.3310 -1.2365 -1.7534
  642MOL0     H88546  10.707  10.031   0.032  0.8235 -0.2803  2.6805
  642MOL0     H88547  10.530  10.032   0.043  0.0495 -0.8477 -1.4719
  642MOL0     H88548  10.719  10.025   0.277 -0.8784 -0.1637  1.8119
  642MOL0     H88549  10.549  10.068   0.282  0.5166  2.6711 -2.4750
  642MOL0     H88550  10.479   9.858   0.228 -0.0483  2.0954  3.0398
  642MOL0     H88551  10.624   9.823   0.120 -2.1377 -3.1703 -0.0131
  642MOL0     H88552  10.739   9.799   0.316  0.0586 -0.9418 -2.7886
  642MOL0     H88553  10.576   9.806   0.408  2.8890 -0.4066  1.7305
  642MOL0     H88554  10.501   9.427   0.395 -0.4318  1.5731  1.2752
  642MOL0     H88555  10.623   9.097   0.462 -0.6677 -0.6091  0.9673
  642MOL0     H88556  10.497   9.221   0.487  1.0160  1.4135 -4.0721
  642MOL0     H88557  10.611   9.182   0.618  0.1053  2.3509  0.8378
  642MOL0     H88558  11.095   9.364   0.838  1.8278  2.5694 -2.8111
  642MOL0     H88559  11.221   9.274   1.005 -3.7763 -0.3888  0.6904
  642MOL0     H88560  11.394   9.172   1.097 -1.4608  0.1593 -3.9483
  642MOL0     H88561  11.248   9.078   1.163 -1.8246 -3.6510 -2.2059
  642MOL0     H88562  11.409   8.883   1.201  1.2140  0.0160 -2.6105
  642MOL0     H88563  11.539   8.998   1.147 -1.5143  1.0386 -2.5756
  642MOL0     H88564  11.366   9.020   1.386  0.0693 -0.6072 -1.3358
  642MOL0     H88565  11.485   9.147   1.344  1.1340  0.5385  0.2823
  642MOL0     H88566  11.670   8.956   1.368  1.1253 -1.1670  2.5627
  642MOL0     H88567  11.535   8.854   1.417  0.0846 -0.0308 -1.3705
  642MOL0     H88568  11.472   9.006   1.587 -0.3285 -0.2417 -2.0911
  642MOL0     H88569  11.623   8.935   1.624 -0.1363 -0.3518  0.2868
  642MOL0     H88570  11.695   9.162   1.464  2.8518 -0.7967  1.5236
  642MOL0     H88571  11.732   9.122   1.636 -0.1559  0.7797  0.3484
  642MOL0     H88572  11.568   9.277   1.711  3.2707  1.8859 -1.5597
  642MOL0     H88573  11.480   9.279   1.559 -0.5177  2.2059  0.2870
  642MOL0     H88574  11.618   9.480   1.597  0.5559  0.6480 -0.7641
  642MOL0     H88575  11.711   9.399   1.478  0.7398  1.8024  0.0664
  642MOL0     H88576  11.254   8.907   0.779  1.3311 -0.9090  2.8992
  642MOL0     H88577  11.100   9.002   0.608 -0.5935 -0.6403  0.7741
  642MOL0     H88578  10.998   9.449   0.458 -0.3810  1.6255  0.8186
  642MOL0     H88579  10.866   9.641   0.375 -0.3126  0.2923  0.2241
  642MOL0     H88580  10.572  10.856   0.983 -0.2658  0.8579  0.0579
  642MOL0     H88581  10.486  10.684   1.139 -3.0764 -2.7339 -3.1258
  642MOL0     H88582  10.152  10.346   1.215  0.5481 -1.6633 -0.8513
  642MOL0     H88583  10.058  10.266   1.415  0.6677  0.2625  1.4928
  642MOL0     H88584  10.346  10.173   1.788 -1.3194 -0.5397  2.9451
  642MOL0     H88585  10.187  10.104   1.826 -0.2092  1.6256  0.2735
  642MOL0     H88586  10.335   9.917   1.764 -0.6613 -1.4933 -0.0729
  642MOL0     H88587  10.358   9.989   1.604 -0.7352  0.8658 -0.8601
  642MOL0     H88588  10.072   9.993   1.659  1.2465  1.0399  1.1702
  642MOL0     H88589  10.180   9.930   1.522 -2.2598 -3.3308 -1.0956
  642MOL0     H88590  10.206   9.716   1.635  0.3902  0.2510 -1.9859
  642MOL0     H88591  10.038   9.741   1.600  0.7421 -3.3890  1.3020
  642MOL0     H88592  10.038   9.798   2.026 -0.5064 -0.3253  0.2625
  642MOL0     H88593  10.449  10.258   1.607 -1.9542  1.0318  1.5703
  642MOL0     H88594  10.634  10.319   1.499  1.3079 -0.6123 -1.0445
  642MOL0     H88595  10.646  10.341   1.323  1.3242  2.3335 -0.6903
  642MOL0     H88596  10.606  10.477   1.434  0.6917 -1.1694  3.5451
  643MOL0     O88597   6.946   6.125   3.780 -0.3034 -1.2548  0.1458
  643MOL0     C88598   6.854   6.163   3.708 -0.6444  0.2983 -0.6175
  643MOL0     O88599   6.741   6.215   3.752  0.5508  0.4357 -0.0313
  643MOL0     C88600   6.731   6.277   3.874 -0.9188  0.3279 -0.5321
  643MOL0     C88601   6.649   6.216   3.973  0.0015 -0.3084  0.3382
  643MOL0     C88602   6.614   6.292   4.088  0.5074  0.4014  0.1956
  643MOL0     C88603   6.663   6.422   4.105 -0.2791  1.1092 -1.5261
  643MOL0     O88604   6.633   6.505   4.212  0.4325  0.8431 -0.3440
  643MOL0     C88605   6.539   6.458   4.311 -0.5090  0.1944 -0.0726
  643MOL0     C88606   6.504   6.580   4.394  0.1442 -0.1796  0.4078
  643MOL0     C88607   6.624   6.642   4.486  0.0913 -1.0354 -0.1547
  643MOL0     C88608   6.567   6.702   4.606  0.1972  0.4423  0.2759
  643MOL0     C88609   6.682   6.762   4.688 -0.2243  0.5212  0.4812
  643MOL0     C88610   6.615   6.838   4.802 -0.6002  0.4661  0.9265
  643MOL0     C88611   6.708   6.892   4.908  0.1414 -0.0186 -0.1935
  643MOL0     C88612   6.780   7.022   4.865  0.3407 -0.3527  0.3028
  643MOL0     N88613   6.897   7.063   4.941  1.0209 -0.2777  0.9245
  643MOL0     C88614   7.026   7.027   4.915 -0.0654  0.6853  0.6784
  643MOL0     C88615   7.100   7.038   5.025 -0.9850 -0.2431  0.8188
  643MOL0     C88616   7.241   6.994   5.044 -0.1128  0.8082  0.5538
  643MOL0     C88617   7.271   6.852   5.091 -0.0099  0.0090 -0.6954
  643MOL0     C88618   7.224   6.741   4.994  0.5308  0.5030 -0.9820
  643MOL0     C88619   7.258   6.758   4.849 -0.8640 -1.1057 -0.9355
  643MOL0     O88620   7.240   6.647   4.751  0.8558  0.1358 -1.1455
  643MOL0     C88621   7.338   6.558   4.711  1.2786 -0.2736 -0.6653
  643MOL0     C88622   7.310   6.461   4.612 -0.0512 -0.7770  0.0790
  643MOL0     C88623   7.415   6.384   4.548  0.8771  0.1028 -1.6328
  643MOL0     C88624   7.386   6.308   4.422  0.1256 -0.3817 -0.2173
  643MOL0     C88625   7.538   6.389   4.600 -0.2362  0.8208  0.0796
  643MOL0     C88626   7.649   6.312   4.546  0.7363  0.0831 -0.1283
  643MOL0     O88627   7.764   6.381   4.540 -1.0799 -0.0829 -0.4486
  643MOL0     C88628   7.875   6.312   4.498 -0.2540  0.1474 -0.8378
  643MOL0     C88629   7.905   6.309   4.367 -0.6484 -0.4846  0.7408
  643MOL0     C88630   8.014   6.234   4.313  0.2936 -1.5679 -0.7128
  643MOL0     C88631   8.105   6.185   4.408  0.9045  0.5853 -0.5172
  643MOL0     O88632   8.231   6.133   4.367  0.0675  0.2384  0.2976
  643MOL0     C88633   8.347   6.140   4.440  0.1103 -0.1476 -1.5922
  643MOL0     C88634   8.408   6.000   4.456 -0.6556  0.3950 -0.0086
  643MOL0     C88635   8.304   5.894   4.498 -0.2563 -0.3892  0.3228
  643MOL0     C88636   8.389   5.765   4.501 -0.0763 -0.4412  0.0755
  643MOL0     C88637   8.465   5.754   4.628 -1.0585 -0.5767 -0.1299
  643MOL0     C88638   8.531   5.607   4.648  0.9118 -0.5392 -0.2742
  643MOL0     C88639   8.581   5.610   4.791  0.8284  0.3518 -0.1307
  643MOL0     C88640   8.693   5.699   4.818 -0.6514 -0.5961 -0.7243
  643MOL0    Cl88641   8.776   5.664   4.971  0.3131 -0.2438 -0.3935
  643MOL0     C88642   8.070   6.184   4.544  0.8982  0.2480 -0.1857
  643MOL0     C88643   7.952   6.245   4.588  0.4013  0.7855  0.0787
  643MOL0     O88644   7.637   6.190   4.532  0.4546 -0.1758  0.3994
  643MOL0     C88645   7.566   6.471   4.716  0.0138 -0.1187  0.6223
  643MOL0     C88646   7.466   6.552   4.770 -1.1598 -0.5746  0.1488
  643MOL0     N88647   7.018   7.105   5.125 -0.0794 -0.3947  0.7808
  643MOL0     N88648   6.897   7.107   5.070 -0.6566 -0.9148 -0.6079
  643MOL0     C88649   6.751   6.476   4.006  0.7376  0.5139 -0.7087
  643MOL0     C88650   6.785   6.405   3.897 -0.2311  0.0186 -0.1956
  643MOL0     C88651   6.873   6.126   3.573  0.6514 -0.4380  0.1978
  643MOL0     C88652   6.891   5.989   3.549  0.0920 -0.1316  0.8068
  643MOL0     C88653   6.909   5.941   3.412  0.4026 -0.1534 -0.0784
  643MOL0     C88654   6.898   6.039   3.307 -0.2362  0.4015 -0.1381
  643MOL0     O88655   6.926   5.979   3.185  0.5005 -0.7734 -1.1082
  643MOL0     C88656   6.893   6.047   3.061 -0.1405  0.2977 -0.0968
  643MOL0     C88657   6.741   6.059   3.026  0.6487  1.9439 -0.5317
  643MOL0     C88658   6.719   6.096   2.883 -0.1067 -0.4011  0.2060
  643MOL0     C88659   6.782   6.230   2.851 -0.1900 -0.3666 -0.1561
  643MOL0     C88660   6.716   6.300   2.743  0.7357 -0.1397 -0.5929
  643MOL0     C88661   6.669   6.356   2.642  0.0029  0.4124 -0.2596
  643MOL0     C88662   6.864   6.162   3.334  0.0701 -0.2342  0.0368
  643MOL0     C88663   6.856   6.219   3.470  0.6667 -0.1138  0.0138
  643MOL0     C88664   6.828   6.364   3.506  0.0564  0.9931  0.7883
  643MOL0     H88665   6.592   6.127   3.950 -4.7036  1.9545  1.8772
  643MOL0     H88666   6.555   6.235   4.160  2.5892  1.0621  2.5910
  643MOL0     H88667   6.587   6.384   4.376  1.7387  0.4989 -1.2694
  643MOL0     H88668   6.450   6.416   4.265  0.2964 -2.6158  0.7549
  643MOL0     H88669   6.454   6.659   4.337  0.0531  0.3701  1.2307
  643MOL0     H88670   6.425   6.544   4.461 -1.9512  0.3336 -1.6620
  643MOL0     H88671   6.690   6.565   4.527  2.1265  1.1339  0.8479
  643MOL0     H88672   6.682   6.718   4.432 -2.6085  0.5495 -1.0270
  643MOL0     H88673   6.489   6.775   4.581  3.2686  3.3554 -1.6181
  643MOL0     H88674   6.526   6.617   4.662  0.6367 -2.0202 -2.8782
  643MOL0     H88675   6.747   6.819   4.622  2.6383 -1.1637  1.6328
  643MOL0     H88676   6.747   6.687   4.735 -0.7606 -0.4018 -0.1977
  643MOL0     H88677   6.563   6.926   4.763  1.1825  0.6852 -1.1818
  643MOL0     H88678   6.540   6.774   4.848  0.0499  0.3628  1.8640
  643MOL0     H88679   6.788   6.820   4.930  1.5564  1.0019 -1.7669
  643MOL0     H88680   6.654   6.907   5.002  2.5368 -0.8576  1.4261
  643MOL0     H88681   6.811   7.027   4.760 -2.1964  3.5845 -0.4924
  643MOL0     H88682   6.713   7.108   4.872 -2.7814 -2.2660 -2.6293
  643MOL0     H88683   7.056   6.991   4.816 -2.6572  2.0436 -0.7075
  643MOL0     H88684   7.288   7.066   5.113  0.4948  0.0248  0.9680
  643MOL0     H88685   7.298   7.011   4.952 -1.1811  1.7676  0.0422
  643MOL0     H88686   7.381   6.845   5.086  0.1535  2.2626 -1.3813
  643MOL0     H88687   7.251   6.834   5.197 -0.0260  1.3951 -0.4534
  643MOL0     H88688   7.266   6.648   5.034 -0.7617  0.2467 -0.1532
  643MOL0     H88689   7.116   6.723   5.003  0.4241  1.5820  0.1329
  643MOL0     H88690   7.199   6.847   4.826 -1.6408 -0.0690  3.9782
  643MOL0     H88691   7.364   6.784   4.846  0.3128 -4.7555  1.9177
  643MOL0     H88692   7.205   6.468   4.583 -0.6142  2.0397  2.3473
  643MOL0     H88693   7.359   6.211   4.465  3.1916 -1.8411 -1.3355
  643MOL0     H88694   7.479   6.302   4.366  1.0691  0.1255  1.2401
  643MOL0     H88695   7.304   6.336   4.354  0.1110  0.1880  0.0259
  643MOL0     H88696   7.840   6.355   4.293  0.0924  0.3348  0.5840
  643MOL0     H88697   8.037   6.199   4.213 -0.4842  0.4272 -1.6537
  643MOL0     H88698   8.414   6.210   4.389  1.4012 -0.8497 -0.9224
  643MOL0     H88699   8.346   6.183   4.541  0.1370 -1.0490 -1.1986
  643MOL0     H88700   8.441   5.966   4.357 -4.7350 -2.2212 -0.7288
  643MOL0     H88701   8.489   6.001   4.529  0.7683  0.6161 -1.5470
  643MOL0     H88702   8.224   5.881   4.424  2.2112  1.1724 -2.8962
  643MOL0     H88703   8.261   5.924   4.594  0.7703  2.5937 -0.0385
  643MOL0     H88704   8.449   5.745   4.411  1.8228 -3.6059  1.8710
  643MOL0     H88705   8.317   5.683   4.497  2.5904 -2.9370 -3.2599
  643MOL0     H88706   8.550   5.822   4.632 -0.4493 -1.3376  0.0836
  643MOL0     H88707   8.401   5.785   4.712  0.3420 -1.2223  1.2246
  643MOL0     H88708   8.615   5.589   4.580  1.4000  1.4002 -0.2375
  643MOL0     H88709   8.462   5.522   4.646  2.0525 -2.0299  5.1959
  643MOL0     H88710   8.607   5.509   4.824  1.2069  0.3458 -0.4474
  643MOL0     H88711   8.492   5.634   4.851  0.4228 -0.3581 -0.4387
  643MOL0     H88712   8.649   5.799   4.826 -5.2370 -2.3032 -1.4764
  643MOL0     H88713   8.763   5.696   4.735 -1.5258  0.1773 -1.5070
  643MOL0     H88714   8.125   6.131   4.621  0.6725 -0.0739 -0.2433
  643MOL0     H88715   7.909   6.232   4.687 -0.0623 -1.9661 -0.3879
  643MOL0     H88716   7.668   6.469   4.752  1.0272 -2.2085 -1.9845
  643MOL0     H88717   7.503   6.619   4.847  1.7530 -1.8561 -0.0129
  643MOL0     H88718   6.785   6.577   4.027  1.5259 -0.0673  1.0120
  643MOL0     H88719   6.856   6.449   3.828  0.5010  2.7544  2.1281
  643MOL0     H88720   6.916   5.918   3.627  2.5880 -0.5459 -0.2904
  643MOL0     H88721   6.941   5.838   3.401  3.1596  0.7912 -2.2952
  643MOL0     H88722   6.933   6.149   3.066 -2.2548  1.1232  0.9504
  643MOL0     H88723   6.950   5.992   2.985 -1.5626 -0.7577 -0.4532
  643MOL0     H88724   6.688   6.122   3.098 -1.9747 -0.3062 -0.3133
  643MOL0     H88725   6.694   5.963   3.049  1.9301  1.4506  0.1362
  643MOL0     H88726   6.748   6.019   2.811 -1.0696 -3.0913  2.5386
  643MOL0     H88727   6.611   6.108   2.877 -0.2696  0.0658  3.0974
  643MOL0     H88728   6.888   6.215   2.828  0.0171 -0.7797  1.0023
  643MOL0     H88729   6.794   6.298   2.936 -1.4233 -1.0899  0.6161
  643MOL0     H88730   6.619   6.388   2.552  2.3858 -1.9154 -2.5741
  643MOL0     H88731   6.851   6.236   3.257 -2.7735 -1.0652 -0.3813
  643MOL0     H88732   6.870   6.397   3.602 -0.2821 -0.9679  1.6609
  643MOL0     H88733   6.865   6.418   3.419  0.9168 -1.3777 -0.4084
  643MOL0     H88734   6.722   6.386   3.498  0.0567  0.2927 -2.5503
  644MOL0     O88735   8.747   0.801   9.085  0.0423 -0.3535  0.7035
  644MOL0     C88736   8.775   0.685   9.110  0.4798 -0.4859 -1.0593
  644MOL0     O88737   8.790   0.590   9.018 -0.3946 -0.8198 -0.1272
  644MOL0     C88738   8.734   0.609   8.887 -0.7856  0.0840  0.2865
  644MOL0     C88739   8.606   0.675   8.869  0.1325  0.3403  0.2541
  644MOL0     C88740   8.544   0.685   8.749  0.0538 -0.9352 -0.3169
  644MOL0     C88741   8.601   0.628   8.637 -0.1252  0.4017  0.2311
  644MOL0     O88742   8.555   0.635   8.510 -0.3838  0.5084 -0.1536
  644MOL0     C88743   8.594   0.743   8.424  0.1584 -0.6669  0.1335
  644MOL0     C88744   8.738   0.767   8.435 -0.6672 -0.0496  0.7465
  644MOL0     C88745   8.781   0.859   8.308 -1.2068 -0.2107 -0.0509
  644MOL0     C88746   8.933   0.885   8.335  0.1345  1.5731  0.6777
  644MOL0     C88747   9.011   0.956   8.218 -0.0744 -0.7770  0.3984
  644MOL0     C88748   8.957   1.082   8.154 -0.4936  0.0464 -0.3502
  644MOL0     C88749   9.052   1.127   8.043 -0.1561  0.9280 -0.5606
  644MOL0     C88750   9.043   1.035   7.913 -0.3436  0.0335  0.4424
  644MOL0     N88751   8.920   1.019   7.836  0.9645 -1.4520 -0.3460
  644MOL0     C88752   8.875   1.117   7.747 -0.0417 -0.5711 -0.4247
  644MOL0     C88753   8.754   1.065   7.705 -0.1684  0.9240 -0.7321
  644MOL0     C88754   8.663   1.126   7.608  0.5446 -0.2737 -0.1400
  644MOL0     C88755   8.619   1.270   7.646  0.2266 -0.6413  0.4143
  644MOL0     C88756   8.521   1.277   7.757  0.9246  0.4716 -0.1784
  644MOL0     C88757   8.444   1.410   7.758  0.3013  0.2679  0.8971
  644MOL0     O88758   8.526   1.525   7.731  0.3335  0.8346  0.7711
  644MOL0     C88759   8.465   1.648   7.738 -0.0585 -0.0552  0.8130
  644MOL0     C88760   8.334   1.668   7.698  0.1399  0.2105 -0.9431
  644MOL0     C88761   8.276   1.797   7.710  0.6267  0.0881  0.7013
  644MOL0     C88762   8.134   1.809   7.668 -0.0079 -0.3196 -0.5337
  644MOL0     C88763   8.360   1.908   7.750  0.6372  0.1724 -0.1512
  644MOL0     C88764   8.318   2.042   7.760  0.5218  0.8793 -0.1020
  644MOL0     O88765   8.410   2.140   7.763 -0.0593 -0.6000  0.4054
  644MOL0     C88766   8.356   2.267   7.776  0.7074  0.2403  0.2746
  644MOL0     C88767   8.364   2.327   7.896 -0.6048 -0.5489  0.1351
  644MOL0     C88768   8.310   2.457   7.920 -0.4189  0.9498  0.2283
  644MOL0     C88769   8.263   2.533   7.805 -0.3499 -0.4117  0.2143
  644MOL0     O88770   8.228   2.667   7.806 -0.1233  0.1266 -0.2813
  644MOL0     C88771   8.144   2.717   7.924  0.0293  0.1766 -1.0580
  644MOL0     C88772   8.210   2.850   7.991  0.7552 -1.0029  0.2418
  644MOL0     C88773   8.358   2.850   8.013 -1.2112  0.1948 -0.3355
  644MOL0     C88774   8.408   2.988   8.042  0.7981  0.7958  0.3012
  644MOL0     C88775   8.556   2.974   8.034 -0.2075 -1.1910  0.1936
  644MOL0     C88776   8.623   3.109   8.083 -0.1234  0.3360 -0.3283
  644MOL0     C88777   8.782   3.101   8.081 -0.1763  0.1322 -0.3768
  644MOL0     C88778   8.847   3.153   8.204  0.3097  0.2725 -0.4380
  644MOL0    Cl88779   8.787   3.315   8.258  0.2601  0.0871 -0.4332
  644MOL0     C88780   8.271   2.465   7.684  0.3351  0.0190  0.0086
  644MOL0     C88781   8.306   2.338   7.665  0.4911 -0.2607  0.0120
  644MOL0     O88782   8.194   2.065   7.769 -0.6794  0.6707  0.8118
  644MOL0     C88783   8.493   1.884   7.776 -0.4641  1.0351  0.2151
  644MOL0     C88784   8.550   1.756   7.768  0.8537 -0.2689 -0.3148
  644MOL0     N88785   8.725   0.948   7.782 -0.9873  0.3857 -0.2976
  644MOL0     N88786   8.829   0.920   7.857 -0.3564 -0.3334 -0.0500
  644MOL0     C88787   8.719   0.560   8.650 -0.6842  1.1896 -0.4174
  644MOL0     C88788   8.785   0.553   8.771  0.2407  0.5515 -1.0601
  644MOL0     C88789   8.797   0.647   9.254 -0.1002 -0.0877 -0.2582
  644MOL0     C88790   8.809   0.755   9.343  0.2768  0.0034 -0.3498
  644MOL0     C88791   8.823   0.729   9.480  0.8037 -0.3605 -0.0080
  644MOL0     C88792   8.811   0.601   9.532  0.3191 -1.0259 -0.2984
  644MOL0     O88793   8.813   0.589   9.665 -0.2506 -0.4303  0.1453
  644MOL0     C88794   8.769   0.479   9.743  1.1812 -0.2451 -0.1832
  644MOL0     C88795   8.628   0.414   9.719  0.0659  0.3523 -0.2852
  644MOL0     C88796   8.516   0.499   9.783  0.2591 -1.0735  0.0027
  644MOL0     C88797   8.385   0.460   9.714  0.3962 -0.7472 -0.3244
  644MOL0     C88798   8.263   0.539   9.744  0.2632  0.9876  0.0141
  644MOL0     C88799   8.163   0.610   9.765  0.2255  0.2790  0.2571
  644MOL0     C88800   8.799   0.496   9.446  0.2207 -0.0732 -1.1278
  644MOL0     C88801   8.785   0.511   9.310  0.5399 -0.6149  0.7418
  644MOL0     C88802   8.774   0.388   9.231  0.2257  1.0454 -0.1379
  644MOL0     H88803   8.556   0.703   8.961  1.8910 -1.8622  2.0049
  644MOL0     H88804   8.450   0.738   8.735  0.8432  0.7116  0.2718
  644MOL0     H88805   8.530   0.832   8.430 -0.0477 -0.6777 -1.4851
  644MOL0     H88806   8.578   0.707   8.323  0.1597  0.7128 -0.3868
  644MOL0     H88807   8.768   0.813   8.529  1.2989  1.3078 -0.4425
  644MOL0     H88808   8.795   0.674   8.422  0.6941  0.7387  0.8741
  644MOL0     H88809   8.772   0.820   8.206 -0.6840  0.0215 -0.1907
  644MOL0     H88810   8.730   0.956   8.310 -0.3305  0.4903 -3.7795
  644MOL0     H88811   8.940   0.947   8.425  1.0617  2.0946  0.2620
  644MOL0     H88812   8.980   0.786   8.339 -0.2621  1.3621  0.1602
  644MOL0     H88813   9.027   0.880   8.140  1.4975  2.7972 -3.1062
  644MOL0     H88814   9.113   0.976   8.252  0.4738 -2.3941 -0.1863
  644MOL0     H88815   8.852   1.078   8.123 -0.3830  1.3809 -1.0045
  644MOL0     H88816   8.967   1.151   8.238  0.2594 -0.3110 -0.1436
  644MOL0     H88817   9.155   1.125   8.081 -0.8559 -0.1365  1.4734
  644MOL0     H88818   9.034   1.231   8.017 -1.0804  0.6972 -0.8824
  644MOL0     H88819   9.118   1.069   7.841 -2.3193 -1.4599 -2.5901
  644MOL0     H88820   9.072   0.934   7.943  0.7304  0.2711  0.2411
  644MOL0     H88821   8.918   1.213   7.721 -1.3531  1.1161  3.0154
  644MOL0     H88822   8.577   1.059   7.599  1.0671 -0.7659 -2.0113
  644MOL0     H88823   8.717   1.126   7.513 -1.7047  2.8243 -1.6117
  644MOL0     H88824   8.704   1.334   7.672 -1.9666  3.6698 -1.9027
  644MOL0     H88825   8.580   1.312   7.553 -0.1862 -2.0192 -0.0541
  644MOL0     H88826   8.445   1.200   7.742  0.1660  1.2304 -0.2825
  644MOL0     H88827   8.572   1.247   7.849  0.2699 -2.0829 -0.5768
  644MOL0     H88828   8.371   1.400   7.677  2.3714  1.0358 -1.1604
  644MOL0     H88829   8.387   1.422   7.851 -1.4589 -1.7698  0.1746
  644MOL0     H88830   8.272   1.585   7.666 -2.5245  1.8994 -0.5325
  644MOL0     H88831   8.070   1.820   7.757  1.5717  1.7072  0.4422
  644MOL0     H88832   8.113   1.720   7.608  0.0393 -0.6440 -0.0741
  644MOL0     H88833   8.124   1.901   7.610 -1.4334  0.0318  0.2246
  644MOL0     H88834   8.400   2.266   7.978  2.2271 -0.3695 -0.8496
  644MOL0     H88835   8.324   2.507   8.015 -0.5656 -0.8900  1.2785
  644MOL0     H88836   8.048   2.764   7.898  0.9769  1.0604 -3.1688
  644MOL0     H88837   8.127   2.636   7.995  0.7312  0.8815 -0.0585
  644MOL0     H88838   8.193   2.935   7.925  0.0446 -0.9997  0.4203
  644MOL0     H88839   8.165   2.878   8.087  1.7046 -2.1413  1.0503
  644MOL0     H88840   8.421   2.807   7.935 -2.3712 -1.1518 -0.5747
  644MOL0     H88841   8.379   2.782   8.096  1.4568  1.4141  0.0818
  644MOL0     H88842   8.369   3.014   8.141 -1.6533 -0.4135 -0.2538
  644MOL0     H88843   8.377   3.059   7.965  0.2767  0.3961  0.1345
  644MOL0     H88844   8.598   2.889   8.087 -1.0518 -4.0485 -3.3268
  644MOL0     H88845   8.582   2.962   7.928 -0.5590 -0.7668  0.0551
  644MOL0     H88846   8.583   3.123   8.184 -1.8553  0.3859 -0.9929
  644MOL0     H88847   8.580   3.196   8.033  0.7263 -0.2893 -2.2398
  644MOL0     H88848   8.825   3.151   7.994  3.7608 -2.4049 -0.1081
  644MOL0     H88849   8.813   2.998   8.063 -1.1698  0.1114 -2.2681
  644MOL0     H88850   8.955   3.167   8.194  0.1659  5.7024  1.6966
  644MOL0     H88851   8.820   3.084   8.285  0.8332 -0.9833 -1.3085
  644MOL0     H88852   8.249   2.530   7.599 -0.9150 -1.3870 -0.7930
  644MOL0     H88853   8.314   2.286   7.570  2.4635 -0.1446  0.0752
  644MOL0     H88854   8.568   1.961   7.793 -0.0030  0.7411 -0.4444
  644MOL0     H88855   8.654   1.745   7.797  1.3428  0.6945 -1.6147
  644MOL0     H88856   8.760   0.516   8.559 -0.0842  2.2553 -0.6746
  644MOL0     H88857   8.879   0.502   8.791  0.8104  2.3896  1.4666
  644MOL0     H88858   8.821   0.854   9.301  0.9883  0.1698  0.2162
  644MOL0     H88859   8.833   0.813   9.548  0.3778  1.1624 -1.7185
  644MOL0     H88860   8.835   0.393   9.730  1.4555 -0.0419 -0.1376
  644MOL0     H88861   8.767   0.515   9.846 -0.8007 -1.2927  0.1949
  644MOL0     H88862   8.624   0.315   9.766 -1.3460 -0.2751 -1.6585
  644MOL0     H88863   8.607   0.391   9.614 -0.6421 -1.9479  0.2983
  644MOL0     H88864   8.505   0.473   9.889 -0.2835  0.0192  0.2338
  644MOL0     H88865   8.541   0.605   9.770 -0.3579 -1.2285 -3.2098
  644MOL0     H88866   8.366   0.354   9.730 -0.8258 -0.3374  1.1158
  644MOL0     H88867   8.394   0.451   9.605 -1.5028 -0.2987 -0.5537
  644MOL0     H88868   8.082   0.679   9.774  0.3189  1.3512 -4.5985
  644MOL0     H88869   8.799   0.395   9.488  0.2516  0.7996  1.1071
  644MOL0     H88870   8.865   0.358   9.179  0.1018 -2.0535  1.2110
  644MOL0     H88871   8.746   0.305   9.296 -0.8908  0.5746 -1.2038
  644MOL0     H88872   8.696   0.399   9.156  0.9051  2.0217 -0.7232
  645MOL0     O88873  10.765   5.486   4.320  0.1414 -0.1680  0.5215
  645MOL0     C88874  10.765   5.598   4.263 -0.3367  0.2672  0.3629
  645MOL0     O88875  10.856   5.641   4.167  0.0115  0.4513  0.4007
  645MOL0     C88876  10.970   5.568   4.144  0.7403  0.8594 -1.5575
  645MOL0     C88877  11.083   5.579   4.220 -0.1963 -0.1851  0.3562
  645MOL0     C88878  11.197   5.504   4.197 -0.1139  0.0650 -0.5038
  645MOL0     C88879  11.207   5.405   4.097  0.2421 -0.0451 -0.2546
  645MOL0     O88880  11.319   5.324   4.085 -0.2959  0.2812  0.0420
  645MOL0     C88881  11.405   5.349   3.977  1.1937 -0.0268  0.3338
  645MOL0     C88882  11.501   5.232   3.964 -0.9504  0.1516 -0.4544
  645MOL0     C88883  11.607   5.230   4.074 -0.1826 -0.2631 -0.9581
  645MOL0     C88884  11.699   5.351   4.104 -0.0358 -0.4197  0.0213
  645MOL0     C88885  11.790   5.325   4.222 -0.5838 -0.2856  0.2499
  645MOL0     C88886  11.836   5.452   4.297 -0.0054  0.0433  0.6140
  645MOL0     C88887  11.936   5.546   4.220 -0.3013  0.8411  0.2501
  645MOL0     C88888  12.073   5.498   4.232 -0.1530  0.6011 -0.4923
  645MOL0     N88889  12.170   5.608   4.243  0.4560 -0.4307 -0.4190
  645MOL0     C88890  12.192   5.709   4.160 -0.2102 -0.3904  0.1374
  645MOL0     C88891  12.274   5.803   4.216 -1.1191 -0.0009  0.1228
  645MOL0     C88892  12.342   5.920   4.149 -1.3528  0.4888 -0.6747
  645MOL0     C88893  12.241   6.039   4.137  0.5024 -0.3328  0.2520
  645MOL0     C88894  12.317   6.170   4.105  0.9546  0.5678 -0.3765
  645MOL0     C88895  12.269   6.254   3.986  0.5197  0.6317  0.2412
  645MOL0     O88896  12.357   6.219   3.883 -0.3381 -1.0496  0.3264
  645MOL0     C88897  12.336   6.273   3.756  0.5126  0.5365  0.2956
  645MOL0     C88898  12.449   6.246   3.679  1.0377  0.1315 -0.1588
  645MOL0     C88899  12.457   6.293   3.549 -0.6091 -0.4316 -0.0044
  645MOL0     C88900  12.590   6.265   3.480 -0.6120 -0.3941 -0.2253
  645MOL0     C88901  12.347   6.371   3.496 -0.5430 -0.2599  1.3956
  645MOL0     C88902  12.346   6.427   3.364 -0.3293 -0.4436  0.0736
  645MOL0     O88903  12.449   6.396   3.277  0.1938  0.7172  0.2240
  645MOL0     C88904  12.476   6.476   3.169 -0.9836 -0.5691 -0.6952
  645MOL0     C88905  12.460   6.619   3.173  0.3503  0.1192 -0.5445
  645MOL0     C88906  12.495   6.704   3.070 -0.3640 -0.2710  0.0324
  645MOL0     C88907  12.572   6.655   2.960 -0.4350 -0.4088 -0.2861
  645MOL0     O88908  12.609   6.747   2.870 -0.3308  0.4414 -0.0858
  645MOL0     C88909  12.746   6.736   2.814 -0.2257 -0.6473 -0.2678
  645MOL0     C88910  12.746   6.719   2.666  0.4157  0.1196 -0.7845
  645MOL0     C88911  12.674   6.824   2.595  0.1132  0.0663  0.2729
  645MOL0     C88912  12.650   6.806   2.445 -0.2808  0.4937 -0.0970
  645MOL0     C88913  12.568   6.925   2.383 -0.6607  0.0632  0.7405
  645MOL0     C88914  12.545   6.898   2.230  0.6603 -0.2868  0.4481
  645MOL0     C88915  12.449   6.990   2.162  0.4459  0.9333  0.3243
  645MOL0     C88916  12.374   6.921   2.042  0.9490  0.1714  0.0949
  645MOL0    Cl88917  12.275   7.072   1.991 -0.3625 -0.5603  0.0507
  645MOL0     C88918  12.606   6.525   2.967 -0.4525  0.7346  0.2907
  645MOL0     C88919  12.555   6.428   3.062  0.7608  0.1945  0.1171
  645MOL0     O88920  12.255   6.511   3.344  0.0851  0.5410  0.1200
  645MOL0     C88921  12.232   6.387   3.577 -0.1394  0.4674 -0.3613
  645MOL0     C88922  12.225   6.330   3.705 -0.5998  0.1985 -0.6470
  645MOL0     N88923  12.307   5.752   4.336 -0.1971  1.0785 -0.0030
  645MOL0     N88924  12.242   5.636   4.357  0.4574  0.5854 -0.3666
  645MOL0     C88925  11.082   5.370   4.031  0.4961  0.1048 -0.0035
  645MOL0     C88926  10.970   5.451   4.057  0.6042 -1.5863 -0.4192
  645MOL0     C88927  10.657   5.697   4.291 -0.1732  0.2199  0.1243
  645MOL0     C88928  10.677   5.828   4.263  0.0688  0.2814 -0.2165
  645MOL0     C88929  10.584   5.936   4.295 -0.5187 -0.3861  0.8335
  645MOL0     C88930  10.459   5.905   4.355 -0.1898  0.1208  0.1875
  645MOL0     O88931  10.370   6.012   4.372 -0.3556  0.5274  0.2367
  645MOL0     C88932  10.264   5.991   4.462  0.9785 -0.4199  0.4822
  645MOL0     C88933  10.137   6.059   4.416  0.2081 -0.2173  0.5162
  645MOL0     C88934  10.110   6.037   4.269 -0.3062  0.1724  0.5550
  645MOL0     C88935   9.978   6.077   4.211  0.2060 -0.4435 -0.3150
  645MOL0     C88936   9.863   6.005   4.270  0.2232 -0.3568  0.3014
  645MOL0     C88937   9.757   5.962   4.305 -0.2581  1.2045  0.3189
  645MOL0     C88938  10.429   5.770   4.367 -0.8648  0.9199 -0.9664
  645MOL0     C88939  10.520   5.664   4.339 -0.5350 -0.0099  0.0749
  645MOL0     C88940  10.465   5.520   4.344  0.1289 -0.3191 -0.2120
  645MOL0     H88941  11.096   5.659   4.292  2.5750  1.2881 -1.5947
  645MOL0     H88942  11.288   5.513   4.256 -0.0361 -0.4576 -0.5411
  645MOL0     H88943  11.462   5.442   3.986  0.3662  0.4023  1.4488
  645MOL0     H88944  11.340   5.358   3.889  1.2051 -0.5640  0.2677
  645MOL0     H88945  11.452   5.135   3.954  1.2096 -0.8202 -3.4412
  645MOL0     H88946  11.559   5.224   3.871 -2.1353 -0.9257 -1.1403
  645MOL0     H88947  11.562   5.207   4.171 -0.2831  0.3183 -0.8608
  645MOL0     H88948  11.661   5.138   4.049 -0.1297  0.1019 -2.2743
  645MOL0     H88949  11.746   5.380   4.009  0.2603 -1.4256 -0.1453
  645MOL0     H88950  11.638   5.440   4.125  1.3360  0.5069  0.1633
  645MOL0     H88951  11.878   5.273   4.182  0.5819  0.8782  1.1987
  645MOL0     H88952  11.740   5.256   4.291 -2.0289  0.0714 -0.4114
  645MOL0     H88953  11.745   5.511   4.308 -2.1865 -3.0816  0.5918
  645MOL0     H88954  11.882   5.423   4.393 -1.9484 -0.8539  1.3251
  645MOL0     H88955  11.921   5.645   4.265 -2.7616  0.0441  1.3682
  645MOL0     H88956  11.902   5.568   4.118  3.0848 -0.3356 -1.2710
  645MOL0     H88957  12.089   5.430   4.316  3.6078  0.8289 -0.8426
  645MOL0     H88958  12.104   5.439   4.145 -3.6317 -0.3297 -1.2545
  645MOL0     H88959  12.157   5.699   4.057 -1.3861 -0.7445  0.5616
  645MOL0     H88960  12.390   5.896   4.054  3.1010 -0.0374  1.4567
  645MOL0     H88961  12.431   5.944   4.208 -1.0107 -0.8238 -0.6250
  645MOL0     H88962  12.162   6.010   4.067 -0.3157  2.0005  0.1209
  645MOL0     H88963  12.205   6.042   4.241  0.9224  1.9337  0.3945
  645MOL0     H88964  12.310   6.232   4.194  0.2800 -1.0979  0.7807
  645MOL0     H88965  12.420   6.135   4.089  0.2512 -1.5747 -0.6602
  645MOL0     H88966  12.162   6.237   3.978  0.9045 -2.0881 -0.2086
  645MOL0     H88967  12.281   6.362   4.003 -0.8245  1.1685 -1.9012
  645MOL0     H88968  12.534   6.219   3.741 -0.0193 -1.7440  0.5699
  645MOL0     H88969  12.671   6.225   3.542 -2.4990 -0.7901  2.1184
  645MOL0     H88970  12.617   6.365   3.444 -0.8396  0.0693  0.8352
  645MOL0     H88971  12.564   6.194   3.401  0.2711  0.6542 -1.4933
  645MOL0     H88972  12.410   6.660   3.260 -2.0463 -1.0384 -1.3120
  645MOL0     H88973  12.470   6.810   3.073 -0.3481 -0.2690  0.1171
  645MOL0     H88974  12.803   6.825   2.839 -1.2354 -0.5773  2.0236
  645MOL0     H88975  12.786   6.643   2.855  0.9931 -0.3182 -0.6658
  645MOL0     H88976  12.847   6.706   2.625  1.3168  2.7889  0.3518
  645MOL0     H88977  12.708   6.618   2.646 -1.2694  0.7329 -0.8671
  645MOL0     H88978  12.726   6.920   2.602  0.2357 -0.0702  1.3386
  645MOL0     H88979  12.576   6.842   2.640 -0.3281  4.7009 -1.9105
  645MOL0     H88980  12.601   6.711   2.421 -1.5570  1.1149 -0.0724
  645MOL0     H88981  12.744   6.806   2.390  1.3935 -3.0357  2.4177
  645MOL0     H88982  12.468   6.926   2.427 -1.8655  2.1082 -1.7808
  645MOL0     H88983  12.616   7.022   2.392  0.1890  0.0012 -2.0556
  645MOL0     H88984  12.498   6.799   2.217 -1.8940  0.5914  2.1771
  645MOL0     H88985  12.639   6.897   2.174  1.5851 -0.2741  1.9469
  645MOL0     H88986  12.510   7.078   2.138  0.6513  0.0145 -2.9951
  645MOL0     H88987  12.372   7.022   2.232 -0.0421  0.9651 -0.2184
  645MOL0     H88988  12.327   6.827   2.068  2.8317  0.0683  3.7727
  645MOL0     H88989  12.448   6.895   1.965  1.5567 -0.7248  0.9600
  645MOL0     H88990  12.678   6.477   2.901 -0.9822 -2.3531  1.7991
  645MOL0     H88991  12.593   6.327   3.056  1.7822  0.4958  1.1290
  645MOL0     H88992  12.148   6.453   3.560 -0.7318  0.0665  0.8468
  645MOL0     H88993  12.132   6.326   3.761  0.7065  3.7473  2.1064
  645MOL0     H88994  11.069   5.289   3.959  2.2815 -0.7550  0.5910
  645MOL0     H88995  10.876   5.427   4.008 -1.1086  0.2033  1.7699
  645MOL0     H88996  10.778   5.859   4.238  0.9116  0.5975  3.0977
  645MOL0     H88997  10.614   6.039   4.277  2.8906 -1.7888 -2.7761
  645MOL0     H88998  10.235   5.891   4.496  1.2318  0.3218  3.1494
  645MOL0     H88999  10.285   6.047   4.554 -2.4335  2.2038 -0.1247
  645MOL0     H89000  10.157   6.164   4.440  3.4683 -0.0992 -1.9439
  645MOL0     H89001  10.049   6.026   4.472 -0.1771 -0.2809 -0.1265
  645MOL0     H89002  10.173   6.113   4.221 -2.0901 -0.2666 -2.8240
  645MOL0     H89003  10.142   5.938   4.234 -2.2942  0.0945 -1.2329
  645MOL0     H89004   9.976   6.052   4.105 -2.3534  1.5137 -0.8422
  645MOL0     H89005   9.970   6.187   4.214 -0.4933 -0.3283 -3.1415
  645MOL0     H89006   9.660   5.928   4.337  0.2134 -0.1588  0.3462
  645MOL0     H89007  10.332   5.746   4.410 -0.6439  3.0022  0.8640
  645MOL0     H89008  10.362   5.513   4.381  0.0279 -0.1489 -0.4637
  645MOL0     H89009  10.466   5.466   4.249  1.4663 -1.9494  0.6811
  645MOL0     H89010  10.530   5.460   4.409 -0.6681 -0.2374  0.6878
  646MOL0     O89011   9.042   3.359  10.999  0.5646  0.5571  0.9312
  646MOL0     C89012   9.117   3.454  10.998  0.1404  0.2352  0.7590
  646MOL0     O89013   9.229   3.468  10.918 -0.2863  0.2899  0.1384
  646MOL0     C89014   9.249   3.359  10.837  0.7807 -0.0178 -0.7108
  646MOL0     C89015   9.167   3.345  10.728 -0.3058 -0.8503  0.0494
  646MOL0     C89016   9.171   3.242  10.637  0.1754 -0.1431 -0.5865
  646MOL0     C89017   9.281   3.161  10.644  0.2489  0.7494  0.4616
  646MOL0     O89018   9.316   3.077  10.540  0.0894 -0.2503  0.2830
  646MOL0     C89019   9.456   3.077  10.489 -0.6178  0.3239 -0.2248
  646MOL0     C89020   9.476   3.040  10.345 -0.2051  0.8560  0.6747
  646MOL0     C89021   9.635   3.036  10.315  0.7862  0.5880  0.1502
  646MOL0     C89022   9.658   2.964  10.178 -0.5772 -0.4158 -0.0957
  646MOL0     C89023   9.661   3.062  10.053  0.1259  0.3269  0.0081
  646MOL0     C89024   9.598   3.024   9.922 -0.3932  0.5415  0.0649
  646MOL0     C89025   9.640   2.877   9.882 -0.5443  0.5918 -0.5884
  646MOL0     C89026   9.793   2.874   9.845  0.0875 -0.0168  0.3017
  646MOL0     N89027   9.838   2.767   9.756  0.6666  0.2924  0.2134
  646MOL0     C89028   9.827   2.632   9.793 -1.1670 -0.3064  0.3773
  646MOL0     C89029   9.862   2.561   9.683 -0.4992  0.1342 -0.0263
  646MOL0     C89030   9.854   2.409   9.659  0.2355 -0.7646 -0.1767
  646MOL0     C89031   9.950   2.340   9.758 -0.6968 -0.0883  0.4968
  646MOL0     C89032  10.091   2.388   9.741  0.3483 -0.0210  0.0631
  646MOL0     C89033  10.181   2.331   9.863  0.0070  0.1216  0.8291
  646MOL0     O89034  10.169   2.189   9.891  0.2496  0.3281  0.1811
  646MOL0     C89035  10.230   2.130  10.003 -1.1935 -0.4610  0.3588
  646MOL0     C89036  10.317   2.216  10.070  0.5555  0.1350 -0.1369
  646MOL0     C89037  10.368   2.179  10.202  0.0991 -0.2772  0.4823
  646MOL0     C89038  10.468   2.273  10.255 -0.8487 -0.4704 -0.3006
  646MOL0     C89039  10.336   2.050  10.252  0.8339 -0.2856  0.8445
  646MOL0     C89040  10.365   2.018  10.391 -0.6247 -0.3792  0.2967
  646MOL0     O89041  10.340   1.893  10.427  1.4195  0.5020 -0.5759
  646MOL0     C89042  10.392   1.845  10.544 -0.0070 -0.6105 -0.6470
  646MOL0     C89043  10.520   1.869  10.591  0.0181  1.1111  1.6122
  646MOL0     C89044  10.561   1.827  10.719  0.8468 -0.2380  0.2876
  646MOL0     C89045  10.477   1.745  10.797  0.0418  0.2419 -0.4848
  646MOL0     O89046  10.503   1.712  10.933  0.4424  1.1144  0.4647
  646MOL0     C89047  10.631   1.735  10.987  0.4529 -0.3283 -1.1794
  646MOL0     C89048  10.646   1.642  11.110 -0.9905 -0.9059  0.6192
  646MOL0     C89049  10.787   1.639  11.170  0.2272 -0.0534  0.8177
  646MOL0     C89050  10.828   1.495  11.209 -0.0788  0.9825 -0.6663
  646MOL0     C89051  10.920   1.502  11.333  0.1513 -0.6130  0.8545
  646MOL0     C89052  10.926   1.361  11.393 -0.6296 -0.2686  0.6180
  646MOL0     C89053  11.011   1.360  11.516 -0.2526 -1.0271 -0.3168
  646MOL0     C89054  11.070   1.222  11.558 -0.5561 -0.1628 -0.6566
  646MOL0    Cl89055  11.131   1.257  11.722  0.0271  0.2495  0.2945
  646MOL0     C89056  10.353   1.705  10.748 -0.1386 -0.6701 -0.2744
  646MOL0     C89057  10.309   1.757  10.619  0.3028  0.1804 -0.0026
  646MOL0     O89058  10.415   2.108  10.464 -0.2004  0.2617  0.7875
  646MOL0     C89059  10.272   1.963  10.167  0.0522  0.3823 -0.0252
  646MOL0     C89060  10.221   1.998  10.046 -0.1010  0.4646  0.5494
  646MOL0     N89061   9.874   2.661   9.585  1.0555  0.1702  0.0734
  646MOL0     N89062   9.862   2.783   9.628 -0.5971  0.4231 -0.5174
  646MOL0     C89063   9.364   3.168  10.760  0.1795  0.0712  0.1111
  646MOL0     C89064   9.346   3.272  10.858 -1.2769  0.0056 -0.4073
  646MOL0     C89065   9.108   3.552  11.101  0.2171  0.0874 -0.2190
  646MOL0     C89066   9.068   3.678  11.064 -0.0917 -1.0750 -0.0770
  646MOL0     C89067   9.060   3.779  11.157  0.3165 -0.3795 -0.0071
  646MOL0     C89068   9.087   3.756  11.291 -0.4808 -0.4388  0.3577
  646MOL0     O89069   9.099   3.876  11.356 -0.3662  0.3605 -0.5270
  646MOL0     C89070   9.200   3.877  11.456 -0.0815 -0.1505  0.2363
  646MOL0     C89071   9.200   3.998  11.543 -0.1117 -0.7598  0.4114
  646MOL0     C89072   9.266   3.979  11.684  0.2615 -0.2135  0.3868
  646MOL0     C89073   9.416   3.941  11.672  0.3151  0.0737  0.0138
  646MOL0     C89074   9.457   3.853  11.787 -0.7598  0.4564  0.7326
  646MOL0     C89075   9.497   3.786  11.878  0.4507  0.3056  0.7866
  646MOL0     C89076   9.133   3.627  11.323  0.0254 -0.4803  0.5786
  646MOL0     C89077   9.149   3.524  11.230 -1.0923  0.9312 -0.3343
  646MOL0     C89078   9.187   3.383  11.281  0.0840 -0.2080  0.7429
  646MOL0     H89079   9.091   3.421  10.712 -0.9451 -1.3828  0.4762
  646MOL0     H89080   9.104   3.232  10.552  1.5318 -1.6407 -1.5509
  646MOL0     H89081   9.516   3.028  10.566 -2.3479  2.4816  2.7593
  646MOL0     H89082   9.477   3.185  10.486  0.0986  0.1660 -1.7869
  646MOL0     H89083   9.428   2.946  10.318  2.0804  0.3667 -2.1570
  646MOL0     H89084   9.444   3.125  10.284  2.6539  1.1212 -0.6344
  646MOL0     H89085   9.674   3.138  10.321  0.2154  0.8670 -0.7374
  646MOL0     H89086   9.673   2.968  10.392 -1.2145 -2.1415 -1.1062
  646MOL0     H89087   9.749   2.903  10.172  0.5111  1.1171  0.0238
  646MOL0     H89088   9.585   2.883  10.170  1.3346 -2.1729 -0.6864
  646MOL0     H89089   9.764   3.091  10.033 -1.0954  4.7082 -0.8731
  646MOL0     H89090   9.610   3.155  10.078  0.2410  0.7221 -1.1868
  646MOL0     H89091   9.489   3.027   9.935 -0.5653  0.1830 -1.1064
  646MOL0     H89092   9.636   3.090   9.844  1.1479 -0.5114 -0.1243
  646MOL0     H89093   9.580   2.850   9.795 -0.4356 -0.1383 -0.4504
  646MOL0     H89094   9.622   2.805   9.962  0.6580  0.9106 -0.0096
  646MOL0     H89095   9.810   2.965   9.787 -0.4625  0.1804  0.4427
  646MOL0     H89096   9.858   2.867   9.933  0.0022 -1.9398  0.2484
  646MOL0     H89097   9.804   2.607   9.896  3.6146  0.2080  1.8290
  646MOL0     H89098   9.865   2.371   9.557  1.8516  2.4801 -1.3234
  646MOL0     H89099   9.755   2.370   9.687 -0.8100  3.3076  2.6455
  646MOL0     H89100   9.916   2.360   9.860  1.6449  1.1903  1.1136
  646MOL0     H89101   9.941   2.232   9.745  0.0754 -0.2376  1.0904
  646MOL0     H89102  10.123   2.351   9.643  3.2698 -2.3954  1.7382
  646MOL0     H89103  10.103   2.496   9.730  1.4767 -0.1603 -0.2757
  646MOL0     H89104  10.282   2.369   9.844 -0.3631  1.0907  0.7312
  646MOL0     H89105  10.148   2.384   9.954 -0.1564 -1.1350  1.5161
  646MOL0     H89106  10.361   2.304  10.024 -0.7023  0.2041 -1.2746
  646MOL0     H89107  10.427   2.320  10.345  1.7062  0.6752  0.3704
  646MOL0     H89108  10.504   2.350  10.186 -2.3194  1.4723  0.9738
  646MOL0     H89109  10.552   2.214  10.293 -1.1083 -0.9459 -0.4501
  646MOL0     H89110  10.580   1.932  10.527  1.1568 -1.2415  0.2190
  646MOL0     H89111  10.656   1.863  10.756 -0.4048  2.3128  1.2892
  646MOL0     H89112  10.711   1.723  10.913  0.6332  0.3561 -1.0987
  646MOL0     H89113  10.627   1.842  11.009 -1.3388 -0.0935 -2.3850
  646MOL0     H89114  10.575   1.667  11.190  0.8944 -0.4370  2.2270
  646MOL0     H89115  10.615   1.542  11.076 -2.8081  0.5546 -2.4251
  646MOL0     H89116  10.785   1.701  11.259 -2.5106  0.4511  0.4703
  646MOL0     H89117  10.856   1.684  11.098  0.2389  4.0916  3.1355
  646MOL0     H89118  10.878   1.442  11.127 -0.2212 -1.2943  0.6448
  646MOL0     H89119  10.731   1.446  11.225 -1.1739  3.2774  0.1093
  646MOL0     H89120  11.015   1.541  11.297  0.7307 -2.1995  0.5849
  646MOL0     H89121  10.892   1.566  11.418 -0.7232  1.4007 -0.8787
  646MOL0     H89122  10.967   1.285  11.325 -0.4890 -0.4878  0.9461
  646MOL0     H89123  10.828   1.316  11.411 -0.1902 -0.2667  3.4101
  646MOL0     H89124  10.940   1.393  11.592 -2.7759  0.1221 -2.9597
  646MOL0     H89125  11.093   1.432  11.523 -2.1733  1.3258 -0.7404
  646MOL0     H89126  11.150   1.199  11.486  0.3920  0.2751  0.2299
  646MOL0     H89127  11.007   1.133  11.560  0.3810 -0.8371 -0.0537
  646MOL0     H89128  10.286   1.643  10.808  0.1790 -0.4086  0.3676
  646MOL0     H89129  10.210   1.719  10.594  0.6131 -2.9570  2.7864
  646MOL0     H89130  10.260   1.860  10.200  1.3015  0.6088  1.2109
  646MOL0     H89131  10.173   1.928   9.979  1.7288  0.0274 -0.3525
  646MOL0     H89132   9.454   3.108  10.775  0.1684 -0.9643 -3.2173
  646MOL0     H89133   9.409   3.280  10.946 -1.4630  0.8069 -0.3394
  646MOL0     H89134   9.033   3.698  10.963 -1.2953  0.6086  0.6255
  646MOL0     H89135   9.028   3.872  11.110 -2.1225 -1.6875 -1.0983
  646MOL0     H89136   9.208   3.788  11.519  1.7604  0.8001  1.4180
  646MOL0     H89137   9.295   3.879  11.402  0.1574 -2.3646  0.4828
  646MOL0     H89138   9.103   4.045  11.555 -0.1330 -0.9509  1.0241
  646MOL0     H89139   9.260   4.081  11.505 -0.5681 -0.5737  0.1047
  646MOL0     H89140   9.262   4.075  11.736  2.1599 -0.0383  0.2547
  646MOL0     H89141   9.205   3.912  11.745  3.3274 -0.0471  3.9588
  646MOL0     H89142   9.485   4.025  11.659 -0.0372  0.1904 -1.3406
  646MOL0     H89143   9.435   3.884  11.580  1.4629  0.8372 -0.2386
  646MOL0     H89144   9.527   3.737  11.969  1.2135  1.3506  1.1202
  646MOL0     H89145   9.159   3.611  11.427  1.6045 -0.0028  0.2855
  646MOL0     H89146   9.241   3.328  11.203  2.2701 -0.2299  2.1932
  646MOL0     H89147   9.264   3.384  11.357  1.2161 -1.4068 -0.3269
  646MOL0     H89148   9.095   3.333  11.315 -0.1707  0.5903  1.2432
  647MOL0     O89149   9.905   1.279   2.402  0.3488 -0.4919 -0.7606
  647MOL0     C89150   9.827   1.376   2.432 -0.4050  0.5561 -0.6250
  647MOL0     O89151   9.712   1.356   2.510 -0.0898 -0.2379 -0.2823
  647MOL0     C89152   9.675   1.234   2.559 -0.1259 -0.5799  0.8123
  647MOL0     C89153   9.668   1.223   2.695  0.4051  0.3969 -0.2707
  647MOL0     C89154   9.635   1.100   2.764  1.0156 -0.3831  0.5299
  647MOL0     C89155   9.613   0.986   2.688  0.8992  0.5093  0.6930
  647MOL0     O89156   9.592   0.862   2.745  0.8079 -0.0487 -1.2490
  647MOL0     C89157   9.652   0.753   2.674  0.2666  0.4605 -0.3113
  647MOL0     C89158   9.662   0.634   2.762  0.4433 -0.1524 -0.7045
  647MOL0     C89159   9.526   0.598   2.822  0.7663  0.3016  0.2645
  647MOL0     C89160   9.443   0.534   2.711 -0.2624 -1.3946 -0.7663
  647MOL0     C89161   9.295   0.507   2.736  0.6349 -0.0492 -0.1748
  647MOL0     C89162   9.273   0.416   2.853 -0.7166 -0.4840  0.9029
  647MOL0     C89163   9.335   0.276   2.839  0.4535 -0.4345  1.2278
  647MOL0     C89164   9.348   0.208   2.982 -0.0515 -0.5052  0.4170
  647MOL0     N89165   9.226   0.132   3.024  0.2338 -0.1823 -0.5541
  647MOL0     C89166   9.197   0.108   3.157 -0.7491 -0.1945 -0.2095
  647MOL0     C89167   9.096   0.028   3.159 -0.3727  0.2131  0.1043
  647MOL0     C89168   9.051  -0.034   3.289 -0.9681 -0.0688  0.0524
  647MOL0     C89169   9.165  -0.113   3.359 -0.0575 -0.1691  0.4056
  647MOL0     C89170   9.221  -0.220   3.267  0.3240 -0.8102  0.2389
  647MOL0     C89171   9.334  -0.309   3.335 -0.1434 -0.2894 -0.5582
  647MOL0     O89172   9.270  -0.383   3.443 -0.3956 -0.3758 -0.2200
  647MOL0     C89173   9.346  -0.455   3.530 -0.2574 -0.5301 -0.7135
  647MOL0     C89174   9.280  -0.514   3.632 -0.5663 -0.5551 -0.6816
  647MOL0     C89175   9.346  -0.584   3.736  0.2603 -0.2762 -0.9764
  647MOL0     C89176   9.272  -0.642   3.852 -0.1385 -0.5633  0.4152
  647MOL0     C89177   9.482  -0.603   3.723  0.6122 -0.4475  1.1060
  647MOL0     C89178   9.557  -0.695   3.812  0.0054  0.0665  0.8621
  647MOL0     O89179   9.645  -0.633   3.893 -0.2606 -0.6173  0.2729
  647MOL0     C89180   9.708  -0.717   3.988  0.3473  0.3420  0.4236
  647MOL0     C89181   9.791  -0.823   3.938  1.1180 -0.3014  0.3809
  647MOL0     C89182   9.856  -0.912   4.023 -0.4243 -1.1736 -0.1409
  647MOL0     C89183   9.855  -0.889   4.160 -0.2658 -0.5205 -0.9174
  647MOL0     O89184   9.924  -0.973   4.245 -0.4520  0.0688  0.2216
  647MOL0     C89185   9.922  -0.961   4.390 -0.2190  0.6864 -0.8049
  647MOL0     C89186   9.982  -1.079   4.465 -0.3071  0.4256 -0.3183
  647MOL0     C89187   9.938  -1.065   4.613 -0.1506  0.2932  0.2166
  647MOL0     C89188   9.996  -1.181   4.706  0.9617 -0.5587 -0.8829
  647MOL0     C89189  10.149  -1.172   4.720  1.0110 -0.1881 -0.0689
  647MOL0     C89190  10.222  -1.264   4.817 -0.6745  0.9210 -0.3055
  647MOL0     C89191  10.170  -1.407   4.802 -0.2249  0.5787 -0.0807
  647MOL0     C89192  10.252  -1.497   4.892 -1.1614 -0.2169  0.5509
  647MOL0    Cl89193  10.435  -1.472   4.879 -0.6687 -0.6945 -0.6613
  647MOL0     C89194   9.798  -0.770   4.206  0.4181  0.3625  0.3702
  647MOL0     C89195   9.715  -0.687   4.123  0.6296  0.3340 -0.0177
  647MOL0     O89196   9.540  -0.819   3.803 -0.3541 -0.6390 -0.2032
  647MOL0     C89197   9.545  -0.554   3.616 -0.2141 -0.0059 -0.8926
  647MOL0     C89198   9.488  -0.465   3.520 -0.0893  0.0511 -0.5049
  647MOL0     N89199   9.055  -0.006   3.034 -0.3383  0.5770  0.5480
  647MOL0     N89200   9.129   0.069   2.954  1.0407 -0.2125  0.0868
  647MOL0     C89201   9.617   1.002   2.550 -0.6218 -0.7968  0.5184
  647MOL0     C89202   9.653   1.122   2.479 -0.3063  0.3696  0.0237
  647MOL0     C89203   9.875   1.512   2.417 -0.0865  1.0619  1.2519
  647MOL0     C89204   9.826   1.608   2.507  0.1364 -0.7440  0.1494
  647MOL0     C89205   9.885   1.736   2.511  0.3655  1.0372 -0.3912
  647MOL0     C89206   9.985   1.765   2.411  0.0153  0.6071  0.7524
  647MOL0     O89207  10.056   1.885   2.398 -1.3903 -0.2099 -0.1005
  647MOL0     C89208  10.040   1.979   2.500  0.0629 -0.0344 -0.2375
  647MOL0     C89209  10.087   2.113   2.455 -1.1563 -0.1062  0.4009
  647MOL0     C89210  10.112   2.199   2.574  0.2178  0.1302 -0.6825
  647MOL0     C89211  10.168   2.346   2.550  0.0690  0.1521  1.0142
  647MOL0     C89212  10.076   2.422   2.456 -0.3718 -0.5444 -0.3487
  647MOL0     C89213   9.991   2.464   2.385  0.1950  0.0053  0.1414
  647MOL0     C89214  10.010   1.677   2.301  0.2959  0.5808  0.2915
  647MOL0     C89215   9.957   1.548   2.307 -0.4915 -0.7777  0.3638
  647MOL0     C89216   9.991   1.459   2.188  0.2446  1.3565 -0.4425
  647MOL0     H89217   9.670   1.313   2.755 -3.9737  2.1166 -2.3185
  647MOL0     H89218   9.634   1.099   2.872  1.6347  1.8294  0.5972
  647MOL0     H89219   9.741   0.787   2.621 -0.1264  3.9406  1.0007
  647MOL0     H89220   9.602   0.723   2.581 -2.1618 -2.5166  1.7210
  647MOL0     H89221   9.711   0.546   2.718  2.5244 -0.1707  1.4051
  647MOL0     H89222   9.738   0.660   2.837 -0.5041 -2.3418  1.1330
  647MOL0     H89223   9.533   0.537   2.912  0.7145  0.4327  0.3587
  647MOL0     H89224   9.464   0.682   2.854  1.7813  1.0952  0.2128
  647MOL0     H89225   9.438   0.605   2.627  1.3788 -1.1906 -0.7342
  647MOL0     H89226   9.510   0.459   2.668  1.1415 -0.0414 -1.0418
  647MOL0     H89227   9.247   0.465   2.647  0.0905  2.2815 -1.0663
  647MOL0     H89228   9.246   0.604   2.749 -0.5451 -0.6402 -0.0851
  647MOL0     H89229   9.301   0.468   2.945 -2.2625  2.5756 -0.1924
  647MOL0     H89230   9.166   0.402   2.866 -1.0230 -0.9581 -1.5686
  647MOL0     H89231   9.436   0.286   2.798 -0.0827 -0.3373 -0.1172
  647MOL0     H89232   9.281   0.217   2.765  2.0638  0.4652 -0.7645
  647MOL0     H89233   9.434   0.142   2.999  1.2794  0.5680 -1.6834
  647MOL0     H89234   9.351   0.294   3.049  2.0749  1.2940 -1.7799
  647MOL0     H89235   9.233   0.148   3.251 -2.6815 -1.3605  1.0910
  647MOL0     H89236   8.965  -0.093   3.257 -1.5552  1.5691 -1.6072
  647MOL0     H89237   9.015   0.044   3.357  1.3534  0.0462  1.2578
  647MOL0     H89238   9.247  -0.046   3.385 -1.4971  1.8917 -0.1641
  647MOL0     H89239   9.121  -0.166   3.444  1.7048  2.0146  2.8524
  647MOL0     H89240   9.139  -0.281   3.229 -0.7549  1.7773 -1.9011
  647MOL0     H89241   9.264  -0.182   3.174  3.2268 -3.4269  0.3365
  647MOL0     H89242   9.355  -0.372   3.248  2.7519  0.5971 -0.6073
  647MOL0     H89243   9.415  -0.244   3.367 -3.0391  2.8239  1.0836
  647MOL0     H89244   9.173  -0.503   3.641 -0.4689 -0.5873  0.6954
  647MOL0     H89245   9.247  -0.742   3.817 -0.0484  0.7138 -3.9336
  647MOL0     H89246   9.181  -0.582   3.859 -0.1891 -0.7574  1.4781
  647MOL0     H89247   9.319  -0.642   3.951 -0.6729 -1.2386  0.6727
  647MOL0     H89248   9.788  -0.825   3.829  1.4447 -2.5251  0.3668
  647MOL0     H89249   9.925  -0.988   3.989  1.1500 -2.1201  4.3962
  647MOL0     H89250   9.978  -0.875   4.427 -0.4849 -1.0226  4.4005
  647MOL0     H89251   9.821  -0.958   4.433  0.4789 -0.1111  0.9985
  647MOL0     H89252   9.952  -1.178   4.427  2.4495 -0.4651 -0.4064
  647MOL0     H89253  10.091  -1.080   4.457 -0.3246 -0.4511 -0.5482
  647MOL0     H89254   9.829  -1.062   4.623 -0.4698 -3.7739 -0.2632
  647MOL0     H89255   9.977  -0.973   4.658 -2.5615  1.3037  0.4154
  647MOL0     H89256   9.977  -1.280   4.664 -0.2122 -1.0447  0.7165
  647MOL0     H89257   9.954  -1.170   4.806 -3.9526  2.5020 -2.8959
  647MOL0     H89258  10.189  -1.171   4.618 -2.7226  2.1401 -1.7269
  647MOL0     H89259  10.168  -1.073   4.764 -1.6878  0.3215  0.1394
  647MOL0     H89260  10.201  -1.230   4.919  0.2740  2.4184 -0.5830
  647MOL0     H89261  10.328  -1.250   4.798 -0.7727  1.8364 -0.2470
  647MOL0     H89262  10.153  -1.456   4.706 -1.6625 -1.6881  1.2195
  647MOL0     H89263  10.070  -1.394   4.844 -0.2427  1.9742 -0.5134
  647MOL0     H89264  10.232  -1.596   4.849 -0.6398  0.5296 -1.5619
  647MOL0     H89265  10.221  -1.506   4.996 -0.6029  0.4131  0.7748
  647MOL0     H89266   9.804  -0.742   4.311 -0.8432  2.8165 -0.1302
  647MOL0     H89267   9.682  -0.594   4.168 -0.0462 -0.3683  0.9880
  647MOL0     H89268   9.647  -0.588   3.602 -1.0907 -2.9956 -0.6211
  647MOL0     H89269   9.547  -0.418   3.443  0.8972  2.7616  1.7217
  647MOL0     H89270   9.618   0.917   2.483 -0.4565 -2.1838  2.2134
  647MOL0     H89271   9.643   1.125   2.371  1.9056  0.8025 -0.1997
  647MOL0     H89272   9.771   1.570   2.592 -0.3481  0.1193  0.2308
  647MOL0     H89273   9.869   1.785   2.606 -2.2364 -1.2995  0.5044
  647MOL0     H89274   9.940   1.973   2.543  1.8161  0.2916  4.4075
  647MOL0     H89275  10.097   1.953   2.590 -1.3664  2.4935  1.5113
  647MOL0     H89276  10.001   2.152   2.399 -1.4832 -0.2584  0.7896
  647MOL0     H89277  10.182   2.103   2.402 -0.9271  0.4022  0.7140
  647MOL0     H89278  10.018   2.201   2.631  1.1501  0.7215  0.9114
  647MOL0     H89279  10.184   2.148   2.638  0.8397 -0.9089 -2.1700
  647MOL0     H89280  10.275   2.347   2.526  0.2491  2.0034  1.7666
  647MOL0     H89281  10.173   2.409   2.639  0.8743  1.3223  0.1734
  647MOL0     H89282   9.911   2.498   2.323  0.7556 -0.2789 -0.7675
  647MOL0     H89283  10.076   1.708   2.221  0.5380 -1.0765 -0.1922
  647MOL0     H89284  10.077   1.394   2.202 -1.0680 -0.3650  0.0219
  647MOL0     H89285   9.904   1.398   2.164  0.5989 -0.7145  2.8916
  647MOL0     H89286  10.005   1.519   2.097 -1.6025  1.6716 -0.5723
  648MOL0     O89287  10.694   5.339   7.918  0.6247  0.0976  0.6714
  648MOL0     C89288  10.643   5.336   7.805 -0.0363  0.3237 -1.7200
  648MOL0     O89289  10.691   5.380   7.683  0.1191 -0.1137 -0.2862
  648MOL0     C89290  10.786   5.486   7.684 -0.1804  0.4751  0.0678
  648MOL0     C89291  10.899   5.477   7.766  0.3215 -0.7960  0.7113
  648MOL0     C89292  10.972   5.590   7.785 -0.1538 -0.6770  0.1090
  648MOL0     C89293  10.957   5.708   7.716  1.3048 -0.1190  0.7024
  648MOL0     O89294  11.038   5.804   7.755 -0.3865 -0.4475 -1.2330
  648MOL0     C89295  11.047   5.920   7.674  0.5036  0.2596  0.6591
  648MOL0     C89296  11.135   6.023   7.742  0.2789 -0.2691  0.0684
  648MOL0     C89297  11.154   6.144   7.648 -0.3908 -0.5568  0.1012
  648MOL0     C89298  11.020   6.204   7.609  0.0574  0.3315 -0.0693
  648MOL0     C89299  11.054   6.320   7.517 -0.1424 -0.0883  0.3660
  648MOL0     C89300  11.080   6.458   7.582  0.4425  0.4618 -0.4557
  648MOL0     C89301  10.969   6.525   7.646 -0.2014 -0.1271  0.2021
  648MOL0     C89302  10.883   6.588   7.537 -0.1585  0.7149 -1.4086
  648MOL0     N89303  10.765   6.658   7.602 -1.0191 -0.1105 -0.6392
  648MOL0     C89304  10.708   6.773   7.554 -0.1558 -0.8072 -0.0823
  648MOL0     C89305  10.606   6.796   7.640  0.0249 -0.1130  0.2626
  648MOL0     C89306  10.518   6.908   7.633  0.5060  0.0233  0.0545
  648MOL0     C89307  10.583   7.036   7.583 -0.0537  0.0169  0.3414
  648MOL0     C89308  10.494   7.157   7.603  0.5184 -0.3414  0.2514
  648MOL0     C89309  10.362   7.158   7.531 -0.2252 -0.0729 -0.4528
  648MOL0     O89310  10.404   7.128   7.394  0.6284  0.3225  0.0796
  648MOL0     C89311  10.340   7.190   7.292 -0.4402 -0.1838  0.4486
  648MOL0     C89312  10.227   7.280   7.301 -0.0332  0.2762 -1.0021
  648MOL0     C89313  10.174   7.343   7.184  0.6878  0.2179 -0.3264
  648MOL0     C89314  10.060   7.441   7.221  0.2553 -0.1316  0.3588
  648MOL0     C89315  10.224   7.322   7.048  0.7551  0.1166 -0.3341
  648MOL0     C89316  10.182   7.386   6.916  0.3050  0.6171 -1.2744
  648MOL0     O89317  10.223   7.323   6.807  0.0003 -0.2615  0.4852
  648MOL0     C89318  10.132   7.335   6.707 -0.4881 -0.7259  0.7168
  648MOL0     C89319  10.159   7.394   6.579 -0.0049 -0.5204 -0.0626
  648MOL0     C89320  10.071   7.409   6.477 -0.7325  0.7144  0.4033
  648MOL0     C89321   9.936   7.353   6.499 -0.2510 -0.7639 -0.0667
  648MOL0     O89322   9.826   7.378   6.423  0.5699  0.2762 -0.4573
  648MOL0     C89323   9.849   7.429   6.292  0.3746 -0.7516 -0.6828
  648MOL0     C89324   9.727   7.393   6.210  0.1464 -0.2757  0.0158
  648MOL0     C89325   9.714   7.470   6.073 -0.4400  0.4797 -0.0223
  648MOL0     C89326   9.680   7.620   6.088 -0.0063  0.3196  0.5328
  648MOL0     C89327   9.553   7.664   6.035 -0.2921 -0.1462  0.3745
  648MOL0     C89328   9.552   7.669   5.882  0.0864 -0.2922 -0.7873
  648MOL0     C89329   9.409   7.706   5.842 -0.9219 -0.4126  0.7587
  648MOL0     C89330   9.417   7.732   5.687  0.0273 -0.3202  0.4467
  648MOL0    Cl89331   9.256   7.740   5.616 -0.4260 -0.3233  0.0969
  648MOL0     C89332   9.903   7.294   6.620 -0.9470  0.4585  0.3829
  648MOL0     C89333  10.001   7.288   6.722 -0.3556  0.2519  0.5772
  648MOL0     O89334  10.118   7.490   6.928 -0.4845  1.3121  0.4901
  648MOL0     C89335  10.322   7.225   7.047  0.3081 -0.0963  0.1061
  648MOL0     C89336  10.381   7.163   7.161  0.2760 -0.9792  0.1639
  648MOL0     N89337  10.609   6.712   7.745  0.2236 -0.0717 -0.5045
  648MOL0     N89338  10.692   6.623   7.718 -0.2625  0.7320  0.2140
  648MOL0     C89339  10.843   5.715   7.627 -0.7629 -0.0124 -0.3587
  648MOL0     C89340  10.762   5.605   7.616 -0.1378  0.6446  0.5784
  648MOL0     C89341  10.537   5.240   7.786 -0.3941 -0.5758 -0.0085
  648MOL0     C89342  10.540   5.123   7.865 -0.3820 -0.5024  0.0845
  648MOL0     C89343  10.441   5.023   7.858  0.2964 -0.2423 -0.4175
  648MOL0     C89344  10.331   5.047   7.785 -0.0731 -0.5172 -0.7041
  648MOL0     O89345  10.245   4.935   7.778  0.6539  0.1632  0.1562
  648MOL0     C89346  10.108   4.957   7.731  0.6841 -0.3505 -0.1055
  648MOL0     C89347  10.038   4.825   7.721 -0.3338 -0.0603 -0.2925
  648MOL0     C89348   9.889   4.845   7.692 -0.3103  0.0979  1.2183
  648MOL0     C89349   9.829   4.713   7.628  0.8087 -0.8920 -0.1851
  648MOL0     C89350   9.867   4.679   7.489 -0.1219  0.5639 -0.7204
  648MOL0     C89351   9.903   4.655   7.375 -0.0793 -0.1958 -0.5529
  648MOL0     C89352  10.313   5.174   7.714 -0.7270 -0.2038 -0.3272
  648MOL0     C89353  10.420   5.269   7.709  0.4387 -0.0257  0.6232
  648MOL0     C89354  10.403   5.386   7.610 -0.3139  0.4286  0.3637
  648MOL0     H89355  10.921   5.386   7.821  2.8391 -2.1709 -2.3134
  648MOL0     H89356  11.065   5.579   7.840 -0.1685  1.9720  0.8388
  648MOL0     H89357  10.945   5.959   7.676  0.3925 -0.0407  0.8326
  648MOL0     H89358  11.075   5.897   7.570 -0.6052  1.5670  0.0319
  648MOL0     H89359  11.099   6.048   7.843 -0.0343 -1.7359  0.3453
  648MOL0     H89360  11.237   5.987   7.757  1.4219  1.7881 -2.1828
  648MOL0     H89361  11.214   6.225   7.692  0.2235 -0.5454 -0.7460
  648MOL0     H89362  11.212   6.112   7.561  3.2217  0.2562  2.0088
  648MOL0     H89363  10.956   6.131   7.558  0.8431 -0.0799 -0.4924
  648MOL0     H89364  10.970   6.235   7.701 -1.7937 -1.1087 -0.5185
  648MOL0     H89365  10.967   6.334   7.452  1.5420  2.4228 -1.6224
  648MOL0     H89366  11.138   6.292   7.452 -0.3189 -2.1073  0.9419
  648MOL0     H89367  11.161   6.451   7.656 -2.0792 -1.8355  2.3590
  648MOL0     H89368  11.123   6.527   7.510  0.1623 -0.7200 -1.8001
  648MOL0     H89369  11.010   6.601   7.712  0.9265  1.3673 -2.0744
  648MOL0     H89370  10.920   6.458   7.717 -0.0609  0.6449  1.0314
  648MOL0     H89371  10.937   6.658   7.471  0.6329  3.0269  1.4922
  648MOL0     H89372  10.836   6.508   7.479  0.6342 -1.4098  0.7309
  648MOL0     H89373  10.742   6.826   7.465 -0.9851  1.7451  1.0349
  648MOL0     H89374  10.471   6.927   7.730 -0.0800 -0.2385 -0.1757
  648MOL0     H89375  10.435   6.875   7.569  0.5512  2.5292 -1.4347
  648MOL0     H89376  10.674   7.060   7.638  0.8830 -1.5566 -0.4389
  648MOL0     H89377  10.599   7.030   7.475 -4.6401  2.0638 -0.7200
  648MOL0     H89378  10.469   7.169   7.709  0.2994  1.3539  0.0262
  648MOL0     H89379  10.565   7.234   7.573  0.9088 -1.2630 -1.2763
  648MOL0     H89380  10.296   7.085   7.578 -0.0152 -1.9563 -2.8723
  648MOL0     H89381  10.317   7.256   7.549 -1.5466 -1.0967  2.4759
  648MOL0     H89382  10.172   7.287   7.393 -1.8293 -4.0021 -1.5112
  648MOL0     H89383  10.081   7.548   7.215  0.2997 -0.0821  1.2055
  648MOL0     H89384  10.010   7.433   7.318  0.4885  2.7246  0.8205
  648MOL0     H89385   9.981   7.435   7.145 -1.6307 -2.3384  2.3090
  648MOL0     H89386  10.261   7.416   6.547  0.1548 -1.7346 -0.4611
  648MOL0     H89387  10.107   7.442   6.381  1.2140 -5.9888 -1.7244
  648MOL0     H89388   9.870   7.536   6.285  2.7993 -1.0853  0.5789
  648MOL0     H89389   9.939   7.388   6.247  0.4972 -0.1666 -0.9768
  648MOL0     H89390   9.734   7.286   6.194 -1.3556 -0.3732 -0.1222
  648MOL0     H89391   9.634   7.420   6.262 -2.3992 -2.9277 -2.7544
  648MOL0     H89392   9.639   7.416   6.014 -0.1977  0.0181  0.0915
  648MOL0     H89393   9.813   7.476   6.028  0.3081  2.6855  1.7313
  648MOL0     H89394   9.754   7.676   6.031 -0.5389  0.7555  0.2583
  648MOL0     H89395   9.697   7.650   6.191  1.1582  1.7660 -0.0481
  648MOL0     H89396   9.484   7.581   6.054  2.2619 -3.2286 -2.6004
  648MOL0     H89397   9.521   7.760   6.075 -1.2862 -0.0036 -0.7080
  648MOL0     H89398   9.583   7.568   5.853  0.8604 -1.4426  3.3793
  648MOL0     H89399   9.615   7.750   5.844 -1.0352  1.5268  1.0446
  648MOL0     H89400   9.385   7.798   5.895 -6.5349 -0.0926 -1.5736
  648MOL0     H89401   9.343   7.621   5.863  2.1363 -3.6278 -1.3291
  648MOL0     H89402   9.471   7.648   5.642  0.7257 -0.5292  1.6339
  648MOL0     H89403   9.467   7.828   5.667 -3.8308  1.4631 -1.7843
  648MOL0     H89404   9.797   7.268   6.619 -1.6077  2.6692 -2.9213
  648MOL0     H89405   9.972   7.240   6.815 -1.5274 -0.0554  0.0680
  648MOL0     H89406  10.363   7.195   6.951  0.3520  0.1794  0.0368
  648MOL0     H89407  10.446   7.078   7.142  3.0745  0.1527  3.6081
  648MOL0     H89408  10.832   5.803   7.565  3.1820 -2.0921 -4.5886
  648MOL0     H89409  10.679   5.610   7.547 -1.2773  0.8556  1.9140
  648MOL0     H89410  10.629   5.098   7.923 -1.7172  1.3651  3.1440
  648MOL0     H89411  10.460   4.924   7.897  4.0449  0.2587 -0.6157
  648MOL0     H89412  10.054   5.030   7.793  0.3213 -1.6360  1.1390
  648MOL0     H89413  10.110   4.985   7.625  0.1658  0.2365  0.0322
  648MOL0     H89414  10.051   4.778   7.819  0.1324 -3.6505 -1.9486
  648MOL0     H89415  10.078   4.756   7.647 -5.3073 -0.5146 -3.0277
  648MOL0     H89416   9.825   4.853   7.780 -1.9799 -1.7561  0.2564
  648MOL0     H89417   9.877   4.938   7.636 -1.9015  0.4604  2.0785
  648MOL0     H89418   9.720   4.716   7.617  0.6756  0.0760  1.0513
  648MOL0     H89419   9.863   4.633   7.694  1.2330 -2.5637 -2.3246
  648MOL0     H89420   9.925   4.631   7.273  0.7509  2.2784 -1.0148
  648MOL0     H89421  10.227   5.195   7.651  1.7776  1.3494 -3.4870
  648MOL0     H89422  10.464   5.360   7.523  1.3379 -0.7811  1.8166
  648MOL0     H89423  10.297   5.408   7.592 -0.4822  2.6674  3.4053
  648MOL0     H89424  10.446   5.482   7.642 -0.2971  1.2918 -2.0311
  649MOL0     O89425   3.129   6.457   2.762 -0.2907  0.2709  0.7395
  649MOL0     C89426   3.193   6.373   2.695 -0.3491  1.2117  0.0983
  649MOL0     O89427   3.211   6.373   2.565 -0.1598 -0.3912  0.3921
  649MOL0     C89428   3.144   6.473   2.496 -0.6238 -0.0031 -0.0966
  649MOL0     C89429   3.179   6.610   2.529 -0.1825  0.6072  0.3581
  649MOL0     C89430   3.123   6.705   2.447 -0.8891 -0.4910  0.0729
  649MOL0     C89431   3.038   6.680   2.341 -0.4969  0.9963  0.1714
  649MOL0     O89432   3.010   6.762   2.228  0.5025  0.0809 -0.0102
  649MOL0     C89433   3.097   6.874   2.210 -0.0367 -0.6466  0.3486
  649MOL0     C89434   3.046   6.950   2.084 -0.1022 -0.1669 -0.3134
  649MOL0     C89435   3.100   7.098   2.076  0.6556 -0.0450 -0.0880
  649MOL0     C89436   3.055   7.176   1.944  0.1581  0.0229  0.3040
  649MOL0     C89437   3.100   7.318   1.952 -0.2093 -0.9078  0.7347
  649MOL0     C89438   3.030   7.423   1.874 -0.1479 -0.6265 -0.6017
  649MOL0     C89439   3.087   7.563   1.907 -0.0793 -0.2978  0.2756
  649MOL0     C89440   2.984   7.664   1.864  0.5180  0.3216  0.2011
  649MOL0     N89441   3.008   7.784   1.944  0.2173 -0.4052  1.0840
  649MOL0     C89442   2.954   7.815   2.068  0.3475 -0.7813  0.1507
  649MOL0     C89443   3.014   7.926   2.109  0.3053 -0.7772  0.0248
  649MOL0     C89444   2.978   7.998   2.237  0.2236 -0.8656  1.0145
  649MOL0     C89445   2.941   8.142   2.217  0.2769  0.1785  0.4955
  649MOL0     C89446   2.928   8.215   2.358  0.3059  0.2673  0.9950
  649MOL0     C89447   2.858   8.145   2.480  0.6203 -0.3890  0.7260
  649MOL0     O89448   2.729   8.084   2.453  0.3981 -0.6893  0.6491
  649MOL0     C89449   2.613   8.149   2.440 -0.1578 -0.2544  0.7758
  649MOL0     C89450   2.501   8.083   2.393  0.0775  0.0190 -1.0040
  649MOL0     C89451   2.373   8.136   2.377  0.8746  0.4589 -1.4533
  649MOL0     C89452   2.270   8.061   2.297 -0.3070  0.2751  0.6745
  649MOL0     C89453   2.357   8.270   2.415  1.6358  0.6135  0.0438
  649MOL0     C89454   2.225   8.342   2.410 -0.8970 -0.3858 -0.0769
  649MOL0     O89455   2.206   8.448   2.492 -0.5800  0.7725  0.4895
  649MOL0     C89456   2.096   8.525   2.469  1.3207 -0.9052  0.6798
  649MOL0     C89457   2.105   8.646   2.401  0.3450 -0.5194  0.3601
  649MOL0     C89458   2.000   8.721   2.364  0.7424  0.4374 -1.3938
  649MOL0     C89459   1.868   8.672   2.407  0.5683 -0.8458 -0.0784
  649MOL0     O89460   1.751   8.734   2.378 -0.1031  0.1693  0.4062
  649MOL0     C89461   1.734   8.817   2.262  0.1640 -0.3276  0.3702
  649MOL0     C89462   1.581   8.852   2.235  0.0516 -0.6336  0.0074
  649MOL0     C89463   1.558   8.901   2.095  0.0959 -0.0633  0.1177
  649MOL0     C89464   1.601   9.041   2.078 -0.4095 -0.9350  0.1986
  649MOL0     C89465   1.499   9.139   2.140 -0.1857 -0.5461  0.7689
  649MOL0     C89466   1.381   9.164   2.037  0.0979  0.1056  0.1419
  649MOL0     C89467   1.271   9.248   2.105 -0.1843 -0.6270 -0.5491
  649MOL0     C89468   1.165   9.285   2.000  0.1167 -0.1626 -0.1433
  649MOL0    Cl89469   1.229   9.373   1.859 -0.2176  0.1707  0.1853
  649MOL0     C89470   1.857   8.561   2.491 -1.1329 -1.1476 -0.1238
  649MOL0     C89471   1.966   8.492   2.524 -0.7067  1.3041  0.7361
  649MOL0     O89472   2.154   8.324   2.313 -0.3412  0.3982 -0.2580
  649MOL0     C89473   2.468   8.333   2.480 -0.0332 -0.3002  0.2453
  649MOL0     C89474   2.592   8.272   2.494 -1.2559 -0.1920  0.5926
  649MOL0     N89475   3.090   7.978   2.003 -0.4654  0.6444  0.1998
  649MOL0     N89476   3.097   7.887   1.908  0.5992 -0.5685 -0.9482
  649MOL0     C89477   3.006   6.544   2.315 -0.0758  0.5578  0.6250
  649MOL0     C89478   3.061   6.439   2.387  0.3678  0.2281  0.4872
  649MOL0     C89479   3.244   6.258   2.758  0.3997  0.1075 -0.0310
  649MOL0     C89480   3.289   6.151   2.681  0.3917  0.7009 -0.6264
  649MOL0     C89481   3.339   6.033   2.744  0.0037 -0.0860  0.2464
  649MOL0     C89482   3.356   6.022   2.878  0.6367  0.1519  0.8359
  649MOL0     O89483   3.406   5.904   2.917 -0.2023  0.8782 -0.9304
  649MOL0     C89484   3.347   5.838   3.033  0.0058  0.9756  0.4436
  649MOL0     C89485   3.207   5.781   2.994 -0.5135  0.4097  0.4512
  649MOL0     C89486   3.147   5.691   3.103 -0.3153 -1.0499 -0.5133
  649MOL0     C89487   3.209   5.558   3.106  0.0618  0.1355  0.9639
  649MOL0     C89488   3.167   5.483   3.219 -0.2122  0.3675 -0.6073
  649MOL0     C89489   3.134   5.426   3.319 -0.3394  0.1286 -0.4839
  649MOL0     C89490   3.298   6.121   2.956  0.3661 -0.7368 -0.5141
  649MOL0     C89491   3.251   6.240   2.901 -0.3961 -0.2765  0.3139
  649MOL0     C89492   3.210   6.343   3.006 -0.0802 -0.3932 -0.7389
  649MOL0     H89493   3.254   6.638   2.602 -1.7377  1.6045  1.6350
  649MOL0     H89494   3.155   6.803   2.482  0.0133 -1.2951  1.5970
  649MOL0     H89495   3.203   6.850   2.199  0.4235  0.6289  1.6781
  649MOL0     H89496   3.096   6.939   2.298 -1.4096  0.8450 -0.6877
  649MOL0     H89497   3.074   6.892   1.996 -2.5884 -0.4090 -1.0204
  649MOL0     H89498   2.936   6.953   2.081 -0.2006 -1.8877  0.4004
  649MOL0     H89499   3.059   7.153   2.162  0.3268 -0.2071 -0.1407
  649MOL0     H89500   3.209   7.099   2.088  0.5691 -1.7592  1.2265
  649MOL0     H89501   3.093   7.136   1.850 -0.9720 -1.2183  0.3552
  649MOL0     H89502   2.946   7.185   1.938  0.0708 -1.6125 -1.8623
  649MOL0     H89503   3.206   7.320   1.925 -0.8360 -1.4505 -2.0098
  649MOL0     H89504   3.085   7.342   2.058 -2.2955 -1.3151  0.5775
  649MOL0     H89505   3.059   7.416   1.769  4.0158  2.6699  0.0590
  649MOL0     H89506   2.921   7.413   1.882 -0.0046 -0.9428  1.6302
  649MOL0     H89507   3.184   7.581   1.859  1.9737  1.3049  4.5417
  649MOL0     H89508   3.112   7.565   2.013  1.8220  2.1231 -0.1160
  649MOL0     H89509   2.990   7.677   1.756  1.5470 -0.2216  0.1739
  649MOL0     H89510   2.882   7.635   1.888  1.0259 -0.8710  1.0663
  649MOL0     H89511   2.870   7.765   2.115  1.7767 -3.1064  0.3867
  649MOL0     H89512   3.060   7.995   2.309 -1.4579 -1.0302  3.0304
  649MOL0     H89513   2.894   7.943   2.281 -0.1184 -1.9502 -0.8578
  649MOL0     H89514   3.009   8.198   2.152  0.8153 -2.3970 -1.3076
  649MOL0     H89515   2.849   8.146   2.158  1.8085  1.0487 -2.0222
  649MOL0     H89516   3.025   8.220   2.408  0.1415 -0.9525  1.4658
  649MOL0     H89517   2.886   8.316   2.347 -4.0131 -1.2704  1.4569
  649MOL0     H89518   2.919   8.064   2.522 -0.9721 -1.7488  0.5054
  649MOL0     H89519   2.847   8.227   2.552  0.8158  0.1017  0.2070
  649MOL0     H89520   2.518   7.980   2.361  0.6579  0.1718 -1.2044
  649MOL0     H89521   2.294   7.957   2.276  2.6009  0.7938  0.9666
  649MOL0     H89522   2.253   8.108   2.200 -1.3667 -0.5347  0.4507
  649MOL0     H89523   2.170   8.071   2.340  0.4748  4.6695  1.9962
  649MOL0     H89524   2.198   8.691   2.368 -0.3134  0.4861 -0.2057
  649MOL0     H89525   2.017   8.806   2.298  2.2443  4.0381  3.0585
  649MOL0     H89526   1.791   8.911   2.263  2.2671 -1.4443 -1.7724
  649MOL0     H89527   1.766   8.751   2.181 -4.4339 -2.2572 -0.1374
  649MOL0     H89528   1.527   8.757   2.241  0.0664 -0.6086  0.5572
  649MOL0     H89529   1.527   8.911   2.310 -1.4596 -2.0875  0.1208
  649MOL0     H89530   1.451   8.892   2.074 -0.1883 -1.9502  1.9975
  649MOL0     H89531   1.610   8.839   2.021  1.4880  2.0871 -0.8088
  649MOL0     H89532   1.623   9.063   1.974  3.0073 -0.7776  0.8473
  649MOL0     H89533   1.698   9.051   2.127  1.3409  0.7023 -3.2925
  649MOL0     H89534   1.466   9.125   2.243 -0.7014  2.0585  1.0450
  649MOL0     H89535   1.558   9.231   2.151  0.3799 -0.7644 -0.2700
  649MOL0     H89536   1.334   9.068   2.012  0.8877 -0.6115  1.2881
  649MOL0     H89537   1.421   9.210   1.946 -2.0554 -0.9350 -1.4288
  649MOL0     H89538   1.310   9.342   2.143 -1.3594  0.4369 -1.8770
  649MOL0     H89539   1.225   9.196   2.189  1.0378  0.6480  0.9655
  649MOL0     H89540   1.085   9.341   2.049 -0.2980  2.3943 -3.3938
  649MOL0     H89541   1.116   9.195   1.961  1.3115 -1.1863  0.6488
  649MOL0     H89542   1.759   8.536   2.532 -0.5010 -1.4676  1.2541
  649MOL0     H89543   1.962   8.407   2.592  0.8902  0.5213 -0.1045
  649MOL0     H89544   2.449   8.435   2.514 -2.8537 -1.1180  1.3987
  649MOL0     H89545   2.661   8.330   2.555 -1.3883  0.5544  0.0457
  649MOL0     H89546   2.947   6.513   2.229  0.8831 -1.1361  0.5484
  649MOL0     H89547   3.043   6.336   2.362  2.6895 -0.6263  2.0045
  649MOL0     H89548   3.291   6.143   2.572  0.6151  3.7067 -0.9213
  649MOL0     H89549   3.370   5.952   2.679 -0.8452  0.4598 -0.8794
  649MOL0     H89550   3.415   5.758   3.062 -1.4560 -0.6412 -0.3860
  649MOL0     H89551   3.332   5.912   3.113 -2.4803  1.2130 -0.1628
  649MOL0     H89552   3.215   5.722   2.902  0.6839 -4.6045  3.3848
  649MOL0     H89553   3.147   5.872   3.000  1.0330  1.4135  1.2143
  649MOL0     H89554   3.166   5.735   3.201  1.3110 -0.1312 -1.2078
  649MOL0     H89555   3.038   5.683   3.098 -0.4570 -0.8511  1.3895
  649MOL0     H89556   3.318   5.566   3.107  0.1948 -1.3825  0.4304
  649MOL0     H89557   3.176   5.512   3.013  0.6485 -1.4145  1.5036
  649MOL0     H89558   3.097   5.383   3.410 -3.6030  2.4262 -0.5826
  649MOL0     H89559   3.308   6.107   3.064  2.4415 -5.2159 -1.0673
  649MOL0     H89560   3.104   6.368   3.002 -0.4316 -1.4897  0.9684
  649MOL0     H89561   3.232   6.317   3.110 -2.0437 -0.2536 -0.2552
  649MOL0     H89562   3.253   6.441   2.986  1.0595 -0.4608  1.2048
  650MOL0     O89563   1.690   8.543   6.446  0.2608  0.5929  0.3062
  650MOL0     C89564   1.638   8.626   6.518  0.0590  0.0992  0.5058
  650MOL0     O89565   1.505   8.642   6.529  0.9294  0.4456 -0.7274
  650MOL0     C89566   1.431   8.550   6.456 -0.3897  0.2093  0.0480
  650MOL0     C89567   1.444   8.405   6.476 -0.1431  0.0952 -0.2023
  650MOL0     C89568   1.395   8.317   6.383 -0.1667  0.4680 -1.1505
  650MOL0     C89569   1.321   8.358   6.268  0.1703  0.7494 -0.5021
  650MOL0     O89570   1.285   8.267   6.171 -0.1023  0.3032 -0.4121
  650MOL0     C89571   1.393   8.218   6.090 -0.2423  0.0684  0.0203
  650MOL0     C89572   1.423   8.068   6.072  0.3889  0.9675  0.2242
  650MOL0     C89573   1.555   8.023   6.005  0.0064 -0.4484 -0.0169
  650MOL0     C89574   1.579   8.075   5.863  0.8032 -0.2850  0.1493
  650MOL0     C89575   1.703   8.009   5.808 -0.2366  0.0472  0.8906
  650MOL0     C89576   1.726   8.069   5.668  0.0733  0.1632  0.0228
  650MOL0     C89577   1.864   8.011   5.607  0.5816 -0.6774  1.4554
  650MOL0     C89578   1.900   8.067   5.465  0.1279  1.2977  0.5687
  650MOL0     N89579   2.024   8.019   5.399  0.0748 -0.1223 -0.2804
  650MOL0     C89580   2.063   7.887   5.414 -0.8452 -0.2315 -0.2233
  650MOL0     C89581   2.189   7.875   5.357 -0.3166  0.3275  0.6660
  650MOL0     C89582   2.276   7.750   5.367 -0.4905  0.2951 -0.6834
  650MOL0     C89583   2.424   7.781   5.349  0.6195 -0.2886  0.1478
  650MOL0     C89584   2.509   7.655   5.384  0.1887 -0.5160  0.0761
  650MOL0     C89585   2.523   7.556   5.272 -0.1735  0.3247 -0.7745
  650MOL0     O89586   2.611   7.600   5.161 -0.6441 -0.1480 -0.5083
  650MOL0     C89587   2.655   7.502   5.070 -0.3241 -0.3276 -0.1091
  650MOL0     C89588   2.576   7.398   5.019 -0.9628 -0.0056 -0.0148
  650MOL0     C89589   2.630   7.318   4.918 -0.2123  0.2919  0.3630
  650MOL0     C89590   2.546   7.195   4.873  0.0740  0.1383 -0.0240
  650MOL0     C89591   2.763   7.339   4.875  0.1993 -0.0783  0.2743
  650MOL0     C89592   2.833   7.250   4.785 -0.5881 -0.1541 -0.9185
  650MOL0     O89593   2.950   7.203   4.829  0.2757 -0.0560  0.3436
  650MOL0     C89594   3.010   7.107   4.749  0.0382 -0.2731  0.1936
  650MOL0     C89595   3.042   7.120   4.611 -0.0287  0.5893  0.0219
  650MOL0     C89596   3.114   7.021   4.556  0.1907 -0.1594  0.3760
  650MOL0     C89597   3.164   6.902   4.627 -0.4879 -0.7411 -0.6812
  650MOL0     O89598   3.244   6.811   4.567 -0.0251  0.8101 -0.3623
  650MOL0     C89599   3.386   6.842   4.594 -0.1535 -0.4642  0.0918
  650MOL0     C89600   3.476   6.726   4.548 -0.3284 -0.3136  0.0483
  650MOL0     C89601   3.482   6.750   4.397  0.0167  0.9916  0.3257
  650MOL0     C89602   3.553   6.634   4.336 -0.7810  0.5049 -0.1736
  650MOL0     C89603   3.598   6.667   4.191 -0.5499  0.2382 -0.5353
  650MOL0     C89604   3.681   6.553   4.136 -1.4562 -0.2785 -0.9372
  650MOL0     C89605   3.716   6.565   3.989  0.5146  0.2579 -1.6935
  650MOL0     C89606   3.804   6.449   3.950 -0.4374 -0.8566 -0.1071
  650MOL0    Cl89607   3.738   6.288   3.933  0.0394 -0.1615  0.0436
  650MOL0     C89608   3.140   6.900   4.760  0.6095 -0.1380  0.4423
  650MOL0     C89609   3.058   7.004   4.823  0.0103 -0.0207 -0.3123
  650MOL0     O89610   2.787   7.235   4.673  0.5636  0.1931  0.4127
  650MOL0     C89611   2.839   7.445   4.921  0.4575 -0.9947  0.3985
  650MOL0     C89612   2.781   7.524   5.020  0.4337 -0.7031  0.2841
  650MOL0     N89613   2.220   8.005   5.303  0.4139  0.9829 -0.6491
  650MOL0     N89614   2.118   8.080   5.337 -0.7670 -0.5925 -0.5353
  650MOL0     C89615   1.309   8.497   6.248 -0.9513  0.0808  0.2289
  650MOL0     C89616   1.366   8.598   6.334 -0.1769  0.0091  0.0244
  650MOL0     C89617   1.734   8.720   6.586  0.0165  1.0160  0.3005
  650MOL0     C89618   1.673   8.810   6.681 -0.2697 -0.1023 -0.4249
  650MOL0     C89619   1.754   8.914   6.732 -0.3994 -0.1531  0.0549
  650MOL0     C89620   1.891   8.923   6.693 -0.3877 -0.4017 -0.5443
  650MOL0     O89621   1.981   9.020   6.742  0.2088  0.6618  0.6985
  650MOL0     C89622   1.918   9.150   6.767 -0.3726 -0.6441  1.0599
  650MOL0     C89623   2.036   9.254   6.782  0.0362 -0.5463  0.2442
  650MOL0     C89624   2.165   9.254   6.689  0.9369 -0.1031 -0.1573
  650MOL0     C89625   2.149   9.191   6.552  0.7774  1.1207 -0.8991
  650MOL0     C89626   2.071   9.281   6.465  0.0912 -0.1089 -1.1596
  650MOL0     C89627   2.010   9.351   6.388 -0.6392 -1.4753 -0.0649
  650MOL0     C89628   1.950   8.828   6.613 -0.6147 -0.8776  0.3313
  650MOL0     C89629   1.876   8.725   6.559 -0.4188 -0.5813  0.2984
  650MOL0     C89630   1.950   8.641   6.462  0.0400  0.8297 -0.2755
  650MOL0     H89631   1.488   8.358   6.563  0.0680 -0.1778 -0.4520
  650MOL0     H89632   1.422   8.215   6.408 -1.1338  0.4349 -0.2113
  650MOL0     H89633   1.487   8.272   6.107 -1.0623  1.3911  0.5134
  650MOL0     H89634   1.370   8.252   5.989  0.8861  0.7890 -0.0074
  650MOL0     H89635   1.427   8.029   6.174  0.2632  1.2281  0.3301
  650MOL0     H89636   1.342   8.016   6.017 -0.0300  1.2222  0.5970
  650MOL0     H89637   1.628   8.064   6.075 -2.7742  2.2710  1.5403
  650MOL0     H89638   1.555   7.915   6.021 -6.2144 -1.2292 -2.2396
  650MOL0     H89639   1.496   8.035   5.804  0.8504 -0.4398  0.1905
  650MOL0     H89640   1.592   8.184   5.863 -0.3817 -0.0150  3.4821
  650MOL0     H89641   1.702   7.900   5.809 -0.4323 -0.0080 -1.1275
  650MOL0     H89642   1.793   8.037   5.863 -0.0968  0.3469  0.5177
  650MOL0     H89643   1.639   8.063   5.602  0.0061 -0.5679  0.1768
  650MOL0     H89644   1.740   8.175   5.691  1.9918  0.2590 -1.3330
  650MOL0     H89645   1.843   7.905   5.590  3.4304 -0.9708 -1.0040
  650MOL0     H89646   1.948   8.029   5.674  1.0957  3.2525  0.0428
  650MOL0     H89647   1.834   8.032   5.384  2.9676 -1.2974 -0.8359
  650MOL0     H89648   1.891   8.176   5.468  0.9245  1.3843  0.0205
  650MOL0     H89649   2.009   7.808   5.464  1.0845  0.1715  2.7516
  650MOL0     H89650   2.229   7.674   5.304 -2.4907 -1.2083  2.4215
  650MOL0     H89651   2.278   7.713   5.470  0.2840 -3.0514 -1.7696
  650MOL0     H89652   2.450   7.817   5.249  3.2303 -1.6067  0.2627
  650MOL0     H89653   2.452   7.856   5.423 -0.6417  0.8212 -0.4644
  650MOL0     H89654   2.611   7.682   5.411  0.0565  0.5708 -0.4637
  650MOL0     H89655   2.459   7.611   5.471 -1.8488  1.4366 -0.0019
  650MOL0     H89656   2.571   7.466   5.312 -1.5225 -0.7952 -1.5616
  650MOL0     H89657   2.427   7.527   5.227  0.1762  0.5709 -1.7089
  650MOL0     H89658   2.475   7.388   5.056 -0.5174  2.6377  2.2604
  650MOL0     H89659   2.604   7.103   4.862 -0.2411 -0.2443  1.2787
  650MOL0     H89660   2.506   7.229   4.777  2.1992 -1.5306 -1.5867
  650MOL0     H89661   2.455   7.193   4.934 -0.4825  0.3908 -0.8220
  650MOL0     H89662   3.012   7.213   4.564  0.9723  2.7423  3.2791
  650MOL0     H89663   3.120   7.012   4.448 -2.1906 -1.9950  0.3101
  650MOL0     H89664   3.417   6.936   4.548  2.0911 -1.6770 -1.0586
  650MOL0     H89665   3.396   6.848   4.703  0.1429 -3.2784  0.2886
  650MOL0     H89666   3.580   6.742   4.578  0.7365 -2.1975 -2.2575
  650MOL0     H89667   3.430   6.630   4.573 -1.3624 -0.2730 -1.6142
  650MOL0     H89668   3.547   6.836   4.379 -0.0154  1.8884  3.7570
  650MOL0     H89669   3.386   6.762   4.346 -0.2157  3.0774  1.1410
  650MOL0     H89670   3.494   6.542   4.342  0.2206 -0.1679 -0.3297
  650MOL0     H89671   3.641   6.607   4.395 -1.1195 -1.9868 -0.6942
  650MOL0     H89672   3.516   6.683   4.121  1.7018  1.5717 -3.0109
  650MOL0     H89673   3.659   6.756   4.176 -0.0531 -0.2017 -1.1474
  650MOL0     H89674   3.652   6.451   4.165 -0.2074 -1.0265 -2.1822
  650MOL0     H89675   3.781   6.575   4.174 -0.8030  2.0881 -3.6406
  650MOL0     H89676   3.767   6.659   3.967 -2.8869  2.3520 -1.4961
  650MOL0     H89677   3.621   6.559   3.934  0.2540 -3.9024 -1.0966
  650MOL0     H89678   3.890   6.438   4.016  0.1569 -1.5400 -0.9677
  650MOL0     H89679   3.827   6.480   3.847 -3.6422  1.8134 -0.1961
  650MOL0     H89680   3.163   6.811   4.818 -0.4951  1.0331  2.8025
  650MOL0     H89681   3.032   6.989   4.927 -0.7270 -2.3939 -0.7812
  650MOL0     H89682   2.933   7.485   4.884  0.8309 -0.8416  1.4850
  650MOL0     H89683   2.830   7.612   5.059  0.0811  0.5669 -1.9618
  650MOL0     H89684   1.259   8.525   6.157 -0.2820  2.1177  0.4302
  650MOL0     H89685   1.358   8.704   6.314  0.2661  0.0853  0.2398
  650MOL0     H89686   1.569   8.813   6.711 -0.5254  2.4659 -1.2898
  650MOL0     H89687   1.713   8.976   6.811 -3.1063  1.1187 -2.2140
  650MOL0     H89688   1.849   9.174   6.685  2.7969 -1.5989 -2.1295
  650MOL0     H89689   1.861   9.148   6.861  0.4115 -1.9535  1.5473
  650MOL0     H89690   2.082   9.233   6.879 -2.1314 -0.4496  1.3513
  650MOL0     H89691   1.999   9.357   6.788  0.0971 -0.4965 -0.1891
  650MOL0     H89692   2.189   9.361   6.684 -2.4547  1.0498  3.2536
  650MOL0     H89693   2.243   9.196   6.740  0.7025  0.7915  1.2995
  650MOL0     H89694   2.108   9.089   6.554 -1.1371  1.8200 -1.7460
  650MOL0     H89695   2.239   9.179   6.492  0.2685 -3.4475 -1.0920
  650MOL0     H89696   1.953   9.410   6.319 -0.7785 -2.0673 -0.4611
  650MOL0     H89697   2.053   8.846   6.584 -1.9881  3.6697 -2.9527
  650MOL0     H89698   2.053   8.660   6.433  0.2927 -1.6486 -1.2832
  650MOL0     H89699   1.965   8.541   6.503 -0.0921  1.4776  1.4385
  650MOL0     H89700   1.891   8.638   6.370  0.8552  2.3056 -0.8787
  651MOL0     O89701  11.411   1.806   6.170  0.0937 -0.6283 -0.5280
  651MOL0     C89702  11.349   1.906   6.157  0.0422 -0.9502 -0.3374
  651MOL0     O89703  11.378   2.003   6.068 -0.6609 -0.1414  0.6522
  651MOL0     C89704  11.496   1.990   6.000 -0.3385  0.0395 -0.0628
  651MOL0     C89705  11.495   1.919   5.877 -0.1043  0.6325  0.3030
  651MOL0     C89706  11.609   1.912   5.792 -0.4004 -0.5841  0.5140
  651MOL0     C89707  11.725   1.982   5.838  0.6556  0.0269  0.1424
  651MOL0     O89708  11.844   1.974   5.771 -0.1697  0.1940 -0.1681
  651MOL0     C89709  11.845   2.057   5.658  0.4504 -0.0258  0.7434
  651MOL0     C89710  11.988   2.078   5.618 -0.8271  0.2009  1.2450
  651MOL0     C89711  12.044   1.973   5.517 -0.2575  0.5013  0.7397
  651MOL0     C89712  12.125   1.873   5.585 -0.3182 -0.9438 -0.8484
  651MOL0     C89713  12.181   1.754   5.501  0.3273 -0.3372  0.1910
  651MOL0     C89714  12.114   1.616   5.526  0.5912 -0.4277 -0.2073
  651MOL0     C89715  12.177   1.504   5.456  0.2615  0.2723  0.4844
  651MOL0     C89716  12.105   1.374   5.484 -0.9035  0.2376 -0.1152
  651MOL0     N89717  11.975   1.367   5.411  0.0686  0.4399 -0.0028
  651MOL0     C89718  11.874   1.265   5.427 -0.8034  0.8498  0.0851
  651MOL0     C89719  11.783   1.284   5.333  0.0807  0.4024 -0.1200
  651MOL0     C89720  11.679   1.177   5.287 -0.2120 -0.2044  0.0328
  651MOL0     C89721  11.531   1.231   5.287 -0.6946  0.0863 -0.3114
  651MOL0     C89722  11.425   1.127   5.247 -0.3537 -0.3778 -1.2723
  651MOL0     C89723  11.282   1.184   5.261 -0.7479 -0.5911  0.0736
  651MOL0     O89724  11.262   1.249   5.383 -0.3629  0.8428 -0.3249
  651MOL0     C89725  11.143   1.317   5.403 -0.2616  0.3824 -0.4318
  651MOL0     C89726  11.015   1.263   5.364 -0.1928 -0.0747 -0.2121
  651MOL0     C89727  10.890   1.324   5.385 -0.5531  0.4188 -0.8791
  651MOL0     C89728  10.758   1.269   5.342 -0.2193  0.8007 -0.8434
  651MOL0     C89729  10.891   1.445   5.455 -0.0385 -0.9350 -0.7800
  651MOL0     C89730  10.770   1.526   5.501 -0.7803 -0.3325 -0.0262
  651MOL0     O89731  10.764   1.664   5.463 -0.6156  0.6420 -0.6620
  651MOL0     C89732  10.636   1.714   5.460  0.3514  0.8851 -0.1714
  651MOL0     C89733  10.582   1.798   5.554 -0.1445  0.2143  0.3392
  651MOL0     C89734  10.453   1.851   5.551 -0.2863 -1.2098  0.3568
  651MOL0     C89735  10.371   1.798   5.457  0.8181 -0.5327  0.3134
  651MOL0     O89736  10.237   1.841   5.455 -0.4633 -0.4494 -0.6298
  651MOL0     C89737  10.209   1.962   5.391  0.3269 -0.1834  0.8377
  651MOL0     C89738  10.082   1.964   5.301 -0.0615  0.0691  0.5508
  651MOL0     C89739  10.112   1.863   5.188 -0.0220 -0.0676  0.3624
  651MOL0     C89740  10.017   1.894   5.070 -0.2363 -0.3014  0.3673
  651MOL0     C89741  10.026   1.807   4.949  0.4531  0.2321  0.6249
  651MOL0     C89742  10.160   1.817   4.892 -0.2391 -0.5552  0.3987
  651MOL0     C89743  10.157   1.735   4.757  0.0456  0.5373  0.4087
  651MOL0     C89744  10.280   1.762   4.672 -0.1657 -0.1148  0.0867
  651MOL0    Cl89745  10.439   1.731   4.760 -0.2048  0.2688  0.0689
  651MOL0     C89746  10.419   1.716   5.363  0.0305 -0.4830 -0.0349
  651MOL0     C89747  10.551   1.664   5.360  1.1935 -1.2589  0.3467
  651MOL0     O89748  10.697   1.468   5.571 -0.1193  1.3337  0.2615
  651MOL0     C89749  11.013   1.505   5.487 -0.1947 -0.3086  0.1784
  651MOL0     C89750  11.134   1.439   5.461 -0.1107 -0.3431  0.2241
  651MOL0     N89751  11.826   1.403   5.260  0.6121  0.1743 -0.5060
  651MOL0     N89752  11.942   1.450   5.307 -0.3128  0.6777 -0.4577
  651MOL0     C89753  11.719   2.056   5.952  1.2850  0.0162 -0.2003
  651MOL0     C89754  11.611   2.058   6.032  0.2023  0.1437  0.2842
  651MOL0     C89755  11.232   1.925   6.232  0.0790 -0.0064  0.0395
  651MOL0     C89756  11.191   2.059   6.245  0.2701  0.1190 -0.0829
  651MOL0     C89757  11.085   2.090   6.325 -0.3738  0.0357 -0.8855
  651MOL0     C89758  11.017   1.990   6.396 -0.1761  0.9533  0.0506
  651MOL0     O89759  10.912   2.021   6.478  0.7434 -0.0863 -0.9563
  651MOL0     C89760  10.817   1.917   6.508  0.7088 -0.0334 -0.1986
  651MOL0     C89761  10.690   1.990   6.557 -0.4605 -0.4970  0.5785
  651MOL0     C89762  10.719   2.060   6.692  0.3456  0.1632 -0.6515
  651MOL0     C89763  10.590   2.080   6.768  0.5864 -0.8136  0.4040
  651MOL0     C89764  10.534   1.951   6.807 -0.0633  0.4411  0.3356
  651MOL0     C89765  10.507   1.840   6.833 -1.1574 -0.0824  0.4465
  651MOL0     C89766  11.052   1.851   6.369  0.5988 -0.6862 -0.8339
  651MOL0     C89767  11.157   1.821   6.291  0.8462 -0.6053  0.9381
  651MOL0     C89768  11.185   1.675   6.285 -0.0672 -0.4750  0.0127
  651MOL0     H89769  11.413   1.859   5.840  0.0972  0.4192  0.1983
  651MOL0     H89770  11.601   1.853   5.701  3.3214 -1.3566  0.5351
  651MOL0     H89771  11.795   2.150   5.690 -2.1061 -0.6960 -0.9662
  651MOL0     H89772  11.799   2.003   5.575  3.6820  1.5449 -2.3289
  651MOL0     H89773  12.014   2.182   5.594 -2.0852  0.6447  1.7364
  651MOL0     H89774  12.043   2.054   5.710 -2.4074 -1.4290  1.8263
  651MOL0     H89775  11.954   1.935   5.469  0.4085 -0.2534  0.0483
  651MOL0     H89776  12.116   2.025   5.452  0.0205 -0.1699  0.4968
  651MOL0     H89777  12.207   1.915   5.645 -3.6991  3.7358  1.0248
  651MOL0     H89778  12.063   1.823   5.659 -0.6634 -0.4468 -0.7959
  651MOL0     H89779  12.289   1.744   5.511  0.3071  0.0187  0.8297
  651MOL0     H89780  12.165   1.788   5.398 -1.8191  1.6541  1.0947
  651MOL0     H89781  12.125   1.588   5.632  2.8598  4.4660  1.1215
  651MOL0     H89782  12.007   1.621   5.502 -0.1139 -0.3300  2.5302
  651MOL0     H89783  12.280   1.490   5.490 -0.0622 -0.0622  1.3405
  651MOL0     H89784  12.182   1.526   5.349 -1.0152 -1.7537 -0.0531
  651MOL0     H89785  12.172   1.290   5.463  1.7176  2.1296  0.0601
  651MOL0     H89786  12.070   1.374   5.587  0.9069  1.2533  0.5492
  651MOL0     H89787  11.869   1.188   5.503  1.6092  0.4179 -0.1053
  651MOL0     H89788  11.695   1.085   5.343  1.9184 -0.7511 -1.3483
  651MOL0     H89789  11.694   1.159   5.180 -1.0555 -1.4702  0.1154
  651MOL0     H89790  11.519   1.268   5.389  0.2847 -1.2046  0.3086
  651MOL0     H89791  11.526   1.310   5.212  4.3954 -0.9387 -2.1528
  651MOL0     H89792  11.437   1.089   5.145 -1.1801 -1.0985 -1.1172
  651MOL0     H89793  11.441   1.038   5.308 -0.8538 -0.5236 -1.3455
  651MOL0     H89794  11.260   1.246   5.174  2.2337 -2.9031 -2.5856
  651MOL0     H89795  11.214   1.099   5.251 -0.1135 -1.0337 -0.5595
  651MOL0     H89796  11.018   1.165   5.317 -1.6293 -1.0899  1.6888
  651MOL0     H89797  10.772   1.161   5.357 -2.7026  0.2678 -1.7359
  651MOL0     H89798  10.734   1.276   5.236 -1.3944  0.9494 -0.5880
  651MOL0     H89799  10.667   1.294   5.398 -1.5763 -3.5929 -0.6688
  651MOL0     H89800  10.641   1.817   5.643  2.4717  3.9193 -1.9126
  651MOL0     H89801  10.430   1.926   5.627  1.8213 -1.2483  1.1172
  651MOL0     H89802  10.187   2.031   5.474  2.6053 -0.7694  2.0099
  651MOL0     H89803  10.290   2.005   5.331  0.7381 -0.3008  1.3085
  651MOL0     H89804   9.990   1.943   5.356 -0.1724  2.5586  1.4323
  651MOL0     H89805  10.071   2.069   5.272 -0.7919  0.4092  1.9745
  651MOL0     H89806  10.089   1.770   5.241  0.9154  0.6818  2.1732
  651MOL0     H89807  10.216   1.859   5.153 -0.9578 -0.3412 -2.7312
  651MOL0     H89808  10.014   1.999   5.039 -1.8248 -1.0389 -2.1951
  651MOL0     H89809   9.923   1.890   5.125 -0.6995 -1.7319 -0.4907
  651MOL0     H89810   9.997   1.703   4.968  1.7868 -0.1268  0.7635
  651MOL0     H89811   9.951   1.841   4.877 -1.0850 -1.5423  1.2805
  651MOL0     H89812  10.240   1.788   4.960 -1.6034  2.3115  3.4805
  651MOL0     H89813  10.170   1.924   4.870 -0.5424 -1.1124 -3.0650
  651MOL0     H89814  10.066   1.753   4.698 -1.5558 -3.0129  1.5641
  651MOL0     H89815  10.166   1.630   4.784  4.7629  0.3460 -0.9616
  651MOL0     H89816  10.275   1.869   4.651 -3.4738  0.0839  1.3891
  651MOL0     H89817  10.282   1.704   4.579  0.9381 -0.8485  0.5367
  651MOL0     H89818  10.357   1.684   5.280 -0.3789  1.3000 -0.4481
  651MOL0     H89819  10.588   1.599   5.281 -0.2812  0.7434 -2.1577
  651MOL0     H89820  11.019   1.602   5.535 -3.5903 -0.3722  0.9101
  651MOL0     H89821  11.223   1.495   5.486 -0.7853  0.8422  0.0999
  651MOL0     H89822  11.805   2.110   5.991  0.6516 -0.8239  2.6339
  651MOL0     H89823  11.606   2.122   6.119 -0.4817  0.4514  0.0259
  651MOL0     H89824  11.248   2.141   6.202 -2.8071  2.0344 -0.8710
  651MOL0     H89825  11.067   2.195   6.348  1.0412  0.0565  0.2782
  651MOL0     H89826  10.798   1.860   6.416  0.8539  0.5676 -0.6078
  651MOL0     H89827  10.851   1.853   6.590 -3.2371 -1.4347  0.5714
  651MOL0     H89828  10.618   1.908   6.566 -1.1994 -0.1732 -1.5538
  651MOL0     H89829  10.651   2.056   6.479  1.2917 -0.8104 -0.6254
  651MOL0     H89830  10.780   1.990   6.749 -1.3236 -0.3172  0.6179
  651MOL0     H89831  10.773   2.150   6.662  0.8824 -0.0241 -0.2738
  651MOL0     H89832  10.511   2.130   6.712  0.5046  0.0272  1.2342
  651MOL0     H89833  10.609   2.138   6.859  0.2844  0.8979 -0.5784
  651MOL0     H89834  10.480   1.742   6.866 -1.4887  0.4996  2.0287
  651MOL0     H89835  11.015   1.764   6.423 -3.7121 -0.9211 -3.6611
  651MOL0     H89836  11.240   1.632   6.201 -0.5090  0.6834 -0.8953
  651MOL0     H89837  11.246   1.651   6.372 -0.0648 -1.7018 -0.3201
  651MOL0     H89838  11.094   1.616   6.298  0.6845 -1.7972 -0.5596
  652MOL0     O89839   7.560   7.274   2.240  0.1664  1.1573  0.1334
  652MOL0     C89840   7.479   7.263   2.150 -0.6153 -0.2020  0.5607
  652MOL0     O89841   7.489   7.165   2.055  0.4211  0.0435  0.5019
  652MOL0     C89842   7.569   7.056   2.055  0.2385 -0.2788  0.2385
  652MOL0     C89843   7.570   6.981   1.934 -0.9088 -0.1188  0.0403
  652MOL0     C89844   7.651   6.862   1.911  0.0965  0.4653 -0.0258
  652MOL0     C89845   7.733   6.820   2.015  0.1827  0.0682 -0.3264
  652MOL0     O89846   7.804   6.703   2.014  0.9028 -0.5828  0.8709
  652MOL0     C89847   7.912   6.700   1.927  0.4546  0.6872  0.3405
  652MOL0     C89848   7.990   6.563   1.969  0.7181 -0.3783 -0.4222
  652MOL0     C89849   8.050   6.566   2.112 -0.5017  0.6311  0.7189
  652MOL0     C89850   8.051   6.428   2.170  0.2552  0.9521  0.4871
  652MOL0     C89851   8.081   6.423   2.312  0.4888  0.0444  0.9009
  652MOL0     C89852   8.025   6.289   2.375  0.3620  0.3939  0.5864
  652MOL0     C89853   8.067   6.295   2.526 -0.9823  0.0912 -0.1973
  652MOL0     C89854   8.213   6.269   2.566 -0.8207  0.0330  0.3226
  652MOL0     N89855   8.241   6.131   2.579  0.2734  0.6950  0.9827
  652MOL0     C89856   8.286   6.064   2.691 -0.6296 -0.6330 -1.0435
  652MOL0     C89857   8.315   5.936   2.643 -1.0502 -1.1196 -0.6770
  652MOL0     C89858   8.341   5.818   2.724 -0.8005  0.1387 -0.1633
  652MOL0     C89859   8.213   5.754   2.771  0.2730  0.7484 -0.2085
  652MOL0     C89860   8.095   5.719   2.670 -1.4017  0.3840  0.3719
  652MOL0     C89861   7.972   5.659   2.746  0.1276 -1.4206  0.4975
  652MOL0     O89862   7.927   5.772   2.821  0.8715 -0.1323 -0.2352
  652MOL0     C89863   7.803   5.832   2.802  0.0081  0.5040 -1.4290
  652MOL0     C89864   7.764   5.894   2.686 -0.1860  0.6160  0.2544
  652MOL0     C89865   7.653   5.976   2.686  0.8796 -0.3243  0.3225
  652MOL0     C89866   7.597   6.018   2.550 -1.0223  0.0814 -0.3602
  652MOL0     C89867   7.590   6.020   2.803 -0.3805  0.2052  0.1231
  652MOL0     C89868   7.485   6.131   2.815  0.5594  0.1279  0.0319
  652MOL0     O89869   7.410   6.111   2.924 -0.5613  0.6408  0.4229
  652MOL0     C89870   7.306   6.200   2.960 -0.3437 -0.3292 -0.0004
  652MOL0     C89871   7.217   6.256   2.867  0.5385 -0.3587 -0.5754
  652MOL0     C89872   7.103   6.330   2.909  0.0560 -0.8054  0.6645
  652MOL0     C89873   7.081   6.348   3.046 -0.4560  0.6969 -0.2528
  652MOL0     O89874   6.978   6.412   3.102 -0.1812 -0.1018 -0.4411
  652MOL0     C89875   6.958   6.545   3.037 -0.5194 -0.4084 -0.3064
  652MOL0     C89876   6.906   6.638   3.144  0.9080  0.2150 -0.3652
  652MOL0     C89877   6.753   6.634   3.171  0.8215  0.0679 -0.8134
  652MOL0     C89878   6.707   6.753   3.256  0.6931 -0.2788 -0.0082
  652MOL0     C89879   6.782   6.762   3.391  1.0902 -0.8571 -0.7119
  652MOL0     C89880   6.734   6.883   3.479  0.3404  0.3890  0.1539
  652MOL0     C89881   6.831   6.904   3.597  0.2416  0.0645  0.7179
  652MOL0     C89882   6.810   6.808   3.714 -0.5034  0.3002 -0.5514
  652MOL0    Cl89883   6.936   6.679   3.702 -0.4298 -0.0792  0.4028
  652MOL0     C89884   7.166   6.289   3.141  0.0111 -1.1499  0.0270
  652MOL0     C89885   7.267   6.212   3.094 -0.6299  0.0732  0.0373
  652MOL0     O89886   7.467   6.219   2.737  0.7866 -0.7186 -0.1576
  652MOL0     C89887   7.626   5.949   2.920  0.0072 -0.3346 -0.3799
  652MOL0     C89888   7.736   5.860   2.916 -0.1278  0.3880  0.0951
  652MOL0     N89889   8.311   5.931   2.508 -0.3186 -0.0106 -0.4885
  652MOL0     N89890   8.259   6.050   2.469 -0.1976 -0.5703  0.0291
  652MOL0     C89891   7.724   6.887   2.137  0.2149  0.5968 -0.0890
  652MOL0     C89892   7.643   6.996   2.156 -0.2930  0.0655 -0.7329
  652MOL0     C89893   7.382   7.360   2.136  0.1924 -0.6131 -0.7221
  652MOL0     C89894   7.316   7.361   2.010  0.4821 -0.0401  0.6405
  652MOL0     C89895   7.209   7.446   1.992  0.4529  0.1075  0.5370
  652MOL0     C89896   7.153   7.526   2.085  0.2633 -0.7107 -0.4762
  652MOL0     O89897   7.037   7.592   2.051  0.2537  0.2828 -0.2605
  652MOL0     C89898   6.979   7.684   2.150 -0.8642 -0.8064  0.0017
  652MOL0     C89899   6.886   7.598   2.239  0.8500  0.6361 -0.2257
  652MOL0     C89900   6.780   7.696   2.313 -0.4342 -0.1598 -0.5791
  652MOL0     C89901   6.634   7.635   2.326 -0.2229 -0.1442 -0.3609
  652MOL0     C89902   6.573   7.634   2.195 -0.6153 -0.4488  1.4048
  652MOL0     C89903   6.524   7.644   2.081 -0.1738 -1.2286 -0.3916
  652MOL0     C89904   7.223   7.525   2.213  0.5801 -0.1843 -0.0235
  652MOL0     C89905   7.330   7.444   2.238 -0.7728  0.3340  0.2373
  652MOL0     C89906   7.384   7.453   2.382 -0.2406  0.9090 -0.1774
  652MOL0     H89907   7.519   7.028   1.850 -1.0657  2.7817  1.6313
  652MOL0     H89908   7.665   6.816   1.814 -0.7611  2.0620 -0.9534
  652MOL0     H89909   7.983   6.782   1.944  4.4570 -2.7043  1.6733
  652MOL0     H89910   7.894   6.687   1.820  1.0730  0.7963  0.2154
  652MOL0     H89911   7.924   6.479   1.946  1.2262  0.0361 -3.9284
  652MOL0     H89912   8.066   6.535   1.896 -1.3383 -0.7529 -2.5561
  652MOL0     H89913   8.153   6.601   2.098 -1.0641  2.5983  1.1175
  652MOL0     H89914   7.985   6.627   2.176 -2.9511 -1.9065  0.8574
  652MOL0     H89915   7.953   6.382   2.157 -0.0418  1.1117  1.9650
  652MOL0     H89916   8.112   6.358   2.112 -1.8413 -0.1756 -0.4658
  652MOL0     H89917   8.039   6.513   2.358  0.8432 -0.3697  2.0748
  652MOL0     H89918   8.188   6.412   2.332  0.6960  2.5390  1.4260
  652MOL0     H89919   7.917   6.277   2.361  0.7091  0.5083 -3.1450
  652MOL0     H89920   8.066   6.201   2.326 -0.3386  0.6286 -0.4398
  652MOL0     H89921   7.994   6.233   2.578 -1.2191 -0.3713 -1.0627
  652MOL0     H89922   8.041   6.398   2.550  0.4819  0.4237  0.0693
  652MOL0     H89923   8.286   6.307   2.495  2.6575  0.3532  3.7086
  652MOL0     H89924   8.236   6.325   2.657  1.2319  1.4087 -0.9754
  652MOL0     H89925   8.291   6.113   2.788  3.8581  2.4156 -2.4747
  652MOL0     H89926   8.408   5.835   2.809 -3.8581 -1.2799  2.7865
  652MOL0     H89927   8.397   5.750   2.659 -1.5792  0.5429 -1.2869
  652MOL0     H89928   8.233   5.663   2.829 -0.6161 -1.2727 -2.8605
  652MOL0     H89929   8.174   5.829   2.839  0.1424 -1.0542  1.8121
  652MOL0     H89930   8.066   5.798   2.600  0.6101 -2.5576 -4.2879
  652MOL0     H89931   8.125   5.639   2.602  1.0069  3.1392 -2.1156
  652MOL0     H89932   7.904   5.612   2.674  1.6299 -1.0873 -1.2237
  652MOL0     H89933   8.015   5.587   2.816 -0.6250 -1.4201  0.9672
  652MOL0     H89934   7.817   5.868   2.595 -1.0660 -1.3729  0.2614
  652MOL0     H89935   7.618   5.946   2.471  2.1518  0.9595 -0.4588
  652MOL0     H89936   7.655   6.107   2.525  0.9610 -1.0192  0.1483
  652MOL0     H89937   7.490   6.044   2.555 -1.0142 -0.0477  2.7664
  652MOL0     H89938   7.230   6.230   2.762 -1.8465  0.4955 -1.1458
  652MOL0     H89939   7.051   6.384   2.830  5.9120  1.0329 -2.4784
  652MOL0     H89940   7.050   6.577   2.987  0.6728 -4.0329 -0.7343
  652MOL0     H89941   6.878   6.548   2.962 -1.0609  2.2020  0.2974
  652MOL0     H89942   6.954   6.611   3.239  1.5058 -1.3660 -1.0798
  652MOL0     H89943   6.940   6.739   3.117 -0.4882  0.3328 -1.8132
  652MOL0     H89944   6.712   6.547   3.222 -1.0611  0.6036 -1.3377
  652MOL0     H89945   6.719   6.631   3.067  0.8658 -0.7096 -0.8089
  652MOL0     H89946   6.599   6.758   3.275  0.9192 -1.5298  1.9337
  652MOL0     H89947   6.737   6.845   3.206 -4.0544  0.4517 -2.0102
  652MOL0     H89948   6.763   6.673   3.453 -2.4619 -0.1228 -0.5467
  652MOL0     H89949   6.889   6.774   3.373  1.1096 -2.9327 -2.4636
  652MOL0     H89950   6.637   6.860   3.523  0.5398 -4.0945 -1.3090
  652MOL0     H89951   6.734   6.977   3.423  0.1974  0.3745  0.1301
  652MOL0     H89952   6.814   7.006   3.630  0.2468 -0.0323  1.0187
  652MOL0     H89953   6.936   6.896   3.566 -0.0055 -1.3505  0.1386
  652MOL0     H89954   6.707   6.771   3.726 -0.2659  0.0353  0.7985
  652MOL0     H89955   6.831   6.858   3.808 -1.5757 -0.7286  0.2686
  652MOL0     H89956   7.142   6.306   3.245 -1.9195  0.0089 -0.5648
  652MOL0     H89957   7.332   6.158   3.162 -0.8059 -2.3302 -1.5687
  652MOL0     H89958   7.573   5.961   3.014  1.7354 -0.6528  0.6738
  652MOL0     H89959   7.782   5.827   3.008  1.7606  0.0748 -0.9275
  652MOL0     H89960   7.784   6.841   2.214  2.9446 -4.2637 -4.4390
  652MOL0     H89961   7.654   7.049   2.250  0.5385 -0.0506 -0.7573
  652MOL0     H89962   7.342   7.306   1.920  2.7511 -0.2328  1.3592
  652MOL0     H89963   7.173   7.448   1.889 -1.4724  2.0978  1.1712
  652MOL0     H89964   7.064   7.729   2.203  0.8182 -0.8997 -2.4485
  652MOL0     H89965   6.936   7.761   2.086  2.5846 -0.4568 -2.1942
  652MOL0     H89966   6.934   7.543   2.320  0.9244  0.8267 -0.1398
  652MOL0     H89967   6.824   7.539   2.171 -1.2378  1.3513  0.9427
  652MOL0     H89968   6.806   7.736   2.411 -1.1631  2.5432 -1.4213
  652MOL0     H89969   6.769   7.791   2.261 -0.7469 -0.2850 -0.7454
  652MOL0     H89970   6.576   7.701   2.391 -1.7405 -0.6533 -1.1633
  652MOL0     H89971   6.642   7.545   2.389 -1.3230  1.4061  2.1342
  652MOL0     H89972   6.495   7.643   1.978 -0.6779 -2.3450 -0.2550
  652MOL0     H89973   7.181   7.593   2.287  1.4349 -0.3921  0.6717
  652MOL0     H89974   7.414   7.353   2.415  0.5337  0.4126 -2.1886
  652MOL0     H89975   7.483   7.500   2.391 -0.7920  2.3275 -1.0776
  652MOL0     H89976   7.311   7.494   2.452 -1.2634 -0.4615 -0.3921
  653MOL0     O89977   7.671   7.499  11.005 -1.3065  0.0896 -0.6811
  653MOL0     C89978   7.619   7.507  11.112  0.3444  0.6334  0.7190
  653MOL0     O89979   7.486   7.460  11.137  0.0597 -0.2129  0.1576
  653MOL0     C89980   7.411   7.433  11.023 -0.0818 -0.4013  1.1363
  653MOL0     C89981   7.363   7.540  10.948  1.2038 -1.0929 -0.3814
  653MOL0     C89982   7.269   7.508  10.849 -0.2206 -0.5787 -0.4193
  653MOL0     C89983   7.250   7.378  10.805  0.2694  0.0373  0.1005
  653MOL0     O89984   7.174   7.342  10.702  1.0161  0.8595 -0.2150
  653MOL0     C89985   7.179   7.410  10.576 -0.4464 -0.4290 -0.1223
  653MOL0     C89986   7.256   7.308  10.486  0.3757 -0.6374  0.0554
  653MOL0     C89987   7.273   7.358  10.341  0.3626 -0.0451  0.9055
  653MOL0     C89988   7.374   7.281  10.250 -0.5277  0.6870  0.0929
  653MOL0     C89989   7.384   7.343  10.110  0.5017 -0.2614  0.1431
  653MOL0     C89990   7.505   7.292  10.036  1.0644 -0.4142  0.0531
  653MOL0     C89991   7.496   7.322   9.877  0.0957  0.7939  0.5855
  653MOL0     C89992   7.627   7.299   9.808 -0.2468  0.0450  0.9270
  653MOL0     N89993   7.611   7.309   9.659 -0.5640  0.2494  0.3815
  653MOL0     C89994   7.604   7.427   9.591  0.2932 -0.7661  0.2509
  653MOL0     C89995   7.577   7.391   9.461 -0.0092  0.1477 -1.2226
  653MOL0     C89996   7.571   7.469   9.340 -0.0277  0.6657 -1.1124
  653MOL0     C89997   7.680   7.567   9.330 -0.4477 -1.3100  0.8266
  653MOL0     C89998   7.651   7.669   9.225  0.4343  0.3800 -0.2198
  653MOL0     C89999   7.570   7.785   9.292 -0.2709  0.4625  0.3657
  653MOL0     O90000   7.663   7.889   9.343 -0.2768  0.6155  0.6065
  653MOL0     C90001   7.608   8.001   9.410  1.0354  0.1137  0.1201
  653MOL0     C90002   7.481   8.005   9.470 -0.1749  0.2126  0.2999
  653MOL0     C90003   7.425   8.113   9.540 -0.6444 -0.9193 -0.1410
  653MOL0     C90004   7.284   8.109   9.582 -0.0707  0.0030  0.0089
  653MOL0     C90005   7.504   8.238   9.547  0.3476 -0.0964 -0.4102
  653MOL0     C90006   7.463   8.370   9.603 -0.7096 -0.4194 -1.2796
  653MOL0     O90007   7.503   8.487   9.538 -0.6358  0.0708 -0.4686
  653MOL0     C90008   7.473   8.618   9.580 -1.1526  0.2600  0.4524
  653MOL0     C90009   7.336   8.649   9.602 -0.8048  0.3346  0.5867
  653MOL0     C90010   7.302   8.779   9.644 -0.6352 -0.5988 -0.0675
  653MOL0     C90011   7.407   8.879   9.659  0.2784 -0.5233  0.9475
  653MOL0     O90012   7.391   9.008   9.693  0.0955  0.3298 -0.2069
  653MOL0     C90013   7.252   9.042   9.709  0.2277 -0.0920 -0.4695
  653MOL0     C90014   7.246   9.198   9.724 -0.1385  0.2491  0.2102
  653MOL0     C90015   7.267   9.246   9.862 -0.2077 -0.2010 -0.5054
  653MOL0     C90016   7.149   9.215   9.956 -0.0876 -0.2504 -0.0712
  653MOL0     C90017   7.146   9.308  10.069  0.3205  0.3618 -0.6412
  653MOL0     C90018   7.264   9.290  10.165 -0.1882  0.1874  0.0292
  653MOL0     C90019   7.262   9.362  10.298  0.3793 -0.9013  0.6813
  653MOL0     C90020   7.357   9.304  10.409  0.5398 -0.2407  1.4513
  653MOL0    Cl90021   7.368   9.421  10.539  0.3498  0.3508 -0.2928
  653MOL0     C90022   7.538   8.840   9.641  0.8531  1.0453  0.8661
  653MOL0     C90023   7.579   8.710   9.605 -0.8117 -0.8060  0.0435
  653MOL0     O90024   7.405   8.365   9.715 -0.7911 -0.5727  0.0288
  653MOL0     C90025   7.626   8.234   9.475 -0.5809  0.3277  0.1065
  653MOL0     C90026   7.683   8.118   9.415 -0.6027  0.0702  0.8842
  653MOL0     N90027   7.579   7.250   9.461  0.5428 -0.0642 -0.4721
  653MOL0     N90028   7.599   7.201   9.576  0.3018 -0.0619 -0.9113
  653MOL0     C90029   7.302   7.271  10.876 -1.0208 -0.5049  0.0672
  653MOL0     C90030   7.384   7.303  10.990  0.1028 -0.4428  0.4071
  653MOL0     C90031   7.689   7.569  11.225  0.0971 -0.6439  1.6682
  653MOL0     C90032   7.619   7.625  11.335  1.4071 -0.6138  0.1725
  653MOL0     C90033   7.688   7.703  11.428  0.2755  0.1255  0.5158
  653MOL0     C90034   7.823   7.732  11.415  0.2722 -0.1245  0.2205
  653MOL0     O90035   7.885   7.820  11.497  0.1369  0.5040 -0.3257
  653MOL0     C90036   7.856   7.822  11.636  0.5911  0.2650 -0.9847
  653MOL0     C90037   7.915   7.700  11.710  0.4333 -0.3751 -0.0720
  653MOL0     C90038   8.057   7.654  11.667 -0.1189  0.1220  0.3387
  653MOL0     C90039   8.157   7.756  11.715  0.7405 -0.0089 -0.2002
  653MOL0     C90040   8.295   7.714  11.696  0.3684 -0.0850 -0.1351
  653MOL0     C90041   8.415   7.686  11.676  0.0106  0.2292  0.4407
  653MOL0     C90042   7.901   7.666  11.321  0.7093  0.3302  0.7666
  653MOL0     C90043   7.833   7.586  11.221 -0.4682 -0.1065 -0.7916
  653MOL0     C90044   7.936   7.544  11.106  0.6310  0.6751 -0.4571
  653MOL0     H90045   7.383   7.643  10.971  1.7471 -0.6770 -2.4589
  653MOL0     H90046   7.207   7.583  10.802 -1.0690  1.2322  3.2109
  653MOL0     H90047   7.222   7.511  10.581 -1.1476 -0.1482  0.6249
  653MOL0     H90048   7.077   7.434  10.542 -0.4721 -0.7765 -0.2982
  653MOL0     H90049   7.349   7.285  10.538  0.5458  3.0116  1.6283
  653MOL0     H90050   7.199   7.215  10.494 -4.1722  1.8309  0.0094
  653MOL0     H90051   7.177   7.349  10.290  2.9575 -1.5238 -4.3943
  653MOL0     H90052   7.300   7.464  10.341 -2.7059  0.8410  1.2236
  653MOL0     H90053   7.470   7.282  10.302 -0.3007  1.5690 -0.3121
  653MOL0     H90054   7.340   7.177  10.251 -2.9353  1.3800  2.6240
  653MOL0     H90055   7.384   7.451  10.126 -1.2104 -0.3343  0.8799
  653MOL0     H90056   7.297   7.317  10.049  1.1465 -2.3701  0.0307
  653MOL0     H90057   7.593   7.343  10.076 -1.8316  4.2215  1.1227
  653MOL0     H90058   7.508   7.183  10.046 -1.8411 -0.4334  1.6217
  653MOL0     H90059   7.472   7.425   9.849  0.0140  1.2661  2.2981
  653MOL0     H90060   7.424   7.262   9.821  0.8697  2.4665 -2.4150
  653MOL0     H90061   7.700   7.367   9.853  0.3568 -0.7374  1.1527
  653MOL0     H90062   7.672   7.205   9.839 -0.3714 -1.2539 -2.4505
  653MOL0     H90063   7.626   7.525   9.631 -1.6593  1.9377 -4.5028
  653MOL0     H90064   7.471   7.514   9.341 -0.0305  0.6632 -1.2864
  653MOL0     H90065   7.573   7.391   9.264 -3.5846  1.6113 -2.3772
  653MOL0     H90066   7.697   7.615   9.427 -2.0419 -1.6433  1.3028
  653MOL0     H90067   7.771   7.511   9.308  0.0133 -0.3221  0.1765
  653MOL0     H90068   7.741   7.706   9.176  0.5584  0.4900  0.0866
  653MOL0     H90069   7.594   7.617   9.147 -1.2168 -1.3557  1.9842
  653MOL0     H90070   7.513   7.827   9.208  1.7646  0.7217 -0.9592
  653MOL0     H90071   7.507   7.734   9.366  1.0648 -1.0270  0.5310
  653MOL0     H90072   7.433   7.908   9.475 -1.0213  0.6759  3.8556
  653MOL0     H90073   7.216   8.061   9.511  1.0122 -2.2796  0.4034
  653MOL0     H90074   7.246   8.205   9.619 -0.8905 -0.3568  0.1383
  653MOL0     H90075   7.291   8.055   9.677  0.3392 -2.1146 -1.1634
  653MOL0     H90076   7.263   8.578   9.564  0.1943 -0.4137  0.0183
  653MOL0     H90077   7.195   8.797   9.641 -0.8186 -1.6950 -1.0290
  653MOL0     H90078   7.188   9.016   9.624  2.0192  0.0171 -1.9438
  653MOL0     H90079   7.217   8.993   9.800 -1.7880 -0.6894 -1.5028
  653MOL0     H90080   7.324   9.243   9.662  0.0833 -1.6545 -1.0031
  653MOL0     H90081   7.154   9.237   9.680 -0.8767 -2.0231 -0.4421
  653MOL0     H90082   7.292   9.353   9.868  0.4578 -0.0843 -3.6785
  653MOL0     H90083   7.350   9.191   9.908 -2.8391 -2.9467  1.3371
  653MOL0     H90084   7.161   9.111   9.988  1.7025 -0.2937 -0.7703
  653MOL0     H90085   7.052   9.223   9.907  0.3865 -0.8188 -1.1423
  653MOL0     H90086   7.159   9.412  10.038  1.0393  0.1924 -0.9103
  653MOL0     H90087   7.049   9.299  10.120  1.3169 -3.4401  0.8971
  653MOL0     H90088   7.357   9.308  10.111  0.2803  0.0401  0.7695
  653MOL0     H90089   7.263   9.188  10.204 -2.1167  0.1603  0.0061
  653MOL0     H90090   7.156   9.351  10.327 -0.5635  1.7153 -1.3597
  653MOL0     H90091   7.292   9.466  10.280  0.0206 -1.1080 -1.3359
  653MOL0     H90092   7.454   9.295  10.358 -1.9941  2.1466 -4.7338
  653MOL0     H90093   7.320   9.206  10.439 -1.5593 -1.2572 -3.5389
  653MOL0     H90094   7.610   8.921   9.653  0.0682  1.8038  0.5444
  653MOL0     H90095   7.679   8.677   9.578  0.2896  0.6448  2.0715
  653MOL0     H90096   7.696   8.316   9.489 -1.9496  1.4934  0.2238
  653MOL0     H90097   7.774   8.103   9.358 -0.3541  2.2419  0.6312
  653MOL0     H90098   7.280   7.167  10.855  0.6161 -0.4974 -2.0379
  653MOL0     H90099   7.420   7.223  11.054  0.0377 -1.6823 -1.0612
  653MOL0     H90100   7.510   7.621  11.342  1.4855 -1.2960  1.2174
  653MOL0     H90101   7.625   7.771  11.485 -0.3392 -1.0654  1.3017
  653MOL0     H90102   7.899   7.915  11.674  0.1716 -0.2899  0.9638
  653MOL0     H90103   7.751   7.836  11.664  0.6533  0.8743 -1.0348
  653MOL0     H90104   7.847   7.618  11.686 -0.3824  0.3192 -0.1997
  653MOL0     H90105   7.911   7.703  11.820  1.5750  0.0135 -0.0321
  653MOL0     H90106   8.085   7.557  11.709 -0.5873  0.4754  1.5138
  653MOL0     H90107   8.053   7.635  11.559 -1.8940 -2.2310  0.7427
  653MOL0     H90108   8.139   7.760  11.823 -2.7685 -1.0121 -0.6355
  653MOL0     H90109   8.159   7.849  11.657  2.0054  0.0411 -0.1096
  653MOL0     H90110   8.519   7.683  11.654  0.0140  0.4606  0.4252
  653MOL0     H90111   8.009   7.671  11.313  0.7382 -2.1964 -2.9999
  653MOL0     H90112   7.938   7.434  11.105 -1.4063  0.5848  0.7364
  653MOL0     H90113   7.896   7.579  11.011  0.9543  1.4432 -0.3133
  653MOL0     H90114   8.038   7.583  11.113  1.2364 -0.6349 -1.4570
  654MOL0     O90115   5.078   6.740   2.085 -0.3416 -0.5153  0.3881
  654MOL0     C90116   5.031   6.626   2.095  0.3327 -0.0357 -0.3678
  654MOL0     O90117   4.904   6.598   2.088  1.0379  0.1195  0.4892
  654MOL0     C90118   4.822   6.669   2.002  0.5102  0.0750 -0.4373
  654MOL0     C90119   4.712   6.744   2.055  0.0314 -0.6895 -0.3600
  654MOL0     C90120   4.627   6.822   1.971  0.6125  0.1232  0.7343
  654MOL0     C90121   4.635   6.813   1.836 -0.1526 -0.0793  0.5191
  654MOL0     O90122   4.546   6.872   1.746 -0.1037 -0.5613  0.3062
  654MOL0     C90123   4.488   7.004   1.783  0.2268  1.1453  0.1865
  654MOL0     C90124   4.476   7.098   1.664  0.6598  0.0939 -0.6435
  654MOL0     C90125   4.600   7.176   1.632 -0.4231  0.9586  0.1067
  654MOL0     C90126   4.731   7.095   1.606  0.6599 -0.1805  0.3386
  654MOL0     C90127   4.824   7.163   1.526  0.5737  0.0267 -0.1353
  654MOL0     C90128   4.879   7.292   1.588  0.1898 -0.0484 -1.0216
  654MOL0     C90129   4.980   7.353   1.490 -0.5596  0.3101 -0.1196
  654MOL0     C90130   4.940   7.347   1.330 -1.0788  0.0549 -0.0823
  654MOL0     N90131   5.053   7.380   1.256 -0.1756 -0.6583  0.5290
  654MOL0     C90132   5.118   7.507   1.253  0.5882  0.4120 -0.1205
  654MOL0     C90133   5.226   7.485   1.175  0.0568 -0.8382 -0.0173
  654MOL0     C90134   5.318   7.600   1.129 -0.1531 -0.0013 -0.4726
  654MOL0     C90135   5.456   7.558   1.090  0.3259 -0.5826 -0.3358
  654MOL0     C90136   5.538   7.688   1.082  0.2356 -0.1722 -0.7136
  654MOL0     C90137   5.685   7.666   1.058  0.0930  0.4016 -0.6957
  654MOL0     O90138   5.743   7.795   1.024 -0.6412 -0.8267  0.0447
  654MOL0     C90139   5.884   7.817   1.008  0.0858  0.3695 -0.6759
  654MOL0     C90140   5.928   7.946   0.985 -0.4317 -0.3376 -0.1201
  654MOL0     C90141   6.069   7.970   0.974 -0.5800  0.0614 -0.4093
  654MOL0     C90142   6.108   8.115   0.973  0.5019 -1.0168 -0.0293
  654MOL0     C90143   6.159   7.870   1.009  0.3018 -0.8617 -1.8913
  654MOL0     C90144   6.310   7.884   1.002 -0.2044 -0.4727  0.0086
  654MOL0     O90145   6.358   7.998   0.938 -0.5922 -0.2804  1.0344
  654MOL0     C90146   6.496   8.010   0.920 -0.3557  0.0129  0.6210
  654MOL0     C90147   6.568   7.963   0.804 -0.4304 -0.0820 -0.2186
  654MOL0     C90148   6.717   7.970   0.801 -0.6965 -0.7804 -0.4357
  654MOL0     C90149   6.780   8.019   0.919 -1.3724  0.0716 -0.9472
  654MOL0     O90150   6.913   8.025   0.942  0.3168  0.2677 -0.1561
  654MOL0     C90151   6.998   8.071   0.838  0.2400 -0.3917  0.2053
  654MOL0     C90152   7.146   8.046   0.872 -0.5549  0.3143 -1.0825
  654MOL0     C90153   7.171   7.896   0.906  0.3351 -0.0978  0.4753
  654MOL0     C90154   7.155   7.810   0.780  0.3516  0.1460  0.2489
  654MOL0     C90155   7.220   7.672   0.782 -0.0744 -0.6528  0.2021
  654MOL0     C90156   7.377   7.694   0.801 -0.2997 -0.7673 -0.5507
  654MOL0     C90157   7.446   7.556   0.790  0.7824 -0.0487 -0.4060
  654MOL0     C90158   7.470   7.515   0.642 -0.8287 -0.5219 -0.4644
  654MOL0    Cl90159   7.541   7.350   0.671  0.3186 -0.5566 -0.2783
  654MOL0     C90160   6.702   8.064   1.023 -0.6991 -0.3325 -0.5230
  654MOL0     C90161   6.563   8.068   1.023  1.1415 -0.1676  0.1013
  654MOL0     O90162   6.377   7.800   1.064 -0.5110  0.2192  0.2922
  654MOL0     C90163   6.103   7.747   1.045 -0.2291  0.2992 -0.3961
  654MOL0     C90164   5.972   7.715   1.040 -0.1173 -0.7073  0.7857
  654MOL0     N90165   5.228   7.354   1.137  0.0811  0.2860  0.4342
  654MOL0     N90166   5.137   7.289   1.198  0.5766 -0.3150 -0.4957
  654MOL0     C90167   4.741   6.741   1.787 -0.0176  0.1095 -0.4676
  654MOL0     C90168   4.835   6.670   1.864  0.4252 -0.0341 -0.5501
  654MOL0     C90169   5.119   6.507   2.115  0.3722 -0.8536 -1.1233
  654MOL0     C90170   5.067   6.379   2.174  0.4989 -0.5365 -0.1700
  654MOL0     C90171   5.150   6.271   2.188  0.0821 -0.2349  0.1664
  654MOL0     C90172   5.285   6.281   2.150  0.8729 -0.0860 -0.1770
  654MOL0     O90173   5.367   6.167   2.148 -0.1149 -0.3632  0.6726
  654MOL0     C90174   5.311   6.045   2.108  0.5749 -0.1146 -0.2218
  654MOL0     C90175   5.342   6.026   1.954 -0.4612  0.1090  0.4015
  654MOL0     C90176   5.241   5.941   1.885  0.6619 -0.4142  0.1390
  654MOL0     C90177   5.275   5.794   1.882 -0.3617  0.0650 -0.8120
  654MOL0     C90178   5.251   5.744   2.016 -0.0295  1.1531 -0.1208
  654MOL0     C90179   5.242   5.713   2.139  0.0573  0.7558 -0.1555
  654MOL0     C90180   5.329   6.396   2.093  0.0966 -0.0243 -0.0751
  654MOL0     C90181   5.249   6.510   2.076  0.5257 -0.0043  0.1162
  654MOL0     C90182   5.329   6.626   2.018 -0.2336 -0.0311  0.2360
  654MOL0     H90183   4.698   6.759   2.162  0.8815  1.3839 -0.5051
  654MOL0     H90184   4.537   6.866   2.013  2.1611  1.7658  2.5216
  654MOL0     H90185   4.553   7.055   1.855  0.3865  1.3192 -0.0771
  654MOL0     H90186   4.389   6.976   1.820 -0.3015  0.7885 -1.4230
  654MOL0     H90187   4.445   7.053   1.569 -2.0296  0.6409 -0.1159
  654MOL0     H90188   4.390   7.160   1.692 -1.3401 -4.2320  4.3681
  654MOL0     H90189   4.564   7.230   1.544  0.2134 -1.3329 -1.6606
  654MOL0     H90190   4.618   7.254   1.706 -0.5874 -0.5030  1.7486
  654MOL0     H90191   4.775   7.073   1.704  0.2653 -0.6610  0.4155
  654MOL0     H90192   4.718   6.997   1.559  4.1796  0.6254 -2.7711
  654MOL0     H90193   4.775   7.183   1.430  1.0013 -2.1691 -0.8804
  654MOL0     H90194   4.899   7.089   1.498 -0.4117 -0.1176 -2.6541
  654MOL0     H90195   4.793   7.358   1.604 -1.7265 -2.4975 -0.6518
  654MOL0     H90196   4.936   7.270   1.679  2.9993 -1.5184 -2.9744
  654MOL0     H90197   5.065   7.285   1.499 -0.1958  0.6690 -0.7976
  654MOL0     H90198   5.013   7.447   1.537  1.5431 -0.6188  0.3671
  654MOL0     H90199   4.912   7.251   1.286  2.3201 -0.9002 -0.3701
  654MOL0     H90200   4.858   7.417   1.310 -1.0364 -0.1689 -1.0937
  654MOL0     H90201   5.090   7.600   1.303 -1.7707  0.3967 -1.2907
  654MOL0     H90202   5.315   7.673   1.211 -0.2534 -1.2423  0.6755
  654MOL0     H90203   5.257   7.652   1.055 -1.7447  1.1505  1.5225
  654MOL0     H90204   5.503   7.482   1.152 -0.9369 -0.6494  0.5813
  654MOL0     H90205   5.435   7.531   0.986  2.2097 -0.6944 -0.7179
  654MOL0     H90206   5.505   7.746   0.995 -1.3480  0.2529  0.1431
  654MOL0     H90207   5.528   7.755   1.168 -0.3306  2.3233 -2.5977
  654MOL0     H90208   5.745   7.627   1.141  2.1472 -1.5326 -2.9198
  654MOL0     H90209   5.688   7.601   0.970  2.2309  0.0303 -0.4220
  654MOL0     H90210   5.856   8.024   0.961 -0.0443  0.1704  0.3626
  654MOL0     H90211   6.151   8.150   0.879 -0.1105  2.7193  0.9521
  654MOL0     H90212   6.170   8.140   1.059 -2.8041 -1.3235  2.6746
  654MOL0     H90213   6.024   8.183   0.993  1.7421 -0.1516  2.7583
  654MOL0     H90214   6.511   7.922   0.721 -2.7219  0.7649  0.8593
  654MOL0     H90215   6.772   7.921   0.721  0.6568 -0.1372  0.0768
  654MOL0     H90216   6.968   8.020   0.746 -2.3321  0.4099  0.4945
  654MOL0     H90217   6.979   8.178   0.828  0.9495 -0.1175  1.5743
  654MOL0     H90218   7.213   8.057   0.787  3.2053  1.1274  1.7051
  654MOL0     H90219   7.179   8.116   0.950 -2.3740  1.5826 -1.3892
  654MOL0     H90220   7.100   7.864   0.982 -1.6944  1.4665 -0.6553
  654MOL0     H90221   7.271   7.893   0.949  1.8745  0.1347 -2.7399
  654MOL0     H90222   7.209   7.866   0.703  4.5096  0.2430  2.9121
  654MOL0     H90223   7.050   7.790   0.759  0.7998 -2.2244 -0.0320
  654MOL0     H90224   7.182   7.611   0.864 -1.2826  0.0122  0.1536
  654MOL0     H90225   7.210   7.622   0.685  0.4669  3.1190 -1.9895
  654MOL0     H90226   7.398   7.742   0.896 -0.6591 -1.8700  0.1075
  654MOL0     H90227   7.415   7.758   0.721  1.1127 -3.4972 -2.2329
  654MOL0     H90228   7.374   7.483   0.828 -1.0534  2.3556  0.9761
  654MOL0     H90229   7.535   7.527   0.846  1.8642 -1.6093 -2.7197
  654MOL0     H90230   7.544   7.578   0.593  0.6942 -1.0761  1.0361
  654MOL0     H90231   7.381   7.512   0.578 -1.1399  3.9251 -0.5608
  654MOL0     H90232   6.743   8.095   1.118  0.4345 -3.7782  0.2253
  654MOL0     H90233   6.503   8.105   1.105 -1.1356 -4.6723  0.7970
  654MOL0     H90234   6.169   7.670   1.082  2.5218  1.1938 -3.0520
  654MOL0     H90235   5.928   7.623   1.077  0.7172 -1.4644 -0.0554
  654MOL0     H90236   4.753   6.744   1.679  1.1378  2.6201 -0.3433
  654MOL0     H90237   4.912   6.611   1.814  1.5758  0.1693  0.9144
  654MOL0     H90238   4.965   6.372   2.210 -0.1769 -0.3993 -1.9211
  654MOL0     H90239   5.100   6.187   2.236  4.5270 -3.4659 -0.2455
  654MOL0     H90240   5.350   5.958   2.163 -2.1201  0.6688  3.3327
  654MOL0     H90241   5.203   6.043   2.126  0.4632 -0.0269 -0.8598
  654MOL0     H90242   5.443   5.991   1.931 -1.0346 -0.5961 -1.1500
  654MOL0     H90243   5.338   6.127   1.910 -0.5372  0.8444  2.0418
  654MOL0     H90244   5.140   5.958   1.924  1.4649  1.8280  1.4811
  654MOL0     H90245   5.246   5.985   1.785  0.0138  3.6070  1.6573
  654MOL0     H90246   5.376   5.774   1.844  0.1460 -1.5372  1.2162
  654MOL0     H90247   5.201   5.749   1.815 -0.5012 -2.8856  1.1320
  654MOL0     H90248   5.245   5.689   2.244 -0.6121  2.3930  0.2651
  654MOL0     H90249   5.430   6.390   2.055 -0.2680 -0.7376 -0.9658
  654MOL0     H90250   5.329   6.710   2.088 -0.3773  1.8239 -1.8356
  654MOL0     H90251   5.431   6.590   2.001 -1.1003 -3.7194  1.9687
  654MOL0     H90252   5.277   6.672   1.933 -1.4901 -0.9806  0.4718
  655MOL0     O90253   8.369   7.044  10.870 -0.3461 -0.0432 -0.8261
  655MOL0     C90254   8.446   7.039  10.967  0.1487 -0.1744  0.2739
  655MOL0     O90255   8.563   7.097  10.967  0.3085  0.4434 -0.5085
  655MOL0     C90256   8.623   7.084  10.840  0.6899  0.0106 -0.4581
  655MOL0     C90257   8.681   7.199  10.796 -0.8100  0.3118  0.3686
  655MOL0     C90258   8.745   7.197  10.664 -0.3230  1.3919 -0.9881
  655MOL0     C90259   8.741   7.083  10.581  0.4229  0.6031 -0.4311
  655MOL0     O90260   8.791   7.090  10.455 -0.9734 -0.7102 -0.0940
  655MOL0     C90261   8.817   6.971  10.382 -0.6783 -0.4995 -0.0266
  655MOL0     C90262   8.945   6.899  10.440 -0.2340 -0.6362 -0.8220
  655MOL0     C90263   8.976   6.758  10.377  0.6162  0.0113  0.2819
  655MOL0     C90264   9.101   6.694  10.436 -0.0757 -0.0590 -0.0962
  655MOL0     C90265   9.117   6.546  10.407  0.8601  0.0849  0.3491
  655MOL0     C90266   9.105   6.513  10.258  0.0870  0.0271  0.3523
  655MOL0     C90267   9.137   6.371  10.229 -0.0157  0.3323  0.6830
  655MOL0     C90268   9.097   6.339  10.081  0.2660  0.8403  0.5940
  655MOL0     N90269   9.194   6.384   9.981 -1.0561 -0.5055 -0.3207
  655MOL0     C90270   9.179   6.495   9.905  0.2121  0.8577  0.0694
  655MOL0     C90271   9.300   6.518   9.845  0.3131 -0.6883  0.1518
  655MOL0     C90272   9.343   6.627   9.750  0.5747  0.0182  0.1950
  655MOL0     C90273   9.343   6.762   9.815 -0.2290 -0.2821 -0.1066
  655MOL0     C90274   9.208   6.822   9.814  0.7777  0.6646  0.5208
  655MOL0     C90275   9.197   6.973   9.843  0.7609 -0.4930 -0.5271
  655MOL0     O90276   9.256   7.051   9.739  0.2964 -0.3822 -0.5426
  655MOL0     C90277   9.212   7.179   9.754 -0.3631 -0.0344 -0.5867
  655MOL0     C90278   9.106   7.225   9.677 -1.2930  1.0348  0.6987
  655MOL0     C90279   9.050   7.354   9.689 -0.6261  0.1349 -0.4115
  655MOL0     C90280   8.920   7.378   9.628 -0.7361  0.4754  0.1506
  655MOL0     C90281   9.112   7.439   9.783  0.1876 -0.5239  0.1608
  655MOL0     C90282   9.050   7.582   9.807 -0.4559  0.6373 -0.3207
  655MOL0     O90283   9.090   7.641   9.924 -0.9902  0.5572 -0.0342
  655MOL0     C90284   9.052   7.772   9.946  0.0500 -0.5706 -1.0843
  655MOL0     C90285   9.014   7.801  10.075  0.5908 -0.2606  0.2014
  655MOL0     C90286   8.986   7.938  10.121 -0.6585  0.0375  0.4180
  655MOL0     C90287   9.021   8.040  10.034 -0.2407 -0.8111  0.2145
  655MOL0     O90288   8.987   8.161  10.080  0.4817  0.2994 -0.4473
  655MOL0     C90289   9.000   8.275   9.991 -0.6982  1.2165 -0.3859
  655MOL0     C90290   8.954   8.396  10.064 -0.1686  0.4654  0.0635
  655MOL0     C90291   8.933   8.507   9.962  0.4028  0.3282  0.0266
  655MOL0     C90292   8.898   8.630  10.050 -0.0332 -0.3423  0.0874
  655MOL0     C90293   8.919   8.762   9.971 -0.3919  1.2588  0.5085
  655MOL0     C90294   8.960   8.875  10.071 -0.6859 -0.3814  0.4449
  655MOL0     C90295   9.030   8.996  10.001 -0.5573 -0.2205 -0.9884
  655MOL0     C90296   8.937   9.040   9.886 -0.3125  0.5328  0.2363
  655MOL0    Cl90297   8.775   9.105   9.938 -0.3349 -0.1912 -0.1839
  655MOL0     C90298   9.066   8.004   9.904 -0.1722  0.4062 -0.0322
  655MOL0     C90299   9.082   7.872   9.863 -0.4920 -0.4264  0.8452
  655MOL0     O90300   8.974   7.623   9.722  1.0711  0.1797 -0.7919
  655MOL0     C90301   9.228   7.394   9.856 -0.5682 -0.4114  0.2867
  655MOL0     C90302   9.280   7.264   9.834  0.5884 -0.4007 -0.0435
  655MOL0     N90303   9.395   6.424   9.896  0.8158  0.9819  0.3575
  655MOL0     N90304   9.326   6.337   9.967  0.0426 -0.1491  0.8228
  655MOL0     C90305   8.686   6.968  10.634  0.8082  0.2155 -0.1138
  655MOL0     C90306   8.630   6.968  10.761  0.7715  0.2799 -0.3641
  655MOL0     C90307   8.402   6.959  11.081  0.0617  0.2884  0.3515
  655MOL0     C90308   8.272   6.902  11.071  0.1577 -0.7516  0.0231
  655MOL0     C90309   8.210   6.845  11.187 -0.4487 -0.4561 -1.0634
  655MOL0     C90310   8.280   6.839  11.304  0.9530 -0.5485 -0.4670
  655MOL0     O90311   8.233   6.776  11.413  0.1778  0.5490  0.4411
  655MOL0     C90312   8.123   6.686  11.417 -0.3299 -0.3228  0.5182
  655MOL0     C90313   8.156   6.553  11.360 -0.2061 -0.3342  0.3718
  655MOL0     C90314   8.249   6.473  11.448  0.2349 -0.1533 -0.0535
  655MOL0     C90315   8.296   6.325  11.395  1.5128  0.4819 -0.4502
  655MOL0     C90316   8.381   6.325  11.273  0.0648 -0.0979 -0.4470
  655MOL0     C90317   8.458   6.320  11.181  0.1798  0.9440  0.5883
  655MOL0     C90318   8.407   6.879  11.306 -1.4432  0.6624 -0.1307
  655MOL0     C90319   8.472   6.937  11.202  0.4280 -0.6149 -0.6325
  655MOL0     C90320   8.617   6.977  11.234 -0.1829 -0.8467 -0.1224
  655MOL0     H90321   8.684   7.283  10.864  2.1082 -0.3590  1.2035
  655MOL0     H90322   8.812   7.278  10.638  1.0641  1.8117  3.1129
  655MOL0     H90323   8.843   7.003  10.281 -0.5802 -0.7782 -0.0893
  655MOL0     H90324   8.730   6.905  10.384  1.4019 -3.4437 -0.2665
  655MOL0     H90325   9.026   6.971  10.426 -0.4627 -0.5748 -1.9125
  655MOL0     H90326   8.927   6.873  10.545  1.1818 -1.1087 -0.6743
  655MOL0     H90327   8.889   6.694  10.395  2.3559 -2.5638  0.0594
  655MOL0     H90328   8.983   6.776  10.270 -2.4108  0.6686  0.0930
  655MOL0     H90329   9.192   6.739  10.396  0.9479 -2.1818 -0.2472
  655MOL0     H90330   9.085   6.712  10.543 -2.7664 -0.2179 -0.4005
  655MOL0     H90331   9.051   6.482  10.466  2.2103 -0.2432  1.5459
  655MOL0     H90332   9.214   6.515  10.445 -0.3244 -2.5004  1.4921
  655MOL0     H90333   9.002   6.530  10.225 -0.2799  0.5903  1.7219
  655MOL0     H90334   9.174   6.576  10.200 -1.5427 -0.8854 -2.8068
  655MOL0     H90335   9.079   6.303  10.291 -1.1974  0.4269 -0.2728
  655MOL0     H90336   9.242   6.363  10.256  0.6581  0.0108 -1.7899
  655MOL0     H90337   9.081   6.230  10.083 -2.6391  1.1730  0.0622
  655MOL0     H90338   8.999   6.377  10.050 -0.6505  0.3966  2.7204
  655MOL0     H90339   9.094   6.560   9.894 -1.1373 -1.0773 -1.7739
  655MOL0     H90340   9.266   6.625   9.672 -1.4116  2.9492  1.8695
  655MOL0     H90341   9.443   6.611   9.708  0.5596 -3.0150  1.0905
  655MOL0     H90342   9.361   6.754   9.922 -2.3015  1.6526  0.4691
  655MOL0     H90343   9.409   6.836   9.769 -1.7464  0.8677 -0.5454
  655MOL0     H90344   9.164   6.807   9.715 -0.9600 -0.2531  1.3925
  655MOL0     H90345   9.146   6.778   9.892 -2.1445  1.6722 -1.0680
  655MOL0     H90346   9.093   7.008   9.848  1.9607  3.3583  1.6868
  655MOL0     H90347   9.229   6.994   9.946 -2.0159  0.4905  0.2359
  655MOL0     H90348   9.057   7.156   9.610  0.0742  0.5660  0.1500
  655MOL0     H90349   8.937   7.455   9.553 -0.9728  1.9556  1.5558
  655MOL0     H90350   8.849   7.399   9.708  2.8433 -1.5608  4.3092
  655MOL0     H90351   8.890   7.289   9.573  1.4211  0.6333 -1.4039
  655MOL0     H90352   9.001   7.723  10.149 -0.3743  1.1606  1.6096
  655MOL0     H90353   8.935   7.945  10.216  0.9401 -2.7255  1.5858
  655MOL0     H90354   9.106   8.298   9.977 -0.2997 -0.4940 -0.3621
  655MOL0     H90355   8.941   8.252   9.902 -3.3043 -0.3479  1.5925
  655MOL0     H90356   8.860   8.376  10.118 -0.0181 -1.2250 -0.2621
  655MOL0     H90357   9.035   8.423  10.132  1.7053 -1.5241 -1.2708
  655MOL0     H90358   8.855   8.479   9.891 -0.8340  0.5147  1.2763
  655MOL0     H90359   9.034   8.525   9.924  1.4095  2.0951  3.2012
  655MOL0     H90360   8.970   8.636  10.133 -0.1846 -0.5609  0.2374
  655MOL0     H90361   8.798   8.635  10.093 -0.4460 -0.9009 -0.7838
  655MOL0     H90362   8.995   8.746   9.895  1.7000  1.8432  2.3570
  655MOL0     H90363   8.824   8.780   9.919 -0.9747 -3.0760 -0.2965
  655MOL0     H90364   9.028   8.844  10.151 -0.8021  1.6518  1.3910
  655MOL0     H90365   8.866   8.907  10.118 -1.8215 -2.0372 -0.5915
  655MOL0     H90366   9.132   8.970   9.973 -0.1624 -0.8135  0.8568
  655MOL0     H90367   9.046   9.077  10.073 -0.7136 -0.8953 -0.1794
  655MOL0     H90368   8.928   8.960   9.813  1.5711 -1.2825  1.8510
  655MOL0     H90369   8.994   9.116   9.832 -0.6554  0.6395  0.0219
  655MOL0     H90370   9.079   8.077   9.825 -1.0129  2.8447  1.9360
  655MOL0     H90371   9.128   7.858   9.766 -0.6003 -2.1559  1.0142
  655MOL0     H90372   9.278   7.451   9.934  0.4550 -0.4281 -0.3452
  655MOL0     H90373   9.369   7.239   9.890  1.4084 -0.5426 -1.3589
  655MOL0     H90374   8.674   6.881  10.570  1.8464 -0.2314  0.2696
  655MOL0     H90375   8.604   6.868  10.792 -1.4615 -0.0122 -2.7834
  655MOL0     H90376   8.232   6.884  10.972 -1.0120 -1.9814  0.6816
  655MOL0     H90377   8.108   6.817  11.163 -2.6889  4.8267  0.7596
  655MOL0     H90378   8.087   6.664  11.518 -2.7970  2.4193  0.3863
  655MOL0     H90379   8.040   6.712  11.351  0.5480 -0.8413 -0.8111
  655MOL0     H90380   8.198   6.566  11.261 -0.1999 -1.3348  0.2317
  655MOL0     H90381   8.071   6.485  11.349  2.7008 -3.9613 -1.4290
  655MOL0     H90382   8.324   6.531  11.502 -0.0983 -0.8521  1.2194
  655MOL0     H90383   8.184   6.438  11.529 -2.4216  1.6416 -1.2543
  655MOL0     H90384   8.209   6.261  11.376  1.0708  0.7153  0.6494
  655MOL0     H90385   8.356   6.278  11.473  2.4437  0.5969 -1.0860
  655MOL0     H90386   8.531   6.315  11.103 -0.9444 -0.6228 -0.4155
  655MOL0     H90387   8.455   6.868  11.403 -2.2454 -0.9981  0.1062
  655MOL0     H90388   8.667   6.923  11.315 -0.1917  0.2578  0.6433
  655MOL0     H90389   8.674   6.957  11.143 -2.3776 -0.2225 -1.7362
  655MOL0     H90390   8.613   7.081  11.269  1.2280 -0.8384  0.0358
  656MOL0     O90391   3.691   0.225  11.376 -0.4911  0.0499  0.0351
  656MOL0     C90392   3.734   0.220  11.264 -0.1295  0.3078 -0.3996
  656MOL0     O90393   3.858   0.170  11.231  0.3063  0.5598  0.0922
  656MOL0     C90394   3.943   0.129  11.328 -0.6448  1.1124 -0.7873
  656MOL0     C90395   4.081   0.147  11.324  0.1650 -1.2707 -0.5292
  656MOL0     C90396   4.165   0.085  11.417 -0.0856 -0.4173 -0.1001
  656MOL0     C90397   4.115   0.002  11.522  0.0526 -0.3441 -0.3610
  656MOL0     O90398   4.212  -0.050  11.610  0.5611  0.0316 -0.7635
  656MOL0     C90399   4.179  -0.037  11.750 -0.4119  0.6209  0.1323
  656MOL0     C90400   4.274   0.062  11.805 -0.8636  0.0124  0.0331
  656MOL0     C90401   4.230   0.205  11.753 -0.3731 -0.1099  0.4040
  656MOL0     C90402   4.264   0.323  11.845 -0.3406  0.0685 -0.0811
  656MOL0     C90403   4.199   0.459  11.804  0.3847 -0.0913 -0.2376
  656MOL0     C90404   4.293   0.534  11.711  0.2366  0.4387  0.5381
  656MOL0     C90405   4.413   0.602  11.785 -0.2693  0.1575  0.8543
  656MOL0     C90406   4.511   0.674  11.688 -0.2870  0.5234  0.1438
  656MOL0     N90407   4.448   0.752  11.580  0.6796  0.1863  0.2413
  656MOL0     C90408   4.405   0.879  11.582  0.8495 -0.4140  0.4362
  656MOL0     C90409   4.367   0.892  11.454 -0.7717  0.4696  1.1393
  656MOL0     C90410   4.329   1.023  11.376 -0.2095 -0.1204 -0.3533
  656MOL0     C90411   4.186   1.040  11.333  0.6816  0.0297 -0.0752
  656MOL0     C90412   4.095   0.918  11.285  0.2866 -0.3102 -0.2957
  656MOL0     C90413   3.949   0.966  11.302 -0.3749  0.5712 -0.0234
  656MOL0     O90414   3.928   1.073  11.217  0.1751  0.1358 -0.0037
  656MOL0     C90415   3.944   1.055  11.085  0.2030  0.4702  0.5218
  656MOL0     C90416   4.026   1.138  11.019 -0.5445 -0.4591 -0.7886
  656MOL0     C90417   4.037   1.144  10.879 -0.0271 -0.7956  0.4800
  656MOL0     C90418   4.121   1.254  10.810 -0.1571 -0.5684  0.4530
  656MOL0     C90419   3.971   1.049  10.802 -0.4512  0.9262 -0.3515
  656MOL0     C90420   3.987   1.044  10.656  0.6573  0.8618  0.2844
  656MOL0     O90421   3.911   0.941  10.592 -0.2776  0.0983 -0.0750
  656MOL0     C90422   3.946   0.876  10.473 -0.6710  0.3178  0.0368
  656MOL0     C90423   3.856   0.776  10.426 -1.0419  0.1466  0.0641
  656MOL0     C90424   3.880   0.705  10.312 -0.1909  0.4455 -0.0301
  656MOL0     C90425   3.999   0.718  10.236 -0.2059 -0.0923 -0.4872
  656MOL0     O90426   4.031   0.640  10.123  0.0799  0.0831  0.0591
  656MOL0     C90427   3.994   0.499  10.146 -0.4237  0.8227  0.3198
  656MOL0     C90428   4.015   0.434  10.010  0.3589 -0.6611  0.2498
  656MOL0     C90429   4.157   0.451   9.961 -0.7450  0.0684 -0.2627
  656MOL0     C90430   4.272   0.392  10.049 -0.5211  0.1342  0.3810
  656MOL0     C90431   4.412   0.362   9.968 -0.2028 -0.3938 -0.2892
  656MOL0     C90432   4.511   0.305  10.065 -0.0260 -0.0687 -0.9408
  656MOL0     C90433   4.651   0.283  10.002 -0.3140 -0.5212  0.2097
  656MOL0     C90434   4.646   0.234   9.852 -0.6536 -0.3743  0.0380
  656MOL0    Cl90435   4.569   0.076   9.819 -0.1516  0.3252  0.0251
  656MOL0     C90436   4.084   0.817  10.275 -0.6685 -0.4768 -1.5191
  656MOL0     C90437   4.058   0.897  10.389 -0.0137  0.4833  0.8877
  656MOL0     O90438   4.034   1.134  10.585 -0.2677  0.3495 -0.4896
  656MOL0     C90439   3.880   0.961  10.868 -0.6832  0.9235 -0.7764
  656MOL0     C90440   3.870   0.968  11.002  0.2348  0.5392 -0.2128
  656MOL0     N90441   4.371   0.776  11.390 -0.6560  0.3783  1.8954
  656MOL0     N90442   4.424   0.686  11.467 -0.4645 -0.0991 -0.0185
  656MOL0     C90443   3.980  -0.021  11.532  0.4989 -0.1131 -0.4637
  656MOL0     C90444   3.899   0.039  11.436 -0.2977 -0.8819 -0.6947
  656MOL0     C90445   3.645   0.268  11.155 -0.4306 -1.1462 -0.7330
  656MOL0     C90446   3.689   0.259  11.019 -0.6352 -0.2537  0.1642
  656MOL0     C90447   3.612   0.305  10.914  1.1522 -0.2496  0.3922
  656MOL0     C90448   3.489   0.368  10.929 -0.4960  0.0975  0.1861
  656MOL0     O90449   3.433   0.413  10.811 -0.5583  0.0843 -0.4049
  656MOL0     C90450   3.310   0.484  10.813 -0.3261  0.1323  0.6315
  656MOL0     C90451   3.241   0.471  10.677  1.1779 -0.2519 -1.0556
  656MOL0     C90452   3.135   0.582  10.674  0.5882 -0.6432  0.2070
  656MOL0     C90453   3.048   0.568  10.547 -0.3890 -0.8326  0.6582
  656MOL0     C90454   2.930   0.652  10.549  0.3255 -0.7001  0.1349
  656MOL0     C90455   2.834   0.737  10.555  0.6082  0.0463 -0.4397
  656MOL0     C90456   3.446   0.392  11.063  0.3850 -0.2821  1.0771
  656MOL0     C90457   3.525   0.353  11.174 -0.8154 -0.1540  0.8353
  656MOL0     C90458   3.473   0.390  11.316  0.1029  0.3737 -0.0673
  656MOL0     H90459   4.112   0.215  11.246 -1.8996  0.3451 -0.0310
  656MOL0     H90460   4.272   0.105  11.410  0.2959 -0.6273  3.5416
  656MOL0     H90461   4.207  -0.121  11.813  0.1325  1.7026  1.3810
  656MOL0     H90462   4.074  -0.026  11.779 -0.5254 -0.4807  0.1627
  656MOL0     H90463   4.284   0.046  11.912  2.2523 -2.0735 -0.4469
  656MOL0     H90464   4.371   0.030  11.765 -0.3213 -1.9667  2.7064
  656MOL0     H90465   4.285   0.223  11.661  1.8824 -0.7313  1.5502
  656MOL0     H90466   4.122   0.208  11.737 -0.3401  0.5821  0.2818
  656MOL0     H90467   4.224   0.293  11.943 -0.9108  4.3115  1.1988
  656MOL0     H90468   4.372   0.336  11.853  0.0596 -0.9851 -2.7336
  656MOL0     H90469   4.180   0.524  11.890  0.6486 -0.9544  0.4942
  656MOL0     H90470   4.101   0.434  11.761 -0.0422 -0.2118  0.7865
  656MOL0     H90471   4.326   0.477  11.624  0.4688  0.4155  0.6408
  656MOL0     H90472   4.238   0.618  11.667 -0.7720 -0.0791  0.8022
  656MOL0     H90473   4.472   0.538  11.852  2.2574  3.1129  1.6594
  656MOL0     H90474   4.384   0.690  11.843 -2.1907 -0.7157  1.3066
  656MOL0     H90475   4.580   0.741  11.742  1.5725 -4.1179  4.3120
  656MOL0     H90476   4.575   0.594  11.650 -2.2147 -1.1653  0.3296
  656MOL0     H90477   4.404   0.960  11.654 -2.4562  0.8780 -0.8427
  656MOL0     H90478   4.405   1.029  11.297 -1.2191  1.7962 -1.2726
  656MOL0     H90479   4.354   1.108  11.441  1.0051 -2.2380  2.1214
  656MOL0     H90480   4.132   1.096  11.410  0.1788 -0.6329  0.0676
  656MOL0     H90481   4.197   1.096  11.240 -0.1213 -0.3818 -0.4288
  656MOL0     H90482   4.121   0.892  11.182 -1.8621  1.8201 -1.4684
  656MOL0     H90483   4.108   0.833  11.353 -3.0415 -1.4585 -0.8839
  656MOL0     H90484   3.881   0.885  11.274  1.3507 -0.3373 -1.7853
  656MOL0     H90485   3.922   0.998  11.403 -0.7107 -3.3945  1.2857
  656MOL0     H90486   4.086   1.205  11.079  0.2957 -0.9805 -1.0283
  656MOL0     H90487   4.067   1.323  10.745  3.2179  0.8296 -1.1016
  656MOL0     H90488   4.195   1.216  10.740  1.2847  2.0868  0.3991
  656MOL0     H90489   4.173   1.310  10.888  0.2958 -1.0120  0.4732
  656MOL0     H90490   3.760   0.755  10.472 -1.2112  1.1882  0.2156
  656MOL0     H90491   3.805   0.639  10.270  1.8411 -1.9632 -0.1282
  656MOL0     H90492   4.068   0.457  10.216  0.9335 -4.3323 -3.5595
  656MOL0     H90493   3.892   0.487  10.183 -1.4877 -1.6223 -2.9503
  656MOL0     H90494   3.989   0.327  10.013  1.0470 -0.8028  2.0432
  656MOL0     H90495   3.942   0.475   9.939  1.2771  0.5891  0.0033
  656MOL0     H90496   4.162   0.560   9.957 -1.7468  0.1232 -0.2914
  656MOL0     H90497   4.170   0.417   9.858  0.4346 -0.5573  0.0673
  656MOL0     H90498   4.245   0.303  10.107  1.8788  0.3600  1.9801
  656MOL0     H90499   4.286   0.462  10.131 -2.9488  0.0796  0.9076
  656MOL0     H90500   4.389   0.302   9.880  0.1433 -0.3783 -0.3894
  656MOL0     H90501   4.455   0.454   9.929  3.3560 -1.1287  1.5122
  656MOL0     H90502   4.465   0.209  10.093  1.9017 -2.2492 -4.4329
  656MOL0     H90503   4.524   0.372  10.150 -0.1404 -0.9021 -0.2433
  656MOL0     H90504   4.711   0.214  10.060  0.9225  1.0542  0.8728
  656MOL0     H90505   4.701   0.379  10.015 -1.5600  0.0716  0.8532
  656MOL0     H90506   4.750   0.232   9.818 -0.7327  2.2306 -0.6317
  656MOL0     H90507   4.600   0.307   9.785 -1.6532 -1.9381 -1.0317
  656MOL0     H90508   4.179   0.833  10.226  0.3536  2.7595  1.1506
  656MOL0     H90509   4.127   0.976  10.416 -0.9387  2.5350 -2.2703
  656MOL0     H90510   3.826   0.891  10.804  0.5214  1.6227 -2.6270
  656MOL0     H90511   3.812   0.884  11.039  1.2571 -0.9290 -1.8165
  656MOL0     H90512   3.928  -0.091  11.597 -4.9548 -0.0416 -4.1209
  656MOL0     H90513   3.794   0.016  11.447 -0.1779 -0.4881  1.9390
  656MOL0     H90514   3.788   0.226  10.990 -0.8383  1.1512 -2.4545
  656MOL0     H90515   3.667   0.300  10.820  1.3767  0.4698  0.4840
  656MOL0     H90516   3.249   0.447  10.896 -0.0865 -1.5964  0.0866
  656MOL0     H90517   3.344   0.585  10.838 -0.6420  0.1812  0.8772
  656MOL0     H90518   3.193   0.374  10.687  1.0123 -0.3528 -2.5277
  656MOL0     H90519   3.299   0.452  10.586 -1.9539 -1.2622 -3.0067
  656MOL0     H90520   3.069   0.565  10.759  3.2028  1.8556  2.9788
  656MOL0     H90521   3.172   0.685  10.669 -3.2995  0.8886 -0.6243
  656MOL0     H90522   3.005   0.467  10.538 -3.5105  0.4849 -0.7837
  656MOL0     H90523   3.096   0.581  10.450 -4.4868 -0.1472 -1.4841
  656MOL0     H90524   2.755   0.809  10.560  0.2004  0.5525 -6.4438
  656MOL0     H90525   3.359   0.458  11.069  1.1669  1.2591 -2.4328
  656MOL0     H90526   3.369   0.421  11.308  0.2593  0.4593 -2.3025
  656MOL0     H90527   3.472   0.297  11.375 -1.6669  1.1174  1.1590
  656MOL0     H90528   3.543   0.450  11.374  2.3086 -2.8950  0.9718
  657MOL0     O90529   2.251   7.913   8.415 -0.3356  0.4185 -0.4497
  657MOL0     C90530   2.352   7.982   8.426  0.7606 -0.1767 -0.2849
  657MOL0     O90531   2.342   8.100   8.496 -0.6403 -0.5383 -0.2322
  657MOL0     C90532   2.220   8.157   8.521  0.0500  0.1566  0.1519
  657MOL0     C90533   2.183   8.271   8.456  0.1526  0.0594  0.0170
  657MOL0     C90534   2.059   8.326   8.462 -0.1327  0.0612  0.3469
  657MOL0     C90535   1.964   8.254   8.545  0.0377 -0.5229 -0.7877
  657MOL0     O90536   1.830   8.295   8.561  0.0063 -0.7029 -0.3091
  657MOL0     C90537   1.788   8.377   8.455  0.0675  0.4435  0.1092
  657MOL0     C90538   1.641   8.382   8.461 -0.1496 -0.3557 -0.2634
  657MOL0     C90539   1.581   8.517   8.409 -0.1632 -0.3779 -0.7139
  657MOL0     C90540   1.442   8.548   8.470 -0.1254 -0.3111  0.2208
  657MOL0     C90541   1.338   8.439   8.454 -0.1381 -0.0030  0.5629
  657MOL0     C90542   1.313   8.417   8.307 -0.1065  0.0902  0.1877
  657MOL0     C90543   1.273   8.541   8.226  0.2079 -0.3883 -0.4733
  657MOL0     C90544   1.253   8.501   8.079  0.0411 -0.2950  0.4981
  657MOL0     N90545   1.381   8.473   8.016 -0.0621  0.6721  0.1653
  657MOL0     C90546   1.463   8.360   8.022  0.5513 -1.0726  0.9259
  657MOL0     C90547   1.576   8.395   7.962 -0.0060  0.9521 -0.4001
  657MOL0     C90548   1.686   8.287   7.936 -0.5900 -1.7523 -1.0822
  657MOL0     C90549   1.822   8.349   7.977  0.8439  0.6139 -0.1276
  657MOL0     C90550   1.918   8.236   7.989  0.2714  0.7359 -0.3244
  657MOL0     C90551   2.063   8.278   8.022 -0.3746 -0.7262 -0.2952
  657MOL0     O90552   2.161   8.176   8.013 -0.4396  0.0706  0.8986
  657MOL0     C90553   2.294   8.201   8.040  0.6194  0.0660  0.0303
  657MOL0     C90554   2.347   8.323   8.077 -0.2328 -0.6470  0.8111
  657MOL0     C90555   2.482   8.339   8.099 -1.0675  0.0879  0.2063
  657MOL0     C90556   2.523   8.482   8.119  0.1702 -0.1640  0.0980
  657MOL0     C90557   2.572   8.230   8.099  0.0070 -0.5469  0.7763
  657MOL0     C90558   2.721   8.229   8.132  0.5523 -0.3250  0.8810
  657MOL0     O90559   2.798   8.128   8.084 -0.3315 -0.2287  0.1875
  657MOL0     C90560   2.931   8.153   8.073 -0.6862  1.2540 -0.4851
  657MOL0     C90561   3.029   8.061   8.110  0.2975 -0.6964  0.3911
  657MOL0     C90562   3.170   8.078   8.093  0.3136 -0.0999  0.2049
  657MOL0     C90563   3.218   8.192   8.040  0.0530  0.9167  0.3692
  657MOL0     O90564   3.357   8.198   8.029  0.3852  0.5160  0.2081
  657MOL0     C90565   3.428   8.307   7.973  0.3502 -0.2645  0.1167
  657MOL0     C90566   3.566   8.263   7.936  0.3347  0.2020 -0.6070
  657MOL0     C90567   3.644   8.250   8.059  0.2464  0.2716 -1.3586
  657MOL0     C90568   3.784   8.190   8.030  1.0271 -0.8191 -0.4913
  657MOL0     C90569   3.857   8.158   8.165 -0.0544  0.6045  0.8987
  657MOL0     C90570   3.883   8.277   8.257  0.1281 -0.4806 -0.5678
  657MOL0     C90571   3.927   8.223   8.395  0.7467  0.1895 -0.6852
  657MOL0     C90572   3.999   8.337   8.483  0.6085 -0.4781 -0.1183
  657MOL0    Cl90573   4.054   8.274   8.642 -0.2221  0.4305  0.1826
  657MOL0     C90574   3.122   8.292   8.012 -0.6290  0.0860  0.4296
  657MOL0     C90575   2.990   8.268   8.015  0.0236 -0.1685  0.4012
  657MOL0     O90576   2.765   8.325   8.195 -0.8164  1.3966 -0.2527
  657MOL0     C90577   2.508   8.104   8.074  1.1263 -0.0388 -0.1289
  657MOL0     C90578   2.371   8.093   8.045  0.1275 -0.7624  0.7862
  657MOL0     N90579   1.563   8.521   7.916  0.5991  0.5157  0.4835
  657MOL0     N90580   1.460   8.570   7.953 -0.4917 -0.0720  0.7977
  657MOL0     C90581   2.009   8.151   8.631  0.1065  0.5727 -0.0806
  657MOL0     C90582   2.141   8.096   8.615 -0.6743  0.0242 -0.1787
  657MOL0     C90583   2.480   7.925   8.376 -0.9839  0.4545  0.5468
  657MOL0     C90584   2.481   7.811   8.290  0.5132 -0.1830  0.7997
  657MOL0     C90585   2.604   7.737   8.256  0.2804 -0.4115 -0.0928
  657MOL0     C90586   2.726   7.796   8.289  0.4042  0.5111 -0.5166
  657MOL0     O90587   2.840   7.733   8.253  0.0663  0.1359  0.4032
  657MOL0     C90588   2.835   7.633   8.149 -0.1602 -0.4730  0.3972
  657MOL0     C90589   2.972   7.567   8.118 -0.5478  0.1510 -1.2272
  657MOL0     C90590   3.060   7.661   8.023 -0.1806  0.1757 -0.5790
  657MOL0     C90591   3.191   7.615   7.965  0.2666  0.0677  0.5977
  657MOL0     C90592   3.289   7.564   8.058 -0.6945  0.3017 -0.7543
  657MOL0     C90593   3.372   7.520   8.136  0.4318 -0.0395  0.7357
  657MOL0     C90594   2.727   7.915   8.360 -0.5892 -0.2545  0.2004
  657MOL0     C90595   2.610   7.983   8.401  0.2708  0.0713 -0.8298
  657MOL0     C90596   2.635   8.122   8.452  0.3622 -0.3553 -0.1678
  657MOL0     H90597   2.260   8.307   8.389 -1.4443 -0.1317 -2.0180
  657MOL0     H90598   2.024   8.408   8.400  1.1593 -1.9420 -3.3572
  657MOL0     H90599   1.827   8.333   8.363  3.7801 -0.0368  1.7437
  657MOL0     H90600   1.819   8.482   8.457 -0.9366  0.7534  0.2375
  657MOL0     H90601   1.599   8.295   8.410 -0.5306 -1.6364  2.0962
  657MOL0     H90602   1.600   8.378   8.562 -1.3869  0.5609 -0.7033
  657MOL0     H90603   1.654   8.590   8.447  0.2158 -0.8217 -0.5788
  657MOL0     H90604   1.575   8.512   8.300  2.5649 -1.5595 -0.8780
  657MOL0     H90605   1.470   8.560   8.575  0.8056 -1.2261  0.0972
  657MOL0     H90606   1.413   8.648   8.435 -0.1702 -0.9219 -1.5995
  657MOL0     H90607   1.256   8.475   8.517 -0.3959 -0.8961  0.7470
  657MOL0     H90608   1.360   8.342   8.500 -0.1021 -0.0149  0.5200
  657MOL0     H90609   1.405   8.376   8.264  1.5542  1.6187  2.0862
  657MOL0     H90610   1.231   8.345   8.294  0.5308 -0.7965  0.9619
  657MOL0     H90611   1.352   8.616   8.234 -0.5157  0.3726 -0.3650
  657MOL0     H90612   1.177   8.580   8.262 -0.3020 -2.0582  0.0825
  657MOL0     H90613   1.190   8.413   8.062 -0.2592  0.5590 -3.9208
  657MOL0     H90614   1.203   8.579   8.021  0.0571  0.1874  1.1240
  657MOL0     H90615   1.427   8.265   8.058  4.0781 -3.5728 -1.4845
  657MOL0     H90616   1.688   8.267   7.829 -1.0057 -0.3285 -1.3793
  657MOL0     H90617   1.650   8.207   8.002 -2.8368 -0.0159 -0.0641
  657MOL0     H90618   1.849   8.412   7.892 -2.2903  2.7559  0.2960
  657MOL0     H90619   1.819   8.405   8.071  2.1899  0.5035  0.0034
  657MOL0     H90620   1.881   8.166   8.064 -3.9719  0.5558 -2.3259
  657MOL0     H90621   1.922   8.179   7.895 -0.2134  0.4624 -0.1825
  657MOL0     H90622   2.095   8.366   7.965 -0.3516  0.0388  0.8630
  657MOL0     H90623   2.052   8.317   8.124 -0.0912  3.1910 -1.5939
  657MOL0     H90624   2.287   8.413   8.082  0.9105  0.0775  1.8690
  657MOL0     H90625   2.626   8.505   8.088 -0.0477 -1.7444 -2.0274
  657MOL0     H90626   2.514   8.506   8.225  0.2024 -1.0304  0.3013
  657MOL0     H90627   2.450   8.547   8.071 -1.5124 -2.2771 -0.3654
  657MOL0     H90628   2.985   7.980   8.166 -0.0393 -0.5839  0.2873
  657MOL0     H90629   3.232   7.992   8.117 -0.4118 -0.4037  1.0409
  657MOL0     H90630   3.373   8.329   7.881  1.1978 -2.6195 -1.0363
  657MOL0     H90631   3.421   8.393   8.040 -0.5481 -1.6417  1.8695
  657MOL0     H90632   3.575   8.169   7.880 -1.7507  0.7381 -1.9344
  657MOL0     H90633   3.615   8.342   7.878  1.6191  0.9184  1.3506
  657MOL0     H90634   3.599   8.188   8.136 -0.5248  2.3538 -0.0256
  657MOL0     H90635   3.656   8.353   8.094 -0.6285 -0.4440  1.2360
  657MOL0     H90636   3.849   8.253   7.968 -0.1516  0.9011 -0.0532
  657MOL0     H90637   3.779   8.096   7.975 -0.9602 -1.6285  0.9804
  657MOL0     H90638   3.798   8.087   8.224  1.6905 -1.5930  0.1286
  657MOL0     H90639   3.948   8.107   8.134  0.0018  2.9918 -3.7134
  657MOL0     H90640   3.799   8.347   8.258 -1.4728 -2.2788 -1.8032
  657MOL0     H90641   3.964   8.336   8.213  0.4756  1.6665  2.6677
  657MOL0     H90642   3.987   8.133   8.379 -3.7579 -2.9143 -2.2986
  657MOL0     H90643   3.835   8.183   8.438 -0.8682  0.4271 -3.6259
  657MOL0     H90644   3.928   8.420   8.495  2.0710  1.0271 -1.2797
  657MOL0     H90645   4.080   8.379   8.422  0.9151  0.5443  0.9637
  657MOL0     H90646   3.156   8.390   7.980  2.9364 -0.4082  2.1345
  657MOL0     H90647   2.928   8.344   7.969  1.2685  0.6102 -0.0356
  657MOL0     H90648   2.568   8.014   8.080  1.9473  0.5032  0.0147
  657MOL0     H90649   2.326   7.995   8.027  1.6396 -0.9582 -2.9980
  657MOL0     H90650   1.930   8.102   8.689 -0.5178 -0.3057 -1.6140
  657MOL0     H90651   2.162   8.002   8.665  0.7174 -0.7215 -2.0262
  657MOL0     H90652   2.386   7.771   8.256  0.3463 -1.1665  2.3841
  657MOL0     H90653   2.588   7.646   8.199 -0.7222  1.2156 -2.6236
  657MOL0     H90654   2.774   7.552   8.189 -1.3663  1.8972  3.7633
  657MOL0     H90655   2.799   7.674   8.054  0.0914  0.4734  0.6939
  657MOL0     H90656   2.956   7.463   8.090  0.6003 -0.0439 -1.2074
  657MOL0     H90657   3.019   7.558   8.216 -0.2128  1.7772 -1.2095
  657MOL0     H90658   2.999   7.701   7.942  0.0010  0.1611 -0.7251
  657MOL0     H90659   3.087   7.753   8.075 -0.8599  0.0971 -0.0639
  657MOL0     H90660   3.232   7.697   7.906 -1.2739  1.2264  1.0823
  657MOL0     H90661   3.168   7.542   7.886 -3.2131  1.9375 -0.3086
  657MOL0     H90662   3.444   7.484   8.207  2.1733  3.5946  1.0404
  657MOL0     H90663   2.821   7.963   8.384 -1.5665  0.8912  1.8608
  657MOL0     H90664   2.605   8.125   8.557  0.2150  2.1173 -0.2184
  657MOL0     H90665   2.742   8.144   8.445  0.5363 -1.0783  0.1340
  657MOL0     H90666   2.572   8.195   8.400 -1.8794 -1.7206  0.4823
  658MOL0     O90667   0.899   4.580   5.094  0.4633  0.1638  0.6128
  658MOL0     C90668   0.783   4.609   5.116  1.0989  0.0013  0.2704
  658MOL0     O90669   0.733   4.695   5.214  0.4078  0.1471 -0.3752
  658MOL0     C90670   0.820   4.754   5.299 -1.0003 -0.0952 -0.0080
  658MOL0     C90671   0.792   4.888   5.341 -1.0779 -0.3436 -0.4216
  658MOL0     C90672   0.870   4.950   5.431  0.4464  0.3547  0.5144
  658MOL0     C90673   0.985   4.886   5.474  0.5616  0.5650  0.0757
  658MOL0     O90674   1.047   4.952   5.578 -0.1880 -0.2161  0.1771
  658MOL0     C90675   1.184   4.970   5.551  0.2394  0.3844  0.6735
  658MOL0     C90676   1.226   5.073   5.448  0.4116 -0.2407  0.2189
  658MOL0     C90677   1.345   5.027   5.369  0.6544  0.2749 -0.1899
  658MOL0     C90678   1.403   5.140   5.291  0.8396 -0.8679  0.7116
  658MOL0     C90679   1.514   5.105   5.198 -0.1092  0.8735  1.1683
  658MOL0     C90680   1.546   5.217   5.097 -0.5505 -0.8336 -0.9752
  658MOL0     C90681   1.641   5.178   4.986 -0.2293 -0.2686  0.6216
  658MOL0     C90682   1.714   5.298   4.927  0.3680  1.0169  0.0761
  658MOL0     N90683   1.593   5.385   4.894 -0.5957 -0.2588  0.5874
  658MOL0     C90684   1.586   5.515   4.945  1.2661  0.3888  0.5720
  658MOL0     C90685   1.506   5.577   4.859  0.1556  0.6308 -0.0726
  658MOL0     C90686   1.463   5.717   4.877 -1.1797 -0.1501  0.2452
  658MOL0     C90687   1.345   5.757   4.796  0.3688 -0.2160  0.2926
  658MOL0     C90688   1.322   5.913   4.802 -0.0649  0.5156  0.0287
  658MOL0     C90689   1.178   5.947   4.771 -0.4865  0.9202  0.6530
  658MOL0     O90690   1.150   6.090   4.776 -0.1719  0.3718  0.6380
  658MOL0     C90691   1.056   6.138   4.694 -0.1777 -0.5041  0.1321
  658MOL0     C90692   1.087   6.270   4.663 -0.7481  1.0097 -0.4553
  658MOL0     C90693   1.003   6.360   4.596 -0.0282  0.3909 -0.4747
  658MOL0     C90694   1.047   6.501   4.600 -0.1911 -0.2089  0.2911
  658MOL0     C90695   0.890   6.300   4.541  0.2378 -0.7585  0.8943
  658MOL0     C90696   0.797   6.383   4.454 -0.5078  0.1703 -0.0370
  658MOL0     O90697   0.831   6.502   4.428 -0.2364 -0.8225  0.3357
  658MOL0     C90698   0.739   6.593   4.387 -0.1508 -0.0828 -1.2391
  658MOL0     C90699   0.733   6.631   4.252  0.5724 -0.7557 -0.4015
  658MOL0     C90700   0.626   6.719   4.223 -0.4991 -0.1610 -0.1004
  658MOL0     C90701   0.544   6.776   4.323 -0.8701 -0.6137 -0.2394
  658MOL0     O90702   0.457   6.878   4.301 -0.6197 -0.3405 -0.4581
  658MOL0     C90703   0.506   6.985   4.212 -0.4948 -0.1498  0.2427
  658MOL0     C90704   0.435   7.116   4.225 -0.2275  0.6964 -0.6591
  658MOL0     C90705   0.477   7.241   4.151 -0.9692 -0.3689 -0.7943
  658MOL0     C90706   0.500   7.206   4.004 -0.3789  0.7246 -0.6813
  658MOL0     C90707   0.559   7.328   3.930 -0.5358  0.1109 -0.3075
  658MOL0     C90708   0.589   7.299   3.782  1.0833  0.1772 -0.1582
  658MOL0     C90709   0.441   7.278   3.708 -0.0910 -0.5201 -0.8349
  658MOL0     C90710   0.458   7.270   3.545 -0.2639  0.5496 -0.7869
  658MOL0    Cl90711   0.498   7.423   3.472  0.0638 -0.4588  0.1028
  658MOL0     C90712   0.561   6.751   4.456 -0.6440 -0.0410 -0.2366
  658MOL0     C90713   0.655   6.651   4.493  0.6908  0.1100  0.5897
  658MOL0     O90714   0.692   6.330   4.418  0.1037 -0.0269  0.0565
  658MOL0     C90715   0.869   6.163   4.569  0.1769 -0.1318 -0.1865
  658MOL0     C90716   0.949   6.081   4.643  0.2790  0.6144  0.0111
  658MOL0     N90717   1.468   5.498   4.751 -0.1702  0.2367  0.1404
  658MOL0     N90718   1.527   5.387   4.773  0.5225  0.0486  0.4974
  658MOL0     C90719   1.013   4.753   5.445 -0.0070 -0.3730  0.2943
  658MOL0     C90720   0.924   4.681   5.358 -0.1821  0.4416 -0.7939
  658MOL0     C90721   0.678   4.549   5.020  0.1177 -0.4237 -0.4373
  658MOL0     C90722   0.716   4.434   4.945  0.3721  1.0073 -0.2334
  658MOL0     C90723   0.620   4.361   4.871  0.2402  0.3834 -0.4590
  658MOL0     C90724   0.485   4.391   4.866 -0.1901 -0.3008  0.1675
  658MOL0     O90725   0.390   4.317   4.805  0.2626  0.8254  0.4315
  658MOL0     C90726   0.246   4.333   4.834  0.4704 -0.0449  0.3866
  658MOL0     C90727   0.154   4.216   4.802  0.5782 -0.3011 -0.4862
  658MOL0     C90728   0.118   4.210   4.646 -1.1235 -0.7308  0.8358
  658MOL0     C90729   0.016   4.114   4.598 -0.4711 -0.9761 -0.5188
  658MOL0     C90730   0.048   3.972   4.633  0.5321 -0.8502  1.2504
  658MOL0     C90731   0.042   3.854   4.660  0.4903 -0.1553  0.1957
  658MOL0     C90732   0.452   4.502   4.934  0.2033  0.1183 -0.2104
  658MOL0     C90733   0.535   4.580   5.007 -0.2875 -0.0451 -0.1967
  658MOL0     C90734   0.477   4.714   5.049  0.5496 -0.6056 -0.3440
  658MOL0     H90735   0.698   4.929   5.306 -1.3321 -1.6194 -1.2988
  658MOL0     H90736   0.843   5.046   5.475 -2.5188 -0.5635  0.8537
  658MOL0     H90737   1.231   4.874   5.529  1.5498  1.3268 -0.8404
  658MOL0     H90738   1.219   5.015   5.644  0.5488 -2.4380  2.0138
  658MOL0     H90739   1.136   5.087   5.387  0.0236 -3.6793 -0.2075
  658MOL0     H90740   1.256   5.164   5.500  2.6303  0.4967 -2.0963
  658MOL0     H90741   1.418   4.981   5.436  2.1162  1.5845 -0.8166
  658MOL0     H90742   1.296   4.965   5.293 -4.1712  0.3498  2.4796
  658MOL0     H90743   1.320   5.184   5.234  0.4106  0.3228  2.1823
  658MOL0     H90744   1.430   5.217   5.364 -0.4151 -0.6655  0.9808
  658MOL0     H90745   1.494   5.012   5.144  1.3408 -0.1499  2.3333
  658MOL0     H90746   1.604   5.090   5.258  1.6809  2.2506 -0.9874
  658MOL0     H90747   1.450   5.263   5.073 -0.3771  0.5730  0.8185
  658MOL0     H90748   1.598   5.286   5.164 -0.0818 -0.0844 -2.0733
  658MOL0     H90749   1.576   5.137   4.908  2.0189  0.7227 -1.9370
  658MOL0     H90750   1.716   5.103   5.012  2.2785  0.9902 -2.2936
  658MOL0     H90751   1.776   5.351   4.999 -0.5226  2.4819 -0.1875
  658MOL0     H90752   1.775   5.283   4.837  1.2413  4.4688 -0.0673
  658MOL0     H90753   1.642   5.548   5.032  3.2716 -0.6599 -0.2404
  658MOL0     H90754   1.550   5.775   4.845 -1.2720  0.8170  1.6288
  658MOL0     H90755   1.452   5.741   4.983  0.3655 -1.0930  0.6465
  658MOL0     H90756   1.356   5.721   4.693 -0.1538  2.8266 -0.9078
  658MOL0     H90757   1.262   5.711   4.852  0.2890  1.6986  1.8571
  658MOL0     H90758   1.339   5.953   4.903 -0.2965  2.4069 -0.6439
  658MOL0     H90759   1.395   5.969   4.742  3.1086  1.1171  4.0133
  658MOL0     H90760   1.155   5.906   4.673 -1.2334  0.2182  1.1145
  658MOL0     H90761   1.130   5.894   4.854 -0.2562  0.1987  0.3340
  658MOL0     H90762   1.175   6.301   4.719 -0.7771 -3.2627  2.4833
  658MOL0     H90763   1.059   6.549   4.502  1.6442 -0.5474  0.3206
  658MOL0     H90764   1.150   6.508   4.634  0.3183 -1.7510 -0.8331
  658MOL0     H90765   0.969   6.550   4.660 -2.3814 -3.5196  0.3925
  658MOL0     H90766   0.791   6.588   4.171  1.1248  1.2286 -1.1029
  658MOL0     H90767   0.619   6.749   4.119 -0.0597 -1.4163 -0.5037
  658MOL0     H90768   0.607   7.012   4.245 -1.4218 -0.4322  3.6907
  658MOL0     H90769   0.493   6.952   4.108  0.6357  1.1480 -0.3451
  658MOL0     H90770   0.329   7.103   4.201 -0.2029 -1.4950  0.1910
  658MOL0     H90771   0.441   7.148   4.330 -1.6877 -0.2499 -0.2484
  658MOL0     H90772   0.566   7.283   4.197 -1.4643  0.3070 -0.4391
  658MOL0     H90773   0.396   7.313   4.165  1.0037  1.4655  1.9967
  658MOL0     H90774   0.411   7.158   3.962  1.4004 -3.2450 -0.3370
  658MOL0     H90775   0.571   7.123   3.996 -3.2122 -1.8066 -1.9953
  658MOL0     H90776   0.480   7.402   3.943 -0.8025 -0.2494  0.1678
  658MOL0     H90777   0.648   7.353   3.989  0.7997 -1.7594 -1.4109
  658MOL0     H90778   0.653   7.211   3.772 -0.4652 -0.9089 -1.0297
  658MOL0     H90779   0.636   7.384   3.732 -1.6405  1.4048 -0.8483
  658MOL0     H90780   0.377   7.364   3.730 -1.6514 -1.8964  0.2323
  658MOL0     H90781   0.395   7.182   3.733  0.4839 -0.9769 -1.4964
  658MOL0     H90782   0.367   7.237   3.494  0.7004  0.5481 -2.5805
  658MOL0     H90783   0.535   7.194   3.528 -0.6748  0.2048 -1.1250
  658MOL0     H90784   0.504   6.805   4.531  0.5802  3.6480 -1.7376
  658MOL0     H90785   0.674   6.633   4.598 -1.5479  0.4373  1.0982
  658MOL0     H90786   0.788   6.116   4.515  0.5041 -3.0696  1.6632
  658MOL0     H90787   0.924   5.978   4.667  1.6187  0.7029  1.9405
  658MOL0     H90788   1.107   4.709   5.477  0.2527  1.6226  2.5165
  658MOL0     H90789   0.950   4.583   5.322 -1.9742 -0.2947 -0.2274
  658MOL0     H90790   0.819   4.401   4.935  0.1987  1.2108 -4.8958
  658MOL0     H90791   0.640   4.274   4.809 -1.8332 -0.5572  0.1006
  658MOL0     H90792   0.213   4.363   4.934  1.8805  3.1738  0.0328
  658MOL0     H90793   0.203   4.416   4.777 -1.8288 -2.2200 -1.2902
  658MOL0     H90794   0.064   4.235   4.862  2.4016 -0.1724  2.4383
  658MOL0     H90795   0.200   4.125   4.842  4.4409  0.5774 -2.5217
  658MOL0     H90796   0.093   4.312   4.616 -4.1528 -1.1183  1.7017
  658MOL0     H90797   0.213   4.194   4.594 -1.3340  0.3082  0.1022
  658MOL0     H90798   0.027   4.120   4.490  3.3005  0.1554 -0.2296
  658MOL0     H90799  -0.081   4.150   4.635 -0.7042  0.0769 -2.0771
  658MOL0     H90800   0.008   3.755   4.680  0.5093 -0.6563 -2.0048
  658MOL0     H90801   0.348   4.532   4.941 -0.8011 -2.2823 -2.9355
  658MOL0     H90802   0.384   4.743   4.997 -1.0362 -1.1563  2.0185
  658MOL0     H90803   0.447   4.713   5.154  0.6811  2.4187 -0.2018
  658MOL0     H90804   0.546   4.794   5.023 -1.0532  0.7600 -0.5826
  659MOL0     O90805   0.487  10.101   5.570 -0.5271  0.5744 -0.6647
  659MOL0     C90806   0.428  10.202   5.610  0.2032 -0.7908 -0.8105
  659MOL0     O90807   0.434  10.261   5.738 -0.2080  0.1314 -0.8011
  659MOL0     C90808   0.542  10.218   5.810 -0.0304 -0.5143  1.0909
  659MOL0     C90809   0.664  10.291   5.791 -0.3591  0.7568  0.3185
  659MOL0     C90810   0.778  10.264   5.876  0.0011 -0.3349  0.3529
  659MOL0     C90811   0.776  10.180   5.986  0.5664  0.0671 -0.1872
  659MOL0     O90812   0.872  10.153   6.078  0.7768 -0.2230  0.1950
  659MOL0     C90813   0.992  10.085   6.037 -0.1275 -0.5583 -0.7221
  659MOL0     C90814   0.990   9.977   5.932  0.2036 -0.5144 -0.0565
  659MOL0     C90815   0.903   9.862   5.978  0.4678  0.2066 -0.5517
  659MOL0     C90816   0.845   9.784   5.855  0.7850 -1.0942 -1.1646
  659MOL0     C90817   0.737   9.693   5.907 -0.4905  0.3106  0.2017
  659MOL0     C90818   0.649   9.644   5.790 -0.4619 -0.0034 -0.6298
  659MOL0     C90819   0.538   9.748   5.781  0.8535 -0.5258 -0.0924
  659MOL0     C90820   0.444   9.710   5.669  0.5942 -0.1521  0.2960
  659MOL0     N90821   0.505   9.682   5.529 -0.3808  0.1128 -0.4138
  659MOL0     C90822   0.576   9.777   5.462  0.5780  0.0863 -0.8040
  659MOL0     C90823   0.605   9.716   5.345  1.0039 -0.1032  0.9445
  659MOL0     C90824   0.678   9.774   5.217  0.4296  0.1831 -0.2274
  659MOL0     C90825   0.779   9.667   5.159 -1.3259 -1.4108 -0.0181
  659MOL0     C90826   0.872   9.745   5.058  0.5906  0.1338 -0.2170
  659MOL0     C90827   0.961   9.650   4.981 -0.1938  0.0882  0.0502
  659MOL0     O90828   1.058   9.595   5.077 -0.5026  0.4885 -0.1113
  659MOL0     C90829   1.150   9.498   5.041  0.0535  0.3205 -0.1186
  659MOL0     C90830   1.169   9.473   4.902  0.2713  0.0646 -0.5156
  659MOL0     C90831   1.257   9.379   4.849 -0.8715 -0.1303  0.6429
  659MOL0     C90832   1.272   9.364   4.696  1.3547  0.2628  0.5711
  659MOL0     C90833   1.329   9.300   4.944 -0.2320 -0.4990 -0.0077
  659MOL0     C90834   1.426   9.197   4.900 -0.3566 -0.0334  0.0197
  659MOL0     O90835   1.478   9.208   4.775 -0.2801 -0.2038 -0.5371
  659MOL0     C90836   1.580   9.139   4.716 -0.9912 -0.0169  0.0360
  659MOL0     C90837   1.658   9.045   4.781 -0.0752  0.7771  0.7066
  659MOL0     C90838   1.775   9.004   4.726  0.4266  1.0067  1.0448
  659MOL0     C90839   1.826   9.050   4.608 -0.1702  0.3421  0.2711
  659MOL0     O90840   1.949   9.002   4.577  0.3692 -1.3411 -0.4146
  659MOL0     C90841   2.048   9.095   4.538  0.1325 -0.4098  0.6083
  659MOL0     C90842   2.078   9.202   4.640 -0.6721  0.3601  0.0512
  659MOL0     C90843   2.125   9.140   4.777 -0.1466  0.5618 -0.0499
  659MOL0     C90844   2.269   9.088   4.777  0.4701  0.1464  0.4643
  659MOL0     C90845   2.316   9.034   4.915  0.0574  0.7706 -0.9367
  659MOL0     C90846   2.468   8.987   4.914  0.1369 -0.4403  0.3555
  659MOL0     C90847   2.492   8.868   4.817 -0.6699 -0.0861 -0.9927
  659MOL0     C90848   2.640   8.818   4.831  0.6983  0.0100 -0.4650
  659MOL0    Cl90849   2.719   8.760   4.689  0.2400  0.1916  0.2491
  659MOL0     C90850   1.751   9.142   4.541  0.4905 -0.4777  0.6175
  659MOL0     C90851   1.627   9.179   4.596 -0.2299  0.6651 -0.1351
  659MOL0     O90852   1.454   9.115   4.986 -0.3973  0.5375  0.1746
  659MOL0     C90853   1.309   9.324   5.078 -0.0354 -0.0644  0.0401
  659MOL0     C90854   1.236   9.427   5.133  0.7532  0.5072  0.7813
  659MOL0     N90855   0.555   9.588   5.355  1.0461  0.7063  0.5187
  659MOL0     N90856   0.485   9.572   5.454  0.0881 -0.0595 -0.6594
  659MOL0     C90857   0.648  10.110   6.002 -0.7795 -0.1925 -0.7475
  659MOL0     C90858   0.537  10.130   5.922 -0.0204 -0.6910  0.4650
  659MOL0     C90859   0.319  10.264   5.532  0.0789  0.0543 -0.1530
  659MOL0     C90860   0.277  10.397   5.574  0.4812 -0.4799  0.0568
  659MOL0     C90861   0.165  10.467   5.514 -0.9017  0.7968 -0.1625
  659MOL0     C90862   0.089  10.399   5.421 -0.2741  0.1560  0.4202
  659MOL0     O90863  -0.014  10.470   5.369 -0.6995  0.0196  0.6726
  659MOL0     C90864  -0.120  10.406   5.293  0.1816  0.1469 -0.1122
  659MOL0     C90865  -0.241  10.501   5.255  0.1111 -0.1530 -0.0123
  659MOL0     C90866  -0.222  10.580   5.129 -0.0626 -0.1472 -1.0327
  659MOL0     C90867  -0.162  10.511   5.005 -0.6201  0.1853  0.9263
  659MOL0     C90868  -0.266  10.417   4.964 -0.9124  0.5774  0.4219
  659MOL0     C90869  -0.334  10.319   4.932 -0.4996 -0.4818 -0.7000
  659MOL0     C90870   0.122  10.265   5.389  0.9580 -0.0793  0.1245
  659MOL0     C90871   0.237  10.201   5.440  0.5657 -0.2751  0.3741
  659MOL0     C90872   0.256  10.063   5.387 -0.4211  0.1142 -0.0275
  659MOL0     H90873   0.678  10.362   5.710 -1.5387  1.8169  1.0192
  659MOL0     H90874   0.869  10.320   5.855 -1.4249  2.6416  1.4737
  659MOL0     H90875   1.040  10.060   6.132  1.7639  2.9069 -0.5779
  659MOL0     H90876   1.066  10.159   6.005 -0.8203  0.8661  0.7927
  659MOL0     H90877   0.949  10.024   5.842  2.6722  2.7239  0.3112
  659MOL0     H90878   1.091   9.942   5.911  0.4293 -0.3335  0.6926
  659MOL0     H90879   0.963   9.796   6.040  3.5903  2.4545 -0.9359
  659MOL0     H90880   0.829   9.912   6.041  0.7375  1.1227 -0.9336
  659MOL0     H90881   0.801   9.849   5.778 -5.3990 -2.4819  0.6432
  659MOL0     H90882   0.930   9.725   5.819 -0.3478 -1.6395 -3.1018
  659MOL0     H90883   0.676   9.755   5.973 -1.2461 -0.2517  0.0518
  659MOL0     H90884   0.776   9.599   5.947  1.3707  0.1538 -1.7778
  659MOL0     H90885   0.714   9.637   5.702 -2.6914  2.4890 -2.6603
  659MOL0     H90886   0.604   9.546   5.807  0.0146  0.2070  2.4315
  659MOL0     H90887   0.591   9.843   5.764 -0.2735  0.1034 -0.1916
  659MOL0     H90888   0.485   9.766   5.875 -0.3094  0.5929 -0.9284
  659MOL0     H90889   0.393   9.621   5.707 -0.3905  0.0774 -0.4524
  659MOL0     H90890   0.368   9.788   5.656 -0.0381 -0.9291 -0.9200
  659MOL0     H90891   0.591   9.883   5.480 -1.8162  0.3745 -0.1400
  659MOL0     H90892   0.721   9.868   5.252 -0.4825  0.6726 -0.4108
  659MOL0     H90893   0.604   9.810   5.146  3.3260  1.2568 -2.9723
  659MOL0     H90894   0.846   9.621   5.232 -0.5831  0.4149  0.4978
  659MOL0     H90895   0.723   9.582   5.120 -2.5250 -1.7684  2.3009
  659MOL0     H90896   0.814   9.792   4.978  0.8732  1.5587  0.3840
  659MOL0     H90897   0.937   9.818   5.107  0.9308 -1.1515  1.3144
  659MOL0     H90898   0.905   9.570   4.932 -3.2610  1.4534  1.0554
  659MOL0     H90899   1.012   9.702   4.900  1.4355 -0.7566  0.4823
  659MOL0     H90900   1.119   9.539   4.832  2.3426  1.0201 -1.1649
  659MOL0     H90901   1.206   9.440   4.653 -1.1909  0.5992  4.5853
  659MOL0     H90902   1.246   9.262   4.667  3.1682  0.5886 -2.7160
  659MOL0     H90903   1.372   9.383   4.654  0.1844  1.4919 -1.8620
  659MOL0     H90904   1.624   8.992   4.869  0.5188 -1.7114 -0.4463
  659MOL0     H90905   1.834   8.929   4.779 -0.2632  0.6629  1.3303
  659MOL0     H90906   2.152   9.066   4.522  0.9978  3.0918 -1.0089
  659MOL0     H90907   2.021   9.135   4.440 -0.8352 -0.2518  0.9257
  659MOL0     H90908   2.155   9.270   4.601 -0.4497  0.0517 -0.0521
  659MOL0     H90909   1.988   9.260   4.662 -1.3407 -1.5556  2.8923
  659MOL0     H90910   2.061   9.060   4.815  3.1861 -1.5376  1.6686
  659MOL0     H90911   2.116   9.217   4.854  0.1352  0.2012  0.3528
  659MOL0     H90912   2.333   9.172   4.750 -0.4905  0.8969  0.4761
  659MOL0     H90913   2.268   9.000   4.712  2.9137 -1.2430  2.1541
  659MOL0     H90914   2.304   9.111   4.991  0.6114  2.4035 -2.4348
  659MOL0     H90915   2.259   8.951   4.959  0.6361 -0.1706 -1.9017
  659MOL0     H90916   2.502   8.961   5.015 -0.5429  1.1560  1.0517
  659MOL0     H90917   2.523   9.070   4.868  0.3840 -1.3687 -1.0590
  659MOL0     H90918   2.468   8.909   4.719 -0.3969 -1.3161 -1.5921
  659MOL0     H90919   2.434   8.783   4.855  0.1501  0.2486  1.1819
  659MOL0     H90920   2.646   8.740   4.908  3.8084 -0.4200 -1.0092
  659MOL0     H90921   2.702   8.898   4.873 -0.5841  0.0776  1.4229
  659MOL0     H90922   1.781   9.176   4.442  0.0987 -0.1086  0.6230
  659MOL0     H90923   1.575   9.250   4.533 -1.0650  0.6860  0.5713
  659MOL0     H90924   1.364   9.258   5.145 -2.0006 -0.2857  1.5052
  659MOL0     H90925   1.207   9.449   5.236  0.5609  0.1305  0.8088
  659MOL0     H90926   0.634  10.035   6.079 -0.7918 -0.7547 -1.2808
  659MOL0     H90927   0.444  10.083   5.954  0.0253 -0.2355  1.3148
  659MOL0     H90928   0.333  10.451   5.650 -2.1066  1.5173  0.6915
  659MOL0     H90929   0.146  10.567   5.551 -0.1872  0.7080  0.4482
  659MOL0     H90930  -0.086  10.362   5.199 -4.5141  0.7320 -2.3398
  659MOL0     H90931  -0.165  10.321   5.345  0.3046  0.0017 -0.2423
  659MOL0     H90932  -0.263  10.572   5.336 -0.5640 -2.3137  1.8146
  659MOL0     H90933  -0.323  10.431   5.235 -0.1827 -1.0122  3.4883
  659MOL0     H90934  -0.316  10.620   5.091 -0.7661 -0.0193  0.7480
  659MOL0     H90935  -0.157  10.665   5.152 -0.6191  1.1694 -3.9085
  659MOL0     H90936  -0.060  10.474   5.022  1.0737  4.3090  0.8751
  659MOL0     H90937  -0.153  10.576   4.918 -3.2901 -1.9506 -1.1248
  659MOL0     H90938  -0.393  10.238   4.895  1.4242 -1.3114 -2.0968
  659MOL0     H90939   0.062  10.205   5.322  2.5138 -0.7510 -0.7312
  659MOL0     H90940   0.342  10.069   5.320 -0.1896 -1.5000  0.1035
  659MOL0     H90941   0.287   9.999   5.470  2.8069  0.4704 -0.8282
  659MOL0     H90942   0.167  10.021   5.339 -1.5248  0.0119  1.9904
  660MOL0     O90943   4.472   8.495   8.156  0.2635 -0.4641  0.1295
  660MOL0     C90944   4.529   8.533   8.259  0.3567  0.5638  0.0496
  660MOL0     O90945   4.637   8.620   8.271 -0.7535  0.5487 -0.2707
  660MOL0     C90946   4.703   8.657   8.161 -0.0770  0.3252 -0.6670
  660MOL0     C90947   4.713   8.598   8.034  1.1845  0.1833 -0.3195
  660MOL0     C90948   4.783   8.648   7.920 -0.2670 -0.5683  0.9103
  660MOL0     C90949   4.878   8.755   7.946 -0.9869 -0.5411  0.0307
  660MOL0     O90950   4.961   8.817   7.856 -0.1921  0.4106 -0.2113
  660MOL0     C90951   4.996   8.752   7.730  1.3229 -0.7927  0.3238
  660MOL0     C90952   5.048   8.847   7.629  0.4408  0.0188 -0.4879
  660MOL0     C90953   5.179   8.906   7.672 -0.1183 -0.1687  0.2997
  660MOL0     C90954   5.230   9.026   7.587  0.4531  0.1757 -0.3703
  660MOL0     C90955   5.353   9.086   7.640 -0.1184  0.1227 -0.5129
  660MOL0     C90956   5.423   9.204   7.559  0.4167  0.0091 -0.3776
  660MOL0     C90957   5.486   9.150   7.423  0.1972  0.9454  0.2398
  660MOL0     C90958   5.631   9.096   7.430 -0.0909 -0.1603 -0.5748
  660MOL0     N90959   5.722   9.210   7.417 -1.0209  0.3761 -0.4734
  660MOL0     C90960   5.728   9.286   7.310  0.0733 -0.1620  0.4273
  660MOL0     C90961   5.831   9.371   7.336  0.3384 -0.3256 -0.5563
  660MOL0     C90962   5.892   9.467   7.243 -0.5216  0.2856 -0.1731
  660MOL0     C90963   5.999   9.417   7.133 -1.1291 -0.1485 -0.3413
  660MOL0     C90964   5.945   9.284   7.062 -0.0042  0.0530  0.4128
  660MOL0     C90965   6.057   9.237   6.969 -0.3360 -0.1835 -0.0060
  660MOL0     O90966   6.173   9.188   7.048 -0.1262  0.1172  0.5713
  660MOL0     C90967   6.254   9.130   6.965  0.1181  0.2568 -0.0624
  660MOL0     C90968   6.234   9.000   6.913  0.0288  0.0281 -0.5971
  660MOL0     C90969   6.330   8.936   6.837  0.4405 -1.5788 -0.1260
  660MOL0     C90970   6.300   8.803   6.778 -0.1037 -0.0708  0.5230
  660MOL0     C90971   6.446   9.009   6.801  0.0478  0.7958  0.6711
  660MOL0     C90972   6.544   8.960   6.699 -0.0861  0.2891  0.0830
  660MOL0     O90973   6.579   8.830   6.699  0.1590  0.0509  0.1240
  660MOL0     C90974   6.702   8.781   6.652 -0.3302 -0.9652 -0.7904
  660MOL0     C90975   6.823   8.850   6.613 -0.2836 -0.6080 -0.5640
  660MOL0     C90976   6.933   8.776   6.570  0.4890 -0.4788  0.0706
  660MOL0     C90977   6.930   8.635   6.563 -0.7441  0.2297 -0.3262
  660MOL0     O90978   7.039   8.576   6.503 -0.1205  0.0113 -0.1376
  660MOL0     C90979   7.122   8.517   6.609 -0.5808  0.0143 -0.8899
  660MOL0     C90980   7.251   8.462   6.558 -1.4115 -0.3116 -0.1009
  660MOL0     C90981   7.348   8.378   6.663  0.2118  0.1747  0.1601
  660MOL0     C90982   7.463   8.315   6.592 -0.3536  0.5009 -0.2679
  660MOL0     C90983   7.566   8.245   6.683 -0.7320  0.2324 -0.1385
  660MOL0     C90984   7.656   8.144   6.606 -0.0596  0.3592 -0.2467
  660MOL0     C90985   7.768   8.076   6.688 -0.0697  0.1174 -0.1122
  660MOL0     C90986   7.864   8.167   6.768  0.4593  0.5877  0.2096
  660MOL0    Cl90987   7.934   8.281   6.662  0.0074  0.1646 -0.3508
  660MOL0     C90988   6.811   8.572   6.593 -0.3437 -0.0105 -0.2714
  660MOL0     C90989   6.698   8.641   6.638 -0.0458 -0.4562 -0.0596
  660MOL0     O90990   6.601   9.048   6.634 -0.3949  0.0059 -0.1778
  660MOL0     C90991   6.464   9.138   6.850  0.1714  0.2467 -0.4900
  660MOL0     C90992   6.370   9.197   6.934 -0.0224 -1.0017 -0.5135
  660MOL0     N90993   5.882   9.348   7.458 -0.1917 -0.3017  0.1767
  660MOL0     N90994   5.812   9.249   7.510 -0.1435 -0.4638 -1.0470
  660MOL0     C90995   4.881   8.806   8.075  0.5012 -0.5691  0.2111
  660MOL0     C90996   4.795   8.767   8.179  0.5747  0.7925 -0.3435
  660MOL0     C90997   4.491   8.471   8.385  0.0531  0.3132  0.1615
  660MOL0     C90998   4.514   8.546   8.502  0.4662 -0.8738  0.1952
  660MOL0     C90999   4.490   8.496   8.629  0.2821 -0.2784 -0.5433
  660MOL0     C91000   4.431   8.371   8.648 -0.0118  0.2762 -0.0420
  660MOL0     O91001   4.399   8.325   8.769  0.3302 -0.4820 -0.6203
  660MOL0     C91002   4.390   8.411   8.883 -0.3853  0.2375 -0.4340
  660MOL0     C91003   4.259   8.480   8.899 -0.1209 -0.4458  1.2869
  660MOL0     C91004   4.255   8.561   9.034  0.2825 -0.1678 -0.0387
  660MOL0     C91005   4.109   8.551   9.098  0.1931 -0.6381  1.2114
  660MOL0     C91006   4.123   8.620   9.226 -0.0461  0.2190  0.0819
  660MOL0     C91007   4.147   8.672   9.330 -0.9337  0.0982 -0.0600
  660MOL0     C91008   4.394   8.293   8.535 -1.1655  0.1814  0.1429
  660MOL0     C91009   4.419   8.346   8.404  0.0884 -0.7042  0.2257
  660MOL0     C91010   4.365   8.271   8.285  0.6782  0.0769  0.2077
  660MOL0     H91011   4.651   8.512   8.009  0.7647 -0.2492  1.9722
  660MOL0     H91012   4.766   8.597   7.826  1.6668  0.8493 -0.2690
  660MOL0     H91013   4.913   8.688   7.701  3.0331 -2.6240 -0.8570
  660MOL0     H91014   5.084   8.690   7.751  2.0543 -0.2446 -1.0041
  660MOL0     H91015   5.068   8.796   7.534 -0.1945 -1.2053  0.0226
  660MOL0     H91016   4.977   8.928   7.608  1.8014  2.2849  2.8111
  660MOL0     H91017   5.162   8.946   7.772  2.9587  5.9790 -1.1004
  660MOL0     H91018   5.265   8.839   7.679  2.7551  3.4244  3.6001
  660MOL0     H91019   5.244   8.987   7.486  0.8267 -3.0878  0.8111
  660MOL0     H91020   5.158   9.107   7.580 -0.4135 -0.5404  0.0506
  660MOL0     H91021   5.437   9.016   7.648  2.3828  2.9611 -0.0584
  660MOL0     H91022   5.328   9.126   7.739 -0.8269 -1.8757  0.1507
  660MOL0     H91023   5.355   9.286   7.535  0.5223  0.2258  0.0585
  660MOL0     H91024   5.502   9.242   7.623 -0.3861  4.1225 -1.5167
  660MOL0     H91025   5.479   9.222   7.341 -1.2012 -0.9688 -1.4206
  660MOL0     H91026   5.418   9.069   7.396 -1.3502  1.4371  2.3762
  660MOL0     H91027   5.645   9.035   7.519 -3.7126 -1.4412 -0.7323
  660MOL0     H91028   5.640   9.031   7.343 -0.9209  1.6297 -2.0823
  660MOL0     H91029   5.687   9.276   7.210  1.5703  1.2097 -0.3741
  660MOL0     H91030   5.943   9.544   7.301  1.1754 -0.7958 -0.1465
  660MOL0     H91031   5.809   9.509   7.186 -1.9165  0.1071  1.6574
  660MOL0     H91032   6.023   9.495   7.060  1.8931 -1.2865 -0.7236
  660MOL0     H91033   6.094   9.388   7.179 -0.8886  2.1881  0.7485
  660MOL0     H91034   5.911   9.207   7.131 -2.6017  1.0209  0.3220
  660MOL0     H91035   5.860   9.317   7.002  1.6821  2.0347 -1.0641
  660MOL0     H91036   6.017   9.170   6.892  0.8482 -0.0389 -0.7898
  660MOL0     H91037   6.092   9.327   6.918 -0.0729 -0.7729 -0.8987
  660MOL0     H91038   6.148   8.935   6.930 -2.1475  2.4568 -1.6891
  660MOL0     H91039   6.195   8.780   6.797 -0.7830  2.3165  0.0555
  660MOL0     H91040   6.375   8.728   6.806  0.6468  0.9824  1.4425
  660MOL0     H91041   6.310   8.817   6.670  2.1530  0.4418  0.7454
  660MOL0     H91042   6.826   8.959   6.617  0.3170 -0.5490 -1.8056
  660MOL0     H91043   7.021   8.827   6.532 -0.6577 -1.7355 -4.9246
  660MOL0     H91044   7.137   8.590   6.689  0.6081 -0.1489 -0.9488
  660MOL0     H91045   7.079   8.428   6.657 -0.6897  1.9334  2.9910
  660MOL0     H91046   7.228   8.392   6.476  1.0386 -1.9438  0.5154
  660MOL0     H91047   7.308   8.544   6.512  0.2195 -0.6495  1.2421
  660MOL0     H91048   7.294   8.312   6.731  0.7327 -0.4348  0.0002
  660MOL0     H91049   7.391   8.457   6.726  1.5749  0.5409 -1.1564
  660MOL0     H91050   7.507   8.381   6.517  1.4404  0.9882  1.1202
  660MOL0     H91051   7.415   8.234   6.536 -0.4489 -1.1681  2.0596
  660MOL0     H91052   7.627   8.319   6.737  0.9631  0.1683 -1.8680
  660MOL0     H91053   7.515   8.191   6.763 -0.7639 -0.7540 -0.8077
  660MOL0     H91054   7.709   8.191   6.523  0.6003 -1.2747 -0.7788
  660MOL0     H91055   7.583   8.075   6.564 -0.7940  1.1901 -0.3542
  660MOL0     H91056   7.823   8.013   6.617 -0.8867 -1.1112  0.3094
  660MOL0     H91057   7.731   8.010   6.767 -0.9443  1.5735  0.7429
  660MOL0     H91058   7.939   8.104   6.817 -1.2272 -1.1015  0.7400
  660MOL0     H91059   7.797   8.224   6.832 -3.5752 -0.2235 -2.8617
  660MOL0     H91060   6.807   8.464   6.580  1.6456 -0.1539  0.0173
  660MOL0     H91061   6.606   8.595   6.671 -0.4596  1.8711  2.3274
  660MOL0     H91062   6.553   9.199   6.837  0.5038  0.6055  2.5739
  660MOL0     H91063   6.387   9.296   6.974  0.9515 -1.3817  0.0378
  660MOL0     H91064   4.957   8.881   8.096  1.5195 -0.7171 -2.4856
  660MOL0     H91065   4.821   8.810   8.275  0.8850 -2.5274  1.1951
  660MOL0     H91066   4.534   8.652   8.487 -2.4288 -0.1293  1.0015
  660MOL0     H91067   4.513   8.565   8.710  3.7530 -1.6886 -0.1573
  660MOL0     H91068   4.401   8.345   8.970 -1.3566  0.2048 -0.3243
  660MOL0     H91069   4.473   8.481   8.886 -0.9031  0.8199  1.0741
  660MOL0     H91070   4.179   8.405   8.900 -0.9381  0.3430 -0.7729
  660MOL0     H91071   4.232   8.538   8.810 -0.7707  0.2020  1.8919
  660MOL0     H91072   4.323   8.510   9.103  2.6194  1.5606 -0.9269
  660MOL0     H91073   4.298   8.661   9.025 -1.3678  0.4099 -2.7233
  660MOL0     H91074   4.077   8.447   9.110  1.4130 -1.2188 -0.1862
  660MOL0     H91075   4.031   8.601   9.041  1.7834  0.4810 -0.0896
  660MOL0     H91076   4.182   8.717   9.421 -0.2369 -1.1525  0.3153
  660MOL0     H91077   4.348   8.196   8.549 -1.4492 -0.1920 -2.7034
  660MOL0     H91078   4.451   8.230   8.231 -0.8348  0.7260 -2.9019
  660MOL0     H91079   4.294   8.195   8.319  2.5601 -2.3472 -0.9537
  660MOL0     H91080   4.307   8.331   8.215  0.0192  0.3634  0.9886
  661MOL0     O91081   4.639  11.054   7.552  0.0696  0.7541  0.3258
  661MOL0     C91082   4.690  11.019   7.446  1.0049  0.1804 -0.5149
  661MOL0     O91083   4.690  10.883   7.403 -0.6720  0.3533  0.2985
  661MOL0     C91084   4.621  10.783   7.475  0.3005  0.4142  0.5660
  661MOL0     C91085   4.504  10.800   7.550  0.0302 -0.5889  0.5599
  661MOL0     C91086   4.426  10.698   7.587  0.4397  0.4283 -0.6707
  661MOL0     C91087   4.456  10.567   7.544  0.1843  0.3736  0.2546
  661MOL0     O91088   4.379  10.459   7.572  0.2873 -0.1523  0.1330
  661MOL0     C91089   4.265  10.475   7.667  0.3606 -0.4022  0.1554
  661MOL0     C91090   4.207  10.340   7.709  0.7197  0.2476 -1.0222
  661MOL0     C91091   4.305  10.246   7.780 -0.5013  0.2816  0.7374
  661MOL0     C91092   4.235  10.128   7.832  0.8211  0.2805  0.7139
  661MOL0     C91093   4.329  10.041   7.930 -0.0928  0.9570  0.4012
  661MOL0     C91094   4.323  10.092   8.075 -0.5010  0.2502  0.0921
  661MOL0     C91095   4.409   9.989   8.152 -0.4300 -0.3007 -0.3897
  661MOL0     C91096   4.414  10.035   8.297  0.8185 -0.8712  0.0125
  661MOL0     N91097   4.501  10.152   8.328 -0.8205 -0.6129 -0.6127
  661MOL0     C91098   4.638  10.134   8.353 -0.2216 -0.7699 -0.6245
  661MOL0     C91099   4.672  10.270   8.371  0.0096 -0.1006  0.8016
  661MOL0     C91100   4.807  10.319   8.410  0.8609  0.1924 -0.6793
  661MOL0     C91101   4.871  10.361   8.281 -0.0555  0.3193  0.1481
  661MOL0     C91102   5.000  10.439   8.301  0.3909 -0.1955  0.0470
  661MOL0     C91103   5.108  10.391   8.208 -0.2262  0.1263 -0.6050
  661MOL0     O91104   5.077  10.425   8.077  0.5776 -0.0565  0.0679
  661MOL0     C91105   5.087  10.550   8.026 -0.3236  0.2758 -0.0470
  661MOL0     C91106   5.123  10.662   8.092 -1.6556 -0.3788  0.2941
  661MOL0     C91107   5.130  10.788   8.016 -0.1205  0.2560 -0.4396
  661MOL0     C91108   5.177  10.909   8.096 -0.2339 -0.2076  0.0109
  661MOL0     C91109   5.097  10.789   7.874  0.5828  0.7743  0.0162
  661MOL0     C91110   5.107  10.898   7.782  0.2005 -0.1331 -0.6672
  661MOL0     O91111   5.090  11.024   7.833 -0.2685 -0.2628 -0.1919
  661MOL0     C91112   5.132  11.128   7.751  0.3388  1.0563 -0.3953
  661MOL0     C91113   5.062  11.180   7.642  0.1044  0.7658 -0.0417
  661MOL0     C91114   5.121  11.279   7.566 -0.6443 -0.6599 -0.2224
  661MOL0     C91115   5.236  11.342   7.614 -0.5614  0.8060 -0.5316
  661MOL0     O91116   5.311  11.449   7.563  0.1775  0.3705  0.7471
  661MOL0     C91117   5.244  11.506   7.450  0.8029 -0.1168 -0.2856
  661MOL0     C91118   5.331  11.619   7.400 -0.5578  0.3627 -0.5951
  661MOL0     C91119   5.458  11.556   7.341  0.0872 -0.6932 -0.0196
  661MOL0     C91120   5.558  11.670   7.300  0.8633  0.2369 -0.1810
  661MOL0     C91121   5.535  11.736   7.163 -0.3242  1.0966  0.4831
  661MOL0     C91122   5.613  11.854   7.125  0.0763  0.1297  0.6636
  661MOL0     C91123   5.759  11.833   7.101  0.7228  0.3860 -1.1138
  661MOL0     C91124   5.821  11.943   7.015 -0.0886 -0.1930  0.4450
  661MOL0    Cl91125   5.790  11.927   6.833  0.1720 -0.3688  0.0044
  661MOL0     C91126   5.296  11.303   7.733 -1.1923  0.6914  0.5099
  661MOL0     C91127   5.250  11.186   7.792  1.1130  0.4047 -0.7121
  661MOL0     O91128   5.143  10.872   7.668 -0.7414  0.3340  0.2159
  661MOL0     C91129   5.054  10.668   7.818  0.8575 -0.4140  0.3811
  661MOL0     C91130   5.054  10.552   7.889  0.2619  0.5235 -0.4860
  661MOL0     N91131   4.559  10.353   8.347  0.2439 -0.1297 -0.1967
  661MOL0     N91132   4.456  10.280   8.329 -0.6351  0.0568 -0.3251
  661MOL0     C91133   4.577  10.548   7.472 -0.4401  0.2174  0.1117
  661MOL0     C91134   4.663  10.653   7.454 -0.0423  0.0319 -0.4948
  661MOL0     C91135   4.756  11.124   7.370  0.7140 -0.1907 -0.1685
  661MOL0     C91136   4.861  11.091   7.278 -0.8177 -0.1518 -0.3309
  661MOL0     C91137   4.942  11.175   7.198  0.4443  0.4885 -0.2427
  661MOL0     C91138   4.919  11.314   7.215 -0.1730 -0.4403 -0.0034
  661MOL0     O91139   4.989  11.418   7.148 -0.1034  0.3663  0.2986
  661MOL0     C91140   5.087  11.386   7.050  0.8433 -0.3244  0.2485
  661MOL0     C91141   5.176  11.501   7.036 -0.8581  0.1455  0.3203
  661MOL0     C91142   5.295  11.463   6.944  0.0683  0.0060 -0.1546
  661MOL0     C91143   5.266  11.420   6.800  0.6998  0.9850  0.2218
  661MOL0     C91144   5.206  11.527   6.719  0.8932  0.6726 -0.3634
  661MOL0     C91145   5.153  11.602   6.653 -0.3883 -0.2504  0.3650
  661MOL0     C91146   4.811  11.360   7.297  0.3929  0.9272  0.4429
  661MOL0     C91147   4.733  11.265   7.377 -0.3728 -0.9583  0.5241
  661MOL0     C91148   4.631  11.325   7.466  0.6881  0.8405 -0.0728
  661MOL0     H91149   4.462  10.899   7.569 -2.9612 -1.8662  1.3134
  661MOL0     H91150   4.350  10.720   7.661  0.8838 -2.4541  0.7809
  661MOL0     H91151   4.191  10.532   7.610  2.2206 -0.1478 -2.1533
  661MOL0     H91152   4.296  10.523   7.760  0.6982 -0.8567  0.2802
  661MOL0     H91153   4.132  10.355   7.787  0.7669  1.6311 -1.2170
  661MOL0     H91154   4.154  10.293   7.626  3.0039 -0.4630 -2.1594
  661MOL0     H91155   4.371  10.204   7.703 -1.0118 -2.1909  1.5753
  661MOL0     H91156   4.353  10.293   7.866 -0.7223 -1.8174  2.0719
  661MOL0     H91157   4.141  10.152   7.884  0.7444 -2.1737  1.8650
  661MOL0     H91158   4.189  10.073   7.750  1.0420  1.9043 -0.5526
  661MOL0     H91159   4.434  10.039   7.899  0.0801 -1.7823  0.8595
  661MOL0     H91160   4.289   9.939   7.920 -3.6684  2.3462 -1.3821
  661MOL0     H91161   4.356  10.196   8.076 -0.8624  0.3718 -0.3704
  661MOL0     H91162   4.222  10.102   8.114 -0.6803  1.3717 -0.6173
  661MOL0     H91163   4.513   9.985   8.116 -0.4933  1.6467 -0.8945
  661MOL0     H91164   4.359   9.894   8.131  4.0069 -3.0229  0.0691
  661MOL0     H91165   4.318  10.072   8.336  0.3005 -1.7927 -0.3573
  661MOL0     H91166   4.446   9.952   8.360  0.5937  2.2469  4.7650
  661MOL0     H91167   4.700  10.046   8.362 -0.0404 -0.9132 -2.8110
  661MOL0     H91168   4.859  10.231   8.450 -2.6345 -1.6022  0.3127
  661MOL0     H91169   4.794  10.400   8.482 -4.7349  0.7390 -1.8371
  661MOL0     H91170   4.890  10.270   8.223 -0.2634 -0.5651  1.4121
  661MOL0     H91171   4.808  10.428   8.223  0.4997 -0.6587 -1.6773
  661MOL0     H91172   4.979  10.547   8.295 -0.7616 -0.3778  0.4053
  661MOL0     H91173   5.042  10.427   8.401 -0.0510  0.2514  0.2914
  661MOL0     H91174   5.203  10.437   8.236  2.0685 -4.3931 -0.1529
  661MOL0     H91175   5.116  10.283   8.220  2.3448  0.3317  0.0705
  661MOL0     H91176   5.146  10.661   8.198  0.7908  1.0568 -0.1662
  661MOL0     H91177   5.275  10.940   8.059 -0.2396  1.4235  1.2598
  661MOL0     H91178   5.192  10.885   8.202  5.0356  1.1690 -0.1207
  661MOL0     H91179   5.103  10.987   8.075  1.8772  1.1957 -2.9293
  661MOL0     H91180   4.976  11.120   7.614  0.0230 -0.1251  1.9138
  661MOL0     H91181   5.086  11.301   7.465  0.0137 -1.4534 -0.6360
  661MOL0     H91182   5.221  11.429   7.376 -2.7963  0.5239  0.0050
  661MOL0     H91183   5.147  11.544   7.485  1.2227 -1.9318  3.3340
  661MOL0     H91184   5.283  11.666   7.314  0.4957  1.2504 -0.7191
  661MOL0     H91185   5.358  11.681   7.486 -0.5964 -4.1325  3.0529
  661MOL0     H91186   5.434  11.497   7.253  0.8835 -3.8688  1.7214
  661MOL0     H91187   5.516  11.490   7.406  0.9439  0.4251  0.3945
  661MOL0     H91188   5.654  11.616   7.300  1.1563  0.7442 -0.0999
  661MOL0     H91189   5.552  11.735   7.388 -2.6917 -1.6241  1.1085
  661MOL0     H91190   5.562  11.651   7.099  2.9421  2.4078 -0.0507
  661MOL0     H91191   5.426  11.743   7.156 -0.8550 -4.3066 -1.3144
  661MOL0     H91192   5.596  11.927   7.204 -0.1261  2.0221 -1.0549
  661MOL0     H91193   5.564  11.893   7.035 -3.1603 -1.9992  1.3197
  661MOL0     H91194   5.771  11.736   7.050  1.4647 -0.9563  1.4512
  661MOL0     H91195   5.792  11.830   7.205 -2.1672  0.2326 -0.1044
  661MOL0     H91196   5.928  11.924   7.020 -0.0694 -0.8168 -1.4433
  661MOL0     H91197   5.790  12.044   7.040 -4.8810 -0.0601 -4.0439
  661MOL0     H91198   5.380  11.361   7.770  0.0022  0.9503 -2.3472
  661MOL0     H91199   5.302  11.152   7.880 -4.0527  0.8442  2.9637
  661MOL0     H91200   5.042  10.644   7.713  6.5362 -0.1341 -0.6680
  661MOL0     H91201   5.013  10.464   7.841  1.4950  0.0128 -0.6437
  661MOL0     H91202   4.622  10.454   7.442  0.8712  1.8805 -3.7946
  661MOL0     H91203   4.764  10.642   7.418  0.1990 -0.2453  0.2434
  661MOL0     H91204   4.902  10.991   7.270  2.2848  1.0190 -0.3719
  661MOL0     H91205   5.029  11.129   7.151  0.3148  0.3587 -0.3570
  661MOL0     H91206   5.134  11.292   7.078 -2.5461 -2.1792  0.1968
  661MOL0     H91207   5.035  11.370   6.955  0.8702  1.0085 -0.0173
  661MOL0     H91208   5.213  11.537   7.132 -1.3385  0.6306  0.3237
  661MOL0     H91209   5.106  11.575   6.997 -0.1855  0.1935 -0.8424
  661MOL0     H91210   5.361  11.550   6.944  0.2655 -0.0189 -3.3507
  661MOL0     H91211   5.350  11.378   6.985 -0.0478  0.3229  0.6934
  661MOL0     H91212   5.190  11.341   6.804  0.9382  0.7462 -0.0255
  661MOL0     H91213   5.353  11.382   6.747  1.1427  0.7952  1.0625
  661MOL0     H91214   5.094  11.663   6.587 -1.6930 -0.5458  1.2060
  661MOL0     H91215   4.800  11.467   7.313 -0.0775  0.4567  4.1767
  661MOL0     H91216   4.622  11.432   7.445 -0.0592  1.5729  3.4232
  661MOL0     H91217   4.536  11.272   7.455  1.3132 -0.2979 -0.1307
  661MOL0     H91218   4.649  11.313   7.573 -1.0566 -2.8921 -0.0138
  662MOL0     O91219   3.101   0.754   2.906  0.7227  0.7686  0.1341
  662MOL0     C91220   3.218   0.726   2.935  0.8033  0.9419  0.5644
  662MOL0     O91221   3.328   0.767   2.870 -0.4177 -0.7022  0.2167
  662MOL0     C91222   3.310   0.863   2.766  0.3914  0.3446 -0.1557
  662MOL0     C91223   3.229   0.968   2.750  0.7998  0.4328 -0.4563
  662MOL0     C91224   3.237   1.051   2.640 -0.1818  0.7516  1.3114
  662MOL0     C91225   3.321   1.019   2.535 -1.0099 -0.8519  0.6128
  662MOL0     O91226   3.322   1.099   2.419  0.7365  0.1381  0.0379
  662MOL0     C91227   3.201   1.124   2.345  0.0617 -0.1337  1.1248
  662MOL0     C91228   3.233   1.224   2.221  0.2834  0.0432 -0.5217
  662MOL0     C91229   3.145   1.199   2.097 -0.3707 -0.3694  0.4280
  662MOL0     C91230   3.189   1.292   1.980  0.0225  0.1329  0.6765
  662MOL0     C91231   3.124   1.427   1.985  0.3392 -0.0261  0.3178
  662MOL0     C91232   3.176   1.522   1.880 -0.2384  0.4567  0.3938
  662MOL0     C91233   3.073   1.636   1.842  0.6128 -1.2204  0.2709
  662MOL0     C91234   3.068   1.663   1.686 -0.1677 -0.7522  0.0414
  662MOL0     N91235   2.955   1.761   1.649 -0.5947  0.3211 -0.0328
  662MOL0     C91236   2.849   1.717   1.571 -0.2483 -0.1126  0.6610
  662MOL0     C91237   2.767   1.820   1.579  0.4600  0.4990 -0.6464
  662MOL0     C91238   2.631   1.806   1.522  0.4410 -0.1921  0.5142
  662MOL0     C91239   2.623   1.798   1.374 -0.4075  0.7709 -0.1177
  662MOL0     C91240   2.476   1.814   1.316 -0.0970  0.2119 -0.9598
  662MOL0     C91241   2.391   1.686   1.330  0.4663 -0.6790  0.4599
  662MOL0     O91242   2.450   1.563   1.309  0.3718 -0.0919  0.6652
  662MOL0     C91243   2.375   1.445   1.339 -0.9294 -0.1646  0.4112
  662MOL0     C91244   2.243   1.445   1.376 -0.0971 -0.0544  0.0819
  662MOL0     C91245   2.177   1.322   1.399  0.1962 -0.6549  0.5903
  662MOL0     C91246   2.039   1.329   1.464 -0.3433  0.2222  0.8184
  662MOL0     C91247   2.251   1.201   1.396 -0.3000  0.3356  0.4128
  662MOL0     C91248   2.214   1.067   1.451  1.4237 -0.0679 -0.3116
  662MOL0     O91249   2.105   1.066   1.534  1.1476  0.7227  0.0896
  662MOL0     C91250   2.108   0.991   1.648  0.0278  0.1229 -0.2189
  662MOL0     C91251   1.990   1.007   1.724  1.1389  0.0714  0.6607
  662MOL0     C91252   1.987   0.947   1.854  0.3672 -0.4263  0.2189
  662MOL0     C91253   2.087   0.850   1.888  0.4363 -0.8396  0.7267
  662MOL0     O91254   2.050   0.783   2.006  0.0173 -0.4449  0.2056
  662MOL0     C91255   2.095   0.652   2.021  0.0577  0.0043  0.0301
  662MOL0     C91256   1.970   0.578   2.072 -0.2434  0.8526 -0.1875
  662MOL0     C91257   1.841   0.585   1.977 -0.7766 -0.3590  0.6753
  662MOL0     C91258   1.726   0.671   2.028 -0.9048  0.4672  0.8260
  662MOL0     C91259   1.605   0.680   1.940 -0.1285 -0.4646  1.8924
  662MOL0     C91260   1.615   0.783   1.828 -0.7192  0.6142  0.9582
  662MOL0     C91261   1.481   0.793   1.755 -0.2218 -0.3046  0.7454
  662MOL0     C91262   1.486   0.928   1.679 -0.6481 -0.7498 -0.0907
  662MOL0    Cl91263   1.319   0.970   1.632  0.2503 -0.1949 -0.0627
  662MOL0     C91264   2.194   0.832   1.811 -0.7122  1.1255  0.3387
  662MOL0     C91265   2.208   0.899   1.694  0.0956 -0.2605  0.0980
  662MOL0     O91266   2.270   0.971   1.405 -0.0865  0.0547 -0.5310
  662MOL0     C91267   2.389   1.208   1.356  0.7710  0.4281  0.6300
  662MOL0     C91268   2.444   1.328   1.327  0.3663 -1.0456 -0.1191
  662MOL0     N91269   2.815   1.917   1.665 -0.4290 -1.2455 -0.2957
  662MOL0     N91270   2.933   1.889   1.696 -0.0853  0.2847 -0.6592
  662MOL0     C91271   3.410   0.915   2.555  0.5013 -0.2499  0.2296
  662MOL0     C91272   3.401   0.832   2.666 -0.4321 -0.3152  0.4160
  662MOL0     C91273   3.240   0.650   3.061  0.0401 -0.1976  0.5153
  662MOL0     C91274   3.373   0.636   3.100  0.6356 -0.5481 -0.1435
  662MOL0     C91275   3.406   0.543   3.188  0.1679  0.4205  0.2538
  662MOL0     C91276   3.310   0.473   3.265  0.1521  0.5800  0.2135
  662MOL0     O91277   3.341   0.370   3.353  0.4936  0.6191  0.6900
  662MOL0     C91278   3.470   0.366   3.405  0.8550 -0.4054 -0.6952
  662MOL0     C91279   3.468   0.257   3.518 -0.1771 -0.3195 -0.7429
  662MOL0     C91280   3.614   0.214   3.552  0.4993  0.6066 -0.2834
  662MOL0     C91281   3.598   0.105   3.665 -1.2930  0.5517 -1.1404
  662MOL0     C91282   3.734   0.083   3.710  0.2902 -0.2823  0.2956
  662MOL0     C91283   3.851   0.066   3.742  0.5357  0.8704 -0.6377
  662MOL0     C91284   3.177   0.494   3.237 -0.2543 -0.1820 -0.2983
  662MOL0     C91285   3.144   0.576   3.131  0.7142 -0.5058 -0.4155
  662MOL0     C91286   2.994   0.585   3.086  0.0976 -0.0900 -0.1078
  662MOL0     H91287   3.157   0.993   2.828 -1.3037  1.7388 -2.6670
  662MOL0     H91288   3.174   1.139   2.634  0.0766  0.8702 -0.1226
  662MOL0     H91289   3.120   1.165   2.406  1.3145 -1.9176  4.2260
  662MOL0     H91290   3.173   1.025   2.308  3.4503 -0.9201  0.3131
  662MOL0     H91291   3.219   1.327   2.254 -0.9122  0.0440 -0.9952
  662MOL0     H91292   3.335   1.201   2.190  0.2513  0.8827 -1.2754
  662MOL0     H91293   3.134   1.094   2.068  0.0167 -0.1609 -0.5274
  662MOL0     H91294   3.043   1.218   2.132  0.2753 -0.7370  2.7019
  662MOL0     H91295   3.298   1.296   1.977  0.0596 -1.0281 -1.1102
  662MOL0     H91296   3.163   1.242   1.886  0.0569  0.4774  0.4827
  662MOL0     H91297   3.139   1.470   2.084 -2.1073  0.8297  0.3818
  662MOL0     H91298   3.016   1.415   1.979 -0.2117  3.1367  1.8595
  662MOL0     H91299   3.275   1.554   1.914  0.2639 -3.2017  2.8953
  662MOL0     H91300   3.195   1.462   1.791 -1.8184 -0.6981  0.8069
  662MOL0     H91301   3.096   1.727   1.899 -1.5433 -0.6843  0.3716
  662MOL0     H91302   2.971   1.609   1.872  0.4916 -2.5750 -1.2434
  662MOL0     H91303   3.159   1.714   1.653 -3.4298  4.2019 -2.4950
  662MOL0     H91304   3.042   1.569   1.636 -0.8050  0.4972 -2.0731
  662MOL0     H91305   2.832   1.623   1.519 -1.3239  0.9337 -0.9669
  662MOL0     H91306   2.572   1.893   1.553 -2.3892  0.0295 -4.5131
  662MOL0     H91307   2.585   1.715   1.562 -0.0858  0.5802  1.7332
  662MOL0     H91308   2.696   1.859   1.320  0.9649  0.1814  1.0161
  662MOL0     H91309   2.664   1.698   1.356  2.8233  1.1928  3.6001
  662MOL0     H91310   2.421   1.896   1.364  0.8858  0.7178 -0.6544
  662MOL0     H91311   2.493   1.839   1.211 -2.3883 -1.6722 -1.8555
  662MOL0     H91312   2.340   1.676   1.426  0.2414  1.2158  0.5749
  662MOL0     H91313   2.300   1.701   1.271  0.8622 -1.3864 -0.3514
  662MOL0     H91314   2.188   1.538   1.383  0.1291  0.0065  1.2166
  662MOL0     H91315   1.964   1.255   1.436  0.9798  0.1101 -3.0841
  662MOL0     H91316   1.995   1.426   1.440 -1.3449 -0.0866  1.3517
  662MOL0     H91317   2.055   1.317   1.572  1.8838  0.4371  0.5731
  662MOL0     H91318   1.903   1.066   1.700 -0.0138 -1.3626  1.1153
  662MOL0     H91319   1.893   0.948   1.909  0.0656 -1.2184 -0.2642
  662MOL0     H91320   2.110   0.590   1.933 -1.8234 -0.4303 -0.0439
  662MOL0     H91321   2.175   0.636   2.094 -0.4241 -0.9454  0.3692
  662MOL0     H91322   1.990   0.471   2.087 -2.1959  0.3732 -0.6980
  662MOL0     H91323   1.949   0.620   2.171 -0.8515  0.6879 -0.2449
  662MOL0     H91324   1.813   0.482   1.957  0.2890 -0.2537 -1.5644
  662MOL0     H91325   1.870   0.623   1.879 -1.1025 -0.8647  0.3779
  662MOL0     H91326   1.778   0.766   2.043  0.6974 -0.5186  1.7596
  662MOL0     H91327   1.695   0.625   2.123  2.0708 -0.3343  1.4917
  662MOL0     H91328   1.593   0.585   1.888 -0.4936 -0.7906  2.5634
  662MOL0     H91329   1.517   0.704   2.001  0.4675  3.4406  1.4895
  662MOL0     H91330   1.674   0.741   1.746 -1.9285 -0.9018  0.8189
  662MOL0     H91331   1.654   0.881   1.857  1.8856  0.3715 -1.2436
  662MOL0     H91332   1.396   0.795   1.824 -1.9466 -1.8539 -1.2344
  662MOL0     H91333   1.470   0.711   1.684  0.6928 -0.4153  0.7244
  662MOL0     H91334   1.534   0.914   1.582 -2.1942  1.6130 -1.2934
  662MOL0     H91335   1.523   1.014   1.736  3.4644  0.6136 -4.1869
  662MOL0     H91336   2.263   0.755   1.844 -0.6961  1.1286  0.3120
  662MOL0     H91337   2.296   0.883   1.633  0.6454 -1.3389  1.1274
  662MOL0     H91338   2.444   1.115   1.343 -1.0855 -1.1540  3.1817
  662MOL0     H91339   2.545   1.324   1.288 -0.4504 -3.6025 -2.3114
  662MOL0     H91340   3.469   0.887   2.469 -1.4968 -1.0997 -0.9491
  662MOL0     H91341   3.470   0.750   2.681 -1.9951 -1.3216  2.7050
  662MOL0     H91342   3.456   0.684   3.050  2.4656  0.5928  3.6245
  662MOL0     H91343   3.512   0.526   3.199  0.1872  1.2508  1.4801
  662MOL0     H91344   3.536   0.335   3.324  0.7239  0.3682 -1.1085
  662MOL0     H91345   3.514   0.459   3.441  0.6701 -1.4304  2.4704
  662MOL0     H91346   3.406   0.173   3.485 -1.3093  0.0568  0.3638
  662MOL0     H91347   3.418   0.301   3.604  1.8491 -0.3084  0.4914
  662MOL0     H91348   3.666   0.169   3.467 -0.2977 -2.0412  0.5300
  662MOL0     H91349   3.666   0.300   3.596 -0.0347  0.8156 -0.0444
  662MOL0     H91350   3.567   0.003   3.641 -1.9228  0.3449  0.4161
  662MOL0     H91351   3.530   0.149   3.738 -3.9770 -0.7939 -2.6671
  662MOL0     H91352   3.952   0.068   3.778  0.8506 -0.4211 -1.3624
  662MOL0     H91353   3.095   0.444   3.289  1.9920 -3.5304  0.3464
  662MOL0     H91354   2.920   0.536   3.150 -0.6755  1.5631  0.3062
  662MOL0     H91355   2.961   0.689   3.080  2.1709  0.6044 -0.3392
  662MOL0     H91356   2.988   0.529   2.992 -0.0513 -2.3536  1.1818
  663MOL0     O91357   7.535  11.374   5.488 -0.1148  0.6679  0.9425
  663MOL0     C91358   7.594  11.374   5.376  1.2199  0.0334 -0.4145
  663MOL0     O91359   7.704  11.294   5.333  0.6501 -0.5446 -0.5989
  663MOL0     C91360   7.767  11.215   5.431  0.0174 -0.1095  0.9509
  663MOL0     C91361   7.780  11.076   5.424  0.2678 -0.1564 -0.7249
  663MOL0     C91362   7.848  11.006   5.522  0.2096  0.0002  0.2671
  663MOL0     C91363   7.902  11.081   5.633  0.1472  0.1012 -0.2148
  663MOL0     O91364   7.966  11.027   5.741  0.2796 -0.7143  0.3266
  663MOL0     C91365   7.948  10.887   5.746  0.0774  0.3988 -0.3375
  663MOL0     C91366   8.004  10.834   5.879  0.0394  0.4750  0.2834
  663MOL0     C91367   8.153  10.853   5.892  0.3491  0.3190 -0.0077
  663MOL0     C91368   8.225  10.723   5.910 -0.1099 -0.0918  0.7629
  663MOL0     C91369   8.377  10.755   5.930  0.1480  0.0772  0.1517
  663MOL0     C91370   8.462  10.627   5.909  0.1032 -0.4641  0.0418
  663MOL0     C91371   8.460  10.579   5.760  0.1331  0.1437  0.0175
  663MOL0     C91372   8.441  10.690   5.648 -0.6784  0.4587 -0.4062
  663MOL0     N91373   8.421  10.626   5.519  0.8874  0.0637 -0.0949
  663MOL0     C91374   8.502  10.637   5.406  0.0426 -0.5103  0.3432
  663MOL0     C91375   8.429  10.577   5.309 -0.8085  0.9308  0.6768
  663MOL0     C91376   8.478  10.564   5.168 -0.2821 -0.1766  0.3558
  663MOL0     C91377   8.442  10.688   5.078 -0.0536  0.0850  0.0596
  663MOL0     C91378   8.331  10.655   4.976 -0.1770  0.0343  0.1128
  663MOL0     C91379   8.256  10.771   4.914  0.0023 -0.9754  0.0678
  663MOL0     O91380   8.342  10.866   4.861  0.5401 -0.2670  0.8107
  663MOL0     C91381   8.352  10.895   4.729  0.3010  0.4477  0.0447
  663MOL0     C91382   8.478  10.913   4.678 -0.5118  0.0100  0.4395
  663MOL0     C91383   8.494  10.964   4.550 -0.1283 -0.1146 -0.1939
  663MOL0     C91384   8.643  10.981   4.492  1.2078  0.2095  0.2294
  663MOL0     C91385   8.379  10.995   4.465  0.3319 -0.7908 -0.2069
  663MOL0     C91386   8.381  11.075   4.347  0.8216 -0.6234  0.0837
  663MOL0     O91387   8.283  11.059   4.255 -0.2344 -0.2076 -0.2971
  663MOL0     C91388   8.272  11.152   4.155  0.5145  1.0519 -0.3312
  663MOL0     C91389   8.221  11.283   4.188  0.0559 -0.3778  0.2046
  663MOL0     C91390   8.204  11.375   4.082 -0.0124  1.5263  0.3653
  663MOL0     C91391   8.222  11.345   3.948 -0.3031  0.2808  0.6665
  663MOL0     O91392   8.199  11.429   3.839 -0.2479  0.1668 -0.0705
  663MOL0     C91393   8.058  11.449   3.819  1.0620 -0.6684  0.1693
  663MOL0     C91394   8.049  11.590   3.765 -0.5027  0.1635 -1.2674
  663MOL0     C91395   8.094  11.588   3.615  0.1060  0.5565  0.6098
  663MOL0     C91396   8.158  11.722   3.573 -0.1993  0.2387 -1.1288
  663MOL0     C91397   8.199  11.713   3.425  0.6426 -0.0894  0.2892
  663MOL0     C91398   8.332  11.637   3.383  0.5371 -0.5408 -0.6458
  663MOL0     C91399   8.328  11.621   3.225 -0.2730 -0.0976 -0.8663
  663MOL0     C91400   8.347  11.760   3.157  0.1661 -0.7645  0.6324
  663MOL0    Cl91401   8.337  11.721   2.979  0.2766 -0.3660  0.2533
  663MOL0     C91402   8.260  11.205   3.928  0.2576 -0.4198 -0.3243
  663MOL0     C91403   8.292  11.118   4.026 -1.3914  0.2177 -0.2545
  663MOL0     O91404   8.474  11.154   4.338 -0.2395  0.0300 -0.7342
  663MOL0     C91405   8.258  10.967   4.511  0.4801 -0.1826  0.0734
  663MOL0     C91406   8.241  10.918   4.647  0.7011 -0.2164 -0.2136
  663MOL0     N91407   8.304  10.538   5.356  1.2859  0.3315 -0.7859
  663MOL0     N91408   8.309  10.560   5.485  0.6706 -0.1594  0.1882
  663MOL0     C91409   7.889  11.220   5.638  0.5575  0.8939 -0.9603
  663MOL0     C91410   7.814  11.281   5.540 -0.3874 -0.7939 -0.3575
  663MOL0     C91411   7.540  11.444   5.253 -0.2800  0.5829  0.5640
  663MOL0     C91412   7.423  11.391   5.189 -0.3647 -0.8341  0.0185
  663MOL0     C91413   7.369  11.451   5.075 -0.5752  0.1128 -0.1838
  663MOL0     C91414   7.421  11.580   5.033  1.3354 -0.2221  0.2412
  663MOL0     O91415   7.363  11.650   4.933 -0.1871  0.2697 -0.1865
  663MOL0     C91416   7.285  11.589   4.832  0.5864  0.0871 -0.0673
  663MOL0     C91417   7.131  11.605   4.871 -0.4497  0.2067 -0.0155
  663MOL0     C91418   7.100  11.747   4.939  0.0418 -0.8788  0.0599
  663MOL0     C91419   6.962  11.760   4.996  0.2919  0.0773 -0.2210
  663MOL0     C91420   6.951  11.864   5.104  0.4743  1.1596 -0.5531
  663MOL0     C91421   6.945  11.948   5.185 -0.5783 -0.2580 -0.7815
  663MOL0     C91422   7.532  11.639   5.103  0.9529  0.5993  0.3754
  663MOL0     C91423   7.588  11.570   5.209 -0.0192 -0.1900  0.9481
  663MOL0     C91424   7.717  11.624   5.271  0.0199  0.3910 -0.0857
  663MOL0     H91425   7.731  11.014   5.350  2.8938 -2.5897 -0.5991
  663MOL0     H91426   7.845  10.898   5.514  0.2837 -0.1870  2.2552
  663MOL0     H91427   8.001  10.833   5.667 -0.2075 -2.5887  1.3830
  663MOL0     H91428   7.841  10.866   5.754  0.3977 -0.6975  1.5484
  663MOL0     H91429   7.959  10.885   5.964  0.3084 -3.2001  2.8663
  663MOL0     H91430   7.977  10.728   5.884 -0.0421  0.5468  1.5518
  663MOL0     H91431   8.198  10.899   5.804  0.2501  0.5834  0.0766
  663MOL0     H91432   8.167  10.922   5.976 -1.5519 -2.0135  2.4249
  663MOL0     H91433   8.185  10.661   5.992  0.2162 -2.6131 -0.8609
  663MOL0     H91434   8.203  10.671   5.817  0.1633  0.5503  0.3370
  663MOL0     H91435   8.384  10.792   6.033  2.2439  2.3335 -0.7168
  663MOL0     H91436   8.416  10.838   5.871  0.8696 -1.3082 -1.3841
  663MOL0     H91437   8.563  10.643   5.948  0.5422 -2.7801 -0.0508
  663MOL0     H91438   8.418  10.544   5.965 -0.4886 -0.3382 -0.2300
  663MOL0     H91439   8.375  10.511   5.748  0.5002 -0.1092 -1.2276
  663MOL0     H91440   8.545  10.515   5.738  0.9472  0.3748  2.2531
  663MOL0     H91441   8.350  10.745   5.672 -0.1149  0.9776  0.5796
  663MOL0     H91442   8.525  10.759   5.642  0.3619 -0.7564 -0.0899
  663MOL0     H91443   8.599  10.687   5.407 -0.7625  1.0977  1.0930
  663MOL0     H91444   8.442  10.474   5.116 -0.0538 -1.2648  2.0278
  663MOL0     H91445   8.587  10.556   5.170 -0.1499  1.4472  1.0524
  663MOL0     H91446   8.407  10.777   5.132  1.0762  1.8269 -1.9165
  663MOL0     H91447   8.530  10.714   5.017  0.1993 -2.5105 -0.7775
  663MOL0     H91448   8.370  10.613   4.883  0.2323 -2.9910  1.5316
  663MOL0     H91449   8.252  10.594   5.019  1.5581 -1.3449  1.5237
  663MOL0     H91450   8.183  10.726   4.847 -1.2923 -0.4211  1.0694
  663MOL0     H91451   8.198  10.812   4.997 -0.5403 -1.5586 -0.0165
  663MOL0     H91452   8.559  10.870   4.736 -0.5091 -1.2337 -0.4332
  663MOL0     H91453   8.701  10.903   4.542  1.3845 -1.3349 -2.2359
  663MOL0     H91454   8.671  11.081   4.526 -1.2166  2.0136 -2.5304
  663MOL0     H91455   8.659  10.967   4.385  2.5203 -2.3884  0.6934
  663MOL0     H91456   8.225  11.290   4.296 -0.8234 -0.7371  0.2736
  663MOL0     H91457   8.152  11.468   4.103 -2.0149  0.4493  0.4224
  663MOL0     H91458   8.026  11.368   3.753 -2.2571 -0.8861  1.8640
  663MOL0     H91459   8.001  11.430   3.910  1.1948 -1.4813  0.0934
  663MOL0     H91460   7.944  11.617   3.783 -0.4407 -0.9132  1.0754
  663MOL0     H91461   8.108  11.657   3.828 -1.2983  0.0842 -0.4173
  663MOL0     H91462   8.014  11.558   3.548  0.9366  0.6125 -0.4366
  663MOL0     H91463   8.168  11.508   3.604  0.9271  1.6173 -2.7855
  663MOL0     H91464   8.244  11.752   3.634 -1.0161 -1.7299  1.1615
  663MOL0     H91465   8.082  11.799   3.586 -1.1642 -1.0779  2.3363
  663MOL0     H91466   8.112  11.670   3.375 -0.4432  2.0456  0.2366
  663MOL0     H91467   8.204  11.816   3.389 -1.2207  0.2581  0.8855
  663MOL0     H91468   8.330  11.536   3.424 -0.7099  0.3955  1.8102
  663MOL0     H91469   8.422  11.688   3.417  0.0560 -1.4810  2.2383
  663MOL0     H91470   8.235  11.575   3.189  1.5133 -3.8974 -1.2111
  663MOL0     H91471   8.405  11.548   3.197 -0.1683 -1.1106  1.7395
  663MOL0     H91472   8.448  11.794   3.182  0.6082  0.3170 -2.2463
  663MOL0     H91473   8.272  11.836   3.181  2.0053  1.6230 -0.6741
  663MOL0     H91474   8.275  11.171   3.826  0.0295 -3.3449  0.5260
  663MOL0     H91475   8.318  11.020   3.989 -0.5391  0.1651  0.4655
  663MOL0     H91476   8.173  10.982   4.445 -1.2850 -1.5905  1.9105
  663MOL0     H91477   8.142  10.907   4.691  0.5746 -2.3584 -0.9340
  663MOL0     H91478   7.941  11.266   5.722  0.7537  1.4841 -1.4010
  663MOL0     H91479   7.807  11.389   5.531  3.3192 -0.4463 -0.5940
  663MOL0     H91480   7.367  11.314   5.241 -2.7814  0.9452  0.1858
  663MOL0     H91481   7.282  11.402   5.032  0.4464 -1.3681 -0.6448
  663MOL0     H91482   7.299  11.634   4.734 -0.1411 -0.9376 -0.6627
  663MOL0     H91483   7.316  11.484   4.820 -1.7361 -0.4219 -2.3626
  663MOL0     H91484   7.114  11.524   4.942 -2.4414 -0.2098 -0.9127
  663MOL0     H91485   7.079  11.587   4.777  0.3976 -2.5574 -0.0396
  663MOL0     H91486   7.175  11.753   5.018  1.2955  0.3329 -1.1404
  663MOL0     H91487   7.119  11.831   4.870 -4.0316 -0.0922 -0.3789
  663MOL0     H91488   6.926  11.667   5.041 -0.3796  0.5121  0.1590
  663MOL0     H91489   6.893  11.784   4.914 -0.8743  0.6936  0.9080
  663MOL0     H91490   6.955  12.025   5.260  0.6407 -2.0175  0.9483
  663MOL0     H91491   7.573  11.737   5.081  0.3051  0.6082 -0.8808
  663MOL0     H91492   7.790  11.545   5.286  1.2429  1.5242  0.1516
  663MOL0     H91493   7.762  11.702   5.208 -3.4403  1.8039 -1.0565
  663MOL0     H91494   7.702  11.656   5.374 -0.2831 -1.4269  0.4569
  664MOL0     O91495   4.182   2.936   7.349 -0.2058  0.3967 -0.3950
  664MOL0     C91496   4.142   2.977   7.236 -0.3633  0.2551 -0.3078
  664MOL0     O91497   4.040   3.056   7.223  0.1702 -0.1266  0.1020
  664MOL0     C91498   3.958   3.068   7.332  0.1516 -0.4958 -0.8577
  664MOL0     C91499   3.991   3.146   7.441  0.1278 -0.6976 -0.1739
  664MOL0     C91500   3.896   3.189   7.535 -0.2652 -0.4521  0.3602
  664MOL0     C91501   3.765   3.154   7.526  0.7374  0.9034  0.3804
  664MOL0     O91502   3.682   3.205   7.622 -0.3743 -0.6631 -0.4325
  664MOL0     C91503   3.589   3.118   7.691 -0.6877  0.4939 -0.4320
  664MOL0     C91504   3.467   3.199   7.721  0.0478  0.0231 -0.0427
  664MOL0     C91505   3.360   3.118   7.801 -0.5825 -0.7230  0.0963
  664MOL0     C91506   3.295   3.015   7.700 -0.2783  1.0161  0.0169
  664MOL0     C91507   3.146   2.964   7.722 -0.2855 -0.2889 -0.0330
  664MOL0     C91508   3.049   3.069   7.771 -0.2575 -0.2204 -0.5741
  664MOL0     C91509   2.906   3.020   7.791 -0.2720  0.4466  0.4917
  664MOL0     C91510   2.894   2.887   7.863 -0.2168  0.2344 -0.5478
  664MOL0     N91511   2.761   2.839   7.879  0.7600 -0.6834 -0.3548
  664MOL0     C91512   2.687   2.779   7.785  0.0920  0.0429  0.4148
  664MOL0     C91513   2.561   2.772   7.828  0.8560  0.6413  0.0212
  664MOL0     C91514   2.450   2.684   7.760  0.2610  0.0755 -0.1017
  664MOL0     C91515   2.309   2.734   7.796  0.4720  1.1423 -0.4304
  664MOL0     C91516   2.201   2.646   7.743  0.2372  0.4259  0.3267
  664MOL0     C91517   2.072   2.676   7.815 -0.3163  0.1114 -0.2089
  664MOL0     O91518   2.038   2.817   7.812  0.5083  0.5078 -0.4805
  664MOL0     C91519   1.934   2.855   7.727 -0.4814  0.0614 -0.0525
  664MOL0     C91520   1.908   2.808   7.598  0.3822  0.2766 -0.4407
  664MOL0     C91521   1.800   2.857   7.526  0.9593 -0.0996 -0.1952
  664MOL0     C91522   1.765   2.787   7.396 -0.4615 -0.2925  0.1459
  664MOL0     C91523   1.728   2.965   7.574  0.1436  0.0242 -0.5517
  664MOL0     C91524   1.607   3.023   7.501  0.7621  0.0915  0.5863
  664MOL0     O91525   1.508   3.080   7.572  0.3594 -0.0458  0.5649
  664MOL0     C91526   1.422   3.165   7.509 -0.1761  0.2316 -0.5152
  664MOL0     C91527   1.308   3.120   7.444 -0.6228  0.2671 -0.3751
  664MOL0     C91528   1.232   3.200   7.362  0.3015  0.2015  0.3817
  664MOL0     C91529   1.258   3.333   7.355  0.0455 -0.7054  0.5020
  664MOL0     O91530   1.183   3.431   7.286 -0.0983  0.1305  0.3767
  664MOL0     C91531   1.040   3.405   7.264  0.4739  0.1458 -0.0565
  664MOL0     C91532   0.970   3.442   7.397  1.6796 -0.1059 -0.2833
  664MOL0     C91533   0.829   3.507   7.374 -0.3392 -0.3988  0.5508
  664MOL0     C91534   0.728   3.418   7.310  0.5766 -0.4615  0.0802
  664MOL0     C91535   0.586   3.496   7.294 -0.0624 -0.8365 -0.9244
  664MOL0     C91536   0.480   3.405   7.244  0.0782 -0.4569 -0.1843
  664MOL0     C91537   0.348   3.480   7.230 -0.3014 -0.2882  0.4317
  664MOL0     C91538   0.279   3.390   7.117  0.7746 -0.3499  0.0341
  664MOL0    Cl91539   0.365   3.407   6.968  0.0929 -0.4390  0.2187
  664MOL0     C91540   1.367   3.378   7.426 -0.5114  1.0816 -0.6162
  664MOL0     C91541   1.455   3.298   7.498  0.6847 -0.9775 -0.5452
  664MOL0     O91542   1.626   3.042   7.382 -0.1858  0.4272 -1.0631
  664MOL0     C91543   1.757   3.007   7.700  1.2759 -0.1760 -0.1973
  664MOL0     C91544   1.862   2.963   7.769  0.2094 -0.3767 -0.6171
  664MOL0     N91545   2.557   2.836   7.956  0.7436 -1.0412 -0.6289
  664MOL0     N91546   2.678   2.875   7.983  0.5626  0.2620 -0.6626
  664MOL0     C91547   3.725   3.075   7.412 -0.2385  0.0693 -0.2254
  664MOL0     C91548   3.823   3.030   7.325 -0.7509  0.1016  0.2064
  664MOL0     C91549   4.227   2.938   7.120  0.0908  0.1826 -0.5710
  664MOL0     C91550   4.267   3.045   7.047 -0.3855 -0.6232  0.0198
  664MOL0     C91551   4.367   3.018   6.947 -0.7754  0.7714 -0.7145
  664MOL0     C91552   4.427   2.893   6.928 -0.7714 -0.1798  0.2948
  664MOL0     O91553   4.522   2.860   6.838  0.2868  0.2804  1.3033
  664MOL0     C91554   4.587   2.969   6.766  0.1301  0.1321  0.3071
  664MOL0     C91555   4.701   2.915   6.677 -1.3819  0.1961  0.7335
  664MOL0     C91556   4.838   2.874   6.741  0.8765  0.5870 -0.8251
  664MOL0     C91557   4.939   2.815   6.638 -0.1477 -0.3165 -0.4287
  664MOL0     C91558   5.051   2.759   6.704  0.4931  0.1201  0.7974
  664MOL0     C91559   5.150   2.701   6.756  0.2738 -0.8203  0.2941
  664MOL0     C91560   4.373   2.791   7.004  0.4747  0.5783 -0.4201
  664MOL0     C91561   4.272   2.806   7.096 -0.6363  0.1797 -0.2611
  664MOL0     C91562   4.238   2.686   7.173  0.0343 -0.2325 -0.7954
  664MOL0     H91563   4.096   3.168   7.457  0.0065 -1.3252  1.7959
  664MOL0     H91564   3.917   3.250   7.623  1.1987 -0.6046  0.1515
  664MOL0     H91565   3.641   3.086   7.781  2.4553 -0.3647 -2.3937
  664MOL0     H91566   3.561   3.026   7.639 -0.7906  1.3583 -1.9855
  664MOL0     H91567   3.491   3.286   7.783  1.2498 -1.4364  1.6686
  664MOL0     H91568   3.415   3.234   7.632  0.2402 -0.3689 -0.3141
  664MOL0     H91569   3.387   3.067   7.894  0.9410  0.0545  0.1126
  664MOL0     H91570   3.274   3.178   7.831 -2.1364 -1.8943 -1.7739
  664MOL0     H91571   3.283   3.059   7.601 -0.8745 -1.2663 -0.9994
  664MOL0     H91572   3.358   2.926   7.694  0.3610  1.5458 -1.4642
  664MOL0     H91573   3.157   2.881   7.793 -3.0742 -0.1959  0.6113
  664MOL0     H91574   3.108   2.916   7.632  1.6317  2.3591 -2.4234
  664MOL0     H91575   3.077   3.107   7.870 -3.3331  2.6507 -0.6490
  664MOL0     H91576   3.058   3.159   7.710  0.2826 -0.3509 -0.6964
  664MOL0     H91577   2.854   3.014   7.695 -2.0412 -1.1486  1.4869
  664MOL0     H91578   2.843   3.092   7.843 -0.5882  1.8017 -1.6348
  664MOL0     H91579   2.955   2.813   7.811  1.9137 -0.1905  2.3152
  664MOL0     H91580   2.943   2.906   7.959 -1.2938  2.4989 -0.3765
  664MOL0     H91581   2.720   2.726   7.696 -0.1975  2.5553 -1.2919
  664MOL0     H91582   2.456   2.584   7.804  1.7171  1.0556  2.0649
  664MOL0     H91583   2.470   2.693   7.653  0.5761  0.4507 -0.0125
  664MOL0     H91584   2.296   2.737   7.905 -1.2261 -5.7015  0.0189
  664MOL0     H91585   2.302   2.838   7.763  0.1232  2.2751  2.8706
  664MOL0     H91586   2.207   2.659   7.634  3.3384 -2.8329 -0.0814
  664MOL0     H91587   2.223   2.538   7.743 -1.1734  0.1162  0.1950
  664MOL0     H91588   1.988   2.622   7.769 -0.3091  1.8397 -2.4280
  664MOL0     H91589   2.066   2.644   7.919 -1.1785  0.4032 -0.1574
  664MOL0     H91590   1.970   2.725   7.565 -0.2451  0.5386 -2.4654
  664MOL0     H91591   1.764   2.839   7.300 -1.2901 -0.6072 -0.0256
  664MOL0     H91592   1.663   2.750   7.407 -0.5328  0.5220  3.2287
  664MOL0     H91593   1.824   2.695   7.384 -4.1127 -2.8793  0.5925
  664MOL0     H91594   1.273   3.018   7.438  1.3681 -0.3767 -2.7006
  664MOL0     H91595   1.150   3.144   7.317  1.9752 -3.0402  0.9985
  664MOL0     H91596   1.000   3.476   7.191 -1.9154  0.4416  1.4386
  664MOL0     H91597   1.016   3.303   7.233  0.1800  0.4845 -0.9801
  664MOL0     H91598   0.963   3.361   7.471  0.6399  2.1032  2.2237
  664MOL0     H91599   1.038   3.512   7.446 -0.0564 -1.5072  4.8303
  664MOL0     H91600   0.831   3.590   7.303 -0.5628  0.5724  1.6494
  664MOL0     H91601   0.786   3.541   7.469 -0.6565  1.8305 -0.3251
  664MOL0     H91602   0.696   3.336   7.374 -3.6004  1.0493  0.2664
  664MOL0     H91603   0.762   3.371   7.217  0.4827  1.4406 -0.9854
  664MOL0     H91604   0.556   3.548   7.385  1.9082  1.7903 -1.6602
  664MOL0     H91605   0.602   3.571   7.216  2.7232 -2.0362 -1.6288
  664MOL0     H91606   0.461   3.324   7.315 -1.5264 -1.3058 -1.4965
  664MOL0     H91607   0.517   3.362   7.151  4.2344 -4.7390  3.0095
  664MOL0     H91608   0.363   3.577   7.182 -1.1631 -0.9158 -1.1970
  664MOL0     H91609   0.291   3.481   7.323 -1.6805 -1.1655 -0.3667
  664MOL0     H91610   0.180   3.432   7.097  1.4884  1.2277 -0.3434
  664MOL0     H91611   0.259   3.289   7.153 -1.8218 -0.9665 -2.7532
  664MOL0     H91612   1.390   3.484   7.417 -0.6532  1.0590 -1.2923
  664MOL0     H91613   1.550   3.335   7.536  1.8597 -2.9723 -1.3728
  664MOL0     H91614   1.687   3.080   7.740 -0.9997 -0.4940 -3.2450
  664MOL0     H91615   1.884   3.006   7.866  0.4862  2.0901 -1.7054
  664MOL0     H91616   3.626   3.032   7.402 -0.3765  0.5201 -0.9156
  664MOL0     H91617   3.789   2.965   7.246 -1.1571  1.1721 -0.5300
  664MOL0     H91618   4.226   3.144   7.062  1.7982  0.4466 -0.5853
  664MOL0     H91619   4.406   3.102   6.890 -0.1895 -0.1185 -1.6478
  664MOL0     H91620   4.507   3.031   6.724  0.4907  3.7420  4.3064
  664MOL0     H91621   4.617   3.043   6.840  0.6492  0.1064  0.1254
  664MOL0     H91622   4.720   2.994   6.604 -0.5808 -2.7660 -2.5962
  664MOL0     H91623   4.672   2.833   6.609 -0.1337  1.6551 -1.7137
  664MOL0     H91624   4.873   2.960   6.800  4.4708 -0.6615 -0.9272
  664MOL0     H91625   4.812   2.805   6.822  0.7448  1.5023 -0.0579
  664MOL0     H91626   4.980   2.894   6.575  0.1352 -0.4837 -0.4581
  664MOL0     H91627   4.893   2.744   6.569  2.2981 -0.6578 -1.8147
  664MOL0     H91628   5.243   2.656   6.783  0.3238 -0.0098  1.5367
  664MOL0     H91629   4.418   2.692   7.001  2.0857  1.0921  2.6758
  664MOL0     H91630   4.299   2.691   7.264 -0.8267  0.7862 -0.2499
  664MOL0     H91631   4.133   2.676   7.202  0.4940  1.0751  1.5664
  664MOL0     H91632   4.267   2.600   7.112  2.8349 -0.8081  1.1650
  665MOL0     O91633   9.096   6.410   8.555 -0.4806  0.0518 -1.2074
  665MOL0     C91634   9.057   6.377   8.443 -0.9695  1.2718 -1.0344
  665MOL0     O91635   8.992   6.457   8.358  0.0066 -0.0316 -0.0763
  665MOL0     C91636   8.961   6.585   8.386  0.4134 -0.1124  0.0727
  665MOL0     C91637   8.824   6.620   8.368  0.2365  0.3460  0.3412
  665MOL0     C91638   8.782   6.747   8.371 -0.2004  0.2782  0.2420
  665MOL0     C91639   8.879   6.854   8.394 -0.7311  0.8295  0.2535
  665MOL0     O91640   8.839   6.983   8.401 -0.8364  0.2417 -1.4745
  665MOL0     C91641   8.732   7.027   8.315 -0.2966  0.0309 -0.2587
  665MOL0     C91642   8.741   7.180   8.305  0.0522  0.4590  0.0606
  665MOL0     C91643   8.851   7.234   8.206  0.0311  0.4348  0.5607
  665MOL0     C91644   8.819   7.367   8.152  0.0434 -0.3367  0.0549
  665MOL0     C91645   8.834   7.481   8.256  0.8643 -0.0759 -0.0716
  665MOL0     C91646   8.820   7.615   8.199  0.4316 -0.2750  0.0132
  665MOL0     C91647   8.807   7.724   8.301  0.0151  0.5559 -0.0660
  665MOL0     C91648   8.923   7.745   8.398  0.7260  1.1773 -0.2767
  665MOL0     N91649   8.972   7.638   8.482 -0.3296  0.1036  0.9758
  665MOL0     C91650   8.900   7.564   8.576  0.7003 -0.3409 -1.2169
  665MOL0     C91651   9.007   7.499   8.641 -1.1275  0.0566  0.0649
  665MOL0     C91652   8.999   7.405   8.760  0.0038  0.3969  0.5177
  665MOL0     C91653   8.955   7.261   8.729 -0.5723 -0.6070 -0.1064
  665MOL0     C91654   9.045   7.185   8.625 -0.5471 -0.5657 -0.3136
  665MOL0     C91655   9.185   7.171   8.685 -0.4834 -0.2439 -0.0846
  665MOL0     O91656   9.238   7.041   8.636 -0.3251 -0.8089  0.8404
  665MOL0     C91657   9.208   6.926   8.699  0.3310  0.7307 -0.5764
  665MOL0     C91658   9.288   6.816   8.661 -0.4724 -0.7468  0.2227
  665MOL0     C91659   9.261   6.688   8.711 -0.9051 -0.0257  0.5861
  665MOL0     C91660   9.365   6.577   8.675 -0.9094 -0.0957 -0.8726
  665MOL0     C91661   9.163   6.667   8.803 -0.0551  0.5778  0.2056
  665MOL0     C91662   9.149   6.543   8.875  0.0018 -0.0751 -0.2491
  665MOL0     O91663   9.258   6.499   8.950  0.5776  0.2253 -0.1249
  665MOL0     C91664   9.249   6.362   8.984  1.1631  0.2400  0.8932
  665MOL0     C91665   9.299   6.328   9.112  0.8107 -0.0870  0.3556
  665MOL0     C91666   9.327   6.192   9.140 -0.5738 -0.3010 -0.8243
  665MOL0     C91667   9.296   6.090   9.039 -1.0738 -0.4014 -0.7656
  665MOL0     O91668   9.322   5.952   9.045  0.3030 -0.1989  0.3827
  665MOL0     C91669   9.448   5.906   9.097 -0.1579 -0.2832 -0.4683
  665MOL0     C91670   9.479   5.746   9.104 -1.3199  0.1645  0.2145
  665MOL0     C91671   9.620   5.718   9.156 -0.7683 -0.1669  0.3309
  665MOL0     C91672   9.643   5.561   9.168  0.3985 -1.1632  0.6097
  665MOL0     C91673   9.619   5.472   9.043 -0.5058 -0.2899 -0.1495
  665MOL0     C91674   9.664   5.322   9.057  0.2361  0.6968  0.3979
  665MOL0     C91675   9.817   5.294   9.048  0.1958  0.3433  0.9706
  665MOL0     C91676   9.849   5.151   9.036 -0.0813 -0.4672 -0.6068
  665MOL0    Cl91677  10.028   5.121   9.011 -0.2155  0.0302  0.0497
  665MOL0     C91678   9.234   6.129   8.930  1.0369 -0.7770 -0.3575
  665MOL0     C91679   9.209   6.258   8.892 -0.0734 -0.2598 -0.4930
  665MOL0     O91680   9.044   6.493   8.872  0.2221  0.4949  0.2078
  665MOL0     C91681   9.076   6.776   8.831  0.3983 -0.1220  0.2124
  665MOL0     C91682   9.098   6.898   8.778  0.7555 -0.5914 -0.4019
  665MOL0     N91683   9.135   7.523   8.582  0.2413  0.5827 -0.0264
  665MOL0     N91684   9.107   7.609   8.484 -0.4957 -0.2793 -0.3073
  665MOL0     C91685   9.016   6.820   8.409 -0.2580 -0.1216  0.0526
  665MOL0     C91686   9.056   6.683   8.410  0.1652 -0.5281  0.1690
  665MOL0     C91687   9.106   6.240   8.388  0.4760  0.2830 -0.8823
  665MOL0     C91688   9.243   6.221   8.390 -0.4139  0.7751  0.0845
  665MOL0     C91689   9.294   6.101   8.336 -0.6280  1.1710  0.5959
  665MOL0     C91690   9.218   5.995   8.289 -0.7012 -0.0622  1.0869
  665MOL0     O91691   9.283   5.876   8.237 -0.2770 -0.5558 -0.4143
  665MOL0     C91692   9.334   5.867   8.102  0.7891 -0.5995 -0.4154
  665MOL0     C91693   9.483   5.828   8.129 -0.3863  0.5827 -0.2967
  665MOL0     C91694   9.584   5.855   8.011  0.8218 -0.0966 -0.3507
  665MOL0     C91695   9.698   5.767   8.018 -0.0495  0.1695  0.1048
  665MOL0     C91696   9.777   5.791   8.134 -0.3187 -0.1890  0.2156
  665MOL0     C91697   9.832   5.804   8.240 -0.5859 -0.4263 -1.0253
  665MOL0     C91698   9.081   6.015   8.283 -0.0979 -0.8978  0.9549
  665MOL0     C91699   9.031   6.142   8.341  0.6482  0.6298  0.8171
  665MOL0     C91700   8.884   6.157   8.356  0.4439 -0.1613 -0.0272
  665MOL0     H91701   8.750   6.542   8.358 -0.9146  1.5502 -0.9360
  665MOL0     H91702   8.676   6.773   8.364  0.0951  1.7179  0.6875
  665MOL0     H91703   8.647   6.994   8.376  1.9827 -1.0701  2.5773
  665MOL0     H91704   8.721   6.989   8.213  0.0120  1.0519 -0.6895
  665MOL0     H91705   8.646   7.215   8.262  1.5900  1.1423 -3.1197
  665MOL0     H91706   8.731   7.228   8.402  0.7619  1.1021 -0.1749
  665MOL0     H91707   8.947   7.237   8.258 -0.6507 -1.1623  1.9976
  665MOL0     H91708   8.848   7.167   8.120 -0.0773  2.1837 -0.8369
  665MOL0     H91709   8.883   7.389   8.066 -0.4064 -1.2836 -0.5409
  665MOL0     H91710   8.716   7.363   8.114  0.1270 -0.7309 -0.1379
  665MOL0     H91711   8.923   7.462   8.317  0.4502 -0.9970  0.2640
  665MOL0     H91712   8.751   7.462   8.325  1.8760 -2.6490  0.5702
  665MOL0     H91713   8.910   7.634   8.139 -1.8950  1.8072 -3.1457
  665MOL0     H91714   8.734   7.623   8.132  0.9090  2.1066 -0.4104
  665MOL0     H91715   8.719   7.689   8.356 -2.9789  3.1895 -2.7416
  665MOL0     H91716   8.783   7.820   8.254 -0.3110  1.0845  1.1603
  665MOL0     H91717   9.015   7.767   8.343  0.4204  1.1675 -0.7948
  665MOL0     H91718   8.903   7.827   8.468  0.0680 -0.8101  2.0111
  665MOL0     H91719   8.802   7.577   8.620  1.6118 -0.7328  1.0801
  665MOL0     H91720   8.927   7.447   8.831  0.2591  3.5445 -0.9169
  665MOL0     H91721   9.095   7.406   8.812 -1.0372  1.7462  2.5722
  665MOL0     H91722   8.938   7.208   8.823 -2.5163  0.3018  0.1066
  665MOL0     H91723   8.856   7.259   8.683 -1.5362  1.6840  1.6243
  665MOL0     H91724   8.994   7.092   8.599 -0.8900  0.0299 -1.8997
  665MOL0     H91725   9.047   7.246   8.534 -1.7036 -0.8848 -0.5713
  665MOL0     H91726   9.246   7.256   8.653 -0.0847 -0.7350 -0.6541
  665MOL0     H91727   9.187   7.181   8.794  1.4267 -1.9902  0.1024
  665MOL0     H91728   9.357   6.837   8.580 -1.6438  1.7938 -0.2049
  665MOL0     H91729   9.441   6.562   8.753 -2.0676 -2.2034 -0.0764
  665MOL0     H91730   9.425   6.597   8.586 -1.0690  1.5787 -0.6476
  665MOL0     H91731   9.313   6.483   8.656 -0.5183 -0.6016  0.4334
  665MOL0     H91732   9.310   6.404   9.188  3.5208  1.7234 -1.6351
  665MOL0     H91733   9.373   6.180   9.238  0.0443  1.3606 -0.8662
  665MOL0     H91734   9.527   5.949   9.034  1.3779 -1.3219  0.6602
  665MOL0     H91735   9.457   5.954   9.195 -1.0826  0.8572 -0.9165
  665MOL0     H91736   9.400   5.709   9.171  0.6749  0.8376  3.1204
  665MOL0     H91737   9.470   5.709   9.001  0.0960  2.5968 -0.8729
  665MOL0     H91738   9.633   5.762   9.255 -1.3775  1.5886 -0.3402
  665MOL0     H91739   9.693   5.768   9.092 -0.8604  1.5658  1.5229
  665MOL0     H91740   9.583   5.521   9.251  0.5088  4.4165  3.8402
  665MOL0     H91741   9.747   5.534   9.189  0.5082 -1.7510 -0.5793
  665MOL0     H91742   9.512   5.453   9.025 -0.3511 -0.6602 -0.7227
  665MOL0     H91743   9.647   5.517   8.947  0.0056 -1.5785 -0.6388
  665MOL0     H91744   9.607   5.262   8.985 -1.8174  1.3842  1.3604
  665MOL0     H91745   9.625   5.287   9.153 -0.7394  2.0267  0.5195
  665MOL0     H91746   9.861   5.325   9.143 -0.4166  0.5033  1.2077
  665MOL0     H91747   9.864   5.348   8.965 -1.8714 -0.8470 -1.0895
  665MOL0     H91748   9.788   5.098   8.962  1.0353 -2.2646 -0.2992
  665MOL0     H91749   9.813   5.114   9.133 -3.7307  4.1698  0.1270
  665MOL0     H91750   9.218   6.062   8.846  1.4834 -2.0599  0.5327
  665MOL0     H91751   9.163   6.277   8.796 -1.8784  0.0414  0.3823
  665MOL0     H91752   8.996   6.764   8.903  1.7430 -1.6162  1.5370
  665MOL0     H91753   9.020   6.968   8.805  2.5445  1.2798  0.2229
  665MOL0     H91754   9.085   6.900   8.433 -0.0022 -0.6789  1.2441
  665MOL0     H91755   9.157   6.657   8.441  0.9263  2.2159  0.3013
  665MOL0     H91756   9.315   6.291   8.433  0.9478 -0.8165  0.5273
  665MOL0     H91757   9.403   6.099   8.337 -0.6285 -0.9455  1.8131
  665MOL0     H91758   9.272   5.800   8.041  0.2673 -1.3517  0.8895
  665MOL0     H91759   9.327   5.966   8.057 -2.9629 -1.4066 -2.0027
  665MOL0     H91760   9.479   5.720   8.140  0.5971  0.2754 -2.5544
  665MOL0     H91761   9.513   5.888   8.216  1.4399 -1.2991  0.4465
  665MOL0     H91762   9.529   5.850   7.917  0.0956  3.1943 -0.2048
  665MOL0     H91763   9.621   5.958   8.018  3.0084 -0.9188  2.1442
  665MOL0     H91764   9.755   5.776   7.925 -1.2888 -1.6205 -0.9007
  665MOL0     H91765   9.667   5.663   8.024  0.1154  0.0960 -0.2689
  665MOL0     H91766   9.885   5.801   8.334  1.9004 -0.8085 -2.3451
  665MOL0     H91767   9.008   5.942   8.248  0.6318 -1.1346 -0.1387
  665MOL0     H91768   8.845   6.055   8.358 -1.3716  0.4928  1.8479
  665MOL0     H91769   8.850   6.211   8.444 -0.3864 -1.2351  0.3320
  665MOL0     H91770   8.844   6.205   8.266 -0.8236 -1.4549 -0.1868
  666MOL0     O91771   8.823   7.794   3.449 -0.7257 -0.0150 -0.2354
  666MOL0     C91772   8.914   7.867   3.406 -0.2940  0.3847  0.2946
  666MOL0     O91773   8.893   7.985   3.346 -0.1910  0.1950  0.5858
  666MOL0     C91774   8.759   8.014   3.311 -0.4782 -0.2918 -0.0029
  666MOL0     C91775   8.676   8.089   3.401  1.2023  0.8994  0.6536
  666MOL0     C91776   8.542   8.123   3.367 -0.0135 -0.4088  0.1867
  666MOL0     C91777   8.482   8.083   3.247 -0.5568 -0.5018  0.7981
  666MOL0     O91778   8.353   8.121   3.213  0.2077  0.5890 -0.2150
  666MOL0     C91779   8.287   8.100   3.085 -0.3135  0.0555  0.1389
  666MOL0     C91780   8.136   8.086   3.126 -0.1974 -0.0307 -0.1414
  666MOL0     C91781   8.109   7.965   3.220  0.3539 -0.6831  0.1267
  666MOL0     C91782   7.952   7.971   3.252 -0.3774  0.0846  0.0574
  666MOL0     C91783   7.923   7.884   3.379 -0.9214 -0.5981  0.0291
  666MOL0     C91784   7.776   7.912   3.419 -1.1436 -0.8575  0.2800
  666MOL0     C91785   7.745   7.906   3.572 -0.5731  0.3030 -0.2458
  666MOL0     C91786   7.786   7.780   3.640 -0.4514  0.1858 -0.2601
  666MOL0     N91787   7.676   7.685   3.638  0.4118 -0.3424 -0.0573
  666MOL0     C91788   7.645   7.581   3.557 -0.1932  1.4133 -0.0842
  666MOL0     C91789   7.526   7.538   3.613  0.1386  0.3779 -0.6433
  666MOL0     C91790   7.445   7.421   3.546 -0.5712 -0.3072 -0.7168
  666MOL0     C91791   7.311   7.378   3.609 -0.4325 -1.4121 -0.1068
  666MOL0     C91792   7.261   7.259   3.531 -0.2462 -0.5723  0.5439
  666MOL0     C91793   7.129   7.215   3.582  0.1173  0.9445  0.3785
  666MOL0     O91794   7.130   7.156   3.711  0.2494  0.5919 -0.7986
  666MOL0     C91795   7.221   7.049   3.727  0.8336  0.3327  0.9112
  666MOL0     C91796   7.277   7.042   3.850 -0.0755  0.0177 -0.1540
  666MOL0     C91797   7.342   6.926   3.895 -0.2256 -0.2355  0.8160
  666MOL0     C91798   7.391   6.929   4.040  0.5390 -0.3626  0.1110
  666MOL0     C91799   7.368   6.820   3.801 -0.1725  0.0494  0.2401
  666MOL0     C91800   7.451   6.700   3.832 -0.1288  0.0808  0.0359
  666MOL0     O91801   7.502   6.665   3.965  0.1541  0.2438  0.7209
  666MOL0     C91802   7.571   6.542   3.985 -0.0878  0.3150 -0.7901
  666MOL0     C91803   7.542   6.469   4.096  0.8513  0.1518  0.1140
  666MOL0     C91804   7.603   6.343   4.115  0.9676 -0.9295 -0.7574
  666MOL0     C91805   7.705   6.303   4.023  0.2943  0.5652  0.0671
  666MOL0     O91806   7.768   6.190   4.066 -0.4713 -0.2915 -0.7796
  666MOL0     C91807   7.752   6.067   3.986 -0.2194 -0.3761 -0.4324
  666MOL0     C91808   7.883   6.036   3.907 -0.1288 -0.3977  0.6364
  666MOL0     C91809   7.886   5.918   3.812  0.1515  0.4047 -0.2403
  666MOL0     C91810   7.790   5.935   3.698 -0.8581 -0.5155 -0.1328
  666MOL0     C91811   7.783   5.821   3.591 -0.0244 -0.8539 -0.7427
  666MOL0     C91812   7.675   5.847   3.478 -0.9803 -0.3295  0.0925
  666MOL0     C91813   7.682   5.988   3.425 -0.7358  0.1931 -0.1154
  666MOL0     C91814   7.608   6.010   3.298  0.0956  0.2650 -0.3285
  666MOL0    Cl91815   7.623   6.191   3.251  0.3895 -0.0597 -0.3671
  666MOL0     C91816   7.740   6.383   3.911  0.9790 -0.6194 -0.8058
  666MOL0     C91817   7.668   6.503   3.895 -0.1709 -0.5460  0.9793
  666MOL0     O91818   7.465   6.625   3.734  0.5813 -0.6549 -0.0950
  666MOL0     C91819   7.305   6.825   3.673 -0.5081 -0.5177  0.0002
  666MOL0     C91820   7.231   6.941   3.635  0.5101 -0.0488  0.0618
  666MOL0     N91821   7.499   7.596   3.733  0.0987 -0.7847  0.3773
  666MOL0     N91822   7.591   7.687   3.744  0.1850  0.0291  1.1967
  666MOL0     C91823   8.566   8.011   3.160  0.1420 -0.8915 -0.0492
  666MOL0     C91824   8.704   7.973   3.191 -0.0055 -0.2482  0.0335
  666MOL0     C91825   9.059   7.829   3.428 -0.6286  0.2543 -0.5921
  666MOL0     C91826   9.157   7.930   3.432 -0.0273  0.1903 -0.1699
  666MOL0     C91827   9.290   7.905   3.434 -0.3555 -0.3425  0.4755
  666MOL0     C91828   9.341   7.770   3.440  0.2474 -0.2025 -0.0442
  666MOL0     O91829   9.474   7.729   3.429 -0.5935 -0.1299 -0.1089
  666MOL0     C91830   9.570   7.825   3.461 -0.4230  0.4169 -0.5302
  666MOL0     C91831   9.703   7.754   3.459 -0.5260  0.6610 -0.6807
  666MOL0     C91832   9.752   7.724   3.319 -0.2211 -0.1889 -0.3379
  666MOL0     C91833   9.910   7.709   3.324 -0.0711  0.8407 -0.7578
  666MOL0     C91834   9.944   7.583   3.398 -0.1958  0.2114  0.6330
  666MOL0     C91835   9.955   7.484   3.466 -0.5516 -0.7340 -0.3667
  666MOL0     C91836   9.244   7.668   3.443  0.5231 -0.8658 -1.0517
  666MOL0     C91837   9.104   7.693   3.437 -0.1361 -0.3184 -0.6608
  666MOL0     C91838   9.016   7.573   3.440 -0.0237  0.3246  0.6692
  666MOL0     H91839   8.714   8.117   3.499  0.9029  0.1120  0.9980
  666MOL0     H91840   8.484   8.185   3.434 -0.8661 -1.2776  0.2857
  666MOL0     H91841   8.305   8.014   3.019 -0.2356 -1.1856  1.6999
  666MOL0     H91842   8.296   8.190   3.024 -0.1167 -1.4764 -2.1986
  666MOL0     H91843   8.095   8.180   3.162  0.9429 -0.0006  1.1271
  666MOL0     H91844   8.069   8.062   3.042 -1.5996 -1.3154  1.2880
  666MOL0     H91845   8.131   7.880   3.154  1.2578 -1.6070  1.5664
  666MOL0     H91846   8.172   7.951   3.308  3.5327 -2.7154 -2.2473
  666MOL0     H91847   7.922   8.072   3.282 -4.6925 -0.3226 -2.0728
  666MOL0     H91848   7.894   7.948   3.162 -2.4783  0.1086  1.3171
  666MOL0     H91849   7.986   7.926   3.459 -0.5205 -2.2971  0.6496
  666MOL0     H91850   7.948   7.781   3.352  0.0102 -0.5700  0.7101
  666MOL0     H91851   7.749   8.015   3.393 -0.9644 -0.7069  0.6956
  666MOL0     H91852   7.715   7.846   3.357 -0.9617 -1.1149  0.3730
  666MOL0     H91853   7.639   7.927   3.588 -0.7461  1.7189 -2.7700
  666MOL0     H91854   7.806   7.984   3.619  1.1409  0.1148 -1.9917
  666MOL0     H91855   7.870   7.744   3.580  0.4715  3.8364 -1.4789
  666MOL0     H91856   7.822   7.796   3.742  4.1077 -0.2774 -1.5635
  666MOL0     H91857   7.686   7.551   3.460 -3.4500 -4.1993 -0.1750
  666MOL0     H91858   7.504   7.329   3.551 -1.6093 -0.9523  2.7153
  666MOL0     H91859   7.436   7.455   3.443 -0.6304 -0.9569 -0.9275
  666MOL0     H91860   7.328   7.362   3.716  0.2374  1.0323  0.2035
  666MOL0     H91861   7.238   7.459   3.615  0.5425 -0.4550 -0.8269
  666MOL0     H91862   7.251   7.282   3.424  1.1428 -1.7857  0.1260
  666MOL0     H91863   7.340   7.185   3.535  2.8381  2.4107 -0.3163
  666MOL0     H91864   7.046   7.286   3.571  0.6874  1.3931 -1.4449
  666MOL0     H91865   7.097   7.137   3.513 -0.0160 -0.6480  2.1577
  666MOL0     H91866   7.251   7.105   3.934 -0.1859  0.6196 -0.6365
  666MOL0     H91867   7.495   6.896   4.048  0.0900 -1.3358  3.6450
  666MOL0     H91868   7.341   6.857   4.106  1.6992 -0.5385  0.8328
  666MOL0     H91869   7.368   7.025   4.087 -1.9670  0.0577 -1.7484
  666MOL0     H91870   7.457   6.499   4.158 -1.5783 -0.7661 -2.5643
  666MOL0     H91871   7.585   6.274   4.197  3.3304  1.2460  1.8023
  666MOL0     H91872   7.727   5.997   4.067  1.1279 -1.1831 -0.6891
  666MOL0     H91873   7.668   6.075   3.917 -0.1427 -1.0725 -0.6126
  666MOL0     H91874   7.914   6.122   3.846  1.8063 -2.3913 -1.3721
  666MOL0     H91875   7.947   6.017   3.993 -1.1815 -4.0423  0.7568
  666MOL0     H91876   7.855   5.833   3.873  3.1236 -0.2518  0.5107
  666MOL0     H91877   7.992   5.907   3.786  0.7674 -2.8966  2.8916
  666MOL0     H91878   7.835   6.021   3.647  1.4585 -1.5525  0.0223
  666MOL0     H91879   7.689   5.957   3.734  0.8550  3.5232  3.1053
  666MOL0     H91880   7.884   5.827   3.549  0.4159  0.5108  0.4192
  666MOL0     H91881   7.762   5.725   3.638 -1.4878 -0.0302  0.3596
  666MOL0     H91882   7.572   5.832   3.511 -0.5364 -2.7098  0.5766
  666MOL0     H91883   7.705   5.782   3.396  2.4347 -0.3341  1.2004
  666MOL0     H91884   7.787   6.020   3.423 -0.1368 -1.7065 -2.0442
  666MOL0     H91885   7.642   6.060   3.498  1.6343 -0.2431  1.7560
  666MOL0     H91886   7.501   5.997   3.317  0.2406  1.5126  1.7251
  666MOL0     H91887   7.653   5.934   3.235  0.2776  0.3606 -0.3164
  666MOL0     H91888   7.812   6.331   3.849  1.3605 -0.3548 -0.5823
  666MOL0     H91889   7.692   6.565   3.810  0.6313  0.4971  1.9372
  666MOL0     H91890   7.328   6.751   3.598  0.4499  2.6461 -3.1074
  666MOL0     H91891   7.199   6.949   3.532  2.0158 -1.2603 -0.5363
  666MOL0     H91892   8.524   7.997   3.060  1.6982  4.6857 -1.8278
  666MOL0     H91893   8.749   7.891   3.136 -0.2526 -0.1168 -0.3681
  666MOL0     H91894   9.125   8.034   3.433 -0.2531  0.2270  3.5960
  666MOL0     H91895   9.362   7.985   3.428 -0.9186  0.2359  1.1983
  666MOL0     H91896   9.577   7.900   3.380  2.1713 -0.3910 -1.1414
  666MOL0     H91897   9.531   7.857   3.558 -2.8304 -0.8123 -1.0075
  666MOL0     H91898   9.720   7.663   3.517  3.3960  1.1313 -0.7878
  666MOL0     H91899   9.773   7.827   3.502  0.9878 -1.0773 -0.0983
  666MOL0     H91900   9.703   7.633   3.284  0.5804 -1.6498  2.1419
  666MOL0     H91901   9.731   7.808   3.252 -0.0916  0.9173  0.9621
  666MOL0     H91902   9.950   7.794   3.379  2.0007 -0.3678 -0.2873
  666MOL0     H91903   9.956   7.705   3.225 -0.1851 -0.7534 -0.7725
  666MOL0     H91904   9.969   7.393   3.520  0.3599  0.9982  2.5238
  666MOL0     H91905   9.271   7.563   3.445  2.0614 -0.4784 -0.0410
  666MOL0     H91906   8.929   7.586   3.376 -0.0027  1.6261  0.8820
  666MOL0     H91907   9.071   7.482   3.411  0.8565  1.2387 -0.6301
  666MOL0     H91908   8.978   7.564   3.543 -2.8131 -0.4533 -0.3322
  667MOL0     O91909   8.082   6.315   3.811  0.4969 -0.5289  0.5624
  667MOL0     C91910   8.081   6.245   3.708  0.3271 -0.3501  0.7577
  667MOL0     O91911   7.992   6.262   3.605  0.3077 -0.2533  0.4194
  667MOL0     C91912   7.968   6.393   3.571  0.5449  0.3633  0.2112
  667MOL0     C91913   8.044   6.512   3.576  0.4364 -0.4590  0.0636
  667MOL0     C91914   7.986   6.625   3.529  0.2241 -1.2176 -0.4394
  667MOL0     C91915   7.853   6.639   3.488  0.5341  0.6582  0.4044
  667MOL0     O91916   7.798   6.765   3.471  0.1789 -0.0041  0.5299
  667MOL0     C91917   7.669   6.788   3.530 -0.5467  0.3021 -0.0434
  667MOL0     C91918   7.645   6.941   3.520 -0.6513  0.2522  0.7450
  667MOL0     C91919   7.570   6.978   3.387 -0.1497  0.0900  0.2197
  667MOL0     C91920   7.645   6.953   3.255 -0.8327 -0.0986 -0.4564
  667MOL0     C91921   7.759   7.054   3.236 -0.4658 -0.0705 -0.0216
  667MOL0     C91922   7.735   7.206   3.225 -0.1768 -0.7706 -0.2879
  667MOL0     C91923   7.875   7.277   3.193 -0.6025  1.5962  1.0666
  667MOL0     C91924   7.866   7.427   3.226  0.9091  0.4847 -0.3321
  667MOL0     N91925   8.001   7.480   3.201  0.4856 -0.0693 -0.9684
  667MOL0     C91926   8.102   7.494   3.297 -0.4470  0.4306  0.5387
  667MOL0     C91927   8.196   7.570   3.242 -0.4330  0.2302  1.1095
  667MOL0     C91928   8.314   7.642   3.299 -0.3929 -0.4139  0.2491
  667MOL0     C91929   8.302   7.721   3.430 -0.5718  0.6458 -0.7408
  667MOL0     C91930   8.313   7.628   3.553 -0.6282  0.2880  0.8532
  667MOL0     C91931   8.449   7.580   3.589 -0.2901 -0.3706 -0.3855
  667MOL0     O91932   8.430   7.447   3.645  0.2062  0.2568 -0.2166
  667MOL0     C91933   8.538   7.367   3.675  0.8184 -0.1964  0.4410
  667MOL0     C91934   8.515   7.251   3.755  0.1037 -0.3428 -0.1932
  667MOL0     C91935   8.622   7.172   3.798  0.6087  1.2974 -0.3459
  667MOL0     C91936   8.579   7.049   3.880  0.0141 -0.3102 -0.1866
  667MOL0     C91937   8.750   7.208   3.760 -0.0272  0.3446  0.4949
  667MOL0     C91938   8.871   7.121   3.778 -0.3310 -0.4293  0.1553
  667MOL0     O91939   8.994   7.186   3.759  0.7826  0.4423 -0.2446
  667MOL0     C91940   9.111   7.125   3.749 -0.4267 -1.0092 -0.3947
  667MOL0     C91941   9.204   7.184   3.656 -1.4651  0.7852 -0.3218
  667MOL0     C91942   9.333   7.123   3.638  0.5521 -1.4719  0.3095
  667MOL0     C91943   9.369   7.017   3.721 -0.5594 -1.1868  0.8344
  667MOL0     O91944   9.494   6.954   3.715 -0.3372  0.0220  0.0540
  667MOL0     C91945   9.602   7.043   3.686 -0.0795  0.0304  0.1736
  667MOL0     C91946   9.684   7.054   3.808  0.3139  0.9483  0.0854
  667MOL0     C91947   9.821   7.106   3.769  0.2441  0.1895  0.3051
  667MOL0     C91948   9.864   7.169   3.904 -0.0390  0.7010 -0.1244
  667MOL0     C91949  10.019   7.187   3.889 -0.1430  0.7504 -0.5159
  667MOL0     C91950  10.071   7.284   3.783  0.3177  0.5182 -1.0033
  667MOL0     C91951  10.045   7.432   3.809 -0.3117 -0.5142  0.5438
  667MOL0     C91952  10.128   7.485   3.927 -0.1116  0.7989  0.2493
  667MOL0    Cl91953  10.222   7.627   3.875 -0.2997 -0.3810  0.1772
  667MOL0     C91954   9.285   6.970   3.823  0.6118 -0.3883 -0.6435
  667MOL0     C91955   9.150   7.017   3.832 -0.0748 -0.2212  0.6391
  667MOL0     O91956   8.854   6.995   3.784  0.0857  0.3196  0.5974
  667MOL0     C91957   8.771   7.324   3.683  0.1853  0.4043  0.3834
  667MOL0     C91958   8.668   7.412   3.654 -1.1310  0.4283 -0.5730
  667MOL0     N91959   8.163   7.582   3.112  0.1117  0.5615  1.2413
  667MOL0     N91960   8.048   7.531   3.088 -0.3494 -1.1580  0.0570
  667MOL0     C91961   7.781   6.525   3.478  0.7310 -0.2771 -0.6619
  667MOL0     C91962   7.837   6.403   3.521  1.4649 -0.3934  0.0953
  667MOL0     C91963   8.169   6.126   3.692 -0.1036 -0.8769 -0.7778
  667MOL0     C91964   8.178   6.064   3.568 -0.2041  0.2970 -0.6716
  667MOL0     C91965   8.258   5.951   3.557 -0.2080  0.4107 -1.2400
  667MOL0     C91966   8.350   5.915   3.652 -0.7205  0.6556 -0.8090
  667MOL0     O91967   8.426   5.813   3.618 -0.6050 -0.2171  0.0573
  667MOL0     C91968   8.535   5.831   3.526  0.1674  0.2305 -0.2517
  667MOL0     C91969   8.675   5.843   3.593  0.7859  0.4996 -0.7124
  667MOL0     C91970   8.692   5.707   3.657 -0.1269  0.7529 -0.6256
  667MOL0     C91971   8.835   5.697   3.718  0.4914  0.1296 -0.0274
  667MOL0     C91972   8.927   5.649   3.618  0.4370  0.5453  0.1593
  667MOL0     C91973   8.993   5.593   3.530  0.0552 -1.0615  1.0314
  667MOL0     C91974   8.344   5.969   3.776  0.5639  0.2670  0.5609
  667MOL0     C91975   8.251   6.078   3.801 -0.1985  0.3528  0.2070
  667MOL0     C91976   8.264   6.140   3.938 -0.8328  0.5225 -0.1279
  667MOL0     H91977   8.146   6.521   3.613  0.7036  2.6886 -1.1315
  667MOL0     H91978   8.046   6.716   3.536  1.8335 -2.3136  0.6775
  667MOL0     H91979   7.658   6.761   3.635  0.7167 -1.1951 -0.2587
  667MOL0     H91980   7.589   6.735   3.477 -1.1466  1.4389 -0.3012
  667MOL0     H91981   7.571   6.961   3.598 -0.3936  0.3502  0.9659
  667MOL0     H91982   7.734   7.001   3.541 -1.9750  2.5901 -0.0731
  667MOL0     H91983   7.475   6.927   3.368  0.4997 -0.8442 -0.5872
  667MOL0     H91984   7.535   7.082   3.391 -0.7404 -0.1175  0.5517
  667MOL0     H91985   7.698   6.857   3.256  1.2471  0.9341  2.7772
  667MOL0     H91986   7.569   6.950   3.176 -0.5493 -2.2574 -0.7250
  667MOL0     H91987   7.800   7.021   3.140 -1.0055 -1.4756  0.2067
  667MOL0     H91988   7.845   7.023   3.297 -0.3036  1.0415  0.3425
  667MOL0     H91989   7.673   7.224   3.136  1.0555  1.9522 -0.6711
  667MOL0     H91990   7.695   7.252   3.316  2.9633 -1.2485  1.4730
  667MOL0     H91991   7.893   7.279   3.085  0.0583  1.9584  1.1755
  667MOL0     H91992   7.955   7.220   3.242 -0.2747 -0.0314 -1.2095
  667MOL0     H91993   7.791   7.477   3.165  4.2269  4.8098 -1.3569
  667MOL0     H91994   7.841   7.432   3.332 -0.5668 -2.4832 -0.4328
  667MOL0     H91995   8.088   7.455   3.398 -3.4257 -1.0214 -0.3188
  667MOL0     H91996   8.345   7.718   3.227  0.5165 -2.3268 -1.4833
  667MOL0     H91997   8.396   7.569   3.311  1.9360  1.8036 -1.0872
  667MOL0     H91998   8.392   7.781   3.420 -0.3331  0.2565 -0.9680
  667MOL0     H91999   8.211   7.782   3.431 -0.9803  0.1084  1.4214
  667MOL0     H92000   8.272   7.685   3.637 -1.0694  1.9390 -0.4319
  667MOL0     H92001   8.248   7.540   3.542  1.4900 -1.2006 -0.4981
  667MOL0     H92002   8.531   7.589   3.517  2.4764 -1.4472  2.4044
  667MOL0     H92003   8.485   7.654   3.661 -0.8007  1.1177 -1.6190
  667MOL0     H92004   8.413   7.223   3.779  0.7588 -2.2113  0.5483
  667MOL0     H92005   8.653   7.005   3.948 -1.5475 -1.2035  1.0168
  667MOL0     H92006   8.563   6.966   3.811  0.8350 -0.7714  0.1679
  667MOL0     H92007   8.492   7.059   3.946  0.7068 -0.5624  0.7771
  667MOL0     H92008   9.174   7.275   3.605 -4.1979  0.5968  0.7860
  667MOL0     H92009   9.404   7.166   3.569 -1.2660  1.8785  0.3368
  667MOL0     H92010   9.663   6.995   3.609  1.3964  3.4709 -0.9624
  667MOL0     H92011   9.575   7.143   3.652 -1.3214  0.0813  1.2231
  667MOL0     H92012   9.629   7.119   3.877 -1.4678 -0.0232 -0.3658
  667MOL0     H92013   9.700   6.959   3.859  2.1223 -0.0768 -2.2047
  667MOL0     H92014   9.812   7.191   3.701 -0.2520 -0.1069 -0.0048
  667MOL0     H92015   9.894   7.033   3.735  0.9460  1.4446 -0.9591
  667MOL0     H92016   9.856   7.110   3.996  2.3811 -1.6165 -1.2529
  667MOL0     H92017   9.814   7.266   3.906  2.2097  2.1955 -4.2143
  667MOL0     H92018  10.057   7.222   3.985  2.3464 -1.3852 -0.6194
  667MOL0     H92019  10.061   7.088   3.870 -0.1564  0.5649  0.3904
  667MOL0     H92020  10.037   7.246   3.686 -2.0451 -2.8104  0.9420
  667MOL0     H92021  10.179   7.265   3.784  0.3332  0.2007  2.3800
  667MOL0     H92022   9.940   7.463   3.806 -0.6717 -1.7051 -2.1673
  667MOL0     H92023  10.106   7.473   3.728  2.4235 -0.6124  2.4027
  667MOL0     H92024  10.193   7.407   3.967 -3.0669 -1.4217  1.0428
  667MOL0     H92025  10.063   7.503   4.013  0.2131 -1.0048  0.9173
  667MOL0     H92026   9.308   6.891   3.893 -0.5323 -2.3107 -2.3450
  667MOL0     H92027   9.073   6.989   3.903 -0.2672  2.7759  1.7389
  667MOL0     H92028   8.870   7.345   3.645  0.3488 -3.9371 -2.2503
  667MOL0     H92029   8.697   7.509   3.615 -1.6239 -1.0839 -5.2650
  667MOL0     H92030   7.677   6.529   3.448  0.6126  0.1380 -0.2116
  667MOL0     H92031   7.771   6.318   3.516  1.0524 -0.0138 -3.7903
  667MOL0     H92032   8.119   6.096   3.483 -0.4552 -3.0656 -1.9094
  667MOL0     H92033   8.240   5.885   3.473 -0.9041 -0.3421 -0.5123
  667MOL0     H92034   8.531   5.737   3.469  0.2602 -0.2116  0.4518
  667MOL0     H92035   8.521   5.912   3.454 -2.8025  0.0602  0.0305
  667MOL0     H92036   8.676   5.920   3.670 -3.3101  1.4596 -1.3966
  667MOL0     H92037   8.744   5.872   3.513  1.1173  1.9148  0.0632
  667MOL0     H92038   8.621   5.679   3.735  0.6297 -0.7564 -0.4309
  667MOL0     H92039   8.680   5.628   3.582 -1.2376 -1.5717  1.8300
  667MOL0     H92040   8.820   5.645   3.814 -3.1727  1.9689  0.5710
  667MOL0     H92041   8.855   5.799   3.751 -0.8050  1.3357 -2.6853
  667MOL0     H92042   9.043   5.559   3.441 -1.6030 -4.1614  1.1427
  667MOL0     H92043   8.422   5.953   3.850  0.5048  3.0066  1.3257
  667MOL0     H92044   8.299   6.070   4.014 -1.0218  0.8697  0.2802
  667MOL0     H92045   8.331   6.226   3.930  2.0954 -1.7510 -3.0337
  667MOL0     H92046   8.166   6.160   3.981 -0.9849  1.6696 -0.9730
  668MOL0     O92047   1.594   3.248   7.929 -0.5551 -0.4090  0.2499
  668MOL0     C92048   1.478   3.224   7.965  0.1488  0.0757  0.0189
  668MOL0     O92049   1.368   3.300   7.924  0.5320 -0.1454 -0.7374
  668MOL0     C92050   1.370   3.400   7.826 -0.6991  0.1464  0.1896
  668MOL0     C92051   1.471   3.491   7.801  0.1205  0.0613 -0.1879
  668MOL0     C92052   1.458   3.597   7.717 -0.0592 -0.1105  0.8268
  668MOL0     C92053   1.331   3.623   7.660 -0.2132 -0.1670  0.6153
  668MOL0     O92054   1.327   3.747   7.603 -0.4700 -0.1171  0.0481
  668MOL0     C92055   1.213   3.782   7.520  0.5169 -0.9444 -0.6140
  668MOL0     C92056   1.251   3.879   7.408 -0.2083  0.9211 -0.0606
  668MOL0     C92057   1.357   3.820   7.309  0.3262  0.0451 -0.4438
  668MOL0     C92058   1.502   3.853   7.354  0.4824 -0.2897 -0.3127
  668MOL0     C92059   1.607   3.812   7.261  0.0258 -0.6826  0.5290
  668MOL0     C92060   1.625   3.658   7.229 -0.4569  0.2385  0.3852
  668MOL0     C92061   1.716   3.642   7.106  0.2724  0.2310  0.3783
  668MOL0     C92062   1.779   3.517   7.069  0.9539  0.8322 -0.9886
  668MOL0     N92063   1.866   3.455   7.180  0.8100  0.2183  0.7213
  668MOL0     C92064   1.838   3.348   7.253 -0.7638  0.1333  0.5118
  668MOL0     C92065   1.959   3.332   7.330 -0.2816  0.1632  0.4717
  668MOL0     C92066   1.995   3.210   7.410 -0.4796  0.6160  0.5113
  668MOL0     C92067   1.964   3.244   7.560 -0.1624  0.8472  0.1263
  668MOL0     C92068   2.032   3.377   7.610 -1.0214  0.2205 -0.1171
  668MOL0     C92069   2.014   3.378   7.764  0.2532  0.1705  0.6289
  668MOL0     O92070   2.078   3.274   7.831  0.5836 -0.5465 -0.0696
  668MOL0     C92071   2.050   3.258   7.965  0.3147  0.8465  0.3499
  668MOL0     C92072   2.104   3.138   8.020 -0.0340 -0.1142 -0.5392
  668MOL0     C92073   2.079   3.097   8.151 -0.9912 -0.8149 -0.1644
  668MOL0     C92074   2.137   2.955   8.185 -0.1486  0.9241 -0.6296
  668MOL0     C92075   2.022   3.184   8.242 -0.3962 -1.2131 -0.4046
  668MOL0     C92076   1.981   3.154   8.374  0.3256  0.2578  0.1055
  668MOL0     O92077   1.960   3.025   8.403  0.4494  0.0842 -0.0783
  668MOL0     C92078   1.938   2.993   8.533 -0.0256  1.0156 -0.0494
  668MOL0     C92079   1.817   2.945   8.576  0.3958 -0.4054  0.0363
  668MOL0     C92080   1.793   2.887   8.699 -0.8878  0.4856  1.1189
  668MOL0     C92081   1.897   2.864   8.784 -0.0939 -0.2716  0.2588
  668MOL0     O92082   1.872   2.805   8.909  0.1347 -0.2756 -0.7339
  668MOL0     C92083   1.838   2.902   9.009  0.4497  0.9872 -0.3178
  668MOL0     C92084   1.854   2.830   9.144  0.1241  0.1850  0.9026
  668MOL0     C92085   1.822   2.935   9.252 -1.2802 -1.0535 -0.1834
  668MOL0     C92086   1.672   2.963   9.257 -0.0017 -1.1694 -0.2487
  668MOL0     C92087   1.634   3.017   9.388 -0.1887  0.4278  0.8680
  668MOL0     C92088   1.484   3.062   9.392 -0.0166 -0.8691 -0.3468
  668MOL0     C92089   1.439   3.113   9.529  0.0950  0.2172  0.4371
  668MOL0     C92090   1.485   3.248   9.586 -0.0564 -0.1621  0.5802
  668MOL0    Cl92091   1.420   3.366   9.462  0.2264 -0.0782  0.0709
  668MOL0     C92092   2.023   2.909   8.749 -0.2569  0.8826  0.3701
  668MOL0     C92093   2.051   2.976   8.623 -0.6271  0.2491 -0.9037
  668MOL0     O92094   1.971   3.245   8.452 -0.1543 -0.2537 -0.0663
  668MOL0     C92095   1.978   3.309   8.185 -0.6857 -0.3098 -0.5679
  668MOL0     C92096   1.979   3.339   8.053 -0.2371 -0.4573  1.0859
  668MOL0     N92097   2.040   3.446   7.310  0.3560  0.0321 -0.2396
  668MOL0     N92098   1.981   3.514   7.220 -0.6649  0.5295  0.4004
  668MOL0     C92099   1.230   3.530   7.677  0.0987 -0.4098 -0.3303
  668MOL0     C92100   1.249   3.418   7.755 -0.8661 -0.9788 -0.0894
  668MOL0     C92101   1.459   3.125   8.078  0.2161  0.8206  0.4907
  668MOL0     C92102   1.326   3.098   8.125  0.0580 -1.1424 -0.1530
  668MOL0     C92103   1.300   3.004   8.217 -0.2893 -0.0462 -0.1314
  668MOL0     C92104   1.399   2.925   8.278 -0.2064  0.8394 -0.0015
  668MOL0     O92105   1.387   2.817   8.363 -0.2444  0.5735  0.4092
  668MOL0     C92106   1.256   2.773   8.406 -0.2793 -1.5488 -0.2444
  668MOL0     C92107   1.280   2.658   8.505  0.2176 -0.0901 -0.7476
  668MOL0     C92108   1.324   2.517   8.456  0.7930  0.0005 -0.3307
  668MOL0     C92109   1.213   2.427   8.404 -0.8586  0.0295 -0.7729
  668MOL0     C92110   1.114   2.392   8.503  0.2035  0.0205 -0.3527
  668MOL0     C92111   1.036   2.379   8.600  0.7002  0.4162 -0.0114
  668MOL0     C92112   1.529   2.948   8.227  0.0576  0.2379 -0.0670
  668MOL0     C92113   1.558   3.052   8.139 -0.3466  0.2107 -0.6215
  668MOL0     C92114   1.710   3.077   8.104 -0.2776 -0.2757  0.2774
  668MOL0     H92115   1.566   3.474   7.851 -0.0638  0.5936  0.3584
  668MOL0     H92116   1.541   3.664   7.696  0.9386 -2.3570 -4.0547
  668MOL0     H92117   1.157   3.849   7.586  0.1102 -1.1459 -0.7562
  668MOL0     H92118   1.143   3.704   7.490 -4.1261  0.5783  4.6204
  668MOL0     H92119   1.163   3.915   7.354 -1.6175 -3.8385 -1.4369
  668MOL0     H92120   1.299   3.964   7.457  0.0184  0.4270  0.5831
  668MOL0     H92121   1.349   3.713   7.289  1.9663  0.0423 -1.2673
  668MOL0     H92122   1.343   3.855   7.206 -4.6517  0.4601  0.1528
  668MOL0     H92123   1.513   3.961   7.366  0.8546 -0.1131 -1.9325
  668MOL0     H92124   1.520   3.794   7.444  0.7359 -1.6606 -1.2315
  668MOL0     H92125   1.699   3.849   7.306 -1.1641 -0.7766  3.2336
  668MOL0     H92126   1.588   3.858   7.163  0.6278  1.7756  1.4870
  668MOL0     H92127   1.676   3.607   7.311 -3.5927 -1.4266  1.4641
  668MOL0     H92128   1.526   3.614   7.220 -0.5029  0.5217 -0.6032
  668MOL0     H92129   1.795   3.717   7.115  0.8803 -0.3034 -0.3633
  668MOL0     H92130   1.662   3.670   7.015 -0.5112  1.3803  1.1520
  668MOL0     H92131   1.693   3.452   7.051  0.0208  1.1570  1.8993
  668MOL0     H92132   1.832   3.535   6.975  2.3762  3.0656  0.1616
  668MOL0     H92133   1.746   3.291   7.245 -0.2705 -0.5741 -0.1447
  668MOL0     H92134   2.098   3.177   7.394  0.2092 -0.2073  5.2229
  668MOL0     H92135   1.928   3.130   7.376 -2.1380  1.5355  1.4909
  668MOL0     H92136   1.855   3.253   7.557 -0.2579 -0.0719  0.3974
  668MOL0     H92137   1.988   3.162   7.628 -1.0158 -0.9628 -1.6123
  668MOL0     H92138   2.138   3.396   7.591 -1.1052  0.9323  0.1025
  668MOL0     H92139   1.979   3.461   7.565  2.8145  2.1392 -1.5451
  668MOL0     H92140   2.040   3.478   7.799 -1.4665  1.9721 -2.7371
  668MOL0     H92141   1.909   3.348   7.772  0.2712 -0.1679 -0.2230
  668MOL0     H92142   2.166   3.074   7.958  2.6398  1.3964  0.4128
  668MOL0     H92143   2.173   2.950   8.289  3.2559  1.0976 -1.6686
  668MOL0     H92144   2.227   2.934   8.127  0.8123  1.6231  0.5666
  668MOL0     H92145   2.060   2.879   8.166  0.9236 -1.0739  2.2319
  668MOL0     H92146   1.729   2.958   8.514  1.9985  0.9324 -2.0938
  668MOL0     H92147   1.706   2.822   8.695  0.8319 -2.0021 -3.2494
  668MOL0     H92148   1.906   2.987   9.003  1.6946 -0.0689 -2.3032
  668MOL0     H92149   1.734   2.936   9.001  0.0109  0.3910  2.1203
  668MOL0     H92150   1.783   2.747   9.136 -0.5151  0.9161 -3.2646
  668MOL0     H92151   1.950   2.780   9.160  0.2998  0.5925  1.1508
  668MOL0     H92152   1.890   3.018   9.232  4.1020 -3.0492  6.2013
  668MOL0     H92153   1.850   2.894   9.350  0.2257 -1.6500 -0.8394
  668MOL0     H92154   1.609   2.882   9.219 -2.8092  1.4270 -1.6191
  668MOL0     H92155   1.641   3.038   9.184 -0.7198 -1.4771 -0.2675
  668MOL0     H92156   1.671   2.946   9.464  3.9026 -1.1647 -2.1970
  668MOL0     H92157   1.692   3.108   9.406  2.5971 -0.8376 -0.9600
  668MOL0     H92158   1.408   2.997   9.347 -0.3480  0.5860 -1.9610
  668MOL0     H92159   1.497   3.152   9.333  2.3349 -1.8267 -1.4040
  668MOL0     H92160   1.464   3.035   9.602  1.8223  2.1654  2.0702
  668MOL0     H92161   1.330   3.122   9.534  0.2718  2.1672  3.3763
  668MOL0     H92162   1.593   3.255   9.605 -0.5979  1.6269  3.8199
  668MOL0     H92163   1.446   3.256   9.688 -0.9694 -0.3108  0.2538
  668MOL0     H92164   2.097   2.898   8.828 -0.0391  0.3635  0.1019
  668MOL0     H92165   2.148   3.014   8.591 -0.7942  2.4402  0.9691
  668MOL0     H92166   1.930   3.385   8.246  0.2189  0.1237 -0.3905
  668MOL0     H92167   1.949   3.437   8.018  1.0783 -0.0457  1.0710
  668MOL0     H92168   1.136   3.550   7.625 -1.8286  0.1312  3.0770
  668MOL0     H92169   1.167   3.348   7.765 -0.1623 -1.8112 -0.0345
  668MOL0     H92170   1.255   3.170   8.085  1.3517  1.3555  1.7389
  668MOL0     H92171   1.197   2.983   8.244  1.0450 -3.0151  3.6656
  668MOL0     H92172   1.207   2.858   8.454  1.9290 -0.6728  0.6378
  668MOL0     H92173   1.196   2.752   8.318  0.3096  0.2218 -1.1091
  668MOL0     H92174   1.193   2.642   8.568  2.3292 -0.2333  2.3526
  668MOL0     H92175   1.358   2.702   8.569 -2.3453  2.9565  0.5202
  668MOL0     H92176   1.406   2.530   8.384  0.5316  0.2988 -0.5752
  668MOL0     H92177   1.360   2.486   8.555 -5.3391  1.7921  2.9330
  668MOL0     H92178   1.264   2.338   8.366  0.4582  0.9993 -1.3594
  668MOL0     H92179   1.150   2.475   8.328 -1.9041  1.4680  0.9059
  668MOL0     H92180   0.963   2.382   8.679 -0.6097 -1.1466 -1.1004
  668MOL0     H92181   1.594   2.875   8.275 -0.5420  1.5863  3.0334
  668MOL0     H92182   1.754   3.178   8.104  2.3435 -1.3184  1.5901
  668MOL0     H92183   1.780   3.026   8.171  0.6503 -1.8804 -1.7963
  668MOL0     H92184   1.741   3.033   8.008  2.1666  0.4744  0.6414
  669MOL0     O92185   6.568   8.769  10.734  0.0645 -0.7372 -0.6682
  669MOL0     C92186   6.607   8.764  10.620 -0.9831  0.0159 -1.1092
  669MOL0     O92187   6.530   8.771  10.511  0.2378 -0.4536  0.9510
  669MOL0     C92188   6.423   8.855  10.535 -1.5359  0.8165 -0.3774
  669MOL0     C92189   6.431   8.993  10.540 -0.1895 -0.1476 -0.0895
  669MOL0     C92190   6.321   9.075  10.536 -0.1416  1.0114 -0.5761
  669MOL0     C92191   6.193   9.011  10.537  0.2768 -0.3472 -0.2524
  669MOL0     O92192   6.067   9.081  10.543 -0.6494  0.2199 -0.1686
  669MOL0     C92193   6.069   9.233  10.542 -0.5593  0.8675 -0.8920
  669MOL0     C92194   5.923   9.278  10.546 -0.5581  0.0586 -0.1241
  669MOL0     C92195   5.853   9.236  10.684 -0.1620  1.3101  0.3152
  669MOL0     C92196   5.705   9.212  10.665  0.4118 -0.5232 -0.8668
  669MOL0     C92197   5.621   9.343  10.659 -0.7142  1.1768  0.4057
  669MOL0     C92198   5.615   9.387  10.511 -0.3331 -0.5604  0.6497
  669MOL0     C92199   5.527   9.301  10.430 -0.0181 -0.0397 -0.8851
  669MOL0     C92200   5.505   9.368  10.293  0.7173  0.7768  0.1816
  669MOL0     N92201   5.466   9.505  10.284  1.2772 -0.0205  0.4915
  669MOL0     C92202   5.368   9.582  10.352 -0.3061 -0.0128  0.2894
  669MOL0     C92203   5.375   9.711  10.296  0.5669  0.0456  0.2612
  669MOL0     C92204   5.312   9.828  10.347  0.0146  0.2925 -0.2601
  669MOL0     C92205   5.398   9.957  10.340 -0.2543  0.0473  0.4770
  669MOL0     C92206   5.358  10.029  10.205 -0.2298 -0.3185 -0.4589
  669MOL0     C92207   5.462  10.145  10.175  0.4032 -0.1795 -0.0903
  669MOL0     O92208   5.427  10.263  10.249 -0.1124  0.1015 -0.4862
  669MOL0     C92209   5.310  10.326  10.212  0.6495 -0.0425  0.5703
  669MOL0     C92210   5.276  10.368  10.083  0.3831 -0.8348  0.1810
  669MOL0     C92211   5.155  10.433  10.052 -0.2482 -0.5343 -0.0171
  669MOL0     C92212   5.112  10.443   9.908 -0.6362  0.5304 -0.8683
  669MOL0     C92213   5.071  10.469  10.161 -0.4584  0.3585  0.5233
  669MOL0     C92214   4.948  10.543  10.139  0.0659  0.4338  0.7212
  669MOL0     O92215   4.957  10.670  10.116 -0.1976  0.2208 -0.3402
  669MOL0     C92216   4.864  10.756  10.056 -0.4828 -0.7070 -0.3787
  669MOL0     C92217   4.919  10.858   9.983 -0.8899 -0.8886 -0.1582
  669MOL0     C92218   4.838  10.961   9.922 -0.6971  0.4817 -0.9720
  669MOL0     C92219   4.697  10.947   9.929  0.3030 -0.2249 -0.2498
  669MOL0     O92220   4.614  11.034   9.865  0.0865 -0.1608 -0.4174
  669MOL0     C92221   4.581  11.139   9.952  1.0809 -0.6592  0.0577
  669MOL0     C92222   4.433  11.210   9.941 -0.0906  0.8716  0.5833
  669MOL0     C92223   4.342  11.141  10.052  0.2295 -0.2643 -0.0720
  669MOL0     C92224   4.348  11.207  10.191 -0.1558 -0.3616 -0.3689
  669MOL0     C92225   4.229  11.184  10.282  0.2650 -1.0139 -0.7795
  669MOL0     C92226   4.214  11.035  10.329  0.3487 -0.1362 -0.5246
  669MOL0     C92227   4.284  11.008  10.465 -0.1949 -0.1948  0.2781
  669MOL0     C92228   4.433  10.972  10.455  0.4665 -0.5408  0.1079
  669MOL0    Cl92229   4.495  10.900  10.611  0.3405  0.1474 -0.0075
  669MOL0     C92230   4.641  10.839  10.005 -0.0241 -0.5575 -0.1424
  669MOL0     C92231   4.724  10.747  10.071 -0.6372 -0.7169  0.0180
  669MOL0     O92232   4.838  10.488  10.127  0.2751 -0.3318  0.2158
  669MOL0     C92233   5.116  10.440  10.297  0.3248  0.3862 -0.5884
  669MOL0     C92234   5.228  10.368  10.322 -0.8745  0.6898 -0.6442
  669MOL0     N92235   5.478   9.710  10.212  0.3136 -0.1403 -0.0597
  669MOL0     N92236   5.522   9.586  10.195 -0.4418  0.1399 -1.3821
  669MOL0     C92237   6.188   8.870  10.546 -0.0492  0.2795  0.1956
  669MOL0     C92238   6.305   8.800  10.536 -0.6865  0.4436 -0.0441
  669MOL0     C92239   6.752   8.725  10.609 -0.7440 -0.0313  0.8685
  669MOL0     C92240   6.822   8.757  10.485  0.2452 -0.1374 -0.8517
  669MOL0     C92241   6.959   8.727  10.471  0.2490 -0.6428 -0.7160
  669MOL0     C92242   7.019   8.653  10.569 -0.1093  0.8193  0.6367
  669MOL0     O92243   7.152   8.612  10.560 -0.4052 -0.1964 -1.3501
  669MOL0     C92244   7.175   8.474  10.510  0.5186 -0.2187 -0.7643
  669MOL0     C92245   7.168   8.360  10.627  0.0621 -0.7544  0.4513
  669MOL0     C92246   7.251   8.392  10.754 -1.4294  0.0926 -0.0587
  669MOL0     C92247   7.404   8.355  10.735  0.5991 -0.0035  0.4180
  669MOL0     C92248   7.471   8.405  10.621 -0.0477 -0.4848 -0.8929
  669MOL0     C92249   7.538   8.461  10.538 -0.4476 -0.3795  0.3990
  669MOL0     C92250   6.954   8.634  10.687 -0.9973  1.5261 -0.2878
  669MOL0     C92251   6.827   8.659  10.713 -0.6969 -0.3877  0.7250
  669MOL0     C92252   6.769   8.610  10.845  0.4790 -0.1465  0.3015
  669MOL0     H92253   6.530   9.039  10.535  1.0896 -2.5264  1.6159
  669MOL0     H92254   6.347   9.179  10.548  2.3172  0.4516 -0.4084
  669MOL0     H92255   6.119   9.257  10.448  0.7815 -1.4908 -0.8501
  669MOL0     H92256   6.129   9.275  10.623 -0.0159 -2.8181  0.8217
  669MOL0     H92257   5.925   9.387  10.532  2.5227 -0.0489 -1.2673
  669MOL0     H92258   5.875   9.222  10.465  0.7048 -2.3423  0.7077
  669MOL0     H92259   5.904   9.150  10.729  2.6431  2.7272  0.0221
  669MOL0     H92260   5.872   9.318  10.753  5.1834  0.1496  0.6649
  669MOL0     H92261   5.680   9.142  10.584 -2.8602 -0.1734 -0.2879
  669MOL0     H92262   5.667   9.165  10.756 -1.6172 -0.5623 -1.6898
  669MOL0     H92263   5.670   9.419  10.720 -1.2428  1.1389  0.8811
  669MOL0     H92264   5.522   9.321  10.699 -1.5763  1.7600 -1.2861
  669MOL0     H92265   5.587   9.492  10.518  1.6575 -0.0299  1.1364
  669MOL0     H92266   5.705   9.388  10.449 -1.9904  2.5228 -1.9542
  669MOL0     H92267   5.435   9.276  10.482 -0.1481  1.2824 -0.4407
  669MOL0     H92268   5.567   9.201  10.412  2.1856  0.1741  2.0694
  669MOL0     H92269   5.596   9.363  10.232  0.2171  1.2751 -0.6155
  669MOL0     H92270   5.434   9.309  10.234  0.1642  0.9468  0.6695
  669MOL0     H92271   5.310   9.548  10.437 -2.6586 -0.0550 -1.2326
  669MOL0     H92272   5.285   9.817  10.453 -0.9896  0.9447 -0.4325
  669MOL0     H92273   5.219   9.848  10.294 -0.2429  1.6739  0.6540
  669MOL0     H92274   5.378  10.024  10.424  2.0499  1.3808  0.0431
  669MOL0     H92275   5.505   9.934  10.345 -0.1149 -0.2417 -2.1724
  669MOL0     H92276   5.356   9.962  10.119 -0.4160 -0.9706  0.0519
  669MOL0     H92277   5.258  10.069  10.222 -0.4802 -1.6980  1.6193
  669MOL0     H92278   5.559  10.099  10.195 -0.3551 -1.4599  0.7487
  669MOL0     H92279   5.462  10.169  10.068 -1.8133  2.0545  0.3341
  669MOL0     H92280   5.330  10.334   9.995 -0.9956 -0.1571 -0.9721
  669MOL0     H92281   5.155  10.531   9.859  1.3195 -0.8114 -1.6786
  669MOL0     H92282   5.004  10.456   9.912 -0.6075  0.4887  0.8973
  669MOL0     H92283   5.148  10.352   9.859 -0.0237  1.0003 -1.3100
  669MOL0     H92284   5.027  10.854   9.977 -0.4352  4.0142  1.1470
  669MOL0     H92285   4.889  11.042   9.871 -0.5235  1.6508  0.9676
  669MOL0     H92286   4.621  11.120  10.052 -1.0455 -1.2568  0.8653
  669MOL0     H92287   4.638  11.225   9.914 -2.5330  1.7384 -0.4414
  669MOL0     H92288   4.446  11.318   9.953 -0.0408  1.5673 -4.0761
  669MOL0     H92289   4.388  11.198   9.842 -1.5218  2.7319  0.9419
  669MOL0     H92290   4.369  11.036  10.058 -1.7355 -1.0286 -2.8939
  669MOL0     H92291   4.235  11.137  10.030  0.0641 -1.4162  0.8299
  669MOL0     H92292   4.371  11.313  10.179 -3.2573  0.7068  1.7420
  669MOL0     H92293   4.434  11.164  10.243 -0.4424 -0.3734  0.1006
  669MOL0     H92294   4.235  11.249  10.370  0.0882 -1.8980 -0.0855
  669MOL0     H92295   4.136  11.214  10.233 -0.2145  1.9444  1.6291
  669MOL0     H92296   4.229  10.958  10.253 -1.6118 -0.2443 -0.8662
  669MOL0     H92297   4.108  11.027  10.356  0.2326  1.1371 -0.5342
  669MOL0     H92298   4.226  10.926  10.507 -2.8236  1.3707 -0.0939
  669MOL0     H92299   4.276  11.092  10.535  1.8874 -1.0407  1.6340
  669MOL0     H92300   4.495  11.052  10.414  0.0256 -0.2891 -0.0705
  669MOL0     H92301   4.454  10.893  10.383  1.3162 -0.1516 -0.0834
  669MOL0     H92302   4.534  10.824  10.015 -0.0606  0.1227  0.6005
  669MOL0     H92303   4.694  10.676  10.148  3.2779  1.2120  3.7363
  669MOL0     H92304   5.059  10.473  10.383  0.7343 -0.9914  0.2276
  669MOL0     H92305   5.254  10.356  10.427  1.2990  2.8324 -0.8582
  669MOL0     H92306   6.096   8.813  10.558  0.2523 -1.1460 -3.2647
  669MOL0     H92307   6.289   8.693  10.522  0.2126  0.5242 -1.9266
  669MOL0     H92308   6.771   8.806  10.403 -1.4480 -2.6831 -1.4127
  669MOL0     H92309   7.011   8.755  10.380 -1.9452 -0.3656 -1.9698
  669MOL0     H92310   7.099   8.446  10.436 -0.0498  0.7060 -0.5479
  669MOL0     H92311   7.276   8.473  10.467 -0.1360 -0.3195 -2.3878
  669MOL0     H92312   7.197   8.268  10.576 -0.1580 -0.0867 -0.9104
  669MOL0     H92313   7.066   8.350  10.666 -0.2799  1.3600  0.1964
  669MOL0     H92314   7.248   8.497  10.782  0.0551 -1.0744  5.8798
  669MOL0     H92315   7.213   8.339  10.842  2.4629 -1.4272  0.9592
  669MOL0     H92316   7.416   8.246  10.732  2.3829  0.1360  1.2806
  669MOL0     H92317   7.445   8.391  10.830 -0.0897  2.8173 -0.2597
  669MOL0     H92318   7.587   8.519  10.462  1.6095 -2.4934 -0.0258
  669MOL0     H92319   7.014   8.580  10.759 -1.9237 -3.9618 -3.0861
  669MOL0     H92320   6.745   8.696  10.908 -0.7628  0.6190 -1.1425
  669MOL0     H92321   6.682   8.546  10.832  0.5580 -0.2502  0.2846
  669MOL0     H92322   6.842   8.545  10.895  1.7700  1.4557  0.6070
  670MOL0     O92323   0.626   5.884  10.568  0.2208  0.1359  0.2341
  670MOL0     C92324   0.745   5.904  10.575 -0.4498  0.2604 -0.5844
  670MOL0     O92325   0.809   5.900  10.689 -0.5770 -0.1327 -0.7985
  670MOL0     C92326   0.748   5.853  10.808  0.7029  0.0987 -0.0815
  670MOL0     C92327   0.763   5.923  10.921  0.2134 -0.1202  0.4337
  670MOL0     C92328   0.712   5.877  11.039  0.2370  0.5596  0.1123
  670MOL0     C92329   0.657   5.753  11.055  0.2191  0.6524 -0.0534
  670MOL0     O92330   0.634   5.708  11.182 -0.4180 -0.2211 -0.3851
  670MOL0     C92331   0.526   5.611  11.185 -0.0012  0.3735 -0.4311
  670MOL0     C92332   0.463   5.592  11.321 -0.6498 -0.4033 -0.3339
  670MOL0     C92333   0.549   5.580  11.449  0.1975 -0.2834 -0.3169
  670MOL0     C92334   0.472   5.530  11.574  0.6028 -0.5509  0.6773
  670MOL0     C92335   0.576   5.488  11.687  1.0855 -1.2560  0.7943
  670MOL0     C92336   0.497   5.420  11.801 -0.5065  0.4789  0.7493
  670MOL0     C92337   0.577   5.365  11.923 -0.0148 -0.6181 -0.3949
  670MOL0     C92338   0.502   5.257  11.992  0.1007  0.1720  1.3354
  670MOL0     N92339   0.564   5.247  12.117 -0.7360  0.5881 -0.6786
  670MOL0     C92340   0.505   5.291  12.237 -0.5966  0.2187  0.2688
  670MOL0     C92341   0.612   5.272  12.319 -0.4941 -0.1457 -0.5058
  670MOL0     C92342   0.609   5.309  12.466 -0.4116 -0.0897  0.3448
  670MOL0     C92343   0.636   5.455  12.491  0.2697  1.0699  0.4227
  670MOL0     C92344   0.518   5.551  12.445 -0.0821  0.8173 -0.3960
  670MOL0     C92345   0.563   5.700  12.464 -0.6084 -0.3800 -0.3811
  670MOL0     O92346   0.560   5.723  12.606  0.4858 -0.7543 -0.2764
  670MOL0     C92347   0.451   5.776  12.665  0.2630  0.4983 -0.1846
  670MOL0     C92348   0.466   5.806  12.800  0.3080 -0.4572  0.4560
  670MOL0     C92349   0.368   5.873  12.869 -1.4208 -0.1341  0.6562
  670MOL0     C92350   0.410   5.928  12.997 -0.0837  0.5690 -0.6082
  670MOL0     C92351   0.238   5.876  12.816 -0.3072 -0.7612  0.5272
  670MOL0     C92352   0.128   5.934  12.897  0.4754  0.0209 -0.7005
  670MOL0     O92353   0.125   5.922  13.034 -0.4134  0.3324  0.0608
  670MOL0     C92354   0.001   5.910  13.094  0.7362  0.7470 -0.4834
  670MOL0     C92355  -0.094   5.816  13.060  0.3452 -0.3237  0.0352
  670MOL0     C92356  -0.212   5.803  13.144  0.1584  0.0435 -0.3341
  670MOL0     C92357  -0.238   5.879  13.258 -0.2220  0.5874  0.6310
  670MOL0     O92358  -0.354   5.882  13.333  0.3456  0.7104  0.5014
  670MOL0     C92359  -0.437   5.771  13.319  1.1978 -0.7879 -0.4029
  670MOL0     C92360  -0.551   5.781  13.424  0.4649 -0.2123  0.5986
  670MOL0     C92361  -0.511   5.728  13.566 -0.6723  0.3410 -1.0589
  670MOL0     C92362  -0.617   5.769  13.669  0.1111 -0.3817 -0.7675
  670MOL0     C92363  -0.586   5.720  13.814  0.1739 -0.1894 -0.3090
  670MOL0     C92364  -0.706   5.744  13.910  0.7536  0.2437 -0.0754
  670MOL0     C92365  -0.674   5.728  14.054  0.5047 -0.8873 -0.2284
  670MOL0     C92366  -0.597   5.606  14.101 -0.3410 -0.7641 -0.0652
  670MOL0    Cl92367  -0.424   5.602  14.050 -0.1145  0.1678 -0.1729
  670MOL0     C92368  -0.140   5.970  13.289  0.8038 -0.0579  0.2050
  670MOL0     C92369  -0.026   5.991  13.209 -0.1723 -0.6869  0.5556
  670MOL0     O92370   0.037   5.985  12.832  0.7782 -0.3284 -1.0957
  670MOL0     C92371   0.221   5.836  12.681 -0.4350  0.8831 -0.1230
  670MOL0     C92372   0.329   5.786  12.605 -0.7922 -0.1870 -0.4905
  670MOL0     N92373   0.727   5.243  12.246  0.3024 -0.3516 -0.2187
  670MOL0     N92374   0.693   5.213  12.128 -0.0331 -0.0202 -0.2711
  670MOL0     C92375   0.638   5.671  10.942 -0.2144  0.4974  0.5516
  670MOL0     C92376   0.680   5.728  10.818  0.5664  0.2563  0.1248
  670MOL0     C92377   0.827   5.939  10.455  0.1064 -0.8150 -0.1764
  670MOL0     C92378   0.968   5.930  10.462  0.5232 -0.6687  0.4505
  670MOL0     C92379   1.047   5.991  10.361 -0.2464  0.3454  0.1426
  670MOL0     C92380   0.985   6.042  10.244 -0.8035  0.3748 -0.4197
  670MOL0     O92381   1.062   6.119  10.169  0.2190 -0.1720  0.3559
  670MOL0     C92382   1.041   6.124  10.022  0.5361 -0.3242 -0.6170
  670MOL0     C92383   1.086   5.988   9.960  0.5763  0.1222 -0.6869
  670MOL0     C92384   1.206   5.920  10.019 -0.7410  1.1099 -0.4156
  670MOL0     C92385   1.349   5.966   9.990  0.0712  0.0370  0.0088
  670MOL0     C92386   1.433   5.925  10.105 -0.5192  1.2924  1.0352
  670MOL0     C92387   1.495   5.917  10.202 -0.9317 -0.6603  0.3692
  670MOL0     C92388   0.856   6.025  10.228  0.7958  0.3848 -0.2831
  670MOL0     C92389   0.769   5.981  10.333  0.0829  0.0345 -0.7346
  670MOL0     C92390   0.619   5.966  10.299 -0.0941  0.7808 -0.4798
  670MOL0     H92391   0.815   6.018  10.925  0.2095 -0.0840 -0.2167
  670MOL0     H92392   0.722   5.938  11.128  0.2333  0.3140  0.2797
  670MOL0     H92393   0.560   5.512  11.154  0.8729  0.9047 -1.1830
  670MOL0     H92394   0.442   5.643  11.122  0.1057  3.5503  0.8842
  670MOL0     H92395   0.374   5.653  11.341 -1.4702 -2.2755  2.2126
  670MOL0     H92396   0.412   5.497  11.307 -0.2523 -0.7669  0.5743
  670MOL0     H92397   0.631   5.508  11.446  1.0882  0.5375  1.9471
  670MOL0     H92398   0.606   5.668  11.481  1.7016 -1.9559  1.8923
  670MOL0     H92399   0.406   5.609  11.612  0.4997  0.2947 -1.1934
  670MOL0     H92400   0.405   5.448  11.547  2.7085 -2.2858  0.4777
  670MOL0     H92401   0.618   5.581  11.725 -0.8068 -0.3753  0.8407
  670MOL0     H92402   0.655   5.424  11.646 -1.0844 -2.3675 -1.9831
  670MOL0     H92403   0.421   5.490  11.836  0.2527  1.0661  1.2429
  670MOL0     H92404   0.456   5.329  11.755  1.6389 -0.4184  0.5030
  670MOL0     H92405   0.591   5.443  11.998 -2.6670  1.1246 -1.5818
  670MOL0     H92406   0.671   5.333  11.877 -0.6218 -0.6958 -1.6062
  670MOL0     H92407   0.395   5.281  11.995 -0.6325 -1.8098 -2.6812
  670MOL0     H92408   0.527   5.164  11.941 -0.8636 -0.0335  1.2041
  670MOL0     H92409   0.401   5.309  12.260 -0.1143  0.7778  2.1567
  670MOL0     H92410   0.687   5.258  12.522  0.5144 -0.1225 -0.9228
  670MOL0     H92411   0.513   5.281  12.510  1.3807 -3.0218  2.7341
  670MOL0     H92412   0.647   5.474  12.598  0.1740 -0.6902  0.7727
  670MOL0     H92413   0.727   5.476  12.432  0.9334 -2.9003 -0.2567
  670MOL0     H92414   0.498   5.527  12.340 -1.6090  0.5058 -0.0528
  670MOL0     H92415   0.434   5.527  12.510  0.8142  0.3834  0.6337
  670MOL0     H92416   0.662   5.705  12.419 -0.2482 -1.8666  0.1920
  670MOL0     H92417   0.496   5.771  12.415 -0.0303  3.5760  3.8559
  670MOL0     H92418   0.569   5.793  12.832  2.3851  4.4159 -2.9458
  670MOL0     H92419   0.517   5.948  12.992  0.2096 -1.0345 -1.4090
  670MOL0     H92420   0.373   5.861  13.076  1.3993  0.9330  0.4237
  670MOL0     H92421   0.358   6.021  13.020  0.1870 -0.1477  3.5263
  670MOL0     H92422  -0.074   5.754  12.973 -0.7257 -0.2862 -0.2469
  670MOL0     H92423  -0.286   5.725  13.130 -1.1720  1.3093 -0.6192
  670MOL0     H92424  -0.480   5.775  13.218  2.4520  1.0290 -0.9320
  670MOL0     H92425  -0.381   5.681  13.344 -0.2598 -1.1155  1.9752
  670MOL0     H92426  -0.590   5.883  13.430  3.2339  0.8697  1.8341
  670MOL0     H92427  -0.628   5.711  13.390  2.3312 -2.3882  0.6285
  670MOL0     H92428  -0.423   5.775  13.611 -1.0787 -0.6637  0.9166
  670MOL0     H92429  -0.514   5.619  13.567 -3.1162  0.3549 -1.0091
  670MOL0     H92430  -0.710   5.715  13.646 -1.4231  1.6793  0.2300
  670MOL0     H92431  -0.636   5.876  13.672 -0.3066 -0.4830  1.0315
  670MOL0     H92432  -0.569   5.612  13.808 -0.6561 -0.2947 -0.9740
  670MOL0     H92433  -0.496   5.765  13.856  0.6995  0.2828 -1.8868
  670MOL0     H92434  -0.786   5.675  13.884  0.3265  0.5145  0.5013
  670MOL0     H92435  -0.741   5.847  13.896 -1.6533 -0.7058 -1.5461
  670MOL0     H92436  -0.770   5.706  14.101  1.4067 -1.8948  1.2307
  670MOL0     H92437  -0.631   5.813  14.107 -1.0808 -0.4913  0.4639
  670MOL0     H92438  -0.652   5.526  14.050  0.2174  0.1692 -2.2551
  670MOL0     H92439  -0.599   5.588  14.208 -1.4569  1.1059  0.2870
  670MOL0     H92440  -0.148   6.033  13.377  1.6012 -0.9058  0.9062
  670MOL0     H92441   0.050   6.067  13.227 -0.7281  0.6064 -2.0454
  670MOL0     H92442   0.130   5.849  12.623 -1.3045 -0.0768  0.9877
  670MOL0     H92443   0.316   5.766  12.499  2.1415  1.2524 -1.2248
  670MOL0     H92444   0.599   5.570  10.938  0.4997  0.2441 -2.2486
  670MOL0     H92445   0.664   5.672  10.726 -0.0032  2.4315 -1.1962
  670MOL0     H92446   1.018   5.884  10.546  1.3344 -0.2729  0.1956
  670MOL0     H92447   1.154   6.004  10.372 -0.2370  0.4898 -0.1244
  670MOL0     H92448   0.940   6.154   9.994  0.1190  0.5911  1.6059
  670MOL0     H92449   1.096   6.218  10.008 -0.5841  0.8581  2.1440
  670MOL0     H92450   1.094   6.008   9.853 -1.2675 -1.8909 -1.2709
  670MOL0     H92451   1.001   5.925   9.988  0.5122  0.7601  0.6742
  670MOL0     H92452   1.191   5.912  10.126  0.6912 -2.4513 -0.3231
  670MOL0     H92453   1.202   5.817   9.981 -0.8338  0.5096  1.1485
  670MOL0     H92454   1.362   6.073   9.972  0.8661 -0.3920 -2.3805
  670MOL0     H92455   1.380   5.927   9.892  1.9920  4.8436 -1.5905
  670MOL0     H92456   1.559   5.887  10.283  1.9764 -2.3475 -2.3020
  670MOL0     H92457   0.815   6.051  10.131  2.0010  1.1342 -0.6127
  670MOL0     H92458   0.612   6.021  10.205  0.8778  1.3158 -0.2521
  670MOL0     H92459   0.587   5.862  10.284 -2.0843  1.6446 -2.7059
  670MOL0     H92460   0.578   6.033  10.374  0.4718  2.9039 -1.9795
  671MOL0     O92461   2.108   1.246   3.888 -1.4337 -0.0727  0.3849
  671MOL0     C92462   2.162   1.183   3.795  0.2917  0.4100  0.5497
  671MOL0     O92463   2.290   1.135   3.813  0.0767  0.1879 -0.3139
  671MOL0     C92464   2.353   1.140   3.936 -0.2989  0.2017  0.5125
  671MOL0     C92465   2.340   1.033   4.026  0.8280 -0.1426  0.7668
  671MOL0     C92466   2.422   1.018   4.140 -0.5786  0.3574 -0.1190
  671MOL0     C92467   2.510   1.122   4.164 -0.5672 -0.6012  0.4345
  671MOL0     O92468   2.583   1.120   4.280  0.9297 -0.3058 -0.1380
  671MOL0     C92469   2.646   1.238   4.338 -0.1033 -0.0667 -0.1844
  671MOL0     C92470   2.689   1.217   4.483  0.1976  0.2005  0.0148
  671MOL0     C92471   2.744   1.346   4.543  0.8353 -0.0585  0.1410
  671MOL0     C92472   2.838   1.316   4.666  0.4480  0.4299  0.3125
  671MOL0     C92473   2.864   1.446   4.740 -0.8177 -0.2422  0.4652
  671MOL0     C92474   2.953   1.543   4.653 -1.0227 -0.2383 -0.1247
  671MOL0     C92475   3.021   1.650   4.737 -0.0014 -0.9028  0.2805
  671MOL0     C92476   2.930   1.737   4.827 -0.0301  0.1370 -0.5238
  671MOL0     N92477   2.979   1.875   4.827 -0.1838  0.3659  1.1209
  671MOL0     C92478   3.047   1.933   4.932  0.1648  1.2700 -0.6149
  671MOL0     C92479   3.070   2.058   4.887  0.0441 -1.0918  0.3300
  671MOL0     C92480   3.107   2.173   4.977  0.3149  0.0126 -0.9109
  671MOL0     C92481   3.155   2.304   4.909  0.9279  0.2665  0.4312
  671MOL0     C92482   3.175   2.422   5.006  0.8062 -0.2334  0.2043
  671MOL0     C92483   3.033   2.458   5.059  0.5244  0.0394  0.0169
  671MOL0     O92484   3.043   2.570   5.144  0.0129  0.3538 -0.3462
  671MOL0     C92485   2.945   2.665   5.152  0.8453  0.7177  0.1566
  671MOL0     C92486   2.976   2.784   5.212 -0.4466  0.2005  1.0341
  671MOL0     C92487   2.896   2.895   5.205 -0.6601  0.4534 -0.5412
  671MOL0     C92488   2.942   3.026   5.267  0.7389  0.3317  0.4871
  671MOL0     C92489   2.766   2.879   5.153 -0.4434 -0.6565 -0.8008
  671MOL0     C92490   2.681   2.995   5.112  0.4779 -0.5780  1.2730
  671MOL0     O92491   2.737   3.118   5.097  0.1866 -0.3281  0.0626
  671MOL0     C92492   2.650   3.229   5.086 -0.0567 -0.0070 -0.7642
  671MOL0     C92493   2.657   3.331   5.179  0.3758 -0.6051 -0.4731
  671MOL0     C92494   2.569   3.438   5.175  0.1659  0.7103  0.1274
  671MOL0     C92495   2.473   3.445   5.072 -0.6998  0.1635 -0.0616
  671MOL0     O92496   2.380   3.546   5.082 -0.2056  0.0219 -0.2969
  671MOL0     C92497   2.274   3.541   4.987 -0.1126 -1.1007 -0.1104
  671MOL0     C92498   2.168   3.651   5.011 -0.1288 -0.0008  1.3926
  671MOL0     C92499   2.220   3.796   4.994 -0.3941 -0.5436  0.3660
  671MOL0     C92500   2.124   3.901   5.045 -0.1256  0.2798  0.1035
  671MOL0     C92501   2.195   4.042   5.030  0.3430  1.2698 -0.2559
  671MOL0     C92502   2.100   4.150   5.098  0.2104  0.0924 -0.6999
  671MOL0     C92503   2.166   4.292   5.073  0.3209  0.0569 -0.6822
  671MOL0     C92504   2.140   4.383   5.197  0.1526 -0.0897 -0.7155
  671MOL0    Cl92505   2.185   4.553   5.158 -0.2264  0.2274 -0.0360
  671MOL0     C92506   2.487   3.346   4.963  0.3091 -0.6571 -0.9847
  671MOL0     C92507   2.571   3.238   4.976  0.4310 -0.3384  0.4358
  671MOL0     O92508   2.558   2.971   5.098  0.2074  0.5501 -0.5090
  671MOL0     C92509   2.729   2.751   5.112 -0.4009 -0.0045  0.7262
  671MOL0     C92510   2.817   2.645   5.118 -0.1479  0.4670  0.9579
  671MOL0     N92511   3.027   2.074   4.753 -0.3788  0.0227 -0.3614
  671MOL0     N92512   2.971   1.964   4.726 -0.1886 -0.5377 -0.1189
  671MOL0     C92513   2.526   1.230   4.072 -1.3045 -0.7109 -0.2250
  671MOL0     C92514   2.441   1.238   3.959  0.3463 -0.1111 -0.3530
  671MOL0     C92515   2.084   1.185   3.670 -0.4257 -0.0908 -0.2743
  671MOL0     C92516   1.991   1.290   3.650 -0.2264  0.4286 -0.5447
  671MOL0     C92517   1.912   1.292   3.531  0.3448  0.0047  0.0460
  671MOL0     C92518   1.917   1.184   3.443 -1.4027 -0.2738 -0.6688
  671MOL0     O92519   1.842   1.167   3.328  0.0184 -0.2772  0.1306
  671MOL0     C92520   1.704   1.215   3.337 -1.0415 -0.4698 -0.5584
  671MOL0     C92521   1.693   1.346   3.265  0.0178  0.3758  0.4257
  671MOL0     C92522   1.545   1.392   3.275 -0.2473 -0.4979 -0.9008
  671MOL0     C92523   1.533   1.542   3.227  0.1030  0.3266 -0.4836
  671MOL0     C92524   1.560   1.565   3.080 -0.8360  0.2059 -0.4449
  671MOL0     C92525   1.587   1.568   2.959 -0.8606 -0.0224  0.6181
  671MOL0     C92526   2.020   1.093   3.453  0.1443 -0.3996 -0.7276
  671MOL0     C92527   2.105   1.092   3.566  0.8726  0.3321 -0.5382
  671MOL0     C92528   2.219   0.985   3.555 -0.0379 -0.9449  0.7075
  671MOL0     H92529   2.263   0.963   3.996  2.1340 -0.3683 -2.4407
  671MOL0     H92530   2.414   0.929   4.202  1.1645 -0.0126 -0.3892
  671MOL0     H92531   2.585   1.328   4.328 -1.5890 -1.0412 -0.2906
  671MOL0     H92532   2.736   1.263   4.281  0.6052  2.4068  1.8489
  671MOL0     H92533   2.614   1.174   4.550  0.5483 -0.3620  0.0541
  671MOL0     H92534   2.768   1.142   4.488 -0.6768 -1.0331 -2.9418
  671MOL0     H92535   2.807   1.396   4.469  0.0977  0.5070 -0.1196
  671MOL0     H92536   2.655   1.405   4.569 -0.3659 -1.8552  0.3096
  671MOL0     H92537   2.790   1.236   4.721 -1.1828  0.5741 -0.8266
  671MOL0     H92538   2.929   1.274   4.621 -1.1387 -1.7574 -1.0728
  671MOL0     H92539   2.914   1.430   4.836  0.3903  1.5779  0.1871
  671MOL0     H92540   2.765   1.491   4.747 -2.2055 -2.8996 -0.8576
  671MOL0     H92541   3.034   1.482   4.612 -1.0389 -0.5274  0.2639
  671MOL0     H92542   2.897   1.592   4.574  1.3854  0.8323 -1.2787
  671MOL0     H92543   3.080   1.715   4.671 -2.3607 -0.7914 -1.8728
  671MOL0     H92544   3.093   1.601   4.804  0.8099  1.9479  1.6414
  671MOL0     H92545   2.830   1.742   4.783 -1.2902  2.8344  2.3137
  671MOL0     H92546   2.922   1.695   4.927  0.2204  0.5885 -0.3111
  671MOL0     H92547   3.072   1.894   5.030  3.1619 -0.0758 -1.7962
  671MOL0     H92548   3.194   2.141   5.035 -0.3147 -0.6357 -0.3073
  671MOL0     H92549   3.024   2.192   5.045 -0.4040 -0.1593 -1.7369
  671MOL0     H92550   3.246   2.277   4.855  1.0315  0.5846  0.4446
  671MOL0     H92551   3.083   2.325   4.829  0.3393  0.4650  1.0055
  671MOL0     H92552   3.241   2.392   5.087  0.6532  0.1722  0.4861
  671MOL0     H92553   3.220   2.509   4.958 -1.5956  2.3622  2.2854
  671MOL0     H92554   2.962   2.484   4.980  0.3845  0.6611  0.3391
  671MOL0     H92555   3.001   2.375   5.123  0.4320  0.2569  0.2545
  671MOL0     H92556   3.073   2.798   5.257 -0.2557  3.2264 -0.0571
  671MOL0     H92557   3.038   3.017   5.320  1.0537 -3.3501 -0.4240
  671MOL0     H92558   2.861   3.075   5.323  1.1556  0.3916  1.0513
  671MOL0     H92559   2.951   3.091   5.180 -0.2132  1.1886  1.0060
  671MOL0     H92560   2.725   3.314   5.261 -1.4095 -0.4304  1.0913
  671MOL0     H92561   2.565   3.516   5.250 -1.2915 -0.2877  1.1584
  671MOL0     H92562   2.316   3.575   4.893  0.5144  2.8880  1.4391
  671MOL0     H92563   2.222   3.445   4.974 -0.8954 -1.1297  2.4930
  671MOL0     H92564   2.086   3.644   4.939  1.1446 -0.2232 -0.0953
  671MOL0     H92565   2.125   3.640   5.111  3.4917 -3.3341  2.8359
  671MOL0     H92566   2.215   3.819   4.887 -1.1461  4.2577  1.2006
  671MOL0     H92567   2.325   3.809   5.018 -0.6476  2.1588  0.3244
  671MOL0     H92568   2.115   3.899   5.154  1.3030  1.8881  0.3004
  671MOL0     H92569   2.032   3.885   4.989  1.4297  0.5464 -2.6942
  671MOL0     H92570   2.298   4.036   5.067  0.7292 -2.1383 -1.5596
  671MOL0     H92571   2.201   4.062   4.922 -0.8569 -0.8080 -0.7556
  671MOL0     H92572   2.086   4.134   5.206  3.6205  2.3833  0.2279
  671MOL0     H92573   1.999   4.144   5.057  1.3176 -0.4393 -3.5146
  671MOL0     H92574   2.129   4.342   4.984  0.8472  0.6555 -0.5666
  671MOL0     H92575   2.273   4.278   5.056  0.6485 -1.4239  2.0345
  671MOL0     H92576   2.185   4.346   5.289 -1.0793  0.0683 -0.0282
  671MOL0     H92577   2.032   4.389   5.212  0.5716  0.4477  2.8200
  671MOL0     H92578   2.425   3.356   4.874 -2.1582 -0.2437  0.6780
  671MOL0     H92579   2.575   3.161   4.900 -1.6076 -0.0833  0.0154
  671MOL0     H92580   2.627   2.747   5.075 -0.2529  0.0413  0.3084
  671MOL0     H92581   2.776   2.547   5.093 -0.4065  0.6696  0.5606
  671MOL0     H92582   2.600   1.308   4.091 -0.3008 -1.4965 -0.8236
  671MOL0     H92583   2.430   1.317   3.885 -0.0757  0.0115 -0.1619
  671MOL0     H92584   1.993   1.375   3.718 -1.4682  1.3239 -1.5654
  671MOL0     H92585   1.850   1.380   3.514  1.8666  1.0139 -0.3976
  671MOL0     H92586   1.629   1.144   3.302 -1.2470 -1.8147  2.3387
  671MOL0     H92587   1.671   1.223   3.441 -1.0103  1.8352 -0.6825
  671MOL0     H92588   1.715   1.318   3.161  2.1376  1.6540  0.4639
  671MOL0     H92589   1.766   1.417   3.305  1.0825  0.8169 -2.1084
  671MOL0     H92590   1.489   1.341   3.196  1.7325 -0.9506 -2.0858
  671MOL0     H92591   1.501   1.381   3.374  0.2334 -0.1551 -0.6479
  671MOL0     H92592   1.605   1.604   3.282  1.0160 -0.8398 -0.3205
  671MOL0     H92593   1.429   1.566   3.251 -0.8154 -2.3705 -1.3731
  671MOL0     H92594   1.626   1.568   2.859 -0.6557 -0.7231  0.6930
  671MOL0     H92595   2.030   1.018   3.375 -2.3265 -0.7386 -0.7715
  671MOL0     H92596   2.309   1.025   3.601 -0.7548 -1.0818  2.2798
  671MOL0     H92597   2.192   0.892   3.605 -0.0052 -0.8448  0.9118
  671MOL0     H92598   2.239   0.954   3.452  0.1288 -0.6022  0.6351
  672MOL0     O92599   7.732   3.273   0.137 -0.1450 -0.2019 -0.4214
  672MOL0     C92600   7.844   3.263   0.193 -0.0872 -0.0715  1.0962
  672MOL0     O92601   7.900   3.363   0.273  0.4440  0.2708  0.0960
  672MOL0     C92602   7.828   3.477   0.283 -0.4396 -0.1955 -0.0899
  672MOL0     C92603   7.826   3.569   0.183 -0.1345 -0.8563 -0.2539
  672MOL0     C92604   7.747   3.691   0.190 -0.2077 -0.4728  0.6845
  672MOL0     C92605   7.674   3.714   0.312 -0.4212 -0.2119  1.0031
  672MOL0     O92606   7.591   3.821   0.332  0.9052  0.3563  0.1943
  672MOL0     C92607   7.524   3.859   0.210 -0.2044 -0.2202 -0.5679
  672MOL0     C92608   7.414   3.967   0.228 -0.0397  0.7349 -0.3419
  672MOL0     C92609   7.323   3.933   0.339  0.6157 -0.1897  0.1895
  672MOL0     C92610   7.211   4.023   0.372  0.4840 -0.7645  0.2071
  672MOL0     C92611   7.144   3.995   0.508  1.2554  0.7304  0.1532
  672MOL0     C92612   7.217   4.067   0.619  0.3181  0.4055 -0.0607
  672MOL0     C92613   7.193   3.996   0.746  0.0012 -0.3123 -0.2100
  672MOL0     C92614   7.315   3.951   0.821  0.2315  1.0179 -0.1216
  672MOL0     N92615   7.265   3.869   0.934 -0.6030  1.1783 -0.0412
  672MOL0     C92616   7.358   3.813   1.020  0.0906 -0.1209  0.6756
  672MOL0     C92617   7.279   3.726   1.087 -0.7004  0.2364 -1.0745
  672MOL0     C92618   7.314   3.631   1.207  0.0769 -0.0272  0.6538
  672MOL0     C92619   7.213   3.506   1.231  0.7157  0.6475  1.1723
  672MOL0     C92620   7.220   3.418   1.094  0.1408 -1.0403 -0.8473
  672MOL0     C92621   7.119   3.305   1.092  1.2385  0.2089  0.4336
  672MOL0     O92622   7.166   3.211   0.989 -0.3316  0.7350  0.2883
  672MOL0     C92623   7.111   3.089   0.956 -0.7972 -0.2729 -0.1207
  672MOL0     C92624   7.170   3.007   0.856  0.7076 -0.3617  0.6729
  672MOL0     C92625   7.123   2.881   0.830  0.0027 -0.7237 -0.0291
  672MOL0     C92626   7.211   2.797   0.739  1.0792 -0.2675 -0.0813
  672MOL0     C92627   7.005   2.836   0.897  0.8302  0.4712  0.1530
  672MOL0     C92628   6.936   2.704   0.865 -0.0207  0.4810 -0.0111
  672MOL0     O92629   6.845   2.662   0.958  1.1238 -0.3866  0.2054
  672MOL0     C92630   6.773   2.554   0.928 -0.0872 -0.0445 -0.7574
  672MOL0     C92631   6.678   2.553   0.817 -0.3129 -0.3598  0.4563
  672MOL0     C92632   6.595   2.438   0.785  1.5199  0.3168 -0.7955
  672MOL0     C92633   6.607   2.331   0.869 -0.0842 -0.1605  0.4663
  672MOL0     O92634   6.527   2.224   0.858 -0.5241  0.1463  1.0293
  672MOL0     C92635   6.549   2.151   0.741  0.4698  1.0909  0.1444
  672MOL0     C92636   6.432   2.046   0.739 -0.2522  0.0589  0.1888
  672MOL0     C92637   6.305   2.102   0.696  0.8769  0.0695  0.7351
  672MOL0     C92638   6.240   2.031   0.588  0.4258 -0.4673  0.9285
  672MOL0     C92639   6.134   1.927   0.627 -1.1762 -0.6915 -0.7037
  672MOL0     C92640   6.067   1.864   0.504  0.3108  0.5121  0.4507
  672MOL0     C92641   6.009   1.723   0.543 -0.2926  0.5126 -1.3541
  672MOL0     C92642   5.899   1.735   0.652  0.2239 -1.0216  0.4942
  672MOL0    Cl92643   5.965   1.756   0.828  0.3398 -0.1653 -0.1232
  672MOL0     C92644   6.693   2.331   0.980 -0.6416  0.2487  0.5472
  672MOL0     C92645   6.780   2.431   1.005  0.6444  0.4283  0.6474
  672MOL0     O92646   6.971   2.634   0.768  0.3769 -0.1273 -0.4587
  672MOL0     C92647   6.942   2.925   0.994  0.1807 -0.5508 -0.6945
  672MOL0     C92648   6.994   3.055   1.024  1.0544 -0.1559 -0.2053
  672MOL0     N92649   7.155   3.713   1.037  0.4305 -0.2128  0.5001
  672MOL0     N92650   7.144   3.802   0.946  0.1910  0.1373 -0.4131
  672MOL0     C92651   7.683   3.614   0.412 -0.1688 -0.6675  0.3771
  672MOL0     C92652   7.746   3.495   0.392 -0.5292  0.1143  0.2355
  672MOL0     C92653   7.898   3.131   0.208  0.4243  0.2927  0.6745
  672MOL0     C92654   7.937   3.091   0.340 -0.1839  0.7177  0.3428
  672MOL0     C92655   7.980   2.959   0.365  0.2424  0.6161 -0.8190
  672MOL0     C92656   7.973   2.870   0.266 -0.0854  0.5777 -0.6639
  672MOL0     O92657   8.010   2.743   0.299 -0.2490 -0.2504 -0.3174
  672MOL0     C92658   7.903   2.667   0.339 -0.2429 -0.1197 -0.0362
  672MOL0     C92659   7.889   2.549   0.244  0.0859 -0.4166 -0.4751
  672MOL0     C92660   7.796   2.576   0.126  0.5067 -0.0882  0.5436
  672MOL0     C92661   7.783   2.441   0.047 -0.5245  0.6736  0.0393
  672MOL0     C92662   7.684   2.356   0.123 -0.0383 -0.3748 -0.2972
  672MOL0     C92663   7.631   2.285   0.208 -0.0506  0.3761  0.9044
  672MOL0     C92664   7.963   2.909   0.132  0.6153  0.2023 -0.4179
  672MOL0     C92665   7.916   3.040   0.097  0.2483  0.5906  0.0917
  672MOL0     C92666   7.907   3.087  -0.044  0.2728  0.1681 -0.6790
  672MOL0     H92667   7.891   3.547   0.099 -0.9323 -2.5072 -0.4780
  672MOL0     H92668   7.754   3.775   0.121 -1.4402 -0.1787  0.8990
  672MOL0     H92669   7.486   3.777   0.148 -2.0769 -1.3141  1.8477
  672MOL0     H92670   7.596   3.917   0.151 -0.4780  2.7772  1.8260
  672MOL0     H92671   7.468   4.060   0.248  1.6989 -0.7357  2.3602
  672MOL0     H92672   7.357   3.970   0.135  1.2582 -2.2786 -1.3677
  672MOL0     H92673   7.277   3.838   0.309  1.9024 -0.5998 -0.5716
  672MOL0     H92674   7.374   3.913   0.433  0.6337  0.2303  0.2685
  672MOL0     H92675   7.246   4.127   0.375 -0.8661 -0.1839 -1.8630
  672MOL0     H92676   7.135   4.020   0.294  1.1222 -2.7625 -0.3916
  672MOL0     H92677   7.150   3.887   0.525  0.3508  0.4832 -1.0139
  672MOL0     H92678   7.047   4.042   0.493  1.2682  0.7303  0.0684
  672MOL0     H92679   7.324   4.072   0.595 -0.0064  1.9607 -1.3848
  672MOL0     H92680   7.185   4.172   0.620  0.6003  0.4906  0.9804
  672MOL0     H92681   7.131   3.909   0.723 -0.9221  0.7969 -2.2014
  672MOL0     H92682   7.138   4.059   0.816 -0.4232 -0.9453  0.0287
  672MOL0     H92683   7.361   3.881   0.750 -2.3928 -2.1148  1.0081
  672MOL0     H92684   7.384   4.030   0.850  1.2598  0.3558 -0.6868
  672MOL0     H92685   7.451   3.865   1.039  0.6732 -1.0518  0.3905
  672MOL0     H92686   7.311   3.687   1.301 -0.3678 -0.3918  0.8621
  672MOL0     H92687   7.415   3.591   1.197 -0.8080 -2.3388  0.4798
  672MOL0     H92688   7.240   3.442   1.315 -0.9865 -1.2847  0.3376
  672MOL0     H92689   7.110   3.538   1.250 -0.8891 -3.3387  0.3560
  672MOL0     H92690   7.193   3.489   1.015  1.9153  0.6438 -0.0295
  672MOL0     H92691   7.323   3.387   1.079  1.6896  2.1347  1.8929
  672MOL0     H92692   7.116   3.247   1.185 -2.9492  0.1186  0.4317
  672MOL0     H92693   7.025   3.357   1.071 -0.0640 -0.8468  3.2338
  672MOL0     H92694   7.260   3.036   0.803  1.7024 -2.2864  1.2086
  672MOL0     H92695   7.305   2.849   0.718  2.9478 -2.4826  2.1749
  672MOL0     H92696   7.161   2.768   0.646 -0.2501 -1.6607  1.0233
  672MOL0     H92697   7.229   2.701   0.787 -1.3809 -0.4536  0.6233
  672MOL0     H92698   6.697   2.639   0.753  0.4004  2.1896  3.8084
  672MOL0     H92699   6.516   2.435   0.710 -1.2960  0.9103  1.9454
  672MOL0     H92700   6.552   2.211   0.650  1.7181 -0.8418 -1.1648
  672MOL0     H92701   6.648   2.107   0.756  0.3061 -1.0055 -3.6442
  672MOL0     H92702   6.467   1.970   0.669  0.4817 -0.7032  1.3531
  672MOL0     H92703   6.422   2.009   0.841  0.2246 -2.0002 -0.4629
  672MOL0     H92704   6.317   2.199   0.646 -0.3877 -0.5348 -0.8427
  672MOL0     H92705   6.243   2.115   0.785 -2.0505 -5.0361 -0.1532
  672MOL0     H92706   6.303   1.988   0.510  1.5117  1.1475  0.8838
  672MOL0     H92707   6.193   2.107   0.525  0.1796 -3.1846 -2.4905
  672MOL0     H92708   6.196   1.856   0.681 -1.2711  1.4510  2.4995
  672MOL0     H92709   6.062   1.975   0.695  1.0657 -1.1327  2.1751
  672MOL0     H92710   6.136   1.837   0.423 -0.0303 -2.0212  0.9151
  672MOL0     H92711   5.989   1.924   0.457 -0.8767 -0.0018  1.6957
  672MOL0     H92712   6.086   1.648   0.564  0.6412  2.0676  1.4429
  672MOL0     H92713   5.961   1.686   0.452  2.2828 -2.2580 -1.7604
  672MOL0     H92714   5.854   1.636   0.647 -0.0984 -0.8754  0.4570
  672MOL0     H92715   5.833   1.822   0.640 -0.1678 -1.4364 -0.4499
  672MOL0     H92716   6.693   2.241   1.041  0.4188  0.5809  1.0615
  672MOL0     H92717   6.842   2.417   1.093 -0.8378 -1.7993  1.4205
  672MOL0     H92718   6.850   2.909   1.048  0.1283  1.3014 -0.1480
  672MOL0     H92719   6.943   3.105   1.106  1.9338 -2.2311  1.7092
  672MOL0     H92720   7.634   3.629   0.508  1.0056 -0.7789  1.0034
  672MOL0     H92721   7.754   3.426   0.476 -3.7278  1.7986  2.1071
  672MOL0     H92722   7.913   3.154   0.425  1.6181 -0.3464  1.7108
  672MOL0     H92723   7.997   2.915   0.462 -1.1337 -2.3829 -1.8183
  672MOL0     H92724   7.925   2.631   0.440 -1.4568  0.9024  0.6320
  672MOL0     H92725   7.810   2.724   0.344 -1.5971 -1.7770 -3.1620
  672MOL0     H92726   7.844   2.469   0.304  1.0164  0.4125  1.4138
  672MOL0     H92727   7.984   2.510   0.206 -0.3870 -1.6832 -0.4262
  672MOL0     H92728   7.699   2.615   0.158 -0.2217 -2.8642  2.0441
  672MOL0     H92729   7.828   2.653   0.056  2.9168 -1.5757 -0.1282
  672MOL0     H92730   7.886   2.406   0.036 -0.6026 -0.0921  1.4026
  672MOL0     H92731   7.743   2.457  -0.053  0.1923 -0.0554 -0.3771
  672MOL0     H92732   7.609   2.219   0.290 -0.1603  0.1415  0.6901
  672MOL0     H92733   7.973   2.838   0.051  1.6467 -0.3839  0.1962
  672MOL0     H92734   7.994   3.067  -0.108  0.7953  1.3689 -0.3826
  672MOL0     H92735   7.812   3.051  -0.084 -0.5290  2.1285 -0.6377
  672MOL0     H92736   7.889   3.195  -0.044 -1.7585 -0.0690  1.8072
  673MOL0     O92737   3.853   5.035   3.352  0.1025  0.2494 -0.5271
  673MOL0     C92738   3.763   4.978   3.414 -0.8408 -0.3839 -0.6427
  673MOL0     O92739   3.740   4.998   3.550  0.0544 -0.2586 -0.0337
  673MOL0     C92740   3.788   5.099   3.629  1.1362  0.1766 -0.6327
  673MOL0     C92741   3.857   5.209   3.590  0.0077 -0.3855  0.0449
  673MOL0     C92742   3.892   5.308   3.686 -0.0639  0.2191  0.7664
  673MOL0     C92743   3.858   5.303   3.824  0.0487  0.4502  0.2453
  673MOL0     O92744   3.906   5.388   3.922  0.9483 -0.1812  0.2342
  673MOL0     C92745   3.901   5.535   3.898 -0.5366  1.4207  0.5076
  673MOL0     C92746   4.028   5.608   3.894  0.4316 -0.1471 -0.3436
  673MOL0     C92747   4.017   5.758   3.916  0.0394  0.7718 -0.6681
  673MOL0     C92748   3.997   5.827   3.772 -0.1251 -0.3027  0.3259
  673MOL0     C92749   3.942   5.971   3.780 -0.1514  0.6433  0.8144
  673MOL0     C92750   3.967   6.066   3.649  0.2785  0.5495 -0.4580
  673MOL0     C92751   4.118   6.088   3.632  0.4227  0.7172  0.0815
  673MOL0     C92752   4.131   6.217   3.535  0.2929  0.3586  0.4384
  673MOL0     N92753   4.136   6.342   3.613 -0.7320 -0.1085  0.6205
  673MOL0     C92754   4.218   6.372   3.709 -0.4626 -0.6830  0.6123
  673MOL0     C92755   4.171   6.496   3.750  0.2491 -0.3653  0.6139
  673MOL0     C92756   4.219   6.585   3.859 -0.5467  0.0589  0.0590
  673MOL0     C92757   4.101   6.649   3.929  0.4822 -0.1242  0.2837
  673MOL0     C92758   4.139   6.736   4.057  0.6478 -0.7842  0.0091
  673MOL0     C92759   4.205   6.653   4.171  0.0895  0.1415 -0.8956
  673MOL0     O92760   4.347   6.639   4.151  0.0537 -0.0976  0.1622
  673MOL0     C92761   4.418   6.708   4.249  0.3245  0.1440 -1.0147
  673MOL0     C92762   4.433   6.651   4.377  0.0955 -0.1299  0.1106
  673MOL0     C92763   4.515   6.703   4.479  0.2537  0.0752  1.3786
  673MOL0     C92764   4.523   6.632   4.620 -1.4140 -0.5035  0.1004
  673MOL0     C92765   4.578   6.827   4.446  0.9520  0.7693  0.3109
  673MOL0     C92766   4.682   6.890   4.525 -0.6718  0.8542 -0.1729
  673MOL0     O92767   4.755   6.990   4.463 -0.0516 -0.0161 -0.3622
  673MOL0     C92768   4.837   7.066   4.541 -1.1901 -0.1157 -0.1015
  673MOL0     C92769   4.838   7.203   4.529 -0.7501 -0.6502  0.7732
  673MOL0     C92770   4.929   7.277   4.603 -0.0585  1.2691  1.0403
  673MOL0     C92771   5.037   7.213   4.666  0.4759  0.0828 -0.4316
  673MOL0     O92772   5.131   7.294   4.735 -0.2508  0.3740 -0.6597
  673MOL0     C92773   5.270   7.263   4.719 -0.0395 -0.2418  0.5148
  673MOL0     C92774   5.342   7.396   4.683 -0.9020 -0.1811  0.5091
  673MOL0     C92775   5.492   7.398   4.701 -1.1719 -0.2338 -0.3109
  673MOL0     C92776   5.549   7.531   4.654  0.2975 -0.2408  0.3431
  673MOL0     C92777   5.697   7.537   4.693  1.1969  0.3579 -0.0749
  673MOL0     C92778   5.768   7.652   4.622 -0.1210 -0.5621 -0.5181
  673MOL0     C92779   5.917   7.649   4.648  0.9656 -0.2685  0.0132
  673MOL0     C92780   5.987   7.767   4.585  0.3232 -0.5057  0.7239
  673MOL0    Cl92781   5.963   7.773   4.404  0.0601  0.1195  0.2198
  673MOL0     C92782   5.045   7.075   4.670 -0.1375  0.1902  0.5990
  673MOL0     C92783   4.942   7.000   4.608  0.3058 -0.1927 -0.1582
  673MOL0     O92784   4.689   6.862   4.644  0.1944 -0.8521 -0.3476
  673MOL0     C92785   4.558   6.879   4.318 -0.2078 -0.2550 -0.6558
  673MOL0     C92786   4.481   6.822   4.217 -0.8467  0.6173  0.2164
  673MOL0     N92787   4.079   6.544   3.658  0.2584 -0.1529  0.4553
  673MOL0     N92788   4.062   6.447   3.577 -0.5379 -0.1565 -0.2882
  673MOL0     C92789   3.773   5.200   3.852  0.6235 -0.0118  0.0515
  673MOL0     C92790   3.735   5.102   3.756 -1.0915 -0.3338  0.4378
  673MOL0     C92791   3.669   4.869   3.356  0.3111  0.2370 -0.1200
  673MOL0     C92792   3.555   4.821   3.434 -0.1486 -0.8016 -0.7214
  673MOL0     C92793   3.461   4.717   3.397 -0.2757  1.0041 -0.2610
  673MOL0     C92794   3.469   4.669   3.274 -0.8862 -0.1583  0.3459
  673MOL0     O92795   3.406   4.553   3.259 -0.9364  0.0798 -0.7565
  673MOL0     C92796   3.404   4.488   3.135 -0.1925  0.2149 -0.4310
  673MOL0     C92797   3.307   4.369   3.159 -0.1603 -0.2175  0.2498
  673MOL0     C92798   3.287   4.286   3.028  0.3030 -0.2146 -0.2034
  673MOL0     C92799   3.205   4.357   2.926  0.1186 -0.3696  0.3288
  673MOL0     C92800   3.161   4.269   2.817 -0.3419 -0.8999  0.0370
  673MOL0     C92801   3.134   4.203   2.722 -0.9478 -0.6067  0.3444
  673MOL0     C92802   3.567   4.725   3.183 -0.6005  0.6922  0.1761
  673MOL0     C92803   3.662   4.825   3.218 -0.3942  0.2967 -0.9665
  673MOL0     C92804   3.765   4.876   3.114  0.5082  0.8977  0.6874
  673MOL0     H92805   3.868   5.226   3.483  0.6784 -3.6663 -0.5142
  673MOL0     H92806   3.961   5.386   3.656  0.7740 -0.9483 -0.4523
  673MOL0     H92807   3.845   5.568   3.987  0.6082  1.2357  1.3182
  673MOL0     H92808   3.833   5.548   3.814 -1.8859 -0.4133  1.2298
  673MOL0     H92809   4.084   5.571   3.981 -0.5863 -0.9264 -0.0011
  673MOL0     H92810   4.089   5.592   3.804 -0.6389 -0.4134 -1.0322
  673MOL0     H92811   3.936   5.788   3.983  1.2994  3.5131 -0.2307
  673MOL0     H92812   4.110   5.796   3.959 -1.6446  3.6420  0.7352
  673MOL0     H92813   4.091   5.832   3.716  0.6841  0.7537  1.6893
  673MOL0     H92814   3.932   5.766   3.710  2.3114 -1.4176 -1.3002
  673MOL0     H92815   3.984   6.017   3.870 -0.2001  1.9160  0.2053
  673MOL0     H92816   3.834   5.969   3.798 -0.4566  0.4058 -0.8534
  673MOL0     H92817   3.926   6.008   3.565  1.7618  1.0732 -1.6006
  673MOL0     H92818   3.913   6.159   3.667  0.8879  1.2425 -2.0330
  673MOL0     H92819   4.155   6.005   3.572 -1.3375  0.5458 -0.8439
  673MOL0     H92820   4.174   6.092   3.725 -2.7378  3.7608  2.1291
  673MOL0     H92821   4.224   6.212   3.477  1.4834  0.2826  2.2805
  673MOL0     H92822   4.039   6.217   3.476 -0.8241 -0.8942  2.0842
  673MOL0     H92823   4.295   6.314   3.757  2.5434 -0.4226 -3.3913
  673MOL0     H92824   4.285   6.659   3.811 -0.8104  1.5234  1.8458
  673MOL0     H92825   4.277   6.523   3.928  1.4993  1.6806 -0.0755
  673MOL0     H92826   4.043   6.696   3.849  0.8677  0.0101  0.0767
  673MOL0     H92827   4.032   6.576   3.972 -1.4924  1.7574  0.4589
  673MOL0     H92828   4.212   6.816   4.038  0.2474 -1.1334 -3.5189
  673MOL0     H92829   4.053   6.778   4.111  2.2826  1.7418  0.8756
  673MOL0     H92830   4.178   6.695   4.269 -4.4767 -2.1229 -0.8928
  673MOL0     H92831   4.166   6.551   4.172  1.2534 -0.5083  3.7406
  673MOL0     H92832   4.380   6.560   4.400  2.0254 -0.8266  2.2211
  673MOL0     H92833   4.625   6.605   4.649 -0.9191 -0.8630 -1.8382
  673MOL0     H92834   4.446   6.554   4.631 -0.7233 -0.8665  3.3864
  673MOL0     H92835   4.492   6.701   4.699 -2.8707 -0.5493 -0.3987
  673MOL0     H92836   4.761   7.241   4.462 -0.6570  0.1906  1.1195
  673MOL0     H92837   4.933   7.385   4.617  3.9807  1.7019 -1.8717
  673MOL0     H92838   5.313   7.219   4.810 -0.1089 -1.8060 -0.1788
  673MOL0     H92839   5.289   7.186   4.644  0.8901 -3.0080  3.3937
  673MOL0     H92840   5.324   7.418   4.577  1.4446 -0.6945 -0.0520
  673MOL0     H92841   5.308   7.476   4.749 -0.1089  1.1524 -0.6227
  673MOL0     H92842   5.523   7.317   4.635  3.4220  2.3558 -1.8591
  673MOL0     H92843   5.513   7.387   4.808  0.5184  2.7262 -0.2043
  673MOL0     H92844   5.481   7.608   4.690 -1.1879 -2.1338  1.8264
  673MOL0     H92845   5.548   7.532   4.545  2.1080 -4.4956  0.0667
  673MOL0     H92846   5.711   7.539   4.801  0.1151 -2.5445  0.2205
  673MOL0     H92847   5.740   7.441   4.662  0.6979 -0.1313  0.7244
  673MOL0     H92848   5.716   7.746   4.643 -1.3416 -0.6235 -2.9066
  673MOL0     H92849   5.750   7.629   4.517  0.7964 -2.1859 -0.3472
  673MOL0     H92850   5.959   7.559   4.603  2.3396  0.7970 -0.9381
  673MOL0     H92851   5.943   7.663   4.753 -3.4231 -2.4443  1.6231
  673MOL0     H92852   6.094   7.758   4.606  0.8528  0.2917 -1.4163
  673MOL0     H92853   5.939   7.859   4.620  0.5453  0.5359 -1.5072
  673MOL0     H92854   5.129   7.020   4.711 -0.9577 -1.4315  0.1615
  673MOL0     H92855   4.935   6.892   4.616 -2.0787 -0.0324  0.8308
  673MOL0     H92856   4.598   6.976   4.287  3.4647 -1.0630  1.0225
  673MOL0     H92857   4.481   6.851   4.113  2.1677 -2.1549 -0.7244
  673MOL0     H92858   3.724   5.194   3.948  0.4214  2.4936  0.1727
  673MOL0     H92859   3.665   5.023   3.783 -1.7504 -1.2885 -3.4382
  673MOL0     H92860   3.546   4.857   3.536 -3.4021 -4.2843  0.4855
  673MOL0     H92861   3.382   4.700   3.469  2.0313  1.7155  2.6379
  673MOL0     H92862   3.364   4.553   3.056  0.8644  1.6534  0.1822
  673MOL0     H92863   3.503   4.453   3.102  0.1321 -0.5321  1.2409
  673MOL0     H92864   3.209   4.407   3.189 -0.5214 -0.5481 -0.4752
  673MOL0     H92865   3.346   4.318   3.247  1.7514  0.8339  0.0826
  673MOL0     H92866   3.382   4.247   2.992 -0.7191 -1.0760 -2.1082
  673MOL0     H92867   3.242   4.189   3.054 -0.5686 -0.7355 -3.2445
  673MOL0     H92868   3.254   4.448   2.891 -2.6310  1.6190  1.3260
  673MOL0     H92869   3.119   4.402   2.976  2.6041  1.8649  2.9594
  673MOL0     H92870   3.113   4.146   2.634 -0.3415 -0.1801 -0.0886
  673MOL0     H92871   3.570   4.698   3.077 -2.7614 -0.4891  0.3572
  673MOL0     H92872   3.751   4.838   3.012  0.2972 -0.3632  1.1608
  673MOL0     H92873   3.767   4.985   3.112 -0.2011  0.9377  1.5111
  673MOL0     H92874   3.864   4.841   3.145  1.1428 -0.9104 -2.8169
  674MOL0     O92875   8.883   0.233   9.955 -0.3738  0.5729 -0.8073
  674MOL0     C92876   8.877   0.270  10.066  0.0509  0.2586 -0.5981
  674MOL0     O92877   8.973   0.330  10.133 -0.2224  0.3510  0.6385
  674MOL0     C92878   9.099   0.305  10.084  0.9017 -0.2062  0.2615
  674MOL0     C92879   9.148   0.170  10.077 -0.0020 -0.1174 -0.1297
  674MOL0     C92880   9.279   0.152  10.038 -0.3784 -0.4627  0.1713
  674MOL0     C92881   9.357   0.257   9.993  0.2337  0.7500 -0.5110
  674MOL0     O92882   9.489   0.247   9.944 -0.2632  0.0532 -0.2834
  674MOL0     C92883   9.505   0.180   9.825 -0.0194  0.2808  0.1060
  674MOL0     C92884   9.658   0.153   9.806 -0.0170 -0.9638 -0.0514
  674MOL0     C92885   9.697   0.059   9.689 -0.3011  0.0709 -0.2108
  674MOL0     C92886   9.696   0.118   9.551  1.0037  0.0085 -0.5726
  674MOL0     C92887   9.783   0.031   9.461  0.3944  0.0534  0.0964
  674MOL0     C92888   9.815   0.101   9.327 -0.4923  0.2993  0.7673
  674MOL0     C92889   9.721   0.078   9.210 -0.4486  0.8465 -0.9182
  674MOL0     C92890   9.616   0.190   9.216  0.3988  0.1323 -0.5647
  674MOL0     N92891   9.476   0.141   9.206 -0.6470 -0.7321 -0.5991
  674MOL0     C92892   9.429   0.058   9.110 -0.5111  0.5888 -0.7519
  674MOL0     C92893   9.296   0.051   9.135  0.6001 -0.0316 -0.5487
  674MOL0     C92894   9.210  -0.037   9.052 -0.9195  0.7927  0.5584
  674MOL0     C92895   9.083   0.022   8.999  0.7716 -0.0719 -0.2704
  674MOL0     C92896   9.100   0.158   8.935 -0.8609 -0.7190 -0.3545
  674MOL0     C92897   8.978   0.200   8.874  1.0069  0.3136  0.0049
  674MOL0     O92898   8.979   0.149   8.741  0.1593  0.4530 -0.2482
  674MOL0     C92899   8.871   0.176   8.654  0.1776  0.0226  0.0985
  674MOL0     C92900   8.736   0.205   8.689 -1.1956  0.1978 -0.4993
  674MOL0     C92901   8.652   0.247   8.590 -0.3406 -1.0342 -0.3322
  674MOL0     C92902   8.522   0.301   8.628  1.2200 -0.0408  0.9593
  674MOL0     C92903   8.695   0.245   8.457  1.0793 -0.3078  0.8008
  674MOL0     C92904   8.610   0.293   8.340 -0.2835  0.2044 -0.4306
  674MOL0     O92905   8.658   0.412   8.281 -0.1489  0.9685  0.3025
  674MOL0     C92906   8.616   0.433   8.150 -0.0329 -0.2849  0.3174
  674MOL0     C92907   8.547   0.345   8.068 -0.2850  1.1736  0.0010
  674MOL0     C92908   8.511   0.381   7.935 -0.6267 -0.2491  0.7904
  674MOL0     C92909   8.545   0.507   7.889  0.4120 -0.2895  0.6228
  674MOL0     O92910   8.487   0.551   7.767 -0.2653  0.3334 -0.1690
  674MOL0     C92911   8.568   0.636   7.683 -1.1608  0.7217 -0.7145
  674MOL0     C92912   8.529   0.639   7.538 -0.6197 -0.2011  0.4843
  674MOL0     C92913   8.592   0.761   7.467  0.7299 -0.1028 -0.1433
  674MOL0     C92914   8.558   0.775   7.315  0.1283  0.3091  0.8081
  674MOL0     C92915   8.639   0.888   7.257  0.3506  0.0632  0.4327
  674MOL0     C92916   8.616   0.897   7.106 -0.5582  0.1416  1.2876
  674MOL0     C92917   8.471   0.955   7.069 -0.3637  0.2095 -0.5835
  674MOL0     C92918   8.454   0.943   6.922 -0.0786 -0.2778  0.1092
  674MOL0    Cl92919   8.432   0.779   6.865  0.0387 -0.4263 -0.4196
  674MOL0     C92920   8.623   0.597   7.966 -0.2902  0.7739 -0.2593
  674MOL0     C92921   8.663   0.554   8.092  0.5547  0.4038 -0.2545
  674MOL0     O92922   8.506   0.236   8.315 -0.3208 -0.3739  0.1089
  674MOL0     C92923   8.826   0.217   8.428  0.8678  0.3186  1.3325
  674MOL0     C92924   8.916   0.189   8.526  0.5097 -0.4222  0.2279
  674MOL0     N92925   9.264   0.141   9.240 -0.8547  0.7555  0.3772
  674MOL0     N92926   9.379   0.179   9.291 -0.4776 -0.4721 -0.2493
  674MOL0     C92927   9.301   0.381  10.010 -0.1480  0.2383  0.9508
  674MOL0     C92928   9.177   0.412  10.044 -0.9521  0.2811 -0.1538
  674MOL0     C92929   8.756   0.258  10.142  0.0463 -0.6828 -0.5022
  674MOL0     C92930   8.633   0.276  10.071  0.3864 -0.2568 -0.6192
  674MOL0     C92931   8.507   0.269  10.136 -0.3459 -0.9678 -0.3628
  674MOL0     C92932   8.508   0.240  10.273 -0.2310  0.0606 -0.4551
  674MOL0     O92933   8.387   0.234  10.330 -0.0034  0.3008 -0.5128
  674MOL0     C92934   8.355   0.362  10.386 -0.7827  0.4565 -0.1616
  674MOL0     C92935   8.274   0.457  10.298 -0.8504 -0.0972  0.1889
  674MOL0     C92936   8.144   0.398  10.231 -0.1791  0.6656  0.0298
  674MOL0     C92937   8.115   0.478  10.103 -0.5229  0.1997  0.5951
  674MOL0     C92938   7.998   0.432  10.037 -0.2134 -0.0500  0.2790
  674MOL0     C92939   7.898   0.408   9.969 -0.0996 -0.1812  1.3137
  674MOL0     C92940   8.628   0.218  10.346  0.0651 -0.6734  0.0689
  674MOL0     C92941   8.745   0.227  10.283 -0.7454 -0.4377 -0.3709
  674MOL0     C92942   8.861   0.199  10.378 -0.7576 -0.0013  0.1491
  674MOL0     H92943   9.077   0.089  10.090 -1.3207  0.3471 -3.6017
  674MOL0     H92944   9.324   0.053  10.038  2.1413  0.5733 -1.3344
  674MOL0     H92945   9.464   0.236   9.740  2.1813  0.7929 -0.6961
  674MOL0     H92946   9.463   0.079   9.830  2.6926 -0.9284  0.5639
  674MOL0     H92947   9.704   0.251   9.793 -0.6239 -0.6803 -0.0992
  674MOL0     H92948   9.696   0.106   9.897  3.3452  3.9230  1.4606
  674MOL0     H92949   9.803   0.040   9.708 -0.8341 -0.5392  2.7043
  674MOL0     H92950   9.648  -0.039   9.694 -1.2818  0.5754  0.5001
  674MOL0     H92951   9.597   0.138   9.509  0.9537  1.1834  0.0754
  674MOL0     H92952   9.743   0.213   9.577 -0.3067  0.0850  1.7678
  674MOL0     H92953   9.729  -0.063   9.444  1.9590 -0.5183 -2.2363
  674MOL0     H92954   9.877   0.002   9.508 -0.5602 -1.3809  1.1875
  674MOL0     H92955   9.838   0.206   9.348  1.2564  0.2357 -0.6221
  674MOL0     H92956   9.918   0.075   9.300  0.0484  2.9798 -0.0569
  674MOL0     H92957   9.669  -0.018   9.214 -1.8077  1.5938  0.9817
  674MOL0     H92958   9.779   0.085   9.117 -0.7340  0.1222 -1.1546
  674MOL0     H92959   9.628   0.243   9.311  3.0455 -1.5691  0.1698
  674MOL0     H92960   9.648   0.253   9.132  2.5807  0.6195  0.5626
  674MOL0     H92961   9.490   0.000   9.041 -0.9739 -0.1861 -0.5285
  674MOL0     H92962   9.197  -0.130   9.107 -0.8080  0.7331  0.4839
  674MOL0     H92963   9.271  -0.060   8.964 -2.1884 -0.2211 -0.0933
  674MOL0     H92964   9.044  -0.049   8.925 -0.7234 -0.8985  1.2400
  674MOL0     H92965   9.009   0.027   9.079 -0.7849 -0.9660 -1.5944
  674MOL0     H92966   9.126   0.226   9.015  5.5814 -0.2025 -2.3648
  674MOL0     H92967   9.180   0.165   8.861  0.1581 -3.7109  0.2914
  674MOL0     H92968   8.900   0.168   8.943  0.8014 -2.5052 -1.4035
  674MOL0     H92969   8.998   0.307   8.863  1.7997  0.0058 -1.8609
  674MOL0     H92970   8.713   0.209   8.795  1.1188  0.9756  0.0352
  674MOL0     H92971   8.532   0.339   8.730 -0.8334 -0.5903  1.4108
  674MOL0     H92972   8.451   0.218   8.620  0.9093  0.0281  2.6364
  674MOL0     H92973   8.481   0.374   8.557 -0.2921 -2.6344 -1.0666
  674MOL0     H92974   8.513   0.244   8.090  1.6975  0.2460 -0.9815
  674MOL0     H92975   8.461   0.315   7.866  3.1162 -1.0476 -1.4275
  674MOL0     H92976   8.568   0.738   7.721  0.8335  0.5024 -0.0124
  674MOL0     H92977   8.665   0.586   7.674 -2.1748 -1.2996 -1.1593
  674MOL0     H92978   8.555   0.545   7.490  0.4499  1.9488 -3.5780
  674MOL0     H92979   8.420   0.645   7.538 -0.7171 -1.5796  0.4852
  674MOL0     H92980   8.699   0.744   7.476  0.3318 -1.9117  2.0897
  674MOL0     H92981   8.562   0.853   7.519  0.0700 -0.3161 -0.1334
  674MOL0     H92982   8.451   0.789   7.295  0.3939  1.7899  0.3570
  674MOL0     H92983   8.595   0.678   7.279 -1.6710 -0.7802  1.7566
  674MOL0     H92984   8.617   0.984   7.305  1.2381  0.7601 -0.5204
  674MOL0     H92985   8.747   0.877   7.268  0.9214  3.0151 -1.3053
  674MOL0     H92986   8.650   0.816   7.040  0.3780  0.1419  1.7612
  674MOL0     H92987   8.672   0.984   7.070  0.3065 -0.4258  1.2311
  674MOL0     H92988   8.459   1.061   7.090  0.8099  1.5305 -5.2277
  674MOL0     H92989   8.386   0.904   7.115 -2.0722  2.6886 -0.8143
  674MOL0     H92990   8.543   0.983   6.871 -1.4317  2.7486 -0.0568
  674MOL0     H92991   8.381   1.017   6.889  3.3275  3.1643 -0.4184
  674MOL0     H92992   8.654   0.694   7.929  0.3096 -0.3007 -2.8245
  674MOL0     H92993   8.721   0.617   8.159  3.4364 -2.8474  0.6127
  674MOL0     H92994   8.849   0.218   8.322 -1.2131 -1.2303  0.7939
  674MOL0     H92995   9.024   0.187   8.516  1.0737  1.0195  4.4213
  674MOL0     H92996   9.367   0.461   9.978  2.4895 -1.8010  0.9501
  674MOL0     H92997   9.149   0.517  10.041 -2.1798  0.0436 -4.2555
  674MOL0     H92998   8.636   0.299   9.965  0.8173  2.3510 -0.1221
  674MOL0     H92999   8.414   0.281  10.081 -1.9304  0.1511  2.3549
  674MOL0     H93000   8.311   0.342  10.484 -0.8503 -0.6234 -0.4035
  674MOL0     H93001   8.443   0.421  10.414 -0.8483  0.6049 -0.2657
  674MOL0     H93002   8.337   0.503  10.222  0.0494  0.7720  1.4237
  674MOL0     H93003   8.242   0.540  10.362 -1.1776  0.5887 -0.8355
  674MOL0     H93004   8.157   0.293  10.204 -0.9975  0.4493  0.4546
  674MOL0     H93005   8.061   0.402  10.303  0.9256 -1.8556  1.5699
  674MOL0     H93006   8.195   0.458  10.030 -0.7966 -1.5851  0.7231
  674MOL0     H93007   8.108   0.584  10.125 -0.4751  0.2774  0.2410
  674MOL0     H93008   7.827   0.389   9.891  2.0437 -0.7971 -0.6075
  674MOL0     H93009   8.618   0.197  10.452  1.8827  0.2629  0.4626
  674MOL0     H93010   8.926   0.287  10.379 -0.3911 -0.2294  2.3556
  674MOL0     H93011   8.847   0.179  10.485  1.6137  1.4603  0.8160
  674MOL0     H93012   8.924   0.116  10.344  0.5464  0.3068  1.7185
  675MOL0     O93013   9.502   7.563   8.176  0.1836  0.9967  0.1625
  675MOL0     C93014   9.406   7.629   8.224 -0.2666 -0.2444  0.3632
  675MOL0     O93015   9.280   7.590   8.221 -0.3343 -0.1178 -0.0107
  675MOL0     C93016   9.250   7.457   8.175 -0.4051 -0.1694  0.1059
  675MOL0     C93017   9.243   7.432   8.039  0.5223  0.4378 -0.3530
  675MOL0     C93018   9.216   7.301   7.990 -0.1406 -0.8672 -0.1402
  675MOL0     C93019   9.197   7.200   8.082  0.0243 -0.0959 -0.3382
  675MOL0     O93020   9.155   7.081   8.034  0.2265  0.1889 -0.2461
  675MOL0     C93021   9.154   6.961   8.116  0.9272  0.1752  0.1666
  675MOL0     C93022   9.128   6.842   8.013 -0.3058  0.5803  0.0373
  675MOL0     C93023   9.068   6.715   8.081 -0.2722 -0.3647  0.6848
  675MOL0     C93024   9.062   6.600   7.985 -0.4281  0.1845  0.0257
  675MOL0     C93025   8.987   6.481   8.037  0.1660  0.2855 -1.5043
  675MOL0     C93026   8.936   6.380   7.931 -0.2897 -0.6909 -1.0868
  675MOL0     C93027   8.917   6.248   8.003  0.6572 -0.1527 -0.0324
  675MOL0     C93028   8.869   6.135   7.911 -0.2392  0.0321  0.7870
  675MOL0     N93029   8.848   6.006   7.975  0.8966 -0.4778 -0.1914
  675MOL0     C93030   8.748   5.982   8.076  0.3086 -0.0529 -0.4204
  675MOL0     C93031   8.761   5.851   8.116 -0.0448  0.2366  1.2510
  675MOL0     C93032   8.673   5.800   8.222 -0.0901  0.3319 -0.7488
  675MOL0     C93033   8.539   5.770   8.168  0.3950 -0.2493 -0.1340
  675MOL0     C93034   8.535   5.658   8.070 -0.0312  0.3255  0.5103
  675MOL0     C93035   8.391   5.620   8.034 -0.6933 -0.0101 -0.1835
  675MOL0     O93036   8.361   5.664   7.896 -0.3175  0.8403  0.2379
  675MOL0     C93037   8.228   5.702   7.887 -0.5845  0.8415 -0.3366
  675MOL0     C93038   8.183   5.804   7.811  0.2841  0.1462  0.5738
  675MOL0     C93039   8.051   5.855   7.804  0.4605  0.0352  0.3077
  675MOL0     C93040   8.015   5.988   7.734 -0.5698 -0.1214 -0.5952
  675MOL0     C93041   7.947   5.777   7.871 -0.0330 -0.1618 -0.2014
  675MOL0     C93042   7.800   5.810   7.865  0.4252  0.4687 -0.4552
  675MOL0     O93043   7.722   5.751   7.956  0.5249 -0.0516 -0.2839
  675MOL0     C93044   7.581   5.770   7.942 -0.8718  1.4937 -0.9304
  675MOL0     C93045   7.525   5.656   7.882  0.0321 -0.6348  0.9640
  675MOL0     C93046   7.390   5.651   7.860 -0.4979  0.8606 -0.3455
  675MOL0     C93047   7.308   5.759   7.874  0.2003 -0.7569 -0.0964
  675MOL0     O93048   7.173   5.752   7.851 -0.2919  0.7402 -0.2663
  675MOL0     C93049   7.113   5.874   7.806 -0.1342  0.1271 -0.8710
  675MOL0     C93050   6.977   5.831   7.742 -0.4074 -0.0439 -0.1291
  675MOL0     C93051   6.899   5.948   7.690  0.3906 -0.4990  0.2908
  675MOL0     C93052   6.748   5.921   7.680 -0.1968  0.7423  0.0258
  675MOL0     C93053   6.682   6.023   7.590 -0.1213  0.3558  0.0876
  675MOL0     C93054   6.535   6.009   7.608  0.4839 -0.0975  1.3647
  675MOL0     C93055   6.446   6.067   7.484  0.6370  0.3853  0.9479
  675MOL0     C93056   6.443   5.981   7.363 -0.3841 -0.0443  0.0113
  675MOL0    Cl93057   6.345   6.064   7.244  0.0643 -0.1225  0.1745
  675MOL0     C93058   7.374   5.877   7.934 -0.3993  0.4152 -0.4146
  675MOL0     C93059   7.511   5.878   7.968 -0.5735 -0.2657 -0.9395
  675MOL0     O93060   7.755   5.881   7.773 -0.9962  0.4862  0.7394
  675MOL0     C93061   7.983   5.659   7.939  0.1628 -0.8137  0.3289
  675MOL0     C93062   8.127   5.627   7.949 -0.4353  0.7531 -0.1738
  675MOL0     N93063   8.882   5.805   8.056  1.1326  0.7364 -0.0257
  675MOL0     N93064   8.924   5.893   7.970  0.2074 -0.2187 -0.2610
  675MOL0     C93065   9.194   7.225   8.221  0.1401 -0.3851 -0.0761
  675MOL0     C93066   9.230   7.352   8.259  0.4045  0.3413 -0.8259
  675MOL0     C93067   9.438   7.767   8.272  1.2528 -0.1186 -0.1806
  675MOL0     C93068   9.325   7.849   8.300 -0.4613  0.3821 -0.3418
  675MOL0     C93069   9.337   7.970   8.354  0.0390  0.1095 -0.4669
  675MOL0     C93070   9.463   8.018   8.381 -0.6522 -0.2175  0.0694
  675MOL0     O93071   9.482   8.145   8.426 -0.2003  0.1493 -0.3890
  675MOL0     C93072   9.513   8.234   8.314  0.3790  0.1225 -0.1684
  675MOL0     C93073   9.661   8.214   8.274  0.2876  0.3912  0.7228
  675MOL0     C93074   9.710   8.323   8.179 -0.2290 -0.1720 -0.2000
  675MOL0     C93075   9.780   8.431   8.267 -0.1615  0.0830 -0.2181
  675MOL0     C93076   9.836   8.529   8.169  0.0557 -0.7630 -0.1126
  675MOL0     C93077   9.879   8.618   8.097 -0.5779 -0.6921 -0.1373
  675MOL0     C93078   9.577   7.934   8.379  0.1077  0.2162  0.7275
  675MOL0     C93079   9.562   7.809   8.321 -0.9042  0.5981 -0.2652
  675MOL0     C93080   9.685   7.728   8.313  0.3693  1.1762  0.0680
  675MOL0     H93081   9.254   7.514   7.969  0.4345 -0.9548 -2.0611
  675MOL0     H93082   9.224   7.284   7.883  0.6882 -1.4841  0.0193
  675MOL0     H93083   9.064   6.953   8.177 -1.3235  1.5159 -2.7238
  675MOL0     H93084   9.248   6.963   8.171  2.1299 -0.5854 -1.7629
  675MOL0     H93085   9.058   6.877   7.936  1.4447  2.6291 -0.7197
  675MOL0     H93086   9.219   6.808   7.964 -0.4261 -1.1056  0.9060
  675MOL0     H93087   9.124   6.689   8.171  0.5194 -0.5166  0.1566
  675MOL0     H93088   8.966   6.733   8.117 -0.9830 -4.0203  0.9592
  675MOL0     H93089   9.017   6.629   7.889 -3.3625  0.7381  1.4602
  675MOL0     H93090   9.163   6.568   7.957 -0.8649 -1.3257  0.0774
  675MOL0     H93091   8.897   6.510   8.091  1.1067 -0.3085  0.5164
  675MOL0     H93092   9.051   6.433   8.112 -0.5491  0.8616 -0.5103
  675MOL0     H93093   8.856   6.415   7.866 -0.0286  1.8318 -0.1563
  675MOL0     H93094   9.028   6.361   7.875  1.7068  0.9319  1.4190
  675MOL0     H93095   8.832   6.267   8.070  2.0632 -0.3633  1.8832
  675MOL0     H93096   8.999   6.220   8.070  0.4390 -1.3058 -0.2148
  675MOL0     H93097   8.774   6.168   7.869 -0.7585 -0.2437  1.7217
  675MOL0     H93098   8.949   6.113   7.840  0.3275 -3.0062  2.2014
  675MOL0     H93099   8.673   6.056   8.103 -0.0705  0.2956 -2.2798
  675MOL0     H93100   8.656   5.884   8.290 -1.2943  1.0387 -1.8727
  675MOL0     H93101   8.727   5.719   8.271  0.1295  0.4595 -0.7782
  675MOL0     H93102   8.472   5.738   8.249  0.1286 -0.4152 -0.4158
  675MOL0     H93103   8.489   5.862   8.134  3.5747  0.8939 -2.2380
  675MOL0     H93104   8.578   5.696   7.977 -5.3735  1.1996 -1.9728
  675MOL0     H93105   8.590   5.568   8.099 -0.8402  0.0661  1.2698
  675MOL0     H93106   8.383   5.511   8.038  1.9644 -0.2628 -0.0358
  675MOL0     H93107   8.329   5.661   8.114 -0.1572 -0.5396  0.5222
  675MOL0     H93108   8.258   5.842   7.742  0.4803 -0.1716  0.6145
  675MOL0     H93109   7.980   5.976   7.631  0.8568 -0.2948 -1.0916
  675MOL0     H93110   8.102   6.054   7.736  0.1804 -1.0827  1.7636
  675MOL0     H93111   7.950   6.046   7.800  1.0880  0.5691  0.4930
  675MOL0     H93112   7.581   5.564   7.865  3.0918  1.3433 -0.4556
  675MOL0     H93113   7.352   5.551   7.846  2.0249  0.0469 -2.0542
  675MOL0     H93114   7.097   5.929   7.900 -0.6287 -2.1503  0.4788
  675MOL0     H93115   7.173   5.928   7.733 -2.3153  2.1302 -1.3216
  675MOL0     H93116   6.988   5.761   7.658  3.3046  0.2199 -0.0309
  675MOL0     H93117   6.927   5.777   7.823  2.1567 -2.1795  0.1481
  675MOL0     H93118   6.943   5.981   7.595  0.3634 -0.1020  0.4125
  675MOL0     H93119   6.902   6.031   7.762 -2.0591  0.8472 -1.0160
  675MOL0     H93120   6.698   5.923   7.778 -1.5704  2.3896 -0.6566
  675MOL0     H93121   6.737   5.819   7.641 -2.4534  1.3603 -1.1187
  675MOL0     H93122   6.705   6.122   7.628  0.9352 -0.4759  1.7152
  675MOL0     H93123   6.724   6.003   7.491  1.9147 -2.2177  1.3404
  675MOL0     H93124   6.494   6.061   7.695  1.3371  0.1716  1.6096
  675MOL0     H93125   6.520   5.901   7.618  3.0902 -0.3508  3.7188
  675MOL0     H93126   6.475   6.171   7.463  0.8274  0.4967  1.7039
  675MOL0     H93127   6.343   6.072   7.523  0.0325 -1.2120 -0.3541
  675MOL0     H93128   6.390   5.890   7.392 -1.6048  0.8471  0.6507
  675MOL0     H93129   6.545   5.978   7.323 -1.3325 -1.9944 -2.5281
  675MOL0     H93130   7.312   5.966   7.942  1.3587  2.2356 -4.1942
  675MOL0     H93131   7.556   5.973   7.998 -1.9397 -0.0537  0.5794
  675MOL0     H93132   7.902   5.606   7.987 -2.2713  1.5144 -0.9464
  675MOL0     H93133   8.154   5.542   8.010 -1.6027  1.1893  1.0060
  675MOL0     H93134   9.190   7.134   8.280  2.1406 -0.7352 -0.3921
  675MOL0     H93135   9.228   7.369   8.367  1.5599 -0.5873 -0.6423
  675MOL0     H93136   9.224   7.831   8.264 -1.0271  1.5083  0.6240
  675MOL0     H93137   9.254   8.036   8.379 -0.8966 -1.3476  0.4598
  675MOL0     H93138   9.440   8.228   8.233  1.2693 -1.8051 -0.8883
  675MOL0     H93139   9.492   8.331   8.361 -0.4583  0.2776 -0.8352
  675MOL0     H93140   9.679   8.118   8.223  2.8305  1.1491  0.0410
  675MOL0     H93141   9.729   8.198   8.358  0.6397 -0.6329  0.2688
  675MOL0     H93142   9.788   8.287   8.110  3.3245  1.8188  2.4367
  675MOL0     H93143   9.627   8.372   8.127  0.0463  0.6275  0.0975
  675MOL0     H93144   9.857   8.387   8.331 -1.2296 -0.9941  0.3575
  675MOL0     H93145   9.710   8.489   8.328 -0.9148 -0.8222 -0.1996
  675MOL0     H93146   9.931   8.676   8.023 -1.0182  0.6520  0.5630
  675MOL0     H93147   9.677   7.961   8.411  0.7198  0.2023 -1.0558
  675MOL0     H93148   9.666   7.638   8.373  1.4410  2.3212  2.2458
  675MOL0     H93149   9.711   7.694   8.212 -0.2200 -2.2104  0.9465
  675MOL0     H93150   9.775   7.779   8.350  2.3350 -0.5713 -1.9639
  676MOL0     O93151   8.192   8.707  10.571  0.3295  0.2314 -0.6935
  676MOL0     C93152   8.238   8.817  10.545  0.0894 -0.6477  0.5609
  676MOL0     O93153   8.290   8.908  10.638  1.2705  0.8802 -0.0690
  676MOL0     C93154   8.297   8.856  10.769 -0.1151 -0.2593  0.6627
  676MOL0     C93155   8.189   8.875  10.865  0.4210  0.2113  0.3518
  676MOL0     C93156   8.202   8.836  11.001  1.3770 -0.4601  0.3907
  676MOL0     C93157   8.323   8.784  11.049  0.3063  0.0354  0.9858
  676MOL0     O93158   8.331   8.763  11.183 -0.3028  0.4424 -0.3505
  676MOL0     C93159   8.425   8.671  11.249 -0.9668 -0.1261 -0.0810
  676MOL0     C93160   8.407   8.640  11.401  0.2134 -0.3823 -0.1269
  676MOL0     C93161   8.367   8.758  11.488  0.8211 -0.0763 -0.2941
  676MOL0     C93162   8.480   8.802  11.580 -0.7221  0.1387 -0.3979
  676MOL0     C93163   8.440   8.904  11.685 -0.1066  0.8924  0.8315
  676MOL0     C93164   8.550   8.995  11.743  0.1790  0.1864 -0.1806
  676MOL0     C93165   8.501   9.085  11.843 -0.2010 -0.1681 -0.4726
  676MOL0     C93166   8.602   9.173  11.911  0.4710  0.3980 -0.1139
  676MOL0     N93167   8.522   9.270  11.996 -0.0519 -0.3641  0.4870
  676MOL0     C93168   8.456   9.248  12.112 -1.0264  0.1958 -0.5117
  676MOL0     C93169   8.402   9.366  12.144 -0.1047  0.5754 -0.4122
  676MOL0     C93170   8.314   9.403  12.267  0.0454 -0.3992 -0.2699
  676MOL0     C93171   8.406   9.457  12.384  0.2140 -0.5296  0.4022
  676MOL0     C93172   8.334   9.512  12.506  0.0067 -0.8405  0.1356
  676MOL0     C93173   8.431   9.575  12.602  0.4199  0.3911  0.6179
  676MOL0     O93174   8.547   9.487  12.638  0.1687 -0.2637  0.6818
  676MOL0     C93175   8.566   9.463  12.770 -0.1737 -0.2295  0.0963
  676MOL0     C93176   8.472   9.402  12.855 -0.0347  0.2786 -0.0727
  676MOL0     C93177   8.491   9.391  12.994 -1.4113 -0.5195  0.8002
  676MOL0     C93178   8.387   9.330  13.078 -0.1738 -0.2224 -0.3180
  676MOL0     C93179   8.617   9.429  13.043 -0.4478 -0.3744  0.1437
  676MOL0     C93180   8.645   9.430  13.186 -0.9460 -0.2850  0.2517
  676MOL0     O93181   8.733   9.331  13.228 -0.0592 -0.6604 -0.1910
  676MOL0     C93182   8.751   9.310  13.359 -0.1801 -0.3475 -0.7913
  676MOL0     C93183   8.785   9.413  13.450 -0.0051 -0.4110 -0.3877
  676MOL0     C93184   8.812   9.374  13.581 -0.2097  0.1572 -0.3443
  676MOL0     C93185   8.817   9.241  13.628  0.3892  0.8044 -0.6851
  676MOL0     O93186   8.852   9.190  13.751  0.2080 -0.1498 -0.0193
  676MOL0     C93187   8.924   9.271  13.841  0.2750  0.4529 -0.0176
  676MOL0     C93188   8.847   9.340  13.954  0.2484 -0.4627  0.4684
  676MOL0     C93189   8.788   9.481  13.931  0.0642 -0.2301 -0.6336
  676MOL0     C93190   8.688   9.503  14.044  1.2546  0.1928 -0.1182
  676MOL0     C93191   8.635   9.647  14.027 -0.6663  0.1229  0.3045
  676MOL0     C93192   8.519   9.682  14.116  0.3155 -0.6868 -0.3910
  676MOL0     C93193   8.424   9.787  14.048 -0.1846 -0.3480  0.3474
  676MOL0     C93194   8.354   9.878  14.144 -0.1173  0.5629  0.3505
  676MOL0    Cl93195   8.288   9.778  14.267 -0.1232  0.4948 -0.2061
  676MOL0     C93196   8.779   9.138  13.532 -0.9614  1.1490 -0.7603
  676MOL0     C93197   8.745   9.176  13.399 -0.2217  0.2743  0.3809
  676MOL0     O93198   8.588   9.506  13.265  0.2003 -0.3227  0.5988
  676MOL0     C93199   8.717   9.469  12.947 -0.0786  0.6245 -0.0079
  676MOL0     C93200   8.689   9.495  12.818 -0.2275  0.0939  0.1922
  676MOL0     N93201   8.428   9.460  12.042 -0.1743  0.0585 -0.5090
  676MOL0     N93202   8.501   9.400  11.956  0.5172 -0.6908  0.1525
  676MOL0     C93203   8.432   8.759  10.956  0.3375  0.7292  1.1507
  676MOL0     C93204   8.420   8.799  10.820  0.6431 -0.2168  0.4856
  676MOL0     C93205   8.256   8.868  10.405  0.0968 -0.0828  0.3611
  676MOL0     C93206   8.324   8.990  10.381  0.1247 -1.3003  0.0894
  676MOL0     C93207   8.335   9.041  10.252  0.0938 -0.6972  0.4870
  676MOL0     C93208   8.266   8.982  10.144  0.5124 -0.2468  0.0724
  676MOL0     O93209   8.273   9.029  10.018 -0.5196 -0.0392  0.4391
  676MOL0     C93210   8.245   9.162   9.989  0.1197 -1.1380 -0.5354
  676MOL0     C93211   8.361   9.232   9.918  0.1572  0.3221  0.4914
  676MOL0     C93212   8.317   9.375   9.888 -0.7535 -0.7481  0.1096
  676MOL0     C93213   8.419   9.467   9.812  0.6521  0.6561 -0.1288
  676MOL0     C93214   8.556   9.475   9.872  0.9380 -0.0088 -0.3936
  676MOL0     C93215   8.667   9.469   9.920  0.9603 -0.0653  0.6130
  676MOL0     C93216   8.203   8.864  10.167  0.5845  0.0124  0.4064
  676MOL0     C93217   8.197   8.803  10.290  0.6173  0.1150  0.4734
  676MOL0     C93218   8.114   8.675  10.302  0.0734 -0.0242  0.4790
  676MOL0     H93219   8.096   8.913  10.825  1.3789 -0.1022 -2.3402
  676MOL0     H93220   8.116   8.866  11.059  1.1898  2.9177 -1.3975
  676MOL0     H93221   8.517   8.730  11.247 -1.7037  1.0519 -1.3313
  676MOL0     H93222   8.432   8.574  11.200 -0.6651 -0.9637  1.5541
  676MOL0     H93223   8.322   8.571  11.399 -0.0475 -0.2672  2.7362
  676MOL0     H93224   8.496   8.591  11.442 -0.7769 -2.7184 -0.5992
  676MOL0     H93225   8.328   8.841  11.429 -1.6236 -0.9971 -0.0880
  676MOL0     H93226   8.273   8.732  11.539  1.8541 -1.5601  0.9522
  676MOL0     H93227   8.506   8.711  11.634  0.1557  1.4915  1.5836
  676MOL0     H93228   8.570   8.830  11.524  0.1176 -3.8670 -1.3331
  676MOL0     H93229   8.389   8.849  11.764  3.1422 -1.1346  1.6912
  676MOL0     H93230   8.373   8.975  11.636  0.4612  0.0528 -1.2775
  676MOL0     H93231   8.634   8.934  11.779  0.2385  0.2822 -0.1559
  676MOL0     H93232   8.572   9.057  11.655  0.8178 -1.2301 -1.0620
  676MOL0     H93233   8.449   9.036  11.926 -1.0839  1.7604  0.1949
  676MOL0     H93234   8.420   9.148  11.804  1.3973  3.6045  1.6514
  676MOL0     H93235   8.667   9.115  11.977 -1.6660 -1.3963  0.5295
  676MOL0     H93236   8.658   9.229  11.836 -0.4928  1.8869  0.2268
  676MOL0     H93237   8.465   9.158  12.172  0.8312 -0.5497 -1.8253
  676MOL0     H93238   8.260   9.316  12.305  0.5119 -0.0250  1.3104
  676MOL0     H93239   8.247   9.479  12.226 -0.0200 -0.9777 -1.2780
  676MOL0     H93240   8.475   9.378  12.414 -2.7507 -3.9266 -1.0704
  676MOL0     H93241   8.460   9.541  12.340  1.4358 -2.5615 -2.2249
  676MOL0     H93242   8.270   9.593  12.472  1.5520  0.6324  0.6385
  676MOL0     H93243   8.283   9.427  12.553 -0.8283 -1.8117 -2.3928
  676MOL0     H93244   8.485   9.662  12.563 -0.0346  0.1842 -0.5002
  676MOL0     H93245   8.378   9.607  12.692  1.7388  2.4893  0.7133
  676MOL0     H93246   8.376   9.372  12.815 -1.2979  0.5722  2.5442
  676MOL0     H93247   8.316   9.409  13.105  1.2054  1.0478 -0.2449
  676MOL0     H93248   8.430   9.279  13.164 -1.5493 -0.6748  0.1245
  676MOL0     H93249   8.348   9.242  13.026  2.4133 -1.5473 -0.1331
  676MOL0     H93250   8.764   9.516  13.424  2.0619 -0.0816 -0.8635
  676MOL0     H93251   8.819   9.452  13.656  2.1569 -2.4089  2.3799
  676MOL0     H93252   8.995   9.203  13.888 -1.5935 -2.6053 -1.3099
  676MOL0     H93253   8.982   9.343  13.783 -0.5449 -0.4938 -2.1189
  676MOL0     H93254   8.770   9.272  13.993 -0.6158  2.1660  3.9112
  676MOL0     H93255   8.921   9.363  14.031 -1.5138  0.2111  2.0505
  676MOL0     H93256   8.736   9.484  13.834 -1.2533  4.2558  0.0085
  676MOL0     H93257   8.871   9.551  13.927 -0.7047  0.6698 -1.1826
  676MOL0     H93258   8.722   9.487  14.147  0.8635  2.7031  0.4781
  676MOL0     H93259   8.596   9.444  14.036  1.7186 -0.5677  0.0490
  676MOL0     H93260   8.712   9.724  14.024  0.6858 -1.1871  0.1953
  676MOL0     H93261   8.588   9.645  13.928  0.7925 -4.4624 -0.5446
  676MOL0     H93262   8.546   9.719  14.215 -0.0462  0.3262 -0.6555
  676MOL0     H93263   8.450   9.601  14.140  0.6620 -0.3719  1.8406
  676MOL0     H93264   8.352   9.722  13.998  2.5203 -1.3290 -2.6553
  676MOL0     H93265   8.465   9.855  13.973 -2.8932 -0.4913 -1.4089
  676MOL0     H93266   8.275   9.928  14.087 -1.3034 -0.1692  1.3128
  676MOL0     H93267   8.416   9.957  14.187 -2.6312  1.3712  2.7551
  676MOL0     H93268   8.783   9.037  13.572  1.2552  2.2384  2.1440
  676MOL0     H93269   8.722   9.107  13.319 -1.9283  2.6056 -1.2736
  676MOL0     H93270   8.817   9.489  12.985 -0.5440 -0.5423  2.0069
  676MOL0     H93271   8.768   9.536  12.755  1.0686  0.8205  2.1976
  676MOL0     H93272   8.524   8.713  10.990  0.6594  2.3870  2.6793
  676MOL0     H93273   8.500   8.799  10.747  0.1260 -0.2366 -0.0849
  676MOL0     H93274   8.363   9.058  10.456 -0.1509 -0.5582 -0.4294
  676MOL0     H93275   8.383   9.136  10.232 -1.0473 -0.0247  0.8278
  676MOL0     H93276   8.163   9.161   9.917  1.4756 -1.1960 -2.1506
  676MOL0     H93277   8.220   9.216  10.081  0.0753 -1.6218 -0.2607
  676MOL0     H93278   8.380   9.173   9.827  0.0136  0.1560  0.5690
  676MOL0     H93279   8.453   9.230   9.977  0.5564  0.9928 -0.0848
  676MOL0     H93280   8.231   9.366   9.821 -1.1116 -1.6196  0.6765
  676MOL0     H93281   8.279   9.437   9.970  1.2232 -1.6930  1.8391
  676MOL0     H93282   8.378   9.569   9.803 -0.3138  0.1626 -1.7712
  676MOL0     H93283   8.421   9.439   9.706 -0.9576  1.7818 -0.4926
  676MOL0     H93284   8.767   9.465   9.958  1.0729 -0.0630  0.3259
  676MOL0     H93285   8.156   8.810  10.086  2.9163  3.0176 -3.3341
  676MOL0     H93286   8.035   8.679  10.377  1.2602 -0.4834  1.7958
  676MOL0     H93287   8.063   8.651  10.208  0.4247 -1.9844  0.7392
  676MOL0     H93288   8.173   8.593  10.344  0.1922  0.0613  0.4787
  677MOL0     O93289   6.867   3.864   3.101  0.0902  0.7903  0.3592
  677MOL0     C93290   6.810   3.753   3.123  0.1284  0.3020  0.3179
  677MOL0     O93291   6.854   3.632   3.089  0.4227  0.2420  0.3764
  677MOL0     C93292   6.983   3.622   3.057 -0.3610  0.8530  0.8420
  677MOL0     C93293   7.084   3.652   3.147  0.5990 -0.2798  1.1655
  677MOL0     C93294   7.218   3.625   3.115  0.2901  0.5898 -0.8592
  677MOL0     C93295   7.251   3.576   2.993 -0.7504  0.2575 -0.6545
  677MOL0     O93296   7.382   3.550   2.951  0.0583 -0.0638 -0.0558
  677MOL0     C93297   7.496   3.565   3.036 -0.2159  0.4585  0.0786
  677MOL0     C93298   7.624   3.516   2.971  0.0852  0.5685 -0.3381
  677MOL0     C93299   7.679   3.619   2.867 -0.6256 -0.7881 -0.0974
  677MOL0     C93300   7.739   3.745   2.930 -0.0698 -0.5627 -0.3469
  677MOL0     C93301   7.826   3.829   2.840  0.4556  0.3090  1.1922
  677MOL0     C93302   7.767   3.861   2.701  0.1517 -1.0557 -0.5064
  677MOL0     C93303   7.837   3.979   2.633 -0.6566 -0.3114 -0.4237
  677MOL0     C93304   7.848   4.111   2.708  0.0363  0.1421 -0.5602
  677MOL0     N93305   7.924   4.223   2.646 -0.0016  0.6298  0.2269
  677MOL0     C93306   7.872   4.281   2.529  0.5261 -0.0844  0.6733
  677MOL0     C93307   7.977   4.339   2.463  0.6632 -0.2016  0.7286
  677MOL0     C93308   7.973   4.394   2.324  0.4672 -0.2708  0.2195
  677MOL0     C93309   8.102   4.460   2.286  0.0161  0.2748 -0.2316
  677MOL0     C93310   8.104   4.472   2.132  0.3667  0.3728 -1.0461
  677MOL0     C93311   8.223   4.553   2.081  0.1980 -0.0339  0.1824
  677MOL0     O93312   8.200   4.693   2.093  0.0918 -0.8422  0.4354
  677MOL0     C93313   8.314   4.778   2.089 -0.5302 -0.2142 -1.5738
  677MOL0     C93314   8.452   4.753   2.072  0.6296  1.1702  0.5497
  677MOL0     C93315   8.544   4.851   2.074 -0.2800  0.6095  0.5810
  677MOL0     C93316   8.690   4.815   2.044 -0.1226 -0.2096 -0.7894
  677MOL0     C93317   8.508   4.986   2.103 -0.1481  0.3173 -0.5203
  677MOL0     C93318   8.604   5.096   2.129  1.2095 -0.0914 -0.5190
  677MOL0     O93319   8.567   5.196   2.225  0.6682 -0.2843 -0.6126
  677MOL0     C93320   8.654   5.303   2.244  0.5360 -0.1952  0.2343
  677MOL0     C93321   8.716   5.317   2.365  0.7520  0.6626 -0.1175
  677MOL0     C93322   8.777   5.438   2.395  0.4968  0.0090 -0.2929
  677MOL0     C93323   8.788   5.540   2.299 -0.4060 -0.2971 -0.9757
  677MOL0     O93324   8.868   5.640   2.339 -0.6419  0.3140  0.3913
  677MOL0     C93325   8.827   5.775   2.330  0.0769  0.1345 -0.6127
  677MOL0     C93326   8.719   5.826   2.428  0.3748  0.3919  0.3740
  677MOL0     C93327   8.804   5.899   2.535  0.2573  1.0776  0.4411
  677MOL0     C93328   8.702   5.963   2.639  0.6598 -0.7693 -0.4873
  677MOL0     C93329   8.648   6.092   2.587 -0.0431 -0.5070 -0.4191
  677MOL0     C93330   8.624   6.203   2.692 -0.6777 -0.1791 -0.0916
  677MOL0     C93331   8.567   6.327   2.616  0.3544  0.8747  0.9043
  677MOL0     C93332   8.602   6.452   2.690 -0.1219 -0.4152  0.1032
  677MOL0    Cl93333   8.462   6.491   2.787  0.1662  0.1053  0.3007
  677MOL0     C93334   8.723   5.519   2.175  0.3944  0.2430  1.0408
  677MOL0     C93335   8.660   5.401   2.140 -0.5143  0.2654 -0.1603
  677MOL0     O93336   8.700   5.104   2.061 -0.1018 -0.3326  0.1194
  677MOL0     C93337   8.372   5.023   2.099 -0.6457 -0.4126  0.1044
  677MOL0     C93338   8.284   4.917   2.106 -0.2545 -0.2122 -0.0453
  677MOL0     N93339   8.086   4.305   2.542 -0.4861 -0.5341 -0.0937
  677MOL0     N93340   8.049   4.239   2.644  0.3451  0.6736 -1.1753
  677MOL0     C93341   7.152   3.550   2.902  0.0562 -0.5710  0.1377
  677MOL0     C93342   7.017   3.571   2.930  0.5472 -0.1574  0.4369
  677MOL0     C93343   6.658   3.758   3.152 -0.2573 -0.0292 -0.4483
  677MOL0     C93344   6.619   3.672   3.258  1.1652  0.0235  0.9648
  677MOL0     C93345   6.485   3.671   3.309 -0.9154 -0.7333  0.2260
  677MOL0     C93346   6.387   3.763   3.252  0.5183  1.0043 -0.1265
  677MOL0     O93347   6.271   3.769   3.323  0.0590  0.8253 -0.3065
  677MOL0     C93348   6.170   3.864   3.279  0.0419 -0.1552  0.5717
  677MOL0     C93349   6.044   3.855   3.374 -0.1197 -0.3960 -0.3119
  677MOL0     C93350   5.991   4.001   3.430  0.9970  1.1515 -0.6584
  677MOL0     C93351   5.888   3.986   3.549  0.2260  0.5293 -0.2202
  677MOL0     C93352   5.845   4.119   3.586  0.1947  0.1441  0.3693
  677MOL0     C93353   5.825   4.236   3.608 -0.4284 -0.3070  0.5724
  677MOL0     C93354   6.424   3.848   3.142 -0.3225 -0.1458  0.7413
  677MOL0     C93355   6.562   3.849   3.099 -0.1417  0.2648  0.7694
  677MOL0     C93356   6.590   3.943   2.978 -0.3737  0.4760  0.3963
  677MOL0     H93357   7.049   3.700   3.238  1.2663  1.1858  0.6715
  677MOL0     H93358   7.283   3.657   3.195 -2.3533  1.0609  1.2484
  677MOL0     H93359   7.474   3.511   3.129 -1.7559  0.4453 -0.2643
  677MOL0     H93360   7.516   3.668   3.066 -2.6060  1.6279 -1.9553
  677MOL0     H93361   7.702   3.507   3.047  4.2497  3.2397 -3.7966
  677MOL0     H93362   7.619   3.418   2.923 -2.6780 -0.1404  1.1918
  677MOL0     H93363   7.758   3.570   2.809 -0.5844 -1.2438  0.3303
  677MOL0     H93364   7.596   3.639   2.798 -1.2886 -3.0012 -0.0167
  677MOL0     H93365   7.660   3.820   2.941  0.3016 -0.0847 -0.8314
  677MOL0     H93366   7.786   3.722   3.026  0.0333 -0.7512 -0.4424
  677MOL0     H93367   7.922   3.778   2.829  0.5524  0.9728 -1.7999
  677MOL0     H93368   7.842   3.922   2.895  0.0580  0.5028  0.9818
  677MOL0     H93369   7.780   3.777   2.632  0.7861  0.0433 -1.7789
  677MOL0     H93370   7.663   3.891   2.717  0.8827  1.6135 -0.1237
  677MOL0     H93371   7.789   3.991   2.535 -2.1515 -0.8332  0.2145
  677MOL0     H93372   7.940   3.955   2.605  0.7897  1.3216  2.9680
  677MOL0     H93373   7.746   4.139   2.739 -0.5195 -0.3469 -1.8777
  677MOL0     H93374   7.910   4.083   2.794 -0.3689 -0.3838 -0.4281
  677MOL0     H93375   7.769   4.282   2.496  0.3147 -0.1813  1.3249
  677MOL0     H93376   7.894   4.470   2.324  0.5731 -0.1490  1.1372
  677MOL0     H93377   7.949   4.323   2.244 -1.2034  4.3239 -3.8441
  677MOL0     H93378   8.116   4.560   2.327  2.7648 -1.2908  3.1881
  677MOL0     H93379   8.191   4.402   2.313  1.1145  1.3465 -1.4601
  677MOL0     H93380   8.133   4.372   2.099 -0.8499  0.0819 -1.3035
  677MOL0     H93381   8.013   4.503   2.080 -0.5917  1.5722  1.1853
  677MOL0     H93382   8.316   4.522   2.128  0.4788 -3.0910 -2.0504
  677MOL0     H93383   8.243   4.526   1.976  0.0590  4.1595 -1.0805
  677MOL0     H93384   8.486   4.651   2.060 -2.9944 -0.2525  1.1288
  677MOL0     H93385   8.708   4.714   2.005  1.0503  0.3806 -1.8099
  677MOL0     H93386   8.749   4.821   2.136 -0.9628 -1.6779 -0.1172
  677MOL0     H93387   8.729   4.883   1.968  0.4355 -0.0854 -0.3933
  677MOL0     H93388   8.706   5.249   2.449  1.5266  1.6778  0.8271
  677MOL0     H93389   8.830   5.458   2.488  1.3238  0.7830 -0.9147
  677MOL0     H93390   8.923   5.827   2.333  1.3139 -1.6516 -4.1520
  677MOL0     H93391   8.787   5.779   2.228 -0.1571 -0.2806 -0.5407
  677MOL0     H93392   8.651   5.892   2.372 -1.1108 -2.2870 -1.1803
  677MOL0     H93393   8.656   5.745   2.466  1.3117 -0.9091 -0.7407
  677MOL0     H93394   8.861   5.979   2.487 -1.9126  1.2990 -1.9669
  677MOL0     H93395   8.874   5.829   2.581 -1.3088 -0.0039  1.2744
  677MOL0     H93396   8.763   5.976   2.729  2.6252 -1.4606 -1.6469
  677MOL0     H93397   8.619   5.895   2.660 -1.3584  1.9482  0.8741
  677MOL0     H93398   8.721   6.136   2.519  0.1166 -1.9824 -1.2365
  677MOL0     H93399   8.559   6.076   2.526 -1.1270  1.2453  0.6000
  677MOL0     H93400   8.708   6.220   2.760  0.6062  0.8429 -1.8349
  677MOL0     H93401   8.548   6.162   2.759 -1.8830  2.7763  0.5262
  677MOL0     H93402   8.458   6.319   2.607  0.3285  1.0109  1.0866
  677MOL0     H93403   8.608   6.324   2.515 -1.6715 -3.1176  0.0017
  677MOL0     H93404   8.621   6.519   2.606 -0.6205 -1.7665 -1.1202
  677MOL0     H93405   8.693   6.436   2.749  1.3650 -0.2581 -2.0399
  677MOL0     H93406   8.737   5.597   2.101 -0.9924  0.6937  1.2202
  677MOL0     H93407   8.601   5.395   2.050 -1.2724 -2.1943  0.4283
  677MOL0     H93408   8.324   5.120   2.103 -1.2889 -0.6994 -0.4329
  677MOL0     H93409   8.176   4.927   2.105 -0.2886 -0.0399  2.0718
  677MOL0     H93410   7.177   3.497   2.811 -0.5875 -0.2781 -0.2084
  677MOL0     H93411   6.943   3.547   2.854  2.1370 -0.2975 -1.1463
  677MOL0     H93412   6.684   3.604   3.313  3.3858 -0.0559 -1.5175
  677MOL0     H93413   6.456   3.600   3.386  0.1234 -0.7694  0.5969
  677MOL0     H93414   6.214   3.964   3.279  3.7680 -1.5552 -2.5991
  677MOL0     H93415   6.146   3.845   3.174 -0.2112 -1.9934  0.9297
  677MOL0     H93416   6.051   3.788   3.460  0.3054 -4.6577 -3.3419
  677MOL0     H93417   5.968   3.810   3.309 -0.3870 -0.3243 -0.0502
  677MOL0     H93418   6.083   4.050   3.465 -0.0655  2.6124  0.1857
  677MOL0     H93419   5.946   4.045   3.341 -2.6996 -1.6918 -0.4382
  677MOL0     H93420   5.950   3.946   3.630 -0.8877 -0.8023  0.0224
  677MOL0     H93421   5.806   3.917   3.526 -0.8845  0.9081  2.3207
  677MOL0     H93422   5.804   4.338   3.631 -3.1336 -1.0744  1.8664
  677MOL0     H93423   6.356   3.922   3.103  1.1418  1.4609  1.1143
  677MOL0     H93424   6.678   4.004   2.999  0.9463 -1.3351  0.3606
  677MOL0     H93425   6.623   3.874   2.900 -2.5383  0.2909 -0.4414
  677MOL0     H93426   6.510   4.008   2.940 -0.5865  0.1628  0.3035
  678MOL0     O93427   1.024   3.014   4.842 -0.2165 -0.5634 -0.1927
  678MOL0     C93428   0.969   3.072   4.750 -1.0887  1.2107  0.2184
  678MOL0     O93429   0.971   3.209   4.725  0.6229 -0.2386  0.5910
  678MOL0     C93430   0.983   3.299   4.820  0.1792 -0.5310  0.2890
  678MOL0     C93431   0.906   3.301   4.938 -0.1883 -0.4186 -1.6017
  678MOL0     C93432   0.930   3.393   5.042  0.4570 -0.8648 -0.3433
  678MOL0     C93433   1.031   3.495   5.032 -0.4286  0.0329  0.1407
  678MOL0     O93434   1.080   3.583   5.121 -0.9899  0.1496  0.5007
  678MOL0     C93435   1.054   3.553   5.262 -0.0193  0.7208  0.0080
  678MOL0     C93436   1.136   3.638   5.358  0.5114  0.1788 -0.8848
  678MOL0     C93437   1.090   3.607   5.511 -0.3693 -0.1180  0.8486
  678MOL0     C93438   1.155   3.683   5.626 -0.4558 -0.5028  0.8230
  678MOL0     C93439   1.304   3.716   5.615 -0.4952 -0.6252  0.2870
  678MOL0     C93440   1.382   3.602   5.661 -0.1521 -0.0909 -0.1868
  678MOL0     C93441   1.535   3.622   5.628  0.0795 -1.6306 -0.1784
  678MOL0     C93442   1.604   3.759   5.647  0.8827  0.3928 -0.1380
  678MOL0     N93443   1.744   3.746   5.601 -0.0935 -1.1893  0.4931
  678MOL0     C93444   1.835   3.844   5.575  0.3508  1.2020 -0.2889
  678MOL0     C93445   1.955   3.788   5.537 -0.3152  0.2518 -1.1719
  678MOL0     C93446   2.084   3.867   5.519  0.0983  0.3927 -0.6173
  678MOL0     C93447   2.216   3.792   5.516  1.0471  0.8298 -1.0818
  678MOL0     C93448   2.314   3.882   5.448 -0.3704  0.6320 -0.3382
  678MOL0     C93449   2.460   3.821   5.447 -0.3144 -0.1043 -0.2524
  678MOL0     O93450   2.556   3.924   5.404  0.0860 -0.0296 -1.1777
  678MOL0     C93451   2.678   3.905   5.465  0.7742  0.7001  0.8514
  678MOL0     C93452   2.720   3.959   5.585  0.4016 -0.3806  0.0735
  678MOL0     C93453   2.847   3.938   5.642  0.1282 -0.3414  0.0245
  678MOL0     C93454   2.873   3.992   5.779 -0.0979 -0.1329 -0.9403
  678MOL0     C93455   2.937   3.850   5.570  0.4609  0.2701 -0.7570
  678MOL0     C93456   3.072   3.813   5.619 -0.6279 -0.6657  0.8467
  678MOL0     O93457   3.156   3.750   5.522 -0.0755 -0.3939  0.3668
  678MOL0     C93458   3.280   3.709   5.563 -0.4237 -0.1788 -0.1343
  678MOL0     C93459   3.392   3.781   5.602 -0.1607 -0.2967 -0.1333
  678MOL0     C93460   3.514   3.719   5.626  0.0221 -0.3932 -0.7146
  678MOL0     C93461   3.518   3.580   5.623 -0.4080  0.2435 -0.1855
  678MOL0     O93462   3.630   3.502   5.643  0.9098  0.4727 -0.0890
  678MOL0     C93463   3.745   3.560   5.696 -0.6656 -0.1727 -0.1278
  678MOL0     C93464   3.857   3.459   5.719  0.0545  0.3747  0.1370
  678MOL0     C93465   3.972   3.529   5.782 -0.3577 -0.3518 -0.8507
  678MOL0     C93466   4.023   3.672   5.740  0.0407  0.5035 -0.0613
  678MOL0     C93467   4.037   3.686   5.590 -0.4021 -0.7013  0.0909
  678MOL0     C93468   4.145   3.801   5.552  0.8525  0.2742 -0.1858
  678MOL0     C93469   4.178   3.806   5.400 -0.0738  0.2830 -0.4364
  678MOL0     C93470   4.240   3.941   5.361 -0.6193 -1.0004 -0.8698
  678MOL0    Cl93471   4.390   3.974   5.462 -0.0136  0.3234 -0.1959
  678MOL0     C93472   3.401   3.506   5.595  0.3094 -0.7265 -0.0049
  678MOL0     C93473   3.276   3.568   5.560 -0.6090 -1.1823 -0.1212
  678MOL0     O93474   3.099   3.841   5.731  0.0413 -0.1122 -0.2529
  678MOL0     C93475   2.897   3.791   5.450 -0.9684 -0.1575  0.5905
  678MOL0     C93476   2.764   3.823   5.393 -0.4498  0.3749 -0.9432
  678MOL0     N93477   1.926   3.652   5.530 -0.8827  0.2624  0.2695
  678MOL0     N93478   1.803   3.633   5.565 -0.9268 -0.3062 -0.7297
  678MOL0     C93479   1.083   3.501   4.903 -0.2393 -0.8516  0.2004
  678MOL0     C93480   1.059   3.413   4.805  0.6339 -0.5481  0.5491
  678MOL0     C93481   0.937   2.978   4.632 -0.7658  0.4862 -0.6290
  678MOL0     C93482   0.821   3.003   4.576 -0.3888  0.5851  0.4936
  678MOL0     C93483   0.764   2.916   4.477  0.2739 -0.7817  0.2402
  678MOL0     C93484   0.840   2.807   4.435 -0.5393  0.2662 -0.3740
  678MOL0     O93485   0.810   2.719   4.334  0.3306 -0.1764 -0.2315
  678MOL0     C93486   0.707   2.745   4.246  0.4639 -0.2016 -0.6988
  678MOL0     C93487   0.764   2.788   4.114 -0.3018 -0.0866 -1.2008
  678MOL0     C93488   0.651   2.785   4.016 -0.2366  0.1114 -1.0445
  678MOL0     C93489   0.701   2.817   3.871 -0.7899  0.2397 -0.0712
  678MOL0     C93490   0.588   2.851   3.788  0.6818 -0.1717  0.3152
  678MOL0     C93491   0.501   2.866   3.706 -0.0919  1.0296 -0.0324
  678MOL0     C93492   0.966   2.787   4.495 -0.9534 -0.1225  0.4716
  678MOL0     C93493   1.016   2.866   4.593  0.3477  0.2420  0.7376
  678MOL0     C93494   1.144   2.816   4.660 -1.2158 -0.4519 -0.8549
  678MOL0     H93495   0.832   3.221   4.938 -0.8624  0.1550 -3.5507
  678MOL0     H93496   0.889   3.368   5.139  0.9467  1.2784  0.4862
  678MOL0     H93497   1.067   3.446   5.280 -0.9500  0.4857 -0.6593
  678MOL0     H93498   0.949   3.574   5.280 -0.2855  0.8914 -1.5326
  678MOL0     H93499   1.243   3.616   5.346  0.0388 -2.2229 -1.1637
  678MOL0     H93500   1.126   3.747   5.358  1.2081  0.2904  1.1128
  678MOL0     H93501   0.982   3.601   5.519 -0.5591 -3.6485 -1.9220
  678MOL0     H93502   1.111   3.502   5.531  1.1240 -0.0926 -0.3428
  678MOL0     H93503   1.099   3.777   5.626  0.4854  0.0765  0.3532
  678MOL0     H93504   1.134   3.644   5.726  2.2784  0.9566  2.0809
  678MOL0     H93505   1.334   3.805   5.673  3.5811  2.2877 -5.3486
  678MOL0     H93506   1.329   3.750   5.514 -0.7839  2.8160  1.2243
  678MOL0     H93507   1.368   3.599   5.770  0.1869 -0.2249 -0.1445
  678MOL0     H93508   1.349   3.510   5.612 -1.1461  0.0308  0.2341
  678MOL0     H93509   1.555   3.599   5.523 -0.3267  0.1639 -0.6919
  678MOL0     H93510   1.586   3.559   5.701 -0.4687 -0.3109  1.3941
  678MOL0     H93511   1.554   3.828   5.579 -0.0861  2.1519  2.2302
  678MOL0     H93512   1.609   3.803   5.747  1.2647  1.5281 -0.6430
  678MOL0     H93513   1.830   3.949   5.600 -1.8217  0.4314  3.1702
  678MOL0     H93514   2.088   3.940   5.601 -0.1333  0.8246 -0.9887
  678MOL0     H93515   2.084   3.919   5.423  1.8670  0.2004 -0.7558
  678MOL0     H93516   2.249   3.775   5.619  0.3348 -0.5209 -1.0490
  678MOL0     H93517   2.203   3.698   5.461  0.8061 -0.0223  0.3528
  678MOL0     H93518   2.282   3.902   5.345 -1.8593 -1.3710 -0.3206
  678MOL0     H93519   2.321   3.972   5.510 -1.1431 -0.0126  0.7125
  678MOL0     H93520   2.494   3.785   5.544  0.6308 -1.5627 -1.0901
  678MOL0     H93521   2.465   3.729   5.389  0.8906 -0.2883  0.1126
  678MOL0     H93522   2.645   4.026   5.625 -0.8212 -2.0319  0.6232
  678MOL0     H93523   2.973   4.033   5.800  0.1446 -1.7671  1.3555
  678MOL0     H93524   2.854   3.917   5.856  0.3399  0.8915  0.2117
  678MOL0     H93525   2.804   4.074   5.802  0.6126  0.1683  0.1778
  678MOL0     H93526   3.380   3.889   5.602 -1.0842 -0.3855 -1.0008
  678MOL0     H93527   3.589   3.786   5.665 -2.9329  1.8821  1.5931
  678MOL0     H93528   3.770   3.640   5.626  1.4110 -0.9851 -0.3847
  678MOL0     H93529   3.721   3.597   5.795 -1.5222 -1.0932  0.0246
  678MOL0     H93530   3.814   3.378   5.779 -0.6053  1.0865  0.6448
  678MOL0     H93531   3.893   3.429   5.620  2.1202 -3.4082  1.8442
  678MOL0     H93532   4.062   3.468   5.792  1.3008  2.2575  2.7051
  678MOL0     H93533   3.953   3.538   5.890 -1.0561 -0.8595 -0.9322
  678MOL0     H93534   4.120   3.689   5.788  0.1328 -1.2061  0.4410
  678MOL0     H93535   3.954   3.750   5.772 -0.4491  0.4901 -1.0662
  678MOL0     H93536   4.072   3.588   5.559  0.5558 -0.2215 -0.3942
  678MOL0     H93537   3.947   3.716   5.535 -1.9652 -2.6153  1.4455
  678MOL0     H93538   4.233   3.770   5.609 -0.6419  0.3693  2.3481
  678MOL0     H93539   4.109   3.901   5.579 -1.2292 -0.1554 -1.1619
  678MOL0     H93540   4.089   3.783   5.340  1.2964 -3.2053 -1.4127
  678MOL0     H93541   4.255   3.734   5.372 -0.2494 -0.2413  0.4048
  678MOL0     H93542   4.158   4.009   5.387  0.8252  0.5961 -0.3159
  678MOL0     H93543   4.262   3.952   5.254 -0.8987  1.4210 -0.7328
  678MOL0     H93544   3.409   3.398   5.588 -2.0791 -0.8329 -4.5762
  678MOL0     H93545   3.188   3.515   5.527 -1.2779  1.2368 -2.6199
  678MOL0     H93546   2.973   3.745   5.387 -2.1567  0.3997 -1.3526
  678MOL0     H93547   2.729   3.798   5.293  0.3609  2.7023 -1.8827
  678MOL0     H93548   1.145   3.583   4.870  0.5489 -1.5905 -0.1892
  678MOL0     H93549   1.115   3.432   4.714  1.6537 -2.9575  0.5905
  678MOL0     H93550   0.761   3.089   4.604 -0.7108 -0.0826  1.9909
  678MOL0     H93551   0.678   2.953   4.422  0.7327  2.4639  1.5052
  678MOL0     H93552   0.644   2.657   4.232  0.6969 -0.3138 -1.0401
  678MOL0     H93553   0.638   2.825   4.278 -1.3920 -2.0977  0.2681
  678MOL0     H93554   0.844   2.721   4.081 -0.8764 -1.0805 -0.6321
  678MOL0     H93555   0.803   2.889   4.131 -0.9517  0.0510 -0.4996
  678MOL0     H93556   0.603   2.687   4.021  3.9043 -2.0334  0.9784
  678MOL0     H93557   0.577   2.862   4.041  0.1423  0.1111  0.1067
  678MOL0     H93558   0.736   2.727   3.820 -0.5387  1.5901 -2.4055
  678MOL0     H93559   0.786   2.886   3.877 -1.8281  1.4721  0.9412
  678MOL0     H93560   0.419   2.879   3.638 -1.6572  1.7328  1.8925
  678MOL0     H93561   1.025   2.703   4.459 -2.6193 -0.8573 -0.6701
  678MOL0     H93562   1.206   2.899   4.696 -0.5076  0.7602 -4.4602
  678MOL0     H93563   1.128   2.736   4.733 -3.2007 -1.4377 -2.2892
  678MOL0     H93564   1.216   2.773   4.589  0.7787 -0.0383  0.8058
  679MOL0     O93565   6.563   8.080   2.438 -0.2596  0.0424  0.4497
  679MOL0     C93566   6.564   8.126   2.551 -0.8087 -0.5050  0.2672
  679MOL0     O93567   6.523   8.063   2.667  0.5589  0.4235 -0.2281
  679MOL0     C93568   6.529   7.924   2.657  0.2306  0.3509 -0.5709
  679MOL0     C93569   6.644   7.857   2.707  0.0164 -0.3753  0.0986
  679MOL0     C93570   6.644   7.716   2.715  0.4356 -0.6052 -0.5061
  679MOL0     C93571   6.538   7.644   2.661 -0.5569  0.9644  0.1609
  679MOL0     O93572   6.526   7.505   2.667 -0.4515  0.5058 -0.0420
  679MOL0     C93573   6.422   7.444   2.749  0.7572  0.6460 -0.2917
  679MOL0     C93574   6.477   7.324   2.845 -0.7062  1.0557  0.0102
  679MOL0     C93575   6.452   7.189   2.758 -0.0422 -0.1469 -0.0092
  679MOL0     C93576   6.516   7.076   2.849  0.2831 -0.2462  0.6060
  679MOL0     C93577   6.477   6.935   2.802 -0.9853 -0.6579  0.1907
  679MOL0     C93578   6.557   6.830   2.878 -0.3635  0.9962 -0.2668
  679MOL0     C93579   6.529   6.683   2.835 -0.2102 -0.1234 -0.0028
  679MOL0     C93580   6.403   6.611   2.888  0.4451 -0.2668  0.5452
  679MOL0     N93581   6.403   6.467   2.854  0.0041 -0.7357 -0.5953
  679MOL0     C93582   6.331   6.408   2.751 -0.1372 -0.4139 -0.1982
  679MOL0     C93583   6.335   6.273   2.773  1.0921 -0.3026 -0.0730
  679MOL0     C93584   6.254   6.161   2.701 -0.5675  0.2842  0.1727
  679MOL0     C93585   6.292   6.148   2.554  0.8644 -0.0101 -0.1426
  679MOL0     C93586   6.436   6.130   2.512  0.2024  0.1633 -0.1479
  679MOL0     C93587   6.506   6.014   2.584  0.5441 -0.6076 -0.2581
  679MOL0     O93588   6.448   5.878   2.580  1.1333  0.8012 -0.1382
  679MOL0     C93589   6.536   5.777   2.558 -0.5337  0.5910  0.9790
  679MOL0     C93590   6.517   5.688   2.456 -0.3606 -0.0944  0.2430
  679MOL0     C93591   6.599   5.576   2.445 -0.5490  0.6584 -0.1992
  679MOL0     C93592   6.551   5.455   2.360  0.6015  0.5724 -0.5772
  679MOL0     C93593   6.712   5.570   2.530 -0.1861  0.0023 -0.4150
  679MOL0     C93594   6.801   5.459   2.532  0.6811 -0.0777  0.1846
  679MOL0     O93595   6.856   5.431   2.418 -0.4874  0.5329  0.1735
  679MOL0     C93596   6.924   5.311   2.400  0.2231  0.7831  0.1593
  679MOL0     C93597   7.024   5.313   2.310  0.1404 -0.5728 -0.0349
  679MOL0     C93598   7.092   5.199   2.274 -0.4093 -0.6000 -0.4696
  679MOL0     C93599   7.067   5.075   2.326 -0.7939 -0.1826  0.4946
  679MOL0     O93600   7.153   4.973   2.290  1.1463 -0.5333 -0.1201
  679MOL0     C93601   7.096   4.868   2.218  0.0905  0.8512  0.4397
  679MOL0     C93602   7.197   4.765   2.184  0.3756 -0.4580  0.5261
  679MOL0     C93603   7.139   4.655   2.089  0.7487  0.0263  0.3824
  679MOL0     C93604   7.240   4.545   2.067 -0.8818  0.9682  0.7692
  679MOL0     C93605   7.185   4.426   1.995  0.2241  0.1222  1.1783
  679MOL0     C93606   7.287   4.305   1.987 -1.0954  0.1503  0.7661
  679MOL0     C93607   7.259   4.209   1.872  0.4208  1.2023  0.1793
  679MOL0     C93608   7.376   4.116   1.855  0.1450  1.0129 -0.0009
  679MOL0    Cl93609   7.381   3.979   1.988 -0.3768  0.4393  0.4003
  679MOL0     C93610   6.953   5.065   2.413  0.1457  0.6932  0.4026
  679MOL0     C93611   6.891   5.186   2.449  0.2917  0.3244 -0.4570
  679MOL0     O93612   6.816   5.405   2.642  0.2748  0.6272  0.6544
  679MOL0     C93613   6.745   5.677   2.614 -0.9677  0.1145 -0.6167
  679MOL0     C93614   6.653   5.771   2.632  0.8290  0.0245  0.2371
  679MOL0     N93615   6.405   6.258   2.893 -0.2881  0.5397  0.5571
  679MOL0     N93616   6.431   6.371   2.944 -0.2201  0.4122 -0.0517
  679MOL0     C93617   6.430   7.707   2.608 -0.8340 -0.0409 -1.3378
  679MOL0     C93618   6.416   7.849   2.603  0.5199 -0.5145 -0.6677
  679MOL0     C93619   6.592   8.281   2.553 -0.5124 -0.3820  0.4113
  679MOL0     C93620   6.586   8.348   2.677  0.3599  0.3638  0.1237
  679MOL0     C93621   6.595   8.484   2.690 -0.6714 -0.0677 -0.0540
  679MOL0     C93622   6.606   8.567   2.579  0.3392 -0.0062  0.8709
  679MOL0     O93623   6.566   8.704   2.593 -0.6732  0.7146 -0.8057
  679MOL0     C93624   6.582   8.799   2.485 -0.2340  0.4338 -0.2789
  679MOL0     C93625   6.537   8.941   2.530  0.3939  0.9485 -0.0820
  679MOL0     C93626   6.511   9.055   2.424 -0.7563 -0.5136  0.3645
  679MOL0     C93627   6.527   9.193   2.480  0.1524  0.4402 -0.5023
  679MOL0     C93628   6.456   9.219   2.603  0.2161  0.6026  0.4451
  679MOL0     C93629   6.382   9.252   2.696 -0.8523 -0.3723 -0.4998
  679MOL0     C93630   6.628   8.504   2.461 -0.3847 -0.2765  0.1005
  679MOL0     C93631   6.615   8.370   2.445  0.5881  0.2245  0.0772
  679MOL0     C93632   6.632   8.317   2.298  0.3772 -0.0128 -0.4708
  679MOL0     H93633   6.725   7.914   2.750  0.9957 -1.3749 -0.3674
  679MOL0     H93634   6.727   7.664   2.761  0.2555  1.1499  2.0063
  679MOL0     H93635   6.340   7.412   2.684 -0.2965 -0.0859  1.3362
  679MOL0     H93636   6.382   7.515   2.822 -1.1181  0.3883 -1.0234
  679MOL0     H93637   6.583   7.335   2.870 -0.6114  0.3517 -0.0515
  679MOL0     H93638   6.416   7.328   2.936 -2.5780 -2.1926 -0.9496
  679MOL0     H93639   6.348   7.165   2.736 -0.0921 -0.5436  0.6524
  679MOL0     H93640   6.491   7.185   2.655 -3.6260 -2.4293 -1.4699
  679MOL0     H93641   6.623   7.098   2.863  0.0712 -0.0397  2.1603
  679MOL0     H93642   6.471   7.089   2.948  0.6961  1.3516  0.6281
  679MOL0     H93643   6.487   6.920   2.694  0.3014 -0.6777  0.2988
  679MOL0     H93644   6.380   6.904   2.843  1.0171 -4.8902  2.5123
  679MOL0     H93645   6.661   6.847   2.850  0.6756 -3.5405 -0.0103
  679MOL0     H93646   6.532   6.850   2.983 -0.3974  0.9978 -0.2750
  679MOL0     H93647   6.625   6.637   2.859  0.2242  1.2173  0.9355
  679MOL0     H93648   6.534   6.684   2.726 -1.3076 -0.8980 -0.0809
  679MOL0     H93649   6.387   6.621   2.996 -1.1618 -1.4737  0.4519
  679MOL0     H93650   6.317   6.660   2.842  2.4761  1.7584 -1.3498
  679MOL0     H93651   6.265   6.460   2.681  0.0322 -1.3784 -1.0860
  679MOL0     H93652   6.148   6.176   2.720 -0.0413  2.1916  2.0345
  679MOL0     H93653   6.288   6.071   2.754  1.1796  0.3891 -0.6811
  679MOL0     H93654   6.241   6.059   2.515 -0.4165  0.9023 -0.6005
  679MOL0     H93655   6.240   6.232   2.507 -0.5460 -2.5355 -3.4937
  679MOL0     H93656   6.432   6.110   2.404 -0.2091  0.5083 -0.1985
  679MOL0     H93657   6.497   6.220   2.522 -1.3434  1.4868 -1.8482
  679MOL0     H93658   6.609   6.018   2.550  1.9441 -0.5744  3.5220
  679MOL0     H93659   6.513   6.044   2.689 -1.6339 -1.1896  0.1208
  679MOL0     H93660   6.438   5.705   2.383 -1.1270 -1.8648  0.6260
  679MOL0     H93661   6.609   5.444   2.268 -1.7370 -0.4795 -2.0197
  679MOL0     H93662   6.451   5.483   2.326  0.5279  0.3711 -0.5338
  679MOL0     H93663   6.564   5.362   2.417 -1.4334 -0.2164 -1.3108
  679MOL0     H93664   7.049   5.415   2.284 -3.3986  1.4461  3.4196
  679MOL0     H93665   7.174   5.219   2.205 -0.4275 -2.3140 -1.0341
  679MOL0     H93666   7.021   4.813   2.275  0.9818 -2.1470 -1.0817
  679MOL0     H93667   7.053   4.906   2.125 -0.0304  0.6421  0.4094
  679MOL0     H93668   7.282   4.812   2.134 -0.5037  0.2457 -0.3546
  679MOL0     H93669   7.245   4.722   2.273  4.2609 -0.3660 -1.3309
  679MOL0     H93670   7.116   4.696   1.991  0.8129  1.2399  0.8586
  679MOL0     H93671   7.045   4.614   2.128 -0.1558  1.5156 -0.1744
  679MOL0     H93672   7.292   4.505   2.154  2.1327 -4.9176 -3.0765
  679MOL0     H93673   7.320   4.583   2.002 -0.8460  1.7151  1.2394
  679MOL0     H93674   7.092   4.384   2.035 -0.2394  0.0946  0.1074
  679MOL0     H93675   7.161   4.459   1.893  0.4040 -0.5666  0.9080
  679MOL0     H93676   7.287   4.243   2.077 -0.0190 -2.0621 -0.6644
  679MOL0     H93677   7.385   4.350   1.966 -0.6655 -0.9196  0.3790
  679MOL0     H93678   7.242   4.267   1.782 -1.6559  0.7645  0.2464
  679MOL0     H93679   7.160   4.164   1.887 -1.3159  3.9563 -2.1235
  679MOL0     H93680   7.472   4.169   1.853  1.0245 -0.4989 -3.1412
  679MOL0     H93681   7.367   4.077   1.754  1.0911  0.8468 -0.0227
  679MOL0     H93682   6.916   4.972   2.454  2.5543  0.0289  1.2074
  679MOL0     H93683   6.827   5.171   2.535 -0.1100 -0.8030 -0.9358
  679MOL0     H93684   6.838   5.673   2.669 -0.7036 -0.7420 -1.0991
  679MOL0     H93685   6.670   5.847   2.707 -2.2357 -2.3586  3.7519
  679MOL0     H93686   6.358   7.642   2.561 -0.5736  0.5273 -2.5726
  679MOL0     H93687   6.323   7.889   2.564 -0.5466  0.0414  2.2169
  679MOL0     H93688   6.577   8.290   2.768 -2.2500  0.1908 -0.1882
  679MOL0     H93689   6.590   8.527   2.789 -0.8806 -2.9560  1.2687
  679MOL0     H93690   6.687   8.802   2.453 -0.1284  0.3663  0.0621
  679MOL0     H93691   6.521   8.759   2.403 -0.7120  0.6926 -0.0523
  679MOL0     H93692   6.617   8.964   2.600 -0.2712  3.5290 -0.0612
  679MOL0     H93693   6.447   8.913   2.586  0.3357 -0.1530 -0.7058
  679MOL0     H93694   6.587   9.047   2.346  0.1370 -1.8416  1.3192
  679MOL0     H93695   6.420   9.041   2.364  0.7555  0.7915 -2.3917
  679MOL0     H93696   6.496   9.269   2.408 -1.5957 -0.7895 -1.1021
  679MOL0     H93697   6.634   9.214   2.495  0.2414 -1.1327  1.4901
  679MOL0     H93698   6.322   9.289   2.776  0.2114 -0.1488  0.2206
  679MOL0     H93699   6.653   8.558   2.371  2.3352 -0.1040  0.8534
  679MOL0     H93700   6.676   8.394   2.233 -0.5488  0.7431 -0.2376
  679MOL0     H93701   6.704   8.237   2.313  0.1845  0.3037  2.8112
  679MOL0     H93702   6.541   8.281   2.248  1.1532 -0.8341 -1.3272
  680MOL0     O93703   5.808   9.382   1.606  0.1407 -0.0245  0.2485
  680MOL0     C93704   5.896   9.339   1.681  0.5160  0.5395 -0.0592
  680MOL0     O93705   6.025   9.323   1.646  0.2237 -0.6232 -0.2821
  680MOL0     C93706   6.061   9.355   1.517 -0.1902 -0.2220 -0.4209
  680MOL0     C93707   6.099   9.251   1.424 -0.2581  0.6144 -0.5061
  680MOL0     C93708   6.136   9.283   1.293 -0.1634 -0.3145  0.3294
  680MOL0     C93709   6.137   9.417   1.249  0.1195  0.3844 -0.1938
  680MOL0     O93710   6.170   9.460   1.123  0.1148 -0.0912  0.3564
  680MOL0     C93711   6.137   9.361   1.018  0.8505 -1.1097 -0.7470
  680MOL0     C93712   6.169   9.456   0.901 -0.0245 -0.1253 -0.2030
  680MOL0     C93713   6.302   9.525   0.887  0.0969  0.6735  0.1454
  680MOL0     C93714   6.413   9.420   0.876 -0.2517  0.4756  0.0493
  680MOL0     C93715   6.559   9.470   0.895  0.3502 -0.0902 -0.3646
  680MOL0     C93716   6.603   9.566   0.787  0.2537  0.6690 -0.2709
  680MOL0     C93717   6.749   9.605   0.786  0.5918  0.1445 -0.5066
  680MOL0     C93718   6.858   9.508   0.737  0.2080 -0.5016  0.0007
  680MOL0     N93719   6.880   9.394   0.828 -0.3142 -0.5937  0.3733
  680MOL0     C93720   6.943   9.401   0.950  0.2383  0.5073  0.4220
  680MOL0     C93721   6.956   9.273   0.995  0.0388 -0.0834  0.4660
  680MOL0     C93722   7.013   9.217   1.120  0.2079 -0.2550 -0.1439
  680MOL0     C93723   7.155   9.166   1.101 -0.7147  0.5557  0.1252
  680MOL0     C93724   7.258   9.266   1.052 -0.7846  0.5321 -0.4954
  680MOL0     C93725   7.288   9.378   1.146  0.1771  0.4372 -0.4803
  680MOL0     O93726   7.429   9.419   1.137 -0.4840 -0.4581  0.7450
  680MOL0     C93727   7.479   9.541   1.187  1.1628  0.1326 -0.1392
  680MOL0     C93728   7.447   9.587   1.325  0.2572 -1.0310  1.1882
  680MOL0     C93729   7.497   9.711   1.369 -0.7104 -0.2003  0.7009
  680MOL0     C93730   7.477   9.745   1.516 -0.3584 -0.1697  0.8850
  680MOL0     C93731   7.581   9.786   1.272 -0.4726 -0.2587 -0.9243
  680MOL0     C93732   7.668   9.904   1.312  0.5866  0.0219 -0.1705
  680MOL0     O93733   7.706   9.993   1.215  0.6207  0.3583  0.6014
  680MOL0     C93734   7.795  10.087   1.230  0.3853  1.0882  0.1372
  680MOL0     C93735   7.788  10.205   1.150  0.7391 -0.2693 -1.0535
  680MOL0     C93736   7.889  10.297   1.146  0.1267 -0.9057 -0.4474
  680MOL0     C93737   8.004  10.269   1.214  0.2410  0.6730  0.3347
  680MOL0     O93738   8.123  10.343   1.199 -0.2455 -1.4169  0.5389
  680MOL0     C93739   8.162  10.382   1.061  0.4175  0.4565 -0.9500
  680MOL0     C93740   8.143  10.537   1.022 -0.6384  0.7037 -0.4109
  680MOL0     C93741   8.194  10.570   0.878 -0.0740 -0.4193 -0.5773
  680MOL0     C93742   8.208  10.726   0.860 -0.2635  0.9232  0.3097
  680MOL0     C93743   8.332  10.806   0.925  0.4872 -0.5308  0.3592
  680MOL0     C93744   8.383  10.915   0.826 -0.0221 -0.4724  1.2214
  680MOL0     C93745   8.467  11.014   0.896  0.8633 -0.0511 -0.4938
  680MOL0     C93746   8.603  10.952   0.942  0.2558 -0.0778  0.0864
  680MOL0    Cl93747   8.692  11.089   0.991 -0.2247  0.2943  0.2166
  680MOL0     C93748   8.018  10.156   1.287 -0.5091 -0.1897 -0.9775
  680MOL0     C93749   7.919  10.060   1.293 -0.8053 -0.0940  0.3965
  680MOL0     O93750   7.694   9.914   1.436 -0.1181 -0.1275  0.7508
  680MOL0     C93751   7.595   9.744   1.140  0.5888  0.3748 -0.5887
  680MOL0     C93752   7.559   9.619   1.102 -0.0533  0.0842  0.1765
  680MOL0     N93753   6.911   9.196   0.893  0.9089  0.4011 -0.0462
  680MOL0     N93754   6.872   9.263   0.790 -0.7084  0.3032 -0.6353
  680MOL0     C93755   6.099   9.516   1.343 -0.8276 -0.4215  0.6949
  680MOL0     C93756   6.050   9.487   1.470  0.5989 -0.6484  0.0923
  680MOL0     C93757   5.846   9.290   1.818 -0.0825  0.1110  1.4960
  680MOL0     C93758   5.931   9.189   1.873  0.1582  1.3305 -0.2559
  680MOL0     C93759   5.904   9.129   2.003 -0.0870  0.7123 -0.2439
  680MOL0     C93760   5.797   9.177   2.073  0.3711 -0.9909  0.2072
  680MOL0     O93761   5.761   9.131   2.197 -0.2047  0.0996 -0.2189
  680MOL0     C93762   5.782   8.991   2.234  0.0967 -0.3484 -0.1885
  680MOL0     C93763   5.718   8.881   2.147  0.1621  0.8753  0.3920
  680MOL0     C93764   5.799   8.744   2.172  0.1466  0.2146 -0.1772
  680MOL0     C93765   5.774   8.646   2.057  0.0111  0.2548  0.1744
  680MOL0     C93766   5.851   8.528   2.101 -0.0432  0.8914  0.7460
  680MOL0     C93767   5.921   8.438   2.144 -0.1834 -0.7598  0.0527
  680MOL0     C93768   5.720   9.283   2.017  0.1629 -0.1088  0.6494
  680MOL0     C93769   5.743   9.335   1.890  0.1453  0.3539  0.4566
  680MOL0     C93770   5.638   9.440   1.838  1.0412  0.3409 -0.5962
  680MOL0     H93771   6.104   9.148   1.457 -0.2393 -0.0536 -2.4553
  680MOL0     H93772   6.171   9.203   1.228  2.4115  0.7458  0.3095
  680MOL0     H93773   6.032   9.335   0.999  0.4691  1.7171 -3.3445
  680MOL0     H93774   6.203   9.275   1.025  3.7540  0.9986 -0.3771
  680MOL0     H93775   6.160   9.398   0.809 -2.8370 -2.3283  1.2827
  680MOL0     H93776   6.094   9.536   0.907  2.4280  2.2389  1.6308
  680MOL0     H93777   6.296   9.591   0.801 -2.5461 -1.3247 -1.3494
  680MOL0     H93778   6.328   9.584   0.975  0.9186  0.1949  0.2342
  680MOL0     H93779   6.374   9.343   0.944 -3.0242 -3.1398 -4.9423
  680MOL0     H93780   6.411   9.375   0.776 -1.1920 -1.5218  0.9070
  680MOL0     H93781   6.635   9.392   0.904 -0.8064 -1.2008 -0.0319
  680MOL0     H93782   6.566   9.528   0.988  0.7013  1.3828 -1.2708
  680MOL0     H93783   6.585   9.529   0.686 -0.8240 -0.5982  0.3552
  680MOL0     H93784   6.539   9.653   0.808  2.6821  2.0708  1.8825
  680MOL0     H93785   6.777   9.635   0.887 -1.1791  0.1107  0.0194
  680MOL0     H93786   6.764   9.698   0.730  0.0267  0.8442  0.4687
  680MOL0     H93787   6.836   9.463   0.640 -1.9003  0.5998 -0.1181
  680MOL0     H93788   6.945   9.574   0.736 -1.8438  2.4533 -0.7780
  680MOL0     H93789   6.962   9.489   1.010  1.4521  0.2299  0.4561
  680MOL0     H93790   6.954   9.130   1.149  2.4925 -1.5740  0.8759
  680MOL0     H93791   7.004   9.286   1.205  0.6001  0.4974 -0.6942
  680MOL0     H93792   7.189   9.133   1.200 -0.3100  0.5387 -0.0151
  680MOL0     H93793   7.149   9.077   1.039  0.3549  0.9045 -0.5101
  680MOL0     H93794   7.351   9.214   1.029 -2.3586 -3.4274  1.2372
  680MOL0     H93795   7.222   9.311   0.958  1.8772  0.9964 -1.3677
  680MOL0     H93796   7.212   9.456   1.131 -0.6301  0.3643  2.4699
  680MOL0     H93797   7.287   9.343   1.250  0.3750  2.2435  0.1695
  680MOL0     H93798   7.374   9.522   1.371 -2.0261  0.3032 -0.3572
  680MOL0     H93799   7.382   9.700   1.546 -1.5213  0.4834 -1.5663
  680MOL0     H93800   7.467   9.854   1.514  0.4747 -0.0187  2.8151
  680MOL0     H93801   7.568   9.718   1.571 -0.3490 -1.2923  0.3489
  680MOL0     H93802   7.700  10.225   1.090 -0.1538  0.7124  0.5176
  680MOL0     H93803   7.873  10.389   1.091  1.5729 -1.2369 -1.4769
  680MOL0     H93804   8.266  10.352   1.044  0.3529  0.9664 -2.3565
  680MOL0     H93805   8.106  10.328   0.985 -0.2486  1.6252 -1.3099
  680MOL0     H93806   8.037  10.562   1.030 -0.7324  0.6418 -1.3963
  680MOL0     H93807   8.189  10.594   1.104 -1.4514 -1.2190  1.4812
  680MOL0     H93808   8.123  10.524   0.808 -2.5708  1.7140  0.3801
  680MOL0     H93809   8.296  10.530   0.871  0.4108  0.4659  0.9524
  680MOL0     H93810   8.113  10.777   0.880 -0.5036  1.4771 -1.9795
  680MOL0     H93811   8.226  10.751   0.755 -1.5357 -0.8039 -0.3747
  680MOL0     H93812   8.288  10.856   1.012 -0.6201  0.6991 -0.8590
  680MOL0     H93813   8.409  10.734   0.956  0.2528 -0.3010  1.5060
  680MOL0     H93814   8.299  10.967   0.780  2.2386  2.0511 -0.3277
  680MOL0     H93815   8.430  10.861   0.743 -0.9409 -2.1207  1.7233
  680MOL0     H93816   8.407  11.068   0.970 -3.3440 -2.7949 -1.5180
  680MOL0     H93817   8.497  11.083   0.817  1.0297  1.8933  1.1933
  680MOL0     H93818   8.659  10.900   0.864 -0.9699 -4.1762  1.6770
  680MOL0     H93819   8.588  10.897   1.036  1.6636  1.8306  1.5075
  680MOL0     H93820   8.114  10.143   1.336 -1.2803  1.8023  1.2818
  680MOL0     H93821   7.932   9.964   1.342 -3.1636 -1.1556 -0.8900
  680MOL0     H93822   7.648   9.798   1.062  0.5108 -0.9045 -1.5599
  680MOL0     H93823   7.565   9.589   0.998  4.0165 -1.9879  0.8146
  680MOL0     H93824   6.114   9.619   1.311 -0.4826 -1.0411 -1.2744
  680MOL0     H93825   6.028   9.570   1.537 -3.5898  2.4103 -4.3463
  680MOL0     H93826   6.014   9.147   1.817  0.1144  0.8444  0.0328
  680MOL0     H93827   5.950   9.035   2.034  0.5753  1.1044 -0.0173
  680MOL0     H93828   5.890   8.986   2.219  0.1633  0.8326 -0.1546
  680MOL0     H93829   5.769   8.982   2.343  0.1115  0.8640 -0.0754
  680MOL0     H93830   5.728   8.909   2.042 -1.7417 -0.3506 -0.1798
  680MOL0     H93831   5.613   8.871   2.177  0.0658  0.3504 -0.1011
  680MOL0     H93832   5.904   8.773   2.177  0.5107 -0.7173 -1.7704
  680MOL0     H93833   5.764   8.708   2.269  3.3144  0.5812  1.2045
  680MOL0     H93834   5.795   8.683   1.956  0.3272  2.1238  0.8820
  680MOL0     H93835   5.669   8.613   2.059 -0.1247  0.7175  0.7862
  680MOL0     H93836   5.997   8.375   2.187  2.3275  3.9590  3.5314
  680MOL0     H93837   5.628   9.313   2.067  0.3890  0.5532  0.6796
  680MOL0     H93838   5.576   9.384   1.767 -0.4718 -2.7088  2.7863
  680MOL0     H93839   5.563   9.469   1.913 -0.9835 -1.3937 -1.8380
  680MOL0     H93840   5.688   9.530   1.802  0.0879  1.0943 -0.0900
  681MOL0     O93841   9.042   9.001   0.317  0.1099  0.1188  1.1127
  681MOL0     C93842   9.012   9.115   0.273  0.8782 -1.0513 -0.4746
  681MOL0     O93843   9.008   9.232   0.350  0.0870  0.7265  0.2461
  681MOL0     C93844   8.982   9.216   0.485  0.9179  0.6230  0.1205
  681MOL0     C93845   9.059   9.137   0.580  0.0941 -0.0587  0.0908
  681MOL0     C93846   9.008   9.114   0.712 -0.0979 -0.2798  0.3164
  681MOL0     C93847   8.896   9.194   0.751 -0.9199  0.0073  0.1114
  681MOL0     O93848   8.868   9.170   0.885 -0.1101  0.2430 -0.4540
  681MOL0     C93849   8.728   9.185   0.915 -0.3274  0.0758 -0.4052
  681MOL0     C93850   8.694   9.081   1.019 -0.1807 -0.3405  0.8223
  681MOL0     C93851   8.770   9.092   1.150 -0.1804  0.4393  0.7072
  681MOL0     C93852   8.728   8.977   1.243  0.4999  1.2258  0.7554
  681MOL0     C93853   8.810   8.979   1.373 -0.5830 -0.4665 -0.6613
  681MOL0     C93854   8.951   8.925   1.355  0.5229 -0.6726 -0.5494
  681MOL0     C93855   9.023   8.913   1.489 -0.9919  0.0001 -0.1574
  681MOL0     C93856   9.149   8.823   1.471  0.6833 -0.1287 -0.8356
  681MOL0     N93857   9.253   8.821   1.578 -0.6150 -0.1093 -0.8866
  681MOL0     C93858   9.382   8.873   1.565  0.8961 -0.1156  0.3516
  681MOL0     C93859   9.445   8.848   1.679  0.8794 -0.5675 -0.0347
  681MOL0     C93860   9.582   8.905   1.714  0.4570 -0.0874 -0.8394
  681MOL0     C93861   9.679   8.793   1.757  0.5327 -0.0309  0.3560
  681MOL0     C93862   9.824   8.788   1.714  0.0859  1.3327 -0.0570
  681MOL0     C93863   9.898   8.648   1.749 -0.4522  0.7261 -0.0410
  681MOL0     O93864   9.954   8.665   1.873  0.0204  0.2245 -0.1437
  681MOL0     C93865  10.046   8.575   1.918 -0.3910 -0.1566  0.3196
  681MOL0     C93866  10.084   8.602   2.052 -0.9181  0.4433  0.4310
  681MOL0     C93867  10.164   8.509   2.117  1.5592  0.3039 -0.1948
  681MOL0     C93868  10.215   8.541   2.254 -0.2052  0.5221  0.5775
  681MOL0     C93869  10.222   8.399   2.046 -0.3703  0.0857  0.5330
  681MOL0     C93870  10.311   8.295   2.110 -0.2787  0.0553 -1.4614
  681MOL0     O93871  10.295   8.166   2.068 -0.0632  0.1528  0.5449
  681MOL0     C93872  10.393   8.072   2.083  0.6148 -0.5558  0.0801
  681MOL0     C93873  10.480   8.035   1.980 -0.0893 -0.7752  0.2216
  681MOL0     C93874  10.581   7.944   2.006 -0.3227 -0.1028 -0.0809
  681MOL0     C93875  10.592   7.871   2.125  0.0523  0.4052 -0.8593
  681MOL0     O93876  10.698   7.780   2.140  0.1880  0.4845 -0.0888
  681MOL0     C93877  10.693   7.687   2.245 -0.8392  0.6881 -0.4166
  681MOL0     C93878  10.802   7.574   2.218  0.0485 -0.4706 -0.5359
  681MOL0     C93879  10.937   7.641   2.236  0.2184  0.4020 -0.4270
  681MOL0     C93880  11.038   7.522   2.223  0.4996 -0.1139 -0.5492
  681MOL0     C93881  11.172   7.572   2.269  0.8562  0.6061 -0.3741
  681MOL0     C93882  11.197   7.565   2.421 -0.1639  0.3321 -0.3057
  681MOL0     C93883  11.333   7.575   2.475  0.3769 -0.3339 -0.7779
  681MOL0     C93884  11.419   7.451   2.430  0.2176  0.0607  0.1027
  681MOL0    Cl93885  11.583   7.452   2.507 -0.3533  0.2307 -0.0200
  681MOL0     C93886  10.498   7.911   2.224 -0.7264  0.7668 -0.7880
  681MOL0     C93887  10.405   8.012   2.205 -0.0126 -0.5682  0.5027
  681MOL0     O93888  10.410   8.334   2.173  0.6710 -0.5792 -1.0458
  681MOL0     C93889  10.186   8.375   1.919  0.8031 -0.7468  1.3640
  681MOL0     C93890  10.087   8.459   1.854 -0.0947 -1.1291  0.6299
  681MOL0     N93891   9.358   8.785   1.759  0.1073  0.5035 -0.2885
  681MOL0     N93892   9.245   8.764   1.700  0.3148 -0.4367  0.7084
  681MOL0     C93893   8.835   9.286   0.662 -0.1766  0.3541 -0.7323
  681MOL0     C93894   8.870   9.291   0.534  0.4791  0.0544 -0.0956
  681MOL0     C93895   9.004   9.130   0.126  0.4036  0.1031  0.0213
  681MOL0     C93896   9.040   9.254   0.071  1.2271 -0.6463 -0.0018
  681MOL0     C93897   9.037   9.275  -0.072 -0.5044  0.2762 -0.4494
  681MOL0     C93898   9.010   9.173  -0.164 -0.3308 -0.7229 -0.4550
  681MOL0     O93899   9.027   9.183  -0.297 -0.0486  0.7604  0.4191
  681MOL0     C93900   9.067   9.304  -0.356  0.8242 -0.2510  0.7936
  681MOL0     C93901   9.077   9.268  -0.510 -0.1688  0.1907  0.2977
  681MOL0     C93902   9.179   9.154  -0.551  0.3164  0.0852  0.5023
  681MOL0     C93903   9.129   9.009  -0.545 -0.0686  0.1900  0.3469
  681MOL0     C93904   9.002   8.968  -0.602  0.1740  0.4432  0.4603
  681MOL0     C93905   8.907   8.903  -0.649  0.1001 -0.5771 -0.1298
  681MOL0     C93906   8.970   9.054  -0.116 -0.2924  0.4054  0.1530
  681MOL0     C93907   8.964   9.032   0.024  0.2065 -0.2743  0.4548
  681MOL0     C93908   8.872   8.915   0.063  0.3053  0.0874  0.2298
  681MOL0     H93909   9.156   9.105   0.543  1.0116  0.9026  1.5264
  681MOL0     H93910   9.068   9.074   0.793  1.1095  0.5926 -0.1303
  681MOL0     H93911   8.661   9.167   0.830 -0.4105  0.1015 -0.3450
  681MOL0     H93912   8.699   9.285   0.951 -3.0907 -0.7982  0.0804
  681MOL0     H93913   8.586   9.091   1.037 -0.0096  1.0587  1.2125
  681MOL0     H93914   8.727   8.985   0.979 -0.3528 -0.1005  0.0752
  681MOL0     H93915   8.878   9.097   1.129 -0.2919  1.6562  0.3282
  681MOL0     H93916   8.735   9.186   1.194 -4.1881  0.7765 -2.5481
  681MOL0     H93917   8.622   8.978   1.268  0.3279 -0.8831  0.2862
  681MOL0     H93918   8.739   8.877   1.200 -2.3155  0.8354  0.7454
  681MOL0     H93919   8.757   8.909   1.438 -0.7030 -0.7508 -1.0629
  681MOL0     H93920   8.808   9.080   1.415  1.6241 -0.8581  0.5870
  681MOL0     H93921   8.948   8.824   1.313  1.8193 -1.2828  0.7573
  681MOL0     H93922   9.006   8.996   1.292 -0.2244  1.9423  1.5469
  681MOL0     H93923   8.964   8.857   1.563  0.5216 -2.1254 -0.4411
  681MOL0     H93924   9.043   9.015   1.523 -0.5687  0.0813 -0.6438
  681MOL0     H93925   9.107   8.722   1.466  0.5775 -0.4046  2.9352
  681MOL0     H93926   9.198   8.838   1.374  0.1616 -0.3371 -1.1336
  681MOL0     H93927   9.418   8.916   1.472  0.7769 -1.0944 -0.1673
  681MOL0     H93928   9.573   8.975   1.798 -0.1444 -0.2211 -0.7894
  681MOL0     H93929   9.630   8.969   1.639  1.9372 -3.7298 -3.2963
  681MOL0     H93930   9.680   8.790   1.866 -1.2965  0.1388  0.4073
  681MOL0     H93931   9.633   8.698   1.727  2.3571 -0.9796  0.3726
  681MOL0     H93932   9.816   8.798   1.606 -2.2237 -0.5009 -0.1151
  681MOL0     H93933   9.895   8.870   1.732  2.3150  0.2530 -3.1091
  681MOL0     H93934   9.816   8.575   1.746 -2.9805  3.4081 -1.5597
  681MOL0     H93935   9.978   8.611   1.685  0.5158  1.4066  0.7427
  681MOL0     H93936  10.058   8.685   2.116  2.4297  3.4099 -1.6530
  681MOL0     H93937  10.321   8.570   2.250 -0.5608  1.7346 -1.1832
  681MOL0     H93938  10.212   8.451   2.316  0.9403 -0.1509 -0.3039
  681MOL0     H93939  10.160   8.625   2.297 -4.3942  0.3406 -3.6276
  681MOL0     H93940  10.483   8.082   1.883  0.9551 -5.2330 -2.2020
  681MOL0     H93941  10.655   7.920   1.930 -2.9026 -1.4674 -2.3001
  681MOL0     H93942  10.727   7.749   2.329 -2.9288  0.8612  0.3709
  681MOL0     H93943  10.598   7.643   2.278 -0.7621  1.6420  1.2235
  681MOL0     H93944  10.789   7.502   2.300 -0.1956 -0.5110 -0.6091
  681MOL0     H93945  10.794   7.519   2.124 -3.0063 -0.2057 -0.5404
  681MOL0     H93946  10.947   7.684   2.336  4.5000 -2.2010  0.5428
  681MOL0     H93947  10.953   7.724   2.167 -0.1783  0.4866 -0.4196
  681MOL0     H93948  11.047   7.482   2.122  0.6649  0.0977 -0.6184
  681MOL0     H93949  11.001   7.437   2.281  4.3435 -0.4103  1.8136
  681MOL0     H93950  11.248   7.518   2.213  1.2842  3.0199 -2.2988
  681MOL0     H93951  11.165   7.668   2.216  0.4680 -1.3890 -4.2676
  681MOL0     H93952  11.151   7.475   2.463 -1.4872  2.2824  2.8021
  681MOL0     H93953  11.128   7.641   2.460 -0.1547 -0.3250  1.0321
  681MOL0     H93954  11.313   7.592   2.581 -0.9772  0.3749 -1.1249
  681MOL0     H93955  11.388   7.660   2.433 -1.8733  1.8091  0.3286
  681MOL0     H93956  11.438   7.448   2.323  2.5565 -0.7159  0.4650
  681MOL0     H93957  11.381   7.353   2.462  1.9526 -1.3703 -1.9241
  681MOL0     H93958  10.515   7.869   2.323  1.2777 -0.6147 -1.6324
  681MOL0     H93959  10.353   8.032   2.299  1.1923  2.3716  0.6298
  681MOL0     H93960  10.230   8.296   1.859 -1.9641 -1.0242 -0.4934
  681MOL0     H93961  10.072   8.441   1.748 -2.3045  0.0449  0.6898
  681MOL0     H93962   8.752   9.353   0.684 -2.4416 -2.7389  1.0810
  681MOL0     H93963   8.807   9.337   0.459  1.9958  1.5547 -0.5346
  681MOL0     H93964   9.058   9.341   0.134 -1.9886 -0.1050  0.3176
  681MOL0     H93965   9.069   9.369  -0.117 -5.2327  1.1631 -2.6155
  681MOL0     H93966   8.998   9.386  -0.339 -2.8478 -1.8510 -4.0333
  681MOL0     H93967   9.163   9.339  -0.318  0.3010  3.6918 -1.0441
  681MOL0     H93968   9.106   9.357  -0.567  1.9230 -0.3406  0.4284
  681MOL0     H93969   8.977   9.245  -0.546  0.1567 -0.6945 -0.0878
  681MOL0     H93970   9.207   9.182  -0.652 -1.4515  3.4069  0.7964
  681MOL0     H93971   9.268   9.153  -0.487  1.4445 -2.3768 -0.9484
  681MOL0     H93972   9.119   8.996  -0.437  1.5325  2.3029  0.8055
  681MOL0     H93973   9.210   8.944  -0.578  1.1145  0.7010  2.1252
  681MOL0     H93974   8.825   8.863  -0.704 -0.1754  1.9146 -1.6938
  681MOL0     H93975   8.933   8.986  -0.192 -1.2646  0.1920  0.7894
  681MOL0     H93976   8.772   8.929   0.020  0.1166 -2.6177 -0.3595
  681MOL0     H93977   8.925   8.831   0.017  2.9748  1.5520  0.4487
  681MOL0     H93978   8.852   8.895   0.168 -0.9549  0.9441  0.1776
  682MOL0     O93979   1.708   8.189   0.757  0.9294  0.6088 -1.1720
  682MOL0     C93980   1.788   8.095   0.756 -0.0704 -0.3050  0.1594
  682MOL0     O93981   1.803   8.011   0.650  0.1632 -0.0228  0.3037
  682MOL0     C93982   1.737   8.039   0.537  0.4324 -0.1519  0.2152
  682MOL0     C93983   1.607   7.994   0.519 -0.6218 -1.0501 -0.9402
  682MOL0     C93984   1.547   7.999   0.396  0.0248  1.0401  0.9007
  682MOL0     C93985   1.610   8.072   0.290  0.0352 -0.5951 -0.1910
  682MOL0     O93986   1.574   8.078   0.159  0.7629 -0.2914 -1.0036
  682MOL0     C93987   1.444   8.028   0.121 -0.3759  0.2091 -0.1111
  682MOL0     C93988   1.456   8.025  -0.034  0.3499  0.9099  0.7898
  682MOL0     C93989   1.344   7.940  -0.106  0.6486 -0.7020 -0.0932
  682MOL0     C93990   1.325   7.968  -0.258  0.3028 -0.1574  0.0092
  682MOL0     C93991   1.243   7.867  -0.346 -0.5058  0.4335 -0.2598
  682MOL0     C93992   1.213   7.933  -0.478 -0.1603  0.4581  0.3032
  682MOL0     C93993   1.330   7.912  -0.575 -0.6464 -0.3528 -0.1692
  682MOL0     C93994   1.330   8.022  -0.689  0.1577 -0.3922 -0.3484
  682MOL0     N93995   1.346   8.151  -0.640  0.0554  0.4930  0.8233
  682MOL0     C93996   1.250   8.242  -0.605  0.4357  0.2144 -0.6503
  682MOL0     C93997   1.324   8.352  -0.564 -0.6282 -0.0030  0.2898
  682MOL0     C93998   1.272   8.484  -0.508  1.0212  0.1731  0.3042
  682MOL0     C93999   1.249   8.478  -0.353  0.2797 -1.2581 -0.0347
  682MOL0     C94000   1.372   8.493  -0.271 -0.0551  0.6724 -0.4763
  682MOL0     C94001   1.335   8.533  -0.126 -0.3806 -0.2093 -0.1383
  682MOL0     O94002   1.228   8.455  -0.076  0.2353 -0.4682  0.1947
  682MOL0     C94003   1.143   8.497   0.028 -0.4780 -0.5851 -0.2818
  682MOL0     C94004   1.008   8.460   0.031  0.7592 -0.0793 -0.7673
  682MOL0     C94005   0.916   8.490   0.140  0.8173  0.0491 -0.4327
  682MOL0     C94006   0.772   8.459   0.122 -0.0534  0.2626  0.0384
  682MOL0     C94007   0.979   8.559   0.251  0.8255  0.2687  0.2268
  682MOL0     C94008   0.896   8.623   0.357 -0.6242  0.9079 -0.6316
  682MOL0     O94009   0.956   8.637   0.481 -0.1825  0.4803 -0.5107
  682MOL0     C94010   0.902   8.699   0.583  1.6314  0.3298  0.3170
  682MOL0     C94011   0.809   8.646   0.667  0.1438 -0.0758 -0.0817
  682MOL0     C94012   0.751   8.728   0.761  0.0642  0.4183 -0.7964
  682MOL0     C94013   0.780   8.861   0.780 -0.1904  0.6904 -0.6501
  682MOL0     O94014   0.726   8.943   0.885 -0.0017  0.7327  0.8214
  682MOL0     C94015   0.603   8.906   0.963 -0.4538 -0.2357  0.5475
  682MOL0     C94016   0.531   9.038   0.990 -0.1513 -0.6722  0.9225
  682MOL0     C94017   0.455   9.035   1.126  0.6829  0.2098 -0.4345
  682MOL0     C94018   0.546   9.033   1.249  0.1492  0.3983 -0.7276
  682MOL0     C94019   0.466   9.087   1.375  0.3543 -0.3513 -0.4389
  682MOL0     C94020   0.447   9.241   1.359  0.1442  0.0299  0.5337
  682MOL0     C94021   0.570   9.324   1.382  0.4292 -0.2419  0.3763
  682MOL0     C94022   0.528   9.465   1.431  0.5487 -0.2127  0.4745
  682MOL0    Cl94023   0.462   9.544   1.296  0.1196 -0.1997  0.2643
  682MOL0     C94024   0.872   8.918   0.691  1.1309 -0.7014  0.8985
  682MOL0     C94025   0.932   8.837   0.597 -0.1007 -0.3740  0.3122
  682MOL0     O94026   0.794   8.677   0.325  1.5076 -0.0431 -0.0892
  682MOL0     C94027   1.122   8.587   0.256  1.0404  0.6396  0.1341
  682MOL0     C94028   1.204   8.554   0.143 -1.1099  0.1056  1.0128
  682MOL0     N94029   1.459   8.320  -0.562  0.9163 -0.6114  0.2003
  682MOL0     N94030   1.465   8.203  -0.613  0.2149 -0.2380 -0.1405
  682MOL0     C94031   1.736   8.126   0.307 -0.6076 -0.1678 -0.1467
  682MOL0     C94032   1.805   8.100   0.427  0.2587  0.6760 -1.0324
  682MOL0     C94033   1.896   8.090   0.861 -0.0839 -0.3660  0.7122
  682MOL0     C94034   2.026   8.096   0.811  0.0950 -0.4109  0.3167
  682MOL0     C94035   2.130   8.119   0.895  0.2048 -0.0037 -0.6420
  682MOL0     C94036   2.124   8.110   1.032 -0.6546  0.0881 -0.6224
  682MOL0     O94037   2.241   8.137   1.101 -0.6412  0.1534 -0.4947
  682MOL0     C94038   2.252   8.131   1.245  0.3053 -0.1969 -0.7456
  682MOL0     C94039   2.388   8.195   1.279 -0.1989 -0.0364  0.3103
  682MOL0     C94040   2.389   8.337   1.215 -0.1790 -0.2141 -0.3131
  682MOL0     C94041   2.529   8.427   1.231  0.8810  0.6758  0.0742
  682MOL0     C94042   2.651   8.348   1.193  0.1917  0.6275  0.5991
  682MOL0     C94043   2.752   8.281   1.191  0.1238  0.2010 -0.4688
  682MOL0     C94044   1.995   8.074   1.086  0.2295  0.0863 -0.6708
  682MOL0     C94045   1.877   8.079   1.007 -0.8141  0.0203 -0.1195
  682MOL0     C94046   1.745   8.080   1.060  0.2087  0.0895  0.4585
  682MOL0     H94047   1.562   7.952   0.608 -0.8043  0.3745 -0.3320
  682MOL0     H94048   1.447   7.958   0.381 -0.9180  2.4555  2.9088
  682MOL0     H94049   1.364   8.095   0.155 -0.6096 -1.2079  2.3143
  682MOL0     H94050   1.435   7.932   0.171  0.3573  1.0273  1.6676
  682MOL0     H94051   1.464   8.126  -0.076  1.4816  0.9661  1.0940
  682MOL0     H94052   1.547   7.968  -0.057 -0.0661 -0.2484  1.8742
  682MOL0     H94053   1.371   7.835  -0.093  0.5683 -0.9067 -1.4419
  682MOL0     H94054   1.253   7.942  -0.046  1.0161  2.9423  0.5981
  682MOL0     H94055   1.274   8.064  -0.269  5.1491  2.7765  0.0234
  682MOL0     H94056   1.423   7.976  -0.307  0.2917  2.5786  0.3022
  682MOL0     H94057   1.145   7.842  -0.305 -3.2997  3.8689 -3.9889
  682MOL0     H94058   1.304   7.776  -0.352  0.2251  0.6701  2.4142
  682MOL0     H94059   1.131   7.881  -0.527 -0.3264  1.9692 -1.0899
  682MOL0     H94060   1.166   8.030  -0.459 -2.0293 -0.8970  3.2428
  682MOL0     H94061   1.338   7.817  -0.629 -1.9042 -1.4727  1.4960
  682MOL0     H94062   1.426   7.930  -0.525  0.5111  3.1131 -3.2347
  682MOL0     H94063   1.419   8.012  -0.751  2.3139 -0.5998  2.6203
  682MOL0     H94064   1.239   8.018  -0.751  0.8943 -0.1999 -1.4762
  682MOL0     H94065   1.142   8.228  -0.599  0.7083 -2.8164 -1.1579
  682MOL0     H94066   1.188   8.518  -0.569  1.5425  1.3073  0.1912
  682MOL0     H94067   1.341   8.568  -0.519  0.6817  0.6486  1.5866
  682MOL0     H94068   1.176   8.556  -0.326  1.0222 -0.1955 -0.9794
  682MOL0     H94069   1.218   8.376  -0.329 -0.7680 -1.4036 -1.8570
  682MOL0     H94070   1.430   8.401  -0.283  1.1738  1.5547 -1.7040
  682MOL0     H94071   1.431   8.575  -0.314  0.7264  0.0608 -0.5886
  682MOL0     H94072   1.421   8.536  -0.058 -0.1344  0.9885 -0.4951
  682MOL0     H94073   1.305   8.638  -0.129  2.3918  0.6600 -0.3034
  682MOL0     H94074   0.980   8.407  -0.060  0.9245  0.7428 -1.3110
  682MOL0     H94075   0.721   8.496   0.212 -0.1831  5.1046 -1.7022
  682MOL0     H94076   0.746   8.355   0.102 -2.6348  0.9951 -0.7982
  682MOL0     H94077   0.734   8.519   0.038 -1.8024 -1.9466 -0.8416
  682MOL0     H94078   0.788   8.540   0.657 -0.9923  0.0798  0.5186
  682MOL0     H94079   0.674   8.673   0.813 -0.3719  2.3239  0.6541
  682MOL0     H94080   0.531   8.847   0.905  0.8943 -0.6035 -0.8332
  682MOL0     H94081   0.640   8.857   1.053 -2.6036  0.5752  1.9392
  682MOL0     H94082   0.598   9.124   0.996 -1.3962  0.3769  0.1303
  682MOL0     H94083   0.460   9.066   0.913  2.3325 -1.1877 -1.7161
  682MOL0     H94084   0.386   8.950   1.130  0.3921  0.4733  0.1801
  682MOL0     H94085   0.396   9.126   1.116  1.5198  0.7192 -0.8635
  682MOL0     H94086   0.630   9.100   1.233 -1.1410  1.8219 -1.7862
  682MOL0     H94087   0.573   8.930   1.277 -1.4157  0.6831  2.2698
  682MOL0     H94088   0.369   9.037   1.369 -0.9838  1.9073  0.9937
  682MOL0     H94089   0.520   9.056   1.465  0.4786 -0.2748 -0.4854
  682MOL0     H94090   0.377   9.268   1.439  1.4937 -0.7227  2.0293
  682MOL0     H94091   0.404   9.265   1.262 -2.8244 -0.2930  1.6682
  682MOL0     H94092   0.631   9.332   1.291  1.0394 -1.0150  0.7055
  682MOL0     H94093   0.629   9.284   1.465  1.7034  2.2789  0.7820
  682MOL0     H94094   0.609   9.527   1.472  0.5044  0.0930  0.1044
  682MOL0     H94095   0.454   9.456   1.511  1.2815 -2.9826  0.9323
  682MOL0     H94096   0.893   9.025   0.701  3.1349 -1.0394  0.7548
  682MOL0     H94097   0.995   8.888   0.525 -1.8609  1.5353  0.0237
  682MOL0     H94098   1.179   8.620   0.342  0.3813  1.2358  0.3501
  682MOL0     H94099   1.310   8.570   0.161 -1.3951  3.7668  0.0789
  682MOL0     H94100   1.781   8.179   0.224  1.7296 -0.1436  1.0436
  682MOL0     H94101   1.912   8.112   0.443  0.0764  5.1602 -1.8752
  682MOL0     H94102   2.044   8.095   0.704  0.6852  0.1307  0.4029
  682MOL0     H94103   2.225   8.146   0.851  0.7996 -1.5511 -0.3926
  682MOL0     H94104   2.171   8.185   1.294  0.9901 -1.1190  1.5004
  682MOL0     H94105   2.250   8.026   1.274  1.4121 -0.2216 -0.6825
  682MOL0     H94106   2.460   8.130   1.229 -1.4761 -2.0429  0.9501
  682MOL0     H94107   2.404   8.198   1.387  2.0858  0.3318  0.0021
  682MOL0     H94108   2.376   8.321   1.108  0.0265  1.1036 -0.5438
  682MOL0     H94109   2.299   8.389   1.248 -0.7718 -0.9051 -0.8106
  682MOL0     H94110   2.542   8.456   1.336 -1.4040 -0.5464  0.7685
  682MOL0     H94111   2.536   8.523   1.179  4.5981  0.3233 -0.3317
  682MOL0     H94112   2.839   8.220   1.174 -1.1172 -1.9074  0.3747
  682MOL0     H94113   1.985   8.059   1.193 -0.1751  0.5279 -0.6425
  682MOL0     H94114   1.666   8.089   0.985 -0.5361  0.2983  1.2508
  682MOL0     H94115   1.734   7.993   1.126 -1.1172 -0.2945 -0.2383
  682MOL0     H94116   1.729   8.171   1.118 -1.3356 -0.6897  1.3414
  683MOL0     O94117  11.452   0.683   7.597  0.0302  0.5347 -1.1371
  683MOL0     C94118  11.545   0.608   7.588  0.2166 -0.1493  0.1080
  683MOL0     O94119  11.555   0.506   7.496  0.3251 -0.5968 -0.3967
  683MOL0     C94120  11.456   0.496   7.402  0.4372  0.2462 -0.2788
  683MOL0     C94121  11.476   0.565   7.276  0.0216 -0.7313 -1.1007
  683MOL0     C94122  11.386   0.549   7.174  0.4240  0.4007 -0.2742
  683MOL0     C94123  11.274   0.462   7.194 -0.0134  0.4506  0.8526
  683MOL0     O94124  11.184   0.459   7.093  0.0523 -0.5292  0.2860
  683MOL0     C94125  11.044   0.440   7.122 -0.0351  0.7556 -1.0552
  683MOL0     C94126  10.960   0.500   7.015  0.9200 -0.5094  0.0489
  683MOL0     C94127  10.972   0.436   6.881 -0.1516 -0.3844 -0.5320
  683MOL0     C94128  10.837   0.404   6.808 -0.2543 -0.7393 -0.1915
  683MOL0     C94129  10.861   0.375   6.662  0.1379 -0.4579  0.2465
  683MOL0     C94130  10.731   0.374   6.581 -0.5458  0.1972  0.0060
  683MOL0     C94131  10.759   0.311   6.442  0.9183  0.0345  0.3256
  683MOL0     C94132  10.859   0.411   6.370 -0.0239  0.2548 -0.1000
  683MOL0     N94133  10.831   0.434   6.225 -0.0088 -0.1450 -0.0015
  683MOL0     C94134  10.735   0.516   6.165 -0.0411  0.4230  0.6767
  683MOL0     C94135  10.733   0.478   6.029  0.1556 -0.2328 -0.2647
  683MOL0     C94136  10.640   0.530   5.912 -0.3013  0.8337 -0.6415
  683MOL0     C94137  10.521   0.440   5.899 -0.0275  0.4168 -0.4383
  683MOL0     C94138  10.407   0.485   5.804 -0.5838  0.4893 -0.6100
  683MOL0     C94139  10.349   0.621   5.828 -0.4139 -0.9168 -0.3972
  683MOL0     O94140  10.315   0.649   5.963 -0.1738  0.3870  0.5042
  683MOL0     C94141  10.221   0.748   5.991 -0.9059  0.4610  0.6337
  683MOL0     C94142  10.174   0.746   6.120 -0.1813 -0.1015  0.0647
  683MOL0     C94143  10.088   0.849   6.165  0.1542 -0.3218  0.4680
  683MOL0     C94144  10.014   0.841   6.293 -0.1938 -0.1596  0.0641
  683MOL0     C94145  10.055   0.953   6.074  0.1702 -0.7429  0.5119
  683MOL0     C94146   9.964   1.059   6.114 -0.0021 -0.8096  1.1827
  683MOL0     O94147   9.870   1.093   6.026 -0.4379 -0.2334 -0.1550
  683MOL0     C94148   9.820   1.226   6.041  0.1838  0.2892 -0.3328
  683MOL0     C94149   9.905   1.338   6.037  0.0941  0.1674  0.4162
  683MOL0     C94150   9.851   1.457   6.082 -0.2176 -0.0743 -0.4519
  683MOL0     C94151   9.718   1.478   6.127 -0.1860  0.2542  0.6155
  683MOL0     O94152   9.697   1.609   6.171  0.5045  0.1982  0.3826
  683MOL0     C94153   9.568   1.644   6.228 -0.3346  0.3489  0.7360
  683MOL0     C94154   9.542   1.594   6.376  0.1115 -0.4897  0.6267
  683MOL0     C94155   9.448   1.692   6.449 -0.1713  0.0283 -0.4350
  683MOL0     C94156   9.389   1.628   6.575  0.3132 -0.2331 -0.1898
  683MOL0     C94157   9.275   1.714   6.627 -1.5358 -0.1003 -0.5086
  683MOL0     C94158   9.206   1.675   6.754 -0.1769  0.2587 -0.0247
  683MOL0     C94159   9.315   1.667   6.869 -1.0378  0.1009  0.5827
  683MOL0     C94160   9.234   1.697   6.992  1.0532  0.2121  0.5664
  683MOL0    Cl94161   9.095   1.579   7.012  0.1112 -0.2358  0.0485
  683MOL0     C94162   9.639   1.360   6.120 -0.4982 -0.0080 -0.1826
  683MOL0     C94163   9.692   1.236   6.088  0.2601  0.6790  0.1562
  683MOL0     O94164  10.010   1.132   6.202  0.1881  0.4823 -1.2042
  683MOL0     C94165  10.099   0.945   5.939  0.4582  0.0322 -0.1449
  683MOL0     C94166  10.184   0.842   5.902 -0.8750  0.9885  0.2812
  683MOL0     N94167  10.830   0.378   6.016 -0.4579 -0.0317 -0.2319
  683MOL0     N94168  10.884   0.354   6.124 -0.0235  0.2926 -0.2874
  683MOL0     C94169  11.258   0.385   7.310 -0.4215  0.1394  0.0370
  683MOL0     C94170  11.354   0.398   7.416 -0.4708  0.7813 -0.1669
  683MOL0     C94171  11.671   0.626   7.678  0.5329  0.0209  0.3883
  683MOL0     C94172  11.773   0.533   7.652 -0.5858  0.2746  0.9384
  683MOL0     C94173  11.892   0.524   7.724 -0.2604  0.4216 -0.5369
  683MOL0     C94174  11.908   0.618   7.833  0.8977 -0.2264 -0.2879
  683MOL0     O94175  12.025   0.611   7.906 -0.7212 -0.0689 -0.2781
  683MOL0     C94176  12.033   0.697   8.022 -0.1171 -0.0263  0.0575
  683MOL0     C94177  12.176   0.694   8.082  0.0354  0.2172  0.1001
  683MOL0     C94178  12.287   0.741   7.990  0.3730  1.0111 -1.2973
  683MOL0     C94179  12.430   0.729   8.048 -0.2818  0.2431 -0.2646
  683MOL0     C94180  12.456   0.614   8.133  0.6817 -0.9209 -0.1166
  683MOL0     C94181  12.484   0.505   8.186 -1.0159  0.5382 -0.8991
  683MOL0     C94182  11.808   0.716   7.865  0.1034  0.0307 -0.1167
  683MOL0     C94183  11.691   0.721   7.782 -0.4159  0.8487 -0.0761
  683MOL0     C94184  11.595   0.827   7.826 -0.6744  0.2251  0.8164
  683MOL0     H94185  11.570   0.619   7.269 -0.3296  0.3003  1.3416
  683MOL0     H94186  11.407   0.598   7.079  3.2362  0.6152  0.3661
  683MOL0     H94187  11.022   0.495   7.213 -0.3071  2.1391 -1.9188
  683MOL0     H94188  11.011   0.336   7.126  1.1991  0.3919  2.2733
  683MOL0     H94189  10.856   0.526   7.035  1.5830  2.0783  0.5009
  683MOL0     H94190  11.001   0.600   6.995 -1.0218  0.0177 -1.6402
  683MOL0     H94191  11.033   0.496   6.812  1.1817  0.4797  1.3257
  683MOL0     H94192  11.018   0.337   6.888 -0.2697 -0.4923 -1.2036
  683MOL0     H94193  10.798   0.318   6.863  0.2136  0.1450  1.6274
  683MOL0     H94194  10.775   0.494   6.811 -1.2497 -1.3344 -1.9876
  683MOL0     H94195  10.916   0.282   6.647  1.1979  0.1926 -0.0515
  683MOL0     H94196  10.927   0.450   6.616 -1.0506  0.7301  0.4004
  683MOL0     H94197  10.652   0.322   6.638 -0.6062  2.8402  2.5722
  683MOL0     H94198  10.694   0.477   6.576 -0.5552  0.2059  0.2408
  683MOL0     H94199  10.669   0.309   6.378  1.2444  1.9878 -0.2582
  683MOL0     H94200  10.795   0.208   6.444 -1.5686 -1.0527 -2.5558
  683MOL0     H94201  10.847   0.509   6.417 -2.2056 -0.9340  2.0737
  683MOL0     H94202  10.962   0.376   6.381 -0.2393 -0.0893  0.9805
  683MOL0     H94203  10.667   0.583   6.216 -0.5702 -0.0065  0.5414
  683MOL0     H94204  10.703   0.525   5.823  0.6208 -5.7652 -0.0559
  683MOL0     H94205  10.598   0.630   5.930 -1.6531  0.2130 -0.1544
  683MOL0     H94206  10.558   0.339   5.878 -1.4854 -1.5593  4.9251
  683MOL0     H94207  10.481   0.429   6.000  1.2386  1.1107  0.1711
  683MOL0     H94208  10.439   0.491   5.700  1.1800  1.0390 -0.0622
  683MOL0     H94209  10.330   0.407   5.813 -0.1875 -0.1968 -2.7132
  683MOL0     H94210  10.415   0.702   5.795 -3.0103  0.7522 -1.8623
  683MOL0     H94211  10.271   0.632   5.752  1.2517 -0.9093 -2.1872
  683MOL0     H94212  10.190   0.658   6.182  1.2004 -1.7617 -2.4602
  683MOL0     H94213  10.062   0.906   6.367 -0.0986 -2.0134  1.7187
  683MOL0     H94214   9.999   0.744   6.342  1.6937  0.2600  1.6061
  683MOL0     H94215   9.911   0.876   6.284 -0.7616  0.2456  5.2935
  683MOL0     H94216  10.009   1.333   6.007 -0.3569 -0.9127 -1.1238
  683MOL0     H94217   9.916   1.543   6.100 -1.4302  0.3304  2.6069
  683MOL0     H94218   9.579   1.753   6.235  0.6874  0.3177 -0.1011
  683MOL0     H94219   9.487   1.624   6.158 -1.1025  2.4343  0.9698
  683MOL0     H94220   9.486   1.500   6.369  1.4265 -1.1814 -1.8338
  683MOL0     H94221   9.637   1.572   6.426  0.7694 -0.3253 -0.5158
  683MOL0     H94222   9.377   1.737   6.379 -0.7825 -1.1111 -0.5625
  683MOL0     H94223   9.507   1.780   6.477  1.1525 -0.4862 -1.4902
  683MOL0     H94224   9.473   1.605   6.642 -0.4376 -0.7824  0.5751
  683MOL0     H94225   9.333   1.537   6.550 -0.8520  0.1198  1.0291
  683MOL0     H94226   9.307   1.818   6.640  3.0666 -1.4122  0.5715
  683MOL0     H94227   9.196   1.717   6.552 -2.1319 -3.3539 -0.1211
  683MOL0     H94228   9.155   1.578   6.753 -0.3843  0.3657  0.0876
  683MOL0     H94229   9.133   1.752   6.783 -0.2487 -0.4593  1.8176
  683MOL0     H94230   9.399   1.737   6.863 -0.8850 -0.1464 -0.2687
  683MOL0     H94231   9.346   1.563   6.866 -2.3689 -0.2979 -0.3322
  683MOL0     H94232   9.192   1.798   6.989  0.7357  0.0556 -0.9490
  683MOL0     H94233   9.290   1.703   7.086 -1.2230 -0.4058  2.0385
  683MOL0     H94234   9.536   1.362   6.156 -1.1751 -0.6445 -1.9760
  683MOL0     H94235   9.630   1.148   6.104  0.0787  0.3267 -2.2171
  683MOL0     H94236  10.064   1.023   5.871  3.7560  1.2908 -0.5592
  683MOL0     H94237  10.221   0.848   5.801  1.6513 -0.1154  1.0691
  683MOL0     H94238  11.165   0.329   7.313 -0.8759  0.9112  2.7514
  683MOL0     H94239  11.347   0.354   7.515 -1.0788  3.7561  1.2235
  683MOL0     H94240  11.773   0.464   7.567 -0.5061 -0.6931  1.7059
  683MOL0     H94241  11.962   0.452   7.683  1.0243 -0.0392  2.2595
  683MOL0     H94242  12.018   0.797   7.981 -0.8612 -1.5588 -3.7792
  683MOL0     H94243  11.959   0.684   8.101  0.0981  5.1364  1.5008
  683MOL0     H94244  12.203   0.593   8.114  1.9686  1.0989  1.4675
  683MOL0     H94245  12.181   0.762   8.168  4.7464  0.2981  0.0212
  683MOL0     H94246  12.288   0.667   7.909 -1.6804 -1.6399  0.8907
  683MOL0     H94247  12.264   0.843   7.957  1.5172  1.9632  0.7022
  683MOL0     H94248  12.454   0.815   8.111 -0.6970  0.0492  0.1682
  683MOL0     H94249  12.497   0.721   7.962  2.1643 -0.1219  1.5652
  683MOL0     H94250  12.519   0.417   8.236  0.0603 -0.5633 -3.4016
  683MOL0     H94251  11.810   0.781   7.952 -2.0192  1.0128 -0.7323
  683MOL0     H94252  11.507   0.774   7.862 -1.5588  0.3882 -1.0154
  683MOL0     H94253  11.639   0.893   7.902 -0.8743  0.2726  0.8918
  683MOL0     H94254  11.575   0.898   7.745  3.8869  3.5233  2.1338
  684MOL0     O94255   8.801   1.458  11.377  0.7084 -0.1772  0.1528
  684MOL0     C94256   8.913   1.512  11.362 -0.6292 -0.7398 -0.0250
  684MOL0     O94257   9.013   1.506  11.450  0.1538 -0.6662  0.0560
  684MOL0     C94258   9.011   1.432  11.560  0.0123  0.1757  1.2289
  684MOL0     C94259   9.135   1.365  11.602  0.0700  0.3086  0.5113
  684MOL0     C94260   9.133   1.294  11.723 -0.2925  0.7519  1.0071
  684MOL0     C94261   9.009   1.276  11.799 -0.5016 -0.2514  0.4682
  684MOL0     O94262   9.009   1.200  11.912 -0.5394  0.4443  0.3191
  684MOL0     C94263   8.885   1.175  11.981  0.5248  0.3808  0.1013
  684MOL0     C94264   8.917   1.155  12.126  0.1831 -0.3052  0.6346
  684MOL0     C94265   8.796   1.123  12.222  0.6751  0.3243  1.0671
  684MOL0     C94266   8.839   1.114  12.365  0.9843  0.3683  0.4490
  684MOL0     C94267   8.711   1.107  12.458 -0.7010 -0.6834  0.1015
  684MOL0     C94268   8.634   0.974  12.446  0.4400 -0.2701  0.9461
  684MOL0     C94269   8.520   0.978  12.558  0.3396  0.1548 -0.5753
  684MOL0     C94270   8.386   1.045  12.522 -0.3400 -0.6332  0.3006
  684MOL0     N94271   8.391   1.197  12.531  0.2772  0.2490 -0.4358
  684MOL0     C94272   8.453   1.260  12.634  0.2300  0.1587 -0.2806
  684MOL0     C94273   8.454   1.399  12.603  0.5553  0.2624 -0.9775
  684MOL0     C94274   8.519   1.515  12.684 -0.3976  1.3391  0.4254
  684MOL0     C94275   8.648   1.474  12.760 -0.2658 -0.2866 -0.0515
  684MOL0     C94276   8.760   1.435  12.669  0.3326 -0.0538  0.1747
  684MOL0     C94277   8.875   1.367  12.733  0.4989 -0.7432 -0.0691
  684MOL0     O94278   8.962   1.447  12.806 -0.2248  0.8294 -0.2314
  684MOL0     C94279   9.071   1.502  12.742  0.0079  0.4363  0.2134
  684MOL0     C94280   9.066   1.633  12.694  0.1537 -0.3108 -0.4561
  684MOL0     C94281   9.174   1.689  12.627 -0.3545 -0.8697  0.1948
  684MOL0     C94282   9.148   1.829  12.580 -0.3888 -0.8546 -0.5999
  684MOL0     C94283   9.289   1.614  12.609 -0.1290  0.4498  0.7539
  684MOL0     C94284   9.391   1.647  12.505 -0.1049 -0.0817  0.0780
  684MOL0     O94285   9.521   1.603  12.529  0.7808  0.2880 -0.2031
  684MOL0     C94286   9.615   1.644  12.435  0.6782 -0.5544  1.0799
  684MOL0     C94287   9.647   1.774  12.395  0.9830 -1.2184 -0.5477
  684MOL0     C94288   9.747   1.805  12.304  0.0014 -0.5795  0.3367
  684MOL0     C94289   9.836   1.710  12.253 -0.8096 -0.9438  0.1922
  684MOL0     O94290   9.940   1.765  12.188  0.2137 -0.1208 -0.1614
  684MOL0     C94291  10.034   1.678  12.134 -0.2282  0.4435  0.1710
  684MOL0     C94292  10.052   1.716  11.995 -0.2046  0.2119  0.7495
  684MOL0     C94293  10.172   1.641  11.926  0.0472 -0.3190  0.4259
  684MOL0     C94294  10.306   1.735  11.937  0.7565  0.6610 -0.6074
  684MOL0     C94295  10.432   1.664  11.883  0.0885  0.1076  0.2769
  684MOL0     C94296  10.450   1.682  11.725 -0.0749 -0.1602  0.0275
  684MOL0     C94297  10.582   1.606  11.692  0.8724  0.4815 -0.5570
  684MOL0     C94298  10.628   1.628  11.550 -0.2600  0.0989 -0.1493
  684MOL0    Cl94299  10.655   1.801  11.529 -0.2501  0.7959 -0.6726
  684MOL0     C94300   9.792   1.573  12.272 -0.0558 -0.5544  0.6955
  684MOL0     C94301   9.686   1.539  12.368  0.2708 -1.9172 -0.2578
  684MOL0     O94302   9.356   1.713  12.408  0.4223  0.5491 -0.3699
  684MOL0     C94303   9.301   1.485  12.665 -0.1147 -0.0897 -0.5219
  684MOL0     C94304   9.190   1.431  12.729  0.6271 -0.1568  0.7171
  684MOL0     N94305   8.376   1.411  12.490 -0.7777  0.2987  0.9133
  684MOL0     N94306   8.344   1.286  12.452 -0.0420 -0.5959  0.4684
  684MOL0     C94307   8.891   1.338  11.753  0.7400 -0.1556 -0.2869
  684MOL0     C94308   8.897   1.417  11.638 -0.5963 -0.3579 -0.0985
  684MOL0     C94309   8.927   1.594  11.233 -0.4663 -0.0752  0.6150
  684MOL0     C94310   8.990   1.716  11.239  0.1694  0.5664  0.0850
  684MOL0     C94311   9.023   1.792  11.132  0.4593  0.1010 -0.5637
  684MOL0     C94312   8.989   1.758  11.005 -0.5766 -0.9076 -0.0437
  684MOL0     O94313   9.003   1.850  10.902  0.2165 -0.5057 -1.0608
  684MOL0     C94314   9.010   1.810  10.766  0.2460 -0.2899 -0.0261
  684MOL0     C94315   9.149   1.825  10.717 -0.7777 -0.1903  0.0506
  684MOL0     C94316   9.252   1.737  10.788  0.5222  1.3272  0.2437
  684MOL0     C94317   9.396   1.776  10.753 -0.0875 -0.5017 -0.7100
  684MOL0     C94318   9.421   1.764  10.609  0.4122 -0.0986  0.0600
  684MOL0     C94319   9.454   1.763  10.496  0.3432  0.1801  1.2011
  684MOL0     C94320   8.930   1.631  10.992 -0.5434  0.3959  0.0301
  684MOL0     C94321   8.898   1.553  11.105 -0.4346  0.9790  0.1171
  684MOL0     C94322   8.838   1.420  11.086 -0.1090 -0.6869  0.3681
  684MOL0     H94323   9.227   1.375  11.545 -0.7036 -2.0846 -1.3633
  684MOL0     H94324   9.218   1.241  11.766 -1.5698 -1.8686  0.4769
  684MOL0     H94325   8.834   1.080  11.962  0.8406 -0.0018  1.0909
  684MOL0     H94326   8.816   1.260  11.977  0.8457  0.6979  1.0210
  684MOL0     H94327   8.986   1.070  12.132 -1.5079 -2.0397 -2.4335
  684MOL0     H94328   8.964   1.248  12.161 -2.8640  2.3713 -1.7705
  684MOL0     H94329   8.723   1.203  12.206  0.2142 -0.5838 -2.3475
  684MOL0     H94330   8.750   1.030  12.185  0.1826  0.3568  1.5915
  684MOL0     H94331   8.898   1.023  12.384  0.6228 -0.3175 -1.5334
  684MOL0     H94332   8.901   1.201  12.387 -3.2987  3.6338  0.7908
  684MOL0     H94333   8.644   1.192  12.444  0.8718  0.2205 -2.7128
  684MOL0     H94334   8.756   1.125  12.557  0.6598  0.6357 -0.7037
  684MOL0     H94335   8.591   0.963  12.345 -1.4759 -2.1737  1.8773
  684MOL0     H94336   8.701   0.889  12.459 -0.7128 -1.9381 -2.5437
  684MOL0     H94337   8.564   1.011  12.653  1.0348  0.1789 -0.9048
  684MOL0     H94338   8.501   0.882  12.608 -3.4069  1.2434  0.4416
  684MOL0     H94339   8.360   1.026  12.417  0.7395  1.3293 -0.3706
  684MOL0     H94340   8.305   1.016  12.590 -1.1420 -1.0655 -0.8098
  684MOL0     H94341   8.496   1.228  12.729  0.8787  0.9108 -0.3068
  684MOL0     H94342   8.436   1.558  12.741 -0.1652  3.2399 -0.5787
  684MOL0     H94343   8.557   1.590  12.614 -0.3371 -0.3177 -1.3892
  684MOL0     H94344   8.682   1.562  12.816 -1.0520  0.1282 -0.2130
  684MOL0     H94345   8.624   1.392  12.828  1.4476  0.7074  1.8683
  684MOL0     H94346   8.717   1.374  12.590  2.1557  0.8502 -1.5896
  684MOL0     H94347   8.795   1.520  12.610  4.5241 -1.6604  0.0644
  684MOL0     H94348   8.829   1.307  12.813 -1.7050  0.7413 -0.1290
  684MOL0     H94349   8.935   1.308  12.664  1.3362 -0.3141  0.2762
  684MOL0     H94350   8.973   1.687  12.712  0.6392  1.2852 -2.3898
  684MOL0     H94351   9.057   1.837  12.520 -0.7910 -2.9090 -0.3197
  684MOL0     H94352   9.233   1.876  12.530 -0.5267 -1.4698 -1.4245
  684MOL0     H94353   9.124   1.886  12.670 -4.2507 -0.9447 -1.3890
  684MOL0     H94354   9.596   1.859  12.440 -1.5552 -1.0907 -3.3132
  684MOL0     H94355   9.763   1.908  12.276 -4.2229  0.2113  0.1954
  684MOL0     H94356  10.130   1.689  12.185 -0.1051 -0.7498  0.2256
  684MOL0     H94357  10.013   1.571  12.147  2.2209 -0.0963  0.2627
  684MOL0     H94358   9.959   1.695  11.941 -0.6984  2.1986  0.7580
  684MOL0     H94359  10.065   1.824  11.991  0.7916  0.1328  1.6305
  684MOL0     H94360  10.167   1.626  11.817  2.4711 -1.2979  0.3810
  684MOL0     H94361  10.179   1.541  11.969 -1.4833  0.1014  1.7201
  684MOL0     H94362  10.323   1.746  12.044 -2.1906  0.0502  0.0058
  684MOL0     H94363  10.292   1.835  11.895 -0.1653  1.8144  2.2032
  684MOL0     H94364  10.524   1.697  11.932  2.2931 -1.0215 -2.8084
  684MOL0     H94365  10.424   1.558  11.912  1.0300 -0.0636 -0.0711
  684MOL0     H94366  10.466   1.790  11.717 -0.9122 -0.0122  0.2370
  684MOL0     H94367  10.366   1.641  11.669  0.4080  1.4486 -2.0175
  684MOL0     H94368  10.568   1.497  11.696  1.9012  0.3428 -0.4215
  684MOL0     H94369  10.648   1.636  11.774  0.5650 -1.7136  0.5884
  684MOL0     H94370  10.554   1.579  11.486 -0.7543 -0.7271  1.0192
  684MOL0     H94371  10.719   1.570  11.533  0.0715  0.0218  1.6901
  684MOL0     H94372   9.839   1.497  12.211  0.8869  0.2537  0.3778
  684MOL0     H94373   9.668   1.434  12.389 -3.9588 -1.6008 -1.4612
  684MOL0     H94374   9.383   1.415  12.653  0.3763  0.3805  0.0161
  684MOL0     H94375   9.188   1.332  12.773 -1.1079  0.3254  1.8282
  684MOL0     H94376   8.787   1.331  11.784  0.5725 -0.0824 -0.8139
  684MOL0     H94377   8.806   1.467  11.606 -0.9046 -2.1716 -2.3355
  684MOL0     H94378   9.037   1.760  11.327  0.8080  1.9012 -0.8808
  684MOL0     H94379   9.081   1.883  11.138 -0.7959  0.8723  0.4135
  684MOL0     H94380   8.957   1.717  10.747  1.9872 -1.3440  0.0280
  684MOL0     H94381   8.951   1.877  10.704 -2.7128 -1.0375  1.8062
  684MOL0     H94382   9.189   1.923  10.744  1.0458 -0.6142 -0.9188
  684MOL0     H94383   9.158   1.808  10.610  0.3773 -1.0913  0.2610
  684MOL0     H94384   9.247   1.761  10.895  0.9785  3.3677 -0.1477
  684MOL0     H94385   9.220   1.633  10.774 -0.1037  1.6472 -0.8650
  684MOL0     H94386   9.454   1.697  10.803 -1.3444 -0.5947  0.6815
  684MOL0     H94387   9.415   1.878  10.786  0.8501 -0.4510 -1.3488
  684MOL0     H94388   9.481   1.768  10.393 -0.3573  2.0546  1.0738
  684MOL0     H94389   8.894   1.611  10.891 -0.5823  1.1590 -0.1138
  684MOL0     H94390   8.729   1.420  11.093 -0.3812  1.2679 -2.2390
  684MOL0     H94391   8.859   1.371  10.990  0.4400 -0.8282  0.5593
  684MOL0     H94392   8.869   1.355  11.168  0.7475  0.5695  1.0784
  685MOL0     O94393   3.793   5.563   6.716 -0.5426 -0.2585  0.4355
  685MOL0     C94394   3.836   5.607   6.823 -0.1997  0.0541  0.0179
  685MOL0     O94395   3.764   5.688   6.912 -0.0614 -0.3645  0.3193
  685MOL0     C94396   3.634   5.712   6.872  0.4788 -0.3788 -0.4765
  685MOL0     C94397   3.529   5.639   6.930 -0.6412  0.2548  0.3658
  685MOL0     C94398   3.394   5.671   6.904 -1.0688  0.3832 -0.5699
  685MOL0     C94399   3.370   5.768   6.802 -0.5678  1.3888  0.6086
  685MOL0     O94400   3.235   5.788   6.770 -0.1074  0.1572  0.4563
  685MOL0     C94401   3.200   5.926   6.766  0.5757  0.1850 -0.5534
  685MOL0     C94402   3.048   5.953   6.780 -0.1827  0.3322 -0.0798
  685MOL0     C94403   2.976   5.906   6.904  0.8625 -0.2555  0.4849
  685MOL0     C94404   2.982   6.027   7.009  0.9918  0.0993  0.1098
  685MOL0     C94405   2.908   5.985   7.131 -0.0506  0.0927 -0.8237
  685MOL0     C94406   2.930   6.097   7.237  0.3678  0.5511 -0.0802
  685MOL0     C94407   2.843   6.080   7.373  0.2972 -0.3923 -0.2854
  685MOL0     C94408   2.816   6.212   7.439  0.2376 -0.6798  0.1676
  685MOL0     N94409   2.744   6.205   7.570 -0.7646  0.3147  0.1384
  685MOL0     C94410   2.761   6.305   7.667  0.3034  0.0866  0.2240
  685MOL0     C94411   2.685   6.268   7.772  0.1731 -0.8431  0.5146
  685MOL0     C94412   2.680   6.332   7.900  0.1313 -0.9757 -0.6394
  685MOL0     C94413   2.716   6.241   8.023  0.5966 -0.1718 -0.4544
  685MOL0     C94414   2.636   6.273   8.147  1.0159  0.2118 -0.3837
  685MOL0     C94415   2.618   6.158   8.248 -0.3929  0.5617 -0.9264
  685MOL0     O94416   2.733   6.110   8.314  0.4435 -0.7634  0.5416
  685MOL0     C94417   2.713   5.999   8.399  0.6877 -0.5769  0.5228
  685MOL0     C94418   2.593   5.941   8.426  0.3400 -0.4522 -0.3345
  685MOL0     C94419   2.570   5.838   8.520  0.0737 -0.6096 -0.4905
  685MOL0     C94420   2.425   5.804   8.549 -0.4156  0.7949  0.2696
  685MOL0     C94421   2.681   5.784   8.586  0.7337  0.0754 -1.5954
  685MOL0     C94422   2.683   5.682   8.700  0.8687  0.1044 -0.5337
  685MOL0     O94423   2.778   5.575   8.692  0.4448  0.0354  0.6362
  685MOL0     C94424   2.756   5.474   8.780 -0.9865  0.6125 -0.3809
  685MOL0     C94425   2.837   5.481   8.893  0.8955  0.4511 -0.4248
  685MOL0     C94426   2.836   5.376   8.976 -0.0277 -0.6000 -0.5326
  685MOL0     C94427   2.756   5.264   8.955  0.1151 -0.1893  1.0684
  685MOL0     O94428   2.730   5.157   9.040 -0.2863  0.0427 -0.3423
  685MOL0     C94429   2.819   5.130   9.158 -0.1614  0.1597 -0.6031
  685MOL0     C94430   2.730   5.068   9.264 -0.6784 -0.3757 -0.5303
  685MOL0     C94431   2.676   4.927   9.217  1.0454 -0.2190 -0.5770
  685MOL0     C94432   2.603   4.842   9.320 -0.7526 -0.0696  0.4168
  685MOL0     C94433   2.511   4.744   9.257 -0.2104 -0.0461  0.0682
  685MOL0     C94434   2.585   4.655   9.151  0.1706 -0.1593 -0.4925
  685MOL0     C94435   2.496   4.547   9.087 -0.3354 -0.8528 -0.0396
  685MOL0     C94436   2.390   4.593   8.986 -0.5722  0.0149  0.1467
  685MOL0    Cl94437   2.299   4.454   8.936  0.3692 -0.1428  0.1242
  685MOL0     C94438   2.667   5.264   8.846  0.0901  0.1279  0.8154
  685MOL0     C94439   2.662   5.373   8.756  0.9247  0.1971  0.7421
  685MOL0     O94440   2.591   5.691   8.780  0.0221 -0.6038  0.4523
  685MOL0     C94441   2.806   5.843   8.551  0.6160  1.1554 -0.0086
  685MOL0     C94442   2.813   5.940   8.457  0.1585  1.2058  0.1984
  685MOL0     N94443   2.641   6.145   7.747  0.3992 -0.3110 -0.0584
  685MOL0     N94444   2.669   6.112   7.622 -0.4690 -0.4205  0.5584
  685MOL0     C94445   3.476   5.820   6.728 -0.7358  0.4399 -0.3620
  685MOL0     C94446   3.603   5.786   6.763 -0.7408 -0.8272 -0.4246
  685MOL0     C94447   3.979   5.568   6.857  0.4690 -0.4324  0.4319
  685MOL0     C94448   4.018   5.591   6.988  0.1470 -0.2703 -0.3921
  685MOL0     C94449   4.144   5.577   7.032 -0.7107  0.4179 -1.0542
  685MOL0     C94450   4.234   5.503   6.956 -0.7016  0.0832 -0.3234
  685MOL0     O94451   4.356   5.493   7.015  0.1658  0.2773  0.1000
  685MOL0     C94452   4.457   5.411   6.951 -0.0239 -0.7340  0.6535
  685MOL0     C94453   4.422   5.266   6.975 -0.0850 -0.4718 -1.2259
  685MOL0     C94454   4.447   5.212   7.116  0.1834 -0.4664 -0.1474
  685MOL0     C94455   4.358   5.095   7.156  0.4642 -0.3057 -0.5066
  685MOL0     C94456   4.412   4.965   7.110 -0.8759 -1.0425 -0.1811
  685MOL0     C94457   4.467   4.860   7.089 -0.2137 -0.2947  0.5448
  685MOL0     C94458   4.202   5.471   6.820 -0.7860  0.4139 -0.3898
  685MOL0     C94459   4.079   5.508   6.770  0.1538  0.2647 -0.3818
  685MOL0     C94460   4.054   5.480   6.619 -0.1308  0.0048 -0.1674
  685MOL0     H94461   3.559   5.551   6.986  3.8816 -0.8051 -3.0536
  685MOL0     H94462   3.318   5.599   6.932  1.4867 -2.0898  0.5187
  685MOL0     H94463   3.221   5.981   6.675 -1.1492 -0.0198 -1.1109
  685MOL0     H94464   3.249   5.966   6.856  0.6497 -0.4393 -0.3113
  685MOL0     H94465   3.044   6.062   6.776  0.0630  0.3133 -1.7024
  685MOL0     H94466   3.002   5.906   6.692 -2.5129 -3.1000  2.6731
  685MOL0     H94467   2.872   5.886   6.879  0.9887 -0.9841  0.5136
  685MOL0     H94468   3.024   5.813   6.937 -0.9012 -0.2708  3.2655
  685MOL0     H94469   3.086   6.060   7.016  1.1494  0.9557 -3.7236
  685MOL0     H94470   2.921   6.112   6.975  0.1050 -0.6926 -0.3196
  685MOL0     H94471   2.948   5.891   7.171  3.1658  2.0901  1.0629
  685MOL0     H94472   2.803   5.974   7.102  0.1873 -0.7989 -1.3884
  685MOL0     H94473   3.035   6.098   7.269  0.5506 -1.6603 -0.4724
  685MOL0     H94474   2.905   6.192   7.189  0.9780 -0.2817 -2.1799
  685MOL0     H94475   2.878   6.008   7.448 -1.9000  0.4362  1.6388
  685MOL0     H94476   2.744   6.040   7.348  1.0786 -2.2891 -0.5194
  685MOL0     H94477   2.909   6.267   7.456 -0.8085  2.2280 -2.5138
  685MOL0     H94478   2.761   6.284   7.378  0.7960 -0.5874 -0.2359
  685MOL0     H94479   2.815   6.399   7.658  0.1131  0.0394 -1.9870
  685MOL0     H94480   2.575   6.355   7.920  0.3180  0.3624 -1.0863
  685MOL0     H94481   2.738   6.424   7.910 -0.4153 -0.7458  0.6534
  685MOL0     H94482   2.677   6.142   7.995  1.3850  0.0651 -2.5738
  685MOL0     H94483   2.825   6.240   8.029  0.9352  0.2504 -4.0156
  685MOL0     H94484   2.689   6.353   8.200  1.0494 -0.2584  0.3200
  685MOL0     H94485   2.536   6.309   8.121  1.6491  1.9042 -0.5902
  685MOL0     H94486   2.535   6.162   8.320  0.7119 -2.4068  0.6708
  685MOL0     H94487   2.581   6.074   8.188  2.5493 -0.8842 -0.8541
  685MOL0     H94488   2.502   5.962   8.371  1.0650 -3.2984 -2.9367
  685MOL0     H94489   2.389   5.739   8.469 -2.9396  2.6427 -0.2283
  685MOL0     H94490   2.365   5.896   8.551  1.6026  2.1856 -0.0504
  685MOL0     H94491   2.410   5.756   8.646 -1.7926 -0.0215 -0.3246
  685MOL0     H94492   2.904   5.563   8.920  3.0795 -2.3688  4.0150
  685MOL0     H94493   2.892   5.391   9.068 -1.4647  2.8507 -0.0569
  685MOL0     H94494   2.900   5.067   9.120 -1.1950 -0.0187 -2.6576
  685MOL0     H94495   2.866   5.222   9.195  0.1289 -0.5520  0.8642
  685MOL0     H94496   2.790   5.054   9.355  1.6236 -1.0497 -2.0569
  685MOL0     H94497   2.638   5.126   9.278  0.6767  2.2926 -1.9073
  685MOL0     H94498   2.759   4.862   9.187  1.6706  0.1370  0.3032
  685MOL0     H94499   2.612   4.941   9.130  1.2084 -0.1048 -0.6804
  685MOL0     H94500   2.546   4.920   9.372 -0.7082  1.3382 -1.5459
  685MOL0     H94501   2.681   4.793   9.379  0.2002 -0.5565 -1.2128
  685MOL0     H94502   2.473   4.680   9.337  1.3778  0.1701  1.0357
  685MOL0     H94503   2.431   4.802   9.209 -2.2305 -1.8700  1.0716
  685MOL0     H94504   2.661   4.597   9.204  3.2780  3.2299 -0.8586
  685MOL0     H94505   2.642   4.717   9.081  5.4553  0.2796  3.5512
  685MOL0     H94506   2.448   4.484   9.162 -1.5898 -0.7691 -0.7275
  685MOL0     H94507   2.572   4.490   9.034 -0.0298  0.0890 -0.6365
  685MOL0     H94508   2.431   4.652   8.904 -2.4968 -0.6406 -1.3545
  685MOL0     H94509   2.321   4.658   9.041  0.9096  0.3920  1.6689
  685MOL0     H94510   2.602   5.179   8.827 -2.9180  1.5742  3.6518
  685MOL0     H94511   2.610   5.369   8.660 -0.3722  2.6121  1.2571
  685MOL0     H94512   2.905   5.815   8.585  1.0705  0.5162 -1.7531
  685MOL0     H94513   2.905   5.995   8.443  0.8063  0.0405 -0.2093
  685MOL0     H94514   3.462   5.887   6.643 -1.1614  2.8682  1.5049
  685MOL0     H94515   3.693   5.819   6.712 -0.2888  0.0522  0.9114
  685MOL0     H94516   3.943   5.621   7.059  1.0522 -0.1777  0.5511
  685MOL0     H94517   4.177   5.622   7.125  1.3803 -1.5172 -0.7624
  685MOL0     H94518   4.457   5.435   6.844 -1.1101  0.3115  0.8738
  685MOL0     H94519   4.556   5.436   6.989  0.1179  1.1373 -0.7837
  685MOL0     H94520   4.485   5.209   6.907  2.2448  0.5536 -0.0164
  685MOL0     H94521   4.317   5.253   6.947 -0.4188 -0.7546  0.0895
  685MOL0     H94522   4.554   5.186   7.113 -0.1067 -1.5775 -1.8633
  685MOL0     H94523   4.440   5.293   7.189 -2.2151  0.8088 -1.6925
  685MOL0     H94524   4.252   5.108   7.134 -0.1140  0.4801  2.3921
  685MOL0     H94525   4.359   5.084   7.265 -1.1609  1.0770 -0.3149
  685MOL0     H94526   4.509   4.767   7.056 -1.1419 -0.2068 -1.0210
  685MOL0     H94527   4.277   5.415   6.765  1.7731  3.2172 -0.0439
  685MOL0     H94528   4.143   5.473   6.556  1.7496  1.3144  2.1581
  685MOL0     H94529   4.000   5.386   6.608  1.3780 -0.6864 -2.3307
  685MOL0     H94530   4.007   5.565   6.568 -0.6777 -0.7790 -1.0084
  686MOL0     O94531   8.781   3.620   3.023  0.5273 -0.8276  0.1035
  686MOL0     C94532   8.888   3.568   3.050  0.6815 -0.5377 -0.4001
  686MOL0     O94533   8.946   3.564   3.175  0.4473 -0.0261  0.7661
  686MOL0     C94534   8.893   3.612   3.285 -0.6005  0.0519  0.5132
  686MOL0     C94535   8.967   3.685   3.378 -0.7497 -0.4130  0.2366
  686MOL0     C94536   8.918   3.726   3.500 -0.2965 -0.0160 -0.6734
  686MOL0     C94537   8.788   3.700   3.532  0.8397 -0.6368 -0.7501
  686MOL0     O94538   8.725   3.734   3.653 -0.4429  0.7840  1.2658
  686MOL0     C94539   8.793   3.819   3.755  0.1906 -0.2416  0.6726
  686MOL0     C94540   8.734   3.795   3.891 -0.1757  0.0041  0.2892
  686MOL0     C94541   8.824   3.827   4.008 -0.0572 -0.3197  0.7075
  686MOL0     C94542   8.751   3.866   4.128  0.1608  0.0365 -0.8260
  686MOL0     C94543   8.691   4.008   4.133  0.4325 -0.5299  0.3573
  686MOL0     C94544   8.636   4.039   4.276 -0.6824  0.2128 -0.1730
  686MOL0     C94545   8.613   4.191   4.305  0.6827  0.2757 -0.2341
  686MOL0     C94546   8.518   4.220   4.422 -0.3566 -1.2273  0.1355
  686MOL0     N94547   8.501   4.367   4.441  0.3719  0.0078 -0.7464
  686MOL0     C94548   8.438   4.451   4.346 -0.3068  0.5168  0.2922
  686MOL0     C94549   8.388   4.560   4.409 -0.0179  0.5890  0.2162
  686MOL0     C94550   8.292   4.657   4.339  0.5266 -1.0609  0.6522
  686MOL0     C94551   8.352   4.788   4.282  0.8360 -0.2106  0.7461
  686MOL0     C94552   8.405   4.776   4.142  0.2412 -0.2284  0.4988
  686MOL0     C94553   8.450   4.907   4.085 -0.2865  0.3893 -0.2543
  686MOL0     O94554   8.494   4.881   3.947  0.4226 -0.2261  0.7354
  686MOL0     C94555   8.620   4.828   3.927  0.3226 -0.5114  1.0058
  686MOL0     C94556   8.652   4.802   3.796 -0.9726  1.0531 -0.6004
  686MOL0     C94557   8.782   4.757   3.761 -0.4022  0.6101 -0.2106
  686MOL0     C94558   8.796   4.756   3.610 -0.4111 -0.3030  1.2573
  686MOL0     C94559   8.887   4.747   3.852  0.1651  0.3363 -1.0484
  686MOL0     C94560   9.034   4.717   3.816 -0.1596  0.1380 -0.5148
  686MOL0     O94561   9.119   4.707   3.923  0.4295  0.0168  0.1450
  686MOL0     C94562   9.252   4.673   3.909  0.4048 -1.0854  0.5086
  686MOL0     C94563   9.332   4.682   3.785 -1.4355  0.3261 -0.3273
  686MOL0     C94564   9.467   4.640   3.785 -0.1330  0.8586  0.2383
  686MOL0     C94565   9.527   4.593   3.897 -0.6552  0.2256  0.3141
  686MOL0     O94566   9.652   4.543   3.903  1.1085 -0.0500  0.0032
  686MOL0     C94567   9.752   4.642   3.922 -1.2406  0.1076  0.0798
  686MOL0     C94568   9.889   4.586   3.890  1.0968 -0.6210  0.6456
  686MOL0     C94569   9.918   4.465   3.987 -0.1318 -0.4580  0.8313
  686MOL0     C94570   9.972   4.510   4.128 -0.3258 -0.5727 -0.1736
  686MOL0     C94571  10.012   4.396   4.219 -0.1582 -0.9218 -0.6542
  686MOL0     C94572  10.044   4.443   4.360 -0.7429  0.2209  0.3742
  686MOL0     C94573   9.923   4.501   4.433 -0.5969 -0.2586  0.1632
  686MOL0     C94574   9.950   4.499   4.585  0.6313  0.1088 -0.0120
  686MOL0    Cl94575   9.946   4.344   4.658  0.3018  0.0379 -0.2962
  686MOL0     C94576   9.457   4.594   4.022 -0.0185 -0.5007  0.4701
  686MOL0     C94577   9.324   4.635   4.023  0.0897 -0.1439  0.2833
  686MOL0     O94578   9.065   4.701   3.704 -0.5139 -0.3014  0.8170
  686MOL0     C94579   8.841   4.740   3.983 -0.6683 -0.3304 -0.5609
  686MOL0     C94580   8.710   4.786   4.018  0.4557  0.0506 -1.1790
  686MOL0     N94581   8.432   4.550   4.535 -0.2030  0.3792  0.5935
  686MOL0     N94582   8.506   4.442   4.556  0.7092  0.0259 -0.1043
  686MOL0     C94583   8.712   3.635   3.443  0.1537 -0.0870  0.2003
  686MOL0     C94584   8.761   3.591   3.318 -0.8324 -0.0770 -0.4937
  686MOL0     C94585   8.964   3.513   2.940 -0.7848  0.1960 -0.0141
  686MOL0     C94586   9.034   3.388   2.958  0.3491  0.4607 -0.1191
  686MOL0     C94587   9.121   3.333   2.857  0.2328 -0.9572  0.6827
  686MOL0     C94588   9.131   3.397   2.731 -0.7406  0.9751  0.2896
  686MOL0     O94589   9.185   3.342   2.618 -0.2872 -0.3287 -0.0426
  686MOL0     C94590   9.293   3.246   2.638  0.9631 -0.2819 -0.3162
  686MOL0     C94591   9.340   3.189   2.507  0.0744 -0.1927  0.3496
  686MOL0     C94592   9.495   3.178   2.516  0.1613  0.3620 -0.2285
  686MOL0     C94593   9.560   3.107   2.397  0.1354  0.5010  0.1882
  686MOL0     C94594   9.529   3.176   2.274 -0.3693 -0.0789  0.3766
  686MOL0     C94595   9.501   3.236   2.171  0.0712 -1.0317  0.5652
  686MOL0     C94596   9.061   3.506   2.708 -0.6794  0.7323  0.0191
  686MOL0     C94597   8.972   3.565   2.807 -0.5005 -0.4429 -0.0114
  686MOL0     C94598   8.903   3.688   2.765  0.3665 -0.6240 -0.0058
  686MOL0     H94599   9.067   3.716   3.347 -1.3702  2.5222  0.8609
  686MOL0     H94600   8.990   3.772   3.566  0.2850 -2.4857  0.4846
  686MOL0     H94601   8.783   3.922   3.720  2.8486  0.1492  0.8644
  686MOL0     H94602   8.899   3.792   3.756  0.0731 -0.7874 -0.5018
  686MOL0     H94603   8.636   3.841   3.907  0.1000  0.0429  2.0666
  686MOL0     H94604   8.729   3.687   3.902  0.1920 -0.6388 -4.0900
  686MOL0     H94605   8.903   3.753   4.026  0.4122  0.6847  3.1761
  686MOL0     H94606   8.871   3.921   3.978 -1.0744  0.3391  1.1507
  686MOL0     H94607   8.674   3.794   4.155 -0.1246  0.5285 -0.3096
  686MOL0     H94608   8.828   3.862   4.206  0.6462  1.4102 -1.1933
  686MOL0     H94609   8.608   4.006   4.062  1.0668 -2.4651 -0.4054
  686MOL0     H94610   8.771   4.077   4.104  0.7624 -1.8871 -2.2082
  686MOL0     H94611   8.543   3.983   4.282  0.2052 -1.2757  0.1188
  686MOL0     H94612   8.705   3.988   4.344 -0.1182 -1.0635 -1.6409
  686MOL0     H94613   8.577   4.238   4.213  0.9108  3.3908  1.1429
  686MOL0     H94614   8.710   4.228   4.341 -0.9160  3.1061  1.5433
  686MOL0     H94615   8.422   4.168   4.415  0.9559 -3.7618 -0.6876
  686MOL0     H94616   8.553   4.179   4.517  1.4157  3.0117  1.5387
  686MOL0     H94617   8.437   4.430   4.240 -2.0626  4.5426 -0.6583
  686MOL0     H94618   8.222   4.684   4.420  1.0588  1.1335  0.4451
  686MOL0     H94619   8.235   4.603   4.263 -1.8535  1.7899  0.2282
  686MOL0     H94620   8.279   4.869   4.282 -0.8577 -1.6431  2.1596
  686MOL0     H94621   8.432   4.822   4.348  1.7634  1.7727 -1.2852
  686MOL0     H94622   8.489   4.707   4.131  1.9678  1.9633 -0.9740
  686MOL0     H94623   8.334   4.733   4.070  1.3609  0.1425 -0.8965
  686MOL0     H94624   8.371   4.982   4.093  0.8973  1.6042  0.5083
  686MOL0     H94625   8.529   4.937   4.155 -0.0368 -5.6583  2.6614
  686MOL0     H94626   8.578   4.825   3.720 -0.9246  0.0623 -0.9638
  686MOL0     H94627   8.860   4.674   3.578 -0.7541 -0.9725  2.2390
  686MOL0     H94628   8.834   4.849   3.565  3.0661 -1.5779  1.2362
  686MOL0     H94629   8.699   4.743   3.563  1.0825  1.2847 -2.7252
  686MOL0     H94630   9.298   4.724   3.691 -1.8390  4.1834  1.3523
  686MOL0     H94631   9.512   4.640   3.686  1.9233  1.6439  1.1355
  686MOL0     H94632   9.726   4.720   3.850  0.2312 -2.3016 -3.2984
  686MOL0     H94633   9.738   4.670   4.027  1.6599 -2.3876  1.2580
  686MOL0     H94634   9.891   4.543   3.789  0.8072 -1.4067  0.9676
  686MOL0     H94635   9.959   4.669   3.902 -0.5330  0.7137  1.3184
  686MOL0     H94636   9.992   4.405   3.933 -2.8033 -2.5100 -0.7798
  686MOL0     H94637   9.833   4.398   3.998 -1.9465  1.7578  1.0030
  686MOL0     H94638   9.895   4.575   4.171  1.7523  1.3108  0.9389
  686MOL0     H94639  10.059   4.570   4.100 -3.0436  3.4444 -0.8783
  686MOL0     H94640   9.932   4.321   4.227  1.4338 -2.8592 -1.9657
  686MOL0     H94641  10.098   4.340   4.182  1.7779  0.8721  0.8725
  686MOL0     H94642  10.120   4.523   4.352  1.1360 -1.4409  0.7572
  686MOL0     H94643  10.081   4.354   4.411 -1.4660 -0.1768  0.2186
  686MOL0     H94644   9.824   4.467   4.400 -0.4651 -1.5826  1.0951
  686MOL0     H94645   9.916   4.604   4.396  1.8658 -0.4209 -0.9461
  686MOL0     H94646   9.867   4.552   4.633 -1.2153 -0.4460 -2.4072
  686MOL0     H94647  10.043   4.551   4.611 -0.2898  0.8483  2.0765
  686MOL0     H94648   9.509   4.566   4.113 -0.0729  0.4151  0.7928
  686MOL0     H94649   9.274   4.620   4.118  1.4561 -1.5379  0.8250
  686MOL0     H94650   8.908   4.706   4.062 -0.6126  1.6025  0.2693
  686MOL0     H94651   8.684   4.798   4.122  2.2960  1.6066 -0.8367
  686MOL0     H94652   8.610   3.602   3.458  0.5923 -1.2757  0.7476
  686MOL0     H94653   8.708   3.515   3.261  1.4795 -3.8729  1.9274
  686MOL0     H94654   9.035   3.342   3.057 -0.1465  0.0519 -0.3004
  686MOL0     H94655   9.169   3.238   2.878 -0.1099 -1.1322  0.6832
  686MOL0     H94656   9.377   3.292   2.690  1.0393  2.1201 -2.3927
  686MOL0     H94657   9.248   3.170   2.703 -0.7870  0.2121 -0.8932
  686MOL0     H94658   9.308   3.252   2.423 -3.4905 -1.1166  0.8418
  686MOL0     H94659   9.292   3.091   2.498 -1.0543  0.2154  1.5235
  686MOL0     H94660   9.533   3.279   2.526  1.1676  0.0221 -0.4713
  686MOL0     H94661   9.515   3.119   2.606  0.8359  2.2654  0.9023
  686MOL0     H94662   9.535   3.000   2.392 -0.3021  0.5786  0.5907
  686MOL0     H94663   9.666   3.109   2.423  0.1145 -0.9929  0.5141
  686MOL0     H94664   9.477   3.283   2.078  0.1048 -1.5478  0.2944
  686MOL0     H94665   9.078   3.548   2.610  0.2769 -0.2638 -0.2515
  686MOL0     H94666   8.917   3.769   2.837 -0.5752  1.7218 -2.3104
  686MOL0     H94667   8.921   3.720   2.662  1.0779  0.9368  0.5700
  686MOL0     H94668   8.795   3.673   2.771  0.1504  0.5885 -0.6003
  687MOL0     O94669   5.315   3.201   1.766  0.9156  0.5541  0.7393
  687MOL0     C94670   5.411   3.127   1.763 -0.9464 -0.1037 -0.2161
  687MOL0     O94671   5.417   3.004   1.807 -0.5726 -0.2400  0.8465
  687MOL0     C94672   5.307   2.929   1.844  0.1107 -0.5328  0.2077
  687MOL0     C94673   5.295   2.905   1.979 -1.0514  0.3183 -0.4036
  687MOL0     C94674   5.192   2.839   2.030 -0.0723  0.6861 -0.0314
  687MOL0     C94675   5.092   2.778   1.950 -0.3531  0.3046  0.3496
  687MOL0     O94676   4.999   2.688   1.999 -0.6138  0.0736  0.2001
  687MOL0     C94677   4.875   2.752   2.042  0.4005 -0.5073 -0.2240
  687MOL0     C94678   4.782   2.774   1.925  0.5729  0.5734  0.6273
  687MOL0     C94679   4.650   2.853   1.962  0.4423  0.7375 -0.2746
  687MOL0     C94680   4.533   2.767   2.025  0.2111  1.1850  0.1601
  687MOL0     C94681   4.409   2.852   2.057  0.3133 -0.9055  0.1766
  687MOL0     C94682   4.340   2.906   1.923  0.0785 -0.5643 -0.4820
  687MOL0     C94683   4.217   2.986   1.945 -0.6347  1.1874  0.2427
  687MOL0     C94684   4.165   3.051   1.817 -0.0846  0.1874 -0.3565
  687MOL0     N94685   4.031   3.087   1.824  0.2444  1.2017 -0.8317
  687MOL0     C94686   3.922   3.006   1.868 -0.2111 -0.5559 -0.3122
  687MOL0     C94687   3.819   3.082   1.863 -0.1935 -0.2507  0.2028
  687MOL0     C94688   3.682   3.055   1.922 -0.2746  0.7943  0.2082
  687MOL0     C94689   3.645   3.119   2.054 -0.0519 -0.4937 -0.7436
  687MOL0     C94690   3.515   3.056   2.109 -0.5022  0.4254  0.1565
  687MOL0     C94691   3.494   3.079   2.258  0.6313 -0.4556  0.2218
  687MOL0     O94692   3.563   2.985   2.345 -0.1770  0.9503 -0.1324
  687MOL0     C94693   3.503   2.857   2.356  0.0965  0.3123  0.0366
  687MOL0     C94694   3.374   2.819   2.309  0.1399 -0.9019  0.5611
  687MOL0     C94695   3.322   2.686   2.314  0.1007  0.7613  0.5530
  687MOL0     C94696   3.192   2.663   2.237  0.5324  0.0646  0.4386
  687MOL0     C94697   3.396   2.583   2.372  0.3972  1.0843 -0.9143
  687MOL0     C94698   3.353   2.433   2.378  0.2420 -1.1274  0.3694
  687MOL0     O94699   3.445   2.350   2.437  0.4115  0.2024 -1.3594
  687MOL0     C94700   3.409   2.281   2.552  0.0123  0.1200  0.2078
  687MOL0     C94701   3.508   2.226   2.628 -0.3900 -0.8069  0.1605
  687MOL0     C94702   3.473   2.166   2.757  0.0583  0.1165 -0.3702
  687MOL0     C94703   3.349   2.164   2.823  0.0323 -0.0027 -0.0846
  687MOL0     O94704   3.328   2.114   2.949  0.2978 -0.4302  0.9284
  687MOL0     C94705   3.205   2.038   2.969 -0.9094 -1.4799  0.7070
  687MOL0     C94706   3.189   1.997   3.113  0.2380 -0.4720 -0.1152
  687MOL0     C94707   3.039   1.960   3.128  0.8323  0.3970  1.2362
  687MOL0     C94708   3.009   1.814   3.078  0.5962 -0.6489 -0.0550
  687MOL0     C94709   2.886   1.745   3.148  0.2415  0.6911 -0.2361
  687MOL0     C94710   2.890   1.747   3.298 -0.3857 -0.6296 -1.0553
  687MOL0     C94711   3.022   1.695   3.358  0.2752 -0.3038 -1.5196
  687MOL0     C94712   3.025   1.645   3.508  0.3522 -0.7262  0.3640
  687MOL0    Cl94713   3.008   1.793   3.603 -0.2439 -0.1637  0.6674
  687MOL0     C94714   3.249   2.223   2.742 -0.2317 -0.3303  0.0855
  687MOL0     C94715   3.273   2.272   2.611 -0.6523  0.5873 -0.3689
  687MOL0     O94716   3.255   2.394   2.321 -0.0068  0.8794  0.1534
  687MOL0     C94717   3.528   2.613   2.419  0.6877 -0.6618 -0.1130
  687MOL0     C94718   3.585   2.747   2.403  1.1274  1.2736 -0.7989
  687MOL0     N94719   3.856   3.212   1.831  0.1889 -0.1436 -0.1435
  687MOL0     N94720   3.985   3.211   1.810  0.5676  0.7650  0.2463
  687MOL0     C94721   5.098   2.804   1.815 -0.7304 -0.4420  0.7347
  687MOL0     C94722   5.204   2.886   1.764 -0.9541  0.2437 -0.2873
  687MOL0     C94723   5.533   3.180   1.701  1.0332 -0.1529  0.3454
  687MOL0     C94724   5.640   3.088   1.684 -0.0190  0.4191  0.0336
  687MOL0     C94725   5.757   3.120   1.612 -0.0628  0.7628 -0.1056
  687MOL0     C94726   5.777   3.252   1.568  0.3749  0.4979 -0.1269
  687MOL0     O94727   5.901   3.281   1.515  0.0724  0.4010  0.2932
  687MOL0     C94728   5.927   3.410   1.466  0.8281  0.6354 -0.6521
  687MOL0     C94729   5.886   3.438   1.319 -0.9591 -0.5063  0.2616
  687MOL0     C94730   5.961   3.346   1.229  0.0017  0.0921 -0.2099
  687MOL0     C94731   5.912   3.343   1.088 -0.4240 -0.2887  0.2681
  687MOL0     C94732   5.943   3.471   1.017  0.0262  0.3189  0.3032
  687MOL0     C94733   5.968   3.562   0.942  0.6385  0.1167  0.2696
  687MOL0     C94734   5.673   3.345   1.573  0.7798  0.1603 -0.3448
  687MOL0     C94735   5.553   3.308   1.644  0.0548  0.5095  0.3443
  687MOL0     C94736   5.459   3.427   1.669 -0.0866  0.2835 -1.2174
  687MOL0     H94737   5.373   2.945   2.045 -2.2233  2.1196 -0.0361
  687MOL0     H94738   5.203   2.828   2.138  3.0748 -0.3538 -0.3455
  687MOL0     H94739   4.878   2.854   2.081 -0.3200 -0.5695  0.0089
  687MOL0     H94740   4.819   2.684   2.108 -3.1419  2.9587  0.7253
  687MOL0     H94741   4.845   2.832   1.856  2.2158 -1.8369 -0.0161
  687MOL0     H94742   4.761   2.681   1.871  1.0834  0.7790  0.0531
  687MOL0     H94743   4.672   2.932   2.034  2.1139 -3.1583  3.9560
  687MOL0     H94744   4.613   2.909   1.875  1.4457  3.3715  0.8886
  687MOL0     H94745   4.501   2.686   1.960  1.7428 -1.3409  2.3638
  687MOL0     H94746   4.561   2.718   2.119 -0.3976  1.5247  0.5248
  687MOL0     H94747   4.437   2.929   2.130 -3.1679 -0.1072  0.8418
  687MOL0     H94748   4.331   2.794   2.107 -0.1673 -0.4740 -0.0753
  687MOL0     H94749   4.402   2.964   1.854  0.4454 -1.7485 -1.1853
  687MOL0     H94750   4.324   2.820   1.857  2.0247 -3.0497  2.0507
  687MOL0     H94751   4.229   3.057   2.027  0.1287 -0.2329  1.4184
  687MOL0     H94752   4.147   2.913   1.988 -0.6237  0.6540 -0.6368
  687MOL0     H94753   4.234   3.134   1.797  0.7424  0.0814  1.8264
  687MOL0     H94754   4.170   2.977   1.736 -2.2471 -1.7134  1.1560
  687MOL0     H94755   3.917   2.905   1.908  2.2394 -0.7256 -0.3189
  687MOL0     H94756   3.685   2.945   1.924  1.4722  0.8273  1.0646
  687MOL0     H94757   3.609   3.085   1.846  1.9502 -0.8374 -2.7715
  687MOL0     H94758   3.724   3.097   2.126  1.2490  1.4296 -1.5157
  687MOL0     H94759   3.630   3.226   2.037  2.7683 -0.0731 -1.0775
  687MOL0     H94760   3.432   3.109   2.061 -2.6463 -1.6230  1.3803
  687MOL0     H94761   3.486   2.955   2.079 -0.0267 -0.4482  2.4629
  687MOL0     H94762   3.546   3.174   2.275  1.9017 -0.4966 -2.7853
  687MOL0     H94763   3.387   3.095   2.272 -0.0863 -2.6889 -1.9589
  687MOL0     H94764   3.314   2.896   2.261  0.7534 -0.9296 -0.2782
  687MOL0     H94765   3.149   2.759   2.207  1.7273  1.2802  2.4174
  687MOL0     H94766   3.112   2.613   2.293  0.0511  1.4852  1.0732
  687MOL0     H94767   3.221   2.603   2.150  4.2246 -1.8903  2.7506
  687MOL0     H94768   3.609   2.227   2.588 -1.3575 -0.1465 -2.5070
  687MOL0     H94769   3.556   2.125   2.814 -1.4261 -2.7466 -0.0799
  687MOL0     H94770   3.126   2.112   2.952  1.4258  2.3804  4.5162
  687MOL0     H94771   3.196   1.958   2.895 -1.6990 -1.0594  0.3340
  687MOL0     H94772   3.261   1.917   3.130  1.0253 -0.2598 -2.2132
  687MOL0     H94773   3.217   2.074   3.185 -0.7150  0.1375 -0.3731
  687MOL0     H94774   2.976   2.032   3.075  0.0171  0.1037  1.8059
  687MOL0     H94775   3.027   1.971   3.236  0.7565  1.6108  1.1189
  687MOL0     H94776   3.094   1.747   3.096  2.3648  1.1243 -1.3506
  687MOL0     H94777   2.995   1.832   2.971 -0.1895  2.3967  0.4619
  687MOL0     H94778   2.790   1.779   3.109  0.4638  0.6285 -0.8355
  687MOL0     H94779   2.889   1.639   3.120  1.3696  0.0235  2.1248
  687MOL0     H94780   2.812   1.676   3.329  0.2194  0.2511  3.1142
  687MOL0     H94781   2.872   1.844   3.346 -1.2453 -0.6277 -1.3585
  687MOL0     H94782   3.108   1.761   3.341 -0.2757  1.6859  2.1852
  687MOL0     H94783   3.038   1.597   3.312 -2.8467 -0.6796 -1.9721
  687MOL0     H94784   3.122   1.605   3.538  0.3549 -0.1672  1.1226
  687MOL0     H94785   2.947   1.569   3.525  0.5299 -1.0485 -0.2323
  687MOL0     H94786   3.146   2.228   2.775 -0.4014  0.1141 -0.4972
  687MOL0     H94787   3.189   2.317   2.557  0.2257  0.7418 -1.6663
  687MOL0     H94788   3.584   2.532   2.463 -2.0321 -3.0855 -0.8024
  687MOL0     H94789   3.686   2.774   2.433  0.2831  1.6096  2.0350
  687MOL0     H94790   5.030   2.762   1.741 -2.7665  2.0047  1.0649
  687MOL0     H94791   5.206   2.915   1.659  0.8998  1.8195  0.1158
  687MOL0     H94792   5.646   2.995   1.740 -0.6959  2.0571  3.0659
  687MOL0     H94793   5.839   3.049   1.606  0.1259  0.9244  0.5092
  687MOL0     H94794   5.887   3.492   1.527 -0.2801  0.8477 -1.6316
  687MOL0     H94795   6.036   3.418   1.472  1.0265 -0.8742 -1.8344
  687MOL0     H94796   5.919   3.538   1.291  1.2570 -1.3046 -0.1737
  687MOL0     H94797   5.777   3.443   1.306 -0.8022  4.3403 -1.2577
  687MOL0     H94798   6.067   3.374   1.227  0.1249 -0.4180 -2.2879
  687MOL0     H94799   5.959   3.245   1.270  2.9010  0.4365  1.0881
  687MOL0     H94800   5.806   3.317   1.076  0.3446 -3.3420 -0.9134
  687MOL0     H94801   5.964   3.267   1.029 -0.9898  0.8784 -1.8308
  687MOL0     H94802   6.000   3.642   0.878  2.5241 -1.1445 -0.4391
  687MOL0     H94803   5.681   3.451   1.552 -1.4179  1.5499  4.3898
  687MOL0     H94804   5.503   3.519   1.630 -0.9824  1.8895  1.3392
  687MOL0     H94805   5.366   3.412   1.613 -1.2326 -1.2521  0.9268
  687MOL0     H94806   5.434   3.436   1.775  1.0567  2.2729 -1.0837
  688MOL0     O94807  11.202   0.664   2.525 -0.8862 -0.2396 -0.0563
  688MOL0     C94808  11.290   0.667   2.438 -0.9808  0.3818  0.0387
  688MOL0     O94809  11.307   0.772   2.344  0.1444  0.7057  0.0156
  688MOL0     C94810  11.235   0.881   2.360 -0.4382 -0.1570 -0.4358
  688MOL0     C94811  11.107   0.895   2.305  0.6070 -0.2134  0.9168
  688MOL0     C94812  11.021   0.996   2.352 -0.8928 -0.2446  0.5973
  688MOL0     C94813  11.077   1.112   2.417  0.1366 -0.8916  0.2135
  688MOL0     O94814  11.013   1.227   2.453  0.5077  0.5751 -0.7880
  688MOL0     C94815  10.874   1.236   2.433  0.6018  1.1015 -0.3690
  688MOL0     C94816  10.835   1.372   2.468 -0.5529 -0.3053 -0.1793
  688MOL0     C94817  10.909   1.482   2.396  0.8127 -0.2815  0.5450
  688MOL0     C94818  10.873   1.502   2.251  0.4264 -0.2279 -0.4191
  688MOL0     C94819  10.932   1.611   2.177  0.0991 -0.2497  0.5671
  688MOL0     C94820  10.870   1.744   2.213 -0.0396 -0.4482 -0.2413
  688MOL0     C94821  10.950   1.857   2.142 -0.1388 -0.0757 -0.4224
  688MOL0     C94822  11.094   1.878   2.203 -0.0505 -0.2343  0.0186
  688MOL0     N94823  11.171   1.952   2.104  0.1072  0.1976 -0.0712
  688MOL0     C94824  11.229   1.896   1.989 -0.1917  0.7933 -0.9193
  688MOL0     C94825  11.332   1.977   1.957 -0.7420 -0.2920  0.4674
  688MOL0     C94826  11.428   1.971   1.836 -0.2232 -0.6280 -0.8784
  688MOL0     C94827  11.409   2.104   1.758 -0.3036  0.4858 -0.3486
  688MOL0     C94828  11.500   2.101   1.631 -0.8162 -0.5463 -0.8732
  688MOL0     C94829  11.517   2.248   1.575  0.0023  0.2558 -0.0172
  688MOL0     O94830  11.593   2.330   1.663  0.0703 -0.5711 -0.6963
  688MOL0     C94831  11.652   2.439   1.622  0.2007 -0.1873  0.6405
  688MOL0     C94832  11.730   2.500   1.726 -0.0933 -0.0616  0.0594
  688MOL0     C94833  11.784   2.630   1.701 -0.1891 -1.1678 -0.2380
  688MOL0     C94834  11.877   2.691   1.803  0.1429  0.1323 -0.7133
  688MOL0     C94835  11.743   2.707   1.583 -0.0448 -0.1535  0.5904
  688MOL0     C94836  11.788   2.837   1.554  0.1109  0.2699  0.0289
  688MOL0     O94837  11.691   2.900   1.475  0.1146  0.6162 -0.6252
  688MOL0     C94838  11.713   3.030   1.447  0.0589 -0.1813  0.2882
  688MOL0     C94839  11.643   3.124   1.519  0.4037 -0.9455  0.2495
  688MOL0     C94840  11.645   3.254   1.488 -0.1618 -0.5458  0.3546
  688MOL0     C94841  11.731   3.302   1.390 -0.0008 -0.9563  0.1028
  688MOL0     O94842  11.760   3.434   1.351  0.7609 -0.1325 -0.7962
  688MOL0     C94843  11.674   3.539   1.395  0.2320  0.1810  0.1011
  688MOL0     C94844  11.697   3.660   1.310 -0.7366  0.1170 -0.2942
  688MOL0     C94845  11.840   3.721   1.295 -0.5027 -0.0444 -0.5426
  688MOL0     C94846  11.890   3.785   1.437 -0.1696 -0.2227  0.5859
  688MOL0     C94847  11.825   3.923   1.435 -0.4777 -0.3515  0.5962
  688MOL0     C94848  11.803   3.977   1.572 -0.2614  0.0556  0.2523
  688MOL0     C94849  11.679   3.932   1.644 -0.1905  0.3224 -0.7788
  688MOL0     C94850  11.637   4.010   1.767 -0.0401 -1.3026  0.2253
  688MOL0    Cl94851  11.651   4.184   1.747 -0.0091 -0.5309 -0.1249
  688MOL0     C94852  11.803   3.209   1.312  0.0501 -0.3411 -0.8897
  688MOL0     C94853  11.789   3.076   1.336 -1.3413 -0.6376 -0.6647
  688MOL0     O94854  11.893   2.881   1.594 -0.5493  0.0627  0.0783
  688MOL0     C94855  11.665   2.636   1.483  0.1240  1.4102 -0.2824
  688MOL0     C94856  11.615   2.511   1.501  0.1434  0.5337 -0.0881
  688MOL0     N94857  11.348   2.065   2.057 -0.5301  0.2193  0.2669
  688MOL0     N94858  11.253   2.060   2.139  0.6969 -0.1285 -0.2311
  688MOL0     C94859  11.216   1.110   2.442  0.7513  0.1378  0.3772
  688MOL0     C94860  11.289   0.995   2.420 -0.1347 -0.4813  1.0288
  688MOL0     C94861  11.369   0.548   2.418  0.3365  0.6108  0.3074
  688MOL0     C94862  11.475   0.552   2.318 -1.2088 -0.0633 -0.6213
  688MOL0     C94863  11.542   0.433   2.279 -0.4531  0.6163 -0.2943
  688MOL0     C94864  11.520   0.312   2.347  0.2382  0.8142 -0.5561
  688MOL0     O94865  11.610   0.210   2.325 -0.5853  0.5216 -0.0924
  688MOL0     C94866  11.668   0.153   2.445 -0.7762 -0.1248  0.7564
  688MOL0     C94867  11.751   0.253   2.530  0.6912 -0.8983 -0.2012
  688MOL0     C94868  11.844   0.334   2.432 -0.0110  0.1309 -0.3299
  688MOL0     C94869  11.969   0.377   2.506  0.3327  0.0137 -0.6465
  688MOL0     C94870  12.031   0.492   2.443 -0.5380 -0.2124 -0.1991
  688MOL0     C94871  12.064   0.595   2.387 -0.5876 -0.4642  0.4694
  688MOL0     C94872  11.429   0.302   2.445  0.6168 -0.0985  0.4578
  688MOL0     C94873  11.343   0.422   2.481 -0.3638  0.0652  0.4438
  688MOL0     C94874  11.241   0.401   2.584  0.2088 -0.0494  0.2896
  688MOL0     H94875  11.063   0.814   2.249 -2.6614  1.9860  0.0249
  688MOL0     H94876  10.915   0.982   2.334 -0.4056 -2.3569 -0.9275
  688MOL0     H94877  10.809   1.156   2.471  1.5800  0.0633 -0.8395
  688MOL0     H94878  10.857   1.219   2.327 -0.6598 -0.0243 -0.0167
  688MOL0     H94879  10.730   1.390   2.446 -0.1592  1.1323 -0.9851
  688MOL0     H94880  10.860   1.388   2.574 -0.3110  2.1412 -0.5496
  688MOL0     H94881  10.882   1.573   2.450 -0.1407 -0.7531  0.8968
  688MOL0     H94882  11.017   1.467   2.399  0.8170 -0.4959 -0.4295
  688MOL0     H94883  10.911   1.408   2.210 -3.6103 -1.8944 -0.8587
  688MOL0     H94884  10.764   1.500   2.237  0.4404  1.0179 -0.7899
  688MOL0     H94885  10.918   1.597   2.069  0.2205 -2.9147  0.8129
  688MOL0     H94886  11.038   1.614   2.203 -0.3675  2.1453  2.6035
  688MOL0     H94887  10.763   1.747   2.189  0.2641  0.0587 -1.6728
  688MOL0     H94888  10.875   1.760   2.321  1.0379  2.3134 -0.5998
  688MOL0     H94889  10.910   1.955   2.168  1.3567 -0.1269  2.6017
  688MOL0     H94890  10.943   1.845   2.034 -1.5541 -1.4599 -0.2139
  688MOL0     H94891  11.082   1.941   2.292  3.1556  0.0521  0.3538
  688MOL0     H94892  11.155   1.793   2.235 -1.7567 -0.9055  1.6986
  688MOL0     H94893  11.192   1.813   1.930  1.3065  0.0518 -0.8731
  688MOL0     H94894  11.405   1.879   1.780 -0.7687 -1.7133  1.0525
  688MOL0     H94895  11.532   1.962   1.870  0.5983  1.7827 -2.5002
  688MOL0     H94896  11.303   2.108   1.729 -0.7567 -4.8000 -0.4129
  688MOL0     H94897  11.433   2.188   1.823  0.0504  1.2456 -1.4506
  688MOL0     H94898  11.599   2.066   1.661 -0.4036  1.2678 -0.0042
  688MOL0     H94899  11.452   2.037   1.555  0.5078  0.2263 -2.4089
  688MOL0     H94900  11.566   2.232   1.478 -1.4882 -1.0663 -0.6111
  688MOL0     H94901  11.424   2.303   1.559  0.6766  2.1947  2.3516
  688MOL0     H94902  11.759   2.448   1.817 -0.6990  0.9021  0.8257
  688MOL0     H94903  11.966   2.727   1.751 -0.4049  3.0020  0.1887
  688MOL0     H94904  11.912   2.619   1.878 -0.1633 -1.0949 -1.6983
  688MOL0     H94905  11.831   2.780   1.847 -0.8336 -0.8325  0.2841
  688MOL0     H94906  11.580   3.089   1.601 -0.3132  0.0580  0.1517
  688MOL0     H94907  11.586   3.321   1.550  3.0050  1.3314  1.5411
  688MOL0     H94908  11.572   3.502   1.395  0.3580 -0.1758  0.5593
  688MOL0     H94909  11.713   3.566   1.494  1.0776  1.2826 -0.5090
  688MOL0     H94910  11.667   3.637   1.207 -2.0379 -1.3546  0.3723
  688MOL0     H94911  11.631   3.736   1.354 -1.7370 -0.5751 -0.5775
  688MOL0     H94912  11.836   3.807   1.227  2.3767  2.0136  1.6393
  688MOL0     H94913  11.915   3.647   1.268  0.8179  0.8736  0.5021
  688MOL0     H94914  11.996   3.810   1.431  1.2515 -4.6595  2.8978
  688MOL0     H94915  11.871   3.709   1.514 -1.3024 -0.3144  0.2390
  688MOL0     H94916  11.895   3.984   1.378 -0.6916 -0.2997  0.3891
  688MOL0     H94917  11.736   3.927   1.371  0.7548 -0.1925 -1.1442
  688MOL0     H94918  11.807   4.087   1.572 -1.6338  0.1515  2.4187
  688MOL0     H94919  11.891   3.947   1.630  1.8080  0.7894 -2.2736
  688MOL0     H94920  11.686   3.829   1.679 -1.5083 -0.3213 -2.2777
  688MOL0     H94921  11.594   3.945   1.575  0.2127  1.6521 -1.0606
  688MOL0     H94922  11.703   3.974   1.847 -0.2136 -1.1063  0.4591
  688MOL0     H94923  11.535   3.976   1.790 -0.4851  0.5300  1.1231
  688MOL0     H94924  11.884   3.234   1.245  0.3171  0.2608 -0.3534
  688MOL0     H94925  11.869   3.011   1.301 -1.8480 -1.5985 -0.1027
  688MOL0     H94926  11.650   2.686   1.388  2.9436 -0.3711 -1.8361
  688MOL0     H94927  11.547   2.471   1.427 -1.3698 -2.0985  2.5237
  688MOL0     H94928  11.262   1.194   2.493 -2.2579  2.4195 -0.3976
  688MOL0     H94929  11.395   1.015   2.432  0.0678 -0.0384 -1.0394
  688MOL0     H94930  11.488   0.643   2.261  1.5393  0.0067 -0.0548
  688MOL0     H94931  11.619   0.430   2.202 -0.3788 -2.0282 -0.2048
  688MOL0     H94932  11.602   0.090   2.504  0.6193  0.2255  2.7822
  688MOL0     H94933  11.733   0.076   2.402 -1.5365 -1.0791  1.2853
  688MOL0     H94934  11.808   0.204   2.609  0.3297 -1.6197 -0.3769
  688MOL0     H94935  11.685   0.322   2.583 -0.7988 -3.8665  2.0739
  688MOL0     H94936  11.896   0.276   2.355  5.4706  3.7428  0.0958
  688MOL0     H94937  11.788   0.414   2.383  1.5274  0.6297 -1.3618
  688MOL0     H94938  12.044   0.297   2.508  3.4607  2.6951  0.9167
  688MOL0     H94939  11.941   0.414   2.605  3.8875 -0.9206  0.9037
  688MOL0     H94940  12.079   0.683   2.328  2.3035 -2.7327 -2.5823
  688MOL0     H94941  11.412   0.206   2.491  1.3384 -0.8737 -0.8484
  688MOL0     H94942  11.233   0.299   2.623  1.9749 -0.1625  0.4421
  688MOL0     H94943  11.265   0.464   2.670 -0.1139 -1.3428  1.3675
  688MOL0     H94944  11.148   0.434   2.536 -0.1561  3.0750  2.8298
  689MOL0     O94945   8.066   3.977   3.852 -0.5885  0.2198  0.3302
  689MOL0     C94946   8.031   4.089   3.809 -0.6978  0.3872 -0.4085
  689MOL0     O94947   7.925   4.166   3.855 -0.4594 -0.6018 -0.5059
  689MOL0     C94948   7.822   4.093   3.903 -0.1609 -0.1059  0.2797
  689MOL0     C94949   7.823   4.026   4.029 -0.6654  0.8017 -0.6021
  689MOL0     C94950   7.711   3.950   4.072  0.2639  0.1694 -0.3835
  689MOL0     C94951   7.595   3.943   3.993  0.3803 -0.6038 -0.0695
  689MOL0     O94952   7.483   3.880   4.040  0.2820 -0.0549 -0.2586
  689MOL0     C94953   7.352   3.898   3.984  0.4572 -1.4042 -0.0667
  689MOL0     C94954   7.240   3.817   4.060  0.2303 -0.3335 -0.2159
  689MOL0     C94955   7.208   3.873   4.198  0.2089 -1.0853 -0.2617
  689MOL0     C94956   7.134   4.009   4.195 -0.3984  0.2367  1.1242
  689MOL0     C94957   7.056   4.048   4.319  0.5453 -0.3342  1.0183
  689MOL0     C94958   7.128   4.063   4.452 -0.0735  0.3537  0.5875
  689MOL0     C94959   7.035   4.126   4.556  0.0277  0.6200 -0.1148
  689MOL0     C94960   7.061   4.081   4.691 -0.0008 -0.0001 -0.6045
  689MOL0     N94961   7.059   4.198   4.787 -0.5503  0.1002  0.4924
  689MOL0     C94962   6.958   4.284   4.808 -0.0587  0.4342 -0.0064
  689MOL0     C94963   7.011   4.372   4.892  0.4775 -0.1114  1.0453
  689MOL0     C94964   6.931   4.487   4.956  0.0914  0.1641 -0.8413
  689MOL0     C94965   6.968   4.502   5.113 -0.0112  0.3630  0.6388
  689MOL0     C94966   6.906   4.628   5.181 -0.0799 -0.5846 -0.1122
  689MOL0     C94967   6.997   4.751   5.182 -0.2325  1.1723  0.4061
  689MOL0     O94968   7.023   4.796   5.047  0.0659  1.2357  0.3157
  689MOL0     C94969   7.137   4.859   5.017  0.4186  0.1670  0.1354
  689MOL0     C94970   7.140   4.914   4.891  0.6879 -0.5373  0.6107
  689MOL0     C94971   7.239   5.005   4.842 -0.3465  0.2136  0.3159
  689MOL0     C94972   7.223   5.056   4.702  0.2798 -1.3418 -0.6068
  689MOL0     C94973   7.350   5.045   4.932 -0.1459 -1.0182  0.3207
  689MOL0     C94974   7.463   5.140   4.894  0.1607 -0.7260 -0.1687
  689MOL0     O94975   7.528   5.211   4.993 -0.3944 -0.1919  0.1164
  689MOL0     C94976   7.640   5.278   4.958  0.2704 -0.2691  0.3907
  689MOL0     C94977   7.740   5.216   4.892  0.3753 -0.1593  0.1298
  689MOL0     C94978   7.861   5.278   4.876 -0.5006  1.1598  0.1436
  689MOL0     C94979   7.887   5.407   4.933 -0.2201 -0.0442  0.1907
  689MOL0     O94980   8.009   5.456   4.913  0.4082 -0.3717 -0.1198
  689MOL0     C94981   8.026   5.598   4.941 -0.6239 -0.6574  0.6614
  689MOL0     C94982   8.176   5.627   4.931 -0.2554 -0.5076 -0.3917
  689MOL0     C94983   8.213   5.753   5.014 -0.0227 -0.7580  0.6567
  689MOL0     C94984   8.189   5.748   5.166  0.1780  0.4678  0.8902
  689MOL0     C94985   8.205   5.885   5.233  0.5148 -0.5667 -0.2410
  689MOL0     C94986   8.163   5.901   5.385  0.0525  0.2754 -0.0149
  689MOL0     C94987   8.174   6.045   5.426  0.5063  0.2056 -0.4375
  689MOL0     C94988   8.081   6.145   5.364 -0.5350  0.4070  1.3119
  689MOL0    Cl94989   7.923   6.131   5.427 -0.0405  0.3833  0.2092
  689MOL0     C94990   7.780   5.473   5.000 -0.2745  0.0356  0.5195
  689MOL0     C94991   7.662   5.404   5.006 -0.2437 -0.2353 -0.4496
  689MOL0     O94992   7.488   5.151   4.767  0.3074 -0.4249 -0.5028
  689MOL0     C94993   7.347   4.999   5.066  0.0721  0.4246 -0.1962
  689MOL0     C94994   7.241   4.906   5.107 -0.3851 -0.0698  1.0511
  689MOL0     N94995   7.143   4.356   4.908  1.2270 -0.0627  0.2691
  689MOL0     N94996   7.172   4.241   4.849 -0.1575 -0.2592 -0.4853
  689MOL0     C94997   7.597   4.019   3.872  0.4358  0.0877  0.1758
  689MOL0     C94998   7.705   4.102   3.831 -0.4227 -0.5888  0.0732
  689MOL0     C94999   8.121   4.143   3.699 -0.9100  0.0303 -0.1050
  689MOL0     C95000   8.109   4.280   3.681  1.4243 -0.5963 -0.2529
  689MOL0     C95001   8.163   4.344   3.566 -0.2961 -0.9432 -0.7815
  689MOL0     C95002   8.237   4.267   3.481 -0.7299 -0.1778 -0.7682
  689MOL0     O95003   8.303   4.335   3.380  0.0261  0.1321  0.6899
  689MOL0     C95004   8.243   4.317   3.250 -0.3094  0.2098 -0.4569
  689MOL0     C95005   8.360   4.312   3.142 -0.2161  0.7522  0.7754
  689MOL0     C95006   8.466   4.420   3.137  0.1815 -0.2316 -0.6021
  689MOL0     C95007   8.408   4.561   3.124  0.1341 -0.1584  0.2550
  689MOL0     C95008   8.498   4.672   3.131 -0.2130  0.3411  0.1353
  689MOL0     C95009   8.574   4.767   3.149  0.1138 -0.9670  0.1315
  689MOL0     C95010   8.266   4.133   3.507  0.1456  0.5311  0.0222
  689MOL0     C95011   8.202   4.069   3.610 -0.1486 -0.1197  0.1208
  689MOL0     C95012   8.215   3.918   3.598  0.2784  0.3510 -0.1231
  689MOL0     H95013   7.914   4.035   4.088  0.4768 -2.2094 -1.7092
  689MOL0     H95014   7.712   3.875   4.151  1.0599 -1.7279 -2.1172
  689MOL0     H95015   7.360   3.874   3.877 -1.3724  0.7896 -0.7724
  689MOL0     H95016   7.318   4.001   3.971 -0.6009 -1.6592  0.5598
  689MOL0     H95017   7.145   3.827   4.006  0.9200  1.9301 -1.1282
  689MOL0     H95018   7.269   3.712   4.054  1.6145  0.0959 -4.4671
  689MOL0     H95019   7.145   3.795   4.241 -0.0659 -0.8968 -0.3233
  689MOL0     H95020   7.305   3.874   4.248 -1.0540 -1.5139  2.3698
  689MOL0     H95021   7.203   4.092   4.177 -0.7532  0.3675  0.2960
  689MOL0     H95022   7.072   4.016   4.105  0.1819  0.3982  0.7261
  689MOL0     H95023   6.977   3.975   4.336 -0.2970 -0.3903 -2.2954
  689MOL0     H95024   7.023   4.151   4.302  0.7642 -0.5218 -0.7501
  689MOL0     H95025   7.164   3.963   4.478  3.0779  1.0114 -0.6960
  689MOL0     H95026   7.216   4.125   4.432 -0.6990  1.3692  0.8827
  689MOL0     H95027   6.930   4.102   4.533  0.0300 -1.5862  1.7850
  689MOL0     H95028   7.049   4.233   4.542  5.0531  0.2226  0.1344
  689MOL0     H95029   6.983   4.007   4.710  1.4325 -0.9482  2.1895
  689MOL0     H95030   7.161   4.038   4.700  0.1646  0.7111  1.3491
  689MOL0     H95031   6.858   4.275   4.768  0.6522 -1.2002 -1.5515
  689MOL0     H95032   6.823   4.473   4.948  0.1625 -1.4851  0.5495
  689MOL0     H95033   6.947   4.579   4.898 -2.3257  0.7840 -0.6073
  689MOL0     H95034   6.924   4.408   5.147  2.0443 -1.7041 -1.9700
  689MOL0     H95035   7.077   4.499   5.120  0.4466  2.1980 -3.0138
  689MOL0     H95036   6.811   4.652   5.134  0.9096 -0.5813 -2.2362
  689MOL0     H95037   6.879   4.615   5.287 -4.1390 -2.5774 -1.2096
  689MOL0     H95038   6.937   4.828   5.230  0.7135  0.9936  1.9608
  689MOL0     H95039   7.091   4.739   5.236 -0.6029 -1.0509  0.6550
  689MOL0     H95040   7.058   4.872   4.833 -1.9292  0.1343  3.5403
  689MOL0     H95041   7.211   5.164   4.712  1.9264 -1.3251  2.7246
  689MOL0     H95042   7.142   5.000   4.654 -1.1311 -1.3447  1.6604
  689MOL0     H95043   7.310   5.042   4.637 -0.9681 -1.7505 -2.2493
  689MOL0     H95044   7.733   5.115   4.855  1.6930 -0.0887 -0.3836
  689MOL0     H95045   7.942   5.228   4.823 -0.8138  1.2147 -0.3852
  689MOL0     H95046   7.977   5.669   4.875  1.3697  0.4847  0.3160
  689MOL0     H95047   7.986   5.617   5.041 -1.0339 -0.7438  0.5150
  689MOL0     H95048   8.231   5.546   4.977  2.9557  1.7002 -0.0240
  689MOL0     H95049   8.220   5.639   4.831  3.1827  2.3957  1.2560
  689MOL0     H95050   8.175   5.846   4.972  0.1117 -1.8537 -2.1528
  689MOL0     H95051   8.321   5.765   5.006 -0.3918  4.0217  0.4305
  689MOL0     H95052   8.262   5.680   5.212 -0.0361 -0.2508  0.1851
  689MOL0     H95053   8.088   5.707   5.178  0.0192 -0.7302 -3.1578
  689MOL0     H95054   8.307   5.923   5.219 -0.0845  0.6732 -1.5795
  689MOL0     H95055   8.142   5.950   5.171  2.5670  0.3904 -1.4276
  689MOL0     H95056   8.231   5.845   5.450 -0.7420  1.0985  1.5942
  689MOL0     H95057   8.062   5.866   5.409 -0.1753  2.3563  2.4826
  689MOL0     H95058   8.283   6.058   5.415  0.2039  1.6472 -2.1276
  689MOL0     H95059   8.144   6.051   5.531  0.4642 -0.9683 -0.3689
  689MOL0     H95060   8.069   6.119   5.258 -1.7988  0.7080  1.3713
  689MOL0     H95061   8.119   6.247   5.377  1.4334 -0.2751  1.2644
  689MOL0     H95062   7.792   5.572   5.044  0.9898 -0.1312  0.5776
  689MOL0     H95063   7.582   5.466   5.044 -0.1427  1.5197 -2.8787
  689MOL0     H95064   7.423   5.030   5.137  3.8229 -3.3062 -2.2004
  689MOL0     H95065   7.253   4.867   5.208  0.6323  1.6710  1.6564
  689MOL0     H95066   7.504   4.024   3.816  0.0903  0.0912  0.7465
  689MOL0     H95067   7.691   4.157   3.738 -1.9673  0.0310  0.6366
  689MOL0     H95068   8.047   4.344   3.743  1.6094  0.8877 -1.5367
  689MOL0     H95069   8.144   4.448   3.541 -2.4624 -1.5064 -1.6782
  689MOL0     H95070   8.179   4.228   3.248 -0.1530  0.0683  0.6143
  689MOL0     H95071   8.168   4.389   3.217 -1.1420 -1.0366 -1.3872
  689MOL0     H95072   8.316   4.308   3.042  0.8620  1.8899  0.2382
  689MOL0     H95073   8.409   4.215   3.160 -1.6234  0.5202  4.2510
  689MOL0     H95074   8.532   4.428   3.223  0.4796  0.8477 -0.9104
  689MOL0     H95075   8.537   4.407   3.055 -0.1156  1.9971 -1.3073
  689MOL0     H95076   8.321   4.580   3.187  1.0640  4.6927  0.4575
  689MOL0     H95077   8.372   4.557   3.020 -0.1567  4.0762  0.0282
  689MOL0     H95078   8.624   4.858   3.172 -2.5117  0.3290  1.2028
  689MOL0     H95079   8.328   4.086   3.431 -2.5448  0.4008 -2.2980
  689MOL0     H95080   8.249   3.894   3.497  0.7636  1.7779 -0.3213
  689MOL0     H95081   8.286   3.887   3.675 -2.2024  1.8981  3.0165
  689MOL0     H95082   8.124   3.867   3.630 -0.0341  0.0457 -1.4243
  690MOL0     O95083  11.265   0.333  10.113 -0.4675 -1.4706 -0.6594
  690MOL0     C95084  11.203   0.440  10.119  0.6509 -0.7893 -0.3693
  690MOL0     O95085  11.234   0.549  10.196 -0.4812 -0.2577 -0.1487
  690MOL0     C95086  11.340   0.526  10.286 -0.3081  0.2087  0.0326
  690MOL0     C95087  11.475   0.500  10.246  0.0621  0.1717  0.4153
  690MOL0     C95088  11.577   0.485  10.339  0.2572 -0.6452 -0.0953
  690MOL0     C95089  11.537   0.484  10.468 -0.1311  0.0474 -0.9788
  690MOL0     O95090  11.630   0.451  10.567  0.5097 -0.1251  0.9407
  690MOL0     C95091  11.708   0.328  10.538 -0.5629  0.6241 -0.5595
  690MOL0     C95092  11.794   0.292  10.660 -0.4799  0.0706 -0.4362
  690MOL0     C95093  11.870   0.415  10.721  0.2735  0.1454  0.2839
  690MOL0     C95094  11.796   0.456  10.849  0.5010 -0.2423 -0.0474
  690MOL0     C95095  11.843   0.590  10.910 -0.2058  0.2373 -1.1767
  690MOL0     C95096  11.787   0.628  11.043  0.4992 -0.1444  0.8394
  690MOL0     C95097  11.855   0.555  11.156  0.1858  0.5070  0.6151
  690MOL0     C95098  11.837   0.643  11.281  0.2474 -0.1780  0.1890
  690MOL0     N95099  11.913   0.574  11.384  0.0609  0.5396 -0.0052
  690MOL0     C95100  12.027   0.623  11.440 -0.7587  0.7323  0.7136
  690MOL0     C95101  12.056   0.554  11.548  0.6765 -0.2176 -0.1965
  690MOL0     C95102  12.154   0.579  11.656  0.5808 -0.4159 -0.1892
  690MOL0     C95103  12.296   0.550  11.602  0.5819  0.4061 -0.6063
  690MOL0     C95104  12.423   0.572  11.686  0.0928 -0.2005  0.2411
  690MOL0     C95105  12.408   0.655  11.813  0.0456  0.6412  0.1531
  690MOL0     O95106  12.534   0.660  11.881  0.7133  0.1305 -0.6301
  690MOL0     C95107  12.536   0.740  11.995  0.6209  0.2841 -0.1675
  690MOL0     C95108  12.430   0.816  12.045  0.1671 -0.1858  0.2302
  690MOL0     C95109  12.436   0.908  12.153  0.0922  0.0622 -0.5382
  690MOL0     C95110  12.307   0.987  12.191  0.6099  0.7539  0.4678
  690MOL0     C95111  12.563   0.921  12.214  0.2339 -0.5006  0.6163
  690MOL0     C95112  12.593   1.027  12.313  0.3682  0.7601 -0.0430
  690MOL0     O95113  12.703   1.000  12.391 -0.1770 -0.3974  0.8360
  690MOL0     C95114  12.800   1.102  12.424  0.1113  0.5994 -0.4242
  690MOL0     C95115  12.933   1.070  12.390  0.2661  0.5040  0.8897
  690MOL0     C95116  13.026   1.170  12.383  0.9116 -0.6709 -1.2848
  690MOL0     C95117  13.005   1.300  12.423  0.5216  1.1204  0.4920
  690MOL0     O95118  13.097   1.398  12.413 -0.4503  0.6052  0.3440
  690MOL0     C95119  13.229   1.342  12.415 -0.2989 -0.5752 -0.7222
  690MOL0     C95120  13.329   1.458  12.450  1.1380 -0.4194 -0.6247
  690MOL0     C95121  13.369   1.478  12.590 -0.8156  0.4559 -0.2414
  690MOL0     C95122  13.246   1.503  12.696 -0.6680 -0.1588 -0.0361
  690MOL0     C95123  13.198   1.643  12.661  0.6776 -1.1176  0.5515
  690MOL0     C95124  13.071   1.678  12.740 -0.6975 -0.7783 -1.1280
  690MOL0     C95125  13.030   1.827  12.740  0.5817 -1.0740 -0.3177
  690MOL0     C95126  12.886   1.847  12.721 -0.7177 -0.8351  0.1252
  690MOL0    Cl95127  12.792   1.754  12.847  0.3200 -0.8180 -0.1373
  690MOL0     C95128  12.875   1.328  12.474  0.2818 -0.5207 -0.4659
  690MOL0     C95129  12.775   1.229  12.480  0.4430  0.3418 -0.9914
  690MOL0     O95130  12.550   1.143  12.288  0.2277  0.1854  0.3536
  690MOL0     C95131  12.673   0.843  12.165  1.4870 -0.5171 -0.6333
  690MOL0     C95132  12.650   0.758  12.066 -0.3351  1.2508  0.0024
  690MOL0     N95133  11.962   0.463  11.565  0.9670  0.8231  0.1526
  690MOL0     N95134  11.877   0.473  11.468 -0.2779  0.6528  0.0695
  690MOL0     C95135  11.410   0.510  10.510  0.6435 -0.0275 -0.3921
  690MOL0     C95136  11.306   0.529  10.421 -1.0315 -0.0729  0.7661
  690MOL0     C95137  11.075   0.452  10.050 -0.5971 -0.3633 -0.3388
  690MOL0     C95138  10.978   0.534  10.099  0.1537 -0.1929  0.3918
  690MOL0     C95139  10.854   0.536  10.041 -0.6928  0.5554  0.9425
  690MOL0     C95140  10.824   0.464   9.928 -0.0884  0.4632 -0.5900
  690MOL0     O95141  10.702   0.466   9.873  0.2732 -0.6019  0.3007
  690MOL0     C95142  10.591   0.554   9.918  0.3782 -0.1398 -0.3888
  690MOL0     C95143  10.523   0.477  10.033 -0.6404 -0.7961 -0.3344
  690MOL0     C95144  10.437   0.355   9.978  0.2209  0.1232  0.3045
  690MOL0     C95145  10.509   0.223   9.993 -0.8429 -0.5511 -0.0515
  690MOL0     C95146  10.532   0.186  10.135  0.1005  0.2036  0.3367
  690MOL0     C95147  10.555   0.152  10.248  0.2423  1.0387  0.3759
  690MOL0     C95148  10.925   0.372   9.882  0.3320 -0.0653  0.3859
  690MOL0     C95149  11.054   0.373   9.939  0.8375  0.3836  0.2209
  690MOL0     C95150  11.148   0.281   9.857  0.6869 -0.5372  0.2353
  690MOL0     H95151  11.502   0.513  10.142 -1.7054  3.3136  0.2143
  690MOL0     H95152  11.682   0.467  10.314  0.2384 -0.5732 -0.2301
  690MOL0     H95153  11.778   0.362  10.461  1.0450 -0.9400  0.1435
  690MOL0     H95154  11.648   0.239  10.517  2.0516 -1.1631 -0.9754
  690MOL0     H95155  11.730   0.244  10.734  1.7910 -0.7409  1.1265
  690MOL0     H95156  11.876   0.228  10.625  0.7114  1.9049 -1.1740
  690MOL0     H95157  11.969   0.377  10.748 -0.5558 -1.9387  0.6194
  690MOL0     H95158  11.892   0.500  10.656  3.0097 -1.0419 -0.4737
  690MOL0     H95159  11.691   0.459  10.819  0.0135 -2.3709  1.2264
  690MOL0     H95160  11.817   0.369  10.912  2.1833 -0.5902 -1.0260
  690MOL0     H95161  11.798   0.666  10.845 -1.3598  1.3954  0.8415
  690MOL0     H95162  11.952   0.599  10.905  0.0866 -1.2039  1.1488
  690MOL0     H95163  11.792   0.737  11.043  0.5179 -0.0867 -1.6130
  690MOL0     H95164  11.681   0.604  11.041  0.7257 -1.2470  1.0127
  690MOL0     H95165  11.960   0.540  11.131  0.5942  3.0948  0.4714
  690MOL0     H95166  11.814   0.454  11.168 -0.4623  0.6533 -0.2312
  690MOL0     H95167  11.871   0.745  11.259 -1.9111  0.0280 -2.6543
  690MOL0     H95168  11.729   0.648  11.298  0.1196  0.9167 -0.8097
  690MOL0     H95169  12.076   0.714  11.406 -1.0214  1.7277  2.7939
  690MOL0     H95170  12.134   0.516  11.743  3.1744 -2.1715 -0.7471
  690MOL0     H95171  12.139   0.684  11.686 -1.2121  0.4738 -3.6502
  690MOL0     H95172  12.291   0.444  11.576  0.7386  0.6381 -1.6075
  690MOL0     H95173  12.304   0.604  11.508 -1.1399  1.7530 -0.0469
  690MOL0     H95174  12.473   0.478  11.708  1.0242  0.2449  0.1031
  690MOL0     H95175  12.492   0.628  11.621 -1.8309  0.5011 -1.3017
  690MOL0     H95176  12.361   0.746  11.774 -1.6055  0.1784  0.9555
  690MOL0     H95177  12.334   0.606  11.877 -0.7956  0.8347 -0.6394
  690MOL0     H95178  12.340   0.805  11.984  0.2529  0.0058  0.0653
  690MOL0     H95179  12.323   1.094  12.201 -0.5749  0.8957  1.0818
  690MOL0     H95180  12.251   0.934  12.268 -2.5150  0.2654 -1.9277
  690MOL0     H95181  12.242   0.981  12.103 -0.5369  2.6493  1.1179
  690MOL0     H95182  12.956   0.973  12.347  0.1044  0.3614  1.1221
  690MOL0     H95183  13.122   1.131  12.349  1.1008 -0.8119 -0.6026
  690MOL0     H95184  13.240   1.261  12.488 -0.3109 -2.1376 -2.3928
  690MOL0     H95185  13.261   1.307  12.316  1.5566 -0.0491 -0.3485
  690MOL0     H95186  13.421   1.454  12.391  3.2164  2.2839  2.0833
  690MOL0     H95187  13.285   1.554  12.421 -0.6329 -0.6858  0.9919
  690MOL0     H95188  13.437   1.564  12.587  1.2715 -0.9245  3.0164
  690MOL0     H95189  13.440   1.399  12.615  0.5800  0.9891 -2.1806
  690MOL0     H95190  13.289   1.501  12.796  1.0985 -1.9043 -0.7581
  690MOL0     H95191  13.165   1.430  12.683 -2.5604  1.4869  1.7493
  690MOL0     H95192  13.272   1.719  12.689 -1.0612  0.4932  1.0049
  690MOL0     H95193  13.175   1.660  12.556 -0.4549  0.8990  1.0620
  690MOL0     H95194  13.103   1.660  12.843  0.7907  0.9929 -1.2243
  690MOL0     H95195  12.989   1.617  12.703  0.3556 -1.1934 -2.8794
  690MOL0     H95196  13.071   1.872  12.649  0.7406 -3.5438 -1.5285
  690MOL0     H95197  13.056   1.873  12.836  0.3294 -0.3698 -0.5791
  690MOL0     H95198  12.858   1.813  12.621 -1.6627 -1.4860  0.5909
  690MOL0     H95199  12.859   1.953  12.719  1.0936 -0.3451 -1.7645
  690MOL0     H95200  12.870   1.434  12.496  0.7140  0.4762 -4.3667
  690MOL0     H95201  12.677   1.257  12.518  1.1496  2.2087 -0.4575
  690MOL0     H95202  12.774   0.841  12.203  2.0844  2.3349 -1.8370
  690MOL0     H95203  12.735   0.697  12.039 -0.7260  0.4451  0.5723
  690MOL0     H95204  11.386   0.515  10.616 -0.4079 -1.8607 -0.4979
  690MOL0     H95205  11.203   0.555  10.440 -2.3081 -4.1047  0.2135
  690MOL0     H95206  11.003   0.599  10.182  0.1587 -0.8230  0.8848
  690MOL0     H95207  10.780   0.601  10.087  0.2693  2.0354  0.4481
  690MOL0     H95208  10.635   0.646   9.958 -0.4365 -0.5448  1.5817
  690MOL0     H95209  10.515   0.582   9.845 -2.8715 -0.4081  2.5742
  690MOL0     H95210  10.446   0.543  10.076  0.0654 -1.8330  2.6942
  690MOL0     H95211  10.602   0.456  10.105  0.8386  2.1932 -0.9186
  690MOL0     H95212  10.346   0.340  10.038  0.8455 -1.6897  0.8409
  690MOL0     H95213  10.401   0.372   9.876 -4.1266  1.4872  1.8192
  690MOL0     H95214  10.610   0.227   9.951  0.7243  0.2623  3.4282
  690MOL0     H95215  10.447   0.147   9.946 -3.8985  0.8524  1.4219
  690MOL0     H95216  10.587   0.145  10.350  3.2289 -0.6876 -0.5344
  690MOL0     H95217  10.898   0.316   9.793  1.6309  0.5765 -0.4303
  690MOL0     H95218  11.147   0.178   9.896 -0.0372 -0.4157  0.5363
  690MOL0     H95219  11.135   0.271   9.749 -3.7192 -1.1201  0.6444
  690MOL0     H95220  11.248   0.323   9.871  0.3119  1.0320 -1.4947
  691MOL0     O95221  11.136   4.356   7.381 -0.0400  0.1976  0.3930
  691MOL0     C95222  11.150   4.472   7.332  0.0078  0.2165  0.2923
  691MOL0     O95223  11.238   4.566   7.388  0.4969  0.2163 -0.0870
  691MOL0     C95224  11.264   4.567   7.524  0.5255 -0.8334 -0.5806
  691MOL0     C95225  11.252   4.683   7.604  1.0665 -0.1701 -1.2035
  691MOL0     C95226  11.271   4.676   7.743 -0.0324  0.4960  0.6825
  691MOL0     C95227  11.296   4.545   7.807  0.2232  0.4452 -0.6085
  691MOL0     O95228  11.322   4.535   7.946  0.8107  0.2510  0.5709
  691MOL0     C95229  11.281   4.411   8.014 -0.5441 -0.2223 -0.4325
  691MOL0     C95230  11.294   4.423   8.162  0.4132  0.1892  0.3960
  691MOL0     C95231  11.431   4.469   8.210  0.4588  0.0426 -0.5711
  691MOL0     C95232  11.530   4.348   8.227 -0.3332  0.2030 -0.2043
  691MOL0     C95233  11.670   4.408   8.265 -1.2689 -0.4589  0.0840
  691MOL0     C95234  11.776   4.301   8.276  0.0009  0.5549  0.6711
  691MOL0     C95235  11.913   4.366   8.267 -0.1649 -0.3742 -0.6833
  691MOL0     C95236  12.031   4.273   8.271 -0.3339 -0.2345 -0.3389
  691MOL0     N95237  12.123   4.269   8.159  0.3120  0.0252  0.6685
  691MOL0     C95238  12.093   4.304   8.031 -0.1791  0.4764 -0.5560
  691MOL0     C95239  12.211   4.270   7.970  1.1966  0.6226 -0.5420
  691MOL0     C95240  12.219   4.271   7.822  0.0658  0.6650  0.6014
  691MOL0     C95241  12.156   4.138   7.766 -0.0232  0.0120 -1.5112
  691MOL0     C95242  12.149   4.121   7.618 -0.3106 -0.0626 -0.2604
  691MOL0     C95243  12.029   4.187   7.564  0.0272  0.0368 -0.6704
  691MOL0     O95244  12.025   4.196   7.428 -0.3858  0.3126  0.0733
  691MOL0     C95245  11.906   4.225   7.361 -1.0068 -0.0773 -0.0593
  691MOL0     C95246  11.792   4.272   7.412  0.3569  0.0526  1.0137
  691MOL0     C95247  11.678   4.294   7.320 -0.0768 -0.0146  0.1256
  691MOL0     C95248  11.556   4.357   7.382 -0.2927  0.6290  0.1597
  691MOL0     C95249  11.684   4.267   7.185 -1.0777  0.9271  0.2556
  691MOL0     C95250  11.578   4.279   7.083 -0.4194  0.4553 -0.1226
  691MOL0     O95251  11.446   4.278   7.126  0.4186 -0.5223  0.3668
  691MOL0     C95252  11.351   4.254   7.031 -0.5223 -0.8905 -0.9455
  691MOL0     C95253  11.309   4.122   7.012 -0.6829  0.1309  0.3877
  691MOL0     C95254  11.196   4.087   6.935  0.4684  1.3211 -0.2153
  691MOL0     C95255  11.128   4.185   6.863 -0.5072 -0.3494 -1.3267
  691MOL0     O95256  11.027   4.144   6.772 -0.1045 -0.1899 -0.3468
  691MOL0     C95257  10.929   4.062   6.826  0.1614  0.1069 -0.5507
  691MOL0     C95258  10.812   4.152   6.877 -0.2121 -0.4596 -0.5234
  691MOL0     C95259  10.719   4.226   6.778  0.3858 -0.2260  0.6702
  691MOL0     C95260  10.775   4.339   6.682 -0.4462  0.0885  0.8503
  691MOL0     C95261  10.674   4.399   6.594 -0.0845  0.5111 -0.2616
  691MOL0     C95262  10.718   4.491   6.490  0.6958  0.2668  0.7683
  691MOL0     C95263  10.606   4.562   6.407 -0.1627 -0.3039  0.2744
  691MOL0     C95264  10.674   4.624   6.290  0.3993 -0.2271  0.2135
  691MOL0    Cl95265  10.744   4.787   6.334  0.1185 -0.3715 -0.1367
  691MOL0     C95266  11.166   4.324   6.885 -0.0469  0.8604 -0.6184
  691MOL0     C95267  11.284   4.349   6.960 -0.0961 -1.1569 -0.1519
  691MOL0     O95268  11.605   4.270   6.963 -0.3297 -0.0226 -0.2533
  691MOL0     C95269  11.804   4.221   7.138  0.3802 -0.6484 -0.1135
  691MOL0     C95270  11.909   4.199   7.224 -0.5832 -0.5140 -0.3170
  691MOL0     N95271  12.306   4.232   8.058 -0.0613  0.1159  0.3732
  691MOL0     N95272  12.259   4.235   8.175 -0.3137  0.4140  0.8960
  691MOL0     C95273  11.325   4.435   7.722  0.0762 -0.2786 -0.3649
  691MOL0     C95274  11.307   4.450   7.582 -0.5006  1.1603  0.1099
  691MOL0     C95275  11.077   4.501   7.207 -0.2266  0.0551 -0.2317
  691MOL0     C95276  10.963   4.427   7.175  0.3682 -0.4013 -0.8507
  691MOL0     C95277  10.874   4.459   7.070 -0.8761 -0.4181 -1.3228
  691MOL0     C95278  10.898   4.575   6.995 -0.3898  0.9634 -0.5906
  691MOL0     O95279  10.811   4.602   6.896  0.0794 -0.3802 -0.2244
  691MOL0     C95280  10.770   4.736   6.897  0.5350 -0.1936 -0.0934
  691MOL0     C95281  10.722   4.770   6.754  0.2895  0.0194 -0.1922
  691MOL0     C95282  10.674   4.908   6.748  0.2223 -1.1148 -0.1019
  691MOL0     C95283  10.784   5.018   6.788 -1.0513 -0.0957  0.6312
  691MOL0     C95284  10.906   4.996   6.711  0.5665  0.1733 -0.5791
  691MOL0     C95285  10.989   4.964   6.630 -0.9434 -0.2587  0.2917
  691MOL0     C95286  11.023   4.647   7.022  0.8324  0.5162 -0.3172
  691MOL0     C95287  11.110   4.613   7.120 -1.4617  0.6556 -0.3879
  691MOL0     C95288  11.240   4.693   7.131  0.8535  0.0048  0.0718
  691MOL0     H95289  11.223   4.780   7.565 -1.8560  0.5071  2.1837
  691MOL0     H95290  11.263   4.767   7.802 -1.0274  2.5040 -2.3563
  691MOL0     H95291  11.349   4.332   7.981  1.7348 -0.0180  3.1541
  691MOL0     H95292  11.176   4.389   7.996 -0.7792  0.3093  0.2218
  691MOL0     H95293  11.219   4.494   8.197  0.5291  0.7537 -0.4642
  691MOL0     H95294  11.267   4.325   8.203 -2.3772  0.4919 -0.5361
  691MOL0     H95295  11.474   4.544   8.144 -1.9279  0.6418 -1.5675
  691MOL0     H95296  11.400   4.518   8.304  0.8346  0.2008 -0.5271
  691MOL0     H95297  11.503   4.282   8.310 -1.0265 -0.7036 -1.1212
  691MOL0     H95298  11.518   4.298   8.130  0.2490 -2.5609  1.0468
  691MOL0     H95299  11.656   4.454   8.364 -2.3040  0.0619 -0.2818
  691MOL0     H95300  11.712   4.484   8.199  0.7614  0.5629  2.3679
  691MOL0     H95301  11.777   4.256   8.376 -1.5187  1.6336  1.1952
  691MOL0     H95302  11.763   4.231   8.194  0.4594 -0.2285  1.2503
  691MOL0     H95303  11.916   4.429   8.357 -3.3107  2.7462 -2.4987
  691MOL0     H95304  11.916   4.426   8.176 -1.0346 -0.9704 -1.1246
  691MOL0     H95305  12.096   4.304   8.353  2.0728 -0.1768 -2.1426
  691MOL0     H95306  12.007   4.168   8.292  1.5351 -0.9691 -1.6037
  691MOL0     H95307  11.999   4.346   7.998 -1.7283 -1.5411  1.0698
  691MOL0     H95308  12.323   4.275   7.789  0.2600  1.1946  1.2329
  691MOL0     H95309  12.160   4.349   7.772  0.4829 -0.4545 -1.7677
  691MOL0     H95310  12.217   4.053   7.799 -0.7653 -1.4220 -3.5952
  691MOL0     H95311  12.059   4.112   7.811  0.5903 -0.4004 -0.3940
  691MOL0     H95312  12.244   4.152   7.575 -0.0886  2.5106  1.8402
  691MOL0     H95313  12.134   4.015   7.596  1.8941 -0.3195 -0.6935
  691MOL0     H95314  11.939   4.145   7.610  1.3841 -0.3923  1.7888
  691MOL0     H95315  12.036   4.290   7.600  0.5351 -0.4695  0.7481
  691MOL0     H95316  11.777   4.286   7.519 -0.2780  0.2721  0.8987
  691MOL0     H95317  11.469   4.290   7.379 -1.1959  1.7480  0.7370
  691MOL0     H95318  11.515   4.440   7.324 -2.6743  0.0113  0.8626
  691MOL0     H95319  11.571   4.394   7.484 -0.8251  0.0428  0.4628
  691MOL0     H95320  11.362   4.039   7.059  3.0682  1.8718 -0.4111
  691MOL0     H95321  11.170   3.982   6.935 -1.6490  1.7649 -2.3317
  691MOL0     H95322  10.876   3.999   6.754 -2.7473  0.5975  1.0413
  691MOL0     H95323  10.966   4.007   6.913 -2.1889  0.5623  0.8046
  691MOL0     H95324  10.760   4.088   6.948  0.0099 -0.9767 -0.8227
  691MOL0     H95325  10.865   4.233   6.929  0.3016 -1.5951  0.7783
  691MOL0     H95326  10.634   4.276   6.824  1.2428  1.1563  0.8140
  691MOL0     H95327  10.681   4.145   6.715 -2.1618  1.2649  0.1612
  691MOL0     H95328  10.841   4.282   6.616 -3.1820  0.1980 -2.1809
  691MOL0     H95329  10.830   4.410   6.744  1.0606 -1.3631  1.2655
  691MOL0     H95330  10.598   4.328   6.560 -3.6002  3.8493 -0.1675
  691MOL0     H95331  10.620   4.464   6.664  1.6683 -0.5277  2.1854
  691MOL0     H95332  10.792   4.436   6.430  0.0131 -2.0614  1.9576
  691MOL0     H95333  10.765   4.577   6.539  1.2583 -0.6165  1.8092
  691MOL0     H95334  10.563   4.645   6.464  2.6718  2.3437 -1.1254
  691MOL0     H95335  10.528   4.488   6.386  1.4906 -1.2370 -3.2738
  691MOL0     H95336  10.598   4.627   6.211 -1.3683  0.3456  1.8531
  691MOL0     H95337  10.753   4.555   6.257  0.3961 -1.4457  2.5312
  691MOL0     H95338  11.114   4.399   6.827  0.8597  1.5012 -0.6262
  691MOL0     H95339  11.297   4.456   6.974  0.5325 -0.9929 -1.8290
  691MOL0     H95340  11.822   4.200   7.033 -0.7405 -0.8544 -0.2724
  691MOL0     H95341  12.003   4.158   7.186  0.0707  1.2964 -0.7631
  691MOL0     H95342  11.369   4.345   7.764 -0.2583  0.1662  0.9923
  691MOL0     H95343  11.306   4.357   7.526 -1.2061  1.0787  0.2411
  691MOL0     H95344  10.930   4.342   7.233 -4.6591 -0.7699 -3.7399
  691MOL0     H95345  10.783   4.402   7.055 -1.2043  0.0167 -1.0300
  691MOL0     H95346  10.692   4.743   6.974 -0.1379 -1.5953 -0.6136
  691MOL0     H95347  10.838   4.816   6.927  1.2199 -0.1971 -1.5477
  691MOL0     H95348  10.640   4.699   6.738  1.9506 -1.8780 -0.8079
  691MOL0     H95349  10.801   4.745   6.681  2.8821  2.0943  1.7129
  691MOL0     H95350  10.634   4.935   6.650 -1.5663 -1.9194  0.3749
  691MOL0     H95351  10.590   4.915   6.817  1.3874  2.9448  1.1866
  691MOL0     H95352  10.807   5.018   6.895  1.0143 -0.8169  0.2405
  691MOL0     H95353  10.745   5.118   6.765  0.8052  0.1282 -2.0084
  691MOL0     H95354  11.074   4.952   6.567  1.2258  5.8175  1.4054
  691MOL0     H95355  11.043   4.731   6.956  1.3778  1.4849  1.0110
  691MOL0     H95356  11.242   4.769   7.209  1.4933 -0.9970  1.0808
  691MOL0     H95357  11.322   4.623   7.154 -0.3164 -0.7988  2.0549
  691MOL0     H95358  11.258   4.749   7.039  2.1841  0.5407  0.6366
  692MOL0     O95359   2.287   7.372   5.480 -0.2032  0.1399 -0.3860
  692MOL0     C95360   2.255   7.262   5.521 -0.0394  0.3701  0.5907
  692MOL0     O95361   2.326   7.141   5.514 -0.2940  0.0768  0.0564
  692MOL0     C95362   2.447   7.164   5.456 -0.2963 -0.2994 -0.0142
  692MOL0     C95363   2.488   7.097   5.346  0.7185 -0.4638 -0.3675
  692MOL0     C95364   2.622   7.106   5.306 -0.0298  1.0484  0.0489
  692MOL0     C95365   2.710   7.182   5.377  0.5241 -0.9104  0.6291
  692MOL0     O95366   2.838   7.191   5.349  0.4075 -0.1036  0.0462
  692MOL0     C95367   2.884   7.153   5.222 -0.1830  0.7881  0.0582
  692MOL0     C95368   3.020   7.221   5.195  0.0861  0.1107  0.3304
  692MOL0     C95369   3.142   7.176   5.279  0.5932  0.0071  0.2986
  692MOL0     C95370   3.167   7.027   5.283 -0.0073  0.4195  0.0558
  692MOL0     C95371   3.304   6.997   5.328  0.4888 -0.7103  0.6023
  692MOL0     C95372   3.335   6.845   5.304  0.4373  0.7449 -0.8005
  692MOL0     C95373   3.483   6.806   5.311  0.0679  0.4563 -0.2026
  692MOL0     C95374   3.571   6.807   5.187  0.2382  0.6938  0.6626
  692MOL0     N95375   3.537   6.719   5.078 -0.6175  0.0283 -0.1940
  692MOL0     C95376   3.472   6.597   5.086  0.2293 -0.1845 -0.2133
  692MOL0     C95377   3.441   6.577   4.955 -0.8203 -0.0031  0.8497
  692MOL0     C95378   3.398   6.440   4.897  0.1146 -0.2459 -0.2506
  692MOL0     C95379   3.244   6.421   4.916  0.0169 -0.4067  0.0481
  692MOL0     C95380   3.169   6.512   4.808 -0.6942 -0.1042  0.1919
  692MOL0     C95381   3.034   6.563   4.847 -0.1952 -0.6935 -0.0577
  692MOL0     O95382   3.031   6.663   4.950 -0.7236  0.0273  0.5060
  692MOL0     C95383   2.911   6.677   5.015  0.4594 -0.5970 -0.0950
  692MOL0     C95384   2.798   6.743   4.958  0.2701  0.0775  0.0769
  692MOL0     C95385   2.686   6.769   5.036 -0.5179  1.1187  0.5299
  692MOL0     C95386   2.569   6.840   4.963 -0.4684 -0.0126 -0.1991
  692MOL0     C95387   2.688   6.723   5.170  0.5194  0.2387  0.3562
  692MOL0     C95388   2.581   6.739   5.265 -0.1626  0.9009  0.9461
  692MOL0     O95389   2.600   6.691   5.391  0.2906 -0.4427 -0.0900
  692MOL0     C95390   2.492   6.681   5.475  0.0013  0.5514  0.2240
  692MOL0     C95391   2.430   6.784   5.542  0.3605  0.0559 -0.4082
  692MOL0     C95392   2.321   6.755   5.627 -0.2913 -0.5659  0.5181
  692MOL0     C95393   2.289   6.626   5.662  0.7622  0.4324 -1.1735
  692MOL0     O95394   2.189   6.608   5.752  0.1585  0.1478 -0.3300
  692MOL0     C95395   2.118   6.488   5.759  1.0342 -0.7176 -0.3245
  692MOL0     C95396   1.994   6.506   5.853  0.2333 -0.3934 -0.2863
  692MOL0     C95397   1.914   6.626   5.817  0.4226 -0.8882  1.0161
  692MOL0     C95398   1.813   6.659   5.922  1.3503  0.4389 -0.6813
  692MOL0     C95399   1.731   6.785   5.900  1.0672 -0.8339  0.5931
  692MOL0     C95400   1.624   6.782   5.782 -1.6417  0.3011 -0.2015
  692MOL0     C95401   1.524   6.664   5.788 -0.5944 -0.7819 -0.2776
  692MOL0     C95402   1.442   6.665   5.665  0.1777  0.3230 -0.3447
  692MOL0    Cl95403   1.527   6.657   5.512  0.2100  0.0967  0.3342
  692MOL0     C95404   2.349   6.518   5.593  0.3629 -0.0031 -0.5814
  692MOL0     C95405   2.453   6.543   5.500 -0.5279 -0.3459 -0.1655
  692MOL0     O95406   2.472   6.778   5.222 -0.9209  0.0246  0.8820
  692MOL0     C95407   2.798   6.667   5.222  0.1446  0.1595  0.3021
  692MOL0     C95408   2.912   6.644   5.148 -0.0240  0.0216 -0.3683
  692MOL0     N95409   3.474   6.685   4.869  0.1027  0.2910 -0.3500
  692MOL0     N95410   3.523   6.769   4.954 -0.0361 -0.5271 -0.8480
  692MOL0     C95411   2.667   7.249   5.493 -0.6265  0.2261  0.1517
  692MOL0     C95412   2.530   7.240   5.532 -0.3942  0.2248 -0.4834
  692MOL0     C95413   2.116   7.229   5.572 -0.8762 -0.0172 -0.0002
  692MOL0     C95414   2.093   7.105   5.636 -0.0904 -0.5346 -0.7812
  692MOL0     C95415   1.960   7.053   5.664 -0.0628 -0.1444  0.3160
  692MOL0     C95416   1.857   7.149   5.663 -0.2521  0.2594  0.6574
  692MOL0     O95417   1.729   7.099   5.691 -0.5837 -0.1803  0.0622
  692MOL0     C95418   1.613   7.167   5.656  0.6821  0.0292  0.1079
  692MOL0     C95419   1.578   7.173   5.508 -0.7244  0.7242 -0.2148
  692MOL0     C95420   1.570   7.024   5.447 -0.0081 -0.1847 -0.4660
  692MOL0     C95421   1.579   7.027   5.293 -0.5296 -0.2549 -0.9573
  692MOL0     C95422   1.598   6.894   5.232  0.1613 -0.2876  0.0085
  692MOL0     C95423   1.612   6.790   5.183  0.9965  0.5412  0.0021
  692MOL0     C95424   1.880   7.274   5.616  0.0299 -0.4133  0.3463
  692MOL0     C95425   1.999   7.312   5.559  0.3561  1.0073 -0.1681
  692MOL0     C95426   2.010   7.450   5.496  0.3115 -0.8919 -0.0224
  692MOL0     H95427   2.408   7.057   5.284 -1.1711 -0.7479  2.0983
  692MOL0     H95428   2.646   7.070   5.206  0.5348  0.7625  0.2805
  692MOL0     H95429   2.816   7.202   5.151 -0.6988  0.6571  0.4597
  692MOL0     H95430   2.880   7.045   5.207 -1.7518  0.6940  0.9741
  692MOL0     H95431   3.050   7.197   5.092  0.8288 -0.5200  0.6829
  692MOL0     H95432   3.007   7.330   5.197 -0.5910  0.1663 -2.6454
  692MOL0     H95433   3.219   7.218   5.214 -1.4767 -0.8077 -2.8884
  692MOL0     H95434   3.143   7.233   5.372 -0.2124  1.4091 -0.5217
  692MOL0     H95435   3.090   6.983   5.347 -2.0683 -0.3489 -2.7287
  692MOL0     H95436   3.146   7.004   5.177 -1.2420 -0.4536  0.4610
  692MOL0     H95437   3.304   7.018   5.436  3.1611  4.1291 -0.0251
  692MOL0     H95438   3.375   7.055   5.268 -0.6004 -2.6150 -2.7196
  692MOL0     H95439   3.283   6.779   5.374  4.1091 -0.5368  0.9895
  692MOL0     H95440   3.297   6.820   5.204 -0.4830  1.7087 -0.6973
  692MOL0     H95441   3.488   6.701   5.341  2.2263  0.6971  0.4693
  692MOL0     H95442   3.529   6.865   5.391  2.6254 -2.3176  0.5920
  692MOL0     H95443   3.589   6.905   5.140  1.7782  0.3890  0.5429
  692MOL0     H95444   3.673   6.785   5.220  0.5092 -0.0763 -0.6142
  692MOL0     H95445   3.448   6.529   5.168  1.6912 -0.1658  0.2612
  692MOL0     H95446   3.457   6.368   4.954  0.0025 -0.2423 -0.1305
  692MOL0     H95447   3.439   6.435   4.796  0.5973  3.8234 -0.4028
  692MOL0     H95448   3.212   6.317   4.921 -1.8096  0.1843  1.6278
  692MOL0     H95449   3.217   6.464   5.013  3.2584 -0.7240  1.2191
  692MOL0     H95450   3.233   6.597   4.781 -0.1202 -0.4333  0.4969
  692MOL0     H95451   3.151   6.447   4.722 -4.0727  2.3646 -1.2205
  692MOL0     H95452   2.986   6.608   4.759 -0.1113 -1.2822 -0.4046
  692MOL0     H95453   2.976   6.472   4.863 -2.7115  0.2669 -2.6877
  692MOL0     H95454   2.794   6.784   4.858 -2.3772  0.7551  0.3800
  692MOL0     H95455   2.586   6.871   4.860 -2.8478 -0.7458 -0.8854
  692MOL0     H95456   2.554   6.931   5.022  2.3175  1.1917 -1.1766
  692MOL0     H95457   2.476   6.782   4.971  1.0609 -2.6384 -0.3469
  692MOL0     H95458   2.472   6.880   5.517  0.2171  0.2713  0.1780
  692MOL0     H95459   2.269   6.840   5.670 -1.4969  0.8526 -3.3133
  692MOL0     H95460   2.085   6.460   5.658  0.1346 -2.8338  0.4759
  692MOL0     H95461   2.176   6.400   5.789 -1.6018 -1.5409  3.0265
  692MOL0     H95462   1.927   6.422   5.839 -2.9251  2.0263 -0.8251
  692MOL0     H95463   2.031   6.517   5.956  0.9643  2.9068 -0.7835
  692MOL0     H95464   1.870   6.604   5.720  0.0870  3.0702  0.1072
  692MOL0     H95465   1.985   6.709   5.813 -0.0798 -0.4311  1.5050
  692MOL0     H95466   1.868   6.680   6.014 -1.8926  2.2101  1.0156
  692MOL0     H95467   1.748   6.575   5.947 -0.7558  2.4766  1.1539
  692MOL0     H95468   1.681   6.792   5.997 -0.8761  0.7135 -0.4339
  692MOL0     H95469   1.798   6.869   5.883  1.3754 -1.4666 -1.6794
  692MOL0     H95470   1.687   6.772   5.693  1.6323  2.9302  1.5988
  692MOL0     H95471   1.574   6.880   5.780 -1.1645  0.5788  0.7737
  692MOL0     H95472   1.461   6.657   5.877 -1.8723 -2.9189 -1.2575
  692MOL0     H95473   1.597   6.583   5.778  2.0508  1.2618  1.1916
  692MOL0     H95474   1.380   6.755   5.657 -0.3258 -0.1810 -2.8806
  692MOL0     H95475   1.381   6.574   5.671  2.3121 -1.2165 -0.5816
  692MOL0     H95476   2.302   6.421   5.598 -0.4413  0.2368 -2.3879
  692MOL0     H95477   2.505   6.465   5.446  2.0971  1.9165 -1.1229
  692MOL0     H95478   2.815   6.659   5.329 -5.0473 -0.2369  1.3707
  692MOL0     H95479   2.989   6.593   5.206 -2.3745 -1.6044  1.5293
  692MOL0     H95480   2.738   7.316   5.540  1.0105  0.1268 -2.0569
  692MOL0     H95481   2.507   7.284   5.628 -0.5607 -0.4996 -0.1855
  692MOL0     H95482   2.164   7.026   5.660 -2.9257 -4.3125 -3.4720
  692MOL0     H95483   1.944   6.954   5.706  1.3895 -0.0160  1.2557
  692MOL0     H95484   1.531   7.136   5.721  0.0040  1.0042 -0.2562
  692MOL0     H95485   1.619   7.271   5.690 -2.1959  0.5760 -0.8262
  692MOL0     H95486   1.658   7.228   5.458 -1.5294  0.0291 -2.3765
  692MOL0     H95487   1.481   7.223   5.505 -1.9693 -1.4011  1.5121
  692MOL0     H95488   1.657   6.968   5.482 -0.5789  0.4664  2.2830
  692MOL0     H95489   1.478   6.971   5.473  0.2878  0.0025  1.0890
  692MOL0     H95490   1.671   7.083   5.271  1.4136 -2.5204  0.8016
  692MOL0     H95491   1.492   7.075   5.247 -0.8082  0.9975  0.7931
  692MOL0     H95492   1.625   6.693   5.141  1.5158  0.9356 -0.7640
  692MOL0     H95493   1.799   7.342   5.594 -0.5985 -1.1080  0.4875
  692MOL0     H95494   2.042   7.454   5.392  0.5220  5.0211 -0.0707
  692MOL0     H95495   1.917   7.508   5.498 -0.0152 -1.3963 -0.5014
  692MOL0     H95496   2.081   7.517   5.547  0.7080 -2.2604  1.2789
  693MOL0     O95497   4.417   0.362   4.992 -0.0032  0.0038  0.6584
  693MOL0     C95498   4.368   0.289   4.902  0.6538 -0.1478  0.3705
  693MOL0     O95499   4.432   0.241   4.791 -0.2601 -0.3291 -0.4606
  693MOL0     C95500   4.559   0.297   4.762  0.5304 -1.8605  0.0388
  693MOL0     C95501   4.666   0.220   4.730  1.6029 -0.6739  0.5842
  693MOL0     C95502   4.786   0.268   4.679  0.8321  0.2449  0.2744
  693MOL0     C95503   4.804   0.403   4.678  0.7800  0.5788  0.3620
  693MOL0     O95504   4.927   0.461   4.641  0.9722 -0.8424  0.0282
  693MOL0     C95505   5.042   0.383   4.615  0.0109 -0.0625 -0.0851
  693MOL0     C95506   5.155   0.484   4.601 -0.1026 -0.9301  0.2263
  693MOL0     C95507   5.142   0.570   4.466  0.2343  0.5291  0.1996
  693MOL0     C95508   5.217   0.704   4.475 -0.6192  0.1706 -0.8768
  693MOL0     C95509   5.267   0.750   4.334  0.0292 -0.3257 -0.6038
  693MOL0     C95510   5.386   0.665   4.289 -0.2589  0.3955 -0.6839
  693MOL0     C95511   5.397   0.685   4.134 -0.2814  0.1632  0.6418
  693MOL0     C95512   5.502   0.583   4.084 -0.5414  0.2044 -0.4973
  693MOL0     N95513   5.640   0.617   4.113  0.7992  0.1680 -0.1203
  693MOL0     C95514   5.707   0.731   4.088 -0.2502 -0.2649  1.1140
  693MOL0     C95515   5.816   0.718   4.170  0.3029 -0.2755 -0.3161
  693MOL0     C95516   5.952   0.798   4.177  0.0183  0.2643  0.8013
  693MOL0     C95517   6.044   0.727   4.076  0.4508 -0.4401 -0.6124
  693MOL0     C95518   6.172   0.799   4.039 -0.5338  0.9738 -0.3185
  693MOL0     C95519   6.151   0.931   3.961  0.2485 -0.0638  0.4686
  693MOL0     O95520   6.273   0.935   3.877 -0.1769 -0.6165  0.1296
  693MOL0     C95521   6.379   1.020   3.911 -0.0613 -0.1701  0.3069
  693MOL0     C95522   6.511   0.979   3.941  0.3131  0.3254  0.3995
  693MOL0     C95523   6.617   1.064   3.969  0.5103  0.0102 -0.3979
  693MOL0     C95524   6.748   1.004   4.015 -0.0608 -0.2221 -0.0641
  693MOL0     C95525   6.588   1.209   3.971 -0.2332  0.1558  0.3182
  693MOL0     C95526   6.692   1.313   3.987  0.5343  0.0952  0.2680
  693MOL0     O95527   6.653   1.433   4.038  0.4084 -0.3110 -0.4794
  693MOL0     C95528   6.761   1.523   4.036  0.4803 -0.3091  0.5394
  693MOL0     C95529   6.850   1.518   4.146  0.5785 -0.2220 -0.8096
  693MOL0     C95530   6.944   1.618   4.164  0.3547 -0.6459 -0.1282
  693MOL0     C95531   6.957   1.725   4.078 -0.1348  0.6357  0.3811
  693MOL0     O95532   7.050   1.825   4.080  0.0162  0.7535 -0.0781
  693MOL0     C95533   7.167   1.790   4.161 -0.5546 -0.5943  0.1711
  693MOL0     C95534   7.146   1.860   4.296 -0.8037  0.3013 -0.6192
  693MOL0     C95535   7.155   2.009   4.276 -0.4468  0.2138  0.7294
  693MOL0     C95536   7.189   2.087   4.406 -0.0117 -0.0368  0.9295
  693MOL0     C95537   7.202   2.235   4.376 -0.6485 -0.1741 -0.4795
  693MOL0     C95538   7.345   2.265   4.336  0.7431 -0.7132 -1.4174
  693MOL0     C95539   7.345   2.421   4.334  0.3516 -0.1330  0.3552
  693MOL0     C95540   7.463   2.466   4.251 -0.1780 -0.4764  0.7366
  693MOL0    Cl95541   7.624   2.428   4.325  0.2526 -0.1121  0.5054
  693MOL0     C95542   6.877   1.723   3.953 -0.0920  0.2656  0.1283
  693MOL0     C95543   6.781   1.618   3.936  0.4384  0.5854 -0.6121
  693MOL0     O95544   6.804   1.284   3.946 -0.4960 -0.4893  0.9135
  693MOL0     C95545   6.459   1.251   3.939 -0.3294 -0.2432 -0.4635
  693MOL0     C95546   6.360   1.159   3.891 -0.3696  0.7521  0.9919
  693MOL0     N95547   5.809   0.599   4.241 -0.6216  0.3825  0.0218
  693MOL0     N95548   5.706   0.542   4.205  0.2163 -0.7843 -0.1612
  693MOL0     C95549   4.701   0.491   4.712  0.2398 -0.7684  0.8436
  693MOL0     C95550   4.574   0.441   4.760 -0.0734 -0.2750 -0.0795
  693MOL0     C95551   4.226   0.256   4.931 -0.0145 -1.1195 -0.0886
  693MOL0     C95552   4.203   0.199   5.055  0.6264  0.9149  0.1444
  693MOL0     C95553   4.076   0.139   5.090 -0.8805  0.4572  0.3178
  693MOL0     C95554   3.979   0.134   4.988  0.4998 -0.0900  0.0319
  693MOL0     O95555   3.856   0.070   4.996  0.3635  1.0622 -0.0921
  693MOL0     C95556   3.834  -0.035   5.091  0.2967  0.7998 -0.3654
  693MOL0     C95557   3.683  -0.083   5.087 -1.1271  0.3027  0.4650
  693MOL0     C95558   3.579   0.016   5.126 -0.1033  0.3786 -0.4529
  693MOL0     C95559   3.447  -0.049   5.121 -0.2121  0.1624  0.5883
  693MOL0     C95560   3.326   0.038   5.126 -0.6093 -0.0269  0.0133
  693MOL0     C95561   3.238   0.122   5.129  0.3636  0.0279 -0.1048
  693MOL0     C95562   4.002   0.200   4.866  0.3741  0.4860 -0.3806
  693MOL0     C95563   4.126   0.266   4.835 -0.4065 -0.1745  0.2245
  693MOL0     C95564   4.140   0.327   4.702 -0.9059 -0.6832  0.1222
  693MOL0     H95565   4.659   0.115   4.757 -3.1400 -0.6135  0.4817
  693MOL0     H95566   4.870   0.202   4.661 -0.5279 -1.4321 -0.1898
  693MOL0     H95567   5.023   0.317   4.530  0.6077 -0.2473 -0.0780
  693MOL0     H95568   5.059   0.320   4.703 -2.9592 -3.1670 -1.5212
  693MOL0     H95569   5.167   0.549   4.689  0.2068  0.8597 -1.0849
  693MOL0     H95570   5.251   0.433   4.591  0.4795  0.4849 -2.0565
  693MOL0     H95571   5.183   0.507   4.387  0.7523 -3.8058  3.5409
  693MOL0     H95572   5.037   0.583   4.435 -0.2728  1.0240  1.9949
  693MOL0     H95573   5.170   0.788   4.527 -1.8506 -0.5230 -0.8279
  693MOL0     H95574   5.309   0.693   4.533 -0.8362  0.5571 -0.4541
  693MOL0     H95575   5.292   0.857   4.340 -0.6147 -0.2590  2.5248
  693MOL0     H95576   5.185   0.733   4.264 -2.0349 -2.0854  2.0348
  693MOL0     H95577   5.478   0.687   4.344  1.4683 -2.5195 -2.1432
  693MOL0     H95578   5.378   0.557   4.308  0.9773  0.6042  1.3086
  693MOL0     H95579   5.417   0.790   4.113 -1.9791  0.6952  1.4816
  693MOL0     H95580   5.305   0.655   4.082 -0.6487  1.2802  0.6197
  693MOL0     H95581   5.488   0.492   4.144  3.8338 -0.3622  0.0142
  693MOL0     H95582   5.509   0.556   3.978  1.6163 -4.0459  0.4564
  693MOL0     H95583   5.678   0.808   4.016 -0.3751 -0.3078  1.1185
  693MOL0     H95584   5.994   0.786   4.278 -0.2500 -1.0025  0.7820
  693MOL0     H95585   5.934   0.900   4.142  1.0252 -0.1638 -1.0832
  693MOL0     H95586   6.062   0.627   4.117  0.6129 -1.8306 -3.7844
  693MOL0     H95587   5.994   0.709   3.980  0.2707 -0.4960 -0.5094
  693MOL0     H95588   6.226   0.819   4.132 -0.1383 -5.8690  1.4171
  693MOL0     H95589   6.235   0.729   3.983 -0.1816  0.6699  0.4504
  693MOL0     H95590   6.061   0.920   3.899 -1.7543 -0.4826  3.2519
  693MOL0     H95591   6.150   1.015   4.031  0.0134 -0.5596  1.0641
  693MOL0     H95592   6.524   0.871   3.948 -1.8607 -0.2552 -2.4897
  693MOL0     H95593   6.724   0.903   4.047 -1.3023  0.1495  0.2312
  693MOL0     H95594   6.798   1.060   4.094  2.2038 -1.9643 -0.1551
  693MOL0     H95595   6.815   1.000   3.928 -1.4513  1.8461 -1.3411
  693MOL0     H95596   6.848   1.437   4.217  1.0288 -0.5023 -1.1133
  693MOL0     H95597   7.010   1.611   4.250  1.1414  2.9099 -0.2674
  693MOL0     H95598   7.185   1.683   4.171 -0.5161 -0.7568 -1.3998
  693MOL0     H95599   7.254   1.837   4.115  0.9179 -0.9299  2.4486
  693MOL0     H95600   7.061   1.833   4.359  1.8398  3.0484  4.9228
  693MOL0     H95601   7.224   1.828   4.365 -1.5026 -3.1205 -1.2490
  693MOL0     H95602   7.053   2.037   4.248 -0.1047 -0.0235 -0.8327
  693MOL0     H95603   7.219   2.046   4.195 -1.7549 -1.1560 -1.0052
  693MOL0     H95604   7.280   2.044   4.448 -1.1842 -2.0452  1.5748
  693MOL0     H95605   7.101   2.067   4.468 -1.0278  0.9254 -0.1629
  693MOL0     H95606   7.127   2.256   4.299 -1.3678 -0.7876  0.0358
  693MOL0     H95607   7.173   2.291   4.466  1.1007  1.1188 -0.6712
  693MOL0     H95608   7.370   2.217   4.241  0.4426  1.9911 -2.9682
  693MOL0     H95609   7.423   2.244   4.410 -0.1687 -0.3193 -0.3058
  693MOL0     H95610   7.358   2.464   4.433 -0.1283 -3.5721  2.0490
  693MOL0     H95611   7.251   2.457   4.291  0.1330  0.2817  1.1653
  693MOL0     H95612   7.459   2.574   4.235  0.6197 -0.1180  2.7468
  693MOL0     H95613   7.462   2.413   4.155 -3.3539  0.8693 -0.1092
  693MOL0     H95614   6.895   1.803   3.882  1.2199  0.8973  1.1221
  693MOL0     H95615   6.748   1.606   3.833  0.8351 -1.5683 -0.5229
  693MOL0     H95616   6.428   1.355   3.943 -2.3422 -0.7685 -1.3135
  693MOL0     H95617   6.259   1.191   3.868 -0.7728 -0.6245  0.7621
  693MOL0     H95618   4.729   0.595   4.727  1.4972 -1.2236  1.8453
  693MOL0     H95619   4.499   0.512   4.792 -0.7794  0.1972 -2.5640
  693MOL0     H95620   4.294   0.181   5.111  1.4222 -1.7042 -1.8048
  693MOL0     H95621   4.059   0.087   5.184 -0.1782  0.6363  0.5467
  693MOL0     H95622   3.907  -0.114   5.069  1.5152  1.5428  0.8835
  693MOL0     H95623   3.866  -0.003   5.190  1.7147 -2.7004  0.4754
  693MOL0     H95624   3.673  -0.169   5.153 -0.1746 -0.2562 -0.0954
  693MOL0     H95625   3.667  -0.114   4.983  0.2661  3.8533 -0.9547
  693MOL0     H95626   3.596   0.048   5.229 -1.9148  2.1561 -0.6479
  693MOL0     H95627   3.589   0.107   5.066  2.9621  0.9255  0.7289
  693MOL0     H95628   3.435  -0.118   5.204 -2.6427 -0.3207 -0.0963
  693MOL0     H95629   3.455  -0.102   5.025  1.4336  0.0283  0.7724
  693MOL0     H95630   3.160   0.195   5.124  0.4897  0.4807  2.6927
  693MOL0     H95631   3.923   0.196   4.791 -0.0901 -1.5495  0.1653
  693MOL0     H95632   4.079   0.281   4.624 -0.8229  0.6008 -0.7388
  693MOL0     H95633   4.115   0.433   4.712 -0.0075 -0.4653  0.1210
  693MOL0     H95634   4.244   0.329   4.666 -2.0246  1.7231 -3.6086
  694MOL0     O95635   9.343   9.938   1.022 -0.7332  0.4034 -0.2462
  694MOL0     C95636   9.412   9.838   1.045  0.3380 -0.9843  0.4390
  694MOL0     O95637   9.544   9.818   1.003 -0.5724 -0.3718  0.6437
  694MOL0     C95638   9.600   9.880   0.896  0.2673 -0.3932 -0.4998
  694MOL0     C95639   9.739   9.853   0.884 -0.8631 -0.8687 -0.4187
  694MOL0     C95640   9.815   9.898   0.778 -0.5817  0.2991  0.1567
  694MOL0     C95641   9.753   9.992   0.685 -0.1736 -0.3791  0.6474
  694MOL0     O95642   9.849  10.041   0.592  0.6637  0.3104  0.6368
  694MOL0     C95643   9.809  10.156   0.507  0.1190 -0.6927  0.2122
  694MOL0     C95644   9.885  10.180   0.376 -0.1732  0.4348 -0.1338
  694MOL0     C95645  10.031  10.220   0.400 -0.3405  0.1015 -0.4607
  694MOL0     C95646  10.116  10.247   0.272  0.1874 -0.1659 -0.2749
  694MOL0     C95647  10.248  10.322   0.299  0.5095  0.9264 -0.2505
  694MOL0     C95648  10.326  10.255   0.423  0.0259 -0.2337  0.0613
  694MOL0     C95649  10.461  10.338   0.467  0.4145  0.2740  0.1750
  694MOL0     C95650  10.539  10.283   0.588 -0.7896  0.3934  0.0971
  694MOL0     N95651  10.641  10.185   0.550  0.1621  0.2704 -0.5346
  694MOL0     C95652  10.764  10.216   0.498  0.5729  1.2121  0.2550
  694MOL0     C95653  10.827  10.102   0.504 -0.8157 -0.5392  0.2984
  694MOL0     C95654  10.976  10.082   0.474 -0.3401 -0.3791 -0.4306
  694MOL0     C95655  11.020  10.160   0.354  0.3195 -0.3815 -0.4031
  694MOL0     C95656  11.133  10.094   0.277  0.8113  0.2313 -0.2604
  694MOL0     C95657  11.260  10.113   0.367 -0.2583 -0.9459  0.4347
  694MOL0     O95658  11.276  10.022   0.479  0.3921 -0.0578  0.9567
  694MOL0     C95659  11.301   9.889   0.453 -0.1032  0.5109  0.2489
  694MOL0     C95660  11.254   9.812   0.555 -0.5119 -0.2210 -0.3751
  694MOL0     C95661  11.251   9.668   0.544  1.3311 -0.7303  0.0856
  694MOL0     C95662  11.205   9.575   0.652  0.3590 -0.7808  0.3726
  694MOL0     C95663  11.300   9.607   0.424  0.5209  0.1175  0.0055
  694MOL0     C95664  11.311   9.473   0.404 -0.4137  0.4775  0.6811
  694MOL0     O95665  11.214   9.432   0.320  0.4414  0.2804 -0.3536
  694MOL0     C95666  11.191   9.302   0.282  0.6318  0.5619  0.0471
  694MOL0     C95667  11.122   9.283   0.163  0.6216  0.8601  0.5371
  694MOL0     C95668  11.079   9.155   0.127 -0.2291 -0.3860 -0.2770
  694MOL0     C95669  11.110   9.035   0.199 -0.6348 -0.1742  0.3159
  694MOL0     O95670  11.059   8.906   0.170  0.3328 -0.5776  0.0606
  694MOL0     C95671  10.954   8.893   0.082 -0.3678 -0.4057 -0.2126
  694MOL0     C95672  10.931   8.745   0.038  0.3877 -0.3473 -0.4344
  694MOL0     C95673  10.820   8.745  -0.071  0.0358  0.4712 -0.1226
  694MOL0     C95674  10.758   8.602  -0.101  0.2472  0.3087  0.5608
  694MOL0     C95675  10.859   8.519  -0.190  0.6584 -0.0854 -0.0663
  694MOL0     C95676  10.793   8.379  -0.225  0.2321 -0.6235  0.2067
  694MOL0     C95677  10.885   8.288  -0.297  0.1452  1.0509  0.7072
  694MOL0     C95678  10.828   8.157  -0.345  0.6528 -0.4661  0.0040
  694MOL0    Cl95679  10.836   8.032  -0.223  0.1631 -0.5498  0.3513
  694MOL0     C95680  11.198   9.059   0.302  0.2782  0.4108  0.2395
  694MOL0     C95681  11.231   9.187   0.350 -0.2282  0.5479  0.2168
  694MOL0     O95682  11.403   9.399   0.447  0.0006 -0.0448 -0.0058
  694MOL0     C95683  11.347   9.694   0.317 -0.7173  0.2590 -0.0828
  694MOL0     C95684  11.352   9.832   0.330 -0.0391 -0.7278 -0.0210
  694MOL0     N95685  10.751  10.002   0.554 -0.6521 -0.1461  0.0560
  694MOL0     N95686  10.631  10.049   0.565 -0.6094 -0.5790  0.1595
  694MOL0     C95687   9.612  10.002   0.681 -0.2419  1.2716 -0.5493
  694MOL0     C95688   9.533   9.945   0.787 -0.2258 -0.2035 -0.5141
  694MOL0     C95689   9.363   9.757   1.151  0.6269 -0.3617  0.4365
  694MOL0     C95690   9.442   9.709   1.252  0.2810 -0.2447 -0.8451
  694MOL0     C95691   9.392   9.629   1.353 -0.6369  0.4399  0.0205
  694MOL0     C95692   9.262   9.592   1.362  0.6171 -0.3092 -0.0569
  694MOL0     O95693   9.203   9.510   1.462  0.2515 -1.1778  0.1736
  694MOL0     C95694   9.174   9.381   1.422  0.5128 -0.2533 -0.1077
  694MOL0     C95695   9.281   9.313   1.343  0.3168  0.1227 -0.6704
  694MOL0     C95696   9.381   9.238   1.428 -0.4489 -0.4407  0.4193
  694MOL0     C95697   9.500   9.171   1.356  0.5973  0.0596  0.7890
  694MOL0     C95698   9.445   9.070   1.263 -0.7413  0.0889 -0.0431
  694MOL0     C95699   9.394   8.984   1.190  0.7872  0.4944 -0.5532
  694MOL0     C95700   9.170   9.635   1.265 -0.6309 -0.2205 -0.4681
  694MOL0     C95701   9.227   9.708   1.155  0.4884  0.1257  0.5048
  694MOL0     C95702   9.124   9.726   1.034 -0.4739  0.3994 -0.3474
  694MOL0     H95703   9.789   9.779   0.946  0.9398  0.0071 -0.7713
  694MOL0     H95704   9.919   9.872   0.764 -0.0506  1.0005  2.3691
  694MOL0     H95705   9.827  10.245   0.568  0.6098 -1.4867  1.2635
  694MOL0     H95706   9.701  10.145   0.493  0.0208  1.8099 -1.6164
  694MOL0     H95707   9.894  10.083   0.327 -0.8021 -0.0269  0.6532
  694MOL0     H95708   9.834  10.251   0.309  1.4151  1.7649 -0.0095
  694MOL0     H95709  10.030  10.313   0.458 -2.7732 -0.7606  1.0095
  694MOL0     H95710  10.083  10.144   0.459  2.5176  1.2517 -1.3129
  694MOL0     H95711  10.129  10.153   0.218  1.4592 -0.5504  0.6411
  694MOL0     H95712  10.061  10.308   0.200  1.8317 -1.4003 -2.7010
  694MOL0     H95713  10.217  10.423   0.329 -2.5447 -0.3357  1.2698
  694MOL0     H95714  10.312  10.324   0.210  1.6434 -2.9142  0.3319
  694MOL0     H95715  10.275  10.260   0.519  0.4175 -0.6655  0.2987
  694MOL0     H95716  10.344  10.148   0.407 -3.2223 -0.9273  0.3478
  694MOL0     H95717  10.419  10.427   0.514 -1.3673 -0.1137 -0.5853
  694MOL0     H95718  10.522  10.372   0.383  0.3338 -1.2286 -0.5275
  694MOL0     H95719  10.588  10.369   0.633 -0.6976  0.3520  0.0751
  694MOL0     H95720  10.463  10.238   0.653  0.2127 -0.5757  0.6236
  694MOL0     H95721  10.799  10.314   0.469 -1.9703  2.0980 -0.0354
  694MOL0     H95722  10.997   9.975   0.465  0.3061 -0.1895 -1.2873
  694MOL0     H95723  11.041  10.114   0.555  0.4659  1.3606 -1.7036
  694MOL0     H95724  10.942  10.171   0.279 -2.5350 -0.3832  2.3845
  694MOL0     H95725  11.037  10.266   0.378 -4.7035  2.0849 -5.3950
  694MOL0     H95726  11.117   9.988   0.255  2.7199 -0.4612  1.3943
  694MOL0     H95727  11.153  10.158   0.191  0.4030  0.4188 -0.2229
  694MOL0     H95728  11.336  10.087   0.292 -2.0220 -1.7579 -1.1696
  694MOL0     H95729  11.276  10.218   0.390  2.6612 -0.8339 -1.5541
  694MOL0     H95730  11.217   9.869   0.640  2.9698  0.3911  0.8932
  694MOL0     H95731  11.283   9.555   0.727  0.9014 -2.4156 -0.5559
  694MOL0     H95732  11.171   9.477   0.617  0.4306 -0.9388  0.7367
  694MOL0     H95733  11.120   9.610   0.711  1.4215  2.8432 -0.0575
  694MOL0     H95734  11.085   9.368   0.108 -0.5879 -0.2952 -0.5010
  694MOL0     H95735  11.013   9.150   0.040 -1.3035 -0.6187  0.5303
  694MOL0     H95736  10.864   8.936   0.127 -0.2520 -1.2641  0.8815
  694MOL0     H95737  10.985   8.951  -0.006 -0.6284  0.0250 -0.0250
  694MOL0     H95738  11.020   8.704  -0.009 -0.2377  0.0179 -1.9844
  694MOL0     H95739  10.895   8.688   0.124  0.5626  2.3835  1.6011
  694MOL0     H95740  10.862   8.775  -0.168  2.2094 -1.7317  0.0106
  694MOL0     H95741  10.737   8.812  -0.048 -3.1690 -2.9143 -0.8292
  694MOL0     H95742  10.664   8.619  -0.154 -0.5383  0.2612  1.8999
  694MOL0     H95743  10.735   8.555  -0.005 -1.3472  2.8800  1.5128
  694MOL0     H95744  10.877   8.558  -0.291  2.0079 -1.4044 -0.3586
  694MOL0     H95745  10.957   8.520  -0.141 -0.6810  0.8000  2.7991
  694MOL0     H95746  10.706   8.404  -0.286  0.3380  0.3239  0.4230
  694MOL0     H95747  10.749   8.326  -0.140  1.3632  0.7706  1.7279
  694MOL0     H95748  10.978   8.267  -0.244 -0.5465 -2.0639  0.9074
  694MOL0     H95749  10.902   8.339  -0.392  0.6195 -2.6149 -1.3802
  694MOL0     H95750  10.888   8.122  -0.430 -1.7611  1.5569 -2.7569
  694MOL0     H95751  10.722   8.158  -0.373  0.2660 -0.1795  1.4232
  694MOL0     H95752  11.231   8.968   0.351 -0.1904 -1.0072 -1.9409
  694MOL0     H95753  11.275   9.192   0.449 -0.3238  0.9996  0.2369
  694MOL0     H95754  11.391   9.654   0.227 -1.3646  1.8179 -1.1356
  694MOL0     H95755  11.403   9.900   0.262  1.8170 -0.2469  1.7525
  694MOL0     H95756   9.547  10.043   0.605 -0.2395  2.1879 -0.0700
  694MOL0     H95757   9.426   9.962   0.791 -0.0975  0.4551  2.6561
  694MOL0     H95758   9.545   9.743   1.249 -0.0865  0.8694 -2.4617
  694MOL0     H95759   9.449   9.593   1.438 -2.0641 -0.2750  0.7270
  694MOL0     H95760   9.145   9.318   1.507  1.0738  1.6618  1.6085
  694MOL0     H95761   9.085   9.390   1.360  0.1558 -0.7296  0.3325
  694MOL0     H95762   9.341   9.370   1.271  0.8332 -1.5947 -1.6696
  694MOL0     H95763   9.232   9.241   1.276 -0.2938  0.8989 -1.0695
  694MOL0     H95764   9.404   9.316   1.501  0.1084 -0.4530  0.2610
  694MOL0     H95765   9.340   9.158   1.491  1.2502 -0.8654  1.0388
  694MOL0     H95766   9.559   9.107   1.423  6.0572  1.3571 -2.1325
  694MOL0     H95767   9.566   9.242   1.305 -1.8909  0.1653 -2.6399
  694MOL0     H95768   9.342   8.907   1.136  0.8051  1.8041 -2.5184
  694MOL0     H95769   9.065   9.607   1.268 -0.5987 -0.2579  0.4016
  694MOL0     H95770   9.185   9.706   0.945 -0.1694  1.6619 -0.4407
  694MOL0     H95771   9.043   9.653   1.031  0.4597 -0.6337 -1.4722
  694MOL0     H95772   9.092   9.831   1.037 -4.3736 -0.6123  2.4835
  695MOL0     O95773   5.629  10.596   5.079  0.2229  0.4791  0.3462
  695MOL0     C95774   5.574  10.500   5.020  0.3900  0.1664  0.6265
  695MOL0     O95775   5.530  10.511   4.888 -0.1009 -0.6049 -0.6755
  695MOL0     C95776   5.536  10.636   4.832  1.0938  0.0259 -0.5209
  695MOL0     C95777   5.466  10.743   4.880  0.6102 -0.0520  0.9439
  695MOL0     C95778   5.466  10.866   4.811 -1.3913  0.2870  0.7010
  695MOL0     C95779   5.536  10.875   4.686  1.0197  0.3194 -0.0809
  695MOL0     O95780   5.552  10.988   4.610  0.5413 -0.1087  0.4621
  695MOL0     C95781   5.569  11.115   4.683 -0.2924  0.4168 -0.3283
  695MOL0     C95782   5.617  11.232   4.599  0.2366  0.8800  0.6710
  695MOL0     C95783   5.512  11.260   4.492  0.0767  0.3903 -0.6135
  695MOL0     C95784   5.567  11.348   4.381 -0.0055 -0.7711  0.2450
  695MOL0     C95785   5.596  11.493   4.429  0.0097 -1.1042 -0.5537
  695MOL0     C95786   5.663  11.551   4.308 -0.0437  1.0831 -0.4557
  695MOL0     C95787   5.704  11.694   4.347  0.5289 -0.0584  0.0691
  695MOL0     C95788   5.843  11.750   4.313  0.0682 -0.3946  0.6252
  695MOL0     N95789   5.870  11.754   4.166  0.4436  0.6096 -0.0103
  695MOL0     C95790   5.939  11.852   4.108 -1.0800  0.3126  0.4808
  695MOL0     C95791   5.962  11.800   3.978 -0.6325 -0.5761  0.4035
  695MOL0     C95792   6.068  11.842   3.870 -0.0158 -0.6118 -0.6766
  695MOL0     C95793   6.016  11.925   3.752  0.7365 -0.0202  0.2618
  695MOL0     C95794   6.138  11.948   3.667 -0.2352 -0.1981 -0.9594
  695MOL0     C95795   6.111  12.067   3.578 -0.1713 -0.1000 -0.3561
  695MOL0     O95796   6.221  12.076   3.488 -0.3355  0.5270  0.2053
  695MOL0     C95797   6.305  12.190   3.482  0.3276  0.7634  0.1882
  695MOL0     C95798   6.408  12.165   3.388 -0.3197 -0.6233  0.0348
  695MOL0     C95799   6.511  12.267   3.364 -0.5584  0.2027  0.1502
  695MOL0     C95800   6.602  12.245   3.249  0.1646 -0.7521 -1.0796
  695MOL0     C95801   6.513  12.387   3.440  1.5300  0.1353 -0.0481
  695MOL0     C95802   6.609  12.504   3.435  0.6053 -0.5910  0.5115
  695MOL0     O95803   6.583  12.608   3.516  0.1166 -0.2894  0.5325
  695MOL0     C95804   6.643  12.735   3.504 -0.4296  0.4656  0.5293
  695MOL0     C95805   6.635  12.807   3.616  0.2318 -0.3783  0.3128
  695MOL0     C95806   6.695  12.936   3.618 -0.3798 -0.3896  0.4898
  695MOL0     C95807   6.772  12.986   3.514 -0.1175  0.9093 -0.3349
  695MOL0     O95808   6.844  13.104   3.541 -0.1928  0.6324  0.0946
  695MOL0     C95809   6.957  13.134   3.457 -1.0482  0.2187 -0.3464
  695MOL0     C95810   6.997  13.272   3.483 -0.4853  1.0986  0.0983
  695MOL0     C95811   7.148  13.293   3.456 -0.2881  0.3537 -0.7192
  695MOL0     C95812   7.189  13.433   3.479  0.4548  0.3092 -0.4368
  695MOL0     C95813   7.331  13.461   3.438  0.6831  0.0344 -0.2026
  695MOL0     C95814   7.361  13.612   3.470  0.0996 -0.3108  0.4743
  695MOL0     C95815   7.288  13.698   3.361 -0.2060  0.2291  0.2418
  695MOL0     C95816   7.344  13.844   3.356 -0.3291 -0.3396  0.0867
  695MOL0    Cl95817   7.286  13.929   3.503 -0.1590 -0.1395 -0.1159
  695MOL0     C95818   6.762  12.911   3.397  0.3687  0.2099 -0.3319
  695MOL0     C95819   6.704  12.787   3.391 -0.4165  0.7146 -0.3118
  695MOL0     O95820   6.699  12.495   3.357 -0.0791 -0.3223 -0.0235
  695MOL0     C95821   6.403  12.402   3.537 -0.5294 -1.2039 -0.1059
  695MOL0     C95822   6.308  12.307   3.554 -0.8321 -0.0392  0.3284
  695MOL0     N95823   5.889  11.686   3.961  0.1343  1.0889 -0.1616
  695MOL0     N95824   5.835  11.660   4.075 -0.5828  0.2365  0.2439
  695MOL0     C95825   5.614  10.764   4.641  0.4767  0.1310 -0.6224
  695MOL0     C95826   5.607  10.646   4.711 -0.2439  0.1065 -0.2914
  695MOL0     C95827   5.553  10.367   5.084  0.0740  0.7905 -0.4343
  695MOL0     C95828   5.468  10.279   5.015  0.6501  1.1778  0.1112
  695MOL0     C95829   5.458  10.140   5.064 -0.0179 -0.2233  0.3644
  695MOL0     C95830   5.514  10.099   5.172 -0.3457  0.6966 -0.1491
  695MOL0     O95831   5.492   9.969   5.209  0.6173 -0.9744 -0.6265
  695MOL0     C95832   5.504   9.923   5.346  0.4400  0.0886 -0.0379
  695MOL0     C95833   5.418  10.012   5.436  1.4931 -0.4443 -0.3708
  695MOL0     C95834   5.391   9.940   5.566 -0.0167  0.4436 -0.7809
  695MOL0     C95835   5.306  10.024   5.668 -0.1055  0.4773 -0.4630
  695MOL0     C95836   5.333   9.937   5.788  1.0938 -0.4692 -0.4946
  695MOL0     C95837   5.354   9.866   5.885  0.4909 -0.5208  0.0756
  695MOL0     C95838   5.590  10.191   5.241  0.1826  0.0351  0.2437
  695MOL0     C95839   5.612  10.323   5.203 -0.2535  0.5138 -0.0396
  695MOL0     C95840   5.687  10.419   5.293 -0.2517  0.8075  0.0426
  695MOL0     H95841   5.401  10.729   4.966 -1.1810  2.1208  0.0483
  695MOL0     H95842   5.415  10.948   4.861 -0.7243 -0.9726  3.6845
  695MOL0     H95843   5.639  11.092   4.763 -1.1211 -2.1820 -0.2756
  695MOL0     H95844   5.474  11.138   4.733 -0.0695 -1.8540  1.2731
  695MOL0     H95845   5.651  11.316   4.661  0.6655  0.4934  0.9696
  695MOL0     H95846   5.707  11.203   4.544 -1.4930 -1.2057 -1.2382
  695MOL0     H95847   5.479  11.168   4.445  1.0488  0.1951 -0.9449
  695MOL0     H95848   5.425  11.310   4.536 -1.9438 -0.6239 -3.2090
  695MOL0     H95849   5.656  11.301   4.339  0.3374  0.1616 -0.0930
  695MOL0     H95850   5.504  11.346   4.292 -1.1678  3.4267  0.7703
  695MOL0     H95851   5.657  11.484   4.520  1.9627 -1.0765 -1.7983
  695MOL0     H95852   5.507  11.543   4.468  0.2277 -0.7756 -0.4784
  695MOL0     H95853   5.747  11.485   4.287 -0.2996  0.1000  1.3928
  695MOL0     H95854   5.594  11.537   4.224 -1.8879 -0.0424  1.1778
  695MOL0     H95855   5.707  11.707   4.456  0.1250  0.6548  0.0012
  695MOL0     H95856   5.632  11.774   4.326  0.9340  0.6282  1.1760
  695MOL0     H95857   5.847  11.857   4.335 -0.9424 -0.1419 -0.3509
  695MOL0     H95858   5.916  11.688   4.366 -0.8725 -1.4122  0.7724
  695MOL0     H95859   5.985  11.941   4.149 -2.4254  1.6649 -0.7891
  695MOL0     H95860   6.117  11.757   3.822  0.5857 -0.5851 -0.1146
  695MOL0     H95861   6.137  11.899   3.933  0.2841 -0.4020 -1.1835
  695MOL0     H95862   5.946  11.862   3.695  2.2353 -2.1718  0.6815
  695MOL0     H95863   5.981  12.013   3.806  0.5302 -2.2196  4.0436
  695MOL0     H95864   6.227  11.976   3.725 -0.4065 -0.2903 -0.6475
  695MOL0     H95865   6.175  11.865   3.608  0.8158 -2.0610  2.1050
  695MOL0     H95866   6.015  12.052   3.527 -2.6493  1.3630  3.4115
  695MOL0     H95867   6.102  12.149   3.650  1.1932 -2.6065  2.9011
  695MOL0     H95868   6.414  12.067   3.343  3.6353 -0.4871 -0.0540
  695MOL0     H95869   6.585  12.331   3.183  0.6721  1.6263  1.6379
  695MOL0     H95870   6.561  12.155   3.202 -2.4773 -3.1677  4.8553
  695MOL0     H95871   6.702  12.242   3.292  0.5700 -0.9133 -2.0223
  695MOL0     H95872   6.582  12.770   3.703  0.4402  0.8707  0.9875
  695MOL0     H95873   6.681  12.987   3.713 -3.2942 -0.5046  0.2037
  695MOL0     H95874   7.036  13.062   3.480 -1.7588 -0.9361 -1.4160
  695MOL0     H95875   6.938  13.129   3.349  0.5350 -1.1228 -0.6065
  695MOL0     H95876   6.937  13.349   3.434 -2.6189  0.2122  1.1887
  695MOL0     H95877   6.982  13.284   3.591 -0.7098 -0.1380  0.2160
  695MOL0     H95878   7.169  13.282   3.350 -1.8240  1.4924 -1.1727
  695MOL0     H95879   7.211  13.223   3.512  0.0178  2.3871  1.6621
  695MOL0     H95880   7.179  13.439   3.588  1.1963 -2.5534 -0.1269
  695MOL0     H95881   7.113  13.497   3.433 -0.2163 -0.3328 -0.2422
  695MOL0     H95882   7.400  13.402   3.500  1.2253 -1.6600 -2.2981
  695MOL0     H95883   7.340  13.445   3.330  1.0187  1.2307 -0.3695
  695MOL0     H95884   7.469  13.625   3.470  0.2247 -1.2166  1.1731
  695MOL0     H95885   7.316  13.640   3.566 -1.8035  0.5921 -0.6275
  695MOL0     H95886   7.180  13.699   3.378  0.0752  1.8114  2.1956
  695MOL0     H95887   7.311  13.652   3.264  0.2006  1.4779 -0.2773
  695MOL0     H95888   7.310  13.906   3.273 -2.1497  0.2387  1.1930
  695MOL0     H95889   7.453  13.833   3.357 -0.2588  0.2023 -0.7939
  695MOL0     H95890   6.817  12.941   3.309  1.5538 -0.4576  0.1517
  695MOL0     H95891   6.727  12.721   3.309  1.0775 -1.7403  1.9059
  695MOL0     H95892   6.395  12.500   3.583 -2.3105 -0.0742 -2.6003
  695MOL0     H95893   6.229  12.336   3.624 -2.8406  2.2417 -2.6332
  695MOL0     H95894   5.667  10.770   4.547 -1.8469 -0.1212 -2.0184
  695MOL0     H95895   5.655  10.554   4.679  1.3785  1.7316 -2.9093
  695MOL0     H95896   5.416  10.319   4.928  1.5296 -1.6706 -1.8607
  695MOL0     H95897   5.404  10.071   5.000 -0.9488  0.7599  0.0814
  695MOL0     H95898   5.466   9.822   5.361 -0.7734  0.9254  3.4397
  695MOL0     H95899   5.610   9.932   5.373  1.2671  1.1940 -3.1472
  695MOL0     H95900   5.326  10.029   5.379  1.7569 -0.1537 -0.7174
  695MOL0     H95901   5.454  10.113   5.459 -1.9728  0.3243  2.7417
  695MOL0     H95902   5.331   9.851   5.546 -0.6547 -0.4059  3.7982
  695MOL0     H95903   5.491   9.920   5.608 -0.7232  3.1080  2.5710
  695MOL0     H95904   5.199  10.014   5.648 -1.0233  4.2009  1.5981
  695MOL0     H95905   5.330  10.129   5.686  0.4451  0.2803 -0.0160
  695MOL0     H95906   5.358   9.821   5.982  0.2336 -0.6161  0.0440
  695MOL0     H95907   5.641  10.144   5.325 -2.2518  2.7348  3.5080
  695MOL0     H95908   5.723  10.372   5.385  0.5842  3.4590  1.1609
  695MOL0     H95909   5.776  10.463   5.247  1.1068 -1.6262  0.1651
  695MOL0     H95910   5.622  10.503   5.316  1.9312  2.0681  1.9485
  696MOL0     O95911   0.304   5.560   8.696 -0.9050 -0.6559  0.5338
  696MOL0     C95912   0.242   5.666   8.696 -0.3612 -0.3084  0.4483
  696MOL0     O95913   0.117   5.687   8.732 -1.0842 -0.0778 -0.3526
  696MOL0     C95914   0.040   5.589   8.794  0.2858  0.2695  0.5480
  696MOL0     C95915  -0.100   5.606   8.783 -0.9491 -0.5872  0.3029
  696MOL0     C95916  -0.189   5.512   8.847 -0.0753 -0.1052  0.0733
  696MOL0     C95917  -0.140   5.403   8.926 -0.1052 -0.0005 -0.4105
  696MOL0     O95918  -0.226   5.314   8.982  0.0550 -0.3940 -0.4064
  696MOL0     C95919  -0.179   5.202   9.061 -0.3336  0.1156  0.3321
  696MOL0     C95920  -0.128   5.236   9.208  0.3605 -0.8031 -0.5691
  696MOL0     C95921  -0.185   5.141   9.307  0.1403  0.7043 -0.0894
  696MOL0     C95922  -0.090   5.026   9.338  0.6471 -0.4003  0.6487
  696MOL0     C95923  -0.159   4.928   9.433  0.1079 -0.2956 -0.2974
  696MOL0     C95924  -0.084   4.802   9.442  0.7959 -0.0294  0.9329
  696MOL0     C95925  -0.042   4.760   9.580 -0.1091  0.4277 -0.3684
  696MOL0     C95926  -0.142   4.668   9.643  0.1494 -0.3564  0.6209
  696MOL0     N95927  -0.105   4.633   9.785  0.1644  0.4691  0.2037
  696MOL0     C95928   0.007   4.566   9.829  0.0851  0.4459 -0.7274
  696MOL0     C95929  -0.006   4.570   9.969  0.8804 -0.6825 -0.6126
  696MOL0     C95930   0.096   4.522  10.072  0.5567 -0.1649  0.0462
  696MOL0     C95931   0.199   4.630  10.087  0.3556 -0.0514 -0.7194
  696MOL0     C95932   0.302   4.648   9.960 -0.3374 -0.2214  0.7262
  696MOL0     C95933   0.421   4.739   9.995 -0.1206  0.2960 -0.4894
  696MOL0     O95934   0.476   4.715  10.134 -0.1837 -0.0896  0.6067
  696MOL0     C95935   0.603   4.771  10.157  0.8797  0.3870 -0.2189
  696MOL0     C95936   0.626   4.911  10.144  1.5701 -1.0100 -0.0934
  696MOL0     C95937   0.728   4.979  10.201  0.4954  0.5726 -0.4963
  696MOL0     C95938   0.719   5.127  10.188 -1.8911  0.0200  0.0900
  696MOL0     C95939   0.829   4.919  10.267  0.0660  0.3997 -0.3781
  696MOL0     C95940   0.953   4.982  10.329 -0.6508  0.6286  0.0680
  696MOL0     O95941   1.052   4.893  10.348 -0.2342 -0.5028 -0.8581
  696MOL0     C95942   1.159   4.926  10.434  0.1307 -0.0663 -0.3897
  696MOL0     C95943   1.150   4.960  10.571  0.9596 -0.0167 -0.1052
  696MOL0     C95944   1.267   5.007  10.633  0.0308  0.2263 -0.2483
  696MOL0     C95945   1.390   5.018  10.570  0.6204  0.0211 -0.0199
  696MOL0     O95946   1.504   5.052  10.641  0.1361  0.5608 -0.0846
  696MOL0     C95947   1.493   5.152  10.742 -0.5761  0.2473  0.0863
  696MOL0     C95948   1.634   5.183  10.790 -0.0948  0.0332 -0.1220
  696MOL0     C95949   1.638   5.279  10.907 -0.6454 -0.0362 -0.6948
  696MOL0     C95950   1.758   5.376  10.902 -0.4827  0.5143  0.5981
  696MOL0     C95951   1.730   5.505  10.986  0.5132  0.2898 -0.4530
  696MOL0     C95952   1.851   5.599  11.003 -0.6189  0.0963 -0.6994
  696MOL0     C95953   1.821   5.746  11.051  0.5931 -0.2228 -0.2284
  696MOL0     C95954   1.748   5.751  11.179 -0.4849 -1.1178 -0.1993
  696MOL0    Cl95955   1.570   5.737  11.153 -0.2430 -0.1072 -0.6807
  696MOL0     C95956   1.400   4.982  10.434  0.1673  0.1545  0.4832
  696MOL0     C95957   1.281   4.950  10.365  1.6862  0.2390 -0.2709
  696MOL0     O95958   0.957   5.096  10.368  0.2819  0.4001 -0.0319
  696MOL0     C95959   0.811   4.778  10.277 -0.6968  0.5723 -0.5945
  696MOL0     C95960   0.699   4.706  10.223  0.1696 -0.9771 -0.6393
  696MOL0     N95961  -0.126   4.633  10.007 -0.0428  0.3606  0.5132
  696MOL0     N95962  -0.185   4.667   9.896 -0.5126 -0.0139  0.0981
  696MOL0     C95963  -0.003   5.397   8.942  0.1211 -0.0676 -0.8200
  696MOL0     C95964   0.084   5.480   8.869 -0.1164  0.1731  0.2053
  696MOL0     C95965   0.298   5.786   8.623 -0.3828  0.3395  0.3014
  696MOL0     C95966   0.231   5.832   8.514 -0.6471 -0.2637  0.3307
  696MOL0     C95967   0.285   5.936   8.439 -0.2380 -0.5062  0.0058
  696MOL0     C95968   0.417   5.991   8.470  0.2350 -0.1713  0.1776
  696MOL0     O95969   0.491   6.083   8.394 -0.1133  0.2680  0.0211
  696MOL0     C95970   0.454   6.100   8.255 -0.4385  0.5149  0.3255
  696MOL0     C95971   0.495   5.976   8.169  0.4677  0.6406 -0.0698
  696MOL0     C95972   0.453   5.989   8.020 -0.5063 -0.3474 -0.6478
  696MOL0     C95973   0.522   5.882   7.933  0.0557  0.0460 -0.2988
  696MOL0     C95974   0.479   5.884   7.791 -0.6491  0.1755 -0.9133
  696MOL0     C95975   0.472   5.900   7.677  0.4864  0.2816  0.2844
  696MOL0     C95976   0.472   5.950   8.586  0.9420  0.1723 -0.0469
  696MOL0     C95977   0.419   5.851   8.667  0.5581 -0.0264  0.1545
  696MOL0     C95978   0.486   5.820   8.798  0.5820  0.3719 -0.2202
  696MOL0     H95979  -0.143   5.681   8.717 -0.3495  0.9111  1.5427
  696MOL0     H95980  -0.296   5.526   8.847  0.0496  1.0425 -0.8739
  696MOL0     H95981  -0.105   5.155   8.995  1.7701  3.5062  0.0561
  696MOL0     H95982  -0.263   5.133   9.072  1.1712 -2.4082 -2.2537
  696MOL0     H95983  -0.019   5.246   9.206  0.4105 -1.3027 -2.8031
  696MOL0     H95984  -0.177   5.333   9.219 -1.0692 -1.5044 -0.4781
  696MOL0     H95985  -0.198   5.194   9.402  0.6503  0.6393  0.0164
  696MOL0     H95986  -0.286   5.104   9.284  0.0768  1.7941 -1.6946
  696MOL0     H95987  -0.066   4.980   9.242  0.9076  2.0253 -0.5403
  696MOL0     H95988   0.008   5.067   9.362  0.2515  1.6992 -0.9569
  696MOL0     H95989  -0.262   4.921   9.400 -0.4563  3.2214  0.2517
  696MOL0     H95990  -0.169   4.978   9.530 -0.8210 -0.5179 -0.2745
  696MOL0     H95991  -0.123   4.713   9.391 -1.2235 -0.2483  2.7051
  696MOL0     H95992   0.013   4.819   9.394 -0.0295  0.1220 -0.7616
  696MOL0     H95993  -0.017   4.854   9.630 -0.5140  2.0026 -2.9120
  696MOL0     H95994   0.049   4.700   9.571 -0.5266 -0.1481 -0.8363
  696MOL0     H95995  -0.235   4.724   9.651 -1.8987 -3.6888  2.6548
  696MOL0     H95996  -0.169   4.579   9.586 -0.8455  0.1909  0.2117
  696MOL0     H95997   0.097   4.533   9.779 -0.6133  1.8537 -3.0247
  696MOL0     H95998   0.141   4.429  10.037 -2.2847 -1.9462  0.7852
  696MOL0     H95999   0.031   4.500  10.157  0.2343 -4.4176 -1.0994
  696MOL0     H96000   0.137   4.717  10.109 -1.1892 -1.5024  1.0939
  696MOL0     H96001   0.255   4.613  10.180  1.0416  0.9286 -0.9413
  696MOL0     H96002   0.349   4.555   9.930 -1.9336 -0.9649  0.4103
  696MOL0     H96003   0.239   4.700   9.887 -1.2423  1.5229  2.6196
  696MOL0     H96004   0.508   4.724   9.931  1.0512  2.0285  0.5985
  696MOL0     H96005   0.382   4.842   9.989 -2.9667 -0.4539  2.4487
  696MOL0     H96006   0.539   4.964  10.107  0.0656 -1.8706  2.0132
  696MOL0     H96007   0.620   5.154  10.150 -1.6391 -1.5032 -1.8285
  696MOL0     H96008   0.793   5.153  10.111 -1.1431 -2.2196 -0.0326
  696MOL0     H96009   0.742   5.168  10.287 -0.1127 -1.9005  0.5529
  696MOL0     H96010   1.058   4.935  10.623 -1.7765 -0.2943 -4.5615
  696MOL0     H96011   1.256   5.029  10.739  0.6013 -0.3276 -0.0645
  696MOL0     H96012   1.451   5.246  10.705 -0.8796 -0.2434 -0.8594
  696MOL0     H96013   1.440   5.112  10.829  2.6740 -1.8301  1.2970
  696MOL0     H96014   1.672   5.085  10.820 -3.6778 -1.0910  1.3758
  696MOL0     H96015   1.697   5.221  10.710  2.8002  1.2364  2.5449
  696MOL0     H96016   1.636   5.239  11.009 -2.1856  2.5014  0.3664
  696MOL0     H96017   1.542   5.330  10.893 -0.0289  0.9802 -1.2772
  696MOL0     H96018   1.786   5.418  10.805  0.2392  1.4001  1.1758
  696MOL0     H96019   1.851   5.325  10.929  0.4558 -0.4706 -3.6439
  696MOL0     H96020   1.655   5.561  10.931  0.3365  0.7291  0.2224
  696MOL0     H96021   1.687   5.477  11.082  1.0880  1.1526  0.0738
  696MOL0     H96022   1.919   5.596  10.917 -2.1694 -0.1959 -1.9613
  696MOL0     H96023   1.904   5.555  11.088 -2.6823 -0.3599  0.4358
  696MOL0     H96024   1.761   5.805  10.980 -0.7434  0.4533  1.4158
  696MOL0     H96025   1.916   5.800  11.056  0.2939  0.1782  3.7906
  696MOL0     H96026   1.765   5.849  11.224  2.0217 -0.4526 -2.3239
  696MOL0     H96027   1.781   5.680  11.256  1.5556  0.1388  0.1643
  696MOL0     H96028   1.495   4.989  10.382 -0.3003 -0.3814 -0.4673
  696MOL0     H96029   1.264   4.940  10.258 -0.8672  1.1219 -0.0144
  696MOL0     H96030   0.890   4.718  10.322 -1.5946  0.9399  1.6009
  696MOL0     H96031   0.690   4.599  10.236  2.0616 -1.0225  0.7904
  696MOL0     H96032   0.042   5.323   9.007  0.2922 -1.2585 -2.2290
  696MOL0     H96033   0.190   5.475   8.891 -0.0848  2.3473  0.8561
  696MOL0     H96034   0.132   5.788   8.500 -1.1936  0.6012  1.2732
  696MOL0     H96035   0.221   5.957   8.354 -1.0296 -1.3799  0.3705
  696MOL0     H96036   0.346   6.116   8.249 -0.9224 -1.9557  1.4520
  696MOL0     H96037   0.509   6.189   8.222 -0.1456  0.9621  1.9104
  696MOL0     H96038   0.441   5.893   8.215  1.1503  0.7795  1.0198
  696MOL0     H96039   0.601   5.951   8.176 -0.1341 -2.3713 -0.3548
  696MOL0     H96040   0.345   5.993   8.003 -0.2547  2.0686 -2.1343
  696MOL0     H96041   0.477   6.090   7.987 -1.2855  0.2367  0.5013
  696MOL0     H96042   0.521   5.778   7.967  1.8265 -0.0916 -0.5604
  696MOL0     H96043   0.628   5.907   7.922 -0.1100  0.4408 -1.1728
  696MOL0     H96044   0.461   5.919   7.572  1.5925 -0.4645  0.0075
  696MOL0     H96045   0.564   5.999   8.614  2.4441 -0.0173 -4.0694
  696MOL0     H96046   0.415   5.798   8.877 -1.0922  1.2091 -1.4201
  696MOL0     H96047   0.553   5.737   8.772 -0.9930 -1.5620  1.5864
  696MOL0     H96048   0.545   5.906   8.832 -2.1018  1.6114  1.6765
  697MOL0     O96049   2.882   5.064   6.921  0.1125  1.2162  0.8232
  697MOL0     C96050   2.969   4.985   6.952  0.7610 -0.4537 -0.2566
  697MOL0     O96051   2.946   4.861   7.006 -0.3209  1.3212 -0.5922
  697MOL0     C96052   2.821   4.830   7.056 -0.0338 -0.0920 -0.9194
  697MOL0     C96053   2.770   4.920   7.159 -0.1347  0.2238  0.1877
  697MOL0     C96054   2.649   4.899   7.217  0.7399 -0.1744  1.1051
  697MOL0     C96055   2.586   4.773   7.193  0.2705  0.0772  0.7063
  697MOL0     O96056   2.481   4.740   7.273 -0.1033  0.1149 -0.9917
  697MOL0     C96057   2.365   4.695   7.208 -1.0673  0.1107 -0.2349
  697MOL0     C96058   2.279   4.635   7.315 -0.0224  0.0982  0.4917
  697MOL0     C96059   2.126   4.636   7.277  0.1285 -0.0900 -0.5410
  697MOL0     C96060   2.095   4.601   7.126 -0.0107 -0.8230 -0.4395
  697MOL0     C96061   1.946   4.646   7.088 -0.3551  0.2065  0.6042
  697MOL0     C96062   1.928   4.593   6.941 -0.2313 -0.5561 -1.2944
  697MOL0     C96063   1.778   4.600   6.889 -0.9866  0.9801  0.7816
  697MOL0     C96064   1.726   4.744   6.875 -0.9030  0.1605  0.9459
  697MOL0     N96065   1.586   4.746   6.836  0.0029  0.5690  0.6808
  697MOL0     C96066   1.474   4.679   6.881 -0.6055  0.8282  0.0893
  697MOL0     C96067   1.377   4.707   6.795  1.0291  1.1743  0.1944
  697MOL0     C96068   1.230   4.644   6.803  0.2475  0.5640 -0.7976
  697MOL0     C96069   1.124   4.707   6.711 -0.0128  0.7811 -0.3194
  697MOL0     C96070   1.094   4.855   6.748 -0.6080  0.7957 -0.5081
  697MOL0     C96071   0.960   4.905   6.680  0.1238 -0.1770  0.8865
  697MOL0     O96072   0.849   4.818   6.700  0.3687  0.2044  0.8395
  697MOL0     C96073   0.733   4.845   6.633  0.0613 -0.0817  0.4642
  697MOL0     C96074   0.712   4.953   6.546  0.5198 -0.0583 -0.4302
  697MOL0     C96075   0.589   4.970   6.473  0.3608  0.0197  0.0154
  697MOL0     C96076   0.574   5.097   6.394  0.6369 -0.0870 -0.5976
  697MOL0     C96077   0.486   4.881   6.492 -0.1448  0.0817  0.9419
  697MOL0     C96078   0.362   4.881   6.410 -0.3410 -0.5846 -0.6367
  697MOL0     O96079   0.285   4.785   6.441  0.5151 -0.5057  0.2546
  697MOL0     C96080   0.162   4.759   6.390 -0.9043 -0.6622 -1.2414
  697MOL0     C96081   0.048   4.833   6.407 -0.5640  0.0827  0.8004
  697MOL0     C96082  -0.074   4.801   6.351 -1.0230 -0.1615  0.3936
  697MOL0     C96083  -0.076   4.692   6.260  0.4321  0.0835 -0.1118
  697MOL0     O96084  -0.183   4.650   6.184 -0.6079 -0.0850  0.3631
  697MOL0     C96085  -0.318   4.708   6.202  0.5484  0.7597  0.4458
  697MOL0     C96086  -0.428   4.604   6.164  0.4217 -0.7519 -0.4290
  697MOL0     C96087  -0.435   4.591   6.013  0.6986 -0.1670 -0.2299
  697MOL0     C96088  -0.513   4.697   5.936  0.3266  1.2761 -1.5905
  697MOL0     C96089  -0.657   4.722   5.988 -0.2176  0.3821 -0.2840
  697MOL0     C96090  -0.747   4.798   5.887  1.0255 -1.0077  0.2368
  697MOL0     C96091  -0.889   4.817   5.940 -0.2953  0.7092 -0.3024
  697MOL0     C96092  -0.989   4.895   5.853  0.1763 -0.2328 -0.2271
  697MOL0    Cl96093  -0.921   5.049   5.785 -0.4123  0.0828  0.2945
  697MOL0     C96094   0.037   4.611   6.238 -0.1318  0.1297  0.4219
  697MOL0     C96095   0.154   4.652   6.299 -0.1791  0.5706  0.2204
  697MOL0     O96096   0.338   4.964   6.318 -0.1253  0.4250  0.0132
  697MOL0     C96097   0.513   4.768   6.571 -0.5680  0.2699 -0.2229
  697MOL0     C96098   0.630   4.756   6.646  0.0341  0.2309 -0.8592
  697MOL0     N96099   1.430   4.786   6.696  1.1964  0.2765 -0.4643
  697MOL0     N96100   1.552   4.800   6.720 -0.1617 -1.1589  0.3826
  697MOL0     C96101   2.643   4.684   7.098  0.3194  0.1823 -0.4318
  697MOL0     C96102   2.756   4.715   7.025 -0.3185 -0.0151 -1.0468
  697MOL0     C96103   3.107   5.035   6.948  1.2954  0.0825  0.0172
  697MOL0     C96104   3.203   4.947   6.987  0.7057  0.5602 -0.4088
  697MOL0     C96105   3.336   4.978   6.994 -0.0774 -0.2863  0.0292
  697MOL0     C96106   3.379   5.109   6.963  0.4100 -0.2250 -0.7972
  697MOL0     O96107   3.511   5.132   6.961  0.5218 -0.5785  0.6914
  697MOL0     C96108   3.558   5.273   6.953  0.2106  0.3756 -0.1967
  697MOL0     C96109   3.702   5.293   6.970 -0.5401  0.6195 -0.0830
  697MOL0     C96110   3.746   5.229   7.105 -0.9567  1.1072  0.4643
  697MOL0     C96111   3.885   5.288   7.146 -0.4402 -0.3953 -0.0940
  697MOL0     C96112   3.940   5.217   7.258  0.4283 -0.1660 -0.5062
  697MOL0     C96113   3.990   5.173   7.357  0.2193  0.2081 -0.6722
  697MOL0     C96114   3.285   5.207   6.933  1.1444  0.6069  0.6086
  697MOL0     C96115   3.146   5.168   6.917 -0.3430  0.4070 -1.3045
  697MOL0     C96116   3.054   5.287   6.889 -0.4878  0.4687  0.2600
  697MOL0     H96117   2.836   5.002   7.183  0.3436  0.2833 -1.2239
  697MOL0     H96118   2.598   4.974   7.276  0.6404  0.5509  0.1213
  697MOL0     H96119   2.392   4.634   7.122  2.0095 -1.0455  1.4046
  697MOL0     H96120   2.313   4.784   7.172 -2.3969  0.4380  2.2792
  697MOL0     H96121   2.305   4.531   7.339 -4.0200 -1.7697 -2.0378
  697MOL0     H96122   2.291   4.692   7.407 -0.3116 -0.7873  1.1003
  697MOL0     H96123   2.069   4.569   7.343  1.3186  1.1750  1.9130
  697MOL0     H96124   2.085   4.736   7.295 -1.5260 -0.7717 -0.2829
  697MOL0     H96125   2.168   4.652   7.063  0.3347 -0.0194  0.5887
  697MOL0     H96126   2.112   4.494   7.113  2.1757 -0.4818 -0.7319
  697MOL0     H96127   1.945   4.756   7.088 -1.5082  0.2124  0.9296
  697MOL0     H96128   1.875   4.606   7.161 -0.0005  0.5193  1.1355
  697MOL0     H96129   2.001   4.648   6.881  3.5672 -0.3800  2.9161
  697MOL0     H96130   1.967   4.491   6.949  2.0334  0.2597 -1.1746
  697MOL0     H96131   1.712   4.544   6.956  0.1618 -0.9568  0.3657
  697MOL0     H96132   1.778   4.545   6.794  2.5161  0.0453  1.2034
  697MOL0     H96133   1.742   4.789   6.973 -1.6909  0.9026  0.7399
  697MOL0     H96134   1.781   4.787   6.791 -0.5746 -0.9096  0.5919
  697MOL0     H96135   1.471   4.612   6.966 -1.1831  2.9983  1.8810
  697MOL0     H96136   1.197   4.658   6.906 -1.0985 -1.6048 -0.8675
  697MOL0     H96137   1.227   4.535   6.795 -5.0223 -0.1443  4.4264
  697MOL0     H96138   1.167   4.705   6.611  0.7047  0.3286 -0.0112
  697MOL0     H96139   1.037   4.641   6.719  1.3783 -1.3182 -1.5219
  697MOL0     H96140   1.086   4.856   6.858  1.7024  1.3453 -0.2937
  697MOL0     H96141   1.182   4.919   6.736  0.3217  0.4763  3.2622
  697MOL0     H96142   0.934   5.003   6.720  0.3600  0.1091  0.3515
  697MOL0     H96143   0.983   4.921   6.574  0.4800  3.1245  1.3740
  697MOL0     H96144   0.790   5.025   6.525  0.0459  1.6722  3.0346
  697MOL0     H96145   0.652   5.172   6.413  1.4326 -1.2906  1.0501
  697MOL0     H96146   0.477   5.146   6.407  0.2416 -0.7368 -0.9925
  697MOL0     H96147   0.567   5.083   6.285 -0.2100 -0.0788 -0.5496
  697MOL0     H96148   0.057   4.921   6.470 -0.0053 -0.4363  1.4625
  697MOL0     H96149  -0.150   4.875   6.373 -1.5432  0.1195 -2.1244
  697MOL0     H96150  -0.331   4.736   6.307 -1.9342  2.7738 -0.3030
  697MOL0     H96151  -0.322   4.800   6.142  2.3312 -0.1146 -1.1378
  697MOL0     H96152  -0.401   4.510   6.211 -4.6247 -2.0516  0.4843
  697MOL0     H96153  -0.527   4.624   6.206  0.9046 -1.2112  0.9751
  697MOL0     H96154  -0.486   4.497   5.991 -0.3537  0.8158 -2.3143
  697MOL0     H96155  -0.334   4.603   5.973  1.5474  0.1982  1.8675
  697MOL0     H96156  -0.504   4.668   5.831  2.1208 -2.8903 -0.4872
  697MOL0     H96157  -0.448   4.785   5.952  0.2898  1.1249 -0.5219
  697MOL0     H96158  -0.705   4.636   6.034  2.2656 -1.1344 -0.3583
  697MOL0     H96159  -0.655   4.800   6.065 -0.0087  0.5148 -0.4216
  697MOL0     H96160  -0.753   4.746   5.791  1.9202 -1.1114  0.2295
  697MOL0     H96161  -0.695   4.893   5.870  2.0573 -1.8805 -1.9059
  697MOL0     H96162  -0.871   4.871   6.033  0.3665 -1.1601  0.7042
  697MOL0     H96163  -0.925   4.720   5.973 -0.2870  1.6405  2.6714
  697MOL0     H96164  -1.072   4.927   5.916  0.4327  0.5453 -0.2720
  697MOL0     H96165  -1.038   4.834   5.777 -1.3118  1.6098 -0.8313
  697MOL0     H96166   0.041   4.543   6.154 -1.9432  0.2613  0.1848
  697MOL0     H96167   0.244   4.598   6.271 -1.1422 -1.8015  1.4016
  697MOL0     H96168   0.427   4.707   6.598 -0.0441 -1.7816 -2.7913
  697MOL0     H96169   0.632   4.680   6.722 -1.3944 -1.9732 -2.8809
  697MOL0     H96170   2.585   4.598   7.066  0.8278 -0.7321  1.0149
  697MOL0     H96171   2.808   4.659   6.948  2.1080  1.9163 -0.9721
  697MOL0     H96172   3.174   4.850   7.028 -0.6490  2.1075  2.6296
  697MOL0     H96173   3.408   4.903   7.026 -0.6853 -0.3854  1.2207
  697MOL0     H96174   3.525   5.311   6.856 -3.0525 -1.3374  0.0883
  697MOL0     H96175   3.512   5.336   7.031  1.5364 -1.0639  1.8555
  697MOL0     H96176   3.709   5.402   6.968 -2.4006  0.7510 -1.1283
  697MOL0     H96177   3.758   5.254   6.885  0.5884 -0.4297  1.0900
  697MOL0     H96178   3.676   5.253   7.185 -2.6254 -2.2754  0.2149
  697MOL0     H96179   3.751   5.120   7.098 -1.1737  1.0491  1.1735
  697MOL0     H96180   3.870   5.394   7.170  0.2044  0.6701 -3.8838
  697MOL0     H96181   3.958   5.281   7.066  0.1831  0.8407  0.3339
  697MOL0     H96182   4.046   5.146   7.445 -1.2342 -1.4441 -0.2031
  697MOL0     H96183   3.307   5.308   6.899  0.3463 -0.1858 -2.6001
  697MOL0     H96184   3.021   5.297   6.785  0.6931 -2.1596 -0.4552
  697MOL0     H96185   2.975   5.264   6.962 -0.1143 -3.6969 -0.3983
  697MOL0     H96186   3.096   5.382   6.923  0.9344 -0.1808  0.3809
  698MOL0     O96187   3.190   3.548   1.896  0.2892 -0.7281 -0.3802
  698MOL0     C96188   3.298   3.487   1.912  0.0562 -0.1264  0.8502
  698MOL0     O96189   3.327   3.391   2.010  0.1341  0.0873 -0.6245
  698MOL0     C96190   3.233   3.342   2.091  0.0330 -0.0811  0.2157
  698MOL0     C96191   3.114   3.288   2.042  0.7637  0.0557  0.0253
  698MOL0     C96192   3.018   3.232   2.127 -0.5943  0.3385 -0.8751
  698MOL0     C96193   3.061   3.214   2.263  0.0542  0.0418  0.1467
  698MOL0     O96194   2.974   3.148   2.354  0.2076  0.0391  0.5643
  698MOL0     C96195   2.924   3.022   2.319  0.2614 -0.4613 -0.0885
  698MOL0     C96196   2.862   2.955   2.442  0.1389 -0.6236 -0.8481
  698MOL0     C96197   2.775   2.845   2.406  0.3716 -0.0313 -0.4283
  698MOL0     C96198   2.721   2.788   2.541  0.2751  0.0763  0.8101
  698MOL0     C96199   2.611   2.683   2.503  0.6220 -0.8552 -0.5423
  698MOL0     C96200   2.476   2.744   2.458 -0.1415 -0.1441 -0.1108
  698MOL0     C96201   2.373   2.638   2.441 -0.1739  0.6008 -0.9063
  698MOL0     C96202   2.313   2.585   2.582  0.3788  0.1733  0.4108
  698MOL0     N96203   2.213   2.482   2.562  0.0314  0.8384 -0.2321
  698MOL0     C96204   2.200   2.369   2.636  0.7229  0.5034 -0.5074
  698MOL0     C96205   2.080   2.315   2.590  0.9523  0.1210 -1.2787
  698MOL0     C96206   2.004   2.192   2.637 -0.1479 -0.4334 -0.6676
  698MOL0     C96207   2.059   2.060   2.575  0.0990 -0.5180 -0.1925
  698MOL0     C96208   1.968   1.956   2.626  0.0584  0.5257  0.6730
  698MOL0     C96209   1.978   1.832   2.547  1.2868 -0.0006 -0.0322
  698MOL0     O96210   2.105   1.780   2.522 -0.4048 -0.5021 -0.7423
  698MOL0     C96211   2.197   1.724   2.610 -1.0916  0.3239 -0.3733
  698MOL0     C96212   2.326   1.692   2.561  0.9373 -0.5500  0.9640
  698MOL0     C96213   2.426   1.630   2.638  0.2304 -0.6957 -1.0488
  698MOL0     C96214   2.562   1.625   2.584  0.4301 -0.4631 -0.1424
  698MOL0     C96215   2.393   1.590   2.770  0.4109  0.4421  0.4191
  698MOL0     C96216   2.484   1.521   2.864 -0.2085  0.0381  0.5789
  698MOL0     O96217   2.432   1.423   2.947  0.1661 -0.0095  0.4042
  698MOL0     C96218   2.497   1.364   3.049  0.1575  0.5206 -1.0092
  698MOL0     C96219   2.469   1.229   3.078  0.8348 -0.2518 -0.1645
  698MOL0     C96220   2.544   1.153   3.167  0.3852  0.5426 -0.0204
  698MOL0     C96221   2.632   1.210   3.250 -0.6894 -0.5407  0.1504
  698MOL0     O96222   2.720   1.153   3.336  0.5192 -0.0676 -0.1887
  698MOL0     C96223   2.755   1.020   3.296 -0.2172  0.3043  0.2724
  698MOL0     C96224   2.847   0.942   3.389 -0.5655 -0.4661  0.2679
  698MOL0     C96225   2.945   0.849   3.319 -0.2855  0.1915 -0.0891
  698MOL0     C96226   3.021   0.748   3.417  0.2339 -0.5718  0.6280
  698MOL0     C96227   2.922   0.642   3.466 -0.0340 -0.4899 -0.2927
  698MOL0     C96228   2.987   0.536   3.553 -0.1741 -1.2499 -0.0044
  698MOL0     C96229   3.011   0.583   3.697  0.3376  0.1943  0.4297
  698MOL0     C96230   3.082   0.471   3.773  0.4860  0.4374 -0.2368
  698MOL0    Cl96231   3.025   0.290   3.743 -0.2466  0.2041  0.2475
  698MOL0     C96232   2.659   1.348   3.237 -0.0721  0.4332 -0.0789
  698MOL0     C96233   2.582   1.421   3.143  0.9982 -0.8399 -0.0322
  698MOL0     O96234   2.600   1.551   2.861  0.6566  0.0669 -0.0202
  698MOL0     C96235   2.259   1.605   2.813  0.3831  0.0677  0.1681
  698MOL0     C96236   2.162   1.678   2.738  0.4609  0.4211 -1.2905
  698MOL0     N96237   2.024   2.390   2.489 -0.8575 -0.2462 -0.1111
  698MOL0     N96238   2.099   2.497   2.472  0.4655 -0.3051  0.2397
  698MOL0     C96239   3.172   3.280   2.313  0.6127  0.2549  0.6102
  698MOL0     C96240   3.257   3.349   2.225  0.5121  0.3868  0.5999
  698MOL0     C96241   3.404   3.502   1.811 -0.2227 -0.2868  0.3326
  698MOL0     C96242   3.503   3.397   1.806  0.4848  0.5588  0.0432
  698MOL0     C96243   3.602   3.405   1.708 -0.1557  0.6812  0.4101
  698MOL0     C96244   3.612   3.502   1.616  1.4372 -0.3269 -0.4115
  698MOL0     O96245   3.705   3.504   1.514  0.6753 -0.0817 -0.1097
  698MOL0     C96246   3.756   3.373   1.459  0.2359  0.0348 -0.1798
  698MOL0     C96247   3.655   3.290   1.378  0.0998  0.3161 -0.5667
  698MOL0     C96248   3.558   3.392   1.296  0.2585  0.5770 -0.4061
  698MOL0     C96249   3.631   3.463   1.175  0.2704 -0.7921  0.5031
  698MOL0     C96250   3.539   3.504   1.069  0.0902 -0.5908  0.6243
  698MOL0     C96251   3.474   3.524   0.971  0.2351  0.4637  0.4616
  698MOL0     C96252   3.517   3.598   1.616  0.2754  0.3400  0.0306
  698MOL0     C96253   3.415   3.603   1.711 -0.0936 -0.6644  0.1936
  698MOL0     C96254   3.325   3.725   1.703 -0.5009  0.3269  0.2120
  698MOL0     H96255   3.092   3.293   1.936 -0.6017  2.8720  0.3468
  698MOL0     H96256   2.933   3.184   2.080 -0.3581  0.3998 -1.3691
  698MOL0     H96257   2.998   2.962   2.265  0.0595  1.8025 -3.1458
  698MOL0     H96258   2.844   3.041   2.246  0.8905  0.6511 -0.4967
  698MOL0     H96259   2.943   2.923   2.508 -0.9575  3.6410  3.1003
  698MOL0     H96260   2.811   3.022   2.512  0.9727 -1.5494  0.7074
  698MOL0     H96261   2.693   2.885   2.346  1.9048  3.2650 -0.5418
  698MOL0     H96262   2.833   2.776   2.344 -1.1747  0.1699 -2.1848
  698MOL0     H96263   2.800   2.740   2.600  0.6695  1.6827  1.6621
  698MOL0     H96264   2.680   2.856   2.617 -0.4941 -1.0813  1.4500
  698MOL0     H96265   2.583   2.633   2.596  1.2652 -0.4760 -0.1330
  698MOL0     H96266   2.654   2.607   2.437  1.7831 -2.3753  1.8227
  698MOL0     H96267   2.438   2.820   2.526  1.2415  0.2271  0.2815
  698MOL0     H96268   2.497   2.788   2.360  2.4718 -0.3765  0.2620
  698MOL0     H96269   2.414   2.549   2.394 -0.3794 -0.6088  1.1073
  698MOL0     H96270   2.298   2.683   2.374 -0.5987 -0.9403 -1.5050
  698MOL0     H96271   2.388   2.541   2.648  1.2327  1.3159  0.2368
  698MOL0     H96272   2.267   2.667   2.636  3.2040  2.0267  0.2325
  698MOL0     H96273   2.259   2.322   2.714  0.4589 -5.0271 -3.1242
  698MOL0     H96274   1.896   2.198   2.621 -0.0901  1.1959 -0.6406
  698MOL0     H96275   2.033   2.170   2.740 -0.0574  2.6064  0.0653
  698MOL0     H96276   2.045   2.068   2.467 -0.3661  4.1738 -0.0293
  698MOL0     H96277   2.166   2.054   2.595  0.2593  2.8022  0.6327
  698MOL0     H96278   1.974   1.932   2.732 -2.0753  0.3447  0.8086
  698MOL0     H96279   1.867   1.991   2.603  0.3204 -0.1366 -1.8851
  698MOL0     H96280   1.921   1.765   2.612 -1.0873  1.2239 -0.7354
  698MOL0     H96281   1.925   1.843   2.452  0.2639  0.7300  0.6099
  698MOL0     H96282   2.347   1.715   2.457  0.7834 -4.0498  0.0255
  698MOL0     H96283   2.613   1.551   2.646 -0.0179  0.3488  1.2303
  698MOL0     H96284   2.611   1.722   2.582 -1.8185  0.7448 -1.1583
  698MOL0     H96285   2.559   1.589   2.480  1.5992 -1.0036 -0.0052
  698MOL0     H96286   2.389   1.188   3.017 -3.4820  4.1806  1.9486
  698MOL0     H96287   2.519   1.047   3.171  0.2353  0.5960  0.6971
  698MOL0     H96288   2.668   0.956   3.276 -0.2321  0.5423 -0.4218
  698MOL0     H96289   2.808   1.030   3.202  0.6189  1.7311  0.8747
  698MOL0     H96290   2.912   1.024   3.422 -1.2606  0.3253 -0.2749
  698MOL0     H96291   2.798   0.886   3.469 -0.3351 -0.7634  0.2051
  698MOL0     H96292   3.015   0.910   3.260  1.4377 -1.0122  0.6261
  698MOL0     H96293   2.901   0.784   3.243 -1.8556 -0.4920  1.3463
  698MOL0     H96294   3.061   0.797   3.506  1.9654 -1.7762  0.5752
  698MOL0     H96295   3.109   0.704   3.368  0.1008 -2.7184  2.1715
  698MOL0     H96296   2.832   0.680   3.516  0.4536  1.9496 -1.0908
  698MOL0     H96297   2.894   0.597   3.371 -1.2979 -2.1887  0.8438
  698MOL0     H96298   3.080   0.495   3.512 -0.2686  0.4820 -2.0893
  698MOL0     H96299   2.920   0.449   3.565  0.4460 -1.6679  0.4779
  698MOL0     H96300   2.916   0.605   3.745  0.9924 -0.0363  1.8955
  698MOL0     H96301   3.063   0.680   3.701  1.4121 -0.3788  0.6479
  698MOL0     H96302   3.075   0.500   3.878  3.3999  0.2622  0.1033
  698MOL0     H96303   3.185   0.461   3.736  0.3843 -1.8507 -0.0353
  698MOL0     H96304   2.738   1.387   3.302 -0.1589 -0.4540  0.5744
  698MOL0     H96305   2.591   1.528   3.135  0.4327 -0.9386 -2.7094
  698MOL0     H96306   2.225   1.555   2.903 -0.8169 -0.5218 -0.5930
  698MOL0     H96307   2.061   1.695   2.773  1.7613  2.2776  1.9401
  698MOL0     H96308   3.183   3.277   2.421 -2.3660  0.6464  1.0275
  698MOL0     H96309   3.334   3.411   2.269  0.9215 -1.0571  1.9737
  698MOL0     H96310   3.503   3.314   1.877 -2.6745 -0.5455 -1.0812
  698MOL0     H96311   3.682   3.332   1.695 -0.7292  0.6239 -4.4296
  698MOL0     H96312   3.839   3.392   1.391  0.4736  1.2192  0.4035
  698MOL0     H96313   3.799   3.308   1.535 -0.5653  0.0231  0.2814
  698MOL0     H96314   3.594   3.235   1.450 -1.2625  2.9932  0.4475
  698MOL0     H96315   3.702   3.216   1.312 -4.7966 -1.4294 -2.5291
  698MOL0     H96316   3.475   3.332   1.257  0.6256  0.1713 -0.5763
  698MOL0     H96317   3.506   3.463   1.361 -2.5779  0.8144 -2.7182
  698MOL0     H96318   3.702   3.393   1.129  0.4153  0.3298 -1.0522
  698MOL0     H96319   3.700   3.541   1.208  1.4822 -0.8808 -1.6123
  698MOL0     H96320   3.418   3.514   0.881 -1.2945 -0.6123  1.4804
  698MOL0     H96321   3.528   3.679   1.544 -1.8821  2.2885  1.7431
  698MOL0     H96322   3.300   3.764   1.802 -2.9341 -0.2731 -0.0957
  698MOL0     H96323   3.369   3.805   1.643 -0.1782  0.4493  0.6109
  698MOL0     H96324   3.232   3.695   1.653  0.3568  1.8924 -2.5240
  699MOL0     O96325   7.150   5.727  10.917 -0.4526 -0.9723 -0.2203
  699MOL0     C96326   7.180   5.608  10.918 -0.6063 -0.4371  0.4421
  699MOL0     O96327   7.306   5.570  10.936 -0.0335  0.0107 -0.9235
  699MOL0     C96328   7.393   5.666  10.970 -0.6089  0.4219  0.0539
  699MOL0     C96329   7.497   5.700  10.888 -0.2980  0.4448 -0.1842
  699MOL0     C96330   7.591   5.799  10.920  1.0265 -0.4216 -0.1512
  699MOL0     C96331   7.593   5.855  11.047  0.0319  0.0256 -0.0923
  699MOL0     O96332   7.708   5.936  11.078 -0.6240  0.1586 -0.0548
  699MOL0     C96333   7.718   6.051  10.986 -0.1350  0.6111 -0.2421
  699MOL0     C96334   7.832   6.148  11.033 -0.7219  0.1068 -0.5288
  699MOL0     C96335   7.803   6.213  11.168 -0.4409  0.2987 -0.4780
  699MOL0     C96336   7.925   6.197  11.256 -1.2067  0.0544  0.8825
  699MOL0     C96337   7.910   6.257  11.386  0.0320 -0.0749 -0.6704
  699MOL0     C96338   7.795   6.216  11.469  0.9636  1.5341  0.2458
  699MOL0     C96339   7.782   6.068  11.508 -0.3903  0.1653 -0.0172
  699MOL0     C96340   7.643   6.006  11.509  0.2894 -0.4945  0.0338
  699MOL0     N96341   7.658   5.863  11.540  0.2582 -0.4375  0.1684
  699MOL0     C96342   7.752   5.771  11.490 -0.5726  0.1788  0.3210
  699MOL0     C96343   7.687   5.655  11.513  1.1096 -0.1661  0.3028
  699MOL0     C96344   7.713   5.517  11.453 -0.2198 -0.4229 -0.4355
  699MOL0     C96345   7.613   5.475  11.348 -0.4450  0.2947 -0.7660
  699MOL0     C96346   7.644   5.325  11.313 -0.8445 -0.0809 -0.9515
  699MOL0     C96347   7.537   5.267  11.219 -0.8434 -0.2214 -0.8209
  699MOL0     O96348   7.451   5.190  11.305 -0.3169  0.3216 -0.2331
  699MOL0     C96349   7.360   5.117  11.236  1.1227 -1.0261  0.5965
  699MOL0     C96350   7.248   5.086  11.311 -0.3104 -1.0214 -0.1784
  699MOL0     C96351   7.128   5.030  11.258 -0.2909  0.4799 -0.0619
  699MOL0     C96352   7.017   4.986  11.350 -0.4347 -0.3055 -0.0941
  699MOL0     C96353   7.123   5.001  11.123 -0.3456  0.0591 -0.2262
  699MOL0     C96354   7.006   4.936  11.066 -0.1021 -0.1254 -0.2281
  699MOL0     O96355   7.029   4.816  10.996 -0.6465  0.4486 -0.0889
  699MOL0     C96356   6.928   4.734  10.950  0.6530 -0.4608  0.4788
  699MOL0     C96357   6.911   4.607  10.983 -0.7980  0.2104  0.7393
  699MOL0     C96358   6.817   4.519  10.928 -0.0145 -0.0825  0.9069
  699MOL0     C96359   6.724   4.568  10.842 -0.7762  0.1636 -0.3120
  699MOL0     O96360   6.636   4.475  10.796  0.9391 -0.6256  0.5434
  699MOL0     C96361   6.505   4.523  10.804 -0.4494  0.5744 -0.3617
  699MOL0     C96362   6.409   4.413  10.761  0.0461 -0.3724  0.6982
  699MOL0     C96363   6.418   4.378  10.603  0.4668 -0.6766 -0.5418
  699MOL0     C96364   6.362   4.236  10.581  0.1916  0.7486  0.0154
  699MOL0     C96365   6.398   4.180  10.444 -0.0673  0.4511  1.0485
  699MOL0     C96366   6.337   4.254  10.323 -0.0181  0.9880 -0.5149
  699MOL0     C96367   6.330   4.159  10.202 -0.1558  0.2488  0.2626
  699MOL0     C96368   6.266   4.227  10.079  0.4179 -0.9523  0.4660
  699MOL0    Cl96369   6.276   4.116   9.937  0.4677  0.1542 -0.2724
  699MOL0     C96370   6.741   4.697  10.800 -0.4835 -0.6123  0.0068
  699MOL0     C96371   6.839   4.784  10.851 -0.1894  0.0134 -0.1391
  699MOL0     O96372   6.902   4.980  11.072 -0.0113 -0.4202 -0.1978
  699MOL0     C96373   7.236   5.031  11.043  0.4294 -0.1329  0.3828
  699MOL0     C96374   7.353   5.083  11.095 -0.0234  0.7427 -0.6158
  699MOL0     N96375   7.566   5.682  11.579 -0.4775  0.5268 -0.7373
  699MOL0     N96376   7.554   5.806  11.602 -0.2184  0.1293  0.0514
  699MOL0     C96377   7.496   5.808  11.142  0.2154  0.0258  1.0980
  699MOL0     C96378   7.388   5.724  11.101  0.3214  0.4026  0.7286
  699MOL0     C96379   7.086   5.523  10.870  0.7407  0.4027 -0.6529
  699MOL0     C96380   6.881   5.548  10.914 -0.9245  0.2556  1.4577
  699MOL0     C96381   6.742   5.389  10.862 -0.3289 -0.2160 -0.7687
  699MOL0     C96382   6.808   5.212  10.773 -0.1895 -0.2666  0.1061
  699MOL0     O96383   6.725   5.123  10.726 -0.1634  0.6402 -0.0197
  699MOL0     C96384   6.583   5.163  10.726 -0.6681 -0.4611 -0.3217
  699MOL0     C96385   6.521   5.144  10.868 -0.2650  1.4361  0.8162
  699MOL0     C96386   6.522   4.996  10.917  0.0898  0.0775  0.3070
  699MOL0     C96387   6.470   4.992  11.058  0.7401  0.1163  0.2510
  699MOL0     C96388   6.332   4.951  11.073  0.0026 -0.2975  0.4846
  699MOL0     C96389   6.218   4.909  11.084 -0.0089 -0.0580  0.9208
  699MOL0     C96390   7.017   5.191  10.731 -0.0151  0.1051 -0.2775
  699MOL0     C96391   7.155   5.343  10.782  0.3854 -0.4469  0.2767
  699MOL0     C96392   7.295   5.331  10.758 -0.0020 -0.0660 -0.1547
  699MOL0     H96393   7.496   5.648  10.793 -3.6779 -0.5329  0.2902
  699MOL0     H96394   7.660   5.831  10.843 -0.7312 -1.1898 -2.1487
  699MOL0     H96395   7.628   6.110  11.002  0.6866  1.2933  2.3512
  699MOL0     H96396   7.722   6.028  10.879 -4.5945 -0.9658 -0.2598
  699MOL0     H96397   7.926   6.094  11.044 -0.4566  0.9040  1.5716
  699MOL0     H96398   7.848   6.225  10.958 -0.7805  2.3252  1.6143
  699MOL0     H96399   7.772   6.316  11.151  0.4091  0.5127 -0.8081
  699MOL0     H96400   7.725   6.157  11.219  0.3664 -0.6265 -0.2110
  699MOL0     H96401   7.962   6.094  11.265  0.6907  0.3914 -1.7471
  699MOL0     H96402   8.016   6.234  11.207 -0.4527 -0.3550  1.9350
  699MOL0     H96403   7.904   6.365  11.374  1.1352 -0.1832 -2.6132
  699MOL0     H96404   8.001   6.233  11.443  0.0166  1.7591  0.2062
  699MOL0     H96405   7.791   6.271  11.564  1.1165 -0.2580  1.3320
  699MOL0     H96406   7.703   6.238  11.413  0.3295 -2.9040 -0.7902
  699MOL0     H96407   7.806   6.062  11.615 -1.5611 -1.6674  0.2016
  699MOL0     H96408   7.852   6.011  11.447  1.8645 -0.6217  3.0710
  699MOL0     H96409   7.577   6.054  11.581  2.0198 -1.2674  2.2428
  699MOL0     H96410   7.590   6.020  11.414 -0.4785 -0.1031  0.5123
  699MOL0     H96411   7.835   5.796  11.424 -3.4046  3.4132 -2.4660
  699MOL0     H96412   7.726   5.444  11.534  0.8307  1.1467  0.8674
  699MOL0     H96413   7.807   5.530  11.399 -0.4812 -0.9640 -1.0356
  699MOL0     H96414   7.507   5.480  11.376 -0.2152 -2.1094  0.7539
  699MOL0     H96415   7.629   5.532  11.255  1.6212  1.7432  0.3984
  699MOL0     H96416   7.742   5.313  11.267 -0.9867 -2.6650 -0.7425
  699MOL0     H96417   7.650   5.259  11.400 -0.7597  1.0855 -0.0543
  699MOL0     H96418   7.479   5.340  11.161  0.3889  0.1237 -1.6437
  699MOL0     H96419   7.587   5.204  11.146 -1.4033  0.8718 -2.1819
  699MOL0     H96420   7.249   5.111  11.417  0.3708  0.0123 -0.4188
  699MOL0     H96421   6.919   5.034  11.342 -0.6974 -1.0107 -1.1823
  699MOL0     H96422   7.052   4.987  11.454 -0.3328 -2.3331 -0.0752
  699MOL0     H96423   6.995   4.882  11.329 -0.3021 -0.2121 -0.6981
  699MOL0     H96424   6.994   4.578  11.047  1.4198  4.3591  0.1551
  699MOL0     H96425   6.819   4.411  10.939 -1.5734 -0.1833  0.4530
  699MOL0     H96426   6.471   4.542  10.906  0.7075  1.7054 -0.1663
  699MOL0     H96427   6.502   4.616  10.746 -1.5606  2.2190  2.1264
  699MOL0     H96428   6.434   4.322  10.817  2.3018  0.5184  1.2653
  699MOL0     H96429   6.310   4.455  10.779  0.9982  1.5491  1.7289
  699MOL0     H96430   6.518   4.383  10.559  1.1129 -4.4958  0.1095
  699MOL0     H96431   6.346   4.440  10.548 -1.3681 -0.7529  1.6257
  699MOL0     H96432   6.254   4.236  10.595  0.0262 -0.8674 -0.9956
  699MOL0     H96433   6.404   4.164  10.651 -1.9072  0.2018  0.7784
  699MOL0     H96434   6.507   4.175  10.433 -0.1196  1.8324 -0.7542
  699MOL0     H96435   6.354   4.081  10.444  1.9689 -0.5173  0.8312
  699MOL0     H96436   6.402   4.340  10.305  1.3822  0.8074  2.9078
  699MOL0     H96437   6.235   4.283  10.349 -1.2091 -2.1278 -1.2319
  699MOL0     H96438   6.283   4.066  10.236 -1.9168  1.0191  0.0378
  699MOL0     H96439   6.429   4.127  10.168 -0.1681  0.2318  0.2437
  699MOL0     H96440   6.329   4.312  10.051 -1.8904  0.8402  0.4522
  699MOL0     H96441   6.166   4.262  10.103  1.4183  1.2754  1.6515
  699MOL0     H96442   6.669   4.726  10.723 -0.0552  0.5721  0.0365
  699MOL0     H96443   6.824   4.890  10.833 -2.9880 -0.0510  1.2709
  699MOL0     H96444   7.235   5.021  10.935  1.2463 -0.3328  0.3879
  699MOL0     H96445   7.440   5.106  11.035  0.2187 -0.6285 -0.8204
  699MOL0     H96446   7.507   5.841  11.245  1.2070 -0.0572  1.0333
  699MOL0     H96447   7.317   5.687  11.175 -0.4568 -0.9195 -0.6428
  699MOL0     H96448   6.838   5.632  10.967 -1.5009  0.4915  0.6247
  699MOL0     H96449   6.636   5.400  10.881 -0.6380 -3.6878  0.0568
  699MOL0     H96450   6.572   5.256  10.670  1.5797 -1.0114 -1.7960
  699MOL0     H96451   6.528   5.085  10.672  2.1483 -2.1587 -0.8977
  699MOL0     H96452   6.424   5.193  10.871 -0.7422  0.6883 -0.9663
  699MOL0     H96453   6.575   5.185  10.954  1.2833 -0.9804  1.1191
  699MOL0     H96454   6.456   4.940  10.849 -0.9972  2.2785 -0.5497
  699MOL0     H96455   6.625   4.960  10.911 -0.2360 -0.8670  0.0805
  699MOL0     H96456   6.489   5.076  11.126  1.5675 -1.0274  1.5103
  699MOL0     H96457   6.536   4.915  11.100 -0.0377 -1.0471 -0.6144
  699MOL0     H96458   6.123   4.872  11.116  0.4926 -0.3547  2.0971
  699MOL0     H96459   7.061   5.102  10.687  1.5383  0.4104  0.5633
  699MOL0     H96460   7.337   5.430  10.741  0.2804 -0.2160 -0.3256
  699MOL0     H96461   7.342   5.289  10.848 -0.3100  3.0739  1.5937
  699MOL0     H96462   7.314   5.267  10.671  1.9546  1.5553 -0.9859
  700MOL0     O96463   0.067   7.407   5.624  0.4264 -0.3987  0.1015
  700MOL0     C96464   0.171   7.397   5.685  0.0698 -0.5407  0.2543
  700MOL0     O96465   0.178   7.383   5.820 -0.2682 -0.1081 -0.0451
  700MOL0     C96466   0.072   7.387   5.900  0.1342 -0.1863 -1.0370
  700MOL0     C96467   0.100   7.332   6.026 -0.3876  0.7085 -0.3528
  700MOL0     C96468   0.006   7.341   6.133 -0.5449  1.1614  0.3800
  700MOL0     C96469  -0.110   7.409   6.125  0.9253  0.2051  0.2023
  700MOL0     O96470  -0.202   7.406   6.234 -0.7693 -0.3581 -0.8538
  700MOL0     C96471  -0.217   7.283   6.296  0.0104  1.1863 -0.0250
  700MOL0     C96472  -0.361   7.282   6.338  0.4370  0.7285 -0.0562
  700MOL0     C96473  -0.382   7.168   6.439  0.1506  0.7076 -0.3090
  700MOL0     C96474  -0.536   7.169   6.497 -0.7639 -0.4398 -0.1327
  700MOL0     C96475  -0.569   7.042   6.585  0.3237 -0.3156 -0.5031
  700MOL0     C96476  -0.527   6.908   6.535  0.9232  0.5547 -0.6683
  700MOL0     C96477  -0.583   6.788   6.611  0.9776 -0.2315  0.6814
  700MOL0     C96478  -0.510   6.668   6.541 -0.1761 -0.0687 -0.7373
  700MOL0     N96479  -0.564   6.536   6.595  0.8662  0.2692  0.5982
  700MOL0     C96480  -0.668   6.468   6.535  0.6283 -0.1001 -0.2761
  700MOL0     C96481  -0.680   6.355   6.604  0.4244 -1.0372  0.7701
  700MOL0     C96482  -0.792   6.250   6.578 -0.4713  0.2904  0.5586
  700MOL0     C96483  -0.931   6.299   6.619  0.8515 -0.2003 -0.3793
  700MOL0     C96484  -1.043   6.199   6.589 -0.4454 -0.4150 -0.1556
  700MOL0     C96485  -1.181   6.270   6.574 -0.3149  0.2891 -0.0784
  700MOL0     O96486  -1.289   6.187   6.537 -0.2639  0.7226  0.1225
  700MOL0     C96487  -1.417   6.230   6.531 -0.2691  0.1104  0.1020
  700MOL0     C96488  -1.459   6.360   6.576 -0.0740  0.7418 -0.9473
  700MOL0     C96489  -1.593   6.401   6.564 -0.2183  0.5280 -0.1175
  700MOL0     C96490  -1.632   6.536   6.608 -0.4642  0.6277  0.0770
  700MOL0     C96491  -1.683   6.310   6.502  0.3128  0.7240  0.0143
  700MOL0     C96492  -1.831   6.343   6.494  0.4784  0.2607 -0.8095
  700MOL0     O96493  -1.866   6.472   6.474  0.9300  0.4414  0.0113
  700MOL0     C96494  -1.997   6.509   6.492  0.4596  0.2102  0.4429
  700MOL0     C96495  -2.100   6.447   6.414  0.3177  0.3961  0.3436
  700MOL0     C96496  -2.233   6.491   6.412  0.0612  0.7001 -0.3731
  700MOL0     C96497  -2.269   6.587   6.514 -0.1749  1.5880  0.1752
  700MOL0     O96498  -2.396   6.628   6.510  0.1063  0.4614  0.2060
  700MOL0     C96499  -2.445   6.709   6.617  0.5599 -1.0353  0.6264
  700MOL0     C96500  -2.594   6.737   6.590  0.1563 -0.4576 -0.5127
  700MOL0     C96501  -2.693   6.623   6.563 -0.0436  0.0740  0.9011
  700MOL0     C96502  -2.832   6.675   6.511  0.2447  0.0812  0.1152
  700MOL0     C96503  -2.924   6.557   6.467  1.5520 -0.6074 -0.5444
  700MOL0     C96504  -2.882   6.515   6.327  0.0797 -0.7174  1.3649
  700MOL0     C96505  -2.948   6.384   6.282 -0.5636  0.9595  0.6688
  700MOL0     C96506  -2.907   6.309   6.152 -0.4228 -1.2473  0.9607
  700MOL0    Cl96507  -3.017   6.176   6.143  0.3249  0.1366 -0.2530
  700MOL0     C96508  -2.164   6.647   6.594 -0.2084 -0.8492 -0.2770
  700MOL0     C96509  -2.029   6.615   6.574  0.1096  0.1839 -0.2620
  700MOL0     O96510  -1.902   6.242   6.495  0.4588  0.1351  0.9327
  700MOL0     C96511  -1.640   6.182   6.469  0.6832 -1.0493  0.0434
  700MOL0     C96512  -1.508   6.136   6.475 -0.2828 -0.3476 -0.1111
  700MOL0     N96513  -0.590   6.360   6.722  0.2897 -0.3664  0.6705
  700MOL0     N96514  -0.525   6.465   6.701 -0.2936  0.4857 -0.1254
  700MOL0     C96515  -0.140   7.480   6.012  0.2754  0.0425  0.0697
  700MOL0     C96516  -0.047   7.465   5.891  0.5149  0.3483  0.1838
  700MOL0     C96517   0.296   7.426   5.611 -0.4288  0.6892 -0.6807
  700MOL0     C96518   0.405   7.480   5.689 -0.8723  0.3928  0.5229
  700MOL0     C96519   0.535   7.504   5.631  0.1473 -0.9199  1.1697
  700MOL0     C96520   0.556   7.470   5.500  0.1529 -0.5855 -1.1497
  700MOL0     O96521   0.676   7.507   5.450 -0.3957 -0.0609 -0.3839
  700MOL0     C96522   0.696   7.521   5.308 -0.2292  0.8035  0.7724
  700MOL0     C96523   0.851   7.532   5.264  0.3964  0.7400  0.9672
  700MOL0     C96524   0.924   7.414   5.215  0.0890  0.4514  0.1881
  700MOL0     C96525   0.858   7.389   5.073 -0.2087  0.4795  0.0451
  700MOL0     C96526   0.947   7.308   4.997 -0.3683  0.0326 -0.1874
  700MOL0     C96527   1.014   7.230   4.930  0.6850 -0.3766 -0.0408
  700MOL0     C96528   0.449   7.409   5.426 -0.5781  0.1234 -0.0562
  700MOL0     C96529   0.321   7.382   5.485 -0.8056 -0.4776 -0.2481
  700MOL0     C96530   0.224   7.314   5.396  0.4955 -0.0808  0.8047
  700MOL0     H96531   0.189   7.269   6.026 -2.5098 -2.5160 -0.9144
  700MOL0     H96532   0.034   7.287   6.223 -2.7641 -0.4799  0.1543
  700MOL0     H96533  -0.157   7.267   6.386 -0.1196 -0.9413 -0.2698
  700MOL0     H96534  -0.206   7.207   6.219 -0.6512  2.0351 -0.9774
  700MOL0     H96535  -0.374   7.381   6.383 -0.5820  0.7497 -0.3725
  700MOL0     H96536  -0.429   7.276   6.253  0.2577  2.8664 -0.1319
  700MOL0     H96537  -0.380   7.079   6.375  0.2994 -0.0866  0.7844
  700MOL0     H96538  -0.305   7.171   6.516  1.3220 -1.1216 -1.3191
  700MOL0     H96539  -0.546   7.262   6.553  3.7044  0.7606 -0.9817
  700MOL0     H96540  -0.596   7.163   6.406  1.1388 -0.6774 -1.4267
  700MOL0     H96541  -0.677   7.035   6.600  0.4614  0.4764  1.0904
  700MOL0     H96542  -0.523   7.059   6.683  2.5500 -0.1013 -1.5380
  700MOL0     H96543  -0.552   6.905   6.428 -2.0811  0.8764 -0.0336
  700MOL0     H96544  -0.418   6.901   6.543  1.0571  0.7178 -2.0597
  700MOL0     H96545  -0.691   6.780   6.599  1.2877 -1.2268 -2.0472
  700MOL0     H96546  -0.562   6.782   6.718 -1.7306  0.5295  1.3301
  700MOL0     H96547  -0.532   6.669   6.434  0.1753 -0.1929 -0.8109
  700MOL0     H96548  -0.403   6.679   6.557 -0.2337 -1.3505  0.7459
  700MOL0     H96549  -0.716   6.488   6.440  1.1160 -0.3314 -0.5749
  700MOL0     H96550  -0.762   6.165   6.640  0.4991 -2.1382 -2.9562
  700MOL0     H96551  -0.792   6.222   6.472  0.1172 -2.0897  1.1294
  700MOL0     H96552  -0.933   6.318   6.727  0.9525  1.4631 -0.6456
  700MOL0     H96553  -0.955   6.388   6.560 -2.6083  0.5078  1.8311
  700MOL0     H96554  -1.021   6.145   6.497 -0.4855 -0.7273  0.0148
  700MOL0     H96555  -1.065   6.122   6.664 -0.2080 -1.1775 -0.8514
  700MOL0     H96556  -1.200   6.300   6.677 -1.2866  0.0238 -0.1671
  700MOL0     H96557  -1.180   6.351   6.501 -1.2563  0.2303 -0.1753
  700MOL0     H96558  -1.382   6.428   6.610 -0.1438  0.6141 -0.5354
  700MOL0     H96559  -1.622   6.602   6.521  2.0402 -0.6048 -0.6657
  700MOL0     H96560  -1.564   6.561   6.691 -0.5356 -1.0474  0.6827
  700MOL0     H96561  -1.735   6.549   6.642 -0.4891  5.2029 -1.0567
  700MOL0     H96562  -2.076   6.370   6.341 -0.6201 -1.7758  2.1945
  700MOL0     H96563  -2.302   6.453   6.337  0.0617  1.1329 -0.6003
  700MOL0     H96564  -2.422   6.652   6.707 -2.0295 -2.2245  0.6028
  700MOL0     H96565  -2.390   6.803   6.628 -0.6756 -0.2029 -0.0833
  700MOL0     H96566  -2.626   6.793   6.678 -2.3782  1.7714 -2.6601
  700MOL0     H96567  -2.594   6.805   6.504  0.1844 -0.7066 -0.7079
  700MOL0     H96568  -2.707   6.583   6.664  1.4476 -0.2758  0.9934
  700MOL0     H96569  -2.649   6.546   6.499  0.4439  0.2344  1.0433
  700MOL0     H96570  -2.823   6.740   6.423  0.1878 -2.3266 -1.7825
  700MOL0     H96571  -2.881   6.730   6.592  0.8128 -0.2746  0.7060
  700MOL0     H96572  -2.919   6.481   6.546  0.0230  1.1697  1.3831
  700MOL0     H96573  -3.025   6.598   6.461  0.4804 -2.9481 -0.0159
  700MOL0     H96574  -2.773   6.511   6.326  0.1278  0.1419 -0.0692
  700MOL0     H96575  -2.905   6.604   6.268  3.1351  0.1603  1.3420
  700MOL0     H96576  -3.057   6.391   6.291 -0.6453  0.7411 -0.1052
  700MOL0     H96577  -2.930   6.307   6.357  2.0531 -0.4088 -1.1996
  700MOL0     H96578  -2.807   6.263   6.156  1.4760  2.2454 -1.3470
  700MOL0     H96579  -2.926   6.370   6.063  1.8404 -0.3941  0.9961
  700MOL0     H96580  -2.188   6.727   6.662 -2.7011 -0.8098 -1.0986
  700MOL0     H96581  -1.946   6.658   6.629  0.5352 -1.8211  0.7547
  700MOL0     H96582  -1.713   6.106   6.440  0.7162 -1.0643 -0.0005
  700MOL0     H96583  -1.474   6.034   6.459 -0.7618 -0.4856 -0.2529
  700MOL0     H96584  -0.233   7.535   5.998  0.8899  1.5757  1.6529
  700MOL0     H96585  -0.063   7.515   5.796  1.4439 -0.5506 -0.4601
  700MOL0     H96586   0.400   7.504   5.794 -1.9709  0.3904  0.4832
  700MOL0     H96587   0.622   7.547   5.680 -0.0089  1.9959 -0.8569
  700MOL0     H96588   0.664   7.431   5.255  0.3908  1.9522 -1.7217
  700MOL0     H96589   0.633   7.602   5.269 -2.5541 -1.1793  0.1344
  700MOL0     H96590   0.916   7.565   5.345  2.2755  0.8519 -0.4957
  700MOL0     H96591   0.844   7.616   5.193 -3.4707 -0.5243 -0.4593
  700MOL0     H96592   1.032   7.428   5.211  0.5332 -1.5838  2.3461
  700MOL0     H96593   0.915   7.324   5.277  1.7034 -0.4109 -0.7727
  700MOL0     H96594   0.849   7.477   5.009 -1.4329 -0.4201 -1.0769
  700MOL0     H96595   0.765   7.337   5.094  0.6427  0.1733  3.7485
  700MOL0     H96596   1.070   7.162   4.869  1.0664  0.3877 -0.5539
  700MOL0     H96597   0.479   7.385   5.325  4.1671 -0.1717  1.1655
  700MOL0     H96598   0.145   7.384   5.365 -1.6946 -1.8555  2.0268
  700MOL0     H96599   0.265   7.266   5.307 -1.5243 -3.0908  1.3496
  700MOL0     H96600   0.167   7.235   5.445 -1.3614  0.4830 -0.2990
  701MOL0     O96601  11.286  10.822   5.696 -0.1211  0.6093 -0.1044
  701MOL0     C96602  11.192  10.851   5.624  0.1684  0.5044 -0.0795
  701MOL0     O96603  11.065  10.887   5.672 -0.4543  0.0269 -0.5695
  701MOL0     C96604  11.038  10.862   5.807 -0.8421 -0.3550  0.4540
  701MOL0     C96605  11.034  10.737   5.857 -0.0016 -0.0053  0.5227
  701MOL0     C96606  11.023  10.709   5.995  0.3183 -0.0612 -0.6927
  701MOL0     C96607  11.003  10.825   6.084  0.4602 -0.0590  0.2890
  701MOL0     O96608  10.977  10.810   6.213 -0.3416  0.0124  0.4804
  701MOL0     C96609  10.995  10.689   6.293 -0.7367 -0.0295  0.2163
  701MOL0     C96610  10.852  10.640   6.316  0.0036 -0.5215  0.2899
  701MOL0     C96611  10.847  10.494   6.352 -0.4990  0.3573 -1.0569
  701MOL0     C96612  10.869  10.426   6.214  0.8633 -0.4431  0.9714
  701MOL0     C96613  10.860  10.274   6.229 -0.2436 -0.0444  0.1930
  701MOL0     C96614  10.905  10.204   6.101  0.0448 -0.6175  0.8376
  701MOL0     C96615  10.789  10.209   5.997  0.1258 -0.8481  0.4977
  701MOL0     C96616  10.813  10.125   5.871  0.4754  0.3018  0.7339
  701MOL0     N96617  10.929  10.175   5.801  0.7936 -0.2398  0.5571
  701MOL0     C96618  11.052  10.119   5.807 -0.3279 -0.7019  0.4330
  701MOL0     C96619  11.126  10.194   5.712  0.1863  0.7378 -0.7895
  701MOL0     C96620  11.276  10.173   5.692 -0.4200  0.3650  0.1059
  701MOL0     C96621  11.355  10.257   5.798  0.1075 -0.6083  0.0894
  701MOL0     C96622  11.498  10.189   5.813  0.2063  0.2301 -0.1715
  701MOL0     C96623  11.569  10.276   5.915  0.3830  0.4486  0.8061
  701MOL0     O96624  11.536  10.245   6.054  0.5471 -0.7820  0.8142
  701MOL0     C96625  11.641  10.178   6.112  1.2235  1.1683  0.0278
  701MOL0     C96626  11.695  10.231   6.224 -0.3539  0.6193  0.5396
  701MOL0     C96627  11.811  10.173   6.283 -0.2854  0.2627 -0.3287
  701MOL0     C96628  11.866  10.233   6.403  0.7675 -0.0442  0.3427
  701MOL0     C96629  11.870  10.053   6.231  1.0994 -0.2405  0.0922
  701MOL0     C96630  11.996   9.992   6.277  0.2268  0.6258  0.7258
  701MOL0     O96631  12.081  10.066   6.355  0.9393  0.4392  0.2009
  701MOL0     C96632  12.180  10.005   6.420 -0.2899  1.1621  0.9879
  701MOL0     C96633  12.181   9.979   6.553 -0.4191 -0.7545 -0.1167
  701MOL0     C96634  12.286   9.914   6.618  0.1418  0.4079 -0.0733
  701MOL0     C96635  12.404   9.891   6.552 -0.5906  0.2407 -0.1105
  701MOL0     O96636  12.502   9.826   6.629  0.3429 -0.9051  0.2669
  701MOL0     C96637  12.644   9.847   6.600 -0.2220 -0.3897  0.1834
  701MOL0     C96638  12.741   9.799   6.708  0.9007  0.0356 -0.1695
  701MOL0     C96639  12.725   9.869   6.851 -0.6465  0.7132  0.9936
  701MOL0     C96640  12.602   9.833   6.933 -0.3923  0.4138  0.4248
  701MOL0     C96641  12.607   9.898   7.065 -0.3831  0.1424 -0.6372
  701MOL0     C96642  12.483   9.854   7.147  1.4361  0.5319 -0.1783
  701MOL0     C96643  12.476   9.926   7.282 -0.4166  0.2928  0.4921
  701MOL0     C96644  12.353   9.881   7.364  0.2390  0.0713 -0.8327
  701MOL0    Cl96645  12.367   9.709   7.431 -0.0300 -0.2667  0.1920
  701MOL0     C96646  12.412   9.933   6.417  0.1593  0.0012  1.0291
  701MOL0     C96647  12.295   9.981   6.354 -1.0416  0.0358 -0.7137
  701MOL0     O96648  12.021   9.873   6.241  0.8356  0.5799 -0.2103
  701MOL0     C96649  11.795   9.994   6.125 -0.5930 -1.6851 -0.5163
  701MOL0     C96650  11.683  10.061   6.074  0.2525  0.4005  0.2980
  701MOL0     N96651  11.044  10.289   5.656  0.9459 -0.3998 -0.4249
  701MOL0     N96652  10.926  10.276   5.710 -0.2593  0.5365 -0.3159
  701MOL0     C96653  10.984  10.955   6.027  0.2945 -0.0980 -0.0129
  701MOL0     C96654  11.009  10.973   5.892 -0.4563  0.0645 -0.2889
  701MOL0     C96655  11.208  10.863   5.478  0.7081  0.2521  0.0697
  701MOL0     C96656  11.321  10.922   5.422 -0.0239  0.5240 -1.4289
  701MOL0     C96657  11.348  10.941   5.295 -0.0444  0.3617  0.3925
  701MOL0     C96658  11.246  10.907   5.201 -0.6414  0.3322 -0.2983
  701MOL0     O96659  11.247  10.930   5.064 -1.0202 -0.2436  0.0589
  701MOL0     C96660  11.372  10.946   4.990 -0.0988 -0.2725 -1.0853
  701MOL0     C96661  11.359  10.890   4.849  0.4742  0.8607 -0.4639
  701MOL0     C96662  11.494  10.878   4.783 -0.0325  0.0734 -0.3235
  701MOL0     C96663  11.466  10.831   4.640 -0.0936  0.6430  0.6644
  701MOL0     C96664  11.592  10.855   4.568 -0.6255 -0.0749 -0.5499
  701MOL0     C96665  11.691  10.879   4.501  0.5833  0.3206 -0.3050
  701MOL0     C96666  11.133  10.839   5.247 -1.0516  0.6367 -0.5678
  701MOL0     C96667  11.110  10.820   5.384 -0.5216 -0.2808  0.0392
  701MOL0     C96668  10.979  10.756   5.413  0.3128 -0.5170  0.5965
  701MOL0     H96669  11.052  10.661   5.781 -2.2956  3.0035 -3.4549
  701MOL0     H96670  11.052  10.613   6.036  1.5789  0.0307 -1.3139
  701MOL0     H96671  11.034  10.728   6.388 -0.1771  2.9236 -1.1188
  701MOL0     H96672  11.062  10.622   6.240  1.3210  1.4591  0.7960
  701MOL0     H96673  10.812  10.694   6.402 -1.3085 -2.4788  0.9609
  701MOL0     H96674  10.780  10.660   6.236 -0.7850 -1.9068  0.6125
  701MOL0     H96675  10.920  10.475   6.431 -0.8243 -0.6399 -0.9749
  701MOL0     H96676  10.750  10.464   6.394  0.3280 -0.7399  0.1662
  701MOL0     H96677  10.798  10.465   6.140  0.0056 -0.9214  1.5290
  701MOL0     H96678  10.967  10.436   6.166 -1.0333 -3.2262 -4.2949
  701MOL0     H96679  10.765  10.240   6.272 -0.6079  1.1998  0.4075
  701MOL0     H96680  10.936  10.241   6.301 -1.5811  1.2796  2.3270
  701MOL0     H96681  10.998  10.251   6.070  0.8378 -1.4232  1.9123
  701MOL0     H96682  10.928  10.101   6.132  1.2375 -1.4779 -2.5163
  701MOL0     H96683  10.780  10.306   5.947  3.2250 -2.1157 -2.9862
  701MOL0     H96684  10.694  10.172   6.035 -0.5862  0.7658  0.3622
  701MOL0     H96685  10.837  10.025   5.910 -3.4830  0.0955  3.2799
  701MOL0     H96686  10.729  10.122   5.801 -0.7445 -0.9870  2.1450
  701MOL0     H96687  11.104  10.042   5.861  2.6175 -0.7919 -2.2346
  701MOL0     H96688  11.311  10.198   5.592 -1.1341  0.1974 -0.1879
  701MOL0     H96689  11.290  10.065   5.705 -1.1624 -0.0672 -2.2393
  701MOL0     H96690  11.373  10.357   5.756 -0.1835  0.5630  2.5698
  701MOL0     H96691  11.305  10.280   5.892  1.0494  0.5795  0.3303
  701MOL0     H96692  11.488  10.081   5.829 -2.1520  0.3521 -0.4407
  701MOL0     H96693  11.552  10.198   5.719 -2.7043  1.8910 -1.8158
  701MOL0     H96694  11.676  10.274   5.896  0.3200  2.0371  0.0927
  701MOL0     H96695  11.525  10.376   5.900 -3.2657 -1.3627 -2.4440
  701MOL0     H96696  11.646  10.324   6.251 -2.4566 -0.6666  1.3941
  701MOL0     H96697  11.867  10.158   6.483  0.1894 -1.4056 -0.8756
  701MOL0     H96698  11.790  10.307   6.431 -1.8815 -1.6700 -1.8946
  701MOL0     H96699  11.962  10.275   6.375 -0.0743  2.5086  1.0008
  701MOL0     H96700  12.096   9.996   6.617 -1.0762  0.5414 -1.2756
  701MOL0     H96701  12.270   9.878   6.719 -3.5172 -2.2391 -1.3730
  701MOL0     H96702  12.679   9.802   6.506  4.0478 -0.5825  1.6591
  701MOL0     H96703  12.671   9.953   6.603  1.4049 -0.7895  0.6571
  701MOL0     H96704  12.740   9.690   6.723  0.8944  0.3236  2.5188
  701MOL0     H96705  12.843   9.823   6.677  0.8827  0.7952  0.3350
  701MOL0     H96706  12.719   9.978   6.838  2.6904  0.7430 -1.9679
  701MOL0     H96707  12.818   9.838   6.901  0.1344 -3.0674 -2.2655
  701MOL0     H96708  12.599   9.725   6.949  2.4327  0.0492 -0.9053
  701MOL0     H96709  12.517   9.879   6.882  0.9627  3.8670  1.0027
  701MOL0     H96710  12.694   9.870   7.126  0.5630  2.1937 -0.9970
  701MOL0     H96711  12.605  10.007   7.057  0.1350  0.5221  2.8111
  701MOL0     H96712  12.488   9.745   7.158 -1.9767  0.3433  0.5976
  701MOL0     H96713  12.394   9.868   7.085  1.2567 -3.1782 -1.0192
  701MOL0     H96714  12.466  10.034   7.269 -2.7238  0.0515 -0.0761
  701MOL0     H96715  12.558   9.892   7.346 -1.5897  1.2917  2.6376
  701MOL0     H96716  12.253   9.901   7.323 -0.8120  1.1319  2.0143
  701MOL0     H96717  12.343   9.927   7.462  0.9707  0.5129 -0.9561
  701MOL0     H96718  12.507   9.936   6.364 -0.4930 -1.5493 -0.3105
  701MOL0     H96719  12.282   9.980   6.246 -3.3507 -2.3339 -0.5103
  701MOL0     H96720  11.826   9.896   6.089 -0.0800 -1.5129 -0.5510
  701MOL0     H96721  11.655  10.009   5.983  0.5362  0.5780  0.1081
  701MOL0     H96722  10.943  11.035   6.088  0.6769 -0.6289  0.9502
  701MOL0     H96723  10.987  11.065   5.838 -0.5792  1.4761  2.0413
  701MOL0     H96724  11.392  10.956   5.497 -0.3188 -0.6757 -0.5722
  701MOL0     H96725  11.442  10.993   5.275  1.0159 -1.9283 -0.9506
  701MOL0     H96726  11.388  11.055   4.986  1.7159 -0.3998  0.8245
  701MOL0     H96727  11.449  10.891   5.044 -1.1592  1.1249  2.0824
  701MOL0     H96728  11.286  10.949   4.793  0.4872 -0.8049 -2.3256
  701MOL0     H96729  11.321  10.788   4.860  1.0996  0.5460 -1.1670
  701MOL0     H96730  11.537  10.978   4.774 -0.3072  0.2107 -0.1301
  701MOL0     H96731  11.559  10.810   4.839 -0.8975  0.3831  1.1174
  701MOL0     H96732  11.386  10.883   4.587  0.0143  1.8709  1.6658
  701MOL0     H96733  11.447  10.723   4.640  1.5633  0.0616 -4.4878
  701MOL0     H96734  11.774  10.898   4.436 -0.1263 -0.9377 -1.6530
  701MOL0     H96735  11.057  10.820   5.171 -1.1577  0.0265 -0.3131
  701MOL0     H96736  10.911  10.823   5.466  1.8938  0.5354  1.3867
  701MOL0     H96737  10.931  10.730   5.319  1.5109  2.0850 -0.8368
  701MOL0     H96738  10.996  10.666   5.473  3.1586 -1.3031 -1.2047
  702MOL0     O96739   5.671  11.030   3.104 -0.4461  0.8046  0.0337
  702MOL0     C96740   5.678  11.146   3.134 -0.2822 -0.3155 -0.0842
  702MOL0     O96741   5.693  11.192   3.258 -0.0094 -0.9225  0.4000
  702MOL0     C96742   5.731  11.102   3.359 -0.1055 -0.0122 -0.0238
  702MOL0     C96743   5.864  11.060   3.378 -0.2214 -0.0798  0.8865
  702MOL0     C96744   5.893  10.964   3.474 -0.2028 -0.0219 -0.8795
  702MOL0     C96745   5.788  10.918   3.561 -0.0182  0.7855  0.2872
  702MOL0     O96746   5.806  10.820   3.660 -0.5441  0.1313 -0.3531
  702MOL0     C96747   5.941  10.780   3.682 -0.2126 -0.2987  0.1834
  702MOL0     C96748   5.962  10.663   3.777  0.6038  1.4521 -0.0612
  702MOL0     C96749   5.903  10.691   3.917  0.1331  0.9944  0.0087
  702MOL0     C96750   5.918  10.571   4.010  0.0515  0.3888 -1.1152
  702MOL0     C96751   5.875  10.601   4.152 -0.7054  0.4555 -0.4799
  702MOL0     C96752   5.855  10.474   4.229 -0.1892 -0.0944  0.6648
  702MOL0     C96753   5.977  10.385   4.243  0.0123  0.2893  0.1996
  702MOL0     C96754   5.969  10.274   4.354 -0.6922  0.2314  0.2017
  702MOL0     N96755   6.104  10.215   4.354  0.4821 -0.4716 -0.4239
  702MOL0     C96756   6.200  10.241   4.446 -1.7063  0.6898 -1.3619
  702MOL0     C96757   6.300  10.151   4.426  0.9148 -0.4049  0.1498
  702MOL0     C96758   6.428  10.159   4.508 -0.0214  0.4065  0.8285
  702MOL0     C96759   6.411  10.087   4.650 -0.0079 -0.2280  0.2524
  702MOL0     C96760   6.541  10.108   4.731  0.5182  0.7323  0.4516
  702MOL0     C96761   6.520  10.037   4.872  0.0321 -0.9466 -0.1326
  702MOL0     O96762   6.518   9.894   4.868 -0.0431  0.0702 -0.2769
  702MOL0     C96763   6.639   9.844   4.845 -0.0119  0.6350  0.8295
  702MOL0     C96764   6.671   9.798   4.714 -0.2313  0.0482 -0.3580
  702MOL0     C96765   6.796   9.740   4.687  0.3238  0.2620 -0.6406
  702MOL0     C96766   6.816   9.688   4.541  0.2487  1.1422  0.1300
  702MOL0     C96767   6.887   9.736   4.799  0.7009  0.6623  0.2722
  702MOL0     C96768   7.030   9.718   4.778  0.0766  0.8255 -1.0317
  702MOL0     O96769   7.100   9.641   4.873 -0.1095  0.4158 -0.0625
  702MOL0     C96770   7.241   9.630   4.852  0.8312 -0.2544 -0.0207
  702MOL0     C96771   7.309   9.716   4.937  0.9470  0.2924  0.0365
  702MOL0     C96772   7.443   9.718   4.917 -0.2465 -0.1513  0.1463
  702MOL0     C96773   7.514   9.638   4.827  0.5075 -0.5344  0.4243
  702MOL0     O96774   7.655   9.634   4.815  0.0507  1.0358  0.0033
  702MOL0     C96775   7.728   9.742   4.856 -1.1577 -0.0904  1.3298
  702MOL0     C96776   7.853   9.777   4.769 -0.4877  0.3519  1.0024
  702MOL0     C96777   7.987   9.707   4.812 -0.1144  0.1470  0.2528
  702MOL0     C96778   7.969   9.554   4.846  0.4444 -0.7317  0.8506
  702MOL0     C96779   8.102   9.491   4.831 -0.1696  1.0386 -0.6682
  702MOL0     C96780   8.091   9.336   4.838  0.3092  0.2957 -0.2682
  702MOL0     C96781   8.228   9.280   4.797  0.0787 -0.2347  0.3585
  702MOL0     C96782   8.223   9.138   4.739  0.3516 -0.5206 -0.5164
  702MOL0    Cl96783   8.353   9.096   4.627 -0.5061  0.0910  0.3607
  702MOL0     C96784   7.431   9.562   4.733  1.6681  1.5529  0.5146
  702MOL0     C96785   7.297   9.552   4.757 -0.3813 -0.7957  0.5513
  702MOL0     O96786   7.085   9.769   4.679 -0.1549 -0.5180  0.0169
  702MOL0     C96787   6.848   9.763   4.929  0.3709  0.4987  1.1135
  702MOL0     C96788   6.725   9.823   4.955  0.9064 -0.1104  0.0445
  702MOL0     N96789   6.265  10.080   4.309  1.0137 -0.4268  0.6005
  702MOL0     N96790   6.145  10.123   4.271 -0.4234  0.3426 -0.0373
  702MOL0     C96791   5.662  10.970   3.555 -0.0606  0.0908  0.0137
  702MOL0     C96792   5.634  11.051   3.451 -0.7470  0.0478  0.2644
  702MOL0     C96793   5.677  11.243   3.021 -0.8665 -0.3033 -0.1719
  702MOL0     C96794   5.668  11.378   3.056  0.0784 -0.4073  0.4433
  702MOL0     C96795   5.652  11.471   2.947 -0.3560  0.9598  0.2986
  702MOL0     C96796   5.636  11.428   2.815  1.1032  0.5666 -0.1469
  702MOL0     O96797   5.592  11.515   2.724 -0.7291  0.6596 -0.4805
  702MOL0     C96798   5.532  11.483   2.591 -1.0154 -0.8488 -0.3743
  702MOL0     C96799   5.618  11.517   2.466 -0.1373 -0.1810 -0.4967
  702MOL0     C96800   5.532  11.486   2.340  0.1086 -0.4942 -0.8076
  702MOL0     C96801   5.578  11.556   2.218  0.4878 -0.6251 -0.1736
  702MOL0     C96802   5.476  11.554   2.111 -0.4653  1.1462 -0.0674
  702MOL0     C96803   5.390  11.532   2.028  0.7843  0.1690 -0.2275
  702MOL0     C96804   5.656  11.294   2.791  0.4141 -0.2167  1.0738
  702MOL0     C96805   5.685  11.203   2.891  0.7997  0.8635  0.7013
  702MOL0     C96806   5.717  11.064   2.820  0.2946  1.0635 -0.0056
  702MOL0     H96807   5.943  11.090   3.310  0.6785  1.6000  2.5661
  702MOL0     H96808   5.993  10.924   3.484 -0.3546 -0.0341  0.9190
  702MOL0     H96809   5.994  10.872   3.708  0.9972 -1.2302  1.1181
  702MOL0     H96810   5.986  10.745   3.589 -1.4747  1.4957 -1.1677
  702MOL0     H96811   5.929  10.571   3.729  2.0975  1.6389 -1.5274
  702MOL0     H96812   6.069  10.642   3.791 -0.0217 -0.3625  2.9844
  702MOL0     H96813   5.939  10.781   3.969  0.0836  0.2096  1.4772
  702MOL0     H96814   5.797  10.701   3.893  0.2981 -1.5362 -2.2332
  702MOL0     H96815   5.845  10.496   3.978 -2.4675  2.5585 -0.7183
  702MOL0     H96816   6.018  10.525   4.002 -0.0834  0.0390 -0.8524
  702MOL0     H96817   5.783  10.661   4.151  0.6884  2.6741 -0.4660
  702MOL0     H96818   5.951  10.669   4.189  1.9147 -2.4101 -0.1736
  702MOL0     H96819   5.829  10.519   4.326  0.5715  2.5480 -0.2494
  702MOL0     H96820   5.771  10.413   4.193  1.2534 -0.3818 -2.4497
  702MOL0     H96821   6.062  10.450   4.266 -0.2786  1.6256 -2.1713
  702MOL0     H96822   5.999  10.329   4.152  0.0047  0.0225  0.3617
  702MOL0     H96823   5.933  10.329   4.442 -0.5453 -1.8590  1.6428
  702MOL0     H96824   5.893  10.202   4.325 -0.3991 -0.1446  0.3608
  702MOL0     H96825   6.202  10.333   4.504 -1.0940  0.6768 -1.3619
  702MOL0     H96826   6.455  10.263   4.530  1.0747  0.5484 -1.0170
  702MOL0     H96827   6.511  10.128   4.444  1.9984  5.2853  0.6425
  702MOL0     H96828   6.323  10.125   4.702  0.0136  1.5404 -0.8944
  702MOL0     H96829   6.401   9.979   4.634  2.4723 -0.3989 -0.6770
  702MOL0     H96830   6.622  10.066   4.671 -2.7625  0.5390 -4.4130
  702MOL0     H96831   6.556  10.216   4.740  2.0453  0.5167  0.8136
  702MOL0     H96832   6.607  10.067   4.932  1.5676 -0.4535 -2.4809
  702MOL0     H96833   6.423  10.067   4.912 -0.7693 -2.0108 -1.2044
  702MOL0     H96834   6.600   9.817   4.634  1.3492  2.2281 -1.3656
  702MOL0     H96835   6.914   9.717   4.502 -0.0304  1.1219 -0.5963
  702MOL0     H96836   6.733   9.721   4.477 -0.2609 -1.0279 -0.4033
  702MOL0     H96837   6.824   9.579   4.542  1.4278  1.2087 -0.1101
  702MOL0     H96838   7.258   9.787   5.001  1.3292 -0.0180  0.6914
  702MOL0     H96839   7.499   9.785   4.982 -2.2894 -2.0918  4.2636
  702MOL0     H96840   7.669   9.833   4.843  0.3133  0.7100 -0.2611
  702MOL0     H96841   7.757   9.719   4.959  0.0637 -0.5071  0.9134
  702MOL0     H96842   7.832   9.747   4.666 -2.9795  0.5523  1.3865
  702MOL0     H96843   7.873   9.885   4.776 -1.9130  0.7910 -0.8084
  702MOL0     H96844   8.019   9.755   4.905 -2.1421 -0.2985  1.2353
  702MOL0     H96845   8.071   9.719   4.743 -0.7856  2.0135 -0.2968
  702MOL0     H96846   7.899   9.506   4.776  1.3293 -0.3094 -0.3473
  702MOL0     H96847   7.937   9.546   4.950 -1.6471 -2.4769  0.1767
  702MOL0     H96848   8.150   9.519   4.737  1.6561  2.8297  0.6886
  702MOL0     H96849   8.170   9.536   4.905 -0.3242 -0.7015  0.6201
  702MOL0     H96850   8.011   9.291   4.779  0.4424 -0.1392 -0.1268
  702MOL0     H96851   8.075   9.310   4.943  3.2624  2.8972  1.0009
  702MOL0     H96852   8.299   9.280   4.880 -0.8762 -0.8402  1.1936
  702MOL0     H96853   8.272   9.342   4.718  0.5658  0.0615  0.8479
  702MOL0     H96854   8.132   9.132   4.678 -0.3742  0.9020  0.3702
  702MOL0     H96855   8.203   9.074   4.825 -4.5336  0.7794 -0.3487
  702MOL0     H96856   7.470   9.499   4.654 -0.7608 -0.9530  1.1608
  702MOL0     H96857   7.227   9.494   4.699  0.8962  0.5402 -2.5581
  702MOL0     H96858   6.919   9.752   5.010  1.1479 -1.8001  0.1937
  702MOL0     H96859   6.700   9.859   5.054 -0.7242  0.0467 -0.3965
  702MOL0     H96860   5.578  10.933   3.613 -0.3243 -2.5283 -1.8848
  702MOL0     H96861   5.536  11.093   3.428 -0.1064  0.5755 -1.6630
  702MOL0     H96862   5.683  11.419   3.155  1.0400 -1.7442  0.8722
  702MOL0     H96863   5.629  11.573   2.976 -2.0573  0.5511  0.5237
  702MOL0     H96864   5.493  11.381   2.599 -3.3616  0.0849  1.4522
  702MOL0     H96865   5.445  11.550   2.587 -0.9481 -0.5625  1.8016
  702MOL0     H96866   5.705  11.450   2.468 -1.0009 -1.4535  3.9348
  702MOL0     H96867   5.648  11.622   2.462  3.0053 -0.9652 -0.7883
  702MOL0     H96868   5.536  11.379   2.316  1.8494 -0.2761 -1.6605
  702MOL0     H96869   5.429  11.518   2.360  0.3163 -0.2020 -0.1876
  702MOL0     H96870   5.678  11.521   2.191  1.8603  1.6100  1.6285
  702MOL0     H96871   5.599  11.658   2.250  0.2755 -1.8123  4.5457
  702MOL0     H96872   5.312  11.507   1.959  2.4485  0.3841 -2.2940
  702MOL0     H96873   5.653  11.266   2.687 -2.6215  1.3809  0.6302
  702MOL0     H96874   5.820  11.039   2.848 -0.2754  0.5257  1.7265
  702MOL0     H96875   5.647  10.986   2.849  0.4229  0.5557 -1.0172
  702MOL0     H96876   5.709  11.055   2.711 -0.1068 -0.2492  0.1151
  703MOL0     O96877   7.452  10.881   0.325  0.0455  0.7803  0.1635
  703MOL0     C96878   7.560  10.910   0.277  0.2301  0.5548 -0.2158
  703MOL0     O96879   7.621  11.044   0.278  0.0942 -0.1665  0.2614
  703MOL0     C96880   7.590  11.146   0.371  0.1831 -0.4640  0.6747
  703MOL0     C96881   7.496  11.134   0.470  0.3062  0.4845 -0.3956
  703MOL0     C96882   7.481  11.227   0.570 -0.3857 -1.1842  0.8339
  703MOL0     C96883   7.570  11.344   0.573  0.3036 -0.2878  0.9212
  703MOL0     O96884   7.557  11.451   0.660 -0.5954  0.3765  0.0421
  703MOL0     C96885   7.447  11.444   0.758  0.1367 -0.4291  0.1233
  703MOL0     C96886   7.490  11.515   0.892  0.1564 -0.4101 -0.0526
  703MOL0     C96887   7.378  11.510   1.002 -0.5344 -0.0777 -0.2236
  703MOL0     C96888   7.436  11.576   1.123 -0.7469  0.3792  0.4407
  703MOL0     C96889   7.336  11.570   1.234 -0.6588  0.0276  0.2617
  703MOL0     C96890   7.389  11.648   1.360 -0.2238  0.5644  0.2238
  703MOL0     C96891   7.295  11.629   1.472 -0.1412  0.0885 -0.4190
  703MOL0     C96892   7.160  11.692   1.444 -0.7074 -0.2918 -0.0197
  703MOL0     N96893   7.096  11.658   1.568 -0.0622  0.0604 -0.2637
  703MOL0     C96894   6.995  11.565   1.581 -0.5910  0.4061  0.0381
  703MOL0     C96895   6.971  11.557   1.713  0.5293 -0.7944  0.6013
  703MOL0     C96896   6.865  11.468   1.765 -0.2984 -0.2633  1.0932
  703MOL0     C96897   6.921  11.366   1.858 -0.5468  0.4856 -0.4983
  703MOL0     C96898   6.929  11.413   2.008 -1.0341  0.9013  0.5856
  703MOL0     C96899   6.985  11.307   2.107 -0.0856  0.2397  0.9386
  703MOL0     O96900   7.124  11.282   2.066 -0.0538 -0.0694 -0.1028
  703MOL0     C96901   7.218  11.250   2.159  0.2424  0.3061 -0.7665
  703MOL0     C96902   7.345  11.254   2.109 -0.2575 -0.6344  0.0097
  703MOL0     C96903   7.454  11.218   2.180  0.5056  0.3831 -0.4331
  703MOL0     C96904   7.582  11.225   2.101 -0.6338 -0.0640  0.2410
  703MOL0     C96905   7.428  11.140   2.301  0.1184 -0.8388  0.5184
  703MOL0     C96906   7.537  11.071   2.386 -0.1381 -0.3323  0.1348
  703MOL0     O96907   7.497  11.022   2.502 -0.3847 -0.2926 -1.4147
  703MOL0     C96908   7.592  11.016   2.600 -0.8134 -0.8009 -0.1714
  703MOL0     C96909   7.668  10.900   2.606 -0.2254  0.0296 -0.2351
  703MOL0     C96910   7.762  10.878   2.712 -0.6583 -0.5655 -0.9048
  703MOL0     C96911   7.768  10.974   2.823  0.1321  0.0412 -0.2060
  703MOL0     O96912   7.860  10.953   2.928  0.3505  1.0333 -0.1599
  703MOL0     C96913   7.920  10.821   2.935 -0.3282 -1.1267 -0.2819
  703MOL0     C96914   7.987  10.821   3.077 -0.2674 -0.2243  0.2943
  703MOL0     C96915   8.083  10.709   3.087 -0.3725 -0.3513  0.3329
  703MOL0     C96916   8.112  10.688   3.235 -0.3305  0.4247  0.3004
  703MOL0     C96917   8.202  10.570   3.259 -0.6658  0.6188 -0.5914
  703MOL0     C96918   8.339  10.578   3.175 -0.3064 -0.9718 -0.6362
  703MOL0     C96919   8.419  10.456   3.217 -0.2847 -0.6581 -0.8583
  703MOL0     C96920   8.556  10.452   3.138  0.5048  0.6739  0.5786
  703MOL0    Cl96921   8.629  10.289   3.155  0.1947 -0.4821 -0.5200
  703MOL0     C96922   7.694  11.092   2.817  0.4007  0.1062  0.5334
  703MOL0     C96923   7.608  11.107   2.708  0.4725 -0.4176 -0.4860
  703MOL0     O96924   7.649  11.067   2.348  0.2612 -0.3170  0.0003
  703MOL0     C96925   7.298  11.140   2.355  1.0232 -0.4731  0.3335
  703MOL0     C96926   7.191  11.196   2.287 -0.5454 -0.1499 -0.0144
  703MOL0     N96927   7.060  11.647   1.773 -0.3254  0.4395 -0.6607
  703MOL0     N96928   7.135  11.708   1.687 -0.2476 -0.1360  0.5539
  703MOL0     C96929   7.665  11.353   0.470  0.3491  0.0089  0.5273
  703MOL0     C96930   7.672  11.257   0.372 -0.7784  0.2326 -0.9905
  703MOL0     C96931   7.631  10.807   0.200 -0.4681 -0.2119 -0.8477
  703MOL0     C96932   7.772  10.806   0.219  0.6343 -0.8875 -0.2501
  703MOL0     C96933   7.858  10.710   0.160  1.6359 -0.0105 -0.1173
  703MOL0     C96934   7.805  10.621   0.078 -0.4602  1.0788  0.7006
  703MOL0     O96935   7.875  10.525   0.015  0.1511 -0.7941 -0.1402
  703MOL0     C96936   8.018  10.527   0.030 -0.1790  0.4874  0.8289
  703MOL0     C96937   8.052  10.378  -0.023 -0.4203 -0.0056 -0.4345
  703MOL0     C96938   8.044  10.277   0.095  0.2737 -0.4390 -0.6163
  703MOL0     C96939   8.126  10.157   0.051  0.5655  0.0467 -0.1283
  703MOL0     C96940   8.042  10.077  -0.035 -0.1600  0.7910 -0.3542
  703MOL0     C96941   7.984  10.008  -0.117 -0.2092 -0.3429  0.4747
  703MOL0     C96942   7.673  10.609   0.066 -0.1951  0.5802  0.0214
  703MOL0     C96943   7.578  10.704   0.117 -0.1253  0.5185  0.9089
  703MOL0     C96944   7.435  10.699   0.076 -0.4823 -0.0874 -0.7278
  703MOL0     H96945   7.428  11.050   0.479 -0.0913  0.5959 -2.0594
  703MOL0     H96946   7.396  11.217   0.637 -0.2355  1.6470  1.5549
  703MOL0     H96947   7.421  11.339   0.775  1.9442 -0.8633  0.3436
  703MOL0     H96948   7.358  11.486   0.711  0.2616 -0.4419 -0.1226
  703MOL0     H96949   7.577  11.458   0.925  0.9434 -0.0993 -1.4971
  703MOL0     H96950   7.516  11.620   0.876 -1.4904  0.0738  0.2303
  703MOL0     H96951   7.293  11.558   0.952  1.0138 -0.0370 -3.0607
  703MOL0     H96952   7.356  11.408   1.035  0.4399 -0.4321 -0.6251
  703MOL0     H96953   7.522  11.513   1.145 -0.8991 -1.1644 -2.8691
  703MOL0     H96954   7.461  11.679   1.095 -3.3311  0.1604 -3.2981
  703MOL0     H96955   7.327  11.464   1.259 -0.4098  0.4392  2.2443
  703MOL0     H96956   7.249  11.620   1.190 -0.4770  0.1918  0.0900
  703MOL0     H96957   7.486  11.610   1.392 -1.4953 -2.2760  1.0812
  703MOL0     H96958   7.399  11.754   1.334  5.2203 -0.5443 -4.1741
  703MOL0     H96959   7.343  11.677   1.558  0.2183  0.4803 -0.8358
  703MOL0     H96960   7.290  11.524   1.499  0.9335  0.6669  2.3877
  703MOL0     H96961   7.166  11.799   1.420  3.8014 -0.0938  1.1747
  703MOL0     H96962   7.109  11.635   1.366 -1.5605 -1.3014  1.2416
  703MOL0     H96963   6.949  11.509   1.501 -1.3827  0.5862  0.3589
  703MOL0     H96964   6.828  11.426   1.671 -1.3628  0.6875  1.0625
  703MOL0     H96965   6.789  11.523   1.821 -0.2184  2.9917 -1.6666
  703MOL0     H96966   6.869  11.269   1.852 -1.3307  0.9383 -1.1257
  703MOL0     H96967   7.027  11.350   1.838  0.5489  2.7396  2.7533
  703MOL0     H96968   6.984  11.507   2.017 -0.8847  1.2013 -2.4981
  703MOL0     H96969   6.827  11.441   2.036 -1.6139  0.8989 -1.3987
  703MOL0     H96970   6.975  11.354   2.205 -2.3121  1.0272  0.3834
  703MOL0     H96971   6.920  11.221   2.091 -0.6210  0.7397  0.3451
  703MOL0     H96972   7.366  11.283   2.006  1.0726 -0.1447  0.4001
  703MOL0     H96973   7.578  11.289   2.012 -1.2833 -1.5794 -0.8811
  703MOL0     H96974   7.592  11.123   2.062 -1.6220 -0.9673  2.1970
  703MOL0     H96975   7.670  11.256   2.158  1.8058 -1.0472 -2.6993
  703MOL0     H96976   7.650  10.834   2.522  1.5964 -3.1437  1.6703
  703MOL0     H96977   7.827  10.792   2.699  0.1293  0.2480 -2.6511
  703MOL0     H96978   7.852  10.736   2.939  2.5899 -3.5799  2.9337
  703MOL0     H96979   7.991  10.813   2.852 -2.7154  1.3159 -2.8153
  703MOL0     H96980   8.039  10.916   3.092 -0.2344  0.3413 -2.7114
  703MOL0     H96981   7.915  10.805   3.157  0.1748  0.9088  0.9495
  703MOL0     H96982   8.171  10.736   3.028 -1.0367 -0.8291 -0.9019
  703MOL0     H96983   8.045  10.619   3.038 -2.7889  1.2307 -0.9087
  703MOL0     H96984   8.022  10.684   3.297 -0.7560  3.2825  0.0078
  703MOL0     H96985   8.173  10.777   3.256  3.3064 -1.1682 -2.3033
  703MOL0     H96986   8.230  10.562   3.365  1.0859  1.3865 -0.9460
  703MOL0     H96987   8.151  10.477   3.237 -0.0314  0.8979 -3.5815
  703MOL0     H96988   8.391  10.674   3.184  1.3471 -1.7740 -1.1272
  703MOL0     H96989   8.322  10.578   3.067 -1.2431  1.3737 -0.5509
  703MOL0     H96990   8.362  10.366   3.192 -3.9164  1.0004  0.6680
  703MOL0     H96991   8.435  10.460   3.326 -0.3284  0.5614 -0.8837
  703MOL0     H96992   8.619  10.524   3.190  0.3597 -0.1830  1.9864
  703MOL0     H96993   8.552  10.486   3.034  0.6718 -0.1500  0.2974
  703MOL0     H96994   7.702  11.157   2.904 -0.4873 -1.4436  1.8358
  703MOL0     H96995   7.548  11.197   2.701  0.5272 -0.3896 -0.6010
  703MOL0     H96996   7.275  11.084   2.445  2.1291 -1.1650  0.2034
  703MOL0     H96997   7.088  11.188   2.320 -0.5070 -2.9961 -0.2936
  703MOL0     H96998   7.733  11.436   0.452  0.5132 -0.5766 -1.8381
  703MOL0     H96999   7.743  11.262   0.291 -1.1508 -1.5398 -1.4554
  703MOL0     H97000   7.828  10.871   0.284 -2.5051  3.3453 -1.3544
  703MOL0     H97001   7.962  10.708   0.191  1.5089 -3.0103  0.4346
  703MOL0     H97002   8.054  10.597  -0.046 -1.5580 -0.7639 -1.0861
  703MOL0     H97003   8.049  10.553   0.132 -0.3912  4.4139  0.0588
  703MOL0     H97004   8.151  10.384  -0.069 -0.1697  3.1705  0.2607
  703MOL0     H97005   7.983  10.341  -0.100 -1.4538 -0.4686  0.6858
  703MOL0     H97006   8.083  10.321   0.188  0.2784 -1.5446 -0.0753
  703MOL0     H97007   7.941  10.256   0.125 -0.0995  0.8069 -0.9694
  703MOL0     H97008   8.156  10.090   0.132  2.6344 -2.2662 -2.6073
  703MOL0     H97009   8.216  10.191   0.001  0.0776  1.8585  0.1587
  703MOL0     H97010   7.927   9.964  -0.196  1.2331 -1.1275 -0.1583
  703MOL0     H97011   7.627  10.521   0.022 -3.2985  2.0496  0.0547
  703MOL0     H97012   7.399  10.802   0.065 -0.0399  0.2591  0.7555
  703MOL0     H97013   7.432  10.637  -0.014  3.0260 -1.9400  0.2694
  703MOL0     H97014   7.373  10.652   0.154  0.1003  0.2735 -0.0299
  704MOL0     O97015   0.772   3.775   5.239 -0.3492 -0.2155  0.4032
  704MOL0     C97016   0.675   3.847   5.236  0.0772 -0.5857 -0.6426
  704MOL0     O97017   0.632   3.933   5.337 -0.4277  1.4399 -0.8741
  704MOL0     C97018   0.715   3.927   5.451  0.3686 -0.3974  0.1540
  704MOL0     C97019   0.654   3.872   5.564  0.1357 -0.9458 -0.8015
  704MOL0     C97020   0.733   3.855   5.681  0.1115  1.1848 -0.1025
  704MOL0     C97021   0.866   3.906   5.690  1.1503  0.5658 -0.2782
  704MOL0     O97022   0.946   3.902   5.806 -0.4014 -0.3503  0.2643
  704MOL0     C97023   0.922   3.795   5.898  0.5486  0.6366  0.3979
  704MOL0     C97024   1.032   3.763   5.988 -0.2516  0.2120 -0.1857
  704MOL0     C97025   1.072   3.884   6.065 -0.6477 -0.6299 -1.0799
  704MOL0     C97026   1.187   3.846   6.155  0.4216  0.6757  0.4688
  704MOL0     C97027   1.243   3.957   6.245  0.0625 -0.7066 -1.1345
  704MOL0     C97028   1.333   3.910   6.358 -0.2468 -0.1010  0.3399
  704MOL0     C97029   1.338   4.004   6.475  0.1559  0.0216  0.0690
  704MOL0     C97030   1.454   3.974   6.566  0.5788  0.0205  0.6277
  704MOL0     N97031   1.435   3.844   6.644  0.2695 -0.3134 -0.1928
  704MOL0     C97032   1.335   3.817   6.736  0.2850 -0.1544 -0.2201
  704MOL0     C97033   1.343   3.686   6.760  0.1572  0.1392  0.8693
  704MOL0     C97034   1.242   3.610   6.835 -0.7228  0.5869 -0.8686
  704MOL0     C97035   1.266   3.566   6.971  0.9523 -0.2385  0.0743
  704MOL0     C97036   1.384   3.475   6.994  0.8434 -0.0686  0.0871
  704MOL0     C97037   1.363   3.332   6.938  0.2198  0.5372  0.5679
  704MOL0     O97038   1.249   3.281   7.006  0.2334 -0.6052 -0.2428
  704MOL0     C97039   1.198   3.165   6.955  0.0089  0.6423  0.5567
  704MOL0     C97040   1.263   3.048   6.994 -0.6994  0.2668 -0.7267
  704MOL0     C97041   1.222   2.925   6.947  0.9077  1.3331  0.1294
  704MOL0     C97042   1.278   2.800   6.997  0.9841  0.5970 -0.1802
  704MOL0     C97043   1.116   2.921   6.845 -0.0838 -0.2200  0.5600
  704MOL0     C97044   1.073   2.804   6.778 -0.9060  0.2104 -0.1175
  704MOL0     O97045   1.039   2.709   6.863  0.1130 -0.2472 -0.4392
  704MOL0     C97046   0.966   2.604   6.820  0.2557 -0.5294  0.4520
  704MOL0     C97047   0.831   2.633   6.778 -0.1917  0.6043  0.6875
  704MOL0     C97048   0.751   2.532   6.734  0.0526  0.9631 -0.6053
  704MOL0     C97049   0.784   2.395   6.749  0.2631 -0.2383 -0.7094
  704MOL0     O97050   0.682   2.306   6.734 -0.8040 -0.2478  0.0819
  704MOL0     C97051   0.677   2.209   6.832  0.5324 -0.8612 -0.3748
  704MOL0     C97052   0.548   2.132   6.830  0.0379 -0.1364  0.3300
  704MOL0     C97053   0.539   2.041   6.956  0.4754  0.7613  0.3763
  704MOL0     C97054   0.667   1.964   6.992  0.3461  1.3781  0.4216
  704MOL0     C97055   0.649   1.865   7.111  0.1178 -0.0442  0.5483
  704MOL0     C97056   0.748   1.751   7.108 -1.1182 -0.1314 -0.5917
  704MOL0     C97057   0.740   1.669   6.980 -0.1561  0.3893  1.1832
  704MOL0     C97058   0.802   1.526   6.991 -0.2861  0.2663  0.0184
  704MOL0    Cl97059   0.980   1.514   7.024 -0.5121  0.1886 -0.2731
  704MOL0     C97060   0.915   2.366   6.801  1.8177  0.1744  0.5637
  704MOL0     C97061   0.999   2.467   6.839 -0.7050  0.2758  0.1255
  704MOL0     O97062   1.069   2.803   6.657 -0.4172 -0.0206  0.0325
  704MOL0     C97063   1.056   3.043   6.804  0.6334 -0.0404 -0.9254
  704MOL0     C97064   1.091   3.163   6.866 -0.4713 -0.1310  1.2788
  704MOL0     N97065   1.436   3.632   6.676 -0.1626 -0.3263 -0.1525
  704MOL0     N97066   1.497   3.728   6.609  0.3706  0.4812 -0.3669
  704MOL0     C97067   0.920   3.959   5.572 -0.3538 -0.5599 -0.1322
  704MOL0     C97068   0.845   3.980   5.457  0.7513  0.2370  0.7141
  704MOL0     C97069   0.601   3.857   5.109  0.5311  0.8322  0.1675
  704MOL0     C97070   0.509   3.963   5.087  0.3686 -0.7421  0.6841
  704MOL0     C97071   0.432   3.965   4.975  0.8090 -0.3310  0.8194
  704MOL0     C97072   0.441   3.873   4.864 -0.3383 -0.1562 -0.0109
  704MOL0     O97073   0.376   3.883   4.747  0.4305 -0.2032 -0.4387
  704MOL0     C97074   0.428   3.961   4.640 -0.3115 -0.6562  0.0687
  704MOL0     C97075   0.537   3.883   4.569 -0.8001  0.3889 -0.3196
  704MOL0     C97076   0.611   3.954   4.457  0.2627 -0.0649 -0.4831
  704MOL0     C97077   0.529   4.015   4.354  0.1910 -0.2709  0.6903
  704MOL0     C97078   0.622   4.083   4.268 -0.5449  0.1470  0.0837
  704MOL0     C97079   0.704   4.138   4.199 -0.4145  0.4669 -0.0712
  704MOL0     C97080   0.540   3.779   4.885 -0.0565  0.1346 -0.2589
  704MOL0     C97081   0.617   3.765   5.000  0.0242  0.5511  0.1507
  704MOL0     C97082   0.699   3.640   5.007 -0.7826 -0.1984  0.5308
  704MOL0     H97083   0.548   3.854   5.553 -0.5516  2.1335 -0.0763
  704MOL0     H97084   0.678   3.813   5.765 -4.4917  1.2444 -2.7402
  704MOL0     H97085   0.926   3.714   5.826  2.5066  1.8078 -0.9153
  704MOL0     H97086   0.825   3.808   5.948 -0.8150  1.5724 -2.2685
  704MOL0     H97087   1.014   3.684   6.060  3.1196 -3.3993 -2.8133
  704MOL0     H97088   1.115   3.738   5.920 -1.2858  0.9060 -1.7764
  704MOL0     H97089   1.108   3.963   5.998 -2.0762  0.8386 -0.1928
  704MOL0     H97090   0.994   3.929   6.126  2.3337  2.3875  0.8697
  704MOL0     H97091   1.146   3.761   6.210 -0.7825 -0.2359 -1.7307
  704MOL0     H97092   1.268   3.816   6.088  3.8760  2.0279  3.6617
  704MOL0     H97093   1.157   4.009   6.288  1.2354 -0.5362  1.1611
  704MOL0     H97094   1.295   4.037   6.191  1.1456  0.3088  1.2600
  704MOL0     H97095   1.309   3.807   6.386  0.3307  0.2232  2.1257
  704MOL0     H97096   1.428   3.912   6.304 -1.5310  2.5652 -2.1266
  704MOL0     H97097   1.242   4.007   6.529 -0.6438  0.9796 -1.3184
  704MOL0     H97098   1.338   4.106   6.436 -1.3088  0.2451  0.5582
  704MOL0     H97099   1.539   3.961   6.498  0.7713  0.6221  0.7491
  704MOL0     H97100   1.460   4.060   6.633  1.7026 -1.4149  2.4611
  704MOL0     H97101   1.273   3.889   6.788 -1.3765 -2.7005  1.5706
  704MOL0     H97102   1.229   3.514   6.784  1.2166 -1.3710  2.0095
  704MOL0     H97103   1.152   3.672   6.828  1.0143  3.3082 -0.5196
  704MOL0     H97104   1.269   3.658   7.030  2.2329 -0.2473  0.0382
  704MOL0     H97105   1.168   3.528   7.003  0.2238  1.3553 -0.1247
  704MOL0     H97106   1.471   3.520   6.945  0.4953 -0.4461 -0.9005
  704MOL0     H97107   1.411   3.458   7.099  1.2195 -3.8173 -0.4601
  704MOL0     H97108   1.345   3.322   6.830  0.6561  2.4985  0.2736
  704MOL0     H97109   1.449   3.270   6.963  0.9087  0.3225 -1.9773
  704MOL0     H97110   1.340   3.053   7.071 -1.2995 -1.8374  0.0877
  704MOL0     H97111   1.301   2.727   6.918  1.8560  0.9464 -0.2697
  704MOL0     H97112   1.205   2.739   7.050  2.4487 -2.2778 -1.1996
  704MOL0     H97113   1.363   2.811   7.064  0.2841  0.5018  0.7367
  704MOL0     H97114   0.806   2.737   6.760  0.6573  0.4315 -1.9959
  704MOL0     H97115   0.653   2.559   6.695 -0.7264 -0.3311  0.3779
  704MOL0     H97116   0.763   2.143   6.813  1.0711  0.0727 -1.2912
  704MOL0     H97117   0.691   2.249   6.933  0.9026  2.5350 -1.6548
  704MOL0     H97118   0.458   2.194   6.825 -1.6228 -2.5287 -2.7548
  704MOL0     H97119   0.550   2.081   6.733 -0.2371  1.3246 -0.4691
  704MOL0     H97120   0.453   1.973   6.956 -1.0027  2.4035  3.4895
  704MOL0     H97121   0.521   2.104   7.044  1.8922 -3.2396  3.8627
  704MOL0     H97122   0.749   2.030   7.018  1.2058  0.0762  1.1650
  704MOL0     H97123   0.692   1.907   6.902  0.0388  2.6356 -0.4785
  704MOL0     H97124   0.669   1.907   7.210  4.8655  0.0030 -0.1986
  704MOL0     H97125   0.552   1.814   7.100  0.2710  0.0145 -1.4346
  704MOL0     H97126   0.737   1.687   7.196  1.2078 -0.8498 -0.7516
  704MOL0     H97127   0.849   1.792   7.118 -0.8433 -0.5930 -1.4202
  704MOL0     H97128   0.809   1.723   6.915  0.7785 -2.8141 -0.7404
  704MOL0     H97129   0.645   1.670   6.926 -1.0764  0.9069  2.7453
  704MOL0     H97130   0.785   1.474   6.896  0.0717  0.2545 -0.0403
  704MOL0     H97131   0.744   1.474   7.067 -3.0780  2.5194 -0.4184
  704MOL0     H97132   0.938   2.266   6.836 -0.9217 -0.7106  0.1351
  704MOL0     H97133   1.088   2.424   6.884 -0.4186 -2.9740 -3.0902
  704MOL0     H97134   0.979   3.037   6.728  1.6207 -2.1538 -1.8618
  704MOL0     H97135   1.050   3.255   6.827  2.9487 -0.6322 -4.7298
  704MOL0     H97136   1.023   3.993   5.571 -0.9266  1.3804 -2.9932
  704MOL0     H97137   0.888   4.035   5.375 -0.7497 -0.1541 -0.3955
  704MOL0     H97138   0.509   4.047   5.155  0.2588 -0.2898  0.1291
  704MOL0     H97139   0.355   4.041   4.968  2.9946  1.9295 -0.5893
  704MOL0     H97140   0.343   3.977   4.574 -1.3865 -4.1320  0.4213
  704MOL0     H97141   0.470   4.056   4.674  4.3879 -2.1941 -0.5719
  704MOL0     H97142   0.490   3.793   4.529 -1.3978  0.3436  0.4570
  704MOL0     H97143   0.612   3.853   4.643  1.5988  1.9086 -2.0087
  704MOL0     H97144   0.682   4.021   4.506 -2.0819  0.5683  2.2898
  704MOL0     H97145   0.675   3.880   4.407  0.3752 -1.9406  2.2325
  704MOL0     H97146   0.456   4.084   4.397  0.7576 -0.0764  1.3568
  704MOL0     H97147   0.477   3.934   4.302  2.0951 -0.3644 -1.2396
  704MOL0     H97148   0.782   4.181   4.140  1.3224 -3.3061 -0.8326
  704MOL0     H97149   0.561   3.703   4.811  0.8781  0.1635 -0.0396
  704MOL0     H97150   0.700   3.583   4.914  1.8480  1.6712 -0.7210
  704MOL0     H97151   0.803   3.670   5.026 -0.8661  1.3788 -1.2139
  704MOL0     H97152   0.660   3.580   5.089 -1.8161  0.8173  0.8001
  705MOL0     O97153   1.591   2.755   4.056  0.2678 -0.1822 -0.4325
  705MOL0     C97154   1.515   2.857   4.075 -0.1857  0.2963 -0.4373
  705MOL0     O97155   1.411   2.865   4.162  0.5748  0.0196 -0.3448
  705MOL0     C97156   1.347   2.751   4.198  0.3814  0.5875  0.2744
  705MOL0     C97157   1.224   2.718   4.145  0.5945  0.7278  1.0202
  705MOL0     C97158   1.147   2.607   4.190 -0.2256 -0.3532  0.1228
  705MOL0     C97159   1.201   2.523   4.286 -0.2974 -0.7156  0.5873
  705MOL0     O97160   1.139   2.417   4.348  0.3219 -0.3571  0.7765
  705MOL0     C97161   1.002   2.426   4.359  0.1683  0.5014 -0.3438
  705MOL0     C97162   0.952   2.371   4.492  1.4324  0.2000  0.2055
  705MOL0     C97163   0.973   2.461   4.611 -0.0873 -0.3672 -1.0151
  705MOL0     C97164   0.937   2.380   4.738 -0.1992 -0.1960 -0.0400
  705MOL0     C97165   0.939   2.485   4.856 -0.5212  0.5090  0.0594
  705MOL0     C97166   0.822   2.584   4.844 -0.3374 -0.5523  0.3115
  705MOL0     C97167   0.827   2.665   4.969 -0.1021 -0.3791  0.0598
  705MOL0     C97168   0.712   2.762   4.976 -0.5865 -0.2808  1.0065
  705MOL0     N97169   0.715   2.821   5.108  0.3092 -0.6519 -0.1359
  705MOL0     C97170   0.816   2.898   5.154  0.1027 -0.5299  0.6299
  705MOL0     C97171   0.773   2.943   5.277 -0.1699  0.3275 -0.0238
  705MOL0     C97172   0.830   3.047   5.368  0.8045  0.9770  0.6131
  705MOL0     C97173   0.834   2.992   5.506  0.7101 -0.1889 -0.8273
  705MOL0     C97174   0.906   3.090   5.606 -0.0444  1.5344 -0.3571
  705MOL0     C97175   1.039   3.152   5.551  0.2466  0.4334 -0.5923
  705MOL0     O97176   1.099   3.214   5.665  0.6566  0.2343 -0.2683
  705MOL0     C97177   1.168   3.134   5.755  0.1610  0.9822 -0.3345
  705MOL0     C97178   1.216   3.003   5.739  0.0081 -1.2208 -0.4100
  705MOL0     C97179   1.291   2.935   5.827 -0.7510 -0.3377 -0.6549
  705MOL0     C97180   1.318   2.790   5.803 -0.1017  0.0609  0.2877
  705MOL0     C97181   1.318   2.997   5.952  0.4446 -0.0279 -0.0057
  705MOL0     C97182   1.401   2.947   6.068  0.2140 -0.5665  0.0363
  705MOL0     O97183   1.388   3.015   6.183 -0.4866  0.9611  0.0582
  705MOL0     C97184   1.439   2.985   6.305  0.0454  0.5774 -0.5375
  705MOL0     C97185   1.348   3.006   6.408  0.3182  0.2163  0.4190
  705MOL0     C97186   1.383   2.971   6.540  0.5045 -0.0611 -0.6255
  705MOL0     C97187   1.509   2.933   6.566 -0.6220  0.4026  0.5162
  705MOL0     O97188   1.534   2.907   6.696 -0.1751 -0.7497 -0.6464
  705MOL0     C97189   1.627   2.801   6.736  0.5254  0.0216  0.2067
  705MOL0     C97190   1.591   2.782   6.885 -0.7958  0.1859 -0.1136
  705MOL0     C97191   1.708   2.721   6.971 -1.0131  0.4743  0.1096
  705MOL0     C97192   1.764   2.581   6.921 -0.9822 -0.0354  0.6705
  705MOL0     C97193   1.881   2.538   7.016  0.0229  0.8629 -0.0785
  705MOL0     C97194   1.817   2.467   7.132  0.0884  0.1613  0.2753
  705MOL0     C97195   1.917   2.412   7.231 -0.1916  0.3235  0.6978
  705MOL0     C97196   2.017   2.310   7.178 -0.3595  1.3228  0.2510
  705MOL0    Cl97197   1.933   2.181   7.087  0.2140 -0.0859  0.0218
  705MOL0     C97198   1.611   2.928   6.459 -0.0890 -0.5895  0.7479
  705MOL0     C97199   1.571   2.941   6.334 -0.2063 -0.5822  0.5214
  705MOL0     O97200   1.486   2.865   6.036 -0.6102 -0.0365 -0.6453
  705MOL0     C97201   1.264   3.128   5.969  1.2682 -0.1583 -1.2220
  705MOL0     C97202   1.195   3.194   5.876 -0.2322  0.0841 -0.1512
  705MOL0     N97203   0.650   2.880   5.294 -0.1001  0.5582  0.4734
  705MOL0     N97204   0.615   2.806   5.197  0.4421  0.3445 -0.0746
  705MOL0     C97205   1.333   2.542   4.329  0.1479  0.7659 -0.6599
  705MOL0     C97206   1.408   2.657   4.290  0.6329 -0.4932 -0.6568
  705MOL0     C97207   1.559   2.974   4.004 -0.0121 -1.2168  0.1937
  705MOL0     C97208   1.615   3.076   4.085  0.8196  0.3106 -0.1781
  705MOL0     C97209   1.656   3.191   4.023 -0.7286 -0.4707  0.1949
  705MOL0     C97210   1.646   3.218   3.893 -0.2033  0.4352  1.2242
  705MOL0     O97211   1.693   3.333   3.842 -0.3974  0.2511 -0.5366
  705MOL0     C97212   1.638   3.390   3.717 -0.5525  0.0570 -1.0722
  705MOL0     C97213   1.707   3.339   3.591  0.1510 -0.1480 -0.2819
  705MOL0     C97214   1.810   3.436   3.548  0.4385 -0.8885  0.6664
  705MOL0     C97215   1.848   3.381   3.406 -0.3681 -0.6502 -0.1382
  705MOL0     C97216   1.747   3.383   3.301 -0.0844 -0.2010  0.0661
  705MOL0     C97217   1.652   3.356   3.227  0.3143  0.4304 -0.1841
  705MOL0     C97218   1.590   3.113   3.820 -0.5823 -0.4543  0.0028
  705MOL0     C97219   1.550   2.989   3.868  1.5029 -0.3356  0.4747
  705MOL0     C97220   1.492   2.882   3.779 -0.8643  1.4035 -0.5382
  705MOL0     H97221   1.156   2.789   4.097 -1.6455 -1.5852  0.5295
  705MOL0     H97222   1.045   2.601   4.155  0.0749  0.9113 -1.0595
  705MOL0     H97223   0.959   2.382   4.269 -0.2287  1.0414 -0.4227
  705MOL0     H97224   0.972   2.532   4.361  2.7478  1.2968  0.1906
  705MOL0     H97225   0.849   2.334   4.490  1.0025  1.3865 -0.5085
  705MOL0     H97226   1.006   2.277   4.509  1.2704 -0.0972 -0.8623
  705MOL0     H97227   1.072   2.507   4.618 -1.5945  3.0360  0.9020
  705MOL0     H97228   0.897   2.538   4.596 -0.9305 -1.2046 -1.0970
  705MOL0     H97229   0.833   2.349   4.723 -0.3965  0.3006  0.2443
  705MOL0     H97230   1.002   2.297   4.764  1.0184  0.6644 -0.2724
  705MOL0     H97231   1.040   2.525   4.854  0.5346 -1.8978 -3.4214
  705MOL0     H97232   0.947   2.436   4.954  3.7755  3.2240  1.3653
  705MOL0     H97233   0.838   2.643   4.753  0.5248 -0.3794  0.5713
  705MOL0     H97234   0.727   2.529   4.837 -0.6084 -0.3273  1.8430
  705MOL0     H97235   0.915   2.723   4.996 -2.0065  1.8220  1.9618
  705MOL0     H97236   0.824   2.590   5.049 -2.7251  1.2935  1.6888
  705MOL0     H97237   0.715   2.832   4.892 -4.1902 -1.8985 -0.7027
  705MOL0     H97238   0.616   2.712   4.959 -0.2534 -1.1138  1.4971
  705MOL0     H97239   0.896   2.934   5.091 -0.9025 -0.6257 -0.7660
  705MOL0     H97240   0.753   3.125   5.357 -0.6420 -0.6128 -1.6459
  705MOL0     H97241   0.926   3.081   5.329 -0.0664  0.6015 -2.0909
  705MOL0     H97242   0.732   2.972   5.541  0.3936  2.3330 -0.1115
  705MOL0     H97243   0.889   2.897   5.509  0.8766 -0.0918 -0.7593
  705MOL0     H97244   0.834   3.166   5.637 -0.3658  1.2757 -0.4647
  705MOL0     H97245   0.931   3.028   5.693  1.5560 -0.8232 -2.3416
  705MOL0     H97246   1.103   3.083   5.495  1.4197  1.8541 -1.0881
  705MOL0     H97247   1.026   3.235   5.481  2.7716  1.5156  0.1024
  705MOL0     H97248   1.211   2.943   5.649 -1.0791 -0.4379 -0.8905
  705MOL0     H97249   1.410   2.763   5.752 -0.7623 -2.3052  0.2384
  705MOL0     H97250   1.235   2.751   5.743 -1.1440  4.1387 -1.3046
  705MOL0     H97251   1.305   2.734   5.896 -2.2103 -1.6439 -0.9273
  705MOL0     H97252   1.248   3.042   6.388 -0.6675 -0.9503  2.7964
  705MOL0     H97253   1.315   2.987   6.623  3.1401  1.1391  1.4509
  705MOL0     H97254   1.596   2.715   6.675 -1.1281  0.8988 -0.2434
  705MOL0     H97255   1.734   2.818   6.723  0.8821 -2.3410 -0.5018
  705MOL0     H97256   1.573   2.880   6.928  2.6379  2.4608 -3.2341
  705MOL0     H97257   1.506   2.713   6.891 -0.9712  0.5266  1.5314
  705MOL0     H97258   1.662   2.717   7.070 -1.6967  2.7166 -0.0745
  705MOL0     H97259   1.786   2.797   6.968 -2.5997  2.1901  0.9551
  705MOL0     H97260   1.802   2.598   6.820 -0.0173  0.8991  1.1607
  705MOL0     H97261   1.690   2.501   6.912 -1.2636  0.3438 -0.5378
  705MOL0     H97262   1.952   2.467   6.972  1.5712  2.7926 -0.8103
  705MOL0     H97263   1.929   2.628   7.056 -1.6281  1.5274  0.5012
  705MOL0     H97264   1.750   2.392   7.089  1.8530 -0.5475 -1.3619
  705MOL0     H97265   1.768   2.554   7.177  0.9289 -0.4412  2.4510
  705MOL0     H97266   1.867   2.371   7.319 -0.2423  1.6683  1.3079
  705MOL0     H97267   1.971   2.497   7.273  1.0025 -0.6062  1.1073
  705MOL0     H97268   2.073   2.281   7.267 -0.2414 -1.1987 -0.5617
  705MOL0     H97269   2.099   2.349   7.116 -0.7509  1.5607 -0.1208
  705MOL0     H97270   1.714   2.913   6.489  0.4852 -5.0009 -2.3332
  705MOL0     H97271   1.641   2.924   6.253 -2.2092 -1.2923 -1.1506
  705MOL0     H97272   1.264   3.184   6.062 -1.6631 -2.2734  0.2336
  705MOL0     H97273   1.158   3.294   5.895  1.9091  1.2698 -1.7966
  705MOL0     H97274   1.386   2.482   4.403 -0.5126  1.0738  0.0806
  705MOL0     H97275   1.515   2.661   4.305  0.9656 -0.9920 -2.6359
  705MOL0     H97276   1.619   3.067   4.193  2.5232  0.6897 -0.1704
  705MOL0     H97277   1.714   3.261   4.083  0.2426 -1.6546  0.6853
  705MOL0     H97278   1.530   3.374   3.720 -0.4602 -0.8175 -1.9692
  705MOL0     H97279   1.641   3.499   3.722 -2.2127  0.0927  0.1182
  705MOL0     H97280   1.629   3.313   3.519 -1.7656 -1.6884  2.2126
  705MOL0     H97281   1.745   3.239   3.612 -0.7423 -0.0443  2.1349
  705MOL0     H97282   1.780   3.540   3.535  2.6788  0.1936  3.2319
  705MOL0     H97283   1.900   3.428   3.609  0.5239 -1.7696  0.4422
  705MOL0     H97284   1.898   3.284   3.416  1.5337  0.3022  0.0586
  705MOL0     H97285   1.918   3.459   3.374  0.0001 -0.4787  1.0662
  705MOL0     H97286   1.566   3.339   3.166  1.7401  1.4897 -2.6397
  705MOL0     H97287   1.566   3.131   3.716 -2.5344  2.3302  0.8388
  705MOL0     H97288   1.506   2.904   3.673 -0.3296 -0.3968 -0.8831
  705MOL0     H97289   1.552   2.794   3.805 -2.3058  1.4175  3.4863
  705MOL0     H97290   1.386   2.855   3.788 -0.5633 -2.1643 -4.3989
  706MOL0     O97291   7.596   4.997  10.850 -0.0636 -0.2614  0.0224
  706MOL0     C97292   7.689   4.971  10.777 -0.5493 -0.4271  0.2622
  706MOL0     O97293   7.791   5.057  10.735  1.0305 -0.3198  1.2042
  706MOL0     C97294   7.804   5.162  10.820  0.4935 -0.0004  0.6953
  706MOL0     C97295   7.730   5.283  10.794 -0.9224  0.1979 -0.7863
  706MOL0     C97296   7.755   5.398  10.878  0.7475  0.7248 -1.0311
  706MOL0     C97297   7.845   5.383  10.993  0.1064  0.4715  0.2029
  706MOL0     O97298   7.865   5.492  11.079 -0.9155  0.5907 -0.2737
  706MOL0     C97299   7.991   5.496  11.153  0.1750  0.5609 -0.0994
  706MOL0     C97300   8.020   5.645  11.182  0.1912  0.7371 -0.4764
  706MOL0     C97301   8.112   5.669  11.304  0.5562 -0.6122  0.5390
  706MOL0     C97302   8.139   5.826  11.325  0.3663 -0.3753 -0.5207
  706MOL0     C97303   8.240   5.858  11.431  0.1355 -0.5937 -0.2690
  706MOL0     C97304   8.161   5.883  11.558  0.2296  0.4593 -0.6013
  706MOL0     C97305   8.263   5.888  11.671  0.5124  0.3599 -0.1208
  706MOL0     C97306   8.201   5.878  11.809  0.6973 -0.4269 -0.0182
  706MOL0     N97307   8.108   5.986  11.848  0.7590 -0.4015  0.8330
  706MOL0     C97308   8.140   6.118  11.841  0.3964  0.2625  0.1609
  706MOL0     C97309   8.032   6.195  11.867 -0.0332  0.6300 -0.0908
  706MOL0     C97310   8.024   6.340  11.866  0.4245 -0.4957  0.6672
  706MOL0     C97311   7.947   6.405  11.977 -0.4104 -0.1024 -0.1324
  706MOL0     C97312   7.973   6.341  12.119 -0.0232 -0.0246 -0.5756
  706MOL0     C97313   8.115   6.364  12.172 -0.6282  0.8435 -0.1740
  706MOL0     O97314   8.130   6.501  12.217 -0.0086 -0.5880  0.4021
  706MOL0     C97315   8.119   6.520  12.353  0.7266  0.5579 -0.0975
  706MOL0     C97316   8.030   6.449  12.431  0.6753  0.7769  0.8640
  706MOL0     C97317   8.024   6.468  12.573  0.3648  0.4689  0.1818
  706MOL0     C97318   7.928   6.380  12.654  0.4325 -0.0636 -0.1703
  706MOL0     C97319   8.109   6.564  12.635  1.1890  0.3668 -0.7044
  706MOL0     C97320   8.138   6.582  12.782 -0.6289 -0.5731 -0.2456
  706MOL0     O97321   8.210   6.695  12.819 -0.3249 -0.4371  0.3933
  706MOL0     C97322   8.233   6.733  12.948  0.3777  0.3436  0.6137
  706MOL0     C97323   8.132   6.791  13.025  0.3605 -0.5304 -0.0564
  706MOL0     C97324   8.138   6.785  13.169 -0.1500 -0.8560 -0.9707
  706MOL0     C97325   8.253   6.731  13.237  0.8323 -0.8985 -0.0899
  706MOL0     O97326   8.250   6.741  13.373  0.2769 -0.1829  1.1063
  706MOL0     C97327   8.372   6.769  13.438 -0.8953  0.2895  0.4356
  706MOL0     C97328   8.426   6.641  13.504  0.0464  0.2256  0.5977
  706MOL0     C97329   8.562   6.663  13.563  0.1372  0.0786 -0.0838
  706MOL0     C97330   8.585   6.595  13.688 -0.2068 -0.2866  0.1227
  706MOL0     C97331   8.703   6.648  13.766  0.1917  0.2374  1.6114
  706MOL0     C97332   8.842   6.651  13.693 -0.1835 -0.6828  0.5570
  706MOL0     C97333   8.902   6.521  13.663  0.6591  0.3238  0.4576
  706MOL0     C97334   8.988   6.475  13.781 -0.5853 -0.3202 -0.3777
  706MOL0    Cl97335   9.044   6.310  13.790 -0.0362  0.1553 -0.1810
  706MOL0     C97336   8.358   6.682  13.157  0.1740  0.5752 -0.0034
  706MOL0     C97337   8.341   6.668  13.016 -0.6367  0.0796  0.6624
  706MOL0     O97338   8.104   6.493  12.852  0.0385  0.2626  0.8151
  706MOL0     C97339   8.172   6.650  12.541 -1.0168  0.0687 -0.6699
  706MOL0     C97340   8.174   6.634  12.405 -0.2521  0.1389 -0.2033
  706MOL0     N97341   7.931   6.099  11.897  0.2182  0.2313  0.4360
  706MOL0     N97342   7.976   5.978  11.891 -0.1227  0.9811 -0.2408
  706MOL0     C97343   7.912   5.259  11.010  0.5701  0.2608  0.7688
  706MOL0     C97344   7.894   5.155  10.924 -0.2770 -0.0522 -0.7628
  706MOL0     C97345   7.696   4.836  10.714 -0.1159  0.3933 -0.0055
  706MOL0     C97346   7.812   4.810  10.634 -0.5066 -0.1770  0.5018
  706MOL0     C97347   7.812   4.697  10.561  0.9169  0.7596  0.6651
  706MOL0     C97348   7.712   4.602  10.577  0.3051  0.1602 -0.6511
  706MOL0     O97349   7.727   4.479  10.517  0.4396 -0.5424 -0.1834
  706MOL0     C97350   7.675   4.480  10.385 -0.0952 -1.0575  0.8601
  706MOL0     C97351   7.642   4.329  10.345 -0.4533 -0.7951  0.7147
  706MOL0     C97352   7.619   4.244  10.476  0.3690 -0.1144  1.2528
  706MOL0     C97353   7.552   4.109  10.450  0.0233 -0.2567  0.1719
  706MOL0     C97354   7.617   4.037  10.346 -0.4325  0.6070 -0.2184
  706MOL0     C97355   7.660   3.969  10.254 -0.8592  0.4226 -1.0513
  706MOL0     C97356   7.598   4.621  10.652  0.2760 -0.1145  0.2715
  706MOL0     C97357   7.596   4.734  10.723 -0.5992 -0.6157  0.2097
  706MOL0     C97358   7.460   4.762  10.793 -0.4986  0.3732  1.0895
  706MOL0     H97359   7.665   5.280  10.706 -0.1280 -1.1428 -1.3610
  706MOL0     H97360   7.696   5.489  10.879  1.0857  0.9497  0.0597
  706MOL0     H97361   8.077   5.461  11.096  0.5253  0.7365  0.3142
  706MOL0     H97362   7.981   5.450  11.252  2.1673  0.6610  0.2005
  706MOL0     H97363   8.068   5.690  11.095 -1.0126  2.4510 -0.3167
  706MOL0     H97364   7.931   5.708  11.192 -1.8919 -1.6623 -2.7022
  706MOL0     H97365   8.050   5.631  11.385 -2.9024 -1.7616 -2.3534
  706MOL0     H97366   8.205   5.611  11.306 -0.0364 -1.6198  0.1166
  706MOL0     H97367   8.181   5.868  11.233  1.1802 -2.6685 -1.2623
  706MOL0     H97368   8.050   5.885  11.349  3.2749  3.2744  2.5378
  706MOL0     H97369   8.310   5.940  11.415  1.3333 -1.5096  0.1446
  706MOL0     H97370   8.301   5.769  11.450 -3.5415 -2.6121  3.7454
  706MOL0     H97371   8.106   5.976  11.539  1.4047  0.9889 -1.5926
  706MOL0     H97372   8.093   5.799  11.575  0.9683 -0.0777 -0.2237
  706MOL0     H97373   8.311   5.987  11.668 -1.1960  1.2691  0.7880
  706MOL0     H97374   8.341   5.812  11.678  0.9957  0.8937  0.4671
  706MOL0     H97375   8.133   5.793  11.820  0.1302  0.0881  0.5865
  706MOL0     H97376   8.288   5.876  11.876 -0.8384 -0.5323  2.0763
  706MOL0     H97377   8.237   6.154  11.807  0.2077 -0.9612 -1.8147
  706MOL0     H97378   7.978   6.367  11.770  0.9738  1.1583  0.8261
  706MOL0     H97379   8.121   6.389  11.878 -0.2089  0.6681  1.3063
  706MOL0     H97380   7.968   6.513  11.979  0.7626 -0.3268  0.0416
  706MOL0     H97381   7.838   6.395  11.969 -0.5980 -3.4252  3.6075
  706MOL0     H97382   7.906   6.383  12.195  0.7027  1.0608 -0.5121
  706MOL0     H97383   7.951   6.234  12.115 -1.3950  0.1882  0.3407
  706MOL0     H97384   8.140   6.287  12.246  0.0058  1.2819  0.0663
  706MOL0     H97385   8.183   6.352  12.087 -1.6116 -0.7682 -0.7979
  706MOL0     H97386   7.956   6.380  12.392  1.3242  0.2669  0.5139
  706MOL0     H97387   7.976   6.294  12.702 -1.6340  0.1015  2.4000
  706MOL0     H97388   7.854   6.334  12.588  0.0908  0.5581 -0.2273
  706MOL0     H97389   7.867   6.447  12.715 -2.0407 -0.5572 -1.9322
  706MOL0     H97390   8.043   6.818  12.969  0.0330 -1.7167 -0.1474
  706MOL0     H97391   8.061   6.833  13.227  0.0375 -1.9688  0.2420
  706MOL0     H97392   8.445   6.818  13.372 -1.5499 -1.2346 -1.5266
  706MOL0     H97393   8.351   6.830  13.526 -2.1682  0.9866 -0.3334
  706MOL0     H97394   8.364   6.617  13.590 -0.8339  0.7057  0.1049
  706MOL0     H97395   8.429   6.555  13.436  0.3696  1.1603 -0.6166
  706MOL0     H97396   8.568   6.768  13.595  0.9787  0.3912 -1.2371
  706MOL0     H97397   8.644   6.652  13.493  0.3430  0.3706  0.1075
  706MOL0     H97398   8.591   6.486  13.677  3.9711 -0.1443 -0.7182
  706MOL0     H97399   8.498   6.604  13.755 -1.0951 -0.0653 -1.0408
  706MOL0     H97400   8.668   6.747  13.797  0.2101  1.1683 -1.0376
  706MOL0     H97401   8.719   6.580  13.850 -1.7548 -0.9365  1.0940
  706MOL0     H97402   8.902   6.697  13.771 -1.2095 -0.6104  1.3223
  706MOL0     H97403   8.836   6.714  13.603  0.1753 -2.4348 -0.7573
  706MOL0     H97404   8.957   6.533  13.569  1.4764  2.0123  1.1157
  706MOL0     H97405   8.828   6.442  13.649  2.1699 -1.0519 -0.1960
  706MOL0     H97406   8.936   6.495  13.875  0.8416 -1.5310  0.7357
  706MOL0     H97407   9.078   6.537  13.785 -1.7223  1.3720  0.6483
  706MOL0     H97408   8.450   6.639  13.196  0.0435  0.3257  0.0284
  706MOL0     H97409   8.419   6.630  12.951 -0.2434  2.4008 -0.3336
  706MOL0     H97410   8.237   6.729  12.577 -1.3080 -0.7503  1.8385
  706MOL0     H97411   8.233   6.697  12.339 -1.2853  1.3232 -0.0349
  706MOL0     H97412   7.981   5.253  11.093 -0.2098  3.6394  1.8042
  706MOL0     H97413   7.943   5.061  10.944 -0.8143  0.1088  1.6097
  706MOL0     H97414   7.900   4.869  10.610  1.2337 -3.0582 -0.7584
  706MOL0     H97415   7.894   4.683  10.492 -0.5641  1.4750 -1.3225
  706MOL0     H97416   7.584   4.540  10.378 -1.4295 -3.1240 -0.5140
  706MOL0     H97417   7.748   4.517  10.312  0.2860 -0.1358  1.6729
  706MOL0     H97418   7.728   4.291  10.290 -1.7166 -0.7773 -1.4184
  706MOL0     H97419   7.548   4.318  10.290  0.4608 -0.8426 -0.9055
  706MOL0     H97420   7.714   4.224  10.528 -0.3591 -2.6039  1.7586
  706MOL0     H97421   7.552   4.299  10.543 -0.0310  1.1068 -0.1137
  706MOL0     H97422   7.446   4.127  10.432  0.2031  0.8017  0.1203
  706MOL0     H97423   7.552   4.048  10.541 -1.7100 -2.3068 -1.1191
  706MOL0     H97424   7.707   3.906  10.181  0.2117 -0.9481  0.7237
  706MOL0     H97425   7.519   4.547  10.662  2.6108 -2.6792  0.9447
  706MOL0     H97426   7.481   4.790  10.896  1.1919  1.9241  0.3707
  706MOL0     H97427   7.396   4.833  10.739 -1.2985 -0.5668  0.7791
  706MOL0     H97428   7.405   4.668  10.793 -3.3008  1.8452 -0.8980
  707MOL0     O97429   2.950   7.845   2.861  0.3925  0.1916 -0.6038
  707MOL0     C97430   3.025   7.842   2.963 -0.0532 -0.5425 -0.5780
  707MOL0     O97431   3.165   7.862   2.957 -0.7276 -0.4789 -0.1666
  707MOL0     C97432   3.208   7.874   2.824  0.0676 -0.4186  0.0852
  707MOL0     C97433   3.304   7.791   2.752  0.2993  0.2769  0.1035
  707MOL0     C97434   3.333   7.817   2.613 -0.4541  0.2565  0.0686
  707MOL0     C97435   3.275   7.930   2.539  0.0310 -0.5658 -0.1688
  707MOL0     O97436   3.311   7.956   2.409  0.2792 -0.3581  0.0627
  707MOL0     C97437   3.329   8.095   2.367  0.2506 -0.8499  0.1919
  707MOL0     C97438   3.346   8.113   2.213 -1.1202 -0.6423 -0.1880
  707MOL0     C97439   3.438   8.019   2.153 -0.8402  0.5277  0.3124
  707MOL0     C97440   3.440   8.047   2.005 -0.4728 -0.0973 -0.3591
  707MOL0     C97441   3.553   7.984   1.917  0.7598  0.6556 -0.4407
  707MOL0     C97442   3.567   8.044   1.771 -0.3031  0.6118 -0.5267
  707MOL0     C97443   3.435   8.027   1.694 -0.6451  0.4518 -0.2031
  707MOL0     C97444   3.442   8.060   1.541  0.9622 -0.6460  0.1055
  707MOL0     N97445   3.313   8.054   1.473  0.7234 -0.5228  0.2766
  707MOL0     C97446   3.194   8.107   1.520  0.0415  0.5813  0.6899
  707MOL0     C97447   3.109   8.064   1.424  0.0064 -0.5524 -0.9571
  707MOL0     C97448   2.959   8.089   1.440  0.4737  0.1009 -0.5904
  707MOL0     C97449   2.891   7.957   1.451 -0.1123 -0.6890 -0.9108
  707MOL0     C97450   2.739   7.976   1.442 -0.0957 -0.1624  0.4400
  707MOL0     C97451   2.666   7.838   1.419 -0.6044 -0.0783 -0.3042
  707MOL0     O97452   2.527   7.842   1.444  0.2324 -0.0668  0.7923
  707MOL0     C97453   2.444   7.847   1.333  0.1051  0.0331 -0.3979
  707MOL0     C97454   2.480   7.888   1.205  0.8905  1.2235 -0.0817
  707MOL0     C97455   2.390   7.864   1.105 -0.1985  0.4368  0.1067
  707MOL0     C97456   2.423   7.922   0.969  1.1285  0.9302  0.2815
  707MOL0     C97457   2.264   7.795   1.125  0.5901 -1.1762 -0.4035
  707MOL0     C97458   2.171   7.734   1.024 -0.8968  1.1576 -0.5537
  707MOL0     O97459   2.048   7.689   1.069  0.2864  0.0402  0.1641
  707MOL0     C97460   1.961   7.639   0.977 -0.0377 -0.7442  0.2023
  707MOL0     C97461   1.978   7.525   0.906 -0.6418 -0.4548 -0.6252
  707MOL0     C97462   1.879   7.489   0.817  0.3058  1.0061  0.3596
  707MOL0     C97463   1.759   7.556   0.799 -0.5054 -0.3222 -0.0218
  707MOL0     O97464   1.684   7.501   0.699 -0.0897 -0.6907  0.3346
  707MOL0     C97465   1.634   7.598   0.605  0.8344 -0.5236 -0.4522
  707MOL0     C97466   1.725   7.671   0.504 -0.4041 -0.2918  1.1935
  707MOL0     C97467   1.844   7.603   0.436  0.0380  0.0533 -0.2440
  707MOL0     C97468   1.801   7.472   0.363 -0.4675 -0.1162 -0.0373
  707MOL0     C97469   1.921   7.422   0.282 -0.7373  0.3750 -0.4632
  707MOL0     C97470   1.961   7.513   0.163  1.0821 -0.5361 -0.5171
  707MOL0     C97471   2.049   7.446   0.062 -0.1741 -0.5885  0.1974
  707MOL0     C97472   2.135   7.535  -0.025  0.2793  0.3473  0.2565
  707MOL0    Cl97473   2.287   7.449  -0.068 -0.0176 -0.2280  0.3476
  707MOL0     C97474   1.735   7.665   0.875  0.2997 -0.0273 -0.2767
  707MOL0     C97475   1.836   7.717   0.965 -0.2863 -0.2485  0.1549
  707MOL0     O97476   2.211   7.729   0.910 -0.1048  0.5884  0.0376
  707MOL0     C97477   2.225   7.763   1.253 -0.4298 -0.4782 -0.7484
  707MOL0     C97478   2.315   7.788   1.359 -0.2095  0.1689 -0.7583
  707MOL0     N97479   3.165   8.009   1.318 -0.3558  0.2175  0.4671
  707MOL0     N97480   3.288   8.003   1.345  0.0413 -0.1774 -0.2444
  707MOL0     C97481   3.193   8.014   2.621 -0.2592 -0.2181  0.1128
  707MOL0     C97482   3.163   7.988   2.756 -1.0187 -0.0942 -0.4687
  707MOL0     C97483   2.967   7.840   3.097  0.9908 -0.1381 -0.3060
  707MOL0     C97484   3.041   7.907   3.197 -0.2102 -0.3697 -0.9187
  707MOL0     C97485   2.982   7.924   3.324  0.1388  1.2643 -0.0975
  707MOL0     C97486   2.863   7.870   3.367  0.5138  0.2165  0.3763
  707MOL0     O97487   2.793   7.871   3.479  0.5526 -0.1549  0.7387
  707MOL0     C97488   2.839   7.961   3.577 -0.7110  0.2573  0.7402
  707MOL0     C97489   2.754   7.976   3.705 -1.2230 -0.4594  0.4652
  707MOL0     C97490   2.608   7.995   3.687 -0.5617 -0.3566 -0.3355
  707MOL0     C97491   2.566   8.120   3.626  0.6049  0.3772 -0.1309
  707MOL0     C97492   2.607   8.245   3.693  0.7066  0.2371  0.7338
  707MOL0     C97493   2.645   8.353   3.740  0.2019 -0.3279  0.1253
  707MOL0     C97494   2.799   7.793   3.264  0.9374  0.0147 -1.1103
  707MOL0     C97495   2.850   7.776   3.131  0.6961 -0.3084  0.2359
  707MOL0     C97496   2.778   7.680   3.049 -0.1937  0.4073  0.5820
  707MOL0     H97497   3.338   7.693   2.785  2.0544  0.6093 -0.5964
  707MOL0     H97498   3.401   7.756   2.556  0.7250  0.6025  1.0655
  707MOL0     H97499   3.405   8.142   2.429 -0.9398 -0.3183  1.2990
  707MOL0     H97500   3.240   8.157   2.379  3.0268  3.2792  1.3750
  707MOL0     H97501   3.254   8.095   2.157 -2.5237  1.9115  1.0878
  707MOL0     H97502   3.377   8.215   2.188  0.3361  0.1762  4.0303
  707MOL0     H97503   3.535   8.032   2.201 -0.7737  2.7661 -0.2984
  707MOL0     H97504   3.406   7.916   2.170  1.7272 -0.4532 -0.2865
  707MOL0     H97505   3.345   8.013   1.963  0.0553 -1.5292 -0.4327
  707MOL0     H97506   3.437   8.155   1.987 -2.1924  0.3787  2.2828
  707MOL0     H97507   3.538   7.876   1.910 -0.5384  0.8420 -0.7779
  707MOL0     H97508   3.653   7.991   1.961 -0.0742  0.1721  1.6316
  707MOL0     H97509   3.584   8.152   1.783 -1.0733  0.4645  3.4910
  707MOL0     H97510   3.647   7.987   1.724 -1.7088 -1.3342 -0.6826
  707MOL0     H97511   3.373   8.098   1.749  1.2609  2.1838 -0.1679
  707MOL0     H97512   3.399   7.924   1.706 -0.7940 -0.1086 -4.1488
  707MOL0     H97513   3.478   8.163   1.532 -2.8410  0.9990  1.6597
  707MOL0     H97514   3.500   7.983   1.488  0.1534 -1.5665  0.5324
  707MOL0     H97515   3.180   8.153   1.618 -0.1277  1.8354  0.0899
  707MOL0     H97516   2.928   8.144   1.350  0.9528  0.7161 -0.3922
  707MOL0     H97517   2.942   8.157   1.524  3.7921  0.6318 -0.1797
  707MOL0     H97518   2.931   7.904   1.364  2.8337  0.1226 -0.1524
  707MOL0     H97519   2.916   7.912   1.547 -1.3394 -0.7420 -0.6010
  707MOL0     H97520   2.696   8.029   1.527  0.7337 -1.5467  1.7525
  707MOL0     H97521   2.709   8.047   1.364  1.9326  2.2518  1.7260
  707MOL0     H97522   2.687   7.801   1.319  1.6093  0.0657  0.0687
  707MOL0     H97523   2.717   7.775   1.492 -2.0131  0.0477  0.8416
  707MOL0     H97524   2.573   7.944   1.196  1.5223  0.4721  1.4478
  707MOL0     H97525   2.330   7.963   0.929 -0.0382 -2.2202 -0.5086
  707MOL0     H97526   2.463   7.845   0.901  0.5535  0.2818  0.6701
  707MOL0     H97527   2.490   8.008   0.972 -0.7081  2.5312 -1.4369
  707MOL0     H97528   2.072   7.476   0.926 -1.1286 -1.9651 -1.8087
  707MOL0     H97529   1.888   7.392   0.768 -2.4098  0.3409  0.9611
  707MOL0     H97530   1.571   7.540   0.537  0.4223  2.6822 -3.0659
  707MOL0     H97531   1.569   7.672   0.652 -0.4882 -0.1781 -2.6659
  707MOL0     H97532   1.663   7.713   0.424  1.4418  1.1786  0.4488
  707MOL0     H97533   1.768   7.760   0.553  0.9140  0.1221 -0.6110
  707MOL0     H97534   1.929   7.593   0.505 -0.4022  0.4944  0.3700
  707MOL0     H97535   1.878   7.676   0.362 -1.5132  0.5173 -0.5245
  707MOL0     H97536   1.724   7.486   0.287 -1.3851 -0.7176  0.7520
  707MOL0     H97537   1.763   7.394   0.431  0.1325  0.0380  0.4836
  707MOL0     H97538   2.008   7.400   0.343 -0.8196 -1.1681 -0.8749
  707MOL0     H97539   1.887   7.323   0.250 -0.2445 -0.0610  0.3572
  707MOL0     H97540   2.011   7.604   0.199  3.1679 -0.9901 -2.0640
  707MOL0     H97541   1.880   7.542   0.095  1.1315 -3.6205 -2.0732
  707MOL0     H97542   1.990   7.376   0.002 -2.3863 -0.8073  2.4653
  707MOL0     H97543   2.125   7.385   0.113  0.1052  0.7129  1.4071
  707MOL0     H97544   2.174   7.620   0.032  0.5719 -1.4164  2.8884
  707MOL0     H97545   2.079   7.571  -0.112  0.4323  1.5501  0.6267
  707MOL0     H97546   1.642   7.719   0.864  0.0043  0.4468  3.3187
  707MOL0     H97547   1.831   7.817   1.006  2.4268 -0.9646  2.5608
  707MOL0     H97548   2.134   7.707   1.276  0.2690 -1.3948 -0.1504
  707MOL0     H97549   2.296   7.752   1.459 -1.3292 -0.2495 -1.1003
  707MOL0     H97550   3.155   8.098   2.563 -0.1423  0.7611  1.4117
  707MOL0     H97551   3.120   8.070   2.813 -0.5074  0.9441 -1.5322
  707MOL0     H97552   3.128   7.970   3.180  0.9827 -1.7546 -0.1344
  707MOL0     H97553   3.021   7.992   3.400  1.8140 -0.7220  0.9088
  707MOL0     H97554   2.939   7.930   3.607 -0.0196  0.1898 -1.4521
  707MOL0     H97555   2.848   8.060   3.531 -0.8499  0.0953  0.3600
  707MOL0     H97556   2.782   8.065   3.763 -2.6378  0.8746 -0.7704
  707MOL0     H97557   2.779   7.889   3.766 -0.7194 -1.4782 -1.1461
  707MOL0     H97558   2.552   7.912   3.643 -2.9221  0.4335  0.9896
  707MOL0     H97559   2.558   7.996   3.785 -1.7136 -1.5054 -0.8700
  707MOL0     H97560   2.459   8.099   3.632  1.0379 -2.3080 -0.2971
  707MOL0     H97561   2.589   8.103   3.520 -1.5525  2.0205 -0.9387
  707MOL0     H97562   2.691   8.442   3.776  0.7255 -0.1300 -0.9853
  707MOL0     H97563   2.709   7.743   3.297  0.3416  1.6650 -0.1455
  707MOL0     H97564   2.836   7.588   3.036  1.1558  1.5208 -2.0471
  707MOL0     H97565   2.683   7.651   3.097  0.2014 -3.2838 -0.5367
  707MOL0     H97566   2.761   7.725   2.951  1.0609  0.7826  0.5207
  708MOL0     O97567  10.976   8.831   7.397 -0.0748 -0.1432 -0.4351
  708MOL0     C97568  10.965   8.862   7.511 -0.1242 -0.3079  0.4413
  708MOL0     O97569  10.843   8.859   7.580 -0.4732  0.3182 -0.2507
  708MOL0     C97570  10.723   8.893   7.516 -0.1289  0.7974 -1.0325
  708MOL0     C97571  10.669   9.016   7.526  0.5872 -0.0709  0.0446
  708MOL0     C97572  10.560   9.057   7.444 -0.3146 -0.9540  0.4416
  708MOL0     C97573  10.501   8.972   7.354  0.0121 -0.1167  0.1071
  708MOL0     O97574  10.395   9.022   7.288 -0.5216  0.6171 -0.5777
  708MOL0     C97575  10.280   8.962   7.341 -0.0167  0.0891  0.7178
  708MOL0     C97576  10.160   8.967   7.242 -1.6107 -0.0096  0.0337
  708MOL0     C97577  10.028   8.954   7.321  0.0343 -0.1143  0.5122
  708MOL0     C97578   9.969   8.816   7.307 -0.1670  0.1183  0.8949
  708MOL0     C97579   9.893   8.800   7.174  0.7862  0.2385  0.1436
  708MOL0     C97580   9.844   8.659   7.154 -0.5645 -0.3242 -0.2987
  708MOL0     C97581   9.772   8.638   7.026 -0.4731  0.1084 -0.2084
  708MOL0     C97582   9.856   8.627   6.898 -0.0316 -0.5051 -0.1824
  708MOL0     N97583   9.892   8.754   6.843  0.6490 -0.7665  0.6977
  708MOL0     C97584   9.804   8.848   6.776 -0.3850  0.8007  0.7815
  708MOL0     C97585   9.886   8.953   6.750 -0.6199  1.2323 -0.8576
  708MOL0     C97586   9.859   9.085   6.698 -0.2516 -0.7334  1.2790
  708MOL0     C97587   9.874   9.195   6.802 -0.0874  0.9301  0.3974
  708MOL0     C97588   9.844   9.333   6.743 -0.2304 -1.0264  0.2699
  708MOL0     C97589   9.926   9.438   6.831 -0.0512 -0.1452 -0.4429
  708MOL0     O97590   9.873   9.566   6.794 -0.0551 -0.7045 -0.2141
  708MOL0     C97591   9.814   9.619   6.903  0.3983  0.2693 -0.6326
  708MOL0     C97592   9.686   9.576   6.950  0.1012 -0.8005 -0.2705
  708MOL0     C97593   9.625   9.621   7.058 -0.1370 -0.3224  0.1169
  708MOL0     C97594   9.482   9.568   7.076 -0.6353 -0.6441  0.5863
  708MOL0     C97595   9.693   9.711   7.144 -0.0879 -0.5198  0.2553
  708MOL0     C97596   9.643   9.761   7.271 -0.7338 -0.6609 -0.5246
  708MOL0     O97597   9.735   9.834   7.348  0.6771  0.0559 -0.1008
  708MOL0     C97598   9.704   9.869   7.475 -0.7721  0.1568  0.9692
  708MOL0     C97599   9.736  10.000   7.527  0.0371 -0.1241  1.1161
  708MOL0     C97600   9.726  10.025   7.664  0.0695  0.0895  0.3047
  708MOL0     C97601   9.685   9.925   7.752  0.4845  0.1443  0.0714
  708MOL0     O97602   9.701   9.951   7.889  0.3899  0.4284 -0.0282
  708MOL0     C97603   9.613   9.891   7.992 -0.4041 -0.6581  0.3216
  708MOL0     C97604   9.628   9.978   8.124 -0.2007  0.0151 -0.4957
  708MOL0     C97605   9.775   9.991   8.168 -0.2734 -0.3152  0.6777
  708MOL0     C97606   9.788  10.011   8.318  0.4788 -0.3864 -0.2818
  708MOL0     C97607   9.786   9.869   8.389  0.4472  0.1184  0.2234
  708MOL0     C97608   9.804   9.885   8.537  0.1997  0.2692  0.3474
  708MOL0     C97609   9.771   9.742   8.604 -0.0600  0.0342 -0.1394
  708MOL0     C97610   9.747   9.760   8.751  0.0107  0.8475  1.2166
  708MOL0    Cl97611   9.581   9.821   8.777 -0.0598  0.0036  0.2363
  708MOL0     C97612   9.634   9.802   7.700  0.0875 -0.4285 -0.3207
  708MOL0     C97613   9.647   9.777   7.563 -0.2326 -0.1161  0.1427
  708MOL0     O97614   9.523   9.741   7.295 -1.0797  0.3294 -0.0769
  708MOL0     C97615   9.818   9.769   7.097 -0.5131  0.3176 -0.4984
  708MOL0     C97616   9.878   9.719   6.975  0.4736  0.9137 -0.2945
  708MOL0     N97617  10.018   8.925   6.799 -0.3021 -0.6461 -0.7129
  708MOL0     N97618  10.010   8.812   6.861 -0.0431 -1.4253 -1.2883
  708MOL0     C97619  10.553   8.839   7.344 -0.2715 -0.8719 -0.0770
  708MOL0     C97620  10.664   8.805   7.426  0.1593 -0.4540 -0.2213
  708MOL0     C97621  11.081   8.894   7.593 -0.1069 -0.6449 -0.6611
  708MOL0     C97622  11.077   8.849   7.730  0.1660  0.0200 -1.0108
  708MOL0     C97623  11.177   8.865   7.824 -0.4467  0.2700 -0.4493
  708MOL0     C97624  11.294   8.939   7.782 -0.0036 -0.1045 -0.7242
  708MOL0     O97625  11.392   8.957   7.866 -0.1193  0.3321 -0.5686
  708MOL0     C97626  11.371   9.042   7.976 -0.7963  0.6908 -0.2048
  708MOL0     C97627  11.509   9.065   8.048 -0.0222  0.7381  1.1564
  708MOL0     C97628  11.499   9.192   8.125  0.0746  0.7800  0.8858
  708MOL0     C97629  11.612   9.205   8.233  0.6696 -0.1430 -0.3515
  708MOL0     C97630  11.558   9.275   8.347 -1.3562  0.8195 -1.1972
  708MOL0     C97631  11.521   9.331   8.445 -0.2124 -0.1243 -0.1983
  708MOL0     C97632  11.300   8.986   7.651  0.3194  0.6168 -0.5643
  708MOL0     C97633  11.197   8.962   7.559 -0.2939  0.0115 -0.4560
  708MOL0     C97634  11.210   9.019   7.426  0.8554 -0.7219 -0.4360
  708MOL0     H97635  10.726   9.090   7.581  1.5878 -1.8573  1.5082
  708MOL0     H97636  10.519   9.157   7.433 -0.5241 -1.3415 -4.4770
  708MOL0     H97637  10.262   9.022   7.431  1.3543  1.5896  0.0426
  708MOL0     H97638  10.299   8.856   7.364 -1.5746  0.0238  1.8101
  708MOL0     H97639  10.160   9.063   7.189 -3.2222 -0.1479 -0.2691
  708MOL0     H97640  10.167   8.892   7.163 -3.8920  2.3136 -2.6296
  708MOL0     H97641  10.035   8.987   7.425 -1.3569 -3.5533  1.8387
  708MOL0     H97642   9.965   9.026   7.268 -0.2071  0.7153  1.8720
  708MOL0     H97643  10.054   8.747   7.309 -1.1527 -1.1318  2.2983
  708MOL0     H97644   9.892   8.803   7.384 -1.9350  0.2177 -0.7733
  708MOL0     H97645   9.955   8.838   7.093  1.2023  2.0302  1.2412
  708MOL0     H97646   9.804   8.864   7.185 -0.6647 -1.9232  1.8762
  708MOL0     H97647   9.923   8.583   7.167 -1.4547 -1.0972  0.9016
  708MOL0     H97648   9.790   8.632   7.246  2.9165  1.0335  2.3883
  708MOL0     H97649   9.703   8.722   7.017  0.0867  0.4332 -1.8200
  708MOL0     H97650   9.707   8.550   7.025 -0.8629  0.3985 -0.6861
  708MOL0     H97651   9.944   8.566   6.918  0.1898  0.3349  1.6351
  708MOL0     H97652   9.795   8.578   6.821  1.1119  0.4822 -1.7675
  708MOL0     H97653   9.698   8.829   6.766  0.3963 -3.7398 -2.5300
  708MOL0     H97654   9.766   9.081   6.640  1.2639 -1.5389 -1.2193
  708MOL0     H97655   9.935   9.117   6.627  0.2000 -2.2085  1.0808
  708MOL0     H97656   9.799   9.175   6.879 -3.4866  1.4731 -2.4798
  708MOL0     H97657   9.973   9.185   6.847 -0.3549 -1.8278  0.5260
  708MOL0     H97658   9.875   9.342   6.639  2.8440  1.6674  1.2286
  708MOL0     H97659   9.736   9.343   6.759 -0.2938  2.1906 -1.5049
  708MOL0     H97660   9.929   9.407   6.936  0.0659 -0.0109 -0.4054
  708MOL0     H97661  10.030   9.443   6.799 -0.2367 -1.0938 -1.2314
  708MOL0     H97662   9.636   9.499   6.892 -1.1846 -1.7863  2.0170
  708MOL0     H97663   9.436   9.517   6.991  0.8419 -3.5747  1.4055
  708MOL0     H97664   9.420   9.655   7.098 -1.5691 -0.9417 -0.7300
  708MOL0     H97665   9.476   9.492   7.154 -0.8308 -1.8584 -0.5693
  708MOL0     H97666   9.778  10.084   7.473  4.7805 -0.8877  3.1066
  708MOL0     H97667   9.759  10.124   7.694  1.7516 -0.2846 -0.2095
  708MOL0     H97668   9.511   9.896   7.953  0.3158  1.6979 -1.5381
  708MOL0     H97669   9.643   9.789   8.014 -1.7279 -0.8770  1.2227
  708MOL0     H97670   9.584  10.077   8.111 -1.6785 -0.7452 -1.5238
  708MOL0     H97671   9.573   9.922   8.200  0.6357  2.1231  1.8363
  708MOL0     H97672   9.820  10.083   8.129 -1.9605  1.0737  1.8150
  708MOL0     H97673   9.838   9.909   8.134 -1.8931 -2.4415  2.4966
  708MOL0     H97674   9.715  10.081   8.360  0.3811 -0.0883 -0.9312
  708MOL0     H97675   9.879  10.068   8.342 -0.7513  1.7994 -0.5311
  708MOL0     H97676   9.693   9.817   8.364 -0.4758  1.3222  1.0369
  708MOL0     H97677   9.867   9.818   8.337 -1.9427 -0.3895 -3.3342
  708MOL0     H97678   9.739   9.961   8.581 -0.6571  0.2834 -0.8999
  708MOL0     H97679   9.907   9.907   8.564  0.2368 -0.0669  0.4886
  708MOL0     H97680   9.853   9.669   8.600 -2.0163 -2.2789  0.0205
  708MOL0     H97681   9.679   9.711   8.555  0.3267  1.9716 -2.2810
  708MOL0     H97682   9.826   9.824   8.792  0.5167  0.7463  0.4055
  708MOL0     H97683   9.750   9.658   8.790 -0.6268  0.6846  0.8540
  708MOL0     H97684   9.601   9.722   7.766  0.2832  1.4023  2.1280
  708MOL0     H97685   9.606   9.686   7.521 -0.9985  0.4842 -0.4413
  708MOL0     H97686   9.862   9.851   7.153 -1.2739 -1.0913  2.3711
  708MOL0     H97687   9.980   9.738   6.945  0.4119 -1.3163 -2.1621
  708MOL0     H97688  10.516   8.757   7.284 -0.1138 -3.4294  3.0295
  708MOL0     H97689  10.705   8.707   7.403 -0.5404 -1.1936  1.4677
  708MOL0     H97690  10.986   8.793   7.748  0.4024 -1.1385 -3.1269
  708MOL0     H97691  11.171   8.841   7.930  0.9913  0.4110 -0.3248
  708MOL0     H97692  11.343   9.140   7.936 -0.4576  0.6363 -0.5773
  708MOL0     H97693  11.295   9.011   8.049  2.0531 -1.4742  2.0651
  708MOL0     H97694  11.587   9.067   7.971 -1.2104 -1.5985 -0.2282
  708MOL0     H97695  11.534   8.984   8.116 -2.3703  0.6087  1.9652
  708MOL0     H97696  11.489   9.283   8.064 -0.2549  0.3612  0.3017
  708MOL0     H97697  11.406   9.189   8.182  0.6965 -1.7046  1.8747
  708MOL0     H97698  11.694   9.267   8.195  0.4846 -0.6523 -1.6211
  708MOL0     H97699  11.647   9.106   8.264 -0.9163 -1.2429 -1.9085
  708MOL0     H97700  11.476   9.396   8.517 -2.4311 -0.4858 -1.1865
  708MOL0     H97701  11.390   9.042   7.630  1.6551 -1.8346 -1.8056
  708MOL0     H97702  11.265   9.112   7.445  1.0295 -1.4827  3.6744
  708MOL0     H97703  11.267   8.957   7.357  0.0299 -0.0110 -1.8041
  708MOL0     H97704  11.119   9.050   7.374  1.1633 -1.0330 -1.1757
  709MOL0     O97705  10.809   3.171   6.644  0.0237  0.1859  1.3207
  709MOL0     C97706  10.932   3.168   6.661  0.2757  0.1188  0.4719
  709MOL0     O97707  11.020   3.085   6.586  0.0532 -0.5318 -0.2239
  709MOL0     C97708  10.952   3.005   6.499  1.0419 -0.1622  0.5125
  709MOL0     C97709  10.860   2.900   6.536 -0.5133 -1.1893 -0.7569
  709MOL0     C97710  10.790   2.837   6.433  0.5769 -0.9593 -1.3880
  709MOL0     C97711  10.816   2.858   6.298 -0.4278 -0.4628  0.5126
  709MOL0     O97712  10.753   2.792   6.190 -0.2116 -0.1423 -0.7530
  709MOL0     C97713  10.702   2.665   6.233 -0.6926  0.4153 -1.0073
  709MOL0     C97714  10.692   2.580   6.106 -0.1084  0.6362 -0.5486
  709MOL0     C97715  10.566   2.601   6.023 -0.3525 -0.1498 -0.1549
  709MOL0     C97716  10.456   2.495   6.063 -0.6666 -0.2360 -0.4161
  709MOL0     C97717  10.324   2.536   6.013 -0.2237  0.8001 -0.4603
  709MOL0     C97718  10.232   2.414   5.991  0.2974  0.1696  0.6317
  709MOL0     C97719  10.083   2.449   5.966  0.4805 -0.1011  0.4644
  709MOL0     C97720  10.006   2.338   5.895  0.0072 -0.2500 -0.8919
  709MOL0     N97721   9.986   2.230   5.989  0.2114 -0.3479 -1.0631
  709MOL0     C97722   9.872   2.198   6.054 -0.6677  0.4458 -0.0276
  709MOL0     C97723   9.910   2.103   6.148  0.7979 -0.3578  0.7993
  709MOL0     C97724   9.812   2.027   6.236 -0.3606 -0.1111  0.1234
  709MOL0     C97725   9.875   1.994   6.378  0.3236 -0.1903  0.3800
  709MOL0     C97726   9.808   1.881   6.451  0.7277 -0.1359 -1.3707
  709MOL0     C97727   9.872   1.873   6.596  0.3206  0.3043  0.3023
  709MOL0     O97728   9.809   1.754   6.650 -0.3115  1.1502 -0.2422
  709MOL0     C97729   9.767   1.762   6.783 -0.7560  0.7087  0.7374
  709MOL0     C97730   9.813   1.849   6.887 -0.1338 -1.0622 -0.1796
  709MOL0     C97731   9.757   1.833   7.020  0.4701  0.4050 -0.2459
  709MOL0     C97732   9.781   1.953   7.109 -0.2889 -0.2804 -0.3185
  709MOL0     C97733   9.679   1.724   7.056  0.0037  0.3830  0.0120
  709MOL0     C97734   9.631   1.698   7.192  0.0205 -0.2274 -0.1694
  709MOL0     O97735   9.509   1.634   7.202  0.2777 -0.3191  0.1005
  709MOL0     C97736   9.478   1.573   7.321  0.1355  0.0462  0.3526
  709MOL0     C97737   9.564   1.489   7.393 -0.3719 -0.4051 -0.0581
  709MOL0     C97738   9.534   1.443   7.523  0.3644 -0.0094  0.2609
  709MOL0     C97739   9.420   1.481   7.581  0.9284 -0.5936 -0.5743
  709MOL0     O97740   9.406   1.442   7.712 -0.1715 -0.5172 -0.0448
  709MOL0     C97741   9.290   1.484   7.789 -0.0535 -0.2068 -0.3001
  709MOL0     C97742   9.315   1.441   7.939 -0.5950 -0.2927  0.5448
  709MOL0     C97743   9.434   1.511   7.999 -0.2605  0.0356 -0.1508
  709MOL0     C97744   9.391   1.652   8.053 -0.5671  0.1798 -0.0911
  709MOL0     C97745   9.523   1.719   8.101  0.2710  0.1693  0.2488
  709MOL0     C97746   9.479   1.861   8.144  0.0221  0.4642 -0.4311
  709MOL0     C97747   9.592   1.925   8.232  0.0810  0.4234 -0.6304
  709MOL0     C97748   9.526   2.047   8.304  1.2752 -0.3719  0.0088
  709MOL0    Cl97749   9.653   2.114   8.413 -0.1986 -0.0637 -0.1496
  709MOL0     C97750   9.320   1.552   7.503 -0.4092  0.6279 -1.2868
  709MOL0     C97751   9.347   1.591   7.375 -0.3444  0.0144  0.8364
  709MOL0     O97752   9.692   1.742   7.290 -0.4717 -0.1263  0.2064
  709MOL0     C97753   9.654   1.620   6.963 -0.2187 -0.3687  0.4549
  709MOL0     C97754   9.701   1.646   6.830 -0.4080 -0.4211  0.5436
  709MOL0     N97755  10.042   2.078   6.124  0.2767 -0.1823 -0.5518
  709MOL0     N97756  10.087   2.152   6.035  0.0595 -0.5076  0.2451
  709MOL0     C97757  10.912   2.954   6.261  0.0804 -0.1099 -0.6110
  709MOL0     C97758  10.978   3.023   6.368  0.5000 -0.1947 -0.6199
  709MOL0     C97759  10.988   3.280   6.730 -0.0376 -0.4614 -0.5771
  709MOL0     C97760  11.112   3.336   6.686 -0.7080 -0.7440  0.2280
  709MOL0     C97761  11.172   3.442   6.763  0.7581  0.5541 -0.1745
  709MOL0     C97762  11.114   3.489   6.881  0.4458  0.0741  0.4559
  709MOL0     O97763  11.170   3.572   6.970 -0.0375 -0.8834 -0.9513
  709MOL0     C97764  11.273   3.663   6.936 -0.1784 -0.7517  0.6886
  709MOL0     C97765  11.403   3.587   6.963  0.0267  0.5410 -0.0565
  709MOL0     C97766  11.524   3.674   6.927 -0.4079 -0.5076 -0.6989
  709MOL0     C97767  11.533   3.675   6.774 -0.1465  0.3542 -0.0784
  709MOL0     C97768  11.602   3.550   6.742 -0.8507 -0.5623 -0.1416
  709MOL0     C97769  11.654   3.449   6.703  0.8419  0.5568 -0.2504
  709MOL0     C97770  10.995   3.437   6.923  0.6533  1.4918 -0.1472
  709MOL0     C97771  10.928   3.334   6.849 -0.3385 -0.4437 -0.3555
  709MOL0     C97772  10.805   3.285   6.920  0.0620  0.7980 -0.1482
  709MOL0     H97773  10.822   2.881   6.636  1.7454 -1.1123  0.1841
  709MOL0     H97774  10.713   2.771   6.469  0.3861  0.1155  0.3128
  709MOL0     H97775  10.606   2.673   6.285  0.8125  0.8333  1.8456
  709MOL0     H97776  10.773   2.618   6.301 -2.4547  1.2786  1.6092
  709MOL0     H97777  10.774   2.603   6.038  1.3634  0.0499  0.9621
  709MOL0     H97778  10.695   2.477   6.143  3.1100  0.8565  0.0937
  709MOL0     H97779  10.531   2.703   6.043 -1.5832 -0.5481 -0.2539
  709MOL0     H97780  10.578   2.584   5.915 -0.1070  2.6179 -0.6372
  709MOL0     H97781  10.488   2.391   6.052  3.5906  0.6887  1.0160
  709MOL0     H97782  10.448   2.517   6.170 -0.0348 -0.3211 -0.3455
  709MOL0     H97783  10.331   2.578   5.912 -0.5520 -0.3970 -1.0044
  709MOL0     H97784  10.283   2.609   6.083  0.5843 -0.3622  1.3075
  709MOL0     H97785  10.271   2.372   5.898  0.3144 -0.4213  0.8990
  709MOL0     H97786  10.247   2.335   6.066 -1.3236 -0.8687 -0.0691
  709MOL0     H97787  10.067   2.537   5.902 -0.6342 -1.1529 -0.7617
  709MOL0     H97788  10.029   2.466   6.059 -0.1020 -1.0385  0.3078
  709MOL0     H97789   9.906   2.377   5.875 -0.6178 -0.0962  2.1621
  709MOL0     H97790  10.058   2.310   5.802  1.8498 -0.9667  0.2971
  709MOL0     H97791   9.772   2.234   6.033 -2.0824 -0.2024  4.4035
  709MOL0     H97792   9.772   1.944   6.177  0.6005  1.3504 -2.8078
  709MOL0     H97793   9.725   2.088   6.260  0.2955  1.4426 -1.2758
  709MOL0     H97794   9.980   1.965   6.369  0.5033  0.7737 -1.1320
  709MOL0     H97795   9.861   2.088   6.432  0.4241  1.4554 -2.2682
  709MOL0     H97796   9.703   1.903   6.473  1.1247  1.1807 -0.7098
  709MOL0     H97797   9.819   1.783   6.405 -0.4870 -1.4712  0.9683
  709MOL0     H97798   9.981   1.871   6.600  0.6200  0.5011 -3.8461
  709MOL0     H97799   9.827   1.958   6.647 -2.3558 -2.1176  2.3754
  709MOL0     H97800   9.877   1.932   6.857 -1.6606 -0.1077 -0.9528
  709MOL0     H97801   9.875   1.930   7.160 -0.1969  0.6658 -0.0561
  709MOL0     H97802   9.708   1.959   7.189 -2.9183  0.6242 -2.6350
  709MOL0     H97803   9.776   2.044   7.048  0.2285 -1.4525 -2.2265
  709MOL0     H97804   9.660   1.465   7.348 -1.6923  0.5358 -3.7565
  709MOL0     H97805   9.600   1.372   7.572 -0.8622 -1.3113  0.0637
  709MOL0     H97806   9.269   1.591   7.787  0.8994 -0.0218 -1.1209
  709MOL0     H97807   9.200   1.435   7.751  0.4494  0.1726 -2.0730
  709MOL0     H97808   9.223   1.459   7.996 -1.8534 -0.7922 -1.2378
  709MOL0     H97809   9.341   1.335   7.941 -0.4450 -0.2555  0.5428
  709MOL0     H97810   9.514   1.522   7.926 -2.3613  0.9338 -2.4394
  709MOL0     H97811   9.462   1.455   8.090 -0.6513  0.2016  0.0717
  709MOL0     H97812   9.318   1.636   8.133  0.3335  0.5706  0.8337
  709MOL0     H97813   9.336   1.711   7.980 -0.3245 -0.4017 -0.7577
  709MOL0     H97814   9.569   1.672   8.188  1.1824 -0.6124 -0.6312
  709MOL0     H97815   9.602   1.716   8.025  0.7301 -0.2038  0.7337
  709MOL0     H97816   9.396   1.837   8.211  0.1520  0.9461 -0.0933
  709MOL0     H97817   9.446   1.925   8.061  0.5163  2.0225  0.5228
  709MOL0     H97818   9.676   1.939   8.164 -1.3798 -2.3330 -3.2362
  709MOL0     H97819   9.624   1.859   8.313 -3.1457  2.1330  2.3579
  709MOL0     H97820   9.436   2.022   8.361  0.4119  0.5546 -0.9130
  709MOL0     H97821   9.496   2.129   8.239  3.3785 -0.3711 -1.0442
  709MOL0     H97822   9.219   1.577   7.535 -0.3916 -0.1433 -0.5742
  709MOL0     H97823   9.272   1.649   7.321  2.2997  1.1440 -1.9346
  709MOL0     H97824   9.601   1.527   6.977 -2.0443  0.6577  0.6670
  709MOL0     H97825   9.674   1.575   6.752 -4.3123 -0.8974  2.0879
  709MOL0     H97826  10.936   2.978   6.158  1.8275  0.3085 -0.1335
  709MOL0     H97827  11.051   3.102   6.353  1.9104 -1.1443  0.9016
  709MOL0     H97828  11.170   3.294   6.605 -0.7450 -1.6490  0.6637
  709MOL0     H97829  11.258   3.493   6.721 -0.6588  2.8143 -0.5171
  709MOL0     H97830  11.252   3.708   6.838  0.1255 -0.3274  0.8162
  709MOL0     H97831  11.271   3.753   6.997 -0.7869 -1.3494  1.5668
  709MOL0     H97832  11.411   3.488   6.918 -2.7655  0.5208 -0.7199
  709MOL0     H97833  11.391   3.571   7.071 -1.4607  0.9487 -0.1274
  709MOL0     H97834  11.508   3.774   6.968 -2.5613 -2.4802  3.9320
  709MOL0     H97835  11.616   3.637   6.972 -1.7547 -2.5147  0.5924
  709MOL0     H97836  11.598   3.755   6.736  0.9735 -1.0692 -1.2674
  709MOL0     H97837  11.433   3.689   6.732 -0.4893  1.1602  0.9592
  709MOL0     H97838  11.713   3.368   6.663  0.6600  1.3636 -2.2400
  709MOL0     H97839  10.954   3.476   7.015  1.1570  1.3713  0.1322
  709MOL0     H97840  10.753   3.198   6.880  2.2694  0.0897 -1.6829
  709MOL0     H97841  10.839   3.253   7.019  2.1069 -0.8277 -1.2803
  709MOL0     H97842  10.739   3.372   6.931  0.5067  1.1407 -0.1400
  710MOL0     O97843   8.421   2.298   9.829 -0.8328  0.6236  0.7752
  710MOL0     C97844   8.463   2.383   9.752 -0.3544  0.3330  0.8774
  710MOL0     O97845   8.466   2.378   9.612  0.8732 -0.3061 -0.0165
  710MOL0     C97846   8.483   2.258   9.548 -0.0539 -0.2241 -0.7211
  710MOL0     C97847   8.465   2.129   9.601  0.3209 -0.5218 -0.4522
  710MOL0     C97848   8.477   2.016   9.513 -0.3537 -0.2240 -0.0744
  710MOL0     C97849   8.523   2.028   9.383 -0.2958  0.0057  0.6972
  710MOL0     O97850   8.527   1.928   9.296  0.6312  0.1222  0.2619
  710MOL0     C97851   8.641   1.841   9.304  0.3604 -0.7368 -0.3354
  710MOL0     C97852   8.692   1.762   9.188 -0.8299 -0.1607 -0.4841
  710MOL0     C97853   8.711   1.855   9.066 -0.3349 -0.3955  0.4388
  710MOL0     C97854   8.822   1.956   9.065  0.6010 -0.2461 -0.1138
  710MOL0     C97855   8.822   2.050   8.939 -0.2523  0.0096 -0.0617
  710MOL0     C97856   8.692   2.136   8.941  0.0518  1.1660  0.4277
  710MOL0     C97857   8.662   2.209   8.806 -0.0449 -0.3733  0.6968
  710MOL0     C97858   8.519   2.274   8.804  0.1391  0.7271 -0.8386
  710MOL0     N97859   8.488   2.369   8.910 -0.1789  0.6370  0.0839
  710MOL0     C97860   8.365   2.373   8.964 -0.4934  0.3031 -0.3473
  710MOL0     C97861   8.373   2.433   9.083  0.6561  0.4642 -0.2055
  710MOL0     C97862   8.262   2.477   9.179  0.3118  0.1774 -0.0237
  710MOL0     C97863   8.166   2.577   9.107  0.3248  1.2358 -0.3055
  710MOL0     C97864   8.042   2.593   9.197  0.4733 -0.1845  0.2381
  710MOL0     C97865   7.961   2.715   9.161 -0.2257 -0.4502  0.0213
  710MOL0     O97866   7.837   2.709   9.239  0.1651  0.1935 -0.6656
  710MOL0     C97867   7.812   2.814   9.315 -1.0004 -0.3974 -1.1765
  710MOL0     C97868   7.694   2.885   9.287  0.7371  1.0245 -0.1533
  710MOL0     C97869   7.648   2.978   9.381 -0.1025  0.8955  0.3467
  710MOL0     C97870   7.516   3.053   9.350 -0.2863  0.1568  0.3125
  710MOL0     C97871   7.736   3.012   9.488 -0.9888  0.2624 -0.5871
  710MOL0     C97872   7.707   3.119   9.599  0.4648  0.1469  0.1035
  710MOL0     O97873   7.810   3.162   9.689 -0.1039  0.5787 -0.2579
  710MOL0     C97874   7.790   3.242   9.795  0.5942 -1.2389 -0.4074
  710MOL0     C97875   7.898   3.316   9.842  0.7538  0.5801  0.4293
  710MOL0     C97876   7.889   3.375   9.967 -0.3037 -0.6451  0.6020
  710MOL0     C97877   7.774   3.358  10.045  0.2098 -0.3586 -1.1260
  710MOL0     O97878   7.791   3.408  10.175  0.9929  0.1973 -0.1772
  710MOL0     C97879   7.678   3.483  10.233 -0.6194  0.8107 -0.2841
  710MOL0     C97880   7.720   3.540  10.366 -0.5078  0.2162 -0.0391
  710MOL0     C97881   7.607   3.557  10.466  0.2767 -1.3175 -0.2172
  710MOL0     C97882   7.552   3.699  10.475 -0.9088 -0.4613  0.4609
  710MOL0     C97883   7.454   3.715  10.587  0.5625  0.7584  0.2402
  710MOL0     C97884   7.529   3.742  10.709  0.0771  0.5233  0.5092
  710MOL0     C97885   7.433   3.780  10.816 -0.2498  0.2665 -0.7249
  710MOL0     C97886   7.508   3.857  10.931 -0.3954 -0.9332 -0.5492
  710MOL0    Cl97887   7.609   3.741  11.008 -0.0991 -0.7527 -0.0231
  710MOL0     C97888   7.669   3.278  10.004 -0.3169 -0.0429 -0.5303
  710MOL0     C97889   7.678   3.226   9.872  0.9327  0.1077  1.2880
  710MOL0     O97890   7.597   3.162   9.594 -0.3215  0.3663 -0.5777
  710MOL0     C97891   7.866   2.946   9.507  0.1112 -0.3840  0.1397
  710MOL0     C97892   7.898   2.847   9.418 -0.2115 -0.5157  1.0406
  710MOL0     N97893   8.505   2.480   9.085  0.6398  0.6193  0.8061
  710MOL0     N97894   8.574   2.442   8.987  0.5141 -0.6379  0.0259
  710MOL0     C97895   8.552   2.155   9.342 -0.8634  0.8850  0.6114
  710MOL0     C97896   8.525   2.270   9.416 -0.0780 -0.1661 -0.0057
  710MOL0     C97897   8.510   2.507   9.816  0.7369 -0.2990  0.6381
  710MOL0     C97898   8.489   2.631   9.748  0.6926 -0.0938  0.3461
  710MOL0     C97899   8.538   2.746   9.797  1.0934  0.4048  0.2490
  710MOL0     C97900   8.614   2.753   9.919 -0.4764  0.0608 -0.0630
  710MOL0     O97901   8.658   2.877   9.963  0.7034  0.3004  0.6992
  710MOL0     C97902   8.710   2.910  10.097 -0.1687 -0.2069  0.5554
  710MOL0     C97903   8.609   2.876  10.207  0.0648 -0.1630  0.1187
  710MOL0     C97904   8.631   2.972  10.319  0.4462  0.5823 -0.3366
  710MOL0     C97905   8.768   2.939  10.394 -0.1928 -0.2433  0.2083
  710MOL0     C97906   8.801   3.048  10.485  0.0694  0.5533  0.0364
  710MOL0     C97907   8.841   3.135  10.558  0.3160  0.6064  0.0064
  710MOL0     C97908   8.632   2.626   9.986 -0.0059 -1.0522  0.4034
  710MOL0     C97909   8.587   2.504   9.925 -0.6132 -0.3258 -1.5825
  710MOL0     C97910   8.644   2.372   9.981 -1.1511 -0.1157 -0.4833
  710MOL0     H97911   8.422   2.106   9.699 -1.3434 -1.0818 -1.2704
  710MOL0     H97912   8.451   1.915   9.544 -0.0327 -0.0313  0.8529
  710MOL0     H97913   8.624   1.773   9.388 -0.6071 -0.6693 -0.4686
  710MOL0     H97914   8.730   1.898   9.335  0.9717 -1.5239 -0.6111
  710MOL0     H97915   8.782   1.706   9.215 -1.8067 -1.3732  0.3975
  710MOL0     H97916   8.624   1.683   9.156  1.2196 -1.3456 -2.2201
  710MOL0     H97917   8.705   1.801   8.971 -0.6718 -0.7787  0.6688
  710MOL0     H97918   8.615   1.908   9.070 -0.6891 -1.0045  0.1581
  710MOL0     H97919   8.827   2.013   9.158 -2.8313  0.7007 -0.3694
  710MOL0     H97920   8.916   1.901   9.065 -0.6306 -2.5123 -1.6036
  710MOL0     H97921   8.844   1.998   8.845  0.3360 -0.1347  0.1468
  710MOL0     H97922   8.905   2.120   8.948 -1.2401  1.1394  0.5321
  710MOL0     H97923   8.598   2.082   8.956  0.9238 -0.0852  1.6497
  710MOL0     H97924   8.700   2.202   9.028  0.6035  0.5836  0.8354
  710MOL0     H97925   8.659   2.146   8.717  2.2808 -0.1973  0.4223
  710MOL0     H97926   8.738   2.286   8.791 -0.1547  0.4864  3.7946
  710MOL0     H97927   8.495   2.333   8.715 -0.4818 -1.4453 -2.1912
  710MOL0     H97928   8.451   2.189   8.816 -0.0530  0.9938  0.0056
  710MOL0     H97929   8.271   2.331   8.932 -1.2676  3.1245 -2.2126
  710MOL0     H97930   8.307   2.530   9.264 -0.0807  0.6517 -0.1058
  710MOL0     H97931   8.207   2.388   9.210 -0.9528  1.2196  0.8746
  710MOL0     H97932   8.224   2.668   9.088  0.6755  0.8932 -0.9042
  710MOL0     H97933   8.132   2.541   9.010 -0.9779  0.3365  0.4579
  710MOL0     H97934   7.969   2.512   9.200 -1.2015  1.2419  3.5280
  710MOL0     H97935   8.088   2.596   9.297  1.7873  0.3217 -0.3567
  710MOL0     H97936   8.004   2.814   9.177  1.2958 -0.9187 -1.0055
  710MOL0     H97937   7.940   2.713   9.054 -1.4910  0.7643  0.2156
  710MOL0     H97938   7.640   2.860   9.196  2.9602  0.6941 -1.4612
  710MOL0     H97939   7.535   3.158   9.324  1.2598  0.0044  0.7061
  710MOL0     H97940   7.443   3.047   9.430 -0.1236 -0.3544  0.4241
  710MOL0     H97941   7.476   3.013   9.256 -2.1982  0.3434  1.0212
  710MOL0     H97942   7.989   3.329   9.785  0.3047  1.6725 -0.0731
  710MOL0     H97943   7.972   3.433  10.007 -0.3188 -0.0220 -0.2548
  710MOL0     H97944   7.648   3.566  10.168  1.4465  1.4324 -0.5352
  710MOL0     H97945   7.597   3.411  10.248 -0.8504  0.9742 -0.7245
  710MOL0     H97946   7.796   3.473  10.407  2.4879  3.7725  0.7157
  710MOL0     H97947   7.764   3.638  10.343 -2.9223  1.9171  2.0423
  710MOL0     H97948   7.641   3.534  10.567  2.2568 -0.7088 -0.7104
  710MOL0     H97949   7.525   3.489  10.441  0.8594 -1.8644 -0.6419
  710MOL0     H97950   7.516   3.711  10.373  2.7633 -1.0976 -1.0610
  710MOL0     H97951   7.630   3.773  10.492 -1.5633  0.4982 -0.6334
  710MOL0     H97952   7.389   3.798  10.556  0.2011  0.1536 -0.6836
  710MOL0     H97953   7.386   3.630  10.598  3.2834 -1.4729  0.9989
  710MOL0     H97954   7.586   3.833  10.689 -0.5634  0.5196 -1.5445
  710MOL0     H97955   7.587   3.655  10.737  0.6807 -0.4646 -3.2266
  710MOL0     H97956   7.390   3.690  10.862 -0.8074  1.1947  0.6531
  710MOL0     H97957   7.350   3.832  10.767  0.1554 -0.0821 -1.8081
  710MOL0     H97958   7.441   3.898  11.007 -1.1146  0.9620 -2.1223
  710MOL0     H97959   7.560   3.944  10.891 -2.1788  0.3020 -0.3049
  710MOL0     H97960   7.573   3.264  10.054  0.0823  0.1807  0.3262
  710MOL0     H97961   7.598   3.169   9.827  3.3701 -0.8764 -2.1775
  710MOL0     H97962   7.932   2.982   9.585 -1.9972 -1.6379  2.6760
  710MOL0     H97963   7.999   2.806   9.417  0.4522  1.0394  1.5117
  710MOL0     H97964   8.595   2.167   9.242  0.9414 -0.6978  1.1262
  710MOL0     H97965   8.542   2.368   9.373 -3.2856  1.7915  2.7466
  710MOL0     H97966   8.448   2.640   9.649  0.6713  4.9987  0.5687
  710MOL0     H97967   8.517   2.837   9.741 -2.6350 -1.0756 -1.1043
  710MOL0     H97968   8.806   2.869  10.132 -0.3283 -0.2170  0.9895
  710MOL0     H97969   8.730   3.017  10.086 -0.7577  0.1044  2.1671
  710MOL0     H97970   8.597   2.770  10.229 -0.2306  0.0245  0.8801
  710MOL0     H97971   8.511   2.898  10.164 -0.6125 -0.6304  1.3846
  710MOL0     H97972   8.625   3.072  10.277  0.1409  1.0648  0.8244
  710MOL0     H97973   8.550   2.958  10.391  0.5069 -1.7947 -0.6402
  710MOL0     H97974   8.855   2.929  10.327 -0.9387 -0.4692 -0.7528
  710MOL0     H97975   8.756   2.847  10.451 -2.5812  0.6060  1.2020
  710MOL0     H97976   8.880   3.209  10.624  0.2703 -0.1502  0.8972
  710MOL0     H97977   8.701   2.636  10.070  0.3741  1.2455 -0.1250
  710MOL0     H97978   8.567   2.312  10.030  0.3745 -0.5919  1.4818
  710MOL0     H97979   8.692   2.319   9.899 -0.9127  2.5419 -2.1952
  710MOL0     H97980   8.725   2.402  10.049 -2.4572  3.2705 -0.2137
  711MOL0     O97981   2.083   9.275   5.787 -0.0224  0.4087  0.5592
  711MOL0     C97982   2.097   9.162   5.738  0.8643 -1.1386  1.0537
  711MOL0     O97983   2.001   9.103   5.668  0.2256 -0.3148  0.2328
  711MOL0     C97984   1.869   9.137   5.694  0.5560  0.2010  0.3513
  711MOL0     C97985   1.774   9.035   5.727 -0.2961  0.3557 -0.3097
  711MOL0     C97986   1.643   9.068   5.765  0.0368  0.4349  0.1564
  711MOL0     C97987   1.594   9.197   5.756 -0.2245  0.2915  0.1405
  711MOL0     O97988   1.479   9.217   5.815 -0.8184 -0.0340 -0.6287
  711MOL0     C97989   1.471   9.334   5.902  0.8285 -1.2613  0.6650
  711MOL0     C97990   1.582   9.333   6.011  0.9842  0.1742 -0.2009
  711MOL0     C97991   1.528   9.390   6.141 -0.6238  0.3756  0.4580
  711MOL0     C97992   1.617   9.348   6.260  0.2058 -0.7983  0.3782
  711MOL0     C97993   1.584   9.435   6.380 -0.0848  0.4591  0.5450
  711MOL0     C97994   1.460   9.382   6.461  0.5071 -0.6023 -0.6430
  711MOL0     C97995   1.445   9.460   6.590  0.9719 -0.2660 -0.1360
  711MOL0     C97996   1.531   9.401   6.710 -0.8399  0.0190 -0.0000
  711MOL0     N97997   1.477   9.280   6.762  0.5249  0.1271  0.1975
  711MOL0     C97998   1.352   9.271   6.827 -0.1890 -0.3178  0.6364
  711MOL0     C97999   1.342   9.134   6.863 -0.2042 -0.8280 -0.5264
  711MOL0     C98000   1.234   9.065   6.942  0.1706  1.1164  0.1417
  711MOL0     C98001   1.271   9.044   7.084  0.4207 -0.5941 -0.5686
  711MOL0     C98002   1.157   8.971   7.153  0.4320 -1.2653 -0.0787
  711MOL0     C98003   1.183   8.953   7.305 -0.2338 -0.0076  0.5437
  711MOL0     O98004   1.064   8.919   7.377  0.8716  0.4642  0.0100
  711MOL0     C98005   1.046   8.957   7.509  0.5838 -0.6141 -0.4767
  711MOL0     C98006   0.919   8.941   7.548 -0.1305  0.1596  0.4530
  711MOL0     C98007   0.876   8.978   7.678  0.1881 -0.2868  0.5566
  711MOL0     C98008   0.734   8.967   7.711 -1.5748 -0.5773  0.2551
  711MOL0     C98009   0.970   9.016   7.769 -0.2035 -0.2569  0.3122
  711MOL0     C98010   0.939   9.034   7.911 -0.3962  0.7649 -0.7393
  711MOL0     O98011   1.001   8.947   7.996 -0.5553  0.5475 -0.1376
  711MOL0     C98012   0.955   8.933   8.127  0.1537  0.8148  0.0819
  711MOL0     C98013   1.038   8.919   8.235 -0.2756  0.1510 -1.0942
  711MOL0     C98014   0.990   8.896   8.369 -0.7878  0.1147 -0.2376
  711MOL0     C98015   0.855   8.901   8.393  1.1410 -0.0143  0.2097
  711MOL0     O98016   0.820   8.888   8.529  0.9196  0.1681 -0.1091
  711MOL0     C98017   0.682   8.875   8.562 -0.6915  0.4208 -0.7507
  711MOL0     C98018   0.612   9.012   8.577 -0.9971  0.8221  0.4432
  711MOL0     C98019   0.456   9.000   8.593 -0.0820 -0.9553 -0.7111
  711MOL0     C98020   0.410   9.140   8.626 -0.2104  0.0840 -1.0315
  711MOL0     C98021   0.257   9.155   8.661 -0.6726  0.1062 -1.5759
  711MOL0     C98022   0.223   9.106   8.803 -0.1421 -0.0770 -0.2077
  711MOL0     C98023   0.064   9.099   8.818 -0.5515  0.7856 -0.3718
  711MOL0     C98024   0.026   9.101   8.964  0.3771  0.0610 -0.2243
  711MOL0    Cl98025  -0.141   9.041   8.979 -0.0463 -0.2411 -0.4319
  711MOL0     C98026   0.760   8.913   8.288 -1.0491  0.0291  0.2130
  711MOL0     C98027   0.815   8.924   8.153  0.0255 -0.4158  0.1897
  711MOL0     O98028   0.865   9.125   7.945  0.1623 -0.6408  0.4395
  711MOL0     C98029   1.106   9.035   7.726  0.2813 -0.8150 -0.3153
  711MOL0     C98030   1.148   8.998   7.597  0.7575  0.2650  0.0135
  711MOL0     N98031   1.463   9.080   6.812 -0.2817 -0.1316 -0.4252
  711MOL0     N98032   1.536   9.166   6.757  0.3542 -0.1464  0.9350
  711MOL0     C98033   1.677   9.301   5.718  0.2141 -0.2114 -0.3178
  711MOL0     C98034   1.808   9.270   5.679 -0.7778  0.9891  1.0770
  711MOL0     C98035   2.223   9.099   5.743 -0.9570 -0.2696 -0.3767
  711MOL0     C98036   2.220   8.962   5.788  1.4861 -0.8619 -0.8393
  711MOL0     C98037   2.332   8.888   5.813 -0.0941 -0.4126 -1.0279
  711MOL0     C98038   2.460   8.936   5.768 -0.3675  0.0059  0.2324
  711MOL0     O98039   2.580   8.879   5.790  0.1119 -0.0896 -0.5556
  711MOL0     C98040   2.585   8.753   5.865 -0.4799 -0.1092  0.4240
  711MOL0     C98041   2.737   8.702   5.858 -0.4374  0.4865  1.1299
  711MOL0     C98042   2.767   8.601   5.968 -0.4753  0.6216 -0.6407
  711MOL0     C98043   2.913   8.540   5.966 -0.3979 -0.0154 -0.0145
  711MOL0     C98044   2.938   8.459   5.843  0.2451 -1.3145  0.5200
  711MOL0     C98045   2.945   8.409   5.730  0.6268 -0.9412 -0.7471
  711MOL0     C98046   2.457   9.066   5.704 -0.3698  0.7582  1.1173
  711MOL0     C98047   2.343   9.146   5.696 -0.1704 -0.3780  0.7899
  711MOL0     C98048   2.362   9.276   5.640  0.4841  0.1083  0.6978
  711MOL0     H98049   1.802   8.930   5.728 -0.7051  0.0853  4.1141
  711MOL0     H98050   1.590   8.991   5.820  0.1684 -1.6027 -2.3614
  711MOL0     H98051   1.370   9.339   5.943 -0.7399  1.4501 -3.0013
  711MOL0     H98052   1.472   9.425   5.842  4.7494 -1.4468  0.1438
  711MOL0     H98053   1.614   9.229   6.025 -0.0823  0.0156  1.3344
  711MOL0     H98054   1.665   9.401   5.991  1.4995  0.7949  3.3794
  711MOL0     H98055   1.533   9.497   6.120  1.4613  0.7636  2.5399
  711MOL0     H98056   1.425   9.357   6.154 -0.3154 -0.3903  1.0496
  711MOL0     H98057   1.596   9.241   6.277  0.0373 -0.5101  2.2737
  711MOL0     H98058   1.723   9.362   6.238 -0.5363  4.5443 -1.1161
  711MOL0     H98059   1.573   9.539   6.348 -0.0229  0.8419  1.6896
  711MOL0     H98060   1.670   9.434   6.448  0.7213  1.8764 -0.3961
  711MOL0     H98061   1.375   9.408   6.398  1.8873  1.7209 -1.6533
  711MOL0     H98062   1.467   9.278   6.494  4.3362  0.2623  1.8196
  711MOL0     H98063   1.341   9.450   6.621  0.3956 -2.8390 -2.5905
  711MOL0     H98064   1.458   9.565   6.560  2.9890 -0.4264  0.0373
  711MOL0     H98065   1.635   9.383   6.680 -1.0913 -0.7824 -0.4324
  711MOL0     H98066   1.537   9.485   6.779  1.2669  0.8643 -1.1313
  711MOL0     H98067   1.271   9.342   6.844 -0.4288 -0.2920 -0.5402
  711MOL0     H98068   1.203   8.975   6.887  0.2013  0.8739  0.5133
  711MOL0     H98069   1.160   9.145   6.942 -1.2931 -0.0909  2.9642
  711MOL0     H98070   1.368   8.999   7.103  0.8874 -0.5933 -2.6822
  711MOL0     H98071   1.282   9.144   7.128 -1.1811  0.2993 -2.0512
  711MOL0     H98072   1.058   9.018   7.142  0.9662  0.2783  1.3337
  711MOL0     H98073   1.144   8.876   7.100  2.9370 -1.1818 -0.9723
  711MOL0     H98074   1.254   8.872   7.322 -2.3491 -2.5620 -1.7326
  711MOL0     H98075   1.225   9.040   7.355  1.4304  0.0162 -0.8112
  711MOL0     H98076   0.841   8.908   7.480  0.9347 -0.4539 -0.5088
  711MOL0     H98077   0.712   8.864   7.738  0.6036 -0.5458  2.4145
  711MOL0     H98078   0.683   9.014   7.626 -1.0623  1.3471  0.9605
  711MOL0     H98079   0.702   9.027   7.797 -2.0349  0.4771 -0.6133
  711MOL0     H98080   1.145   8.930   8.216  0.8643 -3.2215  2.1808
  711MOL0     H98081   1.064   8.880   8.446 -1.9163 -2.8660  0.3745
  711MOL0     H98082   0.628   8.805   8.498  0.2745 -2.0523  0.9938
  711MOL0     H98083   0.676   8.841   8.665  0.0479  4.4392  0.8181
  711MOL0     H98084   0.652   9.061   8.666  2.3704  3.4387 -2.2443
  711MOL0     H98085   0.634   9.078   8.492  2.0853 -1.2181 -0.5137
  711MOL0     H98086   0.447   8.929   8.676  1.2128 -0.4773 -0.1215
  711MOL0     H98087   0.417   8.967   8.496  0.0855  2.0275 -1.8935
  711MOL0     H98088   0.415   9.208   8.540  0.2912  0.1390 -0.9588
  711MOL0     H98089   0.465   9.186   8.709 -1.5936  1.8434 -1.0202
  711MOL0     H98090   0.223   9.257   8.646  2.2355  1.4082 -0.2175
  711MOL0     H98091   0.202   9.105   8.581  0.2519  0.8423 -2.6983
  711MOL0     H98092   0.267   9.174   8.876  0.3469  1.3908 -1.8046
  711MOL0     H98093   0.275   9.013   8.828  0.1531 -0.1836 -1.1991
  711MOL0     H98094   0.026   9.014   8.762 -2.6124  1.7028 -0.4558
  711MOL0     H98095   0.011   9.181   8.769 -0.3298  1.7451  0.9444
  711MOL0     H98096   0.022   9.204   8.999 -3.1715  0.5089 -1.5154
  711MOL0     H98097   0.095   9.045   9.028  0.4959  1.7703  1.2145
  711MOL0     H98098   0.652   8.913   8.293 -1.2731  0.4128 -2.9325
  711MOL0     H98099   0.751   8.932   8.066 -2.7715 -1.1075  2.0164
  711MOL0     H98100   1.194   9.062   7.783 -0.8989 -2.3456  2.4323
  711MOL0     H98101   1.250   9.004   7.561  1.4302 -0.0425  1.7479
  711MOL0     H98102   1.639   9.402   5.724 -0.1440 -0.2757 -1.2348
  711MOL0     H98103   1.878   9.351   5.657 -0.1591  0.1723 -0.0734
  711MOL0     H98104   2.130   8.910   5.821 -0.4062  2.0311 -1.0879
  711MOL0     H98105   2.317   8.792   5.862  1.9373 -1.7091 -2.7904
  711MOL0     H98106   2.544   8.768   5.966 -2.0491  1.7356 -0.4183
  711MOL0     H98107   2.529   8.680   5.805  3.9564 -2.2389 -1.5602
  711MOL0     H98108   2.807   8.786   5.857 -0.8592  0.8416  0.8402
  711MOL0     H98109   2.748   8.652   5.761  1.6609 -2.0746  2.5685
  711MOL0     H98110   2.748   8.647   6.066 -2.2028 -1.8947  0.3192
  711MOL0     H98111   2.687   8.527   5.970  1.1317 -1.3319  3.2669
  711MOL0     H98112   2.938   8.493   6.062  0.0107  0.9893  0.3827
  711MOL0     H98113   2.980   8.626   5.957 -1.3374  0.5475 -2.3168
  711MOL0     H98114   2.937   8.375   5.628 -1.0073 -1.5030 -0.4585
  711MOL0     H98115   2.547   9.106   5.657 -1.1209  1.4599  0.2258
  711MOL0     H98116   2.455   9.289   5.583 -0.2416  0.3930 -0.4622
  711MOL0     H98117   2.286   9.294   5.564  0.5058 -0.4669  0.5379
  711MOL0     H98118   2.350   9.359   5.710 -1.3251 -0.7032  1.3900
  712MOL0     O98119   7.834   3.047   3.503  0.9968  1.1797 -0.0444
  712MOL0     C98120   7.906   2.952   3.542  0.9563 -0.8565  0.2791
  712MOL0     O98121   7.870   2.821   3.528  0.2366  0.0465  0.3660
  712MOL0     C98122   7.763   2.794   3.447 -0.2936  0.7243 -0.2189
  712MOL0     C98123   7.664   2.702   3.490  0.3385  0.0681  0.1727
  712MOL0     C98124   7.558   2.684   3.408  0.7183  0.9118 -0.5504
  712MOL0     C98125   7.539   2.741   3.283 -0.0245 -1.1010  0.3933
  712MOL0     O98126   7.433   2.722   3.198  0.2556 -0.9199 -0.0945
  712MOL0     C98127   7.309   2.720   3.260 -0.0688 -0.1886  0.4185
  712MOL0     C98128   7.193   2.746   3.164  1.1762  0.1703  0.0108
  712MOL0     C98129   7.189   2.643   3.049 -0.0091  0.2032 -0.0299
  712MOL0     C98130   7.047   2.585   3.016 -0.2522 -0.3527 -0.3455
  712MOL0     C98131   7.031   2.510   2.885 -0.3428  1.0833  0.0675
  712MOL0     C98132   6.886   2.471   2.868  0.6360  0.0181  0.2005
  712MOL0     C98133   6.872   2.370   2.758  0.2512  0.4416 -0.0093
  712MOL0     C98134   6.896   2.423   2.611 -0.0112  0.5002  0.2501
  712MOL0     N98135   6.858   2.321   2.505  0.4507 -0.2805  0.5905
  712MOL0     C98136   6.924   2.209   2.481 -0.1588 -0.0970  0.5256
  712MOL0     C98137   6.864   2.143   2.372 -0.0020 -0.4612 -0.0095
  712MOL0     C98138   6.911   2.013   2.320  0.4210 -0.0541 -0.9659
  712MOL0     C98139   7.031   2.023   2.243  0.2278 -0.9474  1.3648
  712MOL0     C98140   7.017   2.113   2.115 -0.5808  0.2052  1.0082
  712MOL0     C98141   6.925   2.064   2.005 -0.3985  0.8542  0.4787
  712MOL0     O98142   6.978   1.935   1.967  0.1430 -0.3674  0.2918
  712MOL0     C98143   7.086   1.926   1.881 -0.0556 -0.5293 -0.2044
  712MOL0     C98144   7.158   1.813   1.883 -0.9641  0.3731  0.1073
  712MOL0     C98145   7.271   1.782   1.799 -1.1803 -0.0185 -0.0545
  712MOL0     C98146   7.344   1.653   1.819 -1.0835  0.2308  0.0992
  712MOL0     C98147   7.320   1.890   1.709 -0.0731 -0.2307 -0.1128
  712MOL0     C98148   7.433   1.877   1.612 -0.0241  0.8718 -0.6484
  712MOL0     O98149   7.517   1.982   1.601 -0.2671 -0.8998 -0.3463
  712MOL0     C98150   7.644   1.996   1.543  0.3783  0.1119 -0.2993
  712MOL0     C98151   7.743   1.898   1.543 -0.5057  0.3439 -0.0404
  712MOL0     C98152   7.877   1.918   1.497 -0.1887 -0.1818  0.6438
  712MOL0     C98153   7.916   2.045   1.457  0.3329 -0.2219 -0.7112
  712MOL0     O98154   8.041   2.082   1.413 -0.3410 -0.0874  0.3567
  712MOL0     C98155   8.129   1.975   1.360 -0.9719 -0.0048  0.2744
  712MOL0     C98156   8.270   2.022   1.322  0.0153 -0.4767 -0.1909
  712MOL0     C98157   8.280   2.163   1.290  0.2023  0.5251 -1.5733
  712MOL0     C98158   8.428   2.197   1.265 -0.1227  0.2838 -0.9665
  712MOL0     C98159   8.440   2.345   1.224  0.1113 -0.4244 -0.0522
  712MOL0     C98160   8.568   2.354   1.130 -0.0652 -1.2458 -0.1982
  712MOL0     C98161   8.572   2.497   1.066  0.1142 -0.6428 -0.3446
  712MOL0     C98162   8.647   2.493   0.933 -0.1073  0.4586  0.6511
  712MOL0    Cl98163   8.545   2.409   0.808  0.0744  0.3972  0.3837
  712MOL0     C98164   7.815   2.144   1.449  0.3664 -0.6851 -0.5077
  712MOL0     C98165   7.681   2.119   1.486  1.0136 -0.8421 -0.0364
  712MOL0     O98166   7.458   1.770   1.556  0.3091  0.1943 -0.2596
  712MOL0     C98167   7.249   2.013   1.731 -0.1273 -0.6430  1.4323
  712MOL0     C98168   7.132   2.034   1.806 -0.5387 -0.0703  0.5443
  712MOL0     N98169   6.753   2.219   2.333  0.7121 -0.0424 -0.0152
  712MOL0     N98170   6.755   2.328   2.414 -0.3386 -0.2968 -0.2021
  712MOL0     C98171   7.642   2.818   3.230 -0.0015 -0.7405 -0.5619
  712MOL0     C98172   7.754   2.847   3.319 -0.8060  0.5074 -0.2830
  712MOL0     C98173   8.037   2.972   3.595  0.0524  0.0627 -0.4871
  712MOL0     C98174   8.106   3.083   3.543  0.5541  1.1691 -0.1914
  712MOL0     C98175   8.226   3.134   3.606  0.1171  0.0912  0.8761
  712MOL0     C98176   8.288   3.057   3.699 -0.3451  1.1003 -0.2661
  712MOL0     O98177   8.409   3.107   3.745 -0.2833  0.0341 -0.4675
  712MOL0     C98178   8.474   3.032   3.857 -0.4983 -0.5903  0.1268
  712MOL0     C98179   8.610   3.080   3.896 -0.5695  0.3496 -0.1544
  712MOL0     C98180   8.682   2.984   3.998  0.4307 -0.1479  0.5370
  712MOL0     C98181   8.603   2.977   4.133  0.6566  1.1512  0.1973
  712MOL0     C98182   8.505   2.868   4.126 -0.1950  0.0006  0.5368
  712MOL0     C98183   8.436   2.774   4.101  0.3554  0.0145 -1.3577
  712MOL0     C98184   8.221   2.945   3.756  0.2755 -0.2495 -0.3484
  712MOL0     C98185   8.095   2.909   3.709 -0.1825  0.2154  0.2515
  712MOL0     C98186   8.046   2.785   3.767  0.8575  1.0007  1.1208
  712MOL0     H98187   7.662   2.669   3.594 -0.0606  0.8877  0.4308
  712MOL0     H98188   7.482   2.616   3.445  1.1733  1.0665  0.7153
  712MOL0     H98189   7.302   2.780   3.351 -2.5949  1.0692 -0.5295
  712MOL0     H98190   7.294   2.614   3.283 -0.3517 -0.2401 -0.0036
  712MOL0     H98191   7.102   2.733   3.224  1.7215  1.1502  1.0894
  712MOL0     H98192   7.192   2.849   3.128  1.8565 -0.0499 -0.6622
  712MOL0     H98193   7.230   2.690   2.959  0.2939  0.4783  0.2484
  712MOL0     H98194   7.254   2.560   3.077  0.6545 -0.1398 -2.3725
  712MOL0     H98195   7.021   2.515   3.095 -1.9559  1.9211  1.2263
  712MOL0     H98196   6.975   2.666   3.029 -0.0001 -0.4546  2.0604
  712MOL0     H98197   7.089   2.417   2.892 -0.6020  0.9930  1.1878
  712MOL0     H98198   7.059   2.559   2.791  2.6563 -1.5174 -0.5570
  712MOL0     H98199   6.848   2.435   2.964 -0.3648 -1.1511 -0.6005
  712MOL0     H98200   6.828   2.562   2.848  1.4910  1.1940  2.6645
  712MOL0     H98201   6.783   2.307   2.759  1.9381 -2.2825 -2.8223
  712MOL0     H98202   6.950   2.295   2.778 -1.2226 -0.1375  4.9008
  712MOL0     H98203   6.838   2.515   2.605 -1.0278 -0.0850  0.8586
  712MOL0     H98204   7.000   2.454   2.598 -0.1321  0.9209  0.2682
  712MOL0     H98205   7.009   2.170   2.538 -1.8861 -0.7810  2.7836
  712MOL0     H98206   6.821   1.972   2.274  0.9110 -1.0863 -1.0387
  712MOL0     H98207   6.932   1.935   2.394  1.5758 -1.1494 -2.3919
  712MOL0     H98208   7.106   2.080   2.299  0.8276 -0.1130 -0.2199
  712MOL0     H98209   7.056   1.917   2.227  2.1501 -0.2008 -1.2118
  712MOL0     H98210   6.991   2.214   2.149 -0.2963  0.0361  1.7488
  712MOL0     H98211   7.120   2.121   2.079 -0.8855  0.3995  0.1497
  712MOL0     H98212   6.822   2.041   2.035 -0.9775  2.3105 -0.3083
  712MOL0     H98213   6.913   2.128   1.918  4.7633 -1.0425 -1.9790
  712MOL0     H98214   7.124   1.735   1.951 -0.2574  1.4575  1.7789
  712MOL0     H98215   7.437   1.674   1.872 -0.4109  3.8615 -2.2163
  712MOL0     H98216   7.365   1.604   1.723 -1.3079 -3.0841  1.5892
  712MOL0     H98217   7.285   1.583   1.879 -0.1796  0.8554  1.7681
  712MOL0     H98218   7.716   1.797   1.571  3.0603 -2.5384 -5.2301
  712MOL0     H98219   7.939   1.829   1.485  3.6031  1.8919  2.8565
  712MOL0     H98220   8.139   1.894   1.432  1.0482  1.1880  1.4278
  712MOL0     H98221   8.082   1.927   1.273  0.6640 -0.6275 -0.2932
  712MOL0     H98222   8.342   2.017   1.403  0.2166  3.5920  0.0819
  712MOL0     H98223   8.296   1.958   1.237  0.4389  0.5331 -0.8412
  712MOL0     H98224   8.246   2.223   1.375 -1.2168 -0.7422 -1.2090
  712MOL0     H98225   8.217   2.189   1.204  1.9546  0.5321 -2.9045
  712MOL0     H98226   8.456   2.125   1.187 -2.2811 -1.1800 -0.4608
  712MOL0     H98227   8.492   2.181   1.352 -2.9326 -2.4368  0.8102
  712MOL0     H98228   8.350   2.370   1.167  0.4241  1.1947  0.1075
  712MOL0     H98229   8.441   2.417   1.306 -0.9248  0.1187 -0.5057
  712MOL0     H98230   8.566   2.269   1.061  1.0715 -0.8177 -0.7915
  712MOL0     H98231   8.657   2.339   1.191  1.0693  2.7250 -0.5748
  712MOL0     H98232   8.610   2.569   1.139 -3.0148  2.1540 -1.2548
  712MOL0     H98233   8.472   2.530   1.038 -0.3121 -2.5282 -1.2106
  712MOL0     H98234   8.739   2.441   0.960 -0.5581  0.9643  3.5382
  712MOL0     H98235   8.667   2.596   0.900 -2.0074  0.3624 -0.9635
  712MOL0     H98236   7.834   2.241   1.405 -1.3572 -0.2529 -0.3943
  712MOL0     H98237   7.600   2.189   1.471  0.3870 -1.1781  1.5641
  712MOL0     H98238   7.295   2.094   1.676 -0.4353 -2.9162 -2.5515
  712MOL0     H98239   7.082   2.130   1.795  2.4195  1.3901 -2.0729
  712MOL0     H98240   7.629   2.876   3.139  0.6435  1.5896  0.7587
  712MOL0     H98241   7.830   2.897   3.260 -1.5442 -0.8997 -2.5831
  712MOL0     H98242   8.059   3.146   3.468 -2.1654 -1.0654 -0.5406
  712MOL0     H98243   8.270   3.228   3.576  0.3700 -0.9162 -2.3702
  712MOL0     H98244   8.415   3.035   3.949  0.1527  0.9367  0.5188
  712MOL0     H98245   8.481   2.927   3.825 -0.8194 -0.7898  0.6937
  712MOL0     H98246   8.611   3.184   3.932 -2.9347  0.3149  0.1564
  712MOL0     H98247   8.675   3.082   3.808 -0.8643  3.4424 -0.4342
  712MOL0     H98248   8.687   2.890   3.942 -0.3540  1.8530 -3.2168
  712MOL0     H98249   8.786   3.015   4.007  0.6524 -0.8445  0.4649
  712MOL0     H98250   8.551   3.068   4.165 -2.2112 -0.9416  1.9664
  712MOL0     H98251   8.679   2.949   4.205 -1.7659 -1.4627  1.9341
  712MOL0     H98252   8.370   2.690   4.097 -1.0008  0.9926 -0.3835
  712MOL0     H98253   8.260   2.898   3.846 -0.5117 -0.4048 -0.0819
  712MOL0     H98254   8.082   2.773   3.869  1.5929  1.4506  0.9176
  712MOL0     H98255   7.937   2.795   3.775  0.4068 -1.7099 -0.2002
  712MOL0     H98256   8.065   2.691   3.713 -1.0448  0.3379  1.5112
  713MOL0     O98257   3.286   4.848  10.786  0.2352  0.5760  0.4069
  713MOL0     C98258   3.224   4.887  10.692  0.8914 -0.0060 -0.0668
  713MOL0     O98259   3.157   5.001  10.687 -0.3508  0.0647 -0.3864
  713MOL0     C98260   3.153   5.073  10.809  0.0928 -0.6826 -0.3792
  713MOL0     C98261   3.237   5.184  10.828 -0.2321 -0.1217  0.5662
  713MOL0     C98262   3.216   5.268  10.939 -0.0545  0.0669 -0.4804
  713MOL0     C98263   3.122   5.234  11.039 -0.1228  0.2530 -0.5082
  713MOL0     O98264   3.123   5.308  11.149 -0.3282  0.1468 -0.6483
  713MOL0     C98265   3.030   5.298  11.255 -0.2560 -0.2521 -0.4227
  713MOL0     C98266   3.079   5.189  11.346 -0.2912 -0.2573  0.2802
  713MOL0     C98267   2.982   5.166  11.458 -0.3863 -0.4562  0.4137
  713MOL0     C98268   2.997   5.030  11.517  0.1635 -0.1621  0.0653
  713MOL0     C98269   3.113   5.032  11.608  0.1781 -0.8765  0.2532
  713MOL0     C98270   3.143   4.892  11.656  0.5611 -0.5459 -0.6631
  713MOL0     C98271   3.267   4.897  11.747  0.5616  0.0272  0.2915
  713MOL0     C98272   3.315   4.759  11.799 -0.6235 -0.1219 -0.0930
  713MOL0     N98273   3.380   4.679  11.695 -0.6063 -0.1700  0.4733
  713MOL0     C98274   3.519   4.654  11.670 -0.3529 -0.8013  0.4445
  713MOL0     C98275   3.529   4.571  11.571 -0.2388 -0.0921 -0.3610
  713MOL0     C98276   3.649   4.515  11.507 -0.8082  0.3799 -1.6581
  713MOL0     C98277   3.702   4.598  11.399 -0.9233  0.3061  0.5997
  713MOL0     C98278   3.854   4.562  11.383 -0.6535  0.6072 -0.6120
  713MOL0     C98279   3.896   4.527  11.242 -0.0337  0.8020  0.3902
  713MOL0     O98280   3.836   4.629  11.159 -0.2272  0.1726  0.5797
  713MOL0     C98281   3.876   4.640  11.024 -0.3181  0.7762  0.1732
  713MOL0     C98282   3.813   4.732  10.935 -0.4883 -0.1534  0.6993
  713MOL0     C98283   3.833   4.733  10.798  0.1094  0.0425 -0.0703
  713MOL0     C98284   3.765   4.836  10.710  0.3443 -0.2440 -0.2913
  713MOL0     C98285   3.923   4.638  10.745  0.4729 -0.4464 -0.7770
  713MOL0     C98286   3.958   4.645  10.599  0.8784 -0.0092 -0.5116
  713MOL0     O98287   4.008   4.760  10.557  0.0168  0.1948 -0.9161
  713MOL0     C98288   4.144   4.778  10.573  0.0871  0.0424  0.4476
  713MOL0     C98289   4.240   4.689  10.611 -0.2676  0.0739  0.1153
  713MOL0     C98290   4.375   4.723  10.645 -0.6129 -0.0844 -0.2416
  713MOL0     C98291   4.410   4.860  10.645 -0.4128  0.9596 -0.6363
  713MOL0     O98292   4.543   4.877  10.668  0.7716 -0.3843  0.1744
  713MOL0     C98293   4.568   4.938  10.798  0.1704 -0.9518 -0.5011
  713MOL0     C98294   4.706   5.013  10.817  0.3335  0.6620  0.1998
  713MOL0     C98295   4.817   4.916  10.789  0.1028  0.1999  0.2123
  713MOL0     C98296   4.887   4.920  10.649  0.0825  0.7786  0.2735
  713MOL0     C98297   4.828   4.835  10.544  0.3066 -0.6591  0.0615
  713MOL0     C98298   4.928   4.805  10.429  0.2860  0.5315  0.4915
  713MOL0     C98299   4.862   4.747  10.305 -0.2840 -0.2931 -0.0998
  713MOL0     C98300   4.932   4.776  10.168 -0.3946  0.1718 -0.0975
  713MOL0    Cl98301   5.079   4.675  10.166 -0.1131 -0.0508  0.0483
  713MOL0     C98302   4.318   4.947  10.600 -0.0861  0.1865 -0.7290
  713MOL0     C98303   4.185   4.908  10.565  0.1286  0.2262  0.0230
  713MOL0     O98304   3.921   4.556  10.526 -0.1338  0.1098  0.6418
  713MOL0     C98305   4.002   4.553  10.833  0.3236  0.0548 -0.4625
  713MOL0     C98306   3.971   4.552  10.967  0.2126 -0.3033 -1.0828
  713MOL0     N98307   3.404   4.542  11.529 -0.4470  0.0148  0.0566
  713MOL0     N98308   3.316   4.615  11.593 -0.0455  0.2087  0.0203
  713MOL0     C98309   3.032   5.132  11.018  0.9090  0.3086 -0.0920
  713MOL0     C98310   3.049   5.046  10.903  0.5718 -1.2219 -1.7890
  713MOL0     C98311   3.221   4.807  10.565  0.2670 -0.3740  0.1045
  713MOL0     C98312   3.088   4.799  10.494 -0.3497  0.2848  0.5738
  713MOL0     C98313   3.079   4.731  10.378 -0.4570 -0.1994  0.3280
  713MOL0     C98314   3.189   4.671  10.324  0.1744 -0.4101  0.3634
  713MOL0     O98315   3.183   4.601  10.208 -0.2553  0.0010  0.5247
  713MOL0     C98316   3.158   4.691  10.096  0.4991  0.1059 -0.1945
  713MOL0     C98317   3.149   4.602   9.971  0.1607 -1.8017  0.0832
  713MOL0     C98318   3.273   4.518   9.943 -0.3332 -0.1299  0.3456
  713MOL0     C98319   3.303   4.469   9.793 -0.1345 -0.1851  0.4374
  713MOL0     C98320   3.209   4.351   9.753 -0.9668 -0.1652 -0.4694
  713MOL0     C98321   3.147   4.257   9.715  0.2106  0.3211  0.2964
  713MOL0     C98322   3.312   4.677  10.390 -0.3383 -0.3201 -0.0786
  713MOL0     C98323   3.336   4.750  10.506 -0.0272 -0.9910 -0.5789
  713MOL0     C98324   3.472   4.763  10.570  0.2149  0.4511 -0.1083
  713MOL0     H98325   3.321   5.204  10.763 -0.2571 -0.9884  0.2624
  713MOL0     H98326   3.277   5.358  10.940  3.1123 -1.9189  1.6165
  713MOL0     H98327   2.931   5.277  11.212 -0.4814  0.0437 -0.0495
  713MOL0     H98328   3.020   5.391  11.312  2.5433 -0.7253  0.9956
  713MOL0     H98329   3.089   5.098  11.286 -0.7716  0.4390 -0.8748
  713MOL0     H98330   3.182   5.209  11.378  0.3487 -0.1631 -1.7473
  713MOL0     H98331   2.998   5.249  11.528  0.8173  0.7935 -1.2671
  713MOL0     H98332   2.879   5.166  11.419  0.4022  2.8963 -2.0877
  713MOL0     H98333   2.911   5.003  11.579 -0.0348  3.5227  1.6348
  713MOL0     H98334   3.001   4.941  11.453 -3.7073 -1.4076  1.2837
  713MOL0     H98335   3.099   5.095  11.696  0.3761 -3.5408  2.3180
  713MOL0     H98336   3.198   5.072  11.551 -1.3659  0.8371 -0.9708
  713MOL0     H98337   3.061   4.856  11.719  1.7240  0.3743  1.4668
  713MOL0     H98338   3.149   4.823  11.571  1.3482 -1.9691  0.4820
  713MOL0     H98339   3.244   4.962  11.832 -2.6542 -2.4059  1.4652
  713MOL0     H98340   3.347   4.936  11.683 -1.0114 -0.0685 -1.8377
  713MOL0     H98341   3.373   4.763  11.892 -0.5445 -0.5673 -0.1238
  713MOL0     H98342   3.230   4.697  11.829 -1.4967  1.2305  0.3546
  713MOL0     H98343   3.596   4.691  11.737  0.9703 -4.3798  1.1206
  713MOL0     H98344   3.639   4.409  11.481 -1.3315 -0.3364  1.1014
  713MOL0     H98345   3.724   4.519  11.586 -0.5950  2.1276 -1.8948
  713MOL0     H98346   3.649   4.562  11.311 -3.9116  1.3508  1.8083
  713MOL0     H98347   3.690   4.707  11.410 -1.5535  0.3884 -0.7295
  713MOL0     H98348   3.924   4.641  11.413  2.1058 -1.5691 -0.8638
  713MOL0     H98349   3.881   4.478  11.446 -0.0575  2.1996  1.3482
  713MOL0     H98350   4.005   4.521  11.233 -0.2905 -2.8163 -2.3166
  713MOL0     H98351   3.851   4.432  11.214  0.0633  1.0103 -0.4817
  713MOL0     H98352   3.727   4.796  10.952  0.1259  2.5047 -4.2644
  713MOL0     H98353   3.835   4.919  10.728  1.8912 -1.6029  0.1583
  713MOL0     H98354   3.668   4.865  10.750  0.7258 -1.3905  1.5927
  713MOL0     H98355   3.762   4.822  10.602  0.9633  3.8308 -0.9946
  713MOL0     H98356   4.225   4.581  10.613 -0.8765  0.1035 -1.6899
  713MOL0     H98357   4.451   4.649  10.670 -0.5838  0.0167 -0.0312
  713MOL0     H98358   4.485   5.002  10.830  0.0918  0.2569 -2.8769
  713MOL0     H98359   4.572   4.860  10.874  0.5849  0.4032  0.9373
  713MOL0     H98360   4.717   5.105  10.759  2.1027 -1.3476 -2.9419
  713MOL0     H98361   4.698   5.039  10.923  0.4760 -0.7923  0.5815
  713MOL0     H98362   4.790   4.815  10.821 -0.5112  0.7287  1.4278
  713MOL0     H98363   4.899   4.940  10.856  1.4254 -2.2524 -0.3920
  713MOL0     H98364   4.986   4.882  10.677  0.2274  1.0012  0.0658
  713MOL0     H98365   4.893   5.020  10.607 -0.2672  1.9971  2.9364
  713MOL0     H98366   4.780   4.741  10.572 -0.2218 -0.2073  0.7116
  713MOL0     H98367   4.746   4.901  10.512  1.7693  2.6555  2.5496
  713MOL0     H98368   5.009   4.740  10.463  0.0647 -1.0493 -1.7646
  713MOL0     H98369   4.962   4.901  10.389  1.6841 -0.4082 -0.6421
  713MOL0     H98370   4.766   4.795  10.289  1.3019  3.8020  1.2206
  713MOL0     H98371   4.856   4.638  10.312 -0.9576 -0.3030 -0.8083
  713MOL0     H98372   4.956   4.882  10.156  1.6609  0.2002  2.9875
  713MOL0     H98373   4.866   4.747  10.086 -0.0314  1.4973 -0.9021
  713MOL0     H98374   4.348   5.051  10.597  0.1461  0.1216 -0.6844
  713MOL0     H98375   4.121   4.993  10.543 -0.6404 -0.0472  1.0786
  713MOL0     H98376   4.081   4.486  10.800  0.2342  0.2501 -1.0912
  713MOL0     H98377   4.011   4.474  11.031 -1.7406 -0.4253  0.0866
  713MOL0     H98378   2.953   5.120  11.091  2.7433  0.6286  2.0468
  713MOL0     H98379   3.001   4.950  10.890 -1.0341 -0.3266 -2.7900
  713MOL0     H98380   2.999   4.848  10.532 -2.2281 -0.1496 -2.8481
  713MOL0     H98381   2.984   4.712  10.329  0.7136 -0.9317 -1.7844
  713MOL0     H98382   3.067   4.748  10.117  0.7974 -0.4095  3.0758
  713MOL0     H98383   3.238   4.764  10.081 -1.2047  1.4988 -3.3881
  713MOL0     H98384   3.125   4.673   9.891 -0.3036  0.9505  2.4790
  713MOL0     H98385   3.067   4.531   9.984 -1.8545  0.2031 -0.8908
  713MOL0     H98386   3.355   4.583   9.975 -0.6358  1.3481 -1.6858
  713MOL0     H98387   3.285   4.433  10.012  4.1320  1.2103  1.5898
  713MOL0     H98388   3.409   4.444   9.779 -0.4354 -1.8929  0.8950
  713MOL0     H98389   3.269   4.546   9.724 -0.1814 -2.8304 -2.7471
  713MOL0     H98390   3.094   4.170   9.682 -0.5332 -0.0648  2.3388
  713MOL0     H98391   3.397   4.633  10.339 -1.5974 -0.2391 -2.3976
  713MOL0     H98392   3.506   4.866  10.584  0.5397  0.5089 -1.2373
  713MOL0     H98393   3.471   4.709  10.665 -1.3126  0.6176 -0.0042
  713MOL0     H98394   3.544   4.715  10.503 -1.3813 -3.3300  0.6261
  714MOL0     O98395   2.128   4.591   8.234  0.1451  0.3593 -0.4006
  714MOL0     C98396   2.110   4.708   8.270 -0.2028  0.3477 -0.3431
  714MOL0     O98397   2.055   4.805   8.192 -0.3590 -0.0865 -0.4866
  714MOL0     C98398   2.030   4.773   8.060 -0.0051  0.8805 -0.1870
  714MOL0     C98399   2.133   4.756   7.972 -0.2235  0.2075  0.2727
  714MOL0     C98400   2.100   4.712   7.838  0.5465 -0.1689 -0.4376
  714MOL0     C98401   1.961   4.701   7.796 -0.0409  0.1363  0.8913
  714MOL0     O98402   1.940   4.687   7.651 -0.0876 -0.1153 -0.0716
  714MOL0     C98403   1.812   4.663   7.581 -0.5693 -0.3563  0.2739
  714MOL0     C98404   1.783   4.797   7.511  0.2476 -0.4311 -0.0851
  714MOL0     C98405   1.646   4.791   7.449  0.2452  0.3645 -0.5689
  714MOL0     C98406   1.608   4.916   7.364 -0.6423  0.9285  0.1825
  714MOL0     C98407   1.463   4.896   7.331 -0.0907 -0.6106 -0.0600
  714MOL0     C98408   1.440   4.786   7.240  0.6408 -0.1307  0.2959
  714MOL0     C98409   1.300   4.778   7.192 -0.0364 -0.7676 -0.5637
  714MOL0     C98410   1.200   4.733   7.293  0.6953 -0.2779 -0.6511
  714MOL0     N98411   1.080   4.712   7.217  0.7414 -0.1324 -0.4528
  714MOL0     C98412   1.004   4.823   7.175  0.7930 -0.3247  0.1965
  714MOL0     C98413   0.908   4.756   7.102  0.8798  0.3610  0.2915
  714MOL0     C98414   0.817   4.834   7.020 -0.6634 -0.4032  0.2192
  714MOL0     C98415   0.718   4.905   7.119  0.0989 -0.3404 -0.6813
  714MOL0     C98416   0.613   4.976   7.045  0.7968  0.0742  1.0497
  714MOL0     C98417   0.475   4.959   7.114  1.5395  0.4619 -0.4171
  714MOL0     O98418   0.486   5.027   7.243  0.4589  0.6691 -0.1824
  714MOL0     C98419   0.373   5.017   7.331 -0.3329 -0.7387  0.1523
  714MOL0     C98420   0.246   4.969   7.287  0.2533 -0.2350 -0.5351
  714MOL0     C98421   0.143   4.940   7.384  0.4366 -0.5760  0.3331
  714MOL0     C98422   0.022   4.868   7.333 -0.4288 -0.5644  0.0427
  714MOL0     C98423   0.158   4.978   7.521 -0.0811 -0.2264 -0.5243
  714MOL0     C98424   0.058   4.963   7.642 -0.4862  0.2746  1.0818
  714MOL0     O98425   0.113   4.947   7.771  0.2334 -0.1426  0.4938
  714MOL0     C98426   0.031   4.949   7.878  0.4055  0.1030  0.4501
  714MOL0     C98427   0.010   5.068   7.944  0.5474  0.0029 -0.7024
  714MOL0     C98428  -0.060   5.060   8.063  0.8617 -0.0641  0.6441
  714MOL0     C98429  -0.109   4.943   8.123 -0.6293 -1.1339 -0.9183
  714MOL0     O98430  -0.193   4.942   8.237 -0.2414  0.3517  0.1485
  714MOL0     C98431  -0.134   4.999   8.354 -0.1558  0.3874  1.0109
  714MOL0     C98432  -0.190   4.932   8.476  0.4288  0.1579  0.1664
  714MOL0     C98433  -0.109   4.968   8.600 -0.1666  0.9453 -0.0874
  714MOL0     C98434  -0.037   4.838   8.640  0.7029  0.2819 -0.3137
  714MOL0     C98435   0.011   4.866   8.781  0.1722 -0.0058  0.0628
  714MOL0     C98436   0.078   4.735   8.835 -0.6387  0.3064  0.6563
  714MOL0     C98437  -0.016   4.644   8.908  0.2445 -0.6497  0.7320
  714MOL0     C98438   0.061   4.524   8.950 -0.0307  0.6922 -0.5229
  714MOL0    Cl98439   0.115   4.413   8.821  0.0103 -0.1206  0.4685
  714MOL0     C98440  -0.084   4.824   8.056  0.5995  0.8762 -0.2925
  714MOL0     C98441  -0.011   4.829   7.926 -0.8371 -0.0267  0.2231
  714MOL0     O98442  -0.061   4.960   7.610  0.5401  0.5438  0.0530
  714MOL0     C98443   0.279   5.021   7.563 -0.0810 -0.6248 -0.0256
  714MOL0     C98444   0.384   5.041   7.472 -0.3302  0.9382 -0.5457
  714MOL0     N98445   0.923   4.622   7.113 -0.3426 -0.1112 -0.0099
  714MOL0     N98446   1.026   4.598   7.175  0.4360 -0.1470 -0.2498
  714MOL0     C98447   1.862   4.730   7.888  1.0181  0.5869 -0.7127
  714MOL0     C98448   1.896   4.756   8.027  0.0911  0.8348  0.3491
  714MOL0     C98449   2.131   4.739   8.415  0.0273  0.5376  0.4539
  714MOL0     C98450   2.094   4.865   8.460  0.4966  0.1497  0.5799
  714MOL0     C98451   2.124   4.921   8.583  0.5394  2.0545 -0.1496
  714MOL0     C98452   2.207   4.844   8.667  0.0194 -0.3937  0.5057
  714MOL0     O98453   2.252   4.887   8.787 -0.2004 -0.0975  0.3965
  714MOL0     C98454   2.266   5.030   8.807  0.2712 -0.5552 -0.7329
  714MOL0     C98455   2.334   5.075   8.931  0.8255  1.0316  0.2344
  714MOL0     C98456   2.316   5.223   8.967  0.0242 -0.3086 -0.2810
  714MOL0     C98457   2.389   5.273   9.089 -0.1116 -0.4258  0.2767
  714MOL0     C98458   2.330   5.216   9.216  0.3928 -0.2110  0.2195
  714MOL0     C98459   2.287   5.165   9.317 -0.5786  0.4949  0.0637
  714MOL0     C98460   2.245   4.711   8.626 -0.2024 -0.2596 -0.4089
  714MOL0     C98461   2.198   4.650   8.504  0.4422 -0.2507 -0.0252
  714MOL0     C98462   2.257   4.508   8.469  0.4665 -0.2599  0.6204
  714MOL0     H98463   2.233   4.764   8.015  0.2391  0.8260 -0.8763
  714MOL0     H98464   2.181   4.680   7.773  2.6473  1.6042  1.1548
  714MOL0     H98465   1.739   4.634   7.657  0.0841 -1.7340  0.4125
  714MOL0     H98466   1.810   4.590   7.500  1.9702  1.9094 -2.0349
  714MOL0     H98467   1.790   4.880   7.583 -2.4985 -1.4985  1.5575
  714MOL0     H98468   1.850   4.808   7.426  0.3815 -2.5089 -0.2836
  714MOL0     H98469   1.645   4.707   7.379 -0.6967 -1.3162  1.3396
  714MOL0     H98470   1.570   4.766   7.524 -0.4732 -2.0723 -1.9996
  714MOL0     H98471   1.629   4.999   7.431 -2.2971 -0.8545  3.1262
  714MOL0     H98472   1.670   4.924   7.274 -0.1017  1.5151  0.6025
  714MOL0     H98473   1.436   4.987   7.277  1.4577  0.2757  0.5909
  714MOL0     H98474   1.403   4.897   7.423  1.0592  1.1725  0.7343
  714MOL0     H98475   1.516   4.789   7.161  0.6121  3.6219  0.2578
  714MOL0     H98476   1.454   4.695   7.299  1.0436 -1.1012 -1.2425
  714MOL0     H98477   1.306   4.709   7.108 -2.9721 -0.6003 -1.0017
  714MOL0     H98478   1.278   4.878   7.154 -2.1203 -1.0240 -0.1383
  714MOL0     H98479   1.233   4.643   7.345  0.3077 -0.4596 -0.7101
  714MOL0     H98480   1.172   4.802   7.373 -2.0633 -0.3892 -1.3979
  714MOL0     H98481   1.019   4.930   7.179  0.6077 -0.1554 -2.0393
  714MOL0     H98482   0.766   4.759   6.958  1.2584  0.8770 -3.1194
  714MOL0     H98483   0.865   4.897   6.946  0.2446  0.4166  1.4709
  714MOL0     H98484   0.685   4.816   7.173 -0.1375 -1.6873 -2.8918
  714MOL0     H98485   0.773   4.980   7.176 -1.4672  0.4093 -0.0992
  714MOL0     H98486   0.634   5.081   7.021 -1.1192 -0.1216 -1.9490
  714MOL0     H98487   0.597   4.947   6.941  0.1172  0.7576  0.9479
  714MOL0     H98488   0.396   5.008   7.056  0.5904 -0.6660 -0.1194
  714MOL0     H98489   0.447   4.854   7.125 -0.2653  0.9029 -0.3412
  714MOL0     H98490   0.227   4.942   7.183 -1.4284  2.4101 -1.0183
  714MOL0     H98491  -0.022   4.802   7.408  1.5292 -0.4693  1.3383
  714MOL0     H98492   0.055   4.810   7.246 -0.8965 -1.5106  0.4742
  714MOL0     H98493  -0.046   4.946   7.297  2.7018  1.5222 -1.8276
  714MOL0     H98494   0.041   5.164   7.903  1.2918 -1.1089 -2.9522
  714MOL0     H98495  -0.070   5.153   8.119  2.1628  0.4886  0.0039
  714MOL0     H98496  -0.026   4.987   8.357 -0.1115 -2.0420 -3.0006
  714MOL0     H98497  -0.153   5.106   8.366 -1.7351  0.1576  0.7583
  714MOL0     H98498  -0.293   4.968   8.487 -1.3682 -3.1789 -3.2955
  714MOL0     H98499  -0.206   4.824   8.471 -2.1591  0.3600  2.2495
  714MOL0     H98500  -0.178   4.987   8.683 -1.5054 -2.7012 -0.1874
  714MOL0     H98501  -0.036   5.049   8.589  1.0729 -0.1802 -0.3980
  714MOL0     H98502   0.034   4.803   8.565 -0.5492 -3.7711  0.1404
  714MOL0     H98503  -0.106   4.753   8.644  0.6178  0.0432 -3.7606
  714MOL0     H98504   0.086   4.946   8.782 -1.7805  1.8984  1.6368
  714MOL0     H98505  -0.065   4.905   8.848 -0.5342  1.5636 -1.5555
  714MOL0     H98506   0.161   4.768   8.898  0.0473 -0.2065  0.0359
  714MOL0     H98507   0.125   4.677   8.755 -2.4958 -2.5362  1.5128
  714MOL0     H98508  -0.099   4.631   8.838 -1.7261  0.6925  2.6858
  714MOL0     H98509  -0.050   4.699   8.996  1.2352 -2.3181  2.1984
  714MOL0     H98510   0.014   4.455   9.021  0.6280  1.2171  0.4466
  714MOL0     H98511   0.156   4.552   8.997 -0.2743 -0.2087  0.5724
  714MOL0     H98512  -0.109   4.731   8.105 -0.0015 -0.3532 -2.7389
  714MOL0     H98513   0.004   4.743   7.862  0.0946  2.1049 -2.6555
  714MOL0     H98514   0.296   5.052   7.666 -0.7766  0.0523 -0.1082
  714MOL0     H98515   0.483   5.061   7.510 -1.0113 -0.2251  2.0600
  714MOL0     H98516   1.758   4.715   7.859  0.8459 -1.4217  0.7554
  714MOL0     H98517   1.809   4.766   8.090 -1.5537  0.0806 -1.6934
  714MOL0     H98518   2.038   4.931   8.395  1.0255  0.2875  0.2608
  714MOL0     H98519   2.068   5.008   8.618 -2.7363 -0.7134  2.2898
  714MOL0     H98520   2.327   5.074   8.727  2.2990  1.8205  1.9452
  714MOL0     H98521   2.160   5.052   8.815  0.3342 -0.8810  1.4575
  714MOL0     H98522   2.439   5.048   8.919 -0.2643 -3.3841 -1.7615
  714MOL0     H98523   2.295   5.014   9.014  1.3143  2.8024  1.8408
  714MOL0     H98524   2.341   5.284   8.880 -0.3757  1.0524  0.5307
  714MOL0     H98525   2.209   5.240   8.978  0.0031 -0.2298 -0.6068
  714MOL0     H98526   2.382   5.381   9.100 -0.9017 -0.6150  1.9833
  714MOL0     H98527   2.493   5.241   9.095 -1.0161 -3.7065  0.4676
  714MOL0     H98528   2.260   5.118   9.410  0.4406  1.0309  0.6487
  714MOL0     H98529   2.311   4.655   8.691  0.6958  1.5191  0.3118
  714MOL0     H98530   2.344   4.513   8.403 -0.1101  0.2281 -0.1064
  714MOL0     H98531   2.296   4.457   8.558  2.0042  0.6439  0.5119
  714MOL0     H98532   2.174   4.443   8.440 -1.1637  1.3513  1.4507
  715MOL0     O98533   3.957   2.594   1.726 -0.2992 -0.1963  0.0603
  715MOL0     C98534   4.073   2.628   1.704 -0.3010  0.1088  0.4487
  715MOL0     O98535   4.174   2.620   1.793  0.0718  0.1493 -0.1675
  715MOL0     C98536   4.161   2.512   1.880  0.3679 -0.4354 -0.7278
  715MOL0     C98537   4.190   2.531   2.018  0.8621  0.9361  0.2131
  715MOL0     C98538   4.165   2.428   2.110  0.9371  0.6286  0.6401
  715MOL0     C98539   4.137   2.295   2.059  0.3200 -0.6642 -0.0861
  715MOL0     O98540   4.148   2.199   2.164 -0.3311 -0.7814  0.5435
  715MOL0     C98541   4.084   2.079   2.140 -0.3248  0.2607 -0.2815
  715MOL0     C98542   4.173   1.965   2.092 -0.5967  0.2246  0.3621
  715MOL0     C98543   4.098   1.835   2.073  0.1232 -0.1323  0.7788
  715MOL0     C98544   4.208   1.728   2.051 -0.3530  0.4090  0.7007
  715MOL0     C98545   4.250   1.668   2.180 -0.7690 -0.1877  0.0560
  715MOL0     C98546   4.355   1.558   2.163  0.3676 -0.5636 -0.5168
  715MOL0     C98547   4.408   1.532   2.304 -0.0822 -1.9756 -0.2207
  715MOL0     C98548   4.496   1.404   2.302 -1.0226 -0.7887 -0.4252
  715MOL0     N98549   4.574   1.397   2.431  0.7736  0.2994  0.9092
  715MOL0     C98550   4.679   1.482   2.455  0.4476 -0.2736  0.3965
  715MOL0     C98551   4.722   1.450   2.583  0.5162  0.3551  0.2478
  715MOL0     C98552   4.825   1.517   2.672  0.0974 -0.1612  0.4955
  715MOL0     C98553   4.946   1.439   2.662  0.3485  0.0204  0.7718
  715MOL0     C98554   5.028   1.449   2.785  0.1147  0.4235  0.2149
  715MOL0     C98555   4.988   1.335   2.886 -0.3051 -0.4609  0.0235
  715MOL0     O98556   5.082   1.329   2.992 -0.8183 -0.2451  0.4906
  715MOL0     C98557   5.070   1.247   3.101 -0.7111 -0.7426 -0.6615
  715MOL0     C98558   5.183   1.248   3.187  0.8037  0.1589  0.1451
  715MOL0     C98559   5.200   1.160   3.296 -0.3475 -0.4382  0.5641
  715MOL0     C98560   5.329   1.165   3.387  0.5950 -0.5131  0.2928
  715MOL0     C98561   5.096   1.070   3.327 -0.1214 -0.0050  0.4811
  715MOL0     C98562   5.100   0.975   3.439  0.4779 -0.3705  0.1201
  715MOL0     O98563   4.974   0.962   3.496 -0.3045  0.0027 -0.3369
  715MOL0     C98564   4.944   0.883   3.601 -0.3502  0.2936 -0.8120
  715MOL0     C98565   5.024   0.867   3.712 -0.9188  0.4661  0.0392
  715MOL0     C98566   4.993   0.773   3.814 -0.3060  0.4120 -0.0227
  715MOL0     C98567   4.881   0.696   3.796 -0.4411 -0.8261  0.3350
  715MOL0     O98568   4.845   0.610   3.892  0.1404 -0.3273 -0.3668
  715MOL0     C98569   4.796   0.683   4.009  0.7605 -0.5746  1.1102
  715MOL0     C98570   4.810   0.586   4.130  0.0816 -0.1528  0.0659
  715MOL0     C98571   4.735   0.638   4.257  0.0657  0.0081  0.5413
  715MOL0     C98572   4.651   0.534   4.347 -0.6141 -0.2111  0.6807
  715MOL0     C98573   4.527   0.488   4.276  0.6048  1.0863  1.2278
  715MOL0     C98574   4.458   0.588   4.182  0.0315  0.4215  0.2274
  715MOL0     C98575   4.320   0.531   4.143 -0.1090  0.2835  0.5499
  715MOL0     C98576   4.208   0.534   4.248  1.1532  0.2557 -0.5289
  715MOL0    Cl98577   4.066   0.485   4.160  0.3457 -0.6551  0.6188
  715MOL0     C98578   4.802   0.710   3.683  0.2281 -0.3695 -0.0125
  715MOL0     C98579   4.827   0.808   3.588  0.0654 -0.1892  0.5279
  715MOL0     O98580   5.201   0.933   3.486 -1.2501  0.3542 -0.9560
  715MOL0     C98581   4.976   1.059   3.241  1.0277  0.0523 -0.9071
  715MOL0     C98582   4.968   1.160   3.138 -0.3011  0.1537  0.4326
  715MOL0     N98583   4.642   1.340   2.622 -0.5193 -0.8187  0.7933
  715MOL0     N98584   4.542   1.327   2.540 -0.1325 -0.4123  0.3805
  715MOL0     C98585   4.087   2.283   1.926 -0.6120  0.5804 -0.1260
  715MOL0     C98586   4.119   2.384   1.840 -0.6908 -0.5659  0.3869
  715MOL0     C98587   4.091   2.729   1.594  0.4766 -0.1592  0.5928
  715MOL0     C98588   3.986   2.813   1.564  0.3241 -0.5132 -0.4939
  715MOL0     C98589   3.990   2.912   1.465  0.1685 -0.0156 -0.6226
  715MOL0     C98590   4.106   2.922   1.393  0.1834 -0.1993  0.3214
  715MOL0     O98591   4.128   3.031   1.314  0.5501  0.9081  0.8489
  715MOL0     C98592   4.206   3.131   1.382 -0.7575 -0.3953  0.4024
  715MOL0     C98593   4.295   3.179   1.267  0.2629 -0.6599  0.7739
  715MOL0     C98594   4.410   3.082   1.247 -0.1047 -0.0059  0.0657
  715MOL0     C98595   4.539   3.139   1.177 -0.1882 -0.3409 -0.0092
  715MOL0     C98596   4.509   3.217   1.059  0.6219  0.8231 -0.7042
  715MOL0     C98597   4.476   3.248   0.947 -0.2211  0.2717 -0.1847
  715MOL0     C98598   4.194   2.819   1.399 -0.1129 -0.4559 -0.4572
  715MOL0     C98599   4.194   2.713   1.494 -0.6887  0.2431  0.3157
  715MOL0     C98600   4.299   2.602   1.499 -0.8519 -0.7280  0.4330
  715MOL0     H98601   4.208   2.627   2.065 -1.2396  1.0097  0.9512
  715MOL0     H98602   4.182   2.449   2.215  0.5609  0.7984  0.6691
  715MOL0     H98603   3.989   2.085   2.087 -1.4931 -1.6968  1.4698
  715MOL0     H98604   4.063   2.041   2.240  3.1172  1.8016  1.1872
  715MOL0     H98605   4.211   1.998   1.995 -0.1383  0.1973  0.5282
  715MOL0     H98606   4.251   1.947   2.166  1.1763 -2.7605 -1.9741
  715MOL0     H98607   4.042   1.811   2.164  0.2830  0.4584  1.0400
  715MOL0     H98608   4.032   1.845   1.987  2.4425  1.8803 -0.9224
  715MOL0     H98609   4.176   1.651   1.980  0.3730  1.8033 -1.2332
  715MOL0     H98610   4.298   1.768   2.002  1.1721 -2.4165  1.0162
  715MOL0     H98611   4.161   1.627   2.229  0.8118  0.4745  3.8081
  715MOL0     H98612   4.283   1.748   2.246  1.6475 -2.1245  1.4025
  715MOL0     H98613   4.288   1.474   2.138 -1.3800  0.6582 -0.1576
  715MOL0     H98614   4.427   1.580   2.085  1.2547  1.4881  0.8209
  715MOL0     H98615   4.328   1.517   2.377 -0.7110  2.7782  0.3319
  715MOL0     H98616   4.452   1.626   2.336  0.1453 -1.6339 -1.5030
  715MOL0     H98617   4.437   1.315   2.279 -1.6122 -0.4024 -0.4156
  715MOL0     H98618   4.566   1.425   2.220  1.5506  0.4109  1.9077
  715MOL0     H98619   4.725   1.560   2.396  1.9851  0.2980  2.2409
  715MOL0     H98620   4.777   1.508   2.771  1.3176 -0.0651  1.1120
  715MOL0     H98621   4.843   1.624   2.653  0.0144 -0.5093 -1.7162
  715MOL0     H98622   4.919   1.334   2.645 -1.2825  0.4221  0.7979
  715MOL0     H98623   5.011   1.489   2.588  0.7451  0.8824  1.6809
  715MOL0     H98624   5.134   1.439   2.763  0.0544  2.0954 -1.0270
  715MOL0     H98625   5.009   1.543   2.838 -0.3564 -0.7113  2.1809
  715MOL0     H98626   4.897   1.365   2.940  0.7363  1.5563  0.7964
  715MOL0     H98627   4.972   1.244   2.829 -1.3463  1.2381 -2.5907
  715MOL0     H98628   5.256   1.320   3.150  0.2822 -0.2998 -1.9447
  715MOL0     H98629   5.398   1.243   3.353 -1.3923  2.5368  2.7664
  715MOL0     H98630   5.382   1.070   3.373 -1.6135 -1.3937 -3.3137
  715MOL0     H98631   5.303   1.193   3.489 -1.0454  0.9630 -0.4925
  715MOL0     H98632   5.109   0.929   3.741  0.3217 -1.3060  0.4218
  715MOL0     H98633   5.042   0.757   3.909  1.7420 -1.7838 -1.3716
  715MOL0     H98634   4.840   0.780   4.034  0.0549 -0.7137  3.0912
  715MOL0     H98635   4.693   0.712   3.990  0.2887 -2.0635  1.2269
  715MOL0     H98636   4.771   0.488   4.099 -1.4107  0.6363 -0.6724
  715MOL0     H98637   4.917   0.574   4.146  0.1233 -1.8789 -1.1999
  715MOL0     H98638   4.673   0.724   4.229 -4.6816 -2.9384  0.7925
  715MOL0     H98639   4.819   0.669   4.320 -0.8757  4.3178 -0.0097
  715MOL0     H98640   4.629   0.571   4.447  1.8276  0.9489  0.8638
  715MOL0     H98641   4.719   0.451   4.372 -0.9478 -0.7701 -0.2012
  715MOL0     H98642   4.552   0.403   4.213  0.5296  1.7761  0.2425
  715MOL0     H98643   4.456   0.453   4.352 -2.4420  2.5579 -0.7485
  715MOL0     H98644   4.517   0.611   4.092  0.2124 -0.4135  0.1211
  715MOL0     H98645   4.442   0.686   4.227 -1.1455  0.6769 -0.7101
  715MOL0     H98646   4.327   0.430   4.101  0.7107  0.4538  0.2606
  715MOL0     H98647   4.294   0.585   4.052 -0.3264 -1.2159 -0.3165
  715MOL0     H98648   4.206   0.634   4.292 -1.7575 -1.2692  3.3816
  715MOL0     H98649   4.231   0.464   4.329  0.6089  1.6835  0.9033
  715MOL0     H98650   4.722   0.642   3.656  0.0087 -1.0671  2.1831
  715MOL0     H98651   4.760   0.814   3.503 -0.3621 -2.4482  0.6609
  715MOL0     H98652   4.892   0.995   3.264 -0.3845  1.2360 -2.5324
  715MOL0     H98653   4.875   1.166   3.082  1.8521 -1.3390 -3.7630
  715MOL0     H98654   4.055   2.185   1.892  1.8595 -1.2474  2.3344
  715MOL0     H98655   4.089   2.371   1.737 -3.1145 -1.1955  1.1066
  715MOL0     H98656   3.898   2.800   1.626 -1.9801 -1.4337 -3.6848
  715MOL0     H98657   3.903   2.976   1.461  0.3220  0.1660 -1.1418
  715MOL0     H98658   4.151   3.215   1.427  4.5052  1.9551  3.3170
  715MOL0     H98659   4.261   3.092   1.467  0.0238  1.4266  0.7827
  715MOL0     H98660   4.335   3.277   1.294 -0.9843  0.1355 -0.1684
  715MOL0     H98661   4.224   3.186   1.184 -3.2838  1.1358  3.6715
  715MOL0     H98662   4.447   3.041   1.342  2.2802  1.9208  0.0458
  715MOL0     H98663   4.360   3.010   1.181  1.5098 -0.0850 -1.1307
  715MOL0     H98664   4.616   3.067   1.149 -0.8849 -0.3756 -1.9269
  715MOL0     H98665   4.593   3.207   1.244 -2.0173  0.3732  0.8162
  715MOL0     H98666   4.459   3.273   0.845  1.4358 -0.0813 -0.5775
  715MOL0     H98667   4.281   2.832   1.335 -1.3047  3.1664 -1.5729
  715MOL0     H98668   4.296   2.522   1.424 -3.2653  0.7279 -1.1457
  715MOL0     H98669   4.394   2.653   1.483 -1.3362 -0.1850 -0.8098
  715MOL0     H98670   4.304   2.539   1.589  2.7507 -0.9167  0.2242
  716MOL0     O98671   9.413   0.762  10.603  0.2902 -0.2261 -0.3579
  716MOL0     C98672   9.312   0.828  10.627  0.1263  0.6985  0.5164
  716MOL0     O98673   9.303   0.923  10.709  0.2593  0.1996  0.8932
  716MOL0     C98674   9.412   0.952  10.787  1.0277  0.0377  0.5609
  716MOL0     C98675   9.486   1.059  10.739  0.2628 -0.7453 -0.3437
  716MOL0     C98676   9.608   1.102  10.791 -0.2671  0.3242  0.0882
  716MOL0     C98677   9.659   1.033  10.898 -0.0524  0.5453  0.4406
  716MOL0     O98678   9.785   1.039  10.947 -0.4474  0.0380  0.3410
  716MOL0     C98679   9.870   1.136  10.897 -0.3958 -0.5689 -0.2644
  716MOL0     C98680  10.001   1.161  10.973 -0.5125 -0.0357 -0.0543
  716MOL0     C98681  10.082   1.270  10.913 -0.0948 -1.4660 -0.0222
  716MOL0     C98682  10.221   1.261  10.955 -1.1493  0.6709 -0.2369
  716MOL0     C98683  10.307   1.346  10.847  0.2992  0.7207 -0.5506
  716MOL0     C98684  10.458   1.301  10.844 -0.3958 -0.0108  0.7045
  716MOL0     C98685  10.515   1.285  10.705 -0.4762 -0.3097 -0.0476
  716MOL0     C98686  10.659   1.258  10.706 -0.1678 -0.2911 -0.0320
  716MOL0     N98687  10.751   1.369  10.721  0.5530  0.2811  1.2310
  716MOL0     C98688  10.778   1.460  10.624 -0.0006 -0.2421 -0.0154
  716MOL0     C98689  10.883   1.537  10.672 -0.4803 -0.3956  0.3327
  716MOL0     C98690  10.964   1.638  10.610  0.1860 -0.0205 -0.6327
  716MOL0     C98691  11.112   1.618  10.649 -0.1656  0.4407 -0.5308
  716MOL0     C98692  11.212   1.712  10.580  1.0302 -0.3050 -0.1127
  716MOL0     C98693  11.329   1.742  10.672 -0.3822  0.5061  0.3516
  716MOL0     O98694  11.423   1.813  10.595  0.1366  0.3261  0.1320
  716MOL0     C98695  11.554   1.800  10.629  0.1052 -0.1593  0.6914
  716MOL0     C98696  11.601   1.751  10.754  0.1224 -0.5014 -0.4504
  716MOL0     C98697  11.738   1.737  10.788 -0.3007  0.0589 -0.4580
  716MOL0     C98698  11.772   1.695  10.931  0.0677  0.0956  0.1224
  716MOL0     C98699  11.833   1.774  10.688 -0.5845  0.4204  0.3789
  716MOL0     C98700  11.975   1.778  10.708 -0.2868  0.1559 -0.0003
  716MOL0     O98701  12.048   1.888  10.684 -0.4642  0.6561 -0.1504
  716MOL0     C98702  12.185   1.888  10.712  0.0507 -0.4636  0.2279
  716MOL0     C98703  12.234   1.999  10.785 -0.1870  0.2982  0.3018
  716MOL0     C98704  12.364   1.998  10.829 -0.1199  0.6811  0.0969
  716MOL0     C98705  12.451   1.885  10.812 -0.0933 -0.2726  0.0902
  716MOL0     O98706  12.574   1.904  10.859 -0.4166 -0.3543  0.0150
  716MOL0     C98707  12.690   1.833  10.801  0.7706 -0.3455  0.3175
  716MOL0     C98708  12.741   1.918  10.683  0.4927 -0.2613 -0.4340
  716MOL0     C98709  12.872   1.854  10.637  0.7034 -0.3169  0.6262
  716MOL0     C98710  12.921   1.933  10.513 -0.6509  0.6418  0.8017
  716MOL0     C98711  13.031   1.858  10.433 -0.4245 -0.0911  0.4504
  716MOL0     C98712  13.104   1.942  10.330 -0.2780 -0.1315 -0.3858
  716MOL0     C98713  13.221   1.873  10.269 -0.6429  0.5984 -0.6694
  716MOL0     C98714  13.251   1.920  10.122 -0.3311 -0.4375 -0.0184
  716MOL0    Cl98715  13.143   1.834  10.010 -0.0844 -0.1117  0.0142
  716MOL0     C98716  12.406   1.773  10.755  0.6375  0.8169  0.4951
  716MOL0     C98717  12.279   1.783  10.686  0.1790 -0.2897  0.3823
  716MOL0     O98718  12.015   1.673  10.751 -0.0129 -0.3048  0.0970
  716MOL0     C98719  11.778   1.813  10.557  0.3886 -0.6797 -1.1173
  716MOL0     C98720  11.644   1.836  10.536  1.0229 -0.3515  0.7268
  716MOL0     N98721  10.898   1.499  10.799  0.4833 -0.1767  0.6397
  716MOL0     N98722  10.825   1.394  10.830 -0.5253  0.5995  0.3618
  716MOL0     C98723   9.584   0.920  10.948  0.1047 -0.5006 -1.5295
  716MOL0     C98724   9.460   0.892  10.903  0.2273 -0.2443 -0.3811
  716MOL0     C98725   9.179   0.811  10.543 -0.2607  0.5911  0.1441
  716MOL0     C98726   9.058   0.854  10.605  0.5401  0.7722 -0.1359
  716MOL0     C98727   8.938   0.849  10.533  1.0253  0.3157 -0.4543
  716MOL0     C98728   8.927   0.785  10.408  1.2618 -0.8084  0.8647
  716MOL0     O98729   8.807   0.773  10.347  0.3477 -0.6372 -0.2853
  716MOL0     C98730   8.766   0.650  10.294  0.2400  1.4445  0.9963
  716MOL0     C98731   8.790   0.656  10.141  0.2083  0.2417  0.0529
  716MOL0     C98732   8.712   0.777  10.096 -0.4313 -0.5799  1.2995
  716MOL0     C98733   8.709   0.789   9.942 -0.6159 -0.4387 -0.0676
  716MOL0     C98734   8.837   0.803   9.874  0.6825 -0.0526  0.2372
  716MOL0     C98735   8.941   0.819   9.817 -0.1075  0.0722  0.5343
  716MOL0     C98736   9.043   0.728  10.355 -0.2055  0.3940  0.2001
  716MOL0     C98737   9.163   0.741  10.420  0.4136  0.7856  0.1280
  716MOL0     C98738   9.266   0.669  10.341  0.1645 -0.7051 -0.2314
  716MOL0     H98739   9.434   1.129  10.675  1.4314  1.9030  1.4565
  716MOL0     H98740   9.653   1.197  10.764 -0.0578  0.6108  1.3921
  716MOL0     H98741   9.809   1.227  10.905  0.2698 -0.2751  2.4162
  716MOL0     H98742   9.885   1.107  10.793 -0.7182  0.7814 -0.7074
  716MOL0     H98743   9.968   1.196  11.071 -1.2139  0.6547 -0.5220
  716MOL0     H98744  10.062   1.070  10.974 -1.7087 -0.9633  3.3098
  716MOL0     H98745  10.074   1.265  10.804 -1.9275 -0.5239  0.0383
  716MOL0     H98746  10.038   1.365  10.945  2.2103  0.0107 -1.0323
  716MOL0     H98747  10.240   1.293  11.058 -0.0642 -1.4885  0.2989
  716MOL0     H98748  10.251   1.156  10.953 -1.7498  0.4923 -0.1389
  716MOL0     H98749  10.295   1.450  10.879 -2.7622  0.0248  0.9279
  716MOL0     H98750  10.272   1.323  10.746 -2.3863 -2.4107  0.8755
  716MOL0     H98751  10.510   1.380  10.900 -0.3487  0.8385 -0.4799
  716MOL0     H98752  10.467   1.209  10.901  3.1782  0.7426  1.5786
  716MOL0     H98753  10.493   1.373  10.644  0.2155  1.6666  2.3807
  716MOL0     H98754  10.472   1.204  10.645 -1.2029  1.3012 -1.8324
  716MOL0     H98755  10.683   1.187  10.786  0.3436  0.6913  0.7152
  716MOL0     H98756  10.695   1.203  10.618  0.7861  2.0415 -1.2086
  716MOL0     H98757  10.729   1.476  10.529 -0.4424  2.8148  0.6206
  716MOL0     H98758  10.942   1.730  10.665  3.0412  0.2358  0.3025
  716MOL0     H98759  10.945   1.639  10.503  2.1662  1.1892 -1.0367
  716MOL0     H98760  11.119   1.617  10.758 -1.4155  2.7783 -0.3562
  716MOL0     H98761  11.147   1.518  10.624  3.3187  1.3058  0.2675
  716MOL0     H98762  11.255   1.674  10.486  1.4793 -1.5096  0.5541
  716MOL0     H98763  11.156   1.804  10.561  0.7428 -0.7626 -1.6306
  716MOL0     H98764  11.292   1.803  10.755  0.1926  1.6963 -0.2313
  716MOL0     H98765  11.363   1.640  10.690  0.2618  0.4428 -1.0386
  716MOL0     H98766  11.535   1.732  10.838 -0.1158  1.7844 -0.0634
  716MOL0     H98767  11.862   1.747  10.967 -0.6851  0.1486  2.0057
  716MOL0     H98768  11.793   1.588  10.933 -0.0433  0.0847  0.9978
  716MOL0     H98769  11.695   1.705  11.008 -1.2242 -1.6425 -0.8725
  716MOL0     H98770  12.180   2.091  10.805  3.5324  2.2346  2.4318
  716MOL0     H98771  12.398   2.078  10.893 -0.4227 -1.2660  2.8942
  716MOL0     H98772  12.766   1.825  10.879 -0.1315  0.4435  1.3176
  716MOL0     H98773  12.661   1.730  10.779  1.3880 -0.5879  0.6105
  716MOL0     H98774  12.669   1.913  10.600  0.4118 -1.6147 -0.3104
  716MOL0     H98775  12.758   2.021  10.717 -0.6174 -0.7125  1.7195
  716MOL0     H98776  12.845   1.751  10.613  1.0552  0.1610 -2.1473
  716MOL0     H98777  12.942   1.856  10.721 -0.0440 -2.9115  1.3954
  716MOL0     H98778  12.950   2.034  10.544  1.2733 -0.3274  2.4332
  716MOL0     H98779  12.837   1.940  10.444 -0.8510 -0.1231  0.9549
  716MOL0     H98780  13.090   1.806  10.509 -1.8128 -1.4927  0.6240
  716MOL0     H98781  12.976   1.788  10.370 -2.0350  0.9643  0.6269
  716MOL0     H98782  13.145   2.031  10.380 -0.7620 -0.6815  1.0454
  716MOL0     H98783  13.039   1.963  10.245  1.4005 -0.7252 -1.8784
  716MOL0     H98784  13.209   1.765  10.275  0.1304  0.5790  1.8813
  716MOL0     H98785  13.321   1.876  10.313  0.9145 -2.7481 -3.4885
  716MOL0     H98786  13.347   1.879  10.091 -1.9079 -2.7852 -2.3389
  716MOL0     H98787  13.244   2.029  10.114  1.4549  0.0141  3.0205
  716MOL0     H98788  12.469   1.688  10.733  0.1149  0.2237  1.2756
  716MOL0     H98789  12.255   1.691  10.633  2.7623 -0.2968 -0.9262
  716MOL0     H98790  11.840   1.835  10.471 -0.4875 -0.2172 -1.6518
  716MOL0     H98791  11.593   1.853  10.442 -0.2523 -1.8000  1.1219
  716MOL0     H98792   9.617   0.850  11.024  1.8178  1.4076 -0.4181
  716MOL0     H98793   9.404   0.804  10.933  0.0365 -0.0665 -0.2178
  716MOL0     H98794   9.055   0.899  10.704  0.3531 -1.0914  0.7472
  716MOL0     H98795   8.848   0.904  10.560  0.4511  1.2826 -3.8995
  716MOL0     H98796   8.826   0.573  10.344  0.4889 -0.1801 -1.5953
  716MOL0     H98797   8.663   0.624  10.319  0.3242  1.0026  0.8848
  716MOL0     H98798   8.776   0.553  10.107  0.7191 -0.6263  2.3092
  716MOL0     H98799   8.890   0.681  10.105 -1.1484  1.7461 -3.0699
  716MOL0     H98800   8.606   0.764  10.120 -0.9935 -3.7487 -1.9665
  716MOL0     H98801   8.741   0.874  10.138 -3.2885 -0.5824  3.6025
  716MOL0     H98802   8.634   0.864   9.918 -2.5754 -1.4539  2.4309
  716MOL0     H98803   8.662   0.702   9.895 -1.6702  0.7665 -1.3202
  716MOL0     H98804   9.034   0.819   9.764 -1.6270  1.2652 -2.3313
  716MOL0     H98805   9.042   0.688  10.254 -0.1787  1.5845 -0.2921
  716MOL0     H98806   9.232   0.576  10.293  3.5732 -4.4221  3.7059
  716MOL0     H98807   9.308   0.733  10.264  0.2840  0.3275  0.6704
  716MOL0     H98808   9.353   0.636  10.399 -1.1450 -1.2123  1.5422
  717MOL0     O98809   5.340   4.180   0.955 -0.0778 -0.5954  0.9260
  717MOL0     C98810   5.404   4.281   0.916 -0.6191  0.4374  0.0925
  717MOL0     O98811   5.517   4.269   0.836 -0.3875  0.2760  1.2356
  717MOL0     C98812   5.559   4.146   0.788  0.9645 -0.5840  0.2229
  717MOL0     C98813   5.587   4.035   0.869 -0.7243  0.1491  0.5552
  717MOL0     C98814   5.640   3.914   0.811  0.0320 -0.0780 -0.6670
  717MOL0     C98815   5.653   3.906   0.672  0.8028 -0.1641 -1.0228
  717MOL0     O98816   5.701   3.792   0.608  0.5663 -0.0356  0.1632
  717MOL0     C98817   5.680   3.667   0.675  0.6368  0.4786 -0.4285
  717MOL0     C98818   5.701   3.547   0.584 -0.6403 -0.0128 -0.1170
  717MOL0     C98819   5.585   3.525   0.492  0.1800  0.4705  0.9068
  717MOL0     C98820   5.474   3.443   0.552 -0.1141 -1.2226 -0.3503
  717MOL0     C98821   5.363   3.412   0.458 -1.0095 -0.9044  0.5133
  717MOL0     C98822   5.398   3.312   0.342  0.3158  0.1282 -0.5312
  717MOL0     C98823   5.265   3.270   0.285  0.2243 -0.3840  0.3369
  717MOL0     C98824   5.269   3.220   0.147  0.0936  0.6093 -0.7245
  717MOL0     N98825   5.358   3.105   0.124  0.1351 -0.8395  0.0588
  717MOL0     C98826   5.335   2.968   0.135 -0.3284 -0.2892 -0.2844
  717MOL0     C98827   5.459   2.925   0.108  0.3544  0.4181 -1.2108
  717MOL0     C98828   5.500   2.784   0.116 -0.1057 -0.7255  0.7074
  717MOL0     C98829   5.441   2.695   0.009 -0.5385  1.2941 -0.4649
  717MOL0     C98830   5.434   2.747  -0.135  0.2569 -0.5317 -0.5867
  717MOL0     C98831   5.568   2.800  -0.188  0.6698 -0.4684  0.6442
  717MOL0     O98832   5.634   2.687  -0.252 -0.2344 -0.1081  0.2496
  717MOL0     C98833   5.592   2.641  -0.373  0.3903  0.4290 -0.6674
  717MOL0     C98834   5.643   2.523  -0.426  0.9141  0.1794 -0.1202
  717MOL0     C98835   5.611   2.467  -0.550  0.0157 -0.0793 -0.3171
  717MOL0     C98836   5.666   2.325  -0.587 -0.3675  0.0697 -0.2812
  717MOL0     C98837   5.522   2.544  -0.630  0.1184  0.2092  0.5315
  717MOL0     C98838   5.485   2.496  -0.777  0.1414 -0.4199 -0.0441
  717MOL0     O98839   5.397   2.579  -0.845 -0.1663 -0.5538  0.2848
  717MOL0     C98840   5.342   2.541  -0.963  0.0745 -0.5309  0.2723
  717MOL0     C98841   5.304   2.410  -1.003  0.3788 -0.0241 -0.4290
  717MOL0     C98842   5.243   2.381  -1.125 -0.0970 -0.3116 -0.9068
  717MOL0     C98843   5.219   2.476  -1.215  0.7874  0.5371 -0.1108
  717MOL0     O98844   5.177   2.452  -1.347 -0.5370  0.5683 -0.1806
  717MOL0     C98845   5.063   2.366  -1.347 -0.0383  0.3718 -0.3924
  717MOL0     C98846   4.985   2.389  -1.474  0.5480 -0.1848  0.2429
  717MOL0     C98847   4.907   2.525  -1.480  0.0407  0.2549 -0.3312
  717MOL0     C98848   4.784   2.512  -1.562  0.7240 -0.6077  0.1481
  717MOL0     C98849   4.728   2.645  -1.618 -0.0043  1.1782  0.4107
  717MOL0     C98850   4.574   2.633  -1.633 -0.9857 -0.4011  0.7066
  717MOL0     C98851   4.532   2.737  -1.725 -0.5918 -0.4090  0.6206
  717MOL0     C98852   4.531   2.729  -1.881 -0.9579 -0.0238  0.6498
  717MOL0    Cl98853   4.413   2.609  -1.930 -0.2959 -0.1342  0.3690
  717MOL0     C98854   5.250   2.608  -1.175  0.1606  0.8867 -0.8163
  717MOL0     C98855   5.301   2.638  -1.053  0.5117  0.0997  0.2383
  717MOL0     O98856   5.519   2.392  -0.818  0.2139  0.5669  0.7015
  717MOL0     C98857   5.472   2.659  -0.577  0.0740  0.1335  0.8208
  717MOL0     C98858   5.503   2.716  -0.456  0.1787  0.1341 -0.8201
  717MOL0     N98859   5.547   3.024   0.080 -0.0096 -0.9545 -0.2067
  717MOL0     N98860   5.486   3.139   0.076  0.0460 -0.5477 -0.3521
  717MOL0     C98861   5.647   4.028   0.603 -0.2841  0.4350  0.0489
  717MOL0     C98862   5.596   4.142   0.660 -0.5526 -0.1206  0.8911
  717MOL0     C98863   5.336   4.417   0.918  0.1324 -0.8129  0.1357
  717MOL0     C98864   5.402   4.536   0.861 -0.1843  0.0277  0.2903
  717MOL0     C98865   5.354   4.666   0.852  0.3471  1.0472 -0.6734
  717MOL0     C98866   5.221   4.686   0.883  0.1438  0.5669 -0.0859
  717MOL0     O98867   5.175   4.808   0.851  0.1491 -0.1068 -0.8510
  717MOL0     C98868   5.037   4.831   0.882  0.3066  0.1036  0.3516
  717MOL0     C98869   4.989   4.967   0.825 -0.3263 -0.4759  0.0910
  717MOL0     C98870   4.834   4.974   0.836 -0.4677 -0.1486  0.4486
  717MOL0     C98871   4.787   5.123   0.855  0.1785 -0.0891  0.0321
  717MOL0     C98872   4.803   5.191   0.729  0.2157 -0.9531 -0.4841
  717MOL0     C98873   4.810   5.250   0.622 -0.8736  0.1912  0.3148
  717MOL0     C98874   5.154   4.578   0.947 -0.0975  0.1155 -0.6353
  717MOL0     C98875   5.201   4.443   0.961 -0.3266 -0.2519 -0.6873
  717MOL0     C98876   5.120   4.338   1.016 -1.2723 -0.8205 -0.0233
  717MOL0     H98877   5.560   4.039   0.974 -1.5473 -1.3246  0.4282
  717MOL0     H98878   5.669   3.827   0.871 -1.2024 -1.0886 -1.4984
  717MOL0     H98879   5.579   3.663   0.717  1.4683 -2.2489  1.6694
  717MOL0     H98880   5.753   3.657   0.756 -1.3830 -0.4125  1.3752
  717MOL0     H98881   5.793   3.551   0.525 -0.7437 -0.1149 -0.2864
  717MOL0     H98882   5.710   3.457   0.645  1.9878 -0.9925 -1.8023
  717MOL0     H98883   5.544   3.621   0.459 -1.4224 -1.1771 -2.3578
  717MOL0     H98884   5.625   3.473   0.405  0.0784  3.4329 -1.0460
  717MOL0     H98885   5.495   3.342   0.589  0.3154 -0.6722  0.9782
  717MOL0     H98886   5.437   3.500   0.637  1.2186 -1.0941  0.1683
  717MOL0     H98887   5.320   3.501   0.412  1.3751 -0.0039 -0.1040
  717MOL0     H98888   5.283   3.379   0.525 -3.8013  2.1308 -1.0635
  717MOL0     H98889   5.461   3.365   0.271 -1.4836  1.4250 -1.2333
  717MOL0     H98890   5.448   3.227   0.390 -4.5311 -2.2775  0.8926
  717MOL0     H98891   5.210   3.364   0.271 -0.6662 -1.2099 -2.2597
  717MOL0     H98892   5.206   3.201   0.346  1.7764 -1.0159  1.1821
  717MOL0     H98893   5.167   3.184   0.129 -0.5737  0.0931  3.2396
  717MOL0     H98894   5.289   3.298   0.072 -1.1082  1.1896 -0.4719
  717MOL0     H98895   5.255   2.909   0.179  0.7021 -2.5415 -1.2614
  717MOL0     H98896   5.468   2.748   0.213 -0.2626 -2.3565  0.0800
  717MOL0     H98897   5.607   2.764   0.103 -0.1164  0.2439 -1.3562
  717MOL0     H98898   5.498   2.602   0.005  0.0357  1.5086  1.5712
  717MOL0     H98899   5.344   2.670   0.053  0.7098  0.2033  1.8485
  717MOL0     H98900   5.387   2.669  -0.195 -2.4145 -0.5241  1.3391
  717MOL0     H98901   5.363   2.829  -0.123  0.3863 -0.6489  1.2926
  717MOL0     H98902   5.561   2.880  -0.262  3.8877 -2.0582 -1.6548
  717MOL0     H98903   5.634   2.844  -0.112  1.0667  0.6746 -0.3278
  717MOL0     H98904   5.723   2.469  -0.377  0.8095 -0.3163 -0.4840
  717MOL0     H98905   5.707   2.281  -0.496  0.0687  0.8478 -0.0903
  717MOL0     H98906   5.747   2.345  -0.658 -1.6793  0.7969 -1.6062
  717MOL0     H98907   5.589   2.253  -0.614  0.1237 -0.9489  0.9249
  717MOL0     H98908   5.317   2.323  -0.939  1.7118  0.3105 -0.2159
  717MOL0     H98909   5.216   2.282  -1.160  4.3427 -1.4572 -1.6472
  717MOL0     H98910   5.095   2.262  -1.352  1.8171  0.8024  1.3631
  717MOL0     H98911   4.996   2.385  -1.263 -3.7346 -1.8052 -2.5785
  717MOL0     H98912   5.042   2.383  -1.567  2.3703 -0.5354  1.3246
  717MOL0     H98913   4.912   2.308  -1.479 -1.0323  1.1917  0.2324
  717MOL0     H98914   4.978   2.593  -1.526  2.9257 -1.0620  1.8666
  717MOL0     H98915   4.877   2.565  -1.383 -0.7384  0.4083 -0.6290
  717MOL0     H98916   4.718   2.464  -1.490  2.7705 -1.7246  1.3692
  717MOL0     H98917   4.790   2.446  -1.649 -0.2135  1.0311 -1.2399
  717MOL0     H98918   4.747   2.729  -1.550  0.1006  0.7922  0.8592
  717MOL0     H98919   4.780   2.664  -1.712 -4.6293 -0.1056 -2.7254
  717MOL0     H98920   4.521   2.635  -1.537  1.1559 -0.4408  1.9431
  717MOL0     H98921   4.567   2.535  -1.681  0.0625  0.7766 -2.0419
  717MOL0     H98922   4.602   2.820  -1.708  1.0104 -1.4360 -0.5902
  717MOL0     H98923   4.426   2.754  -1.706 -2.0649 -3.0323 -3.7188
  717MOL0     H98924   4.626   2.710  -1.932 -1.5386  0.3725 -0.6146
  717MOL0     H98925   4.492   2.825  -1.918  0.5178 -0.2105 -1.6291
  717MOL0     H98926   5.239   2.684  -1.250  2.3574 -0.3091 -2.4683
  717MOL0     H98927   5.348   2.734  -1.029  4.6960 -2.2247  2.5646
  717MOL0     H98928   5.411   2.725  -0.638  0.1889  0.9205  1.5378
  717MOL0     H98929   5.469   2.814  -0.423  1.8598  0.2047  0.8439
  717MOL0     H98930   5.655   4.023   0.495 -0.0637  0.1486  0.0803
  717MOL0     H98931   5.582   4.227   0.594  1.3376 -1.7945 -1.8665
  717MOL0     H98932   5.499   4.527   0.813  1.2882  2.1713  2.5846
  717MOL0     H98933   5.411   4.748   0.810  0.4265  2.3104  1.7315
  717MOL0     H98934   4.967   4.754   0.848  2.0520 -0.9338 -1.0465
  717MOL0     H98935   5.025   4.845   0.990  1.9606  1.0839  0.4452
  717MOL0     H98936   5.029   4.984   0.725  2.8969  2.9373  1.7203
  717MOL0     H98937   5.028   5.051   0.883 -0.4671  0.4254 -1.0809
  717MOL0     H98938   4.791   4.930   0.745 -1.5043  0.0668  0.8154
  717MOL0     H98939   4.813   4.918   0.927  1.4857 -2.3234 -0.3627
  717MOL0     H98940   4.861   5.168   0.922  0.0884  0.2158 -0.0722
  717MOL0     H98941   4.686   5.138   0.894 -0.2638 -1.5030 -0.5261
  717MOL0     H98942   4.819   5.282   0.521 -0.4048 -2.6703 -0.6292
  717MOL0     H98943   5.053   4.601   0.978  0.2644  0.0682  0.6780
  717MOL0     H98944   5.021   4.373   1.047 -0.8394  0.5205 -0.1090
  717MOL0     H98945   5.118   4.269   0.931  0.4315 -0.6219 -0.2577
  717MOL0     H98946   5.157   4.288   1.107  4.0376  2.8610  0.2930
  718MOL0     O98947   7.653   0.433   6.578 -0.0038 -0.4578 -0.3229
  718MOL0     C98948   7.651   0.458   6.698 -0.9864  0.1002  0.0999
  718MOL0     O98949   7.539   0.517   6.767  0.4102 -0.9932  0.2948
  718MOL0     C98950   7.420   0.498   6.711 -0.1730 -0.2690 -0.3753
  718MOL0     C98951   7.336   0.614   6.688  0.0415  0.5842  0.0201
  718MOL0     C98952   7.201   0.592   6.654 -0.4813  0.2919 -0.1269
  718MOL0     C98953   7.147   0.474   6.627  0.6763  0.4600  0.6892
  718MOL0     O98954   7.015   0.469   6.591  0.1084 -0.4695 -0.6447
  718MOL0     C98955   7.001   0.378   6.483 -0.4826 -0.1500  0.3684
  718MOL0     C98956   6.908   0.442   6.382 -1.6573  0.5025 -0.1404
  718MOL0     C98957   6.771   0.479   6.432  0.1669 -0.5396  0.2546
  718MOL0     C98958   6.679   0.476   6.317 -0.3720  0.4298  1.7240
  718MOL0     C98959   6.544   0.506   6.375  1.0086 -0.4103  0.1872
  718MOL0     C98960   6.440   0.544   6.270 -0.2953 -0.4548 -0.6194
  718MOL0     C98961   6.295   0.564   6.328 -0.5226  0.0854 -0.2667
  718MOL0     C98962   6.212   0.613   6.203 -0.2328  0.4113 -0.0261
  718MOL0     N98963   6.076   0.635   6.243  0.3015 -0.0989  0.2395
  718MOL0     C98964   6.020   0.737   6.324  0.0228 -0.1531  0.2848
  718MOL0     C98965   5.892   0.697   6.352  0.1854  0.0198  0.5515
  718MOL0     C98966   5.795   0.770   6.427 -0.0115  1.2607  0.5243
  718MOL0     C98967   5.667   0.804   6.349  0.4008  0.3345 -0.5011
  718MOL0     C98968   5.569   0.890   6.428  0.9285 -0.0302 -0.1194
  718MOL0     C98969   5.629   0.996   6.524 -0.0267 -0.4780 -0.7255
  718MOL0     O98970   5.728   1.083   6.470 -0.5859  0.0139 -0.5007
  718MOL0     C98971   5.766   1.182   6.569  0.1223  0.1866  0.0143
  718MOL0     C98972   5.859   1.262   6.509 -1.3966 -0.5781 -0.6058
  718MOL0     C98973   5.923   1.370   6.580 -0.7474  0.1113 -0.5199
  718MOL0     C98974   6.030   1.450   6.505  0.6861 -0.5293 -0.0935
  718MOL0     C98975   5.886   1.397   6.714  0.1208  0.0579  0.1639
  718MOL0     C98976   5.953   1.496   6.806  0.9102  0.5429 -0.1690
  718MOL0     O98977   5.872   1.555   6.903 -1.0123  0.0142 -0.7530
  718MOL0     C98978   5.898   1.687   6.945 -0.0088  0.3560 -0.5673
  718MOL0     C98979   5.832   1.714   7.069 -0.0003  0.0647  0.8978
  718MOL0     C98980   5.880   1.828   7.146 -0.4081  0.6989  0.3980
  718MOL0     C98981   5.969   1.923   7.083 -0.6251 -0.9024 -0.1330
  718MOL0     O98982   6.010   2.024   7.163 -0.6611 -0.2254 -0.2776
  718MOL0     C98983   6.020   2.158   7.099 -0.3590  0.1773  0.8939
  718MOL0     C98984   5.961   2.273   7.185 -0.0969 -0.2206  0.6199
  718MOL0     C98985   5.806   2.243   7.199 -0.5198  0.4607 -0.0856
  718MOL0     C98986   5.736   2.354   7.278  0.6180 -0.2471  0.1018
  718MOL0     C98987   5.583   2.330   7.304 -0.7132  0.3655 -0.2673
  718MOL0     C98988   5.488   2.286   7.195  0.2694  0.2652  0.4251
  718MOL0     C98989   5.340   2.298   7.251 -0.8536  0.4950  0.2386
  718MOL0     C98990   5.241   2.257   7.135 -0.2360  0.3488 -0.2699
  718MOL0    Cl98991   5.090   2.298   7.178  0.0451  0.1302 -0.0315
  718MOL0     C98992   6.000   1.906   6.953  0.6088  0.0118  1.0132
  718MOL0     C98993   5.968   1.784   6.883  0.0751 -0.9562 -0.0550
  718MOL0     O98994   6.074   1.517   6.792  0.2444  0.3844 -0.1625
  718MOL0     C98995   5.780   1.321   6.769  0.0952 -0.2177 -0.3141
  718MOL0     C98996   5.728   1.217   6.698  0.1508  0.4297 -0.7699
  718MOL0     N98997   5.890   0.567   6.298 -0.0535 -0.0982  0.0606
  718MOL0     N98998   5.991   0.535   6.236  0.1249 -0.4419  0.0650
  718MOL0     C98999   7.225   0.357   6.661 -0.8725 -0.3966  0.8571
  718MOL0     C99000   7.363   0.370   6.703  0.2326  0.0019 -0.5188
  718MOL0     C99001   7.776   0.447   6.784  0.7099  0.1440  0.9022
  718MOL0     C99002   7.771   0.498   6.912  0.7261  0.0581 -0.3790
  718MOL0     C99003   7.881   0.475   6.997 -0.5781  0.5285 -0.3197
  718MOL0     C99004   7.994   0.405   6.960  0.6408 -0.2134 -0.8412
  718MOL0     O99005   8.098   0.411   7.052  1.1176  0.6507  0.0450
  718MOL0     C99006   8.228   0.393   6.985 -0.0822  0.3802 -0.7451
  718MOL0     C99007   8.325   0.436   7.097  0.0039  0.1415 -0.3015
  718MOL0     C99008   8.331   0.335   7.206  0.5301  0.2552 -0.1945
  718MOL0     C99009   8.402   0.379   7.339  0.2172  0.7477 -0.1608
  718MOL0     C99010   8.455   0.266   7.431 -0.7301 -0.0464  0.4353
  718MOL0     C99011   8.508   0.192   7.516 -0.4459  0.0722  1.0117
  718MOL0     C99012   7.997   0.354   6.831 -0.9162 -0.2088 -0.5842
  718MOL0     C99013   7.891   0.365   6.745  0.9665 -0.3707 -0.3447
  718MOL0     C99014   7.910   0.305   6.604 -0.1621 -0.2570 -0.0604
  718MOL0     H99015   7.390   0.709   6.685 -0.2690  0.7283 -2.6094
  718MOL0     H99016   7.137   0.677   6.630 -0.2129 -0.2133 -3.0424
  718MOL0     H99017   6.957   0.289   6.527 -1.2118 -0.7134 -1.4357
  718MOL0     H99018   7.091   0.364   6.422 -1.6575  0.6376 -1.6376
  718MOL0     H99019   6.958   0.528   6.337  0.0506 -0.1647  0.4015
  718MOL0     H99020   6.898   0.363   6.307  0.0783  0.2219 -0.1064
  718MOL0     H99021   6.727   0.406   6.501 -0.8751 -0.2235 -0.0515
  718MOL0     H99022   6.779   0.573   6.486 -3.0031 -1.7991  3.2724
  718MOL0     H99023   6.692   0.566   6.257  0.1870 -0.7835 -0.0563
  718MOL0     H99024   6.689   0.380   6.265 -0.5649  1.1419  0.3200
  718MOL0     H99025   6.543   0.590   6.445 -2.2146 -0.0424 -0.1364
  718MOL0     H99026   6.505   0.418   6.427 -0.7605  0.7662  0.9251
  718MOL0     H99027   6.471   0.641   6.229  1.8696 -0.7699  0.1517
  718MOL0     H99028   6.445   0.466   6.194 -0.4198 -1.5208  0.4381
  718MOL0     H99029   6.300   0.633   6.412 -0.6814 -1.5416  1.1293
  718MOL0     H99030   6.243   0.474   6.362  0.0634  0.1596  0.8737
  718MOL0     H99031   6.253   0.711   6.177  4.2411 -1.4655 -0.8318
  718MOL0     H99032   6.224   0.543   6.121 -0.9043 -3.3694  2.8193
  718MOL0     H99033   6.063   0.836   6.339 -0.6634  0.0410  1.0315
  718MOL0     H99034   5.845   0.861   6.460  1.6804  0.9786 -1.1088
  718MOL0     H99035   5.769   0.708   6.513 -1.0734 -0.2582 -0.8164
  718MOL0     H99036   5.699   0.849   6.255  1.6962 -1.6549 -1.0772
  718MOL0     H99037   5.616   0.718   6.305 -0.5003  1.1125 -1.0309
  718MOL0     H99038   5.495   0.937   6.362  0.9543  0.3685  0.1340
  718MOL0     H99039   5.517   0.808   6.478  0.8481 -1.7271 -2.7779
  718MOL0     H99040   5.552   1.069   6.552 -0.6117 -0.8639 -1.3060
  718MOL0     H99041   5.672   0.942   6.608  0.3722 -2.2495 -2.0040
  718MOL0     H99042   5.894   1.245   6.408  2.0066 -3.4556  0.8329
  718MOL0     H99043   6.000   1.462   6.400 -1.5376 -3.9493 -0.0023
  718MOL0     H99044   6.122   1.394   6.525  1.6588  2.2001  4.4633
  718MOL0     H99045   6.050   1.550   6.545 -0.2272 -1.0699  1.8272
  718MOL0     H99046   5.764   1.633   7.091 -0.7483 -0.6444 -3.2572
  718MOL0     H99047   5.837   1.845   7.245  0.7815  3.1943  0.5813
  718MOL0     H99048   6.128   2.173   7.085  0.0722 -2.5264  0.8314
  718MOL0     H99049   5.965   2.166   7.005 -1.4126  1.3820  1.5703
  718MOL0     H99050   6.012   2.275   7.281  2.6000  1.3283 -0.7340
  718MOL0     H99051   5.984   2.367   7.133 -2.4676  0.3680  0.4917
  718MOL0     H99052   5.796   2.159   7.269  3.1430  1.4081  1.8588
  718MOL0     H99053   5.762   2.225   7.100 -0.4442 -3.6627  0.4253
  718MOL0     H99054   5.748   2.447   7.222  0.2058 -0.1054  0.2501
  718MOL0     H99055   5.791   2.364   7.372 -0.7055  0.4238  0.8243
  718MOL0     H99056   5.574   2.256   7.384 -2.7296  0.3965 -0.4225
  718MOL0     H99057   5.549   2.425   7.347  1.6901  2.3209 -2.3618
  718MOL0     H99058   5.514   2.183   7.167 -2.2446  0.1310 -1.7432
  718MOL0     H99059   5.499   2.343   7.103  5.8684 -0.5557  0.2213
  718MOL0     H99060   5.334   2.395   7.302  3.0869  2.1109 -1.9606
  718MOL0     H99061   5.330   2.229   7.335  2.7530  0.8566  1.0978
  718MOL0     H99062   5.239   2.148   7.125 -0.2340  0.3945 -0.8223
  718MOL0     H99063   5.272   2.301   7.040  3.4210 -1.7738 -0.2638
  718MOL0     H99064   6.053   1.980   6.893 -2.5028  1.2913 -0.3650
  718MOL0     H99065   6.012   1.763   6.786  1.5574 -0.2478  0.4367
  718MOL0     H99066   5.740   1.346   6.867  0.8622  1.9452 -0.4998
  718MOL0     H99067   5.646   1.158   6.739  0.6302 -2.3986 -3.4889
  718MOL0     H99068   7.183   0.258   6.650  1.5330 -1.4721  0.7539
  718MOL0     H99069   7.415   0.282   6.740  0.0735 -0.3656 -1.1531
  718MOL0     H99070   7.681   0.549   6.945 -1.1022 -0.6679 -3.7342
  718MOL0     H99071   7.880   0.523   7.095 -0.8767 -2.0021  0.9986
  718MOL0     H99072   8.249   0.286   6.978 -1.9702 -0.3377  2.5059
  718MOL0     H99073   8.230   0.449   6.891 -0.0166 -0.4049 -1.2142
  718MOL0     H99074   8.297   0.535   7.136  0.8406  0.2636  0.0007
  718MOL0     H99075   8.427   0.450   7.061  0.7530  0.0198  1.6762
  718MOL0     H99076   8.228   0.316   7.236  0.7698  0.6919  0.9667
  718MOL0     H99077   8.382   0.245   7.170  0.8695 -0.4349  1.8850
  718MOL0     H99078   8.339   0.452   7.390 -0.7356  0.2772 -0.6292
  718MOL0     H99079   8.489   0.433   7.300  1.4018 -1.6472 -1.1045
  718MOL0     H99080   8.550   0.126   7.589 -0.4092 -1.1160 -0.0376
  718MOL0     H99081   8.073   0.283   6.800  3.3982  1.8523  3.8458
  718MOL0     H99082   8.008   0.257   6.592 -1.1067 -2.2580 -0.0398
  718MOL0     H99083   7.834   0.232   6.577  0.6465 -0.6992 -1.2311
  718MOL0     H99084   7.923   0.386   6.532 -0.9228  1.3813  1.5449
  719MOL0     O99085   9.229   8.312   2.807 -0.0114 -0.1644 -0.2904
  719MOL0     C99086   9.153   8.369   2.884  0.1208 -1.1502 -0.2657
  719MOL0     O99087   9.045   8.445   2.846  0.2918  0.2335 -0.5023
  719MOL0     C99088   9.005   8.437   2.717  0.3475 -0.4872  0.0955
  719MOL0     C99089   8.913   8.346   2.680  0.8814  0.6803  0.4139
  719MOL0     C99090   8.877   8.357   2.539  0.2379  0.0328 -0.2903
  719MOL0     C99091   8.911   8.463   2.458  0.5941  0.7720  0.4234
  719MOL0     O99092   8.895   8.460   2.322  0.2087 -0.3024  0.3407
  719MOL0     C99093   8.766   8.406   2.276 -0.0453 -0.3821 -0.1293
  719MOL0     C99094   8.648   8.494   2.325 -0.0492 -0.2042 -0.1785
  719MOL0     C99095   8.681   8.649   2.306 -0.5684 -0.1577  0.6167
  719MOL0     C99096   8.553   8.732   2.334 -0.8986  0.1262 -0.3447
  719MOL0     C99097   8.577   8.885   2.294 -0.7476  0.7563 -1.0012
  719MOL0     C99098   8.483   8.970   2.376  0.8350  0.5233  0.0593
  719MOL0     C99099   8.333   8.942   2.366 -0.8907  1.1344  0.2433
  719MOL0     C99100   8.248   9.065   2.401 -0.1954  0.7619 -0.2115
  719MOL0     N99101   8.104   9.020   2.395  0.2452  0.3073  0.1887
  719MOL0     C99102   8.031   8.955   2.491  0.5005 -0.6470  0.5052
  719MOL0     C99103   7.898   8.955   2.462  0.3122 -0.4187  0.0951
  719MOL0     C99104   7.779   8.897   2.545 -0.3350 -0.4692  0.6800
  719MOL0     C99105   7.786   8.926   2.693  0.0417  0.0569 -0.6104
  719MOL0     C99106   7.753   9.069   2.717  1.0380 -0.6703  0.3065
  719MOL0     C99107   7.784   9.115   2.853  0.0770 -0.1091  0.1626
  719MOL0     O99108   7.923   9.110   2.895 -0.3543  0.3248 -0.4359
  719MOL0     C99109   7.963   9.152   3.022  0.3238 -0.5563  0.0425
  719MOL0     C99110   8.098   9.167   3.042 -0.8412 -0.1299 -0.2133
  719MOL0     C99111   8.154   9.217   3.160 -0.5894  0.3428 -0.4311
  719MOL0     C99112   8.301   9.232   3.143 -0.9560  0.3447 -0.8657
  719MOL0     C99113   8.069   9.257   3.268  0.1373 -0.4623 -0.8479
  719MOL0     C99114   8.123   9.332   3.386 -0.7629 -0.1800  0.2332
  719MOL0     O99115   8.230   9.410   3.351 -0.2746 -0.7517  0.6736
  719MOL0     C99116   8.310   9.484   3.441  1.3240 -0.4549  0.1695
  719MOL0     C99117   8.330   9.440   3.571  0.1532  0.2859 -0.2805
  719MOL0     C99118   8.415   9.499   3.658 -0.1173 -0.9608 -0.2022
  719MOL0     C99119   8.473   9.624   3.623 -0.1957  0.7208 -0.1604
  719MOL0     O99120   8.549   9.711   3.705 -0.4240  0.7440 -0.6183
  719MOL0     C99121   8.613   9.670   3.826  0.5224  0.3482  0.6797
  719MOL0     C99122   8.698   9.773   3.900 -0.1894 -1.5321  0.1742
  719MOL0     C99123   8.774   9.711   4.020  0.0446 -0.6333 -0.4985
  719MOL0     C99124   8.711   9.735   4.157  0.8891  0.0701  0.4356
  719MOL0     C99125   8.813   9.698   4.260  0.6533 -0.0852 -0.7695
  719MOL0     C99126   8.777   9.747   4.407  0.5456 -0.0037 -0.4012
  719MOL0     C99127   8.646   9.687   4.445 -0.0930  0.1402 -0.1672
  719MOL0     C99128   8.643   9.537   4.441 -0.3223 -0.0894 -0.1153
  719MOL0    Cl99129   8.513   9.477   4.544 -0.1210  0.0356  0.1893
  719MOL0     C99130   8.456   9.672   3.498  0.4758  0.2316 -0.9505
  719MOL0     C99131   8.378   9.610   3.411 -0.2436  0.7332 -0.1364
  719MOL0     O99132   8.078   9.321   3.496  1.0014  0.4905  0.1333
  719MOL0     C99133   7.932   9.226   3.255  0.8431  0.3397 -0.0523
  719MOL0     C99134   7.879   9.182   3.135 -0.2017 -0.3564  0.5511
  719MOL0     N99135   7.883   9.035   2.343 -0.4786 -0.8348  0.0594
  719MOL0     N99136   8.006   9.074   2.309  0.0320  0.5664  0.6739
  719MOL0     C99137   9.003   8.547   2.503  0.7907 -0.7584 -0.2795
  719MOL0     C99138   9.049   8.540   2.634  1.0153 -1.0828  0.0385
  719MOL0     C99139   9.182   8.373   3.033 -0.2698  0.7267 -0.4565
  719MOL0     C99140   9.319   8.393   3.079  0.5760  0.2348  0.5935
  719MOL0     C99141   9.352   8.363   3.213 -0.6650  0.1819 -0.3546
  719MOL0     C99142   9.253   8.317   3.305 -0.4701  0.4443  0.3497
  719MOL0     O99143   9.281   8.286   3.438 -0.4034  0.5790 -0.1419
  719MOL0     C99144   9.404   8.342   3.484 -0.3602 -0.1037  0.5068
  719MOL0     C99145   9.419   8.314   3.636  0.2404 -0.1883 -0.0248
  719MOL0     C99146   9.405   8.167   3.669  0.8628 -0.7410  1.7904
  719MOL0     C99147   9.449   8.147   3.814  0.5269 -0.1239 -0.5605
  719MOL0     C99148   9.382   8.028   3.879  0.8780  0.1011 -0.4546
  719MOL0     C99149   9.320   7.943   3.943 -0.5163  0.5224 -0.2025
  719MOL0     C99150   9.122   8.308   3.260  0.0227  1.0002  1.4744
  719MOL0     C99151   9.088   8.335   3.124  0.5670 -0.3286 -0.6804
  719MOL0     C99152   8.951   8.284   3.093 -0.9386 -0.1151 -0.1242
  719MOL0     H99153   8.869   8.268   2.740  1.6497 -0.2043 -0.1343
  719MOL0     H99154   8.823   8.278   2.488 -0.9168  1.8145 -1.9897
  719MOL0     H99155   8.747   8.302   2.302 -1.6452  0.3298  1.8142
  719MOL0     H99156   8.751   8.415   2.168 -1.6991 -0.9779  0.0213
  719MOL0     H99157   8.555   8.465   2.275  0.8135 -2.2850 -0.7134
  719MOL0     H99158   8.632   8.474   2.432 -0.2374 -1.1138 -0.3650
  719MOL0     H99159   8.755   8.683   2.379  1.5153  1.6095 -2.1591
  719MOL0     H99160   8.724   8.672   2.208  1.0707  2.7321  1.8998
  719MOL0     H99161   8.467   8.702   2.274  0.4351  1.2239 -2.9505
  719MOL0     H99162   8.521   8.731   2.439 -2.4956  0.2714 -0.8099
  719MOL0     H99163   8.567   8.900   2.186  0.8154 -1.3014 -1.4832
  719MOL0     H99164   8.680   8.909   2.322 -0.6131 -0.5898 -0.2145
  719MOL0     H99165   8.514   8.954   2.480  1.6365  0.3511 -0.2007
  719MOL0     H99166   8.491   9.079   2.364  0.4054  0.9198  2.6813
  719MOL0     H99167   8.310   8.861   2.435 -0.6087  0.1623 -0.7698
  719MOL0     H99168   8.309   8.910   2.264 -0.1123  1.2434  0.0221
  719MOL0     H99169   8.274   9.106   2.499  2.2975  1.9669 -1.2833
  719MOL0     H99170   8.251   9.149   2.331 -2.5784  2.0428  1.0729
  719MOL0     H99171   8.067   8.918   2.586  2.2167 -0.0918  0.1057
  719MOL0     H99172   7.770   8.793   2.511  1.2239 -0.0293 -1.2838
  719MOL0     H99173   7.699   8.957   2.502  1.0282  0.4458 -0.6601
  719MOL0     H99174   7.718   8.865   2.753  2.5599 -3.2569 -0.8379
  719MOL0     H99175   7.887   8.902   2.728 -0.0381 -1.3170 -1.2483
  719MOL0     H99176   7.812   9.132   2.649 -1.5356  3.5909  1.6321
  719MOL0     H99177   7.648   9.094   2.701 -0.0842 -3.2780  2.7255
  719MOL0     H99178   7.746   9.216   2.877  2.3884  0.4160  1.9741
  719MOL0     H99179   7.729   9.048   2.920 -1.2218 -0.1558 -0.9231
  719MOL0     H99180   8.166   9.152   2.959  1.4909  0.0243  1.5569
  719MOL0     H99181   8.323   9.330   3.100 -0.8027  1.0296  0.7324
  719MOL0     H99182   8.349   9.165   3.070  2.0873  0.3992  0.9550
  719MOL0     H99183   8.349   9.210   3.238  0.2097  3.6676 -0.5806
  719MOL0     H99184   8.295   9.339   3.590 -2.4247  0.4954 -3.1143
  719MOL0     H99185   8.432   9.457   3.757 -0.8315  1.2008  0.9344
  719MOL0     H99186   8.541   9.622   3.893  0.2361 -2.5370 -1.4864
  719MOL0     H99187   8.684   9.595   3.790 -0.8741 -1.3408  1.3151
  719MOL0     H99188   8.763   9.829   3.832 -0.0898 -0.9745  0.7181
  719MOL0     H99189   8.623   9.843   3.937  0.6268  0.2831 -1.4093
  719MOL0     H99190   8.865   9.772   4.022  0.2596 -0.9036 -1.4456
  719MOL0     H99191   8.805   9.607   4.002  2.3505 -0.0198 -0.4283
  719MOL0     H99192   8.612   9.689   4.165  0.3690  0.7250 -1.5859
  719MOL0     H99193   8.708   9.844   4.164 -0.8712  0.2042 -1.3942
  719MOL0     H99194   8.839   9.593   4.242  0.2723 -0.7039  1.8823
  719MOL0     H99195   8.901   9.759   4.240  0.7139 -0.1053 -0.5751
  719MOL0     H99196   8.781   9.856   4.416  1.0255  0.0081 -0.7410
  719MOL0     H99197   8.861   9.712   4.467  1.9162 -1.4157 -3.0078
  719MOL0     H99198   8.555   9.727   4.398 -0.5552  0.4172  0.9284
  719MOL0     H99199   8.628   9.724   4.546  0.4526  3.0806 -1.0409
  719MOL0     H99200   8.736   9.495   4.480 -1.2499 -2.5802 -0.4148
  719MOL0     H99201   8.634   9.484   4.346 -2.7731 -1.0446  0.5807
  719MOL0     H99202   8.508   9.765   3.474  1.4138 -0.7110 -2.7815
  719MOL0     H99203   8.359   9.657   3.314 -2.2552 -2.7386 -1.6116
  719MOL0     H99204   7.864   9.239   3.338  2.1015  0.2549  1.0169
  719MOL0     H99205   7.774   9.166   3.112 -0.5537  2.8169 -0.4697
  719MOL0     H99206   9.049   8.615   2.432  1.3559 -0.1037  0.6949
  719MOL0     H99207   9.130   8.599   2.673  0.4609 -0.6467  0.5502
  719MOL0     H99208   9.391   8.425   3.005 -0.9112 -0.8523 -1.4281
  719MOL0     H99209   9.458   8.358   3.233  0.0297  1.0710 -3.3666
  719MOL0     H99210   9.489   8.304   3.425 -2.0458 -0.0794 -2.0997
  719MOL0     H99211   9.400   8.451   3.474 -2.4641  0.3110  4.2619
  719MOL0     H99212   9.352   8.378   3.695 -0.4298  0.5634 -1.5398
  719MOL0     H99213   9.523   8.340   3.659  1.0933 -2.5506 -0.9183
  719MOL0     H99214   9.298   8.145   3.674  0.6124 -0.2343 -0.2617
  719MOL0     H99215   9.449   8.099   3.595 -1.0311 -0.6327  0.4691
  719MOL0     H99216   9.443   8.237   3.876  2.2145 -2.4700  3.3896
  719MOL0     H99217   9.557   8.128   3.820  0.2183 -1.5620  1.4095
  719MOL0     H99218   9.259   7.876   4.001  0.6946 -0.7643 -0.3919
  719MOL0     H99219   9.050   8.258   3.324  0.4708 -0.4495  0.9120
  719MOL0     H99220   8.885   8.364   3.059  1.3022  0.8214 -2.6714
  719MOL0     H99221   8.957   8.205   3.017  1.0704 -2.1465  1.9907
  719MOL0     H99222   8.909   8.235   3.181 -2.3322  0.3108 -0.5380
  720MOL0     O99223   7.419  11.258   4.797  0.2179 -0.7317 -0.7233
  720MOL0     C99224   7.519  11.226   4.861 -1.0506 -0.8754  0.1137
  720MOL0     O99225   7.531  11.112   4.929  0.0444 -0.4648  0.4999
  720MOL0     C99226   7.423  11.038   4.944  0.5122 -0.8306 -0.2737
  720MOL0     C99227   7.351  10.976   4.838 -0.1242 -0.0464 -0.0666
  720MOL0     C99228   7.247  10.895   4.868  0.3698 -0.3703 -0.1954
  720MOL0     C99229   7.212  10.875   5.002  0.3285  0.6872 -0.4222
  720MOL0     O99230   7.125  10.766   5.023  0.1419  0.3326 -0.4342
  720MOL0     C99231   7.037  10.761   5.142  0.1633 -0.5977 -0.2595
  720MOL0     C99232   7.054  10.634   5.219 -0.2937  0.1591 -0.0388
  720MOL0     C99233   7.199  10.608   5.269  0.8715 -0.6581  0.5369
  720MOL0     C99234   7.203  10.473   5.346  0.5367 -0.3543  0.0848
  720MOL0     C99235   7.340  10.445   5.413  0.1742  0.2508  0.6296
  720MOL0     C99236   7.352  10.305   5.478  0.6662 -0.1639 -0.2942
  720MOL0     C99237   7.483  10.298   5.556  0.1505  0.1061  0.1028
  720MOL0     C99238   7.484  10.296   5.709  0.0208  1.3229 -0.4042
  720MOL0     N99239   7.413  10.188   5.768 -0.4472 -0.1512 -1.3280
  720MOL0     C99240   7.469  10.062   5.781  0.0037 -0.1358 -0.0344
  720MOL0     C99241   7.388   9.996   5.870 -0.2648  0.1119  0.2721
  720MOL0     C99242   7.405   9.859   5.930 -0.6590 -0.2456  0.2233
  720MOL0     C99243   7.361   9.757   5.826  0.0358  0.3018 -0.5696
  720MOL0     C99244   7.214   9.748   5.804  0.1155 -0.4188  0.6921
  720MOL0     C99245   7.177   9.804   5.664 -0.0395  0.4803 -0.1484
  720MOL0     O99246   7.241   9.738   5.555 -0.5794  0.5676 -0.7289
  720MOL0     C99247   7.172   9.629   5.515  0.0597 -0.2480  0.0522
  720MOL0     C99248   7.072   9.642   5.416  0.7537 -0.0531  0.1941
  720MOL0     C99249   7.009   9.523   5.367 -0.4147  1.1849  0.1754
  720MOL0     C99250   6.910   9.552   5.259 -0.9018 -0.2810  0.4860
  720MOL0     C99251   7.040   9.391   5.420 -0.3086  0.8556  0.1924
  720MOL0     C99252   6.967   9.264   5.401  0.2110  0.8698  0.3513
  720MOL0     O99253   6.958   9.197   5.515 -0.8135  0.3736  0.1215
  720MOL0     C99254   6.880   9.086   5.532 -0.2158  0.0055 -0.5174
  720MOL0     C99255   6.764   9.052   5.462  0.2872 -0.0132 -0.1199
  720MOL0     C99256   6.686   8.940   5.490  0.4579 -0.2642  0.5718
  720MOL0     C99257   6.733   8.854   5.594  0.7348 -0.4758 -0.3293
  720MOL0     O99258   6.678   8.734   5.621  0.3573  0.6971  0.5055
  720MOL0     C99259   6.532   8.733   5.621 -0.3427  0.2290  0.2074
  720MOL0     C99260   6.463   8.606   5.637 -0.5457  0.4781  0.0488
  720MOL0     C99261   6.489   8.493   5.537 -0.0972  0.2841  0.4775
  720MOL0     C99262   6.434   8.522   5.396 -0.1148 -0.6244  0.6435
  720MOL0     C99263   6.385   8.401   5.313 -1.0493 -0.3957  0.3011
  720MOL0     C99264   6.292   8.453   5.198  0.3984  0.4963 -0.2449
  720MOL0     C99265   6.256   8.334   5.100  0.4597  0.9705  0.6694
  720MOL0     C99266   6.167   8.387   4.991  0.2434 -0.7985 -0.2697
  720MOL0    Cl99267   6.006   8.433   5.062  0.0309 -0.3114  0.2047
  720MOL0     C99268   6.834   8.895   5.674  0.4595 -0.7942 -1.5897
  720MOL0     C99269   6.907   9.013   5.645  0.6177  0.6649 -0.2376
  720MOL0     O99270   6.936   9.220   5.290  0.1183 -0.3359  0.7548
  720MOL0     C99271   7.144   9.386   5.517  0.7321  0.1421  0.3232
  720MOL0     C99272   7.207   9.504   5.560 -0.2541 -0.6777  0.6180
  720MOL0     N99273   7.283  10.078   5.908 -0.5819  0.0764  0.8953
  720MOL0     N99274   7.296  10.195   5.845  0.2922  0.5286 -1.0102
  720MOL0     C99275   7.277  10.948   5.102 -0.1115  0.4391  0.4289
  720MOL0     C99276   7.384  11.028   5.080 -0.1055 -0.0426 -0.0046
  720MOL0     C99277   7.636  11.320   4.875 -0.1562 -0.7238  0.1165
  720MOL0     C99278   7.728  11.313   4.978  0.0720 -0.1798 -0.4581
  720MOL0     C99279   7.838  11.403   4.992 -0.3219  0.9150 -0.0084
  720MOL0     C99280   7.842  11.519   4.913  0.1168  0.3367  0.4053
  720MOL0     O99281   7.948  11.605   4.938  0.2472  0.6879 -0.3946
  720MOL0     C99282   7.966  11.702   4.842  0.2544 -0.0491  0.4694
  720MOL0     C99283   8.044  11.804   4.926 -0.1581 -0.1928 -0.3312
  720MOL0     C99284   8.113  11.920   4.848 -0.7416 -0.0758 -0.8842
  720MOL0     C99285   8.206  12.012   4.942 -0.4864 -0.0889 -0.8097
  720MOL0     C99286   8.121  12.092   5.026 -1.2037 -0.4974 -1.1345
  720MOL0     C99287   8.049  12.169   5.092  0.1377  0.3045 -0.7627
  720MOL0     C99288   7.745  11.524   4.805  0.2381 -0.6051  0.3342
  720MOL0     C99289   7.651  11.429   4.778 -0.0852 -0.1221 -0.4561
  720MOL0     C99290   7.566  11.442   4.649  0.7238 -0.8528 -0.5539
  720MOL0     H99291   7.400  10.984   4.742  0.4065 -1.3987  0.0692
  720MOL0     H99292   7.190  10.843   4.793 -1.6675  0.3199  0.7959
  720MOL0     H99293   6.932  10.757   5.113  0.5919  0.6142 -2.1763
  720MOL0     H99294   7.056  10.847   5.208  1.2884 -0.5636 -0.6134
  720MOL0     H99295   6.994  10.638   5.311  1.4204  1.3212  1.0870
  720MOL0     H99296   7.044  10.549   5.150  1.3168 -1.5484  1.7031
  720MOL0     H99297   7.269  10.617   5.185 -2.1712  2.6372 -1.9915
  720MOL0     H99298   7.221  10.698   5.328  2.3449 -0.4587 -0.2733
  720MOL0     H99299   7.124  10.478   5.422 -1.0569  1.6239 -1.5608
  720MOL0     H99300   7.173  10.390   5.280 -2.2240  1.0418 -0.6086
  720MOL0     H99301   7.357  10.512   5.499  2.7211  0.1686  0.2510
  720MOL0     H99302   7.427  10.466   5.351 -0.5502  0.9649 -0.1780
  720MOL0     H99303   7.265  10.289   5.543 -0.2143  1.4443 -1.0030
  720MOL0     H99304   7.358  10.228   5.401  0.1782 -0.5227  0.0183
  720MOL0     H99305   7.547  10.379   5.521 -0.8007  0.4202 -0.9901
  720MOL0     H99306   7.545  10.213   5.527 -0.4299 -0.4205  0.3721
  720MOL0     H99307   7.592  10.289   5.722  0.2671 -1.9707 -2.9367
  720MOL0     H99308   7.451  10.388   5.758  2.5461  1.3917  1.4003
  720MOL0     H99309   7.564  10.029   5.741  0.3197  2.5287 -1.7301
  720MOL0     H99310   7.336   9.843   6.013 -0.9663 -1.0187 -0.1645
  720MOL0     H99311   7.505   9.830   5.964 -0.9328 -3.5111 -1.2930
  720MOL0     H99312   7.412   9.745   5.730 -1.6699 -4.3610 -1.1130
  720MOL0     H99313   7.385   9.665   5.880 -1.9864  2.0157  3.6873
  720MOL0     H99314   7.185   9.643   5.809 -6.0509  0.9646  2.6026
  720MOL0     H99315   7.154   9.801   5.879 -1.3363  0.3877 -0.9567
  720MOL0     H99316   7.070   9.784   5.654 -0.1240  1.9567 -3.7770
  720MOL0     H99317   7.196   9.912   5.662 -0.2773  0.5487  0.8534
  720MOL0     H99318   7.051   9.741   5.377  2.1122 -0.0877 -0.7215
  720MOL0     H99319   6.844   9.472   5.223  0.9949 -1.5485 -0.3534
  720MOL0     H99320   6.969   9.579   5.171  0.0273 -4.7910 -0.5406
  720MOL0     H99321   6.849   9.637   5.289  1.0234  1.4902 -0.3479
  720MOL0     H99322   6.747   9.118   5.377  1.5865 -0.0510 -0.4381
  720MOL0     H99323   6.603   8.914   5.426 -0.4666 -2.5210  2.5361
  720MOL0     H99324   6.504   8.798   5.704 -0.9188  0.7023 -0.3446
  720MOL0     H99325   6.492   8.768   5.525  3.3141  1.5288 -1.0266
  720MOL0     H99326   6.488   8.568   5.736  1.5046  0.2350 -0.5150
  720MOL0     H99327   6.356   8.631   5.634 -0.0465  2.9113  0.0223
  720MOL0     H99328   6.443   8.401   5.574 -1.1187  0.5590 -0.0746
  720MOL0     H99329   6.597   8.484   5.519 -0.1071 -0.5116  0.7907
  720MOL0     H99330   6.506   8.575   5.332 -1.4659  2.3709  1.4500
  720MOL0     H99331   6.343   8.580   5.409  0.5959  0.8574 -0.6804
  720MOL0     H99332   6.467   8.341   5.273 -0.7371 -0.3733  0.9005
  720MOL0     H99333   6.311   8.339   5.364 -4.1112  1.4850 -1.5118
  720MOL0     H99334   6.338   8.536   5.144  1.1979  0.7136  0.7294
  720MOL0     H99335   6.207   8.507   5.242  1.1536  2.5333 -1.1828
  720MOL0     H99336   6.195   8.261   5.154  3.5333  0.0943  3.2756
  720MOL0     H99337   6.350   8.297   5.059  0.8907  0.5991  1.9464
  720MOL0     H99338   6.149   8.308   4.918  0.6258 -1.5306  0.4173
  720MOL0     H99339   6.208   8.474   4.938 -0.8577 -2.1123 -3.5745
  720MOL0     H99340   6.858   8.849   5.769 -1.4107  0.6448 -0.3529
  720MOL0     H99341   6.984   9.033   5.718 -1.2945  1.8904  1.5521
  720MOL0     H99342   7.174   9.289   5.556  0.7480 -1.1321 -2.6251
  720MOL0     H99343   7.295   9.494   5.622  0.3989 -3.2808 -0.5711
  720MOL0     H99344   7.251  10.930   5.205  1.1259  0.3079  0.7386
  720MOL0     H99345   7.418  11.083   5.166  1.8869  0.9496 -1.3459
  720MOL0     H99346   7.712  11.225   5.040 -0.4150 -1.3823 -2.2398
  720MOL0     H99347   7.897  11.387   5.082 -2.9979  0.5601  1.8093
  720MOL0     H99348   8.018  11.660   4.756 -2.6760 -3.3697  0.0811
  720MOL0     H99349   7.879  11.749   4.796  0.5944 -0.1236 -0.2586
  720MOL0     H99350   8.123  11.745   4.972 -2.5381 -3.4397 -0.1066
  720MOL0     H99351   7.977  11.850   5.000  1.1881  1.2635  0.0447
  720MOL0     H99352   8.181  11.877   4.773 -0.3615 -0.4336 -0.3379
  720MOL0     H99353   8.036  11.984   4.804 -0.6345 -0.2176 -1.2860
  720MOL0     H99354   8.246  12.079   4.865 -1.5312  1.2491 -0.2459
  720MOL0     H99355   8.276  11.955   5.004  2.5207  2.4263 -1.6448
  720MOL0     H99356   7.987  12.222   5.160  0.3320  0.1645 -0.4755
  720MOL0     H99357   7.746  11.599   4.727  1.4793  1.0111  1.8032
  720MOL0     H99358   7.466  11.478   4.677  0.4065 -0.0715 -2.5362
  720MOL0     H99359   7.603  11.507   4.570 -1.3408  0.1425 -0.7573
  720MOL0     H99360   7.558  11.339   4.613  2.4947 -1.4998  0.7099
  721MOL0     O99361   8.315   9.376   2.651  0.4930  0.5705  0.4521
  721MOL0     C99362   8.269   9.428   2.749 -0.3469 -0.2183 -0.5766
  721MOL0     O99363   8.343   9.467   2.861 -0.0225 -0.8217 -0.3955
  721MOL0     C99364   8.482   9.450   2.873 -0.1833 -0.6217 -0.2259
  721MOL0     C99365   8.558   9.551   2.938  0.1404 -0.5964  0.6269
  721MOL0     C99366   8.693   9.541   2.958 -0.5652  0.7110 -0.1624
  721MOL0     C99367   8.760   9.420   2.925 -0.9626 -0.8665  0.6394
  721MOL0     O99368   8.897   9.415   2.941 -0.0854  0.1895  0.7816
  721MOL0     C99369   8.975   9.327   2.861 -0.0214 -0.1060 -0.3503
  721MOL0     C99370   9.120   9.354   2.873  0.9510 -0.3594  0.0675
  721MOL0     C99371   9.206   9.245   2.807  0.1857  0.0118  0.3219
  721MOL0     C99372   9.345   9.298   2.757 -0.2383  0.0010 -0.2995
  721MOL0     C99373   9.396   9.192   2.655 -0.0135 -0.2469  0.3840
  721MOL0     C99374   9.521   9.245   2.594 -0.3613 -0.7681 -0.2835
  721MOL0     C99375   9.596   9.149   2.504 -0.0301 -0.4351 -0.1872
  721MOL0     C99376   9.722   9.200   2.435 -0.5589 -0.3833  0.1341
  721MOL0     N99377   9.711   9.312   2.348  0.3837  0.7317  0.8914
  721MOL0     C99378   9.692   9.445   2.390 -0.5232 -0.5082  0.0316
  721MOL0     C99379   9.688   9.512   2.274  0.4403 -0.5752 -0.5581
  721MOL0     C99380   9.676   9.661   2.239  0.5242  0.5302 -0.0744
  721MOL0     C99381   9.806   9.746   2.250  0.1438 -0.9798 -0.4070
  721MOL0     C99382   9.872   9.747   2.388 -0.2141  0.0694  0.6282
  721MOL0     C99383  10.013   9.801   2.390  0.5989  0.0949 -0.7645
  721MOL0     O99384  10.106   9.708   2.338 -1.0523  0.5230  0.4646
  721MOL0     C99385  10.216   9.767   2.264  0.2162 -0.4416  0.7887
  721MOL0     C99386  10.275   9.704   2.160 -1.3189 -0.5322 -0.0152
  721MOL0     C99387  10.384   9.764   2.093  0.3702  0.6317  0.0530
  721MOL0     C99388  10.451   9.690   1.978  0.1195 -0.4109  0.3798
  721MOL0     C99389  10.432   9.889   2.134 -0.8788  0.2473  1.1492
  721MOL0     C99390  10.549   9.956   2.081 -0.1644  0.4666 -0.3283
  721MOL0     O99391  10.544   9.973   1.952  0.6926  0.7655 -0.4962
  721MOL0     C99392  10.638  10.047   1.879 -0.8467 -0.3311  0.2257
  721MOL0     C99393  10.664  10.001   1.748  0.3919  0.6144 -0.0439
  721MOL0     C99394  10.748  10.071   1.662  0.1330  0.2668  0.4848
  721MOL0     C99395  10.804  10.191   1.694 -0.4372 -0.1526  0.2064
  721MOL0     O99396  10.900  10.249   1.612  0.7913 -0.5069  0.2557
  721MOL0     C99397  10.943  10.387   1.633 -0.1625  1.0395  0.3941
  721MOL0     C99398  11.033  10.409   1.514  0.8800  0.6850  0.2305
  721MOL0     C99399  11.056  10.556   1.475 -0.3551  0.8635 -0.2378
  721MOL0     C99400  11.159  10.573   1.363  0.5219 -0.0061 -1.0553
  721MOL0     C99401  11.187  10.716   1.319  0.2833  0.0207  0.9562
  721MOL0     C99402  11.266  10.715   1.190 -0.8887  0.1790  0.6319
  721MOL0     C99403  11.284  10.864   1.121 -0.4908  1.1340 -0.5483
  721MOL0     C99404  11.317  10.853   0.973  0.2104 -0.3504 -0.0816
  721MOL0    Cl99405  11.165  10.806   0.895  0.0181  0.7368  0.1385
  721MOL0     C99406  10.785  10.232   1.823  0.8304 -0.2384 -0.4418
  721MOL0     C99407  10.707  10.159   1.921 -0.6233 -0.2874  0.5187
  721MOL0     O99408  10.642   9.992   2.153 -0.6488 -0.5448  0.4029
  721MOL0     C99409  10.385   9.946   2.251  1.1712 -0.1402 -0.1416
  721MOL0     C99410  10.277   9.888   2.312  0.5751 -0.1070  0.0779
  721MOL0     N99411   9.707   9.426   2.169 -0.0984  0.1176  0.1323
  721MOL0     N99412   9.732   9.304   2.212 -0.2770 -0.2509 -0.3674
  721MOL0     C99413   8.685   9.315   2.871 -0.2561 -0.2935 -0.4750
  721MOL0     C99414   8.550   9.334   2.844  0.0546 -0.0124  0.9370
  721MOL0     C99415   8.125   9.442   2.770 -0.7827 -0.3097 -0.4343
  721MOL0     C99416   8.073   9.503   2.892  0.6734 -0.4924 -0.4460
  721MOL0     C99417   7.933   9.520   2.922 -0.4729 -0.4388 -0.5820
  721MOL0     C99418   7.845   9.463   2.831  0.4131  0.0777  1.0552
  721MOL0     O99419   7.707   9.454   2.858 -0.2813 -0.1890 -0.3172
  721MOL0     C99420   7.637   9.563   2.914  0.4923  0.3887  1.2176
  721MOL0     C99421   7.535   9.510   3.007 -0.9633 -0.3124 -1.1129
  721MOL0     C99422   7.478   9.627   3.092 -0.5756  1.4077 -0.1030
  721MOL0     C99423   7.352   9.697   3.034 -0.2204  0.2954 -0.4041
  721MOL0     C99424   7.392   9.803   2.939 -0.8594  1.0673  0.2476
  721MOL0     C99425   7.423   9.899   2.881 -0.2884  0.3003 -0.0577
  721MOL0     C99426   7.891   9.406   2.711 -0.0090  0.9900  0.9375
  721MOL0     C99427   8.032   9.397   2.675 -0.2012  0.4768 -0.0333
  721MOL0     C99428   8.048   9.333   2.537 -0.2419 -0.4353 -0.4555
  721MOL0     H99429   8.500   9.637   2.971 -0.7038 -1.1949  0.7413
  721MOL0     H99430   8.751   9.615   3.012 -1.8462  0.3954  1.7641
  721MOL0     H99431   8.944   9.322   2.756  1.4808  1.2674 -0.9134
  721MOL0     H99432   8.969   9.225   2.898  0.3424  0.3226  0.9235
  721MOL0     H99433   9.133   9.454   2.832 -0.8024 -0.1806 -0.1269
  721MOL0     H99434   9.144   9.356   2.979  0.0846 -2.4277  0.3529
  721MOL0     H99435   9.215   9.161   2.877  2.1382 -0.6742 -0.6774
  721MOL0     H99436   9.153   9.212   2.717 -0.7673  1.0886  0.4727
  721MOL0     H99437   9.324   9.402   2.733 -3.3898  0.2608  2.8123
  721MOL0     H99438   9.421   9.299   2.836 -1.7892 -1.8184  1.3147
  721MOL0     H99439   9.319   9.177   2.578 -1.1283  2.3246  0.9057
  721MOL0     H99440   9.427   9.100   2.704 -2.5630 -1.4553 -0.0969
  721MOL0     H99441   9.471   9.320   2.531  0.3163  1.0975  1.3211
  721MOL0     H99442   9.587   9.294   2.665 -0.2867  0.3592 -1.0955
  721MOL0     H99443   9.532   9.099   2.431 -0.1957  2.4643 -2.1966
  721MOL0     H99444   9.634   9.066   2.565 -0.0930 -1.7528 -1.8667
  721MOL0     H99445   9.786   9.234   2.517  1.5131  0.6690 -1.7957
  721MOL0     H99446   9.764   9.112   2.385  1.2908  1.1507 -1.1583
  721MOL0     H99447   9.700   9.493   2.488  0.4735 -0.0921 -0.2417
  721MOL0     H99448   9.603   9.701   2.310  0.3157  0.4376 -0.2361
  721MOL0     H99449   9.621   9.671   2.145 -1.9588 -2.1403  0.9206
  721MOL0     H99450   9.878   9.702   2.179 -1.0339 -0.2258 -2.1535
  721MOL0     H99451   9.801   9.852   2.224 -0.8516 -0.1397  2.8213
  721MOL0     H99452   9.809   9.805   2.456 -2.7179  0.8264 -2.1519
  721MOL0     H99453   9.878   9.645   2.428 -2.6148 -1.2881 -2.1525
  721MOL0     H99454  10.004   9.894   2.333 -2.1029  0.5165  0.1809
  721MOL0     H99455  10.022   9.810   2.499 -1.5168 -3.2233 -0.1708
  721MOL0     H99456  10.233   9.606   2.143 -3.7455 -0.0106  2.3109
  721MOL0     H99457  10.557   9.717   1.976 -0.2096  1.0934  1.4812
  721MOL0     H99458  10.411   9.725   1.882  1.8142  0.4789 -0.0494
  721MOL0     H99459  10.449   9.580   1.980 -0.7743 -0.4576 -1.1209
  721MOL0     H99460  10.610   9.914   1.711 -2.1750  2.8644 -2.0118
  721MOL0     H99461  10.773  10.021   1.569  1.5591 -0.2034  1.0997
  721MOL0     H99462  10.859  10.457   1.637  1.5691  3.2432 -0.0812
  721MOL0     H99463  10.995  10.398   1.729 -2.3806 -1.2833  1.9942
  721MOL0     H99464  11.129  10.367   1.546  1.8828  0.6123 -2.5694
  721MOL0     H99465  11.006  10.343   1.430 -0.8295  0.7220  0.7141
  721MOL0     H99466  11.081  10.614   1.565 -2.9400  1.7094  0.0108
  721MOL0     H99467  10.965  10.599   1.434  1.3412  2.4471 -2.5527
  721MOL0     H99468  11.127  10.516   1.275 -0.5353  1.6106 -1.7670
  721MOL0     H99469  11.256  10.533   1.396 -0.1344 -0.3279  0.5721
  721MOL0     H99470  11.088  10.756   1.297 -0.4005 -1.8358  0.4445
  721MOL0     H99471  11.244  10.780   1.387 -0.0851  2.2997 -0.7649
  721MOL0     H99472  11.217  10.655   1.113  1.3179  0.9059 -1.4744
  721MOL0     H99473  11.363  10.667   1.205 -1.3880 -1.6607 -1.5082
  721MOL0     H99474  11.369  10.919   1.161 -1.6318  1.7599  1.1348
  721MOL0     H99475  11.198  10.929   1.138 -1.6764 -0.5749  0.3210
  721MOL0     H99476  11.400  10.788   0.947  1.9398  1.7910 -0.1932
  721MOL0     H99477  11.348  10.954   0.943 -2.0293  0.7271  0.9518
  721MOL0     H99478  10.838  10.319   1.861  2.1969 -0.5165 -1.6160
  721MOL0     H99479  10.697  10.197   2.023  0.0445  1.2728  0.0269
  721MOL0     H99480  10.433  10.032   2.295  2.3696 -1.1384  0.5815
  721MOL0     H99481  10.218   9.941   2.385  1.4660  2.3530 -0.8927
  721MOL0     H99482   8.739   9.230   2.829  2.3075  0.5241  0.9426
  721MOL0     H99483   8.494   9.255   2.794  1.9189 -0.6133 -0.2994
  721MOL0     H99484   8.135   9.537   2.974 -0.3117  0.2183  0.0066
  721MOL0     H99485   7.904   9.549   3.023 -2.9261  2.5830 -2.0007
  721MOL0     H99486   7.704   9.632   2.966  0.3946  1.4066  0.0453
  721MOL0     H99487   7.595   9.621   2.832  1.2211 -1.5815 -0.6446
  721MOL0     H99488   7.589   9.446   3.077 -2.4748  1.0984  1.5144
  721MOL0     H99489   7.463   9.454   2.946 -0.5789  0.5275 -2.3585
  721MOL0     H99490   7.434   9.579   3.180  3.8320  1.0106  2.1436
  721MOL0     H99491   7.549   9.695   3.139 -1.4818  1.4191  1.3069
  721MOL0     H99492   7.282   9.735   3.110  1.3578  0.3900  1.0567
  721MOL0     H99493   7.301   9.621   2.973  2.1866 -2.3291  0.6355
  721MOL0     H99494   7.479   9.980   2.839  2.1167 -0.8750  0.7206
  721MOL0     H99495   7.814   9.380   2.640  1.5103  0.6937 -0.6575
  721MOL0     H99496   8.090   9.235   2.560 -1.2206 -0.7388  0.0847
  721MOL0     H99497   7.953   9.289   2.504 -1.6593  0.7444  1.7676
  721MOL0     H99498   8.115   9.369   2.459  1.2874 -3.4776 -0.7022
  722MOL0     O99499   3.268   7.339   9.281  0.5395 -0.1354  0.2162
  722MOL0     C99500   3.296   7.321   9.405 -0.0614 -0.1527 -0.1654
  722MOL0     O99501   3.260   7.221   9.483 -0.1290 -0.1117  0.1933
  722MOL0     C99502   3.189   7.115   9.425  0.8598  0.1687 -0.0124
  722MOL0     C99503   3.045   7.112   9.422  0.0150  0.5835  0.4522
  722MOL0     C99504   2.990   7.003   9.355 -0.1538  1.3453 -0.0604
  722MOL0     C99505   3.072   6.896   9.300 -0.0227  0.3845  0.8681
  722MOL0     O99506   3.018   6.786   9.241  0.3609  0.8375 -0.0094
  722MOL0     C99507   2.880   6.766   9.221  0.2957 -0.5951 -0.4010
  722MOL0     C99508   2.829   6.710   9.355 -0.0726 -0.1568  0.1475
  722MOL0     C99509   2.883   6.582   9.404  0.2969  0.2492  0.1160
  722MOL0     C99510   2.816   6.522   9.523  0.4291  0.0302  0.6713
  722MOL0     C99511   2.894   6.400   9.588  0.0624 -0.0911 -0.0061
  722MOL0     C99512   2.817   6.355   9.709  0.3558 -1.0720 -0.0781
  722MOL0     C99513   2.876   6.230   9.769 -0.0944 -0.5579 -0.4876
  722MOL0     C99514   2.776   6.171   9.870  0.6244  0.9277 -0.5634
  722MOL0     N99515   2.827   6.039   9.914  0.0934  0.1336  0.7971
  722MOL0     C99516   2.781   5.923   9.859  0.9553 -0.4176 -0.5060
  722MOL0     C99517   2.829   5.834   9.942 -0.7978  0.5299  0.6790
  722MOL0     C99518   2.817   5.678   9.945  0.8593 -0.5436  0.0928
  722MOL0     C99519   2.821   5.603   9.803  0.1124  0.4813  1.1082
  722MOL0     C99520   2.965   5.608   9.746 -0.0591  0.3549 -0.1832
  722MOL0     C99521   3.021   5.735   9.690  0.7159 -0.4546  0.3785
  722MOL0     O99522   2.930   5.789   9.591  1.2283  0.4705  0.2594
  722MOL0     C99523   2.966   5.890   9.507 -0.0692  0.7298  0.3351
  722MOL0     C99524   3.077   5.970   9.514  0.2066 -0.1905 -0.6137
  722MOL0     C99525   3.092   6.086   9.439 -0.2442 -0.3002 -0.5570
  722MOL0     C99526   3.191   6.193   9.488 -1.6412  0.7833  0.1716
  722MOL0     C99527   3.011   6.100   9.322 -0.2103 -0.0438 -0.3510
  722MOL0     C99528   3.050   6.195   9.217 -0.2241 -0.4828  0.7772
  722MOL0     O99529   3.180   6.194   9.186  0.5790 -0.5770 -0.3829
  722MOL0     C99530   3.234   6.264   9.076  0.0256  1.7955 -1.7375
  722MOL0     C99531   3.346   6.206   9.016 -0.1742  0.2936  0.1801
  722MOL0     C99532   3.408   6.264   8.908  0.1386 -0.1851 -0.2122
  722MOL0     C99533   3.351   6.386   8.856 -0.3475 -0.7409  0.1233
  722MOL0     O99534   3.382   6.459   8.744  0.4343  0.4692  0.2377
  722MOL0     C99535   3.503   6.427   8.680 -0.5777 -0.6200 -1.3925
  722MOL0     C99536   3.543   6.520   8.572  0.2062 -0.3746 -0.2718
  722MOL0     C99537   3.558   6.661   8.633 -0.2070  0.2690  0.5909
  722MOL0     C99538   3.533   6.767   8.532 -0.0454 -0.2138 -0.3609
  722MOL0     C99539   3.663   6.812   8.452 -0.1891 -0.4815  0.2528
  722MOL0     C99540   3.784   6.866   8.533  0.3386  0.6161 -0.2655
  722MOL0     C99541   3.727   6.977   8.623  0.3607 -0.6897 -0.8943
  722MOL0     C99542   3.825   7.097   8.638  0.0015 -0.2576 -0.1461
  722MOL0    Cl99543   3.865   7.148   8.467 -0.0166 -0.5031 -0.2362
  722MOL0     C99544   3.245   6.453   8.921  1.0729  0.5560 -0.1446
  722MOL0     C99545   3.183   6.387   9.027 -0.0793 -0.2181 -1.1072
  722MOL0     O99546   2.961   6.256   9.163  0.6677 -0.2687  0.1508
  722MOL0     C99547   2.898   6.012   9.302  0.6148  0.0407 -0.5429
  722MOL0     C99548   2.870   5.920   9.404  0.3190  0.3185 -0.7087
  722MOL0     N99549   2.898   5.898  10.049  0.2541  0.0203  0.4814
  722MOL0     N99550   2.899   6.018  10.026 -0.4771  0.0250  0.7270
  722MOL0     C99551   3.211   6.899   9.325 -0.3803  0.5628  0.8915
  722MOL0     C99552   3.269   7.006   9.385  0.0780  0.9144  0.0161
  722MOL0     C99553   3.397   7.417   9.460 -0.1924 -0.3839  0.7701
  722MOL0     C99554   3.500   7.462   9.372 -0.2804  0.6620 -0.9130
  722MOL0     C99555   3.607   7.546   9.399  0.1979 -0.0188 -0.1641
  722MOL0     C99556   3.603   7.602   9.527 -0.3683 -0.0456 -0.2649
  722MOL0     O99557   3.710   7.687   9.559  0.6380  0.9110  1.1994
  722MOL0     C99558   3.722   7.752   9.687 -0.0725 -0.4414 -0.5683
  722MOL0     C99559   3.835   7.855   9.669 -0.0186  0.1896  0.2784
  722MOL0     C99560   3.869   7.918   9.806 -0.2925 -0.6795 -0.3690
  722MOL0     C99561   4.005   7.992   9.808 -0.4151  0.1783 -0.0812
  722MOL0     C99562   4.050   8.042   9.941 -1.4175  0.2970 -0.0338
  722MOL0     C99563   4.093   8.075  10.046  0.0978 -0.1990  0.3811
  722MOL0     C99564   3.502   7.568   9.619 -0.1158 -0.6893 -0.3276
  722MOL0     C99565   3.399   7.474   9.582 -0.4345  0.4928 -1.1243
  722MOL0     C99566   3.294   7.440   9.688  0.8881 -0.0356 -0.3550
  722MOL0     H99567   2.981   7.180   9.476  1.7712  2.8987 -0.2125
  722MOL0     H99568   2.882   6.995   9.349 -0.2849  3.2416 -1.3684
  722MOL0     H99569   2.870   6.698   9.137  0.5551  0.1194 -1.0236
  722MOL0     H99570   2.828   6.860   9.200 -1.4307 -1.3035  0.4500
  722MOL0     H99571   2.844   6.781   9.437  0.7106 -1.6349  1.3416
  722MOL0     H99572   2.722   6.701   9.335 -0.0736 -2.7964  0.9764
  722MOL0     H99573   2.893   6.505   9.327  0.0857 -0.2390  0.5641
  722MOL0     H99574   2.982   6.616   9.437 -0.3659  1.3175  1.0643
  722MOL0     H99575   2.809   6.604   9.596 -0.0670 -0.1027  0.7815
  722MOL0     H99576   2.714   6.489   9.501  0.3721 -0.8921  2.1489
  722MOL0     H99577   2.993   6.437   9.617 -1.2119  2.5127  1.3558
  722MOL0     H99578   2.907   6.316   9.519  0.8483 -0.2066  0.2695
  722MOL0     H99579   2.841   6.427   9.789  3.2762 -2.1999  0.1422
  722MOL0     H99580   2.713   6.344   9.675 -0.5046  2.8596  0.7667
  722MOL0     H99581   2.971   6.231   9.822  0.2336 -2.6975 -0.9399
  722MOL0     H99582   2.890   6.158   9.688  1.8620 -1.0295  0.2307
  722MOL0     H99583   2.770   6.225   9.965  1.7515  0.7245 -0.3565
  722MOL0     H99584   2.687   6.158   9.809  1.5846  0.9018 -2.0106
  722MOL0     H99585   2.719   5.905   9.772 -2.1793 -0.6736  1.6283
  722MOL0     H99586   2.733   5.639  10.003  2.7672 -4.4913  0.5424
  722MOL0     H99587   2.885   5.639  10.022 -2.1428 -4.1185  1.2193
  722MOL0     H99588   2.794   5.497   9.817  0.6239  0.0684 -0.7857
  722MOL0     H99589   2.747   5.638   9.731  0.5621 -0.5124  0.1238
  722MOL0     H99590   3.031   5.555   9.816  2.5082  0.4182 -2.3829
  722MOL0     H99591   2.967   5.541   9.660  1.7829  2.0008 -1.5149
  722MOL0     H99592   3.045   5.803   9.773 -0.1437  2.7391 -1.7977
  722MOL0     H99593   3.115   5.714   9.638 -0.3663 -3.5840 -0.5056
  722MOL0     H99594   3.137   5.953   9.603 -0.4167  0.4096 -0.0659
  722MOL0     H99595   3.184   6.290   9.436 -1.6120  0.7176  0.0450
  722MOL0     H99596   3.292   6.152   9.481 -2.4779 -1.6979  1.3095
  722MOL0     H99597   3.180   6.205   9.596 -1.5767  1.2715  0.1262
  722MOL0     H99598   3.385   6.122   9.073  2.2615  1.5334  0.4577
  722MOL0     H99599   3.489   6.203   8.869  0.0907 -2.0007  2.2945
  722MOL0     H99600   3.581   6.440   8.756 -1.9815  4.1604 -0.3973
  722MOL0     H99601   3.491   6.325   8.642 -2.4249 -0.3504 -1.6593
  722MOL0     H99602   3.634   6.490   8.519  0.2898  0.1581 -0.4372
  722MOL0     H99603   3.459   6.518   8.501  1.9619 -0.9980 -2.4605
  722MOL0     H99604   3.661   6.676   8.666  0.1390  0.3169 -0.4804
  722MOL0     H99605   3.495   6.676   8.721 -2.8976  0.5147 -1.2455
  722MOL0     H99606   3.491   6.858   8.576 -3.4372 -1.7952 -0.0192
  722MOL0     H99607   3.455   6.742   8.459  1.2747 -1.6572 -1.3481
  722MOL0     H99608   3.693   6.715   8.414  4.6336  1.5430 -1.8601
  722MOL0     H99609   3.650   6.884   8.371 -0.2855  3.8572  3.7231
  722MOL0     H99610   3.861   6.905   8.465 -0.9177 -0.4650 -2.4398
  722MOL0     H99611   3.828   6.796   8.605  1.5520  0.5340 -1.0478
  722MOL0     H99612   3.693   6.947   8.723 -0.4221  2.2555 -0.1902
  722MOL0     H99613   3.647   7.030   8.570 -1.2647 -3.2168 -1.1533
  722MOL0     H99614   3.914   7.070   8.696  0.9583  2.6431 -0.0947
  722MOL0     H99615   3.771   7.175   8.692  2.3415 -0.2068  2.3267
  722MOL0     H99616   3.211   6.554   8.897  2.2828  1.0953  0.2982
  722MOL0     H99617   3.106   6.446   9.076  0.9294 -0.3734  0.7456
  722MOL0     H99618   2.831   6.022   9.217  1.4343  1.7471 -1.0337
  722MOL0     H99619   2.793   5.846   9.383 -1.4315  1.7183  0.4563
  722MOL0     H99620   3.270   6.815   9.291  2.4706  2.9600 -0.5577
  722MOL0     H99621   3.375   7.024   9.401  0.9333 -2.7686 -0.4762
  722MOL0     H99622   3.507   7.420   9.272  1.7820 -0.4557 -0.3389
  722MOL0     H99623   3.671   7.565   9.313 -1.3271 -0.8633 -1.5351
  722MOL0     H99624   3.628   7.786   9.731 -1.1606 -1.9684 -1.6039
  722MOL0     H99625   3.757   7.680   9.761 -1.2651 -0.1295  0.3236
  722MOL0     H99626   3.807   7.934   9.598 -2.4030  1.1079  2.0974
  722MOL0     H99627   3.911   7.793   9.620 -2.9316 -1.6479 -2.3123
  722MOL0     H99628   3.790   7.989   9.833 -1.2603 -1.9982  0.3217
  722MOL0     H99629   3.856   7.846   9.886  0.6254  0.5579  0.9433
  722MOL0     H99630   4.013   8.077   9.740  0.9948 -2.2292 -3.1736
  722MOL0     H99631   4.076   7.916   9.774 -0.1580  0.5089 -0.2778
  722MOL0     H99632   4.117   8.105  10.145 -0.1858 -3.0176  1.4100
  722MOL0     H99633   3.485   7.632   9.705 -0.3409 -2.8602  1.3355
  722MOL0     H99634   3.194   7.443   9.643  0.5506 -0.9688  0.3081
  722MOL0     H99635   3.315   7.341   9.729 -1.8474 -0.8472 -0.6860
  722MOL0     H99636   3.289   7.513   9.770 -0.7611 -0.7673  0.2365
  723MOL0     O99637   2.764   7.586   4.465  0.4737  0.0521 -0.2488
  723MOL0     C99638   2.879   7.582   4.512  0.7958 -0.0555  0.4139
  723MOL0     O99639   2.972   7.492   4.465  0.4016 -0.3166 -1.2005
  723MOL0     C99640   2.962   7.440   4.339  1.1740  1.0497 -0.1798
  723MOL0     C99641   3.040   7.488   4.230  0.4067  0.0316 -1.1232
  723MOL0     C99642   3.022   7.440   4.100  0.5310  0.6672 -0.2556
  723MOL0     C99643   2.945   7.323   4.078  0.3526 -0.1233  0.3200
  723MOL0     O99644   2.924   7.261   3.955  0.1040  0.3028 -0.3884
  723MOL0     C99645   2.945   7.334   3.831  0.7838  0.1291  0.4073
  723MOL0     C99646   2.811   7.398   3.789 -0.6744  0.3812  0.1094
  723MOL0     C99647   2.824   7.492   3.664 -0.5422  0.1929  0.0567
  723MOL0     C99648   2.698   7.571   3.632 -0.2293  0.5269 -0.1542
  723MOL0     C99649   2.592   7.507   3.533 -0.6823  0.7669 -0.3647
  723MOL0     C99650   2.478   7.602   3.488  0.0415  0.0693  0.9181
  723MOL0     C99651   2.384   7.634   3.592 -0.3355  0.0086 -0.2410
  723MOL0     C99652   2.281   7.530   3.632  0.9603  1.3917  0.1182
  723MOL0     N99653   2.185   7.523   3.515 -0.9029  0.3194  0.3172
  723MOL0     C99654   2.079   7.602   3.505 -0.6938  0.1014  0.4162
  723MOL0     C99655   2.008   7.557   3.406 -0.9820  0.0740  0.4562
  723MOL0     C99656   1.888   7.629   3.362  0.8154  0.7367  0.2707
  723MOL0     C99657   1.807   7.560   3.248  0.2455  0.3910 -0.3312
  723MOL0     C99658   1.677   7.643   3.223 -0.3829 -0.2908 -0.9380
  723MOL0     C99659   1.588   7.560   3.135  0.0108  0.2036 -0.0178
  723MOL0     O99660   1.471   7.641   3.111  0.5855  1.0185  0.6477
  723MOL0     C99661   1.369   7.661   3.206 -0.4694  0.0582  0.6385
  723MOL0     C99662   1.255   7.739   3.173  0.2333  0.2568  0.2495
  723MOL0     C99663   1.155   7.767   3.259  0.5046  0.0536 -0.2456
  723MOL0     C99664   1.052   7.864   3.208 -0.5273  0.5959 -0.2408
  723MOL0     C99665   1.159   7.707   3.388  0.1409  0.3555 -1.1765
  723MOL0     C99666   1.058   7.724   3.500 -0.1971 -0.2296  0.7721
  723MOL0     O99667   0.947   7.806   3.483  0.1498 -0.9793  0.5078
  723MOL0     C99668   0.852   7.804   3.580 -0.7515  0.1571 -0.3515
  723MOL0     C99669   0.838   7.920   3.655 -0.1482 -0.0658 -1.4197
  723MOL0     C99670   0.772   7.921   3.784 -1.1977 -0.0804  0.1997
  723MOL0     C99671   0.715   7.796   3.825  0.0076 -0.6458  0.1912
  723MOL0     O99672   0.644   7.784   3.939  0.4353 -0.0217 -0.5314
  723MOL0     C99673   0.724   7.801   4.054 -0.7766 -0.1958  0.3386
  723MOL0     C99674   0.667   7.730   4.180 -1.4518 -1.0692 -0.9474
  723MOL0     C99675   0.748   7.758   4.303 -0.6367 -0.1244 -0.8136
  723MOL0     C99676   0.709   7.658   4.415 -0.0172 -0.4619 -1.2109
  723MOL0     C99677   0.824   7.646   4.514  0.4528  0.2724 -0.0897
  723MOL0     C99678   0.808   7.559   4.639  0.1128 -0.4290  0.3355
  723MOL0     C99679   0.712   7.436   4.614  0.6103  0.0554 -0.4998
  723MOL0     C99680   0.706   7.331   4.720 -0.1376 -0.0998  0.5880
  723MOL0    Cl99681   0.598   7.187   4.697  0.7347 -0.6760  0.1985
  723MOL0     C99682   0.725   7.682   3.752  0.2438  0.0819  1.2176
  723MOL0     C99683   0.785   7.687   3.625 -0.4995  0.1087 -0.2457
  723MOL0     O99684   1.100   7.696   3.609 -0.7516  0.5760 -0.4165
  723MOL0     C99685   1.267   7.622   3.419 -0.2795  0.4922  0.1128
  723MOL0     C99686   1.372   7.598   3.332  0.4874  0.2211 -0.7499
  723MOL0     N99687   2.073   7.445   3.353 -0.2150  0.3359  0.5825
  723MOL0     N99688   2.185   7.417   3.428  0.4083  0.1284 -0.4519
  723MOL0     C99689   2.868   7.275   4.188  0.0522 -0.4723  0.2166
  723MOL0     C99690   2.864   7.340   4.312 -0.4225 -0.5226  0.2287
  723MOL0     C99691   2.914   7.683   4.602 -0.1150  0.6517 -0.2026
  723MOL0     C99692   3.047   7.717   4.617 -0.3690  0.2579  0.3556
  723MOL0     C99693   3.088   7.810   4.707 -1.2574 -0.1753 -0.6070
  723MOL0     C99694   3.006   7.885   4.788  0.5472 -0.1240  0.5968
  723MOL0     O99695   3.048   7.973   4.882 -0.4139  0.3029 -0.1917
  723MOL0     C99696   3.187   8.022   4.888 -0.5089  0.9183  0.2930
  723MOL0     C99697   3.212   8.083   5.022 -0.1492 -0.7990 -0.1839
  723MOL0     C99698   3.363   8.135   5.038 -0.2622  0.2089  0.0210
  723MOL0     C99699   3.395   8.176   5.187  0.1891 -1.5340 -0.2569
  723MOL0     C99700   3.371   8.080   5.288  0.0409  0.1866  0.1152
  723MOL0     C99701   3.346   8.005   5.384 -0.2181  0.1775 -0.6275
  723MOL0     C99702   2.874   7.852   4.776  0.2086  0.3125  0.3501
  723MOL0     C99703   2.822   7.749   4.688  0.0546 -0.2336 -0.2783
  723MOL0     C99704   2.681   7.711   4.705 -0.5743 -0.0053 -0.0224
  723MOL0     H99705   3.101   7.575   4.253  0.2843 -0.2368  0.3108
  723MOL0     H99706   3.078   7.492   4.022 -0.7602 -1.8725 -3.1122
  723MOL0     H99707   2.967   7.269   3.745 -5.5183 -1.0926 -0.7882
  723MOL0     H99708   3.019   7.410   3.857 -1.5650  1.9495  2.1314
  723MOL0     H99709   2.722   7.334   3.787 -0.8399  0.6323 -1.3221
  723MOL0     H99710   2.790   7.462   3.875 -0.8861 -1.0923  1.1878
  723MOL0     H99711   2.904   7.565   3.680  2.1800 -2.5480 -0.1987
  723MOL0     H99712   2.860   7.427   3.584 -0.4727 -0.9392  0.9748
  723MOL0     H99713   2.654   7.598   3.729  1.2783 -0.7778  0.9416
  723MOL0     H99714   2.735   7.665   3.592  2.9191 -0.7055 -0.3958
  723MOL0     H99715   2.548   7.417   3.576 -2.0300  1.0803 -1.0303
  723MOL0     H99716   2.647   7.477   3.443  0.1378  1.2721 -0.0511
  723MOL0     H99717   2.529   7.692   3.452 -1.5509 -0.6031 -3.6889
  723MOL0     H99718   2.418   7.574   3.401  0.3098  2.1371  0.0121
  723MOL0     H99719   2.343   7.731   3.560 -2.0505 -0.0715  1.5278
  723MOL0     H99720   2.444   7.659   3.680  2.4243  1.3574 -2.3405
  723MOL0     H99721   2.322   7.429   3.642  0.4336  0.8010 -2.8903
  723MOL0     H99722   2.233   7.542   3.730 -2.4246  0.0908 -1.2104
  723MOL0     H99723   2.053   7.690   3.563 -0.5678  0.2696  0.2205
  723MOL0     H99724   1.914   7.729   3.326 -0.0614  0.8047 -0.2033
  723MOL0     H99725   1.825   7.657   3.447 -1.1092  1.7348 -1.3956
  723MOL0     H99726   1.879   7.577   3.168 -1.5351  3.1932 -1.5046
  723MOL0     H99727   1.792   7.454   3.272  2.9762 -0.1069 -0.5192
  723MOL0     H99728   1.631   7.665   3.320  3.8183  1.1947  1.0139
  723MOL0     H99729   1.696   7.742   3.180  0.9958  1.5595  3.3107
  723MOL0     H99730   1.640   7.539   3.042  1.4721  0.7402  0.6409
  723MOL0     H99731   1.564   7.469   3.191  1.1454  1.7409  3.2774
  723MOL0     H99732   1.248   7.794   3.080 -0.9648  0.6858  0.5776
  723MOL0     H99733   1.062   7.947   3.279 -0.3523 -0.1138  0.5932
  723MOL0     H99734   0.953   7.818   3.218  0.2951 -1.5041 -1.1103
  723MOL0     H99735   1.058   7.901   3.106 -2.9788  2.0872  0.0680
  723MOL0     H99736   0.901   8.000   3.617 -1.4802  1.2579 -0.9502
  723MOL0     H99737   0.772   8.002   3.857 -3.7256 -0.3260  0.5658
  723MOL0     H99738   0.827   7.763   4.044 -0.9635 -0.5313 -0.3738
  723MOL0     H99739   0.742   7.908   4.070 -1.1875 -0.4061  2.5391
  723MOL0     H99740   0.569   7.776   4.195 -0.2230  1.3153  0.3612
  723MOL0     H99741   0.662   7.621   4.176 -0.0669 -1.6476  4.7352
  723MOL0     H99742   0.716   7.855   4.343  1.2524 -0.3628  1.5017
  723MOL0     H99743   0.856   7.761   4.282 -0.4185 -1.2254  0.0724
  723MOL0     H99744   0.708   7.558   4.369  0.4917 -0.5101 -1.1221
  723MOL0     H99745   0.620   7.693   4.469  2.1612  1.8004  1.1451
  723MOL0     H99746   0.909   7.605   4.458  0.6009 -2.2050  1.7472
  723MOL0     H99747   0.854   7.745   4.550 -0.3821  1.1004 -1.6075
  723MOL0     H99748   0.752   7.616   4.714 -0.1825 -0.6586  0.2907
  723MOL0     H99749   0.905   7.530   4.680  0.2597  1.1199  1.1441
  723MOL0     H99750   0.748   7.382   4.527  2.1273 -0.5020  0.4298
  723MOL0     H99751   0.607   7.468   4.617  0.8346  0.7718  1.4286
  723MOL0     H99752   0.693   7.380   4.818 -0.7232  2.1563 -0.5547
  723MOL0     H99753   0.802   7.278   4.722  1.2753  2.1706 -1.7838
  723MOL0     H99754   0.673   7.589   3.775  1.3101 -0.4264  1.5983
  723MOL0     H99755   0.798   7.596   3.568 -1.5202  1.2341 -2.3803
  723MOL0     H99756   1.257   7.554   3.503 -1.1331  0.4783  0.0124
  723MOL0     H99757   1.452   7.537   3.374  0.2685  0.6654  0.3538
  723MOL0     H99758   2.798   7.195   4.171 -0.1236 -0.0773 -1.0889
  723MOL0     H99759   2.809   7.311   4.401 -0.9180 -3.3806 -0.8857
  723MOL0     H99760   3.122   7.662   4.561 -0.9381 -1.5049  1.2499
  723MOL0     H99761   3.196   7.818   4.718 -1.5298  0.7247  2.3828
  723MOL0     H99762   3.246   7.930   4.880 -0.4789  0.7579  2.0847
  723MOL0     H99763   3.216   8.098   4.815 -0.5388  0.2385 -0.4469
  723MOL0     H99764   3.192   8.008   5.099  1.4645 -1.2572 -0.1684
  723MOL0     H99765   3.148   8.167   5.049  1.6843  2.4581 -4.7301
  723MOL0     H99766   3.430   8.057   5.001 -3.0466 -2.4334  0.1128
  723MOL0     H99767   3.373   8.227   4.979 -1.8734  0.2331 -0.2716
  723MOL0     H99768   3.352   8.273   5.215  1.4915 -1.3025  1.0592
  723MOL0     H99769   3.501   8.200   5.193 -0.2183  0.2365  0.7100
  723MOL0     H99770   3.332   7.944   5.471  1.2917 -0.2540 -0.6709
  723MOL0     H99771   2.803   7.919   4.824  1.3644  3.5914 -2.1392
  723MOL0     H99772   2.646   7.752   4.800 -2.5549  0.8996 -1.0756
  723MOL0     H99773   2.637   7.758   4.616  3.1379 -2.5711 -3.5795
  723MOL0     H99774   2.661   7.603   4.707  1.3425 -0.3956 -0.4476
  724MOL0     O99775   0.314   7.992   8.357  0.3617  0.2238 -0.3285
  724MOL0     C99776   0.366   7.963   8.463  0.7636  0.7040  0.5168
  724MOL0     O99777   0.315   7.990   8.595  0.0220 -0.8078  0.7043
  724MOL0     C99778   0.205   8.074   8.595 -0.1647 -0.9673  0.2305
  724MOL0     C99779   0.096   8.036   8.673 -0.6706  0.1176 -0.2480
  724MOL0     C99780  -0.010   8.125   8.698 -0.5326 -0.4418 -0.6575
  724MOL0     C99781  -0.020   8.243   8.621 -0.3133 -0.5870 -0.8987
  724MOL0     O99782  -0.135   8.321   8.654 -0.0527 -0.0742 -0.1401
  724MOL0     C99783  -0.220   8.355   8.546  0.6326 -0.0639 -1.0635
  724MOL0     C99784  -0.351   8.429   8.587 -0.4747  0.6050  0.2387
  724MOL0     C99785  -0.428   8.351   8.687 -0.1539  0.8950 -0.2932
  724MOL0     C99786  -0.565   8.416   8.704  0.7498 -0.7647  0.1945
  724MOL0     C99787  -0.661   8.373   8.590  0.0653 -0.6893 -0.2922
  724MOL0     C99788  -0.803   8.401   8.636  0.1045  0.9814  0.1114
  724MOL0     C99789  -0.863   8.315   8.755  0.3589  0.4880 -0.1085
  724MOL0     C99790  -0.858   8.168   8.727  1.0423  0.4174  0.3324
  724MOL0     N99791  -0.977   8.096   8.780  0.0660  0.6466  0.0154
  724MOL0     C99792  -1.091   8.056   8.710  0.1494 -0.4965 -0.3370
  724MOL0     C99793  -1.188   8.003   8.790  0.2803  0.0042 -0.2735
  724MOL0     C99794  -1.314   7.936   8.722 -0.1971 -0.2222  0.2009
  724MOL0     C99795  -1.427   8.048   8.756 -0.5351  0.0823 -0.9598
  724MOL0     C99796  -1.557   8.003   8.699  0.8940  0.9361 -0.4843
  724MOL0     C99797  -1.652   8.110   8.682  0.5193 -0.9655  0.0454
  724MOL0     O99798  -1.654   8.183   8.804 -0.0141  0.0380 -0.1431
  724MOL0     C99799  -1.738   8.297   8.805  0.1504  0.5473 -0.1535
  724MOL0     C99800  -1.716   8.374   8.911  0.4997  0.0091 -0.4404
  724MOL0     C99801  -1.809   8.478   8.940  0.3116  0.6221 -0.7644
  724MOL0     C99802  -1.786   8.556   9.076  0.7659 -0.3073  0.0679
  724MOL0     C99803  -1.916   8.509   8.846  0.1453  0.6775 -0.4861
  724MOL0     C99804  -2.029   8.608   8.876  0.4194  0.2304  0.4423
  724MOL0     O99805  -2.123   8.621   8.772 -0.0084 -0.2334  0.6518
  724MOL0     C99806  -2.215   8.733   8.793 -0.1067 -0.0709 -0.0041
  724MOL0     C99807  -2.344   8.714   8.804  0.2590  1.0521 -0.7189
  724MOL0     C99808  -2.425   8.821   8.834  0.0416 -0.6536 -0.3972
  724MOL0     C99809  -2.373   8.951   8.854  1.1554 -0.1782  0.4427
  724MOL0     O99810  -2.444   9.058   8.907 -0.9705  0.1240  0.0427
  724MOL0     C99811  -2.581   9.067   8.882  0.2220  0.5112  0.1522
  724MOL0     C99812  -2.619   9.207   8.842 -0.4103 -0.2125  0.6239
  724MOL0     C99813  -2.713   9.197   8.712  0.5765 -0.2438  0.0531
  724MOL0     C99814  -2.846   9.129   8.727 -0.2294  0.2634 -0.2346
  724MOL0     C99815  -2.939   9.147   8.609  0.7335 -0.4378 -0.4420
  724MOL0     C99816  -2.898   9.058   8.491 -0.1051 -0.9825  0.4641
  724MOL0     C99817  -3.006   9.080   8.382 -0.8248 -0.0947  0.1453
  724MOL0     C99818  -3.011   8.964   8.295  1.3445  0.2807 -0.1653
  724MOL0    Cl99819  -3.083   8.814   8.375 -0.0043 -0.1681  0.2804
  724MOL0     C99820  -2.241   8.970   8.815  0.0555 -0.0383  0.7305
  724MOL0     C99821  -2.161   8.865   8.792 -0.0745 -1.0334 -0.9355
  724MOL0     O99822  -2.040   8.661   8.982 -0.2188  0.5521 -0.5194
  724MOL0     C99823  -1.934   8.427   8.732 -0.6194 -0.1154  0.1658
  724MOL0     C99824  -1.848   8.319   8.719  0.1279  0.8561  0.1528
  724MOL0     N99825  -1.120   7.998   8.911 -0.1858 -0.6651  0.7265
  724MOL0     N99826  -0.998   8.041   8.902 -0.4037 -0.0059  0.1875
  724MOL0     C99827   0.079   8.274   8.534 -0.1616  0.5138  0.3629
  724MOL0     C99828   0.191   8.191   8.525 -0.9405  0.6679  0.6530
  724MOL0     C99829   0.497   7.889   8.456  0.8766  0.3667 -0.4527
  724MOL0     C99830   0.497   7.752   8.486 -0.3099  0.1006  0.2647
  724MOL0     C99831   0.618   7.684   8.510  0.7683  0.1708  0.7815
  724MOL0     C99832   0.740   7.747   8.497  0.1982 -0.7119 -0.1503
  724MOL0     O99833   0.849   7.678   8.519 -0.0474  0.2209  0.3362
  724MOL0     C99834   0.954   7.728   8.616  0.6729  0.4492 -0.1101
  724MOL0     C99835   1.068   7.757   8.525 -0.0341 -0.1076 -0.9569
  724MOL0     C99836   1.200   7.815   8.606  0.5787  0.1856  0.5534
  724MOL0     C99837   1.191   7.948   8.676 -0.2433 -0.6836  0.1726
  724MOL0     C99838   1.170   8.048   8.567  0.3926 -0.0532  0.1477
  724MOL0     C99839   1.139   8.129   8.483 -0.8542  0.1345 -0.9528
  724MOL0     C99840   0.744   7.885   8.471 -0.0408  0.5269  0.3048
  724MOL0     C99841   0.622   7.954   8.442  0.6534 -0.0826  0.5456
  724MOL0     C99842   0.626   8.104   8.411  0.1265  0.4037  0.5326
  724MOL0     H99843   0.104   7.948   8.735 -1.0649  0.3618  0.1574
  724MOL0     H99844  -0.074   8.101   8.782 -0.5269 -0.7664 -0.7455
  724MOL0     H99845  -0.264   8.269   8.495 -3.6915  0.4994  1.3018
  724MOL0     H99846  -0.178   8.435   8.484 -2.1047  1.3499 -1.2549
  724MOL0     H99847  -0.321   8.525   8.630 -0.1093 -0.5789  2.8121
  724MOL0     H99848  -0.401   8.447   8.491  2.6469 -0.1984 -1.6873
  724MOL0     H99849  -0.439   8.247   8.657 -3.5954  1.1747 -0.3690
  724MOL0     H99850  -0.365   8.356   8.777  3.0447 -2.6693 -2.0592
  724MOL0     H99851  -0.607   8.378   8.797  0.6820  0.9327  0.8972
  724MOL0     H99852  -0.560   8.524   8.721  2.3561 -1.2388  3.6633
  724MOL0     H99853  -0.659   8.269   8.559 -1.4208 -0.2605 -1.9525
  724MOL0     H99854  -0.636   8.433   8.502  2.4554  2.6784  2.3434
  724MOL0     H99855  -0.808   8.505   8.668  0.7359  0.5251  1.7956
  724MOL0     H99856  -0.867   8.393   8.548  1.8157  0.1343 -1.1256
  724MOL0     H99857  -0.965   8.344   8.779  0.5060 -0.8677  2.4444
  724MOL0     H99858  -0.819   8.336   8.853 -2.0477 -1.4249  1.5004
  724MOL0     H99859  -0.853   8.150   8.620  0.2815 -2.2852  0.6735
  724MOL0     H99860  -0.765   8.130   8.771  0.6423  1.5862  2.3392
  724MOL0     H99861  -1.099   8.066   8.602 -1.8070 -0.1522 -0.1810
  724MOL0     H99862  -1.343   7.840   8.765 -0.8107  1.3071  3.5168
  724MOL0     H99863  -1.301   7.932   8.613 -0.5034  0.2045  0.1464
  724MOL0     H99864  -1.424   8.056   8.866  2.4495 -0.9169 -0.8840
  724MOL0     H99865  -1.391   8.147   8.728  3.2743 -1.1987 -1.1644
  724MOL0     H99866  -1.554   7.957   8.600 -3.5950 -0.5614 -0.1611
  724MOL0     H99867  -1.589   7.926   8.769  2.7017 -0.6231 -1.2724
  724MOL0     H99868  -1.618   8.161   8.591 -1.3814  1.3583  0.5663
  724MOL0     H99869  -1.748   8.069   8.649 -0.1091  0.4617  0.0807
  724MOL0     H99870  -1.641   8.345   8.983 -0.2665 -1.2994 -0.1405
  724MOL0     H99871  -1.770   8.659   9.044  0.3052 -0.3701 -0.3817
  724MOL0     H99872  -1.700   8.513   9.129  2.1933 -1.9208 -3.2092
  724MOL0     H99873  -1.875   8.545   9.137  1.7811 -0.1727  1.6195
  724MOL0     H99874  -2.389   8.616   8.791  0.0018  0.9873  0.5006
  724MOL0     H99875  -2.530   8.797   8.831  0.3251 -1.8797 -2.3020
  724MOL0     H99876  -2.615   9.005   8.798  1.5557  2.0447 -1.5981
  724MOL0     H99877  -2.639   9.025   8.964 -3.0170  0.2542 -2.0820
  724MOL0     H99878  -2.670   9.241   8.932 -0.6154 -0.9291  0.7885
  724MOL0     H99879  -2.532   9.267   8.813  0.7725 -0.6812  2.9368
  724MOL0     H99880  -2.667   9.132   8.637 -2.4747 -2.8332  0.2138
  724MOL0     H99881  -2.743   9.294   8.673 -0.7457  1.0809  3.8884
  724MOL0     H99882  -2.886   9.185   8.811  0.5877 -1.7127  1.5764
  724MOL0     H99883  -2.829   9.021   8.732 -1.2743 -0.1947 -3.7660
  724MOL0     H99884  -3.035   9.105   8.640  0.9624  0.5235  1.7007
  724MOL0     H99885  -2.944   9.247   8.565  0.1605 -0.6653 -0.9159
  724MOL0     H99886  -2.890   8.955   8.528 -0.5188 -1.5818 -1.0724
  724MOL0     H99887  -2.803   9.079   8.441  0.6871 -1.1087  1.8635
  724MOL0     H99888  -2.978   9.164   8.318 -0.8919 -0.6916 -0.6853
  724MOL0     H99889  -3.105   9.105   8.423 -0.3772  3.0393 -0.4281
  724MOL0     H99890  -2.910   8.947   8.256  1.1345 -0.7553 -0.2968
  724MOL0     H99891  -3.063   9.004   8.208  1.7662  2.5951  0.5859
  724MOL0     H99892  -2.208   9.074   8.822 -0.5849  0.2316 -0.0679
  724MOL0     H99893  -2.056   8.870   8.765  0.3054 -0.7375  0.5033
  724MOL0     H99894  -2.011   8.443   8.657  3.0396  0.1317 -3.8986
  724MOL0     H99895  -1.864   8.251   8.635 -3.1285  1.3010  0.2733
  724MOL0     H99896   0.075   8.370   8.485 -1.0507  0.0895 -0.3995
  724MOL0     H99897   0.266   8.222   8.453 -0.3890  0.4748  1.1345
  724MOL0     H99898   0.407   7.694   8.503  0.9400 -2.1016 -0.2611
  724MOL0     H99899   0.629   7.581   8.540 -0.7196 -0.1090  0.4782
  724MOL0     H99900   0.921   7.808   8.683  4.5359  0.0586  2.5564
  724MOL0     H99901   0.988   7.651   8.686 -0.5582 -0.6116 -0.6328
  724MOL0     H99902   1.033   7.821   8.443  0.5258  1.6625  0.1194
  724MOL0     H99903   1.100   7.666   8.475  2.4444  0.3244 -0.2931
  724MOL0     H99904   1.214   7.751   8.693  2.0372 -0.0158  0.2018
  724MOL0     H99905   1.291   7.814   8.545  0.4566  0.0560  0.3745
  724MOL0     H99906   1.275   7.964   8.743  0.0634  1.3103 -0.5995
  724MOL0     H99907   1.104   7.940   8.742 -1.7071  0.3877 -1.5172
  724MOL0     H99908   1.133   8.211   8.413 -0.8445  2.4690  1.6121
  724MOL0     H99909   0.836   7.940   8.454 -1.8973  3.2170 -2.0585
  724MOL0     H99910   0.574   8.115   8.316  1.9441 -0.4226 -0.6230
  724MOL0     H99911   0.568   8.153   8.489 -2.8551 -1.7978 -0.1146
  724MOL0     H99912   0.720   8.159   8.402  0.1295 -0.0235 -4.5758
  725MOL0     O99913   5.102  11.519   1.273 -0.9652 -0.5219  0.2857
  725MOL0     C99914   5.110  11.406   1.322 -0.5855  0.0593  0.9207
  725MOL0     O99915   5.147  11.298   1.255  0.4723  0.4775  0.2590
  725MOL0     C99916   5.166  11.276   1.117  0.7925 -0.1324 -0.2880
  725MOL0     C99917   5.201  11.145   1.082  0.3390 -0.0499  0.4337
  725MOL0     C99918   5.250  11.121   0.951  0.0462 -0.9617  0.1002
  725MOL0     C99919   5.237  11.216   0.852  0.1657  0.0776  0.1356
  725MOL0     O99920   5.258  11.167   0.721 -0.2840 -1.1190 -0.0979
  725MOL0     C99921   5.293  11.259   0.615  0.2680  0.4192 -1.1099
  725MOL0     C99922   5.339  11.157   0.508  0.9249 -1.0238 -0.0806
  725MOL0     C99923   5.465  11.077   0.550  0.2535 -0.7563  0.1499
  725MOL0     C99924   5.539  11.009   0.426 -0.9452  1.1444 -0.9881
  725MOL0     C99925   5.692  11.018   0.422  0.2184  1.1369 -0.4709
  725MOL0     C99926   5.760  10.935   0.305  0.0269 -0.2635 -0.1482
  725MOL0     C99927   5.736  11.000   0.159  0.6256 -0.1404 -0.2725
  725MOL0     C99928   5.764  10.906   0.038 -0.4562  0.3235  0.0684
  725MOL0     N99929   5.901  10.864   0.050 -0.4316 -0.4029 -0.4969
  725MOL0     C99930   6.002  10.955   0.033 -0.4499  0.3008 -0.5119
  725MOL0     C99931   6.107  10.872   0.006  0.7315 -0.4139  0.1145
  725MOL0     C99932   6.240  10.931  -0.009 -0.7743 -0.4750 -0.3226
  725MOL0     C99933   6.314  10.923   0.116 -1.6474  0.3967  0.0708
  725MOL0     C99934   6.435  11.009   0.089 -0.2032  0.3757 -0.5755
  725MOL0     C99935   6.534  10.998   0.205  0.3757 -0.4102 -0.4303
  725MOL0     O99936   6.578  10.860   0.226 -0.3960  0.9864 -0.3978
  725MOL0     C99937   6.698  10.832   0.167  0.3750 -0.9920  0.5908
  725MOL0     C99938   6.814  10.859   0.239  0.2330 -0.4164  0.1404
  725MOL0     C99939   6.943  10.828   0.189  0.0709  0.5259  0.0057
  725MOL0     C99940   7.058  10.849   0.280  0.1260 -0.5771 -0.2631
  725MOL0     C99941   6.946  10.793   0.051 -0.0227  0.0996  0.5274
  725MOL0     C99942   7.067  10.800  -0.025  0.6876 -0.1745  0.4105
  725MOL0     O99943   7.091  10.678  -0.096  0.4388 -0.2658  0.2389
  725MOL0     C99944   7.199  10.676  -0.183 -0.6096  0.0303  0.4647
  725MOL0     C99945   7.271  10.553  -0.205 -0.3146 -0.3786 -0.9395
  725MOL0     C99946   7.366  10.546  -0.306 -0.4506  0.1625  0.1537
  725MOL0     C99947   7.425  10.656  -0.366 -0.3161  0.8661 -0.4769
  725MOL0     O99948   7.549  10.638  -0.435  0.4924  1.0562 -0.4204
  725MOL0     C99949   7.565  10.720  -0.549 -0.3482  0.3173  0.1351
  725MOL0     C99950   7.645  10.647  -0.650 -0.4035  0.5337  0.7051
  725MOL0     C99951   7.670  10.738  -0.771  0.4034 -0.1356 -0.6300
  725MOL0     C99952   7.750  10.673  -0.886  0.4065 -0.2232 -0.2202
  725MOL0     C99953   7.805  10.778  -0.981 -0.4822  0.9897  0.5141
  725MOL0     C99954   7.935  10.854  -0.927  0.1852  0.3166 -0.3626
  725MOL0     C99955   7.966  10.973  -1.019  0.1118 -0.4933 -0.9238
  725MOL0     C99956   8.116  11.009  -0.995 -0.2824  0.4678 -0.5804
  725MOL0    Cl99957   8.159  11.007  -0.817 -0.0696  0.2566  0.1113
  725MOL0     C99958   7.363  10.788  -0.342  0.0090  0.9599  0.7317
  725MOL0     C99959   7.254  10.788  -0.255 -0.8972  0.2533  0.4896
  725MOL0     O99960   7.153  10.885  -0.007 -0.2940  0.2754 -0.1027
  725MOL0     C99961   6.828  10.769  -0.023 -0.8247  0.3470  0.0707
  725MOL0     C99962   6.704  10.786   0.042 -0.7719 -0.5994 -0.2263
  725MOL0     N99963   6.078  10.740   0.015 -0.5375  0.9611 -0.2765
  725MOL0     N99964   5.945  10.736   0.040 -0.2224 -0.8441 -0.2752
  725MOL0     C99965   5.169  11.335   0.877  0.8671  0.2298 -0.0709
  725MOL0     C99966   5.152  11.376   1.012 -0.5188 -0.0694  0.3035
  725MOL0     C99967   5.111  11.402   1.467 -0.2709 -0.4713  0.0392
  725MOL0     C99968   5.054  11.287   1.527  0.0638 -0.0084 -0.6935
  725MOL0     C99969   5.053  11.269   1.667  0.2719  0.5597  0.6448
  725MOL0     C99970   5.104  11.367   1.744  0.5869 -0.1791 -0.7553
  725MOL0     O99971   5.088  11.364   1.878  0.2560 -0.1805 -0.0943
  725MOL0     C99972   5.015  11.255   1.931  1.1272 -0.0637 -0.2295
  725MOL0     C99973   5.017  11.259   2.092 -0.2005  0.9550  1.1858
  725MOL0     C99974   4.895  11.207   2.176  0.4518  0.0281 -0.3195
  725MOL0     C99975   4.779  11.303   2.183 -0.7227 -0.8179  0.1138
  725MOL0     C99976   4.677  11.259   2.284 -0.4615  0.4322  0.6758
  725MOL0     C99977   4.582  11.218   2.346 -0.1689 -1.0903  0.1657
  725MOL0     C99978   5.156  11.487   1.688 -0.2404  0.8517 -0.2529
  725MOL0     C99979   5.156  11.501   1.552 -0.2136  0.4571 -0.2870
  725MOL0     C99980   5.236  11.624   1.512 -0.3358  0.3127  0.6034
  725MOL0     H99981   5.201  11.081   1.169  1.3637  0.0629  0.5221
  725MOL0     H99982   5.282  11.019   0.930 -2.5429 -1.8594  0.1995
  725MOL0     H99983   5.379  11.319   0.642 -0.3848  0.4066  1.1464
  725MOL0     H99984   5.215  11.327   0.580  0.1795  0.6581 -0.4568
  725MOL0     H99985   5.250  11.101   0.479 -1.0953  1.1001  1.6308
  725MOL0     H99986   5.369  11.210   0.416 -0.6483  1.1273  0.5760
  725MOL0     H99987   5.535  11.151   0.590  0.4706 -0.1429 -1.3176
  725MOL0     H99988   5.451  11.007   0.633  1.4953 -1.0689  0.1139
  725MOL0     H99989   5.514  10.903   0.422  1.8866  0.3016  0.4968
  725MOL0     H99990   5.510  11.059   0.333  4.3199  0.3928 -3.4371
  725MOL0     H99991   5.721  10.982   0.521 -2.2037 -0.5870 -0.3032
  725MOL0     H99992   5.730  11.121   0.425  1.1287  0.7936  0.2339
  725MOL0     H99993   5.863  10.931   0.344 -0.2332 -0.0728  0.5766
  725MOL0     H99994   5.719  10.834   0.302  1.7103 -1.1846  3.1181
  725MOL0     H99995   5.799  11.089   0.155  1.9818 -0.8902  2.1371
  725MOL0     H99996   5.634  11.039   0.156  1.0288  0.9488 -0.0253
  725MOL0     H99997   5.692  10.824   0.025  0.2892 -0.6035  1.5730
  725MOL0     H99998   5.756  10.958  -0.058  2.3458  0.5151 -0.1474
  725MOL0     H99999   6.000  11.062   0.046  0.2874  0.1669  0.9176
  725MOL0     H    0   6.235  11.037  -0.034  1.7812 -0.1120  0.3871
  725MOL0     H    1   6.298  10.877  -0.084  3.4658 -1.0361  2.9200
  725MOL0     H    2   6.262  10.973   0.199 -0.9370  4.7666 -1.8051
  725MOL0     H    3   6.342  10.819   0.134  0.6114  0.8851 -0.3358
  725MOL0     H    4   6.492  10.993  -0.002 -1.2320 -4.2054 -0.6404
  725MOL0     H    5   6.394  11.111   0.092 -0.6427  0.3227  4.3945
  725MOL0     H    6   6.624  11.059   0.210 -0.1048  0.2131  1.7845
  725MOL0     H    7   6.474  11.028   0.291  0.0983 -0.6345 -0.5421
  725MOL0     H    8   6.810  10.905   0.337 -1.6736  2.8327 -1.2920
  725MOL0     H    9   7.033  10.815   0.381  0.2045 -1.4170 -0.5221
  725MOL0     H   10   7.083  10.955   0.289 -1.8304 -0.2113  2.4696
  725MOL0     H   11   7.147  10.788   0.261  0.1111 -1.6236  2.4745
  725MOL0     H   12   7.240  10.460  -0.159 -0.0283  0.7714  1.7231
  725MOL0     H   13   7.420  10.454  -0.324  1.1884  1.3367 -1.3734
  725MOL0     H   14   7.464  10.732  -0.590 -1.1116 -3.2387  0.6156
  725MOL0     H   15   7.611  10.818  -0.533  0.3261 -0.1143  0.8932
  725MOL0     H   16   7.748  10.634  -0.614 -0.7678  0.3129  1.6978
  725MOL0     H   17   7.594  10.552  -0.667 -3.2831  2.0181  0.4568
  725MOL0     H   18   7.729  10.819  -0.729  2.1666 -2.1874  1.1090
  725MOL0     H   19   7.570  10.768  -0.804  1.1104  2.0701 -0.9233
  725MOL0     H   20   7.684  10.600  -0.934 -2.1313 -0.7974  3.6236
  725MOL0     H   21   7.829  10.612  -0.840 -1.7447 -3.4756 -0.4996
  725MOL0     H   22   7.833  10.732  -1.077 -1.6327  0.0974  0.5948
  725MOL0     H   23   7.726  10.847  -1.014 -1.0553 -0.2901 -0.9145
  725MOL0     H   24   8.020  10.786  -0.919 -0.2503 -0.0276  2.4178
  725MOL0     H   25   7.910  10.899  -0.830 -0.3105 -0.6624 -0.0269
  725MOL0     H   26   7.894  11.054  -1.000 -0.3761 -0.8986 -1.0235
  725MOL0     H   27   7.960  10.934  -1.121  1.0310 -0.6860 -0.9070
  725MOL0     H   28   8.148  11.100  -1.048  1.6921  0.4340  0.4670
  725MOL0     H   29   8.168  10.920  -1.031 -0.6669 -0.5706  1.3062
  725MOL0     H   30   7.391  10.872  -0.404 -0.4695 -1.5683 -3.2889
  725MOL0     H   31   7.222  10.890  -0.236 -1.3672  0.0407  0.8229
  725MOL0     H   32   6.832  10.733  -0.126 -2.1139 -1.7224  0.6756
  725MOL0     H   33   6.618  10.760  -0.020  0.3484  1.0504 -2.6069
  725MOL0     H   34   5.126  11.396   0.799  0.1889  1.3734  1.1384
  725MOL0     H   35   5.117  11.477   1.029 -0.6708 -0.2789  1.3299
  725MOL0     H   36   5.017  11.202   1.471 -0.0086 -2.8414  3.2277
  725MOL0     H   37   5.003  11.177   1.695 -1.5820  0.9226 -1.1628
  725MOL0     H   38   4.912  11.266   1.896  1.4185  2.6304 -0.4304
  725MOL0     H   39   5.043  11.156   1.894 -2.6620 -1.9901  1.4252
  725MOL0     H   40   5.025  11.363   2.125  0.0206  1.0344  0.8869
  725MOL0     H   41   5.104  11.198   2.122 -2.5403 -2.6101  1.3520
  725MOL0     H   42   4.869  11.112   2.128  2.7865 -1.9043  1.9647
  725MOL0     H   43   4.919  11.189   2.281 -0.0021 -1.1683 -0.4013
  725MOL0     H   44   4.728  11.328   2.089 -2.2228  0.9860  1.3154
  725MOL0     H   45   4.819  11.398   2.217 -0.0184 -0.5380 -1.3992
  725MOL0     H   46   4.494  11.194   2.403 -0.6322  1.5794  0.6942
  725MOL0     H   47   5.191  11.556   1.763  0.2821 -0.3275  0.6257
  725MOL0     H   48   5.311  11.602   1.435  0.9765  0.3063  1.8537
  725MOL0     H   49   5.164  11.690   1.462 -1.6479  0.1432  2.1967
  725MOL0     H   50   5.284  11.678   1.594 -1.7738  0.6085  1.2771
  726MOL0     O   51   6.059   7.585   6.799 -0.3723  0.7361  0.1387
  726MOL0     C   52   6.146   7.516   6.741  0.3490 -0.1285 -0.3971
  726MOL0     O   53   6.215   7.540   6.630  0.4989  0.6631 -0.4075
  726MOL0     C   54   6.234   7.670   6.579  0.1822 -0.7879  0.5536
  726MOL0     C   55   6.278   7.677   6.445 -0.7887 -0.1164  0.7199
  726MOL0     C   56   6.337   7.800   6.402  0.5821  0.1228 -0.5170
  726MOL0     C   57   6.340   7.908   6.485 -1.1608 -0.5617 -0.0301
  726MOL0     O   58   6.397   8.028   6.456 -1.2779 -0.0779  0.6715
  726MOL0     C   59   6.511   8.024   6.372  0.4994 -0.4846 -0.4998
  726MOL0     C   60   6.592   8.156   6.359  0.1725  0.1370 -0.0558
  726MOL0     C   61   6.627   8.202   6.499 -0.3659  0.5372  0.3428
  726MOL0     C   62   6.733   8.098   6.556  0.6179 -0.3352 -0.3088
  726MOL0     C   63   6.811   8.143   6.674  1.7095  0.3159  0.4255
  726MOL0     C   64   6.733   8.182   6.806  0.0744 -0.3277 -0.3261
  726MOL0     C   65   6.816   8.242   6.923 -0.0026  0.5634 -0.8723
  726MOL0     C   66   6.763   8.207   7.067  0.5044 -0.2437 -0.4387
  726MOL0     N   67   6.842   8.257   7.175  0.0710  0.3452 -0.1618
  726MOL0     C   68   6.931   8.367   7.179 -0.3419  0.6593 -1.0817
  726MOL0     C   69   6.987   8.354   7.303 -0.5550  0.8308  0.2097
  726MOL0     C   70   7.092   8.445   7.341  0.1454 -0.0678 -0.4761
  726MOL0     C   71   7.066   8.592   7.352  0.6816 -0.5606 -0.6689
  726MOL0     C   72   6.935   8.626   7.436  0.2266 -0.5145 -0.0705
  726MOL0     C   73   6.940   8.767   7.490  0.3334 -0.6119 -0.2661
  726MOL0     O   74   6.844   8.819   7.581 -0.4042  0.1819  0.3683
  726MOL0     C   75   6.839   8.955   7.593 -0.6794 -0.5777 -0.6357
  726MOL0     C   76   6.954   9.044   7.571  0.0574  0.4332  0.9417
  726MOL0     C   77   6.942   9.178   7.596  0.3207 -0.1361  0.0621
  726MOL0     C   78   7.063   9.264   7.555  0.8604 -0.2438 -0.1936
  726MOL0     C   79   6.823   9.232   7.644 -0.6994 -0.2697 -1.0281
  726MOL0     C   80   6.797   9.378   7.661 -0.6426  1.0247  0.0834
  726MOL0     O   81   6.842   9.459   7.566  0.3149 -0.2257 -0.3683
  726MOL0     C   82   6.804   9.595   7.556 -0.1911 -0.6300 -0.0419
  726MOL0     C   83   6.823   9.652   7.429  0.9568  0.3271 -0.0985
  726MOL0     C   84   6.781   9.782   7.402 -0.4621 -0.2337  0.5539
  726MOL0     C   85   6.732   9.864   7.504 -0.0541  1.2224  1.0813
  726MOL0     O   86   6.688   9.994   7.484 -0.0150  0.6678  0.2127
  726MOL0     C   87   6.795  10.090   7.503 -0.2187 -0.6001 -0.7133
  726MOL0     C   88   6.749  10.224   7.443  0.2756  0.0228  0.1388
  726MOL0     C   89   6.711  10.217   7.292 -0.1701 -0.0200  0.2281
  726MOL0     C   90   6.606  10.331   7.255 -0.0889  0.4402  0.1653
  726MOL0     C   91   6.466  10.315   7.315  0.0635 -0.2666 -0.3360
  726MOL0     C   92   6.352  10.411   7.280  0.7455  0.0503 -0.1503
  726MOL0     C   93   6.322  10.431   7.132  0.8086 -0.6059 -0.6884
  726MOL0     C   94   6.177  10.471   7.112 -0.4108  0.5955 -0.1222
  726MOL0    Cl   95   6.140  10.629   7.192  0.1300  0.0682 -0.1449
  726MOL0     C   96   6.721   9.810   7.634 -1.2434 -0.2613 -1.0466
  726MOL0     C   97   6.752   9.678   7.654  0.6446  1.3888 -0.6280
  726MOL0     O   98   6.720   9.406   7.753  0.8485 -0.2843  0.2063
  726MOL0     C   99   6.707   9.149   7.667 -0.8991 -0.2872  0.5317
  726MOL0     C  100   6.716   9.011   7.643 -0.4100  0.3727  0.6257
  726MOL0     N  101   6.922   8.251   7.372  0.2202 -0.5924 -0.4488
  726MOL0     N  102   6.834   8.206   7.297 -0.4015 -1.0512 -0.2560
  726MOL0     C  103   6.273   7.901   6.601 -0.6227  0.5139  0.3427
  726MOL0     C  104   6.228   7.786   6.653 -0.7842  0.8058  0.4593
  726MOL0     C  105   6.177   7.389   6.803  0.0065  0.5491  0.0801
  726MOL0     C  106   6.087   7.285   6.787  0.7239  0.7408  0.0537
  726MOL0     C  107   6.114   7.158   6.842 -0.2195 -0.2283  0.4869
  726MOL0     C  108   6.235   7.138   6.902 -0.4727 -0.0674 -0.3846
  726MOL0     O  109   6.287   7.021   6.935  1.1666  1.0245 -0.6998
  726MOL0     C  110   6.230   6.889   6.897 -0.7493 -0.9589  0.0082
  726MOL0     C  111   6.166   6.839   7.020 -0.3340  0.6232  0.1753
  726MOL0     C  112   6.267   6.799   7.130  0.2694 -0.3843  0.3480
  726MOL0     C  113   6.394   6.739   7.074 -0.0688  1.0000  0.5804
  726MOL0     C  114   6.495   6.840   7.054  0.1679 -0.5069 -0.1605
  726MOL0     C  115   6.572   6.935   7.041 -0.1773  0.7198  1.0931
  726MOL0     C  116   6.321   7.244   6.926 -0.1857  0.3684  1.0482
  726MOL0     C  117   6.292   7.376   6.879 -0.1387 -0.0136 -0.8598
  726MOL0     C  118   6.401   7.471   6.900  0.2389 -0.4621 -0.2624
  726MOL0     H  119   6.283   7.588   6.382 -1.2379 -0.6259  1.3865
  726MOL0     H  120   6.388   7.798   6.306  2.0740 -3.1999  0.2006
  726MOL0     H  121   6.475   8.008   6.270 -3.0167  1.3837  0.2733
  726MOL0     H  122   6.572   7.935   6.388 -1.0669 -2.1380 -2.9300
  726MOL0     H  123   6.673   8.140   6.288 -0.8022  1.6419 -1.5749
  726MOL0     H  124   6.532   8.232   6.309  1.2819  0.0167 -1.6310
  726MOL0     H  125   6.673   8.300   6.488  2.2128 -0.8762 -3.4761
  726MOL0     H  126   6.543   8.197   6.570  0.5549 -0.5795  1.4015
  726MOL0     H  127   6.684   8.005   6.588  2.7087 -1.6886 -0.7728
  726MOL0     H  128   6.802   8.076   6.474 -0.7646  0.2025 -1.6618
  726MOL0     H  129   6.863   8.228   6.629  0.0598 -0.6597 -3.8026
  726MOL0     H  130   6.883   8.067   6.707  2.7729  1.4161  0.7180
  726MOL0     H  131   6.657   8.258   6.784  0.3059 -0.0684 -0.2243
  726MOL0     H  132   6.695   8.095   6.861  1.7844 -0.5183  0.6121
  726MOL0     H  133   6.808   8.350   6.930 -3.0237  0.3065  3.9802
  726MOL0     H  134   6.920   8.213   6.902  1.8067  2.1583  4.3369
  726MOL0     H  135   6.672   8.265   7.081 -0.2934 -1.4940 -0.3153
  726MOL0     H  136   6.733   8.103   7.077 -1.8403  0.4949  1.0692
  726MOL0     H  137   6.972   8.431   7.101  2.8776  0.2414  0.1242
  726MOL0     H  138   7.167   8.430   7.263 -0.2437  0.3654 -0.9372
  726MOL0     H  139   7.151   8.403   7.423  0.0922 -2.5555 -1.6291
  726MOL0     H  140   7.148   8.651   7.395  1.0519 -1.0482 -0.7043
  726MOL0     H  141   7.055   8.638   7.254 -3.3780 -0.6729 -0.4566
  726MOL0     H  142   6.841   8.625   7.381 -0.7065 -2.1274  1.4620
  726MOL0     H  143   6.926   8.561   7.523 -3.0999  0.0054  0.1102
  726MOL0     H  144   7.039   8.780   7.535 -0.0985  0.8462  0.3174
  726MOL0     H  145   6.936   8.835   7.404  0.8608 -0.1074  0.1006
  726MOL0     H  146   7.052   9.009   7.542 -0.2073  1.1766 -0.9981
  726MOL0     H  147   7.137   9.217   7.489  1.2621  1.9832 -1.4375
  726MOL0     H  148   7.120   9.292   7.644  1.7927  1.9119 -1.3870
  726MOL0     H  149   7.033   9.358   7.509  3.0396  1.4933  1.6676
  726MOL0     H  150   6.871   9.597   7.349  0.4534  1.7024 -1.3860
  726MOL0     H  151   6.798   9.826   7.304 -2.7898 -3.1940 -1.3588
  726MOL0     H  152   6.818  10.095   7.610 -0.1283  0.8089 -0.7718
  726MOL0     H  153   6.884  10.052   7.452  0.4424  0.6360 -0.5321
  726MOL0     H  154   6.666  10.265   7.502  0.5867  0.6234  0.1672
  726MOL0     H  155   6.829  10.298   7.451  1.7172 -1.2730 -1.4540
  726MOL0     H  156   6.676  10.118   7.263  1.1666 -0.5908  0.4956
  726MOL0     H  157   6.803  10.243   7.240 -1.3846 -0.3766 -2.2332
  726MOL0     H  158   6.595  10.319   7.147  1.1842  0.1807  0.0477
  726MOL0     H  159   6.650  10.426   7.289  1.5956 -0.4196  0.4754
  726MOL0     H  160   6.450  10.207   7.305  1.8035 -0.7142  1.2105
  726MOL0     H  161   6.469  10.334   7.423  0.5231 -2.5230  0.0952
  726MOL0     H  162   6.364  10.508   7.330 -2.7539 -0.9409  3.1437
  726MOL0     H  163   6.265  10.368   7.332  0.5182 -2.0762 -2.1636
  726MOL0     H  164   6.348  10.338   7.080  3.4867 -2.3652  3.2767
  726MOL0     H  165   6.382  10.515   7.095  1.0099 -0.4058  0.0628
  726MOL0     H  166   6.117  10.388   7.149  1.6174 -0.4351  0.9806
  726MOL0     H  167   6.157  10.469   7.004  0.1187 -0.1455 -0.2144
  726MOL0     H  168   6.687   9.876   7.713 -0.2106 -0.5970 -0.2868
  726MOL0     H  169   6.742   9.646   7.757  0.5423  0.8735 -0.7985
  726MOL0     H  170   6.616   9.184   7.715  0.0699  0.8041  1.6646
  726MOL0     H  171   6.628   8.952   7.665 -1.0109 -0.5818 -3.6122
  726MOL0     H  172   6.256   7.995   6.653 -2.7189  1.6188 -2.1182
  726MOL0     H  173   6.184   7.791   6.751  0.2035  1.3671  0.8858
  726MOL0     H  174   5.992   7.295   6.736  0.8532  0.6498 -0.2079
  726MOL0     H  175   6.040   7.078   6.833  0.4160 -0.7152 -0.7756
  726MOL0     H  176   6.158   6.915   6.819 -0.3078 -0.7954 -0.3474
  726MOL0     H  177   6.305   6.824   6.850  0.1950  1.3444 -1.8818
  726MOL0     H  178   6.115   6.748   6.991 -0.1880  0.6407 -0.1346
  726MOL0     H  179   6.087   6.902   7.063  0.0388 -0.3563  2.4525
  726MOL0     H  180   6.293   6.884   7.195  0.0174  0.5138 -0.6852
  726MOL0     H  181   6.215   6.725   7.191 -1.8507 -0.4393 -1.3950
  726MOL0     H  182   6.380   6.683   6.980  0.8496 -0.8961  1.5162
  726MOL0     H  183   6.447   6.669   7.140  1.1607  1.0996 -0.2678
  726MOL0     H  184   6.646   7.013   7.030  1.5231 -0.7087  1.8586
  726MOL0     H  185   6.413   7.217   6.977  2.1529  1.0954 -2.3769
  726MOL0     H  186   6.445   7.487   6.801 -1.3366  0.7174 -0.8021
  726MOL0     H  187   6.364   7.564   6.943  0.7347 -1.5448  2.7123
  726MOL0     H  188   6.480   7.431   6.965  0.3962  1.6113  0.9008
  727MOL0     O  189   8.964   0.200   5.038 -0.2045  0.2518 -0.9054
  727MOL0     C  190   9.001   0.103   4.975 -0.1329  0.1672 -0.5020
  727MOL0     O  191   8.965   0.076   4.840  1.0631 -0.2842  0.0116
  727MOL0     C  192   8.869   0.149   4.785 -0.2383 -0.3481 -0.7108
  727MOL0     C  193   8.894   0.216   4.670 -0.0868 -0.2372  0.9317
  727MOL0     C  194   8.790   0.299   4.609 -0.5865  0.1912 -0.4257
  727MOL0     C  195   8.663   0.298   4.664  0.2296 -0.0818  0.2120
  727MOL0     O  196   8.548   0.357   4.614 -0.9383  0.4188  0.2313
  727MOL0     C  197   8.575   0.466   4.524 -0.0463  0.4809  0.0709
  727MOL0     C  198   8.438   0.533   4.495 -0.5164 -0.1450 -0.6854
  727MOL0     C  199   8.337   0.435   4.418  0.2040 -0.0061 -0.1562
  727MOL0     C  200   8.197   0.489   4.424 -0.2565 -0.2927 -0.8095
  727MOL0     C  201   8.098   0.391   4.360  0.4404 -0.3251 -0.9761
  727MOL0     C  202   8.044   0.285   4.455 -0.4721 -0.2062 -0.0712
  727MOL0     C  203   7.938   0.208   4.384  0.1460  0.0085 -0.0572
  727MOL0     C  204   7.987   0.105   4.294  0.0244 -0.0715 -0.3130
  727MOL0     N  205   7.977  -0.031   4.349  0.2259 -0.2364  0.0411
  727MOL0     C  206   7.884  -0.121   4.308  0.7141  0.5388  0.1121
  727MOL0     C  207   7.889  -0.231   4.386 -0.2583 -0.6761  0.1279
  727MOL0     C  208   7.800  -0.348   4.399 -0.0138  0.3831  0.5010
  727MOL0     C  209   7.863  -0.482   4.399  0.3187  0.0935  0.1861
  727MOL0     C  210   7.773  -0.606   4.403  0.5409 -0.1362  0.1735
  727MOL0     C  211   7.838  -0.729   4.436 -0.2872 -0.0391 -0.0504
  727MOL0     O  212   7.749  -0.846   4.444  0.2111 -0.0857 -0.4177
  727MOL0     C  213   7.708  -0.900   4.328  0.9649 -0.0905 -0.0282
  727MOL0     C  214   7.623  -1.012   4.333  0.3696 -0.8479 -0.2381
  727MOL0     C  215   7.590  -1.090   4.218  0.6649 -0.0971 -0.0843
  727MOL0     C  216   7.503  -1.214   4.259 -1.1562 -0.3436  0.9126
  727MOL0     C  217   7.620  -1.046   4.090  0.8030 -1.2619  0.2012
  727MOL0     C  218   7.567  -1.098   3.970  1.5532 -0.8196  0.3793
  727MOL0     O  219   7.440  -1.164   3.973 -0.5489  0.0246 -0.4152
  727MOL0     C  220   7.405  -1.249   3.865 -0.4099  0.5244  0.0850
  727MOL0     C  221   7.270  -1.253   3.829 -0.8103 -0.0799 -0.4495
  727MOL0     C  222   7.221  -1.340   3.735  0.5125 -0.3466  0.1799
  727MOL0     C  223   7.305  -1.434   3.679 -0.3345  0.4521 -0.1763
  727MOL0     O  224   7.284  -1.521   3.582  0.2787  0.3240 -0.3593
  727MOL0     C  225   7.153  -1.559   3.539 -0.4885 -0.4410 -0.1901
  727MOL0     C  226   7.161  -1.635   3.401 -0.2170 -0.1784  0.0033
  727MOL0     C  227   7.020  -1.678   3.365  1.5258 -0.3947  0.3336
  727MOL0     C  228   6.971  -1.794   3.446 -0.5064  0.1834 -0.7327
  727MOL0     C  229   6.871  -1.878   3.373  0.8159  0.2542 -0.4350
  727MOL0     C  230   6.933  -1.981   3.283 -0.7918  0.1036  0.5864
  727MOL0     C  231   6.896  -1.964   3.143  0.6821  0.7140  0.4530
  727MOL0     C  232   6.896  -2.081   3.051  0.2846 -0.2260 -0.1315
  727MOL0    Cl  233   7.055  -2.151   3.015  0.1041 -0.3551  0.2238
  727MOL0     C  234   7.445  -1.431   3.713  0.0746 -0.4805  0.1283
  727MOL0     C  235   7.491  -1.336   3.803  0.5117  0.9796  0.3391
  727MOL0     O  236   7.641  -1.106   3.873  0.3046 -0.2503  0.1910
  727MOL0     C  237   7.703  -0.932   4.084 -1.0152  0.0872 -0.0285
  727MOL0     C  238   7.746  -0.859   4.196  1.0073  0.6120  0.1169
  727MOL0     N  239   8.001  -0.206   4.465 -0.2869 -1.2525 -0.6073
  727MOL0     N  240   8.049  -0.089   4.445  0.1243 -1.4704 -0.3228
  727MOL0     C  241   8.643   0.220   4.778 -0.1008  0.3146 -0.4169
  727MOL0     C  242   8.743   0.149   4.841 -0.0145 -0.2190 -0.4314
  727MOL0     C  243   9.059  -0.002   5.057  0.7674 -0.7009 -0.1592
  727MOL0     C  244   9.003  -0.126   5.044 -0.2229  0.4269 -0.1980
  727MOL0     C  245   9.050  -0.227   5.123  0.2834  0.1037  0.8223
  727MOL0     C  246   9.144  -0.204   5.229 -0.6642  0.5186 -0.1425
  727MOL0     O  247   9.198  -0.302   5.311  0.7387 -0.1524 -0.3068
  727MOL0     C  248   9.127  -0.410   5.382 -0.2647 -0.6709  0.0980
  727MOL0     C  249   9.195  -0.410   5.517 -0.1251  0.1493 -0.1224
  727MOL0     C  250   9.142  -0.503   5.624  0.8794  0.0474  0.0589
  727MOL0     C  251   9.220  -0.481   5.753 -0.1858  1.0098  0.8060
  727MOL0     C  252   9.212  -0.589   5.850  0.6179  0.3695 -0.4780
  727MOL0     C  253   9.218  -0.683   5.935  0.0301 -0.1570 -0.9082
  727MOL0     C  254   9.206  -0.081   5.232 -0.2243  0.1754  0.3989
  727MOL0     C  255   9.175   0.017   5.139 -0.1028  0.0102 -0.7668
  727MOL0     C  256   9.257   0.143   5.138 -0.1723 -0.2428 -0.1383
  727MOL0     H  257   8.987   0.229   4.616  0.0383  2.6327  1.7222
  727MOL0     H  258   8.814   0.354   4.519 -1.3136 -0.0712 -0.7824
  727MOL0     H  259   8.624   0.426   4.435 -1.4579 -0.5492 -0.2832
  727MOL0     H  260   8.642   0.539   4.570 -0.0963  0.5409  0.0495
  727MOL0     H  261   8.394   0.551   4.594  1.8268 -0.3616  0.4606
  727MOL0     H  262   8.460   0.626   4.442  0.7617  0.4876  0.8597
  727MOL0     H  263   8.365   0.424   4.312 -0.4230 -0.2643 -0.2962
  727MOL0     H  264   8.334   0.338   4.469  1.3279 -0.7096 -1.3635
  727MOL0     H  265   8.173   0.503   4.530  1.9351 -2.3704  0.0510
  727MOL0     H  266   8.195   0.590   4.380 -0.4624 -0.4552 -1.1754
  727MOL0     H  267   8.147   0.348   4.272  2.8192  0.3674 -0.0649
  727MOL0     H  268   8.007   0.447   4.335 -0.8606 -0.0091  3.5210
  727MOL0     H  269   8.135   0.225   4.465 -0.6454 -0.9368 -2.3890
  727MOL0     H  270   7.990   0.318   4.544 -4.4389  0.3850 -2.4809
  727MOL0     H  271   7.875   0.277   4.327  2.1235  0.9203 -1.2613
  727MOL0     H  272   7.871   0.171   4.462 -2.2367  0.6306 -1.7104
  727MOL0     H  273   7.923   0.108   4.205  0.7793  1.1977 -0.8477
  727MOL0     H  274   8.089   0.123   4.259  0.9231 -0.2867  1.9787
  727MOL0     H  275   7.816  -0.106   4.224 -0.1290 -0.5877  0.5792
  727MOL0     H  276   7.728  -0.350   4.316 -1.1067 -1.2375  1.4329
  727MOL0     H  277   7.744  -0.336   4.492  0.9151 -1.1814  1.3008
  727MOL0     H  278   7.921  -0.491   4.307  4.4207 -0.6078  2.5695
  727MOL0     H  279   7.936  -0.480   4.481  1.0690  0.5917 -0.4830
  727MOL0     H  280   7.682  -0.590   4.463  1.5676 -0.9213  2.0219
  727MOL0     H  281   7.732  -0.620   4.303  3.1058 -2.0241 -0.7143
  727MOL0     H  282   7.923  -0.744   4.369  0.8962 -2.4865  1.8379
  727MOL0     H  283   7.883  -0.721   4.535  0.7799 -2.6263 -0.2552
  727MOL0     H  284   7.586  -1.047   4.429 -2.8707  0.9415 -0.6786
  727MOL0     H  285   7.396  -1.194   4.249 -1.5407 -2.2189  0.9582
  727MOL0     H  286   7.520  -1.240   4.364 -1.0836 -2.2029  0.4803
  727MOL0     H  287   7.526  -1.304   4.200  0.1366  1.0168 -0.7792
  727MOL0     H  288   7.210  -1.169   3.864  2.9786  1.7108  2.4954
  727MOL0     H  289   7.118  -1.346   3.704  1.0358  1.0534 -2.0738
  727MOL0     H  290   7.107  -1.624   3.614 -0.4554  1.4867  1.5729
  727MOL0     H  291   7.081  -1.478   3.524  2.2021  2.2713  0.7481
  727MOL0     H  292   7.195  -1.575   3.315 -1.5624 -1.1485 -1.2596
  727MOL0     H  293   7.223  -1.725   3.407  1.5671  0.9858 -0.3297
  727MOL0     H  294   7.011  -1.705   3.259 -2.1425  1.0064  0.1490
  727MOL0     H  295   6.949  -1.596   3.377 -0.2347 -1.8685  0.5332
  727MOL0     H  296   6.922  -1.756   3.537  0.3717 -1.3725  0.4313
  727MOL0     H  297   7.059  -1.855   3.467  0.3551  2.4971  3.6935
  727MOL0     H  298   6.821  -1.940   3.448  2.9632 -1.3895 -0.2566
  727MOL0     H  299   6.800  -1.811   3.323 -1.5652  1.1125  3.5979
  727MOL0     H  300   6.889  -2.076   3.312  0.1384 -0.3309  0.6192
  727MOL0     H  301   7.041  -1.976   3.304 -0.5984  1.9591 -0.5709
  727MOL0     H  302   6.973  -1.903   3.095  1.0986 -2.8924 -4.0976
  727MOL0     H  303   6.794  -1.924   3.140  0.9314  1.3442  0.2770
  727MOL0     H  304   6.868  -2.045   2.952  0.6812 -2.3224 -1.0776
  727MOL0     H  305   6.834  -2.161   3.093  0.8331 -1.1189 -0.9748
  727MOL0     H  306   7.515  -1.500   3.667 -0.1175  0.3116 -1.4139
  727MOL0     H  307   7.593  -1.347   3.839  0.4799  3.4434  1.3677
  727MOL0     H  308   7.746  -0.899   3.989 -1.2393  1.6049  0.3711
  727MOL0     H  309   7.837  -0.800   4.181  1.1758  0.0319 -1.2700
  727MOL0     H  310   8.545   0.207   4.823  0.1283 -0.4775 -0.1328
  727MOL0     H  311   8.731   0.091   4.932  1.2110 -1.7384 -1.1709
  727MOL0     H  312   8.930  -0.144   4.966  0.5179  2.9307 -1.5809
  727MOL0     H  313   9.000  -0.318   5.090 -2.1822  2.1617 -1.6269
  727MOL0     H  314   9.019  -0.402   5.392 -0.1653 -0.8673  1.5967
  727MOL0     H  315   9.155  -0.504   5.333 -1.2204 -2.7242  3.1748
  727MOL0     H  316   9.224  -0.310   5.549  0.6989 -0.4819  1.2113
  727MOL0     H  317   9.299  -0.440   5.499  0.4351  1.3047  1.0502
  727MOL0     H  318   9.035  -0.484   5.639  0.5732 -2.4735  1.7879
  727MOL0     H  319   9.147  -0.604   5.582  1.9324  0.2632 -0.3549
  727MOL0     H  320   9.188  -0.387   5.800 -0.5213  0.6594  1.2843
  727MOL0     H  321   9.324  -0.472   5.719 -0.4094  1.6778  0.2756
  727MOL0     H  322   9.238  -0.759   6.008  3.1316 -0.8351 -2.2672
  727MOL0     H  323   9.284  -0.050   5.301 -0.6466  1.7074  0.2197
  727MOL0     H  324   9.296   0.183   5.044  0.2101 -1.1204 -0.3637
  727MOL0     H  325   9.197   0.216   5.194  0.0739 -2.1995  2.8727
  727MOL0     H  326   9.355   0.118   5.179 -0.3934 -1.1746 -0.1598
  728MOL0     O  327   5.753   4.596   6.196 -0.3933  0.8961  0.8752
  728MOL0     C  328   5.802   4.501   6.129 -0.4609 -0.0334 -0.3727
  728MOL0     O  329   5.932   4.501   6.093 -0.4317  0.3305 -0.1002
  728MOL0     C  330   6.025   4.595   6.119  0.3305  0.2008  0.1152
  728MOL0     C  331   6.107   4.583   6.223 -0.4334  0.0013  0.3399
  728MOL0     C  332   6.194   4.688   6.251 -0.1959  0.7708  0.5375
  728MOL0     C  333   6.190   4.808   6.171 -1.0522 -0.0949 -0.0568
  728MOL0     O  334   6.277   4.913   6.187 -0.9929 -0.1548 -0.6486
  728MOL0     C  335   6.352   4.927   6.316  0.2833 -0.0688  0.4490
  728MOL0     C  336   6.418   5.065   6.336  0.6490 -0.1779 -0.2454
  728MOL0     C  337   6.544   5.088   6.251  0.3314 -0.2892  0.7414
  728MOL0     C  338   6.601   5.216   6.292 -0.5158 -0.9478  0.2908
  728MOL0     C  339   6.745   5.211   6.227 -0.0171 -0.8691  0.2783
  728MOL0     C  340   6.833   5.336   6.271 -0.1847 -0.4298  0.0977
  728MOL0     C  341   6.970   5.338   6.189 -0.5254 -0.7420  0.0787
  728MOL0     C  342   7.082   5.252   6.248  0.7332 -0.5798 -0.1821
  728MOL0     N  343   7.209   5.247   6.183  0.7302  0.4537 -0.6877
  728MOL0     C  344   7.288   5.354   6.155  0.1403 -0.4255 -0.2330
  728MOL0     C  345   7.393   5.317   6.082  0.1322  0.6737 -0.2309
  728MOL0     C  346   7.498   5.402   6.006 -0.7268 -0.9775  0.4385
  728MOL0     C  347   7.542   5.344   5.863  0.6945 -1.1316 -1.5082
  728MOL0     C  348   7.578   5.476   5.784 -0.4031  0.7451  0.0306
  728MOL0     C  349   7.630   5.438   5.644 -0.0247  0.0462 -0.2096
  728MOL0     O  350   7.516   5.381   5.566  1.1313  0.4272 -0.1165
  728MOL0     C  351   7.526   5.252   5.500 -0.0252 -0.1397  0.9414
  728MOL0     C  352   7.640   5.204   5.438  0.2784 -0.6114 -0.6642
  728MOL0     C  353   7.649   5.068   5.390 -0.2686  0.4194  0.2089
  728MOL0     C  354   7.786   5.027   5.333  0.1692 -0.8543 -0.4480
  728MOL0     C  355   7.536   4.985   5.385  0.4618  0.5419 -0.0596
  728MOL0     C  356   7.534   4.845   5.337  0.2884 -0.3077 -0.2479
  728MOL0     O  357   7.426   4.766   5.360  0.8561 -0.6825  0.0947
  728MOL0     C  358   7.437   4.637   5.322  0.5420  0.5473 -0.7658
  728MOL0     C  359   7.462   4.543   5.425  0.3367  0.3726  0.0154
  728MOL0     C  360   7.462   4.412   5.401 -0.1524 -0.5176 -0.1575
  728MOL0     C  361   7.458   4.362   5.271  0.2635  0.1065 -0.3430
  728MOL0     O  362   7.481   4.232   5.228 -0.1233  0.4940  0.4495
  728MOL0     C  363   7.483   4.119   5.312  0.2125  1.0403 -0.1509
  728MOL0     C  364   7.346   4.072   5.329 -0.9060 -0.3988 -0.3625
  728MOL0     C  365   7.319   3.968   5.446  0.1120  0.5402  0.0748
  728MOL0     C  366   7.393   3.836   5.410 -0.5053  0.1967  0.2269
  728MOL0     C  367   7.352   3.725   5.515 -0.0854 -0.4877  0.2334
  728MOL0     C  368   7.416   3.596   5.458 -0.1163  0.7744 -0.3563
  728MOL0     C  369   7.409   3.475   5.562 -0.1656 -0.9613  0.2611
  728MOL0     C  370   7.415   3.341   5.485 -0.5835  0.6281 -0.0523
  728MOL0    Cl  371   7.563   3.322   5.382  0.4294  0.2529 -0.1215
  728MOL0     C  372   7.439   4.452   5.171  0.2100  0.8221 -0.0773
  728MOL0     C  373   7.417   4.593   5.191  0.4529  0.2743  0.4720
  728MOL0     O  374   7.639   4.800   5.287 -0.2426  0.3441  0.1771
  728MOL0     C  375   7.408   5.042   5.432 -0.0445 -0.4539 -0.7135
  728MOL0     C  376   7.417   5.166   5.497  0.2277 -1.1564  0.5659
  728MOL0     N  377   7.381   5.177   6.079 -0.2516 -0.2342  0.2169
  728MOL0     N  378   7.275   5.136   6.150 -0.5209  0.5244  0.2754
  728MOL0     C  379   6.108   4.811   6.058 -0.5110  0.3990  0.4475
  728MOL0     C  380   6.030   4.698   6.035 -0.1763 -0.0495  0.3034
  728MOL0     C  381   5.717   4.396   6.062  0.1807  0.0318 -0.3881
  728MOL0     C  382   5.584   4.430   6.046  0.1541 -0.0395 -0.1867
  728MOL0     C  383   5.493   4.341   6.003 -0.3068 -0.0343  0.5326
  728MOL0     C  384   5.529   4.217   5.956 -0.5466  0.6946  0.7463
  728MOL0     O  385   5.425   4.153   5.896 -0.3205  0.1975 -0.8550
  728MOL0     C  386   5.429   4.013   5.843  0.4073 -0.0923  0.3655
  728MOL0     C  387   5.509   3.998   5.709  0.6248  0.4272 -0.8455
  728MOL0     C  388   5.422   4.065   5.595  0.5356  0.0467 -0.0896
  728MOL0     C  389   5.297   3.993   5.545  0.3353  0.4586  0.9056
  728MOL0     C  390   5.345   3.894   5.449  0.5537  0.1116 -0.3205
  728MOL0     C  391   5.373   3.817   5.360 -0.0693  0.4173 -0.0925
  728MOL0     C  392   5.659   4.171   5.971  0.0977 -0.0939  0.2140
  728MOL0     C  393   5.762   4.261   6.023  0.5161 -0.5300 -0.3161
  728MOL0     C  394   5.906   4.200   6.041  0.5350  0.4578  0.3749
  728MOL0     H  395   6.122   4.486   6.269 -0.0691 -0.8582 -1.5290
  728MOL0     H  396   6.273   4.685   6.325  1.3374  0.9808 -1.0107
  728MOL0     H  397   6.431   4.852   6.321  0.9454  0.6681  1.4946
  728MOL0     H  398   6.283   4.917   6.401 -0.0521 -0.7865  0.1046
  728MOL0     H  399   6.339   5.132   6.304  2.7651  1.4434 -2.4895
  728MOL0     H  400   6.439   5.087   6.441  1.1870 -2.9657  0.3100
  728MOL0     H  401   6.621   5.012   6.266 -0.0092 -0.0392  5.2561
  728MOL0     H  402   6.508   5.099   6.149 -1.1143 -1.4671  1.0857
  728MOL0     H  403   6.535   5.299   6.265 -0.0451 -0.1641  1.4880
  728MOL0     H  404   6.617   5.222   6.400  0.7523 -5.0958  0.5154
  728MOL0     H  405   6.728   5.211   6.118  0.9969  1.0400  0.0620
  728MOL0     H  406   6.793   5.120   6.262 -1.3033 -1.2904  1.0001
  728MOL0     H  407   6.784   5.431   6.247  0.7616 -0.4443 -2.1563
  728MOL0     H  408   6.853   5.344   6.378  2.2861  0.5056 -0.3865
  728MOL0     H  409   6.999   5.443   6.185 -0.9486 -0.5626  1.3519
  728MOL0     H  410   6.953   5.314   6.084 -0.2354  0.9211 -0.3817
  728MOL0     H  411   7.101   5.282   6.351  0.1160  2.5989 -0.8794
  728MOL0     H  412   7.047   5.149   6.261 -0.9272  0.1476  1.5562
  728MOL0     H  413   7.276   5.457   6.187  0.7211 -0.9479  1.8181
  728MOL0     H  414   7.590   5.408   6.064 -0.8238 -1.8704  0.6895
  728MOL0     H  415   7.469   5.507   6.004  3.5048  0.3875 -0.7771
  728MOL0     H  416   7.630   5.281   5.878  0.5585 -0.9688  0.0948
  728MOL0     H  417   7.465   5.283   5.814  2.4449 -2.3950 -2.8387
  728MOL0     H  418   7.490   5.539   5.771  0.6421  2.3124  0.3537
  728MOL0     H  419   7.657   5.535   5.832  1.1934 -0.6789 -0.7327
  728MOL0     H  420   7.657   5.528   5.589 -0.4856  0.5155  0.3207
  728MOL0     H  421   7.727   5.388   5.647  0.9524  1.9196  0.4333
  728MOL0     H  422   7.732   5.262   5.431 -0.2255  0.3912  0.6358
  728MOL0     H  423   7.861   5.106   5.345  0.5101 -1.2030 -0.2194
  728MOL0     H  424   7.765   5.024   5.226  0.5853 -1.0440 -0.5252
  728MOL0     H  425   7.815   4.929   5.372  0.5021 -0.1064  1.2938
  728MOL0     H  426   7.468   4.569   5.531  1.1925  0.2433  0.0076
  728MOL0     H  427   7.484   4.333   5.471  0.0754 -2.7196 -2.5726
  728MOL0     H  428   7.542   4.053   5.247 -1.5150 -0.3040 -0.4173
  728MOL0     H  429   7.534   4.121   5.408 -2.1823 -1.4098  1.3132
  728MOL0     H  430   7.280   4.159   5.341 -1.9432 -1.1116 -0.7431
  728MOL0     H  431   7.312   4.036   5.232 -2.4744  3.5633 -1.4664
  728MOL0     H  432   7.212   3.951   5.460  0.1698 -1.7486 -1.5866
  728MOL0     H  433   7.375   4.000   5.535  1.9266  1.2507 -1.2700
  728MOL0     H  434   7.501   3.854   5.401 -0.2667  0.8706  3.4175
  728MOL0     H  435   7.362   3.807   5.309 -0.2688  1.7899 -0.3449
  728MOL0     H  436   7.383   3.748   5.617  1.8949  0.8618 -0.5948
  728MOL0     H  437   7.243   3.720   5.524 -0.2636  3.7396  3.2772
  728MOL0     H  438   7.520   3.627   5.443 -0.0282 -0.1623 -1.8503
  728MOL0     H  439   7.380   3.558   5.362 -1.4149 -2.9265  1.4397
  728MOL0     H  440   7.305   3.468   5.594 -0.5516 -2.9960 -1.2173
  728MOL0     H  441   7.474   3.487   5.649  0.1627 -0.9511  0.0167
  728MOL0     H  442   7.320   3.327   5.432 -1.9743  1.2745  2.1217
  728MOL0     H  443   7.434   3.264   5.560 -3.0243  0.2415  0.2365
  728MOL0     H  444   7.441   4.421   5.067  0.6247  3.5365 -0.9549
  728MOL0     H  445   7.396   4.666   5.114 -1.4750 -2.2339 -1.5705
  728MOL0     H  446   7.321   4.977   5.435 -0.4408  0.0131  2.9988
  728MOL0     H  447   7.327   5.177   5.557 -0.3512 -1.1478 -0.2781
  728MOL0     H  448   6.106   4.900   5.996 -1.8646  1.2151  1.6206
  728MOL0     H  449   5.957   4.701   5.955  0.3364 -0.9845 -0.2214
  728MOL0     H  450   5.554   4.527   6.085  1.1941  0.7426 -1.2834
  728MOL0     H  451   5.389   4.364   5.984  0.5037  0.2305 -5.3909
  728MOL0     H  452   5.491   3.961   5.916  1.3773  1.1916  0.4974
  728MOL0     H  453   5.332   3.963   5.844  1.2426 -1.9561 -1.6441
  728MOL0     H  454   5.517   3.890   5.693  0.9436 -0.9533  5.8764
  728MOL0     H  455   5.605   4.048   5.703  1.5382 -0.9412  1.1653
  728MOL0     H  456   5.387   4.161   5.633 -2.1596  0.3707 -2.9720
  728MOL0     H  457   5.480   4.081   5.504 -2.4670 -2.3247 -2.6808
  728MOL0     H  458   5.233   4.060   5.486 -0.2692 -0.1169  0.8968
  728MOL0     H  459   5.235   3.966   5.631  0.8698 -1.8265  0.6411
  728MOL0     H  460   5.396   3.744   5.285 -1.6148  0.0185 -0.2062
  728MOL0     H  461   5.688   4.070   5.945  4.1333  0.1894  2.6654
  728MOL0     H  462   5.970   4.187   5.953 -0.3985 -5.3839  0.1985
  728MOL0     H  463   5.963   4.256   6.116  0.1681 -1.5939  2.2848
  728MOL0     H  464   5.893   4.101   6.086 -0.4744 -0.0915 -1.0633
  729MOL0     O  465  10.820   5.762   2.985  0.5227  0.3816  0.3323
  729MOL0     C  466  10.788   5.733   3.098 -0.2451  0.4560  0.7631
  729MOL0     O  467  10.811   5.612   3.155 -0.2409 -0.6639 -0.9777
  729MOL0     C  468  10.880   5.518   3.089 -0.1613  0.4191  0.2531
  729MOL0     C  469  10.811   5.394   3.068 -0.0870 -0.1874 -0.0529
  729MOL0     C  470  10.884   5.289   3.003 -0.1302  0.5931  0.0384
  729MOL0     C  471  11.022   5.297   2.965  0.5291  0.2566 -0.5346
  729MOL0     O  472  11.080   5.183   2.915  0.1050 -0.2105  0.0538
  729MOL0     C  473  11.208   5.185   2.853  0.1032 -0.3020 -0.7371
  729MOL0     C  474  11.227   5.256   2.719 -0.1310  0.2949  0.0288
  729MOL0     C  475  11.361   5.254   2.657 -0.5988  1.0697  0.7784
  729MOL0     C  476  11.402   5.118   2.592 -0.1788  0.4168 -0.3332
  729MOL0     C  477  11.538   5.130   2.530 -1.5212  0.3583  0.0755
  729MOL0     C  478  11.540   5.209   2.400 -0.5755  0.2857  0.7615
  729MOL0     C  479  11.664   5.177   2.313  0.2021  0.3690  0.2770
  729MOL0     C  480  11.658   5.219   2.171 -0.3085  1.1846 -0.1634
  729MOL0     N  481  11.771   5.170   2.084 -0.2371 -0.1791 -0.8084
  729MOL0     C  482  11.893   5.228   2.094 -0.4425  0.5672  0.3188
  729MOL0     C  483  11.975   5.135   2.046  0.2716 -0.9136  0.1011
  729MOL0     C  484  12.122   5.147   2.033  0.8949 -0.1248  0.4662
  729MOL0     C  485  12.165   5.115   1.887  0.2966 -0.0696  0.2446
  729MOL0     C  486  12.309   5.149   1.868 -0.3416  0.4714  1.1156
  729MOL0     C  487  12.394   5.060   1.953 -0.4350  0.3411 -0.0725
  729MOL0     O  488  12.532   5.082   1.939 -0.0452 -0.3356 -0.4151
  729MOL0     C  489  12.591   5.189   1.999  0.3986 -0.4585 -0.7720
  729MOL0     C  490  12.619   5.299   1.920  0.8693  0.6894  0.9804
  729MOL0     C  491  12.667   5.413   1.973 -0.2287 -0.2900 -0.4234
  729MOL0     C  492  12.675   5.530   1.870 -0.1402  0.9751 -0.2511
  729MOL0     C  493  12.696   5.414   2.120 -0.2530  0.4248 -0.1566
  729MOL0     C  494  12.743   5.538   2.186  0.3570 -0.3775 -0.5071
  729MOL0     O  495  12.722   5.553   2.326 -0.4289 -0.4476  0.5146
  729MOL0     C  496  12.804   5.637   2.390  0.9472  0.0777  0.6306
  729MOL0     C  497  12.942   5.626   2.401  0.1212 -0.0817  0.0881
  729MOL0     C  498  13.020   5.728   2.448  0.1141  0.0270 -0.0628
  729MOL0     C  499  12.963   5.828   2.518  0.7125 -1.3416  0.7395
  729MOL0     O  500  13.020   5.917   2.599  1.2305  0.3960  0.6858
  729MOL0     C  501  13.157   5.887   2.635  0.7753 -0.1955  0.0515
  729MOL0     C  502  13.194   5.980   2.752 -0.2070 -0.1777  0.2117
  729MOL0     C  503  13.311   5.929   2.835 -0.3296 -0.7085 -0.1400
  729MOL0     C  504  13.437   5.936   2.741  0.4581  1.2095 -0.4597
  729MOL0     C  505  13.563   5.871   2.809  0.0331 -0.4596  1.1574
  729MOL0     C  506  13.688   5.885   2.714  0.0096 -0.6622 -0.0360
  729MOL0     C  507  13.819   5.874   2.795 -0.1411 -0.3748 -0.5097
  729MOL0     C  508  13.859   5.995   2.879  1.1942  0.0482 -0.3778
  729MOL0    Cl  509  14.019   5.951   2.949 -0.5632  0.4289  0.1977
  729MOL0     C  510  12.825   5.848   2.509  0.0316 -0.5736 -0.3821
  729MOL0     C  511  12.751   5.751   2.435 -0.3299 -0.1072 -0.5679
  729MOL0     O  512  12.803   5.619   2.115  0.0843  0.4002  0.2286
  729MOL0     C  513  12.677   5.301   2.199  0.4021 -0.1059  0.1670
  729MOL0     C  514  12.628   5.186   2.134  0.9326 -0.3760  0.0840
  729MOL0     N  515  11.902   5.024   2.000  0.7411 -0.2702 -0.6277
  729MOL0     N  516  11.777   5.040   2.034  0.3107 -0.0511  0.0666
  729MOL0     C  517  11.079   5.421   3.004 -0.1008  0.0339  0.9857
  729MOL0     C  518  11.012   5.530   3.058  0.1635  0.0161  0.1773
  729MOL0     C  519  10.731   5.845   3.182  0.4543 -0.8846 -0.0920
  729MOL0     C  520  10.787   5.974   3.151 -0.9167  0.4624 -0.0587
  729MOL0     C  521  10.772   6.077   3.243 -0.6908 -0.9671  0.6611
  729MOL0     C  522  10.675   6.076   3.344  0.4337 -1.2069  0.8364
  729MOL0     O  523  10.631   6.185   3.413  0.4312  0.7509  0.1548
  729MOL0     C  524  10.649   6.319   3.358 -0.5987  0.3715  0.3444
  729MOL0     C  525  10.537   6.418   3.385 -0.5874  0.2209 -0.6862
  729MOL0     C  526  10.400   6.388   3.326  0.7723 -0.1738 -0.1970
  729MOL0     C  527  10.293   6.485   3.370 -0.3049  0.4389  0.1914
  729MOL0     C  528  10.251   6.466   3.500  0.7257 -0.8200  0.4957
  729MOL0     C  529  10.199   6.444   3.610  0.9755 -1.3944  0.1694
  729MOL0     C  530  10.609   5.960   3.359  0.4802 -0.2104 -0.4241
  729MOL0     C  531  10.635   5.840   3.288 -0.1518 -0.4252 -0.2363
  729MOL0     C  532  10.563   5.715   3.325  0.0176  0.1144  0.3386
  729MOL0     H  533  10.707   5.387   3.099  0.0517 -2.2262  0.1380
  729MOL0     H  534  10.825   5.200   2.982  0.5530 -0.0109  0.6379
  729MOL0     H  535  11.227   5.078   2.838 -0.0982 -0.8071  2.0211
  729MOL0     H  536  11.276   5.237   2.921 -2.9990  0.4724  2.0532
  729MOL0     H  537  11.160   5.203   2.650 -1.3761 -1.7092  2.6171
  729MOL0     H  538  11.200   5.362   2.722  2.8489  1.1925 -1.2817
  729MOL0     H  539  11.363   5.332   2.581  3.2133 -0.9278 -1.4500
  729MOL0     H  540  11.442   5.273   2.728  2.0334 -3.0441 -0.7387
  729MOL0     H  541  11.410   5.036   2.665  1.5048  0.0348 -0.8974
  729MOL0     H  542  11.333   5.084   2.514  1.4984 -0.6074 -1.4291
  729MOL0     H  543  11.564   5.025   2.515  0.7076  1.0995 -1.9919
  729MOL0     H  544  11.606   5.177   2.601 -1.8822 -1.8484  2.0180
  729MOL0     H  545  11.448   5.195   2.342 -0.5966 -2.6448  1.3828
  729MOL0     H  546  11.533   5.315   2.428  1.1202  0.3820  0.9007
  729MOL0     H  547  11.671   5.068   2.313 -2.9181  0.0314 -2.1941
  729MOL0     H  548  11.755   5.222   2.354  1.0230 -1.5318  0.6961
  729MOL0     H  549  11.560   5.187   2.134  0.1915 -0.8662  0.1626
  729MOL0     H  550  11.659   5.328   2.171 -1.1558  1.2555  2.5332
  729MOL0     H  551  11.942   5.324   2.109  0.8844  0.7467 -3.7319
  729MOL0     H  552  12.159   5.073   2.105 -0.7810  0.4497  2.0202
  729MOL0     H  553  12.153   5.244   2.071 -0.1312 -0.2098  1.5951
  729MOL0     H  554  12.137   5.012   1.865  2.3534 -0.4596 -0.7846
  729MOL0     H  555  12.113   5.167   1.805 -0.6926 -2.6448 -0.8721
  729MOL0     H  556  12.325   5.139   1.760 -1.9286  1.0930  0.7983
  729MOL0     H  557  12.333   5.249   1.905  0.7095  0.5493  0.2523
  729MOL0     H  558  12.376   5.067   2.060 -1.1873  0.1970 -0.1823
  729MOL0     H  559  12.375   4.957   1.921 -1.7513  0.4727  0.2516
  729MOL0     H  560  12.592   5.283   1.816  2.4191 -5.7387  1.1501
  729MOL0     H  561  12.591   5.600   1.879 -1.7380 -1.0443  1.9056
  729MOL0     H  562  12.682   5.490   1.768 -0.3817 -0.0389  0.1099
  729MOL0     H  563  12.769   5.585   1.882 -0.1928  0.8566  0.7862
  729MOL0     H  564  12.984   5.542   2.346  1.5021  1.0460 -0.6289
  729MOL0     H  565  13.122   5.694   2.463 -0.4243 -1.4867  0.3717
  729MOL0     H  566  13.181   5.784   2.664  2.1763  0.3911  1.1397
  729MOL0     H  567  13.216   5.917   2.548  0.0768  0.9705 -0.0430
  729MOL0     H  568  13.220   6.081   2.720  0.1503 -0.1291  0.6422
  729MOL0     H  569  13.102   5.994   2.810 -0.4996 -0.6359 -0.1351
  729MOL0     H  570  13.308   5.831   2.884  1.3525  1.0348  3.9262
  729MOL0     H  571  13.336   5.999   2.916  0.8245 -1.8591  0.5464
  729MOL0     H  572  13.454   6.043   2.723  2.8862  0.8937 -0.2612
  729MOL0     H  573  13.426   5.878   2.649  1.4319 -1.9426  1.2506
  729MOL0     H  574  13.584   5.918   2.905  0.2639  1.4081  0.2556
  729MOL0     H  575  13.543   5.767   2.833 -0.3933 -0.8086 -0.5411
  729MOL0     H  576  13.689   5.987   2.674 -1.6300 -0.7593 -0.4072
  729MOL0     H  577  13.683   5.833   2.618 -1.2727  3.1045 -2.2111
  729MOL0     H  578  13.906   5.846   2.734 -0.6521  1.5293 -2.1940
  729MOL0     H  579  13.808   5.793   2.868  3.1696 -2.1640 -1.7525
  729MOL0     H  580  13.786   6.002   2.960  1.9825 -2.1445  0.6031
  729MOL0     H  581  13.864   6.089   2.824  1.2454  0.9167  1.0557
  729MOL0     H  582  12.768   5.918   2.568  1.3433 -2.2278  3.1555
  729MOL0     H  583  12.644   5.757   2.455  0.0311  0.1228  1.5441
  729MOL0     H  584  12.691   5.313   2.306 -1.9204  0.6543  0.4391
  729MOL0     H  585  12.589   5.097   2.183  1.5704 -1.8935 -2.0311
  729MOL0     H  586  11.184   5.431   2.979 -0.5073 -0.8431 -1.3596
  729MOL0     H  587  11.057   5.628   3.061  2.7184 -1.0890  0.9316
  729MOL0     H  588  10.863   5.983   3.074  0.8661  3.0183  1.8588
  729MOL0     H  589  10.827   6.169   3.226 -0.6241 -0.6852  2.2306
  729MOL0     H  590  10.743   6.355   3.401 -0.7837  1.2706  0.0101
  729MOL0     H  591  10.662   6.303   3.251  0.6237 -0.8238  0.6303
  729MOL0     H  592  10.567   6.521   3.366 -2.4621  1.3032  1.7436
  729MOL0     H  593  10.521   6.408   3.492 -1.2069 -1.1706 -0.8858
  729MOL0     H  594  10.413   6.388   3.217  0.6392 -2.5805 -0.2681
  729MOL0     H  595  10.372   6.288   3.360  1.2842  0.1663  1.2639
  729MOL0     H  596  10.206   6.493   3.304  0.0499  1.8017 -0.1442
  729MOL0     H  597  10.330   6.588   3.377  0.4042  0.2277 -0.3591
  729MOL0     H  598  10.166   6.401   3.702  1.1516 -5.0012 -1.2709
  729MOL0     H  599  10.528   5.959   3.432  0.2981  0.5584 -0.6158
  729MOL0     H  600  10.493   5.724   3.409 -1.0327  1.6980 -0.6758
  729MOL0     H  601  10.522   5.669   3.235 -0.9306 -2.1330  1.8053
  729MOL0     H  602  10.638   5.642   3.360  0.5162  0.7095  0.5373
  730MOL0     O  603   6.281  10.728   6.403 -0.7997  0.5999  0.2638
  730MOL0     C  604   6.213  10.816   6.458 -1.1936  0.3689 -1.5185
  730MOL0     O  605   6.128  10.794   6.556  0.3754 -0.2174  0.3238
  730MOL0     C  606   6.127  10.658   6.600  0.7500 -0.3769  0.1990
  730MOL0     C  607   6.230  10.607   6.673  0.4968  0.5910 -0.1634
  730MOL0     C  608   6.234  10.472   6.717  0.2002  0.2448 -0.6182
  730MOL0     C  609   6.135  10.389   6.674  0.8902 -0.8956  0.1941
  730MOL0     O  610   6.146  10.257   6.713  0.6948 -0.3595 -0.3167
  730MOL0     C  611   6.031  10.169   6.701 -0.0027 -0.6040 -0.6609
  730MOL0     C  612   6.074  10.047   6.779  0.7001  0.0996  0.8462
  730MOL0     C  613   6.085  10.065   6.929 -0.6118  0.3931 -0.1482
  730MOL0     C  614   6.039   9.939   7.005 -0.0829 -0.0496  0.1199
  730MOL0     C  615   6.074   9.967   7.156 -0.1430 -0.6513  0.0498
  730MOL0     C  616   6.223   9.930   7.191 -0.0708  0.3159  0.4244
  730MOL0     C  617   6.253   9.978   7.335 -0.8356 -0.1758  0.3683
  730MOL0     C  618   6.396   9.936   7.378  1.0214 -0.1149  0.2301
  730MOL0     N  619   6.397   9.803   7.432  0.5480  0.2403  0.6558
  730MOL0     C  620   6.395   9.691   7.351 -0.6200  0.5250  0.1345
  730MOL0     C  621   6.409   9.591   7.442  0.5594  0.4479  0.5017
  730MOL0     C  622   6.424   9.450   7.396  0.0529 -0.7821  0.3554
  730MOL0     C  623   6.315   9.359   7.448 -0.0527 -0.3556 -0.2568
  730MOL0     C  624   6.328   9.317   7.594  0.5531  0.1798  0.7461
  730MOL0     C  625   6.200   9.253   7.641  0.7393  0.7646  0.2807
  730MOL0     O  626   6.232   9.170   7.754 -0.1138 -0.8872  0.0135
  730MOL0     C  627   6.131   9.094   7.804  0.4507 -0.6417  0.5221
  730MOL0     C  628   6.155   9.016   7.916 -0.0094 -0.0640  0.0924
  730MOL0     C  629   6.047   8.937   7.973 -0.5237 -0.2011 -0.0217
  730MOL0     C  630   6.069   8.866   8.106  0.2455 -0.1246  0.4759
  730MOL0     C  631   5.920   8.939   7.916  1.0478 -0.8704 -0.5616
  730MOL0     C  632   5.804   8.872   7.967  0.8158 -0.8431 -0.2147
  730MOL0     O  633   5.713   8.853   7.869  0.1161 -0.3869 -0.3110
  730MOL0     C  634   5.611   8.775   7.894  0.1708  0.2235  0.0354
  730MOL0     C  635   5.613   8.635   7.876  0.2951  0.5398  0.0018
  730MOL0     C  636   5.488   8.557   7.883 -0.7991  0.4337  0.9317
  730MOL0     C  637   5.368   8.621   7.917  0.0452  0.2553 -0.2247
  730MOL0     O  638   5.248   8.551   7.928 -0.2319 -0.5681  0.5228
  730MOL0     C  639   5.236   8.475   8.049 -0.2431  0.0328  0.4166
  730MOL0     C  640   5.160   8.564   8.157  0.2212 -0.3015 -0.5353
  730MOL0     C  641   5.078   8.476   8.256 -0.0472 -0.2130  0.3305
  730MOL0     C  642   5.159   8.357   8.324 -0.0420  0.1420 -0.5374
  730MOL0     C  643   5.064   8.288   8.431  0.8032  0.7478  0.5771
  730MOL0     C  644   5.134   8.167   8.494  0.0813  0.1187 -0.0520
  730MOL0     C  645   5.250   8.218   8.588  0.0421 -1.0538  0.5737
  730MOL0     C  646   5.273   8.116   8.698 -0.1456  1.2402 -0.2319
  730MOL0    Cl  647   5.386   8.169   8.834  0.0044  0.1171 -0.0701
  730MOL0     C  648   5.368   8.754   7.934 -0.3482 -0.0864  0.1897
  730MOL0     C  649   5.485   8.832   7.926 -0.0852  0.1959  0.4296
  730MOL0     O  650   5.792   8.848   8.086 -0.1633 -0.3412  0.3348
  730MOL0     C  651   5.904   9.011   7.795 -0.3231  0.0492  0.4161
  730MOL0     C  652   6.011   9.072   7.736  0.5165 -0.0269 -0.0291
  730MOL0     N  653   6.423   9.642   7.576  0.4290  0.2962  0.5239
  730MOL0     N  654   6.399   9.770   7.562  0.8954  0.0340  1.0659
  730MOL0     C  655   6.026  10.442   6.597 -0.2708 -0.0905  0.4657
  730MOL0     C  656   6.021  10.574   6.569 -0.9238 -0.0379  0.0993
  730MOL0     C  657   6.231  10.953   6.406  0.2623  0.7605  0.7035
  730MOL0     C  658   6.177  11.054   6.479  0.0523 -0.4508  0.2004
  730MOL0     C  659   6.191  11.191   6.440 -0.4432 -0.0022  0.2812
  730MOL0     C  660   6.266  11.224   6.329 -1.9816 -0.3762  0.0077
  730MOL0     O  661   6.276  11.353   6.280  0.2782 -0.2234 -0.1247
  730MOL0     C  662   6.221  11.467   6.352  0.4422  0.1327  0.4841
  730MOL0     C  663   6.285  11.503   6.478  0.0422 -0.9873 -0.5791
  730MOL0     C  664   6.207  11.595   6.565  0.6681  0.7268  0.0613
  730MOL0     C  665   6.194  11.741   6.510  0.6427  0.4663 -0.1256
  730MOL0     C  666   6.122  11.826   6.608 -0.4908 -0.4397  0.3770
  730MOL0     C  667   6.085  11.900   6.693  0.0505  0.6797  0.2464
  730MOL0     C  668   6.329  11.124   6.258 -0.1850 -0.1208 -0.1812
  730MOL0     C  669   6.316  10.993   6.294  0.0706  0.2033 -0.8348
  730MOL0     C  670   6.407  10.911   6.210  0.2755  1.1261 -0.0801
  730MOL0     H  671   6.315  10.666   6.705  0.2572  0.6047  0.4449
  730MOL0     H  672   6.305  10.438   6.793  0.2198  1.2130 -0.1827
  730MOL0     H  673   6.031  10.149   6.593 -0.5096  3.0170 -1.4351
  730MOL0     H  674   5.939  10.206   6.748  1.4774 -1.3091  3.1753
  730MOL0     H  675   5.997   9.972   6.760 -2.8688  3.5562  0.2652
  730MOL0     H  676   6.167  10.005   6.738 -2.1573 -3.3819 -2.8014
  730MOL0     H  677   6.183  10.094   6.967 -0.5442  1.9054 -1.3775
  730MOL0     H  678   6.009  10.141   6.951 -1.7840 -1.1234  1.2899
  730MOL0     H  679   5.933   9.923   6.982 -0.8638  3.4215  0.5994
  730MOL0     H  680   6.086   9.848   6.966 -0.2670 -0.5999  1.1626
  730MOL0     H  681   6.015   9.907   7.225 -1.2892  1.6759  1.1869
  730MOL0     H  682   6.044  10.070   7.175 -0.6990 -0.7001 -0.5509
  730MOL0     H  683   6.225   9.820   7.190 -0.4039  0.0942  4.9273
  730MOL0     H  684   6.298   9.960   7.118 -0.5231  2.1117  0.6570
  730MOL0     H  685   6.183   9.930   7.404 -1.1349 -2.9284 -1.6927
  730MOL0     H  686   6.246  10.088   7.339  0.5434 -0.0939  1.2700
  730MOL0     H  687   6.467   9.953   7.297  1.0730 -1.8501 -0.1103
  730MOL0     H  688   6.422  10.003   7.461 -1.3654  0.5920  0.5019
  730MOL0     H  689   6.409   9.689   7.244  1.7111  1.6546  0.3683
  730MOL0     H  690   6.523   9.425   7.434  1.0679  0.6759 -1.2015
  730MOL0     H  691   6.427   9.447   7.287 -0.1129  1.5527  0.2317
  730MOL0     H  692   6.220   9.414   7.444  0.1832  0.1411  0.8258
  730MOL0     H  693   6.307   9.270   7.384 -0.7835 -0.0104 -0.6604
  730MOL0     H  694   6.403   9.238   7.601  0.9188  0.3919 -0.5551
  730MOL0     H  695   6.358   9.403   7.655  0.7222 -0.9445  2.3096
  730MOL0     H  696   6.118   9.326   7.643  1.2036  1.3778 -1.3978
  730MOL0     H  697   6.173   9.183   7.562  0.8948 -1.3335  2.0133
  730MOL0     H  698   6.253   9.015   7.964 -0.2603  2.0962  0.7655
  730MOL0     H  699   6.017   8.911   8.192  1.1385 -2.0354  2.1041
  730MOL0     H  700   6.177   8.857   8.121  0.3260 -0.9287 -0.5358
  730MOL0     H  701   6.034   8.763   8.097  0.2757 -0.1340  0.4665
  730MOL0     H  702   5.710   8.587   7.864 -0.6076 -1.0754 -1.0781
  730MOL0     H  703   5.494   8.450   7.870  1.0412  0.7223 -1.6255
  730MOL0     H  704   5.193   8.376   8.039  1.8528 -0.8747 -0.2337
  730MOL0     H  705   5.337   8.455   8.086 -0.4679 -1.4253  0.2892
  730MOL0     H  706   5.242   8.608   8.215 -1.7768 -0.6903  2.8133
  730MOL0     H  707   5.087   8.636   8.118 -1.1241 -0.0198  2.2910
  730MOL0     H  708   4.991   8.430   8.208  1.1322 -1.2360 -0.9141
  730MOL0     H  709   5.039   8.535   8.340 -2.5495 -1.0709 -0.1335
  730MOL0     H  710   5.250   8.399   8.368  1.8245  0.9310 -4.7336
  730MOL0     H  711   5.192   8.293   8.242  2.5452  2.9100 -1.8759
  730MOL0     H  712   5.026   8.358   8.506 -0.0668  0.3882  0.4908
  730MOL0     H  713   4.971   8.253   8.384  0.0186  0.0658  2.5307
  730MOL0     H  714   5.182   8.106   8.417  0.5049  1.2214 -0.6893
  730MOL0     H  715   5.053   8.106   8.537 -0.7304 -1.4995 -3.5260
  730MOL0     H  716   5.224   8.317   8.627  1.9850 -0.1912 -0.1392
  730MOL0     H  717   5.343   8.246   8.537 -0.2268  0.4435  0.8623
  730MOL0     H  718   5.313   8.023   8.657 -0.3772  1.1099 -0.1640
  730MOL0     H  719   5.176   8.104   8.747 -0.0480  2.4481  0.2716
  730MOL0     H  720   5.269   8.795   7.949 -0.0014  0.7391  0.2497
  730MOL0     H  721   5.478   8.940   7.918 -0.0735  0.2062  0.5783
  730MOL0     H  722   5.808   9.022   7.746  0.0725 -0.0513 -0.3872
  730MOL0     H  723   5.997   9.110   7.636  2.6189  1.2820  0.1128
  730MOL0     H  724   5.948  10.375   6.565  1.3983 -1.7388 -0.3034
  730MOL0     H  725   5.939  10.607   6.506  0.8921  0.4602 -2.1438
  730MOL0     H  726   6.115  11.033   6.565  0.6008  2.1507  1.3320
  730MOL0     H  727   6.140  11.268   6.497 -0.3209  1.5891 -1.6387
  730MOL0     H  728   6.242  11.550   6.283  0.5333  0.7753  1.2742
  730MOL0     H  729   6.112  11.463   6.360  0.2706 -0.8185 -1.6117
  730MOL0     H  730   6.380  11.556   6.461  1.3733 -2.1657  2.4806
  730MOL0     H  731   6.296  11.412   6.538  1.0088  0.6394  1.8728
  730MOL0     H  732   6.108  11.549   6.577  1.9051 -1.7608  1.3284
  730MOL0     H  733   6.254  11.606   6.663 -1.0314  3.6830  0.6812
  730MOL0     H  734   6.137  11.736   6.417  1.1374  3.0774 -0.6384
  730MOL0     H  735   6.292  11.781   6.486  1.8646 -0.8774  2.2195
  730MOL0     H  736   6.067  11.982   6.759 -4.2333  0.9203 -0.8782
  730MOL0     H  737   6.398  11.152   6.179 -0.3380 -1.9104 -0.9874
  730MOL0     H  738   6.350  10.821   6.189 -2.6133  2.1618  2.5711
  730MOL0     H  739   6.433  10.949   6.110 -2.5979  1.8669 -0.6349
  730MOL0     H  740   6.497  10.893   6.270  0.6396  3.3651  0.1268
  731MOL0     O  741   5.176   2.558   9.469  0.2591 -0.1444 -0.5583
  731MOL0     C  742   5.057   2.599   9.452 -0.0075 -0.3361  0.9373
  731MOL0     O  743   5.033   2.728   9.414  0.2839  0.9902  0.0078
  731MOL0     C  744   5.132   2.799   9.359 -0.6563 -0.3053 -0.3358
  731MOL0     C  745   5.205   2.761   9.244  0.2452  0.8787 -0.6290
  731MOL0     C  746   5.298   2.826   9.181  0.8449 -1.1011 -0.2599
  731MOL0     C  747   5.323   2.960   9.227 -0.5934 -0.9448 -0.8580
  731MOL0     O  748   5.424   3.011   9.145  0.3039  0.3781 -0.4624
  731MOL0     C  749   5.502   3.119   9.194  0.4855  0.6416 -0.1016
  731MOL0     C  750   5.625   3.143   9.101 -0.5769 -0.1028  0.8288
  731MOL0     C  751   5.702   3.012   9.067 -0.1131  0.1898 -0.3145
  731MOL0     C  752   5.790   2.963   9.183  0.8466 -0.7829  0.3290
  731MOL0     C  753   5.891   2.864   9.128 -0.7975  0.0308  0.5073
  731MOL0     C  754   5.816   2.738   9.069  0.6447 -0.2775 -0.3861
  731MOL0     C  755   5.696   2.682   9.156 -0.1849 -0.2443 -0.0280
  731MOL0     C  756   5.748   2.574   9.247 -0.0512  0.6371 -0.6013
  731MOL0     N  757   5.812   2.629   9.366 -0.4925  1.0955 -0.5699
  731MOL0     C  758   5.746   2.666   9.480 -0.0363  0.6414  0.1276
  731MOL0     C  759   5.838   2.710   9.563 -0.2743  0.8296  0.4058
  731MOL0     C  760   5.842   2.804   9.680 -0.9172 -0.6945 -0.7778
  731MOL0     C  761   5.732   2.812   9.774  0.6063  0.6578 -0.9137
  731MOL0     C  762   5.737   2.952   9.837  0.4645 -0.1967  0.5294
  731MOL0     C  763   5.801   2.949   9.976 -0.3976 -0.3873  0.3173
  731MOL0     O  764   5.769   3.071  10.045  0.2364 -0.2296 -0.2107
  731MOL0     C  765   5.856   3.116  10.140 -0.7925 -0.3506  0.9397
  731MOL0     C  766   5.955   3.041  10.194  0.4455 -0.5582  1.0424
  731MOL0     C  767   6.010   3.075  10.317 -0.1008  0.0507  0.0340
  731MOL0     C  768   6.106   2.976  10.368 -0.5879  0.4253  0.6016
  731MOL0     C  769   5.988   3.203  10.374  0.0266  0.3765 -0.3523
  731MOL0     C  770   6.034   3.261  10.505  1.0311  1.0101  0.1118
  731MOL0     O  771   6.036   3.170  10.607 -0.1991 -0.0131 -0.4371
  731MOL0     C  772   6.072   3.212  10.731 -0.8708 -0.3782  0.3923
  731MOL0     C  773   5.998   3.285  10.819 -0.6178  0.1360  0.5751
  731MOL0     C  774   6.040   3.311  10.947 -0.0961 -0.1464 -0.4702
  731MOL0     C  775   6.171   3.280  10.990 -1.1536 -0.2087  0.0078
  731MOL0     O  776   6.227   3.310  11.116 -0.2885 -0.1860 -0.8781
  731MOL0     C  777   6.160   3.412  11.191  0.0022 -0.0529  0.2544
  731MOL0     C  778   6.239   3.444  11.324  0.3680  0.4534 -0.4038
  731MOL0     C  779   6.158   3.557  11.391 -0.6813  0.2426 -1.5866
  731MOL0     C  780   6.193   3.594  11.539 -0.5351  0.3306 -0.2320
  731MOL0     C  781   6.141   3.491  11.635  0.2597 -0.6380 -0.4288
  731MOL0     C  782   6.163   3.537  11.784 -0.2842  0.7622 -0.0449
  731MOL0     C  783   6.131   3.430  11.896  0.4972  0.8061 -0.3388
  731MOL0     C  784   6.125   3.472  12.042 -0.0412 -0.5206  0.0430
  731MOL0    Cl  785   6.272   3.560  12.099  0.1506 -0.6208  0.4256
  731MOL0     C  786   6.251   3.210  10.904 -0.2196 -0.5576 -0.2921
  731MOL0     C  787   6.208   3.182  10.771  0.4961  0.0556  0.1048
  731MOL0     O  788   6.065   3.380  10.510 -0.0903  1.1237  0.0444
  731MOL0     C  789   5.904   3.294  10.308  0.1171  0.9156 -0.4367
  731MOL0     C  790   5.840   3.250  10.188 -0.4703  0.2104 -0.5027
  731MOL0     N  791   5.963   2.668   9.513  0.5449  0.1132  0.3681
  731MOL0     N  792   5.944   2.610   9.392  0.1255 -0.2070  0.2259
  731MOL0     C  793   5.253   3.018   9.334  0.6189  0.8392 -0.0580
  731MOL0     C  794   5.157   2.934   9.408 -0.2181  0.4769 -0.3158
  731MOL0     C  795   4.948   2.510   9.481  0.0108 -0.7091  0.1192
  731MOL0     C  796   4.759   2.575   9.416 -0.8975  1.0005 -0.5553
  731MOL0     C  797   4.601   2.447   9.415  0.2179 -0.4347 -0.0171
  731MOL0     C  798   4.618   2.246   9.490 -0.7088 -0.4785  0.8408
  731MOL0     O  799   4.515   2.157   9.501  0.7257 -0.1861  0.5105
  731MOL0     C  800   4.385   2.202   9.461 -0.3088 -0.2818  0.8336
  731MOL0     C  801   4.379   2.163   9.307  0.2078 -0.3574 -0.1922
  731MOL0     C  802   4.422   2.022   9.273 -0.3084  0.2590 -0.1648
  731MOL0     C  803   4.355   1.915   9.361  0.7266  0.3171  0.5549
  731MOL0     C  804   4.376   1.768   9.322  0.2310  0.4272  0.1220
  731MOL0     C  805   4.369   1.651   9.287  0.8217 -0.1351  0.1609
  731MOL0     C  806   4.813   2.174   9.549 -0.2551 -0.0666  0.3172
  731MOL0     C  807   4.977   2.311   9.544  0.0183  0.1126 -0.7411
  731MOL0     C  808   5.110   2.266   9.588  0.0337 -0.7319  0.3762
  731MOL0     H  809   5.180   2.660   9.214  0.5975  0.3000  0.9265
  731MOL0     H  810   5.342   2.783   9.092  1.3716 -0.1857 -0.4605
  731MOL0     H  811   5.540   3.099   9.295  2.7751  1.9009 -0.6253
  731MOL0     H  812   5.433   3.204   9.192  0.7171  0.8162 -0.7648
  731MOL0     H  813   5.586   3.197   9.014 -1.2577  0.0075  1.1977
  731MOL0     H  814   5.697   3.204   9.156  1.1687 -1.8671  0.6238
  731MOL0     H  815   5.628   2.935   9.044  1.5451 -0.6145 -3.4850
  731MOL0     H  816   5.748   3.033   8.970  0.1719  0.8498 -0.0412
  731MOL0     H  817   5.854   3.047   9.213 -1.4082  0.6354  1.4888
  731MOL0     H  818   5.735   2.926   9.269 -0.7848  2.8907  1.0856
  731MOL0     H  819   5.947   2.840   9.220 -2.4747 -1.3434  1.2191
  731MOL0     H  820   5.948   2.901   9.042 -1.0002 -1.6176 -0.3848
  731MOL0     H  821   5.778   2.765   8.970  0.9924  1.3799 -0.0975
  731MOL0     H  822   5.900   2.669   9.054  1.7329  0.6498  1.1193
  731MOL0     H  823   5.618   2.648   9.087 -0.3524  1.4249 -0.7110
  731MOL0     H  824   5.644   2.757   9.217  3.0893  1.3661  1.0273
  731MOL0     H  825   5.667   2.521   9.296  0.9130 -0.1136  0.2167
  731MOL0     H  826   5.801   2.489   9.204 -0.7824 -1.2808  2.0568
  731MOL0     H  827   5.638   2.661   9.485  0.0592 -1.5277  1.1920
  731MOL0     H  828   5.845   2.900   9.628 -3.0551  1.4417  2.5939
  731MOL0     H  829   5.937   2.783   9.730 -0.4547  1.8939 -0.4285
  731MOL0     H  830   5.632   2.781   9.740  0.0078 -0.2169  1.3684
  731MOL0     H  831   5.744   2.744   9.860 -3.3279  0.7693 -0.0735
  731MOL0     H  832   5.771   3.027   9.765  1.7822 -1.8112 -0.5921
  731MOL0     H  833   5.631   2.973   9.851  0.4174  0.3375 -0.5329
  731MOL0     H  834   5.752   2.870  10.033  1.3348 -1.6502  0.1372
  731MOL0     H  835   5.909   2.932   9.971 -0.5861 -2.8187  2.6181
  731MOL0     H  836   5.976   2.940  10.162 -0.3951 -1.1430  2.2174
  731MOL0     H  837   6.202   3.028  10.379 -2.5222  3.8386  3.4881
  731MOL0     H  838   6.116   2.891  10.300 -0.2494  1.9772 -1.4094
  731MOL0     H  839   6.073   2.932  10.462  1.7944  2.3156  2.4530
  731MOL0     H  840   5.897   3.308  10.788  0.3137 -0.1454 -3.1846
  731MOL0     H  841   5.962   3.353  11.011 -0.9633  0.7652 -2.0714
  731MOL0     H  842   6.159   3.506  11.136  0.3342 -0.5657 -0.6624
  731MOL0     H  843   6.060   3.370  11.203 -0.4561 -0.5139 -3.6907
  731MOL0     H  844   6.229   3.353  11.383 -0.3696 -0.6313 -2.1420
  731MOL0     H  845   6.344   3.470  11.306 -0.2598  2.4566 -1.4772
  731MOL0     H  846   6.052   3.534  11.378 -0.5106  1.0598 -5.5971
  731MOL0     H  847   6.179   3.649  11.336 -1.1419  0.6205 -1.1353
  731MOL0     H  848   6.145   3.692  11.541 -1.3909  0.1415 -3.9645
  731MOL0     H  849   6.301   3.598  11.558 -0.4507 -0.8087 -0.4045
  731MOL0     H  850   6.033   3.493  11.615 -0.0150  2.3226  0.7733
  731MOL0     H  851   6.184   3.392  11.621  0.7990 -0.1166 -2.9378
  731MOL0     H  852   6.116   3.630  11.818  2.9344  1.9199  1.6267
  731MOL0     H  853   6.270   3.557  11.791  0.7739 -3.4342 -1.2363
  731MOL0     H  854   6.213   3.358  11.887  0.4223  0.6793 -0.0082
  731MOL0     H  855   6.033   3.391  11.870  0.8790 -2.0276  1.9757
  731MOL0     H  856   6.109   3.386  12.108 -0.1663 -0.1775  0.4646
  731MOL0     H  857   6.041   3.537  12.066  0.6091 -0.2190  1.6431
  731MOL0     H  858   6.350   3.168  10.922 -0.2217 -1.1779 -1.6327
  731MOL0     H  859   6.262   3.114  10.706 -0.6061  0.0264 -0.8228
  731MOL0     H  860   5.875   3.394  10.339 -1.8162  1.5741 -3.8944
  731MOL0     H  861   5.765   3.309  10.138  0.2975 -0.2420 -2.2573
  731MOL0     H  862   5.276   3.115   9.378 -1.6198  0.3433  2.5017
  731MOL0     H  863   5.094   2.977   9.486  0.6771  2.7068 -0.7481
  731MOL0     H  864   4.748   2.676   9.376 -0.9662  0.5303 -1.7597
  731MOL0     H  865   4.503   2.477   9.380 -0.1018 -0.5872  0.7315
  731MOL0     H  866   4.308   2.150   9.519 -1.0124  1.7841  1.8719
  731MOL0     H  867   4.361   2.309   9.465  3.4158  0.9123 -2.3414
  731MOL0     H  868   4.437   2.238   9.252 -0.2130 -0.1084 -0.3042
  731MOL0     H  869   4.283   2.169   9.256  0.1011  1.3876  0.1538
  731MOL0     H  870   4.409   2.004   9.166  3.0139  0.1266 -0.6647
  731MOL0     H  871   4.531   2.019   9.283 -0.0944 -1.3044 -2.3658
  731MOL0     H  872   4.249   1.939   9.370  0.6266  0.5757 -1.0253
  731MOL0     H  873   4.396   1.916   9.463  1.9840  1.0160  0.0556
  731MOL0     H  874   4.378   1.550   9.252  0.8403 -0.5814  1.3869
  731MOL0     H  875   4.813   2.069   9.576 -1.3525 -0.2155 -0.2087
  731MOL0     H  876   5.114   2.159   9.611 -0.2238 -0.4787  1.6790
  731MOL0     H  877   5.173   2.291   9.502 -1.2428 -0.1479 -0.4212
  731MOL0     H  878   5.148   2.328   9.670  3.3138 -0.1667 -1.3836
  732MOL0     O  879   4.661   1.006   1.727  0.5952  0.4297 -0.2435
  732MOL0     C  880   4.573   1.092   1.729 -0.5452  0.1677 -0.1941
  732MOL0     O  881   4.527   1.164   1.839 -0.3004  0.2235  0.0694
  732MOL0     C  882   4.575   1.135   1.963 -0.3597 -0.1636  0.2605
  732MOL0     C  883   4.661   1.224   2.029  0.0938  0.5528  0.4828
  732MOL0     C  884   4.713   1.189   2.152  0.4376  0.5895 -0.9443
  732MOL0     C  885   4.688   1.060   2.216  0.0673 -0.0130 -0.0058
  732MOL0     O  886   4.733   1.016   2.346  0.2956 -0.4660  0.0633
  732MOL0     C  887   4.814   1.088   2.443  0.0895  1.2937 -0.4851
  732MOL0     C  888   4.802   1.021   2.575  0.7901  1.1542 -1.1095
  732MOL0     C  889   4.654   0.996   2.632 -0.5009  0.1883  0.6697
  732MOL0     C  890   4.673   0.901   2.751  0.6219  0.0247 -1.2071
  732MOL0     C  891   4.544   0.921   2.830 -0.0963 -0.6011  0.4044
  732MOL0     C  892   4.564   0.850   2.962  0.0453  0.7710  0.0584
  732MOL0     C  893   4.538   0.703   2.942  0.5709  0.4293 -0.2419
  732MOL0     C  894   4.574   0.619   3.067  0.7083  0.5549  0.5319
  732MOL0     N  895   4.708   0.626   3.115  0.1022 -0.0743  0.8264
  732MOL0     C  896   4.815   0.571   3.055  0.4459 -0.6905  1.5072
  732MOL0     C  897   4.924   0.627   3.102  0.0187 -0.4948 -0.5030
  732MOL0     C  898   5.062   0.622   3.046 -0.0113  0.3229 -0.0013
  732MOL0     C  899   5.073   0.692   2.923  1.0069  0.3962 -0.4198
  732MOL0     C  900   5.209   0.774   2.919  0.5816  0.9757 -0.5000
  732MOL0     C  901   5.261   0.815   2.782  0.5171 -0.2635 -0.1546
  732MOL0     O  902   5.145   0.873   2.723  0.0115 -0.0995  0.7284
  732MOL0     C  903   5.173   0.956   2.622 -0.5931 -0.1870  0.3985
  732MOL0     C  904   5.148   0.917   2.491 -1.2030 -0.3685  0.5921
  732MOL0     C  905   5.173   1.007   2.378  1.2589  0.1631  0.3673
  732MOL0     C  906   5.129   0.976   2.238 -0.1406 -0.1737  0.5557
  732MOL0     C  907   5.203   1.139   2.413 -0.6106  0.4177  0.8958
  732MOL0     C  908   5.236   1.233   2.301  0.3696 -0.4519 -0.7973
  732MOL0     O  909   5.351   1.214   2.227 -0.0021  0.1389 -0.3145
  732MOL0     C  910   5.370   1.326   2.140  0.4370  0.6557 -0.3374
  732MOL0     C  911   5.413   1.304   2.009  0.0619  0.0654  0.2415
  732MOL0     C  912   5.452   1.414   1.925 -0.5026 -0.2120  0.3944
  732MOL0     C  913   5.445   1.548   1.973  0.1201 -1.1197 -0.2176
  732MOL0     O  914   5.493   1.641   1.879  1.0101  0.0103 -0.3863
  732MOL0     C  915   5.446   1.772   1.903 -0.4047 -0.4039  0.5705
  732MOL0     C  916   5.298   1.794   1.910 -0.3756 -0.5767 -0.5090
  732MOL0     C  917   5.259   1.944   1.931  0.9398  0.1441 -0.4772
  732MOL0     C  918   5.240   2.017   1.791  0.9464  0.0840  0.0133
  732MOL0     C  919   5.160   2.150   1.809 -1.0249  0.2646  0.8513
  732MOL0     C  920   5.013   2.141   1.840  0.3789 -0.5113 -0.1606
  732MOL0     C  921   4.932   2.268   1.821  0.1561 -0.6124 -1.1091
  732MOL0     C  922   4.965   2.385   1.916  1.1833 -0.2678 -0.0235
  732MOL0    Cl  923   4.983   2.334   2.084  0.1507 -0.1870  0.2418
  732MOL0     C  924   5.398   1.566   2.102 -0.6825 -0.4180  0.6379
  732MOL0     C  925   5.369   1.459   2.182  0.0418 -0.2696 -0.6618
  732MOL0     O  926   5.154   1.327   2.289 -0.2309 -0.7575 -0.1026
  732MOL0     C  927   5.210   1.180   2.548 -0.4030  0.4305 -0.2689
  732MOL0     C  928   5.195   1.095   2.654  0.1221  0.9589  0.2762
  732MOL0     N  929   4.887   0.703   3.214 -0.1600 -0.3464 -0.5706
  732MOL0     N  930   4.748   0.696   3.218  0.5972 -0.3291  0.1310
  732MOL0     C  931   4.604   0.977   2.144  0.2582 -0.4499  0.5993
  732MOL0     C  932   4.543   1.016   2.019  0.4002  0.5106 -0.2429
  732MOL0     C  933   4.496   1.104   1.605 -0.1159 -0.0364 -0.8813
  732MOL0     C  934   4.366   1.069   1.594 -0.1830 -0.0113  0.5617
  732MOL0     C  935   4.291   1.063   1.469 -0.2793  0.0017  0.8828
  732MOL0     C  936   4.364   1.103   1.356 -0.3808 -0.1807  0.2960
  732MOL0     O  937   4.290   1.099   1.242  0.1115 -0.0744  1.1043
  732MOL0     C  938   4.358   1.128   1.112 -0.3727 -0.2550 -0.2029
  732MOL0     C  939   4.465   1.026   1.072  0.5633 -0.1496 -1.0932
  732MOL0     C  940   4.396   0.883   1.078  0.5237  0.1259 -0.3989
  732MOL0     C  941   4.491   0.769   1.035  0.5473  0.5006  0.0545
  732MOL0     C  942   4.448   0.631   1.074 -0.1776 -0.1034 -0.1444
  732MOL0     C  943   4.409   0.514   1.094  0.5280  1.3727  0.2016
  732MOL0     C  944   4.495   1.157   1.371 -0.0494  0.0033  0.5354
  732MOL0     C  945   4.564   1.154   1.491  0.2580  0.1132  1.2223
  732MOL0     C  946   4.706   1.214   1.488  1.1498  1.1168 -0.3767
  732MOL0     H  947   4.692   1.319   1.988 -1.1485  0.8907  0.3043
  732MOL0     H  948   4.777   1.262   2.200  1.2611  0.8656 -2.3909
  732MOL0     H  949   4.785   1.193   2.452  0.9536  1.4160  1.5231
  732MOL0     H  950   4.920   1.087   2.413 -0.1044  0.6020 -1.1845
  732MOL0     H  951   4.853   0.927   2.548 -0.4622  0.3658 -0.8085
  732MOL0     H  952   4.856   1.078   2.651 -4.9144  2.9770  2.2095
  732MOL0     H  953   4.629   1.094   2.673  4.5518  0.8727  2.7905
  732MOL0     H  954   4.594   0.966   2.546 -1.3569  3.9573 -0.2073
  732MOL0     H  955   4.686   0.799   2.714 -0.1816 -0.4583 -0.2055
  732MOL0     H  956   4.761   0.928   2.811  0.5918  0.1954 -1.2397
  732MOL0     H  957   4.465   0.879   2.768  0.8685  1.9356 -2.7677
  732MOL0     H  958   4.514   1.025   2.844 -2.9761 -1.0590 -1.5002
  732MOL0     H  959   4.666   0.860   3.000  0.7251  1.1905 -1.7570
  732MOL0     H  960   4.478   0.871   3.026 -0.7138  1.3920 -1.1239
  732MOL0     H  961   4.589   0.651   2.860 -2.7769 -0.8673 -1.7031
  732MOL0     H  962   4.431   0.700   2.917  0.4359 -2.2295  0.3261
  732MOL0     H  963   4.509   0.638   3.153 -0.2299 -2.6266  0.6527
  732MOL0     H  964   4.544   0.517   3.043 -0.3839  1.2829 -1.4805
  732MOL0     H  965   4.829   0.515   2.963 -0.2258  0.6682  0.5444
  732MOL0     H  966   5.088   0.517   3.030  3.0068  1.1610 -1.3072
  732MOL0     H  967   5.135   0.657   3.119  0.2186 -1.7085  0.8037
  732MOL0     H  968   5.066   0.618   2.843 -2.7802  0.1366  0.0015
  732MOL0     H  969   4.988   0.757   2.903  1.0650  0.5921 -0.0325
  732MOL0     H  970   5.190   0.864   2.979 -4.3684  2.6825 -3.9861
  732MOL0     H  971   5.286   0.711   2.964  0.7129 -0.7968 -3.0208
  732MOL0     H  972   5.357   0.869   2.781  2.4199 -3.3379  1.2726
  732MOL0     H  973   5.297   0.724   2.733  1.6873 -0.6814  1.4292
  732MOL0     H  974   5.135   0.810   2.493 -0.3262 -0.4725  0.9106
  732MOL0     H  975   5.181   0.885   2.210  0.0058 -0.0305  0.3664
  732MOL0     H  976   5.159   1.048   2.161 -0.8931 -2.0143 -1.5570
  732MOL0     H  977   5.021   0.958   2.233  0.0103 -1.9305  2.4046
  732MOL0     H  978   5.429   1.210   1.957  1.1248  0.1720  0.3385
  732MOL0     H  979   5.489   1.405   1.824 -3.5286 -1.4836 -0.7146
  732MOL0     H  980   5.481   1.809   2.000 -0.8149  2.3209 -0.2284
  732MOL0     H  981   5.482   1.836   1.822 -2.0601  0.7237  0.6723
  732MOL0     H  982   5.248   1.749   1.823 -0.5482 -1.2222 -0.0793
  732MOL0     H  983   5.252   1.744   1.995 -1.6487  2.1476  0.5127
  732MOL0     H  984   5.320   2.008   1.995  1.1990  1.1882 -1.7206
  732MOL0     H  985   5.162   1.943   1.982  1.5075  0.9275  0.6532
  732MOL0     H  986   5.186   1.953   1.721 -0.3427 -0.2504  1.2534
  732MOL0     H  987   5.337   2.023   1.743  0.4337  0.9013 -0.9482
  732MOL0     H  988   5.222   2.206   1.880  3.8512  0.4978 -3.0233
  732MOL0     H  989   5.165   2.210   1.718 -0.8943 -0.0759  0.6315
  732MOL0     H  990   5.010   2.095   1.939  2.6770 -1.2643 -0.3887
  732MOL0     H  991   4.950   2.074   1.781 -2.5362  1.2806  0.6850
  732MOL0     H  992   4.827   2.241   1.836  0.0165  1.4353  3.3386
  732MOL0     H  993   4.946   2.313   1.722  1.6296  3.6011  0.7663
  732MOL0     H  994   4.880   2.452   1.900  0.9083 -1.1440 -2.6734
  732MOL0     H  995   5.059   2.429   1.885  2.6721 -3.6450 -0.8169
  732MOL0     H  996   5.394   1.669   2.136 -0.4298 -0.3167  0.3589
  732MOL0     H  997   5.334   1.471   2.284 -2.0499  0.6911 -1.4371
  732MOL0     H  998   5.238   1.283   2.569  0.9612  0.7805 -3.2845
  732MOL0     H  999   5.216   1.134   2.753  0.8695 -0.2210  0.6072
  732MOL0     H 1000   4.587   0.885   2.199  3.8244 -0.6884  1.5486
  732MOL0     H 1001   4.478   0.936   1.984 -1.2412 -0.0917  3.6000
  732MOL0     H 1002   4.309   1.045   1.683  4.3095 -2.4073  3.2021
  732MOL0     H 1003   4.186   1.035   1.471 -0.4398  0.5782  0.9236
  732MOL0     H 1004   4.293   1.116   1.025  1.4226  3.8117 -2.4302
  732MOL0     H 1005   4.404   1.228   1.106 -3.3042  1.1105 -2.9226
  732MOL0     H 1006   4.548   1.033   1.142  1.5318 -0.0779 -2.2236
  732MOL0     H 1007   4.512   1.056   0.978  1.3916 -1.5254 -1.1426
  732MOL0     H 1008   4.357   0.866   1.179 -0.2221  0.9377 -0.5460
  732MOL0     H 1009   4.309   0.882   1.011 -0.9190  0.5920  1.3778
  732MOL0     H 1010   4.582   0.808   1.082  0.7760  4.2888 -3.0463
  732MOL0     H 1011   4.512   0.784   0.929  0.0980  2.5881  0.2090
  732MOL0     H 1012   4.367   0.417   1.110 -0.4577  1.3876 -1.9856
  732MOL0     H 1013   4.546   1.202   1.286  3.8390 -3.9027  0.4335
  732MOL0     H 1014   4.741   1.235   1.387  0.7109  1.6768 -0.4190
  732MOL0     H 1015   4.714   1.303   1.553  1.9018  0.1413  0.9256
  732MOL0     H 1016   4.778   1.140   1.523 -3.8641 -3.7895  0.8851
  733MOL0     O 1017   9.962   8.967   1.134  0.2743  0.2461  0.5955
  733MOL0     C 1018   9.874   9.029   1.197 -1.2934 -0.1514 -0.3110
  733MOL0     O 1019   9.853   9.017   1.333  0.0480 -0.8789  0.4824
  733MOL0     C 1020   9.953   8.949   1.394  0.8615  0.3461 -0.0327
  733MOL0     C 1021  10.013   9.015   1.499 -0.0231 -0.1206 -0.4180
  733MOL0     C 1022  10.102   8.951   1.583 -0.0590 -0.2704  0.2332
  733MOL0     C 1023  10.144   8.824   1.557  0.5801 -0.0507  0.3928
  733MOL0     O 1024  10.245   8.760   1.629 -0.9338  0.2877 -0.3749
  733MOL0     C 1025  10.315   8.813   1.745 -0.0447  0.4695  0.1717
  733MOL0     C 1026  10.416   8.921   1.714 -0.1698 -0.5810 -0.2504
  733MOL0     C 1027  10.516   8.949   1.829 -0.4339 -0.5021  0.4715
  733MOL0     C 1028  10.563   9.097   1.817 -0.5956 -0.2539  0.6470
  733MOL0     C 1029  10.644   9.140   1.937  0.3577  0.4443  0.1634
  733MOL0     C 1030  10.695   9.275   1.907  0.0691  0.2289  0.1669
  733MOL0     C 1031  10.814   9.271   1.810 -0.0573  0.8218  0.1839
  733MOL0     C 1032  10.880   9.403   1.811  0.7966 -0.3482  0.0187
  733MOL0     N 1033  10.781   9.494   1.749 -0.2777 -0.1530 -0.4129
  733MOL0     C 1034  10.763   9.501   1.617  0.4763 -0.1196  0.3743
  733MOL0     C 1035  10.647   9.576   1.602 -0.8210 -0.4069  0.4920
  733MOL0     C 1036  10.579   9.625   1.469 -0.6490 -0.0033  0.1966
  733MOL0     C 1037  10.562   9.780   1.471  0.1819 -1.1994 -0.0838
  733MOL0     C 1038  10.539   9.838   1.330  0.3026  0.2243  0.1424
  733MOL0     C 1039  10.536   9.994   1.321 -0.0085  0.1076  0.0281
  733MOL0     O 1040  10.671  10.053   1.329  0.6879  0.0115 -0.4365
  733MOL0     C 1041  10.745  10.079   1.222  0.6197 -0.2954  0.5516
  733MOL0     C 1042  10.722  10.045   1.087 -0.3104  0.1778  0.4928
  733MOL0     C 1043  10.805  10.103   0.994 -0.1601 -0.4727  1.4225
  733MOL0     C 1044  10.784  10.055   0.854  1.1311  0.5832  0.0164
  733MOL0     C 1045  10.924  10.175   1.025  0.6455 -0.4088  0.0946
  733MOL0     C 1046  11.000  10.250   0.934 -0.5944 -0.0221 -0.2558
  733MOL0     O 1047  11.140  10.258   0.950 -0.2929 -0.1658  0.6395
  733MOL0     C 1048  11.211  10.317   0.848  0.3575 -0.8752  0.3832
  733MOL0     C 1049  11.205  10.455   0.809 -0.2491  0.4309 -0.0060
  733MOL0     C 1050  11.270  10.509   0.697  0.3473  0.3486  0.1047
  733MOL0     C 1051  11.362  10.430   0.630 -0.1885 -0.5161  0.5551
  733MOL0     O 1052  11.439  10.499   0.538  0.5053 -0.1229 -0.7584
  733MOL0     C 1053  11.536  10.430   0.457 -0.1666  0.5630 -0.0264
  733MOL0     C 1054  11.654  10.529   0.434 -0.6818 -0.1047 -0.6642
  733MOL0     C 1055  11.632  10.625   0.310  0.0338  0.0166 -1.0205
  733MOL0     C 1056  11.753  10.716   0.300 -0.0366  0.6489  0.1178
  733MOL0     C 1057  11.719  10.831   0.207  0.2355 -0.7532  0.6145
  733MOL0     C 1058  11.836  10.931   0.186  0.4137  0.5913  0.4167
  733MOL0     C 1059  11.883  11.000   0.314 -1.0293 -1.2105 -0.0877
  733MOL0     C 1060  11.948  11.136   0.283 -0.5342 -0.1472  0.1623
  733MOL0    Cl 1061  12.029  11.177   0.442  0.1494  0.0225  0.1268
  733MOL0     C 1062  11.367  10.295   0.659  0.6183  1.3616  1.0699
  733MOL0     C 1063  11.297  10.236   0.771 -0.7028 -0.1550  0.1072
  733MOL0     O 1064  10.937  10.306   0.844  0.5709  0.3430  0.4304
  733MOL0     C 1065  10.961  10.186   1.157  1.3636 -0.1576 -1.0342
  733MOL0     C 1066  10.872  10.134   1.258 -0.3889 -0.5172  0.1743
  733MOL0     N 1067  10.623   9.634   1.727 -0.1991 -0.4425  0.3875
  733MOL0     N 1068  10.704   9.586   1.813 -0.3920  0.1735 -0.4065
  733MOL0     C 1069  10.081   8.753   1.448 -0.0768 -0.6268 -0.8033
  733MOL0     C 1070   9.976   8.809   1.374  0.1386 -0.3524  0.2272
  733MOL0     C 1071   9.790   9.118   1.122  0.9173  0.0783  0.5642
  733MOL0     C 1072   9.794   9.258   1.151 -0.3803  0.2722 -0.0917
  733MOL0     C 1073   9.720   9.351   1.088  0.6432 -0.1114  0.7188
  733MOL0     C 1074   9.643   9.302   0.983  0.6222 -0.9937 -0.2250
  733MOL0     O 1075   9.566   9.392   0.919 -0.5932 -0.2796  0.3743
  733MOL0     C 1076   9.435   9.424   0.955 -0.4391 -0.2201 -0.6631
  733MOL0     C 1077   9.346   9.361   0.849  0.7627  0.6891  0.3185
  733MOL0     C 1078   9.368   9.410   0.709  0.4779  0.0185 -0.6885
  733MOL0     C 1079   9.309   9.549   0.681 -0.3766 -1.0466  0.0791
  733MOL0     C 1080   9.389   9.651   0.610  0.5743  0.2519 -0.4113
  733MOL0     C 1081   9.470   9.735   0.562  0.7778  1.4373  0.3902
  733MOL0     C 1082   9.627   9.170   0.946  0.1248 -0.0955 -0.0480
  733MOL0     C 1083   9.716   9.072   1.006  0.0229  0.0417 -0.1148
  733MOL0     C 1084   9.720   8.929   0.959 -0.5314 -0.0283  0.4183
  733MOL0     H 1085   9.984   9.118   1.517 -1.4520  0.0550 -3.2110
  733MOL0     H 1086  10.150   8.997   1.668  0.3166 -1.5426  0.7359
  733MOL0     H 1087  10.366   8.726   1.788 -3.3334 -1.1396  1.2026
  733MOL0     H 1088  10.240   8.843   1.820 -1.2767 -0.0519 -0.8228
  733MOL0     H 1089  10.464   8.902   1.618 -0.9587  0.3783 -0.8452
  733MOL0     H 1090  10.357   9.011   1.694 -0.2333 -0.4600  0.4479
  733MOL0     H 1091  10.466   8.936   1.925 -1.4005  0.2012  0.0857
  733MOL0     H 1092  10.601   8.881   1.823  1.1528  1.1627  2.5654
  733MOL0     H 1093  10.637   9.095   1.737  0.0505  2.2433  1.0839
  733MOL0     H 1094  10.489   9.167   1.778  0.0166 -1.9793 -4.2821
  733MOL0     H 1095  10.718   9.063   1.958  1.5128  0.5257 -3.0735
  733MOL0     H 1096  10.563   9.155   2.008 -0.8924 -2.3908 -0.5426
  733MOL0     H 1097  10.616   9.338   1.864 -1.1184 -0.8951  0.6251
  733MOL0     H 1098  10.741   9.322   1.995 -0.2202 -0.6937  0.8315
  733MOL0     H 1099  10.788   9.246   1.707  2.2001  0.4529 -0.3568
  733MOL0     H 1100  10.881   9.197   1.855 -0.7201  1.2574  1.9912
  733MOL0     H 1101  10.913   9.443   1.908  4.7414  0.0178 -1.2943
  733MOL0     H 1102  10.970   9.406   1.749  0.9822 -1.7482  0.1890
  733MOL0     H 1103  10.817   9.454   1.535  1.2877 -1.7048  1.7428
  733MOL0     H 1104  10.480   9.583   1.451  0.5135 -2.1593 -1.5769
  733MOL0     H 1105  10.641   9.601   1.383  0.4090  1.8363  0.3875
  733MOL0     H 1106  10.477   9.803   1.536  1.5263  0.2609  1.2277
  733MOL0     H 1107  10.652   9.826   1.513  0.6274 -0.6799 -1.5396
  733MOL0     H 1108  10.615   9.798   1.262 -0.7302 -1.4028 -0.1020
  733MOL0     H 1109  10.444   9.795   1.299  1.1986 -0.2346 -2.2283
  733MOL0     H 1110  10.504  10.018   1.219  1.3700  0.4593 -0.3520
  733MOL0     H 1111  10.465  10.036   1.392  0.1373 -2.5239  1.8984
  733MOL0     H 1112  10.648   9.971   1.063  1.2278 -1.6843  1.2059
  733MOL0     H 1113  10.757  10.136   0.787  4.2130  1.5520 -0.2300
  733MOL0     H 1114  10.707   9.977   0.858 -2.3292  3.6688  4.7124
  733MOL0     H 1115  10.871  10.008   0.807 -0.3850  1.0048 -3.4483
  733MOL0     H 1116  11.146  10.528   0.862 -0.2533  1.5271 -1.4481
  733MOL0     H 1117  11.270  10.614   0.670  2.4762  0.3174 -0.1520
  733MOL0     H 1118  11.584  10.351   0.515  4.4564  3.0626 -0.0368
  733MOL0     H 1119  11.488  10.390   0.367  0.5540  0.6906 -0.4732
  733MOL0     H 1120  11.666  10.585   0.528  4.3283  2.7463 -2.5745
  733MOL0     H 1121  11.750  10.478   0.421  0.3552  1.9228 -1.3525
  733MOL0     H 1122  11.545  10.689   0.328 -0.6530 -0.6647 -1.8176
  733MOL0     H 1123  11.606  10.564   0.223  1.7790 -1.4060 -0.6079
  733MOL0     H 1124  11.832  10.650   0.264 -0.5347 -0.8638  1.6683
  733MOL0     H 1125  11.788  10.748   0.399  1.5505 -2.2484  0.5904
  733MOL0     H 1126  11.663  10.815   0.115  0.8300  1.3185 -0.1698
  733MOL0     H 1127  11.651  10.889   0.270  1.7366  0.4411  1.2003
  733MOL0     H 1128  11.808  11.014   0.121  3.2400  1.5843  0.3078
  733MOL0     H 1129  11.919  10.877   0.140 -0.7116 -3.2643  2.5099
  733MOL0     H 1130  11.951  10.938   0.373  0.4259  1.2219  0.9535
  733MOL0     H 1131  11.806  11.030   0.386  1.0583 -1.8814  2.5932
  733MOL0     H 1132  11.876  11.214   0.257  0.3098  0.7812  0.5639
  733MOL0     H 1133  12.021  11.108   0.206 -0.3511 -2.3701  1.0771
  733MOL0     H 1134  11.428  10.228   0.599  0.6346 -1.1724  3.7111
  733MOL0     H 1135  11.305  10.130   0.795 -0.7622 -0.6287 -1.8390
  733MOL0     H 1136  11.049  10.243   1.187  1.4411 -1.4254  1.3933
  733MOL0     H 1137  10.899  10.147   1.362 -2.4738 -1.3170  0.8753
  733MOL0     H 1138  10.105   8.647   1.447 -0.0174 -0.6526  1.0306
  733MOL0     H 1139   9.928   8.745   1.301  0.5632  0.0773 -0.4444
  733MOL0     H 1140   9.875   9.286   1.218  0.9032  0.5571 -1.7001
  733MOL0     H 1141   9.732   9.458   1.104  0.0301  0.3449 -1.5717
  733MOL0     H 1142   9.413   9.384   1.054  1.1925 -1.3615 -0.7225
  733MOL0     H 1143   9.423   9.533   0.957  2.5286  0.2299 -1.3004
  733MOL0     H 1144   9.241   9.388   0.864  0.2394 -0.4912 -1.0154
  733MOL0     H 1145   9.338   9.253   0.866  2.2889  0.2948 -1.1972
  733MOL0     H 1146   9.473   9.415   0.680  0.6180  1.6895 -0.0096
  733MOL0     H 1147   9.323   9.341   0.638 -0.2815 -0.7127  0.4650
  733MOL0     H 1148   9.283   9.592   0.778  1.0272  1.5992 -0.6137
  733MOL0     H 1149   9.224   9.525   0.617  0.8092  0.7860 -2.3612
  733MOL0     H 1150   9.516   9.817   0.509 -1.7556  2.5265 -0.2644
  733MOL0     H 1151   9.562   9.141   0.864  2.6661 -1.6110 -1.6708
  733MOL0     H 1152   9.737   8.854   1.037  2.4198  0.4612  0.3586
  733MOL0     H 1153   9.630   8.891   0.911 -2.5619 -0.9135  4.4745
  733MOL0     H 1154   9.804   8.918   0.890  0.4868  1.4166  1.3647
  734MOL0     O 1155   4.011   4.230   0.224 -0.4418 -0.3609 -0.4764
  734MOL0     C 1156   3.961   4.166   0.133  0.0994 -0.0288 -1.1716
  734MOL0     O 1157   3.875   4.052   0.150 -0.2981  0.2742  0.2665
  734MOL0     C 1158   3.838   4.015   0.280  0.0607 -0.3054 -0.3395
  734MOL0     C 1159   3.782   4.116   0.371  0.1098  0.2147 -0.0628
  734MOL0     C 1160   3.725   4.059   0.493 -0.7722  0.0807  0.5780
  734MOL0     C 1161   3.746   3.918   0.526  0.5772 -0.5673 -0.1000
  734MOL0     O 1162   3.691   3.860   0.641 -0.1339  0.1798 -0.3518
  734MOL0     C 1163   3.770   3.894   0.760  0.4015  1.4207 -0.4076
  734MOL0     C 1164   3.701   3.841   0.893  0.5906  0.7331 -0.0095
  734MOL0     C 1165   3.767   3.918   1.021  0.2363 -0.4187 -0.0058
  734MOL0     C 1166   3.721   3.844   1.141  1.0628  1.4720  0.6311
  734MOL0     C 1167   3.795   3.892   1.265 -0.6879 -0.2740  0.7745
  734MOL0     C 1168   3.739   3.851   1.395 -0.3003 -1.5211 -0.4876
  734MOL0     C 1169   3.788   3.924   1.515  0.4261 -0.0554  0.9125
  734MOL0     C 1170   3.720   3.887   1.655  0.0230  0.0667  0.3651
  734MOL0     N 1171   3.780   3.965   1.759  0.3884 -0.0803  0.0408
  734MOL0     C 1172   3.815   3.913   1.880  0.0915  0.0200 -0.2228
  734MOL0     C 1173   3.855   4.023   1.955  0.6861  0.3294  0.2291
  734MOL0     C 1174   3.924   4.013   2.087  0.1591  0.2765 -0.3659
  734MOL0     C 1175   3.833   3.969   2.209  0.0315 -0.7967 -0.2854
  734MOL0     C 1176   3.915   3.989   2.346 -0.3533 -0.1669 -0.7349
  734MOL0     C 1177   3.920   4.131   2.399  0.4451 -0.0331 -0.2551
  734MOL0     O 1178   4.001   4.131   2.522  0.5075 -0.3015 -0.1069
  734MOL0     C 1179   4.014   4.244   2.589  0.7802  0.2736  0.1175
  734MOL0     C 1180   3.973   4.372   2.529 -0.1142 -1.0869  0.3752
  734MOL0     C 1181   4.003   4.496   2.596 -0.3614 -0.6814  0.6833
  734MOL0     C 1182   3.981   4.623   2.518  0.2704  0.1214 -0.3479
  734MOL0     C 1183   4.070   4.498   2.725 -0.8879  0.1526  0.5531
  734MOL0     C 1184   4.119   4.616   2.805 -1.2782 -0.2634 -1.0172
  734MOL0     O 1185   4.187   4.593   2.922 -0.4640 -0.9926  0.6624
  734MOL0     C 1186   4.216   4.706   3.001 -0.6680  0.4626 -0.0337
  734MOL0     C 1187   4.345   4.755   2.996  0.1033  0.2835 -0.6526
  734MOL0     C 1188   4.381   4.862   3.084  0.2231  0.3661  0.3490
  734MOL0     C 1189   4.283   4.912   3.183  0.7123  0.9291  0.3376
  734MOL0     O 1190   4.320   5.013   3.268  1.0688  0.1116  0.5674
  734MOL0     C 1191   4.269   5.016   3.409 -0.1779  0.8249  0.7433
  734MOL0     C 1192   4.351   5.110   3.505  0.9628 -0.3518 -0.1024
  734MOL0     C 1193   4.278   5.137   3.646 -0.6439  0.0930  1.0560
  734MOL0     C 1194   4.338   5.252   3.721  0.4471  1.7869  1.2166
  734MOL0     C 1195   4.276   5.298   3.851 -0.3272  0.3871 -0.2851
  734MOL0     C 1196   4.284   5.196   3.969  0.6530 -0.3739  0.5629
  734MOL0     C 1197   4.194   5.225   4.091 -0.7218 -0.4733  0.1858
  734MOL0     C 1198   4.260   5.300   4.209 -1.2044 -0.3523 -0.1259
  734MOL0    Cl 1199   4.135   5.306   4.329  0.1218 -0.1725  0.0211
  734MOL0     C 1200   4.153   4.855   3.179 -0.3168 -0.9191 -0.8889
  734MOL0     C 1201   4.125   4.747   3.101  0.5438 -1.0676  0.6134
  734MOL0     O 1202   4.088   4.727   2.769  1.0419 -0.0780  0.6609
  734MOL0     C 1203   4.082   4.374   2.786  0.2746  0.3218 -0.0848
  734MOL0     C 1204   4.049   4.251   2.726  0.2498  0.5281 -0.5316
  734MOL0     N 1205   3.832   4.142   1.891 -0.3185 -0.7691 -0.0905
  734MOL0     N 1206   3.790   4.099   1.773  0.5986 -0.3355  0.2990
  734MOL0     C 1207   3.816   3.826   0.440  0.3204  1.1252  0.5808
  734MOL0     C 1208   3.855   3.877   0.319  0.2895 -0.2685  0.2531
  734MOL0     C 1209   3.995   4.195  -0.009  0.5959  0.3800  1.0195
  734MOL0     C 1210   3.908   4.125  -0.107  0.5852  0.9523  0.9615
  734MOL0     C 1211   3.944   4.139  -0.246  0.0311 -1.3492 -0.0382
  734MOL0     C 1212   4.060   4.214  -0.281  0.6433  0.1616  0.8003
  734MOL0     O 1213   4.090   4.222  -0.409  0.4410 -0.4117 -0.2435
  734MOL0     C 1214   4.137   4.095  -0.463  0.9670  0.4324  0.3545
  734MOL0     C 1215   4.237   4.146  -0.577  0.6914  0.7435  0.2178
  734MOL0     C 1216   4.281   4.052  -0.677 -0.7625 -0.5698 -0.0301
  734MOL0     C 1217   4.170   3.979  -0.746 -0.6760 -0.4848  0.1127
  734MOL0     C 1218   4.229   3.902  -0.862  0.2297 -0.6538  0.1308
  734MOL0     C 1219   4.273   3.842  -0.957  0.7779  0.0920 -0.0303
  734MOL0     C 1220   4.135   4.283  -0.183  0.1635 -0.4294 -0.6555
  734MOL0     C 1221   4.100   4.283  -0.053 -0.6496  1.3150 -0.7724
  734MOL0     C 1222   4.198   4.358   0.045  0.5759 -1.0921  0.3972
  734MOL0     H 1223   3.774   4.223   0.353 -1.5115 -0.0345 -1.0818
  734MOL0     H 1224   3.671   4.109   0.573 -1.4659  1.1117 -0.5119
  734MOL0     H 1225   3.761   4.002   0.773 -2.9402  1.0233  2.0051
  734MOL0     H 1226   3.875   3.867   0.745 -0.0568 -0.6811 -0.1422
  734MOL0     H 1227   3.592   3.832   0.885  0.3604 -1.2687  3.3988
  734MOL0     H 1228   3.736   3.739   0.906  0.2991  0.9004  2.8494
  734MOL0     H 1229   3.872   3.947   1.030 -0.4717  1.8383  5.6253
  734MOL0     H 1230   3.727   4.020   1.032  4.3549  1.5433 -1.1877
  734MOL0     H 1231   3.612   3.853   1.148  0.6130 -0.8841 -1.7134
  734MOL0     H 1232   3.728   3.735   1.131  0.1901  1.4654 -0.0525
  734MOL0     H 1233   3.778   4.000   1.264  3.6889  0.6147  0.3416
  734MOL0     H 1234   3.903   3.876   1.254 -1.0674 -1.5966 -2.2995
  734MOL0     H 1235   3.634   3.880   1.396  0.2294  0.6092  1.7612
  734MOL0     H 1236   3.748   3.742   1.406  0.4835 -1.5910 -1.6143
  734MOL0     H 1237   3.783   4.032   1.498 -0.2336  0.4676  3.8389
  734MOL0     H 1238   3.895   3.924   1.535  0.4607 -0.9370  0.7455
  734MOL0     H 1239   3.611   3.901   1.652  0.2368  1.6833 -1.6272
  734MOL0     H 1240   3.744   3.780   1.662  0.5418  0.2552  1.7601
  734MOL0     H 1241   3.822   3.810   1.913  1.0537  0.4370  0.9153
  734MOL0     H 1242   3.970   4.111   2.104  1.1797  0.0879 -1.8300
  734MOL0     H 1243   4.012   3.949   2.077 -0.9155 -1.4766  0.8808
  734MOL0     H 1244   3.734   4.015   2.217 -0.9417 -3.0369  2.4128
  734MOL0     H 1245   3.821   3.860   2.204 -1.9583 -0.6560  0.5741
  734MOL0     H 1246   3.863   3.924   2.417  1.0492 -0.8434 -0.2902
  734MOL0     H 1247   4.020   3.960   2.336 -1.0542 -3.4970  0.1547
  734MOL0     H 1248   3.957   4.197   2.319 -0.3158  0.5587 -0.1287
  734MOL0     H 1249   3.819   4.171   2.405  0.1686 -0.5370 -1.2596
  734MOL0     H 1250   3.934   4.384   2.428 -0.3426  1.3873  0.7095
  734MOL0     H 1251   3.916   4.688   2.576 -1.7272 -1.6595 -0.4875
  734MOL0     H 1252   3.932   4.601   2.423  2.9664 -3.7975 -1.1003
  734MOL0     H 1253   4.078   4.670   2.499 -0.2968  1.7773  0.6582
  734MOL0     H 1254   4.430   4.722   2.937  2.4202  1.9869  1.5306
  734MOL0     H 1255   4.482   4.900   3.092  1.3492 -2.5053  1.1812
  734MOL0     H 1256   4.170   5.062   3.411 -1.9135 -2.6437  0.6473
  734MOL0     H 1257   4.254   4.914   3.445 -1.1618  0.4359 -0.7119
  734MOL0     H 1258   4.450   5.063   3.506 -0.3224 -3.3109 -0.2010
  734MOL0     H 1259   4.360   5.204   3.450 -3.5747  0.1205 -0.3862
  734MOL0     H 1260   4.300   5.050   3.710  1.2165  0.1358  0.5124
  734MOL0     H 1261   4.171   5.137   3.623  0.0368  1.3849 -2.8006
  734MOL0     H 1262   4.337   5.336   3.651  2.3174  2.3035  1.7410
  734MOL0     H 1263   4.443   5.223   3.734  0.3993  0.5875 -0.7138
  734MOL0     H 1264   4.322   5.395   3.872 -0.6449  0.5775 -0.4653
  734MOL0     H 1265   4.174   5.334   3.834 -0.6980  0.0460  1.0835
  734MOL0     H 1266   4.389   5.190   4.001  0.9111 -1.4925 -0.4170
  734MOL0     H 1267   4.248   5.104   3.922 -0.2663 -0.0920  0.7108
  734MOL0     H 1268   4.170   5.127   4.133  0.1818 -0.2815  1.1882
  734MOL0     H 1269   4.113   5.292   4.060 -0.2404  0.4198  0.7994
  734MOL0     H 1270   4.293   5.403   4.189  1.7264 -0.8078  1.6673
  734MOL0     H 1271   4.350   5.250   4.248 -1.2246  1.9502  3.3234
  734MOL0     H 1272   4.074   4.889   3.244 -0.3793 -0.9329 -0.9580
  734MOL0     H 1273   4.030   4.694   3.103  0.5871 -1.1278  1.5478
  734MOL0     H 1274   4.132   4.360   2.881  1.8169 -1.4739 -1.0921
  734MOL0     H 1275   4.057   4.163   2.788 -0.2685  0.1549 -0.9825
  734MOL0     H 1276   3.817   3.723   0.473  1.7288  0.1544 -2.1849
  734MOL0     H 1277   3.902   3.814   0.243  0.9859 -0.6940  1.0182
  734MOL0     H 1278   3.828   4.054  -0.088  1.2318  0.9042  4.1357
  734MOL0     H 1279   3.880   4.093  -0.321 -0.2914  1.2846 -1.4941
  734MOL0     H 1280   4.193   4.026  -0.398 -0.5734 -1.3369 -0.0957
  734MOL0     H 1281   4.053   4.039  -0.506 -0.8960  0.9660  3.0594
  734MOL0     H 1282   4.322   4.195  -0.528 -0.1641 -0.1517  2.7368
  734MOL0     H 1283   4.184   4.219  -0.641 -1.9356 -1.6696 -0.5624
  734MOL0     H 1284   4.338   4.111  -0.750 -0.2919 -0.0717  0.7260
  734MOL0     H 1285   4.347   3.976  -0.633  1.4935  1.7647  0.8992
  734MOL0     H 1286   4.105   4.057  -0.786  2.1899  1.0002 -2.1172
  734MOL0     H 1287   4.114   3.913  -0.679 -1.8962 -0.1236 -0.5204
  734MOL0     H 1288   4.319   3.798  -1.043  0.1674  1.4523 -1.0879
  734MOL0     H 1289   4.222   4.335  -0.221  1.4291 -2.7153 -1.0283
  734MOL0     H 1290   4.276   4.296   0.089  1.3021  0.4260  1.3209
  734MOL0     H 1291   4.239   4.441  -0.012 -2.8381  0.8693  0.5382
  734MOL0     H 1292   4.137   4.411   0.118 -1.1477  1.5466 -2.6760
  735MOL0     O 1293   3.980   6.342   6.569  0.2862 -0.2777 -0.0650
  735MOL0     C 1294   4.045   6.257   6.503  0.1733 -0.0090 -0.3737
  735MOL0     O 1295   3.995   6.145   6.443  0.0066 -0.0567 -0.7878
  735MOL0     C 1296   3.864   6.114   6.430 -0.9008 -0.5661 -0.3808
  735MOL0     C 1297   3.767   6.207   6.411  0.5291  0.5163 -1.0137
  735MOL0     C 1298   3.632   6.179   6.377 -0.6157  0.2676 -0.5157
  735MOL0     C 1299   3.588   6.050   6.378  0.6372  1.0478  0.6729
  735MOL0     O 1300   3.456   6.012   6.380  0.4000  0.3216  0.2450
  735MOL0     C 1301   3.349   6.099   6.352 -0.2180  0.1839 -1.0676
  735MOL0     C 1302   3.246   6.048   6.254 -0.9109  0.8628 -0.5038
  735MOL0     C 1303   3.103   6.104   6.296 -0.2529 -0.1957  0.4734
  735MOL0     C 1304   2.990   6.023   6.238  0.3663  0.1283  0.3493
  735MOL0     C 1305   2.847   6.047   6.287 -0.9333 -0.6993  0.2035
  735MOL0     C 1306   2.837   6.064   6.435  0.7129  0.2483 -0.2227
  735MOL0     C 1307   2.688   6.084   6.465 -0.9604  0.4715  0.2032
  735MOL0     C 1308   2.664   6.102   6.616  0.5719 -0.5635  0.2535
  735MOL0     N 1309   2.730   6.226   6.644  0.5664  0.0436 -0.1942
  735MOL0     C 1310   2.692   6.351   6.612 -0.6561 -0.3187 -0.3248
  735MOL0     C 1311   2.792   6.427   6.665  0.5946 -0.2881  1.2214
  735MOL0     C 1312   2.797   6.579   6.655  0.0767  0.3945  0.0861
  735MOL0     C 1313   2.769   6.630   6.510  0.3991 -0.8742 -0.3229
  735MOL0     C 1314   2.797   6.776   6.512 -0.4819 -0.3565  0.5931
  735MOL0     C 1315   2.726   6.847   6.397  0.4207  0.1812  0.2562
  735MOL0     O 1316   2.796   6.965   6.369  0.3696 -1.1876 -0.5150
  735MOL0     C 1317   2.753   7.057   6.271 -0.9867 -0.1146  0.7280
  735MOL0     C 1318   2.682   7.015   6.159 -0.0618 -0.3834 -0.4066
  735MOL0     C 1319   2.657   7.102   6.055 -0.7110  0.6998  0.6501
  735MOL0     C 1320   2.554   7.050   5.951 -0.2798 -0.2513  0.6392
  735MOL0     C 1321   2.726   7.226   6.047 -0.0891 -0.1722  0.6633
  735MOL0     C 1322   2.734   7.304   5.920  0.1402 -0.6989 -0.5246
  735MOL0     O 1323   2.813   7.413   5.924 -0.2093  0.5310  0.6991
  735MOL0     C 1324   2.853   7.463   5.796  0.4667  0.5157 -0.1785
  735MOL0     C 1325   2.929   7.386   5.700  0.6748  0.4560  0.7454
  735MOL0     C 1326   2.979   7.441   5.582 -0.1927 -0.2727 -0.5363
  735MOL0     C 1327   2.956   7.579   5.563  0.6472  0.2322  0.0930
  735MOL0     O 1328   2.987   7.653   5.451  0.9251 -0.0981 -0.0971
  735MOL0     C 1329   3.098   7.612   5.374  0.4718  1.0195 -0.3462
  735MOL0     C 1330   3.132   7.702   5.256 -0.3666 -0.4327  0.6004
  735MOL0     C 1331   3.261   7.675   5.184 -0.4893  0.8340  0.3030
  735MOL0     C 1332   3.253   7.543   5.089 -0.5667 -0.4847 -0.1848
  735MOL0     C 1333   3.315   7.569   4.951  0.4421  1.6411  0.1902
  735MOL0     C 1334   3.296   7.458   4.847  0.3495  0.3330 -0.1039
  735MOL0     C 1335   3.355   7.327   4.902 -0.4626  0.0917 -0.5253
  735MOL0     C 1336   3.500   7.335   4.945 -0.3453 -0.6218  0.3768
  735MOL0    Cl 1337   3.562   7.166   4.987 -0.3023  0.3545 -0.0133
  735MOL0     C 1338   2.880   7.650   5.651 -0.2777 -0.0982  0.2047
  735MOL0     C 1339   2.836   7.595   5.776 -0.5313  0.1043  0.6322
  735MOL0     O 1340   2.648   7.288   5.829 -0.1374  0.1671  1.3763
  735MOL0     C 1341   2.806   7.265   6.156  0.0901 -0.0829  0.2622
  735MOL0     C 1342   2.812   7.184   6.272 -0.4163  0.3890 -0.0363
  735MOL0     N 1343   2.873   6.357   6.740  0.5321  0.0666  0.2489
  735MOL0     N 1344   2.841   6.233   6.727  0.4770 -0.3553 -0.3577
  735MOL0     C 1345   3.687   5.947   6.387 -0.2159 -0.6393  0.3543
  735MOL0     C 1346   3.821   5.984   6.424 -0.1250 -0.7456 -0.3503
  735MOL0     C 1347   4.199   6.270   6.510  0.5842  1.0110 -0.1589
  735MOL0     C 1348   4.275   6.153   6.525  0.4394 -0.5753  0.5652
  735MOL0     C 1349   4.405   6.145   6.549 -0.0298  0.5105  0.2448
  735MOL0     C 1350   4.478   6.263   6.571  0.3069 -0.6858  0.5227
  735MOL0     O 1351   4.613   6.262   6.578  0.1402  1.1578  0.3688
  735MOL0     C 1352   4.671   6.310   6.457 -0.8883 -0.0578 -0.1284
  735MOL0     C 1353   4.825   6.284   6.478  0.3467  0.2910  0.8349
  735MOL0     C 1354   4.877   6.181   6.578  0.1076 -0.5795 -0.4846
  735MOL0     C 1355   5.031   6.199   6.585  0.3712  0.4332 -0.6295
  735MOL0     C 1356   5.104   6.072   6.620 -0.4843 -0.1598 -0.1701
  735MOL0     C 1357   5.172   5.975   6.651 -0.2433 -0.3166  0.1058
  735MOL0     C 1358   4.408   6.387   6.565 -0.2053 -0.0664  0.7661
  735MOL0     C 1359   4.273   6.391   6.523  0.6083  0.2997 -0.3810
  735MOL0     C 1360   4.210   6.526   6.522 -0.4225  0.0913  0.1704
  735MOL0     H 1361   3.790   6.313   6.408 -2.0316  1.1422 -1.5834
  735MOL0     H 1362   3.563   6.262   6.371 -1.2737 -0.0943  1.4714
  735MOL0     H 1363   3.369   6.204   6.327 -2.0298  1.9498  3.7546
  735MOL0     H 1364   3.296   6.114   6.446  1.2268 -0.0597 -0.1747
  735MOL0     H 1365   3.271   6.056   6.148  3.1219  1.5683  0.3706
  735MOL0     H 1366   3.245   5.940   6.270  0.6773  1.1596  2.1591
  735MOL0     H 1367   3.104   6.118   6.405  3.0419  0.7444  0.4305
  735MOL0     H 1368   3.100   6.202   6.248 -0.2063 -1.0670 -1.3956
  735MOL0     H 1369   2.994   6.028   6.129  1.4370 -0.7631  0.3260
  735MOL0     H 1370   3.023   5.921   6.260  1.9209  0.6850  0.7448
  735MOL0     H 1371   2.779   5.970   6.249 -0.1378 -1.0265 -0.5947
  735MOL0     H 1372   2.828   6.145   6.242  2.3917  0.0211  0.1200
  735MOL0     H 1373   2.883   5.982   6.490  0.3384 -0.0530 -0.3571
  735MOL0     H 1374   2.884   6.160   6.459 -1.3221  1.2377  0.0208
  735MOL0     H 1375   2.641   6.000   6.414 -0.4700 -0.7507  1.6879
  735MOL0     H 1376   2.639   6.165   6.411 -2.4953 -0.5268  0.0329
  735MOL0     H 1377   2.556   6.104   6.630  0.2927 -0.3985 -1.5717
  735MOL0     H 1378   2.712   6.024   6.676 -0.3514 -0.1913  1.4891
  735MOL0     H 1379   2.610   6.371   6.544 -0.8136 -1.3393 -0.4523
  735MOL0     H 1380   2.901   6.608   6.674 -0.0223  0.0935  1.1539
  735MOL0     H 1381   2.723   6.616   6.727 -2.3398 -1.0693 -1.4947
  735MOL0     H 1382   2.827   6.572   6.437  0.0230 -1.1140 -0.4372
  735MOL0     H 1383   2.665   6.613   6.482  0.6092  1.1625 -2.6281
  735MOL0     H 1384   2.758   6.820   6.604 -0.0861  2.4017 -0.4751
  735MOL0     H 1385   2.905   6.792   6.519 -0.4201 -0.1459 -0.7256
  735MOL0     H 1386   2.725   6.775   6.315 -1.4258 -0.1687  0.5334
  735MOL0     H 1387   2.626   6.860   6.439 -0.3009 -1.2383 -0.9069
  735MOL0     H 1388   2.641   6.917   6.139 -1.5592  0.7270 -3.6174
  735MOL0     H 1389   2.460   7.107   5.945  0.5227  1.0429 -0.2453
  735MOL0     H 1390   2.540   6.946   5.980  1.2398 -0.8268 -0.6102
  735MOL0     H 1391   2.607   7.044   5.856  1.6728 -3.2645  1.7716
  735MOL0     H 1392   2.938   7.284   5.734 -1.2451  1.0897  3.5229
  735MOL0     H 1393   3.033   7.380   5.510  0.7910  0.3231 -0.3338
  735MOL0     H 1394   3.182   7.597   5.442  0.9467 -1.9071 -1.4058
  735MOL0     H 1395   3.069   7.513   5.337  0.7517  0.8389 -0.0791
  735MOL0     H 1396   3.046   7.694   5.189  0.1233 -2.0635  0.1281
  735MOL0     H 1397   3.153   7.802   5.296 -0.2120 -0.1251 -0.2174
  735MOL0     H 1398   3.338   7.675   5.261 -1.9252 -1.1148  1.8260
  735MOL0     H 1399   3.283   7.762   5.121  1.1222  0.5633  0.4569
  735MOL0     H 1400   3.149   7.512   5.073 -0.8260  1.4028 -2.7086
  735MOL0     H 1401   3.302   7.461   5.142 -0.1469  0.7495  1.4396
  735MOL0     H 1402   3.263   7.660   4.918 -0.3334  1.8420  1.8814
  735MOL0     H 1403   3.420   7.598   4.964  0.4411  0.6131  3.0961
  735MOL0     H 1404   3.341   7.484   4.750 -1.4152  3.3819 -0.2515
  735MOL0     H 1405   3.191   7.439   4.824  0.7427 -2.7070  0.2813
  735MOL0     H 1406   3.362   7.248   4.826  2.6593 -2.0628  1.7156
  735MOL0     H 1407   3.284   7.295   4.978 -1.3114 -2.4306 -2.2299
  735MOL0     H 1408   3.512   7.401   5.032  0.8321  0.8344 -0.8213
  735MOL0     H 1409   3.561   7.376   4.864 -1.4620 -1.4590 -0.9172
  735MOL0     H 1410   2.862   7.755   5.627 -0.8077  0.2061  1.8090
  735MOL0     H 1411   2.779   7.646   5.853 -0.1781 -0.7270  1.4601
  735MOL0     H 1412   2.843   7.367   6.153  1.5878 -0.5930 -2.3545
  735MOL0     H 1413   2.880   7.206   6.354 -0.6290  3.5218 -0.5661
  735MOL0     H 1414   3.657   5.843   6.398 -4.8069  0.3052 -1.1954
  735MOL0     H 1415   3.880   5.896   6.446  1.4354 -0.4461 -2.9618
  735MOL0     H 1416   4.219   6.061   6.509 -1.7645  1.0925 -2.1081
  735MOL0     H 1417   4.442   6.044   6.542  2.1543  1.3042 -0.4108
  735MOL0     H 1418   4.631   6.241   6.382 -2.7053  0.7295  0.0723
  735MOL0     H 1419   4.653   6.418   6.453  3.0464  0.9135  2.6411
  735MOL0     H 1420   4.858   6.387   6.494  3.5692 -0.2896 -1.1035
  735MOL0     H 1421   4.858   6.255   6.378  2.5115 -1.2288  1.8869
  735MOL0     H 1422   4.832   6.191   6.677 -0.9914 -1.4333 -0.8764
  735MOL0     H 1423   4.853   6.086   6.529  1.5267 -1.4772  0.4562
  735MOL0     H 1424   5.059   6.269   6.664 -1.9166 -1.4623  2.0453
  735MOL0     H 1425   5.068   6.244   6.492  1.5710 -1.8856 -1.3382
  735MOL0     H 1426   5.218   5.892   6.700  0.8187  0.5933  0.7131
  735MOL0     H 1427   4.462   6.476   6.596  0.0785  0.3200 -0.7516
  735MOL0     H 1428   4.149   6.525   6.613 -1.4119 -1.4226 -0.4661
  735MOL0     H 1429   4.288   6.603   6.517 -1.3376  1.3483  2.9233
  735MOL0     H 1430   4.166   6.552   6.425  1.0189  0.9024 -0.2977
  736MOL0     O 1431   6.482  10.488   2.961 -0.0715 -0.0976  0.1457
  736MOL0     C 1432   6.584  10.457   3.013  0.2127  0.4661  0.0980
  736MOL0     O 1433   6.601  10.343   3.082  0.1824  0.1588 -0.3474
  736MOL0     C 1434   6.492  10.265   3.115  1.0659  0.2904 -0.7068
  736MOL0     C 1435   6.402  10.220   3.020  0.3854  0.0881 -0.0552
  736MOL0     C 1436   6.292  10.139   3.049 -0.0758  0.3479  1.0300
  736MOL0     C 1437   6.263  10.096   3.183 -0.7862 -0.7020 -0.5915
  736MOL0     O 1438   6.163  10.027   3.226 -0.2174 -0.0069  0.0396
  736MOL0     C 1439   6.041  10.013   3.161 -0.0328  0.1025  0.4383
  736MOL0     C 1440   5.993   9.872   3.185  0.2969 -0.6389 -1.0207
  736MOL0     C 1441   5.848   9.857   3.138 -0.5683 -0.5547 -0.4434
  736MOL0     C 1442   5.804   9.713   3.167 -0.3673 -0.3893 -0.2934
  736MOL0     C 1443   5.765   9.681   3.314 -0.9815  0.1383  0.1365
  736MOL0     C 1444   5.697   9.546   3.340 -0.7652  0.6533  0.3221
  736MOL0     C 1445   5.695   9.503   3.488 -0.0597  0.5754 -0.7346
  736MOL0     C 1446   5.589   9.395   3.508  0.1014  0.6961 -1.0441
  736MOL0     N 1447   5.620   9.280   3.429 -0.3525  0.7022  0.1196
  736MOL0     C 1448   5.726   9.201   3.445  0.8039 -0.3162 -0.8721
  736MOL0     C 1449   5.722   9.124   3.329 -0.2131  0.4587 -0.0762
  736MOL0     C 1450   5.819   9.012   3.282  1.0031  0.9014  0.1820
  736MOL0     C 1451   5.749   8.882   3.323 -0.6301 -0.5888  0.9815
  736MOL0     C 1452   5.844   8.807   3.424  1.1559  0.8561  0.2057
  736MOL0     C 1453   5.792   8.652   3.415  0.7817 -2.1165 -0.2737
  736MOL0     O 1454   5.655   8.643   3.469  0.6828  0.0456 -0.4071
  736MOL0     C 1455   5.645   8.653   3.606 -1.0493  0.8989 -0.2936
  736MOL0     C 1456   5.695   8.550   3.687  0.6966  1.9138  0.2991
  736MOL0     C 1457   5.694   8.556   3.827  0.6506  0.2966 -0.5235
  736MOL0     C 1458   5.759   8.426   3.893  0.3576  0.1803  0.2489
  736MOL0     C 1459   5.633   8.663   3.893 -0.0064  0.0865  0.7006
  736MOL0     C 1460   5.618   8.673   4.042 -0.0565 -0.2358 -0.0588
  736MOL0     O 1461   5.715   8.605   4.108 -0.4339  0.3062 -0.9587
  736MOL0     C 1462   5.723   8.631   4.246 -0.1926 -0.2837  0.2362
  736MOL0     C 1463   5.702   8.753   4.298 -0.3495  0.6452  0.6541
  736MOL0     C 1464   5.716   8.787   4.433 -0.3215 -0.3987  0.4221
  736MOL0     C 1465   5.743   8.685   4.517 -0.4475  0.2865  0.3872
  736MOL0     O 1466   5.774   8.706   4.651  0.9522  0.5193  0.1827
  736MOL0     C 1467   5.904   8.730   4.674 -0.2838 -0.0234 -0.7559
  736MOL0     C 1468   5.913   8.727   4.832 -0.8139  0.7229  0.1586
  736MOL0     C 1469   6.043   8.796   4.892 -1.0190  0.8120 -0.2855
  736MOL0     C 1470   6.030   8.948   4.917  0.5160  0.3431 -0.4647
  736MOL0     C 1471   6.127   8.996   5.031 -0.0254 -0.7726  0.2346
  736MOL0     C 1472   6.256   8.918   5.019 -0.3271  0.1202 -0.6079
  736MOL0     C 1473   6.358   8.991   5.110  0.4385 -1.1451 -0.4379
  736MOL0     C 1474   6.506   8.948   5.101 -0.0427  0.3691  0.4439
  736MOL0    Cl 1475   6.536   8.800   5.198  0.1213 -0.0804 -0.0326
  736MOL0     C 1476   5.742   8.552   4.472 -0.6721 -0.8471 -0.2468
  736MOL0     C 1477   5.745   8.528   4.333  0.2980  0.4589  0.0476
  736MOL0     O 1478   5.513   8.720   4.094  0.2689  0.7060  0.5867
  736MOL0     C 1479   5.573   8.767   3.811  1.2583  0.7328  0.2833
  736MOL0     C 1480   5.580   8.754   3.673 -0.0420 -0.1378  0.4412
  736MOL0     N 1481   5.605   9.162   3.259 -1.1748  0.3869  0.1331
  736MOL0     N 1482   5.551   9.255   3.324  0.4854  1.2830  0.7030
  736MOL0     C 1483   6.354  10.136   3.281  0.4094  0.2657 -0.2109
  736MOL0     C 1484   6.469  10.208   3.245 -0.5782 -0.1854  0.5681
  736MOL0     C 1485   6.710  10.534   2.998  0.4493 -0.2166 -0.0561
  736MOL0     C 1486   6.829  10.486   3.053 -0.4960 -0.3398  0.0075
  736MOL0     C 1487   6.944  10.559   3.067 -0.2150  0.3486 -0.7743
  736MOL0     C 1488   6.938  10.690   3.023  0.4165  0.6871  0.2793
  736MOL0     O 1489   7.045  10.777   3.033 -0.8134 -0.9995  0.2152
  736MOL0     C 1490   7.162  10.754   3.114 -0.4821  0.3420 -0.5740
  736MOL0     C 1491   7.281  10.660   3.068 -0.3072 -1.3525 -0.3350
  736MOL0     C 1492   7.402  10.684   3.151 -1.1969  0.0475  0.1783
  736MOL0     C 1493   7.513  10.593   3.097 -0.2494 -0.2440 -0.4796
  736MOL0     C 1494   7.624  10.605   3.188 -0.9735  0.8986  0.0151
  736MOL0     C 1495   7.718  10.585   3.256 -0.4711 -0.0041 -0.5486
  736MOL0     C 1496   6.821  10.742   2.960 -0.2586  1.4208 -0.4310
  736MOL0     C 1497   6.713  10.664   2.943 -0.2507 -0.3972  0.0090
  736MOL0     C 1498   6.598  10.720   2.867  0.8286 -0.8193  0.5376
  736MOL0     H 1499   6.423  10.236   2.915 -2.3612 -3.6574 -1.3944
  736MOL0     H 1500   6.226  10.106   2.969  2.4405 -1.1769 -0.5466
  736MOL0     H 1501   6.071  10.012   3.055  2.3784 -2.0709  1.0321
  736MOL0     H 1502   5.975  10.097   3.180  1.5320  1.8748 -1.4661
  736MOL0     H 1503   6.051   9.811   3.115 -1.4869 -2.1022 -1.3205
  736MOL0     H 1504   6.002   9.844   3.291  0.4666 -0.6609 -1.0419
  736MOL0     H 1505   5.780   9.922   3.195  0.7337  0.1067  0.4059
  736MOL0     H 1506   5.852   9.878   3.031 -0.9524  1.1437 -0.1506
  736MOL0     H 1507   5.717   9.703   3.102  0.5615  0.0835 -1.6647
  736MOL0     H 1508   5.882   9.640   3.142  0.5026  0.3008  0.3242
  736MOL0     H 1509   5.705   9.760   3.360 -0.3943 -1.2219  3.5310
  736MOL0     H 1510   5.859   9.687   3.369  0.8209  1.0195 -2.8358
  736MOL0     H 1511   5.594   9.564   3.306 -0.0376  2.2852 -1.1255
  736MOL0     H 1512   5.727   9.470   3.267 -2.1479 -1.2371  1.6114
  736MOL0     H 1513   5.683   9.590   3.553  0.7835 -0.0308  0.2629
  736MOL0     H 1514   5.791   9.456   3.510  0.8015  2.5846  0.0909
  736MOL0     H 1515   5.595   9.349   3.607  3.0226  1.5744 -0.7372
  736MOL0     H 1516   5.489   9.440   3.504  0.2298  0.9099 -2.6241
  736MOL0     H 1517   5.789   9.213   3.532 -0.3104  3.0419 -0.3981
  736MOL0     H 1518   5.915   9.034   3.331  2.1337 -0.0751 -1.4957
  736MOL0     H 1519   5.809   9.025   3.174 -0.8779  0.4931  0.2785
  736MOL0     H 1520   5.645   8.891   3.354 -0.3157  0.4643  1.7940
  736MOL0     H 1521   5.749   8.827   3.229  5.8151  2.8701 -1.7373
  736MOL0     H 1522   5.944   8.827   3.384  0.7378  0.8180 -0.8997
  736MOL0     H 1523   5.838   8.854   3.522 -1.7782  1.9196 -0.3764
  736MOL0     H 1524   5.792   8.623   3.310 -1.2020  1.8530 -1.6085
  736MOL0     H 1525   5.871   8.599   3.469  0.6252 -0.7022  1.4737
  736MOL0     H 1526   5.748   8.479   3.625  0.8568  2.3136 -0.0241
  736MOL0     H 1527   5.680   8.359   3.929 -0.5797  0.1955 -1.6296
  736MOL0     H 1528   5.829   8.444   3.975 -0.0119  0.6612  0.4622
  736MOL0     H 1529   5.801   8.367   3.811 -1.8522 -1.9146  0.5016
  736MOL0     H 1530   5.683   8.841   4.237 -0.1004 -0.0815 -0.4925
  736MOL0     H 1531   5.714   8.890   4.468  3.1227 -0.1547  0.2563
  736MOL0     H 1532   5.973   8.654   4.637  1.9398 -0.2299  3.2154
  736MOL0     H 1533   5.933   8.824   4.627  1.3691 -0.2045 -0.1672
  736MOL0     H 1534   5.831   8.786   4.874  0.5283  0.2089  3.7932
  736MOL0     H 1535   5.911   8.626   4.872 -2.0902  1.0398  0.9602
  736MOL0     H 1536   6.132   8.796   4.828  1.4477  0.3996  2.8654
  736MOL0     H 1537   6.072   8.736   4.978  2.1941  0.3790 -1.5207
  736MOL0     H 1538   5.930   8.981   4.948  0.2887  1.7344 -2.5000
  736MOL0     H 1539   6.066   9.010   4.834 -1.0609  0.1819 -1.3177
  736MOL0     H 1540   6.135   9.103   5.010 -4.1050 -0.5969 -1.5515
  736MOL0     H 1541   6.065   8.976   5.119 -1.7875 -1.8915 -1.1829
  736MOL0     H 1542   6.298   8.909   4.919  0.2646 -3.4765 -0.1688
  736MOL0     H 1543   6.249   8.817   5.062  1.2845  1.0993  2.2593
  736MOL0     H 1544   6.329   8.965   5.212  0.3903  0.1321 -0.1123
  736MOL0     H 1545   6.345   9.099   5.103 -3.0001 -1.2820  1.4231
  736MOL0     H 1546   6.566   9.034   5.133 -3.8199  3.9654 -1.2234
  736MOL0     H 1547   6.529   8.922   4.997  1.0573  0.1678  0.7197
  736MOL0     H 1548   5.757   8.475   4.547  2.2933  0.5882  0.7518
  736MOL0     H 1549   5.780   8.430   4.303 -0.6596 -0.2164  1.0621
  736MOL0     H 1550   5.514   8.845   3.858 -0.4911 -0.2554 -0.1647
  736MOL0     H 1551   5.517   8.819   3.613 -1.6654 -3.3050 -1.5584
  736MOL0     H 1552   6.344  10.093   3.380 -2.2209 -0.5614 -0.7606
  736MOL0     H 1553   6.538  10.229   3.326 -2.0528  2.3076  1.3009
  736MOL0     H 1554   6.830  10.383   3.087  0.0138 -0.1676  0.5383
  736MOL0     H 1555   7.024  10.511   3.122 -2.9608 -0.4834  2.9064
  736MOL0     H 1556   7.212  10.849   3.135 -0.1383  0.0856 -0.2160
  736MOL0     H 1557   7.124  10.717   3.210 -0.6194  2.3717  0.2066
  736MOL0     H 1558   7.309  10.689   2.966 -1.9809  2.3452  0.1328
  736MOL0     H 1559   7.260  10.552   3.075  0.5481 -1.7743 -3.0642
  736MOL0     H 1560   7.442  10.786   3.144  3.6800 -1.5738  0.3974
  736MOL0     H 1561   7.367  10.664   3.252 -1.2117 -0.3865  0.0920
  736MOL0     H 1562   7.553  10.619   2.998  0.8865  1.3636  0.3565
  736MOL0     H 1563   7.478  10.489   3.093  1.0442 -0.6974 -0.5967
  736MOL0     H 1564   7.806  10.554   3.309 -0.7918  1.4884  0.9523
  736MOL0     H 1565   6.838  10.842   2.919  2.3874  0.0812 -2.9663
  736MOL0     H 1566   6.514  10.742   2.933 -2.4206 -0.4997 -3.3740
  736MOL0     H 1567   6.637  10.811   2.821  2.1032 -1.6698 -0.1383
  736MOL0     H 1568   6.571  10.650   2.788  0.7315  0.2730 -0.4201
  737MOL0     O 1569   5.911   9.589   6.400  0.3516 -0.5342  0.7212
  737MOL0     C 1570   5.924   9.708   6.410 -1.1262 -0.4359 -0.4880
  737MOL0     O 1571   5.885   9.790   6.510  0.2675 -0.1861 -0.0547
  737MOL0     C 1572   5.825   9.736   6.625  0.4289 -0.2783  0.2570
  737MOL0     C 1573   5.900   9.681   6.726  0.3938 -0.9798  0.8561
  737MOL0     C 1574   5.837   9.610   6.836 -0.9969 -0.0378  0.3360
  737MOL0     C 1575   5.702   9.587   6.841 -0.6161 -1.2929 -0.3030
  737MOL0     O 1576   5.648   9.531   6.951  0.1169 -0.3228  0.7494
  737MOL0     C 1577   5.558   9.624   7.020 -0.3130  0.2998  0.4007
  737MOL0     C 1578   5.518   9.542   7.143  0.1833 -0.1840 -0.0744
  737MOL0     C 1579   5.372   9.566   7.173 -0.6433  0.6465  0.2748
  737MOL0     C 1580   5.316   9.513   7.315  0.3502 -0.1365  0.3968
  737MOL0     C 1581   5.170   9.546   7.325  0.4354 -0.3449 -0.5803
  737MOL0     C 1582   5.118   9.499   7.458 -0.3061  0.1763  0.9446
  737MOL0     C 1583   4.968   9.541   7.475 -0.4344  0.7244 -0.1070
  737MOL0     C 1584   4.970   9.684   7.528  1.1733  0.0426  0.0891
  737MOL0     N 1585   4.834   9.718   7.589 -0.2426  0.7926 -0.1972
  737MOL0     C 1586   4.717   9.715   7.524  0.9920 -0.9585  0.2220
  737MOL0     C 1587   4.620   9.720   7.625 -0.8154 -0.9583  0.0400
  737MOL0     C 1588   4.472   9.715   7.595  0.7234  0.4021 -0.5751
  737MOL0     C 1589   4.385   9.644   7.702 -0.6746  0.0196 -0.5083
  737MOL0     C 1590   4.237   9.673   7.679  0.8231  0.9447 -0.3123
  737MOL0     C 1591   4.145   9.566   7.762  0.2441 -0.0702  0.4513
  737MOL0     O 1592   4.012   9.593   7.720  0.5969  0.5000  0.2385
  737MOL0     C 1593   3.922   9.538   7.808  0.5871  0.3171 -0.2288
  737MOL0     C 1594   3.878   9.415   7.795 -0.3419 -0.1127  0.5681
  737MOL0     C 1595   3.800   9.354   7.899  0.4623  0.6171 -0.8754
  737MOL0     C 1596   3.768   9.206   7.869  0.8366 -0.1749 -0.4276
  737MOL0     C 1597   3.759   9.422   8.010  0.4024 -0.3360  0.1244
  737MOL0     C 1598   3.683   9.380   8.128  0.2787  0.3074 -0.5411
  737MOL0     O 1599   3.653   9.469   8.237 -0.4451  0.3633 -0.2108
  737MOL0     C 1600   3.559   9.427   8.326 -0.5575 -0.3925 -1.0236
  737MOL0     C 1601   3.599   9.395   8.461  0.9411  0.9463 -0.0152
  737MOL0     C 1602   3.494   9.353   8.549  0.2220 -0.3554 -0.0416
  737MOL0     C 1603   3.357   9.360   8.515 -0.3132  0.1841  0.3290
  737MOL0     O 1604   3.269   9.320   8.610  0.0919  0.3044  0.6495
  737MOL0     C 1605   3.144   9.258   8.569 -0.0622 -0.5443 -0.6912
  737MOL0     C 1606   3.042   9.367   8.631 -0.0733  1.2807 -0.3925
  737MOL0     C 1607   3.074   9.405   8.780 -0.0163  0.1323  0.2262
  737MOL0     C 1608   2.946   9.450   8.850 -0.1850 -0.2809  0.7878
  737MOL0     C 1609   2.961   9.463   9.001  0.7573  0.9323 -0.4929
  737MOL0     C 1610   3.026   9.341   9.074 -0.0072  0.9353 -0.7514
  737MOL0     C 1611   2.954   9.210   9.061  0.6236  1.3092 -0.1171
  737MOL0     C 1612   3.047   9.089   9.061  0.0224 -0.0490  0.3429
  737MOL0    Cl 1613   2.961   8.920   9.066 -0.1337 -0.1509 -0.1419
  737MOL0     C 1614   3.329   9.394   8.386 -0.1620  0.3555  0.6383
  737MOL0     C 1615   3.426   9.425   8.291  0.6015 -0.4026  0.1488
  737MOL0     O 1616   3.656   9.266   8.140 -0.9724 -0.7858  0.7880
  737MOL0     C 1617   3.828   9.543   8.028 -0.2950  0.2178  0.3469
  737MOL0     C 1618   3.913   9.598   7.936 -0.2657  0.6590  0.0884
  737MOL0     N 1619   4.682   9.729   7.747  0.6094  0.5737 -0.0044
  737MOL0     N 1620   4.806   9.722   7.726 -0.3922 -0.8547  0.1550
  737MOL0     C 1621   5.626   9.647   6.742 -0.2815  0.0194  0.4886
  737MOL0     C 1622   5.689   9.720   6.637  0.0695 -0.3710 -0.6897
  737MOL0     C 1623   5.995   9.768   6.301  0.0115 -0.1836  0.0615
  737MOL0     C 1624   6.076   9.678   6.221  0.3554 -0.8162 -0.1426
  737MOL0     C 1625   6.138   9.728   6.105 -0.6387  0.8013  0.1650
  737MOL0     C 1626   6.130   9.861   6.061  0.4957  0.0784 -0.8101
  737MOL0     O 1627   6.212   9.888   5.958 -0.5696 -0.7084  0.5994
  737MOL0     C 1628   6.191  10.009   5.888  0.1749  0.3709  0.4272
  737MOL0     C 1629   6.060  10.015   5.797 -0.0424 -0.4020  0.0461
  737MOL0     C 1630   6.047   9.890   5.696 -1.0484  0.3885  0.1828
  737MOL0     C 1631   5.935   9.917   5.597 -0.6460  0.5341 -0.7512
  737MOL0     C 1632   5.965  10.019   5.497 -0.1063  0.4713  0.0517
  737MOL0     C 1633   5.981  10.107   5.416 -0.3114  0.3147 -0.7807
  737MOL0     C 1634   6.039   9.952   6.129  0.9821  0.4104  0.2283
  737MOL0     C 1635   5.968   9.900   6.245 -0.2511 -0.9928  0.9007
  737MOL0     C 1636   5.871   9.996   6.300 -0.5289  0.6865  0.6895
  737MOL0     H 1637   6.007   9.692   6.712 -0.0956 -0.4053 -3.9732
  737MOL0     H 1638   5.909   9.556   6.897 -0.1257  0.6155 -0.0921
  737MOL0     H 1639   5.482   9.654   6.947 -0.6223 -1.1186  0.1086
  737MOL0     H 1640   5.601   9.719   7.052  3.0780 -1.2054  0.6933
  737MOL0     H 1641   5.541   9.436   7.137  0.7757  0.0172 -1.7459
  737MOL0     H 1642   5.566   9.582   7.233  1.2773 -3.2833  0.8163
  737MOL0     H 1643   5.351   9.673   7.174 -0.9670  0.5844  0.1760
  737MOL0     H 1644   5.320   9.529   7.085  1.5420 -1.4522 -0.2236
  737MOL0     H 1645   5.329   9.405   7.328 -2.1353 -0.4296  0.9843
  737MOL0     H 1646   5.367   9.578   7.386 -0.6496  1.8589 -0.6135
  737MOL0     H 1647   5.105   9.497   7.252 -1.7206  2.4875 -0.7369
  737MOL0     H 1648   5.161   9.653   7.307 -0.1349 -0.3081 -0.0986
  737MOL0     H 1649   5.119   9.390   7.461  0.3995  0.0714 -1.2337
  737MOL0     H 1650   5.186   9.536   7.534  1.7777 -0.6149 -0.4538
  737MOL0     H 1651   4.921   9.468   7.542  1.7877 -0.0188  0.7697
  737MOL0     H 1652   4.920   9.526   7.378 -0.6136 -2.9343  0.4078
  737MOL0     H 1653   5.050   9.703   7.599  0.4456  0.3550  0.8318
  737MOL0     H 1654   4.999   9.746   7.442 -1.5190 -3.0232 -3.4019
  737MOL0     H 1655   4.698   9.698   7.419  1.1214 -1.0750  0.2168
  737MOL0     H 1656   4.456   9.665   7.499 -1.0750  3.3687 -1.9737
  737MOL0     H 1657   4.433   9.818   7.596  2.4813  1.1155  0.6385
  737MOL0     H 1658   4.400   9.537   7.683 -3.8635 -0.9078  1.3614
  737MOL0     H 1659   4.414   9.669   7.804  0.1992  0.6839 -0.9166
  737MOL0     H 1660   4.217   9.774   7.716 -0.8488  0.2648  0.7632
  737MOL0     H 1661   4.219   9.663   7.572  4.7892 -2.4496 -0.9266
  737MOL0     H 1662   4.177   9.464   7.736 -0.6059  0.0181 -1.0911
  737MOL0     H 1663   4.169   9.579   7.868 -1.1196  2.6532  0.5217
  737MOL0     H 1664   3.907   9.368   7.701 -3.4718 -2.3543  0.5382
  737MOL0     H 1665   3.792   9.187   7.765 -2.6007  0.8430 -1.5564
  737MOL0     H 1666   3.666   9.176   7.895  1.3876 -1.1768  0.6649
  737MOL0     H 1667   3.827   9.146   7.939 -0.2588  0.5601  1.2065
  737MOL0     H 1668   3.701   9.398   8.498  1.2986  0.3182 -0.9056
  737MOL0     H 1669   3.497   9.337   8.657  1.3088  3.1949  0.5984
  737MOL0     H 1670   3.123   9.251   8.462 -3.4556 -1.8439 -0.0527
  737MOL0     H 1671   3.129   9.160   8.616 -0.5374  1.4910  4.0032
  737MOL0     H 1672   3.036   9.458   8.572  0.3260  0.1097 -2.3244
  737MOL0     H 1673   2.940   9.328   8.629  0.3257 -0.0819  1.9117
  737MOL0     H 1674   3.147   9.486   8.781 -0.7324  0.8440 -1.2855
  737MOL0     H 1675   3.113   9.313   8.825 -0.2228 -0.3427 -0.5399
  737MOL0     H 1676   2.860   9.383   8.835  1.8588 -3.1899  1.0854
  737MOL0     H 1677   2.923   9.550   8.813 -0.2978 -0.0331  1.5127
  737MOL0     H 1678   3.019   9.552   9.028  1.6022  0.1067  0.4836
  737MOL0     H 1679   2.862   9.481   9.043 -0.4491  0.3431 -2.8895
  737MOL0     H 1680   3.019   9.368   9.180 -0.4691  0.9859 -0.7922
  737MOL0     H 1681   3.130   9.337   9.040  0.4462  0.1463  0.6375
  737MOL0     H 1682   2.889   9.203   8.973  0.6906 -2.9618 -0.0435
  737MOL0     H 1683   2.882   9.205   9.143  1.1007  0.9704  0.2923
  737MOL0     H 1684   3.128   9.090   9.134  1.1688  1.4850 -0.8584
  737MOL0     H 1685   3.102   9.096   8.966  1.8600 -1.1772  1.2684
  737MOL0     H 1686   3.226   9.410   8.359  0.3830 -0.8466 -2.5712
  737MOL0     H 1687   3.391   9.456   8.193  0.2511  1.4311  0.8024
  737MOL0     H 1688   3.833   9.604   8.117 -1.1552  1.3240 -0.3230
  737MOL0     H 1689   3.963   9.690   7.964 -1.3061  1.1629  0.3325
  737MOL0     H 1690   5.517   9.648   6.745 -0.3698 -0.3245 -1.4214
  737MOL0     H 1691   5.628   9.765   6.560  0.1715  0.9270 -0.0347
  737MOL0     H 1692   6.093   9.573   6.241 -1.5738 -0.8750  1.5028
  737MOL0     H 1693   6.202   9.658   6.053 -0.7555 -0.0817  1.1891
  737MOL0     H 1694   6.217  10.094   5.951  2.1270  0.8330 -0.9266
  737MOL0     H 1695   6.269  10.014   5.812  1.1997 -3.0546  1.0910
  737MOL0     H 1696   6.054  10.100   5.729 -2.0763 -0.5957 -0.1030
  737MOL0     H 1697   5.973  10.029   5.863 -0.3692  0.3346 -0.5374
  737MOL0     H 1698   6.138   9.857   5.643 -0.7960 -0.4862  1.1356
  737MOL0     H 1699   6.013   9.803   5.753  1.9473 -2.3011 -1.7653
  737MOL0     H 1700   5.838   9.928   5.646  0.4557 -1.6072  2.2054
  737MOL0     H 1701   5.909   9.830   5.535  0.6053 -0.4889  0.1043
  737MOL0     H 1702   5.986  10.185   5.343 -3.1111  0.6372 -0.7484
  737MOL0     H 1703   6.027  10.054   6.095 -2.9319 -0.2365 -0.7639
  737MOL0     H 1704   5.835  10.066   6.224  0.2521 -1.7522 -2.1266
  737MOL0     H 1705   5.780   9.943   6.331  2.3862 -6.8783 -1.5569
  737MOL0     H 1706   5.914  10.054   6.383 -1.6626  1.7672  0.5544
  738MOL0     O 1707   5.449   4.638   3.310  0.3185 -0.6680  0.1191
  738MOL0     C 1708   5.541   4.694   3.374 -0.7693  0.3862  0.0128
  738MOL0     O 1709   5.519   4.800   3.444  0.6570 -0.1902 -0.1090
  738MOL0     C 1710   5.392   4.840   3.465 -0.4489 -0.0171 -0.2627
  738MOL0     C 1711   5.344   4.968   3.410 -0.3685 -0.6405  0.7081
  738MOL0     C 1712   5.221   5.023   3.448 -0.3252 -0.1365 -0.0440
  738MOL0     C 1713   5.134   4.945   3.530 -0.8359 -0.8153  0.4399
  738MOL0     O 1714   5.014   4.985   3.593 -0.6136  0.1726  0.1480
  738MOL0     C 1715   4.985   5.122   3.611 -0.2514  0.0160  0.1839
  738MOL0     C 1716   4.836   5.145   3.592  0.1599  0.1858 -0.0614
  738MOL0     C 1717   4.801   5.301   3.615 -0.1716 -0.1732 -0.1028
  738MOL0     C 1718   4.857   5.381   3.733 -0.3998  0.3217  0.6416
  738MOL0     C 1719   4.775   5.511   3.760  0.7121 -0.4951 -0.1355
  738MOL0     C 1720   4.851   5.600   3.848  0.7684  0.8996 -0.1174
  738MOL0     C 1721   4.786   5.736   3.895 -0.3738  0.5543  0.5193
  738MOL0     C 1722   4.630   5.740   3.906  0.3912 -0.1828 -0.1516
  738MOL0     N 1723   4.564   5.872   3.913  0.2243  0.3527 -0.8393
  738MOL0     C 1724   4.564   5.949   4.029  0.1836  0.4167 -0.6813
  738MOL0     C 1725   4.497   6.064   3.994  0.5004  0.1143 -0.2996
  738MOL0     C 1726   4.481   6.182   4.087 -0.9945 -0.1489 -0.3927
  738MOL0     C 1727   4.608   6.237   4.160  0.3492 -0.3197 -0.0104
  738MOL0     C 1728   4.589   6.357   4.252 -2.1344 -0.5246 -0.0455
  738MOL0     C 1729   4.731   6.409   4.303  0.2792  1.4336 -0.7176
  738MOL0     O 1730   4.768   6.353   4.432  0.0239 -0.7114 -0.3685
  738MOL0     C 1731   4.853   6.426   4.518  0.5570 -0.3850  0.0660
  738MOL0     C 1732   4.959   6.516   4.469  0.3239  0.6578  0.2351
  738MOL0     C 1733   5.049   6.571   4.565  0.5011 -0.6517 -0.7408
  738MOL0     C 1734   5.175   6.635   4.512 -0.3682  0.2221  0.0394
  738MOL0     C 1735   5.026   6.551   4.703 -0.1088 -0.0819 -0.0699
  738MOL0     C 1736   5.114   6.625   4.799 -0.5892  0.0313 -0.2602
  738MOL0     O 1737   5.157   6.750   4.778 -0.9338 -0.8731  0.5509
  738MOL0     C 1738   5.237   6.812   4.865 -0.4201 -0.6049 -0.0858
  738MOL0     C 1739   5.377   6.799   4.847  0.3959  0.1697 -0.2529
  738MOL0     C 1740   5.471   6.852   4.947  0.3976 -0.0624 -0.6959
  738MOL0     C 1741   5.412   6.918   5.063 -0.1525 -0.3481 -0.3315
  738MOL0     O 1742   5.497   6.974   5.162  0.3351 -0.1146 -0.3642
  738MOL0     C 1743   5.527   7.109   5.137  0.5183 -0.1637  0.5378
  738MOL0     C 1744   5.591   7.159   5.263 -0.9120 -0.3638 -0.1429
  738MOL0     C 1745   5.480   7.162   5.381  0.3226 -1.3039 -0.4917
  738MOL0     C 1746   5.522   7.238   5.510  0.6690 -0.4908  0.3021
  738MOL0     C 1747   5.399   7.266   5.598 -0.4195 -0.5700  0.5589
  738MOL0     C 1748   5.421   7.411   5.670  0.2823  0.4812  1.0378
  738MOL0     C 1749   5.368   7.515   5.575 -0.2201  0.7364 -0.0831
  738MOL0     C 1750   5.423   7.650   5.605 -0.0175 -1.7912 -0.4824
  738MOL0    Cl 1751   5.446   7.742   5.459 -0.8078 -0.5904 -0.0134
  738MOL0     C 1752   5.269   6.929   5.076 -1.0402 -0.4002  0.1314
  738MOL0     C 1753   5.192   6.882   4.971 -0.7445  0.3415 -0.5135
  738MOL0     O 1754   5.140   6.558   4.898  0.0421 -0.8400 -0.0862
  738MOL0     C 1755   4.925   6.466   4.750  0.0034 -0.0205 -0.1565
  738MOL0     C 1756   4.847   6.401   4.659  0.6133  0.0169 -0.0397
  738MOL0     N 1757   4.490   6.069   3.855  0.4839 -0.1611 -0.3646
  738MOL0     N 1758   4.538   5.956   3.811  0.3099  0.5468  0.9437
  738MOL0     C 1759   5.183   4.838   3.588 -0.2288  0.9358 -0.1059
  738MOL0     C 1760   5.315   4.786   3.562 -0.0085  0.0094 -0.7032
  738MOL0     C 1761   5.675   4.639   3.347 -0.4922 -0.1744  0.3151
  738MOL0     C 1762   5.679   4.532   3.250 -1.5015 -0.0507  0.6706
  738MOL0     C 1763   5.802   4.471   3.228 -0.0247  0.5422  0.2690
  738MOL0     C 1764   5.912   4.490   3.313  0.0963  0.2936  0.2731
  738MOL0     O 1765   6.029   4.413   3.310  0.6262  0.9422 -0.1773
  738MOL0     C 1766   6.030   4.293   3.227 -0.3952 -0.3651  0.8651
  738MOL0     C 1767   6.173   4.239   3.226  0.4069 -0.8545  0.2092
  738MOL0     C 1768   6.277   4.351   3.190 -0.3329 -0.0589  0.7700
  738MOL0     C 1769   6.399   4.281   3.123 -0.6862  0.6585 -0.0346
  738MOL0     C 1770   6.455   4.187   3.224 -1.0575  0.2505 -1.0703
  738MOL0     C 1771   6.497   4.101   3.303 -0.2711  0.0387  0.2821
  738MOL0     C 1772   5.907   4.609   3.392  0.3372  0.1051  0.7648
  738MOL0     C 1773   5.794   4.686   3.406  0.0317 -0.4589 -1.4685
  738MOL0     C 1774   5.803   4.805   3.497 -0.5826 -0.0878 -0.7014
  738MOL0     H 1775   5.399   5.030   3.340  1.3304 -0.8523  1.7961
  738MOL0     H 1776   5.192   5.126   3.427  2.0484  0.7346  0.6062
  738MOL0     H 1777   5.035   5.187   3.538 -0.3523 -0.1491 -0.0342
  738MOL0     H 1778   5.015   5.167   3.706 -1.8609 -1.6946  1.5605
  738MOL0     H 1779   4.805   5.124   3.489 -1.7333  1.4940  0.1870
  738MOL0     H 1780   4.772   5.092   3.663 -1.9916  1.7274 -0.7553
  738MOL0     H 1781   4.831   5.351   3.522 -0.5514 -1.2988 -0.8461
  738MOL0     H 1782   4.693   5.313   3.630 -0.7365 -0.4059 -3.3394
  738MOL0     H 1783   4.856   5.325   3.827  1.6843  1.3186  1.3084
  738MOL0     H 1784   4.961   5.409   3.716  0.2765 -1.1220  2.1018
  738MOL0     H 1785   4.678   5.490   3.806  0.4748  1.3528  0.3030
  738MOL0     H 1786   4.760   5.551   3.659 -0.5048 -0.8137 -0.0938
  738MOL0     H 1787   4.863   5.543   3.941  0.5956 -0.5536 -0.9426
  738MOL0     H 1788   4.951   5.627   3.812  0.5433  1.7800 -0.0994
  738MOL0     H 1789   4.803   5.801   3.809 -1.1608 -1.1325 -0.9632
  738MOL0     H 1790   4.832   5.769   3.989 -3.4246 -0.3758  2.5158
  738MOL0     H 1791   4.587   5.672   3.833  0.2726 -3.3515  2.6470
  738MOL0     H 1792   4.595   5.682   3.991 -0.2063  0.4718  0.0589
  738MOL0     H 1793   4.596   5.937   4.132  3.2688 -0.5526 -1.6293
  738MOL0     H 1794   4.415   6.155   4.170  2.2195 -1.0849  2.0662
  738MOL0     H 1795   4.427   6.257   4.028 -0.2977 -0.3604 -1.3329
  738MOL0     H 1796   4.664   6.158   4.211  1.1278 -0.0223 -0.3899
  738MOL0     H 1797   4.688   6.254   4.088  2.3278  0.2169  2.1831
  738MOL0     H 1798   4.541   6.444   4.207 -1.1964  0.9662  1.7484
  738MOL0     H 1799   4.524   6.329   4.335 -2.2323  1.5231  0.6207
  738MOL0     H 1800   4.808   6.391   4.228 -1.0950 -2.3266 -1.4696
  738MOL0     H 1801   4.715   6.517   4.309 -2.3326  1.1361 -1.0999
  738MOL0     H 1802   4.972   6.540   4.364 -2.2042 -0.7353 -0.4728
  738MOL0     H 1803   5.258   6.657   4.580 -1.4337 -2.1788  2.2978
  738MOL0     H 1804   5.145   6.730   4.467  1.2148  1.4588  1.4747
  738MOL0     H 1805   5.226   6.581   4.432  1.4797 -2.3978  2.7461
  738MOL0     H 1806   5.408   6.745   4.759 -0.9435  3.1249 -2.7178
  738MOL0     H 1807   5.578   6.839   4.944  0.3536 -4.5130  3.6688
  738MOL0     H 1808   5.591   7.132   5.051  2.1997  0.9041  1.9993
  738MOL0     H 1809   5.433   7.158   5.112  0.3865  1.1106  3.2052
  738MOL0     H 1810   5.680   7.096   5.275  0.2816  1.5221  1.4838
  738MOL0     H 1811   5.629   7.256   5.232  2.9263 -1.4419  0.6177
  738MOL0     H 1812   5.462   7.063   5.423  0.1873 -0.5398  1.3632
  738MOL0     H 1813   5.382   7.192   5.343 -0.2778 -2.6904 -0.0811
  738MOL0     H 1814   5.575   7.332   5.492 -1.9235  1.1153  0.5328
  738MOL0     H 1815   5.587   7.173   5.569 -0.7585 -0.0442  2.4706
  738MOL0     H 1816   5.308   7.252   5.538  0.7511 -0.4778 -1.3140
  738MOL0     H 1817   5.383   7.193   5.678 -0.1043  0.7479  1.8584
  738MOL0     H 1818   5.528   7.420   5.690  0.0885 -0.5079  2.7104
  738MOL0     H 1819   5.362   7.408   5.762 -3.3321  0.4661 -1.1100
  738MOL0     H 1820   5.260   7.522   5.587 -0.2744  6.0219 -1.1334
  738MOL0     H 1821   5.394   7.485   5.473 -1.0063 -3.6873  0.8310
  738MOL0     H 1822   5.522   7.642   5.649 -0.3197 -0.8457  0.3991
  738MOL0     H 1823   5.357   7.716   5.662 -0.0899 -1.1753 -1.2601
  738MOL0     H 1824   5.224   6.984   5.159  0.7012 -2.6395  2.7540
  738MOL0     H 1825   5.083   6.886   4.965 -0.9108 -2.8774 -1.1967
  738MOL0     H 1826   4.902   6.449   4.855 -1.7114 -2.6689 -0.8482
  738MOL0     H 1827   4.769   6.338   4.701  2.6022 -1.4572  1.6719
  738MOL0     H 1828   5.129   4.777   3.661  0.9667  1.3134  1.1232
  738MOL0     H 1829   5.347   4.688   3.597 -1.1077  0.7015  2.5728
  738MOL0     H 1830   5.593   4.509   3.189 -1.9397 -0.2900  1.3672
  738MOL0     H 1831   5.820   4.395   3.153  3.6256 -0.2953  1.7704
  738MOL0     H 1832   5.949   4.234   3.270 -0.5315 -0.8579 -0.0270
  738MOL0     H 1833   6.006   4.316   3.122  2.0265 -1.5586 -0.0396
  738MOL0     H 1834   6.185   4.160   3.151  1.6852 -0.8484  0.3788
  738MOL0     H 1835   6.198   4.187   3.319  0.1055  0.9775  1.3490
  738MOL0     H 1836   6.231   4.425   3.124 -0.3789 -2.5518 -2.2048
  738MOL0     H 1837   6.313   4.401   3.280 -0.0346 -0.2419  0.7511
  738MOL0     H 1838   6.477   4.353   3.095 -0.5012  0.9587  1.2047
  738MOL0     H 1839   6.369   4.228   3.032  0.7799 -0.3408  0.0330
  738MOL0     H 1840   6.536   4.024   3.366  0.8740 -2.7134 -3.4588
  738MOL0     H 1841   5.995   4.634   3.449  0.7581 -0.6924  0.4930
  738MOL0     H 1842   5.757   4.897   3.462  3.6579  1.7074 -2.2605
  738MOL0     H 1843   5.771   4.779   3.599  0.9811  3.4023  0.8161
  738MOL0     H 1844   5.904   4.846   3.500 -1.0979  1.7996 -4.3088
  739MOL0     O 1845   5.821   4.354   2.801  0.8141  0.1944  0.7738
  739MOL0     C 1846   5.715   4.376   2.744 -1.2161 -0.3512  0.7099
  739MOL0     O 1847   5.626   4.277   2.706 -0.0510 -0.5653 -0.2771
  739MOL0     C 1848   5.678   4.148   2.673 -0.1507 -0.5400 -0.3060
  739MOL0     C 1849   5.632   4.038   2.750 -0.1405  0.3607  0.5010
  739MOL0     C 1850   5.681   3.911   2.719  0.2897 -0.2145 -0.0310
  739MOL0     C 1851   5.767   3.887   2.617 -0.2836 -0.6207  0.3612
  739MOL0     O 1852   5.791   3.762   2.560 -0.4264 -0.1187 -0.4613
  739MOL0     C 1853   5.741   3.644   2.626  0.9344 -0.8136 -0.1758
  739MOL0     C 1854   5.813   3.529   2.546 -0.6477  0.2967  0.5576
  739MOL0     C 1855   5.766   3.398   2.603  0.1280  0.6478  0.4936
  739MOL0     C 1856   5.612   3.367   2.582 -0.5244 -0.1843 -0.0030
  739MOL0     C 1857   5.563   3.227   2.628  0.3888  0.2171  0.2168
  739MOL0     C 1858   5.538   3.232   2.778  0.7153  0.3950  0.6702
  739MOL0     C 1859   5.480   3.098   2.842  0.0335 -0.1018  0.3256
  739MOL0     C 1860   5.586   3.016   2.914 -0.3829  0.7461  0.0357
  739MOL0     N 1861   5.666   2.945   2.812 -0.2296  0.4040  0.7756
  739MOL0     C 1862   5.615   2.846   2.729  0.4859  0.3951 -0.0908
  739MOL0     C 1863   5.715   2.817   2.649  0.2366  0.1710  0.0691
  739MOL0     C 1864   5.719   2.711   2.542  0.2428 -0.6483  0.3064
  739MOL0     C 1865   5.794   2.587   2.601  0.0200 -0.5954  0.0470
  739MOL0     C 1866   5.735   2.522   2.729  0.3701  2.1959 -1.0366
  739MOL0     C 1867   5.590   2.484   2.728  0.0077  0.1337  0.7058
  739MOL0     O 1868   5.532   2.455   2.860 -0.4408  0.0830  0.1743
  739MOL0     C 1869   5.457   2.546   2.912  0.5458  0.4322 -1.2182
  739MOL0     C 1870   5.341   2.605   2.853  0.6115  0.0328  0.6031
  739MOL0     C 1871   5.278   2.728   2.897 -0.1304  0.2403 -0.3648
  739MOL0     C 1872   5.195   2.801   2.800 -0.5597 -0.0775 -0.4034
  739MOL0     C 1873   5.312   2.773   3.027 -0.4060  0.7949  0.1333
  739MOL0     C 1874   5.264   2.902   3.091 -0.0434 -0.3294  0.7614
  739MOL0     O 1875   5.328   2.958   3.189 -0.0521  0.2011 -0.1843
  739MOL0     C 1876   5.263   3.053   3.259  0.7043 -0.4920 -0.4394
  739MOL0     C 1877   5.163   3.016   3.349 -0.6021  0.0430  0.3178
  739MOL0     C 1878   5.099   3.100   3.438  0.5281 -0.0833  0.1130
  739MOL0     C 1879   5.125   3.234   3.423  0.1239  0.9740  0.5088
  739MOL0     O 1880   5.040   3.310   3.503 -0.3452  0.5853 -0.4959
  739MOL0     C 1881   5.007   3.446   3.473 -0.5932  0.3119 -0.1345
  739MOL0     C 1882   4.883   3.456   3.379  0.5195  0.0920  0.4277
  739MOL0     C 1883   4.902   3.391   3.235  0.6508  0.0949  0.5196
  739MOL0     C 1884   4.784   3.442   3.151 -0.0939  0.3077  0.4370
  739MOL0     C 1885   4.796   3.577   3.079 -0.9022 -0.5339  0.3920
  739MOL0     C 1886   4.939   3.611   3.018 -0.3589 -0.1075 -0.6201
  739MOL0     C 1887   4.931   3.746   2.941 -0.4805 -0.3608  0.4013
  739MOL0     C 1888   4.892   3.712   2.789 -0.0501 -0.1987 -0.1729
  739MOL0    Cl 1889   4.715   3.687   2.784 -0.4913  0.2362  0.1294
  739MOL0     C 1890   5.226   3.283   3.335  0.2411  1.0281 -0.5686
  739MOL0     C 1891   5.296   3.191   3.256 -0.1006  0.3471  0.5053
  739MOL0     O 1892   5.168   2.951   3.040  0.0288  0.4653  0.2065
  739MOL0     C 1893   5.419   2.697   3.089  0.3567 -0.2544 -0.0669
  739MOL0     C 1894   5.492   2.593   3.036 -0.7578  1.1788 -1.0542
  739MOL0     N 1895   5.820   2.899   2.675  0.5518  0.3238 -0.4145
  739MOL0     N 1896   5.794   2.980   2.770  0.2467  0.2629 -0.8045
  739MOL0     C 1897   5.796   4.001   2.530 -0.7019  0.0710 -0.0447
  739MOL0     C 1898   5.747   4.124   2.560 -0.1874  0.4081 -0.1044
  739MOL0     C 1899   5.673   4.521   2.723  0.3636 -0.3408  0.0837
  739MOL0     C 1900   5.562   4.547   2.638 -0.4400 -0.8639  0.3057
  739MOL0     C 1901   5.532   4.679   2.611 -0.0470 -0.4970 -0.1191
  739MOL0     C 1902   5.609   4.786   2.654 -0.4132  1.4219 -0.3484
  739MOL0     O 1903   5.581   4.917   2.615  0.2189 -0.2616  0.2978
  739MOL0     C 1904   5.517   4.996   2.713 -0.0838 -0.1108 -0.2898
  739MOL0     C 1905   5.495   5.141   2.667  0.0450 -0.3936  0.0278
  739MOL0     C 1906   5.631   5.215   2.677  0.0325 -0.4601 -0.3309
  739MOL0     C 1907   5.616   5.361   2.640  0.7330  0.2663  0.0142
  739MOL0     C 1908   5.725   5.449   2.684  0.5718  0.0069 -1.3289
  739MOL0     C 1909   5.811   5.538   2.698  0.4139 -0.0152 -0.7305
  739MOL0     C 1910   5.713   4.764   2.746 -0.0067 -0.7241  0.4790
  739MOL0     C 1911   5.742   4.633   2.781 -0.1317  0.5100 -0.1796
  739MOL0     C 1912   5.842   4.622   2.898  0.3009 -0.1505 -0.0949
  739MOL0     H 1913   5.570   4.062   2.835  0.3888  2.0320  0.4508
  739MOL0     H 1914   5.648   3.828   2.780 -2.0034  0.8007  0.2318
  739MOL0     H 1915   5.632   3.631   2.624  0.5072  0.9349  3.6878
  739MOL0     H 1916   5.764   3.638   2.733 -1.2689  0.3949  0.4417
  739MOL0     H 1917   5.783   3.533   2.441 -0.8801  3.1955  0.6357
  739MOL0     H 1918   5.921   3.546   2.553 -0.7600  1.4280 -0.1727
  739MOL0     H 1919   5.826   3.318   2.559  0.2854  0.8862  0.2765
  739MOL0     H 1920   5.786   3.388   2.711 -1.0673  0.2161  0.6866
  739MOL0     H 1921   5.544   3.442   2.623 -1.9725 -0.3534 -1.9245
  739MOL0     H 1922   5.595   3.382   2.475  1.9514  1.0823 -0.2995
  739MOL0     H 1923   5.639   3.152   2.604  0.8260  0.7783 -0.1802
  739MOL0     H 1924   5.469   3.195   2.583  0.9815 -0.8519 -0.3083
  739MOL0     H 1925   5.626   3.271   2.830  0.7153 -1.8639  2.5421
  739MOL0     H 1926   5.456   3.304   2.782 -1.1068 -1.4309 -0.9121
  739MOL0     H 1927   5.425   3.041   2.767  3.6701 -2.3426 -0.9035
  739MOL0     H 1928   5.408   3.129   2.918 -0.1392 -2.9758  1.4431
  739MOL0     H 1929   5.656   3.081   2.969  0.3923  0.2288 -0.3212
  739MOL0     H 1930   5.547   2.945   2.987  2.2515  0.7300  1.5714
  739MOL0     H 1931   5.514   2.806   2.717  0.9995 -1.3193  0.8578
  739MOL0     H 1932   5.780   2.747   2.458 -0.6284  1.0540  0.3583
  739MOL0     H 1933   5.621   2.683   2.502 -0.1782 -0.6037  1.2749
  739MOL0     H 1934   5.797   2.523   2.513  1.4167  0.1691 -0.4957
  739MOL0     H 1935   5.894   2.610   2.639  0.8421 -1.2405 -1.6224
  739MOL0     H 1936   5.772   2.421   2.746  1.2207  2.1056 -3.2062
  739MOL0     H 1937   5.753   2.579   2.821  0.2632 -0.9957  1.0878
  739MOL0     H 1938   5.544   2.551   2.654  2.0158  0.8626  0.0505
  739MOL0     H 1939   5.585   2.382   2.689 -0.4537 -0.0370  1.1893
  739MOL0     H 1940   5.316   2.572   2.752  0.0173  0.6067  0.5615
  739MOL0     H 1941   5.258   2.857   2.731  0.8943 -1.2026 -0.0332
  739MOL0     H 1942   5.123   2.874   2.838  0.1597  1.3521 -1.7278
  739MOL0     H 1943   5.149   2.720   2.742 -0.2128 -0.2593 -0.4267
  739MOL0     H 1944   5.162   2.909   3.366 -0.8963  0.2759  1.8796
  739MOL0     H 1945   5.021   3.073   3.508 -0.3772  1.0876 -0.4228
  739MOL0     H 1946   4.983   3.493   3.569 -2.8624 -1.0473  0.0415
  739MOL0     H 1947   5.089   3.510   3.439 -0.0890  0.3580  1.0949
  739MOL0     H 1948   4.797   3.406   3.424  1.8955 -0.7715  2.2638
  739MOL0     H 1949   4.838   3.556   3.375 -0.3758 -0.2137  1.9674
  739MOL0     H 1950   4.893   3.282   3.241  2.1918  0.0142  2.4854
  739MOL0     H 1951   4.998   3.421   3.191  0.4509 -0.4115 -0.2900
  739MOL0     H 1952   4.699   3.447   3.219 -1.2542 -1.0941 -0.8655
  739MOL0     H 1953   4.769   3.363   3.078  0.4186  0.6070 -0.0041
  739MOL0     H 1954   4.712   3.583   3.010 -0.4394  2.7875 -0.0676
  739MOL0     H 1955   4.773   3.663   3.143  0.5774  0.9903 -0.9974
  739MOL0     H 1956   4.961   3.532   2.946  0.3723  1.9853 -2.8247
  739MOL0     H 1957   5.024   3.615   3.086 -0.2233  3.1109 -0.7877
  739MOL0     H 1958   5.027   3.800   2.943  0.3576 -1.8172  0.6951
  739MOL0     H 1959   4.863   3.815   2.992  1.1428  0.8666  1.0066
  739MOL0     H 1960   4.953   3.629   2.751 -0.5086 -2.5440  3.6057
  739MOL0     H 1961   4.911   3.801   2.730  1.9536 -1.1100 -0.9991
  739MOL0     H 1962   5.246   3.388   3.350 -1.9629  1.1715  2.2534
  739MOL0     H 1963   5.367   3.222   3.181 -1.5742  0.5909 -0.8445
  739MOL0     H 1964   5.456   2.735   3.183  1.8143 -0.3086 -0.6041
  739MOL0     H 1965   5.582   2.555   3.084 -0.7627  0.9770 -1.2018
  739MOL0     H 1966   5.859   3.988   2.443 -2.6737 -1.2668 -1.3629
  739MOL0     H 1967   5.770   4.208   2.495  0.0284  1.4211  1.2253
  739MOL0     H 1968   5.502   4.472   2.587  1.4029 -2.0021 -0.3113
  739MOL0     H 1969   5.447   4.697   2.545 -1.5444  0.0727  1.8893
  739MOL0     H 1970   5.420   4.950   2.738 -0.4144  0.3296 -0.7604
  739MOL0     H 1971   5.580   4.989   2.802 -0.2638 -0.0912 -0.1595
  739MOL0     H 1972   5.436   5.194   2.743  0.2126  1.0080 -0.8018
  739MOL0     H 1973   5.446   5.142   2.570  0.6937 -0.3037 -0.3006
  739MOL0     H 1974   5.673   5.207   2.777 -2.2931  3.0301  1.1228
  739MOL0     H 1975   5.704   5.179   2.604 -1.3361 -2.3404 -0.8560
  739MOL0     H 1976   5.524   5.407   2.679  2.1863  2.9470  0.4985
  739MOL0     H 1977   5.598   5.360   2.532 -4.1032 -2.3074  0.5603
  739MOL0     H 1978   5.890   5.610   2.710 -0.6554  0.8597  1.9334
  739MOL0     H 1979   5.754   4.845   2.806  3.4331 -1.2331 -0.9444
  739MOL0     H 1980   5.919   4.549   2.875 -1.4798 -2.6368  1.3446
  739MOL0     H 1981   5.896   4.717   2.904  1.5732 -0.6472 -2.4081
  739MOL0     H 1982   5.789   4.597   2.990  1.8672 -1.8502  0.3854
  740MOL0     O 1983   1.540   6.230   2.531  0.0378 -0.0915  0.1929
  740MOL0     C 1984   1.424   6.281   2.532 -0.2032 -0.1924 -0.0446
  740MOL0     O 1985   1.384   6.390   2.456 -0.0997  0.2502  0.1940
  740MOL0     C 1986   1.467   6.467   2.375 -0.3293  0.5481 -0.1911
  740MOL0     C 1987   1.398   6.536   2.277 -0.4574  0.7457 -0.3092
  740MOL0     C 1988   1.465   6.627   2.194 -0.2404 -0.3586  0.3855
  740MOL0     C 1989   1.600   6.633   2.193 -0.5998  0.4429  0.3398
  740MOL0     O 1990   1.672   6.721   2.104  0.2769 -0.9466 -0.1418
  740MOL0     C 1991   1.648   6.725   1.968 -0.0920 -0.1631 -0.9057
  740MOL0     C 1992   1.753   6.638   1.892  0.1254 -1.3329  0.3094
  740MOL0     C 1993   1.746   6.482   1.895 -0.2031  0.5488  0.4994
  740MOL0     C 1994   1.609   6.415   1.890 -0.6371  0.0462  0.3527
  740MOL0     C 1995   1.612   6.266   1.922 -0.7561 -0.3952 -0.3851
  740MOL0     C 1996   1.627   6.232   2.065 -0.5792  0.2439 -0.2656
  740MOL0     C 1997   1.625   6.080   2.099  0.7543  0.0746 -0.2966
  740MOL0     C 1998   1.764   6.009   2.075 -0.0915  0.9832 -0.4999
  740MOL0     N 1999   1.775   5.865   2.122  0.8629 -0.0610 -0.5039
  740MOL0     C 2000   1.679   5.769   2.104 -0.1086 -0.3190  0.4765
  740MOL0     C 2001   1.748   5.654   2.131  0.2882  0.6513  0.4670
  740MOL0     C 2002   1.703   5.512   2.131  0.2872  0.0369 -0.9444
  740MOL0     C 2003   1.673   5.450   1.989  0.2714 -0.7137  0.1513
  740MOL0     C 2004   1.571   5.524   1.895 -0.1052 -0.4688 -0.3851
  740MOL0     C 2005   1.521   5.446   1.772  0.1013 -0.3901  0.0284
  740MOL0     O 2006   1.642   5.425   1.693 -0.7757  0.2797 -0.1624
  740MOL0     C 2007   1.636   5.328   1.602 -1.2270  0.5055 -0.1328
  740MOL0     C 2008   1.756   5.285   1.542  0.5925  0.1297  0.0504
  740MOL0     C 2009   1.751   5.180   1.448 -0.2127  0.7620  0.5082
  740MOL0     C 2010   1.882   5.160   1.375  0.6969  0.2464 -0.4359
  740MOL0     C 2011   1.633   5.105   1.420 -0.6504  0.6642 -1.0628
  740MOL0     C 2012   1.627   4.982   1.329 -0.3947  0.0639  0.9292
  740MOL0     O 2013   1.742   4.920   1.287  0.1989  0.6216  0.4229
  740MOL0     C 2014   1.727   4.799   1.228 -0.5200  0.4625  0.9038
  740MOL0     C 2015   1.673   4.684   1.293 -0.4461 -0.3290  0.6324
  740MOL0     C 2016   1.667   4.562   1.225 -0.3941  0.2859  0.2692
  740MOL0     C 2017   1.703   4.543   1.093 -0.1533  0.2879  0.3649
  740MOL0     O 2018   1.690   4.422   1.028  0.0600 -0.3192  1.5109
  740MOL0     C 2019   1.774   4.394   0.910 -0.1756 -0.8999  0.4025
  740MOL0     C 2020   1.703   4.441   0.778 -0.5594 -0.1599  0.1321
  740MOL0     C 2021   1.580   4.349   0.740  1.1468  0.1463  0.6400
  740MOL0     C 2022   1.523   4.395   0.603  0.7311  0.3276  0.2498
  740MOL0     C 2023   1.391   4.329   0.575  0.3107  1.0726  0.0515
  740MOL0     C 2024   1.360   4.342   0.428 -1.3689  1.0970 -0.1777
  740MOL0     C 2025   1.225   4.270   0.397 -0.0316  0.3232 -0.5758
  740MOL0     C 2026   1.194   4.291   0.254  0.7782 -0.1330  0.4027
  740MOL0    Cl 2027   1.332   4.276   0.136 -0.0950  0.1469 -0.0735
  740MOL0     C 2028   1.759   4.657   1.023 -0.7140  0.1416 -0.0915
  740MOL0     C 2029   1.772   4.780   1.096 -0.0712  0.3513  0.9201
  740MOL0     O 2030   1.516   4.952   1.289  0.4488 -0.1734  0.6120
  740MOL0     C 2031   1.519   5.147   1.487  0.5952  0.5827 -0.1691
  740MOL0     C 2032   1.519   5.254   1.576  1.2095  0.2665  0.4673
  740MOL0     N 2033   1.879   5.684   2.161 -0.5360 -0.7978  0.1333
  740MOL0     N 2034   1.894   5.809   2.148 -0.4283 -0.5305 -0.0672
  740MOL0     C 2035   1.675   6.571   2.300  0.1632 -0.5439  1.1241
  740MOL0     C 2036   1.612   6.475   2.383  0.4425  0.5806 -0.2573
  740MOL0     C 2037   1.320   6.238   2.634 -0.1368  0.0458 -0.4520
  740MOL0     C 2038   1.367   6.231   2.767 -0.1697 -0.9019  0.9438
  740MOL0     C 2039   1.284   6.177   2.861 -0.6284 -0.6626 -0.4486
  740MOL0     C 2040   1.149   6.141   2.842 -0.5173 -0.0669  0.8566
  740MOL0     O 2041   1.084   6.088   2.949  0.5418 -0.3251  0.3342
  740MOL0     C 2042   0.943   6.070   2.929  0.6150  0.7383  0.7898
  740MOL0     C 2043   0.875   6.053   3.067  0.5915  0.6974 -0.0621
  740MOL0     C 2044   0.736   6.012   3.051 -0.0923 -1.4453  0.2720
  740MOL0     C 2045   0.657   5.989   3.181 -0.8657 -0.4047 -0.1017
  740MOL0     C 2046   0.692   5.862   3.247 -0.1906 -0.3971 -0.3935
  740MOL0     C 2047   0.721   5.751   3.303 -0.6896 -0.3780  1.1179
  740MOL0     C 2048   1.101   6.165   2.714  0.6311  0.3373 -0.5051
  740MOL0     C 2049   1.179   6.214   2.608  0.7520  1.0347 -0.0530
  740MOL0     C 2050   1.117   6.245   2.481 -0.6143 -1.4775 -0.3729
  740MOL0     H 2051   1.290   6.529   2.286 -0.2666 -0.7186  1.4693
  740MOL0     H 2052   1.410   6.687   2.122  0.9470  1.4849  0.9546
  740MOL0     H 2053   1.658   6.829   1.935  0.6305  1.0103  2.6152
  740MOL0     H 2054   1.549   6.689   1.938  0.1994  0.2728 -2.4817
  740MOL0     H 2055   1.758   6.670   1.787 -0.2777 -1.5346  0.2262
  740MOL0     H 2056   1.845   6.672   1.941  0.2519  0.2842 -0.9459
  740MOL0     H 2057   1.811   6.452   1.812  0.6156 -0.3957  1.4414
  740MOL0     H 2058   1.805   6.461   1.985  2.4675  3.5977 -0.3394
  740MOL0     H 2059   1.536   6.464   1.955 -1.2086  0.0476 -0.2845
  740MOL0     H 2060   1.575   6.437   1.789 -4.1540  0.4917  1.4952
  740MOL0     H 2061   1.685   6.213   1.860 -2.0624 -2.0634 -0.5705
  740MOL0     H 2062   1.513   6.223   1.904 -1.5969  1.7597 -1.3559
  740MOL0     H 2063   1.726   6.267   2.097  0.3904  0.7898 -3.4594
  740MOL0     H 2064   1.539   6.280   2.108 -0.5004  0.2627 -0.1274
  740MOL0     H 2065   1.548   6.032   2.038  0.6574  0.7529 -0.7111
  740MOL0     H 2066   1.599   6.064   2.204  1.8133 -1.7383 -0.2622
  740MOL0     H 2067   1.776   5.997   1.967 -1.4912 -0.6025 -0.5116
  740MOL0     H 2068   1.847   6.073   2.106  0.5001  0.3029 -0.6587
  740MOL0     H 2069   1.575   5.766   2.075 -0.3246  1.1660  1.0202
  740MOL0     H 2070   1.617   5.506   2.199  1.8095 -0.4569  1.0490
  740MOL0     H 2071   1.781   5.455   2.183 -0.1390 -0.9961 -1.3983
  740MOL0     H 2072   1.764   5.433   1.930  1.7578 -2.3288  2.6882
  740MOL0     H 2073   1.625   5.357   2.018 -1.9107  0.1123 -0.6474
  740MOL0     H 2074   1.480   5.559   1.945  0.0570  0.3249 -0.6293
  740MOL0     H 2075   1.632   5.610   1.865  2.9372 -1.7971  1.5087
  740MOL0     H 2076   1.469   5.355   1.804 -0.5693  0.6121  1.9710
  740MOL0     H 2077   1.451   5.507   1.713  2.0246  0.9166 -1.0149
  740MOL0     H 2078   1.848   5.326   1.582  0.7016 -0.5345  0.5142
  740MOL0     H 2079   1.855   5.132   1.273  0.3198 -2.5867  0.3496
  740MOL0     H 2080   1.939   5.076   1.415 -0.0609  0.1268  0.4229
  740MOL0     H 2081   1.932   5.257   1.384 -0.1591  0.6236  0.4245
  740MOL0     H 2082   1.634   4.702   1.393 -0.7809  0.8646  0.3011
  740MOL0     H 2083   1.609   4.483   1.272 -3.2169  2.8459  1.4494
  740MOL0     H 2084   1.867   4.451   0.916 -2.7339  3.5808  2.2521
  740MOL0     H 2085   1.807   4.290   0.910 -2.4144 -1.6771 -0.6510
  740MOL0     H 2086   1.672   4.545   0.775  3.2453  1.1821 -3.6476
  740MOL0     H 2087   1.772   4.437   0.692 -3.1905  0.1106 -2.1331
  740MOL0     H 2088   1.499   4.357   0.813  0.8257 -1.7996  0.5667
  740MOL0     H 2089   1.613   4.244   0.737  1.7035  0.3266  0.1353
  740MOL0     H 2090   1.595   4.381   0.521  1.8026  0.4210  1.1478
  740MOL0     H 2091   1.513   4.503   0.597  2.8635  0.5380 -0.7713
  740MOL0     H 2092   1.386   4.225   0.608 -0.2027  1.2240  0.4632
  740MOL0     H 2093   1.306   4.382   0.620 -0.7782  0.7814 -1.5508
  740MOL0     H 2094   1.432   4.274   0.381 -1.7212  1.1015 -0.7318
  740MOL0     H 2095   1.353   4.443   0.388 -1.2032 -0.1791 -3.8243
  740MOL0     H 2096   1.143   4.309   0.458 -0.0334 -0.4806 -0.0415
  740MOL0     H 2097   1.231   4.161   0.410 -0.1867  0.1674 -1.6676
  740MOL0     H 2098   1.142   4.385   0.236 -0.4803 -0.2634  2.9292
  740MOL0     H 2099   1.118   4.222   0.217 -0.7882  1.1619  1.1010
  740MOL0     H 2100   1.787   4.662   0.918 -4.3760  1.1583 -1.1705
  740MOL0     H 2101   1.828   4.859   1.046 -0.3930  1.3728  2.1049
  740MOL0     H 2102   1.423   5.102   1.465 -0.0364 -0.6120  4.0903
  740MOL0     H 2103   1.429   5.289   1.625  1.0643  2.8828 -1.4231
  740MOL0     H 2104   1.782   6.593   2.298  0.2271 -0.8746 -0.0202
  740MOL0     H 2105   1.668   6.432   2.466  1.2034 -2.7325 -2.3228
  740MOL0     H 2106   1.466   6.263   2.798  0.9715 -1.8795 -1.3918
  740MOL0     H 2107   1.311   6.177   2.966 -0.8992  0.2202 -0.3694
  740MOL0     H 2108   0.885   6.157   2.897  0.3339 -0.1708 -1.3733
  740MOL0     H 2109   0.927   5.982   2.867 -0.2947  0.6805  1.1020
  740MOL0     H 2110   0.875   6.149   3.118  1.4658 -0.9710  3.4397
  740MOL0     H 2111   0.921   5.988   3.142 -1.4873 -0.7226  0.0793
  740MOL0     H 2112   0.682   6.088   2.994  1.4289  1.1592  2.0936
  740MOL0     H 2113   0.730   5.922   2.989 -0.4255 -0.3529 -1.3502
  740MOL0     H 2114   0.550   6.000   3.166 -0.9570 -0.6315  0.3628
  740MOL0     H 2115   0.687   6.078   3.237  0.5500 -0.2788 -1.0018
  740MOL0     H 2116   0.750   5.660   3.351 -0.6479 -1.3451 -0.6808
  740MOL0     H 2117   1.003   6.140   2.676  0.7318 -2.0419  0.6234
  740MOL0     H 2118   1.010   6.225   2.480 -0.6837 -1.1399 -0.0866
  740MOL0     H 2119   1.131   6.351   2.458  0.0486 -1.6852 -0.9597
  740MOL0     H 2120   1.163   6.183   2.404 -2.1686 -2.4451 -0.5519
  741MOL0     O 2121   5.845   6.022   6.823  0.4752 -0.1293  0.0971
  741MOL0     C 2122   5.965   6.034   6.821  0.5479 -0.5401 -0.7626
  741MOL0     O 2123   6.038   5.963   6.726  0.4959 -0.1770  0.1976
  741MOL0     C 2124   5.973   5.867   6.644 -0.7081 -0.8143 -0.6624
  741MOL0     C 2125   5.995   5.730   6.662 -0.7471  0.5946 -0.0890
  741MOL0     C 2126   5.917   5.641   6.581 -1.3260  0.3089 -0.9652
  741MOL0     C 2127   5.835   5.680   6.482 -0.1320 -0.0622 -0.2757
  741MOL0     O 2128   5.771   5.586   6.408  0.0782  0.0198 -0.1477
  741MOL0     C 2129   5.782   5.608   6.272  0.5019 -0.2901 -0.7051
  741MOL0     C 2130   5.696   5.504   6.200 -0.2484  0.6023  0.4533
  741MOL0     C 2131   5.706   5.549   6.046  0.0384 -0.9455 -0.1874
  741MOL0     C 2132   5.858   5.526   5.998  0.3460  0.4672 -0.5132
  741MOL0     C 2133   5.869   5.578   5.855 -0.1428  0.0232  0.5353
  741MOL0     C 2134   5.773   5.496   5.761  0.0514 -0.1215 -0.9539
  741MOL0     C 2135   5.834   5.490   5.613  0.2401 -0.2397  0.5806
  741MOL0     C 2136   5.766   5.587   5.517 -0.4249 -0.1561 -0.3614
  741MOL0     N 2137   5.778   5.730   5.554  0.7531 -1.2764 -0.3467
  741MOL0     C 2138   5.899   5.783   5.590 -0.5073 -0.6450 -0.0560
  741MOL0     C 2139   5.889   5.914   5.576 -1.0310 -0.1097 -0.0802
  741MOL0     C 2140   5.999   6.016   5.584  0.6075  0.7648 -0.0888
  741MOL0     C 2141   5.952   6.145   5.650 -0.1160 -0.5515  0.5466
  741MOL0     C 2142   6.079   6.226   5.694  0.2360 -0.7195  0.5727
  741MOL0     C 2143   6.053   6.356   5.764  1.3445  0.2878  0.1123
  741MOL0     O 2144   5.995   6.437   5.658  0.1165 -0.6944  0.0129
  741MOL0     C 2145   5.935   6.550   5.709 -0.8757 -0.2885  0.6253
  741MOL0     C 2146   6.005   6.636   5.795  0.3598  0.8156 -0.1383
  741MOL0     C 2147   5.943   6.748   5.854  0.8564 -0.6065 -0.4370
  741MOL0     C 2148   6.019   6.834   5.959 -0.2849  0.4608  0.7720
  741MOL0     C 2149   5.811   6.778   5.814 -1.2681 -0.5647 -1.0253
  741MOL0     C 2150   5.737   6.903   5.848  0.7110  0.1700 -1.0223
  741MOL0     O 2151   5.603   6.903   5.845  0.2904  0.0109  0.1580
  741MOL0     C 2152   5.533   6.989   5.928  0.1525 -0.2586 -0.5216
  741MOL0     C 2153   5.467   6.955   6.048  0.3871  0.0314 -0.0439
  741MOL0     C 2154   5.416   7.061   6.129 -0.1273 -0.2432  0.4355
  741MOL0     C 2155   5.421   7.196   6.098  0.0509  0.1428 -0.1337
  741MOL0     O 2156   5.351   7.275   6.184  0.2307  0.0120  0.4942
  741MOL0     C 2157   5.431   7.379   6.231 -0.0106  0.1070  0.3729
  741MOL0     C 2158   5.330   7.463   6.321 -0.6289  0.0727 -1.0605
  741MOL0     C 2159   5.250   7.559   6.229 -0.4188 -0.0597 -1.5206
  741MOL0     C 2160   5.335   7.676   6.177 -0.3301 -0.0591 -0.0459
  741MOL0     C 2161   5.238   7.761   6.088 -0.4744  0.5406 -0.0904
  741MOL0     C 2162   5.311   7.875   6.013  0.5024 -0.5752  0.4502
  741MOL0     C 2163   5.196   7.972   5.982  0.0460 -0.0892 -0.1922
  741MOL0     C 2164   5.137   7.938   5.847 -0.3606 -0.0502  0.2062
  741MOL0    Cl 2165   5.246   7.975   5.703  0.3950 -0.0019  0.2542
  741MOL0     C 2166   5.467   7.222   5.978  0.9235 -1.0393 -0.5215
  741MOL0     C 2167   5.530   7.126   5.902 -1.7058  0.3663  0.1184
  741MOL0     O 2168   5.804   7.003   5.889  0.4262 -0.0730 -0.3342
  741MOL0     C 2169   5.749   6.694   5.720 -0.1404 -0.2051 -0.1918
  741MOL0     C 2170   5.808   6.579   5.669  0.0631  0.3502  0.3523
  741MOL0     N 2171   5.761   5.940   5.523 -0.1919 -0.6382 -0.6770
  741MOL0     N 2172   5.691   5.827   5.517 -0.9671 -0.2954 -0.0042
  741MOL0     C 2173   5.814   5.819   6.464  0.0669  0.6061  0.5614
  741MOL0     C 2174   5.878   5.907   6.547  0.0955 -0.2673 -0.3830
  741MOL0     C 2175   6.036   6.131   6.905  0.6587  0.2713 -0.6934
  741MOL0     C 2176   6.173   6.131   6.887 -0.1998 -0.1668  0.2193
  741MOL0     C 2177   6.250   6.217   6.972 -0.4610 -0.0645  0.1934
  741MOL0     C 2178   6.191   6.308   7.056 -0.2160 -0.2300 -0.5296
  741MOL0     O 2179   6.266   6.393   7.121  0.3926  0.1319  0.5221
  741MOL0     C 2180   6.235   6.414   7.256  0.1407 -0.5491  0.2999
  741MOL0     C 2181   6.366   6.443   7.329  0.8518  0.9377  0.0118
  741MOL0     C 2182   6.350   6.463   7.479  0.2016 -0.0559  0.3516
  741MOL0     C 2183   6.470   6.425   7.556 -1.1936  0.3945  0.6320
  741MOL0     C 2184   6.493   6.528   7.662  0.2143  1.0452  0.5780
  741MOL0     C 2185   6.503   6.586   7.772  0.6015  0.3317  0.7737
  741MOL0     C 2186   6.058   6.306   7.068 -0.2321  1.1813 -0.7484
  741MOL0     C 2187   5.977   6.207   7.002 -0.3859 -0.7938 -0.2889
  741MOL0     C 2188   5.832   6.204   7.038  0.2416  0.7464 -1.0962
  741MOL0     H 2189   6.053   5.694   6.747  0.2112 -0.0858 -1.0092
  741MOL0     H 2190   5.943   5.536   6.585 -1.5576  0.2674 -0.5495
  741MOL0     H 2191   5.890   5.605   6.253  0.5110 -0.8119 -0.5918
  741MOL0     H 2192   5.748   5.706   6.236  0.3359  0.4012  1.2228
  741MOL0     H 2193   5.724   5.399   6.210 -3.6700 -0.3518  1.5372
  741MOL0     H 2194   5.594   5.515   6.237 -0.6760 -0.6673 -0.2640
  741MOL0     H 2195   5.642   5.497   5.975  0.3361 -0.4682 -0.8100
  741MOL0     H 2196   5.686   5.656   6.035  3.0233 -0.3922 -1.3016
  741MOL0     H 2197   5.929   5.581   6.060 -1.5555  0.3998  1.8920
  741MOL0     H 2198   5.874   5.418   6.008 -2.2764  0.0796  0.1298
  741MOL0     H 2199   5.971   5.566   5.818  0.3085  0.7418  1.4838
  741MOL0     H 2200   5.852   5.685   5.838  4.3700  0.8576 -0.1548
  741MOL0     H 2201   5.754   5.393   5.794 -2.3024  0.5615 -0.0138
  741MOL0     H 2202   5.670   5.532   5.760  0.4937  1.4006  0.9604
  741MOL0     H 2203   5.827   5.391   5.568  1.8980  0.0490 -0.3900
  741MOL0     H 2204   5.943   5.501   5.621  0.3452 -1.8358  1.9605
  741MOL0     H 2205   5.819   5.571   5.423  0.2201 -2.5688  0.3527
  741MOL0     H 2206   5.664   5.558   5.493 -0.9897  0.8511  0.7094
  741MOL0     H 2207   5.982   5.716   5.611 -2.0963 -3.1375 -1.2598
  741MOL0     H 2208   6.011   6.048   5.481 -1.1685  1.3284 -0.1446
  741MOL0     H 2209   6.086   5.970   5.632  1.1330  2.0368  0.2216
  741MOL0     H 2210   5.893   6.211   5.585  1.5626  1.1493  0.6780
  741MOL0     H 2211   5.892   6.127   5.740 -0.9716 -0.3782  0.0258
  741MOL0     H 2212   6.152   6.166   5.749  0.3321 -3.5531 -2.3481
  741MOL0     H 2213   6.145   6.232   5.607  2.3623 -1.2454  2.0354
  741MOL0     H 2214   5.988   6.355   5.852 -0.2976  0.2985 -1.0599
  741MOL0     H 2215   6.147   6.402   5.795  1.6788  0.9440 -1.7470
  741MOL0     H 2216   6.110   6.614   5.815 -0.0090 -0.5387  0.3754
  741MOL0     H 2217   5.951   6.867   6.038 -1.8720  1.7505 -1.0035
  741MOL0     H 2218   6.051   6.932   5.923  2.0051 -0.6542 -0.4409
  741MOL0     H 2219   6.113   6.790   5.992 -0.7308  0.7286  2.4580
  741MOL0     H 2220   5.466   6.851   6.079 -0.5518  0.2846  0.8341
  741MOL0     H 2221   5.356   7.023   6.211  0.4409 -0.6542  0.6689
  741MOL0     H 2222   5.508   7.330   6.292 -1.3107 -0.2182  1.8014
  741MOL0     H 2223   5.475   7.435   6.147 -0.0681 -2.2828 -1.3589
  741MOL0     H 2224   5.266   7.393   6.376  0.6867 -1.4209 -1.3583
  741MOL0     H 2225   5.387   7.521   6.394 -0.6590  0.0182 -0.9933
  741MOL0     H 2226   5.165   7.606   6.279 -1.1351  0.5140 -3.1868
  741MOL0     H 2227   5.210   7.503   6.143 -1.0237  0.4515 -1.5818
  741MOL0     H 2228   5.421   7.640   6.119 -0.0025  0.7429 -0.0668
  741MOL0     H 2229   5.371   7.742   6.256  1.3603 -1.2648  0.2511
  741MOL0     H 2230   5.190   7.696   6.014 -0.6219 -1.0685  1.3501
  741MOL0     H 2231   5.161   7.794   6.159 -1.4806 -1.7608 -0.0408
  741MOL0     H 2232   5.359   7.836   5.923 -4.6563 -0.6918 -2.6860
  741MOL0     H 2233   5.382   7.938   6.067 -1.7494  1.7870  0.8948
  741MOL0     H 2234   5.233   8.075   5.976 -2.4998  0.8251 -2.5481
  741MOL0     H 2235   5.118   7.974   6.059 -0.1072 -0.1930 -0.3443
  741MOL0     H 2236   5.042   7.991   5.830  0.5705  1.9375  0.8662
  741MOL0     H 2237   5.106   7.833   5.845 -0.9821  0.1318 -1.4426
  741MOL0     H 2238   5.453   7.319   5.932 -0.1358 -0.3770  1.1080
  741MOL0     H 2239   5.580   7.162   5.813  4.0292 -2.0307  1.9314
  741MOL0     H 2240   5.648   6.717   5.689 -0.3718  3.5188  2.5482
  741MOL0     H 2241   5.761   6.510   5.599 -0.7030  0.8210  0.3810
  741MOL0     H 2242   5.736   5.857   6.400  0.4369  1.5126  0.6333
  741MOL0     H 2243   5.851   6.011   6.531 -1.0698 -0.6881 -1.3294
  741MOL0     H 2244   6.228   6.069   6.817  0.2901  0.2447  0.2315
  741MOL0     H 2245   6.357   6.214   6.957 -0.3722  1.2419  0.4584
  741MOL0     H 2246   6.173   6.504   7.261  2.3323  0.9636  2.6681
  741MOL0     H 2247   6.186   6.327   7.301 -2.5228  1.1018  0.8824
  741MOL0     H 2248   6.414   6.527   7.278 -1.8477  0.8884 -2.8985
  741MOL0     H 2249   6.430   6.363   7.291  0.8562  1.7146 -1.7413
  741MOL0     H 2250   6.315   6.565   7.503 -2.5069  0.2338 -3.8559
  741MOL0     H 2251   6.274   6.397   7.521  0.3682 -1.5171 -1.5067
  741MOL0     H 2252   6.549   6.430   7.480  1.0389  2.3351  2.9135
  741MOL0     H 2253   6.481   6.326   7.600  1.9484 -0.1324 -1.0220
  741MOL0     H 2254   6.527   6.644   7.859  1.6250  1.3793 -0.1766
  741MOL0     H 2255   6.008   6.373   7.137 -0.4416 -0.6359  0.9465
  741MOL0     H 2256   5.778   6.251   6.954  0.5001  0.4996 -1.4002
  741MOL0     H 2257   5.793   6.103   7.053  0.0260  0.7516 -1.5714
  741MOL0     H 2258   5.798   6.269   7.119 -0.7151  1.8829 -2.3458
  742MOL0     O 2259   6.970   4.484   8.016 -0.7380  0.0810 -0.3035
  742MOL0     C 2260   6.913   4.462   8.122 -0.3073  0.5040 -0.0854
  742MOL0     O 2261   6.777   4.413   8.130 -0.2376 -0.0695 -0.3896
  742MOL0     C 2262   6.685   4.461   8.031  0.8316 -1.0163 -0.3472
  742MOL0     C 2263   6.571   4.390   8.009 -0.1893 -0.3104  1.2782
  742MOL0     C 2264   6.474   4.435   7.915  0.0896 -0.3547  0.5958
  742MOL0     C 2265   6.496   4.554   7.838  0.5918 -0.2749  0.0529
  742MOL0     O 2266   6.390   4.584   7.744  0.4619 -0.5048  0.2776
  742MOL0     C 2267   6.424   4.654   7.623 -0.3434  0.0542 -0.1747
  742MOL0     C 2268   6.372   4.801   7.621  0.5046 -0.1333  0.1592
  742MOL0     C 2269   6.225   4.813   7.656  0.2966  0.4453 -0.9200
  742MOL0     C 2270   6.171   4.959   7.661  0.4864  0.7360  0.5077
  742MOL0     C 2271   6.019   4.956   7.655  0.1863  0.2285 -0.1890
  742MOL0     C 2272   5.970   5.096   7.624 -0.6354  0.5154  0.4508
  742MOL0     C 2273   5.823   5.115   7.614 -0.8214 -0.6610 -0.1021
  742MOL0     C 2274   5.806   5.259   7.550 -0.0110  1.1498 -0.2538
  742MOL0     N 2275   5.665   5.291   7.516 -0.4556  0.2596  0.5344
  742MOL0     C 2276   5.555   5.260   7.593 -1.1649  0.2034  0.3053
  742MOL0     C 2277   5.449   5.310   7.518 -0.8537 -0.3997 -0.1159
  742MOL0     C 2278   5.296   5.305   7.547 -0.8413 -0.3753  0.8645
  742MOL0     C 2279   5.211   5.368   7.437  0.2601 -1.1083  0.7729
  742MOL0     C 2280   5.208   5.519   7.441  0.6273 -0.7258 -0.4031
  742MOL0     C 2281   5.076   5.582   7.391 -0.5767  0.7572 -0.3250
  742MOL0     O 2282   5.069   5.721   7.404 -0.1943 -0.1517  0.4553
  742MOL0     C 2283   4.943   5.774   7.373  0.0740 -0.3683  0.0602
  742MOL0     C 2284   4.927   5.912   7.382  0.2155  0.0198  0.3371
  742MOL0     C 2285   4.821   5.987   7.332 -0.3110  0.2916 -0.6639
  742MOL0     C 2286   4.834   6.139   7.325 -0.1477  0.5423  0.1321
  742MOL0     C 2287   4.708   5.910   7.281 -0.1292 -0.3176 -0.8869
  742MOL0     C 2288   4.584   5.976   7.252 -0.5220 -0.1225  0.1621
  742MOL0     O 2289   4.496   5.902   7.177 -0.3749 -0.7167  0.2840
  742MOL0     C 2290   4.364   5.937   7.160 -0.0708 -0.4250  0.4705
  742MOL0     C 2291   4.284   5.953   7.271 -0.3573 -0.2324 -0.3828
  742MOL0     C 2292   4.147   5.977   7.249  0.2470 -0.6760 -0.3165
  742MOL0     C 2293   4.091   5.988   7.111  0.1830  1.0338  0.1387
  742MOL0     O 2294   3.956   6.000   7.101  0.3349  0.0130 -0.5224
  742MOL0     C 2295   3.899   6.058   6.981 -0.9514 -0.2421  0.0656
  742MOL0     C 2296   3.749   6.056   7.002 -0.2029  0.7428  0.1571
  742MOL0     C 2297   3.677   6.114   6.882  0.3750 -0.4043 -0.0119
  742MOL0     C 2298   3.695   6.267   6.846 -0.2213  0.4715 -0.0704
  742MOL0     C 2299   3.585   6.326   6.757  0.5206 -0.8070  0.2375
  742MOL0     C 2300   3.590   6.486   6.746  0.0126  0.9025 -0.9934
  742MOL0     C 2301   3.704   6.535   6.659 -0.8655 -0.3225 -0.6831
  742MOL0     C 2302   3.717   6.684   6.647 -0.1708 -0.2399  0.1230
  742MOL0    Cl 2303   3.575   6.783   6.581 -0.1649 -0.0363 -0.4377
  742MOL0     C 2304   4.172   5.965   7.004 -0.7836  0.5822  1.2655
  742MOL0     C 2305   4.309   5.939   7.035 -0.3668  0.4990 -0.7169
  742MOL0     O 2306   4.561   6.088   7.299  0.2383  0.2289 -0.4733
  742MOL0     C 2307   4.726   5.770   7.262 -0.2357 -0.1440  0.0316
  742MOL0     C 2308   4.838   5.700   7.318 -0.3253 -0.6029  0.5683
  742MOL0     N 2309   5.500   5.371   7.403 -0.5408  1.0056 -0.5440
  742MOL0     N 2310   5.627   5.354   7.401 -0.1941 -0.9598  0.2684
  742MOL0     C 2311   6.610   4.634   7.866  0.9715  0.0005 -0.5756
  742MOL0     C 2312   6.697   4.580   7.960 -0.0127 -0.9323 -0.1840
  742MOL0     C 2313   6.978   4.461   8.260  0.2243 -0.0565 -0.0415
  742MOL0     C 2314   6.905   4.413   8.372 -0.3621 -0.4036  0.7335
  742MOL0     C 2315   6.968   4.437   8.501  0.6192  0.3082 -1.1074
  742MOL0     C 2316   7.089   4.506   8.521 -0.1703  0.2558 -0.2545
  742MOL0     O 2317   7.143   4.532   8.645  0.0876 -0.2247 -0.3412
  742MOL0     C 2318   7.254   4.456   8.675 -0.1894 -0.7741  0.2783
  742MOL0     C 2319   7.311   4.491   8.817 -0.0285  0.5119  0.3478
  742MOL0     C 2320   7.385   4.622   8.833 -0.3869 -0.7247  0.0833
  742MOL0     C 2321   7.314   4.752   8.766 -0.5434 -0.2565 -0.1865
  742MOL0     C 2322   7.369   4.878   8.806 -0.4850 -0.9927 -0.4934
  742MOL0     C 2323   7.404   4.992   8.842 -0.9524  0.1978  0.6630
  742MOL0     C 2324   7.158   4.544   8.404  0.1385  1.4791 -0.4819
  742MOL0     C 2325   7.113   4.506   8.274 -0.2769  0.5685  0.8455
  742MOL0     C 2326   7.200   4.538   8.157  0.1337 -0.1304 -0.8151
  742MOL0     H 2327   6.557   4.305   8.075  2.6248  0.8251  3.5822
  742MOL0     H 2328   6.390   4.369   7.894  2.5974 -3.6549  0.0786
  742MOL0     H 2329   6.384   4.596   7.540  0.0590 -1.4141  0.6221
  742MOL0     H 2330   6.533   4.650   7.609  0.2608 -1.5720  3.7649
  742MOL0     H 2331   6.422   4.849   7.705 -0.6286  0.7933  0.3219
  742MOL0     H 2332   6.392   4.875   7.543 -1.2369  1.1198  0.8340
  742MOL0     H 2333   6.182   4.756   7.573  2.0861  0.1192 -1.6747
  742MOL0     H 2334   6.191   4.769   7.751  0.3006  0.4788 -0.9033
  742MOL0     H 2335   6.210   5.019   7.743 -1.1770  1.1597  1.0194
  742MOL0     H 2336   6.215   5.003   7.572  3.0677  0.9470  1.7944
  742MOL0     H 2337   5.977   4.927   7.752 -1.2673  0.6068 -0.6774
  742MOL0     H 2338   5.989   4.884   7.579  2.1191 -3.3446  2.1760
  742MOL0     H 2339   6.012   5.165   7.699 -0.6636  0.5311  0.4518
  742MOL0     H 2340   6.012   5.119   7.526  1.1072 -1.4117  0.6826
  742MOL0     H 2341   5.784   5.093   7.714  0.2737 -0.1455  0.4669
  742MOL0     H 2342   5.768   5.053   7.543  0.0332 -0.5576 -0.8707
  742MOL0     H 2343   5.843   5.333   7.621 -0.1806 -1.1232  2.3459
  742MOL0     H 2344   5.869   5.268   7.461 -0.4332 -2.9406 -1.1612
  742MOL0     H 2345   5.556   5.192   7.678  1.8800 -0.1592  0.0953
  742MOL0     H 2346   5.275   5.353   7.643  1.3647 -0.4603  1.4363
  742MOL0     H 2347   5.272   5.199   7.554 -0.2026 -0.5187  0.9458
  742MOL0     H 2348   5.237   5.334   7.336 -2.3625  1.2308 -0.8434
  742MOL0     H 2349   5.105   5.343   7.439 -0.1094  0.4353  1.7486
  742MOL0     H 2350   5.228   5.563   7.539 -1.7822  0.0904 -0.1876
  742MOL0     H 2351   5.277   5.563   7.369 -2.4117  1.8594 -2.0306
  742MOL0     H 2352   5.066   5.559   7.284 -1.6688 -0.5216  0.0252
  742MOL0     H 2353   4.989   5.533   7.435 -2.4657  0.3932 -4.0611
  742MOL0     H 2354   5.002   5.969   7.437 -1.6703 -0.6128  3.8667
  742MOL0     H 2355   4.791   6.195   7.409  1.0982  1.3045  0.2775
  742MOL0     H 2356   4.787   6.171   7.232  0.0801  0.9387  0.1550
  742MOL0     H 2357   4.940   6.160   7.312 -0.0028 -0.3081 -0.1274
  742MOL0     H 2358   4.318   5.955   7.374  0.7780 -2.5534 -0.6493
  742MOL0     H 2359   4.094   6.001   7.340  1.4947 -0.0236  0.2696
  742MOL0     H 2360   3.930   6.160   6.957  1.0981 -1.3526 -2.4369
  742MOL0     H 2361   3.915   5.990   6.897 -1.5463 -0.1325 -0.1392
  742MOL0     H 2362   3.722   5.950   7.006  2.5650 -0.0415 -0.1203
  742MOL0     H 2363   3.708   6.107   7.090 -0.0094  1.9718 -0.4317
  742MOL0     H 2364   3.572   6.103   6.911  0.3322 -0.3385 -0.1408
  742MOL0     H 2365   3.691   6.054   6.792  1.5348 -3.4066  2.0243
  742MOL0     H 2366   3.790   6.272   6.793 -0.1233  2.9020  0.2322
  742MOL0     H 2367   3.714   6.319   6.940  1.7213  0.4252 -0.3899
  742MOL0     H 2368   3.582   6.273   6.661  1.8572 -0.3320 -0.0750
  742MOL0     H 2369   3.488   6.296   6.799 -0.4478  0.9385 -0.6228
  742MOL0     H 2370   3.597   6.521   6.849 -3.9504 -1.2452  0.2608
  742MOL0     H 2371   3.492   6.501   6.700 -0.6858 -4.5012 -1.9650
  742MOL0     H 2372   3.695   6.487   6.561 -0.7297 -2.3716  0.2637
  742MOL0     H 2373   3.801   6.519   6.708 -0.5525  5.7695  1.4684
  742MOL0     H 2374   3.805   6.700   6.585  0.5694 -0.7507  1.0054
  742MOL0     H 2375   3.744   6.715   6.749  1.4563 -1.0353 -0.0447
  742MOL0     H 2376   4.129   5.952   6.905  3.1906 -5.6914 -0.2688
  742MOL0     H 2377   4.372   5.913   6.951 -1.3508 -1.0051 -1.0240
  742MOL0     H 2378   4.646   5.707   7.224  0.1873 -2.1416  2.2322
  742MOL0     H 2379   4.840   5.592   7.318  3.7008 -0.6974  2.0821
  742MOL0     H 2380   6.642   4.728   7.821  2.7479 -0.1173  0.3777
  742MOL0     H 2381   6.772   4.653   7.987 -1.8416  1.0403 -0.1778
  742MOL0     H 2382   6.801   4.382   8.374 -0.4303 -0.1331  1.8349
  742MOL0     H 2383   6.916   4.402   8.590  1.6710 -2.2958 -1.4096
  742MOL0     H 2384   7.235   4.349   8.676 -0.3111 -0.8164  3.1676
  742MOL0     H 2385   7.326   4.477   8.596 -0.8877  1.6589  0.2036
  742MOL0     H 2386   7.369   4.404   8.851 -2.2824 -2.2401 -2.3202
  742MOL0     H 2387   7.224   4.501   8.883 -1.4569  0.8468 -1.5095
  742MOL0     H 2388   7.396   4.650   8.938  1.7135  2.7965 -0.9154
  742MOL0     H 2389   7.487   4.618   8.794 -0.0147 -1.1182  1.0728
  742MOL0     H 2390   7.211   4.765   8.802  0.5682  3.5303  2.2747
  742MOL0     H 2391   7.319   4.744   8.657 -3.0220  1.7699 -0.5516
  742MOL0     H 2392   7.433   5.094   8.857  2.8083 -0.2013 -2.4176
  742MOL0     H 2393   7.248   4.603   8.422  0.7243 -0.2799  3.4048
  742MOL0     H 2394   7.304   4.551   8.188 -0.0958 -0.2108 -0.0087
  742MOL0     H 2395   7.205   4.465   8.075  2.0111 -0.3273 -0.5764
  742MOL0     H 2396   7.172   4.634   8.112 -0.7634 -1.0916 -2.4101
  743MOL0     O 2397   0.462   4.665   6.921 -0.2693  0.4889  0.1360
  743MOL0     C 2398   0.461   4.558   6.980  0.5196  0.6778  0.3097
  743MOL0     O 2399   0.451   4.426   6.924 -0.2616  0.3358  0.0580
  743MOL0     C 2400   0.439   4.416   6.786  0.2889  0.4821 -0.5903
  743MOL0     C 2401   0.318   4.445   6.729 -0.7407 -0.7653 -0.5171
  743MOL0     C 2402   0.302   4.444   6.587  0.3757  0.2114 -0.0696
  743MOL0     C 2403   0.406   4.424   6.508  0.3098  0.0836 -0.5176
  743MOL0     O 2404   0.368   4.424   6.375 -0.6676  0.1951  0.4442
  743MOL0     C 2405   0.415   4.326   6.287  0.1563 -0.0847  0.6021
  743MOL0     C 2406   0.294   4.272   6.207 -0.5981  0.1465  0.8707
  743MOL0     C 2407   0.206   4.177   6.291 -0.2363  0.9553  0.4063
  743MOL0     C 2408   0.194   4.040   6.227 -0.0346  0.2698 -0.1747
  743MOL0     C 2409   0.097   4.050   6.107 -1.1805  0.7201  0.4995
  743MOL0     C 2410   0.093   3.910   6.040 -0.3326  0.1311 -0.5022
  743MOL0     C 2411  -0.024   3.912   5.933  0.8449  0.8543 -0.5269
  743MOL0     C 2412  -0.050   3.776   5.874  0.4699  0.1724 -0.3179
  743MOL0     N 2413   0.074   3.715   5.823 -0.2076 -0.0487 -0.1502
  743MOL0     C 2414   0.170   3.646   5.900  0.3640 -0.7406  0.6025
  743MOL0     C 2415   0.279   3.658   5.837  0.3846  0.5249  0.9708
  743MOL0     C 2416   0.405   3.583   5.868 -0.0184 -0.7942  0.5654
  743MOL0     C 2417   0.457   3.606   6.012  0.2903  0.3312 -0.3966
  743MOL0     C 2418   0.514   3.744   6.034  0.6760  0.1139  0.6681
  743MOL0     C 2419   0.619   3.743   6.149 -0.5061 -0.0874  0.8363
  743MOL0     O 2420   0.665   3.873   6.183  0.5565  0.0554  0.3724
  743MOL0     C 2421   0.730   3.884   6.307  0.1846  0.1496  0.3345
  743MOL0     C 2422   0.848   3.814   6.345 -0.3783 -0.9520 -0.0997
  743MOL0     C 2423   0.911   3.841   6.469  0.3620 -0.1288  0.1110
  743MOL0     C 2424   1.045   3.774   6.504  0.2859  0.8460  1.1876
  743MOL0     C 2425   0.847   3.935   6.563 -1.1593  0.2824 -0.2266
  743MOL0     C 2426   0.903   3.963   6.704  0.6737  0.1280 -1.0417
  743MOL0     O 2427   0.806   4.032   6.785 -0.5388 -0.1202 -0.8151
  743MOL0     C 2428   0.829   4.060   6.921  0.2286  0.0458  0.3231
  743MOL0     C 2429   0.741   4.157   6.973  0.2171 -0.7067  0.6841
  743MOL0     C 2430   0.743   4.206   7.096  1.2077 -0.1054  0.1567
  743MOL0     C 2431   0.829   4.155   7.183 -0.8633 -0.9677 -0.6829
  743MOL0     O 2432   0.844   4.193   7.310 -0.2018 -0.8308 -0.2537
  743MOL0     C 2433   0.911   4.320   7.328 -0.2041 -0.0801  0.5054
  743MOL0     C 2434   0.963   4.317   7.472 -0.2804  0.5227  0.0566
  743MOL0     C 2435   1.072   4.207   7.500  0.3991  0.3332 -1.2045
  743MOL0     C 2436   1.123   4.257   7.634 -0.7775  0.0957 -1.3016
  743MOL0     C 2437   1.169   4.143   7.725  0.3469  0.5276  0.1837
  743MOL0     C 2438   1.237   4.197   7.851 -0.2206  0.5194 -0.0126
  743MOL0     C 2439   1.133   4.219   7.955 -1.2223 -1.2185 -0.8919
  743MOL0     C 2440   1.193   4.266   8.088  0.8735  0.6370  0.6136
  743MOL0    Cl 2441   1.284   4.139   8.158 -0.1743  0.0692  0.0928
  743MOL0     C 2442   0.933   4.071   7.141 -0.1131  1.2045  1.2714
  743MOL0     C 2443   0.930   4.020   7.008 -0.1522  0.8424 -0.4159
  743MOL0     O 2444   1.017   3.935   6.734 -0.7054  1.2646 -0.2340
  743MOL0     C 2445   0.739   4.008   6.518 -0.3069 -0.3835  0.3516
  743MOL0     C 2446   0.691   3.984   6.389  0.1638  0.2956  1.3116
  743MOL0     N 2447   0.256   3.735   5.713 -1.0917 -0.7219  0.2129
  743MOL0     N 2448   0.126   3.758   5.705 -0.9444 -0.3331 -0.2296
  743MOL0     C 2449   0.530   4.388   6.560 -1.0591  0.0644 -0.3801
  743MOL0     C 2450   0.549   4.389   6.702 -0.3073 -0.2922  0.5719
  743MOL0     C 2451   0.465   4.579   7.129 -0.3633  0.3589  0.3793
  743MOL0     C 2452   0.579   4.568   7.201  0.0850  0.3274 -0.8160
  743MOL0     C 2453   0.585   4.584   7.337 -0.1895 -0.6278 -0.8841
  743MOL0     C 2454   0.470   4.595   7.415 -1.1148  0.1816  0.5166
  743MOL0     O 2455   0.500   4.587   7.551  0.3682  0.4303 -0.1510
  743MOL0     C 2456   0.388   4.625   7.635 -0.0616 -0.0587  0.2530
  743MOL0     C 2457   0.411   4.576   7.779  0.0142  0.7639  0.3323
  743MOL0     C 2458   0.285   4.588   7.868 -1.0103  0.6240 -0.2241
  743MOL0     C 2459   0.178   4.476   7.849 -0.2338  0.5649  0.8359
  743MOL0     C 2460   0.230   4.349   7.839  0.2715  0.0101 -0.2955
  743MOL0     C 2461   0.267   4.235   7.830  0.8351  0.4076  0.5563
  743MOL0     C 2462   0.348   4.608   7.341  0.0774  0.4164 -0.3796
  743MOL0     C 2463   0.342   4.590   7.200 -0.6434  0.0848 -0.6234
  743MOL0     C 2464   0.211   4.590   7.129  0.8892 -0.0411 -0.0237
  743MOL0     H 2465   0.220   4.449   6.774 -0.9823 -2.1663 -0.8858
  743MOL0     H 2466   0.200   4.457   6.550  0.4562  0.3839 -0.2340
  743MOL0     H 2467   0.471   4.254   6.347  2.8241  1.6007  0.3208
  743MOL0     H 2468   0.490   4.375   6.225  1.7219  1.0827  3.2424
  743MOL0     H 2469   0.229   4.355   6.176 -4.8683 -2.2308  2.5990
  743MOL0     H 2470   0.320   4.223   6.113  1.2504 -0.6667  1.7642
  743MOL0     H 2471   0.275   4.158   6.374  2.9711 -1.2526 -2.4665
  743MOL0     H 2472   0.111   4.230   6.303 -2.4529 -1.4565 -3.9326
  743MOL0     H 2473   0.294   3.999   6.208  1.0447  2.5399  0.2253
  743MOL0     H 2474   0.139   3.969   6.289 -0.8946  0.6239 -0.5198
  743MOL0     H 2475   0.151   4.109   6.033 -1.8347  3.5128  2.0989
  743MOL0     H 2476   0.003   4.100   6.131  0.0624  4.0164 -0.8902
  743MOL0     H 2477   0.188   3.889   5.990  0.0503  2.1179 -0.7173
  743MOL0     H 2478   0.067   3.831   6.111 -1.4733  1.9669  1.2473
  743MOL0     H 2479  -0.011   3.990   5.857 -2.7830  2.1136 -0.0645
  743MOL0     H 2480  -0.114   3.948   5.985  1.4960  1.2325  0.3646
  743MOL0     H 2481  -0.071   3.701   5.950  2.7637 -0.2144 -0.0022
  743MOL0     H 2482  -0.133   3.777   5.803 -0.0549  0.8320  0.2902
  743MOL0     H 2483   0.151   3.599   5.996  2.7112 -0.3203  1.3351
  743MOL0     H 2484   0.483   3.597   5.794  0.5785 -1.6088  1.0210
  743MOL0     H 2485   0.381   3.477   5.852  0.4089 -0.4450 -3.3821
  743MOL0     H 2486   0.378   3.584   6.084 -1.1670  2.2893 -1.2894
  743MOL0     H 2487   0.539   3.535   6.021 -0.9114 -1.4137 -2.3479
  743MOL0     H 2488   0.550   3.786   5.940  0.1543  1.1214  0.8983
  743MOL0     H 2489   0.430   3.811   6.055 -1.4090 -1.5104 -1.8638
  743MOL0     H 2490   0.575   3.693   6.235 -0.1382  0.5184  1.3874
  743MOL0     H 2491   0.700   3.683   6.107  0.3459  1.0795  0.7659
  743MOL0     H 2492   0.907   3.756   6.275  1.9997  2.0622 -0.8269
  743MOL0     H 2493   1.131   3.838   6.528  3.3225 -1.5627 -2.1200
  743MOL0     H 2494   1.063   3.721   6.410 -2.8400  0.2108  0.8506
  743MOL0     H 2495   1.038   3.701   6.585 -1.2868  0.0335  0.3573
  743MOL0     H 2496   0.675   4.200   6.898  2.6464 -2.3487 -2.6236
  743MOL0     H 2497   0.661   4.269   7.129  1.3373 -0.5038  1.2784
  743MOL0     H 2498   0.998   4.327   7.262 -1.6943  1.0408 -1.4487
  743MOL0     H 2499   0.848   4.406   7.305  2.5408  1.5638 -1.5417
  743MOL0     H 2500   1.003   4.411   7.513  1.4788 -0.1388 -0.0239
  743MOL0     H 2501   0.879   4.304   7.541 -0.7276  2.0636 -0.1685
  743MOL0     H 2502   1.148   4.213   7.421 -0.0935  0.5653 -1.6671
  743MOL0     H 2503   1.025   4.110   7.520 -0.6179  1.2575  1.2878
  743MOL0     H 2504   1.042   4.308   7.687  0.0225  0.5274 -0.4650
  743MOL0     H 2505   1.197   4.336   7.621 -1.3728  1.7463  3.5084
  743MOL0     H 2506   1.082   4.081   7.750  0.9187 -0.2997  0.1606
  743MOL0     H 2507   1.237   4.076   7.672  0.2783  2.1153 -2.0442
  743MOL0     H 2508   1.286   4.293   7.832 -0.6695  1.0057  1.1773
  743MOL0     H 2509   1.310   4.118   7.869  0.0714 -0.0209 -3.0561
  743MOL0     H 2510   1.064   4.135   7.966 -1.8986 -0.3792  2.2936
  743MOL0     H 2511   1.066   4.302   7.932 -0.7290 -0.9999 -1.5561
  743MOL0     H 2512   1.105   4.293   8.148 -0.2055  2.2733 -1.5325
  743MOL0     H 2513   1.252   4.358   8.087  2.0433 -0.0761 -1.8533
  743MOL0     H 2514   1.011   4.043   7.211  2.4488  0.8401 -1.5188
  743MOL0     H 2515   1.021   3.967   6.979  0.6398  1.5988  0.6077
  743MOL0     H 2516   0.682   4.081   6.574 -0.6616 -0.2527 -0.1654
  743MOL0     H 2517   0.605   4.043   6.359 -0.5871 -2.0849 -1.7210
  743MOL0     H 2518   0.619   4.360   6.505  2.2733  3.1072  2.8967
  743MOL0     H 2519   0.649   4.374   6.741  2.5782  1.9658 -4.8840
  743MOL0     H 2520   0.673   4.564   7.146 -0.6622 -1.0796 -2.0848
  743MOL0     H 2521   0.686   4.576   7.375 -0.5025 -0.7709 -0.0518
  743MOL0     H 2522   0.381   4.734   7.641  2.1060  0.2226 -1.2992
  743MOL0     H 2523   0.294   4.584   7.597 -0.7599  2.2919 -0.7410
  743MOL0     H 2524   0.492   4.643   7.811  1.4652 -1.1349  0.8685
  743MOL0     H 2525   0.450   4.473   7.783  1.3863  1.2707  3.0346
  743MOL0     H 2526   0.325   4.570   7.968  1.1849 -1.2808 -1.3353
  743MOL0     H 2527   0.244   4.689   7.865 -0.4098  1.2776  4.8897
  743MOL0     H 2528   0.136   4.503   7.752 -1.4688  2.5248  1.8600
  743MOL0     H 2529   0.105   4.481   7.930 -2.1203 -1.9980 -0.5585
  743MOL0     H 2530   0.281   4.130   7.817  0.2886  0.4485 -0.5103
  743MOL0     H 2531   0.254   4.620   7.395  0.6624  1.0805  0.5136
  743MOL0     H 2532   0.130   4.582   7.202 -0.0725  0.3872 -1.0040
  743MOL0     H 2533   0.190   4.669   7.056  1.1815  1.0225  1.0182
  743MOL0     H 2534   0.213   4.495   7.075 -0.6296 -2.1969  3.4473
  744MOL0     O 2535   6.834   3.109  11.059 -0.4572 -1.0413  0.2524
  744MOL0     C 2536   6.717   3.140  11.064 -0.0593  0.2786  0.9270
  744MOL0     O 2537   6.656   3.237  10.990  0.4206  0.9690  0.1214
  744MOL0     C 2538   6.715   3.294  10.883  0.7917  0.6240 -0.1278
  744MOL0     C 2539   6.846   3.339  10.880 -0.0330  1.1338 -0.2284
  744MOL0     C 2540   6.896   3.403  10.760  0.1244 -0.2992 -0.3185
  744MOL0     C 2541   6.808   3.433  10.660  0.7621  0.2276 -0.2428
  744MOL0     O 2542   6.840   3.484  10.540 -0.5687 -0.5954 -0.3170
  744MOL0     C 2543   6.920   3.599  10.545  0.0804  0.6920 -0.1279
  744MOL0     C 2544   6.974   3.628  10.407 -0.1246 -0.0352  0.0816
  744MOL0     C 2545   7.065   3.753  10.427 -0.1291  0.1788  0.6088
  744MOL0     C 2546   7.159   3.772  10.307 -1.3744  0.4514  0.1960
  744MOL0     C 2547   7.228   3.911  10.311 -0.4966  0.4424  0.3115
  744MOL0     C 2548   7.134   4.015  10.247  0.1563 -0.2751  0.5733
  744MOL0     C 2549   7.206   4.151  10.200  0.1211  1.0283 -0.3750
  744MOL0     C 2550   7.311   4.125  10.092  0.4084  0.3217 -1.3595
  744MOL0     N 2551   7.338   4.250  10.017  0.1550 -0.2068  0.1849
  744MOL0     C 2552   7.245   4.302   9.926 -0.7032 -0.1933 -0.6326
  744MOL0     C 2553   7.302   4.421   9.892  0.6902 -0.2300  0.4552
  744MOL0     C 2554   7.237   4.515   9.779  0.2185 -0.2804  0.4431
  744MOL0     C 2555   7.187   4.645   9.843 -0.0712  0.0405 -0.0297
  744MOL0     C 2556   7.106   4.622   9.966 -0.0629 -0.6292  0.4185
  744MOL0     C 2557   7.072   4.757  10.037  0.4158 -0.8760 -0.0403
  744MOL0     O 2558   6.987   4.850   9.953 -0.7955 -0.7020 -0.1620
  744MOL0     C 2559   6.924   4.958  10.009 -0.5750 -0.2184  0.3219
  744MOL0     C 2560   6.913   4.992  10.140 -0.1608 -0.2874 -0.2175
  744MOL0     C 2561   6.842   5.106  10.175  0.2378 -0.7847 -0.1866
  744MOL0     C 2562   6.826   5.140  10.320  0.1961  0.5548  0.6900
  744MOL0     C 2563   6.764   5.185  10.078 -0.4592 -0.2268  0.3311
  744MOL0     C 2564   6.691   5.305  10.102  0.5042 -0.2217  0.2643
  744MOL0     O 2565   6.625   5.352   9.992 -0.3701  0.3408  0.7214
  744MOL0     C 2566   6.567   5.477   9.990 -0.1337  0.0290 -0.4341
  744MOL0     C 2567   6.466   5.518  10.076 -0.6903  0.2241  0.3012
  744MOL0     C 2568   6.426   5.648  10.069  0.4075  0.5659  0.6096
  744MOL0     C 2569   6.465   5.739   9.967  0.5465 -0.2018 -0.2726
  744MOL0     O 2570   6.422   5.871   9.979 -0.3447  0.1088  0.2853
  744MOL0     C 2571   6.462   5.964   9.876  0.3882 -0.0709  0.0731
  744MOL0     C 2572   6.423   6.106   9.915  0.0589 -0.0955  0.1325
  744MOL0     C 2573   6.528   6.206   9.855  1.0099 -0.1533  0.1799
  744MOL0     C 2574   6.482   6.242   9.710  0.5993 -0.0576  0.2782
  744MOL0     C 2575   6.588   6.343   9.658  0.8792  0.4664  0.2061
  744MOL0     C 2576   6.535   6.443   9.547  0.2958  0.4071 -0.9736
  744MOL0     C 2577   6.420   6.529   9.592 -0.0128 -0.5430  0.0173
  744MOL0     C 2578   6.393   6.630   9.474 -0.2075  0.6692  0.6508
  744MOL0    Cl 2579   6.246   6.735   9.512  0.1918  0.4035  0.1291
  744MOL0     C 2580   6.570   5.702   9.896 -0.7412 -0.8694 -0.7204
  744MOL0     C 2581   6.620   5.570   9.903 -0.6684 -0.2331 -0.6894
  744MOL0     O 2582   6.709   5.371  10.205  0.8682  0.1639  0.0677
  744MOL0     C 2583   6.783   5.141   9.943  0.3021 -0.0659 -0.0134
  744MOL0     C 2584   6.861   5.030   9.910  0.4158 -0.0722 -0.4257
  744MOL0     N 2585   7.431   4.443   9.957  0.1534 -0.0627  0.2953
  744MOL0     N 2586   7.443   4.337  10.034 -0.2816 -0.3607  0.1884
  744MOL0     C 2587   6.677   3.399  10.667 -0.1229 -0.6167  0.0831
  744MOL0     C 2588   6.631   3.331  10.774  0.0229 -1.6060 -1.2421
  744MOL0     C 2589   6.648   3.072  11.174  1.1573  0.4405  0.6413
  744MOL0     C 2590   6.554   3.152  11.250  0.2959 -1.0872 -0.0312
  744MOL0     C 2591   6.499   3.108  11.368 -0.3090  0.1921  0.2209
  744MOL0     C 2592   6.527   2.979  11.418  0.4731  0.4311 -0.0932
  744MOL0     O 2593   6.501   2.920  11.540 -0.0037 -1.5134  0.0113
  744MOL0     C 2594   6.386   2.989  11.612 -0.0680 -0.4034  0.4241
  744MOL0     C 2595   6.363   2.889  11.729 -0.5749 -0.6276 -1.2160
  744MOL0     C 2596   6.226   2.918  11.804  0.6460  0.0278  0.4281
  744MOL0     C 2597   6.199   3.062  11.838  0.2041 -0.2083  0.1357
  744MOL0     C 2598   6.305   3.128  11.918 -0.4104 -0.0778 -0.1529
  744MOL0     C 2599   6.364   3.191  12.000  1.2679 -0.0334 -0.1393
  744MOL0     C 2600   6.613   2.896  11.338  0.7615 -0.3725  0.7677
  744MOL0     C 2601   6.668   2.938  11.216 -0.1774 -0.2598  0.1794
  744MOL0     C 2602   6.761   2.849  11.141  0.5723  0.1459  0.5205
  744MOL0     H 2603   6.914   3.315  10.961  2.0146  2.0170 -1.6022
  744MOL0     H 2604   7.002   3.426  10.757 -0.2165  1.3651 -1.2284
  744MOL0     H 2605   7.000   3.576  10.616 -1.9657  0.2857  2.1577
  744MOL0     H 2606   6.875   3.689  10.587 -0.3805  1.0968 -1.4251
  744MOL0     H 2607   7.024   3.545  10.357  2.1404  0.8450  0.7378
  744MOL0     H 2608   6.889   3.652  10.343  0.4480 -2.6567 -1.8011
  744MOL0     H 2609   7.006   3.844  10.440 -0.3626 -0.1599  2.0359
  744MOL0     H 2610   7.137   3.751  10.509  2.5800 -1.3058 -1.6044
  744MOL0     H 2611   7.237   3.696  10.302 -1.3181  0.5744 -1.2383
  744MOL0     H 2612   7.097   3.768  10.217 -2.9337  0.6423  1.2036
  744MOL0     H 2613   7.321   3.903  10.254 -0.1747  0.1610  0.8584
  744MOL0     H 2614   7.251   3.944  10.413 -2.2224  1.3676  0.4424
  744MOL0     H 2615   7.095   3.978  10.151 -0.7474  1.6884  0.1402
  744MOL0     H 2616   7.046   4.022  10.311  0.5138 -3.0583  1.5172
  744MOL0     H 2617   7.245   4.196  10.291  0.6899 -1.4167  0.6784
  744MOL0     H 2618   7.126   4.214  10.159 -2.4327 -1.6647  0.0535
  744MOL0     H 2619   7.400   4.089  10.145 -0.1542 -0.1534 -0.7208
  744MOL0     H 2620   7.274   4.059  10.013 -2.9557  2.8992 -2.1941
  744MOL0     H 2621   7.146   4.269   9.896 -0.0509  0.2168 -3.4870
  744MOL0     H 2622   7.157   4.462   9.726 -2.5832  3.3089  0.6654
  744MOL0     H 2623   7.313   4.548   9.707 -0.0293  3.5554  1.6990
  744MOL0     H 2624   7.271   4.712   9.864  1.0962 -1.6932  1.1003
  744MOL0     H 2625   7.123   4.704   9.776 -0.4685  3.7524  3.2689
  744MOL0     H 2626   7.006   4.586   9.941 -0.9126  0.7684  1.6389
  744MOL0     H 2627   7.151   4.553  10.038  2.7532  0.7192  0.0641
  744MOL0     H 2628   7.024   4.729  10.131  3.0235 -0.1011  1.6071
  744MOL0     H 2629   7.163   4.800  10.079  1.1113 -1.1806 -1.1969
  744MOL0     H 2630   6.948   4.918  10.212 -0.0746 -1.3438 -1.3238
  744MOL0     H 2631   6.730   5.168  10.364 -0.1690 -1.8362  1.5490
  744MOL0     H 2632   6.886   5.230  10.337  1.7105 -0.1112 -0.8651
  744MOL0     H 2633   6.862   5.055  10.379  0.6811  1.2724  1.4617
  744MOL0     H 2634   6.426   5.449  10.150  1.0764 -3.3589 -1.8090
  744MOL0     H 2635   6.355   5.673  10.147 -1.6760  0.9239 -1.2884
  744MOL0     H 2636   6.571   5.970   9.872  0.3079  2.7263 -0.3098
  744MOL0     H 2637   6.410   5.937   9.784  0.0852  1.3252 -0.1878
  744MOL0     H 2638   6.322   6.132   9.884  0.5206  1.1999 -0.3663
  744MOL0     H 2639   6.431   6.112  10.024  0.2890 -2.2793  0.2863
  744MOL0     H 2640   6.633   6.181   9.869  1.9059  4.1747  3.5367
  744MOL0     H 2641   6.507   6.292   9.919  1.8993 -0.6935  1.2187
  744MOL0     H 2642   6.375   6.265   9.709  0.8346  1.1437  0.8654
  744MOL0     H 2643   6.494   6.155   9.645  1.6847  1.2052 -1.2823
  744MOL0     H 2644   6.619   6.410   9.738  0.5364  1.6592 -0.6351
  744MOL0     H 2645   6.673   6.291   9.612 -0.3136  1.0171 -2.9034
  744MOL0     H 2646   6.500   6.378   9.467 -0.2402 -0.4871 -0.0289
  744MOL0     H 2647   6.614   6.500   9.496  0.3168 -0.2385 -1.6899
  744MOL0     H 2648   6.452   6.591   9.676 -2.4672 -0.8101  1.2380
  744MOL0     H 2649   6.340   6.460   9.619 -0.2049 -0.3153  0.0309
  744MOL0     H 2650   6.373   6.570   9.384  0.6725 -0.7338  1.3561
  744MOL0     H 2651   6.485   6.681   9.445 -0.0622 -1.1014 -2.5339
  744MOL0     H 2652   6.624   5.767   9.828  0.4642  0.4812  1.4249
  744MOL0     H 2653   6.698   5.535   9.836 -0.3275  1.6786 -1.3593
  744MOL0     H 2654   6.741   5.201   9.862 -2.0739 -1.6497 -0.0472
  744MOL0     H 2655   6.862   4.982   9.812  3.0565  0.5607 -0.7885
  744MOL0     H 2656   6.600   3.430  10.598 -0.8746 -1.7189  0.3976
  744MOL0     H 2657   6.523   3.321  10.777 -0.0735 -0.4217  1.0179
  744MOL0     H 2658   6.526   3.248  11.207 -0.1732 -0.5987  1.3147
  744MOL0     H 2659   6.450   3.188  11.422 -3.9374  1.1714 -3.9578
  744MOL0     H 2660   6.406   3.090  11.649  2.4803 -0.7990  0.2994
  744MOL0     H 2661   6.292   2.986  11.556 -0.0077 -1.0292  0.3446
  744MOL0     H 2662   6.439   2.906  11.807 -1.4141  0.0005 -0.5102
  744MOL0     H 2663   6.367   2.787  11.690  2.0027 -0.2848 -2.0418
  744MOL0     H 2664   6.148   2.892  11.732 -1.0109 -1.8863  2.7776
  744MOL0     H 2665   6.216   2.848  11.887 -1.9454 -0.8756 -0.5377
  744MOL0     H 2666   6.107   3.059  11.897 -1.3801 -3.0063 -2.2508
  744MOL0     H 2667   6.170   3.123  11.752 -2.0681  0.5902  1.3808
  744MOL0     H 2668   6.423   3.243  12.073  0.2753  1.5536 -0.4282
  744MOL0     H 2669   6.621   2.796  11.378 -2.2367  0.4163  3.9522
  744MOL0     H 2670   6.731   2.847  11.036  0.5154 -1.1903  0.5403
  744MOL0     H 2671   6.867   2.875  11.136  0.1602  1.6898 -0.7489
  744MOL0     H 2672   6.758   2.744  11.171  0.6315 -0.5773 -1.7870
  745MOL0     O 2673   4.968   2.279   1.331  0.7066  0.0808  0.7123
  745MOL0     C 2674   5.044   2.211   1.386 -0.1943  1.4309 -0.7957
  745MOL0     O 2675   5.008   2.104   1.459  0.3429  0.4742 -0.0007
  745MOL0     C 2676   4.891   2.042   1.432  0.5313  0.1880  0.2327
  745MOL0     C 2677   4.882   1.978   1.306 -1.0728  0.3718  0.6716
  745MOL0     C 2678   4.768   1.909   1.267 -0.4574 -0.3596 -0.4508
  745MOL0     C 2679   4.653   1.913   1.347 -0.6414  0.8221 -0.1195
  745MOL0     O 2680   4.542   1.853   1.299  0.2564  0.6100 -0.0880
  745MOL0     C 2681   4.425   1.933   1.303  1.3820 -0.3956  0.1721
  745MOL0     C 2682   4.423   2.013   1.166  0.5361 -0.8619  0.1718
  745MOL0     C 2683   4.321   2.132   1.165  0.6972 -0.3243 -0.8446
  745MOL0     C 2684   4.277   2.162   1.021 -0.2353  0.4097  0.3332
  745MOL0     C 2685   4.216   2.310   1.019 -0.1999  0.2604  0.1599
  745MOL0     C 2686   4.134   2.330   0.901 -0.5879  0.2504  0.3486
  745MOL0     C 2687   4.117   2.475   0.875 -1.2174  0.7749  0.1866
  745MOL0     C 2688   4.240   2.549   0.815  0.3303 -0.8943 -0.0295
  745MOL0     N 2689   4.207   2.687   0.776 -0.2633  0.2088  0.2102
  745MOL0     C 2690   4.143   2.772   0.864 -0.5532  0.1049  0.5387
  745MOL0     C 2691   4.163   2.897   0.812  0.5081 -0.2122 -0.3148
  745MOL0     C 2692   4.131   3.029   0.879 -1.3607  0.8855 -0.5938
  745MOL0     C 2693   4.128   3.158   0.787  0.5211  0.5260  0.0565
  745MOL0     C 2694   4.103   3.285   0.858 -0.3234 -0.4180  0.3646
  745MOL0     C 2695   4.097   3.398   0.757  0.7517 -0.8532 -0.1255
  745MOL0     O 2696   4.053   3.532   0.805  0.9253  0.6489 -0.3191
  745MOL0     C 2697   4.076   3.554   0.936  0.4472 -0.5098 -0.5856
  745MOL0     C 2698   4.206   3.557   0.995 -0.2383  0.1878  1.0308
  745MOL0     C 2699   4.243   3.578   1.124  0.4114 -0.3806 -1.4453
  745MOL0     C 2700   4.389   3.577   1.166 -1.4092  0.6622 -0.2776
  745MOL0     C 2701   4.138   3.614   1.212 -0.3294 -0.5809  0.3829
  745MOL0     C 2702   4.154   3.648   1.358 -0.0447  0.0505  0.1284
  745MOL0     O 2703   4.046   3.628   1.431 -0.0062 -0.3554 -0.2234
  745MOL0     C 2704   4.044   3.644   1.572 -0.6299 -0.5037  0.4070
  745MOL0     C 2705   4.084   3.769   1.627  0.3698 -0.4915  0.2408
  745MOL0     C 2706   4.076   3.778   1.770 -0.4112 -0.1251  0.5806
  745MOL0     C 2707   4.052   3.665   1.850  0.3321  0.9562 -0.1183
  745MOL0     O 2708   4.061   3.681   1.987  0.6272 -0.1649 -0.3410
  745MOL0     C 2709   3.970   3.599   2.065  0.1581  0.0045  0.3296
  745MOL0     C 2710   4.051   3.481   2.118  0.9117 -0.8840  0.3071
  745MOL0     C 2711   3.960   3.377   2.176 -0.2314  0.6751 -1.2024
  745MOL0     C 2712   4.026   3.236   2.156 -0.4526 -0.8327  0.0103
  745MOL0     C 2713   4.037   3.170   2.297  0.0626 -0.0973  0.3372
  745MOL0     C 2714   4.077   3.025   2.318  0.2722 -0.5570 -0.1166
  745MOL0     C 2715   3.989   2.928   2.245  0.3177  0.3679  0.0139
  745MOL0     C 2716   4.038   2.779   2.241  0.3450  0.5294  0.0415
  745MOL0    Cl 2717   4.020   2.718   2.402  0.4568  0.4461 -0.0311
  745MOL0     C 2718   4.010   3.547   1.784 -0.3576  0.7386 -0.5962
  745MOL0     C 2719   4.012   3.537   1.647 -0.0723 -0.4245  0.0387
  745MOL0     O 2720   4.263   3.692   1.397 -0.0686  0.5203  0.8273
  745MOL0     C 2721   4.005   3.611   1.168 -0.7341 -0.2384 -0.5495
  745MOL0     C 2722   3.981   3.593   1.034  0.3645  0.9510  0.0838
  745MOL0     N 2723   4.224   2.876   0.691 -0.8345 -0.6764  0.2940
  745MOL0     N 2724   4.260   2.750   0.668 -0.0811  0.0372 -0.9614
  745MOL0     C 2725   4.658   1.992   1.468 -0.7121 -0.4269 -0.4752
  745MOL0     C 2726   4.777   2.055   1.506  0.5902 -0.4737  0.7879
  745MOL0     C 2727   5.192   2.237   1.362  0.6898  0.4374 -0.2732
  745MOL0     C 2728   5.280   2.163   1.443 -0.0857  0.1523 -0.3196
  745MOL0     C 2729   5.412   2.188   1.448 -0.1982 -0.4424  0.4991
  745MOL0     C 2730   5.474   2.282   1.361 -0.8457  0.4452 -0.4175
  745MOL0     O 2731   5.615   2.302   1.354  0.0746  0.1442  1.2306
  745MOL0     C 2732   5.700   2.193   1.382 -0.0429  0.5933 -0.9962
  745MOL0     C 2733   5.783   2.209   1.515  0.8261  0.0213 -0.1372
  745MOL0     C 2734   5.922   2.143   1.496  0.4740  0.2799  0.8149
  745MOL0     C 2735   5.997   2.136   1.619  0.9382 -0.1027 -0.0862
  745MOL0     C 2736   6.039   2.275   1.658  0.3407  0.2314 -0.3251
  745MOL0     C 2737   6.065   2.385   1.699 -0.8741 -0.3050  0.5463
  745MOL0     C 2738   5.389   2.353   1.276 -0.6723  0.0830  0.4973
  745MOL0     C 2739   5.249   2.329   1.273 -0.1514 -0.7237  0.0987
  745MOL0     C 2740   5.169   2.409   1.167 -0.0354  0.3904 -0.5188
  745MOL0     H 2741   4.971   1.970   1.244 -0.1560 -0.7927  2.0769
  745MOL0     H 2742   4.782   1.862   1.170  3.5135  1.6652 -1.0894
  745MOL0     H 2743   4.413   2.004   1.385 -2.5299 -0.2038 -0.3326
  745MOL0     H 2744   4.332   1.879   1.323 -0.7649  3.4226  1.6259
  745MOL0     H 2745   4.522   2.052   1.141 -0.3167  0.8106 -0.8163
  745MOL0     H 2746   4.392   1.939   1.091 -1.9311 -1.0683  1.2984
  745MOL0     H 2747   4.240   2.120   1.237  4.8144  0.7164  4.5451
  745MOL0     H 2748   4.379   2.219   1.198 -0.8412 -0.3926  2.3436
  745MOL0     H 2749   4.374   2.151   0.970  0.7081  1.1400  1.8875
  745MOL0     H 2750   4.208   2.085   0.985 -1.7127  1.7188  0.2557
  745MOL0     H 2751   4.310   2.365   1.012  0.9598 -1.5576  0.9116
  745MOL0     H 2752   4.160   2.345   1.106 -0.2474  2.0845 -0.5641
  745MOL0     H 2753   4.168   2.277   0.812 -1.0026  1.1142 -0.3475
  745MOL0     H 2754   4.038   2.289   0.933 -0.3046 -0.8009 -0.1204
  745MOL0     H 2755   4.078   2.515   0.969 -5.6914 -0.0114 -1.0814
  745MOL0     H 2756   4.038   2.490   0.801  0.4236  2.0533 -1.3921
  745MOL0     H 2757   4.324   2.558   0.884  0.1163  1.5995 -0.0202
  745MOL0     H 2758   4.282   2.491   0.732  2.8758  0.0502  0.5189
  745MOL0     H 2759   4.105   2.745   0.962  0.6101 -0.4313  0.8544
  745MOL0     H 2760   4.203   3.048   0.960  0.0798 -1.2708 -1.3009
  745MOL0     H 2761   4.041   3.025   0.941  1.1211  0.9427  3.3785
  745MOL0     H 2762   4.221   3.161   0.729  1.0801 -0.8646  0.8327
  745MOL0     H 2763   4.043   3.148   0.719 -3.2520  0.3807  4.2983
  745MOL0     H 2764   4.006   3.287   0.909 -0.3727 -3.1390  0.5092
  745MOL0     H 2765   4.182   3.310   0.929 -2.1440 -0.1917  2.4388
  745MOL0     H 2766   4.196   3.409   0.712 -0.7818 -1.9498 -4.2169
  745MOL0     H 2767   4.025   3.375   0.678 -1.4215 -1.3543  1.8759
  745MOL0     H 2768   4.291   3.527   0.935 -0.3212  1.1050  0.4411
  745MOL0     H 2769   4.413   3.523   1.258  3.9471  0.6679 -1.3612
  745MOL0     H 2770   4.423   3.681   1.176 -1.0709  0.4559  0.8196
  745MOL0     H 2771   4.456   3.525   1.097  0.6261  1.7667  0.7795
  745MOL0     H 2772   4.117   3.849   1.562  1.7211 -1.1492  0.0589
  745MOL0     H 2773   4.119   3.861   1.825 -2.2378  1.1623  0.1956
  745MOL0     H 2774   3.941   3.660   2.151  0.9557 -1.1363  1.4257
  745MOL0     H 2775   3.887   3.567   2.001  0.6479  0.4911 -0.5643
  745MOL0     H 2776   4.094   3.439   2.026 -1.7394  0.6800 -1.7886
  745MOL0     H 2777   4.118   3.510   2.199 -1.0585 -1.5811  2.2615
  745MOL0     H 2778   3.860   3.373   2.132  0.1282  1.0339 -2.0810
  745MOL0     H 2779   3.952   3.409   2.280 -3.5254 -0.9846 -0.8174
  745MOL0     H 2780   4.119   3.240   2.098 -1.2108  0.3214 -1.1768
  745MOL0     H 2781   3.959   3.175   2.094 -0.0722 -1.0363 -0.2101
  745MOL0     H 2782   4.110   3.226   2.357  1.5612 -1.4937 -0.1091
  745MOL0     H 2783   3.942   3.196   2.345  0.5609  4.1999 -0.6361
  745MOL0     H 2784   4.059   3.005   2.424 -1.5291 -1.1809 -0.5009
  745MOL0     H 2785   4.184   3.003   2.306  0.2647 -0.5777 -0.1434
  745MOL0     H 2786   3.980   2.962   2.141 -0.4391  1.5031  0.4370
  745MOL0     H 2787   3.886   2.936   2.280  0.5073 -1.3724  1.0900
  745MOL0     H 2788   4.134   2.764   2.191 -0.9011 -0.1918 -2.2765
  745MOL0     H 2789   3.963   2.723   2.184 -1.3907  1.1390  1.6245
  745MOL0     H 2790   3.985   3.456   1.837 -0.5044 -0.1534 -2.1417
  745MOL0     H 2791   3.983   3.439   1.613 -2.2120  0.2216 -0.1152
  745MOL0     H 2792   3.922   3.618   1.237 -1.3329 -2.0786 -1.0237
  745MOL0     H 2793   3.879   3.587   0.998 -0.3037 -2.6920  2.0793
  745MOL0     H 2794   4.569   2.001   1.529 -1.6631 -1.0923 -1.7175
  745MOL0     H 2795   4.773   2.118   1.593 -2.5023 -2.1212  1.9841
  745MOL0     H 2796   5.245   2.093   1.518 -1.3719 -0.4141 -1.4086
  745MOL0     H 2797   5.458   2.142   1.536 -4.5192 -0.3001  3.1362
  745MOL0     H 2798   5.658   2.092   1.388  0.7425  0.2285 -1.4888
  745MOL0     H 2799   5.780   2.199   1.307 -1.2794  0.0407 -2.4156
  745MOL0     H 2800   5.725   2.170   1.599 -0.0129 -0.5305 -0.9552
  745MOL0     H 2801   5.801   2.312   1.546  0.0515 -0.4283  1.9184
  745MOL0     H 2802   5.903   2.042   1.459 -2.2544  0.4168  1.5919
  745MOL0     H 2803   5.983   2.189   1.418  1.4747 -2.9399 -0.4540
  745MOL0     H 2804   6.084   2.072   1.602  0.5223 -1.1547  1.5195
  745MOL0     H 2805   5.931   2.094   1.696 -1.4886  2.0604 -0.8483
  745MOL0     H 2806   6.101   2.474   1.748  0.6442  0.2759 -1.4906
  745MOL0     H 2807   5.432   2.417   1.199 -1.9183 -0.0415 -0.3173
  745MOL0     H 2808   5.233   2.446   1.087 -0.1618  1.1586 -0.2685
  745MOL0     H 2809   5.093   2.342   1.126 -0.3159 -0.0493  0.6768
  745MOL0     H 2810   5.116   2.488   1.220 -0.3313 -1.1453  1.6173
  746MOL0     O 2811   5.725   0.592   5.770 -0.8407  0.4574  0.6865
  746MOL0     C 2812   5.788   0.487   5.813  0.7060  0.1021  0.3536
  746MOL0     O 2813   5.728   0.385   5.883  0.3885  1.0209 -0.4120
  746MOL0     C 2814   5.594   0.396   5.926  0.7274 -0.1094  0.6702
  746MOL0     C 2815   5.497   0.322   5.868 -0.4139  0.2944 -1.2537
  746MOL0     C 2816   5.360   0.335   5.904  0.3679  0.5282  0.0028
  746MOL0     C 2817   5.325   0.419   6.011 -1.6038 -0.2301 -0.0739
  746MOL0     O 2818   5.202   0.451   6.058 -0.5499 -0.5160 -0.1990
  746MOL0     C 2819   5.096   0.409   5.976 -0.2353 -0.4744 -0.3175
  746MOL0     C 2820   5.078   0.510   5.853  0.0123  1.1922  0.1917
  746MOL0     C 2821   4.949   0.468   5.767 -0.4188  0.5614 -0.1575
  746MOL0     C 2822   4.905   0.587   5.683 -0.3811  0.1748 -0.2401
  746MOL0     C 2823   4.856   0.530   5.549  0.2376 -0.2374  0.3880
  746MOL0     C 2824   4.970   0.570   5.435  0.8863  0.4124 -0.2165
  746MOL0     C 2825   5.097   0.479   5.455  0.3262  1.1601 -0.2382
  746MOL0     C 2826   5.218   0.524   5.372 -0.5498 -0.0265  0.0401
  746MOL0     N 2827   5.273   0.638   5.441  1.0544 -0.8272  0.7708
  746MOL0     C 2828   5.359   0.633   5.545 -0.7311 -0.8159  0.4844
  746MOL0     C 2829   5.382   0.764   5.567  0.3220 -0.7333 -0.6896
  746MOL0     C 2830   5.487   0.819   5.663  0.2145  0.1939  0.3210
  746MOL0     C 2831   5.457   0.793   5.807 -0.2841  0.7097  0.0004
  746MOL0     C 2832   5.532   0.882   5.905 -0.0534  1.2033  0.0941
  746MOL0     C 2833   5.675   0.859   5.932  0.4295  0.2136 -0.2779
  746MOL0     O 2834   5.725   0.967   6.010 -0.3720  0.5955 -0.3772
  746MOL0     C 2835   5.864   0.954   6.032 -0.0783  0.0824  1.0327
  746MOL0     C 2836   5.924   1.065   6.088  0.7026  0.4570 -0.8814
  746MOL0     C 2837   6.058   1.072   6.113 -0.0115  0.4809  0.0559
  746MOL0     C 2838   6.101   1.206   6.177  0.0856  0.2433 -0.2774
  746MOL0     C 2839   6.153   0.972   6.062  1.4914 -0.8846  0.6812
  746MOL0     C 2840   6.302   0.978   6.071 -0.4584 -0.0617 -0.2366
  746MOL0     O 2841   6.364   0.871   6.040  0.1567 -0.3565 -0.4749
  746MOL0     C 2842   6.501   0.854   6.063  0.3544  0.5136  0.9958
  746MOL0     C 2843   6.544   0.737   5.986 -0.2084 -0.1099  0.1759
  746MOL0     C 2844   6.679   0.702   5.987 -0.8081 -0.2940 -0.1363
  746MOL0     C 2845   6.768   0.772   6.075 -0.1176 -0.2213  0.2041
  746MOL0     O 2846   6.902   0.761   6.084 -0.0036 -0.7481  0.3316
  746MOL0     C 2847   6.973   0.643   6.043 -0.3590 -0.1214  0.7611
  746MOL0     C 2848   7.111   0.677   6.092 -0.1929 -0.7048  0.2934
  746MOL0     C 2849   7.196   0.557   6.081 -0.1014  0.1014  0.6483
  746MOL0     C 2850   7.340   0.575   6.133  0.6168 -0.3222 -0.1939
  746MOL0     C 2851   7.358   0.576   6.286  0.2534 -0.5769  0.2783
  746MOL0     C 2852   7.514   0.585   6.316  0.5521  0.6358 -0.5893
  746MOL0     C 2853   7.560   0.710   6.381 -0.6200 -0.8177 -0.1055
  746MOL0     C 2854   7.713   0.723   6.370 -0.1004 -0.2968  0.2539
  746MOL0    Cl 2855   7.753   0.899   6.371  0.0445 -0.0048 -0.0638
  746MOL0     C 2856   6.720   0.877   6.145  0.1444 -0.6543  0.0868
  746MOL0     C 2857   6.586   0.927   6.145  0.4755  0.1270 -0.1230
  746MOL0     O 2858   6.358   1.085   6.092  0.0587  0.8512  0.4826
  746MOL0     C 2859   6.087   0.857   6.004  0.4134 -0.6701 -0.1064
  746MOL0     C 2860   5.946   0.846   5.996 -0.5517  0.4080  0.5137
  746MOL0     N 2861   5.310   0.845   5.479  0.0606  0.2575  0.4510
  746MOL0     N 2862   5.249   0.771   5.397  0.3153 -0.3773 -0.1887
  746MOL0     C 2863   5.425   0.493   6.079 -0.0763 -0.3916 -0.0635
  746MOL0     C 2864   5.554   0.480   6.033 -0.7174  0.0540 -0.2863
  746MOL0     C 2865   5.935   0.486   5.809 -0.0256 -0.1451 -0.9305
  746MOL0     C 2866   6.012   0.412   5.904  0.9587  0.6918  0.9353
  746MOL0     C 2867   6.151   0.425   5.912  0.8812  0.2599  0.8436
  746MOL0     C 2868   6.226   0.488   5.814  0.2167 -0.4274 -0.1968
  746MOL0     O 2869   6.360   0.485   5.822  0.4305  0.4450  0.7435
  746MOL0     C 2870   6.419   0.360   5.876  1.4136 -1.5537 -0.2095
  746MOL0     C 2871   6.560   0.362   5.827  0.1222 -0.3721 -0.0910
  746MOL0     C 2872   6.636   0.233   5.840 -0.5560 -0.6442 -0.0240
  746MOL0     C 2873   6.776   0.235   5.771 -0.5650  0.1079 -1.0341
  746MOL0     C 2874   6.876   0.131   5.820  0.3484  0.6103  0.3368
  746MOL0     C 2875   6.942   0.051   5.880 -0.4368 -0.5509  1.7098
  746MOL0     C 2876   6.155   0.563   5.723 -0.2223 -0.6776  0.6239
  746MOL0     C 2877   6.014   0.567   5.719  0.4739  0.2011  0.4712
  746MOL0     C 2878   5.948   0.667   5.607 -0.2512  0.2350 -0.2916
  746MOL0     H 2879   5.529   0.253   5.791  1.2590  1.2608 -1.4696
  746MOL0     H 2880   5.296   0.275   5.840 -0.4621 -1.4962  2.5629
  746MOL0     H 2881   5.002   0.418   6.032 -0.4753  0.5878 -0.8562
  746MOL0     H 2882   5.098   0.303   5.950  0.0892 -0.0653 -2.0557
  746MOL0     H 2883   5.064   0.608   5.898  0.3405 -0.2536  3.8042
  746MOL0     H 2884   5.157   0.504   5.778 -1.5406  3.0484 -1.7044
  746MOL0     H 2885   4.990   0.381   5.714 -1.3912  0.4684 -0.7942
  746MOL0     H 2886   4.863   0.435   5.827 -0.9151  1.5781 -0.3001
  746MOL0     H 2887   4.830   0.641   5.741 -1.5490 -2.3909  0.7824
  746MOL0     H 2888   4.982   0.664   5.670  0.9485 -0.7445  1.7160
  746MOL0     H 2889   4.763   0.581   5.523  1.1772  1.2977 -0.1061
  746MOL0     H 2890   4.837   0.423   5.560  2.1258 -0.6884 -0.2442
  746MOL0     H 2891   4.925   0.544   5.339 -3.4173 -0.9330  1.8883
  746MOL0     H 2892   4.993   0.677   5.446  2.2458 -0.0204  1.8502
  746MOL0     H 2893   5.066   0.377   5.434  0.9468  0.5581  1.5428
  746MOL0     H 2894   5.130   0.482   5.560 -0.7551  1.5678  0.1079
  746MOL0     H 2895   5.297   0.448   5.375 -2.4009 -2.0312  0.2997
  746MOL0     H 2896   5.194   0.546   5.267  0.9665 -0.5295 -0.4422
  746MOL0     H 2897   5.405   0.552   5.599  3.2292 -0.5634 -2.1039
  746MOL0     H 2898   5.496   0.927   5.650 -1.2749  0.5081  1.5872
  746MOL0     H 2899   5.586   0.781   5.637 -0.3276 -0.2478 -1.2009
  746MOL0     H 2900   5.350   0.805   5.826 -0.6436 -0.9110 -0.8406
  746MOL0     H 2901   5.489   0.695   5.843  1.9209  2.0453  1.9160
  746MOL0     H 2902   5.529   0.990   5.883  0.5590  1.7153  2.3264
  746MOL0     H 2903   5.483   0.862   6.000 -1.6916  1.3614 -0.6719
  746MOL0     H 2904   5.690   0.767   5.991  0.6015  0.2054 -0.3345
  746MOL0     H 2905   5.729   0.839   5.839  2.0214  0.4970  0.5406
  746MOL0     H 2906   5.852   1.145   6.100 -0.2241 -0.0786 -2.5153
  746MOL0     H 2907   6.036   1.292   6.157  1.2321  0.8825 -1.4126
  746MOL0     H 2908   6.197   1.243   6.140 -0.4689  1.1838 -0.8238
  746MOL0     H 2909   6.094   1.188   6.284 -1.8959 -1.0554 -0.5737
  746MOL0     H 2910   6.478   0.681   5.920 -0.6748 -1.0291  1.3870
  746MOL0     H 2911   6.732   0.624   5.934 -0.4548 -0.3032  0.2347
  746MOL0     H 2912   6.942   0.546   6.083 -0.8746 -0.0838  0.4656
  746MOL0     H 2913   6.978   0.646   5.934 -0.0923  0.0011  0.7769
  746MOL0     H 2914   7.152   0.757   6.031  0.0120 -1.5170 -0.6692
  746MOL0     H 2915   7.118   0.707   6.197 -1.4734 -3.3247  1.2103
  746MOL0     H 2916   7.191   0.531   5.975  0.0969  1.8209  0.1884
  746MOL0     H 2917   7.158   0.469   6.134 -0.5888  0.2206  0.4978
  746MOL0     H 2918   7.377   0.670   6.091  1.9811 -1.7004 -2.2836
  746MOL0     H 2919   7.398   0.493   6.090  2.7933  1.3800 -0.7414
  746MOL0     H 2920   7.315   0.671   6.320 -1.5794 -0.6457 -1.5908
  746MOL0     H 2921   7.298   0.501   6.337 -3.0270  2.0869  0.6617
  746MOL0     H 2922   7.572   0.582   6.224  0.1693  1.9491 -0.8971
  746MOL0     H 2923   7.545   0.494   6.368  0.6993  0.4638 -0.9799
  746MOL0     H 2924   7.526   0.715   6.485  1.8613 -0.3000  0.7721
  746MOL0     H 2925   7.521   0.795   6.324 -1.0245 -2.9106 -3.2021
  746MOL0     H 2926   7.750   0.668   6.282  2.1779  1.3772  0.0617
  746MOL0     H 2927   7.754   0.669   6.455 -1.3014 -0.0108  1.0305
  746MOL0     H 2928   6.790   0.933   6.205 -2.5471  2.5260  0.5460
  746MOL0     H 2929   6.548   1.014   6.197 -0.0796  0.2087 -0.6545
  746MOL0     H 2930   6.143   0.777   5.957  0.5019  0.0297 -1.2453
  746MOL0     H 2931   5.914   0.752   5.954 -0.0305 -0.3796  1.8216
  746MOL0     H 2932   5.387   0.566   6.149 -0.4965 -1.9082  1.3726
  746MOL0     H 2933   5.630   0.546   6.075  1.9333 -3.0851  0.2996
  746MOL0     H 2934   5.979   0.349   5.986  2.5931 -2.3791 -0.6210
  746MOL0     H 2935   6.192   0.367   5.994  0.7882 -1.3768 -0.2235
  746MOL0     H 2936   6.418   0.352   5.985 -3.3547 -2.4782 -0.0946
  746MOL0     H 2937   6.356   0.282   5.832 -2.8296  0.8636  0.9779
  746MOL0     H 2938   6.611   0.449   5.867  2.2804 -0.1594 -3.0105
  746MOL0     H 2939   6.543   0.365   5.719 -5.7967 -2.4195  0.4182
  746MOL0     H 2940   6.649   0.233   5.949 -3.1873 -0.3214  0.3625
  746MOL0     H 2941   6.586   0.145   5.800 -1.5643  0.1410 -0.5431
  746MOL0     H 2942   6.819   0.335   5.778 -3.7285  1.5027 -0.0686
  746MOL0     H 2943   6.766   0.203   5.667  1.6411 -0.2844 -1.1720
  746MOL0     H 2944   7.000  -0.025   5.928 -0.5853 -2.2142 -0.5407
  746MOL0     H 2945   6.212   0.624   5.653 -0.4412 -0.5881  0.5244
  746MOL0     H 2946   5.876   0.612   5.546 -0.4278 -0.5268  0.5897
  746MOL0     H 2947   5.901   0.755   5.652  2.4752  1.5252  0.2508
  746MOL0     H 2948   6.029   0.716   5.552  1.7118  3.6217  4.8440
  747MOL0     O 2949   3.663   0.295  10.090  1.5421  0.1377  0.5405
  747MOL0     C 2950   3.629   0.285  10.210  1.3732 -0.6064 -0.2876
  747MOL0     O 2951   3.646   0.173  10.289 -0.7602  0.8204 -0.4047
  747MOL0     C 2952   3.704   0.061  10.242 -0.3976  0.9752 -0.0662
  747MOL0     C 2953   3.812  -0.004  10.304  0.1219 -0.6584  0.3402
  747MOL0     C 2954   3.847  -0.132  10.264 -0.0325  0.1398  0.0996
  747MOL0     C 2955   3.782  -0.192  10.156  0.9780 -0.0286  0.9730
  747MOL0     O 2956   3.820  -0.319  10.117  0.0345 -0.3318  0.5385
  747MOL0     C 2957   3.746  -0.397  10.020 -0.3499 -0.0668  0.0969
  747MOL0     C 2958   3.832  -0.521   9.974  0.3771  0.1246 -0.8597
  747MOL0     C 2959   3.961  -0.475   9.890  0.3820  0.7485  0.6222
  747MOL0     C 2960   4.040  -0.595   9.842 -0.4759  0.0619 -0.5026
  747MOL0     C 2961   4.107  -0.556   9.710 -0.8217  0.8479  0.4265
  747MOL0     C 2962   4.191  -0.670   9.658 -0.8003  0.5898  0.6451
  747MOL0     C 2963   4.267  -0.625   9.534 -0.5669 -0.9344  0.1964
  747MOL0     C 2964   4.412  -0.552   9.561  0.7804  0.6448  0.3585
  747MOL0     N 2965   4.485  -0.549   9.432  0.4808  0.2209 -0.4521
  747MOL0     C 2966   4.480  -0.452   9.336 -0.1007  0.7269  0.0393
  747MOL0     C 2967   4.550  -0.493   9.232  0.5070  0.5962  0.0927
  747MOL0     C 2968   4.586  -0.413   9.100  0.8521  0.5410  0.0793
  747MOL0     C 2969   4.719  -0.335   9.112 -0.2012  0.2264  0.5858
  747MOL0     C 2970   4.774  -0.276   8.980 -0.1159 -0.0007  0.4754
  747MOL0     C 2971   4.710  -0.151   8.946  0.1204 -0.6576  0.7129
  747MOL0     O 2972   4.773  -0.040   9.014 -0.0444  0.2003  0.4005
  747MOL0     C 2973   4.715   0.083   9.024  0.2123 -0.4283  0.1327
  747MOL0     C 2974   4.579   0.117   8.989 -0.7685 -0.5601  0.1059
  747MOL0     C 2975   4.530   0.247   9.019  0.3274  0.3432 -1.4874
  747MOL0     C 2976   4.377   0.261   9.005  0.4807 -0.6721  0.0851
  747MOL0     C 2977   4.617   0.349   9.069  0.2480 -0.4007 -0.3160
  747MOL0     C 2978   4.570   0.486   9.101  1.0336  0.7649 -0.3166
  747MOL0     O 2979   4.495   0.549   9.005  0.3569  0.2730 -0.8854
  747MOL0     C 2980   4.425   0.663   9.028 -0.2693 -1.0593 -0.1101
  747MOL0     C 2981   4.310   0.664   9.115 -0.2651  0.2565  1.2187
  747MOL0     C 2982   4.239   0.783   9.143  0.4851  0.6489  0.3166
  747MOL0     C 2983   4.279   0.900   9.084  0.3259  0.0397  0.1542
  747MOL0     O 2984   4.213   1.023   9.092  1.2910 -0.8916  0.8414
  747MOL0     C 2985   4.165   1.057   9.223  0.5618  0.8164  0.6740
  747MOL0     C 2986   4.136   1.206   9.235 -0.0426 -0.7339 -1.0501
  747MOL0     C 2987   4.048   1.231   9.359 -1.0955  0.3928 -0.6309
  747MOL0     C 2988   4.056   1.377   9.415 -0.5825 -0.1686 -0.3274
  747MOL0     C 2989   4.023   1.387   9.568  0.0638  0.6198 -0.0773
  747MOL0     C 2990   4.046   1.538   9.617  0.7985  0.1806 -0.8176
  747MOL0     C 2991   3.914   1.618   9.614  0.2590 -0.5450 -0.4231
  747MOL0     C 2992   3.942   1.762   9.626  0.3985  1.0994 -0.9346
  747MOL0    Cl 2993   3.987   1.787   9.790 -0.1650 -0.3974 -0.2468
  747MOL0     C 2994   4.390   0.902   9.002  0.5037 -0.1859 -0.2633
  747MOL0     C 2995   4.469   0.781   8.973  0.9773 -0.9320  0.2508
  747MOL0     O 2996   4.604   0.531   9.214 -0.2898  0.3564 -0.6888
  747MOL0     C 2997   4.749   0.316   9.091 -0.7135 -0.1271  0.5706
  747MOL0     C 2998   4.796   0.187   9.067  0.2965 -0.5021 -0.3512
  747MOL0     N 2999   4.601  -0.616   9.259  0.6538  0.1160  0.5609
  747MOL0     N 3000   4.566  -0.651   9.378  0.6244  0.4683 -0.8797
  747MOL0     C 3001   3.675  -0.133  10.098  1.1289 -0.1843  0.9507
  747MOL0     C 3002   3.629  -0.006  10.148 -0.0110 -0.3030  0.1591
  747MOL0     C 3003   3.564   0.401  10.275 -0.3668  0.1185  0.0175
  747MOL0     C 3004   3.576   0.407  10.419  0.0680  1.2808  0.5494
  747MOL0     C 3005   3.532   0.507  10.494 -0.3769 -1.1787 -0.4133
  747MOL0     C 3006   3.476   0.617  10.428  0.6310  0.5100  0.8646
  747MOL0     O 3007   3.446   0.734  10.489  0.1061 -0.2328 -0.5377
  747MOL0     C 3008   3.478   0.748  10.626  1.1658 -1.1235 -0.5964
  747MOL0     C 3009   3.451   0.887  10.678 -0.0579  0.4370 -0.1554
  747MOL0     C 3010   3.503   0.898  10.821 -0.5129 -0.0999 -0.4083
  747MOL0     C 3011   3.546   1.053  10.832  0.3884  0.4496 -0.0488
  747MOL0     C 3012   3.523   1.104  10.973 -0.6391  1.1433 -0.1821
  747MOL0     C 3013   3.490   1.150  11.079 -0.3725 -0.0971  0.2754
  747MOL0     C 3014   3.457   0.614  10.290 -0.3507  0.3138  1.3430
  747MOL0     C 3015   3.503   0.512  10.211 -0.5461  0.8088  1.1446
  747MOL0     C 3016   3.482   0.517  10.056 -0.5103  1.2248  0.3450
  747MOL0     H 3017   3.843   0.049  10.393 -3.5922 -0.7980  1.9176
  747MOL0     H 3018   3.912  -0.190  10.329 -1.5571 -2.7487 -0.7816
  747MOL0     H 3019   3.729  -0.348   9.924  0.0751 -1.0091 -0.4749
  747MOL0     H 3020   3.659  -0.449  10.061  1.6574 -0.8042  3.9804
  747MOL0     H 3021   3.859  -0.581  10.060  3.5450 -4.1358 -4.3968
  747MOL0     H 3022   3.765  -0.583   9.913 -2.5521  0.4534  1.7759
  747MOL0     H 3023   3.926  -0.405   9.815  1.8754  4.9203  3.4545
  747MOL0     H 3024   4.035  -0.418   9.946  0.1184  1.2222  0.4944
  747MOL0     H 3025   4.116  -0.622   9.916 -1.7087  1.6650  1.4548
  747MOL0     H 3026   3.976  -0.682   9.820 -1.8449  0.8198  0.3266
  747MOL0     H 3027   4.175  -0.472   9.730  2.7583 -1.9277  0.8938
  747MOL0     H 3028   4.029  -0.532   9.637  1.3767 -1.2689 -2.9299
  747MOL0     H 3029   4.262  -0.703   9.735 -2.3717 -1.5334  1.2820
  747MOL0     H 3030   4.113  -0.743   9.635 -2.5656  1.9372  1.9776
  747MOL0     H 3031   4.200  -0.561   9.477  1.8050  0.8878 -0.7142
  747MOL0     H 3032   4.296  -0.719   9.485  3.8842 -0.0070  0.6082
  747MOL0     H 3033   4.405  -0.451   9.604  0.8598 -0.1556  2.3657
  747MOL0     H 3034   4.476  -0.616   9.623  0.7035 -1.1375 -1.3027
  747MOL0     H 3035   4.439  -0.353   9.357  0.2612  1.0195 -0.5933
  747MOL0     H 3036   4.503  -0.351   9.065  1.2627  0.2530 -1.4710
  747MOL0     H 3037   4.595  -0.492   9.025 -1.8710 -1.8123  2.0115
  747MOL0     H 3038   4.724  -0.251   9.182  3.3324  0.0013  0.8151
  747MOL0     H 3039   4.798  -0.407   9.137  0.8945  1.9609  2.3521
  747MOL0     H 3040   4.883  -0.262   8.975 -0.0276 -0.6363  0.6082
  747MOL0     H 3041   4.757  -0.351   8.902  1.9265  1.4346 -1.4991
  747MOL0     H 3042   4.720  -0.127   8.840 -2.2955  0.8608  0.7501
  747MOL0     H 3043   4.601  -0.156   8.952  0.0895 -1.8547 -0.3554
  747MOL0     H 3044   4.509   0.047   8.946 -0.3601 -0.4403 -0.7803
  747MOL0     H 3045   4.323   0.167   8.998 -1.3274  0.3412 -0.3207
  747MOL0     H 3046   4.377   0.329   8.919 -0.2856 -2.2312 -1.1977
  747MOL0     H 3047   4.337   0.307   9.096  0.4458 -1.7918  0.6419
  747MOL0     H 3048   4.288   0.563   9.148  1.6908 -0.3313  0.8530
  747MOL0     H 3049   4.160   0.790   9.218 -1.4743  0.4707 -1.6375
  747MOL0     H 3050   4.064   1.018   9.242  0.9180 -0.1915  0.5664
  747MOL0     H 3051   4.221   1.015   9.308 -0.2829 -0.2727  0.7150
  747MOL0     H 3052   4.231   1.259   9.246 -1.1201  1.0538  0.0670
  747MOL0     H 3053   4.087   1.258   9.152  0.5859  1.3136 -0.1991
  747MOL0     H 3054   4.083   1.160   9.434 -0.4473  1.2805 -0.0703
  747MOL0     H 3055   3.943   1.211   9.334 -0.7430 -0.9093 -1.1576
  747MOL0     H 3056   3.970   1.427   9.368 -0.7325  1.0765  1.1619
  747MOL0     H 3057   4.142   1.441   9.391 -1.8312  1.4115 -0.8115
  747MOL0     H 3058   3.919   1.360   9.582 -0.5377  1.3307 -2.6392
  747MOL0     H 3059   4.093   1.321   9.620  2.1130  1.7681 -1.2298
  747MOL0     H 3060   4.129   1.586   9.563  1.1878  0.3493 -0.0912
  747MOL0     H 3061   4.071   1.539   9.724 -2.0377  4.4898  0.0521
  747MOL0     H 3062   3.846   1.590   9.695  0.4682  1.6164  0.5512
  747MOL0     H 3063   3.869   1.605   9.515  1.1852  1.0759 -1.0852
  747MOL0     H 3064   3.851   1.821   9.611  0.1256  1.4732  1.6868
  747MOL0     H 3065   4.027   1.788   9.563  1.3248 -0.0165 -0.2075
  747MOL0     H 3066   4.418   0.998   8.961 -1.0999  0.5647  0.3501
  747MOL0     H 3067   4.561   0.785   8.915  0.2718  3.4839 -0.9099
  747MOL0     H 3068   4.813   0.397   9.123 -0.9565  1.4185 -2.4866
  747MOL0     H 3069   4.899   0.169   9.094 -0.0350  2.2582  3.4776
  747MOL0     H 3070   3.598  -0.185  10.042  0.9587 -0.8553  1.7899
  747MOL0     H 3071   3.532   0.037  10.122 -1.4522 -3.6319 -0.5124
  747MOL0     H 3072   3.619   0.319  10.467 -0.8811 -0.2980 -1.3377
  747MOL0     H 3073   3.525   0.505  10.602  0.0820 -1.6576 -0.3860
  747MOL0     H 3074   3.425   0.666  10.676  1.4315  0.1868  2.0441
  747MOL0     H 3075   3.585   0.729  10.636  1.0799 -1.0139  0.8773
  747MOL0     H 3076   3.342   0.895  10.683 -0.1003  1.2995 -1.9383
  747MOL0     H 3077   3.506   0.959  10.617  2.2753 -0.5235  0.6868
  747MOL0     H 3078   3.431   0.869  10.897  1.0589 -2.2640  0.3675
  747MOL0     H 3079   3.592   0.839  10.845 -1.3501 -0.1103  3.2069
  747MOL0     H 3080   3.486   1.110  10.761 -2.8067 -0.7300  1.5240
  747MOL0     H 3081   3.650   1.058  10.798  0.5752 -0.9124  0.2497
  747MOL0     H 3082   3.450   1.188  11.171  0.7863 -3.0352  2.1304
  747MOL0     H 3083   3.420   0.702  10.240  2.8984 -0.2761 -2.6670
  747MOL0     H 3084   3.580   0.542  10.016 -0.0673  3.4482  2.5734
  747MOL0     H 3085   3.434   0.424  10.023 -0.5211  1.2059  0.4154
  747MOL0     H 3086   3.408   0.595  10.038 -1.5949 -0.0051 -0.7481
  748MOL0     O 3087   1.652   5.721   9.005  0.8356 -0.6039 -0.5463
  748MOL0     C 3088   1.560   5.743   9.090  1.1358 -0.3947 -0.2666
  748MOL0     O 3089   1.447   5.672   9.104 -0.0361  0.0049 -0.0169
  748MOL0     C 3090   1.445   5.548   9.047 -0.3991  0.1152 -0.2112
  748MOL0     C 3091   1.510   5.447   9.102 -0.2471 -0.2437 -0.7122
  748MOL0     C 3092   1.506   5.317   9.054  0.9076 -0.4699  0.8199
  748MOL0     C 3093   1.424   5.298   8.939 -1.0741 -0.2014  0.7198
  748MOL0     O 3094   1.411   5.184   8.875  1.3196 -0.3906  0.4246
  748MOL0     C 3095   1.496   5.072   8.902  0.2569 -1.4779  0.5045
  748MOL0     C 3096   1.469   4.957   8.803 -0.1201  0.8926 -0.8404
  748MOL0     C 3097   1.524   4.968   8.666  0.3032  0.0784 -0.7090
  748MOL0     C 3098   1.472   4.866   8.557 -0.9820 -0.3099 -0.2716
  748MOL0     C 3099   1.505   4.923   8.408 -0.4367 -0.6299 -0.6026
  748MOL0     C 3100   1.420   4.845   8.312  0.4659 -0.0774 -0.1273
  748MOL0     C 3101   1.449   4.897   8.170 -0.6806 -0.4866  0.2207
  748MOL0     C 3102   1.364   4.850   8.055  0.3462  0.4315  0.1124
  748MOL0     N 3103   1.434   4.891   7.935  0.4312 -0.2922  0.0878
  748MOL0     C 3104   1.495   5.018   7.918 -0.1462  0.6869 -0.5479
  748MOL0     C 3105   1.529   5.015   7.787  0.9138  0.1537 -0.2180
  748MOL0     C 3106   1.585   5.119   7.704 -0.6577 -0.2570 -0.9069
  748MOL0     C 3107   1.711   5.188   7.761  0.2105  0.1072  0.1974
  748MOL0     C 3108   1.760   5.285   7.663  0.4416 -0.2271  0.1990
  748MOL0     C 3109   1.681   5.422   7.674  0.9883 -0.5839 -0.3375
  748MOL0     O 3110   1.716   5.491   7.799 -0.3035  1.4095  0.0762
  748MOL0     C 3111   1.841   5.510   7.841  0.0771 -0.8452 -0.7675
  748MOL0     C 3112   1.855   5.519   7.978 -0.8801  0.2550 -0.2704
  748MOL0     C 3113   1.974   5.567   8.050  0.1803  0.1025 -0.3661
  748MOL0     C 3114   1.963   5.596   8.196  0.6835 -0.9196  0.5487
  748MOL0     C 3115   2.087   5.595   7.964 -0.2229 -0.3408 -0.3834
  748MOL0     C 3116   2.224   5.622   8.005 -0.3500  0.1353  0.8181
  748MOL0     O 3117   2.326   5.573   7.917 -0.2378 -0.2300 -0.6875
  748MOL0     C 3118   2.459   5.615   7.923  0.1975  0.0376  0.4058
  748MOL0     C 3119   2.534   5.589   7.809  0.0881  0.6470  0.1122
  748MOL0     C 3120   2.665   5.631   7.806 -0.2278 -0.0807 -0.5130
  748MOL0     C 3121   2.722   5.696   7.913 -0.6931 -0.3652 -0.4522
  748MOL0     O 3122   2.863   5.720   7.909  0.2328 -0.7095 -0.0345
  748MOL0     C 3123   2.913   5.860   7.914  0.0033  0.1831 -0.4683
  748MOL0     C 3124   2.935   5.928   7.770 -1.3379  0.0567 -0.0670
  748MOL0     C 3125   3.062   5.872   7.696 -0.7448  1.0147 -0.5449
  748MOL0     C 3126   3.159   5.977   7.662 -0.0763 -0.6386  0.1498
  748MOL0     C 3127   3.270   5.926   7.581 -0.2478  1.6571  1.0113
  748MOL0     C 3128   3.238   5.902   7.433  0.0488 -0.8969 -0.3396
  748MOL0     C 3129   3.348   5.838   7.360  0.6727 -0.0465  0.1708
  748MOL0     C 3130   3.307   5.831   7.221 -0.0273  0.6473 -0.5493
  748MOL0    Cl 3131   3.348   5.970   7.115  0.2517 -0.2663  0.5869
  748MOL0     C 3132   2.654   5.706   8.029  0.3221 -0.0998 -0.4444
  748MOL0     C 3133   2.525   5.665   8.033  0.9542 -0.0780  0.3466
  748MOL0     O 3134   2.242   5.692   8.099 -0.4902 -0.2696  0.0838
  748MOL0     C 3135   2.069   5.573   7.825  1.1166  0.1513 -0.1743
  748MOL0     C 3136   1.948   5.541   7.763 -0.2256  0.2725  0.1018
  748MOL0     N 3137   1.495   4.899   7.737  0.7799  0.6956 -0.8596
  748MOL0     N 3138   1.440   4.816   7.819 -0.2538 -0.3408 -0.6864
  748MOL0     C 3139   1.373   5.407   8.869  0.7463  0.5983 -0.6519
  748MOL0     C 3140   1.385   5.531   8.923 -0.5904 -0.0857  0.0523
  748MOL0     C 3141   1.562   5.879   9.161 -0.7524  0.9240 -0.2358
  748MOL0     C 3142   1.458   5.904   9.252  0.7051 -0.3959  0.1814
  748MOL0     C 3143   1.447   6.022   9.324 -0.4477 -0.2309  0.4447
  748MOL0     C 3144   1.549   6.117   9.323  0.2530 -0.2023 -0.3174
  748MOL0     O 3145   1.535   6.231   9.395 -0.0999  0.4152 -0.1833
  748MOL0     C 3146   1.578   6.216   9.530  0.6270  0.2541 -0.1960
  748MOL0     C 3147   1.525   6.334   9.628 -0.6454 -0.0934  0.5031
  748MOL0     C 3148   1.377   6.323   9.644  0.5170  0.8983  0.8185
  748MOL0     C 3149   1.321   6.445   9.724  0.6342 -0.7230  0.4915
  748MOL0     C 3150   1.182   6.412   9.756  0.3004 -0.0328 -0.5275
  748MOL0     C 3151   1.068   6.406   9.785 -0.5076 -0.8834 -0.4985
  748MOL0     C 3152   1.661   6.092   9.244  0.2648 -0.4420  0.3849
  748MOL0     C 3153   1.667   5.980   9.155  0.9921 -0.1795 -0.6188
  748MOL0     C 3154   1.771   5.973   9.045 -0.2596 -0.2814  0.0761
  748MOL0     H 3155   1.574   5.462   9.188 -3.8790  2.6305  1.7803
  748MOL0     H 3156   1.558   5.235   9.103 -0.8644 -1.6434  0.8356
  748MOL0     H 3157   1.467   5.025   8.996 -1.5320 -2.7797 -0.6421
  748MOL0     H 3158   1.602   5.098   8.905 -0.7306  3.5432  1.7176
  748MOL0     H 3159   1.513   4.865   8.843  1.3199  3.1710  3.4400
  748MOL0     H 3160   1.365   4.925   8.796  0.4880 -1.0841 -1.4103
  748MOL0     H 3161   1.478   5.058   8.623  0.4428  0.6457  0.2912
  748MOL0     H 3162   1.633   4.983   8.664  0.3460  0.3153  1.3573
  748MOL0     H 3163   1.532   4.775   8.572  1.0210  1.3052  2.3665
  748MOL0     H 3164   1.370   4.832   8.576 -0.9683 -1.4235 -1.9798
  748MOL0     H 3165   1.613   4.914   8.395 -0.0598  2.6309 -0.6153
  748MOL0     H 3166   1.480   5.029   8.396 -1.1808 -0.9998 -2.7052
  748MOL0     H 3167   1.469   4.748   8.318 -0.9710 -0.8732 -0.8688
  748MOL0     H 3168   1.313   4.843   8.334  0.9222  1.4248  2.7156
  748MOL0     H 3169   1.555   4.874   8.157 -1.1005 -4.3458  2.2896
  748MOL0     H 3170   1.438   5.006   8.166  0.2244 -0.4264 -0.9198
  748MOL0     H 3171   1.350   4.742   8.053 -1.0156  0.5213  2.0754
  748MOL0     H 3172   1.260   4.885   8.059  0.5776  1.2457 -0.6089
  748MOL0     H 3173   1.515   5.103   7.983  0.7945  0.7363 -0.8906
  748MOL0     H 3174   1.502   5.189   7.694 -1.1787 -0.3505  2.0122
  748MOL0     H 3175   1.613   5.080   7.605  1.4668 -0.4718 -0.2850
  748MOL0     H 3176   1.686   5.237   7.855 -2.7184  0.3389 -0.6023
  748MOL0     H 3177   1.782   5.106   7.778  0.0892 -0.0979 -0.2752
  748MOL0     H 3178   1.865   5.296   7.691  0.2720  1.1495  0.3569
  748MOL0     H 3179   1.754   5.250   7.560  2.0875 -1.1558  0.3900
  748MOL0     H 3180   1.709   5.496   7.598  0.1307  1.4724  1.2399
  748MOL0     H 3181   1.572   5.421   7.680  1.0351 -0.0068  0.9488
  748MOL0     H 3182   1.766   5.522   8.039 -0.4556  1.7829  0.3251
  748MOL0     H 3183   2.045   5.553   8.254 -0.8743  0.1311  3.7834
  748MOL0     H 3184   1.865   5.561   8.231  1.4217 -1.3473  2.3153
  748MOL0     H 3185   1.972   5.703   8.217 -0.7848 -0.7207  0.2493
  748MOL0     H 3186   2.482   5.546   7.724 -0.8329  0.3844  0.7992
  748MOL0     H 3187   2.728   5.608   7.721  0.4917  1.5437 -0.4472
  748MOL0     H 3188   2.858   5.922   7.986 -2.5757 -2.6085  0.1560
  748MOL0     H 3189   3.012   5.857   7.959 -0.5057 -0.5093  0.6579
  748MOL0     H 3190   2.848   5.909   7.705 -0.0453  3.0930 -2.9933
  748MOL0     H 3191   2.935   6.037   7.775 -2.5741  0.4037 -3.9220
  748MOL0     H 3192   3.033   5.834   7.598  2.9151  0.0617 -1.3899
  748MOL0     H 3193   3.110   5.792   7.754 -0.8856 -0.5891 -2.5413
  748MOL0     H 3194   3.199   6.029   7.750 -0.9059  1.7090 -0.7714
  748MOL0     H 3195   3.101   6.046   7.600  4.7089  3.8531 -0.0525
  748MOL0     H 3196   3.358   5.990   7.588 -0.0378  1.3723  1.0083
  748MOL0     H 3197   3.298   5.827   7.620 -2.2388  0.9270  0.7219
  748MOL0     H 3198   3.222   6.004   7.398 -1.7021 -0.7247  0.8427
  748MOL0     H 3199   3.148   5.841   7.423 -0.3382 -1.0938  3.0629
  748MOL0     H 3200   3.371   5.738   7.398  0.2171 -0.3170 -0.2562
  748MOL0     H 3201   3.435   5.903   7.376 -0.5138  1.2296  1.7702
  748MOL0     H 3202   3.200   5.822   7.203  0.5223  0.5009 -4.4982
  748MOL0     H 3203   3.355   5.742   7.180  2.2440  2.3798 -1.8844
  748MOL0     H 3204   2.714   5.757   8.103 -0.1633  2.6193 -1.7960
  748MOL0     H 3205   2.483   5.676   8.133  2.5180  2.0658  0.8461
  748MOL0     H 3206   2.152   5.602   7.762 -0.6573  5.4153 -0.5717
  748MOL0     H 3207   1.939   5.542   7.655  0.7808  1.9314 -0.0068
  748MOL0     H 3208   1.309   5.389   8.783 -1.8815  1.8334  0.8864
  748MOL0     H 3209   1.358   5.624   8.873  0.9415  1.0904  1.2915
  748MOL0     H 3210   1.372   5.838   9.263  0.6720 -0.4588 -0.4199
  748MOL0     H 3211   1.361   6.032   9.390  0.7433 -2.5360  2.5025
  748MOL0     H 3212   1.548   6.116   9.559  0.1318 -0.3725 -2.6659
  748MOL0     H 3213   1.687   6.223   9.536  0.4824  1.7825  1.8830
  748MOL0     H 3214   1.560   6.425   9.578 -2.5906  0.2289 -0.3425
  748MOL0     H 3215   1.576   6.337   9.725  0.9861  4.1325 -0.2871
  748MOL0     H 3216   1.332   6.324   9.545 -0.3841  0.0327  1.2066
  748MOL0     H 3217   1.343   6.229   9.688  0.9483 -0.6044 -1.8757
  748MOL0     H 3218   1.335   6.536   9.666  2.5875  0.0744  2.1245
  748MOL0     H 3219   1.370   6.463   9.820  0.4184  0.4140  0.4011
  748MOL0     H 3220   0.969   6.403   9.827  0.0868 -1.3574  0.9225
  748MOL0     H 3221   1.742   6.163   9.232  0.9418 -1.1643  0.6280
  748MOL0     H 3222   1.820   5.876   9.036  1.2290  0.4112  0.4295
  748MOL0     H 3223   1.723   5.993   8.949  1.4078  0.5769 -0.6252
  748MOL0     H 3224   1.837   6.057   9.070 -1.2760  0.0012  2.0147
  749MOL0     O 3225   4.558   6.963   2.516 -0.2253  0.3940  0.8465
  749MOL0     C 3226   4.534   7.055   2.594  0.3117  0.8096 -0.2258
  749MOL0     O 3227   4.629   7.137   2.660  0.4928 -0.0026 -0.3983
  749MOL0     C 3228   4.752   7.149   2.602  0.0781  0.3041  0.6658
  749MOL0     C 3229   4.835   7.030   2.579  1.1199 -0.2994 -0.1231
  749MOL0     C 3230   4.958   7.049   2.525 -0.0753 -0.0681 -0.5312
  749MOL0     C 3231   5.010   7.173   2.492 -0.7570  0.2469 -0.6910
  749MOL0     O 3232   5.126   7.182   2.425 -1.1549  0.9121  0.8998
  749MOL0     C 3233   5.137   7.273   2.319  0.1170 -0.3356  0.5694
  749MOL0     C 3234   5.240   7.224   2.213  0.0344  0.3022 -0.1644
  749MOL0     C 3235   5.377   7.218   2.277  0.3462  0.3560  0.3789
  749MOL0     C 3236   5.493   7.204   2.174 -0.4232 -0.3143 -0.2814
  749MOL0     C 3237   5.623   7.161   2.241  0.1896 -0.1139  0.3874
  749MOL0     C 3238   5.710   7.070   2.145 -0.2121 -0.0863 -0.1567
  749MOL0     C 3239   5.856   7.054   2.211  1.1360 -0.4184 -0.2207
  749MOL0     C 3240   5.939   6.926   2.170  0.1533 -0.6095 -0.0735
  749MOL0     N 3241   5.856   6.805   2.145 -0.0217 -0.1387  0.1146
  749MOL0     C 3242   5.816   6.714   2.240 -0.8744  0.4477 -0.1011
  749MOL0     C 3243   5.760   6.617   2.173 -0.1832  0.7046  0.6369
  749MOL0     C 3244   5.695   6.496   2.233 -0.5833 -1.1565  1.4880
  749MOL0     C 3245   5.793   6.380   2.221 -0.1801 -0.6831 -0.6063
  749MOL0     C 3246   5.702   6.257   2.180  1.2077  0.5085  0.2112
  749MOL0     C 3247   5.784   6.130   2.173 -1.3586  0.5359  0.2312
  749MOL0     O 3248   5.858   6.112   2.289  1.4226  0.3600  0.4371
  749MOL0     C 3249   5.911   5.992   2.313  0.2376  0.5628  0.5640
  749MOL0     C 3250   5.956   5.970   2.444  0.0066 -0.0860 -0.1816
  749MOL0     C 3251   6.027   5.855   2.481  0.1489  0.4795 -0.6339
  749MOL0     C 3252   6.068   5.856   2.631 -0.2264  0.4517  0.2107
  749MOL0     C 3253   6.070   5.754   2.383  0.4013  0.1707  0.3619
  749MOL0     C 3254   6.139   5.623   2.418 -0.6825 -0.3413  0.2229
  749MOL0     O 3255   6.143   5.579   2.554 -0.1358  0.0091 -0.4485
  749MOL0     C 3256   6.194   5.451   2.577  0.1281  0.0967 -0.0771
  749MOL0     C 3257   6.107   5.339   2.577 -0.5253 -0.9089 -1.1132
  749MOL0     C 3258   6.148   5.213   2.618  0.8606 -0.2970 -0.5638
  749MOL0     C 3259   6.283   5.191   2.652  0.5406  1.1656  0.1956
  749MOL0     O 3260   6.330   5.066   2.671 -0.3727  0.4718 -0.0621
  749MOL0     C 3261   6.264   4.967   2.745 -0.1646 -0.0710  0.1432
  749MOL0     C 3262   6.225   4.840   2.668  0.1498 -1.0833  0.4979
  749MOL0     C 3263   6.326   4.796   2.567  0.2768  0.4970 -0.4779
  749MOL0     C 3264   6.286   4.657   2.512 -1.4041 -0.7166 -0.7335
  749MOL0     C 3265   6.370   4.637   2.384 -0.1190 -0.3287  0.1446
  749MOL0     C 3266   6.342   4.510   2.316 -0.1258 -0.1386  0.4030
  749MOL0     C 3267   6.426   4.503   2.191  0.2009 -0.7100  0.5270
  749MOL0     C 3268   6.477   4.363   2.156  0.1028  0.5512 -0.3007
  749MOL0    Cl 3269   6.609   4.312   2.266  0.0597 -0.2746  0.0079
  749MOL0     C 3270   6.378   5.298   2.653  0.4562 -0.1216  0.1594
  749MOL0     C 3271   6.331   5.428   2.608  0.3494 -0.4116  0.9263
  749MOL0     O 3272   6.189   5.565   2.325 -0.7538 -0.3528 -0.2670
  749MOL0     C 3273   6.026   5.781   2.258 -0.5271 -0.8108 -0.1806
  749MOL0     C 3274   5.952   5.905   2.218  0.6746  0.2845  0.1746
  749MOL0     N 3275   5.750   6.655   2.036 -0.2750  0.1713  0.0605
  749MOL0     N 3276   5.816   6.770   2.024 -0.3102 -0.1408 -0.0279
  749MOL0     C 3277   4.928   7.288   2.525 -1.3792 -0.1379 -0.3186
  749MOL0     C 3278   4.802   7.278   2.582 -0.0995 -0.6698  0.6624
  749MOL0     C 3279   4.394   7.078   2.646 -0.1865  0.3559 -0.7125
  749MOL0     C 3280   4.369   7.141   2.768  0.4588 -0.0808  0.5422
  749MOL0     C 3281   4.238   7.149   2.828 -0.1184 -0.2831 -0.4609
  749MOL0     C 3282   4.126   7.104   2.755 -0.5356 -0.6180  0.1236
  749MOL0     O 3283   4.001   7.089   2.814  0.1844  0.5509 -0.4975
  749MOL0     C 3284   3.967   6.954   2.850 -1.1544  0.0716 -0.6330
  749MOL0     C 3285   3.849   6.952   2.943 -0.0921  0.6796 -0.3133
  749MOL0     C 3286   3.883   7.007   3.079  0.2415 -0.7803 -0.0729
  749MOL0     C 3287   3.766   6.981   3.177 -0.1325 -0.3491  0.6845
  749MOL0     C 3288   3.671   7.096   3.156  0.6573 -0.1138  0.9165
  749MOL0     C 3289   3.596   7.193   3.130  0.5539  0.0370 -0.4749
  749MOL0     C 3290   4.146   7.047   2.628  0.3184  0.0503 -0.3815
  749MOL0     C 3291   4.275   7.024   2.581 -1.2643  0.1743  0.2232
  749MOL0     C 3292   4.284   6.956   2.438 -0.7170 -0.8457 -0.3182
  749MOL0     H 3293   4.803   6.931   2.610  3.5346 -0.8078  0.9918
  749MOL0     H 3294   5.013   6.957   2.506  2.6964  0.7179  2.5312
  749MOL0     H 3295   5.167   7.372   2.357  1.5132 -0.4977 -0.0219
  749MOL0     H 3296   5.048   7.305   2.265 -1.5643 -1.2421  2.6816
  749MOL0     H 3297   5.197   7.132   2.172  0.5174  0.5332 -1.2337
  749MOL0     H 3298   5.235   7.298   2.133 -2.1560  0.6684  0.2438
  749MOL0     H 3299   5.401   7.308   2.336 -1.1996  0.4284  0.9456
  749MOL0     H 3300   5.381   7.143   2.356 -2.6068  1.5427  1.7992
  749MOL0     H 3301   5.464   7.127   2.102  1.7144  0.2312 -1.8402
  749MOL0     H 3302   5.490   7.302   2.125 -1.7225  0.0436  0.4887
  749MOL0     H 3303   5.598   7.103   2.331 -1.9210  1.2769  0.7706
  749MOL0     H 3304   5.686   7.243   2.276 -0.2024  0.3359  0.0507
  749MOL0     H 3305   5.650   6.979   2.135  2.3016 -1.7431 -1.1650
  749MOL0     H 3306   5.714   7.113   2.045 -1.4734 -0.7414 -0.5144
  749MOL0     H 3307   5.837   7.056   2.319 -0.0826 -2.0439 -0.3691
  749MOL0     H 3308   5.902   7.150   2.187 -1.2969  0.7698 -0.4670
  749MOL0     H 3309   5.988   6.954   2.076  0.2378  1.1088  0.4457
  749MOL0     H 3310   6.005   6.897   2.252 -1.2617 -1.3117  0.8576
  749MOL0     H 3311   5.804   6.713   2.348 -0.8287 -0.5931 -0.1026
  749MOL0     H 3312   5.605   6.476   2.175 -0.0442  1.0909 -0.2559
  749MOL0     H 3313   5.673   6.514   2.339  1.2293  1.5092  1.5233
  749MOL0     H 3314   5.860   6.408   2.140 -3.4092  1.0740 -2.9243
  749MOL0     H 3315   5.848   6.366   2.315  0.1760  0.9257 -0.5389
  749MOL0     H 3316   5.617   6.234   2.245  1.5789  1.9874  1.2701
  749MOL0     H 3317   5.644   6.277   2.090 -1.1594 -3.1835  0.7192
  749MOL0     H 3318   5.719   6.043   2.161 -1.1605 -0.1720  3.3697
  749MOL0     H 3319   5.862   6.137   2.096 -1.4049  1.4848  0.2679
  749MOL0     H 3320   5.935   6.052   2.513  0.6604 -2.5078  3.1392
  749MOL0     H 3321   6.174   5.832   2.639  0.3365  2.2959 -1.2141
  749MOL0     H 3322   6.012   5.784   2.692 -1.8996 -0.1249 -1.8742
  749MOL0     H 3323   6.050   5.951   2.681 -2.3146  0.0924  0.2254
  749MOL0     H 3324   6.006   5.366   2.548 -0.5853 -1.6079 -1.5806
  749MOL0     H 3325   6.078   5.129   2.612 -1.0006  1.0664  0.8148
  749MOL0     H 3326   6.320   4.926   2.829 -1.1988 -3.0513 -0.4788
  749MOL0     H 3327   6.177   5.017   2.789 -1.1595  0.2959 -2.0950
  749MOL0     H 3328   6.210   4.750   2.728 -2.7548 -2.6945 -2.3154
  749MOL0     H 3329   6.126   4.864   2.628  0.5671 -1.5364 -0.8586
  749MOL0     H 3330   6.421   4.794   2.622  0.6370 -3.3150 -0.9694
  749MOL0     H 3331   6.326   4.864   2.482 -0.9731  0.2316 -0.7168
  749MOL0     H 3332   6.178   4.657   2.496 -1.7704 -2.2971  1.2692
  749MOL0     H 3333   6.313   4.573   2.578 -0.9726  1.7186  2.4092
  749MOL0     H 3334   6.372   4.728   2.322  0.3407  0.9657  1.9646
  749MOL0     H 3335   6.472   4.619   2.418  0.1097 -0.8655 -0.7837
  749MOL0     H 3336   6.236   4.516   2.289 -0.3137 -0.5318  1.0224
  749MOL0     H 3337   6.346   4.423   2.383  0.3217 -0.5269 -0.1193
  749MOL0     H 3338   6.521   4.557   2.203  1.9056 -3.5537  0.7696
  749MOL0     H 3339   6.372   4.537   2.102 -0.4105  0.8513  1.4559
  749MOL0     H 3340   6.511   4.369   2.052 -1.5190 -0.2169 -0.9019
  749MOL0     H 3341   6.393   4.293   2.161  0.3451  0.2187 -0.8064
  749MOL0     H 3342   6.482   5.287   2.682 -0.0808 -2.6843  1.3707
  749MOL0     H 3343   6.383   5.523   2.612 -1.1284  0.4687  0.1272
  749MOL0     H 3344   6.054   5.712   2.179 -2.7248 -1.4406 -0.4684
  749MOL0     H 3345   5.925   5.907   2.113 -0.3161 -2.0060  0.3254
  749MOL0     H 3346   4.978   7.382   2.507 -1.0040 -0.4383 -0.8836
  749MOL0     H 3347   4.747   7.364   2.617 -1.2380 -2.1420  2.7568
  749MOL0     H 3348   4.453   7.193   2.813  2.0543  3.3354 -5.3121
  749MOL0     H 3349   4.220   7.188   2.927 -1.7290 -1.7270 -0.1466
  749MOL0     H 3350   3.942   6.906   2.755 -1.2375  0.2374 -0.6946
  749MOL0     H 3351   4.057   6.911   2.896  0.4771  0.5621 -3.1360
  749MOL0     H 3352   3.824   6.846   2.952 -1.6375  0.9820 -0.7442
  749MOL0     H 3353   3.756   6.996   2.906 -1.9918 -1.5470  1.4854
  749MOL0     H 3354   3.969   6.953   3.120 -0.0519 -0.1902  1.3839
  749MOL0     H 3355   3.912   7.110   3.054  0.3766 -0.9809 -0.7646
  749MOL0     H 3356   3.790   6.969   3.283  0.1452 -0.5262  0.6031
  749MOL0     H 3357   3.718   6.888   3.146 -3.8671  2.3725 -2.8771
  749MOL0     H 3358   3.540   7.281   3.108 -0.0115 -0.4469 -0.9957
  749MOL0     H 3359   4.061   7.007   2.573  0.3779  0.3548 -0.6926
  749MOL0     H 3360   4.357   7.007   2.374 -1.2394 -0.3352 -0.5264
  749MOL0     H 3361   4.311   6.850   2.437  1.9658 -0.2210 -0.1200
  749MOL0     H 3362   4.191   6.977   2.384 -2.2046  3.1076  3.2117
  750MOL0     O 3363  10.217   8.011   7.366 -0.0050 -0.2825 -0.0398
  750MOL0     C 3364  10.098   7.994   7.386 -0.7136  0.5210  0.4233
  750MOL0     O 3365  10.024   8.028   7.496 -0.8510  0.0796 -0.5455
  750MOL0     C 3366  10.076   8.105   7.604 -0.0351 -0.1284  0.3166
  750MOL0     C 3367  10.217   8.117   7.647 -0.3733 -0.8050 -0.5455
  750MOL0     C 3368  10.252   8.200   7.753  0.2283  0.2137  0.3355
  750MOL0     C 3369  10.151   8.272   7.826 -0.1934 -0.6519  0.3935
  750MOL0     O 3370  10.208   8.345   7.927 -0.1480 -0.5505 -0.2846
  750MOL0     C 3371  10.189   8.492   7.901 -0.6231  0.3035 -1.2129
  750MOL0     C 3372  10.278   8.580   7.995  0.5206 -1.0447  0.1195
  750MOL0     C 3373  10.430   8.558   7.974  1.1922  0.6982 -0.3555
  750MOL0     C 3374  10.483   8.571   7.838 -0.4368 -0.0731 -0.7068
  750MOL0     C 3375  10.633   8.538   7.855  0.3688 -0.2299 -0.2592
  750MOL0     C 3376  10.721   8.546   7.732  1.1040 -0.2390  1.3116
  750MOL0     C 3377  10.678   8.439   7.621 -0.5669  0.0732 -0.0918
  750MOL0     C 3378  10.742   8.300   7.666 -0.1926 -0.9024  0.4133
  750MOL0     N 3379  10.892   8.287   7.652  0.2269  0.1397 -0.2645
  750MOL0     C 3380  10.968   8.369   7.582 -0.2636  0.3919 -0.5243
  750MOL0     C 3381  11.091   8.332   7.618  0.0594  0.7857  0.0972
  750MOL0     C 3382  11.222   8.394   7.584  0.2757  0.2605  1.0270
  750MOL0     C 3383  11.243   8.529   7.640 -0.6029 -0.5318  0.4574
  750MOL0     C 3384  11.383   8.583   7.593  0.1653 -1.0816  0.0042
  750MOL0     C 3385  11.502   8.488   7.600 -0.1728  0.8766 -0.2596
  750MOL0     O 3386  11.559   8.465   7.726 -0.0657 -0.0261  0.2467
  750MOL0     C 3387  11.636   8.562   7.789 -0.4592  0.1305 -0.1599
  750MOL0     C 3388  11.769   8.547   7.778  1.6450 -0.3377  0.1496
  750MOL0     C 3389  11.856   8.645   7.826  0.1115  0.5401 -0.1155
  750MOL0     C 3390  12.002   8.650   7.790 -0.1498  0.5868  0.8907
  750MOL0     C 3391  11.809   8.756   7.904  0.9199  0.1369  0.5821
  750MOL0     C 3392  11.893   8.860   7.971  0.4211  0.0900  0.2445
  750MOL0     O 3393  11.839   8.980   7.998  0.4072  0.6335 -0.3660
  750MOL0     C 3394  11.938   9.070   8.044  0.5353  0.3020 -0.4931
  750MOL0     C 3395  11.951   9.079   8.182 -0.8383  0.5557  0.2769
  750MOL0     C 3396  12.041   9.179   8.236  0.4534  0.0234  0.0094
  750MOL0     C 3397  12.106   9.269   8.150 -0.5561 -0.0724  0.3244
  750MOL0     O 3398  12.195   9.369   8.188  0.3267  0.2555 -0.0589
  750MOL0     C 3399  12.337   9.326   8.190 -0.1362 -0.1026 -0.9527
  750MOL0     C 3400  12.407   9.390   8.299  0.0103  0.4246  0.7683
  750MOL0     C 3401  12.380   9.327   8.431  0.9571  0.0357  0.3925
  750MOL0     C 3402  12.435   9.416   8.548 -0.1276  0.1197 -0.4590
  750MOL0     C 3403  12.587   9.380   8.551  0.8210 -0.3560  0.3930
  750MOL0     C 3404  12.654   9.438   8.670  0.9174 -0.1899 -0.5848
  750MOL0     C 3405  12.592   9.435   8.809  0.0254 -0.6612 -0.2906
  750MOL0     C 3406  12.577   9.297   8.869 -0.2449  0.4536  0.3824
  750MOL0    Cl 3407  12.403   9.240   8.886  0.0394  0.1554 -0.2180
  750MOL0     C 3408  12.096   9.258   8.009 -0.2916 -0.6096  0.2831
  750MOL0     C 3409  12.008   9.160   7.956  0.3122  1.1799 -0.0754
  750MOL0     O 3410  12.000   8.819   8.017  0.1953  0.0220  0.5521
  750MOL0     C 3411  11.668   8.773   7.904  1.2056  0.1234 -1.3614
  750MOL0     C 3412  11.578   8.670   7.859 -0.3141  0.2310 -0.3216
  750MOL0     N 3413  11.084   8.227   7.708  0.3798 -0.0517  0.1450
  750MOL0     N 3414  10.959   8.206   7.733 -0.1388 -0.4232 -0.4559
  750MOL0     C 3415  10.023   8.267   7.788  0.1589  0.9867 -0.3601
  750MOL0     C 3416   9.980   8.185   7.674 -0.1036  0.2237 -0.1543
  750MOL0     C 3417  10.017   7.938   7.265  1.0280  0.1149  0.6025
  750MOL0     C 3418  10.085   7.870   7.161 -0.0233 -0.2327  0.1389
  750MOL0     C 3419  10.014   7.810   7.062  0.1178  0.2032  0.2607
  750MOL0     C 3420   9.870   7.820   7.046 -0.9614 -0.5069 -0.0088
  750MOL0     O 3421   9.798   7.758   6.950  0.8707  0.1817  0.9613
  750MOL0     C 3422   9.863   7.656   6.870 -0.3266 -0.2251  0.9078
  750MOL0     C 3423   9.778   7.629   6.741  0.4355  0.7032  0.1042
  750MOL0     C 3424   9.740   7.745   6.642 -0.0828  0.2212  0.3783
  750MOL0     C 3425   9.858   7.843   6.601  0.5142 -0.0045 -0.4492
  750MOL0     C 3426   9.957   7.783   6.510 -0.6113  0.3129  0.6825
  750MOL0     C 3427  10.038   7.748   6.433 -0.4409 -0.2684 -0.4794
  750MOL0     C 3428   9.806   7.903   7.137 -0.9231 -0.3499 -0.2634
  750MOL0     C 3429   9.876   7.963   7.241 -0.2355  0.1883  0.3173
  750MOL0     C 3430   9.782   8.046   7.335 -0.6078  0.0266 -0.3429
  750MOL0     H 3431  10.292   8.062   7.591  1.3376 -1.7180  2.4042
  750MOL0     H 3432  10.353   8.216   7.789 -0.0996 -0.3490  1.5548
  750MOL0     H 3433  10.086   8.521   7.925 -0.9172 -2.8492  2.1031
  750MOL0     H 3434  10.194   8.522   7.796  0.3749 -1.7561 -1.7977
  750MOL0     H 3435  10.257   8.686   7.979  1.0380 -1.0898 -0.9083
  750MOL0     H 3436  10.270   8.541   8.097  2.8777 -3.5443 -0.5220
  750MOL0     H 3437  10.485   8.625   8.041  0.5954  0.9039 -0.0706
  750MOL0     H 3438  10.450   8.454   8.003 -1.5106  0.6843  1.8598
  750MOL0     H 3439  10.439   8.499   7.769  1.7235 -0.4095 -1.8232
  750MOL0     H 3440  10.452   8.669   7.799  1.1634  0.5913 -0.3647
  750MOL0     H 3441  10.654   8.437   7.894  0.2989 -1.1687 -2.5015
  750MOL0     H 3442  10.670   8.614   7.924 -2.9900  1.4432 -0.0944
  750MOL0     H 3443  10.713   8.643   7.682  1.6850 -1.3777 -1.1540
  750MOL0     H 3444  10.829   8.533   7.741  1.8942 -0.1246 -4.2335
  750MOL0     H 3445  10.713   8.472   7.524 -3.4198  1.3638 -0.7816
  750MOL0     H 3446  10.571   8.420   7.612 -0.1649 -1.1811 -3.4126
  750MOL0     H 3447  10.720   8.279   7.772  0.9730  1.5157  1.1967
  750MOL0     H 3448  10.689   8.230   7.600 -0.3007  0.5915 -1.1265
  750MOL0     H 3449  10.935   8.457   7.528 -2.4709  0.5737  0.9698
  750MOL0     H 3450  11.226   8.402   7.475  0.1507 -0.2219  0.9850
  750MOL0     H 3451  11.293   8.319   7.620  0.6029  0.2091  0.2961
  750MOL0     H 3452  11.170   8.603   7.608 -0.7077 -0.9770 -0.3514
  750MOL0     H 3453  11.245   8.525   7.749 -2.6833 -0.7879  0.5248
  750MOL0     H 3454  11.375   8.617   7.490 -1.6534  1.6498  0.9113
  750MOL0     H 3455  11.399   8.670   7.658 -0.4880 -2.2285  1.7664
  750MOL0     H 3456  11.479   8.390   7.557 -0.8210  0.6756  0.5219
  750MOL0     H 3457  11.582   8.531   7.539  1.0438 -0.7795  0.0973
  750MOL0     H 3458  11.791   8.458   7.721  0.3445 -1.6072  1.5203
  750MOL0     H 3459  12.070   8.630   7.873  0.4019  0.7277  0.4821
  750MOL0     H 3460  12.027   8.753   7.760 -0.6671  0.8291  1.2834
  750MOL0     H 3461  12.027   8.588   7.703 -0.8930 -2.0479  2.4480
  750MOL0     H 3462  11.889   9.020   8.249 -1.3982  0.7400 -0.0690
  750MOL0     H 3463  12.053   9.192   8.343  1.5790 -1.3669  0.0752
  750MOL0     H 3464  12.330   9.218   8.210 -3.9550  0.5084  2.5086
  750MOL0     H 3465  12.390   9.350   8.098  1.5095 -1.1263 -0.3072
  750MOL0     H 3466  12.513   9.381   8.275 -0.3919  1.3304 -1.6476
  750MOL0     H 3467  12.378   9.495   8.298  0.0998  0.4647 -1.3615
  750MOL0     H 3468  12.417   9.226   8.447  2.4782  0.9686  3.7261
  750MOL0     H 3469  12.272   9.330   8.447  0.6077  4.1339 -1.3785
  750MOL0     H 3470  12.387   9.391   8.643  0.4499  3.3124  0.8001
  750MOL0     H 3471  12.419   9.523   8.535  2.5637  0.6614  0.1945
  750MOL0     H 3472  12.596   9.274   8.576  0.1137 -0.4338  0.3272
  750MOL0     H 3473  12.641   9.397   8.458 -2.4662  1.7825 -1.3116
  750MOL0     H 3474  12.679   9.542   8.648  2.6639 -0.3810  0.2696
  750MOL0     H 3475  12.748   9.384   8.686  0.2598 -1.4412 -0.8243
  750MOL0     H 3476  12.503   9.497   8.806  1.5770  1.6806 -0.6532
  750MOL0     H 3477  12.661   9.485   8.878  3.5748 -3.4078 -1.5466
  750MOL0     H 3478  12.625   9.282   8.967  3.5313 -0.4084 -1.4098
  750MOL0     H 3479  12.646   9.234   8.811  0.8228  0.6922  1.3393
  750MOL0     H 3480  12.148   9.325   7.941 -2.6138  1.6287  0.5317
  750MOL0     H 3481  12.007   9.143   7.849  0.8117 -2.9473  0.4170
  750MOL0     H 3482  11.618   8.847   7.966 -2.8339 -2.4249 -1.2511
  750MOL0     H 3483  11.473   8.695   7.871 -0.0216  0.0150  5.0004
  750MOL0     H 3484   9.951   8.343   7.818 -2.4882 -1.8718  1.0009
  750MOL0     H 3485   9.883   8.184   7.627  0.2349 -1.6424 -0.8965
  750MOL0     H 3486  10.193   7.863   7.166  0.0172 -0.8328 -1.1544
  750MOL0     H 3487  10.074   7.764   6.984 -0.2401  2.0190 -1.1596
  750MOL0     H 3488   9.963   7.686   6.837  0.5290 -0.3159  3.2638
  750MOL0     H 3489   9.879   7.560   6.919  1.5155 -1.8628 -2.5061
  750MOL0     H 3490   9.682   7.585   6.770  1.3158 -1.2414  0.2406
  750MOL0     H 3491   9.832   7.548   6.690 -0.8884 -0.2198  0.1067
  750MOL0     H 3492   9.678   7.722   6.555  0.6975  0.1365 -0.1609
  750MOL0     H 3493   9.667   7.808   6.695  0.3417 -0.4824  1.8537
  750MOL0     H 3494   9.898   7.889   6.692 -0.3078  1.5184 -0.8293
  750MOL0     H 3495   9.823   7.924   6.537 -0.9450  0.2851  0.6595
  750MOL0     H 3496  10.117   7.715   6.369 -0.5727 -0.3026 -0.6261
  750MOL0     H 3497   9.698   7.914   7.139 -1.1395 -1.9893  3.4260
  750MOL0     H 3498   9.840   8.134   7.364 -0.7348  0.7241 -2.0717
  750MOL0     H 3499   9.703   8.103   7.284  0.3635  3.0534  1.2994
  750MOL0     H 3500   9.746   7.999   7.427  0.9275  0.5989  0.5812
  751MOL0     O 3501   5.000   8.561   7.409 -0.2718 -0.7572 -0.2683
  751MOL0     C 3502   5.104   8.516   7.467  0.4603  0.3130  0.8529
  751MOL0     O 3503   5.093   8.439   7.580  0.2800  0.0152  0.0774
  751MOL0     C 3504   4.973   8.388   7.622  0.1262  0.8917  0.6886
  751MOL0     C 3505   4.867   8.343   7.538 -0.1071 -0.3719  1.2077
  751MOL0     C 3506   4.743   8.292   7.588 -0.2372 -0.2922  0.3998
  751MOL0     C 3507   4.728   8.284   7.724 -0.0038 -0.4690  0.4328
  751MOL0     O 3508   4.619   8.225   7.777  0.3843  0.2195 -0.7521
  751MOL0     C 3509   4.496   8.296   7.758  1.0922  0.5033 -0.0718
  751MOL0     C 3510   4.366   8.213   7.767  0.1655  0.1375  0.7038
  751MOL0     C 3511   4.354   8.133   7.897 -0.4923  0.8532 -0.3235
  751MOL0     C 3512   4.255   8.015   7.876  0.2865  0.5826  0.7729
  751MOL0     C 3513   4.253   7.931   8.002  0.4471  0.5415 -0.0826
  751MOL0     C 3514   4.166   7.805   7.978  1.2521  0.3512 -0.0902
  751MOL0     C 3515   4.019   7.832   7.948 -0.6169  0.2197 -0.4377
  751MOL0     C 3516   3.994   7.813   7.808  0.0435  0.5438  0.3663
  751MOL0     N 3517   3.947   7.680   7.766  0.5571  0.7099  0.5864
  751MOL0     C 3518   3.818   7.627   7.773 -0.1228  0.8044  0.3218
  751MOL0     C 3519   3.818   7.497   7.725 -0.7948  0.5570 -0.3055
  751MOL0     C 3520   3.702   7.398   7.702 -0.4972  0.6894 -1.0698
  751MOL0     C 3521   3.591   7.426   7.802  0.2184 -0.9513 -1.0163
  751MOL0     C 3522   3.469   7.330   7.799  0.6710  0.2564 -0.6147
  751MOL0     C 3523   3.400   7.336   7.665 -0.0219  0.4676  0.2964
  751MOL0     O 3524   3.280   7.251   7.662  0.4040 -0.0111 -0.2470
  751MOL0     C 3525   3.156   7.305   7.687  0.0944  0.5950 -0.0478
  751MOL0     C 3526   3.063   7.238   7.765 -0.1872  0.4143  0.5137
  751MOL0     C 3527   2.935   7.279   7.789  0.1848 -0.0033 -0.3853
  751MOL0     C 3528   2.845   7.200   7.873 -0.2889 -0.2926  0.4784
  751MOL0     C 3529   2.892   7.402   7.729  0.2227 -0.5293  0.1655
  751MOL0     C 3530   2.765   7.473   7.756 -1.0179 -1.3420 -0.5490
  751MOL0     O 3531   2.691   7.439   7.867 -0.1346 -0.2755  0.3406
  751MOL0     C 3532   2.584   7.517   7.899 -0.4361  0.8370 -0.2210
  751MOL0     C 3533   2.576   7.658   7.908  0.0613  0.0381 -0.2687
  751MOL0     C 3534   2.454   7.715   7.941  0.7652 -0.2601 -0.6052
  751MOL0     C 3535   2.348   7.639   7.985 -0.0163  0.0229 -1.1875
  751MOL0     O 3536   2.234   7.707   8.000  0.1769  0.6454 -0.2792
  751MOL0     C 3537   2.112   7.625   7.985 -0.1676 -0.1517  0.0185
  751MOL0     C 3538   1.991   7.705   8.027  0.9868 -0.2515 -0.9220
  751MOL0     C 3539   2.015   7.781   8.155  0.3923 -0.0548 -0.2878
  751MOL0     C 3540   1.879   7.847   8.204 -1.3630  0.1161  0.5784
  751MOL0     C 3541   1.915   7.907   8.346 -0.5816 -0.2851  0.3805
  751MOL0     C 3542   1.786   7.927   8.428 -0.8051  0.3882  0.3433
  751MOL0     C 3543   1.668   8.004   8.357  0.0858  0.7221  0.5718
  751MOL0     C 3544   1.530   7.969   8.402  0.2754 -0.7927  0.8826
  751MOL0    Cl 3545   1.421   8.081   8.320 -0.4165  0.4217 -0.0385
  751MOL0     C 3546   2.360   7.500   7.987 -0.6629  0.4112 -0.2089
  751MOL0     C 3547   2.480   7.441   7.935  0.3747  0.5102  0.5926
  751MOL0     O 3548   2.743   7.577   7.692 -0.7666 -0.3677 -0.3488
  751MOL0     C 3549   2.982   7.458   7.637  0.0972 -1.0763 -1.0719
  751MOL0     C 3550   3.112   7.414   7.621  0.5063  0.0053 -0.0309
  751MOL0     N 3551   3.951   7.471   7.684 -0.3609 -0.9931 -0.4701
  751MOL0     N 3552   4.028   7.581   7.713  1.4566 -0.0252 -0.5915
  751MOL0     C 3553   4.821   8.330   7.804 -1.4532  0.9833  0.5440
  751MOL0     C 3554   4.954   8.369   7.755  0.1889 -0.4889 -0.4834
  751MOL0     C 3555   5.238   8.546   7.409  0.5330  1.2992 -0.3007
  751MOL0     C 3556   5.336   8.564   7.496 -0.1264  0.5126 -0.0695
  751MOL0     C 3557   5.467   8.610   7.459  0.1330 -0.8716  0.0198
  751MOL0     C 3558   5.491   8.649   7.330 -0.2631  0.2065  0.5962
  751MOL0     O 3559   5.614   8.709   7.286 -0.0867  0.4893 -0.3026
  751MOL0     C 3560   5.721   8.703   7.379  0.6312 -0.6479 -0.9244
  751MOL0     C 3561   5.845   8.760   7.296 -0.3653  0.8077 -0.6975
  751MOL0     C 3562   5.899   8.655   7.190  0.0939 -0.9569 -1.1229
  751MOL0     C 3563   6.030   8.709   7.131 -0.1591  0.4349  0.4319
  751MOL0     C 3564   6.064   8.619   7.016  0.1030  1.2537 -0.1220
  751MOL0     C 3565   6.071   8.553   6.915 -0.8772  0.2867  0.3124
  751MOL0     C 3566   5.397   8.628   7.239 -0.6248  0.0368 -0.5445
  751MOL0     C 3567   5.270   8.574   7.275 -0.4190  0.7511  0.5050
  751MOL0     C 3568   5.179   8.563   7.160 -0.3760  0.0855 -0.0732
  751MOL0     H 3569   4.895   8.350   7.434  0.0721  2.5240  1.3856
  751MOL0     H 3570   4.662   8.259   7.523 -1.2339 -0.5912  1.7693
  751MOL0     H 3571   4.492   8.351   7.664  1.8156  2.4543  0.9844
  751MOL0     H 3572   4.495   8.374   7.834  0.7172  1.0964 -0.6728
  751MOL0     H 3573   4.281   8.279   7.748  0.3994 -0.2315 -2.0743
  751MOL0     H 3574   4.369   8.153   7.675  2.2847  1.7253 -0.3414
  751MOL0     H 3575   4.450   8.089   7.924 -0.2337  2.2042  1.0923
  751MOL0     H 3576   4.306   8.195   7.973 -2.6261  1.7505 -2.2747
  751MOL0     H 3577   4.159   8.062   7.853 -0.1422 -1.7597 -3.0127
  751MOL0     H 3578   4.277   7.955   7.788 -0.9274  4.9707 -2.9197
  751MOL0     H 3579   4.212   7.988   8.086  0.8890 -0.4765  0.8453
  751MOL0     H 3580   4.356   7.902   8.024 -0.3621 -1.7859  0.8743
  751MOL0     H 3581   4.207   7.729   7.910  1.2049 -1.0378  1.3634
  751MOL0     H 3582   4.169   7.755   8.076 -3.6514  2.2655  1.3346
  751MOL0     H 3583   3.987   7.930   7.985 -2.0094 -0.7239  1.0222
  751MOL0     H 3584   3.955   7.769   8.011  1.8447 -0.5770  1.3800
  751MOL0     H 3585   3.922   7.890   7.779  0.6021  0.7343 -0.5689
  751MOL0     H 3586   4.086   7.830   7.751 -1.7082 -2.3186 -3.8406
  751MOL0     H 3587   3.736   7.687   7.809 -1.6492  3.3398 -5.9968
  751MOL0     H 3588   3.733   7.294   7.709 -0.4476  0.7315 -0.6377
  751MOL0     H 3589   3.661   7.412   7.601 -1.1630  1.3902 -0.7196
  751MOL0     H 3590   3.637   7.418   7.901 -1.4995  0.1790 -0.1023
  751MOL0     H 3591   3.560   7.530   7.796  1.1416 -0.6917 -1.7039
  751MOL0     H 3592   3.512   7.230   7.805  1.9124  0.7959  0.0497
  751MOL0     H 3593   3.402   7.356   7.881 -1.7871  0.8131 -2.6459
  751MOL0     H 3594   3.377   7.441   7.646  2.7271  1.1619  0.2697
  751MOL0     H 3595   3.470   7.295   7.591  0.4881 -2.9647  2.4093
  751MOL0     H 3596   3.108   7.157   7.821  0.6749  0.3645 -0.2133
  751MOL0     H 3597   2.872   7.216   7.978 -1.6044 -0.4419  0.8507
  751MOL0     H 3598   2.873   7.097   7.848 -0.6044 -0.5167  1.0426
  751MOL0     H 3599   2.738   7.210   7.854 -0.5434 -1.5893  1.0785
  751MOL0     H 3600   2.662   7.714   7.873  0.9094 -0.9766  0.1345
  751MOL0     H 3601   2.433   7.822   7.945  0.2962 -0.4015  1.2650
  751MOL0     H 3602   2.107   7.591   7.881  0.6638 -1.9081  0.5232
  751MOL0     H 3603   2.102   7.541   8.053  1.4768  0.0251  0.5078
  751MOL0     H 3604   1.944   7.775   7.958 -1.4478  1.5226  2.2315
  751MOL0     H 3605   1.910   7.634   8.048 -0.7604  2.4106  2.3281
  751MOL0     H 3606   2.087   7.861   8.133  3.0169 -2.7830 -2.3924
  751MOL0     H 3607   2.063   7.729   8.238  0.1520  2.6196  1.6650
  751MOL0     H 3608   1.804   7.769   8.219 -0.4824 -0.5006  1.9763
  751MOL0     H 3609   1.844   7.913   8.124  0.2995  1.1736  0.6862
  751MOL0     H 3610   1.991   7.854   8.404  0.6674 -0.7657 -1.6041
  751MOL0     H 3611   1.961   8.003   8.320  1.7724 -0.8848  1.9917
  751MOL0     H 3612   1.810   7.976   8.523  2.8750 -1.9825  0.8022
  751MOL0     H 3613   1.752   7.826   8.454 -0.6897  0.4199  0.6224
  751MOL0     H 3614   1.663   7.974   8.252  0.6691  1.5968  0.2794
  751MOL0     H 3615   1.682   8.113   8.354  0.2960  0.6854  0.0424
  751MOL0     H 3616   1.534   7.988   8.509 -2.8948 -0.4759  1.0301
  751MOL0     H 3617   1.501   7.867   8.376 -3.4639  0.0317  1.2948
  751MOL0     H 3618   2.280   7.431   8.014  1.3056 -1.2109  1.8906
  751MOL0     H 3619   2.478   7.333   7.936 -3.1793  0.4488 -0.4713
  751MOL0     H 3620   2.960   7.557   7.598 -0.1200 -0.5263  0.3737
  751MOL0     H 3621   3.181   7.456   7.548  1.1539  1.9271  1.6168
  751MOL0     H 3622   4.821   8.339   7.912  2.5919  2.9707  0.5690
  751MOL0     H 3623   5.024   8.402   7.831  0.6058 -0.9807 -0.6462
  751MOL0     H 3624   5.325   8.524   7.596  5.8750 -4.2227 -0.6960
  751MOL0     H 3625   5.548   8.593   7.529  0.1008 -1.1202 -0.0012
  751MOL0     H 3626   5.712   8.759   7.472  1.2379 -0.4020 -1.0131
  751MOL0     H 3627   5.735   8.598   7.408 -1.4105 -1.2469 -1.9104
  751MOL0     H 3628   5.920   8.787   7.371  0.5816 -1.5939 -0.6900
  751MOL0     H 3629   5.805   8.845   7.240 -4.8519 -1.2065 -1.0458
  751MOL0     H 3630   5.910   8.556   7.235  1.1520  0.9404  3.3286
  751MOL0     H 3631   5.826   8.642   7.109 -1.0592 -1.6452 -0.0170
  751MOL0     H 3632   6.101   8.707   7.214  0.4883  0.9154 -0.1028
  751MOL0     H 3633   6.010   8.809   7.092 -5.3557 -1.3382 -2.2854
  751MOL0     H 3634   6.093   8.486   6.834 -1.5540 -3.5755  3.0459
  751MOL0     H 3635   5.417   8.635   7.132  0.0078 -2.7469 -0.6738
  751MOL0     H 3636   5.072   8.564   7.182 -0.9247 -0.1273 -2.4226
  751MOL0     H 3637   5.198   8.650   7.096  1.8161 -1.7903 -2.1870
  751MOL0     H 3638   5.216   8.489   7.089  2.9217  0.3511  1.1745
  752MOL0     O 3639   3.989   9.247   1.272 -0.4187 -0.4531 -0.6849
  752MOL0     C 3640   4.101   9.293   1.273 -0.6490  0.4668 -0.4884
  752MOL0     O 3641   4.139   9.428   1.283 -0.3205  1.3201  0.1941
  752MOL0     C 3642   4.048   9.526   1.276 -0.1068 -0.6486  0.0150
  752MOL0     C 3643   3.952   9.533   1.180  0.3566  1.2030 -0.1138
  752MOL0     C 3644   3.869   9.638   1.168 -0.5803  0.7819 -0.5118
  752MOL0     C 3645   3.869   9.743   1.256 -0.1937 -0.3126  0.2696
  752MOL0     O 3646   3.777   9.845   1.240 -0.6425 -0.3139 -0.7464
  752MOL0     C 3647   3.788   9.968   1.323  0.8196  0.2282 -0.8872
  752MOL0     C 3648   3.913  10.053   1.296 -0.0888  0.5289 -0.4283
  752MOL0     C 3649   3.895  10.206   1.322  0.7841  0.7793  0.1455
  752MOL0     C 3650   4.019  10.276   1.283  0.0915 -0.4875  0.5611
  752MOL0     C 3651   4.018  10.294   1.125 -0.2244 -0.7516  0.2294
  752MOL0     C 3652   3.909  10.379   1.067  0.7726 -0.2902 -0.5634
  752MOL0     C 3653   3.951  10.450   0.944  0.0506  1.1007  0.2614
  752MOL0     C 3654   3.989  10.355   0.830 -0.1736 -0.4642  0.1799
  752MOL0     N 3655   4.001  10.418   0.700 -0.1019  0.3335 -0.0832
  752MOL0     C 3656   4.083  10.386   0.597 -1.9602  0.3160  0.2934
  752MOL0     C 3657   4.048  10.459   0.489  0.4011  0.4441 -0.5214
  752MOL0     C 3658   4.122  10.456   0.360 -0.0115 -0.5365  1.4539
  752MOL0     C 3659   4.176  10.592   0.327  0.0839 -0.3182 -0.7411
  752MOL0     C 3660   4.205  10.619   0.184  0.1371 -0.1065 -0.6477
  752MOL0     C 3661   4.262  10.502   0.095  0.4795 -0.4026  0.2033
  752MOL0     O 3662   4.257  10.523  -0.045  0.1265 -0.2031  0.2233
  752MOL0     C 3663   4.360  10.594  -0.112 -0.7124  0.8766 -0.2326
  752MOL0     C 3664   4.343  10.602  -0.247  0.5008 -0.2184 -0.4252
  752MOL0     C 3665   4.431  10.674  -0.325  0.1237  0.5610  0.4267
  752MOL0     C 3666   4.387  10.697  -0.468  0.0384 -0.2779 -0.1661
  752MOL0     C 3667   4.560  10.712  -0.271 -0.3663  0.2843 -0.0757
  752MOL0     C 3668   4.664  10.779  -0.342  0.0335  0.1904  0.0710
  752MOL0     O 3669   4.632  10.855  -0.446  0.0510 -0.8100 -0.0894
  752MOL0     C 3670   4.711  10.940  -0.512 -0.0147 -0.4546  0.6099
  752MOL0     C 3671   4.852  10.944  -0.513  0.4760 -0.1110  0.1174
  752MOL0     C 3672   4.929  11.041  -0.589  0.9398 -0.0643  0.8655
  752MOL0     C 3673   4.854  11.131  -0.673 -0.1886  1.1434  0.2577
  752MOL0     O 3674   4.905  11.215  -0.766 -0.3256  0.1141  0.0710
  752MOL0     C 3675   5.027  11.183  -0.829 -0.4776 -0.1312 -0.5052
  752MOL0     C 3676   5.042  11.264  -0.961  0.2527 -0.0846  0.0118
  752MOL0     C 3677   5.026  11.412  -0.938 -0.0871  0.7840 -0.1961
  752MOL0     C 3678   5.062  11.495  -1.060  0.9381  0.7788  0.3808
  752MOL0     C 3679   5.018  11.635  -1.022 -0.0572 -0.2585  0.1538
  752MOL0     C 3680   5.033  11.725  -1.137 -0.8981  0.2445  0.3560
  752MOL0     C 3681   5.024  11.872  -1.102  0.4289 -0.2353  0.6457
  752MOL0     C 3682   4.880  11.925  -1.084  0.4356 -0.7220  0.3507
  752MOL0    Cl 3683   4.891  12.100  -1.008 -0.1391  0.4182  0.1907
  752MOL0     C 3684   4.716  11.125  -0.676  0.2206  0.5577 -0.4556
  752MOL0     C 3685   4.648  11.028  -0.597 -0.2330 -1.1846  0.0501
  752MOL0     O 3686   4.779  10.764  -0.296 -0.4034 -0.9946  0.2878
  752MOL0     C 3687   4.582  10.684  -0.141  1.0150  0.7064 -1.2112
  752MOL0     C 3688   4.483  10.631  -0.059  0.6729  1.0079  0.0842
  752MOL0     N 3689   3.941  10.536   0.533  1.1375  0.4142 -0.1963
  752MOL0     N 3690   3.922  10.517   0.658  0.0333 -0.7807 -0.5720
  752MOL0     C 3691   3.977   9.733   1.350  0.2523  0.2889 -0.5671
  752MOL0     C 3692   4.068   9.635   1.364  0.5919  1.1210  0.8639
  752MOL0     C 3693   4.218   9.193   1.292 -0.8879 -0.4869 -0.6178
  752MOL0     C 3694   4.348   9.239   1.315 -0.6833  0.0954  0.1161
  752MOL0     C 3695   4.459   9.171   1.361  0.2830 -0.5478 -0.2048
  752MOL0     C 3696   4.434   9.031   1.362 -0.1453  0.4810 -0.0297
  752MOL0     O 3697   4.527   8.935   1.412 -0.0247  1.0947 -0.5772
  752MOL0     C 3698   4.649   8.980   1.468 -0.3479  0.5991  0.0422
  752MOL0     C 3699   4.761   8.878   1.431  0.3841 -0.6604  0.1388
  752MOL0     C 3700   4.737   8.732   1.475 -0.2083 -0.0952 -0.0743
  752MOL0     C 3701   4.829   8.624   1.417 -0.4053 -0.7080 -0.1717
  752MOL0     C 3702   4.967   8.633   1.476 -0.0511 -0.6687  1.3151
  752MOL0     C 3703   5.079   8.640   1.509  0.1604 -0.8711 -0.4787
  752MOL0     C 3704   4.314   8.975   1.328 -0.4183 -0.2731  0.6700
  752MOL0     C 3705   4.211   9.056   1.292  0.7835  0.2634  0.3024
  752MOL0     C 3706   4.089   8.984   1.241 -0.0039 -0.4937 -0.0196
  752MOL0     H 3707   3.957   9.459   1.100  0.5238  0.7228  0.3332
  752MOL0     H 3708   3.802   9.648   1.083 -1.6251 -0.3881  0.1325
  752MOL0     H 3709   3.772   9.935   1.427 -1.0748  1.5553 -0.7043
  752MOL0     H 3710   3.697  10.028   1.311  1.0532  1.5227  2.5826
  752MOL0     H 3711   3.990  10.027   1.369  1.8789  0.7205 -2.3494
  752MOL0     H 3712   3.957  10.026   1.200 -0.5543 -4.0342  0.4149
  752MOL0     H 3713   3.812  10.242   1.260  1.2544 -0.9151 -1.5780
  752MOL0     H 3714   3.880  10.222   1.429 -1.9956  0.7551 -0.1754
  752MOL0     H 3715   4.017  10.374   1.332 -2.1966 -1.4536  2.6207
  752MOL0     H 3716   4.109  10.222   1.313  0.7866  0.0463 -0.4967
  752MOL0     H 3717   4.023  10.196   1.076  3.2469 -0.5731  0.0091
  752MOL0     H 3718   4.116  10.330   1.094  0.0487 -3.5550 -2.6635
  752MOL0     H 3719   3.811  10.333   1.052 -1.0953  2.8410  1.0633
  752MOL0     H 3720   3.879  10.460   1.135  0.0783  0.9127 -2.2217
  752MOL0     H 3721   4.035  10.518   0.966  1.0536 -0.0852  0.2029
  752MOL0     H 3722   3.862  10.508   0.918 -1.6298 -1.4230  0.1531
  752MOL0     H 3723   4.083  10.302   0.849 -0.8772 -2.0795 -0.6457
  752MOL0     H 3724   3.903  10.292   0.806 -0.5528  0.5871 -1.3471
  752MOL0     H 3725   4.163  10.314   0.610  0.5023  2.8733  0.0949
  752MOL0     H 3726   4.042  10.412   0.299 -0.1332 -1.1383  2.0295
  752MOL0     H 3727   4.212  10.396   0.347  1.2057  1.5097 -0.1080
  752MOL0     H 3728   4.099  10.662   0.360 -0.2021 -0.6473 -0.7105
  752MOL0     H 3729   4.273  10.607   0.376  0.5882  1.1233 -2.0670
  752MOL0     H 3730   4.110  10.663   0.151 -1.4917 -0.7851  2.7472
  752MOL0     H 3731   4.272  10.705   0.172 -0.0720 -0.0865 -1.8289
  752MOL0     H 3732   4.360  10.470   0.132  1.1705  3.0274  1.7870
  752MOL0     H 3733   4.196  10.416   0.107 -2.1709  1.4901  0.0533
  752MOL0     H 3734   4.257  10.550  -0.286 -0.1631  0.6455 -0.1506
  752MOL0     H 3735   4.279  10.686  -0.454  0.0765 -5.5498 -1.9415
  752MOL0     H 3736   4.420  10.622  -0.540  1.7696 -0.4107  0.7075
  752MOL0     H 3737   4.406  10.796  -0.511 -2.4798 -0.2758 -1.4722
  752MOL0     H 3738   4.919  10.871  -0.468 -1.1416 -1.6704  0.0852
  752MOL0     H 3739   5.035  11.056  -0.569  0.9818 -0.5263  1.0118
  752MOL0     H 3740   5.106  11.207  -0.757 -2.1285  0.7584  1.0819
  752MOL0     H 3741   5.027  11.075  -0.847 -1.3747 -0.2765  0.2958
  752MOL0     H 3742   5.147  11.241  -0.982 -0.2796 -2.4127 -0.3897
  752MOL0     H 3743   4.979  11.223  -1.040  1.1554  1.6559 -1.7293
  752MOL0     H 3744   5.097  11.431  -0.858  0.7502 -1.9672 -0.1688
  752MOL0     H 3745   4.925  11.431  -0.901 -0.0667 -4.5020  3.7484
  752MOL0     H 3746   5.013  11.474  -1.155  2.4634 -2.2813  0.1595
  752MOL0     H 3747   5.168  11.486  -1.085  0.8944  0.5368  0.2791
  752MOL0     H 3748   4.909  11.634  -1.014 -0.1011 -1.4773 -0.4096
  752MOL0     H 3749   5.062  11.680  -0.932 -2.9927  1.4608  0.8616
  752MOL0     H 3750   4.951  11.698  -1.203 -1.3035 -3.4314  2.1140
  752MOL0     H 3751   5.124  11.702  -1.193 -1.1284 -1.9482  0.8155
  752MOL0     H 3752   5.068  11.930  -1.183 -2.0153  0.8956  0.0402
  752MOL0     H 3753   5.083  11.890  -1.011  0.5555 -0.5755  0.6318
  752MOL0     H 3754   4.821  11.869  -1.012  1.1841 -3.0043 -0.7120
  752MOL0     H 3755   4.833  11.921  -1.183  3.7626  0.3379 -1.4477
  752MOL0     H 3756   4.652  11.196  -0.728  0.2289 -0.2403 -1.5770
  752MOL0     H 3757   4.540  11.037  -0.593 -0.2116  1.7387 -2.4924
  752MOL0     H 3758   4.679  10.691  -0.093  0.6988  2.3916 -0.7470
  752MOL0     H 3759   4.502  10.624   0.047 -1.0220  2.6269  0.5417
  752MOL0     H 3760   3.983   9.804   1.431  0.2331 -2.7489  2.2857
  752MOL0     H 3761   4.134   9.615   1.448  0.5905  0.9143  0.8177
  752MOL0     H 3762   4.365   9.345   1.301  0.7325  0.0780  1.4368
  752MOL0     H 3763   4.547   9.229   1.386  3.0697 -3.5122 -2.3721
  752MOL0     H 3764   4.680   9.075   1.423  2.2774  0.1898  0.8298
  752MOL0     H 3765   4.623   9.001   1.572 -0.5080 -0.1122  0.1471
  752MOL0     H 3766   4.856   8.891   1.484  2.1471 -0.7382 -2.8111
  752MOL0     H 3767   4.759   8.878   1.322 -1.4313  0.0797  0.1385
  752MOL0     H 3768   4.750   8.726   1.583  1.3990 -0.8435 -0.2841
  752MOL0     H 3769   4.635   8.701   1.452 -0.6173  1.7587 -0.9766
  752MOL0     H 3770   4.825   8.629   1.308 -2.4331 -0.1267 -0.1023
  752MOL0     H 3771   4.789   8.534   1.465 -2.4454  0.3913  0.2899
  752MOL0     H 3772   5.177   8.651   1.550 -0.3555 -1.5750  1.0411
  752MOL0     H 3773   4.298   8.870   1.350 -0.0077 -0.3886  0.4258
  752MOL0     H 3774   4.048   9.031   1.151  0.1042  0.3841  0.3794
  752MOL0     H 3775   4.098   8.877   1.218  1.9668  0.3255 -3.7923
  752MOL0     H 3776   4.002   8.993   1.307 -0.2940  1.2332 -0.5965
  753MOL0     O 3777   1.628   9.901  10.757  0.0170 -0.5682 -0.2529
  753MOL0     C 3778   1.512   9.886  10.797 -0.8358 -0.3173 -0.1712
  753MOL0     O 3779   1.453   9.765  10.838  0.5263 -0.1151 -0.0305
  753MOL0     C 3780   1.516   9.647  10.815 -0.4589 -0.8141 -0.8017
  753MOL0     C 3781   1.579   9.617  10.692  0.0942  0.3425 -0.5274
  753MOL0     C 3782   1.606   9.483  10.666 -0.0082 -0.4003 -0.2633
  753MOL0     C 3783   1.589   9.379  10.759 -0.2770 -0.8533  0.4693
  753MOL0     O 3784   1.633   9.251  10.728 -0.6330  0.1467 -0.4615
  753MOL0     C 3785   1.547   9.140  10.754 -1.1023  0.7698  0.4954
  753MOL0     C 3786   1.602   8.997  10.713 -0.6858 -0.2971 -0.3451
  753MOL0     C 3787   1.519   8.885  10.773 -1.0575 -0.2767  0.2610
  753MOL0     C 3788   1.543   8.743  10.712  0.5453 -1.0828  0.4818
  753MOL0     C 3789   1.565   8.755  10.568  0.1223  1.2567  1.6336
  753MOL0     C 3790   1.588   8.622  10.495 -0.1720  0.1453  0.0997
  753MOL0     C 3791   1.475   8.518  10.521  0.7172  0.3737  0.6114
  753MOL0     C 3792   1.533   8.407  10.614  0.3394  0.3769  0.4562
  753MOL0     N 3793   1.638   8.327  10.546 -0.5873  0.2626  0.8592
  753MOL0     C 3794   1.620   8.236  10.437 -0.8901 -0.6670 -0.1077
  753MOL0     C 3795   1.743   8.176  10.425  0.3428  0.4367  0.1982
  753MOL0     C 3796   1.769   8.072  10.310 -0.4657  1.2532 -0.4362
  753MOL0     C 3797   1.917   8.062  10.282  0.2948  0.1532 -0.2714
  753MOL0     C 3798   1.974   7.948  10.368 -0.0037 -0.5048 -0.6022
  753MOL0     C 3799   2.128   7.920  10.356 -0.8505 -0.1245  0.4935
  753MOL0     O 3800   2.173   7.809  10.438 -0.3395  0.1994 -0.1123
  753MOL0     C 3801   2.175   7.689  10.375 -0.2309  0.1011 -0.0706
  753MOL0     C 3802   2.121   7.655  10.246  1.1002 -0.7200 -1.3051
  753MOL0     C 3803   2.122   7.523  10.200 -0.1099  0.1556  0.1692
  753MOL0     C 3804   2.038   7.501  10.073 -0.0010 -0.2261  0.0257
  753MOL0     C 3805   2.188   7.425  10.271  0.6051  0.4637 -0.4852
  753MOL0     C 3806   2.198   7.282  10.236  0.6767 -0.5678 -0.4478
  753MOL0     O 3807   2.236   7.196  10.324 -0.3265  0.8491 -0.6791
  753MOL0     C 3808   2.254   7.066  10.287 -0.2643  0.0553 -0.5936
  753MOL0     C 3809   2.193   6.968  10.358  0.1131  0.6141 -0.4571
  753MOL0     C 3810   2.208   6.830  10.332  0.4784 -0.3070 -0.0243
  753MOL0     C 3811   2.281   6.791  10.218 -0.2316  0.7313 -0.4669
  753MOL0     O 3812   2.288   6.667  10.169 -0.6369 -0.3472  0.1148
  753MOL0     C 3813   2.185   6.578  10.215  0.5138  0.6871 -0.0711
  753MOL0     C 3814   2.187   6.446  10.143  0.1642 -0.9272  0.0834
  753MOL0     C 3815   2.102   6.461  10.019 -0.1387  0.0364  0.5547
  753MOL0     C 3816   2.115   6.339   9.936  0.2143  0.4739 -0.0106
  753MOL0     C 3817   2.050   6.340   9.800  0.2525  0.2278  0.3231
  753MOL0     C 3818   2.089   6.457   9.705  0.0343 -0.0138 -0.2572
  753MOL0     C 3819   1.999   6.464   9.576  0.2446  0.5134 -0.0995
  753MOL0     C 3820   1.858   6.515   9.610  0.3446  0.4608  0.8294
  753MOL0    Cl 3821   1.766   6.561   9.465  0.0115 -0.0157 -0.6495
  753MOL0     C 3822   2.358   6.885  10.145 -0.3540 -0.9232 -0.1933
  753MOL0     C 3823   2.336   7.027  10.186  0.5964  0.3148  1.3771
  753MOL0     O 3824   2.177   7.263  10.113 -0.3211 -0.1338  0.7090
  753MOL0     C 3825   2.254   7.455  10.387 -0.0095 -1.5320  0.8764
  753MOL0     C 3826   2.243   7.589  10.445 -0.9480  0.2439 -0.3080
  753MOL0     N 3827   1.828   8.228  10.526  0.2800  0.4595  0.9893
  753MOL0     N 3828   1.762   8.315  10.586 -0.3090  0.2676  0.2275
  753MOL0     C 3829   1.549   9.417  10.886  0.0843  0.4192  0.8625
  753MOL0     C 3830   1.504   9.546  10.920  0.0756  0.0698  0.9705
  753MOL0     C 3831   1.429  10.007  10.788 -0.2095 -0.1308 -0.2813
  753MOL0     C 3832   1.490  10.132  10.809  0.7498  0.1230 -0.2292
  753MOL0     C 3833   1.416  10.247  10.814  0.0417  0.0589 -0.5785
  753MOL0     C 3834   1.279  10.242  10.801 -0.4368 -1.1174 -0.1915
  753MOL0     O 3835   1.215  10.364  10.794  0.2572  0.3252  0.2960
  753MOL0     C 3836   1.084  10.381  10.856 -1.4845 -0.9744  0.6645
  753MOL0     C 3837   1.051  10.531  10.856  0.7401 -0.0913 -0.3382
  753MOL0     C 3838   1.043  10.593  10.719  0.5833  0.8135 -0.1883
  753MOL0     C 3839   1.021  10.751  10.737 -0.9907  0.4888 -0.5381
  753MOL0     C 3840   1.065  10.820  10.614  0.2051 -0.6801 -0.5205
  753MOL0     C 3841   1.087  10.896  10.521  0.0183  0.7297 -1.0735
  753MOL0     C 3842   1.210  10.124  10.775 -0.0191 -0.6904 -0.2143
  753MOL0     C 3843   1.287  10.005  10.770 -0.1929 -0.1027 -0.1007
  753MOL0     C 3844   1.210   9.877  10.758 -0.4652 -0.8235 -0.2852
  753MOL0     H 3845   1.590   9.692  10.615  0.8561  0.0646 -0.6942
  753MOL0     H 3846   1.636   9.462  10.564 -1.6119  1.9964 -1.3417
  753MOL0     H 3847   1.465   9.160  10.684  1.0661  2.4993 -1.7691
  753MOL0     H 3848   1.519   9.137  10.859  2.0938 -1.0713  1.4165
  753MOL0     H 3849   1.604   8.995  10.604 -1.5291  0.0836 -0.3707
  753MOL0     H 3850   1.708   8.989  10.739 -0.7202  0.5773  0.0985
  753MOL0     H 3851   1.547   8.865  10.877 -0.5418 -3.2908 -0.3681
  753MOL0     H 3852   1.412   8.909  10.777 -1.2559 -0.2616 -2.6075
  753MOL0     H 3853   1.634   8.696  10.752  0.3508 -0.8689  1.1882
  753MOL0     H 3854   1.454   8.682  10.729 -1.3665  0.8864 -1.7364
  753MOL0     H 3855   1.655   8.814  10.549  0.2785  1.1029  1.8853
  753MOL0     H 3856   1.491   8.804  10.504  2.9208 -0.5483 -3.6286
  753MOL0     H 3857   1.601   8.641  10.389  1.7433  3.0285  0.7466
  753MOL0     H 3858   1.685   8.580  10.525 -0.6236  0.4121  2.0756
  753MOL0     H 3859   1.441   8.472  10.428  0.6211 -0.2012  0.9188
  753MOL0     H 3860   1.387   8.564  10.567  0.3131 -0.0785  0.3054
  753MOL0     H 3861   1.587   8.452  10.698  3.9845  0.1986 -1.5728
  753MOL0     H 3862   1.456   8.334  10.642 -0.5589  0.8685 -0.6363
  753MOL0     H 3863   1.537   8.218  10.370  0.7514 -0.9607 -2.1688
  753MOL0     H 3864   1.722   8.111  10.219  1.5376  1.7402 -1.3173
  753MOL0     H 3865   1.727   7.979  10.348 -1.9887  2.6074  1.4235
  753MOL0     H 3866   1.953   8.040  10.181  1.8193  0.0082  0.2774
  753MOL0     H 3867   1.970   8.152  10.315 -1.1270  1.7042 -2.0533
  753MOL0     H 3868   1.953   7.974  10.472 -1.6339 -0.2800 -0.9589
  753MOL0     H 3869   1.914   7.859  10.353  0.1853 -0.3186 -2.7132
  753MOL0     H 3870   2.161   7.905  10.253 -2.9012  0.9910 -0.3867
  753MOL0     H 3871   2.172   8.016  10.384 -2.2875  0.5101  0.6784
  753MOL0     H 3872   2.075   7.729  10.181  1.9561  1.3180  0.2981
  753MOL0     H 3873   1.981   7.408  10.071 -0.8582  0.2724  0.4913
  753MOL0     H 3874   2.108   7.487   9.991  2.2104  0.7070  1.6545
  753MOL0     H 3875   1.970   7.585  10.055  1.4833  1.1514  0.5622
  753MOL0     H 3876   2.128   7.000  10.439  2.4717 -0.9598  2.2080
  753MOL0     H 3877   2.157   6.756  10.394 -1.2461 -1.1963 -2.3588
  753MOL0     H 3878   2.199   6.565  10.323 -2.0123  2.7971  0.6258
  753MOL0     H 3879   2.087   6.625  10.204 -0.7594 -1.7158  0.4586
  753MOL0     H 3880   2.290   6.427  10.112 -0.4511 -4.5851 -0.2129
  753MOL0     H 3881   2.160   6.362  10.208  2.5323  1.3284  4.4379
  753MOL0     H 3882   2.135   6.551   9.965 -1.4791 -0.2253 -0.7804
  753MOL0     H 3883   1.998   6.481  10.046  0.0498  0.1803  1.1930
  753MOL0     H 3884   2.066   6.263   9.997 -2.9754  0.8842 -1.8845
  753MOL0     H 3885   2.221   6.312   9.926  0.8954  3.4024 -1.7283
  753MOL0     H 3886   2.071   6.244   9.753 -2.1666  1.0926 -2.9062
  753MOL0     H 3887   1.941   6.344   9.810  0.2412 -0.6123  0.5535
  753MOL0     H 3888   2.193   6.440   9.678 -0.1773 -0.3290 -0.9094
  753MOL0     H 3889   2.083   6.548   9.765  2.1842  0.4968 -0.7357
  753MOL0     H 3890   1.990   6.367   9.526  2.3051 -0.0436  0.4902
  753MOL0     H 3891   2.039   6.534   9.502  0.3865  3.3823  2.4628
  753MOL0     H 3892   1.864   6.606   9.671 -1.4140 -0.2778  2.1862
  753MOL0     H 3893   1.808   6.441   9.673  2.1602 -0.8248  0.8334
  753MOL0     H 3894   2.426   6.871  10.061 -0.5234  1.7211 -0.8469
  753MOL0     H 3895   2.394   7.107  10.142  0.1377  0.6248  1.3336
  753MOL0     H 3896   2.331   7.395  10.434  2.2088 -0.8822 -1.6935
  753MOL0     H 3897   2.293   7.613  10.538 -1.9750 -0.6839  0.5094
  753MOL0     H 3898   1.542   9.342  10.963 -2.0107  1.5248  1.8420
  753MOL0     H 3899   1.444   9.558  11.010 -0.4331 -3.9988  1.3468
  753MOL0     H 3900   1.597  10.145  10.819  0.7096  0.5120 -0.2949
  753MOL0     H 3901   1.459  10.344  10.836 -2.8475  1.7431 -1.8052
  753MOL0     H 3902   1.017  10.325  10.790  1.1710 -4.6347  0.8117
  753MOL0     H 3903   1.092  10.350  10.961  2.9196 -0.6007  0.6365
  753MOL0     H 3904   1.114  10.587  10.925  0.2616  0.5531 -0.4013
  753MOL0     H 3905   0.949  10.545  10.893  0.5014  1.4542 -1.4494
  753MOL0     H 3906   1.137  10.582  10.664  1.0680  0.5849  0.6733
  753MOL0     H 3907   0.957  10.553  10.665  1.1079  0.6837 -0.9382
  753MOL0     H 3908   1.055  10.791  10.834 -0.8651  0.0622 -0.4054
  753MOL0     H 3909   0.913  10.767  10.736 -0.7713  2.3076  0.0209
  753MOL0     H 3910   1.102  10.967  10.443 -1.0104  0.9035 -1.1391
  753MOL0     H 3911   1.105  10.112  10.747 -0.9991 -0.9921  3.1297
  753MOL0     H 3912   1.104   9.893  10.737 -0.5034  1.0049  1.0246
  753MOL0     H 3913   1.250   9.816  10.676 -4.0599 -1.8633 -1.4421
  753MOL0     H 3914   1.210   9.819  10.851 -2.2194  2.9445  2.3419
  754MOL0     O 3915   8.212   3.941  10.209  0.4347 -0.6787  0.3183
  754MOL0     C 3916   8.109   3.910  10.275  0.2207  0.0172 -0.7542
  754MOL0     O 3917   7.997   3.853  10.222 -0.7371  0.4812  0.0902
  754MOL0     C 3918   7.980   3.830  10.084  0.6782 -0.0644 -0.0755
  754MOL0     C 3919   8.041   3.891   9.972  0.3471 -0.8600 -0.1944
  754MOL0     C 3920   7.986   3.869   9.841  0.3989  0.5442  0.7266
  754MOL0     C 3921   7.878   3.789   9.827  0.2367  0.2947 -0.0450
  754MOL0     O 3922   7.834   3.767   9.700 -0.5666  0.0210 -0.8598
  754MOL0     C 3923   7.841   3.637   9.655  0.1832 -0.0625 -0.1916
  754MOL0     C 3924   7.861   3.646   9.503 -0.6403 -0.4245  0.4773
  754MOL0     C 3925   7.861   3.515   9.419 -0.2330 -0.4100 -0.4904
  754MOL0     C 3926   7.993   3.430   9.445  0.5007  0.2221  0.0593
  754MOL0     C 3927   7.980   3.287   9.390  0.0299 -0.3451 -0.6728
  754MOL0     C 3928   8.122   3.224   9.366 -0.5721 -0.2414 -1.0535
  754MOL0     C 3929   8.203   3.205   9.501 -0.2641 -0.3581 -0.1870
  754MOL0     C 3930   8.331   3.124   9.491  0.4417  0.7014 -0.5936
  754MOL0     N 3931   8.425   3.194   9.402  0.1132  0.0622  0.4478
  754MOL0     C 3932   8.489   3.315   9.428 -0.4029  0.3538  0.2340
  754MOL0     C 3933   8.552   3.348   9.313  0.7890  0.4186 -0.2494
  754MOL0     C 3934   8.627   3.466   9.274 -0.5275 -0.6836  0.0296
  754MOL0     C 3935   8.712   3.531   9.389 -0.4707 -0.4637 -0.2121
  754MOL0     C 3936   8.629   3.645   9.439 -0.3057  0.0029  0.1118
  754MOL0     C 3937   8.700   3.733   9.543  0.3350  0.9382  0.1974
  754MOL0     O 3938   8.701   3.665   9.668  0.0504  0.3452 -0.4969
  754MOL0     C 3939   8.729   3.735   9.786 -0.6683  0.3139  0.8113
  754MOL0     C 3940   8.670   3.704   9.907 -0.0613 -0.5155 -0.3443
  754MOL0     C 3941   8.682   3.777  10.023 -0.1834 -0.0064  0.0286
  754MOL0     C 3942   8.609   3.731  10.148 -0.5593  0.6061  0.7384
  754MOL0     C 3943   8.769   3.889  10.019  0.2688  0.3201 -0.8606
  754MOL0     C 3944   8.794   3.986  10.137 -0.5562 -0.7816 -0.6353
  754MOL0     O 3945   8.892   4.080  10.113  0.5217  0.1560 -0.3001
  754MOL0     C 3946   8.885   4.202  10.164 -0.2248 -0.3644  0.9855
  754MOL0     C 3947   9.003   4.271  10.173 -0.1393  0.4102 -0.0096
  754MOL0     C 3948   9.008   4.404  10.222 -0.7169  0.9708 -0.3854
  754MOL0     C 3949   8.896   4.475  10.244 -0.2541 -0.1729  0.2306
  754MOL0     O 3950   8.914   4.595  10.295  0.5554 -0.2188  0.1909
  754MOL0     C 3951   8.805   4.673  10.351 -0.3487  0.1127 -0.8492
  754MOL0     C 3952   8.869   4.776  10.445  0.1828 -0.1563 -0.0425
  754MOL0     C 3953   8.755   4.822  10.543 -0.3216  0.1720  0.2089
  754MOL0     C 3954   8.807   4.925  10.649 -0.1817  0.6223  0.7966
  754MOL0     C 3955   8.683   4.994  10.714 -0.4967  0.7239 -0.7344
  754MOL0     C 3956   8.734   5.105  10.811 -0.5828  0.1345  0.6815
  754MOL0     C 3957   8.818   5.220  10.744  0.3505 -0.2157 -0.8251
  754MOL0     C 3958   8.879   5.317  10.851  0.0872  0.0311  0.2574
  754MOL0    Cl 3959   8.758   5.389  10.957  0.1431  0.0272  0.1795
  754MOL0     C 3960   8.771   4.416  10.218 -0.3919  0.0275  0.2908
  754MOL0     C 3961   8.771   4.283  10.180  0.1139 -0.1139  0.6620
  754MOL0     O 3962   8.731   3.982  10.234  0.3059 -1.0391 -0.3965
  754MOL0     C 3963   8.833   3.922   9.898  0.3736  0.0107  0.2972
  754MOL0     C 3964   8.806   3.855   9.774 -0.4327  0.1342  0.2987
  754MOL0     N 3965   8.518   3.253   9.218  0.7313 -0.0444 -0.5143
  754MOL0     N 3966   8.452   3.160   9.274  1.1918  0.3533  0.3185
  754MOL0     C 3967   7.819   3.723   9.933 -0.3578  0.4611 -0.4170
  754MOL0     C 3968   7.878   3.741  10.062 -1.0496  0.2757 -0.0122
  754MOL0     C 3969   8.097   3.940  10.416 -0.4297  0.1758  0.1897
  754MOL0     C 3970   7.982   3.983  10.466 -1.0579  0.2003  0.2769
  754MOL0     C 3971   7.975   4.005  10.607  1.7668 -0.6169  0.4334
  754MOL0     C 3972   8.072   3.996  10.693  0.0253  0.4896 -0.2120
  754MOL0     O 3973   8.038   4.026  10.824  0.5984 -0.4295  0.6672
  754MOL0     C 3974   8.141   4.035  10.927  0.5851  0.1124 -0.2317
  754MOL0     C 3975   8.064   4.104  11.033 -0.0235  0.2041 -0.1501
  754MOL0     C 3976   8.156   4.113  11.163 -0.4014  0.5373  0.1776
  754MOL0     C 3977   8.106   4.217  11.254  0.4121 -0.3056 -0.4261
  754MOL0     C 3978   8.136   4.351  11.197 -0.4023 -0.0146  0.0693
  754MOL0     C 3979   8.164   4.471  11.177 -1.5007 -0.0869  0.1946
  754MOL0     C 3980   8.191   3.949  10.644 -0.7119 -0.0676  0.3090
  754MOL0     C 3981   8.207   3.932  10.507  0.0672  0.1505  0.2129
  754MOL0     C 3982   8.346   3.895  10.466  0.4252  0.1897  0.3454
  754MOL0     H 3983   8.126   3.959   9.975 -1.1806  1.1494 -0.2872
  754MOL0     H 3984   8.027   3.923   9.757  1.3990  0.3164  1.0556
  754MOL0     H 3985   7.754   3.572   9.669 -0.3311  0.0177 -2.6240
  754MOL0     H 3986   7.929   3.584   9.692  1.0593 -0.7018 -2.9511
  754MOL0     H 3987   7.777   3.707   9.467  1.4729  1.8747 -0.8334
  754MOL0     H 3988   7.941   3.709   9.465 -1.8911  0.2117 -1.2494
  754MOL0     H 3989   7.771   3.462   9.452 -0.6702  1.7659  2.2142
  754MOL0     H 3990   7.848   3.541   9.314  0.6441  0.5671 -0.3698
  754MOL0     H 3991   8.083   3.476   9.404 -0.6091  1.8568 -0.6572
  754MOL0     H 3992   8.020   3.419   9.551  5.6257  1.4555 -0.8589
  754MOL0     H 3993   7.915   3.274   9.303 -0.3867 -2.7035 -0.0673
  754MOL0     H 3994   7.930   3.232   9.469 -1.7657  4.5751  2.0963
  754MOL0     H 3995   8.092   3.121   9.343  1.5308 -0.5884 -2.4593
  754MOL0     H 3996   8.182   3.258   9.281  2.3130  2.7219  1.8805
  754MOL0     H 3997   8.141   3.150   9.573  0.3498  1.0839  1.5137
  754MOL0     H 3998   8.226   3.301   9.546 -0.0247  1.3447 -3.6141
  754MOL0     H 3999   8.387   3.122   9.585 -2.0344 -1.5136  0.9538
  754MOL0     H 4000   8.286   3.027   9.469 -0.2795  0.1911  2.6057
  754MOL0     H 4001   8.478   3.374   9.518  0.9554 -1.5846  1.7454
  754MOL0     H 4002   8.564   3.537   9.219  0.2549  1.0726  1.3092
  754MOL0     H 4003   8.693   3.423   9.198 -1.5278  0.7621 -1.7421
  754MOL0     H 4004   8.726   3.457   9.468 -0.2589 -0.2522 -0.0495
  754MOL0     H 4005   8.811   3.571   9.365 -0.0001 -0.2929  1.7821
  754MOL0     H 4006   8.601   3.708   9.354 -0.2009  1.2877  0.9965
  754MOL0     H 4007   8.544   3.611   9.498 -0.1173  0.5644  0.7190
  754MOL0     H 4008   8.804   3.753   9.515 -0.1236  3.7714  0.1775
  754MOL0     H 4009   8.647   3.828   9.557 -0.9543  0.0122  1.9840
  754MOL0     H 4010   8.599   3.622   9.907  0.9528 -1.4220 -1.3637
  754MOL0     H 4011   8.553   3.818  10.183 -0.4077  2.1003 -2.3749
  754MOL0     H 4012   8.685   3.696  10.218  2.0186  0.9707 -1.6979
  754MOL0     H 4013   8.531   3.656  10.131  0.5860 -0.1762 -1.5035
  754MOL0     H 4014   9.088   4.213  10.141 -2.5213 -2.3842 -1.7567
  754MOL0     H 4015   9.094   4.469  10.211  1.8119 -2.0297  0.2896
  754MOL0     H 4016   8.759   4.725  10.267 -0.5765  1.2895 -0.0239
  754MOL0     H 4017   8.742   4.600  10.403 -0.3965 -0.6796 -1.9841
  754MOL0     H 4018   8.957   4.741  10.499  0.0678  0.0932  0.3098
  754MOL0     H 4019   8.898   4.864  10.386 -1.2548  1.1280  1.0860
  754MOL0     H 4020   8.723   4.733  10.599  0.7925 -0.2460  0.1920
  754MOL0     H 4021   8.671   4.873  10.495  0.9455  1.3720 -0.7799
  754MOL0     H 4022   8.863   4.998  10.590  0.3138 -1.1622 -1.0440
  754MOL0     H 4023   8.879   4.895  10.727 -1.9496  0.6812  2.5399
  754MOL0     H 4024   8.612   5.028  10.638  0.6811 -1.1707 -2.7790
  754MOL0     H 4025   8.631   4.921  10.777 -1.4267  1.4968 -0.5773
  754MOL0     H 4026   8.789   5.051  10.889 -0.3912 -0.2220  0.2999
  754MOL0     H 4027   8.651   5.152  10.866  0.6434  3.2347  0.0604
  754MOL0     H 4028   8.743   5.261  10.677 -0.7855  2.5619  1.8731
  754MOL0     H 4029   8.907   5.175  10.700  0.4040 -0.0575 -0.8757
  754MOL0     H 4030   8.940   5.397  10.809 -1.3126  0.1462 -1.6773
  754MOL0     H 4031   8.957   5.265  10.907  1.2457  3.2119  1.8489
  754MOL0     H 4032   8.680   4.473  10.235  0.4378  0.4892  4.0747
  754MOL0     H 4033   8.676   4.237  10.157 -0.2493  0.8003  0.3259
  754MOL0     H 4034   8.895   4.010   9.883 -0.0027  0.1947 -0.2254
  754MOL0     H 4035   8.855   3.889   9.683 -0.5935  1.1959  0.5912
  754MOL0     H 4036   7.740   3.649   9.923  1.1189 -0.9321 -2.7281
  754MOL0     H 4037   7.837   3.679  10.141  0.0259 -0.6496 -0.1594
  754MOL0     H 4038   7.897   4.005  10.402  0.7703  0.7943 -2.0894
  754MOL0     H 4039   7.881   4.035  10.652  2.0077  1.1739 -0.1624
  754MOL0     H 4040   8.190   3.939  10.944 -1.2989 -0.9292 -0.4579
  754MOL0     H 4041   8.222   4.101  10.894  0.7351 -0.1117 -0.3160
  754MOL0     H 4042   7.972   4.050  11.054 -1.0886  2.0655  0.2223
  754MOL0     H 4043   8.044   4.202  10.989  1.3697  0.4705 -0.2518
  754MOL0     H 4044   8.147   4.020  11.219  1.2986  1.1570  1.5834
  754MOL0     H 4045   8.257   4.143  11.132  0.0130  0.1826  1.1381
  754MOL0     H 4046   8.150   4.206  11.353  1.4653 -0.2255 -0.8681
  754MOL0     H 4047   7.997   4.206  11.263  0.4033  1.1969  2.1072
  754MOL0     H 4048   8.202   4.570  11.158  1.8760 -1.1534  0.7783
  754MOL0     H 4049   8.277   3.940  10.710 -1.0974  0.6067  0.9164
  754MOL0     H 4050   8.395   3.971  10.404 -1.1998  0.6249 -0.4579
  754MOL0     H 4051   8.414   3.877  10.550 -0.6748 -2.8209  0.7287
  754MOL0     H 4052   8.341   3.802  10.408 -3.8336  1.5230 -1.8691
  755MOL0     O 4053  10.792   8.901   6.328 -0.5718  0.1918  0.1054
  755MOL0     C 4054  10.669   8.887   6.310  0.1897  0.6480 -0.0508
  755MOL0     O 4055  10.625   8.818   6.198  0.5825  0.6049 -0.2051
  755MOL0     C 4056  10.722   8.742   6.135  0.0391  0.1010 -0.1974
  755MOL0     C 4057  10.775   8.784   6.019 -0.5436 -1.0134 -0.0317
  755MOL0     C 4058  10.873   8.698   5.953 -0.0671  0.4616 -0.1898
  755MOL0     C 4059  10.913   8.574   6.001  0.0525  0.4131 -0.2005
  755MOL0     O 4060  10.998   8.487   5.939  0.2480  0.4172  0.6619
  755MOL0     C 4061  11.079   8.534   5.819  0.0503 -1.0839 -0.3241
  755MOL0     C 4062  11.205   8.447   5.788  0.8730  0.0346  0.1315
  755MOL0     C 4063  11.297   8.444   5.905  0.5550 -0.0114  0.9752
  755MOL0     C 4064  11.439   8.402   5.872 -0.1353 -0.7356 -0.2190
  755MOL0     C 4065  11.520   8.522   5.817  0.3500  0.7230 -0.2975
  755MOL0     C 4066  11.643   8.473   5.745 -0.0356  1.0593 -0.2410
  755MOL0     C 4067  11.747   8.422   5.844  0.4834 -0.5761  0.4193
  755MOL0     C 4068  11.865   8.369   5.759 -0.0251 -0.3556 -0.6103
  755MOL0     N 4069  11.973   8.317   5.841 -0.2644  0.4028 -0.2988
  755MOL0     C 4070  12.067   8.392   5.903  0.8011 -0.2277  0.4482
  755MOL0     C 4071  12.132   8.313   5.982  0.6175  0.2600 -0.1686
  755MOL0     C 4072  12.230   8.368   6.099  0.7930  0.0201  0.0429
  755MOL0     C 4073  12.319   8.253   6.158  0.0987  0.0307  1.5125
  755MOL0     C 4074  12.398   8.317   6.264  0.2371  0.6625  0.2800
  755MOL0     C 4075  12.481   8.226   6.359 -1.3334  0.3845 -0.6227
  755MOL0     O 4076  12.414   8.172   6.472  0.2217  0.3925 -0.0245
  755MOL0     C 4077  12.465   8.186   6.594 -0.6513 -0.8273  0.1051
  755MOL0     C 4078  12.599   8.158   6.634  0.2917  0.7008 -0.4855
  755MOL0     C 4079  12.645   8.163   6.768  1.0597  0.4176  0.2627
  755MOL0     C 4080  12.786   8.129   6.780 -0.1199 -0.1677  0.3678
  755MOL0     C 4081  12.552   8.192   6.869  0.6517 -0.2078  0.6825
  755MOL0     C 4082  12.592   8.217   7.016  0.1648  0.4678  0.2623
  755MOL0     O 4083  12.482   8.216   7.102  0.1321 -0.5147  0.3555
  755MOL0     C 4084  12.508   8.266   7.224 -0.0321  0.0939 -0.4014
  755MOL0     C 4085  12.543   8.404   7.237  0.1060  0.2627 -0.9509
  755MOL0     C 4086  12.548   8.459   7.368  0.2934  0.4249  0.2965
  755MOL0     C 4087  12.533   8.382   7.483 -0.2738 -0.2145 -0.3254
  755MOL0     O 4088  12.529   8.419   7.612 -0.4479  0.2724  0.0325
  755MOL0     C 4089  12.556   8.562   7.621 -0.4236 -0.5084 -0.9581
  755MOL0     C 4090  12.540   8.619   7.762 -0.0544 -1.0939 -0.3098
  755MOL0     C 4091  12.405   8.613   7.809  0.0496  0.2037  0.4079
  755MOL0     C 4092  12.374   8.636   7.951  0.5027 -0.5515  1.1740
  755MOL0     C 4093  12.397   8.524   8.044 -0.2957  0.0948 -0.6615
  755MOL0     C 4094  12.330   8.555   8.177 -0.0698 -0.6021  0.1193
  755MOL0     C 4095  12.389   8.463   8.282  0.4278 -0.5162 -0.0890
  755MOL0     C 4096  12.366   8.519   8.422 -0.2204  0.1018 -1.0964
  755MOL0    Cl 4097  12.442   8.409   8.541 -0.0894 -0.2538  0.1639
  755MOL0     C 4098  12.485   8.251   7.462 -0.1472 -0.2289  0.0297
  755MOL0     C 4099  12.480   8.189   7.339  0.3338  0.4133  0.3593
  755MOL0     O 4100  12.708   8.244   7.052  0.0870 -0.2820 -0.0304
  755MOL0     C 4101  12.420   8.212   6.828 -0.0900  0.0599  0.5310
  755MOL0     C 4102  12.373   8.213   6.694 -0.0975  0.4699 -0.6299
  755MOL0     N 4103  12.091   8.181   5.974 -0.2679 -0.3436  0.9092
  755MOL0     N 4104  11.992   8.187   5.886  0.4361  0.2292  0.4796
  755MOL0     C 4105  10.850   8.542   6.124 -0.7822  0.5710  0.5192
  755MOL0     C 4106  10.758   8.619   6.194 -0.0626  0.8239 -0.3930
  755MOL0     C 4107  10.576   8.970   6.390  0.0324  0.3766  0.9480
  755MOL0     C 4108  10.623   9.032   6.500 -0.1965 -0.0874 -0.5447
  755MOL0     C 4109  10.549   9.115   6.586  0.3766  0.5282  0.0431
  755MOL0     C 4110  10.416   9.125   6.561  0.5433 -0.1459 -0.7624
  755MOL0     O 4111  10.344   9.200   6.646  0.2933  0.5711  0.5159
  755MOL0     C 4112  10.284   9.135   6.760  0.4564  0.0388  0.2204
  755MOL0     C 4113  10.261   9.226   6.885 -0.5741 -0.4676  0.3426
  755MOL0     C 4114  10.399   9.258   6.931  0.6720 -0.0253  0.2046
  755MOL0     C 4115  10.392   9.322   7.074  0.4358  0.3606  1.1702
  755MOL0     C 4116  10.314   9.451   7.067 -0.1437 -0.4404  0.5590
  755MOL0     C 4117  10.268   9.559   7.057  0.3199 -1.0396  0.2114
  755MOL0     C 4118  10.367   9.075   6.446  0.7130  0.0438 -0.6669
  755MOL0     C 4119  10.437   8.993   6.354 -0.3228  0.4368  0.0041
  755MOL0     C 4120  10.369   8.953   6.226 -0.2431 -0.9459 -0.0446
  755MOL0     H 4121  10.738   8.883   5.993  0.4617 -0.5855  0.1211
  755MOL0     H 4122  10.888   8.721   5.848 -0.5887 -0.1813 -0.4120
  755MOL0     H 4123  11.110   8.638   5.837 -2.4907  0.2099 -2.5533
  755MOL0     H 4124  11.019   8.544   5.728 -1.6603 -0.9735  0.7652
  755MOL0     H 4125  11.168   8.353   5.746  2.9807 -0.6579 -0.3021
  755MOL0     H 4126  11.259   8.495   5.706  0.6012 -1.2300 -0.7978
  755MOL0     H 4127  11.282   8.532   5.968  0.4927 -0.8309  2.1392
  755MOL0     H 4128  11.250   8.368   5.969 -2.9714  1.3158  0.1935
  755MOL0     H 4129  11.469   8.365   5.971 -2.4755  2.0840  1.7243
  755MOL0     H 4130  11.450   8.307   5.820 -2.7001 -2.2304  1.6812
  755MOL0     H 4131  11.551   8.590   5.897 -1.6131  1.6610 -0.2802
  755MOL0     H 4132  11.456   8.578   5.749  1.2677 -0.5661 -2.3014
  755MOL0     H 4133  11.620   8.387   5.683  1.5938  0.0995  0.4038
  755MOL0     H 4134  11.672   8.559   5.683 -2.6696  3.5105  1.6602
  755MOL0     H 4135  11.712   8.341   5.909 -1.2212  1.2249  1.8774
  755MOL0     H 4136  11.790   8.501   5.906 -1.1382 -0.9404  2.0720
  755MOL0     H 4137  11.818   8.280   5.714  0.4917 -0.1059 -1.6731
  755MOL0     H 4138  11.902   8.437   5.682 -2.0366  0.0406 -1.2904
  755MOL0     H 4139  12.070   8.499   5.882  0.5274 -0.2834  0.1088
  755MOL0     H 4140  12.163   8.416   6.171  1.0943  2.3084 -1.1023
  755MOL0     H 4141  12.277   8.455   6.052 -1.0396 -0.8198 -3.7998
  755MOL0     H 4142  12.257   8.173   6.200  0.9497 -0.6095  1.5736
  755MOL0     H 4143  12.385   8.218   6.077 -2.6426 -4.4485  0.8296
  755MOL0     H 4144  12.475   8.379   6.215 -0.9390  0.8100 -1.4730
  755MOL0     H 4145  12.337   8.380   6.329  1.4454  1.7707  0.3878
  755MOL0     H 4146  12.524   8.140   6.306 -1.5820  0.3704 -0.8051
  755MOL0     H 4147  12.571   8.279   6.389  1.5626 -3.2623 -1.9835
  755MOL0     H 4148  12.654   8.113   6.553 -3.9934 -1.3004 -2.6350
  755MOL0     H 4149  12.790   8.020   6.786 -5.4473 -0.5860  1.1103
  755MOL0     H 4150  12.839   8.177   6.863 -2.4826 -1.7746  2.9786
  755MOL0     H 4151  12.838   8.156   6.687  0.1847 -0.0884  0.5601
  755MOL0     H 4152  12.567   8.464   7.150 -2.2351  3.9574  0.7072
  755MOL0     H 4153  12.584   8.561   7.367 -2.0459  1.4405 -3.8393
  755MOL0     H 4154  12.660   8.575   7.590 -0.0389 -2.8058 -0.7708
  755MOL0     H 4155  12.489   8.616   7.553  2.5583 -0.1256 -3.8849
  755MOL0     H 4156  12.611   8.564   7.825  2.3731 -0.7365 -2.5312
  755MOL0     H 4157  12.576   8.722   7.757 -1.0124 -0.8042 -2.5171
  755MOL0     H 4158  12.366   8.518   7.771  0.9837  0.1442 -0.4567
  755MOL0     H 4159  12.345   8.685   7.753  0.1475  0.2394  0.3496
  755MOL0     H 4160  12.277   8.686   7.954 -0.3574 -1.8015 -1.7144
  755MOL0     H 4161  12.439   8.720   7.977 -2.1948  2.3158 -0.6407
  755MOL0     H 4162  12.367   8.427   8.004 -0.0398 -2.1068  3.8113
  755MOL0     H 4163  12.506   8.523   8.059 -0.5727 -0.3695  1.7438
  755MOL0     H 4164  12.224   8.542   8.153  0.6090 -2.3660 -2.3400
  755MOL0     H 4165  12.356   8.660   8.193 -1.0036 -0.1471 -1.1456
  755MOL0     H 4166  12.495   8.453   8.254  0.3708 -4.0171  0.5399
  755MOL0     H 4167  12.355   8.362   8.258 -0.1952 -0.0948 -0.9991
  755MOL0     H 4168  12.258   8.512   8.440  0.0222  1.5709  1.2548
  755MOL0     H 4169  12.398   8.623   8.433 -1.3209  0.3091  0.3578
  755MOL0     H 4170  12.468   8.186   7.548 -2.7393 -2.6204 -2.0713
  755MOL0     H 4171  12.443   8.089   7.318 -1.2750  1.4483 -2.2815
  755MOL0     H 4172  12.336   8.226   6.896 -1.3149 -4.1860  0.1633
  755MOL0     H 4173  12.267   8.212   6.670 -0.2923  0.7630  0.1753
  755MOL0     H 4174  10.864   8.446   6.171 -0.7561  1.1777  1.7854
  755MOL0     H 4175  10.702   8.576   6.276 -1.7699  0.0400 -1.8882
  755MOL0     H 4176  10.723   9.009   6.535 -0.0320 -1.2715 -1.7243
  755MOL0     H 4177  10.602   9.150   6.674  3.2425 -3.6656  0.3143
  755MOL0     H 4178  10.185   9.103   6.726  0.6187 -3.2072  2.4181
  755MOL0     H 4179  10.336   9.044   6.791  3.5334  1.9129  0.9172
  755MOL0     H 4180  10.198   9.174   6.958 -1.7854  1.5212  0.7876
  755MOL0     H 4181  10.204   9.315   6.858  0.7031  0.3078  0.0866
  755MOL0     H 4182  10.454   9.164   6.935 -2.4649 -2.1205 -1.4927
  755MOL0     H 4183  10.454   9.317   6.856 -0.9870  0.8298 -0.4025
  755MOL0     H 4184  10.497   9.335   7.104  1.0946  2.2840 -1.6305
  755MOL0     H 4185  10.346   9.254   7.147 -1.4061  1.7525  1.3448
  755MOL0     H 4186  10.228   9.658   7.061 -0.3403 -1.2913  0.0184
  755MOL0     H 4187  10.267   9.106   6.416  0.8544  2.3578  0.9745
  755MOL0     H 4188  10.340   8.848   6.232  1.0656 -1.3699 -0.6146
  755MOL0     H 4189  10.281   9.016   6.213  1.0550  0.8913 -0.3463
  755MOL0     H 4190  10.443   8.955   6.146  1.3441  3.0715  1.2245
  756MOL0     O 4191   0.678   7.490   0.490  0.3145 -0.1524 -0.4957
  756MOL0     C 4192   0.721   7.458   0.602 -0.2737  0.4611  0.0001
  756MOL0     O 4193   0.652   7.485   0.718 -0.6897  0.5135 -0.4910
  756MOL0     C 4194   0.522   7.518   0.711  0.1505 -0.3143  0.7422
  756MOL0     C 4195   0.422   7.431   0.667 -0.8615 -0.8304  0.6909
  756MOL0     C 4196   0.289   7.470   0.657  0.3008  0.0282 -0.4680
  756MOL0     C 4197   0.254   7.596   0.710 -0.3419 -1.1905  1.1968
  756MOL0     O 4198   0.123   7.627   0.702  0.1904 -0.5066 -0.7725
  756MOL0     C 4199   0.082   7.755   0.742  0.5605 -0.1324  0.3057
  756MOL0     C 4200  -0.073   7.758   0.746  0.5453 -0.2523 -0.2269
  756MOL0     C 4201  -0.142   7.641   0.821  0.2577 -0.3383  0.0799
  756MOL0     C 4202  -0.093   7.645   0.974 -0.6324 -0.1365 -0.1715
  756MOL0     C 4203  -0.171   7.539   1.054 -0.2030 -0.5226 -0.2529
  756MOL0     C 4204  -0.154   7.562   1.205  0.0943 -0.0343 -0.4969
  756MOL0     C 4205  -0.224   7.447   1.293  0.4271 -0.2499  0.5784
  756MOL0     C 4206  -0.185   7.447   1.445 -0.0817 -0.6582 -0.0240
  756MOL0     N 4207  -0.245   7.339   1.526 -0.7196  0.2018 -0.0930
  756MOL0     C 4208  -0.381   7.325   1.536 -0.3835  0.3829  0.6548
  756MOL0     C 4209  -0.389   7.208   1.601  0.6911  0.0297  0.0328
  756MOL0     C 4210  -0.511   7.131   1.623  0.5256 -0.6412 -0.2699
  756MOL0     C 4211  -0.598   7.145   1.744 -0.3420  0.7638 -0.0770
  756MOL0     C 4212  -0.644   7.285   1.783 -0.4154 -0.5130  0.2746
  756MOL0     C 4213  -0.763   7.276   1.878 -0.0070 -0.0340  0.8093
  756MOL0     O 4214  -0.822   7.404   1.897 -0.8694  0.4961  0.0497
  756MOL0     C 4215  -0.937   7.436   1.825  0.5460  0.1607  0.5006
  756MOL0     C 4216  -1.011   7.542   1.876 -0.2519 -0.2849 -0.2142
  756MOL0     C 4217  -1.129   7.586   1.814  0.3394  0.0048 -0.0250
  756MOL0     C 4218  -1.195   7.707   1.883 -0.1725  0.0304 -0.7806
  756MOL0     C 4219  -1.172   7.528   1.689  0.6122  1.3014 -0.2015
  756MOL0     C 4220  -1.304   7.542   1.618 -0.2226 -0.1261 -0.0752
  756MOL0     O 4221  -1.363   7.434   1.553 -0.2497 -0.6399  0.0117
  756MOL0     C 4222  -1.488   7.454   1.499  0.1769 -0.7936 -0.7966
  756MOL0     C 4223  -1.499   7.504   1.370 -1.4587  0.1692 -0.9175
  756MOL0     C 4224  -1.625   7.536   1.318  1.0272 -0.2368 -0.7379
  756MOL0     C 4225  -1.743   7.505   1.394  0.0654  0.8466  0.7972
  756MOL0     O 4226  -1.865   7.543   1.340 -0.4953  0.6456  0.6488
  756MOL0     C 4227  -1.981   7.462   1.372 -0.3257 -0.9827  0.7163
  756MOL0     C 4228  -2.037   7.400   1.245 -0.9052 -0.5096 -0.5950
  756MOL0     C 4229  -2.128   7.490   1.168 -1.1689 -0.1818 -0.3777
  756MOL0     C 4230  -2.196   7.396   1.067  0.3004  0.5339 -0.5390
  756MOL0     C 4231  -2.310   7.465   0.991 -0.4856  0.6073 -0.2441
  756MOL0     C 4232  -2.278   7.496   0.844 -0.6878 -2.0025  0.1603
  756MOL0     C 4233  -2.175   7.610   0.809 -0.0957 -0.0465  0.1061
  756MOL0     C 4234  -2.164   7.638   0.662  0.1918  0.8903  0.4562
  756MOL0    Cl 4235  -2.325   7.717   0.612 -0.2009 -0.1277 -0.0280
  756MOL0     C 4236  -1.735   7.451   1.525  0.9208 -0.3263 -0.3997
  756MOL0     C 4237  -1.607   7.422   1.574 -0.1311  0.2450  0.7599
  756MOL0     O 4238  -1.352   7.656   1.615  0.7814 -0.2354 -0.0409
  756MOL0     C 4239  -1.091   7.416   1.640  0.2566  0.1923  0.5460
  756MOL0     C 4240  -0.970   7.376   1.700  0.5637 -0.8522  0.1877
  756MOL0     N 4241  -0.267   7.155   1.634  0.8550  0.0910  0.4655
  756MOL0     N 4242  -0.176   7.235   1.581  0.8118  0.2990 -0.2059
  756MOL0     C 4243   0.355   7.689   0.752  0.7223 -0.1649  0.2981
  756MOL0     C 4244   0.492   7.658   0.748  0.1462  0.9047 -0.2805
  756MOL0     C 4245   0.856   7.386   0.613  0.3251  0.2328 -0.1443
  756MOL0     C 4246   0.866   7.307   0.730  0.6656  0.1336  0.0346
  756MOL0     C 4247   0.973   7.212   0.745  1.2492 -0.4086  0.2577
  756MOL0     C 4248   1.056   7.185   0.634  0.9807  0.1529  0.1894
  756MOL0     O 4249   1.158   7.094   0.638  0.1432  0.7247  1.1025
  756MOL0     C 4250   1.275   7.126   0.715  0.6523  0.6679  0.1191
  756MOL0     C 4251   1.400   7.056   0.661 -0.3287  0.3162 -0.0557
  756MOL0     C 4252   1.516   7.150   0.618 -0.7626  0.1097  0.0292
  756MOL0     C 4253   1.634   7.057   0.561  0.2751 -0.4077 -0.1810
  756MOL0     C 4254   1.701   6.995   0.675 -0.6390  0.1118  0.7485
  756MOL0     C 4255   1.766   6.937   0.748  0.3582  0.2811 -0.9648
  756MOL0     C 4256   1.051   7.264   0.517  0.4836 -0.1147  0.1186
  756MOL0     C 4257   0.949   7.362   0.508 -0.3102  1.3955  0.5075
  756MOL0     C 4258   0.954   7.449   0.384 -0.9490 -0.3126  0.2872
  756MOL0     H 4259   0.440   7.329   0.635 -2.0740 -0.5667 -1.0344
  756MOL0     H 4260   0.206   7.405   0.634 -0.0460  0.4558 -0.4375
  756MOL0     H 4261   0.120   7.828   0.671 -3.0122  0.5852 -1.1010
  756MOL0     H 4262   0.125   7.770   0.842  1.5377 -1.2778  0.0831
  756MOL0     H 4263  -0.115   7.853   0.778  2.4244  1.1032 -1.5665
  756MOL0     H 4264  -0.095   7.756   0.639  2.2984  0.1833 -0.6272
  756MOL0     H 4265  -0.247   7.670   0.813  0.5406  0.3003 -1.7946
  756MOL0     H 4266  -0.134   7.545   0.769  3.5320  0.5157 -1.2799
  756MOL0     H 4267   0.011   7.617   0.992 -0.3814  0.7687 -0.1532
  756MOL0     H 4268  -0.095   7.747   1.014 -2.1051 -0.1957 -0.0538
  756MOL0     H 4269  -0.140   7.436   1.036  1.2543  0.1102 -1.5446
  756MOL0     H 4270  -0.276   7.559   1.030  0.6633  1.2589 -2.9940
  756MOL0     H 4271  -0.052   7.570   1.246 -0.4833  1.2204  0.7813
  756MOL0     H 4272  -0.191   7.661   1.230  1.7026  0.8459 -1.4380
  756MOL0     H 4273  -0.194   7.349   1.257 -0.6118 -1.5608  3.0298
  756MOL0     H 4274  -0.332   7.460   1.280  0.4529 -0.0768  0.5233
  756MOL0     H 4275  -0.076   7.436   1.444  0.1239  0.4467 -3.8152
  756MOL0     H 4276  -0.210   7.548   1.482  0.1367 -0.6894  0.2185
  756MOL0     H 4277  -0.446   7.399   1.492 -0.7812 -0.5097 -0.2905
  756MOL0     H 4278  -0.482   7.026   1.615 -1.1833 -0.9990 -3.0159
  756MOL0     H 4279  -0.586   7.156   1.548 -0.5298  1.0390  1.2374
  756MOL0     H 4280  -0.691   7.092   1.720 -0.0729 -0.2795  1.0930
  756MOL0     H 4281  -0.547   7.105   1.832  0.1367 -0.6352 -0.9586
  756MOL0     H 4282  -0.565   7.339   1.836 -2.2635  1.9480  0.6527
  756MOL0     H 4283  -0.664   7.346   1.695 -2.8992 -0.2212  0.9783
  756MOL0     H 4284  -0.834   7.200   1.843 -0.0251  0.5949 -0.5967
  756MOL0     H 4285  -0.724   7.235   1.971  2.8512 -0.7257 -0.5944
  756MOL0     H 4286  -0.967   7.578   1.968 -1.1718 -2.2573  1.0708
  756MOL0     H 4287  -1.298   7.701   1.919  0.2146  2.0403  0.8334
  756MOL0     H 4288  -1.179   7.789   1.814  2.6226  0.4928  0.2728
  756MOL0     H 4289  -1.147   7.730   1.979  0.7325  0.4395 -1.3243
  756MOL0     H 4290  -1.412   7.519   1.307 -0.8053  1.9007  0.3437
  756MOL0     H 4291  -1.652   7.568   1.217 -0.6484 -0.8213 -0.5198
  756MOL0     H 4292  -1.968   7.386   1.450 -0.0306 -1.0560  0.5997
  756MOL0     H 4293  -2.060   7.532   1.398  1.6222  1.7844 -0.3927
  756MOL0     H 4294  -1.952   7.369   1.184 -1.1619 -1.6185 -0.4169
  756MOL0     H 4295  -2.080   7.306   1.283  0.7236 -0.5225  1.3817
  756MOL0     H 4296  -2.065   7.566   1.121 -0.2342 -0.4546  0.4046
  756MOL0     H 4297  -2.203   7.536   1.233  1.2954  0.3834  2.3064
  756MOL0     H 4298  -2.232   7.312   1.128  3.2401 -1.9890 -2.0032
  756MOL0     H 4299  -2.124   7.348   1.000  1.0467  1.0734 -0.1559
  756MOL0     H 4300  -2.393   7.394   0.997  0.2854 -0.6556 -3.1098
  756MOL0     H 4301  -2.338   7.555   1.047  1.3367  0.2482  1.3605
  756MOL0     H 4302  -2.371   7.533   0.801  0.0667 -0.4597 -0.2180
  756MOL0     H 4303  -2.254   7.403   0.790  0.6699 -1.1350 -0.8066
  756MOL0     H 4304  -2.078   7.571   0.840  0.7977  0.7672 -1.5051
  756MOL0     H 4305  -2.198   7.700   0.867 -1.0018 -0.0772 -0.1949
  756MOL0     H 4306  -2.142   7.549   0.604 -2.0744  0.5242  0.0482
  756MOL0     H 4307  -2.091   7.717   0.641 -1.7352  2.4274 -0.8153
  756MOL0     H 4308  -1.822   7.445   1.590  2.3671  1.9217  1.9325
  756MOL0     H 4309  -1.580   7.357   1.657  2.3205  2.3858  1.7879
  756MOL0     H 4310  -1.122   7.366   1.549  1.7993 -1.4540  0.8722
  756MOL0     H 4311  -0.907   7.296   1.661  0.9093 -0.0358 -0.9874
  756MOL0     H 4312   0.336   7.791   0.781 -2.6449 -1.3462  2.8793
  756MOL0     H 4313   0.567   7.718   0.797 -1.2027 -0.1387  3.4315
  756MOL0     H 4314   0.782   7.308   0.799  1.0112  1.1427  0.4523
  756MOL0     H 4315   0.991   7.152   0.834  3.7994  1.4566  1.1311
  756MOL0     H 4316   1.291   7.234   0.717 -0.2915  0.8298 -0.3724
  756MOL0     H 4317   1.271   7.095   0.820  1.9430  0.6487  0.1748
  756MOL0     H 4318   1.368   6.992   0.578 -2.8197  0.1521  0.9548
  756MOL0     H 4319   1.425   6.992   0.746 -1.3166 -0.1652 -0.1113
  756MOL0     H 4320   1.472   7.208   0.536 -0.2673  0.1894 -0.1890
  756MOL0     H 4321   1.544   7.226   0.692 -1.2361 -1.8554  2.3461
  756MOL0     H 4322   1.705   7.124   0.513 -1.5487  0.8688 -1.2473
  756MOL0     H 4323   1.600   6.990   0.481  0.8364 -1.4578  0.4397
  756MOL0     H 4324   1.831   6.873   0.805 -0.8966 -1.8145 -1.7675
  756MOL0     H 4325   1.113   7.238   0.432 -0.2599  0.5769 -0.6589
  756MOL0     H 4326   0.949   7.556   0.406 -2.7790  0.7512 -4.1847
  756MOL0     H 4327   1.045   7.440   0.324 -0.9198 -4.0703  0.6906
  756MOL0     H 4328   0.881   7.422   0.307 -1.5353 -0.4993  0.8968
  757MOL0     O 4329   7.841   1.490   5.186  0.9986  0.6217 -0.5377
  757MOL0     C 4330   7.763   1.456   5.276  0.0773 -0.5523  0.0268
  757MOL0     O 4331   7.697   1.336   5.272  0.0789 -1.0261 -0.0889
  757MOL0     C 4332   7.719   1.250   5.166  0.3548  0.7992 -1.0020
  757MOL0     C 4333   7.792   1.133   5.184 -0.9384  0.4859  0.0813
  757MOL0     C 4334   7.797   1.035   5.078  0.2413  1.4064 -0.3159
  757MOL0     C 4335   7.720   1.057   4.959  0.3626  0.6904 -0.5707
  757MOL0     O 4336   7.717   0.965   4.858  0.1032 -1.2977  0.1205
  757MOL0     C 4337   7.773   0.833   4.878  0.8090 -0.6753  0.0969
  757MOL0     C 4338   7.765   0.739   4.758  0.3820 -0.6916  0.9136
  757MOL0     C 4339   7.865   0.790   4.647  0.1955  0.0179 -0.5444
  757MOL0     C 4340   7.831   0.697   4.527  0.2965 -0.8557  0.1082
  757MOL0     C 4341   7.899   0.741   4.402 -0.2603  0.4297  0.0253
  757MOL0     C 4342   7.861   0.885   4.352 -0.3698  0.5258 -0.6840
  757MOL0     C 4343   7.884   0.907   4.205 -0.4612  0.0489 -0.3462
  757MOL0     C 4344   8.034   0.903   4.160  0.5898 -0.3856  0.3344
  757MOL0     N 4345   8.036   0.901   4.016  0.4617 -0.0174  1.0852
  757MOL0     C 4346   8.056   1.012   3.928  0.5886  0.2048  0.2317
  757MOL0     C 4347   8.054   0.954   3.810 -0.3456  0.2405  0.2014
  757MOL0     C 4348   8.066   1.019   3.670 -0.8155 -0.4610  0.1628
  757MOL0     C 4349   7.934   1.058   3.598  0.4598  1.8457  0.8482
  757MOL0     C 4350   7.825   1.107   3.685  0.3276  0.8518  0.3300
  757MOL0     C 4351   7.713   1.175   3.600 -0.1403  1.1350 -0.3048
  757MOL0     O 4352   7.666   1.084   3.497 -0.6202  0.1951  0.4168
  757MOL0     C 4353   7.551   1.119   3.431 -1.0148  0.5145 -1.1774
  757MOL0     C 4354   7.443   1.181   3.495  0.5862  0.2322  0.9040
  757MOL0     C 4355   7.329   1.204   3.414 -0.0305  0.0227  0.1957
  757MOL0     C 4356   7.218   1.257   3.494 -0.1213 -0.4483 -0.3837
  757MOL0     C 4357   7.324   1.175   3.280  0.5612 -0.2451 -0.7648
  757MOL0     C 4358   7.205   1.202   3.204 -0.5640 -0.7759  0.3263
  757MOL0     O 4359   7.194   1.127   3.091  0.2829  0.7340 -0.5214
  757MOL0     C 4360   7.073   1.133   3.030 -0.5034 -1.0716  1.3343
  757MOL0     C 4361   6.953   1.090   3.094  0.4622  0.1770  0.5289
  757MOL0     C 4362   6.834   1.108   3.023  0.0244  0.2554 -0.3351
  757MOL0     C 4363   6.825   1.179   2.907 -0.2513 -0.7840  1.1199
  757MOL0     O 4364   6.706   1.214   2.836 -0.5909  0.1402 -0.4826
  757MOL0     C 4365   6.577   1.214   2.911  0.3096 -0.0752 -0.1347
  757MOL0     C 4366   6.573   1.327   3.019 -0.5016  0.0490 -0.6600
  757MOL0     C 4367   6.448   1.285   3.105 -0.7528 -0.2097  0.3182
  757MOL0     C 4368   6.312   1.306   3.032  0.8390 -0.4298  0.8269
  757MOL0     C 4369   6.272   1.447   3.002 -0.7418  0.6445 -0.2383
  757MOL0     C 4370   6.134   1.451   2.939 -0.8880  0.8712 -0.6346
  757MOL0     C 4371   6.079   1.584   2.928  0.1422 -0.0741  0.6388
  757MOL0     C 4372   5.958   1.599   2.838 -0.6522 -0.2263 -1.1292
  757MOL0    Cl 4373   5.980   1.565   2.663 -0.2054 -0.4912  0.5765
  757MOL0     C 4374   6.943   1.213   2.847  0.1107  0.5148  0.1154
  757MOL0     C 4375   7.065   1.177   2.898 -0.6995 -0.2889  0.0253
  757MOL0     O 4376   7.136   1.302   3.236  0.5588  0.3268  0.3808
  757MOL0     C 4377   7.440   1.131   3.222  0.7488  0.4958  0.7416
  757MOL0     C 4378   7.550   1.096   3.294  0.1650 -0.6297  0.0992
  757MOL0     N 4379   8.042   0.815   3.827  0.2987  0.1284  0.1477
  757MOL0     N 4380   8.019   0.784   3.945 -0.2748  0.5555 -0.6036
  757MOL0     C 4381   7.653   1.175   4.940  0.0706  0.5309 -0.2829
  757MOL0     C 4382   7.648   1.269   5.043  0.3941 -0.0801 -0.4369
  757MOL0     C 4383   7.733   1.551   5.385  0.9687 -0.1798  0.1738
  757MOL0     C 4384   7.598   1.579   5.414 -1.0036  0.1759 -0.4329
  757MOL0     C 4385   7.563   1.650   5.535 -0.6657 -0.6058 -0.4328
  757MOL0     C 4386   7.667   1.714   5.611  0.5671  0.2094  0.3057
  757MOL0     O 4387   7.652   1.798   5.715  0.0134 -1.1514  0.6254
  757MOL0     C 4388   7.523   1.827   5.769 -0.2657  0.1407  0.5958
  757MOL0     C 4389   7.458   1.941   5.693 -0.3548 -0.1293  0.2382
  757MOL0     C 4390   7.331   1.901   5.623  0.8654  0.2195  0.0580
  757MOL0     C 4391   7.263   2.022   5.548  0.3130 -0.6448 -0.1603
  757MOL0     C 4392   7.237   2.139   5.628  0.1122 -0.1716 -0.3131
  757MOL0     C 4393   7.218   2.231   5.704  0.0744 -0.0126 -0.2095
  757MOL0     C 4394   7.798   1.688   5.568 -0.0747 -0.0990  0.7199
  757MOL0     C 4395   7.833   1.607   5.458  0.0868  0.0945  0.2294
  757MOL0     C 4396   7.979   1.591   5.427  0.2304 -0.1006  0.0993
  757MOL0     H 4397   7.849   1.139   5.277 -2.3417  2.3588  0.8876
  757MOL0     H 4398   7.845   0.939   5.092 -0.9494  0.7596 -0.4909
  757MOL0     H 4399   7.733   0.767   4.956  2.1831 -1.7051 -0.0212
  757MOL0     H 4400   7.879   0.850   4.901  0.4179 -0.1872  1.6443
  757MOL0     H 4401   7.793   0.639   4.793  1.1528 -0.2526  1.5879
  757MOL0     H 4402   7.664   0.742   4.715  0.8408 -0.7429 -0.1903
  757MOL0     H 4403   7.831   0.890   4.617 -0.1096  0.0469 -0.0956
  757MOL0     H 4404   7.965   0.798   4.691 -1.3121 -2.8470  4.0784
  757MOL0     H 4405   7.843   0.594   4.563 -0.5681 -0.5486  1.3683
  757MOL0     H 4406   7.725   0.707   4.505  0.2350 -3.0631 -0.8739
  757MOL0     H 4407   7.870   0.676   4.320  0.8775  1.7689 -1.5067
  757MOL0     H 4408   8.006   0.734   4.424 -0.5048  0.3691  1.2454
  757MOL0     H 4409   7.758   0.902   4.386 -0.1553 -2.7665  2.1397
  757MOL0     H 4410   7.925   0.956   4.404 -0.3088 -0.1578  0.2145
  757MOL0     H 4411   7.842   1.007   4.189 -0.0995  0.1034 -0.9814
  757MOL0     H 4412   7.818   0.845   4.144 -0.9898 -1.1416  1.3508
  757MOL0     H 4413   8.073   0.997   4.200 -2.0066  0.8880  0.1040
  757MOL0     H 4414   8.084   0.818   4.208 -3.4003 -2.2094  1.7171
  757MOL0     H 4415   8.072   1.116   3.953  0.6665  0.4579 -0.8518
  757MOL0     H 4416   8.117   0.943   3.608  0.3222  0.5526 -0.1882
  757MOL0     H 4417   8.128   1.109   3.675  0.0411 -0.9534 -0.9557
  757MOL0     H 4418   7.965   1.132   3.523  0.8026 -1.8803 -3.0214
  757MOL0     H 4419   7.897   0.980   3.530  0.8562  1.3698  1.1776
  757MOL0     H 4420   7.776   1.022   3.734 -0.6403  0.0533 -1.8852
  757MOL0     H 4421   7.870   1.169   3.763  1.3470 -0.4872  0.8487
  757MOL0     H 4422   7.631   1.212   3.663 -1.0811  0.1131 -0.8770
  757MOL0     H 4423   7.751   1.261   3.546 -1.6143  1.4979 -0.8088
  757MOL0     H 4424   7.439   1.196   3.602  1.5402 -3.7202  1.6715
  757MOL0     H 4425   7.128   1.198   3.473 -1.1730  1.1514 -0.6560
  757MOL0     H 4426   7.204   1.363   3.470  1.4819 -0.3964 -1.2467
  757MOL0     H 4427   7.220   1.248   3.603 -3.9787 -3.0963 -0.3064
  757MOL0     H 4428   6.955   1.047   3.194  1.3673  0.2900  0.5706
  757MOL0     H 4429   6.739   1.071   3.060 -1.0334  1.5052 -1.6724
  757MOL0     H 4430   6.497   1.226   2.838 -2.3468  1.1396  2.7629
  757MOL0     H 4431   6.564   1.115   2.955  2.1383 -0.0029  0.6587
  757MOL0     H 4432   6.657   1.303   3.084 -2.0671 -0.9462  1.0973
  757MOL0     H 4433   6.563   1.427   2.975 -0.2082  0.0694 -0.6781
  757MOL0     H 4434   6.443   1.347   3.195  0.0802  0.3175  0.0128
  757MOL0     H 4435   6.473   1.182   3.132 -0.6430 -0.6685 -1.4154
  757MOL0     H 4436   6.232   1.264   3.093  1.6328  0.7281  2.7408
  757MOL0     H 4437   6.310   1.251   2.937  3.0477  2.1379 -0.8781
  757MOL0     H 4438   6.289   1.501   3.095  1.3171 -3.2378  1.8955
  757MOL0     H 4439   6.347   1.491   2.936 -0.4281 -1.4138 -1.3339
  757MOL0     H 4440   6.066   1.380   2.986  0.2415 -0.5406 -1.0345
  757MOL0     H 4441   6.157   1.402   2.843  3.0558  1.7373 -0.2872
  757MOL0     H 4442   6.154   1.653   2.888  3.8969 -3.3247  1.4554
  757MOL0     H 4443   6.045   1.608   3.029  1.1426 -2.3351  1.6020
  757MOL0     H 4444   5.914   1.698   2.852 -2.0907 -0.6890 -2.2122
  757MOL0     H 4445   5.885   1.526   2.873 -0.3946  0.2704  0.5837
  757MOL0     H 4446   6.933   1.265   2.752  0.9160  2.2053  0.9118
  757MOL0     H 4447   7.146   1.201   2.830 -0.6837 -0.6687 -0.0921
  757MOL0     H 4448   7.452   1.115   3.115 -1.8695  1.0537  0.2850
  757MOL0     H 4449   7.647   1.075   3.248  0.9343  1.1025  0.8263
  757MOL0     H 4450   7.589   1.186   4.854  1.0302 -0.1753 -1.1075
  757MOL0     H 4451   7.581   1.354   5.037 -0.2491 -0.4329  1.2173
  757MOL0     H 4452   7.514   1.537   5.359 -1.2430  2.2428 -1.7751
  757MOL0     H 4453   7.460   1.648   5.569 -0.0539  1.8324  1.9303
  757MOL0     H 4454   7.455   1.742   5.756  0.9845 -0.4587 -3.2448
  757MOL0     H 4455   7.511   1.856   5.874 -1.6946  1.6259  0.0872
  757MOL0     H 4456   7.527   1.954   5.609  1.0028 -2.0340  0.9912
  757MOL0     H 4457   7.446   2.030   5.756 -0.0326  0.2998 -0.2965
  757MOL0     H 4458   7.343   1.816   5.556  0.5995 -1.3643  1.9153
  757MOL0     H 4459   7.262   1.866   5.700 -0.7035  1.2842 -0.8282
  757MOL0     H 4460   7.164   2.002   5.505 -1.1813 -1.3225  3.2869
  757MOL0     H 4461   7.332   2.043   5.465  0.9288  3.3194  1.1711
  757MOL0     H 4462   7.187   2.316   5.760 -0.1096  1.7419 -2.7910
  757MOL0     H 4463   7.876   1.740   5.622 -2.3622  4.2972  0.2626
  757MOL0     H 4464   8.016   1.683   5.380  0.0535  0.6944  1.4738
  757MOL0     H 4465   8.025   1.583   5.526 -1.0851 -2.2721  0.5984
  757MOL0     H 4466   8.007   1.499   5.376  3.2532 -1.0332  3.0761
  758MOL0     O 4467   5.100   0.764  10.219 -0.1926  0.8520 -0.1641
  758MOL0     C 4468   5.036   0.680  10.143 -0.4153 -0.9298 -0.2651
  758MOL0     O 4469   4.914   0.710  10.084  0.2840 -0.2286  1.1863
  758MOL0     C 4470   4.840   0.813  10.144 -0.7099  0.4918  0.0321
  758MOL0     C 4471   4.816   0.924  10.071  0.1111 -0.1229  0.2630
  758MOL0     C 4472   4.715   1.010  10.120 -0.7618 -0.0241 -0.0581
  758MOL0     C 4473   4.639   0.981  10.231  0.1411  0.2220 -0.0004
  758MOL0     O 4474   4.542   1.062  10.272  0.1222 -0.0004  0.6115
  758MOL0     C 4475   4.575   1.134  10.388 -0.9920 -0.1239 -0.4387
  758MOL0     C 4476   4.443   1.193  10.435 -0.6917 -0.5097  0.9854
  758MOL0     C 4477   4.383   1.294  10.334  0.7071  0.8843 -0.2805
  758MOL0     C 4478   4.236   1.330  10.382 -0.7077  0.2535 -0.9667
  758MOL0     C 4479   4.205   1.457  10.305 -0.9192 -0.6277  0.3701
  758MOL0     C 4480   4.062   1.510  10.325 -0.5014 -0.7380  0.2662
  758MOL0     C 4481   3.946   1.457  10.240  0.2907  0.0105 -0.2321
  758MOL0     C 4482   3.800   1.507  10.279 -0.0179  0.6917  0.4118
  758MOL0     N 4483   3.778   1.652  10.246  0.1785  0.8389 -0.4427
  758MOL0     C 4484   3.764   1.707  10.123 -1.2243 -0.5138  0.4504
  758MOL0     C 4485   3.744   1.839  10.142  0.6584  0.3663 -0.3843
  758MOL0     C 4486   3.758   1.948  10.038 -0.0479 -0.2953 -1.0299
  758MOL0     C 4487   3.616   2.007   9.992 -0.0663 -0.0257 -0.1172
  758MOL0     C 4488   3.638   2.109   9.874 -0.3309 -0.4732 -0.0421
  758MOL0     C 4489   3.499   2.147   9.830  0.1356 -0.4943  0.3228
  758MOL0     O 4490   3.504   2.238   9.719  0.0669 -1.0879  0.3204
  758MOL0     C 4491   3.524   2.193   9.589 -0.9393 -0.1566  0.5810
  758MOL0     C 4492   3.527   2.290   9.496 -0.4287 -1.2061 -0.7873
  758MOL0     C 4493   3.529   2.255   9.359 -0.1901  0.2817  0.0061
  758MOL0     C 4494   3.485   2.372   9.263  0.3056  0.5454 -0.1994
  758MOL0     C 4495   3.562   2.125   9.306 -0.0618  0.9727  0.2916
  758MOL0     C 4496   3.583   2.093   9.161 -0.9174  0.7751 -1.0961
  758MOL0     O 4497   3.590   1.958   9.137  0.0231  0.9252 -0.2313
  758MOL0     C 4498   3.593   1.918   9.005 -0.0503 -0.8139  0.2015
  758MOL0     C 4499   3.712   1.876   8.952 -0.5207 -0.1173 -0.3026
  758MOL0     C 4500   3.717   1.840   8.820 -0.3565 -0.0009  0.4246
  758MOL0     C 4501   3.602   1.819   8.747 -0.7064 -0.8161 -0.8629
  758MOL0     O 4502   3.618   1.755   8.619 -0.2042 -0.1816  0.2908
  758MOL0     C 4503   3.662   1.616   8.625  0.0978 -0.8613 -0.0330
  758MOL0     C 4504   3.617   1.552   8.496  0.0313  0.6622  0.9207
  758MOL0     C 4505   3.662   1.404   8.480  0.2865 -0.1793  0.7033
  758MOL0     C 4506   3.599   1.320   8.591  0.5064  0.1655  0.2677
  758MOL0     C 4507   3.641   1.170   8.569  0.2316 -0.4824  0.3001
  758MOL0     C 4508   3.562   1.110   8.453 -0.5802 -0.1236 -0.2129
  758MOL0     C 4509   3.574   0.951   8.434  0.4287  0.3627  0.8664
  758MOL0     C 4510   3.708   0.897   8.378 -0.1560 -0.3953  0.5217
  758MOL0    Cl 4511   3.818   1.012   8.282 -0.0268 -0.1323 -0.1583
  758MOL0     C 4512   3.480   1.850   8.802 -0.0122  0.8117 -0.4882
  758MOL0     C 4513   3.477   1.897   8.932  0.1544 -0.3999  0.8005
  758MOL0     O 4514   3.599   2.179   9.084  0.1650 -0.0971  0.3346
  758MOL0     C 4515   3.571   2.029   9.409  0.3567  0.1849 -0.0207
  758MOL0     C 4516   3.552   2.062   9.546 -0.1813  0.1552  0.2643
  758MOL0     N 4517   3.716   1.863  10.278  0.0567 -0.0647 -0.1762
  758MOL0     N 4518   3.729   1.747  10.334  0.7989  0.3172  0.0277
  758MOL0     C 4519   4.674   0.869  10.311 -0.5135  0.4776 -0.4120
  758MOL0     C 4520   4.775   0.789  10.270  0.2341 -0.8255 -0.3254
  758MOL0     C 4521   5.097   0.552  10.116  0.0489 -0.0068  0.3159
  758MOL0     C 4522   5.005   0.455  10.070 -0.3152  1.2139  0.4992
  758MOL0     C 4523   5.050   0.331  10.051 -1.2897 -0.4291  1.6153
  758MOL0     C 4524   5.186   0.295  10.070 -0.5592 -0.1054 -0.2428
  758MOL0     O 4525   5.222   0.172  10.042  0.8177 -0.0303 -0.0954
  758MOL0     C 4526   5.361   0.132  10.046  0.3803 -0.7535 -0.7177
  758MOL0     C 4527   5.400   0.104  10.187 -0.6407 -0.7746 -0.7639
  758MOL0     C 4528   5.535   0.028  10.195  0.4191 -0.1418 -0.2711
  758MOL0     C 4529   5.548  -0.034  10.332 -0.0409  0.0269  0.4061
  758MOL0     C 4530   5.447  -0.138  10.368  0.2805  0.4044 -0.1531
  758MOL0     C 4531   5.364  -0.223  10.379 -0.0473 -0.9038  0.5529
  758MOL0     C 4532   5.282   0.404  10.095  0.5899 -0.0515  0.0919
  758MOL0     C 4533   5.237   0.530  10.123  0.7153  0.2640  0.1491
  758MOL0     C 4534   5.333   0.640  10.150 -1.2153  0.6230 -0.6377
  758MOL0     H 4535   4.873   0.949   9.983 -1.5480  0.5337 -0.6741
  758MOL0     H 4536   4.686   1.085  10.047 -1.5414 -0.4232 -0.1664
  758MOL0     H 4537   4.642   1.216  10.357  0.3157 -0.7080  0.7503
  758MOL0     H 4538   4.632   1.080  10.464 -0.4944  0.9418 -0.0252
  758MOL0     H 4539   4.376   1.108  10.448 -0.9864 -0.4849 -0.2382
  758MOL0     H 4540   4.460   1.239  10.532  2.7443 -0.3468  0.4314
  758MOL0     H 4541   4.446   1.383  10.328 -0.2395  1.8519  2.4156
  758MOL0     H 4542   4.371   1.266  10.229  3.4431 -0.0808 -0.4074
  758MOL0     H 4543   4.181   1.239  10.357  0.3693 -0.4131 -0.9505
  758MOL0     H 4544   4.231   1.343  10.490  0.0975  0.4261 -0.9457
  758MOL0     H 4545   4.217   1.431  10.199 -1.6904  0.6619 -0.0542
  758MOL0     H 4546   4.268   1.537  10.344 -2.9574  1.1063  0.2436
  758MOL0     H 4547   4.031   1.492  10.429  0.9104 -1.2146  0.6307
  758MOL0     H 4548   4.080   1.617  10.316  3.0519 -1.2108  0.4958
  758MOL0     H 4549   3.956   1.352  10.266  1.8559  0.3347  0.6687
  758MOL0     H 4550   3.963   1.477  10.134  1.2545 -0.4488 -0.1776
  758MOL0     H 4551   3.721   1.440  10.243 -0.0119 -0.5903  2.6228
  758MOL0     H 4552   3.793   1.492  10.387 -0.6450 -0.8522  0.1839
  758MOL0     H 4553   3.786   1.656  10.030 -3.2402 -3.1709  1.2837
  758MOL0     H 4554   3.815   1.931   9.946 -1.5447  3.3449 -2.8394
  758MOL0     H 4555   3.813   2.029  10.088  3.2689 -2.9611  0.0347
  758MOL0     H 4556   3.551   1.926   9.957  1.0771 -0.5538 -1.1292
  758MOL0     H 4557   3.569   2.050  10.080 -2.3632 -0.8819 -0.8627
  758MOL0     H 4558   3.704   2.191   9.904  1.4714 -1.0456 -2.1794
  758MOL0     H 4559   3.681   2.056   9.789 -3.7919 -2.9554 -0.4335
  758MOL0     H 4560   3.448   2.053   9.808 -0.5957  0.0078 -0.1743
  758MOL0     H 4561   3.453   2.199   9.914 -0.0856  1.0860 -0.7266
  758MOL0     H 4562   3.514   2.386   9.544  0.3295 -1.1943 -0.5922
  758MOL0     H 4563   3.439   2.453   9.320 -0.8941 -0.8144  0.8394
  758MOL0     H 4564   3.405   2.326   9.204  3.2001 -0.9311 -3.3105
  758MOL0     H 4565   3.570   2.410   9.205  0.1235  2.4988  0.7383
  758MOL0     H 4566   3.802   1.866   9.011  0.2555 -1.5676 -1.6438
  758MOL0     H 4567   3.805   1.804   8.768 -3.4554 -3.7201 -2.8719
  758MOL0     H 4568   3.772   1.618   8.618  0.1461 -1.1217  0.6630
  758MOL0     H 4569   3.642   1.568   8.721  0.5119  0.6415  0.8467
  758MOL0     H 4570   3.509   1.561   8.490 -0.0411 -0.9296 -1.3890
  758MOL0     H 4571   3.660   1.610   8.414 -3.8817  1.6033 -0.6943
  758MOL0     H 4572   3.771   1.399   8.483  0.2533 -0.5942  1.9591
  758MOL0     H 4573   3.627   1.361   8.386  0.3572  1.2673 -0.0096
  758MOL0     H 4574   3.491   1.336   8.600  0.5956  0.6278  0.5830
  758MOL0     H 4575   3.636   1.355   8.688  1.6169 -0.6577  0.1483
  758MOL0     H 4576   3.750   1.175   8.560  0.0618  2.6249 -1.5400
  758MOL0     H 4577   3.614   1.119   8.662  1.4075  2.2519  2.3058
  758MOL0     H 4578   3.593   1.159   8.361  1.6909  0.9232  1.0291
  758MOL0     H 4579   3.458   1.139   8.468 -0.6123  0.7110 -1.8231
  758MOL0     H 4580   3.488   0.925   8.372 -0.5841  1.5453  1.7275
  758MOL0     H 4581   3.556   0.904   8.531  0.2583 -2.5483 -0.4569
  758MOL0     H 4582   3.691   0.804   8.324  0.9472 -1.5203  2.0033
  758MOL0     H 4583   3.770   0.869   8.464  0.9363 -2.7591 -0.9581
  758MOL0     H 4584   3.398   1.828   8.735 -0.6527  0.4770  0.4042
  758MOL0     H 4585   3.384   1.915   8.985  0.2947  2.6430  0.2241
  758MOL0     H 4586   3.614   1.934   9.380  5.4340  1.7985  1.1234
  758MOL0     H 4587   3.574   1.983   9.617 -1.6619  1.8018  2.7108
  758MOL0     H 4588   4.618   0.843  10.400 -0.4689  0.7079 -0.3159
  758MOL0     H 4589   4.796   0.693  10.315 -0.0668 -1.1204 -0.7997
  758MOL0     H 4590   4.898   0.463  10.055 -0.7202 -1.2774  1.5009
  758MOL0     H 4591   4.973   0.268  10.007  0.3230  0.6889 -3.4875
  758MOL0     H 4592   5.381   0.034  10.001  1.7903 -2.0786  2.4822
  758MOL0     H 4593   5.427   0.201   9.992  1.3897  0.0440  1.4198
  758MOL0     H 4594   5.319   0.059  10.244  0.4939 -1.0624  0.6747
  758MOL0     H 4595   5.419   0.198  10.241 -0.5264 -1.0513 -0.3160
  758MOL0     H 4596   5.543  -0.048  10.117  0.6641 -0.8462  0.4216
  758MOL0     H 4597   5.619   0.097  10.183  0.9558 -0.0244  3.1510
  758MOL0     H 4598   5.539   0.049  10.402  0.7419  1.5298 -1.1786
  758MOL0     H 4599   5.642  -0.085  10.356 -2.1356 -3.0904  2.6422
  758MOL0     H 4600   5.285  -0.295  10.387 -0.3552 -0.3917  3.9738
  758MOL0     H 4601   5.387   0.379  10.082 -0.2434 -2.8694 -2.5015
  758MOL0     H 4602   5.337   0.668  10.256  0.5869  1.4036 -0.8851
  758MOL0     H 4603   5.434   0.619  10.115 -0.8875  1.0375  0.0383
  758MOL0     H 4604   5.302   0.735  10.104 -1.3470  2.9793  3.7761
  759MOL0     O 4605   5.983   1.940   6.591 -0.0075 -0.3669  0.4992
  759MOL0     C 4606   5.974   1.959   6.471  0.4744  0.8724  0.3398
  759MOL0     O 4607   5.880   2.034   6.407  0.0509  0.3245  0.0293
  759MOL0     C 4608   5.787   2.100   6.475 -0.1688 -0.3276  0.9853
  759MOL0     C 4609   5.704   2.047   6.586  0.5696 -0.1272 -0.2783
  759MOL0     C 4610   5.604   2.118   6.655 -0.5272  0.6577  0.1684
  759MOL0     C 4611   5.574   2.248   6.613  0.1021 -0.3982  0.4556
  759MOL0     O 4612   5.479   2.331   6.663 -0.1993 -0.0885 -0.2765
  759MOL0     C 4613   5.407   2.288   6.781 -0.1416  0.6965  0.3298
  759MOL0     C 4614   5.289   2.191   6.755 -0.2785  0.3195  0.6226
  759MOL0     C 4615   5.173   2.260   6.686  0.2319 -0.2897 -0.1881
  759MOL0     C 4616   5.073   2.321   6.790 -0.0351 -0.7156  0.6538
  759MOL0     C 4617   4.946   2.361   6.722 -0.1201  0.4223  1.5002
  759MOL0     C 4618   4.835   2.353   6.825 -0.9125  0.6255 -0.1810
  759MOL0     C 4619   4.847   2.481   6.918  1.1222  0.6379  0.4393
  759MOL0     C 4620   4.723   2.497   7.003  0.5340  0.3281 -0.2234
  759MOL0     N 4621   4.737   2.601   7.096 -0.4189  0.7778 -0.4351
  759MOL0     C 4622   4.702   2.730   7.078 -0.6121 -0.7414  0.2162
  759MOL0     C 4623   4.728   2.793   7.197  0.1119 -0.9321 -0.2271
  759MOL0     C 4624   4.695   2.936   7.218  0.6630  0.1478 -0.6116
  759MOL0     C 4625   4.785   3.025   7.140 -0.8076  0.5446  0.2569
  759MOL0     C 4626   4.779   3.173   7.173 -0.2803 -0.5509 -0.6036
  759MOL0     C 4627   4.654   3.231   7.097  0.2656 -1.4959 -1.0000
  759MOL0     O 4628   4.693   3.250   6.960  0.2571 -0.2218 -0.3120
  759MOL0     C 4629   4.626   3.334   6.872 -0.1744 -0.1318 -0.1998
  759MOL0     C 4630   4.665   3.342   6.737  0.3410 -0.0328  0.2391
  759MOL0     C 4631   4.594   3.414   6.639 -0.0755 -0.7900  0.6706
  759MOL0     C 4632   4.663   3.421   6.501 -0.0804 -0.1208  0.6236
  759MOL0     C 4633   4.477   3.486   6.679  0.1473  0.0409 -0.0012
  759MOL0     C 4634   4.385   3.549   6.578 -1.1027  0.1839  0.8496
  759MOL0     O 4635   4.442   3.581   6.459  0.2646 -0.8075  0.2142
  759MOL0     C 4636   4.373   3.657   6.369 -0.3837 -0.7901  0.1887
  759MOL0     C 4637   4.413   3.785   6.348  0.8700 -0.4353  0.8533
  759MOL0     C 4638   4.341   3.866   6.267 -0.2689 -0.4920  0.1655
  759MOL0     C 4639   4.229   3.814   6.187 -0.2792  0.1623 -0.2144
  759MOL0     O 4640   4.154   3.873   6.092  0.2071 -0.4090 -0.3541
  759MOL0     C 4641   4.156   4.015   6.086 -0.7515  0.1995  0.1421
  759MOL0     C 4642   4.235   4.055   5.958 -0.1728 -0.6050 -0.3499
  759MOL0     C 4643   4.385   4.052   5.984 -0.6981 -0.2245  0.0271
  759MOL0     C 4644   4.465   4.099   5.854  0.4366  0.1072 -0.1937
  759MOL0     C 4645   4.620   4.074   5.881  0.2237 -0.2556  0.3711
  759MOL0     C 4646   4.687   4.110   6.010 -0.5024  0.0168  0.2162
  759MOL0     C 4647   4.839   4.113   6.007 -0.2392 -0.3405 -0.4839
  759MOL0     C 4648   4.896   3.985   5.954  0.0914 -0.1619 -0.4290
  759MOL0    Cl 4649   4.861   3.835   6.048 -0.0522 -0.0655  0.3536
  759MOL0     C 4650   4.201   3.679   6.201 -0.5678 -0.3401  0.0253
  759MOL0     C 4651   4.277   3.601   6.294  0.2558 -0.7576  0.8840
  759MOL0     O 4652   4.264   3.566   6.604 -0.4742 -0.2823 -0.5256
  759MOL0     C 4653   4.435   3.478   6.812 -0.5939 -0.1631  0.5529
  759MOL0     C 4654   4.504   3.403   6.907  0.5241  0.3826 -0.7559
  759MOL0     N 4655   4.767   2.698   7.283  0.4311  0.5480  0.2359
  759MOL0     N 4656   4.785   2.585   7.218  0.2842  0.7886 -0.2124
  759MOL0     C 4657   5.636   2.297   6.500 -0.1906  0.6655  0.2102
  759MOL0     C 4658   5.749   2.234   6.440  0.0235 -0.7205  0.2112
  759MOL0     C 4659   6.082   1.901   6.376  0.7130  0.2669  0.2326
  759MOL0     C 4660   6.049   1.901   6.239 -0.7340 -0.0273 -0.4145
  759MOL0     C 4661   6.130   1.828   6.149  0.9571  0.2703  0.2086
  759MOL0     C 4662   6.242   1.753   6.188  0.1129  0.5272  0.1883
  759MOL0     O 4663   6.324   1.705   6.094  0.6273  0.5024  0.7070
  759MOL0     C 4664   6.432   1.795   6.058  0.1871 -0.3182 -0.7159
  759MOL0     C 4665   6.537   1.724   5.959 -0.1616 -0.0097  0.2127
  759MOL0     C 4666   6.630   1.802   5.867 -0.2465 -0.5710 -0.1663
  759MOL0     C 4667   6.666   1.944   5.933 -0.1452 -0.2826  0.1087
  759MOL0     C 4668   6.733   2.040   5.849  0.6109  0.6336 -0.0869
  759MOL0     C 4669   6.795   2.122   5.782 -0.0281  0.2672 -0.3762
  759MOL0     C 4670   6.270   1.747   6.323 -0.1026 -0.9359 -0.0386
  759MOL0     C 4671   6.200   1.823   6.416  0.6338 -0.6115 -0.6217
  759MOL0     C 4672   6.247   1.793   6.554 -1.0474 -0.7185  0.3294
  759MOL0     H 4673   5.735   1.949   6.622  3.2619  0.1579 -1.5250
  759MOL0     H 4674   5.566   2.073   6.746 -2.7824 -2.2733 -2.0084
  759MOL0     H 4675   5.366   2.365   6.848 -0.7072 -1.8827  3.1762
  759MOL0     H 4676   5.479   2.238   6.846 -0.5231 -0.5965 -0.2045
  759MOL0     H 4677   5.326   2.109   6.692 -0.3880  1.0034 -0.3515
  759MOL0     H 4678   5.251   2.137   6.842  0.7606 -1.9346 -0.2414
  759MOL0     H 4679   5.224   2.336   6.625 -2.3064 -0.0086 -2.1073
  759MOL0     H 4680   5.124   2.191   6.618 -1.4629  1.2978 -0.6585
  759MOL0     H 4681   5.049   2.245   6.865 -0.1757  0.1003  1.4666
  759MOL0     H 4682   5.106   2.410   6.845 -0.1292  0.5430 -1.2691
  759MOL0     H 4683   4.917   2.291   6.643  1.7212  1.2319  0.0077
  759MOL0     H 4684   4.965   2.459   6.678  1.2073 -1.1242 -1.7797
  759MOL0     H 4685   4.740   2.344   6.772 -0.5376 -6.2145 -0.5266
  759MOL0     H 4686   4.847   2.268   6.893  0.0763  0.6715 -0.2856
  759MOL0     H 4687   4.876   2.574   6.868 -0.1834 -0.2674 -2.1624
  759MOL0     H 4688   4.920   2.453   6.994 -2.0499 -2.7972  2.5588
  759MOL0     H 4689   4.636   2.513   6.938 -0.4922 -2.2350  0.3737
  759MOL0     H 4690   4.699   2.408   7.062  1.0089  0.6619  0.4794
  759MOL0     H 4691   4.667   2.782   6.990  3.0519  3.5559  0.9096
  759MOL0     H 4692   4.701   2.955   7.325  4.2555  0.2628 -0.7187
  759MOL0     H 4693   4.593   2.944   7.178 -0.6791 -1.1977  2.2361
  759MOL0     H 4694   4.884   2.987   7.168 -0.9221  0.2889  0.3212
  759MOL0     H 4695   4.767   3.015   7.033 -2.2283  0.1996  0.5049
  759MOL0     H 4696   4.762   3.176   7.281  0.9366 -2.4863 -0.3006
  759MOL0     H 4697   4.872   3.227   7.150 -0.7431  0.7958  0.5469
  759MOL0     H 4698   4.566   3.167   7.101  0.2199 -1.3944 -0.2874
  759MOL0     H 4699   4.637   3.331   7.139  3.2676 -0.2379 -2.4515
  759MOL0     H 4700   4.742   3.271   6.709 -0.9315 -1.1869 -0.4433
  759MOL0     H 4701   4.758   3.370   6.518 -0.3527 -0.9806 -0.3585
  759MOL0     H 4702   4.683   3.525   6.474  4.8970 -0.8051  0.8823
  759MOL0     H 4703   4.592   3.392   6.423  0.0141  0.9168  0.1345
  759MOL0     H 4704   4.493   3.840   6.397  0.5804  2.1394 -1.3416
  759MOL0     H 4705   4.368   3.971   6.257 -2.0660 -0.1083 -1.4143
  759MOL0     H 4706   4.049   4.039   6.077 -0.3201  1.4751 -3.0307
  759MOL0     H 4707   4.200   4.066   6.172  0.8628 -0.4598 -0.2661
  759MOL0     H 4708   4.204   3.998   5.869 -0.1784  1.0529 -1.4582
  759MOL0     H 4709   4.205   4.155   5.926  0.2381  0.2652  1.8217
  759MOL0     H 4710   4.414   3.949   6.009 -0.2272 -0.0227  0.3348
  759MOL0     H 4711   4.415   4.120   6.065  1.1068 -0.8457 -0.0683
  759MOL0     H 4712   4.451   4.205   5.831  1.0141 -0.1678 -1.9854
  759MOL0     H 4713   4.447   4.032   5.769  1.5051 -1.3649  0.6968
  759MOL0     H 4714   4.643   3.967   5.870  3.3690  0.1460  2.0554
  759MOL0     H 4715   4.662   4.135   5.801 -2.8432 -0.3793 -1.5283
  759MOL0     H 4716   4.658   4.026   6.074 -2.6368 -1.5191 -2.5242
  759MOL0     H 4717   4.646   4.195   6.065  0.1120 -0.3373  1.2331
  759MOL0     H 4718   4.887   4.143   6.101 -1.9800 -0.1865  0.3849
  759MOL0     H 4719   4.885   4.185   5.938  1.9429 -0.9662  0.2198
  759MOL0     H 4720   5.004   4.002   5.952  0.2435 -1.1478 -1.7995
  759MOL0     H 4721   4.852   3.971   5.855  1.0758 -1.8659 -0.6701
  759MOL0     H 4722   4.114   3.644   6.147  0.1872  2.1237 -3.0620
  759MOL0     H 4723   4.268   3.497   6.323  2.3964 -0.9136  1.1521
  759MOL0     H 4724   4.347   3.535   6.839 -0.4400  0.7430 -0.7600
  759MOL0     H 4725   4.470   3.398   7.010 -2.8353 -0.7574 -1.7879
  759MOL0     H 4726   5.629   2.402   6.474  3.1927  0.6451 -1.1685
  759MOL0     H 4727   5.796   2.279   6.353 -0.0187 -1.2212 -0.0772
  759MOL0     H 4728   5.960   1.937   6.188 -0.3799 -2.8662 -3.4055
  759MOL0     H 4729   6.101   1.830   6.044 -1.9653 -1.4664  0.8774
  759MOL0     H 4730   6.389   1.876   5.998 -0.4732 -0.2454 -0.1466
  759MOL0     H 4731   6.477   1.836   6.149  1.6381  0.5044 -1.7604
  759MOL0     H 4732   6.471   1.652   5.908 -0.8263 -0.0070  1.0368
  759MOL0     H 4733   6.600   1.660   6.022 -0.7023  1.0289  1.8770
  759MOL0     H 4734   6.721   1.742   5.860  1.9027  2.0010  2.9923
  759MOL0     H 4735   6.604   1.815   5.762  2.0280 -0.6038 -0.7795
  759MOL0     H 4736   6.712   1.925   6.030 -0.4397  1.4002  0.6108
  759MOL0     H 4737   6.567   1.986   5.952 -0.2787  0.0707 -1.2913
  759MOL0     H 4738   6.846   2.191   5.718  1.1354 -3.1134 -3.4429
  759MOL0     H 4739   6.362   1.697   6.352 -0.0487 -1.3569 -0.8890
  759MOL0     H 4740   6.222   1.688   6.570  2.2128 -2.4750 -4.0329
  759MOL0     H 4741   6.356   1.795   6.569 -0.8303 -1.3761 -0.9827
  759MOL0     H 4742   6.198   1.852   6.632 -1.0373 -0.6709  0.3001
  760MOL0     O 4743  11.343   2.551  11.290 -0.5490 -0.0038 -0.5216
  760MOL0     C 4744  11.321   2.489  11.395  0.0747 -0.5978  0.9913
  760MOL0     O 4745  11.197   2.477  11.455  0.2463  0.7152 -0.8857
  760MOL0     C 4746  11.096   2.566  11.434  1.0981  0.2878  0.0722
  760MOL0     C 4747  10.961   2.530  11.465 -0.4722 -0.1503  0.0239
  760MOL0     C 4748  10.863   2.620  11.470  0.6389  0.5689  1.6678
  760MOL0     C 4749  10.884   2.752  11.431 -1.2720  0.4316 -0.4404
  760MOL0     O 4750  10.786   2.844  11.435 -0.1379 -0.0947 -1.3392
  760MOL0     C 4751  10.666   2.810  11.494  1.0108 -0.4362 -0.0389
  760MOL0     C 4752  10.589   2.943  11.479  0.5380 -0.8826  0.4963
  760MOL0     C 4753  10.552   2.982  11.334  0.4598  0.3592 -0.2855
  760MOL0     C 4754  10.488   3.119  11.333 -0.1501 -0.4697 -0.1716
  760MOL0     C 4755  10.465   3.167  11.187  0.0528  0.3147  0.7505
  760MOL0     C 4756  10.361   3.084  11.116  0.1989  0.1814 -0.3450
  760MOL0     C 4757  10.223   3.068  11.184  0.2980 -0.3007 -0.5121
  760MOL0     C 4758  10.131   3.195  11.201 -0.3741  0.5965 -0.0242
  760MOL0     N 4759   9.989   3.171  11.214  0.0689  0.4472  0.0868
  760MOL0     C 4760   9.903   3.274  11.202 -0.0362  0.2595  0.1105
  760MOL0     C 4761   9.793   3.225  11.135  0.3393  0.2872 -0.7090
  760MOL0     C 4762   9.673   3.307  11.093  0.6817  0.1075 -0.7524
  760MOL0     C 4763   9.686   3.451  11.091  0.6770  0.2151 -0.0808
  760MOL0     C 4764   9.801   3.510  11.003  0.0056  0.5493  0.5498
  760MOL0     C 4765   9.814   3.468  10.853  0.4895  0.2846 -0.2981
  760MOL0     O 4766   9.678   3.475  10.798  0.0480 -0.8472  0.7764
  760MOL0     C 4767   9.663   3.469  10.656 -0.0371 -0.3715 -0.4350
  760MOL0     C 4768   9.551   3.516  10.604  0.4744 -0.1068  0.2058
  760MOL0     C 4769   9.517   3.522  10.463  0.1892 -1.0766 -0.2576
  760MOL0     C 4770   9.386   3.576  10.427 -0.5955 -0.2050 -0.4592
  760MOL0     C 4771   9.604   3.461  10.379  0.2570 -0.3090  1.3392
  760MOL0     C 4772   9.597   3.467  10.226  1.4315 -0.0875 -0.1187
  760MOL0     O 4773   9.711   3.445  10.164 -0.2124 -0.3816  0.6588
  760MOL0     C 4774   9.741   3.473  10.031 -0.8606  0.4107  0.3666
  760MOL0     C 4775   9.656   3.432   9.931  0.1023  0.4060 -1.3061
  760MOL0     C 4776   9.683   3.460   9.796 -0.2022 -0.2477  0.7791
  760MOL0     C 4777   9.807   3.503   9.745 -1.2890  0.4225 -0.0178
  760MOL0     O 4778   9.842   3.525   9.612  0.0379 -0.2369 -0.3644
  760MOL0     C 4779   9.764   3.458   9.509 -0.0059  0.1802  0.4076
  760MOL0     C 4780   9.840   3.494   9.377 -0.6820  1.0294  0.3968
  760MOL0     C 4781   9.769   3.433   9.251  0.3216 -0.5605 -0.6856
  760MOL0     C 4782   9.836   3.501   9.125  0.6076 -0.4078  0.6299
  760MOL0     C 4783   9.752   3.451   9.007 -0.4494 -0.4104 -0.2371
  760MOL0     C 4784   9.803   3.501   8.874 -0.2038 -1.1830 -0.2624
  760MOL0     C 4785   9.714   3.437   8.761  0.6686 -0.4179  0.0966
  760MOL0     C 4786   9.771   3.498   8.624 -0.4792  1.0421  0.6997
  760MOL0    Cl 4787   9.706   3.427   8.476 -0.1458 -0.3160 -0.2517
  760MOL0     C 4788   9.906   3.526   9.849  0.1487  0.6853  0.1590
  760MOL0     C 4789   9.872   3.511   9.990 -0.0939 -0.4102 -0.5786
  760MOL0     O 4790   9.490   3.486  10.165 -0.2718  0.3188  0.2248
  760MOL0     C 4791   9.715   3.396  10.434  0.3765  0.5770 -0.0373
  760MOL0     C 4792   9.742   3.396  10.564 -0.0309 -0.0311 -0.5289
  760MOL0     N 4793   9.820   3.093  11.100 -0.0924  0.8244  0.0780
  760MOL0     N 4794   9.932   3.058  11.156  0.3918 -0.4016  0.3325
  760MOL0     C 4795  11.009   2.791  11.379  0.9857 -0.6263 -0.1456
  760MOL0     C 4796  11.118   2.700  11.398  0.3770 -0.0225 -0.2017
  760MOL0     C 4797  11.434   2.407  11.451 -0.0109 -1.1385  0.5450
  760MOL0     C 4798  11.406   2.285  11.508 -0.3049  0.3701 -0.2139
  760MOL0     C 4799  11.509   2.198  11.559  0.0215 -0.4523  0.4233
  760MOL0     C 4800  11.635   2.237  11.530 -0.5487 -0.4759 -0.8365
  760MOL0     O 4801  11.737   2.145  11.566  0.6749  0.3465  0.2415
  760MOL0     C 4802  11.862   2.201  11.586  0.2236 -0.0625 -0.2281
  760MOL0     C 4803  11.956   2.094  11.640 -0.7898  0.7048 -0.2353
  760MOL0     C 4804  11.923   2.064  11.792  0.7734  0.3902 -0.2279
  760MOL0     C 4805  12.030   1.962  11.840  0.3128  0.5784 -0.8078
  760MOL0     C 4806  12.028   1.829  11.781  0.3665  0.5110 -0.6335
  760MOL0     C 4807  12.029   1.712  11.731 -0.5000  0.4040 -0.1879
  760MOL0     C 4808  11.669   2.369  11.478 -0.5704  0.2459  0.2985
  760MOL0     C 4809  11.566   2.450  11.446 -1.2176 -0.0714  0.2997
  760MOL0     C 4810  11.597   2.589  11.385 -0.0528 -0.4506  0.1862
  760MOL0     H 4811  10.953   2.425  11.489  1.6414 -0.4241 -0.2949
  760MOL0     H 4812  10.767   2.583  11.506  0.6265  1.5487  2.6848
  760MOL0     H 4813  10.683   2.791  11.600  0.4659 -2.4423 -0.2768
  760MOL0     H 4814  10.616   2.725  11.448  1.1274  0.9395 -2.9728
  760MOL0     H 4815  10.496   2.930  11.535 -0.6401  0.2462 -1.1197
  760MOL0     H 4816  10.645   3.024  11.527  1.8012 -1.2451 -0.3117
  760MOL0     H 4817  10.641   2.990  11.271 -1.3968 -0.2838 -3.1663
  760MOL0     H 4818  10.486   2.901  11.303  0.7827 -0.3263  0.7656
  760MOL0     H 4819  10.396   3.122  11.392 -0.3971  0.7600 -0.5835
  760MOL0     H 4820  10.562   3.184  11.382 -0.8671 -0.2705  0.6776
  760MOL0     H 4821  10.557   3.170  11.129  1.3254 -4.0695  2.1897
  760MOL0     H 4822  10.434   3.272  11.187  0.7858  0.5698  2.4053
  760MOL0     H 4823  10.336   3.123  11.017 -0.9773  1.8010  0.5557
  760MOL0     H 4824  10.398   2.981  11.102 -0.4304 -0.0635 -0.2249
  760MOL0     H 4825  10.244   3.027  11.283  2.3634  0.1534 -0.7226
  760MOL0     H 4826  10.160   3.001  11.124 -1.6618  0.0851  1.0123
  760MOL0     H 4827  10.177   3.256  11.278 -0.2416  0.6589 -0.1529
  760MOL0     H 4828  10.142   3.253  11.109  0.1507  1.4755  0.5894
  760MOL0     H 4829   9.924   3.378  11.226  3.7896  0.0044 -1.3933
  760MOL0     H 4830   9.584   3.284  11.152  0.3817  0.2491 -1.1431
  760MOL0     H 4831   9.634   3.270  10.998  0.0367  0.1159 -0.4939
  760MOL0     H 4832   9.586   3.484  11.058 -0.9101 -0.8723  3.2156
  760MOL0     H 4833   9.699   3.488  11.193 -2.1069 -0.5375  0.6476
  760MOL0     H 4834   9.781   3.618  10.997  1.2932  0.9648  2.5590
  760MOL0     H 4835   9.895   3.508  11.059 -0.2656 -0.9288  0.9854
  760MOL0     H 4836   9.886   3.535  10.804  3.1224 -0.2571  2.5300
  760MOL0     H 4837   9.845   3.366  10.829 -2.6738 -0.1854 -3.1113
  760MOL0     H 4838   9.488   3.548  10.686  0.3161  2.3443 -0.7959
  760MOL0     H 4839   9.312   3.495  10.415  0.2711 -0.8837 -1.3302
  760MOL0     H 4840   9.387   3.629  10.332 -2.2786  1.6750  0.5034
  760MOL0     H 4841   9.362   3.659  10.494  1.3883  2.5919 -3.0047
  760MOL0     H 4842   9.571   3.375   9.968  1.8065 -2.5733 -1.5995
  760MOL0     H 4843   9.610   3.450   9.716  0.5357  0.6734 -0.0478
  760MOL0     H 4844   9.751   3.350   9.519 -1.5864  0.5901  4.3218
  760MOL0     H 4845   9.666   3.505   9.496  0.1747  0.1923 -1.0322
  760MOL0     H 4846   9.846   3.603   9.368 -3.6144  1.2242 -0.4053
  760MOL0     H 4847   9.940   3.451   9.372 -1.2935 -0.3558 -3.6043
  760MOL0     H 4848   9.661   3.451   9.258  0.1231 -1.4606 -1.3803
  760MOL0     H 4849   9.793   3.327   9.258 -0.2761 -0.5863  2.6125
  760MOL0     H 4850   9.939   3.469   9.108  0.3237 -1.1335  0.2325
  760MOL0     H 4851   9.824   3.607   9.146 -2.0611 -0.6291  0.6161
  760MOL0     H 4852   9.745   3.342   9.000  1.5166 -0.5056 -1.7079
  760MOL0     H 4853   9.648   3.482   9.016 -0.9556 -1.1967 -2.5789
  760MOL0     H 4854   9.903   3.468   8.846 -1.6197 -2.6496 -4.3447
  760MOL0     H 4855   9.801   3.610   8.873  1.0790 -0.8701  4.8143
  760MOL0     H 4856   9.609   3.467   8.768  0.5086 -0.9747  0.0938
  760MOL0     H 4857   9.714   3.328   8.763  2.5760 -0.5146 -1.9115
  760MOL0     H 4858   9.878   3.475   8.625 -0.9209 -1.2674  0.8635
  760MOL0     H 4859   9.760   3.606   8.615 -1.7876  0.7915 -1.6722
  760MOL0     H 4860  10.006   3.566   9.833  0.7209 -1.2856 -1.7676
  760MOL0     H 4861   9.947   3.522  10.068  2.5044  1.2386 -3.1232
  760MOL0     H 4862   9.787   3.349  10.368  0.9204  2.9566 -1.2732
  760MOL0     H 4863   9.841   3.356  10.581  0.5238  1.1569 -0.8693
  760MOL0     H 4864  11.019   2.890  11.335 -3.0404  0.3211  0.6509
  760MOL0     H 4865  11.209   2.734  11.349  0.8315 -2.2206 -1.0132
  760MOL0     H 4866  11.305   2.247  11.506 -0.8940  1.8859 -0.6069
  760MOL0     H 4867  11.496   2.104  11.612 -0.7085 -0.9887 -0.6884
  760MOL0     H 4868  11.913   2.241  11.498  0.8066 -0.2902  0.0023
  760MOL0     H 4869  11.856   2.282  11.660 -4.0854 -0.5718  0.2239
  760MOL0     H 4870  12.059   2.128  11.634 -0.2063 -1.1523 -1.3898
  760MOL0     H 4871  11.954   2.005  11.577  1.1755  2.9490 -3.7774
  760MOL0     H 4872  11.931   2.164  11.835 -0.9070  0.9731 -1.1919
  760MOL0     H 4873  11.825   2.016  11.804 -0.2096  1.9496 -1.6639
  760MOL0     H 4874  12.004   1.952  11.946 -1.5133 -2.8854 -1.4241
  760MOL0     H 4875  12.135   1.982  11.821  0.2477 -0.4301 -2.3669
  760MOL0     H 4876  12.047   1.616  11.687 -1.9184 -0.8795  1.8677
  760MOL0     H 4877  11.765   2.399  11.439 -1.5150  2.2057 -0.6986
  760MOL0     H 4878  11.534   2.673  11.417  3.2788  1.7464  1.5164
  760MOL0     H 4879  11.686   2.617  11.442 -2.9516  1.3478  4.2684
  760MOL0     H 4880  11.608   2.580  11.276  1.2702 -0.9022  0.3377
  761MOL0     O 4881   6.880   6.706   2.072  0.5054 -0.1959 -0.3440
  761MOL0     C 4882   6.998   6.709   2.047  0.3687 -0.2660 -0.6148
  761MOL0     O 4883   7.094   6.618   2.105 -0.3855  0.4844  0.3272
  761MOL0     C 4884   7.070   6.548   2.221  0.2978  0.4066 -0.3237
  761MOL0     C 4885   6.946   6.513   2.285 -0.2445  0.1804 -0.5447
  761MOL0     C 4886   6.948   6.440   2.391  0.7047  0.3198  1.0343
  761MOL0     C 4887   7.062   6.382   2.435 -0.9817 -0.0858  0.4961
  761MOL0     O 4888   7.069   6.288   2.535 -0.1990 -0.4048  0.6506
  761MOL0     C 4889   7.009   6.163   2.510 -0.0803  0.3162 -0.1168
  761MOL0     C 4890   7.081   6.063   2.602 -0.1497  0.4853 -0.8936
  761MOL0     C 4891   7.060   5.928   2.525 -0.4302  0.9418  0.1933
  761MOL0     C 4892   7.160   5.823   2.578 -0.0964 -0.5753  0.4328
  761MOL0     C 4893   7.119   5.691   2.527 -0.0700  0.6065  0.6543
  761MOL0     C 4894   7.207   5.573   2.570  0.3273  0.8431 -0.4225
  761MOL0     C 4895   7.231   5.542   2.723 -0.1574 -0.5257 -0.0010
  761MOL0     C 4896   7.317   5.414   2.753 -0.0603  0.3638 -0.4361
  761MOL0     N 4897   7.237   5.290   2.785  0.3134 -0.0368 -0.5349
  761MOL0     C 4898   7.117   5.247   2.736 -0.3014 -1.1237 -0.1473
  761MOL0     C 4899   7.079   5.157   2.824 -0.3662  0.5364 -0.4001
  761MOL0     C 4900   6.936   5.098   2.828 -0.6285 -0.4205  0.6051
  761MOL0     C 4901   6.846   5.183   2.905 -0.2405  0.9405  0.7192
  761MOL0     C 4902   6.703   5.121   2.919 -0.5586  0.3612 -0.5018
  761MOL0     C 4903   6.629   5.067   2.808 -0.4562 -0.2866  0.3679
  761MOL0     O 4904   6.685   4.943   2.767 -0.7209  0.3649  1.3575
  761MOL0     C 4905   6.671   4.912   2.629  0.4349 -0.2448 -0.6906
  761MOL0     C 4906   6.610   4.988   2.536  0.8934 -0.6614 -0.3735
  761MOL0     C 4907   6.607   4.949   2.401 -0.2307  0.1370  0.1560
  761MOL0     C 4908   6.554   5.050   2.303 -0.2071 -0.4413 -1.0498
  761MOL0     C 4909   6.661   4.825   2.364 -0.7055  0.0642 -0.1955
  761MOL0     C 4910   6.672   4.775   2.226  0.5444 -0.0849  0.4209
  761MOL0     O 4911   6.785   4.713   2.191  0.8311 -1.0432  0.6595
  761MOL0     C 4912   6.790   4.681   2.054  0.0757  0.0478 -0.3738
  761MOL0     C 4913   6.771   4.547   2.016 -0.1846 -0.3783  0.4693
  761MOL0     C 4914   6.800   4.511   1.882  0.5202 -0.1582  0.5616
  761MOL0     C 4915   6.852   4.596   1.777 -0.1543  0.3759 -0.3460
  761MOL0     O 4916   6.871   4.560   1.648  0.9549  0.1904  0.9798
  761MOL0     C 4917   6.813   4.439   1.597 -0.3484 -0.7282 -0.5458
  761MOL0     C 4918   6.811   4.456   1.443  0.2203  0.3440  0.4337
  761MOL0     C 4919   6.771   4.317   1.375  0.6797  0.3274 -0.0116
  761MOL0     C 4920   6.639   4.259   1.419  0.5363 -0.3558  1.0586
  761MOL0     C 4921   6.600   4.172   1.297  0.4668 -0.0924 -0.6000
  761MOL0     C 4922   6.484   4.091   1.336  1.3356  0.4322  0.0773
  761MOL0     C 4923   6.434   4.013   1.205  0.4329 -0.4046  0.2232
  761MOL0     C 4924   6.298   3.933   1.239  0.2121  0.4902  0.0598
  761MOL0    Cl 4925   6.154   4.032   1.216  0.5703  0.0672  0.2351
  761MOL0     C 4926   6.856   4.735   1.827 -0.7362  0.9515 -0.7135
  761MOL0     C 4927   6.825   4.778   1.953 -0.2749  0.1218 -0.2398
  761MOL0     O 4928   6.580   4.807   2.148 -0.1840  0.4465  0.5529
  761MOL0     C 4929   6.706   4.742   2.462  0.1695 -0.1330 -0.8528
  761MOL0     C 4930   6.722   4.789   2.598 -0.4241  1.3405  0.6949
  761MOL0     N 4931   7.173   5.128   2.917  0.5620  0.1107  0.7977
  761MOL0     N 4932   7.274   5.216   2.895 -0.2537  0.4384 -0.8943
  761MOL0     C 4933   7.186   6.416   2.382  0.6890 -0.5839 -0.1206
  761MOL0     C 4934   7.191   6.499   2.271 -0.4763 -0.4729 -0.6025
  761MOL0     C 4935   7.052   6.807   1.947 -0.4999  0.4237 -0.6045
  761MOL0     C 4936   7.182   6.781   1.905  0.2479  0.0895  0.0189
  761MOL0     C 4937   7.243   6.863   1.810 -0.2717  0.7404 -1.0969
  761MOL0     C 4938   7.180   6.987   1.780 -0.1438 -0.3797  0.2921
  761MOL0     O 4939   7.264   7.079   1.707 -1.0124  0.3561 -0.5904
  761MOL0     C 4940   7.206   7.204   1.668 -0.2021  0.2696 -0.1093
  761MOL0     C 4941   7.290   7.281   1.574  0.3247 -0.4159  0.6615
  761MOL0     C 4942   7.203   7.378   1.495  0.9919 -0.5125 -1.1194
  761MOL0     C 4943   7.161   7.509   1.563 -0.3801  0.4761 -0.9424
  761MOL0     C 4944   7.048   7.483   1.652  1.2218 -0.3582  0.3926
  761MOL0     C 4945   6.955   7.480   1.733  1.0834  0.6088 -0.5337
  761MOL0     C 4946   7.045   7.020   1.832  0.1391  0.3495 -0.4501
  761MOL0     C 4947   6.982   6.919   1.915  0.1449  0.0424  0.7315
  761MOL0     C 4948   6.840   6.963   1.953 -1.4674  1.0508  0.6349
  761MOL0     H 4949   6.853   6.564   2.262 -1.2295 -1.5619 -0.6283
  761MOL0     H 4950   6.857   6.428   2.447 -0.7936  0.3634 -1.2562
  761MOL0     H 4951   7.026   6.146   2.403 -2.0884  0.8285 -0.5688
  761MOL0     H 4952   6.901   6.173   2.523 -0.0395  5.2131 -1.5254
  761MOL0     H 4953   7.189   6.080   2.611  0.3207 -2.3425 -0.0484
  761MOL0     H 4954   7.037   6.061   2.702  2.2173  2.0465  0.2572
  761MOL0     H 4955   6.958   5.890   2.529  0.0821 -0.4168  1.0535
  761MOL0     H 4956   7.088   5.942   2.420  0.6357 -0.4030  0.2621
  761MOL0     H 4957   7.265   5.846   2.558  0.0695  2.8029  4.0370
  761MOL0     H 4958   7.146   5.832   2.686  1.0683  0.6192  0.5054
  761MOL0     H 4959   7.092   5.689   2.421 -1.3049  1.7722  0.9225
  761MOL0     H 4960   7.019   5.668   2.563  0.1411 -1.4620  0.0200
  761MOL0     H 4961   7.169   5.491   2.509  0.7485  1.0357 -0.9445
  761MOL0     H 4962   7.305   5.579   2.523  0.9778  1.7081  0.9831
  761MOL0     H 4963   7.132   5.531   2.766  0.0039 -2.1464  0.0045
  761MOL0     H 4964   7.269   5.635   2.766 -1.6330  0.8893 -1.6327
  761MOL0     H 4965   7.396   5.406   2.677 -0.1168  2.3825 -0.7615
  761MOL0     H 4966   7.378   5.436   2.840 -1.2491 -0.2694  0.5888
  761MOL0     H 4967   7.068   5.294   2.651  2.1891  0.2901 -0.9008
  761MOL0     H 4968   6.952   5.003   2.880 -1.6262  0.8398  3.3740
  761MOL0     H 4969   6.905   5.096   2.723  0.3457 -0.3081  0.3018
  761MOL0     H 4970   6.884   5.205   3.005 -1.4577 -1.4597  1.7861
  761MOL0     H 4971   6.833   5.279   2.855 -0.2394  0.3000 -0.5455
  761MOL0     H 4972   6.696   5.048   3.001 -1.9532  0.4217 -0.5449
  761MOL0     H 4973   6.640   5.198   2.965  0.5716  0.3777  1.1218
  761MOL0     H 4974   6.524   5.053   2.835 -0.5940 -4.7373 -1.5412
  761MOL0     H 4975   6.639   5.143   2.730 -1.3259 -0.0953  0.4308
  761MOL0     H 4976   6.565   5.083   2.561  1.2689 -1.0061  1.7919
  761MOL0     H 4977   6.505   5.135   2.350  1.4600  0.3756 -0.7201
  761MOL0     H 4978   6.488   5.002   2.230 -2.9541 -0.1630  1.0597
  761MOL0     H 4979   6.632   5.105   2.249  1.7181  0.0174  1.9429
  761MOL0     H 4980   6.753   4.467   2.086 -1.8764  0.6390  1.2607
  761MOL0     H 4981   6.790   4.406   1.855 -2.9702  0.7767 -2.6916
  761MOL0     H 4982   6.873   4.354   1.630  1.6106  0.4205 -0.9861
  761MOL0     H 4983   6.712   4.433   1.638 -0.6680 -0.7533 -1.3211
  761MOL0     H 4984   6.739   4.530   1.410 -1.0325 -0.9069  0.2609
  761MOL0     H 4985   6.911   4.484   1.410  0.6194  0.5029  1.7016
  761MOL0     H 4986   6.849   4.251   1.414  2.8395  1.4543 -2.1567
  761MOL0     H 4987   6.785   4.329   1.267  3.2810 -1.4198  0.0518
  761MOL0     H 4988   6.562   4.334   1.439  1.5954  1.1393 -0.1949
  761MOL0     H 4989   6.658   4.195   1.506  1.5328 -1.9256 -0.2390
  761MOL0     H 4990   6.589   4.238   1.211  0.4680  3.0238  1.6378
  761MOL0     H 4991   6.672   4.094   1.269 -2.2518 -2.0852 -2.6238
  761MOL0     H 4992   6.399   4.151   1.372  0.8439 -0.1271 -0.1325
  761MOL0     H 4993   6.503   4.021   1.417  1.5968 -0.6574 -0.8932
  761MOL0     H 4994   6.508   3.946   1.160 -0.0618 -1.1139  0.4412
  761MOL0     H 4995   6.406   4.093   1.136  0.7963  0.6593  1.2842
  761MOL0     H 4996   6.310   3.903   1.344 -0.7413 -1.7074 -0.3957
  761MOL0     H 4997   6.281   3.840   1.184 -1.2356  0.9383 -0.3016
  761MOL0     H 4998   6.877   4.817   1.759  3.4541  1.3327  0.7212
  761MOL0     H 4999   6.829   4.885   1.969  1.6355  0.0961 -0.2906
  761MOL0     H 5000   6.761   4.658   2.421  2.7443  0.3371  1.3622
  761MOL0     H 5001   6.789   4.746   2.672  0.0985  1.2818  0.1923
  761MOL0     H 5002   7.279   6.386   2.429  0.0309 -1.0118  0.9482
  761MOL0     H 5003   7.284   6.519   2.219 -0.1382  4.0570  1.2661
  761MOL0     H 5004   7.236   6.691   1.934 -0.1721 -1.0018 -2.3402
  761MOL0     H 5005   7.345   6.840   1.778 -0.2979 -2.3370  0.6488
  761MOL0     H 5006   7.103   7.202   1.629  0.1046  0.5886 -0.9647
  761MOL0     H 5007   7.206   7.260   1.762 -1.1216  1.4954 -0.8013
  761MOL0     H 5008   7.330   7.214   1.497 -0.0058 -1.4316  1.3566
  761MOL0     H 5009   7.376   7.315   1.633  0.8855 -1.2964  0.3707
  761MOL0     H 5010   7.264   7.413   1.411 -1.3393  0.8998 -2.3282
  761MOL0     H 5011   7.110   7.326   1.468 -0.8358  2.4242 -0.8642
  761MOL0     H 5012   7.126   7.570   1.480 -0.7488  1.9047  0.2142
  761MOL0     H 5013   7.233   7.558   1.629 -0.7695 -1.2372  0.8626
  761MOL0     H 5014   6.870   7.484   1.799 -0.0549 -1.4856 -1.7855
  761MOL0     H 5015   6.986   7.101   1.791  1.8235 -0.3344 -4.7491
  761MOL0     H 5016   6.814   7.060   1.909 -0.1626  0.7003 -1.0267
  761MOL0     H 5017   6.770   6.889   1.913  0.0634 -0.6319  0.8853
  761MOL0     H 5018   6.818   6.951   2.059 -2.4911 -1.5998  0.2167
  762MOL0     O 5019   6.655   5.916   8.383 -0.3713  0.2818  0.1033
  762MOL0     C 5020   6.674   5.793   8.404  0.4058 -0.0262  0.1647
  762MOL0     O 5021   6.599   5.721   8.474  0.1729  0.0834  1.7790
  762MOL0     C 5022   6.463   5.757   8.482 -0.2256 -0.1105  0.3382
  762MOL0     C 5023   6.387   5.790   8.369 -0.1386 -0.9842 -0.4778
  762MOL0     C 5024   6.254   5.820   8.375  0.0156  0.1420  0.3927
  762MOL0     C 5025   6.189   5.797   8.500  0.9442 -1.1587  0.0207
  762MOL0     O 5026   6.057   5.834   8.516 -0.4251 -0.2230  0.2284
  762MOL0     C 5027   5.976   5.736   8.578  0.1026 -0.1005 -0.1920
  762MOL0     C 5028   5.840   5.794   8.588  0.0156 -0.2299 -1.7368
  762MOL0     C 5029   5.731   5.687   8.616  0.5522 -0.0139  0.3935
  762MOL0     C 5030   5.583   5.734   8.593 -0.4138 -0.1804 -0.8443
  762MOL0     C 5031   5.492   5.613   8.602  0.1393 -0.2493 -0.3561
  762MOL0     C 5032   5.344   5.655   8.576 -0.0819  0.5440  0.7603
  762MOL0     C 5033   5.248   5.538   8.581 -0.5070 -0.5623 -0.2037
  762MOL0     C 5034   5.241   5.457   8.453 -0.5806 -0.5100 -1.1393
  762MOL0     N 5035   5.182   5.523   8.341  0.4398  0.0458  0.5308
  762MOL0     C 5036   5.063   5.588   8.340  0.7759  0.2202 -0.1881
  762MOL0     C 5037   5.060   5.636   8.206 -0.6305  0.0281 -0.2760
  762MOL0     C 5038   4.945   5.707   8.133  0.2312  0.2552 -0.3121
  762MOL0     C 5039   4.931   5.853   8.169  0.1044 -0.6305  0.2195
  762MOL0     C 5040   4.793   5.896   8.149  0.9156  0.7262 -0.0670
  762MOL0     C 5041   4.794   6.057   8.161 -0.3859 -0.2028 -0.0758
  762MOL0     O 5042   4.656   6.110   8.159  0.2751  0.6267  0.0013
  762MOL0     C 5043   4.646   6.237   8.182  0.1665 -0.2925  0.4680
  762MOL0     C 5044   4.712   6.336   8.098 -0.2992 -0.2585 -1.0185
  762MOL0     C 5045   4.693   6.478   8.114 -0.1365  0.5648  0.6173
  762MOL0     C 5046   4.776   6.570   8.018  0.0388 -0.8325  0.9405
  762MOL0     C 5047   4.601   6.522   8.207  0.5245 -0.4514 -0.6416
  762MOL0     C 5048   4.571   6.670   8.231 -0.9682  0.7227 -0.8656
  762MOL0     O 5049   4.556   6.710   8.356  0.3415 -0.4215 -0.7155
  762MOL0     C 5050   4.500   6.834   8.381 -1.1818 -0.2348 -1.4335
  762MOL0     C 5051   4.569   6.925   8.463  0.1725  0.7989  0.1475
  762MOL0     C 5052   4.513   7.043   8.487  0.5252  0.0564 -0.4336
  762MOL0     C 5053   4.384   7.078   8.438 -0.0139  0.4623  1.0570
  762MOL0     O 5054   4.346   7.208   8.469  0.8346  0.7544  0.5210
  762MOL0     C 5055   4.220   7.251   8.424 -0.2844 -0.8822  0.1117
  762MOL0     C 5056   4.205   7.400   8.460 -0.4120  0.5443  0.9729
  762MOL0     C 5057   4.187   7.416   8.612 -0.3733  0.4010  0.7765
  762MOL0     C 5058   4.042   7.429   8.658  0.6997  0.1959 -0.0688
  762MOL0     C 5059   4.044   7.456   8.810  0.0922 -0.4402  0.3933
  762MOL0     C 5060   3.907   7.446   8.866 -0.0189 -0.3549 -0.3948
  762MOL0     C 5061   3.917   7.432   9.022 -0.3870  0.2680  1.1512
  762MOL0     C 5062   3.775   7.441   9.086  0.4404  0.4724 -0.3717
  762MOL0    Cl 5063   3.675   7.305   9.046  0.6819  0.3790  0.3893
  762MOL0     C 5064   4.305   6.981   8.357 -0.7511 -0.7746 -0.0223
  762MOL0     C 5065   4.370   6.859   8.336  0.4952  0.3421 -0.6816
  762MOL0     O 5066   4.578   6.742   8.140  0.1488 -0.1354  0.1545
  762MOL0     C 5067   4.535   6.431   8.282 -0.5527 -0.1834 -0.3603
  762MOL0     C 5068   4.560   6.293   8.273 -0.1480  0.6126  0.3930
  762MOL0     N 5069   5.177   5.589   8.133  0.3615 -0.1466 -0.3237
  762MOL0     N 5070   5.247   5.524   8.220 -0.9020 -0.3665 -1.0251
  762MOL0     C 5071   6.261   5.771   8.616 -0.6617  0.2340  0.3771
  762MOL0     C 5072   6.399   5.753   8.602  0.4024  0.1281 -0.2595
  762MOL0     C 5073   6.809   5.742   8.359  0.3521 -0.4013 -1.2961
  762MOL0     C 5074   6.854   5.621   8.422  1.0044 -0.8180  0.3953
  762MOL0     C 5075   6.978   5.565   8.405  0.4907  0.1533  0.3504
  762MOL0     C 5076   7.077   5.631   8.328 -0.3848 -1.3295 -0.3435
  762MOL0     O 5077   7.197   5.577   8.329 -0.2225 -0.3362  0.3170
  762MOL0     C 5078   7.257   5.577   8.198  0.1728  0.0659 -0.3779
  762MOL0     C 5079   7.377   5.487   8.213  0.1684 -0.4797  0.1549
  762MOL0     C 5080   7.510   5.553   8.238  0.7671  0.4466  0.1930
  762MOL0     C 5081   7.635   5.461   8.244 -0.4683  1.1793 -0.4610
  762MOL0     C 5082   7.682   5.398   8.117  1.6712  0.3830  0.3289
  762MOL0     C 5083   7.720   5.334   8.019 -1.2580 -0.3026 -0.4598
  762MOL0     C 5084   7.038   5.757   8.266  0.3143  0.0948 -0.6536
  762MOL0     C 5085   6.910   5.817   8.284  1.2736 -0.6612 -0.5728
  762MOL0     C 5086   6.881   5.950   8.216 -0.0281 -0.4227  0.0654
  762MOL0     H 5087   6.438   5.798   8.273  0.6686  0.0525  0.0041
  762MOL0     H 5088   6.202   5.845   8.283  0.3018  0.4621  0.3171
  762MOL0     H 5089   6.011   5.696   8.674  3.2780 -1.7805 -1.8959
  762MOL0     H 5090   5.971   5.654   8.506  4.9957 -1.6869  0.8795
  762MOL0     H 5091   5.832   5.869   8.667 -0.5666 -3.7027  1.8003
  762MOL0     H 5092   5.807   5.836   8.492 -0.7566 -1.5951 -2.0904
  762MOL0     H 5093   5.751   5.602   8.549  2.8829  0.6752  0.1227
  762MOL0     H 5094   5.741   5.652   8.719 -0.7702  2.5584  1.4982
  762MOL0     H 5095   5.549   5.803   8.671  1.5156 -3.7719  3.6943
  762MOL0     H 5096   5.565   5.789   8.501 -0.4994  1.9144  0.3502
  762MOL0     H 5097   5.496   5.570   8.702  2.6092 -0.5961 -0.5382
  762MOL0     H 5098   5.529   5.542   8.527  0.8381 -0.7983  0.4840
  762MOL0     H 5099   5.309   5.730   8.648  2.4135 -0.3762  3.0746
  762MOL0     H 5100   5.353   5.704   8.478 -1.0683  1.6190  1.1880
  762MOL0     H 5101   5.145   5.564   8.607  0.0836  0.8236  0.8612
  762MOL0     H 5102   5.282   5.472   8.662  3.2907  2.0490  0.5906
  762MOL0     H 5103   5.339   5.416   8.429 -0.1072 -0.9039  1.2006
  762MOL0     H 5104   5.185   5.367   8.481  2.3416 -2.1049 -0.0299
  762MOL0     H 5105   4.986   5.610   8.412  0.0588  3.5669 -1.8052
  762MOL0     H 5106   4.854   5.655   8.167 -0.9444  2.2225 -0.2786
  762MOL0     H 5107   4.964   5.701   8.026 -1.0000  0.3549 -0.5539
  762MOL0     H 5108   4.958   5.867   8.274  3.0927  0.8171 -0.6490
  762MOL0     H 5109   5.007   5.909   8.115  2.0695 -2.8960  0.4592
  762MOL0     H 5110   4.759   5.860   8.052  1.6465  0.8417 -0.3748
  762MOL0     H 5111   4.727   5.861   8.229  0.6465  1.5430  0.0765
  762MOL0     H 5112   4.837   6.086   8.257  2.9024 -0.0867 -1.4599
  762MOL0     H 5113   4.849   6.116   8.088 -0.5650  3.4626  2.4574
  762MOL0     H 5114   4.774   6.298   8.017  2.3003 -1.4024  1.3272
  762MOL0     H 5115   4.723   6.612   7.932  4.6369  2.1871 -0.8069
  762MOL0     H 5116   4.861   6.517   7.973 -2.1049 -3.3240 -0.4729
  762MOL0     H 5117   4.796   6.664   8.071 -0.6384 -1.6427  2.7313
  762MOL0     H 5118   4.673   6.910   8.490  0.3644  3.0019  0.8603
  762MOL0     H 5119   4.557   7.118   8.552  2.5622 -3.0727  2.0609
  762MOL0     H 5120   4.208   7.236   8.317 -1.5287 -0.2499  0.1403
  762MOL0     H 5121   4.144   7.189   8.473  0.8240 -4.3921 -2.2501
  762MOL0     H 5122   4.291   7.454   8.419 -0.6399 -1.4031 -2.4248
  762MOL0     H 5123   4.124   7.453   8.410  1.0821  3.1168  1.0912
  762MOL0     H 5124   4.256   7.495   8.644  1.9359 -0.3921 -1.8778
  762MOL0     H 5125   4.230   7.320   8.642 -1.1909 -0.3071 -0.2636
  762MOL0     H 5126   3.982   7.339   8.639 -2.7988  2.7650 -2.4342
  762MOL0     H 5127   3.990   7.507   8.602 -0.7056 -1.1537 -0.7346
  762MOL0     H 5128   4.120   7.386   8.846  1.2373 -0.7892 -2.4690
  762MOL0     H 5129   4.077   7.560   8.823  0.1958 -0.6625  2.2143
  762MOL0     H 5130   3.857   7.354   8.833  1.8653 -1.3801 -0.5325
  762MOL0     H 5131   3.842   7.530   8.842  0.6304 -0.1085 -1.3414
  762MOL0     H 5132   3.994   7.504   9.052 -0.5775  0.2445  1.7016
  762MOL0     H 5133   3.956   7.335   9.053 -1.8827 -1.6304 -2.2800
  762MOL0     H 5134   3.722   7.530   9.052  0.3240  0.0803 -1.2386
  762MOL0     H 5135   3.781   7.449   9.195  0.8119  0.0178 -0.3527
  762MOL0     H 5136   4.214   7.006   8.303  0.2598  0.9221 -1.0203
  762MOL0     H 5137   4.321   6.793   8.264  1.6525  0.5287 -1.6782
  762MOL0     H 5138   4.455   6.460   8.349 -0.9263 -1.4953 -0.1951
  762MOL0     H 5139   4.501   6.219   8.328  0.5189 -1.7296 -1.8301
  762MOL0     H 5140   6.212   5.763   8.713  1.9787  1.3253  1.9108
  762MOL0     H 5141   6.458   5.736   8.692  0.8688 -0.0457 -0.5920
  762MOL0     H 5142   6.786   5.564   8.485  1.7404 -0.1838  1.8117
  762MOL0     H 5143   7.003   5.471   8.452 -1.5035 -0.9685 -0.6962
  762MOL0     H 5144   7.194   5.539   8.118  1.2679 -0.6822 -0.9090
  762MOL0     H 5145   7.293   5.675   8.166 -0.9800  0.3404 -0.8730
  762MOL0     H 5146   7.398   5.446   8.114  1.3876  1.0962 -0.2873
  762MOL0     H 5147   7.345   5.404   8.276  1.3417 -1.1215 -0.0680
  762MOL0     H 5148   7.524   5.634   8.166 -2.5151  0.3811 -0.6622
  762MOL0     H 5149   7.506   5.588   8.342  0.3874  2.3767 -0.4337
  762MOL0     H 5150   7.621   5.379   8.315  0.6487 -0.6316 -2.2150
  762MOL0     H 5151   7.721   5.521   8.275 -0.0736  1.3824 -1.8708
  762MOL0     H 5152   7.762   5.284   7.935 -0.0485 -0.2221  0.0734
  762MOL0     H 5153   7.110   5.817   8.211  1.2803  1.1468  1.6381
  762MOL0     H 5154   6.804   5.937   8.140  0.5613  3.3458 -1.3781
  762MOL0     H 5155   6.845   6.033   8.278 -0.6959  0.5605 -1.5786
  762MOL0     H 5156   6.969   5.994   8.169  0.0705 -0.0200  0.6128
  763MOL0     O 5157  10.449   6.739   3.039 -0.7157 -0.1667 -0.1117
  763MOL0     C 5158  10.417   6.619   3.035 -0.6508  0.4361 -0.4623
  763MOL0     O 5159  10.289   6.572   3.047  0.1776 -0.4383  1.1834
  763MOL0     C 5160  10.181   6.653   3.080 -0.1892  0.2047  0.1791
  763MOL0     C 5161  10.059   6.623   3.018 -0.3420  0.6077  0.6362
  763MOL0     C 5162   9.938   6.688   3.049 -0.4299 -1.1287  0.0494
  763MOL0     C 5163   9.939   6.801   3.137 -0.4563 -0.2893  0.2145
  763MOL0     O 5164   9.832   6.877   3.168  0.2097 -0.2999 -0.5831
  763MOL0     C 5165   9.701   6.820   3.182  0.5393 -0.3631 -0.0059
  763MOL0     C 5166   9.645   6.879   3.313  0.5887 -0.1921 -0.1790
  763MOL0     C 5167   9.499   6.866   3.342  0.1736 -0.3480  0.7168
  763MOL0     C 5168   9.448   6.721   3.375 -0.0946 -0.2304 -0.2133
  763MOL0     C 5169   9.298   6.721   3.373  0.2200 -1.2431 -0.6473
  763MOL0     C 5170   9.234   6.749   3.510  0.1314 -0.4868 -1.3279
  763MOL0     C 5171   9.092   6.691   3.524 -0.0615 -0.3326  1.0865
  763MOL0     C 5172   9.033   6.712   3.665 -0.4206 -0.2035 -0.1071
  763MOL0     N 5173   9.094   6.626   3.770 -1.2097 -0.1537 -0.2751
  763MOL0     C 5174   9.028   6.532   3.838  0.7899  0.4109 -0.9679
  763MOL0     C 5175   9.071   6.538   3.965 -0.3603  0.4213 -0.3541
  763MOL0     C 5176   9.037   6.457   4.091  0.1068 -0.7661  0.9046
  763MOL0     C 5177   8.901   6.507   4.157 -0.5249 -1.1523  0.6524
  763MOL0     C 5178   8.928   6.650   4.224  0.2605  0.4163 -0.0013
  763MOL0     C 5179   8.907   6.761   4.126  0.7709 -0.3396 -1.0560
  763MOL0     O 5180   8.780   6.830   4.140  0.0846 -0.1348 -0.1913
  763MOL0     C 5181   8.767   6.905   4.254 -0.1052  0.1729  0.2391
  763MOL0     C 5182   8.638   6.944   4.291  0.2709  0.5834  0.1721
  763MOL0     C 5183   8.607   7.037   4.396  0.1652  0.3767  0.2613
  763MOL0     C 5184   8.464   7.076   4.414  0.7194 -0.9472  0.2351
  763MOL0     C 5185   8.713   7.091   4.477  0.6445  0.6622 -0.6857
  763MOL0     C 5186   8.684   7.194   4.587 -0.2961 -0.2035  0.5297
  763MOL0     O 5187   8.796   7.215   4.663 -0.3848 -0.0146  0.2851
  763MOL0     C 5188   8.801   7.313   4.753  0.0938  0.9744  0.3465
  763MOL0     C 5189   8.906   7.307   4.844  0.0189  0.1091 -0.0328
  763MOL0     C 5190   8.919   7.410   4.939 -1.0029 -0.3469  0.2985
  763MOL0     C 5191   8.839   7.523   4.936  0.5217  0.1961  0.0499
  763MOL0     O 5192   8.850   7.622   5.022  0.9700 -0.0673 -0.3518
  763MOL0     C 5193   8.735   7.643   5.111 -0.7922  0.1674  0.0985
  763MOL0     C 5194   8.772   7.732   5.235  0.2541  0.4502  0.0305
  763MOL0     C 5195   8.875   7.681   5.337 -0.4933 -0.0332  0.1261
  763MOL0     C 5196   8.811   7.667   5.469 -0.4852 -0.0787 -0.2692
  763MOL0     C 5197   8.891   7.589   5.580 -0.0439  0.1001  0.3499
  763MOL0     C 5198   8.937   7.442   5.569  0.4965  0.1568 -0.5261
  763MOL0     C 5199   8.833   7.357   5.488 -0.3346  0.2576  0.5625
  763MOL0     C 5200   8.817   7.214   5.531  0.4488 -0.6003 -0.5773
  763MOL0    Cl 5201   8.972   7.146   5.603  0.3100  0.1010 -0.4539
  763MOL0     C 5202   8.729   7.523   4.843  0.3480  0.0957  0.2406
  763MOL0     C 5203   8.718   7.426   4.752 -0.2993  0.0515 -0.6803
  763MOL0     O 5204   8.568   7.246   4.603  0.9245 -0.1412 -0.1174
  763MOL0     C 5205   8.840   7.054   4.434  0.3795 -0.4402  0.6185
  763MOL0     C 5206   8.864   6.958   4.332 -1.0485  0.1422  0.1536
  763MOL0     N 5207   9.178   6.628   3.964  0.5181 -0.0526 -0.1995
  763MOL0     N 5208   9.188   6.674   3.848 -0.0418 -0.0781  0.1945
  763MOL0     C 5209  10.063   6.845   3.184  0.1273 -0.3421  0.4336
  763MOL0     C 5210  10.183   6.764   3.169 -0.2961 -0.0918  0.4835
  763MOL0     C 5211  10.510   6.523   2.967 -0.8489  0.1265 -0.3170
  763MOL0     C 5212  10.465   6.419   2.885  0.7283  0.8484 -0.0620
  763MOL0     C 5213  10.547   6.320   2.825  0.8080  1.1008 -0.4936
  763MOL0     C 5214  10.691   6.331   2.855  0.0113 -0.6713 -0.7178
  763MOL0     O 5215  10.790   6.243   2.824  0.1443  0.1973  0.6168
  763MOL0     C 5216  10.755   6.135   2.739 -0.6020  0.0268  1.0227
  763MOL0     C 5217  10.755   6.188   2.590 -0.7840 -0.1976  1.3622
  763MOL0     C 5218  10.879   6.275   2.546 -0.1856 -0.5837 -0.6967
  763MOL0     C 5219  10.900   6.255   2.399 -0.6283  0.3251 -1.2529
  763MOL0     C 5220  10.800   6.327   2.324  0.8862  1.1895  0.0640
  763MOL0     C 5221  10.705   6.387   2.281 -0.3159 -0.1672 -1.0041
  763MOL0     C 5222  10.731   6.446   2.926 -0.6482 -0.1332  0.4834
  763MOL0     C 5223  10.649   6.534   2.985 -0.9094 -0.7417 -1.4540
  763MOL0     C 5224  10.718   6.631   3.079 -0.7786 -0.0353  0.6510
  763MOL0     H 5225  10.045   6.537   2.952  2.4585  1.3937 -1.1372
  763MOL0     H 5226   9.844   6.647   3.014 -1.1234  1.3377 -1.1739
  763MOL0     H 5227   9.696   6.712   3.199 -0.8854 -0.1814  0.8560
  763MOL0     H 5228   9.648   6.842   3.089  0.9019  2.8319  0.4287
  763MOL0     H 5229   9.700   6.832   3.395  2.2922 -1.7783 -2.0886
  763MOL0     H 5230   9.667   6.986   3.315  0.9592 -0.1194  4.8235
  763MOL0     H 5231   9.475   6.933   3.426  3.0942  1.5536  0.1878
  763MOL0     H 5232   9.455   6.895   3.246  4.3478 -2.1441 -1.9747
  763MOL0     H 5233   9.497   6.660   3.298  0.4540  0.3239 -0.3175
  763MOL0     H 5234   9.481   6.689   3.474 -0.6102 -0.5453 -0.1411
  763MOL0     H 5235   9.267   6.619   3.351  1.9171 -2.2839  1.3731
  763MOL0     H 5236   9.248   6.783   3.299 -4.8995  0.4550  3.5953
  763MOL0     H 5237   9.295   6.689   3.578  0.7108 -0.5536 -1.8973
  763MOL0     H 5238   9.224   6.855   3.538  2.4916 -0.0544 -1.9038
  763MOL0     H 5239   9.110   6.584   3.511  3.2207  0.2243  0.2581
  763MOL0     H 5240   9.028   6.744   3.453  1.6259  1.0100  0.4839
  763MOL0     H 5241   9.045   6.817   3.695 -4.0167 -0.0649  1.2674
  763MOL0     H 5242   8.925   6.701   3.669 -0.8511  2.2711 -2.2970
  763MOL0     H 5243   8.933   6.489   3.809 -0.6070  0.2355  3.2170
  763MOL0     H 5244   9.121   6.444   4.159 -1.8516 -2.8170  3.1401
  763MOL0     H 5245   9.014   6.357   4.053  2.5349 -1.0215 -0.0184
  763MOL0     H 5246   8.819   6.513   4.084 -1.9586  1.1070  2.3130
  763MOL0     H 5247   8.864   6.436   4.232  1.0189 -1.7884  0.8268
  763MOL0     H 5248   8.864   6.668   4.311  1.4680 -1.5203  1.3871
  763MOL0     H 5249   9.031   6.665   4.260 -1.0672  2.5587  3.4301
  763MOL0     H 5250   8.991   6.831   4.133 -2.1806  3.5406 -0.7380
  763MOL0     H 5251   8.909   6.724   4.023  2.0005 -0.5870 -0.9638
  763MOL0     H 5252   8.559   6.903   4.229  1.3496 -0.0731 -0.8040
  763MOL0     H 5253   8.453   7.185   4.410 -0.6858 -1.0513 -4.1208
  763MOL0     H 5254   8.424   7.034   4.507 -0.8926  1.1856  0.5791
  763MOL0     H 5255   8.393   7.036   4.341  0.5863  1.7614 -1.2561
  763MOL0     H 5256   8.970   7.219   4.836  0.7423  0.8051 -3.6905
  763MOL0     H 5257   8.988   7.409   5.023  0.6026  1.9007 -0.8901
  763MOL0     H 5258   8.657   7.689   5.050  0.3590  1.4095 -0.5150
  763MOL0     H 5259   8.716   7.541   5.143  3.2651 -0.7191  0.2851
  763MOL0     H 5260   8.802   7.828   5.190 -0.4186 -0.6533 -3.0232
  763MOL0     H 5261   8.674   7.749   5.281  0.6069 -0.5030  1.1691
  763MOL0     H 5262   8.952   7.759   5.342  0.9168 -1.3412 -0.2052
  763MOL0     H 5263   8.916   7.584   5.306 -0.7375 -0.1188  0.0680
  763MOL0     H 5264   8.718   7.612   5.455  0.7745 -2.2175 -0.5257
  763MOL0     H 5265   8.781   7.768   5.499 -0.9171 -0.4000  0.3961
  763MOL0     H 5266   8.973   7.653   5.612 -0.7119  1.0549  0.1961
  763MOL0     H 5267   8.816   7.594   5.660 -1.1550  4.2912 -0.7018
  763MOL0     H 5268   8.947   7.406   5.672 -3.4018  3.8245  1.4372
  763MOL0     H 5269   9.035   7.443   5.522  0.9684  0.6703  0.4311
  763MOL0     H 5270   8.858   7.348   5.382 -1.8068 -3.9538  0.4077
  763MOL0     H 5271   8.731   7.395   5.503 -0.6996 -0.7300  0.6318
  763MOL0     H 5272   8.795   7.157   5.440  1.6237 -0.5698 -0.8908
  763MOL0     H 5273   8.731   7.203   5.598 -2.1263 -2.4471 -3.8691
  763MOL0     H 5274   8.656   7.603   4.834 -1.8147 -1.7449  0.2582
  763MOL0     H 5275   8.637   7.456   4.685 -1.3700  1.3767  1.1160
  763MOL0     H 5276   8.927   7.090   4.488 -0.4136  1.6005  0.6319
  763MOL0     H 5277   8.971   6.950   4.313 -0.1530 -1.2381  4.5985
  763MOL0     H 5278  10.068   6.937   3.241 -1.2684  0.6534 -0.9676
  763MOL0     H 5279  10.274   6.802   3.216 -0.8837  0.6901  1.0122
  763MOL0     H 5280  10.359   6.401   2.871  1.3450 -4.0272 -0.3439
  763MOL0     H 5281  10.513   6.232   2.771  1.2296 -0.1284  1.1822
  763MOL0     H 5282  10.837   6.064   2.757 -0.9741 -0.6988 -0.0425
  763MOL0     H 5283  10.662   6.080   2.755  0.6435 -2.4455  0.2080
  763MOL0     H 5284  10.676   6.263   2.575  1.4726  2.1729  0.4437
  763MOL0     H 5285  10.747   6.098   2.528  0.0686  0.7234 -0.1560
  763MOL0     H 5286  10.860   6.381   2.560 -0.0669 -0.3663 -2.0945
  763MOL0     H 5287  10.969   6.248   2.602 -0.3741  0.3808  0.0881
  763MOL0     H 5288  10.904   6.149   2.372  0.4037 -0.0061  0.1184
  763MOL0     H 5289  11.001   6.297   2.393 -0.3526  0.2367  1.4599
  763MOL0     H 5290  10.618   6.423   2.229  0.8870  0.9905 -2.2852
  763MOL0     H 5291  10.839   6.451   2.941 -0.5714  0.0030 -0.0755
  763MOL0     H 5292  10.818   6.594   3.099 -0.8894 -1.4336 -1.1071
  763MOL0     H 5293  10.708   6.734   3.043  0.1253 -0.1018  0.1951
  763MOL0     H 5294  10.668   6.617   3.175 -0.6274 -0.5289  0.6615
  764MOL0     O 5295   1.073   7.138   2.756  0.3803 -0.4762  0.0846
  764MOL0     C 5296   1.104   7.127   2.878 -0.4582  1.0958 -0.0437
  764MOL0     O 5297   1.018   7.116   2.978  0.0074 -0.0778 -0.2629
  764MOL0     C 5298   0.887   7.116   2.950  0.2087  0.1886 -0.6647
  764MOL0     C 5299   0.830   7.011   2.878 -0.0466  0.6363  0.4185
  764MOL0     C 5300   0.692   6.998   2.848  0.3454  0.0306  0.1914
  764MOL0     C 5301   0.609   7.103   2.888 -0.3687 -0.3123 -0.5377
  764MOL0     O 5302   0.478   7.099   2.862 -0.0355  0.1306 -0.0924
  764MOL0     C 5303   0.412   7.216   2.825 -0.6033 -0.7513  0.5648
  764MOL0     C 5304   0.265   7.182   2.811  0.8745 -1.3423  0.1484
  764MOL0     C 5305   0.180   7.252   2.921  0.2792 -0.3207  0.3518
  764MOL0     C 5306   0.026   7.259   2.903 -0.0990 -0.2610 -0.2194
  764MOL0     C 5307  -0.065   7.298   3.025  0.3381  0.1779 -0.0451
  764MOL0     C 5308   0.001   7.418   3.098 -0.5226  0.2112  0.5260
  764MOL0     C 5309  -0.091   7.495   3.204  0.1847  0.5236  0.4268
  764MOL0     C 5310  -0.016   7.621   3.261  0.3522 -0.1988  0.1119
  764MOL0     N 5311  -0.091   7.708   3.343 -0.1742 -0.1410  0.0182
  764MOL0     C 5312  -0.036   7.782   3.445  0.4006  1.0318  0.3965
  764MOL0     C 5313  -0.140   7.809   3.528  0.3339 -0.5734 -0.2156
  764MOL0     C 5314  -0.159   7.890   3.656 -0.2140 -0.4055  0.5303
  764MOL0     C 5315  -0.173   7.794   3.782 -0.4857  0.0440  0.0188
  764MOL0     C 5316  -0.150   7.861   3.918  1.1368  0.4755  0.0669
  764MOL0     C 5317  -0.192   7.771   4.028 -0.6304  0.5379  0.4205
  764MOL0     O 5318  -0.162   7.830   4.156 -0.3712  0.2896 -0.2963
  764MOL0     C 5319  -0.169   7.757   4.274  0.0114  0.7854 -0.0000
  764MOL0     C 5320  -0.125   7.820   4.395 -0.8239  0.1701  0.3576
  764MOL0     C 5321  -0.140   7.753   4.522 -0.1204  0.6936  0.9058
  764MOL0     C 5322  -0.082   7.821   4.637  0.1640  0.6837 -0.4972
  764MOL0     C 5323  -0.188   7.625   4.528 -0.0228 -0.0985 -0.3187
  764MOL0     C 5324  -0.200   7.553   4.657 -0.2530 -0.4472 -1.0108
  764MOL0     O 5325  -0.133   7.440   4.675 -0.1068  0.3115 -0.5837
  764MOL0     C 5326  -0.146   7.370   4.794 -0.4840  0.7973 -0.3990
  764MOL0     C 5327  -0.078   7.404   4.916 -0.0109  0.3836  0.5871
  764MOL0     C 5328  -0.087   7.323   5.029 -0.3540 -0.8777 -0.0669
  764MOL0     C 5329  -0.134   7.193   5.021  0.2054 -0.1198  1.1966
  764MOL0     O 5330  -0.127   7.101   5.121  0.1501  0.3109 -0.1167
  764MOL0     C 5331  -0.083   7.137   5.252  0.0911  0.2267  0.2875
  764MOL0     C 5332  -0.197   7.215   5.313  0.2536 -0.7972  0.1478
  764MOL0     C 5333  -0.337   7.171   5.279  0.5362  0.2355  0.0020
  764MOL0     C 5334  -0.443   7.232   5.372 -0.6102 -1.5099 -0.1847
  764MOL0     C 5335  -0.577   7.213   5.324 -0.0213 -1.5513  0.3347
  764MOL0     C 5336  -0.675   7.185   5.427  0.7675 -0.1246  0.2569
  764MOL0     C 5337  -0.821   7.193   5.382 -1.0680  0.9328 -1.5102
  764MOL0     C 5338  -0.916   7.221   5.513 -0.6359 -0.1710  0.4297
  764MOL0    Cl 5339  -0.909   7.073   5.617 -0.1701 -0.3567 -0.0141
  764MOL0     C 5340  -0.209   7.170   4.902 -0.2544  0.9591 -0.5383
  764MOL0     C 5341  -0.217   7.247   4.793  0.2470 -0.5974 -0.3541
  764MOL0     O 5342  -0.282   7.605   4.740  0.5221 -0.7638 -0.9178
  764MOL0     C 5343  -0.232   7.569   4.408 -1.0611  0.0095 -0.5923
  764MOL0     C 5344  -0.226   7.627   4.285  0.1684 -0.8676 -0.3058
  764MOL0     N 5345  -0.259   7.765   3.468  0.4867 -0.2072 -0.6949
  764MOL0     N 5346  -0.231   7.701   3.358 -0.3801 -0.3132 -0.7082
  764MOL0     C 5347   0.676   7.221   2.938  1.0920 -0.2356  0.2180
  764MOL0     C 5348   0.809   7.220   2.972  0.1638  0.1932 -0.0869
  764MOL0     C 5349   1.245   7.147   2.917  0.3098 -0.2920 -0.0521
  764MOL0     C 5350   1.312   7.255   2.861 -0.0818 -0.6136 -0.8152
  764MOL0     C 5351   1.441   7.291   2.904 -0.0610  0.3185 -0.0709
  764MOL0     C 5352   1.504   7.218   3.005 -0.1490 -1.6835  0.4611
  764MOL0     O 5353   1.630   7.247   3.049  0.0767  0.3589  0.4170
  764MOL0     C 5354   1.708   7.130   3.072  0.1549 -0.1558 -0.1991
  764MOL0     C 5355   1.858   7.155   3.055 -0.1449  0.4077 -0.4930
  764MOL0     C 5356   1.895   7.214   2.910  0.3433  0.6591  0.2317
  764MOL0     C 5357   2.004   7.327   2.917  0.1826 -0.2112 -0.2996
  764MOL0     C 5358   2.132   7.268   2.932 -0.2311  0.4297 -0.3222
  764MOL0     C 5359   2.253   7.238   2.952 -0.1857 -0.3876 -0.0019
  764MOL0     C 5360   1.434   7.122   3.069  0.1772  0.9554  0.2673
  764MOL0     C 5361   1.309   7.077   3.022 -0.1195  0.5633 -1.0267
  764MOL0     C 5362   1.246   6.960   3.107 -0.2390 -0.2807 -0.5913
  764MOL0     H 5363   0.894   6.947   2.818 -1.4580  2.3724 -3.2427
  764MOL0     H 5364   0.650   6.907   2.804 -1.0323  1.9145 -2.7104
  764MOL0     H 5365   0.446   7.256   2.729 -0.2027  0.4343  1.1793
  764MOL0     H 5366   0.429   7.302   2.890 -1.2271  1.1944 -1.6841
  764MOL0     H 5367   0.230   7.237   2.723 -0.0284 -2.6353 -0.3325
  764MOL0     H 5368   0.238   7.076   2.803 -1.6327 -0.6253 -2.8298
  764MOL0     H 5369   0.191   7.198   3.015  2.1683 -1.8146 -0.6644
  764MOL0     H 5370   0.218   7.353   2.941  0.4736 -0.4808  0.7952
  764MOL0     H 5371   0.018   7.347   2.838  0.2067  2.1259  2.7402
  764MOL0     H 5372  -0.010   7.166   2.859 -0.5618 -0.6348  0.9074
  764MOL0     H 5373  -0.068   7.213   3.094 -0.0393  1.3288  1.4015
  764MOL0     H 5374  -0.168   7.326   3.005 -0.6469 -3.1239 -0.1099
  764MOL0     H 5375   0.100   7.394   3.137 -0.5168 -1.0585 -0.2197
  764MOL0     H 5376   0.018   7.489   3.016 -2.1870 -1.7176 -1.6281
  764MOL0     H 5377  -0.118   7.427   3.286  2.9614 -0.8492  0.3130
  764MOL0     H 5378  -0.185   7.529   3.159  0.3252  1.1861  0.6247
  764MOL0     H 5379   0.066   7.596   3.329 -0.7159  2.0009  2.3449
  764MOL0     H 5380   0.009   7.679   3.172  1.6713  1.6929  1.6167
  764MOL0     H 5381   0.066   7.813   3.464  0.9033  1.3303 -2.3855
  764MOL0     H 5382  -0.251   7.947   3.642  1.2940  1.9812 -0.2724
  764MOL0     H 5383  -0.077   7.963   3.666 -0.9537  0.7461 -1.3750
  764MOL0     H 5384  -0.269   7.750   3.755  0.4146 -1.3251 -1.0884
  764MOL0     H 5385  -0.104   7.709   3.777 -2.2805 -1.4081 -3.0108
  764MOL0     H 5386  -0.045   7.883   3.938  1.1473 -1.3588  2.3767
  764MOL0     H 5387  -0.204   7.957   3.913 -0.5777 -0.4970 -1.0299
  764MOL0     H 5388  -0.299   7.749   4.022 -0.5633 -0.4802  2.2709
  764MOL0     H 5389  -0.142   7.674   4.016  0.3992  1.2410 -1.3124
  764MOL0     H 5390  -0.084   7.921   4.393  0.0532 -0.1769 -0.5123
  764MOL0     H 5391  -0.154   7.895   4.673 -1.0510 -0.9391  0.5436
  764MOL0     H 5392   0.011   7.873   4.611  0.6646 -1.3728 -3.2346
  764MOL0     H 5393  -0.057   7.754   4.720 -1.9560 -1.2177 -1.2726
  764MOL0     H 5394  -0.026   7.499   4.912 -0.1648  0.4506 -2.2053
  764MOL0     H 5395  -0.038   7.353   5.120 -3.9298 -2.0633  2.4732
  764MOL0     H 5396  -0.074   7.044   5.308 -0.8194 -2.3622 -3.5522
  764MOL0     H 5397   0.010   7.196   5.242 -0.6468  1.7114  1.6085
  764MOL0     H 5398  -0.189   7.211   5.422 -1.8999  1.5982  0.4736
  764MOL0     H 5399  -0.186   7.320   5.286  0.9687 -0.3122  2.1652
  764MOL0     H 5400  -0.345   7.063   5.288  1.1091  0.1724 -0.1650
  764MOL0     H 5401  -0.367   7.207   5.181  0.9991 -0.6252 -0.4656
  764MOL0     H 5402  -0.429   7.341   5.372  0.5980 -1.6477 -1.3305
  764MOL0     H 5403  -0.422   7.194   5.472  3.1683 -0.5748 -0.4715
  764MOL0     H 5404  -0.619   7.307   5.288 -0.2900 -0.9330  2.1602
  764MOL0     H 5405  -0.579   7.139   5.244  1.5545  0.8821 -2.1514
  764MOL0     H 5406  -0.659   7.265   5.499  1.1452  0.3140 -0.2998
  764MOL0     H 5407  -0.652   7.084   5.463  3.7855  1.0476  1.9678
  764MOL0     H 5408  -0.845   7.097   5.334 -0.3666  0.4210 -0.8684
  764MOL0     H 5409  -0.840   7.263   5.300 -0.2024  0.1397 -2.4097
  764MOL0     H 5410  -1.020   7.226   5.479 -0.2060  0.0789 -0.9123
  764MOL0     H 5411  -0.884   7.312   5.564  4.0255 -1.6720  0.5945
  764MOL0     H 5412  -0.265   7.077   4.895 -2.7506  1.8214  3.9023
  764MOL0     H 5413  -0.277   7.216   4.708 -1.7204 -1.8114  1.3958
  764MOL0     H 5414  -0.293   7.479   4.409 -2.9710  1.2551  0.1778
  764MOL0     H 5415  -0.265   7.582   4.194 -1.8782  0.1615  0.0013
  764MOL0     H 5416   0.620   7.310   2.966  2.9142  0.5601  1.5156
  764MOL0     H 5417   0.844   7.306   3.028 -0.5278  1.1998 -1.1651
  764MOL0     H 5418   1.266   7.321   2.787  0.9218  0.8524 -0.1946
  764MOL0     H 5419   1.504   7.362   2.851  0.0346  0.1677 -0.1606
  764MOL0     H 5420   1.685   7.104   3.176 -0.5735 -0.2221 -0.3706
  764MOL0     H 5421   1.668   7.046   3.014  0.2234 -2.0665  2.3412
  764MOL0     H 5422   1.911   7.064   3.085  0.3252  0.3988 -1.3486
  764MOL0     H 5423   1.894   7.233   3.122 -3.0011  2.6921 -1.3898
  764MOL0     H 5424   1.938   7.124   2.865 -1.4535  0.0907 -0.4454
  764MOL0     H 5425   1.803   7.244   2.860 -0.9384  2.6452  3.4397
  764MOL0     H 5426   1.984   7.395   3.000 -2.0480  0.1242 -1.0366
  764MOL0     H 5427   2.003   7.379   2.821 -0.6921  1.6233  0.6577
  764MOL0     H 5428   2.358   7.226   2.966  0.2035  3.2960  1.2105
  764MOL0     H 5429   1.473   7.065   3.153 -0.4654 -1.0526 -0.7361
  764MOL0     H 5430   1.300   6.953   3.202 -0.8555 -0.9078 -0.2772
  764MOL0     H 5431   1.138   6.958   3.120 -0.1504  0.2049  0.3036
  764MOL0     H 5432   1.261   6.863   3.059  2.0712  0.7082 -2.0530
  765MOL0     O 5433   1.963  10.169   7.467  0.7420 -0.3225  0.2451
  765MOL0     C 5434   1.889  10.113   7.551 -0.5690 -0.3595  0.9887
  765MOL0     O 5435   1.928  10.003   7.635 -0.6039 -0.0134 -0.1155
  765MOL0     C 5436   2.052   9.946   7.606  0.7874 -0.3507  0.0721
  765MOL0     C 5437   2.089   9.903   7.476  0.1212  0.3839  0.6735
  765MOL0     C 5438   2.218   9.858   7.456 -0.0430  0.5011  0.1384
  765MOL0     C 5439   2.313   9.856   7.566 -0.5845 -0.5621  0.0892
  765MOL0     O 5440   2.427   9.810   7.515 -0.5097 -0.7831  0.4117
  765MOL0     C 5441   2.522   9.759   7.610  0.1373  0.4824  0.9033
  765MOL0     C 5442   2.633   9.703   7.532 -0.0799  0.0612  0.2100
  765MOL0     C 5443   2.729   9.818   7.484  0.2466  0.2590 -0.6510
  765MOL0     C 5444   2.766   9.914   7.595  0.0668 -0.3566  0.5158
  765MOL0     C 5445   2.865  10.020   7.545 -0.5142  0.2882 -0.9151
  765MOL0     C 5446   2.814  10.125   7.449 -0.4561 -0.1113 -0.9442
  765MOL0     C 5447   2.919  10.223   7.427 -0.2843 -0.7071 -0.3396
  765MOL0     C 5448   2.894  10.329   7.324  0.8615  0.3294 -0.2403
  765MOL0     N 5449   2.912  10.289   7.180  0.4683 -0.7801 -0.2512
  765MOL0     C 5450   3.032  10.242   7.121  0.6655 -0.2768 -1.1810
  765MOL0     C 5451   3.002  10.172   7.005  0.2418 -0.1255 -0.2900
  765MOL0     C 5452   3.095  10.108   6.904 -0.5352 -0.8135 -0.4964
  765MOL0     C 5453   3.217  10.204   6.877 -0.5660 -0.1807  1.1792
  765MOL0     C 5454   3.328  10.133   6.791 -0.0533 -0.3345 -0.8053
  765MOL0     C 5455   3.269  10.085   6.656 -0.6783 -0.1134 -0.1276
  765MOL0     O 5456   3.366  10.017   6.582  0.3534  0.0334  0.6666
  765MOL0     C 5457   3.423  10.085   6.479  0.0653 -0.5062  1.0106
  765MOL0     C 5458   3.429  10.226   6.469 -0.1478  0.5497  0.2511
  765MOL0     C 5459   3.500  10.280   6.364  0.3147 -0.1271  0.2848
  765MOL0     C 5460   3.512  10.430   6.363 -0.6778  0.0999  0.9156
  765MOL0     C 5461   3.554  10.202   6.255  0.0270 -0.3192 -0.1989
  765MOL0     C 5462   3.635  10.265   6.142  1.1798 -0.0327  0.1951
  765MOL0     O 5463   3.622  10.388   6.102 -0.4973 -0.3459  0.3989
  765MOL0     C 5464   3.690  10.438   5.997  0.6620 -0.4659  0.9459
  765MOL0     C 5465   3.607  10.505   5.904 -0.5693 -0.5526 -0.8978
  765MOL0     C 5466   3.651  10.562   5.781 -0.1440  1.5582 -0.9999
  765MOL0     C 5467   3.779  10.535   5.747  0.7209 -0.8896  0.0570
  765MOL0     O 5468   3.813  10.602   5.624 -0.2787  0.6338  0.3879
  765MOL0     C 5469   3.926  10.538   5.546  1.7176  0.3225 -0.8328
  765MOL0     C 5470   3.916  10.583   5.406 -0.0407 -0.3173  0.8716
  765MOL0     C 5471   3.783  10.551   5.341 -0.7709 -0.4682  0.8911
  765MOL0     C 5472   3.776  10.569   5.189 -0.3608 -0.0759 -0.2884
  765MOL0     C 5473   3.650  10.508   5.129 -0.4889  0.1287  0.3624
  765MOL0     C 5474   3.670  10.486   4.977  0.3385 -0.4226 -0.2405
  765MOL0     C 5475   3.708  10.612   4.908 -0.4639 -0.1289  0.0489
  765MOL0     C 5476   3.639  10.614   4.764  0.0533  0.1890  0.1239
  765MOL0    Cl 5477   3.449  10.658   4.762 -0.5193  0.0486  0.1954
  765MOL0     C 5478   3.868  10.481   5.841 -0.2974  0.7210  0.7652
  765MOL0     C 5479   3.825  10.434   5.963 -0.1346  1.0588 -0.5824
  765MOL0     O 5480   3.712  10.185   6.083  0.2223 -0.7942 -0.3035
  765MOL0     C 5481   3.546  10.064   6.273 -0.2657  1.3866  0.1780
  765MOL0     C 5482   3.487  10.006   6.383 -0.2840 -1.4618  0.2688
  765MOL0     N 5483   2.865  10.182   6.988  0.1064  0.4236 -0.8484
  765MOL0     N 5484   2.809  10.243   7.095 -0.2536  0.0162  0.2735
  765MOL0     C 5485   2.277   9.888   7.695  1.0938 -0.7784  0.1683
  765MOL0     C 5486   2.144   9.935   7.711  1.1525 -0.5477 -0.0368
  765MOL0     C 5487   1.746  10.183   7.559 -0.6025  0.0128 -1.4541
  765MOL0     C 5488   1.724  10.305   7.498 -0.4797 -1.5280 -0.9196
  765MOL0     C 5489   1.599  10.375   7.517 -1.7320 -0.2033  0.1233
  765MOL0     C 5490   1.498  10.323   7.602 -0.3170  0.7475 -1.1977
  765MOL0     O 5491   1.390  10.387   7.644  0.3845 -0.2514 -0.0274
  765MOL0     C 5492   1.364  10.520   7.607 -0.7444  0.1689 -0.2568
  765MOL0     C 5493   1.437  10.603   7.705 -0.4715  0.2946 -0.3079
  765MOL0     C 5494   1.415  10.567   7.849 -0.3404 -0.3260  0.2000
  765MOL0     C 5495   1.272  10.566   7.886  0.5772 -0.4061 -0.8762
  765MOL0     C 5496   1.200  10.689   7.847 -0.1326  0.2618 -0.0244
  765MOL0     C 5497   1.141  10.800   7.834  1.2083  0.6028 -0.8550
  765MOL0     C 5498   1.524  10.201   7.650 -0.0440  0.3760 -0.2877
  765MOL0     C 5499   1.640  10.131   7.634 -0.1184  0.2920  0.2552
  765MOL0     C 5500   1.649  10.002   7.709  0.2495  0.5526 -0.6751
  765MOL0     H 5501   2.002   9.903   7.411 -1.5138  1.1243  2.7314
  765MOL0     H 5502   2.265   9.814   7.369  1.5650  0.0635  1.1847
  765MOL0     H 5503   2.471   9.683   7.670 -2.1696 -2.0783 -3.8064
  765MOL0     H 5504   2.554   9.836   7.681  2.0672 -0.4939  1.1686
  765MOL0     H 5505   2.695   9.641   7.598 -0.8125  0.3914  1.2419
  765MOL0     H 5506   2.598   9.641   7.450  1.0371  0.0827 -0.3094
  765MOL0     H 5507   2.817   9.773   7.437 -2.0608 -4.0433 -1.4491
  765MOL0     H 5508   2.679   9.879   7.408 -1.7525  0.3376  0.6524
  765MOL0     H 5509   2.693   9.979   7.643  0.9861  1.6714 -0.6987
  765MOL0     H 5510   2.806   9.859   7.680  0.6268  1.2790  1.3495
  765MOL0     H 5511   2.946   9.968   7.492  0.2923  0.9203 -0.3252
  765MOL0     H 5512   2.918  10.055   7.634  1.7992 -1.9668 -1.3024
  765MOL0     H 5513   2.805  10.071   7.354 -0.4898 -0.4264 -0.7635
  765MOL0     H 5514   2.717  10.165   7.477  0.6739  0.3358  2.7725
  765MOL0     H 5515   3.005  10.167   7.389  0.5118  2.3262 -3.5648
  765MOL0     H 5516   2.941  10.283   7.515  3.8939  0.9911 -2.2775
  765MOL0     H 5517   2.791  10.363   7.339  0.4196 -0.1928 -1.8805
  765MOL0     H 5518   2.959  10.416   7.333  1.4460  0.4828 -4.0918
  765MOL0     H 5519   3.127  10.259   7.171 -1.6169  3.7283  2.4887
  765MOL0     H 5520   3.036  10.086   6.815 -0.4360 -0.8433 -0.5551
  765MOL0     H 5521   3.139  10.014   6.938  3.4370  0.6733 -1.0907
  765MOL0     H 5522   3.176  10.287   6.819 -2.2533 -2.0015 -0.4224
  765MOL0     H 5523   3.257  10.244   6.970 -0.5261 -0.3152  1.2202
  765MOL0     H 5524   3.411  10.203   6.803 -0.1963 -0.0445 -1.4441
  765MOL0     H 5525   3.352  10.035   6.834  0.4083 -0.7234 -1.8984
  765MOL0     H 5526   3.179  10.027   6.674 -1.0135  0.2199 -0.6803
  765MOL0     H 5527   3.232  10.168   6.594  1.2911  2.1139  1.4820
  765MOL0     H 5528   3.378  10.288   6.542 -1.7536  0.6653 -0.9001
  765MOL0     H 5529   3.463  10.475   6.276 -1.2509  1.5057  1.9280
  765MOL0     H 5530   3.616  10.460   6.379  0.2301 -1.5362 -1.3993
  765MOL0     H 5531   3.441  10.457   6.442  0.0638 -1.9719  2.3916
  765MOL0     H 5532   3.504  10.518   5.937 -0.3856 -1.3594  0.0294
  765MOL0     H 5533   3.588  10.607   5.705 -1.2845 -1.4353 -1.9730
  765MOL0     H 5534   4.027  10.555   5.585  0.8823 -0.4651  1.8863
  765MOL0     H 5535   3.906  10.432   5.566 -1.9157  1.2757  1.5183
  765MOL0     H 5536   3.932  10.691   5.415 -2.7098  0.0297  2.2138
  765MOL0     H 5537   3.992  10.539   5.340 -1.7196  0.5013 -1.7485
  765MOL0     H 5538   3.706  10.606   5.396  1.6059  2.3872  1.6127
  765MOL0     H 5539   3.762  10.445   5.360 -2.8822 -0.1437  0.6625
  765MOL0     H 5540   3.869  10.520   5.157  0.5844 -0.6990  3.0412
  765MOL0     H 5541   3.781  10.672   5.153 -0.8492 -0.0523 -0.2837
  765MOL0     H 5542   3.637  10.417   5.187 -0.2952 -1.7489 -2.3591
  765MOL0     H 5543   3.555  10.562   5.137  0.0024  0.7758  2.5008
  765MOL0     H 5544   3.569  10.455   4.951 -0.8935 -1.2028  4.4694
  765MOL0     H 5545   3.742  10.406   4.958 -1.5019 -2.3324  0.5310
  765MOL0     H 5546   3.817  10.616   4.899 -0.4154 -2.3047 -0.8106
  765MOL0     H 5547   3.669  10.700   4.960 -1.2085  0.8224 -2.0120
  765MOL0     H 5548   3.665  10.517   4.721  2.4798  0.9688 -0.3482
  765MOL0     H 5549   3.692  10.685   4.700  0.6887  1.1727  1.6827
  765MOL0     H 5550   3.975  10.485   5.822 -0.3898  1.3113  0.3244
  765MOL0     H 5551   3.903  10.404   6.032 -1.9926 -4.2638 -0.2827
  765MOL0     H 5552   3.598  10.006   6.197  4.0610  0.5073  3.4389
  765MOL0     H 5553   3.492   9.898   6.389 -0.8119 -1.5687 -0.8839
  765MOL0     H 5554   2.345   9.897   7.780  0.6592  2.5977  0.2940
  765MOL0     H 5555   2.107   9.964   7.809  0.0155 -0.6098 -0.4330
  765MOL0     H 5556   1.805  10.349   7.441  0.0940 -1.7266 -0.2739
  765MOL0     H 5557   1.583  10.468   7.462 -0.2845 -0.0106  0.0084
  765MOL0     H 5558   1.396  10.542   7.504  3.0051 -2.9068  0.0298
  765MOL0     H 5559   1.258  10.544   7.603 -2.0163 -3.4828  3.7243
  765MOL0     H 5560   1.418  10.707   7.676 -0.3042 -0.4074 -3.2513
  765MOL0     H 5561   1.544  10.584   7.692 -0.7464 -1.2348 -0.5267
  765MOL0     H 5562   1.469  10.473   7.866 -1.1986 -0.7359  0.7067
  765MOL0     H 5563   1.459  10.649   7.906  0.0130  0.4092 -1.0942
  765MOL0     H 5564   1.262  10.559   7.995  0.2515  0.0204 -0.8752
  765MOL0     H 5565   1.222  10.482   7.837  0.0255 -1.9692  2.1226
  765MOL0     H 5566   1.086  10.891   7.824 -0.4931 -0.0604  1.5659
  765MOL0     H 5567   1.451  10.179   7.726 -0.9876  1.3214 -0.8966
  765MOL0     H 5568   1.550   9.963   7.735 -0.2357 -0.4100 -3.5566
  765MOL0     H 5569   1.700   9.919   7.658 -0.1571 -2.7288  3.6959
  765MOL0     H 5570   1.710  10.003   7.799  1.2179 -0.1891 -1.3002
  766MOL0     O 5571   9.705   8.379   3.296 -0.2214 -0.9699  0.1893
  766MOL0     C 5572   9.810   8.316   3.280 -0.2548  0.1931 -0.4841
  766MOL0     O 5573   9.846   8.250   3.164  0.7827 -0.2352  0.0750
  766MOL0     C 5574   9.788   8.302   3.045 -0.5567 -0.0210  0.1743
  766MOL0     C 5575   9.728   8.224   2.950  0.5649  0.2111 -0.2693
  766MOL0     C 5576   9.676   8.284   2.835  0.0716 -0.1343 -0.4157
  766MOL0     C 5577   9.686   8.424   2.810 -0.1118  1.6602 -0.1193
  766MOL0     O 5578   9.642   8.482   2.694  0.1067  0.4483 -0.2090
  766MOL0     C 5579   9.536   8.409   2.628 -0.5813 -0.2036  0.6466
  766MOL0     C 5580   9.479   8.505   2.520  0.0343  1.0525 -0.0562
  766MOL0     C 5581   9.396   8.425   2.417 -0.2269  0.2456  1.2553
  766MOL0     C 5582   9.327   8.525   2.321 -0.0428 -0.0641 -0.1245
  766MOL0     C 5583   9.247   8.451   2.210  0.7218  0.5508 -0.4420
  766MOL0     C 5584   9.218   8.529   2.091  0.3903 -0.3383  0.3045
  766MOL0     C 5585   9.161   8.435   1.981  0.1379 -0.1784 -0.3837
  766MOL0     C 5586   9.130   8.505   1.857  0.8558  0.4579  0.0781
  766MOL0     N 5587   9.030   8.443   1.775  0.9223  0.7050 -0.5917
  766MOL0     C 5588   9.060   8.334   1.701 -0.9506  0.2467 -0.6870
  766MOL0     C 5589   8.958   8.321   1.608  1.2058  0.8564  0.5269
  766MOL0     C 5590   8.927   8.213   1.507 -0.7934 -0.2018  0.2847
  766MOL0     C 5591   8.793   8.149   1.534  0.0609  0.8035  1.2105
  766MOL0     C 5592   8.765   8.028   1.452  0.2985 -0.8439  0.4048
  766MOL0     C 5593   8.867   7.914   1.455  0.5660 -0.1796 -0.4952
  766MOL0     O 5594   8.882   7.866   1.586 -0.4151 -0.1333 -0.2151
  766MOL0     C 5595   8.986   7.786   1.619  1.1308  0.8495  0.1476
  766MOL0     C 5596   9.035   7.794   1.743  0.0662 -0.6285 -0.2044
  766MOL0     C 5597   9.144   7.710   1.801  0.4082 -0.2858 -0.4642
  766MOL0     C 5598   9.159   7.715   1.951 -0.4734  0.5884 -0.3225
  766MOL0     C 5599   9.214   7.631   1.705  1.0429 -0.5683  0.7561
  766MOL0     C 5600   9.340   7.555   1.734  0.5780 -0.3444 -0.0481
  766MOL0     O 5601   9.430   7.613   1.813  0.6988 -0.1656 -0.0770
  766MOL0     C 5602   9.549   7.553   1.857 -0.0938 -0.0150  0.4623
  766MOL0     C 5603   9.566   7.415   1.891  0.6915  0.0991  0.6242
  766MOL0     C 5604   9.691   7.365   1.930  0.4115  0.8654 -0.3720
  766MOL0     C 5605   9.796   7.449   1.946 -0.2446 -0.5058  0.6392
  766MOL0     O 5606   9.914   7.392   1.989  0.2512 -0.5053  0.7188
  766MOL0     C 5607  10.033   7.454   1.954 -1.7521 -1.0348 -0.0107
  766MOL0     C 5608  10.146   7.363   2.003 -0.1558 -0.1235 -1.4124
  766MOL0     C 5609  10.146   7.226   1.932 -0.4603  0.3948  0.9692
  766MOL0     C 5610  10.281   7.158   1.965  0.2409 -0.8440 -0.0900
  766MOL0     C 5611  10.327   7.054   1.876  0.2968 -0.1506  0.3502
  766MOL0     C 5612  10.257   6.920   1.911  0.0924  0.2322  0.3489
  766MOL0     C 5613  10.274   6.823   1.799 -0.1979  0.9389  0.1452
  766MOL0     C 5614  10.239   6.680   1.848 -0.4152  0.1888  0.4337
  766MOL0    Cl 5615  10.078   6.669   1.928 -0.1217  0.0007  0.2309
  766MOL0     C 5616   9.784   7.587   1.907 -0.1832 -1.2533  0.4145
  766MOL0     C 5617   9.667   7.639   1.871 -0.2098 -0.5451  0.3133
  766MOL0     O 5618   9.355   7.451   1.675  0.1174  0.3893 -1.1151
  766MOL0     C 5619   9.152   7.628   1.573 -1.0758  0.8329 -0.1197
  766MOL0     C 5620   9.042   7.693   1.542 -0.2225 -0.6554  0.8922
  766MOL0     N 5621   8.868   8.427   1.637 -0.0818  0.4548 -0.4022
  766MOL0     N 5622   8.910   8.489   1.743 -0.3081  0.3189 -0.9748
  766MOL0     C 5623   9.750   8.502   2.904 -0.5021 -0.5158  1.0296
  766MOL0     C 5624   9.794   8.449   3.023  0.0089  0.6192 -0.5121
  766MOL0     C 5625   9.877   8.273   3.412  0.1380 -0.0090 -0.4534
  766MOL0     C 5626   9.957   8.162   3.414  1.6639 -0.3663 -0.0113
  766MOL0     C 5627  10.010   8.116   3.532 -0.0763 -0.8919  0.3867
  766MOL0     C 5628   9.994   8.178   3.650 -0.0722 -0.9414 -0.4080
  766MOL0     O 5629  10.035   8.130   3.770 -0.8186  0.1443 -0.0546
  766MOL0     C 5630  10.154   8.053   3.777  0.4219  0.4545 -0.2729
  766MOL0     C 5631  10.130   7.922   3.859 -0.0754  0.3703  0.8206
  766MOL0     C 5632  10.052   7.948   3.990  0.7063 -0.1114 -0.3676
  766MOL0     C 5633  10.004   7.828   4.074  0.0672  0.6020  1.5004
  766MOL0     C 5634   9.899   7.759   4.001  0.3680  0.2174  0.0820
  766MOL0     C 5635   9.814   7.717   3.930 -0.1075 -0.7232  0.3566
  766MOL0     C 5636   9.909   8.287   3.653 -0.1874  0.6997 -0.1777
  766MOL0     C 5637   9.855   8.340   3.531  0.2389  0.8367  0.1995
  766MOL0     C 5638   9.780   8.471   3.552 -0.7273 -0.5783 -0.7937
  766MOL0     H 5639   9.715   8.118   2.965  0.2108  0.5406  2.0830
  766MOL0     H 5640   9.624   8.208   2.778 -1.1024  0.3807 -0.0726
  766MOL0     H 5641   9.450   8.374   2.686 -1.7991 -4.3925 -3.0607
  766MOL0     H 5642   9.586   8.325   2.578  0.0984  0.9882 -0.7318
  766MOL0     H 5643   9.405   8.576   2.555 -1.1761 -0.4770  0.6137
  766MOL0     H 5644   9.560   8.557   2.468  1.4419 -2.4621 -1.7830
  766MOL0     H 5645   9.465   8.368   2.355 -0.4672  0.9333  0.3289
  766MOL0     H 5646   9.334   8.351   2.468 -0.3695 -0.1746  0.4817
  766MOL0     H 5647   9.262   8.598   2.371  1.4907  1.8184 -0.7343
  766MOL0     H 5648   9.399   8.594   2.275 -0.3224 -1.3497 -2.6943
  766MOL0     H 5649   9.157   8.410   2.256  1.3859  0.1535  0.5209
  766MOL0     H 5650   9.310   8.365   2.187 -1.0513 -1.4328  1.7023
  766MOL0     H 5651   9.146   8.604   2.127  2.8733  0.6461  3.8659
  766MOL0     H 5652   9.313   8.573   2.060  0.7554 -1.0719  0.3818
  766MOL0     H 5653   9.070   8.393   2.024  0.1207  1.0649  0.8278
  766MOL0     H 5654   9.238   8.360   1.958  0.1476 -0.4331  0.4739
  766MOL0     H 5655   9.101   8.610   1.866 -1.5363 -0.1794  0.4399
  766MOL0     H 5656   9.222   8.503   1.797  1.0511  1.7270  0.3074
  766MOL0     H 5657   9.148   8.271   1.711 -1.0123  0.5666  2.9020
  766MOL0     H 5658   9.013   8.145   1.509  1.4211  2.4055  0.5079
  766MOL0     H 5659   8.927   8.265   1.410 -0.9965  0.9518  0.8848
  766MOL0     H 5660   8.786   8.120   1.639  2.2157 -3.2922  0.3916
  766MOL0     H 5661   8.713   8.219   1.506  1.9576  1.7666 -2.3649
  766MOL0     H 5662   8.670   7.986   1.487 -1.0996  1.6893 -0.1513
  766MOL0     H 5663   8.761   8.047   1.344 -2.2206 -0.8406  0.4486
  766MOL0     H 5664   8.824   7.839   1.389  1.0379 -1.2453  0.3876
  766MOL0     H 5665   8.963   7.946   1.413  0.7959 -1.1656 -0.7496
  766MOL0     H 5666   8.984   7.866   1.807 -0.8816 -1.1183 -0.3939
  766MOL0     H 5667   9.145   7.817   1.986  0.3800  0.7414 -0.4119
  766MOL0     H 5668   9.253   7.669   1.983 -0.4968 -1.3139 -2.6824
  766MOL0     H 5669   9.080   7.653   1.995  0.7940  0.1534  1.4407
  766MOL0     H 5670   9.480   7.348   1.886 -1.1351  2.1135  2.9066
  766MOL0     H 5671   9.701   7.257   1.939 -0.0729  0.9792  2.4446
  766MOL0     H 5672  10.047   7.459   1.846 -1.7751 -3.3462 -0.1692
  766MOL0     H 5673  10.049   7.556   1.989  3.1114 -0.3793 -3.1025
  766MOL0     H 5674  10.241   7.410   1.977  0.2678 -0.8726 -1.2459
  766MOL0     H 5675  10.160   7.354   2.111  1.2399 -0.9267 -1.6330
  766MOL0     H 5676  10.145   7.249   1.825 -1.2412 -1.8310  0.4439
  766MOL0     H 5677  10.062   7.161   1.960  1.4396 -2.7481 -0.1515
  766MOL0     H 5678  10.286   7.111   2.063 -0.2003  0.7665  0.7271
  766MOL0     H 5679  10.364   7.229   1.975  1.9706 -1.9541 -4.1431
  766MOL0     H 5680  10.315   7.100   1.778  0.8181  3.1471  1.6850
  766MOL0     H 5681  10.435   7.034   1.875  0.3932  0.1927 -2.3157
  766MOL0     H 5682  10.148   6.930   1.919  0.1004  0.6674 -0.0397
  766MOL0     H 5683  10.292   6.889   2.010  1.3121 -1.8107 -0.6617
  766MOL0     H 5684  10.382   6.828   1.779  0.1983 -0.8700  1.5748
  766MOL0     H 5685  10.223   6.852   1.707 -1.4532 -3.1681 -0.6833
  766MOL0     H 5686  10.310   6.636   1.919 -1.8403  2.0414  3.1905
  766MOL0     H 5687  10.251   6.622   1.757  2.1521 -0.8003  1.3286
  766MOL0     H 5688   9.876   7.645   1.900 -1.2205  0.2928 -1.4081
  766MOL0     H 5689   9.650   7.744   1.854  0.3274 -0.8059 -2.3524
  766MOL0     H 5690   9.200   7.557   1.506  0.5412  2.4476 -0.7558
  766MOL0     H 5691   8.998   7.676   1.445 -2.8008 -3.5600  2.4236
  766MOL0     H 5692   9.777   8.602   2.874 -0.2721 -0.8659  0.0499
  766MOL0     H 5693   9.849   8.515   3.090  0.3756  0.4392 -0.6303
  766MOL0     H 5694   9.975   8.100   3.327 -0.4238 -0.1822 -0.6325
  766MOL0     H 5695  10.077   8.030   3.526  0.6737 -0.2214 -1.7793
  766MOL0     H 5696  10.205   8.023   3.685 -1.6675 -1.7674 -0.8105
  766MOL0     H 5697  10.222   8.103   3.847 -1.4548  0.6334  1.5321
  766MOL0     H 5698  10.225   7.876   3.888 -1.7074 -2.1834  2.4082
  766MOL0     H 5699  10.074   7.845   3.806  0.4635 -1.0513  2.2654
  766MOL0     H 5700  10.121   8.005   4.053 -0.5710 -0.3589  1.3436
  766MOL0     H 5701   9.969   8.015   3.969  0.0575  0.0030  2.1928
  766MOL0     H 5702   9.962   7.863   4.169 -1.7900 -0.1042  0.9776
  766MOL0     H 5703  10.080   7.750   4.087  0.4968  0.8131  0.3537
  766MOL0     H 5704   9.727   7.701   3.870 -1.0131  3.9488  0.0249
  766MOL0     H 5705   9.884   8.341   3.744 -3.6900 -0.5235 -0.2603
  766MOL0     H 5706   9.822   8.537   3.476  2.0670 -2.6164 -1.1911
  766MOL0     H 5707   9.672   8.467   3.535 -1.2026  0.5056  1.5592
  766MOL0     H 5708   9.767   8.496   3.657 -4.2066  1.2769 -1.5239
  767MOL0     O 5709  10.282   8.466   0.667  0.3063 -0.1927  0.2356
  767MOL0     C 5710  10.389   8.514   0.692 -1.1130  0.0453 -0.5467
  767MOL0     O 5711  10.410   8.640   0.741 -0.6840 -0.1707 -0.1653
  767MOL0     C 5712  10.307   8.726   0.727  0.7553  0.6230 -0.0427
  767MOL0     C 5713  10.274   8.801   0.607 -0.2339  0.0903 -0.4252
  767MOL0     C 5714  10.158   8.879   0.600  0.1771 -0.4160  1.4033
  767MOL0     C 5715  10.079   8.909   0.713 -0.3038 -0.2825  0.3501
  767MOL0     O 5716   9.975   9.005   0.705 -0.9546 -0.2349  0.5024
  767MOL0     C 5717  10.018   9.133   0.662  0.2387 -0.7646  1.1497
  767MOL0     C 5718   9.908   9.244   0.667 -0.6983  0.1162  0.2260
  767MOL0     C 5719   9.958   9.357   0.582  0.8846 -0.2655 -0.5766
  767MOL0     C 5720   9.850   9.464   0.565  0.9905  0.0664  0.0616
  767MOL0     C 5721   9.904   9.608   0.565 -0.1625  0.2788  0.3470
  767MOL0     C 5722  10.003   9.614   0.441  0.8960 -0.1464 -0.0708
  767MOL0     C 5723  10.045   9.756   0.404 -0.1778  0.0882  0.3636
  767MOL0     C 5724  10.127   9.771   0.283 -0.7400  0.1570 -0.8167
  767MOL0     N 5725  10.056   9.742   0.160  0.4363  0.1088 -0.2645
  767MOL0     C 5726  10.069   9.629   0.090  0.0529 -0.2478 -0.4931
  767MOL0     C 5727  10.002   9.664  -0.017  0.6713 -0.0757 -0.5101
  767MOL0     C 5728   9.984   9.580  -0.143  0.4688  0.1045  1.7401
  767MOL0     C 5729  10.024   9.664  -0.271 -0.1653  0.6038 -0.5936
  767MOL0     C 5730  10.043   9.582  -0.399 -0.0015  0.9023  1.1065
  767MOL0     C 5731   9.905   9.521  -0.445 -0.2134  0.3549  0.6978
  767MOL0     O 5732   9.817   9.604  -0.515  0.3914 -0.0585 -0.6888
  767MOL0     C 5733   9.818   9.636  -0.648 -0.4735 -0.0584 -0.9814
  767MOL0     C 5734   9.724   9.725  -0.699  0.2581 -0.1604 -0.4555
  767MOL0     C 5735   9.723   9.763  -0.830  0.5689 -0.0017  0.6506
  767MOL0     C 5736   9.618   9.864  -0.868 -0.8500  0.2902 -0.0500
  767MOL0     C 5737   9.800   9.698  -0.926  1.1138  0.0513 -0.2023
  767MOL0     C 5738   9.793   9.729  -1.069  0.5059  1.2047  0.4897
  767MOL0     O 5739   9.776   9.859  -1.107  0.3427  0.0411 -0.1470
  767MOL0     C 5740   9.756   9.886  -1.236 -0.3282 -0.3563 -0.5978
  767MOL0     C 5741   9.836   9.849  -1.348  0.1409 -0.8041  0.4404
  767MOL0     C 5742   9.807   9.904  -1.479  0.1624 -0.4763 -0.1434
  767MOL0     C 5743   9.699   9.988  -1.491 -0.1119 -0.0026 -0.3440
  767MOL0     O 5744   9.672  10.013  -1.621 -0.5665  0.7443  0.5549
  767MOL0     C 5745   9.551  10.087  -1.637  0.3525  0.4900 -0.2628
  767MOL0     C 5746   9.503  10.097  -1.781  0.0355  0.6914 -0.5220
  767MOL0     C 5747   9.617  10.162  -1.867 -0.6349 -0.9988  0.0351
  767MOL0     C 5748   9.602  10.134  -2.015  0.3361 -0.2379 -0.7265
  767MOL0     C 5749   9.718  10.182  -2.102 -0.2540 -0.6400  0.1940
  767MOL0     C 5750   9.680  10.211  -2.254 -0.4884  0.1641 -0.0430
  767MOL0     C 5751   9.652  10.081  -2.339  0.1539  0.4098  0.3123
  767MOL0     C 5752   9.621  10.125  -2.483  0.2189  1.3172 -0.0784
  767MOL0    Cl 5753   9.462  10.195  -2.476 -0.4320  0.1025 -0.2695
  767MOL0     C 5754   9.625  10.030  -1.377 -0.3617 -0.1887 -0.9621
  767MOL0     C 5755   9.665   9.983  -1.255  1.2285  0.1283  0.6175
  767MOL0     O 5756   9.811   9.628  -1.146 -0.5960 -0.6426  0.0089
  767MOL0     C 5757   9.897   9.617  -0.873 -0.7907  0.3437 -0.0451
  767MOL0     C 5758   9.911   9.579  -0.737  0.3388 -0.1725 -0.8032
  767MOL0     N 5759   9.934   9.783  -0.003 -0.3354 -0.1406 -0.5939
  767MOL0     N 5760   9.966   9.835   0.102  0.1958  0.0261 -0.5593
  767MOL0     C 5761  10.117   8.847   0.837  0.2957 -0.5939 -0.8839
  767MOL0     C 5762  10.231   8.755   0.846  1.0656 -0.4371  0.7495
  767MOL0     C 5763  10.498   8.422   0.713  0.0481  0.9443  0.0050
  767MOL0     C 5764  10.569   8.425   0.835  0.0703 -0.0205  0.9570
  767MOL0     C 5765  10.664   8.330   0.857  0.1505 -0.1348 -0.0286
  767MOL0     C 5766  10.683   8.223   0.774  1.2505 -0.8455  0.0711
  767MOL0     O 5767  10.769   8.123   0.790 -0.0400  0.3033 -0.1653
  767MOL0     C 5768  10.791   8.100   0.930 -0.2068 -0.8745 -0.5047
  767MOL0     C 5769  10.855   7.961   0.957 -1.0491  0.0330  0.0011
  767MOL0     C 5770  10.969   7.959   1.061  0.8682  0.0722 -0.7827
  767MOL0     C 5771  11.034   7.819   1.077 -0.5227 -0.9691  1.2770
  767MOL0     C 5772  11.077   7.806   1.213  0.0065 -1.4655 -0.4041
  767MOL0     C 5773  11.113   7.796   1.328 -0.0894 -0.0382 -0.5745
  767MOL0     C 5774  10.612   8.220   0.653 -0.4767  0.2958  0.4128
  767MOL0     C 5775  10.516   8.319   0.618 -0.2292  0.0593 -0.0876
  767MOL0     C 5776  10.445   8.304   0.481 -0.0877  0.0864  0.1552
  767MOL0     H 5777  10.329   8.781   0.515  0.5999  0.3247  0.0093
  767MOL0     H 5778  10.136   8.917   0.501  0.9359  1.3640  1.8786
  767MOL0     H 5779  10.053   9.131   0.558  1.2167 -0.6624  1.4660
  767MOL0     H 5780  10.106   9.165   0.718  1.3933 -2.4402  0.3987
  767MOL0     H 5781   9.816   9.206   0.621  1.0555 -3.1885 -0.8492
  767MOL0     H 5782   9.896   9.277   0.771  0.7557 -1.9423  1.1175
  767MOL0     H 5783  10.048   9.390   0.635  0.4751 -0.3213  0.1670
  767MOL0     H 5784   9.984   9.318   0.483  3.9890 -1.1313  0.4816
  767MOL0     H 5785   9.792   9.448   0.474 -0.1421 -0.2373  0.8073
  767MOL0     H 5786   9.775   9.465   0.645 -2.1878 -3.1574 -2.5467
  767MOL0     H 5787   9.963   9.636   0.653 -3.9791  2.8948  2.3974
  767MOL0     H 5788   9.828   9.687   0.554 -2.2523 -1.9768 -4.7538
  767MOL0     H 5789  10.094   9.561   0.474  1.8407  0.5486 -1.4647
  767MOL0     H 5790   9.954   9.572   0.354  0.0399  1.9697 -0.6702
  767MOL0     H 5791  10.093   9.819   0.480  1.8267 -0.7006 -0.1872
  767MOL0     H 5792   9.953   9.809   0.380 -0.9311 -1.5480 -0.5341
  767MOL0     H 5793  10.155   9.876   0.282  0.6518 -0.1999 -0.4077
  767MOL0     H 5794  10.213   9.705   0.292 -0.0678  1.2224  0.7828
  767MOL0     H 5795  10.132   9.543   0.109  0.2476  0.7719  5.5650
  767MOL0     H 5796   9.879   9.549  -0.143 -0.6946  3.4933 -0.0548
  767MOL0     H 5797  10.045   9.489  -0.142 -1.5015 -1.6029 -2.9129
  767MOL0     H 5798   9.937   9.727  -0.291  0.4570  1.9246  0.6730
  767MOL0     H 5799  10.113   9.727  -0.262  0.5636 -0.4174 -0.4878
  767MOL0     H 5800  10.080   9.645  -0.480  1.1097  1.1643  1.7978
  767MOL0     H 5801  10.126   9.512  -0.384  1.3181  1.8398 -1.2458
  767MOL0     H 5802   9.931   9.433  -0.505 -0.8097  1.3009 -1.0237
  767MOL0     H 5803   9.847   9.478  -0.363 -2.0974 -3.3719 -2.2378
  767MOL0     H 5804   9.652   9.769  -0.632  0.2488  1.8506 -1.7204
  767MOL0     H 5805   9.536   9.816  -0.922 -0.6337 -0.4917  0.2979
  767MOL0     H 5806   9.653   9.949  -0.928  1.2981 -0.1137  0.5690
  767MOL0     H 5807   9.575   9.912  -0.780 -1.1526  0.9074 -0.5214
  767MOL0     H 5808   9.923   9.786  -1.331  0.8131 -0.0025  0.0518
  767MOL0     H 5809   9.864   9.869  -1.565 -2.2691 -0.8341 -1.7089
  767MOL0     H 5810   9.470  10.028  -1.592  1.3706  0.0285  1.0116
  767MOL0     H 5811   9.581  10.181  -1.591 -0.0946  0.8245 -0.6500
  767MOL0     H 5812   9.487   9.994  -1.815  0.1958 -0.2470  2.0041
  767MOL0     H 5813   9.406  10.147  -1.776  0.5844  1.6560  3.2451
  767MOL0     H 5814   9.711  10.114  -1.836 -1.0585 -1.0492  1.2794
  767MOL0     H 5815   9.627  10.269  -1.850  0.3052 -1.3270  1.7301
  767MOL0     H 5816   9.511  10.183  -2.051  1.2890  0.9091 -1.6516
  767MOL0     H 5817   9.581  10.030  -2.041 -1.1371 -0.2116  0.2558
  767MOL0     H 5818   9.747  10.280  -2.063 -3.0700 -1.2870  4.6863
  767MOL0     H 5819   9.799  10.110  -2.084 -0.5110 -0.7452  0.9602
  767MOL0     H 5820   9.769  10.257  -2.298 -0.2804 -1.5783 -1.5738
  767MOL0     H 5821   9.584  10.264  -2.252 -1.1143 -0.7325  3.9573
  767MOL0     H 5822   9.572  10.032  -2.282 -2.6409  3.4253 -0.7407
  767MOL0     H 5823   9.740  10.015  -2.341  0.6579  1.0836 -0.1303
  767MOL0     H 5824   9.613  10.033  -2.542 -0.7576 -0.4086  2.5461
  767MOL0     H 5825   9.694  10.197  -2.520  0.3407  0.8648 -0.7341
  767MOL0     H 5826   9.541  10.098  -1.382  0.0203  0.1877 -3.3403
  767MOL0     H 5827   9.603  10.008  -1.169 -0.9400 -2.1197 -0.1802
  767MOL0     H 5828   9.965   9.565  -0.941 -1.3430 -0.5927  0.0969
  767MOL0     H 5829   9.991   9.514  -0.704 -0.5136 -0.3038  1.1440
  767MOL0     H 5830  10.058   8.879   0.922  0.7789  3.1644 -1.7959
  767MOL0     H 5831  10.255   8.718   0.945 -0.9147  2.3707  2.4341
  767MOL0     H 5832  10.558   8.510   0.901 -0.4977  1.9135 -1.4531
  767MOL0     H 5833  10.733   8.338   0.940  0.5059 -0.7664 -0.2590
  767MOL0     H 5834  10.857   8.177   0.971 -2.3658  0.3838  0.8047
  767MOL0     H 5835  10.697   8.101   0.986 -0.3252  0.9175 -0.6801
  767MOL0     H 5836  10.914   7.930   0.870  0.7588 -0.2841  1.2874
  767MOL0     H 5837  10.778   7.885   0.974 -0.1550 -1.0586 -0.6061
  767MOL0     H 5838  11.038   8.039   1.032 -1.1197  2.3604  0.4492
  767MOL0     H 5839  10.923   7.995   1.154 -1.9986  0.8392 -2.3607
  767MOL0     H 5840  11.114   7.810   1.004 -2.8970  2.4904 -2.1482
  767MOL0     H 5841  10.968   7.735   1.055 -1.7217  0.4732 -0.9165
  767MOL0     H 5842  11.151   7.803   1.428  1.8569 -3.1004 -0.9450
  767MOL0     H 5843  10.620   8.130   0.593 -2.8307 -1.4576  2.5423
  767MOL0     H 5844  10.419   8.395   0.426 -0.6816  0.4261  0.9836
  767MOL0     H 5845  10.519   8.263   0.411  1.7613 -2.8618  3.5195
  767MOL0     H 5846  10.356   8.240   0.487  0.7857 -1.4954 -2.3205
  768MOL0     O 5847   4.172   5.332  10.695 -0.4863  0.4995 -0.7228
  768MOL0     C 5848   4.083   5.255  10.738 -1.2738  0.9065  0.5267
  768MOL0     O 5849   4.080   5.181  10.854  0.9046 -0.5714  0.3427
  768MOL0     C 5850   4.198   5.154  10.914 -0.1894 -0.2177 -0.7357
  768MOL0     C 5851   4.225   5.017  10.927 -0.6177 -0.0058  0.5020
  768MOL0     C 5852   4.333   4.972  11.015  0.1646 -0.5280 -0.0679
  768MOL0     C 5853   4.401   5.057  11.092  0.0247  0.2492  0.0492
  768MOL0     O 5854   4.508   4.996  11.157 -0.0631 -0.2847  0.8751
  768MOL0     C 5855   4.623   5.072  11.194  0.3111  0.6265 -0.1192
  768MOL0     C 5856   4.729   4.969  11.250  0.1349  0.0870 -0.4473
  768MOL0     C 5857   4.758   4.852  11.161  0.1170 -0.5591 -0.3607
  768MOL0     C 5858   4.843   4.752  11.234  0.8251  0.5699 -0.0469
  768MOL0     C 5859   4.883   4.632  11.146  0.1711  0.0779  0.7108
  768MOL0     C 5860   4.997   4.549  11.214 -0.4677 -0.3504 -0.2084
  768MOL0     C 5861   5.026   4.417  11.148  0.3958  0.0516  0.4931
  768MOL0     C 5862   5.133   4.332  11.225 -0.0976 -0.4149  0.5483
  768MOL0     N 5863   5.271   4.385  11.209 -0.0703  0.3168  0.2787
  768MOL0     C 5864   5.349   4.359  11.099  0.0705 -0.1685 -0.0645
  768MOL0     C 5865   5.453   4.430  11.120  0.3482 -0.2153 -0.0266
  768MOL0     C 5866   5.575   4.422  11.029 -1.3710 -1.0783 -0.4019
  768MOL0     C 5867   5.693   4.500  11.076 -0.2681  0.9147 -0.6859
  768MOL0     C 5868   5.683   4.654  11.055  0.5081  0.3506  0.3089
  768MOL0     C 5869   5.808   4.727  11.074 -0.1666  0.6164 -0.3300
  768MOL0     O 5870   5.813   4.826  10.976 -0.6701 -0.1073  0.0311
  768MOL0     C 5871   5.722   4.930  10.983 -0.6754  0.0591  1.1273
  768MOL0     C 5872   5.682   4.993  11.102 -0.9740  1.1264  0.7312
  768MOL0     C 5873   5.603   5.113  11.105 -0.9146 -0.4779  0.2739
  768MOL0     C 5874   5.557   5.160  11.244 -0.3537  0.0813  0.1612
  768MOL0     C 5875   5.583   5.178  10.983  0.0013  0.0899  0.2036
  768MOL0     C 5876   5.497   5.302  10.981  0.3321 -0.8683  0.0548
  768MOL0     O 5877   5.515   5.371  10.864 -0.1890  0.6717  0.7928
  768MOL0     C 5878   5.453   5.492  10.866  0.4275 -0.8721 -0.8677
  768MOL0     C 5879   5.519   5.590  10.939 -0.0332  0.1255  0.6798
  768MOL0     C 5880   5.472   5.723  10.931 -0.6318  0.5072  0.0615
  768MOL0     C 5881   5.370   5.768  10.845  1.1302 -0.4186  1.4527
  768MOL0     O 5882   5.330   5.900  10.865 -0.2099 -0.6767 -0.2028
  768MOL0     C 5883   5.196   5.940  10.820 -0.2089  0.4230 -0.4917
  768MOL0     C 5884   5.205   6.005  10.677 -0.0960 -0.2323  0.2949
  768MOL0     C 5885   5.318   6.109  10.676  0.1516 -0.3410  0.4039
  768MOL0     C 5886   5.275   6.227  10.595 -0.0527 -0.7961  0.2001
  768MOL0     C 5887   5.386   6.341  10.590 -0.0317  0.3259  0.5029
  768MOL0     C 5888   5.311   6.467  10.530 -0.3394  0.2565  0.8425
  768MOL0     C 5889   5.407   6.579  10.519  0.0739  0.1599  0.1428
  768MOL0     C 5890   5.387   6.667  10.633 -0.4426 -0.3357 -0.0783
  768MOL0    Cl 5891   5.502   6.806  10.628 -0.8635  0.4081  0.1268
  768MOL0     C 5892   5.309   5.671  10.764 -0.2994  0.6457  0.0964
  768MOL0     C 5893   5.359   5.535  10.777  0.8265  0.5374 -1.0953
  768MOL0     O 5894   5.414   5.324  11.069 -0.6727 -0.7955 -0.0725
  768MOL0     C 5895   5.629   5.125  10.861 -0.1856  0.2478 -0.4778
  768MOL0     C 5896   5.698   5.000  10.865  0.2714 -0.1113  0.0317
  768MOL0     N 5897   5.427   4.523  11.225  0.0475  0.9563 -0.4597
  768MOL0     N 5898   5.325   4.484  11.286  0.3371 -0.2644  0.4310
  768MOL0     C 5899   4.384   5.186  11.067 -0.0746 -0.6574 -0.0208
  768MOL0     C 5900   4.288   5.240  10.983  0.5282  0.3615 -0.0801
  768MOL0     C 5901   3.958   5.237  10.663  0.4921 -0.5207  0.7426
  768MOL0     C 5902   3.838   5.196  10.730 -1.1473  0.8791 -0.0252
  768MOL0     C 5903   3.723   5.166  10.670  0.1394  0.1733  0.3940
  768MOL0     C 5904   3.714   5.162  10.527 -0.6678 -0.0547  0.4336
  768MOL0     O 5905   3.594   5.109  10.471 -0.5798  0.4238  0.1921
  768MOL0     C 5906   3.602   5.069  10.336  0.3020  0.4685 -0.8459
  768MOL0     C 5907   3.476   5.037  10.292 -0.5243 -0.1234  0.6136
  768MOL0     C 5908   3.363   5.134  10.306 -0.1858  0.2682  0.6513
  768MOL0     C 5909   3.229   5.053  10.275 -0.0381 -0.0256  0.0019
  768MOL0     C 5910   3.128   5.158  10.262 -0.1971  0.3581  0.5410
  768MOL0     C 5911   3.051   5.249  10.246  0.1922  0.0255  0.1516
  768MOL0     C 5912   3.831   5.200  10.455 -0.0345  0.8055 -0.0670
  768MOL0     C 5913   3.952   5.237  10.516 -0.6462  0.4919  0.6815
  768MOL0     C 5914   4.065   5.267  10.420 -0.4316 -0.6780  0.0322
  768MOL0     H 5915   4.166   4.960  10.856  0.4320  0.6850 -0.9717
  768MOL0     H 5916   4.353   4.866  11.017  0.2788 -0.5638 -1.6968
  768MOL0     H 5917   4.599   5.148  11.269  1.4402 -0.4927  1.4309
  768MOL0     H 5918   4.666   5.117  11.104  3.5796 -0.5066  0.7452
  768MOL0     H 5919   4.821   5.026  11.267  0.1835  0.2646 -1.2537
  768MOL0     H 5920   4.693   4.935  11.347 -0.9714  1.5955 -0.2858
  768MOL0     H 5921   4.664   4.802  11.138  0.4180 -1.4249  0.2427
  768MOL0     H 5922   4.815   4.893  11.077 -1.7383  0.9751 -0.9390
  768MOL0     H 5923   4.932   4.801  11.275  2.0418 -1.4313 -0.1520
  768MOL0     H 5924   4.783   4.716  11.319  3.9777  0.8049  2.4799
  768MOL0     H 5925   4.909   4.679  11.051 -2.9144  1.8214  0.5725
  768MOL0     H 5926   4.792   4.572  11.138  0.5902 -0.3682 -1.1950
  768MOL0     H 5927   5.089   4.608  11.215 -0.7537  0.2352 -2.5600
  768MOL0     H 5928   4.966   4.527  11.317 -1.2713  0.8357 -0.1724
  768MOL0     H 5929   5.081   4.445  11.058  0.4112 -1.4105  0.0149
  768MOL0     H 5930   4.939   4.356  11.123  1.0332 -0.4999 -0.4425
  768MOL0     H 5931   5.099   4.318  11.328  0.4238  0.6911  0.8848
  768MOL0     H 5932   5.137   4.235  11.174 -1.4784  0.7467 -1.9616
  768MOL0     H 5933   5.330   4.301  11.009  4.4266 -1.1662 -0.5665
  768MOL0     H 5934   5.548   4.439  10.924 -0.7338  2.4580 -0.1193
  768MOL0     H 5935   5.616   4.321  11.041  2.1520  0.5635  4.3560
  768MOL0     H 5936   5.704   4.480  11.183  0.8339 -0.7558 -1.0608
  768MOL0     H 5937   5.781   4.462  11.022  0.2896  1.7302 -0.3741
  768MOL0     H 5938   5.651   4.672  10.952  2.0505  2.2666  0.0943
  768MOL0     H 5939   5.610   4.685  11.130  0.6806 -2.8075  1.9560
  768MOL0     H 5940   5.824   4.761  11.177 -3.6820 -0.4282  0.6952
  768MOL0     H 5941   5.894   4.661  11.056 -0.7953  0.0912 -1.5289
  768MOL0     H 5942   5.714   4.944  11.193  1.5171  0.1760 -0.5639
  768MOL0     H 5943   5.569   5.267  11.261  3.5418 -0.0488 -0.7546
  768MOL0     H 5944   5.633   5.102  11.299  1.3595 -0.3569 -2.4647
  768MOL0     H 5945   5.450   5.143  11.255 -0.6427  1.8011  0.1596
  768MOL0     H 5946   5.608   5.572  10.998  2.6264  1.3148 -2.6720
  768MOL0     H 5947   5.534   5.789  10.991  2.6434  0.0152 -2.4950
  768MOL0     H 5948   5.121   5.860  10.827 -0.2842  0.4754 -0.7065
  768MOL0     H 5949   5.160   6.011  10.895 -1.3026  1.3037 -1.8180
  768MOL0     H 5950   5.227   5.938  10.594 -0.8911  2.3369 -2.1732
  768MOL0     H 5951   5.111   6.058  10.659  0.5229  1.0763  0.7691
  768MOL0     H 5952   5.409   6.071  10.627  0.4959 -0.1365  0.8782
  768MOL0     H 5953   5.343   6.148  10.775  0.7496 -0.7703  0.4293
  768MOL0     H 5954   5.179   6.265  10.630  0.8982  1.2495  0.7994
  768MOL0     H 5955   5.256   6.197  10.492  0.8644  2.7064 -1.1668
  768MOL0     H 5956   5.412   6.358  10.694  1.1265 -3.2152  0.9254
  768MOL0     H 5957   5.477   6.333  10.529 -0.2717  0.9431  0.0473
  768MOL0     H 5958   5.226   6.497  10.590 -0.4505 -0.8768  1.2715
  768MOL0     H 5959   5.280   6.438  10.429 -0.6360 -1.6759  1.4491
  768MOL0     H 5960   5.380   6.625  10.423 -3.2018  0.6542  1.1670
  768MOL0     H 5961   5.508   6.536  10.521  0.8398  1.8905  0.9600
  768MOL0     H 5962   5.406   6.609  10.723  0.1412  0.2317  0.1725
  768MOL0     H 5963   5.284   6.702  10.634 -0.1333  0.6162 -0.6836
  768MOL0     H 5964   5.240   5.695  10.684 -0.5876  1.2145  0.5144
  768MOL0     H 5965   5.326   5.450  10.718 -2.2305  1.2689 -0.6554
  768MOL0     H 5966   5.619   5.186  10.772  2.5271  1.1774 -0.2371
  768MOL0     H 5967   5.738   4.961  10.772  1.5386  1.2953 -0.0494
  768MOL0     H 5968   4.449   5.256  11.118  0.6359  1.0076 -2.9898
  768MOL0     H 5969   4.273   5.347  10.991  2.4121  0.6627 -0.1577
  768MOL0     H 5970   3.832   5.192  10.838 -0.3326 -1.6186 -0.0164
  768MOL0     H 5971   3.631   5.139  10.721  0.4561  2.2441  2.2389
  768MOL0     H 5972   3.635   5.142  10.261 -0.0448 -0.1855 -1.6444
  768MOL0     H 5973   3.669   4.986  10.311 -2.0478 -0.7742 -3.5864
  768MOL0     H 5974   3.459   4.945  10.347  1.7588 -2.3696 -2.1003
  768MOL0     H 5975   3.480   5.014  10.185 -0.8759  1.3763  0.2441
  768MOL0     H 5976   3.360   5.168  10.410  1.4550 -0.8979  1.1239
  768MOL0     H 5977   3.386   5.223  10.247  3.3449 -1.2300 -0.5025
  768MOL0     H 5978   3.212   4.984  10.358  0.1094 -0.5882 -0.4308
  768MOL0     H 5979   3.229   5.003  10.178 -1.6815  0.7573 -0.4385
  768MOL0     H 5980   2.993   5.338  10.258  0.1078 -0.0215  0.0844
  768MOL0     H 5981   3.837   5.199  10.347  0.5822  1.6570 -0.0563
  768MOL0     H 5982   4.102   5.370  10.434  2.9456 -1.7536 -0.0376
  768MOL0     H 5983   4.152   5.210  10.453 -0.4914 -0.6166  0.3015
  768MOL0     H 5984   4.027   5.247  10.320  2.7716 -1.8584 -1.0815
  769MOL0     O 5985   0.501   8.789   3.902  0.4094 -0.0798 -0.1421
  769MOL0     C 5986   0.476   8.752   4.015 -0.4378 -0.0192 -0.2109
  769MOL0     O 5987   0.568   8.698   4.107  0.5206 -0.1087 -0.0687
  769MOL0     C 5988   0.697   8.661   4.065 -0.5106 -0.4707 -0.2710
  769MOL0     C 5989   0.751   8.537   4.090  0.6226 -0.2048 -0.6531
  769MOL0     C 5990   0.878   8.496   4.045  0.0541  0.0335  0.7658
  769MOL0     C 5991   0.962   8.593   3.987  0.0284  0.5505 -0.4442
  769MOL0     O 5992   1.097   8.570   3.957  0.2319  0.2645  0.3163
  769MOL0     C 5993   1.164   8.455   4.025  0.7016 -0.2353  0.3750
  769MOL0     C 5994   1.311   8.467   3.982 -0.5453 -0.2559 -0.3027
  769MOL0     C 5995   1.340   8.425   3.836 -0.0471 -0.7835  0.4533
  769MOL0     C 5996   1.484   8.454   3.788 -0.9765  0.1667  0.3169
  769MOL0     C 5997   1.524   8.393   3.652 -0.0669 -0.1372 -0.2852
  769MOL0     C 5998   1.460   8.465   3.539 -0.4521 -0.3388  0.2293
  769MOL0     C 5999   1.512   8.399   3.398  0.1188  0.9907 -0.6984
  769MOL0     C 6000   1.469   8.479   3.272  0.5981 -0.5656 -0.9323
  769MOL0     N 6001   1.489   8.427   3.143  0.5118 -0.1932 -0.4151
  769MOL0     C 6002   1.399   8.351   3.066  0.0149  0.1467 -0.0444
  769MOL0     C 6003   1.455   8.326   2.946 -0.1651  0.1942  0.5419
  769MOL0     C 6004   1.402   8.245   2.833  0.4208 -0.8002 -0.2529
  769MOL0     C 6005   1.338   8.106   2.873  0.0514 -1.2340 -0.5996
  769MOL0     C 6006   1.428   7.987   2.867  1.1394  0.9392  0.6787
  769MOL0     C 6007   1.525   7.989   2.981 -0.9221 -0.2054 -0.1660
  769MOL0     O 6008   1.459   7.972   3.112 -0.0520 -0.2515  0.2205
  769MOL0     C 6009   1.534   8.008   3.229  0.3861  1.0908  0.0217
  769MOL0     C 6010   1.667   8.027   3.227  0.2410  0.6493  0.6001
  769MOL0     C 6011   1.742   8.044   3.345  0.2458  0.7066  0.4081
  769MOL0     C 6012   1.891   8.069   3.338 -0.3413 -0.0577 -0.0160
  769MOL0     C 6013   1.678   8.024   3.470  0.3638 -0.8617 -0.6348
  769MOL0     C 6014   1.753   8.019   3.602 -0.3781  0.0104 -0.3937
  769MOL0     O 6015   1.725   7.913   3.674 -0.6629  0.4636 -0.0943
  769MOL0     C 6016   1.761   7.897   3.801 -1.1289  1.5807 -0.1452
  769MOL0     C 6017   1.852   7.794   3.832 -0.6955  0.5351  0.5705
  769MOL0     C 6018   1.890   7.771   3.965  0.1427  0.3878  0.0917
  769MOL0     C 6019   1.831   7.841   4.072  0.7397 -0.5984  0.5209
  769MOL0     O 6020   1.875   7.829   4.208  0.4987 -0.4998  0.5872
  769MOL0     C 6021   1.948   7.714   4.249  0.9257  0.2665 -0.7408
  769MOL0     C 6022   1.965   7.723   4.405 -0.8534  0.4182 -0.9178
  769MOL0     C 6023   2.060   7.617   4.443 -0.5211 -0.3257  0.2039
  769MOL0     C 6024   2.209   7.669   4.438  0.1485 -0.6194 -0.0031
  769MOL0     C 6025   2.323   7.568   4.421  0.0363  0.4310 -0.0717
  769MOL0     C 6026   2.288   7.453   4.325 -0.7742  0.2187  0.1669
  769MOL0     C 6027   2.412   7.371   4.276  0.7199  0.3381 -0.4608
  769MOL0     C 6028   2.495   7.436   4.169  0.8645 -0.5964 -0.7052
  769MOL0    Cl 6029   2.431   7.425   4.002 -0.2412 -0.0401  0.2065
  769MOL0     C 6030   1.729   7.938   4.034 -0.5876 -1.2097  0.0858
  769MOL0     C 6031   1.704   7.975   3.900  0.5821 -0.1324 -0.5177
  769MOL0     O 6032   1.810   8.121   3.635  0.3332  0.5647  0.6812
  769MOL0     C 6033   1.543   7.999   3.473 -0.1278  1.1708 -0.5628
  769MOL0     C 6034   1.475   8.000   3.358 -0.3057  0.5659  0.0237
  769MOL0     N 6035   1.585   8.378   2.955 -0.1378  0.3045 -0.5433
  769MOL0     N 6036   1.599   8.443   3.062 -0.4516 -0.2556  0.4018
  769MOL0     C 6037   0.910   8.716   3.964  0.1260  0.4898  0.0541
  769MOL0     C 6038   0.779   8.750   3.999  0.6855 -0.5795  0.0447
  769MOL0     C 6039   0.343   8.764   4.070  1.1050 -0.6146  0.7628
  769MOL0     C 6040   0.325   8.837   4.187  0.0071  0.0734  0.1901
  769MOL0     C 6041   0.197   8.878   4.235 -0.1217  0.4485 -0.7573
  769MOL0     C 6042   0.085   8.851   4.160  0.1997  0.4416  0.4138
  769MOL0     O 6043  -0.035   8.917   4.167 -0.2088 -0.4127 -0.6466
  769MOL0     C 6044  -0.034   9.055   4.222  0.8465 -0.2936  0.5240
  769MOL0     C 6045  -0.169   9.116   4.180  1.6137  0.4599 -0.6983
  769MOL0     C 6046  -0.285   9.034   4.242  0.0694  0.4000 -0.3519
  769MOL0     C 6047  -0.419   9.085   4.192 -1.0688  0.2984  0.0765
  769MOL0     C 6048  -0.515   8.994   4.253  0.6356  0.8667 -0.2703
  769MOL0     C 6049  -0.606   8.925   4.293  0.0093  0.9945 -0.2103
  769MOL0     C 6050   0.098   8.781   4.041 -0.7947 -0.5447 -0.6454
  769MOL0     C 6051   0.224   8.737   3.988  0.3707 -0.2644 -0.0198
  769MOL0     C 6052   0.234   8.667   3.854  1.0740 -0.2462 -0.1434
  769MOL0     H 6053   0.692   8.481   4.161 -0.7726  1.6696 -0.2899
  769MOL0     H 6054   0.907   8.393   4.064 -1.0163 -0.9578 -2.4025
  769MOL0     H 6055   1.126   8.360   3.988 -0.7287  0.2587  0.5212
  769MOL0     H 6056   1.159   8.472   4.133 -0.3975  0.4827  0.2282
  769MOL0     H 6057   1.344   8.571   3.991  1.0504 -0.5734 -1.8810
  769MOL0     H 6058   1.378   8.409   4.047 -1.8820 -0.6403  0.7649
  769MOL0     H 6059   1.317   8.318   3.834 -3.7543 -0.1111 -0.2232
  769MOL0     H 6060   1.280   8.482   3.765  0.1838 -1.4983 -0.3357
  769MOL0     H 6061   1.510   8.557   3.764 -0.9131 -0.6715 -4.1769
  769MOL0     H 6062   1.556   8.415   3.861 -1.1018  0.1871  0.4522
  769MOL0     H 6063   1.486   8.292   3.669 -1.3280  0.6367  1.8946
  769MOL0     H 6064   1.633   8.405   3.648 -0.1604  2.3368  2.1624
  769MOL0     H 6065   1.351   8.457   3.549 -0.3064  0.1618  4.0297
  769MOL0     H 6066   1.479   8.573   3.540 -1.1181 -0.2159  0.4678
  769MOL0     H 6067   1.462   8.302   3.402  0.5622  0.6457 -2.4252
  769MOL0     H 6068   1.619   8.376   3.399 -0.4476 -2.3510  1.8895
  769MOL0     H 6069   1.361   8.500   3.277  0.9647  1.3056 -0.1746
  769MOL0     H 6070   1.518   8.577   3.272 -1.1815  0.3744 -1.9065
  769MOL0     H 6071   1.300   8.315   3.092 -0.3827 -0.8622 -2.6211
  769MOL0     H 6072   1.482   8.214   2.765  1.7341 -0.8513  1.2862
  769MOL0     H 6073   1.331   8.318   2.791  1.4325  0.9722  0.9811
  769MOL0     H 6074   1.277   8.127   2.961 -3.8347  1.0112 -3.5154
  769MOL0     H 6075   1.260   8.079   2.802 -1.3415 -0.5411  0.6144
  769MOL0     H 6076   1.366   7.898   2.879 -0.7723  2.2726  1.2526
  769MOL0     H 6077   1.473   7.988   2.767 -0.8921  2.6665 -0.3225
  769MOL0     H 6078   1.587   7.899   2.965  0.8367  1.0449 -0.7536
  769MOL0     H 6079   1.585   8.081   2.980  1.1043 -1.3928 -2.9049
  769MOL0     H 6080   1.719   8.036   3.132  0.6992 -2.6844  0.3927
  769MOL0     H 6081   1.947   8.014   3.415 -2.5697 -1.5607  0.6034
  769MOL0     H 6082   1.920   8.175   3.341  2.5235 -0.7819  1.6389
  769MOL0     H 6083   1.929   8.033   3.242 -0.2671 -2.1995  0.7733
  769MOL0     H 6084   1.893   7.732   3.754 -0.0134  0.6119  0.8639
  769MOL0     H 6085   1.968   7.696   3.976 -2.1329 -2.4820 -1.9228
  769MOL0     H 6086   1.890   7.625   4.222 -1.5865  1.4988  0.2594
  769MOL0     H 6087   2.043   7.713   4.195  0.0216 -1.0178 -2.3976
  769MOL0     H 6088   2.003   7.817   4.447 -0.0905 -0.6891  0.9726
  769MOL0     H 6089   1.870   7.695   4.452 -1.4889  2.3905 -0.9135
  769MOL0     H 6090   2.044   7.526   4.385 -1.3379 -1.0205  1.4653
  769MOL0     H 6091   2.048   7.580   4.546 -2.7172  0.1601  0.1564
  769MOL0     H 6092   2.220   7.732   4.527 -0.3258 -1.1345  0.4215
  769MOL0     H 6093   2.218   7.724   4.343  0.4775  1.5251  1.2019
  769MOL0     H 6094   2.405   7.629   4.382 -2.1713  2.1795 -2.2246
  769MOL0     H 6095   2.369   7.524   4.511 -0.1164 -1.8718 -1.0491
  769MOL0     H 6096   2.236   7.500   4.241 -1.0537 -0.1735  0.1126
  769MOL0     H 6097   2.213   7.388   4.372 -1.8132 -1.0411 -2.9364
  769MOL0     H 6098   2.373   7.274   4.247 -2.1895  1.2940 -0.0834
  769MOL0     H 6099   2.469   7.354   4.368 -0.4224  0.3481  0.2682
  769MOL0     H 6100   2.590   7.382   4.165  1.7946  0.9590 -0.5541
  769MOL0     H 6101   2.516   7.542   4.188 -2.9722  0.8566 -3.4269
  769MOL0     H 6102   1.680   8.001   4.108  1.9414  2.1979 -0.8730
  769MOL0     H 6103   1.631   8.043   3.858 -1.8556 -3.1628 -1.5680
  769MOL0     H 6104   1.485   7.996   3.565 -0.4939  1.2415 -0.7886
  769MOL0     H 6105   1.372   7.966   3.358 -0.7380  1.7025  2.1191
  769MOL0     H 6106   0.977   8.796   3.934  1.5185 -0.5188  0.4050
  769MOL0     H 6107   0.735   8.844   3.967  0.3500 -0.8501 -0.2975
  769MOL0     H 6108   0.404   8.886   4.243  0.4705 -2.8510  2.3058
  769MOL0     H 6109   0.200   8.938   4.326 -0.3196 -0.9811  0.2166
  769MOL0     H 6110  -0.030   9.051   4.332  0.6221 -2.3187  0.5024
  769MOL0     H 6111   0.049   9.121   4.193  0.0598  0.6331  0.3485
  769MOL0     H 6112  -0.184   9.144   4.075 -0.0497 -0.2851 -0.6920
  769MOL0     H 6113  -0.187   9.212   4.229 -0.2267 -0.2715  0.1511
  769MOL0     H 6114  -0.267   8.928   4.219  1.0647  1.1377 -3.6409
  769MOL0     H 6115  -0.277   9.041   4.350  0.6347  0.2782 -0.3794
  769MOL0     H 6116  -0.420   9.074   4.083  1.2471 -1.3433  0.1535
  769MOL0     H 6117  -0.433   9.190   4.219  4.2593  1.2082  0.3707
  769MOL0     H 6118  -0.668   8.854   4.343  0.1697  1.2146  0.3113
  769MOL0     H 6119   0.008   8.758   3.985 -1.2175 -1.5299  0.4213
  769MOL0     H 6120   0.277   8.569   3.877 -0.0735  0.0787  4.0299
  769MOL0     H 6121   0.131   8.642   3.827 -0.7311  1.5593  4.1164
  769MOL0     H 6122   0.282   8.734   3.781 -1.1256 -2.5292 -4.0215
  770MOL0     O 6123   2.065   8.203   1.571  0.5046  0.1474  0.2348
  770MOL0     C 6124   2.161   8.147   1.621 -0.5004  0.7550  0.1655
  770MOL0     O 6125   2.176   8.006   1.610  0.2323 -0.5960 -0.0288
  770MOL0     C 6126   2.072   7.931   1.573 -0.6078 -0.4719  0.1847
  770MOL0     C 6127   1.993   7.956   1.461  0.2170  0.0052 -0.3511
  770MOL0     C 6128   1.890   7.866   1.425  0.2281 -0.5185 -0.8195
  770MOL0     C 6129   1.870   7.751   1.509 -0.9356 -0.0281 -0.6076
  770MOL0     O 6130   1.751   7.685   1.484  0.3222 -0.0904 -0.2986
  770MOL0     C 6131   1.749   7.544   1.525 -0.0801  0.0854 -0.6767
  770MOL0     C 6132   1.684   7.534   1.660 -0.5978 -0.6469  0.2367
  770MOL0     C 6133   1.530   7.578   1.657 -0.2496  0.1566  0.5826
  770MOL0     C 6134   1.465   7.546   1.791  0.3056  0.8734 -0.7759
  770MOL0     C 6135   1.522   7.617   1.920 -0.0875  0.0529 -0.2941
  770MOL0     C 6136   1.473   7.760   1.924  0.6047  0.6944 -0.0593
  770MOL0     C 6137   1.530   7.839   2.035 -0.3499 -1.1056  0.7351
  770MOL0     C 6138   1.497   7.995   2.025 -0.1925  0.2944  0.0961
  770MOL0     N 6139   1.492   8.044   1.888  0.1666 -0.2278 -0.0986
  770MOL0     C 6140   1.600   8.045   1.804 -0.5036  0.1190  1.2444
  770MOL0     C 6141   1.545   8.075   1.684 -0.2965  0.0221 -0.4845
  770MOL0     C 6142   1.629   8.088   1.556  0.0039  0.3805  0.2408
  770MOL0     C 6143   1.684   8.235   1.545 -0.4313 -0.1047 -0.2615
  770MOL0     C 6144   1.728   8.266   1.405  0.1856 -1.5089 -0.3617
  770MOL0     C 6145   1.805   8.393   1.384  0.2569  0.3844 -0.0825
  770MOL0     O 6146   1.869   8.390   1.257 -0.9208 -0.6276  0.0869
  770MOL0     C 6147   1.972   8.466   1.223 -0.1616 -0.1429  0.1286
  770MOL0     C 6148   2.013   8.440   1.095  0.1173  0.8756  0.5709
  770MOL0     C 6149   2.123   8.501   1.027  0.1356  1.1675  0.5634
  770MOL0     C 6150   2.159   8.450   0.885  1.1476 -0.3742  0.7648
  770MOL0     C 6151   2.194   8.603   1.096 -0.4243  0.5509  0.4269
  770MOL0     C 6152   2.322   8.669   1.042 -0.4042  0.2352  0.4150
  770MOL0     O 6153   2.371   8.765   1.117 -0.7328  0.1688 -0.1079
  770MOL0     C 6154   2.484   8.833   1.081 -0.1200 -0.2032 -0.1730
  770MOL0     C 6155   2.525   8.880   0.954  0.5946 -0.0507 -0.6308
  770MOL0     C 6156   2.644   8.956   0.934  0.7678  0.4481 -0.3671
  770MOL0     C 6157   2.718   9.000   1.048 -1.2114  0.0805 -0.5182
  770MOL0     O 6158   2.831   9.084   1.042  0.0298  0.4345  0.8486
  770MOL0     C 6159   2.864   9.157   0.922  0.8189 -0.0896  0.0350
  770MOL0     C 6160   2.955   9.084   0.811  0.3732 -0.4834 -0.4584
  770MOL0     C 6161   2.967   9.193   0.707 -1.0874  1.6096  0.4770
  770MOL0     C 6162   3.029   9.123   0.583 -0.1121 -0.5692 -0.2026
  770MOL0     C 6163   3.064   9.229   0.470  0.0419  0.7413 -0.2295
  770MOL0     C 6164   3.155   9.176   0.359 -0.3387 -0.1933  0.1981
  770MOL0     C 6165   3.215   9.300   0.293 -0.1745  0.0418 -0.0021
  770MOL0     C 6166   3.289   9.245   0.165  0.4616  0.0055 -0.0418
  770MOL0    Cl 6167   3.441   9.173   0.209  0.2701  0.7253  0.3344
  770MOL0     C 6168   2.686   8.957   1.178  1.5732  0.2553 -0.3600
  770MOL0     C 6169   2.570   8.877   1.198  0.3102  0.6347  0.2915
  770MOL0     O 6170   2.378   8.620   0.947 -0.0091 -0.0696 -0.0990
  770MOL0     C 6171   2.154   8.632   1.230  0.5532  0.1054  0.2598
  770MOL0     C 6172   2.046   8.565   1.292  0.9099  0.1121 -0.0588
  770MOL0     N 6173   1.407   8.064   1.697  0.3023 -0.1794  0.7095
  770MOL0     N 6174   1.374   8.056   1.820 -0.5787 -0.2947 -1.0491
  770MOL0     C 6175   1.959   7.719   1.610 -0.1758 -1.1526 -0.4801
  770MOL0     C 6176   2.060   7.810   1.643 -0.4100 -0.5702  0.3487
  770MOL0     C 6177   2.264   8.230   1.695  0.3727  0.8328 -0.5957
  770MOL0     C 6178   2.327   8.171   1.802 -0.1851 -0.3088  0.1527
  770MOL0     C 6179   2.412   8.235   1.890  0.4043 -0.8185  0.8518
  770MOL0     C 6180   2.456   8.371   1.864 -1.2316  0.5818  0.3894
  770MOL0     O 6181   2.554   8.439   1.931  0.0027  0.3565 -0.2776
  770MOL0     C 6182   2.581   8.386   2.064 -0.5459  0.2421 -0.2153
  770MOL0     C 6183   2.639   8.490   2.162  0.5816 -0.0802  1.2642
  770MOL0     C 6184   2.536   8.591   2.212  0.2832  0.2100  0.2889
  770MOL0     C 6185   2.459   8.659   2.102  0.1135 -0.3526  0.8298
  770MOL0     C 6186   2.373   8.774   2.124 -0.5428  0.0120  0.0840
  770MOL0     C 6187   2.284   8.858   2.143  0.2673  0.0944  0.1149
  770MOL0     C 6188   2.397   8.432   1.752  0.6895 -0.0575 -0.1824
  770MOL0     C 6189   2.299   8.370   1.674 -0.0437 -0.3858 -0.6572
  770MOL0     C 6190   2.250   8.450   1.555  0.0675 -0.3260  0.6177
  770MOL0     H 6191   2.026   8.042   1.405  0.1033  0.6011  0.4832
  770MOL0     H 6192   1.823   7.884   1.341 -0.3605  0.0929 -0.2383
  770MOL0     H 6193   1.844   7.491   1.542 -1.1143 -1.5495  0.2502
  770MOL0     H 6194   1.690   7.493   1.449 -0.9938  1.3816 -0.8662
  770MOL0     H 6195   1.690   7.431   1.694  2.2936 -1.0167 -1.1021
  770MOL0     H 6196   1.736   7.607   1.723 -1.3995  0.5476 -0.4527
  770MOL0     H 6197   1.516   7.685   1.639  1.6732 -0.0954 -3.3206
  770MOL0     H 6198   1.473   7.519   1.585 -2.8416  3.1530 -0.0797
  770MOL0     H 6199   1.359   7.571   1.789 -0.1845 -1.0610 -2.7395
  770MOL0     H 6200   1.474   7.438   1.803 -1.5604  0.9133  2.0682
  770MOL0     H 6201   1.631   7.616   1.916  0.0521 -5.2996 -1.9759
  770MOL0     H 6202   1.485   7.562   2.007 -2.1645 -0.1764 -1.2572
  770MOL0     H 6203   1.505   7.802   1.829  1.7897 -2.3096 -1.0883
  770MOL0     H 6204   1.363   7.758   1.921  0.6113 -1.0199 -2.7246
  770MOL0     H 6205   1.638   7.836   2.019 -0.5766  0.4460 -1.6806
  770MOL0     H 6206   1.526   7.787   2.131 -0.4138 -4.6589 -1.0424
  770MOL0     H 6207   1.403   8.013   2.078  0.5430 -0.8358  1.8622
  770MOL0     H 6208   1.578   8.047   2.076 -0.9213 -0.0502  1.6405
  770MOL0     H 6209   1.703   8.033   1.835 -0.0002  2.2243  0.5498
  770MOL0     H 6210   1.567   8.071   1.468 -2.5467  3.1617  1.3113
  770MOL0     H 6211   1.722   8.030   1.555  1.1097  2.0682 -0.2831
  770MOL0     H 6212   1.604   8.304   1.575 -1.8447 -1.2782 -1.2246
  770MOL0     H 6213   1.763   8.242   1.621 -0.8788 -2.7903  0.5402
  770MOL0     H 6214   1.781   8.178   1.366  2.3004 -0.2209 -0.5502
  770MOL0     H 6215   1.642   8.266   1.337 -0.1336 -0.9823  0.0420
  770MOL0     H 6216   1.749   8.486   1.397  0.7418  0.8696 -1.2719
  770MOL0     H 6217   1.887   8.401   1.456  0.7240  3.6475 -0.8394
  770MOL0     H 6218   1.951   8.360   1.054 -0.5305  1.7022 -0.1031
  770MOL0     H 6219   2.162   8.542   0.826 -1.0678  0.7223  2.2298
  770MOL0     H 6220   2.084   8.380   0.847  0.5296  1.7126 -2.1895
  770MOL0     H 6221   2.264   8.418   0.877  2.0925  2.1358  2.0709
  770MOL0     H 6222   2.455   8.845   0.879 -2.8646  3.1123  0.7511
  770MOL0     H 6223   2.677   8.976   0.832 -0.4998 -2.1864 -1.3874
  770MOL0     H 6224   2.763   9.179   0.885  0.5521  1.7923  1.7603
  770MOL0     H 6225   2.903   9.255   0.951  0.8157 -0.2950  0.7486
  770MOL0     H 6226   3.057   9.073   0.849  0.3950 -0.1821 -0.4317
  770MOL0     H 6227   2.921   8.990   0.766 -2.0779  0.9326 -1.7542
  770MOL0     H 6228   3.036   9.270   0.741  0.9507  0.0654 -0.0170
  770MOL0     H 6229   2.871   9.238   0.677 -0.7108  1.0078 -1.8326
  770MOL0     H 6230   2.950   9.058   0.543 -0.9684  1.2021 -1.5352
  770MOL0     H 6231   3.117   9.070   0.622  0.0338  1.4080  2.4591
  770MOL0     H 6232   2.967   9.253   0.426 -2.3713 -3.1749  2.3793
  770MOL0     H 6233   3.106   9.319   0.517  2.0654 -0.7600  0.9950
  770MOL0     H 6234   3.090   9.120   0.292  1.4281  0.5953 -2.3070
  770MOL0     H 6235   3.237   9.115   0.400  3.2305  1.9624 -3.0291
  770MOL0     H 6236   3.281   9.360   0.356  0.5619  0.4230 -1.1188
  770MOL0     H 6237   3.127   9.355   0.258  1.6351  2.0594 -1.6460
  770MOL0     H 6238   3.311   9.331   0.101  0.6219  1.2373  1.5795
  770MOL0     H 6239   3.228   9.176   0.106 -0.5838  1.2171 -0.4236
  770MOL0     H 6240   2.742   8.979   1.268  0.1312  0.2241  0.5842
  770MOL0     H 6241   2.531   8.856   1.297 -2.0038 -0.0827 -0.7120
  770MOL0     H 6242   2.217   8.700   1.286  0.1218  0.2444  0.5760
  770MOL0     H 6243   2.004   8.579   1.391  1.1213  4.9643 -0.4430
  770MOL0     H 6244   1.969   7.624   1.662 -0.5928 -1.1431 -0.3779
  770MOL0     H 6245   2.131   7.800   1.724 -0.2713 -0.8140  0.1983
  770MOL0     H 6246   2.324   8.064   1.824  0.8050 -0.3072  0.3533
  770MOL0     H 6247   2.455   8.171   1.966  2.9876  1.1825  1.2248
  770MOL0     H 6248   2.494   8.336   2.107 -0.7026  0.3596 -0.3962
  770MOL0     H 6249   2.662   8.311   2.057 -2.3449 -1.9559  1.0723
  770MOL0     H 6250   2.723   8.549   2.125 -0.6500  0.8397 -0.1947
  770MOL0     H 6251   2.667   8.430   2.250 -1.9428 -3.0143  0.2288
  770MOL0     H 6252   2.466   8.539   2.277 -1.8166 -0.1003 -2.0821
  770MOL0     H 6253   2.579   8.661   2.284  1.8600 -1.0630  0.6283
  770MOL0     H 6254   2.399   8.586   2.046 -0.4194  0.0734  0.8323
  770MOL0     H 6255   2.530   8.696   2.028 -1.6192  0.3269 -0.5875
  770MOL0     H 6256   2.215   8.939   2.148  0.1870 -0.0391  1.4868
  770MOL0     H 6257   2.452   8.522   1.726  1.1533 -0.4444 -0.5687
  770MOL0     H 6258   2.338   8.475   1.495 -0.6869  1.1554  0.0807
  770MOL0     H 6259   2.172   8.405   1.493 -1.2418  2.1145  0.3955
  770MOL0     H 6260   2.204   8.536   1.605 -0.1016 -0.4830  0.7385
  771MOL0     O 6261   0.386   8.124  10.453  0.5485  0.0599 -0.0096
  771MOL0     C 6262   0.417   8.238  10.489 -0.8717 -0.4648 -0.1471
  771MOL0     O 6263   0.438   8.278  10.620 -0.2232  0.0536  0.2665
  771MOL0     C 6264   0.430   8.175  10.712  0.0394  0.3362 -0.1387
  771MOL0     C 6265   0.550   8.107  10.741  0.0722  0.3795 -0.4436
  771MOL0     C 6266   0.547   7.991  10.824 -0.6569  0.6889  0.7088
  771MOL0     C 6267   0.421   7.949  10.878 -0.8149 -0.2960 -0.1484
  771MOL0     O 6268   0.418   7.824  10.934  0.3679 -0.4360  0.2306
  771MOL0     C 6269   0.481   7.807  11.058 -0.5264 -0.2007 -1.7139
  771MOL0     C 6270   0.386   7.797  11.181 -0.5606 -0.3325 -0.8460
  771MOL0     C 6271   0.326   7.938  11.210 -0.3299 -0.0720 -0.5414
  771MOL0     C 6272   0.214   7.940  11.313 -0.2924 -0.1698 -0.4021
  771MOL0     C 6273   0.095   7.858  11.256 -0.6669  0.0264  0.1583
  771MOL0     C 6274  -0.024   7.876  11.350 -0.4025  0.0765  0.0757
  771MOL0     C 6275  -0.153   7.787  11.303 -1.1330  0.0009 -0.7286
  771MOL0     C 6276  -0.276   7.814  11.374  0.5564 -0.0474 -0.6637
  771MOL0     N 6277  -0.380   7.722  11.323  0.0704  0.1547 -0.8128
  771MOL0     C 6278  -0.493   7.742  11.249  0.4135  1.0178  0.4014
  771MOL0     C 6279  -0.566   7.626  11.254 -0.4560 -0.8383 -0.1244
  771MOL0     C 6280  -0.705   7.615  11.194  0.2923  0.3890  0.1933
  771MOL0     C 6281  -0.807   7.735  11.213 -0.1168  1.3166 -1.0587
  771MOL0     C 6282  -0.949   7.691  11.170  0.2436  0.1296 -0.1439
  771MOL0     C 6283  -1.060   7.787  11.182  0.1272 -0.2150  0.2301
  771MOL0     O 6284  -1.177   7.706  11.165  0.2632 -0.5090 -0.6057
  771MOL0     C 6285  -1.217   7.680  11.036 -0.2777  0.3770 -0.1427
  771MOL0     C 6286  -1.203   7.548  10.989 -0.6214  0.2010  0.0673
  771MOL0     C 6287  -1.229   7.518  10.855  1.0256 -0.9778  0.6039
  771MOL0     C 6288  -1.213   7.371  10.811 -0.3780 -1.1219  0.4952
  771MOL0     C 6289  -1.289   7.622  10.770 -1.6411 -0.1285 -1.1647
  771MOL0     C 6290  -1.331   7.606  10.626  0.0846  0.4672 -0.4435
  771MOL0     O 6291  -1.381   7.712  10.564 -0.8928  0.1386 -0.6225
  771MOL0     C 6292  -1.419   7.697  10.433  0.3507 -0.4497 -0.1039
  771MOL0     C 6293  -1.386   7.804  10.350 -0.4802 -0.1572  0.3928
  771MOL0     C 6294  -1.448   7.819  10.219  0.2504 -0.4516 -0.4076
  771MOL0     C 6295  -1.535   7.720  10.176  0.1529  0.0560 -0.0260
  771MOL0     O 6296  -1.592   7.738  10.049 -0.2363 -0.1896  0.1954
  771MOL0     C 6297  -1.496   7.698   9.948 -0.6866 -0.0642  0.8574
  771MOL0     C 6298  -1.538   7.762   9.805 -0.7668  0.2374 -0.2698
  771MOL0     C 6299  -1.446   7.867   9.747  0.0826 -0.7115 -0.3231
  771MOL0     C 6300  -1.471   7.919   9.612  0.2385  0.4281  0.6819
  771MOL0     C 6301  -1.369   7.855   9.513 -0.0025  0.2537  0.5240
  771MOL0     C 6302  -1.385   7.931   9.377 -0.7584  0.6796 -0.1813
  771MOL0     C 6303  -1.293   7.861   9.268 -0.4379  0.5812  0.3154
  771MOL0     C 6304  -1.330   7.883   9.114  0.0714 -0.3189 -0.5632
  771MOL0    Cl 6305  -1.499   7.842   9.067  0.1591  0.1572 -0.3938
  771MOL0     C 6306  -1.564   7.615  10.261 -0.3779  0.9221 -0.2359
  771MOL0     C 6307  -1.513   7.602  10.391  0.0296 -1.0058  0.3026
  771MOL0     O 6308  -1.332   7.494  10.580  0.2347  0.1167  0.4089
  771MOL0     C 6309  -1.302   7.749  10.825  0.1406  0.4286 -0.4438
  771MOL0     C 6310  -1.273   7.779  10.959  0.2413  0.8287  0.5181
  771MOL0     N 6311  -0.503   7.543  11.343  0.2622 -0.5918 -0.5932
  771MOL0     N 6312  -0.392   7.592  11.380 -0.8210 -0.3736  0.7987
  771MOL0     C 6313   0.308   8.018  10.858  0.0786 -0.3219 -0.3301
  771MOL0     C 6314   0.316   8.135  10.780  0.1386 -0.0383  0.4339
  771MOL0     C 6315   0.470   8.341  10.394  0.4165 -0.7177 -1.2753
  771MOL0     C 6316   0.582   8.418  10.443  0.3149 -0.2523  0.4650
  771MOL0     C 6317   0.624   8.522  10.364 -0.0888 -0.1993  0.5907
  771MOL0     C 6318   0.574   8.547  10.237 -0.4445  0.6135 -0.1030
  771MOL0     O 6319   0.628   8.655  10.177  0.3440 -0.2165  0.1592
  771MOL0     C 6320   0.564   8.699  10.053 -0.0859  0.2389 -0.4837
  771MOL0     C 6321   0.655   8.814  10.006  0.0296  0.1391  0.6315
  771MOL0     C 6322   0.604   8.884   9.875  0.1244 -0.4332  0.3337
  771MOL0     C 6323   0.711   8.952   9.790 -0.2801  0.0281  0.1795
  771MOL0     C 6324   0.773   9.073   9.851  0.6305  0.3529 -0.4174
  771MOL0     C 6325   0.824   9.160   9.906 -0.2292 -0.3789  0.0104
  771MOL0     C 6326   0.478   8.471  10.183 -0.4274  0.6222 -0.7226
  771MOL0     C 6327   0.424   8.366  10.268  0.0725  0.3285  1.3422
  771MOL0     C 6328   0.306   8.291  10.202 -0.3288 -0.1063  0.8430
  771MOL0     H 6329   0.642   8.134  10.688 -0.1614  0.2661 -0.9143
  771MOL0     H 6330   0.637   7.935  10.849 -1.1961  0.4739  2.3324
  771MOL0     H 6331   0.553   7.889  11.067  0.2030 -0.9894  0.3129
  771MOL0     H 6332   0.541   7.715  11.056 -0.3842 -0.4778  2.9864
  771MOL0     H 6333   0.311   7.720  11.159  1.5848 -2.5269 -0.9790
  771MOL0     H 6334   0.452   7.764  11.262 -1.1473  2.7334  1.0476
  771MOL0     H 6335   0.396   8.007  11.255 -2.9871  3.3636 -1.2562
  771MOL0     H 6336   0.280   7.982  11.121 -2.3939  0.2660  0.6218
  771MOL0     H 6337   0.247   7.884  11.401 -0.8630 -0.4101 -0.3426
  771MOL0     H 6338   0.188   8.042  11.345  0.0987 -0.3861  0.6576
  771MOL0     H 6339   0.115   7.754  11.230  0.0497  0.4198 -0.9499
  771MOL0     H 6340   0.063   7.908  11.164 -0.6820 -1.2618 -0.5624
  771MOL0     H 6341  -0.004   7.839  11.451  1.0071 -3.4897 -1.3505
  771MOL0     H 6342  -0.048   7.982  11.364  0.2664  0.3478 -0.7541
  771MOL0     H 6343  -0.123   7.684  11.322 -0.1721  0.5142  0.6969
  771MOL0     H 6344  -0.173   7.803  11.196  0.9557 -0.7502 -1.2848
  771MOL0     H 6345  -0.276   7.797  11.482  0.9895 -2.7698 -1.0349
  771MOL0     H 6346  -0.309   7.918  11.359  0.1796  0.0814  0.8998
  771MOL0     H 6347  -0.517   7.830  11.192 -2.1974  0.6356  0.7775
  771MOL0     H 6348  -0.748   7.524  11.238 -1.8639  2.7894  3.5013
  771MOL0     H 6349  -0.681   7.600  11.088  2.4477 -0.0471  0.6955
  771MOL0     H 6350  -0.810   7.750  11.322 -0.9103 -1.5996 -0.5886
  771MOL0     H 6351  -0.777   7.814  11.144  0.4055  1.5120 -0.6114
  771MOL0     H 6352  -0.951   7.673  11.062  0.9851 -1.5570  0.0889
  771MOL0     H 6353  -0.983   7.609  11.234  1.0439  0.6669  1.0013
  771MOL0     H 6354  -1.053   7.824  11.285  1.1790  1.1266 -0.2983
  771MOL0     H 6355  -1.061   7.870  11.111  1.6501  1.2688  1.8349
  771MOL0     H 6356  -1.143   7.478  11.046 -0.6527  0.0805 -0.0452
  771MOL0     H 6357  -1.315   7.331  10.812 -0.7715 -0.1664  2.2401
  771MOL0     H 6358  -1.144   7.307  10.865 -1.6439 -0.7161  2.7154
  771MOL0     H 6359  -1.180   7.361  10.707 -1.9547  3.2255 -0.6471
  771MOL0     H 6360  -1.317   7.872  10.400  0.9056 -1.4945  0.3776
  771MOL0     H 6361  -1.424   7.903  10.155 -2.4973  0.2367 -0.6707
  771MOL0     H 6362  -1.399   7.742   9.973 -2.4842  2.6563  3.8456
  771MOL0     H 6363  -1.492   7.590   9.938  2.8218  0.1778 -3.8830
  771MOL0     H 6364  -1.547   7.674   9.741 -6.0042 -0.9429  1.6138
  771MOL0     H 6365  -1.637   7.807   9.804 -0.9156 -0.0937 -0.3005
  771MOL0     H 6366  -1.342   7.832   9.746  0.7679  1.2462 -1.1402
  771MOL0     H 6367  -1.469   7.948   9.817 -1.8432 -0.6522 -0.9659
  771MOL0     H 6368  -1.457   8.028   9.611  2.6317  0.1934 -0.9063
  771MOL0     H 6369  -1.573   7.899   9.581  1.1259 -0.3440 -2.0281
  771MOL0     H 6370  -1.268   7.857   9.556  0.1336  0.7851  0.1783
  771MOL0     H 6371  -1.399   7.751   9.496 -1.0972  0.5833  0.3861
  771MOL0     H 6372  -1.362   8.037   9.391  3.5640 -0.1778  0.8940
  771MOL0     H 6373  -1.487   7.911   9.343  1.2590 -2.0587 -5.9796
  771MOL0     H 6374  -1.313   7.757   9.297 -0.5959  0.9963  1.8174
  771MOL0     H 6375  -1.191   7.896   9.289 -0.3009  0.6417 -0.4293
  771MOL0     H 6376  -1.260   7.819   9.059  1.9361  0.0256  1.2786
  771MOL0     H 6377  -1.297   7.985   9.093 -1.1831  0.3578  0.6118
  771MOL0     H 6378  -1.632   7.537  10.228  3.1625 -1.3776 -2.8269
  771MOL0     H 6379  -1.546   7.526  10.462  4.1266 -0.3608  3.3012
  771MOL0     H 6380  -1.342   7.832  10.767 -3.6732 -1.4342 -0.7541
  771MOL0     H 6381  -1.292   7.883  10.986  0.2641  1.1035 -0.4731
  771MOL0     H 6382   0.209   7.986  10.892  0.6026 -0.2402  1.3758
  771MOL0     H 6383   0.227   8.196  10.765  1.1333  1.1051 -1.1353
  771MOL0     H 6384   0.627   8.410  10.541  0.3547  3.6681  0.9536
  771MOL0     H 6385   0.704   8.582  10.406  0.6709 -2.0965  1.9788
  771MOL0     H 6386   0.563   8.623   9.975  3.0144 -0.1758 -0.2623
  771MOL0     H 6387   0.465   8.740  10.076 -0.2097 -1.2677  2.0538
  771MOL0     H 6388   0.754   8.769   9.996  0.6555  0.6005  3.8943
  771MOL0     H 6389   0.677   8.890  10.081  3.0893 -0.1405  0.1375
  771MOL0     H 6390   0.561   8.801   9.818 -2.4624  0.2424  1.1624
  771MOL0     H 6391   0.529   8.959   9.903  0.5744 -1.2405  4.2286
  771MOL0     H 6392   0.661   8.989   9.700 -2.2314  0.8380  1.5257
  771MOL0     H 6393   0.795   8.887   9.764  0.3953  0.3816  1.3881
  771MOL0     H 6394   0.878   9.238   9.955  0.3985 -1.6585  1.4458
  771MOL0     H 6395   0.438   8.480  10.083 -1.1203  0.9409 -0.4209
  771MOL0     H 6396   0.272   8.328  10.105  1.7766  1.8393  0.7638
  771MOL0     H 6397   0.354   8.196  10.175  0.7221  0.0684  2.0008
  771MOL0     H 6398   0.223   8.285  10.274 -0.6679  0.5864  0.5206
  772MOL0     O 6399   3.412   5.850  11.179  0.6077  0.9879 -1.2208
  772MOL0     C 6400   3.474   5.747  11.142  0.2670 -0.5033 -1.2826
  772MOL0     O 6401   3.550   5.672  11.221 -0.1568  0.9081 -0.5855
  772MOL0     C 6402   3.601   5.721  11.345 -0.6548  0.3052 -0.1933
  772MOL0     C 6403   3.647   5.851  11.366 -0.4822 -0.0040 -0.2454
  772MOL0     C 6404   3.681   5.895  11.500 -0.1544  0.4574  0.1876
  772MOL0     C 6405   3.696   5.798  11.601  0.3398 -0.8075 -0.7625
  772MOL0     O 6406   3.734   5.825  11.735  0.6716 -0.2953  0.3687
  772MOL0     C 6407   3.819   5.941  11.759  0.2590  0.7308 -0.1296
  772MOL0     C 6408   3.852   5.967  11.908  0.6626 -0.5133 -0.3607
  772MOL0     C 6409   3.959   6.075  11.934 -0.1378  0.1150 -0.8800
  772MOL0     C 6410   3.910   6.206  11.883  0.1817  0.3823 -0.2449
  772MOL0     C 6411   4.011   6.314  11.888 -0.6777 -1.5842  0.5518
  772MOL0     C 6412   4.098   6.334  12.017  0.1623  0.9101  0.0307
  772MOL0     C 6413   4.179   6.461  12.031 -0.1925  0.9255  0.3386
  772MOL0     C 6414   4.271   6.450  12.155 -0.8833  0.3383 -0.1459
  772MOL0     N 6415   4.217   6.388  12.278  0.2237 -0.1741  0.1829
  772MOL0     C 6416   4.149   6.457  12.377 -0.5134  0.6131  0.1159
  772MOL0     C 6417   4.123   6.364  12.472 -0.1962 -0.3648  0.3982
  772MOL0     C 6418   4.059   6.392  12.604  1.0340 -0.1746 -0.2637
  772MOL0     C 6419   4.080   6.283  12.709 -0.9132 -1.1230 -0.6094
  772MOL0     C 6420   3.985   6.297  12.829  0.0295  0.0224 -0.7986
  772MOL0     C 6421   3.987   6.442  12.883 -0.7659  0.3959 -0.4387
  772MOL0     O 6422   4.127   6.473  12.909 -0.5820  0.4027 -0.3347
  772MOL0     C 6423   4.141   6.610  12.934  0.7984 -0.1439  0.5570
  772MOL0     C 6424   4.196   6.687  12.833  0.0694  0.2058 -0.6813
  772MOL0     C 6425   4.217   6.829  12.845 -0.3104  0.0397  0.2979
  772MOL0     C 6426   4.279   6.913  12.728 -0.5318 -0.4889 -0.3900
  772MOL0     C 6427   4.162   6.890  12.961 -0.6623 -0.1133 -1.1506
  772MOL0     C 6428   4.153   7.032  12.982  0.0631 -0.1227 -1.2985
  772MOL0     O 6429   4.031   7.084  13.036  0.1219  0.8350  0.5313
  772MOL0     C 6430   4.032   7.224  13.034  0.8028  0.3906 -0.4473
  772MOL0     C 6431   3.964   7.297  12.933 -0.6044  0.1974  0.5395
  772MOL0     C 6432   3.972   7.434  12.928  0.1432 -0.3109 -0.4980
  772MOL0     C 6433   4.049   7.500  13.033 -0.1947 -1.0098 -0.0857
  772MOL0     O 6434   4.045   7.648  13.018  0.2861 -0.7153 -0.5088
  772MOL0     C 6435   4.128   7.730  13.098  1.1247  0.5692 -0.0399
  772MOL0     C 6436   4.145   7.875  13.062 -0.3034 -0.2850 -0.1070
  772MOL0     C 6437   4.223   7.967  13.157  0.6785  0.2637  0.1369
  772MOL0     C 6438   4.372   7.927  13.182  1.2765 -0.0962 -0.7334
  772MOL0     C 6439   4.433   8.045  13.258 -0.3810 -0.0820 -0.9988
  772MOL0     C 6440   4.582   8.023  13.279 -0.7576 -0.0903  1.4457
  772MOL0     C 6441   4.663   8.149  13.299  0.9613 -0.6830  0.3580
  772MOL0     C 6442   4.796   8.121  13.363  1.2287 -0.1342 -0.7611
  772MOL0    Cl 6443   4.885   7.981  13.275  0.2400 -0.5487  0.2976
  772MOL0     C 6444   4.107   7.436  13.139  0.0577  0.3758 -0.4525
  772MOL0     C 6445   4.095   7.295  13.134 -0.2804  0.9771  1.1969
  772MOL0     O 6446   4.257   7.094  12.961 -0.6614  0.3954 -0.1778
  772MOL0     C 6447   4.109   6.808  13.065  0.8490 -0.3446  0.6799
  772MOL0     C 6448   4.088   6.669  13.052 -0.5420 -0.5915  0.1265
  772MOL0     N 6449   4.138   6.235  12.421 -0.0009 -0.0476  0.7888
  772MOL0     N 6450   4.212   6.256  12.315  0.4905  0.0751 -0.0280
  772MOL0     C 6451   3.666   5.669  11.572  1.3604  0.1747 -0.2078
  772MOL0     C 6452   3.622   5.634  11.445  1.1892  0.2403 -0.8357
  772MOL0     C 6453   3.460   5.699  11.010 -0.4221 -0.8516  0.5041
  772MOL0     C 6454   3.436   5.787  10.908  0.2062 -0.6049  0.7615
  772MOL0     C 6455   3.444   5.760  10.776 -0.1068  0.0082  0.0814
  772MOL0     C 6456   3.484   5.634  10.730 -0.8135  0.3757 -0.0526
  772MOL0     O 6457   3.494   5.614  10.594  0.1249  0.1828 -0.0643
  772MOL0     C 6458   3.534   5.489  10.535 -0.3444  0.0883 -0.5861
  772MOL0     C 6459   3.479   5.473  10.396  0.0859 -0.9648 -0.9555
  772MOL0     C 6460   3.331   5.457  10.368 -0.2203  0.2904  0.7850
  772MOL0     C 6461   3.246   5.580  10.402  0.0284  0.0572  0.7287
  772MOL0     C 6462   3.112   5.578  10.345 -0.8710 -0.1208  0.4792
  772MOL0     C 6463   2.997   5.616  10.318  0.5971  0.4838 -0.1370
  772MOL0     C 6464   3.517   5.536  10.826 -0.0644 -0.8987  1.1697
  772MOL0     C 6465   3.503   5.570  10.964  0.6793  0.3125  0.0568
  772MOL0     C 6466   3.519   5.448  11.055  1.0067 -0.5391  0.1761
  772MOL0     H 6467   3.655   5.925  11.287 -2.1457  1.6964  1.0800
  772MOL0     H 6468   3.713   5.998  11.517  2.6377 -0.1661 -0.8022
  772MOL0     H 6469   3.761   6.025  11.720 -2.5768 -0.2947  1.5521
  772MOL0     H 6470   3.914   5.916  11.710 -0.4795 -3.2105  0.0925
  772MOL0     H 6471   3.755   5.980  11.957 -0.4568 -0.2204 -2.5049
  772MOL0     H 6472   3.894   5.881  11.960  2.5069  0.1918 -0.6113
  772MOL0     H 6473   3.986   6.064  12.039  0.5301 -1.0689 -1.1513
  772MOL0     H 6474   4.049   6.046  11.879  0.3511  3.2931 -1.9813
  772MOL0     H 6475   3.871   6.193  11.781 -1.4610  0.3348  0.3611
  772MOL0     H 6476   3.821   6.239  11.936 -1.8100 -2.3911 -1.5969
  772MOL0     H 6477   3.963   6.411  11.872  2.9992  0.4007  0.3594
  772MOL0     H 6478   4.081   6.298  11.805 -1.3937  0.6144 -0.5751
  772MOL0     H 6479   4.019   6.342  12.092  0.4309  1.8996  0.2184
  772MOL0     H 6480   4.160   6.244  12.020 -0.4070  0.4969 -0.3528
  772MOL0     H 6481   4.110   6.546  12.033 -2.2919 -0.6448  4.1962
  772MOL0     H 6482   4.242   6.474  11.943  1.8009 -0.5399  1.4630
  772MOL0     H 6483   4.357   6.392  12.120  0.4023  1.2120  1.3978
  772MOL0     H 6484   4.310   6.550  12.179 -0.6839  0.2699 -0.1765
  772MOL0     H 6485   4.144   6.563  12.399 -2.4295  0.5975 -0.1073
  772MOL0     H 6486   3.951   6.405  12.591  0.6879 -0.4936  1.8975
  772MOL0     H 6487   4.097   6.487  12.643  1.5177  0.0737 -1.3328
  772MOL0     H 6488   4.078   6.184  12.664  0.4330 -1.6602  0.4375
  772MOL0     H 6489   4.176   6.290  12.761  0.6831 -1.5275 -3.3620
  772MOL0     H 6490   3.878   6.286  12.807 -0.5001 -0.8032  1.9086
  772MOL0     H 6491   4.012   6.233  12.913  0.9168  1.5506  0.1251
  772MOL0     H 6492   3.943   6.512  12.811 -0.4322  2.6709  1.4460
  772MOL0     H 6493   3.927   6.453  12.973 -0.5556  0.7415 -0.3412
  772MOL0     H 6494   4.224   6.646  12.736  0.5077 -1.9217  0.2790
  772MOL0     H 6495   4.359   6.976  12.768 -0.5270 -1.4663  1.2380
  772MOL0     H 6496   4.210   6.985  12.682 -0.4598 -1.5725 -2.3158
  772MOL0     H 6497   4.315   6.848  12.648  1.2175 -0.0741  0.0277
  772MOL0     H 6498   3.912   7.240  12.856  3.5932 -3.4984  0.0151
  772MOL0     H 6499   3.912   7.481  12.851 -1.4828 -2.4450 -0.6043
  772MOL0     H 6500   4.100   7.718  13.203 -0.4980 -1.6760 -0.6668
  772MOL0     H 6501   4.231   7.697  13.084  1.2227  1.3045 -1.2722
  772MOL0     H 6502   4.181   7.888  12.960  0.0863  0.3347  0.1051
  772MOL0     H 6503   4.047   7.923  13.055  0.3803  1.6701  2.4278
  772MOL0     H 6504   4.166   7.995  13.246 -2.6739 -2.9213 -0.7439
  772MOL0     H 6505   4.231   8.060  13.099  2.9927 -0.6700 -1.1814
  772MOL0     H 6506   4.412   7.908  13.082  1.0701 -1.7287 -0.5437
  772MOL0     H 6507   4.368   7.836  13.244 -3.5330 -0.0578 -0.5964
  772MOL0     H 6508   4.410   8.139  13.206 -1.2023 -0.4491 -1.3162
  772MOL0     H 6509   4.376   8.045  13.351  0.2839 -1.1485 -0.5714
  772MOL0     H 6510   4.621   7.985  13.184  2.2161  0.4358  2.3210
  772MOL0     H 6511   4.609   7.960  13.365  0.7659  1.7491  2.3942
  772MOL0     H 6512   4.616   8.222  13.366  2.2239  0.6569 -0.1739
  772MOL0     H 6513   4.677   8.205  13.205  0.4694  0.1050  0.7438
  772MOL0     H 6514   4.782   8.085  13.466  0.9142  0.1635 -0.6971
  772MOL0     H 6515   4.871   8.200  13.354  1.4215 -0.0535  1.0696
  772MOL0     H 6516   4.170   7.488  13.211  0.3327 -1.7792  0.9793
  772MOL0     H 6517   4.148   7.232  13.204 -0.0302 -1.9670 -1.4047
  772MOL0     H 6518   4.056   6.848  13.151  1.6202  0.0016  0.9975
  772MOL0     H 6519   4.040   6.617  13.134  0.0936  0.1842  0.9998
  772MOL0     H 6520   3.680   5.590  11.646 -3.1269  1.3695  2.3338
  772MOL0     H 6521   3.604   5.529  11.424 -2.4490  0.7870 -1.0378
  772MOL0     H 6522   3.427   5.891  10.937  5.4387  1.0225 -2.0522
  772MOL0     H 6523   3.400   5.832  10.708 -1.8835 -0.1492  1.0029
  772MOL0     H 6524   3.643   5.482  10.546 -0.7502 -2.8222  4.2718
  772MOL0     H 6525   3.494   5.410  10.600 -0.7532  0.0431 -0.8874
  772MOL0     H 6526   3.538   5.386  10.365 -0.5514 -2.0041  0.6432
  772MOL0     H 6527   3.519   5.557  10.339  3.3155 -0.6113  1.5513
  772MOL0     H 6528   3.329   5.442  10.260  0.9259 -2.0793  1.0364
  772MOL0     H 6529   3.289   5.376  10.429  1.5207  0.2713  2.0244
  772MOL0     H 6530   3.298   5.667  10.361  1.8490  0.2589  3.2207
  772MOL0     H 6531   3.241   5.597  10.510 -3.4058  1.1191  0.5194
  772MOL0     H 6532   2.904   5.660  10.290 -0.2126 -0.8218  0.4061
  772MOL0     H 6533   3.540   5.435  10.795  1.8285  0.1678 -1.2118
  772MOL0     H 6534   3.610   5.459  11.114  0.6171  0.0801  0.6648
  772MOL0     H 6535   3.445   5.447  11.135  0.7634  2.2995  0.0899
  772MOL0     H 6536   3.521   5.355  10.997 -0.0251 -0.7705  0.4998
  773MOL0     O 6537   8.641  10.897   6.157  0.2994 -0.2469 -0.9104
  773MOL0     C 6538   8.653  10.941   6.272  0.6849  1.0653 -0.3178
  773MOL0     O 6539   8.658  10.863   6.377  0.1499 -0.1684 -0.7850
  773MOL0     C 6540   8.658  10.725   6.363 -0.1348 -0.5455  0.7664
  773MOL0     C 6541   8.779  10.667   6.325 -0.2411 -0.3484 -0.6294
  773MOL0     C 6542   8.794  10.530   6.308 -0.1751 -0.5910  0.4201
  773MOL0     C 6543   8.682  10.448   6.310 -0.4656  0.2543 -0.3959
  773MOL0     O 6544   8.680  10.314   6.273  0.7404 -0.0182  0.0806
  773MOL0     C 6545   8.787  10.242   6.212  0.6157  0.5405  0.8448
  773MOL0     C 6546   8.743  10.104   6.171 -0.9226 -0.0404  0.0130
  773MOL0     C 6547   8.680  10.022   6.280 -0.5802  0.4271  0.0163
  773MOL0     C 6548   8.715   9.866   6.271 -0.2892 -0.1881  0.3310
  773MOL0     C 6549   8.672   9.807   6.138 -0.3421 -0.2160  0.2683
  773MOL0     C 6550   8.529   9.760   6.136  0.3483  0.1416  1.2163
  773MOL0     C 6551   8.495   9.659   6.019  0.1830  0.5997  0.6760
  773MOL0     C 6552   8.464   9.729   5.885  0.9778 -0.1305 -1.1848
  773MOL0     N 6553   8.450   9.646   5.763 -1.4124 -0.1902  0.7617
  773MOL0     C 6554   8.345   9.559   5.734 -0.0466 -0.1803 -0.0874
  773MOL0     C 6555   8.380   9.496   5.623  0.2278  0.2721  0.1318
  773MOL0     C 6556   8.296   9.395   5.538 -0.5342  0.5459  0.3752
  773MOL0     C 6557   8.352   9.253   5.528  0.5206  0.1504 -0.5800
  773MOL0     C 6558   8.362   9.189   5.669 -0.1686 -0.7165  0.2728
  773MOL0     C 6559   8.463   9.078   5.647 -1.4698  1.0836 -0.6596
  773MOL0     O 6560   8.401   8.980   5.573 -0.3151  0.1692  0.0677
  773MOL0     C 6561   8.474   8.891   5.491 -0.5642 -0.2716 -1.6273
  773MOL0     C 6562   8.617   8.882   5.477  0.4084 -1.2977 -0.0311
  773MOL0     C 6563   8.679   8.798   5.394 -0.8560 -1.1757  0.3278
  773MOL0     C 6564   8.828   8.809   5.373 -0.3138 -0.1185 -0.1222
  773MOL0     C 6565   8.600   8.707   5.318  0.4335 -0.5329  0.7466
  773MOL0     C 6566   8.647   8.617   5.213 -0.1895  0.6186 -0.6370
  773MOL0     O 6567   8.560   8.518   5.172  1.0599  0.8592 -0.5690
  773MOL0     C 6568   8.607   8.394   5.132  0.7298 -0.5256 -0.4694
  773MOL0     C 6569   8.507   8.308   5.091 -0.1432  0.0494 -0.7049
  773MOL0     C 6570   8.532   8.169   5.062 -0.5830 -0.3598 -0.5290
  773MOL0     C 6571   8.662   8.121   5.061  0.9499 -0.2355  0.2120
  773MOL0     O 6572   8.690   7.988   5.040  0.5710  0.0303  0.1899
  773MOL0     C 6573   8.789   7.967   4.942  0.3081 -0.0546  0.0868
  773MOL0     C 6574   8.728   7.896   4.825 -0.4609  0.4090  0.0367
  773MOL0     C 6575   8.687   8.010   4.721 -0.3666 -0.0445 -0.2708
  773MOL0     C 6576   8.637   7.935   4.603  0.1006 -0.0225 -0.1084
  773MOL0     C 6577   8.569   8.028   4.501  0.4934 -0.3819 -0.0843
  773MOL0     C 6578   8.661   8.109   4.399  0.2438 -0.2238  0.5065
  773MOL0     C 6579   8.568   8.224   4.355 -0.5325  0.4939 -0.7491
  773MOL0     C 6580   8.650   8.320   4.261 -0.0878  0.3403 -0.4439
  773MOL0    Cl 6581   8.821   8.362   4.309  0.2519 -0.2299 -0.0008
  773MOL0     C 6582   8.751   8.195   5.129  0.2266 -0.6685  0.6159
  773MOL0     C 6583   8.725   8.328   5.159  0.1943 -0.3045 -0.1355
  773MOL0     O 6584   8.762   8.634   5.168 -0.8756  0.1143 -0.3375
  773MOL0     C 6585   8.459   8.714   5.326  0.8948  0.2615  0.0144
  773MOL0     C 6586   8.394   8.810   5.404  0.6145 -0.6667 -0.8171
  773MOL0     N 6587   8.507   9.528   5.590 -0.2539 -0.4043 -1.2039
  773MOL0     N 6588   8.544   9.627   5.673  0.3917  0.1868  0.3568
  773MOL0     C 6589   8.557  10.503   6.355 -0.0379 -0.1396  0.5612
  773MOL0     C 6590   8.548  10.637   6.382  0.3758 -0.0608 -0.7306
  773MOL0     C 6591   8.658  11.092   6.295 -0.4888  0.9072 -0.3675
  773MOL0     C 6592   8.716  11.137   6.408  0.4176  0.6912 -0.7105
  773MOL0     C 6593   8.729  11.272   6.438  0.4692 -1.4390  0.8740
  773MOL0     C 6594   8.684  11.371   6.347  0.5270  0.1278 -0.2726
  773MOL0     O 6595   8.706  11.506   6.368  0.5635  0.2918  0.0138
  773MOL0     C 6596   8.738  11.592   6.256 -1.1567 -0.6662  0.5081
  773MOL0     C 6597   8.782  11.738   6.309  0.2200  1.1658  0.6524
  773MOL0     C 6598   8.696  11.788   6.421  0.7355 -0.9034 -1.5532
  773MOL0     C 6599   8.681  11.943   6.436  1.4507  0.4145 -0.0440
  773MOL0     C 6600   8.578  11.974   6.541  0.3404 -0.0543  0.2515
  773MOL0     C 6601   8.507  11.995   6.637  0.0042  0.4077 -0.8803
  773MOL0     C 6602   8.611  11.324   6.234 -0.9856 -0.1249 -0.7155
  773MOL0     C 6603   8.597  11.186   6.202  0.7463  0.4715 -0.2886
  773MOL0     C 6604   8.508  11.133   6.087 -0.4204  0.2703 -1.4180
  773MOL0     H 6605   8.859  10.738   6.307 -1.1473  0.8098 -0.2353
  773MOL0     H 6606   8.898  10.508   6.286  0.1619  0.0481  1.2918
  773MOL0     H 6607   8.871  10.234   6.282  0.4075  3.0625  1.4507
  773MOL0     H 6608   8.824  10.294   6.124  0.2206 -1.4987 -0.5967
  773MOL0     H 6609   8.671  10.122   6.092 -2.1415  2.0375  1.5096
  773MOL0     H 6610   8.828  10.047   6.132 -2.3934 -1.0937 -1.8005
  773MOL0     H 6611   8.721  10.053   6.377 -2.2942 -0.2119  1.0013
  773MOL0     H 6612   8.571  10.036   6.285 -0.5857  0.4915 -0.3077
  773MOL0     H 6613   8.823   9.861   6.288 -0.5981 -0.2123  2.5836
  773MOL0     H 6614   8.674   9.810   6.356  0.9076 -0.2304  0.9070
  773MOL0     H 6615   8.740   9.724   6.116 -3.0102 -1.7638 -3.2036
  773MOL0     H 6616   8.699   9.873   6.056 -2.3750 -1.2119 -1.3089
  773MOL0     H 6617   8.514   9.703   6.228  0.4245 -1.0992  0.4930
  773MOL0     H 6618   8.466   9.849   6.128  0.4761  0.1595  0.3390
  773MOL0     H 6619   8.405   9.605   6.049  0.0949  0.7290  0.6488
  773MOL0     H 6620   8.578   9.591   6.000 -0.8105 -0.2031 -1.0986
  773MOL0     H 6621   8.374   9.789   5.897  1.6089  0.8039 -1.0066
  773MOL0     H 6622   8.542   9.804   5.874  0.6279  0.3155 -0.6632
  773MOL0     H 6623   8.246   9.562   5.777  0.4408  0.5645  1.0213
  773MOL0     H 6624   8.301   9.444   5.440  0.3830  0.5846  0.4266
  773MOL0     H 6625   8.193   9.391   5.573  0.2051 -1.3364  2.5106
  773MOL0     H 6626   8.294   9.183   5.467  0.4134  0.0175 -0.3230
  773MOL0     H 6627   8.450   9.253   5.479  1.5418 -3.0130  1.2163
  773MOL0     H 6628   8.404   9.261   5.741  0.3722 -0.9492  0.1998
  773MOL0     H 6629   8.267   9.165   5.717  0.0286 -0.8606  0.5994
  773MOL0     H 6630   8.558   9.108   5.601 -0.5188 -3.6756 -2.4434
  773MOL0     H 6631   8.492   9.040   5.745 -1.8085 -0.8129 -1.2483
  773MOL0     H 6632   8.673   8.952   5.537 -0.6280 -0.8788  0.4663
  773MOL0     H 6633   8.879   8.845   5.463 -2.9019 -0.3025  1.5275
  773MOL0     H 6634   8.859   8.878   5.295  0.6271  3.4125  3.0867
  773MOL0     H 6635   8.877   8.712   5.357  1.7103  1.1529 -2.2501
  773MOL0     H 6636   8.404   8.341   5.098 -0.4792 -1.2327  2.1510
  773MOL0     H 6637   8.451   8.099   5.043 -0.3365 -0.7157 -0.2750
  773MOL0     H 6638   8.838   8.059   4.910  2.2395 -1.4876 -1.3235
  773MOL0     H 6639   8.872   7.906   4.979  2.1091  0.3529 -2.9752
  773MOL0     H 6640   8.807   7.834   4.782 -1.3986 -2.7975  2.5446
  773MOL0     H 6641   8.642   7.834   4.852 -0.9857  0.4993 -1.3616
  773MOL0     H 6642   8.777   8.063   4.690 -0.6095  2.1462  2.3669
  773MOL0     H 6643   8.608   8.071   4.767 -0.9976 -2.0665  1.5413
  773MOL0     H 6644   8.559   7.870   4.644 -0.1796 -1.8267 -3.1874
  773MOL0     H 6645   8.705   7.864   4.555 -0.8561  0.3259 -2.0586
  773MOL0     H 6646   8.518   7.966   4.426  0.0177  0.2102 -0.2554
  773MOL0     H 6647   8.499   8.096   4.549  0.9218  0.8215 -1.1136
  773MOL0     H 6648   8.701   8.051   4.315  2.3456  0.9088  0.6651
  773MOL0     H 6649   8.745   8.155   4.453 -1.1331  2.2102  0.7234
  773MOL0     H 6650   8.527   8.285   4.435  0.5785 -1.0783  1.1065
  773MOL0     H 6651   8.478   8.182   4.308 -0.6920 -1.0473  0.8399
  773MOL0     H 6652   8.588   8.410   4.256 -0.9993 -0.1890  0.9010
  773MOL0     H 6653   8.648   8.270   4.164  2.7281  1.4530 -1.1790
  773MOL0     H 6654   8.851   8.164   5.156  2.2379  2.6877 -2.1916
  773MOL0     H 6655   8.806   8.388   5.200 -0.3054 -0.0072  0.4286
  773MOL0     H 6656   8.400   8.654   5.257  3.9877  1.1952 -3.8392
  773MOL0     H 6657   8.286   8.817   5.403  0.7253  3.5902 -0.6134
  773MOL0     H 6658   8.479  10.428   6.368  0.3990 -1.3357 -2.7043
  773MOL0     H 6659   8.449  10.670   6.409 -0.0322 -1.1862 -0.8031
  773MOL0     H 6660   8.751  11.062   6.479 -1.7862 -0.0252 -0.2771
  773MOL0     H 6661   8.772  11.298   6.534  5.1676  0.8372 -1.5052
  773MOL0     H 6662   8.819  11.555   6.192 -0.8238  1.1184 -0.1640
  773MOL0     H 6663   8.651  11.610   6.192 -0.0222 -0.1614 -0.9480
  773MOL0     H 6664   8.779  11.804   6.222  3.2358 -0.4352 -0.8080
  773MOL0     H 6665   8.885  11.729   6.342  0.8285  2.5551 -0.7414
  773MOL0     H 6666   8.599  11.739   6.414  0.8609 -0.9391 -3.5312
  773MOL0     H 6667   8.739  11.765   6.520 -3.3954  1.3493  1.0445
  773MOL0     H 6668   8.657  11.982   6.337  3.3827  0.0609 -0.6926
  773MOL0     H 6669   8.779  11.982   6.466  1.0673  0.3309  1.3862
  773MOL0     H 6670   8.440  12.005   6.721  0.6258  2.1270 -0.5508
  773MOL0     H 6671   8.560  11.395   6.171 -0.2960  1.0552  0.0225
  773MOL0     H 6672   8.581  11.081   6.025  0.7406 -0.0002  0.1161
  773MOL0     H 6673   8.434  11.060   6.121  1.2457 -0.7763  0.1116
  773MOL0     H 6674   8.451  11.210   6.034  1.1420  1.2730 -1.7210
  774MOL0     O 6675   7.867   2.074   9.093  0.4414  0.7577  0.2252
  774MOL0     C 6676   7.972   2.053   9.024 -0.3416 -0.2434 -0.1565
  774MOL0     O 6677   8.016   2.135   8.922  0.1582 -0.3090 -0.2502
  774MOL0     C 6678   7.959   2.258   8.883  0.9586 -0.5391 -0.1610
  774MOL0     C 6679   7.906   2.349   8.970 -0.5459 -0.1325  0.0757
  774MOL0     C 6680   7.847   2.471   8.925  0.3524  0.4420 -0.0819
  774MOL0     C 6681   7.838   2.500   8.791 -0.4426  0.0594  0.2956
  774MOL0     O 6682   7.773   2.606   8.734 -0.2376  0.0642  0.7200
  774MOL0     C 6683   7.779   2.731   8.815 -0.3706  0.6226 -0.8247
  774MOL0     C 6684   7.701   2.836   8.753 -0.5570 -1.0770  0.1712
  774MOL0     C 6685   7.726   2.982   8.793  0.1029 -0.3719 -0.9027
  774MOL0     C 6686   7.657   3.031   8.929  0.2516  0.1717  0.1532
  774MOL0     C 6687   7.679   3.184   8.935 -0.4531  0.3947 -0.1548
  774MOL0     C 6688   7.634   3.246   9.067 -0.2660  0.2406  0.1410
  774MOL0     C 6689   7.644   3.400   9.065 -0.1151  0.0691 -0.6132
  774MOL0     C 6690   7.582   3.463   9.192  0.2244 -0.4173 -0.5726
  774MOL0     N 6691   7.438   3.454   9.183  0.2098 -0.9929 -0.5536
  774MOL0     C 6692   7.357   3.415   9.292 -0.2792 -0.5096 -0.1041
  774MOL0     C 6693   7.233   3.412   9.236 -0.2481 -0.3559 -0.3428
  774MOL0     C 6694   7.100   3.390   9.306  0.3162  0.4538 -0.6246
  774MOL0     C 6695   7.097   3.292   9.427 -0.1911  0.4769 -0.6249
  774MOL0     C 6696   7.161   3.158   9.402 -0.4942 -0.0373  0.4598
  774MOL0     C 6697   7.156   3.063   9.520  0.1912  0.0114  0.5987
  774MOL0     O 6698   7.013   3.027   9.552 -0.0390 -0.6721 -0.7021
  774MOL0     C 6699   6.995   2.954   9.667 -0.7254  0.2891  0.5967
  774MOL0     C 6700   6.948   3.008   9.780  0.7511 -1.0375 -0.1940
  774MOL0     C 6701   6.932   2.928   9.900  0.0089 -0.8071 -0.6148
  774MOL0     C 6702   6.879   3.006  10.020  0.2907  0.6831  0.5616
  774MOL0     C 6703   6.985   2.798   9.906  0.5489  0.2751 -0.6554
  774MOL0     C 6704   6.985   2.731  10.042 -0.6598 -0.3107 -0.5098
  774MOL0     O 6705   6.868   2.721  10.114  0.0625  0.0953  0.7792
  774MOL0     C 6706   6.861   2.653  10.225  0.4464  0.3373  0.2981
  774MOL0     C 6707   6.753   2.693  10.299 -0.5617  0.2856  0.7233
  774MOL0     C 6708   6.717   2.635  10.423 -0.2598  0.7107  0.9798
  774MOL0     C 6709   6.787   2.522  10.469 -0.8653 -0.7615  0.1476
  774MOL0     O 6710   6.768   2.444  10.586  0.1686  0.7219 -0.4666
  774MOL0     C 6711   6.682   2.488  10.692  0.9163  0.1081 -1.0418
  774MOL0     C 6712   6.678   2.383  10.806  0.1845  0.3865  0.0549
  774MOL0     C 6713   6.610   2.414  10.939 -0.1863 -0.4183  0.6852
  774MOL0     C 6714   6.701   2.365  11.062 -0.1106  0.2620 -0.1314
  774MOL0     C 6715   6.609   2.330  11.181 -0.9931 -0.4047  0.4461
  774MOL0     C 6716   6.569   2.450  11.264  0.3036 -0.4304  0.0853
  774MOL0     C 6717   6.494   2.409  11.393  0.5617 -0.6980  0.3692
  774MOL0     C 6718   6.456   2.532  11.480 -0.2510 -0.2523  0.8135
  774MOL0    Cl 6719   6.436   2.474  11.649  0.1582 -0.1976  0.2108
  774MOL0     C 6720   6.899   2.481  10.395 -0.0713 -0.1031  0.7301
  774MOL0     C 6721   6.936   2.543  10.278  0.4568 -1.1620 -0.1861
  774MOL0     O 6722   7.101   2.696  10.080 -0.0627  0.2428  0.5748
  774MOL0     C 6723   7.046   2.747   9.790  0.0637 -0.2436  0.0228
  774MOL0     C 6724   7.049   2.821   9.670 -0.1879 -1.0327 -0.1303
  774MOL0     N 6725   7.238   3.460   9.110 -0.3274 -0.8243  0.4637
  774MOL0     N 6726   7.364   3.478   9.068  0.9774  0.0760  0.4140
  774MOL0     C 6727   7.894   2.402   8.707  0.4755  0.3204  1.3227
  774MOL0     C 6728   7.963   2.286   8.746  1.1163  0.0175  0.3694
  774MOL0     C 6729   8.055   1.938   9.059 -0.4039  0.3110  0.4539
  774MOL0     C 6730   7.994   1.825   9.095 -0.4268  0.0542 -1.0365
  774MOL0     C 6731   8.053   1.709   9.133 -0.0053 -0.0372  0.3802
  774MOL0     C 6732   8.187   1.715   9.163 -0.4012  0.9163 -0.7165
  774MOL0     O 6733   8.267   1.618   9.213  0.2659  0.4748  0.0859
  774MOL0     C 6734   8.243   1.586   9.354 -0.5452  0.8539  1.0900
  774MOL0     C 6735   8.366   1.602   9.439 -0.4560 -0.7841  0.0265
  774MOL0     C 6736   8.352   1.556   9.590 -0.0085 -0.4526 -0.0956
  774MOL0     C 6737   8.444   1.643   9.690  1.1748  1.1924  0.5992
  774MOL0     C 6738   8.586   1.593   9.682  0.1772  0.0975  1.0614
  774MOL0     C 6739   8.704   1.570   9.684  0.6300  0.6537  0.1687
  774MOL0     C 6740   8.260   1.829   9.121 -0.2691 -0.2179  0.2464
  774MOL0     C 6741   8.194   1.935   9.058  0.2256  0.0905  0.7072
  774MOL0     C 6742   8.278   2.053   9.016 -0.1296 -0.4738 -0.2703
  774MOL0     H 6743   7.910   2.322   9.075 -1.1079 -0.2474  0.0733
  774MOL0     H 6744   7.804   2.536   9.000  1.9642 -0.7719  2.0022
  774MOL0     H 6745   7.885   2.755   8.822  0.4266 -2.8078  3.0210
  774MOL0     H 6746   7.739   2.708   8.914 -0.5015 -1.8187 -1.3709
  774MOL0     H 6747   7.731   2.838   8.647  2.3073  1.5714  0.8968
  774MOL0     H 6748   7.594   2.812   8.754 -1.0319  0.8586  2.0498
  774MOL0     H 6749   7.833   3.004   8.799 -0.0512 -0.0295  1.4625
  774MOL0     H 6750   7.688   3.046   8.712  2.0941  1.2837 -0.6114
  774MOL0     H 6751   7.551   3.002   8.929 -0.5993  2.9686 -1.0076
  774MOL0     H 6752   7.714   2.984   9.010 -0.0655  0.3285  0.4723
  774MOL0     H 6753   7.614   3.224   8.857  2.1541  1.3857 -1.9364
  774MOL0     H 6754   7.784   3.206   8.916  0.7566 -1.9656  2.8655
  774MOL0     H 6755   7.527   3.228   9.079 -0.5607  1.8451  0.1154
  774MOL0     H 6756   7.701   3.206   9.144 -0.0429  3.5795  1.8590
  774MOL0     H 6757   7.592   3.426   8.972  2.4545  1.6975 -1.7047
  774MOL0     H 6758   7.744   3.443   9.054 -0.1173  0.8333  1.8929
  774MOL0     H 6759   7.630   3.408   9.274 -0.6144 -0.0208  0.2123
  774MOL0     H 6760   7.624   3.563   9.196  2.6423 -1.3694 -0.5056
  774MOL0     H 6761   7.371   3.414   9.400 -2.5505  1.6194  0.2937
  774MOL0     H 6762   7.037   3.353   9.225  1.1141  0.9084 -1.4707
  774MOL0     H 6763   7.063   3.488   9.340 -1.7245  0.8656 -3.7100
  774MOL0     H 6764   7.146   3.348   9.507  1.5153  1.6555 -2.3885
  774MOL0     H 6765   6.997   3.273   9.468  0.5845 -3.5358 -0.2377
  774MOL0     H 6766   7.115   3.112   9.314 -2.1307  3.1090 -0.4623
  774MOL0     H 6767   7.262   3.179   9.366 -0.0899  1.9993  2.5587
  774MOL0     H 6768   7.217   2.975   9.500  1.2056  0.7954  0.1554
  774MOL0     H 6769   7.201   3.115   9.605 -1.3283 -0.6901  1.8864
  774MOL0     H 6770   6.914   3.111   9.782 -0.1346 -1.3083  2.1315
  774MOL0     H 6771   6.770   2.997  10.017 -0.2344  4.8800  0.7967
  774MOL0     H 6772   6.887   3.112   9.993 -2.2300  0.1416 -3.1073
  774MOL0     H 6773   6.926   2.984  10.116  0.5639  2.5366  0.8963
  774MOL0     H 6774   6.699   2.777  10.255  0.3130  0.0521 -0.8781
  774MOL0     H 6775   6.630   2.667  10.479 -2.2801 -3.4521  0.6003
  774MOL0     H 6776   6.724   2.582  10.729  1.0998  0.2585 -1.6292
  774MOL0     H 6777   6.583   2.488  10.645  1.8727 -0.4045 -3.1481
  774MOL0     H 6778   6.646   2.288  10.762  0.2661  0.6964 -0.6865
  774MOL0     H 6779   6.782   2.372  10.839  0.0567 -0.6162  0.1596
  774MOL0     H 6780   6.516   2.357  10.946 -1.4951  1.8400  3.1861
  774MOL0     H 6781   6.601   2.523  10.939 -1.6249 -0.3520 -3.7230
  774MOL0     H 6782   6.787   2.431  11.078  0.2454 -0.4373  0.9868
  774MOL0     H 6783   6.754   2.282  11.015 -1.6619  1.3303 -4.1561
  774MOL0     H 6784   6.526   2.268  11.144  0.5651 -2.7300  0.5843
  774MOL0     H 6785   6.683   2.266  11.229  1.1962  0.7632 -1.2068
  774MOL0     H 6786   6.491   2.507  11.212 -0.5877 -0.2369  1.5728
  774MOL0     H 6787   6.655   2.511  11.292 -0.6934  1.3572 -0.5943
  774MOL0     H 6788   6.568   2.356  11.454  0.0734 -0.3180  1.3017
  774MOL0     H 6789   6.408   2.343  11.386  2.3294 -3.0180 -1.3972
  774MOL0     H 6790   6.360   2.577  11.450  1.6236  2.4776 -1.6024
  774MOL0     H 6791   6.523   2.617  11.492 -0.2196 -0.1759  0.1581
  774MOL0     H 6792   6.952   2.405  10.452  0.3312 -0.8263 -0.5616
  774MOL0     H 6793   7.026   2.508  10.230  0.9082 -0.7372  0.3319
  774MOL0     H 6794   7.099   2.653   9.800 -0.8589 -1.0278 -1.9790
  774MOL0     H 6795   7.108   2.783   9.587  1.7318  1.6043 -0.1104
  774MOL0     H 6796   7.884   2.414   8.600 -4.5581 -0.6603  1.4791
  774MOL0     H 6797   8.003   2.215   8.674 -1.2209 -1.3367  0.2687
  774MOL0     H 6798   7.887   1.813   9.079 -0.6810  0.7945 -0.0333
  774MOL0     H 6799   7.997   1.617   9.147 -0.4501  0.4763  2.1603
  774MOL0     H 6800   8.154   1.635   9.394  0.7003  2.1414  2.4152
  774MOL0     H 6801   8.217   1.479   9.355  2.5673 -0.0137  1.0945
  774MOL0     H 6802   8.383   1.710   9.442 -0.2330 -0.7356 -1.6083
  774MOL0     H 6803   8.451   1.554   9.389 -0.7776 -0.0902 -1.2471
  774MOL0     H 6804   8.247   1.576   9.612 -0.5136 -2.5752 -0.3988
  774MOL0     H 6805   8.376   1.451   9.607  3.2666  0.5071  2.2389
  774MOL0     H 6806   8.404   1.621   9.789 -0.4753 -0.8918 -0.4512
  774MOL0     H 6807   8.429   1.748   9.665  1.9413  0.9537 -1.0261
  774MOL0     H 6808   8.808   1.550   9.700  0.3383  0.1350  1.5809
  774MOL0     H 6809   8.369   1.831   9.127 -0.1065  3.1809 -1.4405
  774MOL0     H 6810   8.242   2.150   9.052  0.4362  1.0692 -3.5236
  774MOL0     H 6811   8.385   2.049   9.039  0.7722 -0.5996 -3.8958
  774MOL0     H 6812   8.267   2.056   8.908  2.4392 -0.4509 -0.5891
  775MOL0     O 6813   3.963  11.394   0.526  0.3694  0.1674  0.4854
  775MOL0     C 6814   3.925  11.509   0.510 -0.1469 -0.2795 -0.0766
  775MOL0     O 6815   3.841  11.555   0.411 -0.1902  0.0146 -0.5380
  775MOL0     C 6816   3.782  11.471   0.318  0.0517  0.6367  0.5120
  775MOL0     C 6817   3.712  11.541   0.228  0.5036  0.5134  0.9731
  775MOL0     C 6818   3.636  11.476   0.127 -0.4905 -0.0402  1.0347
  775MOL0     C 6819   3.625  11.337   0.121  0.3760  0.4935  0.3888
  775MOL0     O 6820   3.558  11.274   0.013  0.3469  0.1938 -0.1049
  775MOL0     C 6821   3.629  11.174  -0.064  0.0646 -0.1520 -0.2055
  775MOL0     C 6822   3.691  11.231  -0.189 -0.2892 -0.2400 -1.0726
  775MOL0     C 6823   3.588  11.267  -0.292 -0.1278 -0.1094 -0.1554
  775MOL0     C 6824   3.621  11.399  -0.366  0.0389 -0.3965 -0.4075
  775MOL0     C 6825   3.522  11.462  -0.459  1.0571 -0.9907  0.2423
  775MOL0     C 6826   3.390  11.515  -0.392 -0.2537 -0.9116 -0.1615
  775MOL0     C 6827   3.302  11.569  -0.499 -0.3058 -0.4606 -0.7757
  775MOL0     C 6828   3.161  11.586  -0.447  0.2001 -1.0713  0.3606
  775MOL0     N 6829   3.094  11.672  -0.546 -0.0710  0.0363 -0.4547
  775MOL0     C 6830   3.068  11.633  -0.673  0.1669  0.4376  0.0811
  775MOL0     C 6831   2.999  11.731  -0.741  0.9449 -0.1484  0.3197
  775MOL0     C 6832   2.935  11.735  -0.880  0.4602  0.3726 -0.5381
  775MOL0     C 6833   2.808  11.652  -0.867  0.7347  0.3469  0.4754
  775MOL0     C 6834   2.740  11.635  -1.008 -0.5029 -0.3275 -0.8977
  775MOL0     C 6835   2.603  11.570  -0.991  0.0076  0.4716  0.0818
  775MOL0     O 6836   2.515  11.670  -0.934 -0.0186 -0.0689 -0.5826
  775MOL0     C 6837   2.456  11.767  -1.017 -0.6489  0.3767 -0.2761
  775MOL0     C 6838   2.463  11.769  -1.155  0.2937 -0.9624  0.5688
  775MOL0     C 6839   2.380  11.861  -1.237 -0.3096  0.4813 -0.4123
  775MOL0     C 6840   2.381  11.838  -1.380  0.0372  0.4042  0.0865
  775MOL0     C 6841   2.295  11.953  -1.171 -0.1264 -0.4643  0.0926
  775MOL0     C 6842   2.212  12.057  -1.245 -1.2527  0.0282 -0.1699
  775MOL0     O 6843   2.110  12.120  -1.180  0.0271 -0.1480 -0.1261
  775MOL0     C 6844   2.038  12.228  -1.218 -0.2646 -0.4654 -1.1450
  775MOL0     C 6845   2.081  12.327  -1.306  0.2197  0.2457  0.2423
  775MOL0     C 6846   2.008  12.441  -1.330  0.2294 -0.3912  0.1417
  775MOL0     C 6847   1.887  12.458  -1.267 -0.4245 -0.7230 -0.7923
  775MOL0     O 6848   1.811  12.566  -1.300 -0.6824 -0.9739  0.9366
  775MOL0     C 6849   1.671  12.539  -1.330  1.1174  0.9238 -0.2902
  775MOL0     C 6850   1.611  12.622  -1.436 -0.3940 -0.5086 -1.1844
  775MOL0     C 6851   1.535  12.550  -1.545  0.6858  0.1110 -1.0937
  775MOL0     C 6852   1.644  12.477  -1.624 -0.2895 -0.5529 -0.3041
  775MOL0     C 6853   1.595  12.439  -1.762  0.2184  0.2218  0.2258
  775MOL0     C 6854   1.518  12.308  -1.752 -0.1555  0.1740 -0.1451
  775MOL0     C 6855   1.483  12.253  -1.883  0.3675 -0.9304  0.0875
  775MOL0     C 6856   1.389  12.135  -1.875 -0.3546  0.2994  0.0289
  775MOL0    Cl 6857   1.257  12.158  -1.755  0.0848  0.2306  0.3782
  775MOL0     C 6858   1.845  12.369  -1.178 -0.6935 -0.6981  0.1453
  775MOL0     C 6859   1.919  12.252  -1.154  0.2165 -0.3200  0.0625
  775MOL0     O 6860   2.238  12.083  -1.359 -0.2769 -0.1077  0.2162
  775MOL0     C 6861   2.293  11.942  -1.030 -0.8642  0.4874  0.0359
  775MOL0     C 6862   2.373  11.854  -0.958  0.6788 -1.0079  0.2184
  775MOL0     N 6863   2.998  11.839  -0.652  0.3734  0.1639  0.9565
  775MOL0     N 6864   3.051  11.803  -0.544 -0.0087 -0.0468 -0.2766
  775MOL0     C 6865   3.705  11.260   0.207 -0.3931  0.0657 -1.2436
  775MOL0     C 6866   3.786  11.330   0.304 -0.2189  0.3020 -0.9684
  775MOL0     C 6867   3.993  11.613   0.602 -0.0259  0.6883 -0.5330
  775MOL0     C 6868   4.084  11.561   0.697  0.6743  0.2279 -0.3443
  775MOL0     C 6869   4.168  11.637   0.779 -0.2780 -0.3441 -0.6295
  775MOL0     C 6870   4.176  11.771   0.761  0.4155  0.7324 -0.4967
  775MOL0     O 6871   4.268  11.853   0.824  0.1475  0.2530  0.2896
  775MOL0     C 6872   4.405  11.808   0.814  0.0713 -0.5364 -0.4351
  775MOL0     C 6873   4.457  11.808   0.675  0.0837  0.0274  1.0086
  775MOL0     C 6874   4.480  11.946   0.613 -0.1721  1.2126 -0.0439
  775MOL0     C 6875   4.583  12.034   0.688  0.7596  0.0628  0.1497
  775MOL0     C 6876   4.648  12.115   0.588  0.3852  0.2037 -0.0981
  775MOL0     C 6877   4.708  12.161   0.495 -0.5034 -1.0308 -0.6462
  775MOL0     C 6878   4.077  11.824   0.673 -0.4811  0.3369  0.4511
  775MOL0     C 6879   3.995  11.752   0.582  0.0113  0.0385  0.5238
  775MOL0     C 6880   3.901  11.826   0.487  0.5419  1.4192  0.2623
  775MOL0     H 6881   3.712  11.650   0.235  0.4252  0.6676 -0.8748
  775MOL0     H 6882   3.579  11.529   0.052  2.1157  1.8843  0.2715
  775MOL0     H 6883   3.568  11.088  -0.093  2.0782 -1.1707 -1.5730
  775MOL0     H 6884   3.705  11.126  -0.003 -0.1971  0.2450  0.4547
  775MOL0     H 6885   3.747  11.319  -0.155 -0.6229 -0.5445  0.3163
  775MOL0     H 6886   3.754  11.155  -0.236 -1.1483 -0.1927 -2.3675
  775MOL0     H 6887   3.590  11.178  -0.356  4.5839 -0.6824  0.4066
  775MOL0     H 6888   3.492  11.280  -0.241 -1.5652  1.2361 -2.9615
  775MOL0     H 6889   3.640  11.468  -0.284  1.7516 -1.6914  0.3322
  775MOL0     H 6890   3.711  11.383  -0.426  1.8620  2.9008  1.2016
  775MOL0     H 6891   3.496  11.401  -0.546 -2.6231 -1.3279  1.4042
  775MOL0     H 6892   3.577  11.550  -0.493  2.4806 -2.2864 -0.9637
  775MOL0     H 6893   3.334  11.439  -0.336  0.8822 -1.8420 -0.2384
  775MOL0     H 6894   3.418  11.596  -0.324 -2.1715  1.2979 -1.8722
  775MOL0     H 6895   3.294  11.502  -0.586 -2.0630  0.4306 -1.3380
  775MOL0     H 6896   3.352  11.659  -0.537  1.4155 -0.6595  0.8423
  775MOL0     H 6897   3.107  11.491  -0.450  2.3055 -2.3114 -0.3226
  775MOL0     H 6898   3.170  11.639  -0.351  1.4980 -0.8886  0.1624
  775MOL0     H 6899   3.094  11.535  -0.712  0.4486  0.0075  1.3025
  775MOL0     H 6900   3.002  11.693  -0.955 -0.4047  2.2651 -2.4950
  775MOL0     H 6901   2.905  11.838  -0.903  3.7983  1.5857 -0.0336
  775MOL0     H 6902   2.835  11.556  -0.821 -0.2200  0.3276  1.0209
  775MOL0     H 6903   2.739  11.706  -0.801 -0.9789 -1.5750  0.3612
  775MOL0     H 6904   2.721  11.725  -1.068 -1.5071 -0.0813 -0.2341
  775MOL0     H 6905   2.802  11.562  -1.060 -0.7300 -0.5306 -0.8874
  775MOL0     H 6906   2.568  11.541  -1.091 -0.3565  0.7695  0.1161
  775MOL0     H 6907   2.593  11.486  -0.922 -0.6695  0.6801  0.2482
  775MOL0     H 6908   2.518  11.696  -1.213  0.1461 -0.7012  0.0965
  775MOL0     H 6909   2.451  11.910  -1.422 -0.6515  0.2516 -1.3947
  775MOL0     H 6910   2.281  11.847  -1.423  0.3434  0.5550 -0.5986
  775MOL0     H 6911   2.402  11.737  -1.414 -0.1454  0.1601  0.6821
  775MOL0     H 6912   2.175  12.330  -1.360 -0.3234 -1.2145 -0.8449
  775MOL0     H 6913   2.038  12.510  -1.408  0.9777  0.9398  1.5605
  775MOL0     H 6914   1.660  12.438  -1.371 -1.2181  0.7595  0.5315
  775MOL0     H 6915   1.608  12.547  -1.241  1.9545 -3.3929  0.8948
  775MOL0     H 6916   1.529  12.680  -1.394  1.9140  1.2741  1.2213
  775MOL0     H 6917   1.675  12.701  -1.476 -0.8716  1.5832  1.8096
  775MOL0     H 6918   1.492  12.633  -1.601  2.1513  0.5770 -1.5936
  775MOL0     H 6919   1.457  12.481  -1.513 -0.9906  1.8401 -1.3157
  775MOL0     H 6920   1.691  12.387  -1.582  1.5694  0.9100  0.9164
  775MOL0     H 6921   1.728  12.544  -1.644  2.1864 -3.1586  0.6246
  775MOL0     H 6922   1.530  12.521  -1.792 -0.9595 -0.3704  1.0919
  775MOL0     H 6923   1.671  12.427  -1.840 -0.6498 -0.2388 -0.5644
  775MOL0     H 6924   1.425  12.328  -1.697  1.3208  2.4543  1.7070
  775MOL0     H 6925   1.572  12.223  -1.708 -3.8494 -1.1704  2.2912
  775MOL0     H 6926   1.576  12.217  -1.928  0.2054  0.8763 -1.9003
  775MOL0     H 6927   1.446  12.321  -1.960 -1.2813  1.5756  2.8928
  775MOL0     H 6928   1.457  12.058  -1.839  0.3233 -1.2142 -3.9668
  775MOL0     H 6929   1.346  12.114  -1.973 -0.2087  1.1670 -0.2330
  775MOL0     H 6930   1.755  12.398  -1.123 -0.9402  1.2489 -1.1632
  775MOL0     H 6931   1.887  12.171  -1.090 -2.0520 -0.4359 -1.0973
  775MOL0     H 6932   2.234  12.014  -0.974 -0.4546  0.4107  0.5686
  775MOL0     H 6933   2.382  11.846  -0.850  0.2329 -0.8681  0.2649
  775MOL0     H 6934   3.725  11.154   0.203  2.7950  0.4547  0.6150
  775MOL0     H 6935   3.842  11.269   0.374 -2.3207 -0.3847  0.1899
  775MOL0     H 6936   4.087  11.453   0.709 -1.0286 -0.2161 -2.9173
  775MOL0     H 6937   4.237  11.585   0.844 -0.1256  1.7233  0.9341
  775MOL0     H 6938   4.457  11.884   0.874  1.0269 -0.1012 -1.7647
  775MOL0     H 6939   4.418  11.707   0.855 -2.8818  0.5556  4.0301
  775MOL0     H 6940   4.389  11.761   0.604  1.2423  2.9750 -2.3692
  775MOL0     H 6941   4.543  11.745   0.650 -1.6777 -1.1493 -2.8367
  775MOL0     H 6942   4.514  11.913   0.514 -0.3899  2.9090 -0.7074
  775MOL0     H 6943   4.385  11.995   0.595  1.0122  3.1025 -1.4853
  775MOL0     H 6944   4.663  11.982   0.743 -0.2715 -1.3758  0.3589
  775MOL0     H 6945   4.533  12.096   0.763  3.9356  0.6971  1.9120
  775MOL0     H 6946   4.768  12.206   0.418  1.2778 -0.8347  0.7672
  775MOL0     H 6947   4.071  11.931   0.658  2.4049  0.2662 -2.1562
  775MOL0     H 6948   3.806  11.773   0.479 -1.2311  4.3871  0.1077
  775MOL0     H 6949   3.863  11.922   0.524 -3.0089  0.3589 -0.3003
  775MOL0     H 6950   3.946  11.841   0.388 -0.0814 -0.2975 -0.3024
  776MOL0     O 6951   8.357   1.856  10.944  0.2339  1.0483 -0.0215
  776MOL0     C 6952   8.348   1.962  11.004 -0.2183  0.1350  0.3189
  776MOL0     O 6953   8.248   2.044  11.015  0.8930  0.0186  0.3089
  776MOL0     C 6954   8.126   1.998  10.979  0.3743  0.6226  1.2756
  776MOL0     C 6955   8.095   2.012  10.844  0.1552  0.3905  0.3204
  776MOL0     C 6956   7.980   1.966  10.790 -0.0952 -0.3733  0.0355
  776MOL0     C 6957   7.878   1.921  10.878 -0.1620  0.2841  0.8351
  776MOL0     O 6958   7.756   1.885  10.832  0.6709  0.2661 -0.0475
  776MOL0     C 6959   7.711   1.751  10.861  0.0144  0.1465  0.5820
  776MOL0     C 6960   7.585   1.714  10.784 -0.1051  0.9263  0.1527
  776MOL0     C 6961   7.590   1.734  10.636  0.5576 -0.0718  0.1809
  776MOL0     C 6962   7.705   1.661  10.560  0.2125  0.0562 -0.2022
  776MOL0     C 6963   7.710   1.689  10.413  0.2829  0.6331  0.7783
  776MOL0     C 6964   7.590   1.650  10.331  0.5095 -0.4330  0.1694
  776MOL0     C 6965   7.628   1.668  10.180  0.1649 -0.8096 -0.0542
  776MOL0     C 6966   7.522   1.610  10.087 -0.1920 -0.4690 -0.5333
  776MOL0     N 6967   7.578   1.629   9.952  0.1668 -0.1700  0.4656
  776MOL0     C 6968   7.686   1.558   9.909  1.4761 -0.1189  0.4938
  776MOL0     C 6969   7.740   1.629   9.812 -0.4167 -0.1922  0.6087
  776MOL0     C 6970   7.869   1.598   9.743 -0.0551 -0.8946  0.3436
  776MOL0     C 6971   7.956   1.485   9.794 -0.3277  0.5752  0.4486
  776MOL0     C 6972   8.073   1.516   9.892  0.9199 -0.1864 -1.2716
  776MOL0     C 6973   8.044   1.476  10.033 -0.1063 -1.2226 -1.2251
  776MOL0     O 6974   7.963   1.576  10.100  0.8173 -0.1181  0.7850
  776MOL0     C 6975   8.041   1.664  10.174 -0.6048 -0.5526  0.6173
  776MOL0     C 6976   8.086   1.634  10.301 -1.0212  0.1149 -0.0424
  776MOL0     C 6977   8.151   1.731  10.385  0.9447 -0.6923 -0.2017
  776MOL0     C 6978   8.174   1.686  10.537 -0.3557 -0.0817  0.4243
  776MOL0     C 6979   8.166   1.864  10.338 -0.2652  0.9968 -0.0193
  776MOL0     C 6980   8.246   1.970  10.409  0.7996  0.5262  0.4874
  776MOL0     O 6981   8.374   1.939  10.456  0.1912 -0.3808  0.3009
  776MOL0     C 6982   8.442   2.036  10.522  0.0067  0.2624  0.7130
  776MOL0     C 6983   8.477   2.030  10.654 -0.1418 -0.3179  0.1765
  776MOL0     C 6984   8.543   2.139  10.704 -0.5968  0.1300 -0.2300
  776MOL0     C 6985   8.581   2.254  10.628  0.3160  0.2027 -0.2447
  776MOL0     O 6986   8.642   2.366  10.672 -0.0205 -0.1161  0.2130
  776MOL0     C 6987   8.680   2.381  10.806 -0.1502 -0.4650  0.4335
  776MOL0     C 6988   8.638   2.526  10.849 -0.1406  0.7143 -0.2791
  776MOL0     C 6989   8.487   2.543  10.851 -0.7978  0.3262 -0.3924
  776MOL0     C 6990   8.414   2.451  10.957  0.5837 -0.3084  0.2140
  776MOL0     C 6991   8.261   2.455  10.963 -0.1473  1.1728 -0.8692
  776MOL0     C 6992   8.199   2.454  10.824  0.2638 -0.1201 -0.7182
  776MOL0     C 6993   8.054   2.468  10.845  0.5896  0.1456  0.1575
  776MOL0     C 6994   7.984   2.489  10.712  0.0611 -1.8272 -0.5407
  776MOL0    Cl 6995   7.805   2.526  10.739 -0.2501  0.2454 -0.1174
  776MOL0     C 6996   8.568   2.244  10.494 -0.9160  0.4296  0.6534
  776MOL0     C 6997   8.498   2.134  10.446  0.8306 -0.4961  0.3845
  776MOL0     O 6998   8.194   2.078  10.410  0.1725 -0.7252  0.7521
  776MOL0     C 6999   8.103   1.888  10.216  0.3992  0.2179 -0.1382
  776MOL0     C 7000   8.047   1.797  10.137  0.5604  0.9934  0.4792
  776MOL0     N 7001   7.664   1.743   9.793  0.0558 -0.5469  0.6090
  776MOL0     N 7002   7.554   1.734   9.872 -0.6058 -0.4041  0.1788
  776MOL0     C 7003   7.909   1.911  11.018 -0.3306 -0.7403  1.2654
  776MOL0     C 7004   8.034   1.949  11.068 -0.0317 -0.4059  0.5589
  776MOL0     C 7005   8.471   2.010  11.063  1.1641  0.1213  0.3645
  776MOL0     C 7006   8.470   2.146  11.113 -0.4444 -0.3416  0.7258
  776MOL0     C 7007   8.585   2.195  11.189 -0.0460 -0.5282  0.1548
  776MOL0     C 7008   8.695   2.124  11.202  0.1484  0.1621  1.2210
  776MOL0     O 7009   8.803   2.179  11.274  0.6062  0.6925 -0.3125
  776MOL0     C 7010   8.936   2.159  11.252 -0.2077 -0.6210  0.3263
  776MOL0     C 7011   8.981   2.196  11.115  0.7000  0.1778 -1.1072
  776MOL0     C 7012   9.007   2.349  11.091 -0.3024 -0.6079 -0.6401
  776MOL0     C 7013   9.151   2.387  11.129 -0.4427  0.1581 -0.3279
  776MOL0     C 7014   9.215   2.332  11.245 -1.7098  0.6847  0.2423
  776MOL0     C 7015   9.255   2.272  11.345  0.9771 -0.3210  0.9367
  776MOL0     C 7016   8.697   2.002  11.130 -0.6046  0.2367  0.6762
  776MOL0     C 7017   8.588   1.932  11.075  0.1359  0.3896  0.6018
  776MOL0     C 7018   8.600   1.790  11.032  0.8386 -0.4622 -1.0193
  776MOL0     H 7019   8.163   2.072  10.784 -1.3150 -0.2494 -2.1275
  776MOL0     H 7020   7.961   1.969  10.683 -2.4697 -0.6319  0.3781
  776MOL0     H 7021   7.707   1.741  10.970  0.2225 -0.8507  0.5104
  776MOL0     H 7022   7.788   1.678  10.834 -0.2460  0.1335 -0.1588
  776MOL0     H 7023   7.569   1.609  10.811  1.4152  0.6149 -0.0622
  776MOL0     H 7024   7.499   1.765  10.827 -1.4804 -1.5290  0.5308
  776MOL0     H 7025   7.496   1.705  10.587 -0.2909 -1.2979  2.3790
  776MOL0     H 7026   7.594   1.839  10.605 -0.6854 -0.3401 -1.0023
  776MOL0     H 7027   7.801   1.695  10.600  1.7398 -1.3231 -2.4597
  776MOL0     H 7028   7.679   1.557  10.580  1.2870  0.1105  1.6964
  776MOL0     H 7029   7.809   1.657  10.378  0.8019 -0.6878  3.2118
  776MOL0     H 7030   7.717   1.797  10.396  0.8831  0.2843 -1.6364
  776MOL0     H 7031   7.553   1.548  10.350  0.7769 -0.7526 -0.9264
  776MOL0     H 7032   7.516   1.726  10.357  1.6778  1.2407 -1.2059
  776MOL0     H 7033   7.726   1.629  10.151  0.7438 -0.2074  1.0444
  776MOL0     H 7034   7.633   1.775  10.158 -0.9941 -0.8341 -0.5612
  776MOL0     H 7035   7.504   1.503  10.103 -1.5981 -0.1187  0.3240
  776MOL0     H 7036   7.432   1.672  10.081 -0.9471 -1.5942 -1.3597
  776MOL0     H 7037   7.713   1.460   9.945  2.9839  0.9512  2.4989
  776MOL0     H 7038   7.940   1.681   9.748  0.5695 -1.4164  0.3225
  776MOL0     H 7039   7.848   1.563   9.642 -0.2864 -3.1070  1.0993
  776MOL0     H 7040   7.889   1.413   9.841 -2.6283  1.6482 -1.0010
  776MOL0     H 7041   7.994   1.433   9.705 -1.0999  1.7707 -0.6072
  776MOL0     H 7042   8.162   1.463   9.855  1.8704  2.6771 -3.4591
  776MOL0     H 7043   8.101   1.622   9.882  2.1492 -0.2482  0.8891
  776MOL0     H 7044   8.016   1.371  10.044 -0.3881 -1.2068 -1.7460
  776MOL0     H 7045   8.138   1.479  10.090 -1.2074 -0.0261  0.6616
  776MOL0     H 7046   8.069   1.529  10.321  2.4569 -0.9837 -2.0252
  776MOL0     H 7047   8.126   1.750  10.612  2.0447 -1.4231  3.3116
  776MOL0     H 7048   8.281   1.691  10.560 -0.2647 -0.0826  0.0099
  776MOL0     H 7049   8.135   1.585  10.557 -0.3666  0.1266  1.5047
  776MOL0     H 7050   8.446   1.946  10.715  0.3450 -0.7923 -0.2173
  776MOL0     H 7051   8.554   2.123  10.811 -5.4631 -3.6524  0.0727
  776MOL0     H 7052   8.630   2.310  10.872 -1.0182  0.9512  1.3466
  776MOL0     H 7053   8.788   2.363  10.801 -0.4321 -2.3667  0.4393
  776MOL0     H 7054   8.686   2.540  10.946  2.5044 -0.5849 -1.2756
  776MOL0     H 7055   8.666   2.604  10.778 -1.9420  2.2385  0.6229
  776MOL0     H 7056   8.457   2.522  10.748 -0.4059  1.3540 -0.7316
  776MOL0     H 7057   8.462   2.648  10.865 -3.0002 -0.0301 -1.2708
  776MOL0     H 7058   8.443   2.476  11.059  1.7315  1.4774 -0.4995
  776MOL0     H 7059   8.438   2.346  10.935 -2.8006 -1.2516  0.5441
  776MOL0     H 7060   8.214   2.397  11.043  1.4406 -0.2711 -0.9155
  776MOL0     H 7061   8.247   2.558  10.997 -1.1203  0.0377  2.6109
  776MOL0     H 7062   8.225   2.374  10.754 -1.4352  2.2315 -4.3729
  776MOL0     H 7063   8.229   2.550  10.780 -0.8542  2.3584  3.3698
  776MOL0     H 7064   8.025   2.549  10.912 -3.9144 -0.8275 -0.3265
  776MOL0     H 7065   8.008   2.376  10.882  1.2960 -0.6130 -0.7701
  776MOL0     H 7066   7.991   2.397  10.653 -3.0172 -1.5699 -1.5094
  776MOL0     H 7067   8.035   2.567  10.653  1.1819 -1.9594  0.2250
  776MOL0     H 7068   8.612   2.316  10.425 -1.1290 -3.9237 -4.7475
  776MOL0     H 7069   8.486   2.129  10.338  2.5533  2.3163 -0.0256
  776MOL0     H 7070   8.100   1.986  10.171  2.5683 -1.3022 -4.0873
  776MOL0     H 7071   8.011   1.823  10.038 -0.1353 -0.6557  0.2534
  776MOL0     H 7072   7.838   1.857  11.079 -0.2325 -4.5204 -1.6254
  776MOL0     H 7073   8.051   1.938  11.175  3.6719  1.1262  0.3053
  776MOL0     H 7074   8.388   2.217  11.119  1.6510  2.1281  2.1963
  776MOL0     H 7075   8.575   2.288  11.245  2.9296 -1.2908  2.1872
  776MOL0     H 7076   8.993   2.228  11.314  1.7611  0.7827 -2.7854
  776MOL0     H 7077   8.967   2.055  11.268 -3.1156 -1.6894 -0.3096
  776MOL0     H 7078   8.898   2.166  11.049 -0.7222 -3.4782  1.9351
  776MOL0     H 7079   9.074   2.144  11.092  0.5846 -0.0449 -1.0795
  776MOL0     H 7080   8.977   2.365  10.987 -1.4662 -2.6243 -0.6694
  776MOL0     H 7081   8.935   2.402  11.154 -4.0828 -2.2934 -3.1166
  776MOL0     H 7082   9.156   2.496  11.134  0.5920  0.1342 -0.6652
  776MOL0     H 7083   9.216   2.362  11.045 -2.4120 -0.9354 -1.5928
  776MOL0     H 7084   9.274   2.204  11.426  5.9387 -2.8186 -1.8540
  776MOL0     H 7085   8.791   1.948  11.126 -1.8207 -2.0841  1.3113
  776MOL0     H 7086   8.572   1.768  10.928 -1.9994  0.3129 -0.5004
  776MOL0     H 7087   8.706   1.767  11.050 -0.3153 -4.4853  2.2150
  776MOL0     H 7088   8.546   1.739  11.112  2.4929  3.2994  2.8556
  777MOL0     O 7089   0.461  10.991   4.678 -0.2452 -0.4229  0.8580
  777MOL0     C 7090   0.492  11.109   4.677  0.4932  0.2622 -0.8515
  777MOL0     O 7091   0.604  11.159   4.738  0.3053  0.1560  0.2611
  777MOL0     C 7092   0.672  11.087   4.830  0.6027 -0.3604  0.9693
  777MOL0     C 7093   0.680  11.140   4.960 -0.4157  0.3747 -0.1258
  777MOL0     C 7094   0.742  11.055   5.055 -0.6001  0.9437 -1.1208
  777MOL0     C 7095   0.807  10.936   5.029  0.1321 -0.4995 -0.2608
  777MOL0     O 7096   0.879  10.868   5.112 -0.0449 -0.4557 -0.5010
  777MOL0     C 7097   0.911  10.909   5.250 -0.1439 -1.3399  0.9383
  777MOL0     C 7098   1.011  11.030   5.253 -0.4355  0.0467  0.5291
  777MOL0     C 7099   1.072  11.056   5.392 -0.1580 -0.6101  0.2031
  777MOL0     C 7100   1.197  11.140   5.376 -0.2691  0.9799 -0.3217
  777MOL0     C 7101   1.280  11.150   5.510 -0.2868 -0.6612  0.0688
  777MOL0     C 7102   1.250  11.283   5.591  0.5269 -0.2460 -0.1765
  777MOL0     C 7103   1.320  11.268   5.729  0.3990  0.3029 -0.0878
  777MOL0     C 7104   1.291  11.385   5.819 -0.4148 -0.1481 -0.6488
  777MOL0     N 7105   1.370  11.397   5.948 -0.4432  0.9494 -0.3776
  777MOL0     C 7106   1.442  11.293   6.009 -0.5340  0.5602 -0.1028
  777MOL0     C 7107   1.477  11.342   6.131  0.3241 -0.6044 -0.3494
  777MOL0     C 7108   1.573  11.265   6.226  0.4683 -0.0722  0.4124
  777MOL0     C 7109   1.583  11.314   6.365 -0.9849 -1.0405 -0.5308
  777MOL0     C 7110   1.679  11.234   6.455 -0.2366  0.1793 -0.0882
  777MOL0     C 7111   1.703  11.281   6.596  1.4092 -0.9933  0.0551
  777MOL0     O 7112   1.818  11.213   6.652  1.0783  0.5609  0.5095
  777MOL0     C 7113   1.892  11.263   6.763 -0.6999  0.0388  0.1859
  777MOL0     C 7114   1.909  11.399   6.774 -0.2960 -0.1974  0.5658
  777MOL0     C 7115   1.979  11.461   6.879  0.4420 -0.0722  0.6429
  777MOL0     C 7116   1.999  11.608   6.869  0.3652  0.3127  0.5959
  777MOL0     C 7117   2.027  11.385   6.984  0.5298 -0.2684 -1.1674
  777MOL0     C 7118   2.097  11.436   7.110  0.5826  0.3186 -0.8747
  777MOL0     O 7119   2.159  11.349   7.194  0.1968 -0.6883  0.1954
  777MOL0     C 7120   2.227  11.402   7.299 -0.5290  0.6223 -0.3567
  777MOL0     C 7121   2.325  11.495   7.272 -1.0847 -0.6259  0.9459
  777MOL0     C 7122   2.382  11.569   7.381  0.1083  0.2443  0.4740
  777MOL0     C 7123   2.344  11.550   7.510 -0.5972  1.0357  0.0670
  777MOL0     O 7124   2.375  11.620   7.621 -0.8459 -0.5996 -0.4083
  777MOL0     C 7125   2.426  11.755   7.603 -0.3943  0.2660 -0.0261
  777MOL0     C 7126   2.484  11.828   7.724 -0.8385 -0.7251 -0.7774
  777MOL0     C 7127   2.537  11.970   7.691  0.1962 -0.0216 -0.5339
  777MOL0     C 7128   2.688  11.963   7.650 -1.0796 -0.2197  0.1904
  777MOL0     C 7129   2.747  12.092   7.610 -0.1201  0.4766  0.9364
  777MOL0     C 7130   2.791  12.187   7.716 -0.3588  0.1494 -1.0180
  777MOL0     C 7131   2.857  12.319   7.667  0.0023  0.6014 -0.2579
  777MOL0     C 7132   2.977  12.369   7.746  0.3851  1.3460 -0.2180
  777MOL0    Cl 7133   3.114  12.253   7.729 -0.4568  0.1626 -0.0668
  777MOL0     C 7134   2.265  11.436   7.532 -0.3603  0.1107  0.2214
  777MOL0     C 7135   2.201  11.375   7.432 -0.1439  0.3739 -0.7532
  777MOL0     O 7136   2.082  11.553   7.133 -0.6350  0.4956 -0.2081
  777MOL0     C 7137   2.020  11.246   6.970  0.3461 -0.5797  0.2086
  777MOL0     C 7138   1.954  11.184   6.862  0.2102 -1.0773  0.3722
  777MOL0     N 7139   1.430  11.471   6.154  0.5862  0.1107  0.3770
  777MOL0     N 7140   1.364  11.499   6.040 -0.4401  0.0643  0.1550
  777MOL0     C 7141   0.800  10.894   4.900  0.3412 -0.2474 -0.4637
  777MOL0     C 7142   0.727  10.963   4.799  0.2613  0.4246  0.3265
  777MOL0     C 7143   0.396  11.204   4.632  0.4344  0.2321  0.0764
  777MOL0     C 7144   0.331  11.290   4.722 -0.2988 -0.7916 -0.6491
  777MOL0     C 7145   0.225  11.376   4.678 -0.0117  0.6441  0.2227
  777MOL0     C 7146   0.185  11.377   4.547 -0.3645  0.1075 -0.1776
  777MOL0     O 7147   0.090  11.471   4.516  0.1787 -0.2489  0.5050
  777MOL0     C 7148  -0.029  11.426   4.449  0.5420 -0.7816  1.1803
  777MOL0     C 7149  -0.118  11.330   4.527 -0.5363  0.6169  0.0455
  777MOL0     C 7150  -0.133  11.354   4.683  0.9781 -0.2709  0.9065
  777MOL0     C 7151  -0.179  11.504   4.711 -0.6249  0.1062 -0.0301
  777MOL0     C 7152  -0.251  11.524   4.835 -0.4631 -0.0703 -0.0020
  777MOL0     C 7153  -0.314  11.552   4.936 -0.6086 -0.3756  0.1412
  777MOL0     C 7154   0.258  11.300   4.457 -0.6397  0.5024 -0.2906
  777MOL0     C 7155   0.360  11.206   4.495 -0.0063  0.0066  0.3995
  777MOL0     C 7156   0.430  11.126   4.379  0.4974 -1.0927 -1.1434
  777MOL0     H 7157   0.636  11.234   4.992 -0.8908  0.2790 -0.4851
  777MOL0     H 7158   0.756  11.103   5.151  0.8754  1.7645 -1.7050
  777MOL0     H 7159   0.954  10.820   5.297 -1.2179 -2.2976  0.1680
  777MOL0     H 7160   0.818  10.941   5.297  0.6057  4.9527 -0.9747
  777MOL0     H 7161   1.091  10.996   5.187 -0.7602 -2.6502  1.3886
  777MOL0     H 7162   0.971  11.120   5.206 -0.3697 -1.3739 -2.4896
  777MOL0     H 7163   1.002  11.106   5.459  1.0181 -0.7481  1.5812
  777MOL0     H 7164   1.089  10.964   5.448 -2.1873 -0.5828  0.9529
  777MOL0     H 7165   1.258  11.111   5.290  0.1259 -0.7657  0.4881
  777MOL0     H 7166   1.171  11.242   5.349  0.4469  0.8135 -1.7110
  777MOL0     H 7167   1.387  11.149   5.487  0.3595  2.1112  2.5346
  777MOL0     H 7168   1.245  11.066   5.571 -5.8520  1.0409 -0.1537
  777MOL0     H 7169   1.305  11.374   5.564 -0.4094  0.5082  0.4156
  777MOL0     H 7170   1.143  11.303   5.599  0.7691  2.8643 -2.7066
  777MOL0     H 7171   1.425  11.265   5.699  0.9475  2.3370  1.4098
  777MOL0     H 7172   1.286  11.175   5.776 -1.3179  1.1059  0.3490
  777MOL0     H 7173   1.302  11.483   5.770  0.7036  0.7110  1.1850
  777MOL0     H 7174   1.186  11.380   5.849 -0.0656 -0.9460  0.4993
  777MOL0     H 7175   1.470  11.192   5.981  0.1420  0.7342 -0.0871
  777MOL0     H 7176   1.670  11.279   6.178 -0.9226 -1.2655 -3.0477
  777MOL0     H 7177   1.553  11.158   6.231 -1.3098  0.2703  1.9847
  777MOL0     H 7178   1.618  11.418   6.358 -1.3043 -0.8912  0.0554
  777MOL0     H 7179   1.483  11.319   6.408 -1.6025 -1.0689 -1.8980
  777MOL0     H 7180   1.642  11.131   6.462  0.8545 -0.1231  1.7413
  777MOL0     H 7181   1.776  11.232   6.403 -0.2430 -4.2932 -0.3680
  777MOL0     H 7182   1.714  11.390   6.595 -2.2642 -0.4544  1.4404
  777MOL0     H 7183   1.612  11.257   6.651 -0.6519  0.8137 -2.2993
  777MOL0     H 7184   1.865  11.465   6.699 -0.3578 -1.5016 -0.5787
  777MOL0     H 7185   2.098  11.649   6.891 -1.1694  3.4129  2.4067
  777MOL0     H 7186   1.932  11.661   6.936 -0.4759  0.8260 -0.6203
  777MOL0     H 7187   1.975  11.643   6.768  1.6269 -2.7410 -0.9004
  777MOL0     H 7188   2.358  11.530   7.175  2.9813  2.7905  3.1991
  777MOL0     H 7189   2.447  11.651   7.351 -2.5722  2.0789 -0.7378
  777MOL0     H 7190   2.502  11.748   7.525 -1.9329 -4.0308 -1.4825
  777MOL0     H 7191   2.345  11.812   7.556 -0.4543 -0.7678 -1.2360
  777MOL0     H 7192   2.392  11.840   7.782 -0.1925  0.4989  0.0555
  777MOL0     H 7193   2.559  11.766   7.773 -0.0400 -0.1903 -1.2850
  777MOL0     H 7194   2.534  12.034   7.779  4.5038 -0.7632  0.3711
  777MOL0     H 7195   2.473  12.017   7.615  0.0524 -0.5317 -0.7358
  777MOL0     H 7196   2.684  11.902   7.559 -2.1800  0.8716 -0.5276
  777MOL0     H 7197   2.746  11.910   7.727  0.3486 -2.8774 -2.4814
  777MOL0     H 7198   2.828  12.073   7.539 -1.4081  1.8011 -0.9760
  777MOL0     H 7199   2.671  12.146   7.553 -0.4307  0.8832  1.7190
  777MOL0     H 7200   2.856  12.129   7.782 -1.8924  0.1658  0.5770
  777MOL0     H 7201   2.704  12.214   7.777  0.3452 -0.9568  0.5653
  777MOL0     H 7202   2.786  12.402   7.667 -0.0545  0.5533 -0.4075
  777MOL0     H 7203   2.897  12.314   7.565 -0.1946 -2.9442 -0.2640
  777MOL0     H 7204   2.949  12.372   7.852 -0.7447  1.0364 -0.4980
  777MOL0     H 7205   3.014  12.468   7.718  2.6888  0.3951 -0.7022
  777MOL0     H 7206   2.243  11.404   7.634 -0.0343  0.2179  0.3276
  777MOL0     H 7207   2.120  11.306   7.455 -0.0012  0.9286  1.6225
  777MOL0     H 7208   2.059  11.186   7.052  1.8395  1.6746  1.2487
  777MOL0     H 7209   1.937  11.077   6.859 -1.6264 -0.8005 -0.3256
  777MOL0     H 7210   0.846  10.804   4.858 -1.8838 -1.1790 -1.0394
  777MOL0     H 7211   0.724  10.928   4.696  0.4618 -0.0277  0.4689
  777MOL0     H 7212   0.349  11.290   4.829  0.9270 -1.4478 -0.8442
  777MOL0     H 7213   0.172  11.434   4.752 -1.2864  0.1782 -0.3050
  777MOL0     H 7214  -0.078  11.519   4.418  1.1281 -0.9777 -0.4105
  777MOL0     H 7215   0.006  11.384   4.354  1.0851 -0.7648  1.3687
  777MOL0     H 7216  -0.072  11.234   4.502 -2.0113 -0.4444  1.2066
  777MOL0     H 7217  -0.212  11.338   4.472 -0.6386  1.7331  0.3371
  777MOL0     H 7218  -0.220  11.293   4.708  0.4682 -0.9737 -2.1568
  777MOL0     H 7219  -0.045  11.335   4.745  3.0953  1.0817 -1.4927
  777MOL0     H 7220  -0.241  11.545   4.631 -2.0053 -1.0802  0.3864
  777MOL0     H 7221  -0.089  11.565   4.719  0.8329 -2.0770  1.4072
  777MOL0     H 7222  -0.370  11.578   5.024 -1.8235 -2.3159 -0.0093
  777MOL0     H 7223   0.248  11.303   4.349 -2.7620 -0.4521 -0.1703
  777MOL0     H 7224   0.456  11.027   4.418 -1.4397 -1.0547  0.4454
  777MOL0     H 7225   0.374  11.107   4.287  1.6709 -2.4302 -1.6213
  777MOL0     H 7226   0.517  11.172   4.332 -1.4966 -1.6878 -6.0452
  778MOL0     O 7227   6.400   2.061   8.885  0.0411 -0.6929  0.1495
  778MOL0     C 7228   6.280   2.036   8.904 -0.3283 -0.1875 -0.2166
  778MOL0     O 7229   6.193   2.125   8.955 -0.4640  0.5537  0.3882
  778MOL0     C 7230   6.203   2.163   9.089  0.1042 -0.7830 -0.0177
  778MOL0     C 7231   6.154   2.294   9.103  0.0219  0.9022  1.2432
  778MOL0     C 7232   6.134   2.356   9.217  0.1732 -0.7692  0.4384
  778MOL0     C 7233   6.193   2.304   9.325 -0.3915  0.1284  0.4328
  778MOL0     O 7234   6.165   2.363   9.439 -0.6960  0.5002 -0.4475
  778MOL0     C 7235   6.258   2.468   9.473  0.7265  1.0152 -0.3215
  778MOL0     C 7236   6.343   2.443   9.599  0.4159  0.3655 -0.0937
  778MOL0     C 7237   6.253   2.442   9.726 -0.8910  0.8003 -0.1477
  778MOL0     C 7238   6.280   2.307   9.803 -0.6859  0.8868  0.3581
  778MOL0     C 7239   6.176   2.286   9.912  0.3877  0.4690  0.4562
  778MOL0     C 7240   6.218   2.183  10.020  0.1057 -0.7530 -0.1930
  778MOL0     C 7241   6.099   2.148  10.113  0.3393 -0.3158  0.8861
  778MOL0     C 7242   6.099   2.216  10.255  0.0286  0.4077  0.3464
  778MOL0     N 7243   6.014   2.136  10.355  0.0426 -0.8188  0.4933
  778MOL0     C 7244   5.881   2.149  10.389  0.5776 -0.1545 -0.0968
  778MOL0     C 7245   5.882   2.087  10.511 -0.4120 -0.4287  0.3556
  778MOL0     C 7246   5.772   2.085  10.618 -0.0910 -0.3954  0.7274
  778MOL0     C 7247   5.709   1.950  10.646  0.6230 -0.0796  0.3601
  778MOL0     C 7248   5.629   1.938  10.780 -0.2197  0.6972  0.3717
  778MOL0     C 7249   5.482   1.967  10.773  0.4059  0.4754 -0.4330
  778MOL0     O 7250   5.436   2.063  10.683  0.0726 -0.6318  0.4094
  778MOL0     C 7251   5.398   2.031  10.553 -0.0789 -0.3047 -0.0363
  778MOL0     C 7252   5.459   2.099  10.446  1.6461 -0.3541 -0.8417
  778MOL0     C 7253   5.435   2.062  10.308 -0.3135  0.9977 -0.4451
  778MOL0     C 7254   5.490   2.159  10.213  1.1301 -0.1461  0.3508
  778MOL0     C 7255   5.328   1.972  10.277  0.2862  0.7477  0.4703
  778MOL0     C 7256   5.260   1.962  10.139  0.3494  0.6958  0.4582
  778MOL0     O 7257   5.184   1.853  10.116  0.9682 -0.7239 -0.4317
  778MOL0     C 7258   5.102   1.840  10.007 -0.0869 -0.0371 -1.0095
  778MOL0     C 7259   5.059   1.715   9.974 -0.7541  0.0870  0.2563
  778MOL0     C 7260   4.959   1.682   9.876 -0.2212  0.2258 -0.1048
  778MOL0     C 7261   4.896   1.794   9.815  1.1330  0.4139  0.4178
  778MOL0     O 7262   4.786   1.787   9.730  0.1294 -0.0275  0.2974
  778MOL0     C 7263   4.713   1.662   9.719 -0.4200 -0.8088 -0.0569
  778MOL0     C 7264   4.602   1.685   9.622  0.6140 -0.1892 -0.6400
  778MOL0     C 7265   4.500   1.570   9.626 -0.9587 -0.9636 -0.5439
  778MOL0     C 7266   4.545   1.445   9.555  0.1752 -0.4904  0.6558
  778MOL0     C 7267   4.432   1.337   9.548  0.9702  0.5653  0.0623
  778MOL0     C 7268   4.463   1.212   9.463 -0.2597  0.6559  0.5049
  778MOL0     C 7269   4.536   1.236   9.330 -0.0735  0.2512 -0.1577
  778MOL0     C 7270   4.580   1.106   9.262  0.1515  0.4871  0.6351
  778MOL0    Cl 7271   4.640   1.113   9.081 -0.6703 -0.0804  0.0776
  778MOL0     C 7272   4.947   1.920   9.835 -0.5263 -0.3396 -0.0840
  778MOL0     C 7273   5.046   1.943   9.937 -0.7098 -0.6464  0.2456
  778MOL0     O 7274   5.285   2.056  10.059  0.1449  0.5775 -0.1695
  778MOL0     C 7275   5.267   1.906  10.384 -0.4413  0.8093  0.0538
  778MOL0     C 7276   5.315   1.920  10.515  1.0616 -0.4488  0.5264
  778MOL0     N 7277   6.000   2.020  10.524  0.5288 -0.3676 -0.5010
  778MOL0     N 7278   6.083   2.051  10.432  0.2327  0.3949 -0.5949
  778MOL0     C 7279   6.267   2.180   9.320 -1.0125  0.4586  0.3217
  778MOL0     C 7280   6.260   2.105   9.199 -0.0316  0.0509  0.0448
  778MOL0     C 7281   6.244   1.886   8.907  0.3793  0.2458  0.1418
  778MOL0     C 7282   6.159   1.826   8.998  0.6111  0.6003  0.3474
  778MOL0     C 7283   6.146   1.687   9.008 -0.0094 -0.2498  0.3073
  778MOL0     C 7284   6.218   1.603   8.922 -0.3459 -1.0034  0.2527
  778MOL0     O 7285   6.195   1.469   8.924  0.4455 -0.2520 -0.1386
  778MOL0     C 7286   6.291   1.377   8.861  0.0177  0.0856  0.8144
  778MOL0     C 7287   6.261   1.237   8.906 -0.3219 -0.0328  0.0738
  778MOL0     C 7288   6.250   1.225   9.061 -0.5007 -0.6739 -0.8943
  778MOL0     C 7289   6.193   1.092   9.099 -0.9333  0.2423  1.1966
  778MOL0     C 7290   6.263   0.973   9.054 -0.1713  0.1186  0.1136
  778MOL0     C 7291   6.305   0.863   9.022 -0.8270  0.5421 -1.3844
  778MOL0     C 7292   6.304   1.662   8.824  1.3246  0.4112  0.5485
  778MOL0     C 7293   6.309   1.805   8.812  0.4332  0.9546 -0.5873
  778MOL0     C 7294   6.358   1.866   8.686 -0.7277 -0.3816  0.2742
  778MOL0     H 7295   6.123   2.341   9.010 -0.6670  2.0012  2.0049
  778MOL0     H 7296   6.097   2.458   9.215  0.7171 -0.5720 -1.0321
  778MOL0     H 7297   6.190   2.552   9.486  2.3512  2.3866 -0.4472
  778MOL0     H 7298   6.322   2.487   9.387  0.8871  0.7828 -0.2572
  778MOL0     H 7299   6.390   2.345   9.588 -0.3862 -0.1609  0.9748
  778MOL0     H 7300   6.416   2.522   9.621 -1.6380  1.9176  1.6579
  778MOL0     H 7301   6.284   2.523   9.793  1.2032  1.2438 -1.5596
  778MOL0     H 7302   6.150   2.459   9.694 -0.4649  2.0458 -0.9326
  778MOL0     H 7303   6.259   2.224   9.734  2.1835 -1.2918  1.8697
  778MOL0     H 7304   6.381   2.294   9.844  0.2971  1.8499 -1.6279
  778MOL0     H 7305   6.088   2.256   9.855  0.6139  0.6151  0.0210
  778MOL0     H 7306   6.140   2.375   9.965 -4.7961 -1.8159  1.4509
  778MOL0     H 7307   6.250   2.091   9.970  3.3223  1.6398 -3.0181
  778MOL0     H 7308   6.304   2.219  10.079  1.8886  1.9432 -4.0428
  778MOL0     H 7309   6.111   2.040  10.129  1.0114 -0.4558 -0.4385
  778MOL0     H 7310   6.006   2.168  10.060  1.0242 -0.5698 -0.4620
  778MOL0     H 7311   6.203   2.226  10.287  1.2335  2.1396 -3.4800
  778MOL0     H 7312   6.054   2.316  10.255 -0.0899  0.3600 -0.2114
  778MOL0     H 7313   5.807   2.214  10.343  1.8453  2.0526  0.8007
  778MOL0     H 7314   5.696   2.156  10.583 -0.7712 -1.4845 -0.0672
  778MOL0     H 7315   5.819   2.130  10.706  0.1873 -0.0969  0.4290
  778MOL0     H 7316   5.639   1.934  10.564  0.8020  2.1163 -0.2852
  778MOL0     H 7317   5.790   1.878  10.662 -0.1023 -1.3663 -1.4771
  778MOL0     H 7318   5.632   1.837  10.821 -1.0049  1.4874  2.5315
  778MOL0     H 7319   5.677   2.010  10.847 -0.2088  0.2046  0.9045
  778MOL0     H 7320   5.433   1.871  10.753 -1.3320  1.0890  0.6156
  778MOL0     H 7321   5.448   1.996  10.873 -0.9601 -2.5543  0.1103
  778MOL0     H 7322   5.533   2.175  10.468  1.0692  0.1604 -0.6411
  778MOL0     H 7323   5.509   2.115  10.115  1.8679  0.3937  0.2454
  778MOL0     H 7324   5.571   2.221  10.255 -0.0194  1.5350  0.1571
  778MOL0     H 7325   5.406   2.227  10.197  1.4579  0.1947  0.0718
  778MOL0     H 7326   5.113   1.627  10.010 -0.0107  0.2383 -0.4418
  778MOL0     H 7327   4.928   1.579   9.861  2.1582 -0.5295 -0.3012
  778MOL0     H 7328   4.782   1.584   9.687  0.0814 -0.7733  0.9283
  778MOL0     H 7329   4.665   1.629   9.812 -2.2023  4.3313  1.1588
  778MOL0     H 7330   4.555   1.779   9.651 -0.1626 -0.5175 -0.8018
  778MOL0     H 7331   4.637   1.708   9.521 -0.8217 -0.5973 -1.2627
  778MOL0     H 7332   4.409   1.601   9.572  0.4830 -0.0544 -2.5890
  778MOL0     H 7333   4.477   1.560   9.732 -2.2199  0.2387 -0.6734
  778MOL0     H 7334   4.632   1.407   9.609 -0.4770 -0.5709  1.6709
  778MOL0     H 7335   4.576   1.478   9.455  3.3428 -2.3231  0.9145
  778MOL0     H 7336   4.419   1.298   9.649  1.7064  1.6968  0.6083
  778MOL0     H 7337   4.344   1.384   9.503 -0.5186  0.4165  2.6507
  778MOL0     H 7338   4.367   1.163   9.442  0.5494 -0.6189 -0.3462
  778MOL0     H 7339   4.519   1.136   9.518 -0.9030  0.2467  0.6019
  778MOL0     H 7340   4.631   1.286   9.349  0.8249 -0.2252 -2.9724
  778MOL0     H 7341   4.479   1.299   9.260  0.1657 -1.3292 -1.8345
  778MOL0     H 7342   4.500   1.032   9.262 -0.6540  1.3419  1.4350
  778MOL0     H 7343   4.669   1.064   9.311  0.2460 -3.0601 -2.1275
  778MOL0     H 7344   4.918   2.013   9.789 -3.4125 -0.4041  1.3865
  778MOL0     H 7345   5.067   2.047   9.960 -4.1728  0.8325 -2.4093
  778MOL0     H 7346   5.194   1.827  10.378 -0.9497  1.1520  1.4084
  778MOL0     H 7347   5.265   1.858  10.589 -0.3216 -0.9423 -0.7777
  778MOL0     H 7348   6.324   2.150   9.407 -0.7208 -0.1641 -0.0748
  778MOL0     H 7349   6.297   2.004   9.188 -1.5861 -0.9692  3.0243
  778MOL0     H 7350   6.100   1.892   9.061 -0.4391  0.2815 -0.2863
  778MOL0     H 7351   6.087   1.640   9.086 -0.0410  0.3876  0.6772
  778MOL0     H 7352   6.293   1.395   8.753  1.7253  0.4017  0.8720
  778MOL0     H 7353   6.386   1.400   8.910 -0.6394  1.0097  1.6935
  778MOL0     H 7354   6.334   1.168   8.862 -0.7792  0.9686 -2.4310
  778MOL0     H 7355   6.159   1.228   8.866 -0.3304  2.2397 -0.5829
  778MOL0     H 7356   6.349   1.227   9.109 -1.9148  0.1811  2.2738
  778MOL0     H 7357   6.182   1.301   9.099  1.4725  1.6987 -1.7724
  778MOL0     H 7358   6.093   1.094   9.054  1.2893  4.1443 -4.5712
  778MOL0     H 7359   6.200   1.072   9.207 -1.6282 -4.9514  0.5339
  778MOL0     H 7360   6.325   0.760   9.000 -1.5741  0.4864 -1.8356
  778MOL0     H 7361   6.349   1.599   8.747  0.5102 -1.7210  1.7263
  778MOL0     H 7362   6.453   1.918   8.703 -0.9040  1.0767 -2.5578
  778MOL0     H 7363   6.381   1.798   8.603 -2.5890  0.3695 -0.9082
  778MOL0     H 7364   6.275   1.932   8.659 -0.5803 -0.3183 -0.0309
  779MOL0     O 7365   4.042  11.320   3.881 -0.1579  0.6368 -0.0566
  779MOL0     C 7366   3.937  11.359   3.938  0.8635 -0.2779  0.3227
  779MOL0     O 7367   3.929  11.448   4.045  0.4272  0.0651  0.5204
  779MOL0     C 7368   4.048  11.474   4.105  1.0671 -0.5427  0.3903
  779MOL0     C 7369   4.087  11.606   4.091  0.4640 -0.1619 -0.7948
  779MOL0     C 7370   4.199  11.655   4.152  0.4315 -0.7214 -0.2695
  779MOL0     C 7371   4.281  11.569   4.225 -0.3460  0.5323 -0.2240
  779MOL0     O 7372   4.400  11.615   4.283  0.4014  0.4207  0.2440
  779MOL0     C 7373   4.515  11.531   4.267 -0.4699 -0.0157 -0.2101
  779MOL0     C 7374   4.622  11.633   4.235 -0.2495 -0.2375 -0.5644
  779MOL0     C 7375   4.757  11.571   4.241 -0.0591 -0.6535 -0.6065
  779MOL0     C 7376   4.775  11.493   4.105 -0.5878  0.3149 -0.8825
  779MOL0     C 7377   4.926  11.478   4.069  0.4984  0.5074  0.0367
  779MOL0     C 7378   4.952  11.356   3.970  0.3816  1.1191 -0.0775
  779MOL0     C 7379   5.086  11.298   3.982 -0.4031 -0.0098  0.8326
  779MOL0     C 7380   5.197  11.383   3.914  0.7017  0.0331  0.3554
  779MOL0     N 7381   5.176  11.400   3.767  0.3734 -0.0044 -0.3401
  779MOL0     C 7382   5.203  11.301   3.675 -0.9637 -0.2701  0.4358
  779MOL0     C 7383   5.166  11.363   3.558 -1.0528 -0.2463  2.0579
  779MOL0     C 7384   5.187  11.295   3.418  0.2951  0.2889 -1.1623
  779MOL0     C 7385   5.314  11.343   3.344 -0.0052  1.0986  1.0448
  779MOL0     C 7386   5.311  11.315   3.192 -0.3869 -0.0001 -0.2544
  779MOL0     C 7387   5.259  11.174   3.160 -1.0700  0.2242  0.7861
  779MOL0     O 7388   5.296  11.137   3.023  0.4878  0.0143 -0.3624
  779MOL0     C 7389   5.246  11.200   2.913 -0.1904 -0.8406  0.5072
  779MOL0     C 7390   5.135  11.287   2.912  0.8653 -0.3975 -0.3334
  779MOL0     C 7391   5.096  11.353   2.791 -0.1084  0.1243 -0.1460
  779MOL0     C 7392   4.961  11.413   2.795  0.7407 -0.6664 -0.4293
  779MOL0     C 7393   5.164  11.323   2.669  0.4539  0.2537 -0.2713
  779MOL0     C 7394   5.130  11.383   2.544  0.4199 -0.5769  0.1737
  779MOL0     O 7395   5.122  11.518   2.539  0.3699 -0.5548 -0.3283
  779MOL0     C 7396   5.081  11.576   2.422 -0.3135 -0.1863  0.5924
  779MOL0     C 7397   4.977  11.676   2.415  0.8546  0.3110  0.1584
  779MOL0     C 7398   4.959  11.757   2.300 -0.6660 -0.0223  0.5760
  779MOL0     C 7399   5.002  11.714   2.177 -0.1222  0.0626  0.1016
  779MOL0     O 7400   4.967  11.786   2.064 -0.0243  0.1121 -0.0389
  779MOL0     C 7401   5.023  11.750   1.936 -0.0733 -1.0930 -0.7620
  779MOL0     C 7402   4.993  11.876   1.853  0.4597 -0.1838  0.2320
  779MOL0     C 7403   5.042  11.854   1.706  0.1386 -0.7737  0.6416
  779MOL0     C 7404   5.007  11.971   1.604 -0.0032  0.6675 -1.2843
  779MOL0     C 7405   5.039  11.939   1.454  0.1814 -0.0003 -0.3500
  779MOL0     C 7406   4.987  12.042   1.355 -0.1376 -0.5707  0.0671
  779MOL0     C 7407   5.028  12.003   1.215  0.3358 -0.0148  0.1351
  779MOL0     C 7408   5.173  12.038   1.199 -0.4701  0.1339  0.7417
  779MOL0    Cl 7409   5.220  12.197   1.243  0.1275 -0.0481 -0.2150
  779MOL0     C 7410   5.097  11.616   2.182 -0.2110 -0.7146 -0.9746
  779MOL0     C 7411   5.146  11.547   2.303  0.2011  0.1623 -0.6150
  779MOL0     O 7412   5.124  11.306   2.451  0.3175  0.3803 -1.0110
  779MOL0     C 7413   5.267  11.237   2.677  0.1080  1.0310 -0.3565
  779MOL0     C 7414   5.312  11.182   2.797  0.3575 -0.3989  0.4031
  779MOL0     N 7415   5.126  11.490   3.578 -0.3332  0.4049  0.4389
  779MOL0     N 7416   5.128  11.506   3.697  0.4159  0.2773 -0.4294
  779MOL0     C 7417   4.245  11.435   4.239  1.1081  0.6205  0.7256
  779MOL0     C 7418   4.123  11.384   4.174 -0.0919  0.0830  0.2333
  779MOL0     C 7419   3.813  11.295   3.893  0.2390  0.9431 -0.3053
  779MOL0     C 7420   3.802  11.256   3.761 -0.5111  0.3331  0.0925
  779MOL0     C 7421   3.693  11.186   3.707 -0.1925 -0.2422  0.0904
  779MOL0     C 7422   3.574  11.156   3.780  0.5970 -1.6271  0.6767
  779MOL0     O 7423   3.462  11.104   3.729 -0.0471  0.0917  0.2334
  779MOL0     C 7424   3.451  11.044   3.593 -0.1725 -0.3445 -1.3028
  779MOL0     C 7425   3.313  10.957   3.578 -0.1060  1.2150 -0.1008
  779MOL0     C 7426   3.312  10.837   3.667 -0.6494  0.7898  0.4414
  779MOL0     C 7427   3.238  10.714   3.617 -0.1658  0.4017  0.0058
  779MOL0     C 7428   3.092  10.741   3.593 -0.2906 -0.4227 -0.5879
  779MOL0     C 7429   2.988  10.772   3.545  0.5635 -0.2984  0.0824
  779MOL0     C 7430   3.581  11.203   3.919  0.5852 -0.1694  0.1425
  779MOL0     C 7431   3.694  11.264   3.979 -0.1592 -1.0304 -1.1044
  779MOL0     C 7432   3.689  11.304   4.126 -0.4728  0.3250 -0.5580
  779MOL0     H 7433   4.022  11.677   4.041 -0.8354 -1.2099 -0.6631
  779MOL0     H 7434   4.224  11.761   4.150 -2.1736 -0.0105  0.5144
  779MOL0     H 7435   4.514  11.455   4.188 -1.1967 -0.5142  0.2627
  779MOL0     H 7436   4.544  11.485   4.362  0.7946  3.5089  1.2885
  779MOL0     H 7437   4.610  11.678   4.136 -1.2847 -3.0065 -1.7984
  779MOL0     H 7438   4.610  11.705   4.317 -1.5262  0.1941 -1.1162
  779MOL0     H 7439   4.827  11.654   4.252 -0.8410 -0.1257  0.6101
  779MOL0     H 7440   4.766  11.505   4.328 -0.1014 -0.7050 -0.6406
  779MOL0     H 7441   4.733  11.393   4.119  2.5205 -0.7154  3.1297
  779MOL0     H 7442   4.729  11.542   4.019 -2.9813  0.6578  0.5165
  779MOL0     H 7443   4.976  11.457   4.164  0.9567 -1.1683 -0.5442
  779MOL0     H 7444   4.961  11.575   4.032  2.3409 -0.5286 -1.0701
  779MOL0     H 7445   4.880  11.275   3.983  0.6662  0.7876 -0.5035
  779MOL0     H 7446   4.925  11.387   3.868 -3.0606 -1.1521 -0.0240
  779MOL0     H 7447   5.078  11.208   3.920  2.0459  1.0144 -1.1492
  779MOL0     H 7448   5.116  11.276   4.085 -0.4882  0.8672  1.0547
  779MOL0     H 7449   5.216  11.482   3.957 -0.8599  0.2650  0.5820
  779MOL0     H 7450   5.288  11.323   3.928  0.0304 -0.6894  1.8118
  779MOL0     H 7451   5.241  11.201   3.694 -3.0321 -2.0015 -3.3132
  779MOL0     H 7452   5.106  11.330   3.353  0.5660 -1.3732 -2.4610
  779MOL0     H 7453   5.191  11.186   3.426 -1.0399  0.2834 -0.2428
  779MOL0     H 7454   5.327  11.450   3.364  1.3981  1.2813 -0.6364
  779MOL0     H 7455   5.398  11.294   3.393 -1.1437 -0.2106  1.7699
  779MOL0     H 7456   5.248  11.386   3.137 -0.1739 -0.4993 -1.1485
  779MOL0     H 7457   5.411  11.323   3.149 -0.3790  0.9536 -0.0801
  779MOL0     H 7458   5.314  11.093   3.208 -2.1090 -1.8806 -1.3500
  779MOL0     H 7459   5.151  11.176   3.178 -1.0565  1.1981  0.7572
  779MOL0     H 7460   5.083  11.297   3.007 -0.1120  1.6025 -1.0069
  779MOL0     H 7461   4.931  11.422   2.900  6.9231 -4.2525  2.1667
  779MOL0     H 7462   4.900  11.338   2.744 -1.2656  1.0138 -0.6490
  779MOL0     H 7463   4.953  11.510   2.744  0.7488 -2.6223 -4.5118
  779MOL0     H 7464   4.943  11.706   2.514  3.1521  2.3655  0.4177
  779MOL0     H 7465   4.893  11.843   2.304 -0.1315  0.4234  5.2824
  779MOL0     H 7466   5.132  11.742   1.940  0.0500  0.2565  3.1585
  779MOL0     H 7467   4.969  11.661   1.901 -0.5464 -0.3858 -1.8974
  779MOL0     H 7468   4.887  11.902   1.853  1.1504  3.1587  0.0406
  779MOL0     H 7469   5.044  11.958   1.904 -0.7972 -0.2717  1.7184
  779MOL0     H 7470   4.991  11.764   1.669 -0.5096 -1.0968  2.2416
  779MOL0     H 7471   5.150  11.840   1.692 -0.2011 -3.7988  0.2794
  779MOL0     H 7472   5.056  12.064   1.634  1.1727 -0.0126 -1.0261
  779MOL0     H 7473   4.899  11.978   1.619  0.1002  2.3745 -1.1770
  779MOL0     H 7474   5.145  11.911   1.450  1.2751  2.3423  4.3146
  779MOL0     H 7475   4.981  11.847   1.440  0.6478 -0.1726 -1.2301
  779MOL0     H 7476   5.019  12.144   1.378 -1.9353 -0.0346  0.3805
  779MOL0     H 7477   4.878  12.039   1.368 -0.3106  0.4126 -0.9919
  779MOL0     H 7478   4.970  12.057   1.140  2.2055  1.7264 -0.1206
  779MOL0     H 7479   5.004  11.898   1.198 -0.3305  0.1456  0.0547
  779MOL0     H 7480   5.203  12.032   1.094 -0.2097  0.4884  0.7924
  779MOL0     H 7481   5.228  11.960   1.254  1.5681  1.1738  0.2800
  779MOL0     H 7482   5.129  11.578   2.085 -3.1536 -0.4978 -2.1437
  779MOL0     H 7483   5.236  11.487   2.305  0.1695  0.1244 -0.3167
  779MOL0     H 7484   5.329  11.213   2.591 -0.4224 -2.2343  0.0297
  779MOL0     H 7485   5.398  11.116   2.791 -0.6154 -1.5516 -2.6992
  779MOL0     H 7486   4.306  11.373   4.304  2.6146 -0.1199 -1.2733
  779MOL0     H 7487   4.088  11.281   4.179 -1.8878  0.7347  2.0570
  779MOL0     H 7488   3.886  11.282   3.697 -0.1351  3.0182  1.5379
  779MOL0     H 7489   3.692  11.146   3.605  0.0710 -1.7956  0.6661
  779MOL0     H 7490   3.449  11.124   3.518 -3.8112  1.2081  0.1873
  779MOL0     H 7491   3.545  10.990   3.580  0.1209 -0.7505  1.8312
  779MOL0     H 7492   3.326  10.930   3.473  2.0919  3.0100 -0.3802
  779MOL0     H 7493   3.224  11.011   3.610 -1.5368 -2.0516  1.9229
  779MOL0     H 7494   3.416  10.804   3.674 -1.3496 -1.2693  2.1007
  779MOL0     H 7495   3.290  10.860   3.772  1.9728 -1.2989  1.5845
  779MOL0     H 7496   3.250  10.641   3.697  0.9967  0.3063 -0.2448
  779MOL0     H 7497   3.288  10.657   3.538 -0.0046  0.2723  0.2002
  779MOL0     H 7498   2.899  10.819   3.509  0.1794  1.6865  3.2327
  779MOL0     H 7499   3.500  11.183   3.989  1.8699 -1.4484  1.3062
  779MOL0     H 7500   3.783  11.288   4.180 -0.9500 -1.7290 -0.2620
  779MOL0     H 7501   3.658  11.409   4.138  1.8589  1.2144 -1.6418
  779MOL0     H 7502   3.620  11.241   4.182 -0.2825  0.2875 -0.3622
  780MOL0     O 7503   6.508   0.746  10.487  1.2650  0.2153 -0.4818
  780MOL0     C 7504   6.446   0.762  10.378 -0.0056 -0.5081 -0.0225
  780MOL0     O 7505   6.508   0.769  10.261 -0.1477  0.4626 -0.6473
  780MOL0     C 7506   6.639   0.808  10.262  0.0564 -0.1373  0.7774
  780MOL0     C 7507   6.744   0.739  10.316 -0.3313  0.3404  0.3698
  780MOL0     C 7508   6.877   0.792  10.311  0.1575 -0.2100 -0.0539
  780MOL0     C 7509   6.899   0.913  10.237 -0.0012  0.1394 -0.5130
  780MOL0     O 7510   7.033   0.963  10.229  0.9783  0.1648  0.3830
  780MOL0     C 7511   7.068   1.050  10.120 -0.5764 -0.6388 -0.6526
  780MOL0     C 7512   7.228   1.066  10.134 -1.0134  0.0250  0.2207
  780MOL0     C 7513   7.293   0.942  10.068 -1.4479  0.3129 -0.0221
  780MOL0     C 7514   7.440   0.926  10.082 -0.2954 -0.5031 -0.3589
  780MOL0     C 7515   7.468   0.810   9.978  0.2485 -0.6687  0.0342
  780MOL0     C 7516   7.622   0.790   9.953 -0.0630  0.3155  0.1995
  780MOL0     C 7517   7.719   0.754  10.067  0.7086 -0.2847  1.3380
  780MOL0     C 7518   7.859   0.804  10.044  0.0085 -1.0341 -0.4821
  780MOL0     N 7519   7.873   0.943  10.083  1.0531 -0.7634  0.2684
  780MOL0     C 7520   7.828   1.013  10.200  0.2515 -0.9160  0.6680
  780MOL0     C 7521   7.864   1.146  10.197 -0.4163  0.6556  1.5476
  780MOL0     C 7522   7.847   1.251  10.292  0.0467 -0.8241  0.8281
  780MOL0     C 7523   7.923   1.215  10.422 -0.7059  0.0799  1.1148
  780MOL0     C 7524   7.923   1.329  10.517 -0.2790 -0.3860 -0.8635
  780MOL0     C 7525   8.005   1.300  10.645  0.4393 -0.4400 -0.5494
  780MOL0     O 7526   8.009   1.428  10.716 -0.8938  0.5725 -0.7176
  780MOL0     C 7527   8.072   1.449  10.840  1.0177  0.7247  0.8990
  780MOL0     C 7528   8.091   1.331  10.924  1.0738 -0.2133 -0.2668
  780MOL0     C 7529   8.153   1.350  11.053 -1.4132 -1.5294 -0.1470
  780MOL0     C 7530   8.161   1.228  11.146  0.2708 -0.3652 -1.1118
  780MOL0     C 7531   8.197   1.480  11.090 -0.2892 -0.8870  0.1505
  780MOL0     C 7532   8.265   1.517  11.220  0.1616  0.7961  0.7800
  780MOL0     O 7533   8.328   1.641  11.221  0.9787 -0.0873 -0.2807
  780MOL0     C 7534   8.390   1.699  11.327  0.1937 -0.5934  0.0320
  780MOL0     C 7535   8.488   1.627  11.399  0.7021 -0.0638  1.3280
  780MOL0     C 7536   8.563   1.700  11.488 -0.5384 -0.0408 -0.4631
  780MOL0     C 7537   8.559   1.838  11.507  0.9873 -0.0062  0.4293
  780MOL0     O 7538   8.656   1.890  11.588  0.4795 -0.2632 -0.0095
  780MOL0     C 7539   8.710   2.019  11.556  0.0900 -0.8735  0.1083
  780MOL0     C 7540   8.726   2.108  11.681 -0.3912  0.5064  0.2149
  780MOL0     C 7541   8.815   2.232  11.647 -0.0811 -0.3802  0.8076
  780MOL0     C 7542   8.967   2.225  11.690  0.2709  0.3426  0.6905
  780MOL0     C 7543   8.999   2.228  11.844  0.9152 -0.7375 -0.2232
  780MOL0     C 7544   8.979   2.373  11.890  0.1866  0.0984  0.3842
  780MOL0     C 7545   8.989   2.383  12.046  0.5892 -0.3586  1.2567
  780MOL0     C 7546   8.998   2.522  12.097 -0.6700 -0.5072  0.7666
  780MOL0    Cl 7547   8.882   2.636  12.029  0.5839  0.3675  0.0653
  780MOL0     C 7548   8.448   1.901  11.454 -0.3202 -0.1247  0.0941
  780MOL0     C 7549   8.360   1.834  11.366  0.2166  0.9488 -0.1016
  780MOL0     O 7550   8.271   1.432  11.310 -0.3524 -0.2798 -0.3514
  780MOL0     C 7551   8.177   1.589  10.998 -0.4219  0.2416  0.0121
  780MOL0     C 7552   8.106   1.576  10.886  0.7865 -0.3395  0.3074
  780MOL0     N 7553   7.924   1.153  10.063  0.0111  0.5213 -0.1049
  780MOL0     N 7554   7.913   1.042   9.991 -0.1431  0.3422 -0.1202
  780MOL0     C 7555   6.789   0.988  10.185  0.2372 -0.2032  0.7651
  780MOL0     C 7556   6.658   0.930  10.199  0.3931  1.2662 -0.0560
  780MOL0     C 7557   6.297   0.743  10.378  0.1947  0.6688  0.3933
  780MOL0     C 7558   6.229   0.743  10.495 -0.6759 -0.5325  0.0764
  780MOL0     C 7559   6.095   0.709  10.498  1.1264  0.1278 -0.1881
  780MOL0     C 7560   6.020   0.667  10.392  0.7531 -0.5286 -0.0744
  780MOL0     O 7561   5.893   0.623  10.416  0.3482  0.5364 -0.3613
  780MOL0     C 7562   5.846   0.526  10.311 -0.0342 -0.5059 -0.1988
  780MOL0     C 7563   5.748   0.431  10.378 -0.0711 -0.0363  0.7609
  780MOL0     C 7564   5.615   0.503  10.373 -0.8292  0.3085  0.1275
  780MOL0     C 7565   5.519   0.436  10.483  1.2546  0.7607  1.0278
  780MOL0     C 7566   5.399   0.512  10.520 -0.6133  0.7409 -0.3359
  780MOL0     C 7567   5.297   0.577  10.530  1.0265 -0.4445  0.3325
  780MOL0     C 7568   6.083   0.680  10.266  0.3063  0.8118 -0.2756
  780MOL0     C 7569   6.217   0.717  10.257  0.5838  0.3589 -0.3635
  780MOL0     C 7570   6.280   0.713  10.122 -0.1123  0.5459  0.2442
  780MOL0     H 7571   6.726   0.639  10.354  1.2666 -1.1611 -2.4981
  780MOL0     H 7572   6.955   0.729  10.353 -2.2423 -2.6941  1.0058
  780MOL0     H 7573   7.026   1.149  10.137 -1.7412 -1.3244  0.6748
  780MOL0     H 7574   7.024   1.023  10.024 -0.2275 -0.1470 -0.9544
  780MOL0     H 7575   7.263   1.155  10.080 -2.1922 -0.2562 -1.0719
  780MOL0     H 7576   7.261   1.096  10.234  0.0472 -3.0359  0.8817
  780MOL0     H 7577   7.258   0.854  10.124  1.2483 -1.2599 -0.5989
  780MOL0     H 7578   7.259   0.939   9.964 -0.9261  2.0196 -0.2727
  780MOL0     H 7579   7.501   1.016  10.064 -1.4614  0.2347 -0.6902
  780MOL0     H 7580   7.459   0.890  10.183  0.6326  0.0388 -0.3246
  780MOL0     H 7581   7.415   0.834   9.885 -1.4411 -1.3161  0.7830
  780MOL0     H 7582   7.430   0.714  10.014  1.5759 -1.1441  0.2286
  780MOL0     H 7583   7.646   0.719   9.873  0.2469 -0.2744  0.8010
  780MOL0     H 7584   7.656   0.883   9.908 -0.2045 -0.3398 -1.3104
  780MOL0     H 7585   7.719   0.645  10.059  1.9679 -0.1420 -1.6701
  780MOL0     H 7586   7.683   0.791  10.164  3.9882 -0.1069  2.6076
  780MOL0     H 7587   7.933   0.760  10.112  1.5886  4.8909  2.3048
  780MOL0     H 7588   7.893   0.784   9.942 -1.5360 -3.2258 -0.6547
  780MOL0     H 7589   7.786   0.957  10.283  0.7552  0.2354  1.7259
  780MOL0     H 7590   7.744   1.271  10.324 -0.0735 -1.6986  1.0127
  780MOL0     H 7591   7.878   1.347  10.248 -0.7273 -1.9002 -2.3715
  780MOL0     H 7592   7.874   1.137  10.480  0.2741  0.6905  2.8524
  780MOL0     H 7593   8.024   1.187  10.392 -1.4745 -1.4600 -0.1697
  780MOL0     H 7594   7.963   1.412  10.456  1.9043 -1.3492 -0.8547
  780MOL0     H 7595   7.816   1.337  10.534 -0.9279 -1.2872 -3.9165
  780MOL0     H 7596   7.954   1.218  10.697 -2.4038  1.2837 -0.3874
  780MOL0     H 7597   8.104   1.266  10.617  1.4964  0.3896  1.9094
  780MOL0     H 7598   8.062   1.228  10.905  1.9341 -1.1092  2.7229
  780MOL0     H 7599   8.128   1.249  11.248 -1.9270 -2.1878 -1.3888
  780MOL0     H 7600   8.270   1.212  11.151  0.6953  2.2196 -0.6244
  780MOL0     H 7601   8.100   1.141  11.122  0.1281  0.1981 -2.9856
  780MOL0     H 7602   8.495   1.522  11.370  2.6122  0.4900 -0.3823
  780MOL0     H 7603   8.645   1.660  11.546  0.4580  0.5669 -1.4292
  780MOL0     H 7604   8.807   2.005  11.508  1.1907 -0.3774  2.0725
  780MOL0     H 7605   8.645   2.063  11.479 -2.9458 -1.8351  1.9352
  780MOL0     H 7606   8.627   2.150  11.701  1.1176  2.3463  5.2903
  780MOL0     H 7607   8.751   2.055  11.773 -3.8841 -0.7801  0.6013
  780MOL0     H 7608   8.771   2.322  11.692  0.9955  0.0820  0.9879
  780MOL0     H 7609   8.803   2.247  11.540 -0.7935  2.0821  1.1685
  780MOL0     H 7610   9.021   2.313  11.653  1.9184  0.3036  2.8326
  780MOL0     H 7611   9.008   2.136  11.642 -1.5493  1.1542 -2.7244
  780MOL0     H 7612   8.937   2.158  11.899 -0.6412  1.2831  0.7249
  780MOL0     H 7613   9.105   2.202  11.852  1.8557  1.5777 -3.2281
  780MOL0     H 7614   8.880   2.410  11.862  0.5475  1.8185  1.2485
  780MOL0     H 7615   9.047   2.440  11.837 -0.0591 -0.0958 -0.1827
  780MOL0     H 7616   9.068   2.319  12.086 -0.5032 -2.5454  0.0769
  780MOL0     H 7617   8.896   2.341  12.085 -2.4359  3.6078 -0.8811
  780MOL0     H 7618   9.096   2.563  12.067 -1.8063  1.3756 -0.5955
  780MOL0     H 7619   8.994   2.512  12.206 -2.0577 -2.4468  0.5749
  780MOL0     H 7620   8.441   2.006  11.481  0.0597 -0.1078  0.1212
  780MOL0     H 7621   8.283   1.885  11.308 -1.5591  0.0076  1.3200
  780MOL0     H 7622   8.204   1.693  11.015  0.0570  0.4190 -1.6434
  780MOL0     H 7623   8.073   1.667  10.837 -0.1722  0.6496  2.6341
  780MOL0     H 7624   6.798   1.084  10.135 -0.9117 -0.4420  0.0819
  780MOL0     H 7625   6.570   0.979  10.160 -1.2788 -0.7514  0.9725
  780MOL0     H 7626   6.280   0.760  10.589 -1.0108 -1.6282  0.4813
  780MOL0     H 7627   6.049   0.725  10.595  2.6497  0.7332  0.4823
  780MOL0     H 7628   5.799   0.581  10.229  2.3104  1.4464 -0.3725
  780MOL0     H 7629   5.937   0.481  10.270 -0.2293  0.0664 -1.2883
  780MOL0     H 7630   5.777   0.413  10.482 -2.2740 -0.5161  1.3339
  780MOL0     H 7631   5.743   0.341  10.316 -0.0843  0.4289  0.0754
  780MOL0     H 7632   5.642   0.604  10.403  1.5442 -0.5124  0.9684
  780MOL0     H 7633   5.577   0.498  10.271  2.5855 -2.3530 -1.2301
  780MOL0     H 7634   5.579   0.401  10.568  0.9134  0.1591  1.0288
  780MOL0     H 7635   5.479   0.340  10.450  1.9668  0.2318  1.6606
  780MOL0     H 7636   5.218   0.644  10.504  2.8087  0.5447 -3.2527
  780MOL0     H 7637   6.034   0.647  10.175 -0.5551  0.2080  0.3882
  780MOL0     H 7638   6.354   0.633  10.130 -2.8160 -2.3454 -1.3441
  780MOL0     H 7639   6.209   0.694  10.041 -0.3424 -0.3070  0.6412
  780MOL0     H 7640   6.326   0.809  10.097 -3.8136  2.9528  1.8530
  781MOL0     O 7641   4.644   3.644   7.109 -0.2426  0.2858  0.1938
  781MOL0     C 7642   4.714   3.717   7.179 -0.3344  0.1358 -0.9632
  781MOL0     O 7643   4.697   3.744   7.312  0.5206 -0.2910  0.5638
  781MOL0     C 7644   4.600   3.695   7.393 -0.3646 -0.1665 -0.5987
  781MOL0     C 7645   4.612   3.577   7.461 -0.2216  0.2932 -0.0051
  781MOL0     C 7646   4.516   3.525   7.548  0.1452 -0.3275 -0.0915
  781MOL0     C 7647   4.400   3.610   7.580 -0.6352  0.1948 -0.0362
  781MOL0     O 7648   4.306   3.579   7.676 -0.9977  0.0644  0.1584
  781MOL0     C 7649   4.203   3.673   7.703  0.2704 -0.2986 -0.3650
  781MOL0     C 7650   4.123   3.646   7.830  0.5349 -0.1758 -0.0521
  781MOL0     C 7651   4.214   3.644   7.955  0.5371  0.6428 -0.2092
  781MOL0     C 7652   4.140   3.576   8.072  0.0114  0.7902  0.3754
  781MOL0     C 7653   4.197   3.613   8.211 -0.8494 -0.1974 -0.1171
  781MOL0     C 7654   4.086   3.667   8.305 -0.8556 -0.2063  0.5418
  781MOL0     C 7655   4.152   3.694   8.439  0.9490  0.0468 -0.4271
  781MOL0     C 7656   4.076   3.824   8.490  0.1314 -0.1198 -0.2274
  781MOL0     N 7657   4.111   3.831   8.640  0.8689  0.5241 -0.2007
  781MOL0     C 7658   4.130   3.947   8.709 -0.1258  0.6050  0.5003
  781MOL0     C 7659   4.144   3.899   8.840 -0.7649  0.5243  0.3175
  781MOL0     C 7660   4.192   3.976   8.963  0.0634 -1.5850  0.4549
  781MOL0     C 7661   4.332   3.927   9.003 -0.3663 -0.8687  0.1864
  781MOL0     C 7662   4.450   3.948   8.901  1.0808 -0.2548  0.4996
  781MOL0     C 7663   4.499   4.092   8.897 -0.5431  0.7754 -1.0572
  781MOL0     O 7664   4.409   4.169   8.822  0.1339 -0.0670  0.3372
  781MOL0     C 7665   4.418   4.174   8.684 -0.6662  0.4871 -0.3003
  781MOL0     C 7666   4.524   4.132   8.599 -0.3524 -1.2007 -0.1534
  781MOL0     C 7667   4.503   4.144   8.458  0.1636 -0.2629  0.2056
  781MOL0     C 7668   4.615   4.106   8.369 -1.3277 -0.2383  0.0145
  781MOL0     C 7669   4.376   4.185   8.402 -0.5471  0.5652 -0.0191
  781MOL0     C 7670   4.348   4.200   8.254  0.9059 -0.6460  0.6353
  781MOL0     O 7671   4.216   4.169   8.216  0.5367 -0.1036  0.1282
  781MOL0     C 7672   4.189   4.131   8.086  0.9589  0.2024 -0.3736
  781MOL0     C 7673   4.269   4.045   8.018  0.4248  0.2429  0.6165
  781MOL0     C 7674   4.264   4.011   7.881  0.9522  0.1407  0.0400
  781MOL0     C 7675   4.163   4.063   7.807 -0.6088 -0.6912 -1.1035
  781MOL0     O 7676   4.161   4.027   7.678  0.3376 -0.1546 -0.6775
  781MOL0     C 7677   4.069   4.096   7.597  1.1499 -0.7431  0.1560
  781MOL0     C 7678   4.077   4.011   7.467  0.4709  0.2285 -0.0298
  781MOL0     C 7679   3.933   4.042   7.390  0.1233 -0.3600  0.2028
  781MOL0     C 7680   3.911   3.978   7.261  0.0796  0.3027  0.6644
  781MOL0     C 7681   3.796   4.037   7.181 -0.5230  0.3966  0.0629
  781MOL0     C 7682   3.662   4.011   7.242  0.0511 -0.3825  0.3873
  781MOL0     C 7683   3.564   4.051   7.121  1.0611 -0.0330  0.9403
  781MOL0     C 7684   3.411   4.038   7.151 -0.5645 -0.3108 -0.2657
  781MOL0    Cl 7685   3.368   3.857   7.203  0.3085 -0.1336 -0.1317
  781MOL0     C 7686   4.073   4.154   7.871  0.2142  0.2845 -0.4009
  781MOL0     C 7687   4.082   4.186   8.011 -0.2980 -0.1998  0.2192
  781MOL0     O 7688   4.436   4.229   8.172 -0.8615 -0.2974  0.0339
  781MOL0     C 7689   4.271   4.206   8.490  0.2600 -0.8270  0.6062
  781MOL0     C 7690   4.300   4.212   8.624  0.1949  0.2648 -0.9794
  781MOL0     N 7691   4.133   3.760   8.837 -0.3389  0.6354 -0.5250
  781MOL0     N 7692   4.112   3.722   8.723 -0.0186  0.1017  0.2928
  781MOL0     C 7693   4.389   3.733   7.511  0.3219 -0.5398 -0.6375
  781MOL0     C 7694   4.490   3.780   7.430 -0.9193  0.0687  0.2939
  781MOL0     C 7695   4.842   3.776   7.124 -0.4057  0.7794  0.8061
  781MOL0     C 7696   4.882   3.904   7.164 -1.4059 -0.2603 -0.6304
  781MOL0     C 7697   4.994   3.958   7.110  0.0110 -0.2484 -0.5449
  781MOL0     C 7698   5.049   3.908   6.993  0.6750 -0.5851  0.2341
  781MOL0     O 7699   5.149   3.989   6.938  0.0046 -0.8806  0.3663
  781MOL0     C 7700   5.207   3.971   6.807  0.2641  0.6075  0.4470
  781MOL0     C 7701   5.312   3.866   6.787 -0.2125 -0.3966 -0.2280
  781MOL0     C 7702   5.329   3.805   6.648  1.3300  1.1576  0.3589
  781MOL0     C 7703   5.433   3.687   6.647 -0.5358 -1.1584 -0.2322
  781MOL0     C 7704   5.378   3.582   6.732  0.4402  0.0690 -0.3316
  781MOL0     C 7705   5.318   3.491   6.784  0.0712 -0.7453  0.1500
  781MOL0     C 7706   5.019   3.784   6.958  0.1226 -1.5681 -0.9482
  781MOL0     C 7707   4.916   3.711   7.022  0.1652 -0.8628 -0.7967
  781MOL0     C 7708   4.900   3.563   6.979 -0.0062  0.8285  0.2465
  781MOL0     H 7709   4.705   3.522   7.454 -1.1450 -1.7483  2.1163
  781MOL0     H 7710   4.541   3.431   7.597 -0.2157  0.4759  1.6980
  781MOL0     H 7711   4.149   3.699   7.611  0.9051 -0.6852 -0.8599
  781MOL0     H 7712   4.251   3.770   7.720 -0.5611 -0.0823  0.8464
  781MOL0     H 7713   4.046   3.723   7.844 -0.7331 -1.0735 -1.6637
  781MOL0     H 7714   4.074   3.550   7.811  0.6072 -0.0535 -0.8911
  781MOL0     H 7715   4.300   3.581   7.929  0.6600  0.0718  1.4525
  781MOL0     H 7716   4.237   3.747   7.983 -0.4025  0.5580  0.9851
  781MOL0     H 7717   4.041   3.621   8.075  1.9336  6.0235 -2.3987
  781MOL0     H 7718   4.133   3.468   8.061 -0.8628  0.7398  1.2676
  781MOL0     H 7719   4.274   3.687   8.188  0.9556 -0.2288  4.6300
  781MOL0     H 7720   4.261   3.538   8.258  0.7251 -0.5176 -2.5643
  781MOL0     H 7721   4.041   3.757   8.261 -0.3935  0.9146  2.2526
  781MOL0     H 7722   4.015   3.586   8.324 -0.5483  0.0471  3.0874
  781MOL0     H 7723   4.258   3.707   8.412  0.2605  0.1976 -3.4798
  781MOL0     H 7724   4.148   3.607   8.505  1.1092  0.9134  0.7530
  781MOL0     H 7725   4.105   3.919   8.444  1.7849 -0.4307  0.1120
  781MOL0     H 7726   3.968   3.813   8.478 -0.0613 -0.5543  1.6670
  781MOL0     H 7727   4.147   4.047   8.670 -0.3132  0.2011 -0.6601
  781MOL0     H 7728   4.119   3.938   9.035 -1.2609  0.4933  0.3164
  781MOL0     H 7729   4.190   4.085   8.955  0.0291 -1.3746  2.7638
  781MOL0     H 7730   4.351   3.978   9.098 -0.9154  0.9585 -0.6395
  781MOL0     H 7731   4.322   3.821   9.028  0.0533 -0.5483  1.8426
  781MOL0     H 7732   4.537   3.886   8.924 -1.1188 -3.2227  1.4079
  781MOL0     H 7733   4.408   3.921   8.804 -0.1617  1.4333  0.5165
  781MOL0     H 7734   4.501   4.137   8.997  1.3387 -1.5784  0.0971
  781MOL0     H 7735   4.599   4.089   8.853  0.5723 -0.7143  1.3691
  781MOL0     H 7736   4.613   4.099   8.651  0.2411  0.3024 -0.1794
  781MOL0     H 7737   4.584   4.025   8.302  1.9963  0.7315 -3.0034
  781MOL0     H 7738   4.690   4.065   8.437 -0.5575  1.1283  0.0081
  781MOL0     H 7739   4.648   4.199   8.322 -3.8821  0.7770  0.0704
  781MOL0     H 7740   4.353   3.999   8.069  1.0908  0.4417 -0.2680
  781MOL0     H 7741   4.326   3.931   7.843 -0.6746 -2.0236  1.7266
  781MOL0     H 7742   3.972   4.079   7.642 -0.4060  0.0044 -2.6509
  781MOL0     H 7743   4.084   4.204   7.582 -4.0426  0.0378 -1.3115
  781MOL0     H 7744   4.165   4.040   7.409  0.9396  0.3282  0.7282
  781MOL0     H 7745   4.085   3.906   7.494  0.6986 -0.3690 -2.2318
  781MOL0     H 7746   3.946   4.149   7.377 -1.1210 -0.2028  0.0743
  781MOL0     H 7747   3.850   4.015   7.457  0.6103  0.0759  0.9824
  781MOL0     H 7748   3.895   3.872   7.282 -1.1460 -0.2452 -2.4704
  781MOL0     H 7749   4.000   3.989   7.199  0.7167  0.8387  1.6593
  781MOL0     H 7750   3.805   4.146   7.182 -0.1915  0.4044  2.2844
  781MOL0     H 7751   3.797   3.991   7.082 -6.0744  0.3776 -0.2764
  781MOL0     H 7752   3.650   4.064   7.337  1.1438  0.3194  0.1566
  781MOL0     H 7753   3.646   3.907   7.270  3.3534 -0.6977  1.5451
  781MOL0     H 7754   3.580   3.994   7.028 -2.4008  1.9390 -1.1052
  781MOL0     H 7755   3.586   4.155   7.096  3.6036 -0.5871  0.5869
  781MOL0     H 7756   3.365   4.075   7.059 -0.6541  2.1396  0.6867
  781MOL0     H 7757   3.391   4.105   7.236  2.1998 -1.0209  1.0729
  781MOL0     H 7758   3.997   4.204   7.812  2.1990  2.2975 -1.4258
  781MOL0     H 7759   4.014   4.258   8.055 -0.8011 -0.9797  0.7381
  781MOL0     H 7760   4.175   4.237   8.451  2.5579  2.7582 -3.0097
  781MOL0     H 7761   4.213   4.248   8.679 -0.4176 -0.8605 -1.1682
  781MOL0     H 7762   4.307   3.804   7.520  2.5030  2.5139 -2.7153
  781MOL0     H 7763   4.488   3.879   7.385 -1.9638  0.0953  0.3825
  781MOL0     H 7764   4.845   3.949   7.255  3.1164 -0.1883  1.4862
  781MOL0     H 7765   5.036   4.047   7.156  0.5305 -0.4183 -0.6824
  781MOL0     H 7766   5.128   3.942   6.737  1.9230  1.7743 -2.0519
  781MOL0     H 7767   5.248   4.066   6.774  2.6664 -0.8343 -1.0019
  781MOL0     H 7768   5.301   3.792   6.868  0.5213  0.4497  0.6831
  781MOL0     H 7769   5.402   3.926   6.806  0.3564 -1.4420  0.5415
  781MOL0     H 7770   5.239   3.758   6.609  2.6358 -1.3013  0.0795
  781MOL0     H 7771   5.352   3.885   6.577 -1.4029  0.6085 -1.2792
  781MOL0     H 7772   5.534   3.718   6.677 -1.3426  0.2195  1.1880
  781MOL0     H 7773   5.442   3.647   6.546 -0.7193 -1.3425 -0.1763
  781MOL0     H 7774   5.276   3.402   6.826 -1.4418  0.2713  0.8960
  781MOL0     H 7775   5.071   3.744   6.871  1.6083  1.2575 -1.4484
  781MOL0     H 7776   4.974   3.533   6.905  0.0623  0.5590  0.4224
  781MOL0     H 7777   4.900   3.494   7.064 -0.5726  0.0660 -0.3515
  781MOL0     H 7778   4.801   3.548   6.934  0.9590  1.5207 -2.2958
  782MOL0     O 7779  10.277   0.231   3.811  0.1409  0.2351 -0.2683
  782MOL0     C 7780  10.263   0.106   3.814  0.3111  0.3596 -0.2281
  782MOL0     O 7781  10.205   0.026   3.718 -1.6594 -0.3406 -0.2444
  782MOL0     C 7782  10.133   0.091   3.614 -0.0266 -0.2345  0.0292
  782MOL0     C 7783  10.193   0.120   3.488  0.1985  0.3337  0.1756
  782MOL0     C 7784  10.129   0.207   3.402  0.4431  0.0289  0.8367
  782MOL0     C 7785   9.993   0.244   3.438 -0.8419 -0.3353  0.5324
  782MOL0     O 7786   9.911   0.319   3.352 -0.2725  0.6402 -0.3149
  782MOL0     C 7787   9.973   0.380   3.236  0.2860  0.7142 -0.0126
  782MOL0     C 7788   9.893   0.496   3.183 -0.1251  0.1298  0.2740
  782MOL0     C 7789   9.859   0.601   3.285 -0.4589 -1.0490 -0.3806
  782MOL0     C 7790   9.742   0.684   3.232  0.4347 -0.1402  0.2347
  782MOL0     C 7791   9.724   0.813   3.314 -0.7186  0.4670 -0.5468
  782MOL0     C 7792   9.696   0.787   3.469 -0.5909 -0.6582  0.9070
  782MOL0     C 7793   9.566   0.723   3.492  0.5149  0.2280  0.1648
  782MOL0     C 7794   9.511   0.716   3.629  0.2102  0.0007 -0.3268
  782MOL0     N 7795   9.580   0.605   3.705 -0.7723  0.5483 -0.8598
  782MOL0     C 7796   9.692   0.615   3.786 -0.2877 -0.3524 -0.5615
  782MOL0     C 7797   9.745   0.492   3.796 -0.1747  0.6135 -0.9177
  782MOL0     C 7798   9.865   0.448   3.886  0.0812 -0.0812  0.5399
  782MOL0     C 7799   9.991   0.529   3.823  0.3703  0.2809  0.7003
  782MOL0     C 7800  10.123   0.533   3.907  0.8247  0.3810  0.2150
  782MOL0     C 7801  10.149   0.672   3.969 -0.4258  0.5931 -0.3340
  782MOL0     O 7802  10.040   0.708   4.049  0.3006  0.0437  0.1688
  782MOL0     C 7803  10.002   0.638   4.153  0.2976  0.1916 -0.2432
  782MOL0     C 7804   9.866   0.653   4.182 -0.1734  0.4013  0.2749
  782MOL0     C 7805   9.818   0.558   4.281  0.7371  0.5616 -0.3130
  782MOL0     C 7806   9.673   0.594   4.310 -0.6020 -0.0783 -0.4785
  782MOL0     C 7807   9.891   0.465   4.348  0.1010  0.3385  0.3867
  782MOL0     C 7808   9.832   0.367   4.451 -0.9519  0.4814  0.3433
  782MOL0     O 7809   9.933   0.308   4.537 -0.3546 -0.1715  0.1597
  782MOL0     C 7810   9.896   0.202   4.615  0.2704 -0.2926 -0.4166
  782MOL0     C 7811   9.962   0.195   4.740 -0.8081  0.2044  0.3170
  782MOL0     C 7812   9.940   0.092   4.828 -0.2873  0.1506 -0.8441
  782MOL0     C 7813   9.857  -0.019   4.788 -1.6483 -0.5131  1.1943
  782MOL0     O 7814   9.829  -0.116   4.879 -0.4281 -0.3700 -0.8319
  782MOL0     C 7815   9.730  -0.090   4.979  0.1733 -0.0444  0.9603
  782MOL0     C 7816   9.717  -0.201   5.092 -0.8372 -0.2576 -0.1493
  782MOL0     C 7817   9.852  -0.215   5.169  0.7356 -0.5447  0.4153
  782MOL0     C 7818   9.864  -0.363   5.229  1.2845  0.7283 -0.0085
  782MOL0     C 7819   9.987  -0.359   5.312 -0.1124  0.0827 -0.3817
  782MOL0     C 7820  10.000  -0.497   5.378 -1.2214 -0.6704 -0.8910
  782MOL0     C 7821  10.115  -0.518   5.474  0.7729  0.0834 -1.1587
  782MOL0     C 7822  10.070  -0.606   5.593 -0.1762  0.1182 -0.7816
  782MOL0    Cl 7823   9.992  -0.759   5.534  0.1493  0.1977  0.0803
  782MOL0     C 7824   9.789  -0.009   4.669 -0.0276  1.0041  0.1042
  782MOL0     C 7825   9.818   0.097   4.580  0.6662  0.8163  0.0176
  782MOL0     O 7826   9.717   0.347   4.459 -0.2439  0.0156 -0.4496
  782MOL0     C 7827  10.029   0.463   4.327 -0.0785 -0.7138  0.9059
  782MOL0     C 7828  10.083   0.548   4.225  0.3400 -0.6415 -0.2843
  782MOL0     N 7829   9.651   0.401   3.736  0.3030 -0.3987 -0.3504
  782MOL0     N 7830   9.563   0.473   3.680  0.9068  0.2227 -0.4324
  782MOL0     C 7831   9.935   0.207   3.558  0.4775 -0.2064  0.3127
  782MOL0     C 7832  10.007   0.133   3.655  0.0697 -0.6710  0.1046
  782MOL0     C 7833  10.337   0.032   3.931 -0.3880 -0.0965  1.3083
  782MOL0     C 7834  10.367  -0.098   3.918 -0.7771  1.3764  0.7153
  782MOL0     C 7835  10.428  -0.175   4.014 -0.6262  0.6912  0.7746
  782MOL0     C 7836  10.462  -0.119   4.135  0.9633 -0.0561 -0.1643
  782MOL0     O 7837  10.528  -0.180   4.239 -0.2821  0.4977 -0.5658
  782MOL0     C 7838  10.521  -0.321   4.237 -0.4400 -0.0676 -0.9312
  782MOL0     C 7839  10.571  -0.363   4.378  0.3082  0.2525 -0.7408
  782MOL0     C 7840  10.535  -0.512   4.387 -0.4694 -0.7207 -0.6619
  782MOL0     C 7841  10.602  -0.587   4.511  0.0538 -0.6054  0.7661
  782MOL0     C 7842  10.557  -0.513   4.638  0.4645 -1.3981 -0.2508
  782MOL0     C 7843  10.529  -0.447   4.733 -0.2296 -0.3579  0.3899
  782MOL0     C 7844  10.417   0.015   4.153  0.5406 -0.3977  0.3530
  782MOL0     C 7845  10.363   0.098   4.050 -0.6973 -0.2188 -0.5200
  782MOL0     C 7846  10.317   0.236   4.099  0.6001  0.2333 -0.0171
  782MOL0     H 7847  10.296   0.093   3.467  0.7983  0.0349  3.0180
  782MOL0     H 7848  10.175   0.225   3.305 -1.3720  1.7738  0.2484
  782MOL0     H 7849   9.984   0.303   3.160 -1.3990 -0.0165  0.4212
  782MOL0     H 7850  10.072   0.413   3.268  0.5747 -1.8680  2.1250
  782MOL0     H 7851   9.951   0.540   3.102  0.2923  3.2086  2.0792
  782MOL0     H 7852   9.805   0.440   3.148  1.5823 -1.9623 -0.8716
  782MOL0     H 7853   9.823   0.550   3.375 -0.7164 -2.2247 -1.1269
  782MOL0     H 7854   9.941   0.666   3.317 -2.2125  0.9225  0.3468
  782MOL0     H 7855   9.763   0.714   3.129 -1.9219  1.6289  0.1929
  782MOL0     H 7856   9.650   0.625   3.227  1.4795 -1.7386 -2.0201
  782MOL0     H 7857   9.644   0.877   3.275 -1.5701  0.9611  1.8054
  782MOL0     H 7858   9.816   0.872   3.309  0.1531 -0.9077 -1.3056
  782MOL0     H 7859   9.768   0.723   3.521  1.5675 -0.8739 -2.0912
  782MOL0     H 7860   9.702   0.885   3.517 -0.6894 -0.6320  0.8660
  782MOL0     H 7861   9.564   0.621   3.451 -3.5450  0.2441 -0.1388
  782MOL0     H 7862   9.490   0.779   3.437  0.6865  0.9307  0.6311
  782MOL0     H 7863   9.509   0.807   3.689 -2.4586 -1.0660  1.3936
  782MOL0     H 7864   9.405   0.689   3.629 -0.1386  1.3074 -0.7522
  782MOL0     H 7865   9.733   0.711   3.817  2.8810 -0.8717 -2.6865
  782MOL0     H 7866   9.887   0.341   3.876 -2.0110 -0.3934 -2.1817
  782MOL0     H 7867   9.843   0.474   3.989 -0.2685  1.3448  0.1279
  782MOL0     H 7868  10.016   0.481   3.728 -1.1733  4.1298 -1.9281
  782MOL0     H 7869   9.962   0.633   3.806 -0.9360  0.1810  2.1217
  782MOL0     H 7870  10.110   0.451   3.979 -2.4942  0.3379 -0.2798
  782MOL0     H 7871  10.209   0.520   3.841  1.2591 -0.0343  0.8390
  782MOL0     H 7872  10.240   0.671   4.029  0.1126  2.9949 -0.9692
  782MOL0     H 7873  10.181   0.740   3.888  1.9950  0.1049  0.1361
  782MOL0     H 7874   9.799   0.713   4.121 -1.0506 -1.0540 -0.2584
  782MOL0     H 7875   9.638   0.688   4.267 -0.0988  1.2133  1.7821
  782MOL0     H 7876   9.660   0.601   4.418  1.4737 -0.8772 -0.1285
  782MOL0     H 7877   9.611   0.510   4.276 -0.1287 -0.2957 -0.8159
  782MOL0     H 7878  10.037   0.266   4.774  0.6678 -0.9986 -0.2999
  782MOL0     H 7879   9.996   0.088   4.921  0.4269 -0.4312 -1.2867
  782MOL0     H 7880   9.739   0.011   5.020 -3.7502  0.5976  0.6112
  782MOL0     H 7881   9.631  -0.087   4.932  0.7172 -0.3874 -0.2588
  782MOL0     H 7882   9.633  -0.173   5.156 -1.0029 -3.9982  1.5300
  782MOL0     H 7883   9.696  -0.300   5.050 -3.0716  0.6728 -1.3774
  782MOL0     H 7884   9.862  -0.135   5.243  1.1074 -1.4459  1.3603
  782MOL0     H 7885   9.935  -0.186   5.104  0.7651  1.8537  1.4211
  782MOL0     H 7886   9.880  -0.442   5.155  2.5313 -0.0965  1.0989
  782MOL0     H 7887   9.784  -0.392   5.297  2.6273 -1.1193  0.8634
  782MOL0     H 7888  10.076  -0.334   5.253  2.1736  0.7137  3.0601
  782MOL0     H 7889   9.977  -0.273   5.379 -2.3629  0.0478 -0.5973
  782MOL0     H 7890  10.023  -0.560   5.293  1.3061  0.5724 -1.2329
  782MOL0     H 7891   9.908  -0.522   5.433  0.1200 -2.0318  0.8598
  782MOL0     H 7892  10.135  -0.416   5.505 -1.7973  0.8650 -1.7708
  782MOL0     H 7893  10.199  -0.566   5.422  1.9236  1.8825 -1.0192
  782MOL0     H 7894  10.001  -0.545   5.652  0.7178  0.9171 -0.5459
  782MOL0     H 7895  10.155  -0.632   5.656 -0.1177 -1.7913 -1.5891
  782MOL0     H 7896   9.715  -0.078   4.630  0.9846  1.4278 -2.8339
  782MOL0     H 7897   9.770   0.111   4.484  0.7324 -1.2325 -0.3701
  782MOL0     H 7898  10.087   0.385   4.376  3.4524  1.2900  0.1743
  782MOL0     H 7899  10.190   0.539   4.207 -0.2224 -2.2720 -3.5830
  782MOL0     H 7900   9.829   0.229   3.565 -0.7611 -4.6231 -1.2144
  782MOL0     H 7901   9.955   0.112   3.747 -1.2775  2.2634  0.1474
  782MOL0     H 7902  10.339  -0.159   3.833  0.2400  0.5999  0.9185
  782MOL0     H 7903  10.456  -0.276   3.987 -0.9742  1.1833 -1.7100
  782MOL0     H 7904  10.422  -0.364   4.218 -1.4148  1.9680 -0.7421
  782MOL0     H 7905  10.591  -0.365   4.166 -0.2459  1.5694 -1.7842
  782MOL0     H 7906  10.509  -0.311   4.452  1.1410  0.1006  0.0888
  782MOL0     H 7907  10.679  -0.344   4.383  1.0027 -2.6165 -2.4069
  782MOL0     H 7908  10.427  -0.529   4.381 -0.6248  0.0772 -0.3019
  782MOL0     H 7909  10.559  -0.555   4.289  0.4821  0.3698 -0.9254
  782MOL0     H 7910  10.710  -0.580   4.493 -0.5338  1.0522 -2.9838
  782MOL0     H 7911  10.573  -0.692   4.515 -1.7855 -0.2117 -0.7207
  782MOL0     H 7912  10.514  -0.396   4.826 -1.9306  0.1890 -0.1526
  782MOL0     H 7913  10.440   0.048   4.254 -1.2095 -2.8439  1.6721
  782MOL0     H 7914  10.317   0.252   4.207 -1.3800 -0.7857  0.1758
  782MOL0     H 7915  10.348   0.328   4.049 -3.6799  1.4213 -0.9706
  782MOL0     H 7916  10.214   0.243   4.063 -0.0107 -0.0696  1.5640
  783MOL0     O 7917   8.227   6.753   8.153  0.7135  0.1165 -0.0147
  783MOL0     C 7918   8.273   6.677   8.237 -0.4506  0.7069  0.1607
  783MOL0     O 7919   8.289   6.542   8.211  0.0204 -0.2523 -0.3692
  783MOL0     C 7920   8.203   6.492   8.118  0.2175  0.0530  0.3617
  783MOL0     C 7921   8.237   6.486   7.981  0.3464  0.6679  0.5056
  783MOL0     C 7922   8.143   6.431   7.889  1.0773  0.2688 -0.4810
  783MOL0     C 7923   8.030   6.370   7.929 -0.7350 -0.5847  0.7648
  783MOL0     O 7924   7.951   6.305   7.835  0.3605 -0.0774  0.6909
  783MOL0     C 7925   7.904   6.400   7.735 -0.1780 -0.7051  0.1000
  783MOL0     C 7926   7.780   6.339   7.674  0.3138 -1.0659  0.8413
  783MOL0     C 7927   7.707   6.420   7.561 -0.3135  0.5079 -0.1219
  783MOL0     C 7928   7.788   6.443   7.431 -0.6109  0.1250  0.0868
  783MOL0     C 7929   7.793   6.308   7.345 -0.1434  0.3959 -0.5043
  783MOL0     C 7930   7.870   6.335   7.217 -0.4442  0.1623 -0.1517
  783MOL0     C 7931   7.863   6.215   7.126 -0.7286  1.0657 -0.2012
  783MOL0     C 7932   7.919   6.224   6.984 -0.2839  0.0893 -0.0668
  783MOL0     N 7933   7.923   6.089   6.931  0.0737  0.4040  0.6690
  783MOL0     C 7934   7.820   6.018   6.887 -0.3190 -0.6319  0.7651
  783MOL0     C 7935   7.871   5.892   6.852 -0.5499 -0.1513 -0.0029
  783MOL0     C 7936   7.788   5.776   6.805  0.2036  0.2453 -0.2295
  783MOL0     C 7937   7.760   5.694   6.928 -0.4842 -0.6256 -0.5094
  783MOL0     C 7938   7.651   5.586   6.902 -0.7608 -0.2947 -0.9071
  783MOL0     C 7939   7.634   5.498   7.023 -0.0055  0.3454 -0.4077
  783MOL0     O 7940   7.528   5.412   6.980  0.1309 -0.3076  0.2944
  783MOL0     C 7941   7.511   5.290   7.036 -0.2310 -0.1059  0.2063
  783MOL0     C 7942   7.384   5.227   7.003 -0.0540  0.1470  0.4926
  783MOL0     C 7943   7.351   5.094   7.040  0.3461 -0.1671 -0.1802
  783MOL0     C 7944   7.213   5.054   6.998 -0.1099  0.5093  0.3002
  783MOL0     C 7945   7.443   5.022   7.112 -0.0579  0.3503 -0.1711
  783MOL0     C 7946   7.430   4.877   7.145  0.4831 -0.0793  0.8120
  783MOL0     O 7947   7.553   4.813   7.179 -0.1515 -0.2513  0.8164
  783MOL0     C 7948   7.560   4.687   7.242  0.7858 -1.4669  0.7544
  783MOL0     C 7949   7.692   4.657   7.275  0.0258  0.2088 -1.1197
  783MOL0     C 7950   7.730   4.528   7.315  0.5480 -0.0781  0.1669
  783MOL0     C 7951   7.619   4.431   7.339  0.4342 -0.2692 -0.2094
  783MOL0     O 7952   7.637   4.308   7.397  0.2952 -0.2380  0.2324
  783MOL0     C 7953   7.766   4.275   7.455 -0.2133 -0.2638  0.1985
  783MOL0     C 7954   7.868   4.217   7.347 -0.3521  0.3434  0.3903
  783MOL0     C 7955   8.010   4.239   7.376 -0.0448  1.0112  0.0070
  783MOL0     C 7956   8.113   4.211   7.265 -0.2132 -0.0219  0.1047
  783MOL0     C 7957   8.254   4.256   7.300 -0.0027 -0.4003  0.2297
  783MOL0     C 7958   8.354   4.133   7.319  0.2238  0.5585 -0.2691
  783MOL0     C 7959   8.489   4.166   7.382  0.4235 -0.2540 -0.2435
  783MOL0     C 7960   8.568   4.262   7.301  0.9530  0.4378 -0.1039
  783MOL0    Cl 7961   8.674   4.361   7.399 -0.1155  0.2607 -0.3087
  783MOL0     C 7962   7.489   4.466   7.306  0.1741  0.4762  0.0709
  783MOL0     C 7963   7.453   4.595   7.259  0.1073  0.1422  0.0376
  783MOL0     O 7964   7.326   4.818   7.114  1.0284  0.0409  0.0642
  783MOL0     C 7965   7.562   5.084   7.155  0.5752  0.1211 -0.6186
  783MOL0     C 7966   7.596   5.221   7.127  0.7326 -0.3391 -0.2796
  783MOL0     N 7967   8.004   5.888   6.898 -0.0633  0.1199 -0.4684
  783MOL0     N 7968   8.031   6.005   6.936  0.8283  0.2310 -0.4770
  783MOL0     C 7969   7.988   6.380   8.064 -0.6321 -0.2465  0.6799
  783MOL0     C 7970   8.080   6.436   8.157 -0.4777 -1.3721  0.4899
  783MOL0     C 7971   8.340   6.721   8.364  0.4768 -0.2702 -0.1265
  783MOL0     C 7972   8.360   6.621   8.458 -1.0756  0.0592  0.0201
  783MOL0     C 7973   8.432   6.636   8.578  0.0975  0.2857 -0.0980
  783MOL0     C 7974   8.466   6.762   8.611  0.9410 -0.5120  0.2006
  783MOL0     O 7975   8.494   6.780   8.742  0.2933 -0.8739  0.2856
  783MOL0     C 7976   8.605   6.873   8.756 -0.1580  0.3200 -0.8344
  783MOL0     C 7977   8.649   6.879   8.906 -0.6247  0.3098  0.4925
  783MOL0     C 7978   8.543   6.903   9.014 -0.3023 -0.5793 -0.0705
  783MOL0     C 7979   8.519   7.058   9.029  0.0636  0.7458  0.2129
  783MOL0     C 7980   8.419   7.079   9.129 -0.0693 -0.2180 -0.1387
  783MOL0     C 7981   8.335   7.096   9.213  0.2916  0.2272  0.1042
  783MOL0     C 7982   8.432   6.873   8.529 -0.1433 -0.1739  0.5043
  783MOL0     C 7983   8.374   6.852   8.399 -1.4633 -0.0346 -0.9731
  783MOL0     C 7984   8.356   6.973   8.319  0.5512  0.6578  0.3236
  783MOL0     H 7985   8.333   6.532   7.960  1.5165 -1.3313  1.2118
  783MOL0     H 7986   8.166   6.438   7.783 -0.1508  0.8117 -0.7262
  783MOL0     H 7987   7.979   6.398   7.655 -1.6159 -1.0616 -1.2870
  783MOL0     H 7988   7.882   6.500   7.773 -1.8152 -2.5487  4.5906
  783MOL0     H 7989   7.802   6.237   7.640 -1.7642 -0.7454 -1.7458
  783MOL0     H 7990   7.698   6.328   7.745 -0.9359 -0.9387 -0.5244
  783MOL0     H 7991   7.613   6.367   7.546 -0.6685  1.0896  0.0187
  783MOL0     H 7992   7.693   6.519   7.605 -0.4197  0.5959 -0.3509
  783MOL0     H 7993   7.737   6.519   7.372 -0.3284 -1.7948 -2.8098
  783MOL0     H 7994   7.883   6.485   7.465 -1.3227  0.2762  2.0555
  783MOL0     H 7995   7.694   6.265   7.328 -1.0476  1.2802  2.0048
  783MOL0     H 7996   7.848   6.234   7.404 -1.1335 -0.3020 -0.4413
  783MOL0     H 7997   7.816   6.413   7.162 -1.4114  0.1324  0.7191
  783MOL0     H 7998   7.973   6.365   7.240  0.4043 -2.4563 -0.3129
  783MOL0     H 7999   7.758   6.184   7.126  0.2427 -2.8287  1.4495
  783MOL0     H 8000   7.919   6.136   7.176  0.1583  2.5282  1.2111
  783MOL0     H 8001   7.857   6.282   6.916  0.9691  1.6212  0.0351
  783MOL0     H 8002   8.024   6.256   6.974  0.6460 -2.7190 -0.3054
  783MOL0     H 8003   7.720   6.057   6.870 -1.1912 -2.8097  0.5005
  783MOL0     H 8004   7.839   5.723   6.725  2.2357 -0.4147  1.4072
  783MOL0     H 8005   7.694   5.819   6.769 -0.6265  3.3348  4.6278
  783MOL0     H 8006   7.852   5.641   6.953  1.2401  1.9380 -1.1093
  783MOL0     H 8007   7.743   5.744   7.024  3.5029 -1.5011  0.8189
  783MOL0     H 8008   7.555   5.636   6.884  0.6659  3.7019  1.3142
  783MOL0     H 8009   7.683   5.531   6.813  3.4407  1.7766 -0.9024
  783MOL0     H 8010   7.726   5.443   7.041  0.2374  0.2680 -1.8325
  783MOL0     H 8011   7.605   5.561   7.108 -0.5063 -1.8636  1.1594
  783MOL0     H 8012   7.310   5.280   6.943  0.1250  0.2942  0.4007
  783MOL0     H 8013   7.159   5.136   6.950  0.2463  0.0061 -1.0156
  783MOL0     H 8014   7.156   5.030   7.089 -2.4570  2.6530 -0.5024
  783MOL0     H 8015   7.224   4.967   6.932  2.6711  0.2811  0.9497
  783MOL0     H 8016   7.759   4.740   7.254 -2.0686  2.5596  0.9372
  783MOL0     H 8017   7.836   4.508   7.328 -0.0962 -1.9745  3.6740
  783MOL0     H 8018   7.809   4.361   7.507  1.8765 -0.2625 -1.4067
  783MOL0     H 8019   7.753   4.194   7.529 -1.7440 -0.8408 -0.6521
  783MOL0     H 8020   7.849   4.109   7.337 -2.1985  0.4953  1.6589
  783MOL0     H 8021   7.846   4.265   7.252  2.2110  1.5206  0.3170
  783MOL0     H 8022   8.048   4.173   7.455 -0.0218 -0.1515 -0.9535
  783MOL0     H 8023   8.020   4.339   7.420  0.8155  2.0368 -2.3652
  783MOL0     H 8024   8.095   4.256   7.166  2.3784  0.5021 -0.1943
  783MOL0     H 8025   8.119   4.104   7.244 -1.8215 -0.0589 -0.3064
  783MOL0     H 8026   8.291   4.300   7.207  1.5293 -1.2768  0.3890
  783MOL0     H 8027   8.258   4.328   7.381 -2.0343  1.4659 -1.2195
  783MOL0     H 8028   8.375   4.085   7.223 -1.4124  2.4121 -1.6077
  783MOL0     H 8029   8.296   4.059   7.376 -0.7107  0.5297 -1.2375
  783MOL0     H 8030   8.549   4.075   7.386 -0.1934 -0.7492 -1.4820
  783MOL0     H 8031   8.461   4.206   7.480 -6.9762  2.4322 -2.7315
  783MOL0     H 8032   8.505   4.337   7.253  1.8058  0.9514 -0.4360
  783MOL0     H 8033   8.610   4.211   7.214  0.8355 -1.1065  0.7151
  783MOL0     H 8034   7.407   4.400   7.328 -0.5818  0.0460 -3.3748
  783MOL0     H 8035   7.350   4.611   7.228 -0.3505  0.4287  1.6407
  783MOL0     H 8036   7.630   5.020   7.211  0.7858 -0.1057 -1.1237
  783MOL0     H 8037   7.696   5.252   7.154  0.7333 -0.4148 -0.1983
  783MOL0     H 8038   7.896   6.341   8.105 -2.7778  2.3548 -1.2563
  783MOL0     H 8039   8.054   6.435   8.262  0.5210 -0.4472  0.7683
  783MOL0     H 8040   8.330   6.521   8.428 -5.0843  1.0678 -0.0081
  783MOL0     H 8041   8.457   6.561   8.651 -1.1427  0.2228  0.2921
  783MOL0     H 8042   8.697   6.866   8.697  1.2915  0.9413  1.2445
  783MOL0     H 8043   8.558   6.972   8.749  3.3269  2.3440  1.4173
  783MOL0     H 8044   8.733   6.949   8.909  1.0308 -1.4497 -1.5535
  783MOL0     H 8045   8.709   6.789   8.926  1.1201  0.2756 -3.7928
  783MOL0     H 8046   8.452   6.853   8.980  1.8267 -1.8969 -4.7423
  783MOL0     H 8047   8.569   6.862   9.112 -1.5024  0.2462  0.6083
  783MOL0     H 8048   8.475   7.093   8.935 -2.3719 -3.3484 -0.3935
  783MOL0     H 8049   8.611   7.111   9.058 -0.8118  1.6243  1.4730
  783MOL0     H 8050   8.262   7.111   9.291 -0.0017 -1.5930  0.2261
  783MOL0     H 8051   8.448   6.974   8.567  1.4874 -0.1763 -0.1026
  783MOL0     H 8052   8.395   7.067   8.360 -0.0485  0.6886  0.8329
  783MOL0     H 8053   8.388   6.953   8.216 -1.6486  1.4988 -0.5865
  783MOL0     H 8054   8.248   6.991   8.315  0.6808  1.2737 -1.2928
  784MOL0     O 8055   6.404   1.602   0.679  0.0580 -0.8184  0.0850
  784MOL0     C 8056   6.409   1.519   0.591 -0.2978 -0.2384  0.1922
  784MOL0     O 8057   6.434   1.550   0.460  0.4037  0.2503  0.0065
  784MOL0     C 8058   6.465   1.677   0.423  0.1171  0.6726 -0.5261
  784MOL0     C 8059   6.390   1.747   0.337  0.1087 -1.1326  0.3496
  784MOL0     C 8060   6.418   1.882   0.312  0.2918 -0.7546  0.4102
  784MOL0     C 8061   6.532   1.940   0.363  0.7686 -0.1609  0.5533
  784MOL0     O 8062   6.547   2.086   0.349  0.5104  0.3393 -0.1653
  784MOL0     C 8063   6.670   2.150   0.381 -0.3946 -0.5339  0.1094
  784MOL0     C 8064   6.677   2.299   0.382 -0.2179 -0.8197 -0.1267
  784MOL0     C 8065   6.793   2.359   0.461  0.2680 -0.8933  0.1743
  784MOL0     C 8066   6.910   2.385   0.372 -0.1831  0.3016  0.4876
  784MOL0     C 8067   7.015   2.457   0.449 -0.1641  0.3637  0.4785
  784MOL0     C 8068   7.164   2.414   0.417  0.0018 -0.7425 -0.9158
  784MOL0     C 8069   7.270   2.464   0.524  0.1961 -0.2074  1.1622
  784MOL0     C 8070   7.399   2.384   0.503 -0.5124  0.0425  1.1820
  784MOL0     N 8071   7.460   2.353   0.629 -0.4865 -0.0427  0.1607
  784MOL0     C 8072   7.446   2.239   0.694  0.9282  0.7201 -0.4871
  784MOL0     C 8073   7.544   2.244   0.794 -0.8055 -0.0439 -0.1645
  784MOL0     C 8074   7.551   2.144   0.908 -0.1950 -0.4638 -0.5658
  784MOL0     C 8075   7.662   2.046   0.908 -0.3769 -0.1304  0.5164
  784MOL0     C 8076   7.635   1.933   1.020  0.4189  0.0163  0.6790
  784MOL0     C 8077   7.756   1.839   1.019 -0.0605  0.2255 -0.0696
  784MOL0     O 8078   7.864   1.909   1.074  0.0633  0.4831 -0.0322
  784MOL0     C 8079   7.991   1.895   1.016  0.1970 -0.2211 -0.2632
  784MOL0     C 8080   8.070   2.002   0.973 -0.0150 -0.4189 -0.5008
  784MOL0     C 8081   8.202   1.995   0.925 -0.2499  1.1859 -0.3220
  784MOL0     C 8082   8.257   2.118   0.867  0.0570  0.7328 -0.4866
  784MOL0     C 8083   8.261   1.872   0.923 -0.6596 -0.4920  0.2837
  784MOL0     C 8084   8.397   1.851   0.881 -0.4644 -0.9224  0.0395
  784MOL0     O 8085   8.489   1.945   0.922  0.3566  0.6564 -0.0133
  784MOL0     C 8086   8.603   1.956   0.848  0.4169 -0.3013 -0.8846
  784MOL0     C 8087   8.710   1.883   0.882 -1.1002  0.0269 -0.0568
  784MOL0     C 8088   8.828   1.882   0.804  0.4775  0.6188  1.5767
  784MOL0     C 8089   8.851   1.986   0.707  1.4609  0.6963  0.7692
  784MOL0     O 8090   8.954   1.991   0.620  0.2751  0.3110 -0.0552
  784MOL0     C 8091   9.077   1.948   0.677 -0.1053 -0.0088  0.3131
  784MOL0     C 8092   9.175   1.994   0.567 -0.5142  0.2224 -0.1250
  784MOL0     C 8093   9.308   1.958   0.640 -0.0101  0.1269  0.8419
  784MOL0     C 8094   9.418   1.929   0.539  0.1317 -0.1678 -0.0413
  784MOL0     C 8095   9.503   2.061   0.508 -0.1908  0.1213 -0.1950
  784MOL0     C 8096   9.434   2.166   0.427  0.1389  0.5930  0.0876
  784MOL0     C 8097   9.502   2.300   0.453 -0.8804  0.0286  0.3099
  784MOL0     C 8098   9.490   2.391   0.328  0.4657  0.3342 -0.7366
  784MOL0    Cl 8099   9.318   2.419   0.310 -0.1633  0.1183  0.1754
  784MOL0     C 8100   8.748   2.075   0.684  0.4910 -0.1482  0.5262
  784MOL0     C 8101   8.622   2.057   0.752  0.3673 -0.0213 -0.3420
  784MOL0     O 8102   8.427   1.757   0.815 -0.4256  0.2735 -0.3059
  784MOL0     C 8103   8.181   1.758   0.946  0.9098  0.2297 -0.6359
  784MOL0     C 8104   8.050   1.768   0.996  0.1434  0.2331 -0.0937
  784MOL0     N 8105   7.617   2.365   0.783 -0.9382  0.5407 -0.3517
  784MOL0     N 8106   7.561   2.431   0.689 -0.3663 -0.0331  0.1768
  784MOL0     C 8107   6.615   1.860   0.446 -0.1792  0.1225 -0.2511
  784MOL0     C 8108   6.579   1.731   0.481 -0.4162 -0.4120  0.9372
  784MOL0     C 8109   6.348   1.393   0.624 -0.0995  0.4727 -0.8704
  784MOL0     C 8110   6.318   1.308   0.513  0.6056  0.0632 -0.4375
  784MOL0     C 8111   6.250   1.186   0.539  1.1288 -0.8764  0.2713
  784MOL0     C 8112   6.206   1.151   0.668  0.0904  0.2317 -0.6246
  784MOL0     O 8113   6.124   1.046   0.701  0.1270  0.2249  0.1866
  784MOL0     C 8114   6.182   0.915   0.685  0.3118  0.1073 -0.1301
  784MOL0     C 8115   6.261   0.879   0.810 -0.8945  0.0797  0.2579
  784MOL0     C 8116   6.350   0.756   0.776  0.6994  0.1753 -0.0191
  784MOL0     C 8117   6.437   0.735   0.898 -0.7899 -0.4052 -0.0125
  784MOL0     C 8118   6.537   0.628   0.877 -0.5395  0.1142 -0.1437
  784MOL0     C 8119   6.607   0.531   0.856 -0.0855 -1.2069  0.0802
  784MOL0     C 8120   6.247   1.225   0.773  0.3672 -0.2162 -0.4050
  784MOL0     C 8121   6.313   1.344   0.759  0.0442  0.5574  0.4390
  784MOL0     C 8122   6.333   1.421   0.885  0.6293  0.1762 -0.7288
  784MOL0     H 8123   6.304   1.702   0.288 -1.0563  1.7917 -0.4492
  784MOL0     H 8124   6.370   1.950   0.242  0.9981 -1.5266 -0.8662
  784MOL0     H 8125   6.748   2.115   0.312  0.3420 -2.1820  1.7021
  784MOL0     H 8126   6.706   2.124   0.481  0.9330  3.2212  0.8000
  784MOL0     H 8127   6.673   2.339   0.280  2.3720  0.4644  0.1965
  784MOL0     H 8128   6.584   2.331   0.430 -0.8289 -0.4478 -1.4823
  784MOL0     H 8129   6.753   2.450   0.507 -3.5921 -2.5566  0.4763
  784MOL0     H 8130   6.824   2.291   0.541 -1.6419 -2.8799 -0.6795
  784MOL0     H 8131   6.954   2.289   0.342  0.2701  1.0013 -1.2709
  784MOL0     H 8132   6.877   2.427   0.276 -1.0915  1.0043  1.0946
  784MOL0     H 8133   7.005   2.434   0.556  2.9399 -3.0548  0.2109
  784MOL0     H 8134   7.004   2.565   0.431  1.1396  0.2898 -0.9722
  784MOL0     H 8135   7.154   2.305   0.414 -0.2871 -0.7080 -1.5046
  784MOL0     H 8136   7.187   2.439   0.313 -4.3401  1.0260 -1.6809
  784MOL0     H 8137   7.229   2.432   0.620 -3.1153  2.0886  0.6766
  784MOL0     H 8138   7.281   2.572   0.517 -0.9914 -0.1560 -0.8167
  784MOL0     H 8139   7.380   2.294   0.445 -1.1362  0.7305  0.2880
  784MOL0     H 8140   7.469   2.437   0.437  1.1058  0.6188  3.2411
  784MOL0     H 8141   7.395   2.144   0.676  0.3609  1.4291 -2.8902
  784MOL0     H 8142   7.458   2.086   0.904 -1.9271  1.9590  1.4796
  784MOL0     H 8143   7.546   2.199   1.002  0.8799  2.3971 -2.0447
  784MOL0     H 8144   7.660   1.985   0.816 -2.2592  0.7766 -0.0901
  784MOL0     H 8145   7.754   2.104   0.921 -2.0602  2.2329  2.6483
  784MOL0     H 8146   7.619   1.974   1.120 -3.2202 -1.7285  0.9673
  784MOL0     H 8147   7.554   1.861   1.004  1.1870 -1.0010  1.2255
  784MOL0     H 8148   7.732   1.741   1.062 -3.5615  1.9843  2.5069
  784MOL0     H 8149   7.784   1.825   0.914 -0.3968 -0.5866 -0.0622
  784MOL0     H 8150   8.027   2.099   0.994  0.1396 -0.8695  2.2500
  784MOL0     H 8151   8.310   2.175   0.944  3.4707  0.0115 -2.1075
  784MOL0     H 8152   8.175   2.185   0.839 -1.6377 -0.5712  1.0947
  784MOL0     H 8153   8.319   2.097   0.779 -0.8311 -4.8855 -0.1830
  784MOL0     H 8154   8.689   1.808   0.958 -2.6000  0.2689 -0.2030
  784MOL0     H 8155   8.905   1.806   0.808  0.5891  0.6427  0.3078
  784MOL0     H 8156   9.106   1.991   0.773  0.5508  0.3141 -0.0244
  784MOL0     H 8157   9.091   1.840   0.679 -0.0567 -0.1944 -3.1847
  784MOL0     H 8158   9.156   1.939   0.474 -0.4647 -0.5792  0.3351
  784MOL0     H 8159   9.163   2.100   0.540  1.9848  0.9786  1.3486
  784MOL0     H 8160   9.293   1.879   0.715 -1.2262 -1.3800 -0.8984
  784MOL0     H 8161   9.342   2.049   0.690 -3.7317  2.7247 -0.8833
  784MOL0     H 8162   9.388   1.886   0.444  3.2487  2.4530 -2.4473
  784MOL0     H 8163   9.481   1.853   0.588 -3.0029 -4.0273 -1.4829
  784MOL0     H 8164   9.535   2.112   0.600  1.9474  1.5258 -1.6469
  784MOL0     H 8165   9.590   2.041   0.445 -0.9254 -2.5723 -0.4541
  784MOL0     H 8166   9.333   2.170   0.470  0.9467  2.4872  1.9634
  784MOL0     H 8167   9.413   2.137   0.323 -3.5547  0.8150  0.6401
  784MOL0     H 8168   9.610   2.296   0.471 -0.8820 -0.2308  0.2561
  784MOL0     H 8169   9.459   2.352   0.539  3.5068  2.2075  1.5454
  784MOL0     H 8170   9.533   2.333   0.245 -0.9704  0.6631 -1.7424
  784MOL0     H 8171   9.544   2.484   0.346 -1.1686  0.8144  2.1367
  784MOL0     H 8172   8.758   2.151   0.608 -0.0950  0.3880  0.9680
  784MOL0     H 8173   8.543   2.130   0.739  2.1560  1.7626 -1.7523
  784MOL0     H 8174   8.229   1.661   0.955  1.1908  0.5060  1.5795
  784MOL0     H 8175   7.992   1.686   1.037  1.0616 -0.8237 -0.8585
  784MOL0     H 8176   6.714   1.896   0.469  0.2090 -0.1414 -1.4692
  784MOL0     H 8177   6.656   1.682   0.541 -0.1046 -1.8638 -0.5974
  784MOL0     H 8178   6.363   1.330   0.417  1.7524  1.8500  0.4445
  784MOL0     H 8179   6.229   1.125   0.452 -0.0910  1.2578 -1.0204
  784MOL0     H 8180   6.102   0.841   0.671 -0.8055  1.6931 -2.8122
  784MOL0     H 8181   6.242   0.915   0.594  2.2439 -4.2886  0.8540
  784MOL0     H 8182   6.189   0.863   0.890 -0.8005  1.6988  0.7077
  784MOL0     H 8183   6.329   0.963   0.830  1.3905 -0.8655 -2.7904
  784MOL0     H 8184   6.288   0.667   0.762  2.3320 -0.8990 -0.6725
  784MOL0     H 8185   6.411   0.762   0.686 -1.3286 -2.1457 -1.6870
  784MOL0     H 8186   6.368   0.709   0.979 -0.0937 -2.2258  0.0375
  784MOL0     H 8187   6.483   0.828   0.934 -0.8205  0.0795 -1.2023
  784MOL0     H 8188   6.678   0.455   0.833  1.0253  0.4646 -2.4036
  784MOL0     H 8189   6.211   1.186   0.868  1.7191 -0.3460  0.0705
  784MOL0     H 8190   6.285   1.369   0.968 -1.0094  0.1627 -1.6418
  784MOL0     H 8191   6.439   1.435   0.906  0.5586  0.9953 -0.8718
  784MOL0     H 8192   6.282   1.517   0.873 -1.8568 -1.2698 -2.7587
  785MOL0     O 8193  11.172   5.879   4.984 -0.0846  0.0682  0.2327
  785MOL0     C 8194  11.265   5.884   5.064 -0.5136 -0.4045 -0.2960
  785MOL0     O 8195  11.293   5.792   5.166 -0.2125  0.3255  0.7617
  785MOL0     C 8196  11.207   5.693   5.188 -0.4365 -0.4045 -0.3354
  785MOL0     C 8197  11.160   5.596   5.101 -0.7021 -0.1374  0.5902
  785MOL0     C 8198  11.069   5.496   5.136  1.0026  0.0246 -0.1937
  785MOL0     C 8199  11.025   5.484   5.273 -0.2328  0.0370  0.8636
  785MOL0     O 8200  10.950   5.370   5.278 -0.2752  0.5700  0.0281
  785MOL0     C 8201  10.867   5.371   5.396 -0.1036  0.5721  0.6577
  785MOL0     C 8202  10.772   5.250   5.418  0.1587  0.1346  0.9688
  785MOL0     C 8203  10.650   5.287   5.497  0.4018  0.3985 -0.2796
  785MOL0     C 8204  10.529   5.325   5.403  0.8604  0.2314  0.8310
  785MOL0     C 8205  10.385   5.320   5.460  1.0787  0.5729  0.5230
  785MOL0     C 8206  10.266   5.385   5.373 -0.4417  0.0380  0.1489
  785MOL0     C 8207  10.131   5.377   5.453 -0.0126 -0.6729  0.4435
  785MOL0     C 8208  10.003   5.374   5.361  0.4895 -0.7509  0.5262
  785MOL0     N 8209   9.974   5.513   5.322  0.7819 -0.0621  0.1914
  785MOL0     C 8210   9.863   5.593   5.356  0.6887  0.3695 -0.2114
  785MOL0     C 8211   9.890   5.710   5.296  0.4317  0.4747 -0.3565
  785MOL0     C 8212   9.798   5.839   5.300 -0.0125 -0.6727  0.2661
  785MOL0     C 8213   9.840   5.949   5.404 -0.7761 -0.0285  0.4834
  785MOL0     C 8214   9.767   6.084   5.378  0.2420 -0.5478 -1.4283
  785MOL0     C 8215   9.816   6.202   5.458 -0.5495 -0.3428 -0.6111
  785MOL0     O 8216   9.942   6.250   5.406 -0.1894 -0.4753 -0.0995
  785MOL0     C 8217   9.959   6.379   5.368  0.2881  0.2472  0.0908
  785MOL0     C 8218  10.017   6.408   5.246  0.2483  0.1871  0.1564
  785MOL0     C 8219  10.044   6.542   5.210 -0.2784 -0.0024  0.2924
  785MOL0     C 8220  10.112   6.552   5.079  0.6099  0.2806 -0.3841
  785MOL0     C 8221   9.999   6.641   5.299  0.4516  0.1537 -0.0419
  785MOL0     C 8222  10.014   6.787   5.265 -0.5545 -0.3788 -1.5684
  785MOL0     O 8223  10.001   6.875   5.379  0.3400  0.1692  0.1417
  785MOL0     C 8224  10.050   7.004   5.375  0.0673  0.2354  0.5564
  785MOL0     C 8225  10.177   7.025   5.322  1.0380  0.7418 -0.6755
  785MOL0     C 8226  10.231   7.154   5.327 -0.0266  0.1094  0.4197
  785MOL0     C 8227  10.156   7.262   5.363  0.9670 -0.0336 -0.1281
  785MOL0     O 8228  10.227   7.383   5.370 -0.3699  0.8200 -0.0772
  785MOL0     C 8229  10.162   7.498   5.325  0.0484 -0.5014  0.0186
  785MOL0     C 8230  10.242   7.618   5.386 -0.4359 -0.1254  0.0807
  785MOL0     C 8231  10.389   7.598   5.377  0.6691  0.8247  0.8617
  785MOL0     C 8232  10.472   7.725   5.386  0.4662  0.1181  0.1591
  785MOL0     C 8233  10.615   7.700   5.432  0.0006 -0.3631 -0.2726
  785MOL0     C 8234  10.705   7.615   5.333  0.5182  0.0637  0.3552
  785MOL0     C 8235  10.853   7.640   5.365  0.1946 -0.6114 -0.4900
  785MOL0     C 8236  10.898   7.591   5.505  0.5120 -0.3938 -0.9276
  785MOL0    Cl 8237  10.862   7.707   5.641  0.4415 -0.1458 -0.3143
  785MOL0     C 8238  10.020   7.239   5.413 -0.5841  0.2185 -0.1076
  785MOL0     C 8239   9.973   7.107   5.418 -0.1058 -0.2355 -0.6937
  785MOL0     O 8240  10.035   6.828   5.154  0.1601 -0.3901  0.8560
  785MOL0     C 8241   9.942   6.613   5.423 -0.5898 -0.4737  1.5378
  785MOL0     C 8242   9.920   6.484   5.459 -0.5804  1.0461 -0.3430
  785MOL0     N 8243  10.000   5.695   5.211 -1.1604  0.0902  1.3650
  785MOL0     N 8244  10.054   5.580   5.237 -0.0618  0.0050  0.3751
  785MOL0     C 8245  11.072   5.572   5.365 -0.3152 -0.1102  0.0268
  785MOL0     C 8246  11.162   5.672   5.320 -0.9715 -0.1475  0.5928
  785MOL0     C 8247  11.379   5.975   5.029  0.2807  0.5856  0.5492
  785MOL0     C 8248  11.501   5.964   5.100  0.1148 -0.2821  0.3226
  785MOL0     C 8249  11.615   6.047   5.072  1.0658 -0.1529 -1.0464
  785MOL0     C 8250  11.609   6.141   4.966 -0.0828 -0.0144  0.7466
  785MOL0     O 8251  11.715   6.212   4.937 -0.6226 -0.4977  0.4370
  785MOL0     C 8252  11.843   6.212   5.012  0.2698 -0.2058  0.3925
  785MOL0     C 8253  11.938   6.316   4.958 -0.1790  0.7209 -1.4168
  785MOL0     C 8254  11.993   6.283   4.822  1.4287 -0.0708  0.7720
  785MOL0     C 8255  12.131   6.354   4.790  0.4142 -0.3656 -0.0355
  785MOL0     C 8256  12.230   6.295   4.872  0.7735 -0.0979  0.3518
  785MOL0     C 8257  12.309   6.230   4.939 -0.2143  0.3028  0.3257
  785MOL0     C 8258  11.489   6.148   4.890  0.5342 -0.6693  0.0121
  785MOL0     C 8259  11.381   6.073   4.922 -0.0923 -0.5935 -0.3014
  785MOL0     C 8260  11.255   6.092   4.840 -0.3207  0.4824 -0.1043
  785MOL0     H 8261  11.198   5.609   5.001 -0.7441 -1.5709  0.3624
  785MOL0     H 8262  11.039   5.425   5.060 -2.3299 -1.3038  2.1384
  785MOL0     H 8263  10.806   5.462   5.390 -1.0887 -0.1515 -0.9023
  785MOL0     H 8264  10.933   5.384   5.482  0.7783 -0.8953  0.2385
  785MOL0     H 8265  10.754   5.222   5.314  0.7689 -1.9212  1.3614
  785MOL0     H 8266  10.826   5.168   5.468 -0.4689 -0.8018  0.1536
  785MOL0     H 8267  10.615   5.208   5.563  2.2959  0.5620  0.9979
  785MOL0     H 8268  10.679   5.365   5.568 -0.3758 -2.6098  3.6765
  785MOL0     H 8269  10.552   5.423   5.360 -0.4802  0.5611  0.8220
  785MOL0     H 8270  10.525   5.256   5.318  0.6574  3.4613 -1.9863
  785MOL0     H 8271  10.376   5.368   5.558 -1.9386 -0.9725  1.1228
  785MOL0     H 8272  10.363   5.215   5.480 -3.3564  1.7628  3.2956
  785MOL0     H 8273  10.281   5.492   5.356 -0.0222 -0.3644 -2.3700
  785MOL0     H 8274  10.260   5.337   5.275  2.2746 -1.0078  0.3943
  785MOL0     H 8275  10.122   5.457   5.528 -0.2055 -0.1474 -0.1329
  785MOL0     H 8276  10.143   5.280   5.503  1.1337 -0.7656  0.0103
  785MOL0     H 8277  10.030   5.315   5.273  0.7176 -0.5827  0.4820
  785MOL0     H 8278   9.916   5.331   5.412  1.1167 -0.0676  2.2471
  785MOL0     H 8279   9.784   5.559   5.422  1.7710 -1.2440  0.2978
  785MOL0     H 8280   9.704   5.795   5.333 -0.2638 -0.3531 -0.0118
  785MOL0     H 8281   9.789   5.880   5.199 -0.4075  0.8880  0.9059
  785MOL0     H 8282   9.809   5.923   5.506  0.0068 -0.2459  0.6747
  785MOL0     H 8283   9.948   5.962   5.416 -0.6975 -1.5827  1.8039
  785MOL0     H 8284   9.777   6.109   5.271 -1.3068  0.1898 -1.4457
  785MOL0     H 8285   9.663   6.057   5.399  0.2128 -0.3251 -1.2833
  785MOL0     H 8286   9.733   6.273   5.449  0.1246  0.3468 -1.4607
  785MOL0     H 8287   9.835   6.175   5.562 -0.2688  1.0700 -0.2840
  785MOL0     H 8288  10.048   6.323   5.186  1.8185  0.5196  0.4654
  785MOL0     H 8289  10.178   6.465   5.073 -0.2791 -0.3199 -2.1215
  785MOL0     H 8290  10.173   6.642   5.076 -1.8291  2.0261 -1.3328
  785MOL0     H 8291  10.038   6.541   4.999  0.2830 -0.3349 -0.0150
  785MOL0     H 8292  10.233   6.942   5.282 -1.1467 -0.7260 -0.8594
  785MOL0     H 8293  10.327   7.178   5.282  0.9947  2.3812  3.4689
  785MOL0     H 8294  10.163   7.512   5.216  2.8653 -0.4005  0.0085
  785MOL0     H 8295  10.060   7.503   5.365  0.4932 -3.5002  1.8077
  785MOL0     H 8296  10.205   7.708   5.336 -2.1065  0.3843  2.0635
  785MOL0     H 8297  10.210   7.641   5.488 -2.1231  0.6201 -0.5760
  785MOL0     H 8298  10.420   7.548   5.285 -0.1671  1.2292  0.3427
  785MOL0     H 8299  10.408   7.523   5.454  0.4798 -0.4919 -0.3293
  785MOL0     H 8300  10.432   7.804   5.450  2.1813  0.5190  0.7830
  785MOL0     H 8301  10.489   7.764   5.286  1.9799 -1.2142 -0.1499
  785MOL0     H 8302  10.653   7.801   5.449 -1.3346  0.1642 -0.3057
  785MOL0     H 8303  10.621   7.651   5.530  0.7255 -1.2930 -0.7676
  785MOL0     H 8304  10.687   7.644   5.229  0.3696  0.8926  0.6043
  785MOL0     H 8305  10.696   7.507   5.348 -0.8679  0.4475  2.7622
  785MOL0     H 8306  10.880   7.746   5.354 -0.3277 -0.3836  0.3076
  785MOL0     H 8307  10.924   7.585   5.302  1.8987 -0.3248  1.0772
  785MOL0     H 8308  11.006   7.577   5.494  1.5113  5.7038 -2.1196
  785MOL0     H 8309  10.862   7.489   5.524 -1.2893  0.5987  1.7204
  785MOL0     H 8310   9.970   7.329   5.448 -1.1676  0.6794 -2.0227
  785MOL0     H 8311   9.878   7.086   5.467  1.1761 -1.4788  1.4129
  785MOL0     H 8312   9.909   6.694   5.488  1.2305  3.5932 -2.0807
  785MOL0     H 8313   9.878   6.463   5.557  2.0625 -0.7430  0.5043
  785MOL0     H 8314  11.045   5.562   5.470  0.2205  0.9677  0.2748
  785MOL0     H 8315  11.212   5.733   5.394  3.7270 -4.5287  1.5760
  785MOL0     H 8316  11.516   5.891   5.179 -0.6380 -2.6200 -1.5850
  785MOL0     H 8317  11.708   6.040   5.128  0.4848  2.8972  0.4974
  785MOL0     H 8318  11.822   6.243   5.115  2.1770  3.0324 -0.0380
  785MOL0     H 8319  11.888   6.113   5.017 -2.9277 -1.8632 -0.6809
  785MOL0     H 8320  12.020   6.309   5.030 -1.2480 -1.6924 -0.2945
  785MOL0     H 8321  11.890   6.414   4.968 -0.8092  0.2805  0.1576
  785MOL0     H 8322  12.002   6.174   4.821 -2.9031 -0.6095 -0.4174
  785MOL0     H 8323  11.924   6.309   4.741  1.7531  1.8114  1.0555
  785MOL0     H 8324  12.121   6.456   4.827  1.6646  0.4169 -1.7256
  785MOL0     H 8325  12.157   6.342   4.685  0.7133 -0.2801  0.0275
  785MOL0     H 8326  12.393   6.191   4.992 -0.3777  1.1541  1.2461
  785MOL0     H 8327  11.491   6.215   4.804  2.1404 -0.5636  0.0987
  785MOL0     H 8328  11.218   6.004   4.785 -1.9557  0.4134  1.0431
  785MOL0     H 8329  11.185   6.149   4.901 -0.8646 -2.3944  2.2252
  785MOL0     H 8330  11.279   6.155   4.754  0.5071  0.9632  0.4590
  786MOL0     O 8331   5.671  11.067   2.163 -0.4297  0.1788  0.4523
  786MOL0     C 8332   5.694  11.122   2.265  0.5831  0.0863  0.2850
  786MOL0     O 8333   5.604  11.136   2.368  0.3140 -0.0314  0.0607
  786MOL0     C 8334   5.490  11.057   2.363 -0.1816  0.1059 -0.1904
  786MOL0     C 8335   5.499  10.933   2.400 -0.1884 -0.0907  0.4766
  786MOL0     C 8336   5.392  10.850   2.399 -0.6323 -0.2406 -0.4012
  786MOL0     C 8337   5.267  10.894   2.367  0.2226 -0.3008  0.7194
  786MOL0     O 8338   5.157  10.812   2.370 -0.0850 -0.1906 -0.0726
  786MOL0     C 8339   5.026  10.840   2.310 -0.8777  0.4930  0.1226
  786MOL0     C 8340   4.944  10.706   2.322  0.3351 -0.8737 -0.2081
  786MOL0     C 8341   5.006  10.573   2.280 -0.8878  0.4986  0.1977
  786MOL0     C 8342   4.908  10.467   2.235  0.3747 -0.5673  0.3164
  786MOL0     C 8343   4.814  10.438   2.357 -0.8917 -0.7583  0.5633
  786MOL0     C 8344   4.876  10.393   2.496 -0.0770  0.0162 -0.3976
  786MOL0     C 8345   4.969  10.275   2.467 -0.3323  0.2937  0.2857
  786MOL0     C 8346   5.056  10.244   2.589 -0.1603 -0.0240  0.4667
  786MOL0     N 8347   5.145  10.128   2.571  0.4151 -0.7887  0.8036
  786MOL0     C 8348   5.246  10.113   2.484 -0.0747  0.6027  0.6684
  786MOL0     C 8349   5.279   9.984   2.499 -0.1215 -0.3314 -0.6800
  786MOL0     C 8350   5.359   9.895   2.413 -0.2448 -0.2576 -0.1683
  786MOL0     C 8351   5.508   9.946   2.410  0.1902 -0.1357  0.0336
  786MOL0     C 8352   5.606   9.857   2.349 -0.0196 -0.4325  0.4304
  786MOL0     C 8353   5.741   9.917   2.366  0.7569  0.8870  0.2562
  786MOL0     O 8354   5.758  10.046   2.310 -0.5026  0.5352  0.5450
  786MOL0     C 8355   5.876  10.101   2.289 -0.1630 -0.3144 -0.9933
  786MOL0     C 8356   5.999  10.041   2.316 -0.3788  0.5346  0.2661
  786MOL0     C 8357   6.125  10.106   2.308  1.1305  0.1288 -0.4280
  786MOL0     C 8358   6.243  10.015   2.340 -0.0861 -1.1697  0.1127
  786MOL0     C 8359   6.130  10.249   2.279  0.9261 -0.0325  0.4063
  786MOL0     C 8360   6.247  10.333   2.255  0.1498  0.8831  0.0008
  786MOL0     O 8361   6.233  10.463   2.230 -0.1142 -0.4886 -0.3901
  786MOL0     C 8362   6.344  10.537   2.208  0.2154  0.3517 -0.0597
  786MOL0     C 8363   6.383  10.549   2.076  0.6437 -0.9415 -0.1138
  786MOL0     C 8364   6.517  10.591   2.054  0.0045 -0.6884 -0.2843
  786MOL0     C 8365   6.595  10.630   2.166  0.2655  0.3049  0.5221
  786MOL0     O 8366   6.725  10.665   2.142  0.6320  0.1504 -1.0388
  786MOL0     C 8367   6.744  10.775   2.059 -0.4079 -0.6964 -0.7137
  786MOL0     C 8368   6.886  10.795   2.009  0.3049  0.4414 -0.5567
  786MOL0     C 8369   7.004  10.786   2.109 -0.0631  0.6288 -0.3276
  786MOL0     C 8370   6.993  10.874   2.234 -0.0194 -0.2253 -0.0826
  786MOL0     C 8371   7.126  10.863   2.304  0.5392  0.3460  0.6494
  786MOL0     C 8372   7.161  10.725   2.355 -0.2290  0.1285 -0.3460
  786MOL0     C 8373   7.298  10.730   2.423  0.7461 -0.5842  0.5642
  786MOL0     C 8374   7.298  10.773   2.568  0.7185  0.3843  0.2687
  786MOL0    Cl 8375   7.207  10.663   2.674 -0.3035  0.0153  0.1073
  786MOL0     C 8376   6.552  10.621   2.293  0.2738 -0.1606 -1.4605
  786MOL0     C 8377   6.426  10.573   2.321  0.7915 -0.9595  0.0552
  786MOL0     O 8378   6.358  10.277   2.257 -0.4676 -0.4362 -0.7024
  786MOL0     C 8379   5.998  10.302   2.247 -1.2959  0.2597 -0.0444
  786MOL0     C 8380   5.873  10.232   2.253  0.1573  0.0148  0.1820
  786MOL0     N 8381   5.207   9.928   2.603 -0.4746  0.2778 -0.1087
  786MOL0     N 8382   5.121  10.017   2.639  0.7191  0.0546  0.2705
  786MOL0     C 8383   5.261  11.030   2.339  0.2682 -0.3363  0.1237
  786MOL0     C 8384   5.365  11.110   2.338  0.4871 -0.3980  0.8155
  786MOL0     C 8385   5.816  11.197   2.269 -0.2856 -0.6920  0.3144
  786MOL0     C 8386   5.868  11.222   2.400  0.0320 -0.3402 -0.3781
  786MOL0     C 8387   5.986  11.295   2.426 -0.2240  0.4661 -0.4088
  786MOL0     C 8388   6.049  11.356   2.310 -0.9101 -0.2105 -0.6300
  786MOL0     O 8389   6.171  11.432   2.303 -0.2711 -0.2578 -0.1115
  786MOL0     C 8390   6.286  11.376   2.363  0.6260  0.6447 -0.0404
  786MOL0     C 8391   6.397  11.475   2.331 -0.1806 -0.3279  0.8207
  786MOL0     C 8392   6.540  11.444   2.390 -0.7149  0.2625  0.4266
  786MOL0     C 8393   6.570  11.524   2.507  1.2904 -1.0935 -0.3713
  786MOL0     C 8394   6.462  11.517   2.606  0.0259 -0.7122 -1.2632
  786MOL0     C 8395   6.401  11.504   2.705  1.0936  0.0286  0.1135
  786MOL0     C 8396   6.005  11.321   2.180  0.2273 -0.8993  0.0988
  786MOL0     C 8397   5.884  11.255   2.156  0.4155 -0.3566  0.0565
  786MOL0     C 8398   5.833  11.252   2.016 -0.5569  0.2686  0.2751
  786MOL0     H 8399   5.586  10.882   2.441 -4.0975 -4.5963  4.3661
  786MOL0     H 8400   5.409  10.749   2.434  1.6163  0.0498 -0.4873
  786MOL0     H 8401   5.036  10.873   2.206  3.1862  2.5561  0.9682
  786MOL0     H 8402   4.983  10.922   2.368  2.2437  2.0416  0.4817
  786MOL0     H 8403   4.917  10.712   2.428  0.9640 -0.8268 -0.0474
  786MOL0     H 8404   4.850  10.717   2.267  1.1990  1.3254 -1.3708
  786MOL0     H 8405   5.074  10.584   2.195  0.5169 -0.2683  1.1791
  786MOL0     H 8406   5.078  10.531   2.352 -0.0263 -0.6194 -1.2466
  786MOL0     H 8407   4.857  10.493   2.143  0.8672 -3.5813 -0.9348
  786MOL0     H 8408   4.961  10.378   2.201  2.1744  1.2740 -1.9838
  786MOL0     H 8409   4.760  10.348   2.328  1.2048 -2.0240  0.3276
  786MOL0     H 8410   4.736  10.513   2.373  1.7021  2.1058  0.7542
  786MOL0     H 8411   4.921  10.480   2.543 -3.8254  1.6791  0.4738
  786MOL0     H 8412   4.790  10.369   2.560 -0.3492 -0.7104 -1.0135
  786MOL0     H 8413   5.035  10.298   2.383  0.5151  0.6019  1.0217
  786MOL0     H 8414   4.900  10.195   2.440 -2.2428  2.5572 -2.0156
  786MOL0     H 8415   5.129  10.324   2.605 -0.5684  0.5210 -0.3646
  786MOL0     H 8416   4.989  10.228   2.675 -0.6479  2.1046  0.5496
  786MOL0     H 8417   5.278  10.189   2.413 -0.2066  1.7891  1.8452
  786MOL0     H 8418   5.330   9.885   2.308 -0.6080  2.1589 -0.3477
  786MOL0     H 8419   5.359   9.792   2.450  1.1633 -0.8014 -1.5619
  786MOL0     H 8420   5.512  10.039   2.353 -0.4139  0.3499  0.7706
  786MOL0     H 8421   5.547   9.957   2.512  3.3957 -2.3707 -0.7992
  786MOL0     H 8422   5.611   9.757   2.394  1.3671 -0.4257  0.3351
  786MOL0     H 8423   5.587   9.842   2.242 -2.5346 -2.2086  1.0299
  786MOL0     H 8424   5.764   9.916   2.473  2.5025 -0.3009 -0.0865
  786MOL0     H 8425   5.802   9.852   2.304 -2.0603 -0.4172 -1.3649
  786MOL0     H 8426   6.002   9.935   2.341  2.1654  0.1359 -1.3604
  786MOL0     H 8427   6.289   9.965   2.254  0.5884 -2.4497  1.1697
  786MOL0     H 8428   6.215   9.926   2.397 -3.1002 -1.2687 -1.3600
  786MOL0     H 8429   6.317  10.075   2.395 -1.9611  0.0315  1.4225
  786MOL0     H 8430   6.329  10.503   1.994 -1.1238 -0.0016  0.4467
  786MOL0     H 8431   6.551  10.580   1.952  0.3058 -1.7103 -0.0825
  786MOL0     H 8432   6.681  10.766   1.970 -2.2060  2.4558  0.1306
  786MOL0     H 8433   6.730  10.872   2.108 -0.4047 -0.5570 -0.9894
  786MOL0     H 8434   6.889  10.734   1.918 -0.8147 -0.0208 -0.2916
  786MOL0     H 8435   6.896  10.896   1.967 -0.1968 -0.0177 -1.8045
  786MOL0     H 8436   7.102  10.806   2.064  2.1795 -4.5731  1.4326
  786MOL0     H 8437   6.995  10.685   2.151  1.4327 -0.1645 -1.7924
  786MOL0     H 8438   6.912  10.842   2.301 -0.5821  0.0586 -0.6211
  786MOL0     H 8439   6.978  10.978   2.204  0.9923 -0.5585 -1.8315
  786MOL0     H 8440   7.203  10.885   2.228  2.6454 -1.0080  2.2899
  786MOL0     H 8441   7.125  10.948   2.373  0.1295  0.5608  0.3842
  786MOL0     H 8442   7.162  10.649   2.276 -0.9021  1.4983 -1.7098
  786MOL0     H 8443   7.088  10.701   2.433  2.3079  2.0434  2.9058
  786MOL0     H 8444   7.359  10.795   2.360 -1.7049 -2.7295 -4.6144
  786MOL0     H 8445   7.351  10.636   2.404  1.7770  0.5928 -3.4059
  786MOL0     H 8446   7.271  10.876   2.594  2.9430  0.1750  4.1078
  786MOL0     H 8447   7.404  10.774   2.596  1.4011  0.5657 -2.1056
  786MOL0     H 8448   6.618  10.655   2.373  0.3752 -1.8537 -0.7749
  786MOL0     H 8449   6.404  10.549   2.424 -0.9490  1.5870  0.3474
  786MOL0     H 8450   5.995  10.408   2.226  0.0292 -0.1142 -2.5179
  786MOL0     H 8451   5.786  10.294   2.235  1.4376  2.4103  1.7057
  786MOL0     H 8452   5.156  11.052   2.319  0.2116 -2.1615 -2.0774
  786MOL0     H 8453   5.355  11.218   2.327  0.6090 -0.3379  1.3060
  786MOL0     H 8454   5.817  11.178   2.485  1.1828  1.1809  1.1785
  786MOL0     H 8455   6.019  11.288   2.529  1.4656 -1.3709 -1.0107
  786MOL0     H 8456   6.266  11.374   2.471  1.5525  0.4484  0.1363
  786MOL0     H 8457   6.308  11.277   2.322 -0.7349 -0.0262  0.7708
  786MOL0     H 8458   6.359  11.573   2.363  0.8834  0.0045  1.1236
  786MOL0     H 8459   6.413  11.470   2.222  1.3768  3.0229  0.7503
  786MOL0     H 8460   6.553  11.336   2.406 -1.7836 -0.1534 -1.1870
  786MOL0     H 8461   6.622  11.473   2.324  1.0520 -1.3457  1.7987
  786MOL0     H 8462   6.571  11.627   2.473 -0.6329  0.1631  2.9268
  786MOL0     H 8463   6.671  11.507   2.546  1.7382  1.9407  0.0325
  786MOL0     H 8464   6.345  11.509   2.796 -1.5326 -1.0436 -1.3202
  786MOL0     H 8465   6.051  11.383   2.104  0.4825 -0.2910  0.7421
  786MOL0     H 8466   5.733  11.297   2.012 -0.7607 -0.2445 -0.7831
  786MOL0     H 8467   5.888  11.316   1.946 -1.3806 -2.4426 -3.1355
  786MOL0     H 8468   5.837  11.151   1.975 -0.0126  1.0250 -1.6142
  787MOL0     O 8469   4.783   0.528   2.704  0.2185 -0.3515 -0.0331
  787MOL0     C 8470   4.723   0.500   2.592 -0.4912 -0.3356  0.0633
  787MOL0     O 8471   4.594   0.455   2.584  0.6882 -0.4562 -0.4276
  787MOL0     C 8472   4.521   0.430   2.697  0.9330  0.9161  0.2917
  787MOL0     C 8473   4.399   0.502   2.710  0.7605  0.7875  0.2129
  787MOL0     C 8474   4.305   0.476   2.809 -0.4839 -0.7724 -0.7182
  787MOL0     C 8475   4.334   0.366   2.893 -0.3511  0.9599 -0.3718
  787MOL0     O 8476   4.237   0.329   2.980  0.6905  0.4357 -0.0475
  787MOL0     C 8477   4.167   0.201   2.950  0.0669  0.2188 -0.1289
  787MOL0     C 8478   4.020   0.217   2.978  0.0121  1.4922 -0.3414
  787MOL0     C 8479   3.940   0.088   2.990 -0.0085 -0.2307 -0.5112
  787MOL0     C 8480   3.808   0.123   3.058 -0.0445  0.7412 -0.5118
  787MOL0     C 8481   3.719   0.003   3.088 -0.6698 -0.8416 -0.5381
  787MOL0     C 8482   3.590   0.054   3.162  0.4311  0.3237  0.0809
  787MOL0     C 8483   3.496  -0.063   3.206  0.1071 -0.2236 -0.7888
  787MOL0     C 8484   3.549  -0.155   3.309 -0.6959 -0.8420  0.4653
  787MOL0     N 8485   3.578  -0.295   3.265 -0.2723  1.0844  0.0678
  787MOL0     C 8486   3.698  -0.346   3.249 -0.0623 -0.5808  0.6966
  787MOL0     C 8487   3.687  -0.478   3.242  1.0335 -0.1549  0.6269
  787MOL0     C 8488   3.802  -0.581   3.244  0.7591  0.8434 -1.5092
  787MOL0     C 8489   3.823  -0.635   3.382 -0.6093 -0.2142  0.1311
  787MOL0     C 8490   3.712  -0.731   3.422  0.9186 -0.2080 -0.8087
  787MOL0     C 8491   3.727  -0.788   3.563  0.6516 -1.1851 -0.5823
  787MOL0     O 8492   3.725  -0.688   3.662 -0.7093 -0.1850  0.4532
  787MOL0     C 8493   3.800  -0.729   3.775 -0.6191 -0.1427  0.3224
  787MOL0     C 8494   3.816  -0.859   3.821  0.5905  0.0217 -0.2839
  787MOL0     C 8495   3.880  -0.897   3.942  0.4815  0.3082 -0.0616
  787MOL0     C 8496   3.864  -1.041   4.000  0.5082 -0.2986  0.2365
  787MOL0     C 8497   3.951  -0.799   4.013  0.6503 -0.4751  0.5094
  787MOL0     C 8498   4.033  -0.828   4.130 -0.4023  0.4737 -0.4218
  787MOL0     O 8499   4.075  -0.958   4.151 -0.0866 -0.1492 -0.6586
  787MOL0     C 8500   4.165  -0.991   4.249 -0.7781 -0.3156  0.2429
  787MOL0     C 8501   4.221  -1.116   4.239  0.2254 -0.2674  0.6104
  787MOL0     C 8502   4.312  -1.166   4.338  0.4644 -0.4184 -0.8322
  787MOL0     C 8503   4.354  -1.085   4.444 -1.1318  0.3570  0.1583
  787MOL0     O 8504   4.448  -1.127   4.537 -0.5510  0.6908  0.0668
  787MOL0     C 8505   4.573  -1.064   4.531  0.4663  0.3840 -0.1014
  787MOL0     C 8506   4.652  -1.146   4.634  0.0855 -0.3238  0.0762
  787MOL0     C 8507   4.791  -1.086   4.657 -0.3141 -0.4314 -1.3039
  787MOL0     C 8508   4.859  -1.169   4.764  0.2760  0.2701  0.1727
  787MOL0     C 8509   5.015  -1.162   4.761  0.2090 -0.5341  1.5411
  787MOL0     C 8510   5.078  -1.216   4.638  0.3689  0.5439  0.4202
  787MOL0     C 8511   5.036  -1.364   4.626  0.1791 -0.1309  0.7875
  787MOL0     C 8512   5.094  -1.430   4.497  0.2188 -0.1458  0.3323
  787MOL0    Cl 8513   5.006  -1.374   4.346  0.2327  0.4681  0.1475
  787MOL0     C 8514   4.288  -0.961   4.465 -0.0907 -0.0481  0.5062
  787MOL0     C 8515   4.197  -0.914   4.369 -0.3976  0.3500 -0.0927
  787MOL0     O 8516   4.073  -0.730   4.189 -0.1796  0.2534 -0.0022
  787MOL0     C 8517   3.948  -0.664   3.958  0.3602 -0.2880 -1.1484
  787MOL0     C 8518   3.868  -0.632   3.849  0.7538  0.4248 -0.0587
  787MOL0     N 8519   3.560  -0.508   3.278  0.3588 -0.2602 -0.0149
  787MOL0     N 8520   3.487  -0.396   3.286 -0.2675 -0.6218  0.5363
  787MOL0     C 8521   4.454   0.297   2.887  0.4685  0.8929  0.2177
  787MOL0     C 8522   4.542   0.331   2.786 -0.6971 -0.2769 -0.2158
  787MOL0     C 8523   4.784   0.542   2.461  0.5790  1.0369  0.1133
  787MOL0     C 8524   4.711   0.563   2.345  0.7503  0.2681  0.0227
  787MOL0     C 8525   4.756   0.594   2.225 -0.0504  0.6985  0.1571
  787MOL0     C 8526   4.887   0.611   2.193 -0.8640  0.2474 -0.1364
  787MOL0     O 8527   4.938   0.633   2.065 -0.3348 -0.2888 -0.4243
  787MOL0     C 8528   4.850   0.690   1.961 -0.0890  0.1333 -0.2687
  787MOL0     C 8529   4.932   0.765   1.853  0.3043  0.2287 -0.5001
  787MOL0     C 8530   5.001   0.880   1.923 -0.6060  0.0475  0.8581
  787MOL0     C 8531   5.021   0.992   1.824 -0.1190 -0.6996  0.3790
  787MOL0     C 8532   5.035   1.115   1.893 -0.2470  0.3278  0.0709
  787MOL0     C 8533   5.042   1.206   1.973 -0.5211  0.1093  0.1897
  787MOL0     C 8534   4.977   0.596   2.295  0.4573 -0.7369 -0.3346
  787MOL0     C 8535   4.924   0.562   2.423 -0.7786  1.0582 -0.0705
  787MOL0     C 8536   5.036   0.533   2.521  0.0621  0.1192 -0.3230
  787MOL0     H 8537   4.374   0.579   2.637 -0.6755  0.3947  0.2503
  787MOL0     H 8538   4.210   0.526   2.825  0.6273  0.7752  1.6680
  787MOL0     H 8539   4.217   0.126   3.013  0.8951  1.9452  1.3632
  787MOL0     H 8540   4.179   0.170   2.846 -3.0849  0.9744 -0.8334
  787MOL0     H 8541   4.010   0.269   3.074 -2.6961  1.1899 -0.3986
  787MOL0     H 8542   3.975   0.271   2.894 -2.2327 -0.5560 -0.5394
  787MOL0     H 8543   3.920   0.044   2.892 -1.3528 -1.6897  0.3703
  787MOL0     H 8544   3.988   0.016   3.056  2.0955  3.2390  2.1030
  787MOL0     H 8545   3.824   0.175   3.152  1.4618 -1.0584  0.2923
  787MOL0     H 8546   3.746   0.193   3.000  0.3167  0.7068 -0.9456
  787MOL0     H 8547   3.774  -0.075   3.141  0.4585  1.1657  1.4300
  787MOL0     H 8548   3.695  -0.042   2.991  0.8851 -0.5777 -1.0833
  787MOL0     H 8549   3.620   0.105   3.254  1.3548  0.2289 -0.1599
  787MOL0     H 8550   3.536   0.131   3.107 -2.5475 -1.5873  0.0714
  787MOL0     H 8551   3.468  -0.127   3.122 -0.4011 -0.5830 -0.3539
  787MOL0     H 8552   3.407  -0.016   3.249  0.5313 -0.2531  0.1435
  787MOL0     H 8553   3.649  -0.130   3.346 -0.0118 -1.8186 -0.6373
  787MOL0     H 8554   3.478  -0.167   3.391  0.5350 -2.0695  1.3933
  787MOL0     H 8555   3.799  -0.309   3.234 -0.3216  0.7803  2.1116
  787MOL0     H 8556   3.891  -0.528   3.208  1.7430  0.8529  0.8092
  787MOL0     H 8557   3.781  -0.664   3.176  0.8016 -0.2891 -0.1804
  787MOL0     H 8558   3.919  -0.687   3.383 -0.5636 -0.1468  1.4662
  787MOL0     H 8559   3.827  -0.556   3.458 -3.6573 -0.2529  0.4584
  787MOL0     H 8560   3.606  -0.705   3.431  0.6256 -1.2222 -1.2047
  787MOL0     H 8561   3.723  -0.815   3.353  3.4176 -0.5887 -0.0435
  787MOL0     H 8562   3.649  -0.865   3.571 -1.3524  0.7259 -1.0019
  787MOL0     H 8563   3.823  -0.841   3.569 -0.2224 -2.7390  0.5535
  787MOL0     H 8564   3.785  -0.939   3.755  0.0597 -0.5560  0.6464
  787MOL0     H 8565   3.960  -1.091   3.981  0.0327 -1.1650  0.0867
  787MOL0     H 8566   3.785  -1.087   3.940 -1.5684  2.4938  0.6314
  787MOL0     H 8567   3.833  -1.042   4.105  0.1377 -0.8717  0.1223
  787MOL0     H 8568   4.176  -1.174   4.159 -2.1268  0.9788  0.9344
  787MOL0     H 8569   4.355  -1.263   4.316  2.7296  0.9399 -2.8924
  787MOL0     H 8570   4.627  -1.063   4.436  2.0113  0.2214  0.7529
  787MOL0     H 8571   4.543  -0.965   4.566  0.8648 -0.0400  1.4991
  787MOL0     H 8572   4.599  -1.146   4.730  1.9772  1.4355  1.2225
  787MOL0     H 8573   4.660  -1.244   4.586  0.6025  0.2374 -1.0089
  787MOL0     H 8574   4.786  -0.980   4.686  0.1693 -0.5308 -0.8415
  787MOL0     H 8575   4.852  -1.086   4.566  2.4436 -0.9984  0.4454
  787MOL0     H 8576   4.815  -1.269   4.766  0.5155  0.0699 -2.1729
  787MOL0     H 8577   4.833  -1.140   4.866  2.9051  0.3505  0.9001
  787MOL0     H 8578   5.048  -1.058   4.765  2.8093 -1.1261 -1.0501
  787MOL0     H 8579   5.061  -1.209   4.849  2.3434 -0.1176  0.7084
  787MOL0     H 8580   5.188  -1.210   4.636  0.2803  2.9303 -0.6612
  787MOL0     H 8581   5.044  -1.153   4.555 -2.6028  0.5382  1.5287
  787MOL0     H 8582   4.932  -1.368   4.595  0.1778 -1.2097  0.9110
  787MOL0     H 8583   5.049  -1.417   4.720 -1.3864  0.7195  1.5164
  787MOL0     H 8584   5.086  -1.539   4.501  2.4312 -0.3709  0.3913
  787MOL0     H 8585   5.198  -1.396   4.487  0.1449  0.0974  0.3815
  787MOL0     H 8586   4.314  -0.884   4.537 -3.7642  0.8816  1.0302
  787MOL0     H 8587   4.158  -0.815   4.390 -0.9768 -0.0707  0.8800
  787MOL0     H 8588   4.008  -0.596   4.018 -1.9059 -0.2541  1.2412
  787MOL0     H 8589   3.853  -0.529   3.818  0.6548  0.7529  1.0270
  787MOL0     H 8590   4.484   0.207   2.941  0.3244  1.6821  1.6730
  787MOL0     H 8591   4.627   0.265   2.794 -1.0196 -0.4749  4.1034
  787MOL0     H 8592   4.606   0.564   2.374  1.1294  0.8585  1.4719
  787MOL0     H 8593   4.673   0.610   2.156 -1.7400  2.5099  2.4254
  787MOL0     H 8594   4.796   0.611   1.908  2.9189 -1.1966 -1.6205
  787MOL0     H 8595   4.777   0.759   2.004 -1.4498  0.8620 -3.5204
  787MOL0     H 8596   4.854   0.803   1.787 -0.8378 -2.2924 -0.7443
  787MOL0     H 8597   4.996   0.697   1.796 -2.2673 -2.0330 -0.8832
  787MOL0     H 8598   4.933   0.911   2.002 -2.1056  0.4793 -0.5352
  787MOL0     H 8599   5.096   0.855   1.971  0.3920  2.2336  0.1529
  787MOL0     H 8600   4.924   1.007   1.777  0.1628  0.8742  0.2444
  787MOL0     H 8601   5.107   0.971   1.759  0.5499  0.8878  0.7089
  787MOL0     H 8602   5.039   1.290   2.040  0.8129 -0.6873  1.3165
  787MOL0     H 8603   5.078   0.624   2.269  0.8503 -1.0744  0.7808
  787MOL0     H 8604   5.136   0.557   2.483  0.2088 -0.3660 -0.2547
  787MOL0     H 8605   5.025   0.591   2.613  1.7099  0.0558 -0.0463
  787MOL0     H 8606   5.045   0.426   2.539  1.9735 -0.0353 -1.8166
  788MOL0     O 8607  10.742   3.684   5.523 -0.5845 -0.3244  0.1590
  788MOL0     C 8608  10.812   3.588   5.481 -0.0675 -0.2535 -1.7661
  788MOL0     O 8609  10.845   3.566   5.352  0.5810 -0.6287 -0.1375
  788MOL0     C 8610  10.801   3.670   5.261 -0.3871  0.9092 -0.7828
  788MOL0     C 8611  10.841   3.796   5.270  0.0872  0.3508  0.8023
  788MOL0     C 8612  10.841   3.886   5.160  0.4381  0.2395  0.3456
  788MOL0     C 8613  10.772   3.843   5.041 -0.3754  0.9848 -0.4000
  788MOL0     O 8614  10.759   3.934   4.941 -0.2990  1.1436  0.3061
  788MOL0     C 8615  10.723   3.890   4.805 -0.2643 -0.2952 -0.4818
  788MOL0     C 8616  10.700   4.020   4.718  0.2351  0.4132  0.4675
  788MOL0     C 8617  10.789   4.071   4.605  0.4673 -0.7198  0.0179
  788MOL0     C 8618  10.862   3.966   4.529 -0.4276 -0.0703 -0.2722
  788MOL0     C 8619  11.013   3.960   4.534  0.3304  0.7155 -0.1497
  788MOL0     C 8620  11.078   3.876   4.424  1.1386  0.0426  0.5940
  788MOL0     C 8621  11.220   3.848   4.452  0.8441 -0.3962  0.1974
  788MOL0     C 8622  11.258   3.706   4.405 -0.3540  0.2502 -0.8345
  788MOL0     N 8623  11.399   3.684   4.402 -0.3769  0.8600  0.0021
  788MOL0     C 8624  11.498   3.759   4.336  0.0588  0.1015 -0.1421
  788MOL0     C 8625  11.620   3.710   4.374  0.7538 -0.3337 -0.7223
  788MOL0     C 8626  11.759   3.762   4.341  0.2982  0.3626  0.7233
  788MOL0     C 8627  11.814   3.660   4.237  0.5112 -0.7363 -0.0735
  788MOL0     C 8628  11.951   3.702   4.172 -1.0060 -0.4026 -0.2205
  788MOL0     C 8629  12.029   3.602   4.088 -0.5356 -0.1928  0.1112
  788MOL0     O 8630  11.949   3.529   3.999 -0.1904 -1.1546  0.4625
  788MOL0     C 8631  12.001   3.468   3.887  0.3202 -0.2103  0.5225
  788MOL0     C 8632  11.924   3.446   3.770 -0.3678  1.3090 -0.0495
  788MOL0     C 8633  11.973   3.371   3.654 -0.3472  0.4415  0.4034
  788MOL0     C 8634  11.892   3.367   3.528 -0.5556 -0.0880  1.1917
  788MOL0     C 8635  12.102   3.317   3.668  0.4355 -0.5046  1.3254
  788MOL0     C 8636  12.159   3.247   3.548 -0.2769  0.1150 -0.8632
  788MOL0     O 8637  12.089   3.146   3.487  0.5070 -0.4273 -0.4588
  788MOL0     C 8638  12.136   3.104   3.362 -0.6096 -0.3628 -0.7136
  788MOL0     C 8639  12.188   2.972   3.357  0.7113  0.4946 -0.5114
  788MOL0     C 8640  12.229   2.920   3.229 -0.6794  0.1576 -0.5576
  788MOL0     C 8641  12.224   3.005   3.120  0.7284 -0.1534 -0.0199
  788MOL0     O 8642  12.289   2.955   3.008 -0.0249 -0.7945  0.8459
  788MOL0     C 8643  12.327   3.041   2.898  0.0868  0.3256  0.4049
  788MOL0     C 8644  12.417   2.963   2.803  0.1383  0.9307 -0.1381
  788MOL0     C 8645  12.554   2.925   2.875 -0.0905  0.3475 -0.2692
  788MOL0     C 8646  12.640   2.844   2.777 -0.8155  0.1135  0.0777
  788MOL0     C 8647  12.776   2.810   2.826  0.3689 -0.4172 -0.4254
  788MOL0     C 8648  12.870   2.766   2.716  0.4036  0.3313  0.0896
  788MOL0     C 8649  12.839   2.639   2.642  0.7088  0.7059  1.0631
  788MOL0     C 8650  12.920   2.649   2.513 -1.1556  1.3125 -0.4300
  788MOL0    Cl 8651  13.096   2.679   2.532 -0.1074 -0.2496 -0.1476
  788MOL0     C 8652  12.172   3.133   3.130  0.0627 -0.4389 -0.6332
  788MOL0     C 8653  12.139   3.193   3.252 -0.5355  1.0346 -0.4720
  788MOL0     O 8654  12.268   3.290   3.511  0.2846 -0.1238 -0.3873
  788MOL0     C 8655  12.190   3.356   3.768 -0.7837  0.1171  0.3721
  788MOL0     C 8656  12.143   3.431   3.874 -0.1375 -0.4100 -0.3314
  788MOL0     N 8657  11.594   3.596   4.445  0.0637  0.6873  0.3076
  788MOL0     N 8658  11.464   3.585   4.476 -0.1865  0.0283  0.9785
  788MOL0     C 8659  10.712   3.715   5.043 -0.2181  0.1257  1.0385
  788MOL0     C 8660  10.737   3.624   5.146 -0.5159 -0.0300  0.2687
  788MOL0     C 8661  10.810   3.471   5.573 -0.4494 -0.1301 -0.0808
  788MOL0     C 8662  10.862   3.350   5.514 -0.1439 -0.5319 -0.4883
  788MOL0     C 8663  10.855   3.232   5.584 -1.2973 -0.1841 -0.1274
  788MOL0     C 8664  10.810   3.223   5.715 -0.3993 -0.0094 -0.8903
  788MOL0     O 8665  10.828   3.106   5.776 -0.3133  1.1174  0.0905
  788MOL0     C 8666  10.785   3.092   5.913 -0.1274 -0.7278 -0.0991
  788MOL0     C 8667  10.639   3.062   5.927 -0.2096  0.4752 -0.3284
  788MOL0     C 8668  10.591   2.973   5.813 -0.3873 -0.5926  0.2968
  788MOL0     C 8669  10.449   2.923   5.833 -0.5860 -0.9079 -0.2139
  788MOL0     C 8670  10.348   3.030   5.830  0.1875 -0.8597  0.1961
  788MOL0     C 8671  10.287   3.133   5.850 -0.5051  0.0304 -0.3242
  788MOL0     C 8672  10.754   3.343   5.772 -0.7386  0.1591  0.5405
  788MOL0     C 8673  10.756   3.466   5.707 -0.8581  0.2248 -1.3710
  788MOL0     C 8674  10.717   3.589   5.790  0.7580 -1.3022  1.0475
  788MOL0     H 8675  10.889   3.835   5.359  1.4827 -1.1926  0.7711
  788MOL0     H 8676  10.884   3.985   5.172  3.0183 -0.9680  2.2436
  788MOL0     H 8677  10.623   3.846   4.805 -0.3344 -0.3159 -3.2359
  788MOL0     H 8678  10.793   3.830   4.746  0.1435  0.1245 -0.4353
  788MOL0     H 8679  10.609   4.002   4.659  0.5174  0.6302 -0.0415
  788MOL0     H 8680  10.671   4.100   4.787  0.4366  2.6211 -1.8498
  788MOL0     H 8681  10.728   4.121   4.529 -2.4764  0.9373  3.1794
  788MOL0     H 8682  10.853   4.150   4.646 -3.3748  4.0110 -2.0221
  788MOL0     H 8683  10.820   3.867   4.550  0.8233 -0.8901 -1.4852
  788MOL0     H 8684  10.848   3.979   4.421 -0.9377 -0.0798 -0.2105
  788MOL0     H 8685  11.041   3.934   4.636  0.7516 -0.6801 -0.5910
  788MOL0     H 8686  11.049   4.061   4.515 -0.4474  0.5465 -2.9955
  788MOL0     H 8687  11.017   3.785   4.428 -0.5417  1.1383  1.6306
  788MOL0     H 8688  11.067   3.914   4.322  0.6726  1.4199  1.1308
  788MOL0     H 8689  11.237   3.862   4.559  1.7266 -0.3213  0.0480
  788MOL0     H 8690  11.278   3.916   4.391  0.1356  0.2331  0.2111
  788MOL0     H 8691  11.213   3.620   4.456 -4.8611  1.9474 -1.4713
  788MOL0     H 8692  11.217   3.701   4.303  0.4808  1.2767 -1.2287
  788MOL0     H 8693  11.497   3.850   4.276 -0.4439 -0.7900 -1.5344
  788MOL0     H 8694  11.836   3.763   4.419 -0.7599  2.3102  1.8204
  788MOL0     H 8695  11.755   3.866   4.306  0.9806  0.7149  1.6386
  788MOL0     H 8696  11.833   3.565   4.287  1.4988 -0.6073 -0.1776
  788MOL0     H 8697  11.745   3.652   4.153 -0.2548  0.3579  0.4288
  788MOL0     H 8698  11.938   3.788   4.106 -0.2256 -1.3558 -1.6714
  788MOL0     H 8699  12.008   3.733   4.260 -1.7551  0.6377 -0.0787
  788MOL0     H 8700  12.115   3.656   4.047  0.7350 -0.5169  2.1811
  788MOL0     H 8701  12.068   3.523   4.154  0.1321  1.4540  1.7700
  788MOL0     H 8702  11.821   3.479   3.777 -0.0558  2.5726 -0.9039
  788MOL0     H 8703  11.830   3.279   3.512  1.6016 -1.4348 -0.3389
  788MOL0     H 8704  11.963   3.383   3.446 -0.4254 -1.5249  1.0096
  788MOL0     H 8705  11.835   3.460   3.538  0.2012  0.2382  2.7209
  788MOL0     H 8706  12.196   2.913   3.448 -1.4823  2.6915  1.2128
  788MOL0     H 8707  12.257   2.816   3.218 -5.0855 -0.9694 -3.7771
  788MOL0     H 8708  12.235   3.085   2.858 -0.0271  0.7496  1.1032
  788MOL0     H 8709  12.384   3.132   2.920  0.8826 -0.0749  0.0411
  788MOL0     H 8710  12.355   2.874   2.796 -1.9755  1.9937  2.7088
  788MOL0     H 8711  12.431   3.012   2.706 -1.5374  1.1920 -0.2686
  788MOL0     H 8712  12.538   2.867   2.966 -0.0139  1.4916  0.4938
  788MOL0     H 8713  12.600   3.018   2.908 -2.9953  0.9526  2.5573
  788MOL0     H 8714  12.652   2.896   2.681 -1.5575  2.3895  1.1302
  788MOL0     H 8715  12.583   2.754   2.752  0.1172 -0.8443  1.2805
  788MOL0     H 8716  12.828   2.897   2.868  0.4958 -2.0388  3.1691
  788MOL0     H 8717  12.774   2.725   2.895  1.3102  0.5151  0.7866
  788MOL0     H 8718  12.966   2.752   2.767 -0.1901  0.2459  1.2166
  788MOL0     H 8719  12.887   2.850   2.648 -1.5936 -0.5572 -1.6093
  788MOL0     H 8720  12.732   2.623   2.627  0.5689  2.0101  0.5365
  788MOL0     H 8721  12.874   2.556   2.704  2.1812 -0.4703 -1.1942
  788MOL0     H 8722  12.873   2.717   2.441 -1.0057 -0.3839 -2.2310
  788MOL0     H 8723  12.918   2.547   2.474  1.2825 -0.6917  3.9017
  788MOL0     H 8724  12.159   3.190   3.038 -2.4111  0.2994  0.1028
  788MOL0     H 8725  12.108   3.297   3.251  0.4355  1.3372 -1.4712
  788MOL0     H 8726  12.297   3.338   3.763 -0.8562 -0.3881  0.6509
  788MOL0     H 8727  12.207   3.447   3.960 -0.3513 -4.8832  0.9518
  788MOL0     H 8728  10.649   3.675   4.964 -0.8561  4.3719 -0.8460
  788MOL0     H 8729  10.716   3.520   5.123 -0.6369  0.1474 -0.4376
  788MOL0     H 8730  10.898   3.346   5.412  1.1534 -0.0788 -0.0713
  788MOL0     H 8731  10.874   3.144   5.524 -4.0234 -0.3587 -0.8393
  788MOL0     H 8732  10.847   3.008   5.947  1.8983  0.5685 -0.4033
  788MOL0     H 8733  10.810   3.175   5.980 -1.4033  0.3426 -0.9091
  788MOL0     H 8734  10.582   3.154   5.912  2.0217  2.2925  1.6965
  788MOL0     H 8735  10.610   3.006   6.016 -0.4335 -1.2940 -1.4484
  788MOL0     H 8736  10.595   3.036   5.724 -0.3666 -1.1616 -0.1149
  788MOL0     H 8737  10.658   2.892   5.782 -0.4488  0.5511 -3.2589
  788MOL0     H 8738  10.459   2.858   5.920  1.7967 -0.9586 -0.4596
  788MOL0     H 8739  10.410   2.860   5.753 -2.1154 -1.8367  1.1869
  788MOL0     H 8740  10.224   3.218   5.865 -2.3963 -1.3496 -0.1402
  788MOL0     H 8741  10.721   3.350   5.876 -0.9612  2.0029  0.3801
  788MOL0     H 8742  10.796   3.664   5.777 -1.6836  1.6423  2.0971
  788MOL0     H 8743  10.629   3.640   5.750  0.9052 -1.3269  0.6863
  788MOL0     H 8744  10.701   3.580   5.897 -3.0356  0.9330  0.8569
  789MOL0     O 8745   4.998   4.166   5.534 -0.2895  0.2967  0.0661
  789MOL0     C 8746   4.966   4.144   5.420 -0.1025  0.0675  0.2108
  789MOL0     O 8747   4.887   4.041   5.378 -0.2133  0.2069 -0.4193
  789MOL0     C 8748   4.882   3.931   5.470 -0.2498 -0.1551  0.2092
  789MOL0     C 8749   4.986   3.837   5.465 -0.0725  0.7071 -0.3574
  789MOL0     C 8750   4.981   3.722   5.541 -0.0131  0.7693 -1.0072
  789MOL0     C 8751   4.867   3.698   5.618  0.2534  0.0762  0.8217
  789MOL0     O 8752   4.852   3.577   5.689 -0.4582  0.0816  0.2035
  789MOL0     C 8753   4.944   3.571   5.801 -0.2963 -0.3136 -0.5757
  789MOL0     C 8754   4.958   3.427   5.847  0.6221 -0.3688  0.7125
  789MOL0     C 8755   5.019   3.331   5.757  0.0383 -0.5564 -0.0506
  789MOL0     C 8756   5.114   3.228   5.830  0.7276  0.6743  0.6790
  789MOL0     C 8757   5.016   3.132   5.905 -0.2418 -0.0465  0.3705
  789MOL0     C 8758   5.085   3.036   6.002  1.8818 -0.0273  0.5143
  789MOL0     C 8759   5.017   2.898   6.009 -0.4950 -0.0481  0.4834
  789MOL0     C 8760   5.099   2.780   6.054  0.6075 -0.1013 -0.1216
  789MOL0     N 8761   5.156   2.817   6.185 -0.4790  0.0403  0.4094
  789MOL0     C 8762   5.285   2.859   6.213  0.5002  0.5628  0.3823
  789MOL0     C 8763   5.301   2.845   6.342  0.1603 -0.3465  0.2240
  789MOL0     C 8764   5.419   2.862   6.420  0.5083  0.6038  1.1184
  789MOL0     C 8765   5.443   2.739   6.504  0.0570 -0.1319  0.6324
  789MOL0     C 8766   5.584   2.739   6.568  0.1112 -0.4764 -0.8007
  789MOL0     C 8767   5.576   2.819   6.697  0.6339 -0.2478 -0.8493
  789MOL0     O 8768   5.555   2.954   6.685 -0.0046 -0.1821 -0.0431
  789MOL0     C 8769   5.657   3.045   6.661  1.2590 -0.7265 -0.3382
  789MOL0     C 8770   5.610   3.171   6.612  0.1404  0.3064  0.1123
  789MOL0     C 8771   5.698   3.273   6.571 -0.7077  0.9309 -0.4120
  789MOL0     C 8772   5.655   3.397   6.520 -0.0466 -0.6279 -0.3513
  789MOL0     C 8773   5.836   3.243   6.582  0.4675  0.5627  0.2748
  789MOL0     C 8774   5.944   3.334   6.546  0.2875  0.4909 -0.6258
  789MOL0     O 8775   5.960   3.365   6.416  0.5767  0.5593 -0.5567
  789MOL0     C 8776   6.081   3.355   6.357 -0.0485 -0.3644 -0.0258
  789MOL0     C 8777   6.095   3.406   6.230  0.7399 -0.1955  0.1504
  789MOL0     C 8778   6.211   3.400   6.149 -0.2943  0.8210  0.4503
  789MOL0     C 8779   6.315   3.308   6.188  0.1445 -0.7579  0.1080
  789MOL0     O 8780   6.419   3.276   6.105 -0.4990  0.5271 -0.2734
  789MOL0     C 8781   6.463   3.353   5.996  0.0364  0.0365  0.3657
  789MOL0     C 8782   6.589   3.285   5.930  0.4276 -1.3091 -0.4760
  789MOL0     C 8783   6.628   3.359   5.806  0.3947 -0.2620  0.2093
  789MOL0     C 8784   6.669   3.508   5.823 -0.0036 -0.4888 -0.0186
  789MOL0     C 8785   6.763   3.545   5.707  0.6023  0.0858  0.1558
  789MOL0     C 8786   6.769   3.693   5.676  0.1575 -1.0815  0.1971
  789MOL0     C 8787   6.843   3.718   5.537  0.0581  0.5556 -0.5267
  789MOL0     C 8788   6.871   3.867   5.510 -0.3421  0.1336  0.1741
  789MOL0    Cl 8789   6.926   3.865   5.352  0.0150 -0.5279  0.3736
  789MOL0     C 8790   6.307   3.255   6.315 -0.4604 -0.0625 -0.2568
  789MOL0     C 8791   6.197   3.280   6.395  0.8907 -0.1925 -0.2640
  789MOL0     O 8792   6.020   3.372   6.632 -0.9749 -0.3315 -0.5946
  789MOL0     C 8793   5.881   3.129   6.651  0.2561  0.4830  0.0049
  789MOL0     C 8794   5.789   3.023   6.679 -0.6545 -0.3733  0.3786
  789MOL0     N 8795   5.172   2.804   6.393  0.0582 -0.1182  0.4745
  789MOL0     N 8796   5.084   2.785   6.301 -1.0916  0.3399  0.0236
  789MOL0     C 8797   4.757   3.791   5.612  0.0775  0.5881 -0.1304
  789MOL0     C 8798   4.756   3.903   5.529 -0.4233 -0.3618  0.8561
  789MOL0     C 8799   4.986   4.250   5.322  0.0055 -0.6971 -0.9483
  789MOL0     C 8800   5.056   4.371   5.353  0.5573  1.0905 -0.2766
  789MOL0     C 8801   5.050   4.484   5.281  0.5330 -0.1543 -0.1690
  789MOL0     C 8802   4.981   4.486   5.158  0.2497 -0.9235 -0.2232
  789MOL0     O 8803   4.962   4.616   5.107 -0.0283  0.2857 -0.6496
  789MOL0     C 8804   4.896   4.639   4.984  0.0355 -0.3283  0.0289
  789MOL0     C 8805   4.866   4.789   4.977  0.7104 -0.0871 -0.4616
  789MOL0     C 8806   4.756   4.841   5.076 -0.3349 -0.5732  0.7776
  789MOL0     C 8807   4.614   4.856   5.008 -0.1438 -1.0744 -0.1342
  789MOL0     C 8808   4.572   4.717   4.978  0.5217  0.0267 -0.3563
  789MOL0     C 8809   4.529   4.604   4.974 -0.2518  0.0700  0.2507
  789MOL0     C 8810   4.920   4.367   5.125  0.5353  0.5344  0.1021
  789MOL0     C 8811   4.929   4.245   5.188  0.3826 -0.6417 -0.1455
  789MOL0     C 8812   4.863   4.124   5.123  0.3847  0.6400  0.5314
  789MOL0     H 8813   5.074   3.852   5.404 -1.2759  1.3242 -2.0178
  789MOL0     H 8814   5.063   3.651   5.532 -1.2253 -0.4147 -4.5959
  789MOL0     H 8815   4.899   3.617   5.889 -2.5903 -1.0939 -1.2513
  789MOL0     H 8816   5.043   3.601   5.767 -0.1461  1.0949  1.0106
  789MOL0     H 8817   5.006   3.427   5.946 -1.1646  2.3025  1.6909
  789MOL0     H 8818   4.858   3.387   5.869  0.4604 -0.7413 -0.6274
  789MOL0     H 8819   4.941   3.279   5.700  0.9105 -4.1259  1.6982
  789MOL0     H 8820   5.071   3.390   5.681 -4.0835 -0.2628 -2.9957
  789MOL0     H 8821   5.163   3.182   5.744  0.0334  0.7445  0.2361
  789MOL0     H 8822   5.179   3.290   5.893  1.2734 -0.8885  1.7456
  789MOL0     H 8823   4.960   3.072   5.832 -0.7372 -0.8968  1.4186
  789MOL0     H 8824   4.939   3.190   5.958  1.2852  2.2058  0.2556
  789MOL0     H 8825   5.189   3.021   5.973  1.9365 -3.1034  1.8609
  789MOL0     H 8826   5.073   3.085   6.099 -3.6320 -0.2940  0.2686
  789MOL0     H 8827   4.959   2.878   5.919 -2.8050 -2.2969  2.3274
  789MOL0     H 8828   4.929   2.909   6.072 -0.4870 -1.3728  0.7664
  789MOL0     H 8829   5.034   2.693   6.070 -2.7628  2.4833  1.4041
  789MOL0     H 8830   5.176   2.743   5.985  0.1434 -2.4428  0.5118
  789MOL0     H 8831   5.365   2.874   6.141  1.0584  1.4257  1.1485
  789MOL0     H 8832   5.413   2.946   6.490  2.8867  0.8646  1.0674
  789MOL0     H 8833   5.501   2.892   6.355  1.5087  1.3094  2.6539
  789MOL0     H 8834   5.365   2.725   6.579  1.4820 -1.5822  1.9232
  789MOL0     H 8835   5.441   2.646   6.446  2.0982 -0.8724  1.6333
  789MOL0     H 8836   5.599   2.639   6.611  1.2612 -0.1979 -0.5297
  789MOL0     H 8837   5.665   2.774   6.504  0.9615  3.3134  2.0016
  789MOL0     H 8838   5.493   2.779   6.756 -0.3634 -0.2078 -2.1911
  789MOL0     H 8839   5.670   2.796   6.747  0.5388  1.0314 -0.0125
  789MOL0     H 8840   5.504   3.192   6.621 -0.5732 -2.6639 -0.2661
  789MOL0     H 8841   5.572   3.448   6.570  0.5829  0.9275 -0.8240
  789MOL0     H 8842   5.629   3.377   6.416 -0.9621 -1.8740  0.0965
  789MOL0     H 8843   5.735   3.471   6.515  0.3673 -0.9054  1.5731
  789MOL0     H 8844   6.016   3.462   6.180  2.8498  3.4947  0.5262
  789MOL0     H 8845   6.213   3.455   6.055  1.1109 -0.1835 -0.1463
  789MOL0     H 8846   6.379   3.382   5.932  0.0299  1.9270  1.1755
  789MOL0     H 8847   6.499   3.453   6.021 -1.5650  0.2612  1.9287
  789MOL0     H 8848   6.674   3.311   5.993 -1.3828  0.1350  1.5227
  789MOL0     H 8849   6.575   3.181   5.899 -1.8174 -0.3834 -3.0510
  789MOL0     H 8850   6.535   3.360   5.749  0.5343 -0.8329 -0.0380
  789MOL0     H 8851   6.702   3.304   5.748 -1.4090 -1.5069 -1.0032
  789MOL0     H 8852   6.712   3.530   5.920 -2.6993  3.3040  0.5352
  789MOL0     H 8853   6.581   3.571   5.811 -1.1241 -1.8961  0.4214
  789MOL0     H 8854   6.857   3.488   5.702 -1.0107 -2.6786 -1.5190
  789MOL0     H 8855   6.721   3.516   5.610  2.9479  2.1999 -1.6082
  789MOL0     H 8856   6.837   3.740   5.747  0.4704  0.6581 -1.1718
  789MOL0     H 8857   6.675   3.746   5.689 -0.0081 -1.4446  0.4899
  789MOL0     H 8858   6.779   3.685   5.455  0.6339  2.2280 -1.7053
  789MOL0     H 8859   6.931   3.654   5.524  0.1978  0.5397  0.4502
  789MOL0     H 8860   6.942   3.917   5.576  0.1735 -0.1906 -0.1309
  789MOL0     H 8861   6.776   3.922   5.509  0.2439  1.5669 -4.6858
  789MOL0     H 8862   6.396   3.199   6.341  0.3206 -0.4493 -3.2874
  789MOL0     H 8863   6.197   3.232   6.493  1.4020 -3.0615 -1.5611
  789MOL0     H 8864   5.988   3.120   6.664  0.4886  1.6234 -1.0273
  789MOL0     H 8865   5.830   2.935   6.727 -2.2782 -2.1719 -1.3258
  789MOL0     H 8866   4.671   3.760   5.671  1.2989 -0.7989  1.0040
  789MOL0     H 8867   4.671   3.970   5.516  0.9540  1.4766  0.9946
  789MOL0     H 8868   5.112   4.364   5.447  1.2529  0.0545 -0.7461
  789MOL0     H 8869   5.096   4.575   5.317 -0.1582  1.5898 -3.3056
  789MOL0     H 8870   4.968   4.593   4.916 -0.3061 -2.2068  0.8821
  789MOL0     H 8871   4.806   4.578   4.996  1.3468 -1.9364  2.6142
  789MOL0     H 8872   4.839   4.816   4.874 -0.1778  1.6776  0.2048
  789MOL0     H 8873   4.961   4.835   5.007 -0.7665  1.0486  2.9546
  789MOL0     H 8874   4.755   4.795   5.175  1.0397 -0.0423  1.0560
  789MOL0     H 8875   4.773   4.947   5.097  0.2189 -0.0740 -1.8264
  789MOL0     H 8876   4.601   4.923   4.923 -0.7522 -0.0959  0.7121
  789MOL0     H 8877   4.548   4.897   5.084  0.4322  0.4337 -0.4077
  789MOL0     H 8878   4.510   4.499   4.980  2.3737 -0.3914  4.7330
  789MOL0     H 8879   4.867   4.363   5.030 -1.2240  1.1699  1.0315
  789MOL0     H 8880   4.851   4.141   5.016 -0.1148  1.3299  0.6930
  789MOL0     H 8881   4.915   4.028   5.126 -0.8674 -0.1536 -1.3048
  789MOL0     H 8882   4.767   4.120   5.176  0.7917 -0.2760  1.2416
  790MOL0     O 8883   7.633   5.339   9.940  1.0630 -0.1099  0.6314
  790MOL0     C 8884   7.518   5.332   9.889 -0.2504  0.0986  1.0195
  790MOL0     O 8885   7.488   5.315   9.749  0.1376  0.1849  0.0046
  790MOL0     C 8886   7.602   5.299   9.672 -0.0552  0.2594  0.3592
  790MOL0     C 8887   7.654   5.180   9.625 -0.3268 -0.9840  0.1313
  790MOL0     C 8888   7.779   5.178   9.564  0.0791  0.5917 -0.0970
  790MOL0     C 8889   7.856   5.296   9.535 -0.3529  0.6105 -0.0678
  790MOL0     O 8890   7.974   5.298   9.472  0.4569  0.4235  0.0162
  790MOL0     C 8891   8.049   5.176   9.457  0.6789  0.4405 -0.4033
  790MOL0     C 8892   8.199   5.186   9.462 -0.3476  0.2998  0.6443
  790MOL0     C 8893   8.279   5.061   9.408 -0.1048  0.1085  0.8042
  790MOL0     C 8894   8.426   5.060   9.434 -0.9745 -0.2188  0.0879
  790MOL0     C 8895   8.481   4.940   9.354  0.6099 -0.2315 -0.5905
  790MOL0     C 8896   8.604   4.875   9.430 -0.5183  0.0372  0.4456
  790MOL0     C 8897   8.724   4.969   9.423  0.1822 -0.4128  0.5242
  790MOL0     C 8898   8.854   4.893   9.465 -0.5826 -1.2168  0.0920
  790MOL0     N 8899   8.897   4.801   9.353 -0.3934  0.6093  0.2099
  790MOL0     C 8900   8.888   4.667   9.366  0.3903 -0.5572  0.6218
  790MOL0     C 8901   8.978   4.621   9.263 -0.3887 -0.2988 -0.7142
  790MOL0     C 8902   9.033   4.484   9.228  0.1069 -0.0943  0.3813
  790MOL0     C 8903   9.182   4.468   9.234 -0.5971  0.0792  0.6149
  790MOL0     C 8904   9.245   4.469   9.092 -0.8610  0.3161  0.1822
  790MOL0     C 8905   9.390   4.411   9.115 -1.1254 -0.2681  0.2121
  790MOL0     O 8906   9.439   4.380   8.980  0.1880 -0.6772  0.1577
  790MOL0     C 8907   9.554   4.311   8.967  0.4841 -0.4186 -0.1479
  790MOL0     C 8908   9.658   4.327   9.051 -1.4977  0.5293  0.8603
  790MOL0     C 8909   9.776   4.249   9.044 -0.0261  0.0765  0.6458
  790MOL0     C 8910   9.879   4.273   9.156 -1.1785  0.2489  0.5600
  790MOL0     C 8911   9.783   4.155   8.937  0.5721  0.0515 -0.2579
  790MOL0     C 8912   9.897   4.061   8.917  0.2824 -0.1913  1.2966
  790MOL0     O 8913   9.875   3.963   8.823  0.0523 -0.6103  0.5416
  790MOL0     C 8914   9.960   3.862   8.802  0.7061  0.9131 -0.5954
  790MOL0     C 8915  10.000   3.783   8.907 -0.6393  0.0339 -0.4662
  790MOL0     C 8916  10.080   3.678   8.880 -0.9456  0.6513  0.0628
  790MOL0     C 8917  10.129   3.652   8.747 -0.3624 -0.7589  0.8020
  790MOL0     O 8918  10.208   3.538   8.754  0.1041 -0.5054  0.1746
  790MOL0     C 8919  10.325   3.541   8.668 -0.3702 -0.3749 -0.6314
  790MOL0     C 8920  10.365   3.392   8.638  0.0088 -0.1160 -0.5969
  790MOL0     C 8921  10.243   3.301   8.619  1.0207 -0.6955 -0.2215
  790MOL0     C 8922  10.286   3.156   8.586 -0.2542  0.7760 -0.8187
  790MOL0     C 8923  10.166   3.060   8.586  0.1506  0.0547  1.5711
  790MOL0     C 8924  10.069   3.082   8.460  0.5098  0.0335  0.1239
  790MOL0     C 8925   9.978   2.963   8.452 -0.0396  0.3984  0.3302
  790MOL0     C 8926   9.841   2.991   8.383 -0.5970 -0.1650  0.6857
  790MOL0    Cl 8927   9.768   2.820   8.378  0.2830 -0.3406  0.6062
  790MOL0     C 8928  10.083   3.727   8.637 -0.0713  0.3766 -0.7378
  790MOL0     C 8929   9.995   3.827   8.665  0.3733 -0.3065 -0.3543
  790MOL0     O 8930  10.003   4.082   8.978 -0.1360  0.0402 -0.6341
  790MOL0     C 8931   9.680   4.149   8.845 -0.1076 -0.0384  0.5144
  790MOL0     C 8932   9.563   4.220   8.867  1.1350 -0.3183 -0.7107
  790MOL0     N 8933   9.038   4.730   9.201 -0.3485 -0.1169 -0.5720
  790MOL0     N 8934   8.994   4.834   9.263 -0.5042 -0.1857 -0.7139
  790MOL0     C 8935   7.798   5.418   9.578  0.0317  0.3196 -0.4790
  790MOL0     C 8936   7.677   5.417   9.647  0.4326 -0.1169 -0.4426
  790MOL0     C 8937   7.411   5.332   9.980 -0.2137 -0.5398  0.3398
  790MOL0     C 8938   7.398   5.449  10.066  0.2192  0.0213 -0.6395
  790MOL0     C 8939   7.298   5.462  10.162  0.1036 -0.1106  0.3915
  790MOL0     C 8940   7.201   5.361  10.166 -0.2554 -0.0669  0.3701
  790MOL0     O 8941   7.099   5.367  10.253  0.0555  0.5231  0.3778
  790MOL0     C 8942   7.022   5.488  10.271 -1.1216 -0.1814  0.3670
  790MOL0     C 8943   7.053   5.558  10.402 -0.7133 -0.2176 -0.4714
  790MOL0     C 8944   7.057   5.473  10.526 -0.1567 -0.1273 -0.7204
  790MOL0     C 8945   6.920   5.473  10.600 -0.8528 -0.2454 -0.2712
  790MOL0     C 8946   6.937   5.409  10.732  0.6749  0.1129  0.4403
  790MOL0     C 8947   6.962   5.328  10.908  0.5653  0.0256 -1.7546
  790MOL0     C 8948   7.214   5.238  10.089  0.3439  0.1088  0.8716
  790MOL0     C 8949   7.323   5.220   9.996  0.8827 -0.1150  0.4760
  790MOL0     C 8950   7.331   5.089   9.923 -0.2673  0.0979 -0.4516
  790MOL0     H 8951   7.607   5.090   9.663  0.2539 -0.7387  1.5109
  790MOL0     H 8952   7.816   5.077   9.547  0.4617  0.8983 -1.1507
  790MOL0     H 8953   8.027   5.118   9.366  0.9773 -0.3995  0.0481
  790MOL0     H 8954   8.027   5.112   9.543 -3.2830  2.3629  0.2456
  790MOL0     H 8955   8.224   5.275   9.403  2.3048 -1.4570 -1.0745
  790MOL0     H 8956   8.233   5.218   9.561 -1.3172  1.8171  0.5327
  790MOL0     H 8957   8.230   4.976   9.454  1.1423 -1.9261 -1.3985
  790MOL0     H 8958   8.262   5.061   9.300  0.4710 -2.7568  0.6504
  790MOL0     H 8959   8.466   5.157   9.403  3.7918 -1.5045  1.3555
  790MOL0     H 8960   8.446   5.048   9.541  3.3295  0.2498 -0.4798
  790MOL0     H 8961   8.504   4.966   9.250 -2.5807  0.6736 -1.2011
  790MOL0     H 8962   8.412   4.856   9.342 -0.0972 -0.2167  2.5818
  790MOL0     H 8963   8.584   4.853   9.535 -0.0196  2.0426  1.0119
  790MOL0     H 8964   8.633   4.785   9.376 -0.1838 -1.1920  2.5843
  790MOL0     H 8965   8.703   5.056   9.486 -1.4698  0.1250 -0.6962
  790MOL0     H 8966   8.720   5.017   9.325 -1.1304  2.6402  1.9591
  790MOL0     H 8967   8.935   4.962   9.489 -0.9998  0.6251 -3.2773
  790MOL0     H 8968   8.851   4.844   9.563  2.7312  1.1605  1.5716
  790MOL0     H 8969   8.832   4.603   9.434  0.8177 -0.9376  0.6197
  790MOL0     H 8970   9.002   4.450   9.129  0.1393 -0.7727  0.5987
  790MOL0     H 8971   8.984   4.416   9.299  0.7002 -1.2848 -0.3205
  790MOL0     H 8972   9.233   4.552   9.282 -0.9593  0.5866  0.1248
  790MOL0     H 8973   9.204   4.372   9.282  0.2800 -1.0063 -1.7640
  790MOL0     H 8974   9.188   4.408   9.020 -0.6864 -0.6805  0.8645
  790MOL0     H 8975   9.250   4.571   9.053 -0.3302 -0.9766 -3.4632
  790MOL0     H 8976   9.461   4.467   9.177  1.2380 -2.4910 -0.2901
  790MOL0     H 8977   9.382   4.317   9.171  0.7950  0.0656  1.1440
  790MOL0     H 8978   9.643   4.394   9.135 -1.1491 -3.2272  4.1791
  790MOL0     H 8979   9.913   4.179   9.202  1.7333  2.3800  3.2227
  790MOL0     H 8980   9.843   4.338   9.236 -1.0055 -0.8770  1.6012
  790MOL0     H 8981   9.976   4.309   9.120  0.0544 -3.3962 -0.2007
  790MOL0     H 8982   9.971   3.806   9.009 -1.5354 -0.0845 -0.6848
  790MOL0     H 8983  10.126   3.620   8.959 -1.1438 -0.6621 -0.7561
  790MOL0     H 8984  10.300   3.583   8.570 -1.6882 -0.3497 -0.2905
  790MOL0     H 8985  10.406   3.597   8.716 -0.1339 -2.0642  1.0828
  790MOL0     H 8986  10.431   3.383   8.551 -0.1966 -1.1431 -0.6577
  790MOL0     H 8987  10.416   3.354   8.728 -0.8195  0.9174  0.3285
  790MOL0     H 8988  10.189   3.342   8.533  2.3049  0.5824 -0.4608
  790MOL0     H 8989  10.183   3.312   8.710  1.7131 -0.7764  0.2547
  790MOL0     H 8990  10.344   3.114   8.669 -2.8264  0.2534  0.8191
  790MOL0     H 8991  10.350   3.151   8.497  2.1620 -3.2537  0.8470
  790MOL0     H 8992  10.208   2.961   8.563 -4.9321 -1.7125 -1.7900
  790MOL0     H 8993  10.100   3.059   8.673  0.3968  1.4810  1.7900
  790MOL0     H 8994  10.109   3.092   8.358 -0.3848  0.1914 -0.2207
  790MOL0     H 8995  10.006   3.169   8.481 -0.5189 -0.8810  0.9112
  790MOL0     H 8996   9.957   2.917   8.549 -1.0173 -3.6046 -1.5933
  790MOL0     H 8997  10.040   2.885   8.407  1.3976  1.8826 -0.3863
  790MOL0     H 8998   9.842   3.027   8.279  1.7925 -0.2238  0.6333
  790MOL0     H 8999   9.779   3.067   8.430 -0.3855  0.9153 -0.7173
  790MOL0     H 9000  10.101   3.695   8.535 -1.2099  0.8818 -1.1133
  790MOL0     H 9001   9.952   3.887   8.585 -1.0542  0.6835  1.1158
  790MOL0     H 9002   9.685   4.094   8.752  2.0142 -1.2774  1.2927
  790MOL0     H 9003   9.481   4.195   8.800  0.0662 -1.8249  1.0680
  790MOL0     H 9004   7.855   5.510   9.570 -0.2155  0.5492  0.3174
  790MOL0     H 9005   7.645   5.509   9.696 -0.8796 -0.9135  0.2344
  790MOL0     H 9006   7.459   5.539  10.065 -1.4296  1.2688  1.2930
  790MOL0     H 9007   7.286   5.556  10.214 -1.5238 -0.2452  0.3375
  790MOL0     H 9008   7.030   5.560  10.188  2.1642  0.8960  1.4418
  790MOL0     H 9009   6.919   5.453  10.270 -0.9242 -0.8137 -0.9918
  790MOL0     H 9010   6.977   5.636  10.414  0.7707  1.0899  0.8633
  790MOL0     H 9011   7.153   5.600  10.391 -0.9279  0.8740  1.4114
  790MOL0     H 9012   7.071   5.369  10.496 -0.2132 -0.8938  1.7174
  790MOL0     H 9013   7.142   5.508  10.585 -0.4414  0.8798 -0.8923
  790MOL0     H 9014   6.848   5.410  10.548 -1.5376 -0.1651  0.5515
  790MOL0     H 9015   6.883   5.575  10.615  2.5278  1.3772 -1.8330
  790MOL0     H 9016   6.979   5.303  11.011  1.1736  3.3220 -0.9433
  790MOL0     H 9017   7.151   5.154  10.115  1.0176 -1.0131 -0.9335
  790MOL0     H 9018   7.257   5.098   9.843 -0.6906  0.7916  0.0048
  790MOL0     H 9019   7.436   5.074   9.894  0.4839 -0.5252  2.2966
  790MOL0     H 9020   7.302   5.008   9.990 -1.5354 -0.4364 -1.6069
  791MOL0     O 9021   5.858   2.201   5.009  0.4212  0.8908  0.3665
  791MOL0     C 9022   5.926   2.099   5.028 -0.1091  0.3427  0.2321
  791MOL0     O 9023   5.912   1.984   4.954 -0.9756 -0.5257 -0.0346
  791MOL0     C 9024   5.844   2.008   4.839 -0.3033  0.0037 -0.6809
  791MOL0     C 9025   5.720   1.946   4.832  0.4210 -0.8768  0.4155
  791MOL0     C 9026   5.650   1.971   4.714 -0.6212  0.9717  0.3507
  791MOL0     C 9027   5.705   2.040   4.603 -0.0457  0.4727 -0.4080
  791MOL0     O 9028   5.641   2.058   4.480  0.4395 -0.3283  0.3266
  791MOL0     C 9029   5.510   2.004   4.471  0.1133 -0.1546 -0.4116
  791MOL0     C 9030   5.461   2.038   4.327 -0.3786 -0.0999  0.0285
  791MOL0     C 9031   5.324   2.005   4.300 -0.4766  0.4245 -0.9342
  791MOL0     C 9032   5.318   1.850   4.274  0.5253 -0.1004 -0.5814
  791MOL0     C 9033   5.184   1.792   4.319  0.3221  0.8182  0.2717
  791MOL0     C 9034   5.182   1.644   4.264  1.3148  0.2275 -0.5847
  791MOL0     C 9035   5.073   1.576   4.345 -0.1962 -0.2527  0.0213
  791MOL0     C 9036   5.071   1.431   4.313  0.2743  0.4566  0.5999
  791MOL0     N 9037   5.207   1.353   4.324  0.3734  0.1783  1.3444
  791MOL0     C 9038   5.226   1.279   4.435  0.1746  0.1197 -0.5810
  791MOL0     C 9039   5.312   1.180   4.403  0.0098 -0.1891 -0.2669
  791MOL0     C 9040   5.387   1.085   4.502  0.4400 -0.4767 -0.3066
  791MOL0     C 9041   5.535   1.079   4.471 -0.3289 -0.0293 -0.5495
  791MOL0     C 9042   5.599   1.225   4.498 -0.7463  1.3091 -0.5215
  791MOL0     C 9043   5.585   1.288   4.640 -0.4953 -0.1328 -0.5989
  791MOL0     O 9044   5.468   1.368   4.656 -0.2492  0.0602 -0.3193
  791MOL0     C 9045   5.456   1.460   4.757 -0.2157  1.3130 -1.4764
  791MOL0     C 9046   5.540   1.471   4.867 -0.5994 -0.2441 -0.1344
  791MOL0     C 9047   5.530   1.570   4.967 -0.4280 -0.4604  0.4195
  791MOL0     C 9048   5.625   1.564   5.077  0.3895  0.1312 -0.4408
  791MOL0     C 9049   5.437   1.677   4.955 -0.6853 -0.7217 -0.5005
  791MOL0     C 9050   5.439   1.804   5.036 -0.4903  0.6516  0.4967
  791MOL0     O 9051   5.464   1.797   5.170  0.1546 -0.1241 -0.0942
  791MOL0     C 9052   5.498   1.906   5.240  0.0327 -0.6859 -0.3253
  791MOL0     C 9053   5.619   1.988   5.225  0.2654 -0.5327  0.5695
  791MOL0     C 9054   5.646   2.094   5.321  0.2422  0.3613 -0.6809
  791MOL0     C 9055   5.563   2.107   5.434 -0.2713 -0.4113 -0.0332
  791MOL0     O 9056   5.580   2.203   5.529 -0.1115 -0.4914  0.1802
  791MOL0     C 9057   5.713   2.263   5.537  0.5276 -0.9895  0.5196
  791MOL0     C 9058   5.713   2.313   5.680  0.7338 -0.1142 -0.4966
  791MOL0     C 9059   5.610   2.429   5.684  0.0378  0.3849 -0.7515
  791MOL0     C 9060   5.626   2.509   5.815  0.5024  0.1451 -0.6007
  791MOL0     C 9061   5.651   2.417   5.942 -0.2477 -0.7396  0.6171
  791MOL0     C 9062   5.630   2.480   6.075  0.2492  0.6269  0.1014
  791MOL0     C 9063   5.712   2.606   6.094  0.0913 -0.4954 -0.7039
  791MOL0     C 9064   5.677   2.662   6.230  0.8858 -0.1004  0.0643
  791MOL0    Cl 9065   5.734   2.837   6.240  0.7290  0.4317  0.2250
  791MOL0     C 9066   5.453   2.019   5.448  0.7649 -0.5531  0.4202
  791MOL0     C 9067   5.411   1.927   5.350  0.1268  0.5048  0.5398
  791MOL0     O 9068   5.446   1.909   4.981 -0.4069 -0.2672 -0.1963
  791MOL0     C 9069   5.347   1.672   4.843 -0.5767  0.1883  0.0982
  791MOL0     C 9070   5.354   1.559   4.752 -0.8504  0.0876  0.3866
  791MOL0     N 9071   5.351   1.205   4.272 -0.2824  0.7925 -0.6207
  791MOL0     N 9072   5.292   1.311   4.230  0.3016 -0.7236 -0.0491
  791MOL0     C 9073   5.834   2.088   4.614  0.3788  0.8216 -0.4219
  791MOL0     C 9074   5.899   2.080   4.734  0.2883  0.4650  0.6333
  791MOL0     C 9075   6.019   2.103   5.139 -0.2375 -0.1776  1.8133
  791MOL0     C 9076   6.008   2.200   5.244  0.7203  0.5092  0.4750
  791MOL0     C 9077   6.079   2.185   5.367 -0.0119  0.7817  1.1614
  791MOL0     C 9078   6.164   2.072   5.381  0.3400 -0.5352 -0.0579
  791MOL0     O 9079   6.207   2.055   5.507 -0.1179  0.4502 -0.1696
  791MOL0     C 9080   6.177   1.927   5.558 -0.5372 -0.2855 -0.6058
  791MOL0     C 9081   6.308   1.841   5.556  0.4442 -0.6425 -0.8419
  791MOL0     C 9082   6.282   1.705   5.607 -0.2264  0.5000  0.6175
  791MOL0     C 9083   6.197   1.698   5.736 -0.6132 -0.8115 -0.2618
  791MOL0     C 9084   6.216   1.573   5.798 -0.2950  0.3841  0.3934
  791MOL0     C 9085   6.237   1.468   5.858  0.0262 -0.1334 -0.3382
  791MOL0     C 9086   6.189   1.994   5.273 -0.5379 -0.0519  0.1190
  791MOL0     C 9087   6.122   1.997   5.154  0.1012 -0.9554  0.5491
  791MOL0     C 9088   6.165   1.901   5.038 -0.6777 -0.4778 -0.3023
  791MOL0     H 9089   5.685   1.881   4.911 -0.9326  0.5450  1.0385
  791MOL0     H 9090   5.559   1.912   4.720 -0.5678  1.0097  1.9803
  791MOL0     H 9091   5.438   2.046   4.542 -0.6590  2.8088 -2.7407
  791MOL0     H 9092   5.520   1.895   4.465 -1.8892 -0.5022  1.2783
  791MOL0     H 9093   5.464   2.147   4.333  3.5405 -0.0623  0.5732
  791MOL0     H 9094   5.534   2.005   4.252 -0.9568 -1.4927  0.0439
  791MOL0     H 9095   5.261   2.042   4.381  1.7426 -0.3746  1.3021
  791MOL0     H 9096   5.289   2.048   4.205  1.0603  0.3296 -1.5777
  791MOL0     H 9097   5.343   1.838   4.168 -0.3746 -0.2088 -0.7913
  791MOL0     H 9098   5.396   1.796   4.330 -0.3715  0.8686  1.6982
  791MOL0     H 9099   5.098   1.849   4.282  0.8283  0.1553 -2.1099
  791MOL0     H 9100   5.181   1.788   4.428  0.7601 -1.5974  0.2659
  791MOL0     H 9101   5.149   1.644   4.160 -0.7604  0.9863  0.0172
  791MOL0     H 9102   5.282   1.600   4.261  0.6284 -1.3327 -1.0805
  791MOL0     H 9103   4.979   1.627   4.321 -1.2004 -1.0397  2.1045
  791MOL0     H 9104   5.096   1.581   4.452 -1.6531 -4.0957  0.6415
  791MOL0     H 9105   5.003   1.378   4.380 -5.1782  3.4473 -1.8790
  791MOL0     H 9106   5.026   1.417   4.214 -2.7318 -1.4440  2.1038
  791MOL0     H 9107   5.208   1.295   4.541  1.8070 -0.3165 -0.2176
  791MOL0     H 9108   5.344   0.986   4.483  4.3145 -2.0730 -1.6161
  791MOL0     H 9109   5.367   1.106   4.607  1.9496  1.5832 -0.3839
  791MOL0     H 9110   5.587   1.006   4.533  0.1500  2.7155  2.5817
  791MOL0     H 9111   5.552   1.054   4.366  1.5892  0.7705 -0.4929
  791MOL0     H 9112   5.706   1.212   4.475 -1.2532 -3.0730 -1.3174
  791MOL0     H 9113   5.572   1.301   4.425 -0.5974  1.3095 -0.5772
  791MOL0     H 9114   5.592   1.208   4.715 -2.1552  0.5286  0.3084
  791MOL0     H 9115   5.663   1.363   4.652  0.1068 -0.6992 -0.9220
  791MOL0     H 9116   5.618   1.395   4.862 -0.1189  0.2980 -1.3053
  791MOL0     H 9117   5.578   1.517   5.164 -2.8668  1.8303 -1.1118
  791MOL0     H 9118   5.675   1.658   5.102 -0.4913 -0.2476  3.2750
  791MOL0     H 9119   5.700   1.491   5.047 -0.3077 -0.2893 -1.1913
  791MOL0     H 9120   5.676   1.991   5.133  0.7905  1.7622  0.9237
  791MOL0     H 9121   5.734   2.153   5.297  2.0289 -2.0407 -0.5204
  791MOL0     H 9122   5.796   2.196   5.512  1.6897  0.5934 -0.0537
  791MOL0     H 9123   5.709   2.340   5.459  0.7757 -2.0761 -0.5810
  791MOL0     H 9124   5.683   2.236   5.751 -2.0602  2.0901  0.9334
  791MOL0     H 9125   5.814   2.347   5.705 -0.2438  0.9044  2.5700
  791MOL0     H 9126   5.509   2.390   5.694 -0.1203  0.7041 -1.0810
  791MOL0     H 9127   5.615   2.495   5.596 -2.2449 -1.3268 -2.2865
  791MOL0     H 9128   5.536   2.570   5.831 -0.0010 -1.2096  2.4545
  791MOL0     H 9129   5.709   2.579   5.816  1.6348 -1.1060  1.9020
  791MOL0     H 9130   5.572   2.342   5.942 -4.0937  2.8943 -0.6486
  791MOL0     H 9131   5.744   2.364   5.920 -0.8583 -0.2041 -4.7033
  791MOL0     H 9132   5.654   2.408   6.154  2.5819 -2.8145 -3.3780
  791MOL0     H 9133   5.524   2.508   6.077  0.2548  1.0816  4.4930
  791MOL0     H 9134   5.689   2.677   6.014  5.0608  0.4729 -1.5948
  791MOL0     H 9135   5.819   2.583   6.100  0.3264  0.5722 -0.6294
  791MOL0     H 9136   5.725   2.612   6.315 -1.4537  2.3770  3.0545
  791MOL0     H 9137   5.570   2.641   6.239  1.1660 -2.2645 -0.8969
  791MOL0     H 9138   5.377   2.039   5.523  0.4678  2.1224 -0.4799
  791MOL0     H 9139   5.320   1.867   5.352  1.0989 -1.0460 -0.1917
  791MOL0     H 9140   5.274   1.750   4.826  0.6956  1.6179  1.0106
  791MOL0     H 9141   5.276   1.563   4.677 -0.1110 -0.0908 -0.4014
  791MOL0     H 9142   5.874   2.126   4.520  0.2136 -0.5597 -1.0741
  791MOL0     H 9143   6.003   2.111   4.745  0.3880  0.7381 -0.8666
  791MOL0     H 9144   5.943   2.286   5.253 -1.9111 -1.3117  0.2474
  791MOL0     H 9145   6.080   2.256   5.449 -1.3533  0.0565  1.8482
  791MOL0     H 9146   6.148   1.948   5.661  2.2628  3.0024 -0.3031
  791MOL0     H 9147   6.092   1.876   5.513 -2.4897  0.2461  2.2076
  791MOL0     H 9148   6.385   1.880   5.623 -1.0014  1.3014 -0.2218
  791MOL0     H 9149   6.359   1.837   5.459  1.4777 -1.2508 -0.2897
  791MOL0     H 9150   6.224   1.648   5.534 -0.3798 -0.7185  1.6518
  791MOL0     H 9151   6.384   1.673   5.627  0.0843  1.6398  0.9595
  791MOL0     H 9152   6.095   1.718   5.700  0.2480  1.2029 -1.8233
  791MOL0     H 9153   6.228   1.783   5.797  1.7733 -2.1009  0.4330
  791MOL0     H 9154   6.254   1.387   5.926  0.5892  1.4438  1.4662
  791MOL0     H 9155   6.246   1.904   5.293 -1.5710 -0.6277  0.5576
  791MOL0     H 9156   6.195   1.956   4.948  1.9239 -0.3016  0.5857
  791MOL0     H 9157   6.256   1.848   5.069  0.1271  0.2907 -1.2905
  791MOL0     H 9158   6.090   1.824   5.018 -1.1319  0.0153 -0.4992
  792MOL0     O 9159   5.713   6.172   1.837 -0.2551  0.3982 -0.0930
  792MOL0     C 9160   5.688   6.163   1.722  0.3199 -1.5066  0.7874
  792MOL0     O 9161   5.730   6.065   1.642  0.5229  0.7558  0.2591
  792MOL0     C 9162   5.818   5.969   1.690  0.3165 -0.6649 -0.2870
  792MOL0     C 9163   5.935   5.940   1.615  0.0167 -0.1508 -0.6091
  792MOL0     C 9164   6.006   5.824   1.654 -0.7030 -0.6028 -0.5372
  792MOL0     C 9165   5.983   5.757   1.780  0.2122 -0.0230  0.5737
  792MOL0     O 9166   6.062   5.651   1.811  0.0007 -0.1934  0.2234
  792MOL0     C 9167   6.002   5.525   1.854 -0.0641 -0.1575  0.4709
  792MOL0     C 9168   6.114   5.419   1.869  0.1429  0.4125  0.0597
  792MOL0     C 9169   6.196   5.384   1.739  0.0377 -0.6055  0.1386
  792MOL0     C 9170   6.273   5.255   1.738 -0.1720 -0.2537 -0.7284
  792MOL0     C 9171   6.335   5.225   1.600  0.0370 -0.2055 -0.2354
  792MOL0     C 9172   6.221   5.158   1.505 -0.3699  0.0348  0.8738
  792MOL0     C 9173   6.263   5.162   1.352 -0.9952 -0.4666  0.0263
  792MOL0     C 9174   6.165   5.096   1.251 -0.7452 -0.3225 -0.2305
  792MOL0     N 9175   6.227   5.071   1.118 -0.5536  0.2697 -0.0083
  792MOL0     C 9176   6.236   5.171   1.022 -0.0579 -0.5122 -0.4453
  792MOL0     C 9177   6.290   5.118   0.913  0.2704 -0.3461  0.3001
  792MOL0     C 9178   6.314   5.193   0.785 -0.3191  0.3478 -0.7029
  792MOL0     C 9179   6.453   5.165   0.718 -0.3354 -0.3869  0.5849
  792MOL0     C 9180   6.557   5.221   0.809  0.0496 -1.3200 -0.4560
  792MOL0     C 9181   6.683   5.274   0.736 -1.0509 -0.0426  0.0911
  792MOL0     O 9182   6.644   5.389   0.652  0.3547 -0.3508 -0.0701
  792MOL0     C 9183   6.686   5.508   0.699  0.5273 -0.5419  0.2016
  792MOL0     C 9184   6.707   5.549   0.834  0.1917 -0.6625 -0.1827
  792MOL0     C 9185   6.762   5.681   0.858  0.3457 -0.0321  1.0492
  792MOL0     C 9186   6.765   5.742   0.992 -0.1767 -0.7194 -0.7411
  792MOL0     C 9187   6.815   5.761   0.750  0.2131  0.4197 -0.0018
  792MOL0     C 9188   6.875   5.898   0.749  0.0226  0.5697 -0.1078
  792MOL0     O 9189   6.851   5.988   0.648  0.6787  0.0339 -1.0069
  792MOL0     C 9190   6.939   6.100   0.626  0.0869  1.0607  0.2173
  792MOL0     C 9191   7.079   6.087   0.626  0.2188  0.1721 -1.4751
  792MOL0     C 9192   7.162   6.190   0.610 -0.2346  0.8782  0.0333
  792MOL0     C 9193   7.107   6.319   0.596 -0.1541  0.5312  1.0346
  792MOL0     O 9194   7.205   6.412   0.582 -0.3887 -0.3991 -0.3105
  792MOL0     C 9195   7.180   6.545   0.536 -0.3048 -0.9685 -0.1469
  792MOL0     C 9196   7.132   6.567   0.394  0.1537  0.0589 -0.2963
  792MOL0     C 9197   7.207   6.499   0.287  0.8368  0.8488 -0.3450
  792MOL0     C 9198   7.123   6.465   0.162 -0.2667  0.4472 -0.8054
  792MOL0     C 9199   7.195   6.379   0.061 -0.1711 -0.2901 -0.0348
  792MOL0     C 9200   7.326   6.445   0.005  0.2674 -0.4094  0.3904
  792MOL0     C 9201   7.371   6.409  -0.144  0.6827  0.4446  0.6584
  792MOL0     C 9202   7.392   6.267  -0.167 -0.1013  1.2935  0.7573
  792MOL0    Cl 9203   7.431   6.235  -0.346  0.0198 -0.5405  0.3078
  792MOL0     C 9204   6.967   6.340   0.589 -0.7549  0.2696 -0.1437
  792MOL0     C 9205   6.890   6.228   0.614 -0.9224  0.2421  0.3412
  792MOL0     O 9206   6.961   5.911   0.834  0.3197 -0.0410  0.5869
  792MOL0     C 9207   6.797   5.708   0.623  0.1230 -0.8433 -0.8296
  792MOL0     C 9208   6.725   5.592   0.598  0.7684 -0.4202  0.0039
  792MOL0     N 9209   6.297   4.982   0.935  0.5408  0.7141  0.0506
  792MOL0     N 9210   6.245   4.959   1.054  0.0409 -0.1204 -0.6032
  792MOL0     C 9211   5.874   5.797   1.857 -0.6331  0.5536 -0.0583
  792MOL0     C 9212   5.791   5.898   1.815  0.1664 -0.2866 -0.0019
  792MOL0     C 9213   5.585   6.253   1.662 -0.2199 -0.0309  0.9811
  792MOL0     C 9214   5.585   6.388   1.709 -0.4267  0.1963 -0.3700
  792MOL0     C 9215   5.487   6.481   1.668  0.2834 -0.3664  0.0957
  792MOL0     C 9216   5.387   6.436   1.570 -0.5803  0.0511  0.1562
  792MOL0     O 9217   5.292   6.522   1.511  0.8953  0.5160 -1.3372
  792MOL0     C 9218   5.168   6.460   1.464  0.9943  0.7752 -0.4363
  792MOL0     C 9219   5.051   6.556   1.475  0.0403 -0.0795  0.4351
  792MOL0     C 9220   5.066   6.674   1.383  0.1111  0.1134  0.7948
  792MOL0     C 9221   4.940   6.733   1.331 -0.0661  1.0034  0.3294
  792MOL0     C 9222   4.968   6.834   1.230 -0.8433 -0.0451 -0.3517
  792MOL0     C 9223   4.980   6.905   1.130 -0.3094 -0.2271  0.3194
  792MOL0     C 9224   5.387   6.301   1.536 -0.2227  1.6566  0.0589
  792MOL0     C 9225   5.486   6.208   1.574  0.5231 -0.9914  0.3569
  792MOL0     C 9226   5.477   6.063   1.524 -0.5997  0.7827  0.9244
  792MOL0     H 9227   5.969   5.999   1.530 -0.4580  0.4574 -0.3821
  792MOL0     H 9228   6.095   5.806   1.596 -0.5389 -2.2262  0.1768
  792MOL0     H 9229   5.932   5.498   1.775  1.0439  1.3323 -1.0896
  792MOL0     H 9230   5.940   5.539   1.943 -5.0849  1.4208 -2.8948
  792MOL0     H 9231   6.188   5.450   1.944 -1.3955  0.2026  1.7474
  792MOL0     H 9232   6.063   5.327   1.901 -2.3217  1.5723 -0.3734
  792MOL0     H 9233   6.122   5.375   1.660  1.0243  2.8418 -1.3718
  792MOL0     H 9234   6.265   5.467   1.716  1.1802 -1.4403  0.4694
  792MOL0     H 9235   6.355   5.261   1.810  0.3131  0.7521 -1.3369
  792MOL0     H 9236   6.206   5.181   1.782 -0.5307  1.3483  1.5851
  792MOL0     H 9237   6.414   5.151   1.617 -2.2122 -3.2335 -2.0451
  792MOL0     H 9238   6.393   5.311   1.564 -0.3893  0.4939  0.6899
  792MOL0     H 9239   6.200   5.056   1.537 -2.8830  0.5031  0.9114
  792MOL0     H 9240   6.124   5.207   1.522 -0.7908 -1.1011  1.8830
  792MOL0     H 9241   6.361   5.118   1.330 -0.9680 -0.0681 -0.6755
  792MOL0     H 9242   6.274   5.263   1.313 -0.5226 -0.7856 -0.6811
  792MOL0     H 9243   6.133   5.006   1.304 -3.5734  1.6323  1.7210
  792MOL0     H 9244   6.072   5.153   1.240 -0.5376  0.1541  0.4045
  792MOL0     H 9245   6.198   5.271   1.040 -3.2120 -0.9616 -3.4895
  792MOL0     H 9246   6.284   5.297   0.796  1.0939  0.9821 -2.3562
  792MOL0     H 9247   6.246   5.152   0.709  0.1860 -3.7818  0.8311
  792MOL0     H 9248   6.472   5.058   0.707 -0.3944 -0.2886 -0.5567
  792MOL0     H 9249   6.461   5.206   0.617  0.5835 -3.7421 -0.8440
  792MOL0     H 9250   6.520   5.300   0.874  2.5419 -1.9521  1.9188
  792MOL0     H 9251   6.595   5.137   0.868 -0.7971 -0.3121  1.6298
  792MOL0     H 9252   6.767   5.301   0.800 -0.6789  0.6691 -0.6811
  792MOL0     H 9253   6.730   5.191   0.682 -1.2957 -0.7237  0.9090
  792MOL0     H 9254   6.690   5.494   0.925  2.3592  1.5147  1.6874
  792MOL0     H 9255   6.736   5.670   1.069  1.1045  1.3552  1.8131
  792MOL0     H 9256   6.699   5.829   0.996  2.7149  1.8232 -3.3963
  792MOL0     H 9257   6.861   5.783   1.023 -0.6778  1.1227 -1.5166
  792MOL0     H 9258   7.117   5.986   0.627 -1.4058 -0.4671 -1.0824
  792MOL0     H 9259   7.267   6.162   0.620 -1.2556 -2.7987  2.1320
  792MOL0     H 9260   7.122   6.607   0.605  0.7335 -0.9356  0.7224
  792MOL0     H 9261   7.283   6.580   0.530 -0.3299 -0.8043  0.3997
  792MOL0     H 9262   7.027   6.544   0.373  0.4876  0.9807 -3.6319
  792MOL0     H 9263   7.128   6.676   0.384  0.3568  0.2926  1.6910
  792MOL0     H 9264   7.253   6.411   0.334  0.5520 -0.9660 -3.2743
  792MOL0     H 9265   7.283   6.571   0.253  2.0633  0.6019  1.6899
  792MOL0     H 9266   7.075   6.556   0.125 -3.9894 -0.9205  0.1727
  792MOL0     H 9267   7.046   6.399   0.204  0.7106 -0.2584 -0.0796
  792MOL0     H 9268   7.221   6.291   0.121  1.7115  2.5355  3.6851
  792MOL0     H 9269   7.131   6.357  -0.025 -0.2116  2.8335 -0.9201
  792MOL0     H 9270   7.416   6.442   0.067  0.7590  0.5237 -0.2547
  792MOL0     H 9271   7.313   6.553  -0.007 -0.3532 -0.4423  0.7746
  792MOL0     H 9272   7.448   6.477  -0.181 -0.1693 -1.0237 -4.6543
  792MOL0     H 9273   7.285   6.430  -0.208  0.0239  0.2458  1.4681
  792MOL0     H 9274   7.315   6.195  -0.137  1.3483 -0.3827  0.6543
  792MOL0     H 9275   7.481   6.232  -0.115 -0.1156 -0.4864 -0.3238
  792MOL0     H 9276   6.924   6.437   0.568 -2.2667 -0.6172 -1.3366
  792MOL0     H 9277   6.782   6.238   0.624 -1.3638 -2.4853 -0.9336
  792MOL0     H 9278   6.838   5.766   0.541  0.1943  0.1369 -0.1293
  792MOL0     H 9279   6.706   5.558   0.497 -1.5639  0.1519  0.2027
  792MOL0     H 9280   5.860   5.735   1.945 -1.8629 -0.8698 -1.2129
  792MOL0     H 9281   5.712   5.933   1.880 -0.7581  0.3724 -1.4376
  792MOL0     H 9282   5.665   6.421   1.775 -0.5423  1.2533 -0.7341
  792MOL0     H 9283   5.473   6.581   1.708  2.9545  1.7050 -3.5373
  792MOL0     H 9284   5.165   6.436   1.357 -1.5494  0.4602 -0.3671
  792MOL0     H 9285   5.141   6.365   1.511  0.1406  0.6461 -1.1495
  792MOL0     H 9286   5.047   6.598   1.576  1.3497  1.4794 -0.1255
  792MOL0     H 9287   4.961   6.501   1.446  0.0410 -0.8463  1.8156
  792MOL0     H 9288   5.111   6.760   1.433  1.4862  0.7147 -1.3552
  792MOL0     H 9289   5.134   6.652   1.300  0.6204  1.9565  0.6952
  792MOL0     H 9290   4.875   6.780   1.405 -0.9703  0.3104 -0.0061
  792MOL0     H 9291   4.886   6.647   1.290  3.9059 -1.8098  0.3172
  792MOL0     H 9292   4.979   6.974   1.048  1.1778 -2.8902 -2.1794
  792MOL0     H 9293   5.319   6.256   1.465  1.2422  1.4641 -1.2537
  792MOL0     H 9294   5.452   6.002   1.610 -0.6606  0.5137  0.7164
  792MOL0     H 9295   5.407   6.055   1.440  1.8778 -0.7369 -1.1744
  792MOL0     H 9296   5.571   6.030   1.477 -0.1968  0.0425  2.2084
  793MOL0     O 9297   4.537   5.220   1.678  0.4497 -0.1706 -0.2420
  793MOL0     C 9298   4.505   5.098   1.673  0.7813 -0.3514  0.6660
  793MOL0     O 9299   4.442   5.042   1.562 -0.6026 -0.4497 -0.5462
  793MOL0     C 9300   4.434   5.095   1.435 -1.8875  0.3833  0.1310
  793MOL0     C 9301   4.394   5.227   1.409 -0.8715 -0.5407  0.3425
  793MOL0     C 9302   4.394   5.287   1.279  0.0324  0.5740  0.0457
  793MOL0     C 9303   4.440   5.217   1.169 -0.5694  0.2056  1.2252
  793MOL0     O 9304   4.462   5.263   1.039 -0.8562 -0.1463  0.2953
  793MOL0     C 9305   4.517   5.390   1.022  0.1470  0.1086 -0.1511
  793MOL0     C 9306   4.527   5.433   0.869 -0.2508 -0.6568 -0.8839
  793MOL0     C 9307   4.399   5.400   0.785  0.0605 -0.4756  0.0190
  793MOL0     C 9308   4.429   5.419   0.636  0.1516 -0.6955 -0.8624
  793MOL0     C 9309   4.480   5.553   0.597  0.3930 -1.0469  0.2016
  793MOL0     C 9310   4.374   5.663   0.617  0.4973  0.2856 -0.1736
  793MOL0     C 9311   4.428   5.802   0.579 -0.0019 -0.3942  0.3324
  793MOL0     C 9312   4.374   5.922   0.659  0.7996 -0.2653 -0.1930
  793MOL0     N 9313   4.428   5.927   0.798  0.0296 -0.3815  0.5404
  793MOL0     C 9314   4.358   5.980   0.911  0.5261  0.0294  0.5649
  793MOL0     C 9315   4.438   5.934   1.011  0.2095  0.4368  0.1247
  793MOL0     C 9316   4.410   5.941   1.157 -0.1926  0.1058 -1.2845
  793MOL0     C 9317   4.276   5.874   1.191  0.0868 -0.6603 -0.5437
  793MOL0     C 9318   4.289   5.722   1.170 -0.1898 -0.4177  0.6254
  793MOL0     C 9319   4.153   5.659   1.202 -0.3382  0.4234  0.2004
  793MOL0     O 9320   4.168   5.515   1.199  0.0471 -0.2821  0.6858
  793MOL0     C 9321   4.058   5.437   1.199  0.1710 -0.4529  0.2900
  793MOL0     C 9322   3.928   5.478   1.231 -0.3662 -0.7421 -0.0981
  793MOL0     C 9323   3.818   5.396   1.220  0.6275 -0.4215 -0.2684
  793MOL0     C 9324   3.695   5.472   1.254 -0.1945  0.1009  0.3798
  793MOL0     C 9325   3.829   5.266   1.168  0.3791  0.3143 -0.8238
  793MOL0     C 9326   3.723   5.169   1.155  0.2614  0.1154 -0.7223
  793MOL0     O 9327   3.724   5.065   1.060 -0.1025 -0.2445  0.5350
  793MOL0     C 9328   3.621   4.970   1.062  0.1989  0.4176 -0.0495
  793MOL0     C 9329   3.489   5.010   1.086  0.2355  0.2942  0.0499
  793MOL0     C 9330   3.373   4.927   1.068 -1.1471 -0.1750 -0.7190
  793MOL0     C 9331   3.395   4.793   1.039 -0.3516 -0.5680 -0.4860
  793MOL0     O 9332   3.297   4.697   1.021  0.2433 -0.1879  1.1906
  793MOL0     C 9333   3.176   4.731   0.944  0.3060  0.2852  0.3099
  793MOL0     C 9334   3.173   4.621   0.832 -0.0549  0.0219  0.3271
  793MOL0     C 9335   3.044   4.632   0.743 -0.5827 -0.0978  0.0267
  793MOL0     C 9336   2.928   4.533   0.783  0.2435  0.2384 -0.2396
  793MOL0     C 9337   2.832   4.505   0.667  0.0500  0.1861 -0.0995
  793MOL0     C 9338   2.722   4.395   0.696  0.1783  0.4088 -0.1011
  793MOL0     C 9339   2.770   4.250   0.664 -0.6261 -0.6998  0.8629
  793MOL0     C 9340   2.659   4.145   0.686 -0.2971 -0.8959 -0.4717
  793MOL0    Cl 9341   2.718   3.973   0.688  0.4591 -0.4040 -0.0805
  793MOL0     C 9342   3.527   4.747   1.022 -0.0455 -0.0615  0.0536
  793MOL0     C 9343   3.645   4.833   1.034  0.7853  0.3679 -1.0574
  793MOL0     O 9344   3.649   5.171   1.254 -0.0171  0.1335  0.3696
  793MOL0     C 9345   3.954   5.221   1.129 -0.5415  0.5047  0.0227
  793MOL0     C 9346   4.065   5.309   1.146  0.6020 -0.4593 -0.6702
  793MOL0     N 9347   4.558   5.884   0.961  0.2293  0.0919 -0.1959
  793MOL0     N 9348   4.553   5.887   0.839 -1.0438  0.7035 -0.8181
  793MOL0     C 9349   4.477   5.083   1.195  0.8541 -0.4726  0.1568
  793MOL0     C 9350   4.478   5.021   1.326  0.5965  0.2056  1.7378
  793MOL0     C 9351   4.543   5.031   1.797  0.6083 -0.5069 -0.2040
  793MOL0     C 9352   4.676   4.979   1.807 -0.4240 -1.2223 -0.2584
  793MOL0     C 9353   4.716   4.903   1.920  0.3418  0.6751 -0.1887
  793MOL0     C 9354   4.618   4.877   2.012 -0.6219  0.8160  0.1410
  793MOL0     O 9355   4.653   4.797   2.115  0.2713 -0.7666 -0.1789
  793MOL0     C 9356   4.689   4.856   2.242 -0.1497 -0.8847 -0.1234
  793MOL0     C 9357   4.725   4.742   2.334 -0.3306 -0.1930 -1.1128
  793MOL0     C 9358   4.772   4.797   2.470  0.2147  0.8874  0.2815
  793MOL0     C 9359   4.809   4.679   2.556  0.3507  0.2264  0.3920
  793MOL0     C 9360   4.818   4.726   2.686 -0.8287 -0.1071  0.4795
  793MOL0     C 9361   4.816   4.761   2.795  0.6369  0.3011 -0.0826
  793MOL0     C 9362   4.489   4.929   2.004  0.8553 -0.1266 -0.2384
  793MOL0     C 9363   4.447   5.010   1.896 -0.6193 -0.2365  0.2044
  793MOL0     C 9364   4.297   5.055   1.883 -0.6663  0.4202  0.2363
  793MOL0     H 9365   4.333   5.275   1.484 -0.5644  0.5856 -0.1025
  793MOL0     H 9366   4.367   5.391   1.269  0.2217  0.5349 -1.0692
  793MOL0     H 9367   4.608   5.395   1.083 -0.7864 -2.0326  1.5832
  793MOL0     H 9368   4.447   5.459   1.071 -1.8677 -0.7113 -1.7138
  793MOL0     H 9369   4.549   5.539   0.882  1.8508 -1.3755  2.9878
  793MOL0     H 9370   4.607   5.372   0.825 -0.2425 -2.5498  1.5385
  793MOL0     H 9371   4.373   5.299   0.817  1.4275 -0.6043  0.8010
  793MOL0     H 9372   4.318   5.467   0.816 -0.3188 -0.5728 -0.7156
  793MOL0     H 9373   4.505   5.345   0.612  2.6635  1.8504 -1.2450
  793MOL0     H 9374   4.333   5.405   0.585 -1.0950  0.9641  0.8343
  793MOL0     H 9375   4.506   5.539   0.491 -0.5507  0.0863 -0.2094
  793MOL0     H 9376   4.576   5.580   0.643  1.1753  1.3386 -2.4532
  793MOL0     H 9377   4.285   5.635   0.560  1.0112 -0.0144 -0.8409
  793MOL0     H 9378   4.335   5.674   0.719  2.7781  0.4317  0.7579
  793MOL0     H 9379   4.399   5.825   0.476  2.2069  0.3843 -0.1523
  793MOL0     H 9380   4.537   5.793   0.582  0.0118 -0.2610  0.2644
  793MOL0     H 9381   4.401   6.016   0.610 -0.1222 -0.9306 -2.0885
  793MOL0     H 9382   4.266   5.911   0.664  1.0015 -1.8954  2.5872
  793MOL0     H 9383   4.269   6.042   0.918 -0.2664 -0.9967 -0.1429
  793MOL0     H 9384   4.412   6.042   1.198  0.1455 -0.1585 -0.6267
  793MOL0     H 9385   4.493   5.890   1.207 -0.8304  0.8897  0.6556
  793MOL0     H 9386   4.260   5.882   1.299 -4.5733  2.0467 -1.1503
  793MOL0     H 9387   4.187   5.911   1.138 -0.2815 -1.0416 -0.1975
  793MOL0     H 9388   4.321   5.682   1.073 -3.7866 -2.2439  0.0221
  793MOL0     H 9389   4.360   5.689   1.246  1.2266 -1.6624 -1.1627
  793MOL0     H 9390   4.114   5.688   1.300  1.7647  0.5183  1.0711
  793MOL0     H 9391   4.079   5.691   1.129 -1.5348 -0.2211  1.1032
  793MOL0     H 9392   3.905   5.577   1.268  1.8528 -0.6003  1.0933
  793MOL0     H 9393   3.695   5.482   1.363  1.8506  0.8209  0.3582
  793MOL0     H 9394   3.601   5.434   1.212 -0.6386  1.0393  0.5045
  793MOL0     H 9395   3.711   5.574   1.218  0.5730 -0.8139 -2.1019
  793MOL0     H 9396   3.457   5.109   1.115  0.1928  0.6024 -1.0181
  793MOL0     H 9397   3.271   4.963   1.082  0.1431  3.0095  1.7800
  793MOL0     H 9398   3.078   4.723   0.993 -1.6820  2.2545 -2.9136
  793MOL0     H 9399   3.183   4.830   0.897  0.7530 -0.1833 -0.6226
  793MOL0     H 9400   3.265   4.624   0.774  0.4552  0.6525  1.1460
  793MOL0     H 9401   3.176   4.521   0.876  0.7058  0.6679  1.8165
  793MOL0     H 9402   3.076   4.609   0.640  0.0767 -0.4085  0.2944
  793MOL0     H 9403   3.003   4.733   0.746  2.1855  1.1157  0.1616
  793MOL0     H 9404   2.884   4.567   0.877  3.6280 -1.3186  2.1441
  793MOL0     H 9405   2.977   4.438   0.809  4.1290  2.5153  1.5424
  793MOL0     H 9406   2.782   4.601   0.648  0.1282  0.4182  0.8052
  793MOL0     H 9407   2.881   4.478   0.573 -1.6553 -2.4065 -0.3434
  793MOL0     H 9408   2.639   4.422   0.630 -2.0613  0.7599  2.6917
  793MOL0     H 9409   2.680   4.401   0.797  2.9732 -1.5915  1.3162
  793MOL0     H 9410   2.855   4.222   0.727 -0.2552  0.2795  0.8121
  793MOL0     H 9411   2.804   4.251   0.560 -1.3213  2.4337  0.5683
  793MOL0     H 9412   2.598   4.142   0.595 -0.1547 -4.3208 -0.5850
  793MOL0     H 9413   2.601   4.163   0.777  0.7131  3.0403 -0.4151
  793MOL0     H 9414   3.553   4.643   1.005 -0.3507 -0.2751  0.8624
  793MOL0     H 9415   3.748   4.799   1.044  0.6771  0.5971  1.6954
  793MOL0     H 9416   3.962   5.122   1.085 -2.5764  1.1948 -2.0560
  793MOL0     H 9417   4.165   5.281   1.113 -0.1067 -4.1823 -0.1073
  793MOL0     H 9418   4.517   5.024   1.113  1.1783  1.5139 -1.1804
  793MOL0     H 9419   4.518   4.920   1.337  0.4423  0.1013  1.3423
  793MOL0     H 9420   4.743   4.990   1.722 -1.8144 -1.0150 -1.3697
  793MOL0     H 9421   4.807   4.845   1.916 -0.4822 -0.6305 -3.2839
  793MOL0     H 9422   4.772   4.926   2.230  0.6652 -1.8334 -0.1082
  793MOL0     H 9423   4.603   4.912   2.280 -1.9704 -2.8706 -1.1230
  793MOL0     H 9424   4.793   4.673   2.283  0.6403 -0.1778  0.1395
  793MOL0     H 9425   4.629   4.693   2.354 -1.0030  1.0229 -1.2589
  793MOL0     H 9426   4.857   4.863   2.448 -0.0490  0.9659 -0.5553
  793MOL0     H 9427   4.687   4.846   2.519 -1.0114 -0.9099  0.0210
  793MOL0     H 9428   4.899   4.627   2.522 -0.9613 -1.7795 -0.1741
  793MOL0     H 9429   4.727   4.607   2.556  0.9067 -0.4112  0.1654
  793MOL0     H 9430   4.806   4.808   2.891 -1.7380 -4.2913  2.2037
  793MOL0     H 9431   4.414   4.907   2.080  1.5046  0.9179  0.7393
  793MOL0     H 9432   4.285   5.154   1.839  0.3992  0.7849  0.7216
  793MOL0     H 9433   4.230   4.985   1.833 -0.7745  0.1938  0.6892
  793MOL0     H 9434   4.249   5.078   1.978  0.0401  1.4772  0.3539
  794MOL0     O 9435   5.560  10.482   6.854 -0.7689  1.1981  0.3242
  794MOL0     C 9436   5.627  10.569   6.915  0.6040 -0.0297 -0.7486
  794MOL0     O 9437   5.639  10.587   7.049  0.4994  0.2849  0.1011
  794MOL0     C 9438   5.628  10.469   7.117 -0.4400  0.4374  0.2741
  794MOL0     C 9439   5.530  10.428   7.201  0.1552  0.4775 -0.1410
  794MOL0     C 9440   5.528  10.304   7.260  0.2882 -0.1437 -0.1362
  794MOL0     C 9441   5.637  10.220   7.253 -0.8310  0.5632 -0.5276
  794MOL0     O 9442   5.634  10.105   7.327 -0.8908  0.0822  0.1435
  794MOL0     C 9443   5.754  10.073   7.406 -0.0808 -0.3400 -0.1148
  794MOL0     C 9444   5.740   9.921   7.424 -0.0418 -0.5504 -0.1003
  794MOL0     C 9445   5.870   9.866   7.500  0.3382 -0.3799  0.1565
  794MOL0     C 9446   5.842   9.727   7.541  0.4753  0.5075 -0.1521
  794MOL0     C 9447   5.953   9.656   7.618  0.3337 -0.1397 -1.0157
  794MOL0     C 9448   6.030   9.735   7.721  0.4457 -0.3828  0.0377
  794MOL0     C 9449   6.143   9.650   7.770  0.1253 -0.0417 -0.3815
  794MOL0     C 9450   6.236   9.734   7.865 -1.0153  0.5177 -0.3918
  794MOL0     N 9451   6.325   9.653   7.956 -0.5400  0.2070  0.7793
  794MOL0     C 9452   6.445   9.601   7.921  0.3616 -0.7060  0.3995
  794MOL0     C 9453   6.514   9.585   8.034 -0.0594 -0.0929 -0.9228
  794MOL0     C 9454   6.650   9.535   8.062 -0.2855 -0.5773  0.0435
  794MOL0     C 9455   6.639   9.405   8.142  0.3878  0.1327  0.6060
  794MOL0     C 9456   6.768   9.330   8.182 -0.0064 -0.2018 -0.4175
  794MOL0     C 9457   6.845   9.264   8.072 -0.1048  0.7590  0.5678
  794MOL0     O 9458   6.967   9.209   8.118 -0.2684 -0.4512  0.3113
  794MOL0     C 9459   6.974   9.091   8.192 -0.4469 -1.3888  0.3032
  794MOL0     C 9460   6.868   9.003   8.227 -0.5569 -0.9922 -0.1498
  794MOL0     C 9461   6.889   8.892   8.302  0.4503  0.3144 -0.4061
  794MOL0     C 9462   6.771   8.814   8.354 -0.3110 -0.1427 -1.0703
  794MOL0     C 9463   7.024   8.851   8.332  0.8162  0.9178 -0.4023
  794MOL0     C 9464   7.054   8.723   8.405  0.1711  0.0563  0.1384
  794MOL0     O 9465   7.179   8.723   8.466  0.0870  0.2991 -0.4295
  794MOL0     C 9466   7.259   8.609   8.460 -0.3279  0.2637  0.3631
  794MOL0     C 9467   7.382   8.602   8.540 -0.8169  0.8579 -0.1752
  794MOL0     C 9468   7.472   8.497   8.538  1.2931 -0.1662  0.3824
  794MOL0     C 9469   7.434   8.379   8.463 -0.5113  0.3211 -0.8855
  794MOL0     O 9470   7.526   8.278   8.449  0.0487 -0.2923  0.3168
  794MOL0     C 9471   7.618   8.217   8.540 -0.8584 -0.4833 -0.2530
  794MOL0     C 9472   7.661   8.080   8.488 -1.0405  0.0942 -0.6044
  794MOL0     C 9473   7.537   7.978   8.465 -0.4218 -0.3713 -0.2541
  794MOL0     C 9474   7.589   7.860   8.384  0.3017 -0.3054  0.0180
  794MOL0     C 9475   7.493   7.745   8.375  0.2139 -0.2147 -0.1729
  794MOL0     C 9476   7.360   7.784   8.315  0.3057  0.3292  0.2257
  794MOL0     C 9477   7.274   7.650   8.295  0.5539  0.8509  0.9230
  794MOL0     C 9478   7.173   7.606   8.402 -0.4103  0.6199  0.2179
  794MOL0    Cl 9479   7.241   7.583   8.568 -0.4647 -0.5199  0.3237
  794MOL0     C 9480   7.320   8.376   8.383  0.5459 -0.8433 -0.0961
  794MOL0     C 9481   7.237   8.490   8.375  0.5324 -0.1878 -1.1645
  794MOL0     O 9482   6.977   8.621   8.411  0.4570 -0.6862 -0.0423
  794MOL0     C 9483   7.127   8.939   8.305  0.2184 -0.0110  0.4356
  794MOL0     C 9484   7.098   9.057   8.236 -0.7177 -0.3329  0.2392
  794MOL0     N 9485   6.435   9.614   8.143 -1.0708  0.1822 -0.6443
  794MOL0     N 9486   6.327   9.666   8.087 -0.7063 -0.5692  0.0426
  794MOL0     C 9487   5.744  10.258   7.179 -0.0368 -0.4187  0.3055
  794MOL0     C 9488   5.741  10.380   7.106  0.4246 -0.0170  0.4751
  794MOL0     C 9489   5.684  10.663   6.821  0.2162  0.3340 -0.0750
  794MOL0     C 9490   5.619  10.692   6.696  0.6636 -0.0022  0.6773
  794MOL0     C 9491   5.671  10.788   6.614 -0.6552  0.3804  1.2021
  794MOL0     C 9492   5.796  10.851   6.642  1.1813 -0.5113  0.1894
  794MOL0     O 9493   5.862  10.936   6.552  0.1221 -0.3165 -0.1406
  794MOL0     C 9494   5.791  11.003   6.453  0.2079  0.3394  0.3824
  794MOL0     C 9495   5.852  10.983   6.314  0.1287  0.1404  0.4717
  794MOL0     C 9496   5.790  10.865   6.239 -0.3768 -1.1984 -0.1109
  794MOL0     C 9497   5.867  10.851   6.104  0.1120  0.0509 -1.0225
  794MOL0     C 9498   5.824  10.952   6.000 -0.0165  0.0070  0.2782
  794MOL0     C 9499   5.786  11.058   5.954 -0.2569 -0.4374 -0.1679
  794MOL0     C 9500   5.853  10.835   6.771  0.2782  0.2282  0.4801
  794MOL0     C 9501   5.811  10.734   6.860 -0.0767 -1.4575  0.2613
  794MOL0     C 9502   5.895  10.718   6.983  0.3448 -0.0125 -0.4199
  794MOL0     H 9503   5.447  10.494   7.222 -2.2560 -1.8256 -1.7899
  794MOL0     H 9504   5.437  10.276   7.312  0.7896 -0.0258  0.8459
  794MOL0     H 9505   5.767  10.121   7.504  1.7479  0.8477 -0.8854
  794MOL0     H 9506   5.845  10.094   7.349  0.6471 -1.6275  0.5187
  794MOL0     H 9507   5.648   9.907   7.481 -1.1205 -0.1027 -1.6394
  794MOL0     H 9508   5.734   9.886   7.320  0.0180  2.0492 -1.0632
  794MOL0     H 9509   5.960   9.871   7.437 -1.0507 -0.6713 -1.9684
  794MOL0     H 9510   5.888   9.929   7.587  4.0558 -1.1929  0.1519
  794MOL0     H 9511   5.757   9.731   7.610 -1.4735 -3.4994 -1.9470
  794MOL0     H 9512   5.820   9.653   7.464  2.7708 -2.1401  1.5323
  794MOL0     H 9513   6.017   9.605   7.547  1.1876 -1.9651  0.9464
  794MOL0     H 9514   5.912   9.569   7.670  1.2598 -0.6656 -1.1524
  794MOL0     H 9515   6.085   9.821   7.682  1.8520 -0.3248  1.9694
  794MOL0     H 9516   5.956   9.767   7.795  1.0431  2.5668 -0.5189
  794MOL0     H 9517   6.207   9.621   7.686  1.1217 -0.1641  0.4014
  794MOL0     H 9518   6.114   9.562   7.827  2.0114 -0.3454  0.1865
  794MOL0     H 9519   6.303   9.792   7.800  0.4031  0.1341  0.6726
  794MOL0     H 9520   6.174   9.803   7.923 -2.3111  0.8614 -2.0859
  794MOL0     H 9521   6.490   9.596   7.822 -0.9039 -1.0535 -0.1831
  794MOL0     H 9522   6.710   9.607   8.118 -1.7709 -0.4851  1.5962
  794MOL0     H 9523   6.697   9.518   7.964 -0.2271 -0.9283  0.1305
  794MOL0     H 9524   6.587   9.437   8.233  1.6490 -2.2000  2.2492
  794MOL0     H 9525   6.569   9.340   8.088  0.1544  0.5506  0.3996
  794MOL0     H 9526   6.840   9.400   8.223  1.7104 -1.5444 -1.0041
  794MOL0     H 9527   6.736   9.254   8.254  1.1195 -0.9107 -0.6415
  794MOL0     H 9528   6.790   9.189   8.015  2.1849  0.4190 -1.3456
  794MOL0     H 9529   6.876   9.338   7.997  1.8517 -0.5670  0.0019
  794MOL0     H 9530   6.770   9.041   8.200 -0.3541 -2.0045 -2.5530
  794MOL0     H 9531   6.790   8.792   8.459 -1.3696 -0.7221 -0.9864
  794MOL0     H 9532   6.748   8.722   8.298 -0.5613 -0.6586 -0.1492
  794MOL0     H 9533   6.685   8.880   8.368 -1.3539 -1.0033 -3.0419
  794MOL0     H 9534   7.408   8.683   8.607  0.3382 -0.0519  0.5127
  794MOL0     H 9535   7.568   8.495   8.588 -0.4023  3.2491  4.4644
  794MOL0     H 9536   7.711   8.274   8.532 -1.6744  1.0059  0.5244
  794MOL0     H 9537   7.586   8.220   8.645  2.6539  2.9493  0.9781
  794MOL0     H 9538   7.723   8.097   8.399  0.5192 -1.7517  0.0389
  794MOL0     H 9539   7.723   8.019   8.554  0.0066  1.5919 -0.1596
  794MOL0     H 9540   7.456   8.031   8.415 -1.2238 -0.1779  1.2042
  794MOL0     H 9541   7.508   7.928   8.558  1.2725 -2.6455 -0.8570
  794MOL0     H 9542   7.681   7.820   8.428 -0.2388 -2.6372 -0.7978
  794MOL0     H 9543   7.598   7.898   8.282  2.6565  2.2831  1.0717
  794MOL0     H 9544   7.542   7.672   8.311  0.2389 -0.9706  0.6783
  794MOL0     H 9545   7.481   7.697   8.473 -0.8725 -0.9419 -0.6483
  794MOL0     H 9546   7.374   7.836   8.220  2.3886 -1.9035 -0.8290
  794MOL0     H 9547   7.313   7.853   8.386  1.6634  4.2215 -2.3337
  794MOL0     H 9548   7.344   7.572   8.262  0.2170  1.3821 -1.2541
  794MOL0     H 9549   7.207   7.663   8.209  0.3332 -1.6472  0.6499
  794MOL0     H 9550   7.134   7.513   8.360  0.6040 -0.0063  0.6139
  794MOL0     H 9551   7.088   7.674   8.412 -0.7428  0.3449 -0.6720
  794MOL0     H 9552   7.291   8.291   8.322 -0.7396 -0.2879 -0.2972
  794MOL0     H 9553   7.147   8.467   8.318 -2.7930 -0.0179  3.4359
  794MOL0     H 9554   7.224   8.913   8.347 -0.3828 -0.7665  1.4103
  794MOL0     H 9555   7.177   9.131   8.239 -0.0607 -0.8850 -1.6958
  794MOL0     H 9556   5.829  10.194   7.158  1.5591  1.8065 -0.4609
  794MOL0     H 9557   5.807  10.402   7.022  1.7288 -2.1265  0.8791
  794MOL0     H 9558   5.527  10.638   6.675  2.0797 -2.4814  0.5002
  794MOL0     H 9559   5.616  10.813   6.523  0.3096  2.7042  1.1751
  794MOL0     H 9560   5.689  10.964   6.441 -0.4000  1.3881  1.8231
  794MOL0     H 9561   5.774  11.108   6.480 -1.0281  0.6856 -1.4947
  794MOL0     H 9562   5.960  10.968   6.326 -0.4085 -3.5508  1.7978
  794MOL0     H 9563   5.841  11.076   6.257  0.0837  1.0971  1.9811
  794MOL0     H 9564   5.796  10.774   6.300  2.7074 -0.9090  0.1777
  794MOL0     H 9565   5.689  10.892   6.209  0.5852 -1.2386 -3.8125
  794MOL0     H 9566   5.848  10.754   6.058 -2.2672  0.0330 -0.1339
  794MOL0     H 9567   5.974  10.869   6.121 -0.0903  1.9824 -1.5513
  794MOL0     H 9568   5.770  11.159   5.923  1.1099  0.3948  1.6717
  794MOL0     H 9569   5.951  10.879   6.788  1.0156 -0.6244 -1.2901
  794MOL0     H 9570   5.915  10.617   7.019  2.7995 -0.4051 -2.6346
  794MOL0     H 9571   5.992  10.766   6.968 -0.6105  2.0948 -0.1933
  794MOL0     H 9572   5.833  10.777   7.052  0.1138 -1.6649  0.8685
  795MOL0     O 9573   2.448   9.299  10.405  1.0743 -0.0519 -1.0709
  795MOL0     C 9574   2.421   9.313  10.532  0.1920  0.3792  0.2565
  795MOL0     O 9575   2.396   9.441  10.590  0.4876 -0.1701  0.8398
  795MOL0     C 9576   2.357   9.543  10.507  0.6319  0.2835  0.3191
  795MOL0     C 9577   2.432   9.665  10.508  0.6913  0.6271  0.5105
  795MOL0     C 9578   2.392   9.773  10.436 -0.4604  0.2150  0.5644
  795MOL0     C 9579   2.266   9.759  10.359 -1.0320 -0.5022 -0.0959
  795MOL0     O 9580   2.210   9.856  10.288  0.9786  0.5328 -0.3690
  795MOL0     C 9581   2.284   9.977  10.262  0.5412  0.2797 -0.4776
  795MOL0     C 9582   2.193  10.061  10.169  0.3063  1.0646 -0.0978
  795MOL0     C 9583   2.152   9.979  10.036  0.0836 -0.4285  0.1824
  795MOL0     C 9584   2.046  10.046   9.951 -0.2950 -0.3251  0.2078
  795MOL0     C 9585   2.012   9.987   9.813  0.3160  0.8679 -0.9603
  795MOL0     C 9586   2.134   9.995   9.720  0.2147 -0.0966  0.1263
  795MOL0     C 9587   2.105   9.943   9.583 -0.2009 -0.0312  0.8377
  795MOL0     C 9588   2.206   9.974   9.467  1.1307 -0.4045 -0.4568
  795MOL0     N 9589   2.340   9.979   9.518 -0.9376 -1.0471 -1.2169
  795MOL0     C 9590   2.443   9.878   9.513  0.1859 -0.1974  0.7796
  795MOL0     C 9591   2.553   9.929   9.577  0.6052 -0.5119 -0.0207
  795MOL0     C 9592   2.669   9.846   9.609 -0.6215 -0.2571 -0.4180
  795MOL0     C 9593   2.716   9.776   9.476  0.2394 -0.2412 -0.3181
  795MOL0     C 9594   2.852   9.711   9.495  0.0867 -0.3103  1.0516
  795MOL0     C 9595   2.961   9.815   9.457 -0.8430 -0.3694  0.3680
  795MOL0     O 9596   3.089   9.766   9.499  0.1761  0.4731 -0.3656
  795MOL0     C 9597   3.190   9.853   9.520 -0.9647 -0.2484  0.5655
  795MOL0     C 9598   3.206   9.982   9.461 -0.1216  0.2321 -0.6043
  795MOL0     C 9599   3.311  10.074   9.488 -0.1750  0.6589 -0.3500
  795MOL0     C 9600   3.322  10.200   9.415 -0.5217 -0.6020  0.5604
  795MOL0     C 9601   3.413  10.026   9.583 -0.0687 -0.9257 -0.5430
  795MOL0     C 9602   3.529  10.108   9.641  0.5465 -0.3443  0.6970
  795MOL0     O 9603   3.595  10.070   9.748  0.1246 -0.4099 -0.1482
  795MOL0     C 9604   3.708  10.126   9.792  0.4150 -0.6333 -0.0240
  795MOL0     C 9605   3.831  10.102   9.739  0.6456 -0.7185  0.4122
  795MOL0     C 9606   3.947  10.150   9.790 -1.6541  0.0146 -0.0229
  795MOL0     C 9607   3.946  10.207   9.916 -0.0003  0.2336 -0.1602
  795MOL0     O 9608   4.070  10.247   9.964  0.3163  0.7659  0.3818
  795MOL0     C 9609   4.086  10.233  10.107 -0.3441 -1.2835  0.8150
  795MOL0     C 9610   4.233  10.197  10.135 -0.0755 -0.1632  0.2060
  795MOL0     C 9611   4.344  10.208  10.033 -0.2953  0.8501 -0.0260
  795MOL0     C 9612   4.463  10.130  10.084  0.2976  0.0267 -1.1595
  795MOL0     C 9613   4.592  10.160  10.004 -0.6285  0.0778  0.3139
  795MOL0     C 9614   4.712  10.110  10.067  0.3830 -0.5566  0.1343
  795MOL0     C 9615   4.836  10.141   9.983  0.3695 -0.6126 -0.5131
  795MOL0     C 9616   4.952  10.136  10.086 -0.1376  0.1908  0.2902
  795MOL0    Cl 9617   4.945   9.978  10.175 -0.3296  0.0251 -0.2018
  795MOL0     C 9618   3.819  10.237   9.973 -0.0255 -0.5198  0.0553
  795MOL0     C 9619   3.703  10.193   9.914  0.4243 -0.9894  0.4652
  795MOL0     O 9620   3.561  10.205   9.573 -0.0143 -0.4862 -0.5037
  795MOL0     C 9621   3.404   9.894   9.623  0.0455  0.4685  0.5593
  795MOL0     C 9622   3.295   9.810   9.598  0.2788 -0.8607  0.2021
  795MOL0     N 9623   2.527  10.061   9.614 -0.1490  0.0744 -0.2300
  795MOL0     N 9624   2.403  10.091   9.577 -0.2556  0.8665 -0.4072
  795MOL0     C 9625   2.191   9.643  10.358 -0.0836  0.3508 -0.8214
  795MOL0     C 9626   2.237   9.535  10.436  0.2245  0.2993  0.4662
  795MOL0     C 9627   2.411   9.208  10.628 -0.4209  1.5922  0.5125
  795MOL0     C 9628   2.374   9.234  10.764 -0.6850  0.4808 -0.1906
  795MOL0     C 9629   2.345   9.131  10.856  0.5142 -0.8424  0.0340
  795MOL0     C 9630   2.360   9.000  10.818 -0.5963 -0.4514  0.1962
  795MOL0     O 9631   2.320   8.904  10.910  0.8054  0.4453  0.3614
  795MOL0     C 9632   2.184   8.852  10.882 -0.3378  0.4149 -0.6981
  795MOL0     C 9633   2.108   8.823  11.012 -0.2411 -0.4827  0.6512
  795MOL0     C 9634   2.133   8.923  11.127  0.3972  0.1205  0.6249
  795MOL0     C 9635   2.192   8.863  11.260  0.0848  0.6239 -0.8882
  795MOL0     C 9636   2.094   8.809  11.358  0.9042  0.7083 -0.4755
  795MOL0     C 9637   2.018   8.749  11.436  0.2935  0.4973  0.4643
  795MOL0     C 9638   2.403   8.970  10.687  0.1640  0.5030  0.0204
  795MOL0     C 9639   2.431   9.074  10.593  0.1236  0.8946  0.0173
  795MOL0     C 9640   2.471   9.018  10.459 -0.2746  0.4113 -0.3170
  795MOL0     H 9641   2.525   9.675  10.563  1.1473  3.1075 -0.5425
  795MOL0     H 9642   2.454   9.861  10.427 -1.2106  0.5121 -3.2982
  795MOL0     H 9643   2.385   9.959  10.224  1.9763 -0.6390  3.3765
  795MOL0     H 9644   2.280  10.031  10.356 -1.2452  0.7218 -0.7702
  795MOL0     H 9645   2.101  10.084  10.225 -0.1520 -1.4055  0.2918
  795MOL0     H 9646   2.244  10.154  10.143 -1.2295  4.1376  6.0528
  795MOL0     H 9647   2.243   9.979   9.974 -0.0050  1.8970 -0.0446
  795MOL0     H 9648   2.135   9.873  10.058 -0.9240 -0.8023 -2.0657
  795MOL0     H 9649   1.955  10.049  10.012 -1.0197 -2.5776 -0.6305
  795MOL0     H 9650   2.075  10.150   9.935 -0.0458 -0.1253  1.7981
  795MOL0     H 9651   1.926  10.034   9.766 -0.1676  1.4314  0.4275
  795MOL0     H 9652   1.993   9.880   9.824  1.4361  0.3309 -3.5926
  795MOL0     H 9653   2.167  10.099   9.709 -0.2956  0.1134  0.5496
  795MOL0     H 9654   2.223   9.946   9.760 -1.8128 -1.8196  2.9171
  795MOL0     H 9655   2.011   9.985   9.548 -1.3311 -1.7153  1.6906
  795MOL0     H 9656   2.100   9.834   9.590 -0.0852 -0.0906  0.0523
  795MOL0     H 9657   2.201   9.900   9.387  0.3279  1.9449 -2.7388
  795MOL0     H 9658   2.178  10.070   9.421 -0.0258 -0.5633 -0.1076
  795MOL0     H 9659   2.433   9.788   9.453  1.8113 -0.4887  0.8943
  795MOL0     H 9660   2.650   9.786   9.698  1.2437  1.7324  1.4409
  795MOL0     H 9661   2.751   9.915   9.633  2.2597 -2.7180 -2.3571
  795MOL0     H 9662   2.639   9.707   9.438 -0.8217  1.2552 -1.0069
  795MOL0     H 9663   2.722   9.849   9.394 -1.0847 -1.8979 -2.0018
  795MOL0     H 9664   2.865   9.664   9.592  0.8082 -2.5294 -0.0422
  795MOL0     H 9665   2.863   9.621   9.433  0.5867  0.0330  0.6290
  795MOL0     H 9666   2.960   9.835   9.349  0.6930  0.0577  0.4085
  795MOL0     H 9667   2.943   9.908   9.511  1.6537  0.6902 -0.4801
  795MOL0     H 9668   3.139  10.009   9.380 -0.1699 -2.4369 -1.5638
  795MOL0     H 9669   3.318  10.274   9.495 -2.7504 -2.7202  2.5544
  795MOL0     H 9670   3.231  10.220   9.358 -2.0214  1.7408  3.4991
  795MOL0     H 9671   3.409  10.212   9.349 -0.9410 -0.4777  0.0241
  795MOL0     H 9672   3.814  10.045   9.648 -0.5669  1.2282 -0.6579
  795MOL0     H 9673   4.027  10.159   9.716 -0.9516  1.2740  0.8614
  795MOL0     H 9674   4.052  10.328  10.150 -0.0912  0.4009 -2.4332
  795MOL0     H 9675   4.019  10.158  10.150 -2.9414  0.7088  0.4419
  795MOL0     H 9676   4.261  10.251  10.225  0.1912 -1.5871  0.9988
  795MOL0     H 9677   4.235  10.091  10.162  1.7003 -0.9626 -2.5961
  795MOL0     H 9678   4.380  10.310  10.018  3.6079  0.2185  3.2494
  795MOL0     H 9679   4.315  10.155   9.942 -3.5906 -0.5788  1.6729
  795MOL0     H 9680   4.446  10.023  10.079 -0.4649  0.2110 -3.1184
  795MOL0     H 9681   4.492  10.164  10.184  0.0051 -1.1710 -0.6498
  795MOL0     H 9682   4.584  10.106   9.909  0.0075  0.4992  0.0159
  795MOL0     H 9683   4.596  10.267   9.986  2.8034  0.6488  3.3323
  795MOL0     H 9684   4.703  10.005  10.097 -2.1658 -0.1781  0.9186
  795MOL0     H 9685   4.712  10.178  10.153 -0.4519  1.0998 -1.1368
  795MOL0     H 9686   4.824  10.237   9.932 -1.6404 -0.5284  0.0425
  795MOL0     H 9687   4.848  10.058   9.913  2.5459  0.3617 -1.4048
  795MOL0     H 9688   4.940  10.226  10.147 -1.0867  1.8251 -2.1474
  795MOL0     H 9689   5.049  10.147  10.036 -0.4013 -1.4021 -0.6517
  795MOL0     H 9690   3.802  10.307  10.054  0.1020  4.0279 -3.4644
  795MOL0     H 9691   3.610  10.231   9.955  0.3576  3.5698 -3.0991
  795MOL0     H 9692   3.487   9.853   9.680 -1.1717 -0.0584  2.0535
  795MOL0     H 9693   3.288   9.714   9.648 -0.7910  0.3274  2.5284
  795MOL0     H 9694   2.092   9.656  10.314 -0.1014  1.0680 -0.5807
  795MOL0     H 9695   2.192   9.437  10.443  0.7773 -0.5740 -4.4262
  795MOL0     H 9696   2.361   9.338  10.790 -1.0770  0.3061  0.3166
  795MOL0     H 9697   2.308   9.141  10.958 -1.5491 -3.8258 -0.2955
  795MOL0     H 9698   2.128   8.918  10.815  0.9659 -0.9414 -3.2672
  795MOL0     H 9699   2.191   8.754  10.834  1.1633 -0.2490  0.7756
  795MOL0     H 9700   2.140   8.726  11.052  1.7828 -0.7926 -1.4967
  795MOL0     H 9701   2.001   8.829  10.990  0.3714  3.5944 -2.5331
  795MOL0     H 9702   2.193   9.012  11.105 -0.8876  0.7706 -0.4813
  795MOL0     H 9703   2.035   8.964  11.153 -0.7934 -3.3905  2.2999
  795MOL0     H 9704   2.247   8.935  11.321  2.0518 -1.0001 -0.6448
  795MOL0     H 9705   2.269   8.793  11.227  0.9692  1.4576 -0.6443
  795MOL0     H 9706   1.946   8.696  11.495  0.3050 -0.7126 -0.5726
  795MOL0     H 9707   2.420   8.866  10.661  1.0642  0.1171  2.0195
  795MOL0     H 9708   2.575   9.033  10.429 -0.1726 -0.6524 -0.5416
  795MOL0     H 9709   2.446   8.912  10.455 -0.6920  0.4863  0.2232
  795MOL0     H 9710   2.409   9.061  10.379 -0.5927 -3.9578 -2.7458
  796MOL0     O 9711   5.612   0.837   3.210 -0.1987 -0.7719 -0.1542
  796MOL0     C 9712   5.609   0.762   3.114  0.3493  0.5861 -0.8619
  796MOL0     O 9713   5.561   0.630   3.125 -0.5785 -0.4481  0.4450
  796MOL0     C 9714   5.462   0.591   3.207 -0.3352  1.1618  0.3590
  796MOL0     C 9715   5.425   0.445   3.203 -0.1432 -0.4252 -0.5257
  796MOL0     C 9716   5.323   0.400   3.285 -0.6562 -0.2991 -0.8550
  796MOL0     C 9717   5.243   0.479   3.365 -0.2022 -0.3595 -0.5792
  796MOL0     O 9718   5.146   0.423   3.450  0.4343 -0.2412  0.2603
  796MOL0     C 9719   5.034   0.369   3.384  0.4596  0.5357 -0.7893
  796MOL0     C 9720   4.908   0.412   3.466  0.1016  0.4697  0.3565
  796MOL0     C 9721   4.770   0.364   3.423  0.2736 -0.5175  0.4293
  796MOL0     C 9722   4.647   0.463   3.442  1.0135 -0.0040  0.4759
  796MOL0     C 9723   4.527   0.397   3.380 -0.1527 -1.0055  0.1703
  796MOL0     C 9724   4.406   0.458   3.431 -0.3612 -0.0551 -0.6909
  796MOL0     C 9725   4.291   0.478   3.318  1.2795  0.7609 -0.1938
  796MOL0     C 9726   4.164   0.554   3.371 -0.4665  0.0282 -0.3146
  796MOL0     N 9727   4.041   0.520   3.305  0.3359  0.5693  0.8856
  796MOL0     C 9728   4.009   0.533   3.168  0.4888 -0.4617 -0.6973
  796MOL0     C 9729   3.877   0.505   3.162 -0.5308  0.7964  0.7195
  796MOL0     C 9730   3.785   0.539   3.050 -0.8114 -0.6601 -0.1267
  796MOL0     C 9731   3.868   0.599   2.931  0.4932  0.4179 -0.8108
  796MOL0     C 9732   3.777   0.662   2.824  1.2316  0.0174  0.1395
  796MOL0     C 9733   3.837   0.662   2.690 -0.5450 -0.0637 -0.5138
  796MOL0     O 9734   3.972   0.721   2.692  0.7143  0.3721  0.8312
  796MOL0     C 9735   4.042   0.713   2.569 -0.2541 -0.1235 -0.5691
  796MOL0     C 9736   4.173   0.762   2.570  0.5764 -0.3267  0.6108
  796MOL0     C 9737   4.250   0.742   2.455  0.7757 -0.4953  0.9049
  796MOL0     C 9738   4.396   0.784   2.469  0.6770 -0.3772  0.2372
  796MOL0     C 9739   4.206   0.688   2.337  0.3203  0.3044  0.1763
  796MOL0     C 9740   4.285   0.671   2.212 -0.5361  0.1184  0.0084
  796MOL0     O 9741   4.215   0.632   2.097 -0.4142  0.1056 -0.0802
  796MOL0     C 9742   4.266   0.571   1.984  0.0690  0.0318  0.7094
  796MOL0     C 9743   4.180   0.559   1.865 -0.4445  0.3977 -0.2295
  796MOL0     C 9744   4.233   0.487   1.755 -0.3016 -0.0050  0.9553
  796MOL0     C 9745   4.368   0.436   1.758  0.0668  0.5921  0.3145
  796MOL0     O 9746   4.428   0.369   1.654 -0.3037 -0.0700  0.0423
  796MOL0     C 9747   4.350   0.279   1.569 -0.8427 -0.7564  0.0094
  796MOL0     C 9748   4.438   0.197   1.473 -0.1141  0.5079 -0.0383
  796MOL0     C 9749   4.525   0.281   1.369 -0.3451 -0.1643  0.0450
  796MOL0     C 9750   4.564   0.216   1.236 -0.1445 -0.2912  0.0513
  796MOL0     C 9751   4.704   0.263   1.201 -0.1651  0.4454  0.3732
  796MOL0     C 9752   4.738   0.246   1.046 -0.4040  0.0296  0.4330
  796MOL0     C 9753   4.762   0.102   1.003  0.7532  0.7663  0.5584
  796MOL0     C 9754   4.783   0.069   0.849  1.0091 -0.5909  0.4123
  796MOL0    Cl 9755   4.912   0.181   0.788 -0.0426  0.0498  0.2374
  796MOL0     C 9756   4.441   0.452   1.867  0.7664  1.1503 -0.4288
  796MOL0     C 9757   4.397   0.517   1.980  1.4822  0.7283  0.4096
  796MOL0     O 9758   4.408   0.685   2.212  0.4950 -0.3157 -0.5611
  796MOL0     C 9759   4.066   0.658   2.334  0.5091  1.3427 -0.3909
  796MOL0     C 9760   3.996   0.660   2.456  0.4072  0.3248  0.9140
  796MOL0     N 9761   3.833   0.484   3.293 -0.7852 -0.0395  0.5930
  796MOL0     N 9762   3.928   0.478   3.375  0.1784  0.1041 -0.1837
  796MOL0     C 9763   5.278   0.614   3.368 -0.1386 -1.4570 -0.1293
  796MOL0     C 9764   5.383   0.670   3.299 -0.4780 -0.5179  0.1640
  796MOL0     C 9765   5.642   0.801   2.978  0.2899 -0.0840 -0.3498
  796MOL0     C 9766   5.725   0.719   2.906 -0.1390 -0.1949  0.6882
  796MOL0     C 9767   5.761   0.748   2.773 -0.0022  0.5784 -0.7018
  796MOL0     C 9768   5.716   0.862   2.713 -0.0166 -0.0377 -0.5317
  796MOL0     O 9769   5.753   0.872   2.577  0.3515  0.2445 -0.9026
  796MOL0     C 9770   5.701   0.962   2.478 -0.4049 -0.6207 -0.0065
  796MOL0     C 9771   5.555   0.954   2.454  0.2568  0.1218  0.0886
  796MOL0     C 9772   5.491   0.818   2.417 -0.1636 -1.2214 -0.3011
  796MOL0     C 9773   5.529   0.789   2.269 -0.2193 -0.3674 -0.5777
  796MOL0     C 9774   5.472   0.871   2.160  0.6013 -0.6207 -0.2015
  796MOL0     C 9775   5.419   0.951   2.081 -0.5068 -0.7525 -0.1689
  796MOL0     C 9776   5.654   0.965   2.793  1.1752  0.5357  1.2032
  796MOL0     C 9777   5.603   0.926   2.919 -0.0682  0.3007 -0.4228
  796MOL0     C 9778   5.507   1.013   2.989 -0.7318  0.8733  0.1660
  796MOL0     H 9779   5.473   0.372   3.140  1.8758 -0.0747  0.5225
  796MOL0     H 9780   5.300   0.294   3.285 -0.3638 -0.4044  1.0609
  796MOL0     H 9781   5.044   0.260   3.379 -1.0452  0.3257  0.0320
  796MOL0     H 9782   5.023   0.406   3.282  0.0795 -0.1449 -1.0030
  796MOL0     H 9783   4.918   0.391   3.573  2.9523 -1.5527 -0.1898
  796MOL0     H 9784   4.894   0.520   3.456 -0.1558  0.3560 -0.6161
  796MOL0     H 9785   4.771   0.342   3.316 -1.3149  0.9577  0.0667
  796MOL0     H 9786   4.753   0.265   3.467 -0.1238 -0.0463  1.3618
  796MOL0     H 9787   4.630   0.472   3.550 -0.2750 -0.3722  0.3194
  796MOL0     H 9788   4.666   0.561   3.400  1.6680 -0.5737 -0.5971
  796MOL0     H 9789   4.529   0.291   3.410  2.5575 -0.8908  0.5826
  796MOL0     H 9790   4.535   0.403   3.272  3.5361  3.2965  0.3886
  796MOL0     H 9791   4.361   0.398   3.511  0.0217  1.2478  0.5536
  796MOL0     H 9792   4.423   0.559   3.471  0.7784 -0.7798  0.7555
  796MOL0     H 9793   4.264   0.377   3.287 -0.3909  0.8293  0.9187
  796MOL0     H 9794   4.331   0.529   3.230 -0.3721 -0.4924 -1.7467
  796MOL0     H 9795   4.146   0.523   3.475  0.2622 -1.4831 -0.6092
  796MOL0     H 9796   4.176   0.660   3.350  0.1849  0.1048  0.3860
  796MOL0     H 9797   4.085   0.582   3.107  1.3564 -0.4182  0.3777
  796MOL0     H 9798   3.721   0.623   3.081  1.2292  1.3952 -1.1340
  796MOL0     H 9799   3.728   0.454   3.011 -0.1421 -2.2971  2.2559
  796MOL0     H 9800   3.927   0.680   2.975 -1.2448  0.4907  1.6390
  796MOL0     H 9801   3.928   0.520   2.886 -0.5080 -1.2620  0.6565
  796MOL0     H 9802   3.682   0.608   2.820  0.1228  1.4069  3.8479
  796MOL0     H 9803   3.748   0.764   2.851  1.1926  0.0271  0.0607
  796MOL0     H 9804   3.834   0.554   2.671 -1.9106 -0.1642  0.1316
  796MOL0     H 9805   3.767   0.708   2.620 -0.4603  2.5043  0.9814
  796MOL0     H 9806   4.212   0.821   2.653  0.0191 -0.8596  1.2682
  796MOL0     H 9807   4.431   0.847   2.387 -0.7125 -1.9475 -1.6507
  796MOL0     H 9808   4.443   0.685   2.465 -1.6225 -1.5058 -0.1028
  796MOL0     H 9809   4.414   0.840   2.562  1.3704 -1.3227  0.6978
  796MOL0     H 9810   4.074   0.582   1.874  0.0912  2.2995  2.3897
  796MOL0     H 9811   4.177   0.490   1.662  3.1569  1.1835 -1.2932
  796MOL0     H 9812   4.281   0.221   1.632 -0.3410 -0.3544  0.9360
  796MOL0     H 9813   4.278   0.338   1.512 -2.3014  0.4306  2.9195
  796MOL0     H 9814   4.503   0.134   1.534  0.2210 -0.6833 -1.5509
  796MOL0     H 9815   4.374   0.134   1.411  1.1206  0.6838 -1.5654
  796MOL0     H 9816   4.613   0.295   1.432 -2.0205 -0.4200  2.6001
  796MOL0     H 9817   4.478   0.379   1.352  0.5251  0.4531  1.0735
  796MOL0     H 9818   4.490   0.257   1.167  0.0898  0.0431 -0.0038
  796MOL0     H 9819   4.580   0.108   1.242  2.6863  0.0598  0.4352
  796MOL0     H 9820   4.705   0.369   1.228  0.7917 -0.1895  3.1219
  796MOL0     H 9821   4.779   0.213   1.262 -0.3392 -1.7257 -1.0670
  796MOL0     H 9822   4.836   0.291   1.027 -1.0002  1.0091 -0.4602
  796MOL0     H 9823   4.666   0.295   0.979  0.1689  0.4933  0.1493
  796MOL0     H 9824   4.681   0.047   1.052  0.8444 -0.4653 -0.6097
  796MOL0     H 9825   4.860   0.083   1.047  1.4907  2.6844 -0.1364
  796MOL0     H 9826   4.692   0.095   0.794  0.7504  3.5274  2.4169
  796MOL0     H 9827   4.800  -0.037   0.828  2.7179 -0.8866  2.8658
  796MOL0     H 9828   4.542   0.411   1.866  0.8246  1.2703 -2.3547
  796MOL0     H 9829   4.454   0.517   2.073 -0.7317  0.3251  1.8528
  796MOL0     H 9830   4.017   0.632   2.241  0.2583 -2.5420  0.6654
  796MOL0     H 9831   3.890   0.639   2.440  0.3443  1.6926 -0.7452
  796MOL0     H 9832   5.246   0.688   3.440  3.5207 -1.3678  1.6844
  796MOL0     H 9833   5.379   0.779   3.308 -1.6005 -0.6391  1.4721
  796MOL0     H 9834   5.774   0.634   2.952  0.3347  0.4878  1.4848
  796MOL0     H 9835   5.818   0.681   2.709 -2.7432 -3.1122  0.3623
  796MOL0     H 9836   5.720   1.062   2.518 -1.6420 -1.4743  2.9945
  796MOL0     H 9837   5.771   0.933   2.399  1.1361 -1.0225  1.4202
  796MOL0     H 9838   5.527   1.029   2.379  0.5652  1.9247  1.7111
  796MOL0     H 9839   5.498   0.992   2.539  1.2935 -0.8756  1.2593
  796MOL0     H 9840   5.545   0.751   2.484 -0.7064  0.9025  2.4526
  796MOL0     H 9841   5.386   0.799   2.442  0.0721 -0.7032  1.1705
  796MOL0     H 9842   5.497   0.686   2.255  0.6077 -0.2775 -3.8946
  796MOL0     H 9843   5.637   0.785   2.258  0.0400 -1.5299  1.7418
  796MOL0     H 9844   5.382   1.016   2.004  0.0441 -1.6079 -1.1969
  796MOL0     H 9845   5.620   1.061   2.756 -3.0087  0.3743  3.8793
  796MOL0     H 9846   5.492   1.106   2.933  4.0970  2.0229  0.2686
  796MOL0     H 9847   5.407   0.970   2.990  0.0143 -1.0372 -1.4718
  796MOL0     H 9848   5.541   1.045   3.088 -0.2249  0.3474  0.1650
  797MOL0     O 9849   5.561   3.877  10.900 -0.6532  0.6416 -0.8135
  797MOL0     C 9850   5.526   3.962  10.975  0.0583  0.1183 -0.6206
  797MOL0     O 9851   5.402   4.010  10.984 -0.5774  0.9635 -0.5071
  797MOL0     C 9852   5.312   3.955  10.893  0.8550  0.9980  0.7058
  797MOL0     C 9853   5.287   4.028  10.779  0.7391  0.0790 -0.0955
  797MOL0     C 9854   5.206   3.977  10.672  0.0436 -0.7485  0.0408
  797MOL0     C 9855   5.161   3.841  10.682 -0.3451  0.0492 -0.2547
  797MOL0     O 9856   5.085   3.802  10.580 -0.2555 -0.1949  0.1165
  797MOL0     C 9857   5.006   3.674  10.588  0.5449 -0.7119  0.1028
  797MOL0     C 9858   4.920   3.658  10.454  0.5854  0.9377  0.6145
  797MOL0     C 9859   4.992   3.609  10.336  0.1974 -0.0273  0.8718
  797MOL0     C 9860   4.875   3.569  10.241 -0.3783  0.0863  0.8018
  797MOL0     C 9861   4.939   3.506  10.111  0.3840 -0.3355 -0.0234
  797MOL0     C 9862   4.843   3.418  10.035 -0.1764  0.1820 -1.3908
  797MOL0     C 9863   4.904   3.368   9.906  0.5811 -1.6370  0.7018
  797MOL0     C 9864   4.996   3.241   9.928  0.2234 -0.0770 -0.4289
  797MOL0     N 9865   4.924   3.138   9.994  0.4093  0.7003 -0.1809
  797MOL0     C 9866   4.929   3.110  10.126 -0.4120  0.0011 -0.7087
  797MOL0     C 9867   4.836   3.017  10.154 -0.5438  0.1607 -0.4991
  797MOL0     C 9868   4.810   2.966  10.291 -0.1561 -0.3179  0.1173
  797MOL0     C 9869   4.848   2.816  10.305  0.7330  0.3338  0.2921
  797MOL0     C 9870   4.847   2.765  10.453 -0.0073 -0.1225 -0.3735
  797MOL0     C 9871   4.905   2.619  10.462  0.1208  0.0846 -0.5056
  797MOL0     O 9872   4.857   2.529  10.566 -0.3016  0.3299  0.0899
  797MOL0     C 9873   4.911   2.557  10.692  1.0592  0.5309  0.1020
  797MOL0     C 9874   4.854   2.485  10.793 -0.4329  0.8916 -0.7340
  797MOL0     C 9875   4.888   2.505  10.929 -1.6986 -0.5301 -0.4402
  797MOL0     C 9876   4.832   2.412  11.039 -0.3900 -0.4434 -0.3541
  797MOL0     C 9877   4.997   2.598  10.963 -0.3134 -0.2579  0.5725
  797MOL0     C 9878   5.045   2.641  11.109 -0.0012 -0.8667  0.2543
  797MOL0     O 9879   4.972   2.609  11.222  0.3054 -0.7049 -0.1721
  797MOL0     C 9880   4.995   2.645  11.345  1.2407 -1.5111  0.1757
  797MOL0     C 9881   5.032   2.775  11.383 -0.7143 -0.1449 -0.3349
  797MOL0     C 9882   5.065   2.798  11.521  0.2627  0.7235  1.3182
  797MOL0     C 9883   5.038   2.695  11.619  0.1453 -0.1054 -0.8375
  797MOL0     O 9884   5.096   2.719  11.736 -0.4054 -0.0705  0.2509
  797MOL0     C 9885   5.057   2.654  11.853 -0.0614 -0.2725 -0.0709
  797MOL0     C 9886   5.130   2.519  11.888  0.7321 -0.4170 -0.8414
  797MOL0     C 9887   5.082   2.476  12.031 -0.8481 -0.6530 -0.3333
  797MOL0     C 9888   4.946   2.417  12.035  0.4487 -0.0315  0.0340
  797MOL0     C 9889   4.919   2.367  12.176 -0.4969 -0.5475 -0.0830
  797MOL0     C 9890   4.790   2.289  12.172 -0.2788  0.8339  0.0672
  797MOL0     C 9891   4.770   2.227  12.305 -0.0204  0.2915 -0.1230
  797MOL0     C 9892   4.714   2.317  12.414  0.2007  0.5783  0.5686
  797MOL0    Cl 9893   4.738   2.228  12.566  0.3049  0.1747 -0.0272
  797MOL0     C 9894   4.984   2.573  11.581  0.2690 -0.6717  1.2333
  797MOL0     C 9895   4.965   2.548  11.441 -0.3635 -0.5421  0.5134
  797MOL0     O 9896   5.148   2.706  11.121  0.0716  0.3030 -0.1766
  797MOL0     C 9897   5.054   2.674  10.856 -0.5031 -1.2479 -0.6120
  797MOL0     C 9898   5.013   2.649  10.722  0.4926 -0.9420 -0.4737
  797MOL0     N 9899   4.786   2.965  10.035 -0.1870  0.6614  0.4613
  797MOL0     N 9900   4.846   3.032   9.943 -0.0799 -0.0023  0.0147
  797MOL0     C 9901   5.193   3.767  10.795  0.3096  0.1124 -0.4476
  797MOL0     C 9902   5.269   3.831  10.903 -0.0984 -0.1263 -0.0207
  797MOL0     C 9903   5.622   4.018  11.077  0.7766  0.0889  0.6691
  797MOL0     C 9904   5.560   4.089  11.184  0.2187 -0.0557  0.1095
  797MOL0     C 9905   5.642   4.152  11.280  0.0149  0.1630  0.0417
  797MOL0     C 9906   5.782   4.148  11.266  0.5099  0.7024 -0.1996
  797MOL0     O 9907   5.874   4.186  11.365  0.6589  0.5554 -0.5108
  797MOL0     C 9908   5.823   4.238  11.490  0.2070 -0.1090 -0.0025
  797MOL0     C 9909   5.774   4.384  11.484 -1.0034  0.2659  0.2183
  797MOL0     C 9910   5.891   4.482  11.478  0.2275  0.9062  0.2624
  797MOL0     C 9911   5.863   4.619  11.536  1.1649  0.5248 -0.5617
  797MOL0     C 9912   5.755   4.688  11.469 -0.0346 -0.5695 -0.0567
  797MOL0     C 9913   5.657   4.738  11.406 -0.2676 -0.8211 -0.0175
  797MOL0     C 9914   5.835   4.084  11.160 -0.3514  0.5849  0.3621
  797MOL0     C 9915   5.763   4.035  11.052  0.3782 -0.0370  0.0248
  797MOL0     C 9916   5.835   3.993  10.924  0.1987  0.1008 -0.1918
  797MOL0     H 9917   5.315   4.132  10.765 -0.4451  0.3836 -0.3070
  797MOL0     H 9918   5.176   4.031  10.582 -0.2270 -0.5037  0.2790
  797MOL0     H 9919   4.941   3.697  10.673  2.8645  1.2152  1.5061
  797MOL0     H 9920   5.064   3.583  10.608 -0.9143 -2.0717 -1.5817
  797MOL0     H 9921   4.844   3.589  10.490  2.6941 -0.8468  1.9479
  797MOL0     H 9922   4.872   3.752  10.425  4.2272  2.1098 -2.5097
  797MOL0     H 9923   5.058   3.686  10.294 -0.4312  0.6782  1.1563
  797MOL0     H 9924   5.053   3.519  10.345 -0.4014 -0.5658 -0.2224
  797MOL0     H 9925   4.811   3.495  10.291 -0.0673 -1.8842 -1.5562
  797MOL0     H 9926   4.821   3.660  10.215  0.2299  0.0289 -0.7381
  797MOL0     H 9927   5.028   3.451  10.142 -0.8587 -1.2056  2.2750
  797MOL0     H 9928   4.976   3.588  10.048 -1.2814  1.3015  1.0046
  797MOL0     H 9929   4.810   3.339  10.102  0.4349  1.4309  0.4600
  797MOL0     H 9930   4.753   3.477  10.019 -0.2686  0.2498 -0.6585
  797MOL0     H 9931   4.954   3.450   9.854 -0.0991 -0.4488  1.8475
  797MOL0     H 9932   4.817   3.353   9.842 -0.8881  2.6878  1.3050
  797MOL0     H 9933   5.038   3.203   9.834 -0.2226  1.6025 -1.3442
  797MOL0     H 9934   5.076   3.270   9.997 -1.0508 -0.8520  1.4708
  797MOL0     H 9935   4.986   3.165  10.201 -2.4432  2.1338 -0.6058
  797MOL0     H 9936   4.707   2.988  10.321  0.3479  1.4721  0.6435
  797MOL0     H 9937   4.875   3.021  10.360 -0.9156 -0.4267  0.9361
  797MOL0     H 9938   4.778   2.754  10.248  1.3407 -0.5254  0.4569
  797MOL0     H 9939   4.944   2.799  10.254  1.0601  3.3603 -0.2781
  797MOL0     H 9940   4.889   2.836  10.525 -4.2518  0.3175  1.9952
  797MOL0     H 9941   4.740   2.760  10.476 -0.0500  3.8003  1.0537
  797MOL0     H 9942   4.872   2.566  10.372 -0.8756 -0.6774  0.2813
  797MOL0     H 9943   5.014   2.627  10.465  0.1339 -0.2697  0.8105
  797MOL0     H 9944   4.786   2.403  10.770 -0.1238 -0.1775  1.7262
  797MOL0     H 9945   4.775   2.471  11.112 -2.4061 -2.5791 -0.0947
  797MOL0     H 9946   4.904   2.351  11.094 -0.3997 -1.0643 -1.0093
  797MOL0     H 9947   4.755   2.347  10.999 -0.0391  0.0423 -1.8921
  797MOL0     H 9948   5.063   2.853  11.316  2.7530 -0.9859  0.0921
  797MOL0     H 9949   5.099   2.898  11.543 -1.8476  2.1834 -1.4324
  797MOL0     H 9950   5.079   2.733  11.925  0.8445  3.1867 -3.7511
  797MOL0     H 9951   4.948   2.638  11.852 -0.1077 -0.0487 -1.6903
  797MOL0     H 9952   5.094   2.437  11.825 -1.2226  0.0949 -0.4538
  797MOL0     H 9953   5.237   2.541  11.884  0.4333  1.7362  0.9959
  797MOL0     H 9954   5.095   2.561  12.099 -0.7468  0.5314 -1.7873
  797MOL0     H 9955   5.148   2.395  12.065  0.4321 -0.2016 -1.6143
  797MOL0     H 9956   4.930   2.337  11.962  3.5124  0.4597 -1.2743
  797MOL0     H 9957   4.869   2.494  12.025 -1.0476 -1.3633  0.6285
  797MOL0     H 9958   4.999   2.301  12.212 -1.7260 -1.4133  1.1949
  797MOL0     H 9959   4.914   2.451  12.246  1.8576 -1.3092  1.1277
  797MOL0     H 9960   4.797   2.213  12.093  1.8035 -1.8419  2.5926
  797MOL0     H 9961   4.699   2.348  12.157  0.7449  2.0280 -1.6906
  797MOL0     H 9962   4.863   2.185  12.345 -0.2253  0.0907  0.1434
  797MOL0     H 9963   4.695   2.147  12.298 -0.6472  0.8230  0.4128
  797MOL0     H 9964   4.607   2.333  12.400 -0.4038 -0.1841  3.5382
  797MOL0     H 9965   4.762   2.415  12.407 -0.7648  0.9441 -1.9188
  797MOL0     H 9966   4.965   2.491  11.650  0.8450 -2.1571 -0.3246
  797MOL0     H 9967   4.918   2.454  11.413 -1.2620  0.9998 -4.0113
  797MOL0     H 9968   5.114   2.760  10.885 -0.0869 -1.9384  0.6716
  797MOL0     H 9969   5.056   2.711  10.645 -1.2066  0.0941 -0.6377
  797MOL0     H 9970   5.152   3.668  10.809 -2.2901  1.1135 -0.5375
  797MOL0     H 9971   5.300   3.781  10.995  2.8030 -0.5720 -1.1422
  797MOL0     H 9972   5.454   4.097  11.203  0.2794 -2.8364  2.2471
  797MOL0     H 9973   5.594   4.210  11.358 -1.4083 -0.6501 -0.1899
  797MOL0     H 9974   5.728   4.187  11.510 -0.2704  0.4245 -0.8180
  797MOL0     H 9975   5.899   4.237  11.568  0.4964 -0.2345 -0.2831
  797MOL0     H 9976   5.710   4.405  11.570 -1.6238 -3.0568  0.6675
  797MOL0     H 9977   5.707   4.407  11.400 -0.9301  4.0405  1.0100
  797MOL0     H 9978   5.983   4.459  11.533 -0.1613 -0.0897  0.5065
  797MOL0     H 9979   5.917   4.482  11.372 -0.3526 -1.6332  0.0527
  797MOL0     H 9980   5.952   4.681  11.528 -0.4101  3.3311  1.7012
  797MOL0     H 9981   5.849   4.607  11.644 -3.4343 -5.0413 -1.2770
  797MOL0     H 9982   5.575   4.776  11.349 -0.6157 -3.0740 -1.1169
  797MOL0     H 9983   5.944   4.081  11.168 -0.4586 -0.9460  1.7512
  797MOL0     H 9984   5.915   4.064  10.903  2.3514 -0.8166  3.9219
  797MOL0     H 9985   5.868   3.889  10.932  1.4321  0.4765 -0.1294
  797MOL0     H 9986   5.759   3.986  10.846 -2.1018 -2.9509  2.0563
  798MOL0     O 9987   1.836  10.578   6.307 -0.7526  0.1271  0.2585
  798MOL0     C 9988   1.799  10.638   6.408  0.3092  0.7216  0.2602
  798MOL0     O 9989   1.677  10.678   6.442 -0.2942 -0.6551  0.0165
  798MOL0     C 9990   1.574  10.664   6.361  0.7506  0.0251 -0.6851
  798MOL0     C 9991   1.494  10.773   6.342 -0.7986 -0.8054  0.1319
  798MOL0     C 9992   1.377  10.762   6.269  0.1828  0.1971 -0.1105
  798MOL0     C 9993   1.328  10.632   6.223 -1.0383  1.3904  0.3791
  798MOL0     O 9994   1.208  10.628   6.162  0.2259  1.4063  0.1469
  798MOL0     C 9995   1.166  10.510   6.106  0.7965  0.7719  0.4420
  798MOL0     C 9996   1.022  10.529   6.058 -0.7389  0.3267  0.7416
  798MOL0     C 9997   0.924  10.574   6.173  0.1734  0.4296  0.4722
  798MOL0     C 9998   0.780  10.572   6.127 -1.0541  0.6322 -0.7929
  798MOL0     C 9999   0.690  10.639   6.240  0.4838 -0.2812 -0.5481
  798MOL0     C10000   0.551  10.637   6.195  0.7811 -0.4302 -0.4980
  798MOL0     C10001   0.486  10.504   6.186 -1.1321  0.1036 -0.5236
  798MOL0     C10002   0.456  10.446   6.036  0.0295  0.5584 -0.4153
  798MOL0     N10003   0.348  10.535   5.974  0.3775  0.1612  0.3375
  798MOL0     C10004   0.234  10.589   6.031  0.4151 -1.0717 -0.2177
  798MOL0     C10005   0.191  10.675   5.941 -0.4352  0.4150 -0.2714
  798MOL0     C10006   0.055  10.734   5.928  0.6987  0.6919 -0.5553
  798MOL0     C10007   0.055  10.882   5.958 -0.5586 -0.0634 -0.4059
  798MOL0     C10008  -0.076  10.957   5.969  0.7839  1.2817  0.7909
  798MOL0     C10009  -0.072  11.108   6.007  0.3141 -0.5219  0.6885
  798MOL0     O10010   0.040  11.168   5.941 -0.1740 -0.1857  0.5342
  798MOL0     C10011   0.109  11.264   6.016  0.6448  0.3368  0.2418
  798MOL0     C10012   0.234  11.302   5.968 -0.1657  0.1712  1.1471
  798MOL0     C10013   0.320  11.388   6.024 -0.0339 -1.1015  0.3600
  798MOL0     C10014   0.457  11.399   5.954  0.1257 -0.3244  0.2867
  798MOL0     C10015   0.282  11.460   6.135  0.2322  0.4811 -0.0090
  798MOL0     C10016   0.366  11.556   6.222 -1.0041  0.6704 -0.3379
  798MOL0     O10017   0.500  11.541   6.203 -0.0340 -0.0674 -0.5811
  798MOL0     C10018   0.587  11.590   6.294 -0.8871 -0.2165 -0.6862
  798MOL0     C10019   0.632  11.506   6.398  0.0993  0.3570  0.0590
  798MOL0     C10020   0.721  11.561   6.499 -0.0400  0.3297  0.1003
  798MOL0     C10021   0.773  11.690   6.491 -0.3963  1.1172  0.4167
  798MOL0     O10022   0.857  11.746   6.585  0.9001  0.5299 -0.7167
  798MOL0     C10023   0.806  11.747   6.719  0.4575  0.9740  0.0255
  798MOL0     C10024   0.694  11.858   6.733  0.0154  0.4832  1.2710
  798MOL0     C10025   0.766  11.988   6.774 -0.8179 -0.0672 -0.0924
  798MOL0     C10026   0.676  12.114   6.741  0.8129  0.4178  0.2127
  798MOL0     C10027   0.755  12.242   6.743  0.0014 -0.0992 -0.3692
  798MOL0     C10028   0.681  12.352   6.670  0.1043  0.1139  0.1769
  798MOL0     C10029   0.753  12.487   6.699  1.0897 -0.1009 -0.5706
  798MOL0     C10030   0.668  12.580   6.801  0.2870 -0.2980 -0.3563
  798MOL0    Cl10031   0.752  12.737   6.821 -0.1350  0.2969  0.1219
  798MOL0     C10032   0.732  11.773   6.385 -0.3060  1.0250  0.7481
  798MOL0     C10033   0.641  11.725   6.285 -0.4879 -0.4377  0.5141
  798MOL0     O10034   0.312  11.638   6.284 -0.2843 -0.2134  0.3885
  798MOL0     C10035   0.157  11.426   6.188  0.1043 -0.1441 -0.6369
  798MOL0     C10036   0.073  11.328   6.133  0.6118 -0.1354  0.0488
  798MOL0     N10037   0.281  10.694   5.845 -0.4374  0.5913  0.3809
  798MOL0     N10038   0.374  10.604   5.857 -0.5754  0.3087  0.1416
  798MOL0     C10039   1.417  10.523   6.249  1.1305 -0.4240  0.1705
  798MOL0     C10040   1.536  10.545   6.316  0.3821  0.0502 -0.1987
  798MOL0     C10041   1.898  10.641   6.512 -0.3621  0.1779  0.1336
  798MOL0     C10042   1.963  10.527   6.552  1.7068 -0.4531 -0.2692
  798MOL0     C10043   2.064  10.529   6.655 -0.3709 -0.1657  0.7437
  798MOL0     C10044   2.101  10.655   6.708 -0.5984  0.3316 -0.7302
  798MOL0     O10045   2.202  10.645   6.805  0.0589 -0.0182 -0.3898
  798MOL0     C10046   2.241  10.765   6.867  0.5309 -0.3702 -0.9784
  798MOL0     C10047   2.144  10.820   6.976  0.4379  0.0114  1.0616
  798MOL0     C10048   2.161  10.732   7.104  1.0172 -0.1300  0.0106
  798MOL0     C10049   2.289  10.759   7.188  0.1860 -0.1189 -0.1950
  798MOL0     C10050   2.277  10.891   7.267  0.0531  0.2813 -0.0946
  798MOL0     C10051   2.274  10.992   7.337 -0.2412  0.6017 -0.2964
  798MOL0     C10052   2.033  10.765   6.672 -0.1402  0.1745  0.3648
  798MOL0     C10053   1.931  10.763   6.571 -0.8835  0.0188 -0.5169
  798MOL0     C10054   1.890  10.905   6.531  0.5099  0.4884  0.3173
  798MOL0     H10055   1.518  10.875   6.369  1.2479 -0.8751 -1.2305
  798MOL0     H10056   1.314  10.849   6.259  0.4760  0.2778 -1.6374
  798MOL0     H10057   1.170  10.420   6.169 -1.1075  0.3079 -0.0277
  798MOL0     H10058   1.223  10.478   6.018 -0.4375  0.3914 -0.2497
  798MOL0     H10059   1.035  10.610   5.985  1.5394 -0.6527  0.0010
  798MOL0     H10060   0.980  10.438   6.014  1.5686 -0.6898  0.4968
  798MOL0     H10061   0.936  10.512   6.263 -0.9988 -3.1347 -1.6125
  798MOL0     H10062   0.947  10.676   6.203 -0.6415  0.9230 -0.5071
  798MOL0     H10063   0.766  10.614   6.027 -3.3702 -1.2650 -1.3717
  798MOL0     H10064   0.749  10.467   6.122 -0.8255  0.3699  1.8066
  798MOL0     H10065   0.714  10.744   6.258  0.5188 -0.3242 -0.3404
  798MOL0     H10066   0.701  10.590   6.337 -1.1203 -0.3298 -0.3633
  798MOL0     H10067   0.500  10.691   6.275  1.2293 -0.2201 -0.3497
  798MOL0     H10068   0.539  10.695   6.103  2.4458  1.8803  0.6349
  798MOL0     H10069   0.391  10.501   6.241 -0.2704 -1.4102  0.9819
  798MOL0     H10070   0.558  10.432   6.226 -0.1565  0.2050 -2.0000
  798MOL0     H10071   0.553  10.432   5.987  1.0075  0.1161  1.5729
  798MOL0     H10072   0.419  10.343   6.043 -0.2190  0.7094  0.5350
  798MOL0     H10073   0.172  10.549   6.110 -1.2294  1.6877  0.0022
  798MOL0     H10074  -0.026  10.683   5.982 -0.8764  1.7929 -1.7472
  798MOL0     H10075   0.017  10.738   5.826 -0.7128  3.8922 -0.0337
  798MOL0     H10076   0.117  10.897   6.047 -0.0871  0.4437 -0.8117
  798MOL0     H10077   0.104  10.934   5.875  1.7018  2.0459  2.0631
  798MOL0     H10078  -0.124  10.954   5.871  1.8802  0.3470  0.2640
  798MOL0     H10079  -0.135  10.898   6.040 -0.9839  0.1227 -1.4919
  798MOL0     H10080  -0.160  11.164   5.975  1.3553  0.1973 -1.0607
  798MOL0     H10081  -0.058  11.108   6.116  1.4114  1.0494  0.5868
  798MOL0     H10082   0.258  11.256   5.873 -0.6982  0.7823  0.7121
  798MOL0     H10083   0.506  11.497   5.960 -3.9442  2.1124 -1.3903
  798MOL0     H10084   0.430  11.381   5.850 -2.5032 -0.2238  0.8593
  798MOL0     H10085   0.523  11.321   5.992 -0.8328 -0.4470  1.7946
  798MOL0     H10086   0.586  11.408   6.407  1.3112 -0.1852  0.5396
  798MOL0     H10087   0.750  11.489   6.575  2.1356 -0.3014 -1.2171
  798MOL0     H10088   0.757  11.651   6.737  0.6739  0.7727 -0.4652
  798MOL0     H10089   0.889  11.766   6.788 -0.0745  0.0419  0.9430
  798MOL0     H10090   0.636  11.888   6.646 -1.4334  0.5206  2.2122
  798MOL0     H10091   0.630  11.818   6.812  0.3218 -1.2123  0.6952
  798MOL0     H10092   0.853  11.997   6.708  0.3154  0.5470  1.4100
  798MOL0     H10093   0.797  11.986   6.879 -0.7501  1.8112 -0.0406
  798MOL0     H10094   0.594  12.117   6.813  1.0872  1.5299  0.5003
  798MOL0     H10095   0.615  12.103   6.651  1.5559 -0.0138 -0.2527
  798MOL0     H10096   0.748  12.255   6.851 -4.7035 -0.8637 -0.3638
  798MOL0     H10097   0.854  12.224   6.701  0.4503 -2.2774  1.4390
  798MOL0     H10098   0.576  12.369   6.697  0.1730  0.1013  0.4452
  798MOL0     H10099   0.683  12.338   6.561 -2.2159 -1.5317  0.2869
  798MOL0     H10100   0.760  12.546   6.607 -0.1749 -2.4155 -2.2527
  798MOL0     H10101   0.854  12.471   6.739 -0.0290  1.0568  3.0057
  798MOL0     H10102   0.667  12.521   6.893  1.1792  1.5824  0.9232
  798MOL0     H10103   0.563  12.594   6.771  0.2742 -2.6544 -1.6899
  798MOL0     H10104   0.789  11.866   6.379 -2.1321  2.1278 -0.7482
  798MOL0     H10105   0.618  11.799   6.209  1.2060  0.8500  1.1913
  798MOL0     H10106   0.127  11.478   6.279 -0.3355  1.4869 -1.6858
  798MOL0     H10107  -0.023  11.313   6.180  0.6364  0.0668  0.1645
  798MOL0     H10108   1.387  10.428   6.204  0.8557  0.5533 -1.8308
  798MOL0     H10109   1.604  10.461   6.329  0.9136  0.4596 -0.3068
  798MOL0     H10110   1.937  10.440   6.491  1.0590  0.0644 -0.7514
  798MOL0     H10111   2.111  10.436   6.686 -0.6782 -1.1026 -1.4165
  798MOL0     H10112   2.332  10.736   6.921  1.8268 -0.4599 -3.1050
  798MOL0     H10113   2.267  10.840   6.791  1.7150  0.7906  0.4941
  798MOL0     H10114   2.039  10.809   6.947  0.5611 -2.0307  1.2686
  798MOL0     H10115   2.163  10.923   7.008 -2.4174  1.2963 -0.8981
  798MOL0     H10116   2.080  10.739   7.177 -1.5615 -1.7266 -2.4607
  798MOL0     H10117   2.172  10.628   7.072  0.1419 -0.2291 -0.0136
  798MOL0     H10118   2.382  10.755   7.132 -0.2519  1.1795 -1.0464
  798MOL0     H10119   2.298  10.670   7.252 -0.4157 -0.1019 -0.0799
  798MOL0     H10120   2.283  11.081   7.395  1.9120  1.1729 -1.3793
  798MOL0     H10121   2.068  10.859   6.714  0.6527 -0.0229  0.1613
  798MOL0     H10122   1.939  10.947   6.443 -1.8719  1.1160 -0.7908
  798MOL0     H10123   1.789  10.887   6.494  0.2538  0.4798  1.0029
  798MOL0     H10124   1.894  10.975   6.615 -3.3336  0.7264  0.4763
  799MOL0     O10125   6.680   9.858   8.301  0.1422 -0.2754 -0.3352
  799MOL0     C10126   6.586   9.932   8.281 -0.3162  0.1548  0.2460
  799MOL0     O10127   6.518   9.999   8.378 -0.6901  0.2688  0.1644
  799MOL0     C10128   6.558   9.975   8.506  0.8259 -0.4377  0.5180
  799MOL0     C10129   6.576  10.090   8.589  0.0852 -0.4062 -0.1506
  799MOL0     C10130   6.598  10.077   8.725 -0.6257 -0.7373  0.9925
  799MOL0     C10131   6.583   9.950   8.781  0.3213 -0.9077  0.4708
  799MOL0     O10132   6.573   9.929   8.921 -0.4981  0.6313  0.2722
  799MOL0     C10133   6.441   9.966   8.974 -0.6539 -0.5052 -0.4219
  799MOL0     C10134   6.396   9.843   9.069  0.2238  0.3998 -0.6341
  799MOL0     C10135   6.469   9.848   9.205 -0.6057 -0.2733 -0.2738
  799MOL0     C10136   6.399   9.762   9.308 -0.6427  0.5369  0.4939
  799MOL0     C10137   6.453   9.790   9.439 -0.4313  0.3860  0.1463
  799MOL0     C10138   6.364   9.735   9.543 -0.3384  0.7555 -0.3643
  799MOL0     C10139   6.403   9.786   9.682  0.4885  0.4087 -0.3064
  799MOL0     C10140   6.541   9.730   9.749  0.2285  0.2963  0.0149
  799MOL0     N10141   6.551   9.772   9.890 -0.2517  0.5274  0.0228
  799MOL0     C10142   6.656   9.842   9.944  1.1842 -0.0977 -0.0495
  799MOL0     C10143   6.643   9.852  10.078 -0.0910 -0.5163 -0.5450
  799MOL0     C10144   6.735   9.897  10.176  0.4017 -0.5156 -0.9001
  799MOL0     C10145   6.715  10.043  10.193 -0.5011  0.7789  0.0905
  799MOL0     C10146   6.808  10.094  10.302 -0.1363 -0.2044  0.3183
  799MOL0     C10147   6.797  10.244  10.306  0.7672 -0.5697 -0.4683
  799MOL0     O10148   6.663  10.270  10.348  0.5733  0.6693 -0.6214
  799MOL0     C10149   6.635  10.396  10.386  0.4671  1.5113  0.3406
  799MOL0     C10150   6.732  10.495  10.414 -0.1588 -0.2205 -0.0890
  799MOL0     C10151   6.680  10.627  10.457 -0.7623  0.3032 -0.6002
  799MOL0     C10152   6.792  10.722  10.492 -0.3373 -0.0374  0.3764
  799MOL0     C10153   6.534  10.658  10.462 -0.8308 -0.7252  0.8692
  799MOL0     C10154   6.474  10.789  10.509 -0.6519 -0.0353  0.8321
  799MOL0     O10155   6.331  10.799  10.520 -0.4804 -0.3699 -0.2228
  799MOL0     C10156   6.288  10.922  10.546  0.2922  0.8700 -0.5109
  799MOL0     C10157   6.228  10.987  10.440 -0.0249  0.2525 -0.3615
  799MOL0     C10158   6.164  11.116  10.454 -0.0762  0.6937  0.4119
  799MOL0     C10159   6.170  11.175  10.582  0.2283  0.5055  1.2004
  799MOL0     O10160   6.092  11.293  10.608 -0.4754  0.9297  0.1167
  799MOL0     C10161   6.157  11.416  10.655  0.5246 -0.4232  0.5311
  799MOL0     C10162   6.078  11.490  10.755  0.3119 -0.6008  0.0696
  799MOL0     C10163   6.059  11.403  10.879 -0.0057  0.3050  0.3521
  799MOL0     C10164   5.997  11.469  11.003  0.0190  0.3217 -0.4344
  799MOL0     C10165   6.075  11.600  11.043 -0.3282 -0.0674 -0.0298
  799MOL0     C10166   6.018  11.666  11.173 -0.5655 -0.1044 -0.6801
  799MOL0     C10167   5.884  11.739  11.147 -0.2881  0.7241  0.6094
  799MOL0     C10168   5.850  11.846  11.258  0.4887  0.5170 -0.7315
  799MOL0    Cl10169   5.738  11.975  11.198  0.1602  0.6326  0.2707
  799MOL0     C10170   6.225  11.103  10.689  1.0508 -0.0341  0.0982
  799MOL0     C10171   6.287  10.980  10.675 -1.5894  0.2849  0.6538
  799MOL0     O10172   6.547  10.877  10.557  0.2783  1.0553  0.1812
  799MOL0     C10173   6.456  10.556  10.416  0.1191  0.0498 -0.0791
  799MOL0     C10174   6.497  10.426  10.390  0.1055  0.2292  0.7056
  799MOL0     N10175   6.535   9.770  10.101  0.3525  0.4758  0.5247
  799MOL0     N10176   6.475   9.731   9.994  0.1021  1.0065  0.3917
  799MOL0     C10177   6.556   9.831   8.696  0.1279 -0.0934 -0.7414
  799MOL0     C10178   6.542   9.846   8.563  0.2733 -0.4747 -0.8015
  799MOL0     C10179   6.545   9.969   8.147 -0.3793  0.7585  0.8155
  799MOL0     C10180   6.407   9.966   8.123  0.2231  0.5619 -0.3602
  799MOL0     C10181   6.352  10.000   8.005 -0.4236  0.1490 -0.2933
  799MOL0     C10182   6.445  10.039   7.901  0.4518 -0.6684 -0.1105
  799MOL0     O10183   6.405  10.064   7.770  0.8283  0.3075 -0.3124
  799MOL0     C10184   6.392  10.207   7.750  0.3079 -0.2254  0.0228
  799MOL0     C10185   6.277  10.224   7.652  0.2721  1.0881 -0.1114
  799MOL0     C10186   6.136  10.210   7.713 -0.2658 -0.7061  0.3644
  799MOL0     C10187   6.029  10.208   7.603 -0.5946 -0.4304 -0.2181
  799MOL0     C10188   6.015  10.343   7.544 -0.0095 -0.6443  0.1648
  799MOL0     C10189   6.010  10.453   7.495  0.1345  0.4352  0.6044
  799MOL0     C10190   6.583  10.046   7.922 -0.3940 -0.7998  1.2608
  799MOL0     C10191   6.633  10.014   8.045 -0.5330 -0.1814 -0.9431
  799MOL0     C10192   6.783  10.034   8.065  0.2992  0.0171  0.4412
  799MOL0     H10193   6.569  10.191   8.550  2.8815 -0.3186 -0.5796
  799MOL0     H10194   6.612  10.167   8.784 -0.5129  1.4672 -2.1560
  799MOL0     H10195   6.377   9.969   8.886  0.2777  0.5772 -1.0828
  799MOL0     H10196   6.440  10.065   9.021  2.4873 -1.2981  1.6927
  799MOL0     H10197   6.291   9.837   9.099  0.7166  1.2999  1.4633
  799MOL0     H10198   6.422   9.759   9.004 -3.1343  0.9190 -2.9659
  799MOL0     H10199   6.576   9.831   9.189 -0.6091  1.1500 -2.3029
  799MOL0     H10200   6.459   9.953   9.236 -1.0756 -0.3502 -0.1651
  799MOL0     H10201   6.292   9.780   9.304 -0.3089  2.3286 -1.6875
  799MOL0     H10202   6.409   9.654   9.289 -1.4006  0.2785  1.4937
  799MOL0     H10203   6.459   9.900   9.444 -0.3505  0.5126 -2.0374
  799MOL0     H10204   6.552   9.745   9.446 -0.6720  0.0444  2.1303
  799MOL0     H10205   6.260   9.764   9.529 -0.7893 -0.6529 -0.1624
  799MOL0     H10206   6.369   9.628   9.569 -2.7057  1.0765  1.8687
  799MOL0     H10207   6.328   9.745   9.750  0.9994 -1.3692 -0.7474
  799MOL0     H10208   6.395   9.895   9.679 -1.3962  0.2963 -3.2134
  799MOL0     H10209   6.542   9.621   9.740 -2.6312  0.0418  1.7179
  799MOL0     H10210   6.626   9.763   9.688  1.0227  0.9820  1.4403
  799MOL0     H10211   6.733   9.887   9.881  1.2177  1.5013  1.0510
  799MOL0     H10212   6.840   9.871  10.159  0.3184 -0.5627 -1.3418
  799MOL0     H10213   6.712   9.838  10.265 -1.0436  3.2493  1.4769
  799MOL0     H10214   6.742  10.101  10.103  1.0330  4.0375  2.4429
  799MOL0     H10215   6.606  10.045  10.207 -0.4792 -1.0555  0.7054
  799MOL0     H10216   6.789  10.045  10.397  1.9278  0.5380  1.1752
  799MOL0     H10217   6.912  10.073  10.276  0.5306  0.8252  1.9793
  799MOL0     H10218   6.871  10.271  10.381 -0.0711  2.7595 -0.7034
  799MOL0     H10219   6.819  10.285  10.207 -1.6055  0.9787 -0.4129
  799MOL0     H10220   6.838  10.471  10.406  0.2199  1.3119  0.1108
  799MOL0     H10221   6.776  10.821  10.449 -0.8079 -0.3716 -0.2379
  799MOL0     H10222   6.886  10.688  10.449  0.0962  0.2183  1.1068
  799MOL0     H10223   6.803  10.730  10.601 -0.6914 -2.4692  0.6525
  799MOL0     H10224   6.227  10.945  10.340 -0.2339 -0.4756 -0.0641
  799MOL0     H10225   6.105  11.171  10.381  0.2981 -0.1752 -0.5484
  799MOL0     H10226   6.256  11.403  10.700  0.3826  0.4184  1.1172
  799MOL0     H10227   6.168  11.481  10.567 -1.6089 -0.8964 -0.1535
  799MOL0     H10228   6.132  11.582  10.778 -1.4731  0.6558 -0.5542
  799MOL0     H10229   5.981  11.508  10.708 -0.2119 -0.9840  0.9884
  799MOL0     H10230   6.156  11.379  10.922  0.3086  2.8547  1.2643
  799MOL0     H10231   6.009  11.310  10.851  1.2867 -0.0765 -0.7684
  799MOL0     H10232   5.992  11.401  11.089 -3.1483 -0.9872 -1.5115
  799MOL0     H10233   5.896  11.500  10.976  0.6145  2.9135  0.0775
  799MOL0     H10234   6.171  11.557  11.072 -1.2200 -1.9835  0.1961
  799MOL0     H10235   6.070  11.681  10.969  0.1319 -1.3538 -1.5129
  799MOL0     H10236   6.089  11.747  11.194  0.5352 -0.7766 -1.6752
  799MOL0     H10237   6.012  11.595  11.255  1.3614  1.3930  0.8720
  799MOL0     H10238   5.801  11.668  11.136 -0.2827  1.1093 -5.0255
  799MOL0     H10239   5.884  11.792  11.052  0.1259  2.3076  1.4625
  799MOL0     H10240   5.944  11.902  11.267  1.1468 -0.9098  2.6665
  799MOL0     H10241   5.820  11.805  11.355  1.5622  1.4263  0.0119
  799MOL0     H10242   6.197  11.150  10.783 -1.9957 -0.0500 -0.7056
  799MOL0     H10243   6.331  10.921  10.756 -0.6314  1.3836  0.9576
  799MOL0     H10244   6.350  10.580  10.416 -0.3897 -2.0511 -0.1093
  799MOL0     H10245   6.436  10.338  10.374  2.3002 -1.0744 -1.1589
  799MOL0     H10246   6.548   9.729   8.730  3.0020 -0.7872 -1.8797
  799MOL0     H10247   6.514   9.759   8.505  2.5946 -1.9767  0.1649
  799MOL0     H10248   6.346   9.942   8.209 -2.9102 -0.1284 -2.5810
  799MOL0     H10249   6.244   9.999   7.999 -0.5466  0.5019  1.4139
  799MOL0     H10250   6.366  10.257   7.844 -1.6671  1.0032 -1.1146
  799MOL0     H10251   6.486  10.234   7.700 -0.4205 -1.6556 -2.2806
  799MOL0     H10252   6.288  10.150   7.573  0.1867  1.9607 -0.9475
  799MOL0     H10253   6.282  10.327   7.617  2.4482  1.1469  0.2245
  799MOL0     H10254   6.131  10.129   7.786  1.0159  1.6375  3.2835
  799MOL0     H10255   6.128  10.294   7.782  3.2197 -1.3693  1.8037
  799MOL0     H10256   5.934  10.176   7.647  0.1907 -0.4730  1.5007
  799MOL0     H10257   6.052  10.144   7.517 -4.9940  1.0848 -2.8621
  799MOL0     H10258   6.000  10.539   7.433 -0.9735 -0.0823  0.0253
  799MOL0     H10259   6.645  10.079   7.839  1.5054  0.6570  3.1354
  799MOL0     H10260   6.808  10.057   8.169  0.4511  1.4446  0.1074
  799MOL0     H10261   6.832   9.936   8.064  0.8344  0.2189  2.3115
  799MOL0     H10262   6.831  10.106   7.998  0.6037 -0.3429  0.2698
  800MOL0     O10263   5.145   3.722   8.007 -0.0118  0.1199 -0.4838
  800MOL0     C10264   5.243   3.781   8.049  0.9398  0.0637  0.0166
  800MOL0     O10265   5.303   3.897   7.999  0.4442  0.6599 -0.1584
  800MOL0     C10266   5.281   3.934   7.872  0.7836  0.8577  0.2044
  800MOL0     C10267   5.146   3.934   7.813 -0.6137  0.5842  0.0318
  800MOL0     C10268   5.122   3.937   7.673 -1.1242  0.8816 -0.3871
  800MOL0     C10269   5.245   3.943   7.596  0.2196  0.2614  0.4532
  800MOL0     O10270   5.242   3.950   7.458 -0.3699  0.6274 -0.1053
  800MOL0     C10271   5.293   3.830   7.405  0.9412 -0.2337  0.5685
  800MOL0     C10272   5.377   3.852   7.284 -0.0822 -0.2352  0.5286
  800MOL0     C10273   5.531   3.873   7.313  0.6828 -0.4234 -0.2048
  800MOL0     C10274   5.635   3.851   7.196 -0.2013 -0.7031 -0.6320
  800MOL0     C10275   5.677   3.986   7.132 -0.5166  0.2022 -0.0087
  800MOL0     C10276   5.774   4.064   7.220 -0.0147 -0.5836 -0.6709
  800MOL0     C10277   5.878   4.148   7.151 -0.6980 -0.5298 -0.6874
  800MOL0     C10278   5.799   4.272   7.094 -0.4091  0.9131 -0.0210
  800MOL0     N10279   5.860   4.290   6.967 -0.3078 -0.6362  0.2758
  800MOL0     C10280   5.981   4.350   6.952 -0.8352  0.5991  0.6372
  800MOL0     C10281   6.008   4.346   6.819  0.0248 -0.0299 -0.0913
  800MOL0     C10282   6.121   4.404   6.738 -0.6578 -0.6348  0.1183
  800MOL0     C10283   6.198   4.286   6.674  0.3790  0.3451 -0.8700
  800MOL0     C10284   6.319   4.339   6.605 -0.1617 -0.3248  0.6750
  800MOL0     C10285   6.395   4.222   6.532 -0.4513 -0.3019 -0.6386
  800MOL0     O10286   6.318   4.191   6.411  0.3919  1.1770  0.2378
  800MOL0     C10287   6.335   4.255   6.288 -0.9905 -0.3957 -0.1505
  800MOL0     C10288   6.411   4.371   6.266 -0.0337  0.3083 -0.5495
  800MOL0     C10289   6.411   4.432   6.136 -0.1229 -0.5035 -0.6336
  800MOL0     C10290   6.505   4.552   6.119 -0.2833 -0.2124  0.2234
  800MOL0     C10291   6.323   4.385   6.033  0.8664  0.7960  0.2986
  800MOL0     C10292   6.288   4.474   5.911 -0.4935  1.2437  0.1419
  800MOL0     O10293   6.173   4.455   5.850 -0.5108 -0.0370 -0.4350
  800MOL0     C10294   6.132   4.510   5.730  0.0857  0.3651 -0.6142
  800MOL0     C10295   5.998   4.512   5.710 -0.8869  0.3453 -0.2719
  800MOL0     C10296   5.938   4.550   5.588 -0.2027  0.2244 -0.3212
  800MOL0     C10297   6.017   4.607   5.488  0.2647 -0.8856 -0.0260
  800MOL0     O10298   5.971   4.669   5.374 -0.8820  0.5078 -0.3403
  800MOL0     C10299   5.833   4.693   5.360 -0.3324 -0.5912 -0.5404
  800MOL0     C10300   5.809   4.787   5.234  0.6439 -0.5654 -0.3343
  800MOL0     C10301   5.807   4.938   5.289 -0.9927 -0.9367  0.6897
  800MOL0     C10302   5.953   4.988   5.312 -0.0103  0.5384  0.9345
  800MOL0     C10303   5.948   5.126   5.373 -0.0993  0.8573  0.3346
  800MOL0     C10304   6.096   5.185   5.390  0.8614  0.3721  0.3912
  800MOL0     C10305   6.098   5.319   5.460 -0.2428  0.5057 -0.4731
  800MOL0     C10306   6.238   5.369   5.499 -0.1710 -0.5360  1.0002
  800MOL0    Cl10307   6.225   5.505   5.614 -0.2689 -0.1886  0.2049
  800MOL0     C10308   6.158   4.626   5.513 -0.7141  1.2811  0.1799
  800MOL0     C10309   6.213   4.559   5.624 -0.0908  0.0679 -0.5606
  800MOL0     O10310   6.374   4.547   5.870 -0.8021 -0.2161 -0.4417
  800MOL0     C10311   6.243   4.267   6.059  0.2003 -0.3182  0.2518
  800MOL0     C10312   6.255   4.203   6.189 -0.6233  0.7527 -0.0983
  800MOL0     N10313   5.896   4.282   6.764  0.1841  0.8376 -0.4261
  800MOL0     N10314   5.808   4.245   6.850 -0.5103 -1.0745  0.4841
  800MOL0     C10315   5.377   3.965   7.649  0.7526 -0.3630  0.1610
  800MOL0     C10316   5.389   3.958   7.792  0.1341  0.5112  0.4598
  800MOL0     C10317   5.328   3.719   8.160 -0.6489  0.5896 -0.4752
  800MOL0     C10318   5.460   3.747   8.168  0.5463  0.1214 -1.2402
  800MOL0     C10319   5.550   3.680   8.268  0.3512  0.0887  0.0010
  800MOL0     C10320   5.502   3.573   8.341  0.4139  0.1555 -0.1064
  800MOL0     O10321   5.587   3.507   8.436  1.0275 -0.1024 -0.0708
  800MOL0     C10322   5.724   3.531   8.422 -0.3452 -0.1957 -0.2098
  800MOL0     C10323   5.814   3.446   8.522 -0.0905 -0.7366 -0.0185
  800MOL0     C10324   5.772   3.465   8.669 -0.5387 -0.1377  0.5551
  800MOL0     C10325   5.841   3.371   8.775  0.0458  0.0090  0.4303
  800MOL0     C10326   5.836   3.234   8.726  0.0240 -0.0552  0.2425
  800MOL0     C10327   5.848   3.118   8.688  0.4396  0.4590 -0.4064
  800MOL0     C10328   5.370   3.547   8.330  0.6054  0.8209 -0.1615
  800MOL0     C10329   5.274   3.611   8.244 -0.1459 -0.5569 -0.1070
  800MOL0     C10330   5.129   3.561   8.250 -1.3118 -0.1124  0.6000
  800MOL0     H10331   5.066   3.909   7.883 -2.2188  1.2290 -1.4865
  800MOL0     H10332   5.031   3.928   7.615 -0.8315  1.4434 -0.9444
  800MOL0     H10333   5.207   3.771   7.373 -0.1620  1.5143  0.2145
  800MOL0     H10334   5.351   3.776   7.481  1.2227  1.7053  1.7820
  800MOL0     H10335   5.371   3.763   7.221 -1.6264 -2.5299  3.6498
  800MOL0     H10336   5.335   3.942   7.238 -0.5947  0.2321  1.8838
  800MOL0     H10337   5.540   3.978   7.344  1.7933 -0.7136  0.5107
  800MOL0     H10338   5.560   3.799   7.388  0.5564 -1.6760 -1.3548
  800MOL0     H10339   5.718   3.794   7.238  0.4897  0.8748  0.2098
  800MOL0     H10340   5.603   3.785   7.114 -0.0548 -2.1290  0.4110
  800MOL0     H10341   5.587   4.045   7.113  1.1535  3.0747  0.3589
  800MOL0     H10342   5.715   3.973   7.031 -1.4455  3.1069 -0.8309
  800MOL0     H10343   5.709   4.123   7.285 -2.4448  1.3319 -4.5184
  800MOL0     H10344   5.819   3.986   7.283 -2.1206 -0.5631  0.9664
  800MOL0     H10345   5.949   4.101   7.083  3.9889  3.5965  0.7644
  800MOL0     H10346   5.942   4.197   7.225 -1.9959  4.3899 -2.4030
  800MOL0     H10347   5.694   4.248   7.074 -0.7524  1.2184  1.3184
  800MOL0     H10348   5.793   4.355   7.165 -4.3633 -0.1454  1.1169
  800MOL0     H10349   6.034   4.399   7.032  0.9253  0.8672 -0.6356
  800MOL0     H10350   6.186   4.448   6.814 -0.8089  0.2059 -0.2303
  800MOL0     H10351   6.089   4.480   6.666 -0.3840  1.5788  2.1949
  800MOL0     H10352   6.222   4.212   6.751 -0.6363  3.8457  3.1899
  800MOL0     H10353   6.133   4.243   6.597  0.1315 -2.0281  0.5902
  800MOL0     H10354   6.292   4.422   6.540 -2.5448  0.2938  2.2897
  800MOL0     H10355   6.384   4.386   6.678 -0.4502  1.1655 -0.0033
  800MOL0     H10356   6.495   4.259   6.510 -0.8481  1.0042 -0.3837
  800MOL0     H10357   6.419   4.137   6.596  2.7817  1.1449  0.2558
  800MOL0     H10358   6.473   4.413   6.344 -0.7144  1.7679 -0.7680
  800MOL0     H10359   6.558   4.553   6.024  2.0171  0.7186  1.4283
  800MOL0     H10360   6.590   4.545   6.188  1.0334  0.0581 -1.3271
  800MOL0     H10361   6.460   4.651   6.131  0.7991  0.2389  0.7661
  800MOL0     H10362   5.929   4.462   5.777 -0.6825 -1.1808 -1.1481
  800MOL0     H10363   5.830   4.539   5.579 -0.2924  1.3688 -0.8388
  800MOL0     H10364   5.774   4.602   5.350 -0.6273 -0.4695  0.0623
  800MOL0     H10365   5.791   4.743   5.447 -0.8143  0.9259 -1.5944
  800MOL0     H10366   5.891   4.772   5.163  0.1916  0.4195 -1.1028
  800MOL0     H10367   5.711   4.755   5.196  0.9620 -1.3681 -0.4875
  800MOL0     H10368   5.744   4.939   5.378  0.0107 -4.4289  1.5949
  800MOL0     H10369   5.769   5.006   5.212  0.4261  3.0250  3.1747
  800MOL0     H10370   6.000   4.997   5.214  1.5131  0.2338  1.5962
  800MOL0     H10371   6.014   4.910   5.359  1.3732  0.3734 -0.9937
  800MOL0     H10372   5.897   5.188   5.298  0.1244 -1.9895 -2.3583
  800MOL0     H10373   5.896   5.131   5.469  0.2518 -0.1383  0.5860
  800MOL0     H10374   6.159   5.199   5.302  1.6404 -0.1677  0.8478
  800MOL0     H10375   6.145   5.104   5.446  0.6737 -0.8105 -1.0859
  800MOL0     H10376   6.052   5.308   5.559 -0.0718  2.7549 -0.1079
  800MOL0     H10377   6.046   5.387   5.392 -0.0838 -0.7341 -1.8888
  800MOL0     H10378   6.288   5.394   5.404 -2.7552  1.1909 -0.0033
  800MOL0     H10379   6.293   5.284   5.541 -1.9612 -2.4584 -0.3474
  800MOL0     H10380   6.219   4.666   5.432  0.4207  0.5178  0.6275
  800MOL0     H10381   6.317   4.529   5.627 -0.4244 -1.3412 -1.9691
  800MOL0     H10382   6.181   4.237   5.975  0.1590  3.5217 -1.2843
  800MOL0     H10383   6.181   4.129   6.222 -0.9537  1.8121  1.6978
  800MOL0     H10384   5.450   3.984   7.571 -0.3022 -0.2594 -0.8175
  800MOL0     H10385   5.487   3.953   7.838 -0.5273  0.8677  1.9673
  800MOL0     H10386   5.497   3.838   8.122  3.9048  1.5837  3.4991
  800MOL0     H10387   5.650   3.724   8.269  0.7025 -0.6903 -0.4711
  800MOL0     H10388   5.768   3.511   8.324 -0.7898 -0.0703 -0.4384
  800MOL0     H10389   5.739   3.637   8.446  2.5797 -0.2673 -1.2538
  800MOL0     H10390   5.916   3.483   8.521 -0.2170 -0.3988 -0.7065
  800MOL0     H10391   5.809   3.342   8.489 -2.3175 -0.4839 -0.7082
  800MOL0     H10392   5.784   3.570   8.698  0.0210  0.1204 -0.5425
  800MOL0     H10393   5.669   3.436   8.689 -0.3657 -0.1602  1.4923
  800MOL0     H10394   5.784   3.371   8.868 -0.2160  0.2407  0.2706
  800MOL0     H10395   5.946   3.403   8.782  1.4094 -1.6829 -5.8329
  800MOL0     H10396   5.854   3.011   8.679 -2.0922  0.3210 -1.2533
  800MOL0     H10397   5.338   3.468   8.398 -2.2567 -0.0052 -2.2624
  800MOL0     H10398   5.106   3.513   8.154  0.3332  2.4899 -1.2494
  800MOL0     H10399   5.125   3.483   8.326 -1.7185 -2.0182 -1.2817
  800MOL0     H10400   5.051   3.634   8.273 -1.1848 -0.1308  1.0865
  801MOL0     O10401   2.443   1.688   9.703 -0.0770 -0.2306 -0.0442
  801MOL0     C10402   2.329   1.645   9.702  0.2047 -0.0612  0.4665
  801MOL0     O10403   2.239   1.664   9.809 -0.0650 -0.7625 -0.2138
  801MOL0     C10404   2.259   1.753   9.906 -0.0707  0.0349  0.2289
  801MOL0     C10405   2.372   1.739   9.985 -0.0457 -0.7427  0.3127
  801MOL0     C10406   2.380   1.821  10.101 -0.2912  0.5297  0.3513
  801MOL0     C10407   2.271   1.912  10.133 -0.0722  0.0625  0.4538
  801MOL0     O10408   2.277   2.001  10.245  0.9360  0.7129  0.3779
  801MOL0     C10409   2.263   1.955  10.377 -0.1573 -0.9749 -0.6210
  801MOL0     C10410   2.153   1.849  10.385  0.3995  0.7061 -0.8694
  801MOL0     C10411   2.092   1.834  10.530 -0.4206  1.1011 -0.4065
  801MOL0     C10412   1.985   1.721  10.523  0.0952  0.4312 -0.2428
  801MOL0     C10413   2.049   1.588  10.484  0.8570 -0.3700 -0.1257
  801MOL0     C10414   1.943   1.476  10.493  0.6300 -0.4868 -0.4649
  801MOL0     C10415   1.801   1.515  10.433 -0.0307  1.1350  0.4487
  801MOL0     C10416   1.716   1.388  10.418 -0.1434 -0.7545  0.2555
  801MOL0     N10417   1.600   1.417  10.331  0.8946  0.4411 -0.6576
  801MOL0     C10418   1.599   1.454  10.202 -1.2857  0.1189  0.3420
  801MOL0     C10419   1.473   1.483  10.168  1.5318 -0.3211  0.1212
  801MOL0     C10420   1.428   1.525  10.028 -0.5014 -0.3001  0.3993
  801MOL0     C10421   1.315   1.432   9.987  0.3332  0.5012  0.3605
  801MOL0     C10422   1.260   1.447   9.843  0.5009  0.0694  0.7532
  801MOL0     C10423   1.359   1.422   9.734 -0.6710  0.6630 -0.9087
  801MOL0     O10424   1.428   1.298   9.732 -0.0616  0.1699  0.8351
  801MOL0     C10425   1.351   1.196   9.666 -1.9868  0.8527 -0.3573
  801MOL0     C10426   1.389   1.157   9.538 -0.5700 -0.7359 -0.2656
  801MOL0     C10427   1.318   1.059   9.468 -0.4460 -1.2625  0.5577
  801MOL0     C10428   1.336   1.061   9.320  0.6790  0.2525 -0.1544
  801MOL0     C10429   1.226   0.974   9.533 -0.7221 -0.3261 -0.1409
  801MOL0     C10430   1.148   0.859   9.461 -0.4217 -0.2936  0.4882
  801MOL0     O10431   1.031   0.822   9.526 -0.4355  0.0598  0.2624
  801MOL0     C10432   0.938   0.734   9.483  0.7047  0.6333 -0.4062
  801MOL0     C10433   0.825   0.775   9.401  0.5622 -0.1384 -0.8606
  801MOL0     C10434   0.731   0.683   9.352  0.5610  0.0230  0.1221
  801MOL0     C10435   0.734   0.547   9.387 -0.4975  0.1876  0.3058
  801MOL0     O10436   0.633   0.454   9.350  0.0916 -0.0269  0.2545
  801MOL0     C10437   0.601   0.352   9.443 -0.5357  0.5237  0.2714
  801MOL0     C10438   0.477   0.274   9.413 -0.9752  0.1258 -0.0175
  801MOL0     C10439   0.396   0.223   9.534 -0.3697 -0.1721 -0.4898
  801MOL0     C10440   0.476   0.116   9.617  0.6622 -0.0408  0.2020
  801MOL0     C10441   0.554   0.008   9.537 -0.4811  0.4858  0.4811
  801MOL0     C10442   0.597  -0.100   9.638  0.3367  0.2907  0.4840
  801MOL0     C10443   0.708  -0.200   9.589  0.3088  0.2424 -0.1243
  801MOL0     C10444   0.769  -0.291   9.695  0.6289 -0.3823 -0.5089
  801MOL0    Cl10445   0.635  -0.395   9.769  0.1113 -0.1700  0.2278
  801MOL0     C10446   0.854   0.505   9.464 -0.1290 -0.1303 -0.4243
  801MOL0     C10447   0.949   0.600   9.506 -0.0174  0.6522 -0.0148
  801MOL0     O10448   1.191   0.816   9.356  0.0864 -0.0781  0.2847
  801MOL0     C10449   1.203   0.998   9.669 -0.5033  0.5815 -0.0106
  801MOL0     C10450   1.272   1.106   9.736  0.7586  0.5298 -0.1591
  801MOL0     N10451   1.387   1.474  10.276  0.1023 -0.5971  0.0592
  801MOL0     N10452   1.470   1.441  10.373 -0.5747  0.6565 -0.1299
  801MOL0     C10453   2.160   1.915  10.051  0.2874  0.1442 -0.8546
  801MOL0     C10454   2.161   1.846   9.932  0.1572  1.2866  0.8841
  801MOL0     C10455   2.286   1.543   9.598 -0.4222 -0.4453 -0.0737
  801MOL0     C10456   2.149   1.521   9.586 -0.6268 -0.2217 -0.5732
  801MOL0     C10457   2.086   1.433   9.500 -0.3577 -0.1334  0.1637
  801MOL0     C10458   2.163   1.357   9.418  0.4007  0.3096 -0.0949
  801MOL0     O10459   2.106   1.269   9.329 -0.2951  0.4293 -0.0504
  801MOL0     C10460   1.968   1.224   9.345  0.0981  0.3256  0.3080
  801MOL0     C10461   1.949   1.157   9.487 -0.9830  0.1509  0.5932
  801MOL0     C10462   1.821   1.081   9.478  0.5823  0.0403 -0.5541
  801MOL0     C10463   1.807   0.972   9.376 -0.4898 -0.4056 -0.4269
  801MOL0     C10464   1.715   1.008   9.264 -0.9764  0.8616 -0.8934
  801MOL0     C10465   1.632   1.028   9.179 -0.2470 -0.0849 -0.1102
  801MOL0     C10466   2.300   1.375   9.422 -0.4135 -0.7325 -0.5011
  801MOL0     C10467   2.368   1.467   9.515 -0.5140  0.5342  0.6772
  801MOL0     C10468   2.522   1.470   9.506 -0.0913 -0.0928 -0.0404
  801MOL0     H10469   2.446   1.664   9.959  3.5733  1.6673  2.6271
  801MOL0     H10470   2.477   1.817  10.151  0.8876 -0.6951 -1.8782
  801MOL0     H10471   2.237   2.049  10.427  0.8601 -0.8560 -0.2918
  801MOL0     H10472   2.361   1.923  10.413 -0.4596  0.6811  1.9193
  801MOL0     H10473   2.065   1.878  10.327  0.7274  0.7395 -1.3569
  801MOL0     H10474   2.204   1.758  10.350 -2.8481 -1.6105 -0.0122
  801MOL0     H10475   2.158   1.810  10.614  0.4159  1.1313 -1.0385
  801MOL0     H10476   2.043   1.930  10.545 -0.0535  1.0783  1.0181
  801MOL0     H10477   1.929   1.706  10.616 -1.4733 -1.8913 -1.4477
  801MOL0     H10478   1.904   1.740  10.451 -0.8403  1.5144  1.0486
  801MOL0     H10479   2.131   1.571  10.555  0.3351 -0.2959  0.5011
  801MOL0     H10480   2.092   1.593  10.383  2.7263 -1.8000  0.5305
  801MOL0     H10481   1.996   1.390  10.450  1.2931 -1.1194  1.4816
  801MOL0     H10482   1.933   1.454  10.600 -3.2039  2.9327  0.0996
  801MOL0     H10483   1.828   1.557  10.336  1.8934  0.1868  0.5241
  801MOL0     H10484   1.759   1.578  10.511 -0.0792 -0.6868  1.9512
  801MOL0     H10485   1.777   1.312  10.369  1.9758  0.6478  0.5541
  801MOL0     H10486   1.685   1.343  10.513 -0.6746  2.3980  1.7211
  801MOL0     H10487   1.681   1.476  10.134 -1.9645  3.2875  0.3924
  801MOL0     H10488   1.518   1.506   9.969  1.6782 -2.7470  4.0755
  801MOL0     H10489   1.396   1.629  10.037  1.9842  0.4361  1.4980
  801MOL0     H10490   1.344   1.327   9.992 -0.2752  0.3131  0.0695
  801MOL0     H10491   1.230   1.444  10.054 -1.1436  0.4230 -1.4112
  801MOL0     H10492   1.179   1.377   9.821  2.1106 -1.8074  0.5711
  801MOL0     H10493   1.222   1.549   9.827 -2.6980 -1.6288 -5.2364
  801MOL0     H10494   1.318   1.445   9.635  2.5025  1.1363 -2.2275
  801MOL0     H10495   1.442   1.493   9.746  1.2118 -1.3348 -1.4813
  801MOL0     H10496   1.463   1.209   9.477  0.6032 -2.8326 -0.7363
  801MOL0     H10497   1.242   1.039   9.268  0.6619  2.2433 -1.0485
  801MOL0     H10498   1.410   0.981   9.311 -0.8577 -1.2377 -0.1248
  801MOL0     H10499   1.383   1.148   9.274 -0.4083 -1.3191 -4.7140
  801MOL0     H10500   0.814   0.877   9.368 -0.9830  0.6753  1.8704
  801MOL0     H10501   0.651   0.721   9.289 -1.6352  0.3182  2.9189
  801MOL0     H10502   0.680   0.277   9.443 -1.8958 -1.0618  3.2573
  801MOL0     H10503   0.597   0.397   9.543 -1.1451 -2.3483  1.6310
  801MOL0     H10504   0.418   0.342   9.352 -1.3407 -1.7439 -1.8684
  801MOL0     H10505   0.505   0.195   9.342 -0.7954  1.9162 -2.0146
  801MOL0     H10506   0.304   0.179   9.496  0.0757  0.1474 -1.9966
  801MOL0     H10507   0.358   0.304   9.598 -0.9818 -1.2716  0.5887
  801MOL0     H10508   0.396   0.061   9.668 -0.4654  1.5332  0.1868
  801MOL0     H10509   0.551   0.163   9.681  3.9613 -1.6761 -2.1692
  801MOL0     H10510   0.499  -0.032   9.452  0.9255 -0.7342  0.1103
  801MOL0     H10511   0.644   0.052   9.495 -1.0554  0.5135 -0.7616
  801MOL0     H10512   0.512  -0.164   9.665  0.1701  0.1324 -0.3597
  801MOL0     H10513   0.622  -0.038   9.724 -2.7048  2.2356  0.1359
  801MOL0     H10514   0.793  -0.142   9.552 -0.5153  2.1679  0.8622
  801MOL0     H10515   0.665  -0.259   9.507 -2.5391  1.1378  0.6160
  801MOL0     H10516   0.823  -0.231   9.768 -0.9343 -0.8265  1.0828
  801MOL0     H10517   0.836  -0.360   9.642  0.7960 -1.5710  1.1648
  801MOL0     H10518   0.869   0.401   9.493 -0.2115 -0.5632 -1.8613
  801MOL0     H10519   1.027   0.567   9.574  0.0511  1.5217  0.3313
  801MOL0     H10520   1.137   0.925   9.714 -0.1716 -0.7178 -1.5688
  801MOL0     H10521   1.265   1.127   9.842 -0.2255  2.6237 -0.5899
  801MOL0     H10522   2.079   1.980  10.080 -0.6604 -1.3913  0.1043
  801MOL0     H10523   2.077   1.844   9.863 -0.2491  0.2694  1.3906
  801MOL0     H10524   2.081   1.579   9.647  0.8789  0.2637  0.6734
  801MOL0     H10525   1.978   1.436   9.497 -0.4591  0.4462  2.4287
  801MOL0     H10526   1.896   1.305   9.330 -0.2578  0.0432  0.4731
  801MOL0     H10527   1.947   1.156   9.262 -0.3016  0.1772  0.5262
  801MOL0     H10528   1.942   1.223   9.574 -0.8348  2.0291 -0.7516
  801MOL0     H10529   2.031   1.085   9.490 -1.7927 -0.8605 -0.3905
  801MOL0     H10530   1.788   1.040   9.575 -0.6381  2.2666  0.0379
  801MOL0     H10531   1.747   1.161   9.466 -1.3952 -1.5872  0.1352
  801MOL0     H10532   1.767   0.883   9.424 -1.8252  2.0550  3.4754
  801MOL0     H10533   1.913   0.950   9.357  0.1730  1.0282  1.3296
  801MOL0     H10534   1.556   1.049   9.106 -1.2203  0.1012  0.9328
  801MOL0     H10535   2.361   1.324   9.348 -0.1488 -0.9903 -0.1082
  801MOL0     H10536   2.558   1.534   9.425  1.0063 -2.3355 -1.4077
  801MOL0     H10537   2.555   1.499   9.606 -3.2391  1.6045  0.6281
  801MOL0     H10538   2.556   1.371   9.477  1.8459  0.9909 -1.7677
  802MOL0     O10539  10.980   5.036  10.403  0.1695 -0.2933  0.2025
  802MOL0     C10540  10.994   5.089  10.293 -0.4233 -0.9513  0.3337
  802MOL0     O10541  11.113   5.143  10.259 -0.9931 -0.6496 -0.0406
  802MOL0     C10542  11.118   5.282  10.277 -1.0648  0.4167 -0.3172
  802MOL0     C10543  11.032   5.355  10.366 -0.3662 -0.0807 -0.8530
  802MOL0     C10544  11.041   5.491  10.372 -0.2760 -0.6386 -0.4984
  802MOL0     C10545  11.131   5.567  10.297 -0.1706  0.7390 -0.2315
  802MOL0     O10546  11.138   5.706  10.285  0.0610 -0.3641  0.3213
  802MOL0     C10547  11.104   5.782  10.402 -0.6363  0.3308 -0.5151
  802MOL0     C10548  11.106   5.937  10.387  0.2740  0.4027  0.7811
  802MOL0     C10549  11.233   6.010  10.436  0.7074  0.5092  0.6123
  802MOL0     C10550  11.226   6.160  10.404 -0.7344  0.6972 -0.2860
  802MOL0     C10551  11.349   6.238  10.449  0.2536  0.3605 -0.1129
  802MOL0     C10552  11.369   6.370  10.363  0.0269  0.2543  0.3120
  802MOL0     C10553  11.445   6.484  10.451 -0.0424 -0.1648 -0.3871
  802MOL0     C10554  11.591   6.456  10.463 -0.3421  0.8685  0.6938
  802MOL0     N10555  11.660   6.558  10.549  0.0076 -0.0542  0.5575
  802MOL0     C10556  11.785   6.550  10.608  0.3310 -1.0001  0.5260
  802MOL0     C10557  11.805   6.665  10.679 -0.5102  0.6485  0.5569
  802MOL0     C10558  11.923   6.705  10.779 -0.5056  0.4111 -0.2021
  802MOL0     C10559  12.059   6.643  10.740  0.4831 -0.4310  0.0517
  802MOL0     C10560  12.177   6.712  10.814  0.1775 -0.0441  0.2544
  802MOL0     C10561  12.186   6.692  10.961  0.1487  0.5163  0.2926
  802MOL0     O10562  12.205   6.547  10.985  0.0760  0.3370  0.0904
  802MOL0     C10563  12.330   6.510  11.009 -1.2703 -0.1761 -1.0529
  802MOL0     C10564  12.449   6.585  11.025 -0.0763 -0.6800 -0.0567
  802MOL0     C10565  12.577   6.532  11.030 -0.5973 -0.4189  0.6414
  802MOL0     C10566  12.698   6.625  11.030  0.8141  0.2051  0.0398
  802MOL0     C10567  12.589   6.396  11.039 -0.3442 -0.2508 -0.0326
  802MOL0     C10568  12.719   6.324  11.055  0.0085  0.2047 -0.2694
  802MOL0     O10569  12.831   6.371  11.123 -0.0474  0.5997 -0.6692
  802MOL0     C10570  12.948   6.308  11.097 -0.7879  0.7620  0.8184
  802MOL0     C10571  12.972   6.186  11.161 -0.1186  0.4216 -0.1826
  802MOL0     C10572  13.094   6.132  11.152  0.2300  0.0282  0.0209
  802MOL0     C10573  13.189   6.175  11.063  0.8797 -1.0822  0.5376
  802MOL0     O10574  13.297   6.093  11.043  0.0426  0.2654 -0.1922
  802MOL0     C10575  13.401   6.150  10.962  1.4244  0.6628  0.4279
  802MOL0     C10576  13.486   6.255  11.042 -1.4263 -0.0042 -0.1903
  802MOL0     C10577  13.542   6.206  11.174  0.0309 -0.1164  0.7740
  802MOL0     C10578  13.437   6.208  11.282 -0.7432 -0.6771  0.2136
  802MOL0     C10579  13.505   6.194  11.421  0.5051 -0.2871  0.0175
  802MOL0     C10580  13.399   6.220  11.525  1.0449  0.1604 -0.1762
  802MOL0     C10581  13.343   6.362  11.531 -1.0302  0.1571  1.0766
  802MOL0     C10582  13.196   6.352  11.567 -0.2868 -0.6874  0.9346
  802MOL0    Cl10583  13.102   6.338  11.412  0.2556 -0.1944  0.2326
  802MOL0     C10584  13.167   6.291  10.987 -0.4870  0.1285  0.2201
  802MOL0     C10585  13.051   6.360  11.015  0.2799 -0.5609  0.1621
  802MOL0     O10586  12.716   6.217  10.997  0.5616  0.4604  0.8973
  802MOL0     C10587  12.472   6.319  11.035  0.0100 -0.2245 -0.1931
  802MOL0     C10588  12.351   6.377  11.007  0.4936 -0.1151 -0.7426
  802MOL0     N10589  11.681   6.732  10.673  0.3316 -0.2482  0.6284
  802MOL0     N10590  11.596   6.670  10.597 -0.3840  1.1490 -0.2790
  802MOL0     C10591  11.206   5.496  10.204  1.2230  1.0650  0.3783
  802MOL0     C10592  11.203   5.352  10.190 -0.4803  0.8439 -0.8108
  802MOL0     C10593  10.892   5.039  10.194 -0.4954 -0.5258  0.1299
  802MOL0     C10594  10.770   4.991  10.246 -0.3700  0.5882 -0.4270
  802MOL0     C10595  10.666   4.953  10.166 -0.3176  1.2918 -0.6038
  802MOL0     C10596  10.670   4.970  10.025 -0.0226  0.0407 -0.3576
  802MOL0     O10597  10.576   4.923   9.938 -0.2170  0.0764  0.4896
  802MOL0     C10598  10.449   4.873   9.989 -0.7642 -0.8138  0.1857
  802MOL0     C10599  10.456   4.728  10.048  0.2860  0.6507 -0.6115
  802MOL0     C10600  10.502   4.633   9.928 -0.2098 -0.2893 -0.2689
  802MOL0     C10601  10.505   4.475   9.949 -0.1495 -1.5190 -0.8547
  802MOL0     C10602  10.372   4.414   9.914  0.7771  0.6498  1.1006
  802MOL0     C10603  10.271   4.359   9.890 -0.0259  0.1730  0.1159
  802MOL0     C10604  10.795   5.007   9.971  1.1807  0.4791 -0.4668
  802MOL0     C10605  10.899   5.040  10.056 -0.4153 -0.1672 -0.5932
  802MOL0     C10606  11.027   5.048   9.976 -0.8771 -0.0277 -0.1526
  802MOL0     H10607  10.946   5.319  10.421  0.4715  1.3225  1.5555
  802MOL0     H10608  10.972   5.545  10.435  0.8932 -0.5180  0.7193
  802MOL0     H10609  11.172   5.756  10.484  2.9690  3.3397 -2.2210
  802MOL0     H10610  11.002   5.754  10.426 -1.5008  1.6008 -2.4473
  802MOL0     H10611  11.083   5.964  10.283 -0.3501  0.8480  1.0300
  802MOL0     H10612  11.021   5.981  10.441 -1.7494  1.7461 -3.1071
  802MOL0     H10613  11.241   6.004  10.545 -1.6498  0.7153  0.8411
  802MOL0     H10614  11.329   5.966  10.406  1.2000  0.1500  2.5585
  802MOL0     H10615  11.208   6.172  10.297  1.3388 -1.0749 -0.8998
  802MOL0     H10616  11.143   6.213  10.451 -0.2485  0.2367  1.1294
  802MOL0     H10617  11.429   6.164  10.439 -0.8431 -0.6974 -1.4958
  802MOL0     H10618  11.334   6.261  10.555 -2.0459  4.4440 -1.1152
  802MOL0     H10619  11.413   6.345  10.266  1.0571  1.9590  0.2895
  802MOL0     H10620  11.269   6.413  10.368  0.7171  1.8340  1.8589
  802MOL0     H10621  11.398   6.489  10.550 -1.3232  0.5069 -0.9947
  802MOL0     H10622  11.434   6.581  10.402 -0.8256 -0.4808 -0.8667
  802MOL0     H10623  11.612   6.357  10.504 -1.3158  0.3125 -0.1169
  802MOL0     H10624  11.638   6.461  10.364 -1.0234  2.1536  0.4133
  802MOL0     H10625  11.865   6.478  10.616  2.2946  1.1355  1.4322
  802MOL0     H10626  11.890   6.661  10.873 -0.9856 -2.1989 -1.4888
  802MOL0     H10627  11.936   6.813  10.783  2.2809  0.1163  2.7722
  802MOL0     H10628  12.051   6.537  10.763 -2.7440 -0.4252 -0.6174
  802MOL0     H10629  12.081   6.667  10.635  0.0178 -1.2895 -0.2499
  802MOL0     H10630  12.273   6.685  10.768  0.0133  2.1241 -1.5385
  802MOL0     H10631  12.176   6.820  10.798 -4.9444 -0.0491 -1.1097
  802MOL0     H10632  12.259   6.757  11.010 -0.4421  1.9053 -0.6186
  802MOL0     H10633  12.092   6.726  11.005  0.8467  2.4649  0.3549
  802MOL0     H10634  12.452   6.693  11.014  1.7208 -0.7158 -0.2983
  802MOL0     H10635  12.662   6.728  11.027 -1.1793 -0.3653  1.9951
  802MOL0     H10636  12.769   6.600  10.951 -1.0207  1.0663 -1.9672
  802MOL0     H10637  12.763   6.607  11.116  0.7844 -1.4896 -0.2451
  802MOL0     H10638  12.901   6.139  11.228  0.4833  2.2510  1.8919
  802MOL0     H10639  13.133   6.045  11.204 -2.1515 -0.8496  0.4429
  802MOL0     H10640  13.454   6.063  10.922 -4.6251 -1.7265 -3.9192
  802MOL0     H10641  13.369   6.184  10.863  0.5346 -0.9055  0.1356
  802MOL0     H10642  13.570   6.294  10.983 -2.1626  0.8272 -0.7133
  802MOL0     H10643  13.427   6.345  11.064 -0.2058  1.6409 -2.9899
  802MOL0     H10644  13.628   6.268  11.202 -0.9460  1.6144  0.1157
  802MOL0     H10645  13.583   6.105  11.166  2.0640  0.7921 -4.1548
  802MOL0     H10646  13.355   6.139  11.259 -0.2754  0.1558 -5.5409
  802MOL0     H10647  13.382   6.303  11.278  1.8487  1.0116  1.9904
  802MOL0     H10648  13.533   6.088  11.429  0.5246 -0.3910 -1.2300
  802MOL0     H10649  13.591   6.260  11.438  0.3194  0.4551 -1.6940
  802MOL0     H10650  13.438   6.190  11.622  0.4484  0.2678  0.0996
  802MOL0     H10651  13.326   6.139  11.519  0.5302  0.6188 -0.2453
  802MOL0     H10652  13.355   6.425  11.442 -0.1372  2.5377  2.7564
  802MOL0     H10653  13.398   6.422  11.605  1.2962 -0.6505  0.1147
  802MOL0     H10654  13.161   6.440  11.622  0.6489 -0.3750  1.0526
  802MOL0     H10655  13.170   6.261  11.620 -1.3395 -1.7475 -1.2790
  802MOL0     H10656  13.230   6.336  10.911 -0.1238 -0.7503 -0.0080
  802MOL0     H10657  13.039   6.459  10.973  1.9819  0.9056  2.8817
  802MOL0     H10658  12.486   6.212  11.031 -1.4556 -0.3994 -1.8828
  802MOL0     H10659  12.260   6.319  10.993 -1.2770  1.5795  2.5111
  802MOL0     H10660  11.263   5.559  10.136 -0.0496  0.6469 -1.1427
  802MOL0     H10661  11.267   5.304  10.118 -1.6623  0.1422 -1.4318
  802MOL0     H10662  10.766   4.975  10.353  2.2177 -3.9547 -0.7519
  802MOL0     H10663  10.579   4.916  10.219  0.9859 -1.5893 -0.2570
  802MOL0     H10664  10.413   4.932  10.073 -1.8188 -1.0124 -0.1197
  802MOL0     H10665  10.380   4.888   9.905 -0.3373  1.5242  0.1663
  802MOL0     H10666  10.352   4.711  10.076 -0.5811  2.9762 -2.0966
  802MOL0     H10667  10.510   4.715  10.142 -1.1348 -1.1057  0.0051
  802MOL0     H10668  10.435   4.658   9.845 -0.5712 -0.0358  0.0953
  802MOL0     H10669  10.607   4.656   9.909  0.9386 -3.7358  1.0773
  802MOL0     H10670  10.538   4.463  10.053  2.4068  0.2254 -1.3751
  802MOL0     H10671  10.585   4.423   9.895  1.3649 -1.8923  1.5990
  802MOL0     H10672  10.174   4.327   9.857  0.0351  1.9849 -2.1050
  802MOL0     H10673  10.808   4.996   9.864  1.9477 -3.1259 -0.1218
  802MOL0     H10674  11.111   5.006  10.032  0.7334  1.1149 -1.6230
  802MOL0     H10675  11.023   4.989   9.884  2.4827 -1.7316  0.6392
  802MOL0     H10676  11.045   5.152   9.948  2.1692 -0.2803  0.5591
  803MOL0     O10677  10.316   9.331   8.318 -0.7772  0.0538  0.2399
  803MOL0     C10678  10.310   9.434   8.385 -0.2940 -0.4469 -0.1112
  803MOL0     O10679  10.242   9.549   8.350  0.0175 -0.4123 -0.0290
  803MOL0     C10680  10.148   9.528   8.251 -0.3323 -0.3120 -0.8265
  803MOL0     C10681  10.172   9.504   8.112  0.0802 -0.1640  0.1480
  803MOL0     C10682  10.062   9.467   8.024 -0.0750  0.2798  0.6373
  803MOL0     C10683   9.933   9.459   8.072 -0.6379 -0.0064  0.1498
  803MOL0     O10684   9.824   9.424   7.988  0.0422 -1.0585 -0.1713
  803MOL0     C10685   9.845   9.297   7.911 -0.1330 -0.5015  0.0035
  803MOL0     C10686   9.733   9.198   7.947  1.0026  0.3151 -0.3085
  803MOL0     C10687   9.747   9.150   8.093 -1.0118  0.0413 -0.2765
  803MOL0     C10688   9.881   9.094   8.119 -0.1962  0.3066 -0.1594
  803MOL0     C10689   9.861   8.989   8.235  0.2284  0.7286  0.5357
  803MOL0     C10690   9.994   8.918   8.275  0.5479  0.0074  0.0513
  803MOL0     C10691   9.983   8.802   8.368  0.6131 -0.2022 -0.6360
  803MOL0     C10692  10.109   8.726   8.391  0.6910 -0.3348 -0.0981
  803MOL0     N10693  10.096   8.635   8.509 -0.4206  0.0873  0.6825
  803MOL0     C10694  10.133   8.679   8.634  0.1483  0.1120  0.1014
  803MOL0     C10695  10.124   8.566   8.706 -0.4229  0.4512 -0.2865
  803MOL0     C10696  10.161   8.558   8.845  0.8323  0.3872 -0.8151
  803MOL0     C10697  10.319   8.528   8.854  0.7272 -0.5045 -0.0973
  803MOL0     C10698  10.406   8.646   8.822 -0.6320 -0.3625 -0.0853
  803MOL0     C10699  10.437   8.756   8.942  0.6525  0.2796  0.0380
  803MOL0     O10700  10.481   8.668   9.057 -0.0890  0.1190 -0.2686
  803MOL0     C10701  10.613   8.663   9.084  0.0125  0.0746  0.4891
  803MOL0     C10702  10.685   8.778   9.119  0.9473  0.9038  0.2721
  803MOL0     C10703  10.824   8.776   9.159  0.5926  0.2606 -0.1912
  803MOL0     C10704  10.889   8.896   9.220 -0.4090 -0.0680  1.1468
  803MOL0     C10705  10.885   8.649   9.142 -0.2761 -0.2018  0.4740
  803MOL0     C10706  11.029   8.627   9.171 -0.7498 -1.1678  0.2863
  803MOL0     O10707  11.083   8.539   9.088 -0.1406 -0.2980 -0.1702
  803MOL0     C10708  11.214   8.558   9.056 -0.2990  0.3739  0.5754
  803MOL0     C10709  11.275   8.684   9.049 -0.1347  0.5463 -0.0336
  803MOL0     C10710  11.408   8.690   9.005 -0.9481 -0.1408 -0.5277
  803MOL0     C10711  11.486   8.574   8.979 -0.3576 -0.0288  0.6703
  803MOL0     O10712  11.626   8.571   8.970  0.8752 -0.2193  1.0229
  803MOL0     C10713  11.681   8.683   8.896 -0.4430 -0.6926  0.4265
  803MOL0     C10714  11.828   8.675   8.868  0.1646 -0.3635  0.4199
  803MOL0     C10715  11.838   8.601   8.732 -0.6838  0.1783  0.0536
  803MOL0     C10716  11.956   8.501   8.731 -0.3446  0.4147 -0.4338
  803MOL0     C10717  11.947   8.375   8.802  0.9392 -0.9126  0.0344
  803MOL0     C10718  12.087   8.313   8.816  0.7583 -0.2369 -1.0103
  803MOL0     C10719  12.077   8.172   8.869 -0.1668 -0.1862 -0.7873
  803MOL0     C10720  12.205   8.115   8.936  0.0856 -0.4898  0.0028
  803MOL0    Cl10721  12.328   8.078   8.817  0.1272  0.2369 -0.0812
  803MOL0     C10722  11.422   8.452   8.991 -0.1028 -0.2243 -0.8807
  803MOL0     C10723  11.289   8.447   9.037  0.0453  0.4766  0.2143
  803MOL0     O10724  11.081   8.682   9.265  0.2051 -0.7503 -1.2809
  803MOL0     C10725  10.816   8.545   9.087 -0.2183 -0.0164  1.1191
  803MOL0     C10726  10.681   8.545   9.059 -0.1540  0.6281 -1.0420
  803MOL0     N10727  10.082   8.458   8.629 -0.0165 -0.3012 -0.1845
  803MOL0     N10728  10.051   8.507   8.510 -0.5439  0.6887 -0.3712
  803MOL0     C10729   9.908   9.505   8.205  0.9374  0.4481  0.4327
  803MOL0     C10730  10.014   9.532   8.297 -0.2046 -0.3156 -0.7755
  803MOL0     C10731  10.385   9.443   8.521 -0.1692  0.6920 -0.0530
  803MOL0     C10732  10.406   9.569   8.580 -0.5550  0.4106  0.1671
  803MOL0     C10733  10.487   9.588   8.690  0.1443  0.1802 -0.5636
  803MOL0     C10734  10.528   9.484   8.763 -0.6317  0.0827  0.1759
  803MOL0     O10735  10.599   9.517   8.872 -0.5108 -0.3840 -0.0219
  803MOL0     C10736  10.662   9.415   8.952  1.1015 -0.9571 -0.6426
  803MOL0     C10737  10.742   9.464   9.063 -0.2056  0.1212  0.2396
  803MOL0     C10738  10.652   9.550   9.163  0.1717  0.8633 -0.2064
  803MOL0     C10739  10.737   9.648   9.252  0.3196 -0.4993 -0.5314
  803MOL0     C10740  10.795   9.749   9.162  0.9835 -0.0365 -0.6582
  803MOL0     C10741  10.819   9.846   9.094 -0.0979  0.4209  1.3640
  803MOL0     C10742  10.505   9.353   8.709 -0.3650  0.1460  0.3959
  803MOL0     C10743  10.433   9.330   8.597  0.1753  0.1197  0.2218
  803MOL0     C10744  10.389   9.185   8.561 -0.2895 -0.0142  1.1322
  803MOL0     H10745  10.270   9.501   8.067  0.4870 -1.1171  1.0546
  803MOL0     H10746  10.073   9.451   7.917  0.5454 -2.8049  1.0505
  803MOL0     H10747   9.942   9.248   7.918 -0.3949 -0.7991  2.8647
  803MOL0     H10748   9.840   9.324   7.805 -1.0940  1.4630  0.4892
  803MOL0     H10749   9.646   9.264   7.941 -1.8509 -3.1226  0.1938
  803MOL0     H10750   9.715   9.118   7.874 -3.7979  0.8840 -0.0747
  803MOL0     H10751   9.722   9.230   8.163  0.0838  1.3477 -1.3210
  803MOL0     H10752   9.668   9.075   8.099 -1.5862  0.6755  0.2651
  803MOL0     H10753   9.922   9.053   8.026  0.0534 -0.8704  0.4418
  803MOL0     H10754   9.939   9.168   8.175  0.1997  1.0514 -1.5139
  803MOL0     H10755   9.788   8.915   8.199 -0.2868  3.3182 -4.6099
  803MOL0     H10756   9.817   9.037   8.324  0.6833  1.4860  0.3621
  803MOL0     H10757  10.038   8.874   8.185  0.1504 -1.0251  0.3447
  803MOL0     H10758  10.057   8.996   8.319  1.6532  0.1844 -1.7418
  803MOL0     H10759   9.905   8.738   8.327  0.1777 -0.8481  1.0891
  803MOL0     H10760   9.943   8.828   8.467  0.3158 -1.4787 -0.4006
  803MOL0     H10761  10.128   8.668   8.301 -1.6863 -0.8070 -0.3403
  803MOL0     H10762  10.195   8.792   8.407 -0.8081  2.0232 -1.1939
  803MOL0     H10763  10.168   8.778   8.661  2.3663 -0.9820  1.5641
  803MOL0     H10764  10.105   8.479   8.895  0.4370  1.5474  0.6357
  803MOL0     H10765  10.133   8.651   8.894 -3.9406  1.3411 -4.6024
  803MOL0     H10766  10.342   8.476   8.948  1.2093  0.4988  0.3509
  803MOL0     H10767  10.338   8.456   8.774  0.2221 -0.0441 -0.6397
  803MOL0     H10768  10.507   8.614   8.795  0.7471  0.2686  3.6666
  803MOL0     H10769  10.369   8.698   8.733 -4.3001 -1.9173  0.3609
  803MOL0     H10770  10.512   8.829   8.910  1.4665 -0.6138 -0.1495
  803MOL0     H10771  10.353   8.812   8.983 -0.1551  0.3416 -1.6583
  803MOL0     H10772  10.628   8.869   9.104 -1.5510 -0.8033 -1.4284
  803MOL0     H10773  10.838   8.988   9.190 -0.9771 -1.3670 -2.3675
  803MOL0     H10774  10.992   8.895   9.183 -1.2881 -0.3586 -1.5145
  803MOL0     H10775  10.890   8.883   9.329  0.6579  2.4240  1.5080
  803MOL0     H10776  11.222   8.778   9.056  1.5998  1.6618 -1.0530
  803MOL0     H10777  11.440   8.792   8.987 -2.3149  0.5546  0.7460
  803MOL0     H10778  11.627   8.689   8.801 -0.3217 -0.9178  0.3421
  803MOL0     H10779  11.675   8.779   8.948  1.1358 -0.4754  0.2671
  803MOL0     H10780  11.875   8.773   8.862 -3.4472  1.8013  3.2749
  803MOL0     H10781  11.869   8.624   8.956 -1.0894 -3.8275 -0.8070
  803MOL0     H10782  11.856   8.664   8.645  0.1735  0.2063  0.2456
  803MOL0     H10783  11.747   8.542   8.720  0.4089 -1.5601 -0.0907
  803MOL0     H10784  12.047   8.549   8.769  0.7424 -1.6350 -0.2980
  803MOL0     H10785  11.976   8.490   8.624  2.7280  2.9293 -0.2576
  803MOL0     H10786  11.909   8.397   8.902  0.0410 -2.9130  0.1838
  803MOL0     H10787  11.880   8.314   8.740 -1.9649  1.8210  0.2539
  803MOL0     H10788  12.143   8.377   8.885 -0.3947 -0.0344 -0.2335
  803MOL0     H10789  12.141   8.295   8.723  2.6909 -1.1840  0.2228
  803MOL0     H10790  12.062   8.100   8.788  1.8741 -1.3307 -0.2116
  803MOL0     H10791  11.997   8.171   8.944  1.3116  0.7276  0.8613
  803MOL0     H10792  12.183   8.024   8.992 -0.5859  0.6638  1.6850
  803MOL0     H10793  12.239   8.195   9.002  1.4323  2.0532 -3.4861
  803MOL0     H10794  11.484   8.366   8.967  0.2716 -0.3943  0.5985
  803MOL0     H10795  11.247   8.348   9.049  0.6624  0.3319  1.3394
  803MOL0     H10796  10.859   8.453   9.048 -0.5961 -0.8743  2.6479
  803MOL0     H10797  10.624   8.459   9.023 -4.1001  1.3593  2.5838
  803MOL0     H10798   9.803   9.515   8.231  1.3593  1.5969  1.8436
  803MOL0     H10799  10.002   9.558   8.402  0.8471 -1.4845 -0.3438
  803MOL0     H10800  10.370   9.655   8.524 -3.7236 -0.4294  0.7242
  803MOL0     H10801  10.507   9.693   8.712  2.9183  0.0749 -2.0923
  803MOL0     H10802  10.584   9.344   8.981 -0.0066 -0.9120 -3.2454
  803MOL0     H10803  10.735   9.361   8.891 -1.4376 -3.7776 -1.4150
  803MOL0     H10804  10.827   9.519   9.022  0.1774 -1.2408 -0.8928
  803MOL0     H10805  10.792   9.383   9.115  0.2627  1.4526  1.9532
  803MOL0     H10806  10.590   9.615   9.101 -0.1523  0.4268 -0.3495
  803MOL0     H10807  10.585   9.490   9.226 -0.3927  2.1162  0.4090
  803MOL0     H10808  10.812   9.590   9.308  0.7021  2.6985  2.6557
  803MOL0     H10809  10.668   9.690   9.326 -0.4271  0.8289 -1.9368
  803MOL0     H10810  10.854   9.934   9.044 -1.1541 -1.2641 -2.7875
  803MOL0     H10811  10.548   9.265   8.756  0.2716  0.8024  1.0608
  803MOL0     H10812  10.284   9.176   8.532  0.5238 -0.6718 -1.9056
  803MOL0     H10813  10.459   9.153   8.483 -1.9729  0.3048 -0.5727
  803MOL0     H10814  10.403   9.119   8.648  1.3269 -0.5563  0.5032
  804MOL0     O10815   1.374   1.022   3.107  0.2462  0.4561  0.1710
  804MOL0     C10816   1.438   0.920   3.145  0.6822  0.5323  0.3344
  804MOL0     O10817   1.434   0.799   3.084 -0.1644  0.3415 -0.5566
  804MOL0     C10818   1.365   0.768   2.968  0.2259 -0.7901  0.3285
  804MOL0     C10819   1.436   0.768   2.853 -0.6396  0.2758  0.2565
  804MOL0     C10820   1.365   0.723   2.740 -0.6309 -0.9383 -0.1195
  804MOL0     C10821   1.232   0.697   2.736  0.2758 -0.0203 -1.4210
  804MOL0     O10822   1.180   0.654   2.625 -0.9200  0.0206 -0.4075
  804MOL0     C10823   1.065   0.721   2.578 -0.0230 -0.1851 -0.2159
  804MOL0     C10824   0.942   0.634   2.601 -0.4756  0.2452  0.2607
  804MOL0     C10825   0.814   0.702   2.558  0.0351 -0.5985 -0.3235
  804MOL0     C10826   0.762   0.814   2.647 -0.2160 -0.6439 -0.2079
  804MOL0     C10827   0.707   0.768   2.780 -0.5981 -0.2070  0.2382
  804MOL0     C10828   0.602   0.863   2.844 -0.8966 -0.2716 -0.2890
  804MOL0     C10829   0.526   0.789   2.951  0.5336 -0.4742  0.1292
  804MOL0     C10830   0.410   0.880   2.996  0.6664  0.3270  1.1956
  804MOL0     N10831   0.326   0.822   3.099  0.1863  0.7776 -0.0017
  804MOL0     C10832   0.186   0.845   3.120  0.1024 -0.5527  0.2563
  804MOL0     C10833   0.159   0.807   3.241  0.1885  1.1401 -0.5536
  804MOL0     C10834   0.014   0.808   3.294  0.1050 -0.2543  0.6062
  804MOL0     C10835  -0.001   0.747   3.439 -0.1223 -0.7515 -0.4777
  804MOL0     C10836  -0.141   0.700   3.469  0.6810 -0.8790 -0.4829
  804MOL0     C10837  -0.227   0.812   3.534 -0.4089 -0.8327 -0.0242
  804MOL0     O10838  -0.247   0.923   3.435  0.3037 -0.1119 -0.2885
  804MOL0     C10839  -0.346   1.019   3.461 -1.3628 -0.3972  0.6668
  804MOL0     C10840  -0.331   1.107   3.566  0.0008  0.1706 -0.8061
  804MOL0     C10841  -0.417   1.203   3.599  0.0942  0.5066 -0.1528
  804MOL0     C10842  -0.381   1.274   3.729  0.4076  0.4313  0.0953
  804MOL0     C10843  -0.540   1.217   3.517  0.2484  0.3413  0.4783
  804MOL0     C10844  -0.643   1.318   3.538 -1.3571 -0.3745  0.0080
  804MOL0     O10845  -0.657   1.358   3.671 -0.1884  0.0356 -0.2795
  804MOL0     C10846  -0.727   1.478   3.698  0.3799  0.1087 -0.0879
  804MOL0     C10847  -0.828   1.482   3.790  0.1813 -0.3772  0.6509
  804MOL0     C10848  -0.890   1.606   3.813 -0.0828  0.5888 -0.1437
  804MOL0     C10849  -0.847   1.730   3.756  0.5473 -0.5533 -0.3748
  804MOL0     O10850  -0.907   1.857   3.766  0.3075 -0.5908  0.4080
  804MOL0     C10851  -1.038   1.872   3.811 -0.0211  0.2283 -0.1421
  804MOL0     C10852  -1.063   2.001   3.892 -0.4424  0.0424  0.8942
  804MOL0     C10853  -0.992   1.984   4.029 -0.5732  0.5417  0.4622
  804MOL0     C10854  -1.057   2.066   4.140  0.5354 -0.3639 -0.1226
  804MOL0     C10855  -0.982   2.054   4.275 -0.2877 -0.8022 -0.0426
  804MOL0     C10856  -1.079   2.104   4.389 -0.1757  0.4371 -0.1559
  804MOL0     C10857  -0.982   2.158   4.496 -0.7745  0.0157 -0.4330
  804MOL0     C10858  -0.988   2.075   4.623  0.9146  1.0727  0.3682
  804MOL0    Cl10859  -0.921   1.914   4.597 -0.3759  0.1013  0.1084
  804MOL0     C10860  -0.728   1.728   3.686  0.0014  0.0606  0.4965
  804MOL0     C10861  -0.675   1.603   3.656 -0.6893  1.1582  0.3330
  804MOL0     O10862  -0.692   1.369   3.443  0.5842  0.2107 -0.6671
  804MOL0     C10863  -0.560   1.129   3.408  0.0709  0.2173  0.3089
  804MOL0     C10864  -0.462   1.027   3.383  0.7052  0.3941  0.2117
  804MOL0     N10865   0.269   0.750   3.297  0.0151 -1.2240 -0.2191
  804MOL0     N10866   0.375   0.756   3.221  0.6526 -0.8243 -0.0677
  804MOL0     C10867   1.163   0.701   2.863  0.6676  0.5329 -0.1382
  804MOL0     C10868   1.228   0.730   2.980  0.1612  1.0843 -0.9590
  804MOL0     C10869   1.504   0.918   3.277 -1.1207 -1.3663 -0.6944
  804MOL0     C10870   1.430   0.938   3.396 -0.3211  1.0121  0.2804
  804MOL0     C10871   1.481   0.917   3.524 -0.4200  0.1823  0.0023
  804MOL0     C10872   1.614   0.892   3.536 -0.4656  0.0809  0.1324
  804MOL0     O10873   1.665   0.886   3.664 -0.1344 -0.2476 -0.2988
  804MOL0     C10874   1.796   0.849   3.694  0.0842 -0.3345  0.5922
  804MOL0     C10875   1.789   0.774   3.827 -1.0522  0.6377 -0.6157
  804MOL0     C10876   1.934   0.737   3.869  1.0303 -0.3961  0.7694
  804MOL0     C10877   1.940   0.614   3.962 -0.0872  0.1069 -0.0984
  804MOL0     C10878   2.077   0.611   4.010 -1.3831 -0.2022  0.0345
  804MOL0     C10879   2.186   0.601   4.062 -0.3505 -0.7004  0.7750
  804MOL0     C10880   1.696   0.878   3.422 -0.2341  0.1832 -0.0091
  804MOL0     C10881   1.644   0.886   3.295  0.5609 -0.5528  1.0270
  804MOL0     C10882   1.736   0.869   3.177 -0.7192  0.2015 -0.0438
  804MOL0     H10883   1.539   0.804   2.857 -0.4575 -0.2728  0.6791
  804MOL0     H10884   1.432   0.719   2.654 -1.5887  3.7919 -1.4105
  804MOL0     H10885   1.075   0.732   2.470  1.5574 -0.6757 -0.1401
  804MOL0     H10886   1.056   0.820   2.625 -0.2506 -0.0920 -0.4487
  804MOL0     H10887   0.976   0.545   2.547  1.6300 -0.1716  2.1077
  804MOL0     H10888   0.948   0.604   2.706  0.6103  1.5818  0.6110
  804MOL0     H10889   0.818   0.734   2.454  0.3400 -0.5243 -0.2910
  804MOL0     H10890   0.739   0.623   2.562  0.1547 -0.6794  0.7868
  804MOL0     H10891   0.848   0.881   2.653 -2.7675  3.3480 -2.9468
  804MOL0     H10892   0.686   0.872   2.594 -0.5718 -2.2374 -1.5357
  804MOL0     H10893   0.784   0.759   2.858 -1.3375  0.3041  1.0490
  804MOL0     H10894   0.668   0.666   2.768 -1.4686  0.4043 -3.0567
  804MOL0     H10895   0.649   0.955   2.878  1.1948 -1.6064  0.6179
  804MOL0     H10896   0.535   0.893   2.762 -0.3498 -1.4130 -1.1892
  804MOL0     H10897   0.589   0.773   3.039 -1.0197 -2.0186  1.0254
  804MOL0     H10898   0.510   0.685   2.920  1.5343 -0.3321 -0.9051
  804MOL0     H10899   0.459   0.971   3.032 -0.1693  0.8859  0.9594
  804MOL0     H10900   0.357   0.903   2.903 -0.5629  0.0381  1.8108
  804MOL0     H10901   0.120   0.884   3.043  1.9849  0.4670 -0.9220
  804MOL0     H10902  -0.046   0.762   3.214 -0.4990 -0.5480  1.2179
  804MOL0     H10903  -0.033   0.907   3.301  0.6400 -0.0897  2.3922
  804MOL0     H10904   0.069   0.663   3.448  1.2268  0.5502  2.0268
  804MOL0     H10905   0.029   0.826   3.508 -0.3838 -1.7040  0.7644
  804MOL0     H10906  -0.194   0.663   3.381  0.2064  0.5991 -0.8564
  804MOL0     H10907  -0.141   0.623   3.546 -0.1861  0.8510  1.3413
  804MOL0     H10908  -0.326   0.778   3.566 -0.6871  1.7712  2.2357
  804MOL0     H10909  -0.165   0.860   3.610  0.5243 -1.1412 -0.5825
  804MOL0     H10910  -0.241   1.078   3.619  1.0603 -1.8688 -3.5005
  804MOL0     H10911  -0.273   1.272   3.748  1.2217  6.0473 -2.0926
  804MOL0     H10912  -0.435   1.225   3.811 -0.6616 -1.0181 -1.4144
  804MOL0     H10913  -0.411   1.377   3.711 -1.5528 -0.7804 -5.3417
  804MOL0     H10914  -0.870   1.390   3.828  2.8610 -2.5653 -1.3590
  804MOL0     H10915  -0.983   1.595   3.869  0.7373 -4.3960  0.7453
  804MOL0     H10916  -1.113   1.883   3.732 -1.2263  0.4744  0.9912
  804MOL0     H10917  -1.071   1.779   3.858  1.4713 -1.1769 -1.7820
  804MOL0     H10918  -1.029   2.080   3.824 -3.6015 -0.6546 -1.7032
  804MOL0     H10919  -1.171   2.017   3.902 -0.5370 -0.8244  1.3760
  804MOL0     H10920  -0.885   2.009   4.026 -0.3833 -0.1065 -3.1526
  804MOL0     H10921  -0.984   1.878   4.053  1.8884  0.2698 -1.1569
  804MOL0     H10922  -1.159   2.032   4.161  0.1765  0.8086  0.1234
  804MOL0     H10923  -1.051   2.172   4.111 -0.3227 -0.8915 -2.4090
  804MOL0     H10924  -0.939   1.954   4.287  1.7397 -0.1707 -1.4747
  804MOL0     H10925  -0.890   2.113   4.266  1.0782 -2.7737  0.3682
  804MOL0     H10926  -1.133   2.019   4.432  1.0560 -0.6266 -0.6457
  804MOL0     H10927  -1.149   2.183   4.360  1.1195  0.9579 -2.0927
  804MOL0     H10928  -1.016   2.255   4.535 -1.6586 -0.4333 -0.0591
  804MOL0     H10929  -0.879   2.149   4.462 -1.2670 -4.8792 -1.3080
  804MOL0     H10930  -1.087   2.068   4.669  1.0192 -1.3928  0.3703
  804MOL0     H10931  -0.926   2.138   4.687  2.0590 -0.2806  0.6453
  804MOL0     H10932  -0.676   1.816   3.649 -0.5885  0.2433  0.0934
  804MOL0     H10933  -0.587   1.616   3.594 -1.4571 -0.7534 -1.2759
  804MOL0     H10934  -0.646   1.129   3.343 -0.8912 -2.5490  1.4441
  804MOL0     H10935  -0.477   0.954   3.304 -0.6131 -1.9326  2.4760
  804MOL0     H10936   1.056   0.688   2.875  0.8192  0.8895  2.0076
  804MOL0     H10937   1.197   0.737   3.084  3.0833  1.1335  0.0040
  804MOL0     H10938   1.325   0.963   3.386  0.1364  2.9736 -0.0697
  804MOL0     H10939   1.415   0.930   3.610 -0.8309  1.2596 -0.4616
  804MOL0     H10940   1.837   0.781   3.619 -5.4380 -0.8581 -2.4938
  804MOL0     H10941   1.841   0.949   3.698  1.4147 -0.9292  0.9871
  804MOL0     H10942   1.726   0.685   3.828  1.0359 -0.9727 -1.9507
  804MOL0     H10943   1.764   0.855   3.896  0.2299  3.3976 -3.1514
  804MOL0     H10944   2.006   0.726   3.788 -0.2903  2.1563 -0.8659
  804MOL0     H10945   1.982   0.820   3.923  0.3097  0.0365  0.7523
  804MOL0     H10946   1.910   0.527   3.904  0.6034 -0.0132 -0.2875
  804MOL0     H10947   1.874   0.623   4.048 -1.6373 -1.5703 -1.0430
  804MOL0     H10948   2.280   0.591   4.113  2.5355 -1.3324 -3.9706
  804MOL0     H10949   1.804   0.871   3.430 -0.2937  0.7690  1.9679
  804MOL0     H10950   1.729   0.764   3.146 -2.2557  0.9429 -2.5642
  804MOL0     H10951   1.702   0.928   3.091 -0.2534 -1.6999 -1.5973
  804MOL0     H10952   1.838   0.895   3.205 -2.3690  3.3928  4.0378
  805MOL0     O10953   4.842   1.093   7.011  0.1535 -0.4211 -0.8729
  805MOL0     C10954   4.943   1.031   6.989  0.0869  1.0870 -0.0541
  805MOL0     O10955   5.038   0.982   7.071  0.9765 -0.4000 -0.5200
  805MOL0     C10956   5.023   0.989   7.203  0.1249  0.2475 -0.5409
  805MOL0     C10957   4.901   0.978   7.269  0.9763  0.6815  0.2850
  805MOL0     C10958   4.886   0.990   7.402 -0.7519  0.1749 -0.1683
  805MOL0     C10959   4.998   0.995   7.491  0.4519  0.3334 -0.6080
  805MOL0     O10960   4.998   1.006   7.620 -0.6295  0.9828  0.2307
  805MOL0     C10961   4.869   1.026   7.680  0.2551 -0.3160 -1.3497
  805MOL0     C10962   4.893   1.052   7.831 -0.5604 -0.4518  0.2616
  805MOL0     C10963   4.980   0.940   7.895 -0.4049  0.6567 -0.4860
  805MOL0     C10964   5.124   0.980   7.937  0.3809 -0.2163 -0.1629
  805MOL0     C10965   5.185   0.881   8.031  0.2526  0.3180  0.3591
  805MOL0     C10966   5.232   0.755   7.955 -0.7973  0.5884  0.8570
  805MOL0     C10967   5.318   0.653   8.029  0.3721 -0.3411  0.2515
  805MOL0     C10968   5.272   0.621   8.168 -0.1204 -0.8830 -0.6574
  805MOL0     N10969   5.149   0.543   8.163 -0.2875  0.0145 -0.6648
  805MOL0     C10970   5.018   0.588   8.212  0.5503  0.5109  0.9780
  805MOL0     C10971   4.940   0.485   8.174  0.2213  0.8212  0.2188
  805MOL0     C10972   4.796   0.471   8.198  0.6826 -0.1754  0.0040
  805MOL0     C10973   4.721   0.458   8.065 -0.2300  0.4217 -0.0694
  805MOL0     C10974   4.735   0.582   7.978 -0.3541  0.2247 -0.1053
  805MOL0     C10975   4.597   0.639   7.925  0.4786  0.3969 -0.8472
  805MOL0     O10976   4.531   0.546   7.842 -0.3354 -0.6268  0.1390
  805MOL0     C10977   4.571   0.542   7.712 -0.5407  0.2391 -0.0151
  805MOL0     C10978   4.518   0.435   7.631 -0.1945 -0.2228  1.0889
  805MOL0     C10979   4.568   0.414   7.505  0.0967 -0.5802 -0.2375
  805MOL0     C10980   4.526   0.284   7.437 -0.0886 -0.5628  0.6738
  805MOL0     C10981   4.662   0.503   7.446 -0.6851  0.2347  0.2232
  805MOL0     C10982   4.714   0.485   7.306  0.6261 -0.1878  0.8107
  805MOL0     O10983   4.831   0.529   7.282  0.0547 -0.4833 -0.0497
  805MOL0     C10984   4.893   0.512   7.155 -0.4571 -0.2715 -0.3867
  805MOL0     C10985   4.927   0.386   7.105 -0.0907 -0.1780 -0.5726
  805MOL0     C10986   5.000   0.372   6.990  0.7017 -0.3097  0.2106
  805MOL0     C10987   5.048   0.488   6.927 -0.4244  0.6074 -0.5790
  805MOL0     O10988   5.112   0.478   6.807 -0.0455 -0.4652  0.6094
  805MOL0     C10989   5.026   0.507   6.702  0.9220 -0.2778  0.5865
  805MOL0     C10990   5.084   0.478   6.571  0.0680  0.2946  0.5969
  805MOL0     C10991   5.217   0.549   6.535 -0.9275  0.1006  1.1595
  805MOL0     C10992   5.335   0.453   6.570 -0.4847  0.9426 -0.5226
  805MOL0     C10993   5.469   0.519   6.543 -0.6961  0.0385  0.2893
  805MOL0     C10994   5.586   0.439   6.585 -0.1252 -0.2451  0.2040
  805MOL0     C10995   5.645   0.366   6.469 -1.0867  0.9521 -0.4560
  805MOL0     C10996   5.786   0.317   6.502  0.2565 -0.1483 -0.4218
  805MOL0    Cl10997   5.868   0.237   6.360 -0.3640 -0.1113 -0.1212
  805MOL0     C10998   5.023   0.618   6.983  0.5906  0.9898  0.6066
  805MOL0     C10999   4.938   0.629   7.091  1.3554  0.2904 -0.3712
  805MOL0     O11000   4.634   0.442   7.219  0.6358 -0.3895 -0.4236
  805MOL0     C11001   4.704   0.612   7.530 -0.0636  0.5355  0.4343
  805MOL0     C11002   4.667   0.623   7.660  0.3962  0.7402  0.4750
  805MOL0     N11003   5.010   0.387   8.111  0.6034  0.3902 -0.2271
  805MOL0     N11004   5.139   0.420   8.113 -0.2335 -0.4614  0.7660
  805MOL0     C11005   5.119   0.973   7.425 -1.0588  0.7390 -0.1133
  805MOL0     C11006   5.130   0.963   7.280 -0.1176 -0.0017  0.7213
  805MOL0     C11007   4.986   0.976   6.860  0.1825  0.5432 -0.2095
  805MOL0     C11008   5.119   0.971   6.833 -0.1738 -0.0185  0.1875
  805MOL0     C11009   5.177   0.925   6.710 -0.9705  0.3000  0.1783
  805MOL0     C11010   5.104   0.890   6.605  0.0074 -0.3881  0.0702
  805MOL0     O11011   5.163   0.853   6.488  0.7414 -0.8388 -0.0586
  805MOL0     C11012   5.082   0.817   6.371 -0.4894 -0.7940 -0.7040
  805MOL0     C11013   5.173   0.800   6.248 -0.4299  0.1589  0.9305
  805MOL0     C11014   5.118   0.821   6.105  1.1106  0.0028 -0.2256
  805MOL0     C11015   5.088   0.966   6.079 -0.2992  0.4600 -0.2963
  805MOL0     C11016   5.206   1.044   6.059 -0.0215  0.5228  0.3152
  805MOL0     C11017   5.277   1.138   6.065 -0.6767 -0.8534  0.8495
  805MOL0     C11018   4.969   0.897   6.623  1.0772 -0.5421 -1.0691
  805MOL0     C11019   4.903   0.945   6.748 -0.0464 -0.9299  0.7604
  805MOL0     C11020   4.750   0.948   6.749 -0.2993 -0.2331  0.6183
  805MOL0     H11021   4.808   0.980   7.212  1.1109  2.1168  0.0751
  805MOL0     H11022   4.785   0.986   7.443 -0.3595  2.4948  1.2125
  805MOL0     H11023   4.816   0.931   7.675 -3.0637  1.1611  1.2681
  805MOL0     H11024   4.811   1.102   7.626 -2.3338  0.1163  1.6753
  805MOL0     H11025   4.943   1.148   7.846 -1.1128 -0.5364  3.1036
  805MOL0     H11026   4.793   1.048   7.875 -0.4260  0.1757  0.6357
  805MOL0     H11027   4.925   0.922   7.988 -0.6339  0.8623 -0.5785
  805MOL0     H11028   4.969   0.845   7.842 -1.3328 -0.0146  0.8599
  805MOL0     H11029   5.187   1.005   7.851 -0.6921 -0.4095 -1.0420
  805MOL0     H11030   5.115   1.074   7.993  1.3297  0.4205 -1.0347
  805MOL0     H11031   5.113   0.851   8.108 -1.7902  2.7800 -0.4160
  805MOL0     H11032   5.272   0.927   8.077  0.1327  0.9428 -0.0140
  805MOL0     H11033   5.141   0.702   7.926  1.4367 -4.6815  2.3708
  805MOL0     H11034   5.280   0.789   7.863 -2.4904  2.2460  0.5172
  805MOL0     H11035   5.419   0.694   8.041  0.0683  1.2266 -1.9708
  805MOL0     H11036   5.318   0.571   7.957 -1.9757 -0.3134  0.1678
  805MOL0     H11037   5.349   0.560   8.216  1.7495  2.1625  0.5131
  805MOL0     H11038   5.261   0.712   8.227 -1.5076 -1.1671 -0.4381
  805MOL0     H11039   4.992   0.680   8.264 -1.7229  0.2889  0.3188
  805MOL0     H11040   4.754   0.561   8.243  0.1431  1.4738 -3.4529
  805MOL0     H11041   4.782   0.380   8.257 -0.2317  2.4147  4.2150
  805MOL0     H11042   4.742   0.367   8.008  0.2546  1.3948 -1.5106
  805MOL0     H11043   4.616   0.453   8.096 -0.1632 -0.3370  0.0627
  805MOL0     H11044   4.782   0.663   8.035 -0.9635  0.4189  0.1268
  805MOL0     H11045   4.792   0.547   7.892 -0.1679  0.4793 -0.0867
  805MOL0     H11046   4.536   0.665   8.013  0.4787  0.1297 -0.7682
  805MOL0     H11047   4.604   0.733   7.870 -2.2060  1.1438 -0.0963
  805MOL0     H11048   4.446   0.364   7.669  0.3346  0.0504  2.6810
  805MOL0     H11049   4.613   0.256   7.378 -0.8305 -0.1930 -0.6420
  805MOL0     H11050   4.438   0.312   7.378  0.9900  0.4123 -0.5426
  805MOL0     H11051   4.503   0.213   7.517  0.5642 -1.8729 -0.2744
  805MOL0     H11052   4.896   0.293   7.153  2.8082 -0.6762  0.5559
  805MOL0     H11053   5.033   0.274   6.957 -0.1706 -0.5587  0.0409
  805MOL0     H11054   4.930   0.455   6.707  1.2668 -1.0976 -0.8301
  805MOL0     H11055   4.999   0.613   6.704 -2.9349 -1.1187 -0.2248
  805MOL0     H11056   5.102   0.370   6.567  3.6015  0.8038 -1.3590
  805MOL0     H11057   5.015   0.506   6.491  1.4274  0.8019 -0.4399
  805MOL0     H11058   5.223   0.652   6.570 -0.4533  0.4510  0.0764
  805MOL0     H11059   5.215   0.572   6.428 -2.5466  4.0664  1.8631
  805MOL0     H11060   5.329   0.352   6.528  2.0759  0.2702  0.5218
  805MOL0     H11061   5.331   0.438   6.678 -3.0476  0.6105 -0.6008
  805MOL0     H11062   5.472   0.549   6.438 -2.8516  2.1977  0.7350
  805MOL0     H11063   5.476   0.619   6.588 -0.2440  0.7037 -1.2068
  805MOL0     H11064   5.564   0.379   6.673 -0.4376  0.5512  0.6762
  805MOL0     H11065   5.664   0.503   6.626 -0.1392 -0.0469 -0.0745
  805MOL0     H11066   5.649   0.439   6.388 -1.5863  3.3579  1.5674
  805MOL0     H11067   5.583   0.283   6.434 -2.3896  1.7880 -0.2197
  805MOL0     H11068   5.792   0.256   6.592  0.8605  1.2754  0.5377
  805MOL0     H11069   5.847   0.407   6.513  0.1191 -0.1882  0.7273
  805MOL0     H11070   5.068   0.706   6.938  1.2764  1.6106  2.4197
  805MOL0     H11071   4.921   0.728   7.132  2.2550  0.6111 -0.7610
  805MOL0     H11072   4.771   0.686   7.489  1.3698 -0.2984  1.1889
  805MOL0     H11073   4.735   0.689   7.713  1.2967 -1.1547  1.8108
  805MOL0     H11074   5.206   0.958   7.489  0.7142  0.1837 -2.4638
  805MOL0     H11075   5.228   0.942   7.239  0.5615  1.1078  1.7194
  805MOL0     H11076   5.182   1.013   6.911 -1.6547  2.8546 -0.0534
  805MOL0     H11077   5.280   0.924   6.677 -1.3890  0.0756 -1.2373
  805MOL0     H11078   5.028   0.724   6.393 -2.4776  0.2216 -1.0348
  805MOL0     H11079   5.019   0.901   6.342  0.4818 -0.1440 -0.9537
  805MOL0     H11080   5.223   0.704   6.260 -1.0900  0.0470  3.2500
  805MOL0     H11081   5.256   0.871   6.252  1.9895 -2.4922  0.4128
  805MOL0     H11082   5.184   0.777   6.029  0.7351 -0.0767 -0.5100
  805MOL0     H11083   5.023   0.768   6.091 -1.4070  4.1056 -0.3631
  805MOL0     H11084   5.027   1.008   6.159 -0.6272 -0.1377 -0.2280
  805MOL0     H11085   5.030   0.961   5.987  0.7151 -3.9276 -0.9343
  805MOL0     H11086   5.342   1.223   6.079  0.8062 -1.9411  0.8083
  805MOL0     H11087   4.899   0.863   6.547 -1.7351 -0.2675  1.2313
  805MOL0     H11088   4.700   0.919   6.656 -0.7610  0.6503  0.5785
  805MOL0     H11089   4.717   0.883   6.831 -2.1387 -3.1435 -2.1620
  805MOL0     H11090   4.708   1.048   6.763  0.3917  0.7507 -3.2271
  806MOL0     O11091   8.273   0.916   0.602 -0.3683  0.0960 -0.1390
  806MOL0     C11092   8.374   0.863   0.564  0.0924  0.4260  0.2973
  806MOL0     O11093   8.470   0.928   0.483 -0.0501 -0.1132  0.4239
  806MOL0     C11094   8.459   1.061   0.491  0.6194 -0.2122  0.4773
  806MOL0     C11095   8.471   1.123   0.369  0.1192  1.0448 -0.1385
  806MOL0     C11096   8.467   1.264   0.355 -0.3429 -0.0886 -0.0875
  806MOL0     C11097   8.458   1.348   0.474 -0.4161  0.4131 -1.2103
  806MOL0     O11098   8.453   1.483   0.459  0.2627 -0.1990  0.1872
  806MOL0     C11099   8.484   1.574   0.572 -0.1279  0.3219  0.1101
  806MOL0     C11100   8.638   1.580   0.590  0.1249 -0.1919  0.1105
  806MOL0     C11101   8.700   1.634   0.460 -0.2960  0.7429  1.0642
  806MOL0     C11102   8.853   1.657   0.467 -1.1195  0.3910 -0.4312
  806MOL0     C11103   8.905   1.716   0.327  0.1138  0.3930 -0.6910
  806MOL0     C11104   9.042   1.682   0.280 -0.0605  0.3108  0.0402
  806MOL0     C11105   9.085   1.760   0.152  0.0041 -0.2949  0.0628
  806MOL0     C11106   9.236   1.755   0.132 -0.5780 -0.6026  0.3331
  806MOL0     N11107   9.269   1.798  -0.006  0.5893  0.2158 -0.9004
  806MOL0     C11108   9.356   1.728  -0.093 -0.2898  0.1425 -1.0967
  806MOL0     C11109   9.367   1.810  -0.199 -0.5019  0.5696 -0.3267
  806MOL0     C11110   9.457   1.796  -0.322  0.3591  0.5063  0.5381
  806MOL0     C11111   9.609   1.802  -0.303 -0.0130 -0.7556 -0.3579
  806MOL0     C11112   9.683   1.807  -0.437  0.3199  0.3836 -0.2969
  806MOL0     C11113   9.717   1.954  -0.482 -0.1816 -0.3718 -0.6883
  806MOL0     O11114   9.616   2.056  -0.470  0.1312 -0.3331 -0.0362
  806MOL0     C11115   9.561   2.098  -0.586  0.1605  0.1571 -0.9339
  806MOL0     C11116   9.628   2.126  -0.703 -0.7993  1.2685 -0.8491
  806MOL0     C11117   9.559   2.151  -0.819  0.5848 -0.2759  0.6052
  806MOL0     C11118   9.652   2.176  -0.938  0.1563  0.4196  0.6691
  806MOL0     C11119   9.416   2.145  -0.819  0.4246 -0.6013  0.4874
  806MOL0     C11120   9.338   2.143  -0.936  0.3270  0.1674  0.3790
  806MOL0     O11121   9.210   2.197  -0.926 -0.1045 -0.5525  0.5377
  806MOL0     C11122   9.120   2.192  -1.030 -0.1108 -0.9031 -0.9203
  806MOL0     C11123   9.162   2.242  -1.160 -0.4036 -0.5411  0.4845
  806MOL0     C11124   9.069   2.228  -1.270 -0.8600  0.4102  0.2297
  806MOL0     C11125   8.941   2.179  -1.252  0.2274  0.7785 -0.0174
  806MOL0     O11126   8.868   2.156  -1.364  0.1177 -0.0552  0.6047
  806MOL0     C11127   8.800   2.028  -1.376  0.7531  0.3398  0.3041
  806MOL0     C11128   8.789   1.994  -1.528  0.1313  0.0792  0.1063
  806MOL0     C11129   8.649   1.958  -1.588 -0.5890 -0.3077 -0.7488
  806MOL0     C11130   8.620   1.801  -1.563 -0.4780 -0.0874 -0.4011
  806MOL0     C11131   8.567   1.773  -1.424  0.5027  1.0711  0.3452
  806MOL0     C11132   8.565   1.614  -1.401  0.6674 -0.2643  0.0618
  806MOL0     C11133   8.447   1.575  -1.308  0.0478  0.8428 -0.7264
  806MOL0     C11134   8.437   1.419  -1.315  0.7753  0.3428 -0.1064
  806MOL0    Cl11135   8.312   1.369  -1.197  0.4079 -0.0688 -0.1649
  806MOL0     C11136   8.902   2.139  -1.120  0.5066  0.0678  0.6174
  806MOL0     C11137   8.992   2.142  -1.017  0.7806  0.6852  0.8865
  806MOL0     O11138   9.376   2.076  -1.034  0.1844  0.3939 -0.8648
  806MOL0     C11139   9.348   2.124  -0.704  0.6597 -0.0431  0.6158
  806MOL0     C11140   9.418   2.098  -0.586 -0.4170  0.0763  0.4809
  806MOL0     N11141   9.276   1.915  -0.184  0.0485  0.2773 -0.0832
  806MOL0     N11142   9.219   1.907  -0.068  0.0603 -0.6424  0.0439
  806MOL0     C11143   8.452   1.281   0.599  0.2098  0.4903  0.2928
  806MOL0     C11144   8.444   1.140   0.605  0.5762  0.6483 -0.5818
  806MOL0     C11145   8.389   0.718   0.582 -0.3499 -0.4243 -0.1331
  806MOL0     C11146   8.460   0.649   0.485 -0.3796  0.0973  0.3535
  806MOL0     C11147   8.475   0.509   0.491 -0.4568  0.2425  0.4736
  806MOL0     C11148   8.420   0.427   0.593 -0.2570 -1.1681 -0.9334
  806MOL0     O11149   8.432   0.296   0.609  0.4103 -0.4691 -0.2112
  806MOL0     C11150   8.522   0.211   0.531 -0.0369  0.2968 -0.0322
  806MOL0     C11151   8.664   0.195   0.594  0.2943 -0.3251 -0.9043
  806MOL0     C11152   8.675   0.088   0.705  0.0398  0.3608  0.8151
  806MOL0     C11153   8.827   0.055   0.717  0.0576 -0.4221  0.1599
  806MOL0     C11154   8.851  -0.027   0.838 -0.1788 -0.2235  0.6701
  806MOL0     C11155   8.875  -0.109   0.919 -0.1331  0.5158  0.0909
  806MOL0     C11156   8.362   0.498   0.694 -0.0313  1.3899 -0.9650
  806MOL0     C11157   8.333   0.635   0.694 -0.7386 -0.8073 -0.4611
  806MOL0     C11158   8.267   0.693   0.807 -0.4078 -0.5569  0.4108
  806MOL0     H11159   8.479   1.074   0.273  0.9169  0.7266  0.0826
  806MOL0     H11160   8.454   1.320   0.263  0.4792 -2.0980 -1.4803
  806MOL0     H11161   8.441   1.550   0.669  0.5890  1.6915  0.7847
  806MOL0     H11162   8.446   1.675   0.554 -2.3469 -0.0623  2.1648
  806MOL0     H11163   8.657   1.653   0.669  1.0955 -2.1714  1.8043
  806MOL0     H11164   8.686   1.485   0.617  1.8224  0.3880 -0.6960
  806MOL0     H11165   8.680   1.566   0.377  2.8636 -1.1672  1.6709
  806MOL0     H11166   8.656   1.734   0.457  2.4578  2.0331 -1.0333
  806MOL0     H11167   8.883   1.730   0.543  2.6185 -2.4270  1.1645
  806MOL0     H11168   8.900   1.560   0.487 -2.4922  0.2153  2.5099
  806MOL0     H11169   8.897   1.825   0.333 -0.5369  0.5194 -2.9895
  806MOL0     H11170   8.830   1.691   0.251 -1.0596  3.5393 -0.7344
  806MOL0     H11171   9.109   1.702   0.364 -0.5804 -0.7851  0.7323
  806MOL0     H11172   9.043   1.573   0.268 -2.7363  0.1450  0.7510
  806MOL0     H11173   9.050   1.864   0.153 -0.9814 -0.6178 -0.3878
  806MOL0     H11174   9.037   1.724   0.061  0.9391 -2.4171  0.3613
  806MOL0     H11175   9.290   1.824   0.198 -1.6770  2.5168 -1.7773
  806MOL0     H11176   9.267   1.652   0.148  2.3243  0.0582 -0.3654
  806MOL0     H11177   9.418   1.640  -0.077  1.6402  1.2746 -1.9585
  806MOL0     H11178   9.426   1.869  -0.398  2.0203 -1.0903 -1.8148
  806MOL0     H11179   9.428   1.703  -0.370 -3.0464  0.3032  2.6306
  806MOL0     H11180   9.636   1.892  -0.246  0.3207 -1.3343  0.4174
  806MOL0     H11181   9.642   1.714  -0.247  0.6857 -1.0009 -1.1444
  806MOL0     H11182   9.781   1.759  -0.433 -0.9544 -2.4693 -0.9831
  806MOL0     H11183   9.633   1.747  -0.514  3.0786 -2.0859 -0.3164
  806MOL0     H11184   9.808   1.981  -0.428  1.0520 -0.7818 -2.4910
  806MOL0     H11185   9.740   1.951  -0.588  1.3642  3.0110 -0.6019
  806MOL0     H11186   9.736   2.121  -0.708 -0.7448 -0.1737  0.7544
  806MOL0     H11187   9.685   2.080  -0.981  0.1603  0.6928  0.0580
  806MOL0     H11188   9.747   2.223  -0.910 -0.2044  0.0572  2.7238
  806MOL0     H11189   9.607   2.223  -1.025  1.8768 -3.1675 -2.4457
  806MOL0     H11190   9.256   2.297  -1.167  0.8138 -2.6804 -1.4424
  806MOL0     H11191   9.094   2.256  -1.372 -0.8621  1.2663  0.4580
  806MOL0     H11192   8.859   1.944  -1.338  0.4291  0.1715  0.4410
  806MOL0     H11193   8.702   2.041  -1.329  0.2312  1.5218 -1.0380
  806MOL0     H11194   8.813   2.091  -1.573  0.4260 -0.6070 -1.2738
  806MOL0     H11195   8.863   1.920  -1.560  0.0797 -0.1151  0.4357
  806MOL0     H11196   8.640   1.986  -1.694 -0.6304 -0.3684 -0.7615
  806MOL0     H11197   8.574   2.012  -1.530 -1.5241  0.4139 -2.5237
  806MOL0     H11198   8.711   1.742  -1.581 -0.0383  0.1655  0.8786
  806MOL0     H11199   8.541   1.780  -1.636 -0.0344  0.8702 -1.1904
  806MOL0     H11200   8.632   1.814  -1.347  1.1574  0.1839  0.2760
  806MOL0     H11201   8.463   1.808  -1.429 -0.5649 -1.8503 -0.1264
  806MOL0     H11202   8.659   1.585  -1.354 -0.0355 -1.3016  0.8674
  806MOL0     H11203   8.540   1.566  -1.496  0.7270  1.1267 -0.6834
  806MOL0     H11204   8.359   1.622  -1.353 -0.0606 -1.1480 -2.7646
  806MOL0     H11205   8.457   1.619  -1.209  0.2606 -0.3463 -0.1995
  806MOL0     H11206   8.529   1.374  -1.278  1.4639  0.5910 -1.4711
  806MOL0     H11207   8.422   1.370  -1.412 -0.2202 -0.6831  0.5394
  806MOL0     H11208   8.811   2.087  -1.092  0.8899 -1.0389 -0.1170
  806MOL0     H11209   8.957   2.094  -0.926 -2.3396 -0.6537 -0.8570
  806MOL0     H11210   9.240   2.120  -0.699  0.5541  1.1572 -0.3301
  806MOL0     H11211   9.366   2.097  -0.491 -3.5570  2.1969 -1.0425
  806MOL0     H11212   8.442   1.340   0.690 -2.1954 -1.8340  1.6699
  806MOL0     H11213   8.432   1.091   0.702  1.0664  0.6880 -0.4989
  806MOL0     H11214   8.505   0.694   0.397 -0.5629  0.8295  0.6298
  806MOL0     H11215   8.540   0.456   0.422  0.7451  0.1120  1.6683
  806MOL0     H11216   8.490   0.107   0.523  0.7542 -0.2475  2.6756
  806MOL0     H11217   8.539   0.250   0.430  1.8010 -0.5329 -0.0934
  806MOL0     H11218   8.705   0.285   0.641  1.3529 -1.1625 -0.1712
  806MOL0     H11219   8.723   0.170   0.505 -0.6391 -0.8014 -1.4054
  806MOL0     H11220   8.635   0.120   0.802 -0.1076  1.2985  0.4552
  806MOL0     H11221   8.622   0.002   0.664  1.7529 -0.8921  1.1609
  806MOL0     H11222   8.885   0.146   0.702  1.9199 -1.7338 -1.0700
  806MOL0     H11223   8.849  -0.002   0.626 -1.6326  0.1196 -0.6137
  806MOL0     H11224   8.896  -0.172   1.003 -1.8689  2.0534  1.7587
  806MOL0     H11225   8.330   0.445   0.784  0.9067  0.5377 -1.1070
  806MOL0     H11226   8.335   0.769   0.847  2.2688 -2.8882  0.6565
  806MOL0     H11227   8.168   0.729   0.779 -0.3724 -1.1191 -0.4705
  806MOL0     H11228   8.250   0.618   0.885 -1.7066 -1.7000 -0.9124
  807MOL0     O11229   7.487   5.733   3.199  0.0868  0.1793  0.5809
  807MOL0     C11230   7.450   5.623   3.152 -0.2624  0.3675  0.5428
  807MOL0     O11231   7.521   5.509   3.165  0.2549 -0.1294 -0.3543
  807MOL0     C11232   7.650   5.522   3.209 -0.6840  0.9585  0.6527
  807MOL0     C11233   7.763   5.548   3.134 -0.2441 -1.0286  0.3127
  807MOL0     C11234   7.892   5.547   3.192 -0.4269  0.1300  0.1254
  807MOL0     C11235   7.904   5.525   3.330  0.5994  0.4959 -0.1674
  807MOL0     O11236   8.034   5.519   3.387 -0.0320 -0.4490 -0.4510
  807MOL0     C11237   8.054   5.468   3.514 -0.2889 -0.2245  0.7399
  807MOL0     C11238   8.209   5.460   3.547 -1.3379 -0.2872 -0.0786
  807MOL0     C11239   8.221   5.361   3.658 -0.6289 -0.1146 -0.2084
  807MOL0     C11240   8.365   5.344   3.693  0.6950 -0.2804  0.3279
  807MOL0     C11241   8.382   5.253   3.816 -0.0705  0.2383 -0.1054
  807MOL0     C11242   8.523   5.192   3.827 -0.3593  0.1928 -0.4506
  807MOL0     C11243   8.638   5.289   3.803  0.2809  0.4561 -0.0770
  807MOL0     C11244   8.769   5.218   3.814 -0.6353 -0.1270 -0.5228
  807MOL0     N11245   8.821   5.195   3.955  0.6332 -0.0528  0.9677
  807MOL0     C11246   8.936   5.122   3.986 -0.1054 -0.7663  0.1636
  807MOL0     C11247   8.938   5.115   4.119 -0.0219  0.3008  0.5065
  807MOL0     C11248   9.042   5.031   4.204 -0.1655 -0.3169 -0.8934
  807MOL0     C11249   8.968   4.970   4.335 -0.2708 -0.4757  0.3919
  807MOL0     C11250   9.000   5.051   4.465 -0.1933  0.2815  0.8180
  807MOL0     C11251   9.143   5.035   4.517 -0.4487 -0.5375 -0.6540
  807MOL0     O11252   9.171   4.910   4.582 -0.1193 -0.0490  0.6201
  807MOL0     C11253   9.235   4.934   4.699 -0.9268  0.3795 -0.2482
  807MOL0     C11254   9.167   4.923   4.816  0.3989  0.7755 -0.1293
  807MOL0     C11255   9.238   4.932   4.936 -0.2484  0.0849  0.8330
  807MOL0     C11256   9.154   4.895   5.059 -0.0401 -0.3316 -0.3534
  807MOL0     C11257   9.375   4.965   4.933 -0.3271 -0.2114 -0.0727
  807MOL0     C11258   9.446   4.984   5.056 -0.1182 -0.8010  0.6346
  807MOL0     O11259   9.574   4.916   5.062 -0.1269 -0.0719 -1.4129
  807MOL0     C11260   9.627   4.897   5.186  0.1761 -0.0940 -0.0317
  807MOL0     C11261   9.647   4.766   5.229 -0.4129  0.1137  0.0020
  807MOL0     C11262   9.701   4.737   5.358 -0.0900  0.0288  0.1898
  807MOL0     C11263   9.719   4.837   5.441 -0.0007 -1.1322 -0.3230
  807MOL0     O11264   9.758   4.816   5.574  0.4596 -0.0263  0.0034
  807MOL0     C11265   9.700   4.907   5.665 -0.2072 -0.5753 -0.3729
  807MOL0     C11266   9.670   4.845   5.794  0.7276 -0.0588  0.1255
  807MOL0     C11267   9.585   4.715   5.762  0.5606  0.5706  0.1508
  807MOL0     C11268   9.536   4.664   5.889  0.1818  0.5029  0.7345
  807MOL0     C11269   9.477   4.523   5.875  0.2725  0.1153  0.6184
  807MOL0     C11270   9.362   4.523   5.779  0.1203  0.4501  0.0677
  807MOL0     C11271   9.272   4.409   5.804 -0.0275 -0.4592 -0.6763
  807MOL0     C11272   9.156   4.400   5.701 -0.6308  0.1432 -0.6783
  807MOL0    Cl11273   9.029   4.313   5.785  0.5431 -0.1531  0.1370
  807MOL0     C11274   9.708   4.974   5.395 -0.1179 -0.4028 -0.5122
  807MOL0     C11275   9.674   5.000   5.268  0.9117  0.6029 -0.1759
  807MOL0     O11276   9.400   5.057   5.143  0.0892 -0.1177 -0.7450
  807MOL0     C11277   9.441   4.982   4.813 -0.4433  0.0428  0.1684
  807MOL0     C11278   9.369   4.961   4.697 -0.5888 -1.4627 -0.3032
  807MOL0     N11279   8.831   5.188   4.169 -0.0903  0.2694 -0.3067
  807MOL0     N11280   8.760   5.240   4.071  0.8637  0.4342  0.2724
  807MOL0     C11281   7.788   5.500   3.400  0.2833  1.7004 -0.2538
  807MOL0     C11282   7.666   5.490   3.345  0.6542 -0.6535  0.0675
  807MOL0     C11283   7.309   5.599   3.113 -0.2208 -0.2371  0.0585
  807MOL0     C11284   7.267   5.465   3.102  0.1826 -0.5646  0.5557
  807MOL0     C11285   7.138   5.441   3.057  0.4016  0.0332  0.5849
  807MOL0     C11286   7.042   5.543   3.036  0.1048 -0.5845 -1.0462
  807MOL0     O11287   6.912   5.498   3.034  0.2173  0.5863 -0.0498
  807MOL0     C11288   6.804   5.568   2.967  0.0940  0.0244 -0.2517
  807MOL0     C11289   6.694   5.606   3.062 -0.1582  0.2412 -0.3257
  807MOL0     C11290   6.590   5.702   3.005  0.2908  0.1418 -0.2810
  807MOL0     C11291   6.481   5.648   2.918  0.0051 -0.3087 -0.1857
  807MOL0     C11292   6.415   5.525   2.966 -0.3112 -0.4259 -0.0624
  807MOL0     C11293   6.394   5.411   2.996 -0.3612 -0.0042  0.1581
  807MOL0     C11294   7.079   5.676   3.051  0.4133 -0.1794 -0.4190
  807MOL0     C11295   7.216   5.702   3.083 -0.2546 -0.2179  0.0089
  807MOL0     C11296   7.259   5.847   3.098  0.3735  0.0518 -0.1957
  807MOL0     H11297   7.760   5.568   3.027  1.6420 -1.4561  0.1399
  807MOL0     H11298   7.985   5.550   3.135 -1.5562 -1.6129 -1.9944
  807MOL0     H11299   8.017   5.365   3.518 -0.1034 -0.3763 -0.7591
  807MOL0     H11300   8.008   5.529   3.593  2.3696  0.4737  1.8657
  807MOL0     H11301   8.275   5.434   3.463  0.0328  0.7078  0.6626
  807MOL0     H11302   8.247   5.555   3.583  2.8196 -0.8712 -2.3272
  807MOL0     H11303   8.166   5.385   3.749 -1.0190 -0.8738 -0.2348
  807MOL0     H11304   8.182   5.264   3.625  0.1105 -0.8930  1.0593
  807MOL0     H11305   8.401   5.301   3.599 -0.0905 -0.8596  0.2796
  807MOL0     H11306   8.405   5.443   3.714  1.7962  0.0363 -2.6906
  807MOL0     H11307   8.316   5.166   3.821 -2.0368  1.7343  2.7052
  807MOL0     H11308   8.379   5.302   3.914  1.1820  1.2453 -0.5256
  807MOL0     H11309   8.524   5.132   3.918 -0.4765 -2.3590 -2.0193
  807MOL0     H11310   8.524   5.122   3.743  1.2410  3.5478 -3.4936
  807MOL0     H11311   8.643   5.375   3.871 -4.1850  0.1385  0.9962
  807MOL0     H11312   8.623   5.315   3.698 -2.3440 -0.4007  0.0087
  807MOL0     H11313   8.768   5.121   3.765  2.0074 -1.0093  0.9326
  807MOL0     H11314   8.848   5.281   3.770  0.7381  1.1050  3.2526
  807MOL0     H11315   9.007   5.068   3.923  1.3145  1.8837 -0.6787
  807MOL0     H11316   9.123   5.099   4.232 -1.1197 -0.0866  1.5559
  807MOL0     H11317   9.076   4.951   4.139 -0.4308  1.0897 -2.8446
  807MOL0     H11318   8.861   4.967   4.313  0.1689 -1.6902 -1.8501
  807MOL0     H11319   8.999   4.865   4.339  0.5565 -0.2344  0.5875
  807MOL0     H11320   8.967   5.147   4.426 -1.4590  0.3224  1.9373
  807MOL0     H11321   8.927   5.026   4.542  0.0818 -0.4509  0.8510
  807MOL0     H11322   9.228   5.044   4.449  0.6434 -2.3672  0.3630
  807MOL0     H11323   9.135   5.113   4.593 -3.8213  1.8176 -3.1541
  807MOL0     H11324   9.065   4.887   4.808  0.3645  0.3361  1.8600
  807MOL0     H11325   9.066   4.836   5.033 -0.8707  0.6418  0.1604
  807MOL0     H11326   9.145   4.981   5.126  0.7520 -1.5500  1.4060
  807MOL0     H11327   9.210   4.821   5.116 -2.2713 -1.9388 -0.1012
  807MOL0     H11328   9.631   4.683   5.161 -2.6020 -1.2621  2.0459
  807MOL0     H11329   9.731   4.636   5.387  0.0557  0.0642  0.1614
  807MOL0     H11330   9.764   4.995   5.670  2.8687 -2.7170  0.9167
  807MOL0     H11331   9.606   4.942   5.621 -0.9222 -1.9765 -0.0161
  807MOL0     H11332   9.756   4.814   5.855 -0.6572 -0.4579  1.9354
  807MOL0     H11333   9.614   4.919   5.850  0.6249 -0.0625  0.0269
  807MOL0     H11334   9.651   4.651   5.703  1.1538  1.3237 -0.0234
  807MOL0     H11335   9.499   4.740   5.699  0.0815  2.0839  1.3469
  807MOL0     H11336   9.463   4.737   5.925 -0.1658  1.5779 -1.9865
  807MOL0     H11337   9.618   4.642   5.958  2.6161  0.9928 -1.8558
  807MOL0     H11338   9.558   4.453   5.849 -0.6599  0.2838 -3.3290
  807MOL0     H11339   9.447   4.480   5.971 -1.0820 -1.4893 -0.4636
  807MOL0     H11340   9.402   4.525   5.677 -2.8413  1.5159 -1.1643
  807MOL0     H11341   9.303   4.614   5.784  0.1840  0.4875  0.1586
  807MOL0     H11342   9.232   4.420   5.905 -0.7105 -4.3886 -0.3639
  807MOL0     H11343   9.333   4.319   5.809  1.0428  0.1487 -2.0237
  807MOL0     H11344   9.176   4.351   5.606  1.1556 -0.3190 -0.0942
  807MOL0     H11345   9.118   4.500   5.679  1.0562  1.7297  2.7503
  807MOL0     H11346   9.736   5.058   5.458 -2.4045 -0.1959  0.3232
  807MOL0     H11347   9.663   5.102   5.233 -1.0118  1.0055  1.3633
  807MOL0     H11348   9.547   5.005   4.808 -0.3956 -0.4962 -2.8366
  807MOL0     H11349   9.432   4.961   4.608  0.8221 -2.0254  0.6589
  807MOL0     H11350   7.800   5.457   3.499 -2.6301 -3.1096 -1.6727
  807MOL0     H11351   7.585   5.453   3.407  4.3687 -2.4823  4.4291
  807MOL0     H11352   7.341   5.385   3.107  0.0238 -0.6601  1.4000
  807MOL0     H11353   7.098   5.340   3.049  0.4362  0.0936 -0.4721
  807MOL0     H11354   6.843   5.657   2.916 -0.8198  1.0471  0.7569
  807MOL0     H11355   6.762   5.497   2.896 -0.8230  0.9201 -0.6390
  807MOL0     H11356   6.744   5.659   3.143  0.7371 -0.3891 -0.4450
  807MOL0     H11357   6.648   5.510   3.087 -0.3730  0.6965  1.1103
  807MOL0     H11358   6.527   5.736   3.088 -1.5027  3.8006 -2.8581
  807MOL0     H11359   6.622   5.800   2.969  1.7291 -1.0590 -2.4734
  807MOL0     H11360   6.539   5.628   2.827  1.2269  3.7788 -0.5270
  807MOL0     H11361   6.404   5.721   2.891  0.6245 -0.1818 -1.6879
  807MOL0     H11362   6.381   5.306   3.012  2.5049 -0.4409  0.1237
  807MOL0     H11363   6.999   5.748   3.035  2.4328  1.8689 -1.9168
  807MOL0     H11364   7.268   5.869   3.205 -0.2781 -0.1147 -0.1031
  807MOL0     H11365   7.358   5.853   3.053 -0.4154 -0.6703 -2.1189
  807MOL0     H11366   7.186   5.924   3.069  0.0093  0.4138  1.5520
  808MOL0     O11367   6.320  10.642   3.565  1.7291 -0.5842 -0.5009
  808MOL0     C11368   6.309  10.762   3.545  0.4619 -0.0342 -0.2660
  808MOL0     O11369   6.323  10.848   3.646 -0.5077 -0.0475 -0.2065
  808MOL0     C11370   6.321  10.822   3.781  0.0125 -0.0223 -0.4137
  808MOL0     C11371   6.389  10.715   3.846  0.2676  0.0522  1.2390
  808MOL0     C11372   6.379  10.692   3.980  1.2991 -0.5518 -1.1339
  808MOL0     C11373   6.312  10.782   4.067 -0.0668 -0.6906  0.1461
  808MOL0     O11374   6.304  10.768   4.206 -0.5137 -0.1730 -0.2199
  808MOL0     C11375   6.380  10.666   4.266  0.0363  0.0812 -0.2102
  808MOL0     C11376   6.396  10.673   4.426 -0.5635 -0.5013  1.0028
  808MOL0     C11377   6.248  10.644   4.470 -0.7540  0.7038  0.3774
  808MOL0     C11378   6.237  10.626   4.627  0.2446 -0.0764  0.0099
  808MOL0     C11379   6.101  10.559   4.672 -0.0916  0.5123  0.0170
  808MOL0     C11380   6.113  10.474   4.799 -0.3190 -0.0557  0.9551
  808MOL0     C11381   5.976  10.462   4.861  0.0979  0.2217  0.4990
  808MOL0     C11382   5.979  10.377   4.995 -0.6755 -0.1911  0.3155
  808MOL0     N11383   6.019  10.237   4.971 -0.2703  0.2979  0.0484
  808MOL0     C11384   5.923  10.142   4.941 -0.5111  0.3092  0.2670
  808MOL0     C11385   5.996  10.037   4.907  0.1807 -0.6163 -0.4046
  808MOL0     C11386   5.937   9.897   4.863 -0.2733 -0.6586  1.2883
  808MOL0     C11387   5.817   9.842   4.945 -0.1990  0.3603 -0.3972
  808MOL0     C11388   5.738   9.716   4.895  0.1589 -1.0350  0.3510
  808MOL0     C11389   5.673   9.637   4.994  1.5393 -0.3173 -0.9697
  808MOL0     O11390   5.558   9.694   5.048  0.2922 -0.1858 -0.2482
  808MOL0     C11391   5.458   9.617   5.107  0.5667 -0.2495 -0.0430
  808MOL0     C11392   5.486   9.491   5.158 -1.1401  0.1216  0.2279
  808MOL0     C11393   5.387   9.416   5.210  0.5508  0.2103 -0.8817
  808MOL0     C11394   5.435   9.278   5.268  0.1716 -0.2231  0.3456
  808MOL0     C11395   5.260   9.463   5.224  0.0410  0.3588 -0.7686
  808MOL0     C11396   5.145   9.393   5.283  0.0758  1.1324 -0.3129
  808MOL0     O11397   5.028   9.461   5.260  0.1023  0.0118  0.3464
  808MOL0     C11398   4.905   9.410   5.295 -0.6951 -0.0285 -0.0464
  808MOL0     C11399   4.878   9.376   5.426 -0.4334 -0.7725 -0.6016
  808MOL0     C11400   4.765   9.291   5.456  0.1855 -0.4110  0.1581
  808MOL0     C11401   4.669   9.264   5.360 -0.2710  0.0461  0.7267
  808MOL0     O11402   4.565   9.171   5.364  0.2804 -1.0595 -0.3913
  808MOL0     C11403   4.514   9.125   5.490 -0.5625 -0.6831 -0.2771
  808MOL0     C11404   4.372   9.099   5.476 -0.6214 -0.2646 -0.5941
  808MOL0     C11405   4.277   9.205   5.416 -0.8189  0.1018  0.1832
  808MOL0     C11406   4.230   9.309   5.529  1.4627  0.0592 -0.9163
  808MOL0     C11407   4.129   9.411   5.477 -1.2612  0.1098  0.1814
  808MOL0     C11408   3.998   9.346   5.441 -0.2617 -0.1179 -0.4928
  808MOL0     C11409   3.911   9.453   5.369 -0.3554  0.1924 -0.5979
  808MOL0     C11410   3.813   9.392   5.281 -0.3370  0.5379  0.5507
  808MOL0    Cl11411   3.716   9.298   5.401 -0.3714  0.2999 -0.0529
  808MOL0     C11412   4.690   9.315   5.233 -0.2663  0.3508  0.0781
  808MOL0     C11413   4.813   9.382   5.195  0.3021  0.1489 -0.0995
  808MOL0     O11414   5.152   9.279   5.334  0.3075  0.8980  0.3164
  808MOL0     C11415   5.230   9.594   5.176  0.0053  0.6917  0.3552
  808MOL0     C11416   5.327   9.667   5.116  0.7978 -0.5790  0.6775
  808MOL0     N11417   6.132  10.065   4.918  0.3522 -0.4914 -0.2984
  808MOL0     N11418   6.140  10.189   4.953 -0.5830  0.3016  0.9885
  808MOL0     C11419   6.252  10.892   4.003 -0.3253  0.9213  0.6124
  808MOL0     C11420   6.246  10.905   3.863  0.4813 -0.2699 -1.0898
  808MOL0     C11421   6.302  10.821   3.402  0.0509  0.7547  0.0077
  808MOL0     C11422   6.300  10.953   3.391  0.7196 -0.6709 -1.1017
  808MOL0     C11423   6.294  11.016   3.268  1.1572  0.4413  0.4426
  808MOL0     C11424   6.289  10.945   3.147 -0.6128  0.2368 -0.1728
  808MOL0     O11425   6.266  10.997   3.024  0.0633 -0.3957 -0.2425
  808MOL0     C11426   6.302  11.141   3.001 -1.1615  1.6288 -0.1534
  808MOL0     C11427   6.446  11.168   3.034  0.1126  0.5902  0.3261
  808MOL0     C11428   6.491  11.313   2.995 -0.2791  0.3827  0.9737
  808MOL0     C11429   6.582  11.387   3.081  0.3982 -0.2643  0.8603
  808MOL0     C11430   6.651  11.500   3.009 -0.1969  0.4745  0.2237
  808MOL0     C11431   6.701  11.586   2.947 -0.8674 -0.5258 -0.0097
  808MOL0     C11432   6.303  10.807   3.153  0.0658  0.1359  0.0454
  808MOL0     C11433   6.318  10.747   3.278  0.0549  0.3881  0.1535
  808MOL0     C11434   6.335  10.592   3.277  0.2528 -0.2238  1.0420
  808MOL0     H11435   6.437  10.643   3.780 -0.2834 -0.7769  1.7265
  808MOL0     H11436   6.402  10.595   4.023 -1.9201 -1.2309 -0.6731
  808MOL0     H11437   6.482  10.677   4.229 -0.1039 -0.7187 -0.8452
  808MOL0     H11438   6.344  10.567   4.236  3.6313 -1.1903 -0.7478
  808MOL0     H11439   6.456  10.587   4.458 -3.4550 -3.3149 -0.5774
  808MOL0     H11440   6.450  10.763   4.458  4.8574 -2.7452 -0.7237
  808MOL0     H11441   6.180  10.725   4.442 -0.6201  1.6458  2.6074
  808MOL0     H11442   6.219  10.556   4.412  0.8885  2.6225 -3.8301
  808MOL0     H11443   6.320  10.567   4.667  1.2947  0.2145 -1.6316
  808MOL0     H11444   6.246  10.725   4.672 -4.9218 -0.6660  3.1749
  808MOL0     H11445   6.069  10.490   4.594 -0.6451  1.9814 -1.1166
  808MOL0     H11446   6.031  10.640   4.696  1.3616  1.9445 -0.4000
  808MOL0     H11447   6.152  10.376   4.771 -3.3559 -0.3861 -2.9916
  808MOL0     H11448   6.186  10.522   4.865  0.8387  0.1678 -0.4303
  808MOL0     H11449   5.900  10.426   4.791 -0.8514 -0.0979  1.6580
  808MOL0     H11450   5.940  10.557   4.899 -3.8402 -1.7055  2.1764
  808MOL0     H11451   6.061  10.418   5.055  0.4583 -2.6464  0.5635
  808MOL0     H11452   5.884  10.379   5.050  0.2387  0.0149  1.9589
  808MOL0     H11453   5.815  10.154   4.938 -0.3940  1.5062  0.2155
  808MOL0     H11454   6.026   9.833   4.857  2.2500  2.7007 -1.6584
  808MOL0     H11455   5.900   9.898   4.760  2.9492  0.8996  0.0022
  808MOL0     H11456   5.856   9.819   5.044 -3.0617 -0.1559  0.7176
  808MOL0     H11457   5.738   9.918   4.949  1.8421  2.5584  0.4525
  808MOL0     H11458   5.669   9.752   4.817  0.3523 -1.3291  0.0407
  808MOL0     H11459   5.801   9.649   4.835  0.4414  0.4242 -1.0665
  808MOL0     H11460   5.668   9.539   4.945 -0.0592 -0.7823  0.0571
  808MOL0     H11461   5.741   9.628   5.079  0.2068  0.9327  0.2741
  808MOL0     H11462   5.586   9.450   5.149 -0.8466  1.3725 -5.4303
  808MOL0     H11463   5.534   9.251   5.230  1.2101  1.8416  1.4350
  808MOL0     H11464   5.369   9.196   5.240 -0.9369  0.2367  1.5522
  808MOL0     H11465   5.446   9.283   5.376  3.8892 -0.9630  0.1418
  808MOL0     H11466   4.948   9.390   5.508 -2.1651 -3.3016  1.5020
  808MOL0     H11467   4.751   9.247   5.555 -0.4630  0.1581  0.3298
  808MOL0     H11468   4.555   9.027   5.516  1.1075  0.1991  0.5860
  808MOL0     H11469   4.534   9.197   5.570 -0.0738 -1.2934  0.1557
  808MOL0     H11470   4.371   9.018   5.402  2.1758 -0.0203 -0.9995
  808MOL0     H11471   4.339   9.062   5.573  0.8082  0.1964  0.0812
  808MOL0     H11472   4.204   9.136   5.374 -2.0161  0.5570  1.4308
  808MOL0     H11473   4.328   9.265   5.341 -0.1163  1.8023  1.9220
  808MOL0     H11474   4.316   9.369   5.561  1.1390  1.3814 -2.3812
  808MOL0     H11475   4.192   9.258   5.617  0.6564  0.9592 -0.7234
  808MOL0     H11476   4.117   9.498   5.542 -0.9481 -0.6293  1.2683
  808MOL0     H11477   4.165   9.453   5.383  0.4524 -0.9244  0.3306
  808MOL0     H11478   3.947   9.304   5.528  2.1695 -0.1059  1.0249
  808MOL0     H11479   4.025   9.261   5.378 -1.1980 -1.9440  1.4299
  808MOL0     H11480   3.981   9.513   5.309  2.0009 -1.1607  0.6266
  808MOL0     H11481   3.863   9.519   5.441  2.6579  2.1431 -0.1574
  808MOL0     H11482   3.862   9.326   5.209 -0.1602 -1.0093  2.0034
  808MOL0     H11483   3.756   9.471   5.232  1.5281  2.0835  0.7406
  808MOL0     H11484   4.618   9.303   5.151  1.3869  0.6133 -1.4739
  808MOL0     H11485   4.840   9.401   5.092  0.8569 -1.4096 -0.2643
  808MOL0     H11486   5.130   9.635   5.169 -1.1880 -1.7368  1.8441
  808MOL0     H11487   5.297   9.764   5.077  2.7316  0.1921  0.9564
  808MOL0     H11488   6.200  10.970   4.059 -2.2283  2.3760 -2.8794
  808MOL0     H11489   6.189  10.985   3.818  0.0411  1.9962  3.0148
  808MOL0     H11490   6.290  11.011   3.482 -1.1448 -0.4387 -1.4061
  808MOL0     H11491   6.282  11.124   3.269 -0.8431  0.3171 -1.6553
  808MOL0     H11492   6.294  11.169   2.896 -0.0085 -1.7286 -1.2615
  808MOL0     H11493   6.241  11.203   3.067 -0.3881 -0.3427  2.5816
  808MOL0     H11494   6.516  11.102   2.982  0.0556  0.5628  0.2842
  808MOL0     H11495   6.464  11.151   3.140 -1.0154 -3.4705  0.0326
  808MOL0     H11496   6.527  11.308   2.892  1.0026  0.0206  1.4189
  808MOL0     H11497   6.403  11.377   2.992  1.0546  2.2790  0.5612
  808MOL0     H11498   6.663  11.317   3.105  0.1370 -0.9004 -0.0400
  808MOL0     H11499   6.525  11.420   3.168  1.0288  2.0310  0.4730
  808MOL0     H11500   6.730  11.658   2.874 -0.0505 -1.2615 -0.4353
  808MOL0     H11501   6.289  10.751   3.061  3.6595 -1.6958  0.4540
  808MOL0     H11502   6.239  10.540   3.261 -0.4995  0.5155  2.8364
  808MOL0     H11503   6.398  10.582   3.189 -2.0478  2.4418 -1.1097
  808MOL0     H11504   6.387  10.556   3.366 -0.1096 -0.1233  1.2977
  809MOL0     O11505   4.022   2.756   5.633 -0.0002 -0.0245  0.1616
  809MOL0     C11506   4.019   2.855   5.559 -0.1615 -1.0202 -0.2636
  809MOL0     O11507   4.023   2.981   5.602  0.0981 -0.0909 -0.1706
  809MOL0     C11508   4.070   3.015   5.731 -0.8149  0.2016  0.2942
  809MOL0     C11509   4.024   3.140   5.779 -0.1310  0.0638  0.8383
  809MOL0     C11510   4.067   3.193   5.893  0.1919 -0.6520  0.7566
  809MOL0     C11511   4.168   3.125   5.969  0.4249  0.2530 -0.2337
  809MOL0     O11512   4.170   3.170   6.093  0.1744 -0.5584 -0.0246
  809MOL0     C11513   4.218   3.089   6.204  0.0783  0.5353  0.1456
  809MOL0     C11514   4.226   3.169   6.331 -0.6242  0.8118 -0.3694
  809MOL0     C11515   4.264   3.088   6.459 -1.1798  0.4690 -0.3364
  809MOL0     C11516   4.202   2.946   6.465  0.3705 -0.3973  0.1034
  809MOL0     C11517   4.270   2.861   6.575  0.0974 -0.4189  0.1292
  809MOL0     C11518   4.219   2.721   6.576 -0.0766  0.0343 -0.0035
  809MOL0     C11519   4.279   2.643   6.696  0.2310 -0.8437 -0.5444
  809MOL0     C11520   4.223   2.501   6.713  0.3323  0.5189 -0.3386
  809MOL0     N11521   4.327   2.418   6.777  0.1060  0.3938 -0.5468
  809MOL0     C11522   4.399   2.327   6.705  0.6743  0.0576  0.4542
  809MOL0     C11523   4.451   2.246   6.803  0.2441 -0.1594  0.2085
  809MOL0     C11524   4.542   2.130   6.766  0.1257 -0.0439 -0.2580
  809MOL0     C11525   4.494   1.985   6.804 -0.2293  0.1355  0.3872
  809MOL0     C11526   4.608   1.894   6.849  0.6818  0.2803 -0.4443
  809MOL0     C11527   4.559   1.759   6.914 -0.2047 -1.0214 -0.5021
  809MOL0     O11528   4.678   1.699   6.959 -0.0611  0.4892  0.2035
  809MOL0     C11529   4.664   1.599   7.054  0.0948 -0.4681 -0.2313
  809MOL0     C11530   4.599   1.635   7.175 -0.4317  0.0570  0.9783
  809MOL0     C11531   4.570   1.542   7.275 -0.3610 -0.0565  0.0359
  809MOL0     C11532   4.477   1.595   7.385  0.4465  0.5252 -0.8020
  809MOL0     C11533   4.612   1.405   7.256 -0.7599  0.1603  0.2983
  809MOL0     C11534   4.579   1.298   7.351 -1.0175  0.2577 -0.3223
  809MOL0     O11535   4.480   1.312   7.441 -0.2960  0.1064 -0.1042
  809MOL0     C11536   4.466   1.235   7.557 -0.2751 -0.0702  0.4374
  809MOL0     C11537   4.484   1.285   7.685 -0.3243 -0.9788 -0.1365
  809MOL0     C11538   4.471   1.208   7.801  1.0789  0.6891 -1.0225
  809MOL0     C11539   4.442   1.069   7.792 -0.0015  0.2169  0.7475
  809MOL0     O11540   4.440   0.994   7.905  0.0786  0.2865  0.4457
  809MOL0     C11541   4.320   0.941   7.944  0.7210  0.3679  0.3227
  809MOL0     C11542   4.197   1.036   7.942  0.4931 -0.2445  0.0436
  809MOL0     C11543   4.215   1.156   8.032  0.5185 -0.3800  0.1624
  809MOL0     C11544   4.101   1.257   8.026 -0.5614 -0.3622  0.0172
  809MOL0     C11545   4.131   1.385   8.102 -0.1738 -0.2733  0.8981
  809MOL0     C11546   4.098   1.387   8.251 -0.2734 -0.8674  0.7361
  809MOL0     C11547   4.162   1.510   8.321 -0.1089  0.2824  0.1647
  809MOL0     C11548   4.116   1.513   8.473 -0.4847  0.4419  0.0501
  809MOL0    Cl11549   4.130   1.668   8.540  0.2674  0.0216 -0.3146
  809MOL0     C11550   4.428   1.009   7.670  0.1790 -0.1610  0.4394
  809MOL0     C11551   4.437   1.095   7.552  0.6299 -0.0757 -0.3838
  809MOL0     O11552   4.635   1.189   7.348 -0.2447  0.4729 -0.6943
  809MOL0     C11553   4.695   1.378   7.138  0.6710  0.2969 -0.0747
  809MOL0     C11554   4.726   1.476   7.044  0.1111 -0.1138 -0.5349
  809MOL0     N11555   4.419   2.288   6.932  0.3446 -0.2569 -0.1986
  809MOL0     N11556   4.339   2.392   6.906 -0.2659  0.3037  0.0176
  809MOL0     C11557   4.217   3.005   5.923 -0.8628  0.9974  0.2722
  809MOL0     C11558   4.171   2.944   5.807 -0.3238 -0.8362  0.1337
  809MOL0     C11559   3.976   2.843   5.423  0.7842 -0.0672  0.2575
  809MOL0     C11560   4.029   2.745   5.341  0.1282 -0.0067 -0.8387
  809MOL0     C11561   3.983   2.729   5.205 -0.3899 -0.5466  0.0831
  809MOL0     C11562   3.880   2.805   5.157  0.2717  0.4981 -0.0031
  809MOL0     O11563   3.838   2.808   5.028  0.1811 -0.2480  0.6397
  809MOL0     C11564   3.918   2.879   4.939 -0.7392 -0.5352  0.5070
  809MOL0     C11565   3.923   3.031   4.956 -0.7011  0.7178 -1.1312
  809MOL0     C11566   4.012   3.107   4.849 -0.7626  0.0016  0.0717
  809MOL0     C11567   4.149   3.128   4.900 -0.2710 -0.7972  0.7230
  809MOL0     C11568   4.219   3.004   4.884  0.2260  0.2718 -0.0810
  809MOL0     C11569   4.267   2.892   4.854  0.5642  0.1260  1.2731
  809MOL0     C11570   3.812   2.889   5.239 -0.6238 -0.2317 -1.3031
  809MOL0     C11571   3.860   2.910   5.371  0.1376  0.2157 -0.7008
  809MOL0     C11572   3.771   3.003   5.451 -0.0200 -0.0224 -0.4938
  809MOL0     H11573   3.957   3.187   5.709  1.1886  3.0879  1.4515
  809MOL0     H11574   4.029   3.290   5.924  0.9619  0.8272 -2.5148
  809MOL0     H11575   4.320   3.051   6.187  0.4776  1.5597  0.2018
  809MOL0     H11576   4.136   3.019   6.221 -0.9112  1.6310 -0.0215
  809MOL0     H11577   4.315   3.232   6.324 -0.3612  0.4409 -0.3592
  809MOL0     H11578   4.139   3.231   6.357 -0.0191  1.9108 -0.8785
  809MOL0     H11579   4.373   3.084   6.459 -1.1336  1.3511 -0.4328
  809MOL0     H11580   4.231   3.136   6.552 -1.4904 -0.7697  0.2120
  809MOL0     H11581   4.102   2.947   6.511  1.4981  1.2410  2.7226
  809MOL0     H11582   4.208   2.889   6.372  5.8450  0.6689 -0.4901
  809MOL0     H11583   4.252   2.909   6.672 -0.4275  1.3777 -0.8196
  809MOL0     H11584   4.379   2.870   6.564  0.6424  2.5625  5.0276
  809MOL0     H11585   4.110   2.715   6.585 -0.4630 -0.6988 -3.4428
  809MOL0     H11586   4.245   2.675   6.480  0.5228  0.1769  0.0912
  809MOL0     H11587   4.239   2.689   6.787  0.6793 -0.9601 -0.2850
  809MOL0     H11588   4.388   2.650   6.703  0.0319  1.1018  3.0623
  809MOL0     H11589   4.137   2.512   6.780  1.2277  1.8026  0.6512
  809MOL0     H11590   4.190   2.452   6.621  0.2787  0.1871 -0.1451
  809MOL0     H11591   4.414   2.309   6.599  1.2929 -0.1109  0.5706
  809MOL0     H11592   4.628   2.142   6.832 -0.4587 -2.1270  0.9830
  809MOL0     H11593   4.581   2.135   6.664 -2.3542  1.1098 -1.2257
  809MOL0     H11594   4.439   2.005   6.896 -1.4168  0.2045 -0.3234
  809MOL0     H11595   4.428   1.939   6.730 -0.6845 -2.3670  2.2169
  809MOL0     H11596   4.670   1.879   6.761  0.2759  1.1639 -0.8965
  809MOL0     H11597   4.670   1.945   6.924  0.5355  0.1111 -0.2057
  809MOL0     H11598   4.493   1.778   6.999  3.4222 -0.5683  2.4104
  809MOL0     H11599   4.506   1.698   6.840 -0.7387 -0.0452 -0.9525
  809MOL0     H11600   4.566   1.737   7.196  3.7573  1.6014  0.9687
  809MOL0     H11601   4.379   1.546   7.384 -0.3964  1.7814  3.3354
  809MOL0     H11602   4.450   1.701   7.378 -0.3861  0.3284 -0.5730
  809MOL0     H11603   4.519   1.569   7.482  1.1121  2.0904 -0.6321
  809MOL0     H11604   4.502   1.391   7.694  0.6698 -1.1759  0.2591
  809MOL0     H11605   4.488   1.254   7.898 -2.8626  0.8164 -0.2036
  809MOL0     H11606   4.294   0.858   7.878 -1.7908  1.9026 -0.8093
  809MOL0     H11607   4.331   0.908   8.047  1.1157  0.7235  0.3990
  809MOL0     H11608   4.173   1.051   7.836 -0.6487  0.5975  0.4032
  809MOL0     H11609   4.122   0.971   7.988 -1.3876  2.4398  1.0107
  809MOL0     H11610   4.310   1.208   8.018  0.7011 -1.1955 -1.8959
  809MOL0     H11611   4.218   1.119   8.135 -0.3703  0.2376  0.4259
  809MOL0     H11612   4.015   1.219   8.081  0.1011 -2.5570 -0.3881
  809MOL0     H11613   4.076   1.275   7.921  1.3021 -0.1644 -0.4290
  809MOL0     H11614   4.238   1.407   8.100 -0.4447  1.2965 -2.5773
  809MOL0     H11615   4.075   1.467   8.057  3.0587  0.9810 -1.1680
  809MOL0     H11616   4.141   1.300   8.301 -1.7150 -0.5269  2.6909
  809MOL0     H11617   3.993   1.371   8.275  0.3455 -2.8450  2.4392
  809MOL0     H11618   4.119   1.597   8.269 -0.0529 -0.0132 -0.3792
  809MOL0     H11619   4.270   1.517   8.310  0.0926 -1.5705  0.6530
  809MOL0     H11620   4.175   1.454   8.543 -2.3393  0.3912  1.6569
  809MOL0     H11621   4.012   1.480   8.477  0.4962 -3.0895 -0.1265
  809MOL0     H11622   4.417   0.902   7.664 -1.7788 -0.2108  2.9812
  809MOL0     H11623   4.428   1.058   7.450 -1.4137  0.0113 -0.2884
  809MOL0     H11624   4.743   1.281   7.125  1.1253  0.4149  0.6498
  809MOL0     H11625   4.784   1.457   6.954  1.7512  1.0403  0.2283
  809MOL0     H11626   4.289   2.951   5.984  0.8050  1.7555 -0.9255
  809MOL0     H11627   4.202   2.842   5.788 -2.3702 -2.5693  4.6511
  809MOL0     H11628   4.119   2.697   5.377 -1.0857  0.1547  2.8226
  809MOL0     H11629   4.044   2.684   5.128  0.5512  2.8665 -1.3659
  809MOL0     H11630   4.019   2.838   4.938 -1.3629 -2.1718 -1.4617
  809MOL0     H11631   3.881   2.863   4.837  1.9785  1.4480 -0.9220
  809MOL0     H11632   3.946   3.054   5.060 -0.8991 -1.1539 -0.6415
  809MOL0     H11633   3.822   3.070   4.951 -1.1734 -0.0499  1.2240
  809MOL0     H11634   4.017   3.055   4.753  1.2039  0.4350 -0.1088
  809MOL0     H11635   3.963   3.202   4.829 -4.1569 -1.5774  0.0861
  809MOL0     H11636   4.155   3.155   5.006 -1.2479  0.1002  0.5686
  809MOL0     H11637   4.197   3.208   4.843  0.7563 -3.1075 -1.9060
  809MOL0     H11638   4.305   2.796   4.825 -0.4297  0.2631 -0.6860
  809MOL0     H11639   3.725   2.942   5.201 -0.2588  2.1362  0.8566
  809MOL0     H11640   3.827   3.093   5.478  2.9771 -1.3181 -1.8771
  809MOL0     H11641   3.680   3.033   5.398 -1.4046 -2.2742  0.4587
  809MOL0     H11642   3.738   2.956   5.544 -0.4443 -1.9019 -1.5422
  810MOL0     O11643   2.419  10.810  11.098 -0.2971 -0.2665 -0.6540
  810MOL0     C11644   2.371  10.728  11.180  0.1048 -0.1281  0.0426
  810MOL0     O11645   2.243  10.721  11.208  0.7544 -0.7635  0.1095
  810MOL0     C11646   2.161  10.826  11.161  0.1832 -0.2035  0.9250
  810MOL0     C11647   2.120  10.945  11.228 -0.1247  0.3652 -0.3678
  810MOL0     C11648   2.033  11.033  11.175 -0.1976 -0.2002 -0.4884
  810MOL0     C11649   1.968  11.011  11.056  0.1112  0.9547  0.0166
  810MOL0     O11650   1.889  11.102  10.994 -0.2755 -0.6176  0.2115
  810MOL0     C11651   1.759  11.077  10.958  2.1073  1.2216 -0.4023
  810MOL0     C11652   1.656  11.202  10.946 -0.4104  0.2514  0.3733
  810MOL0     C11653   1.691  11.311  10.837  0.4905 -0.4600  0.2037
  810MOL0     C11654   1.571  11.405  10.839  0.4297  0.4740  0.1952
  810MOL0     C11655   1.608  11.533  10.760  0.4352  0.2892  0.5539
  810MOL0     C11656   1.498  11.641  10.790 -0.7939  0.1774 -0.1814
  810MOL0     C11657   1.510  11.774  10.718 -0.5064  0.0596  0.1262
  810MOL0     C11658   1.387  11.863  10.738 -0.7622 -0.5641  0.2661
  810MOL0     N11659   1.363  11.906  10.874  0.9622  0.2200  0.0708
  810MOL0     C11660   1.439  12.008  10.931  0.7548 -0.2432 -0.1539
  810MOL0     C11661   1.404  12.019  11.072 -0.4865 -0.4336 -0.7254
  810MOL0     C11662   1.452  12.120  11.165 -0.7611  1.6686  0.1503
  810MOL0     C11663   1.442  12.261  11.120  0.9485 -1.5698  0.4686
  810MOL0     C11664   1.290  12.315  11.125 -0.2788  0.0410  0.7160
  810MOL0     C11665   1.258  12.414  11.014 -0.4439  0.3651  0.5600
  810MOL0     O11666   1.118  12.457  11.022 -0.5643 -0.6901  0.5379
  810MOL0     C11667   1.087  12.558  10.935  0.1393 -0.0290 -0.4344
  810MOL0     C11668   0.994  12.646  10.976 -0.1491 -0.6093 -0.8098
  810MOL0     C11669   0.962  12.762  10.907 -0.0704 -0.3693 -0.6444
  810MOL0     C11670   0.856  12.846  10.977  0.2617 -0.3799  0.1106
  810MOL0     C11671   1.021  12.784  10.782  0.6137  0.1460  0.1844
  810MOL0     C11672   0.984  12.896  10.683 -0.3640  0.7680 -0.6199
  810MOL0     O11673   1.064  12.917  10.578 -0.0788  0.2234  0.1311
  810MOL0     C11674   1.033  13.015  10.485 -0.4990 -0.5091 -0.0059
  810MOL0     C11675   1.076  13.147  10.499  0.4078  0.5615 -0.6363
  810MOL0     C11676   1.066  13.238  10.387 -0.0350  0.2083 -0.8634
  810MOL0     C11677   0.991  13.197  10.268 -0.4452 -0.9521  0.6617
  810MOL0     O11678   0.996  13.288  10.160  0.1173  0.7492 -1.3516
  810MOL0     C11679   1.002  13.238  10.027  0.0453 -0.8530 -0.5354
  810MOL0     C11680   1.058  13.353   9.937 -0.5399 -0.3773  0.5119
  810MOL0     C11681   1.202  13.381   9.958  0.4954  0.1266 -0.3111
  810MOL0     C11682   1.245  13.511   9.901 -0.1389 -0.4812 -0.0750
  810MOL0     C11683   1.294  13.494   9.761 -0.0283 -0.1290  0.3745
  810MOL0     C11684   1.335  13.628   9.695  0.0720 -0.2867  0.5320
  810MOL0     C11685   1.454  13.695   9.768 -0.6357  0.4737  0.0500
  810MOL0     C11686   1.411  13.787   9.876  0.2656  0.4644 -0.2032
  810MOL0    Cl11687   1.361  13.946   9.799 -0.3923 -0.2138  0.3667
  810MOL0     C11688   0.940  13.067  10.265  0.5346 -0.7600 -0.7903
  810MOL0     C11689   0.954  12.979  10.370 -0.9493  1.2719 -0.5192
  810MOL0     O11690   0.890  12.971  10.719 -0.2725 -0.0416  0.3534
  810MOL0     C11691   1.108  12.689  10.734  0.1895 -0.3414  0.6930
  810MOL0     C11692   1.140  12.586  10.813 -0.1018 -0.0556  0.6382
  810MOL0     N11693   1.294  11.927  11.080 -0.2336  0.6297  0.1660
  810MOL0     N11694   1.272  11.865  10.964 -0.4370 -0.6096  0.1932
  810MOL0     C11695   2.009  10.902  10.981  0.0540 -0.4614 -0.3349
  810MOL0     C11696   2.106  10.815  11.032 -0.4601 -0.0537 -0.8205
  810MOL0     C11697   2.454  10.624  11.243 -0.5586  0.2362  0.1682
  810MOL0     C11698   2.580  10.654  11.282 -0.8753  0.1807  0.0939
  810MOL0     C11699   2.669  10.560  11.350  0.0347 -0.2200  0.5763
  810MOL0     C11700   2.634  10.436  11.383 -0.2633  1.2577  0.2088
  810MOL0     O11701   2.729  10.360  11.455 -0.3328  0.0659  0.1756
  810MOL0     C11702   2.712  10.216  11.446 -1.4902 -0.3939  0.2961
  810MOL0     C11703   2.756  10.147  11.321  0.1507  0.2141 -0.2244
  810MOL0     C11704   2.894  10.181  11.275 -0.7090 -0.4356  0.1193
  810MOL0     C11705   2.931  10.092  11.152 -0.1607 -1.2762 -0.4117
  810MOL0     C11706   3.015  10.159  11.044 -0.5762 -0.1598 -0.4614
  810MOL0     C11707   3.074  10.209  10.949  0.1742  0.0184  0.0822
  810MOL0     C11708   2.499  10.398  11.341  0.1187  0.3290  0.2691
  810MOL0     C11709   2.415  10.489  11.268 -0.3688  0.7882  0.5631
  810MOL0     C11710   2.287  10.439  11.215 -0.1941  0.7325  1.1720
  810MOL0     H11711   2.162  10.966  11.326 -3.6651  1.2290  1.1027
  810MOL0     H11712   2.019  11.128  11.225 -0.7729  0.3136 -1.5846
  810MOL0     H11713   1.712  11.012  11.033  0.7803  2.4098 -0.1453
  810MOL0     H11714   1.744  11.014  10.870  1.3036 -0.8132  1.1196
  810MOL0     H11715   1.560  11.154  10.929  0.1362 -0.6796 -0.1975
  810MOL0     H11716   1.658  11.249  11.045 -0.1560  2.6407 -0.6941
  810MOL0     H11717   1.787  11.360  10.859 -0.9665  2.5261  0.3676
  810MOL0     H11718   1.687  11.272  10.735 -0.9302  0.9383 -0.3111
  810MOL0     H11719   1.493  11.345  10.790  0.9925 -0.0904 -0.0363
  810MOL0     H11720   1.537  11.420  10.941  0.3162  0.2280  0.1953
  810MOL0     H11721   1.633  11.519  10.654  1.4084  2.3669  0.4494
  810MOL0     H11722   1.705  11.569  10.797  0.2708 -0.0493  1.3122
  810MOL0     H11723   1.403  11.590  10.768 -0.6222 -1.1554  1.8722
  810MOL0     H11724   1.511  11.660  10.897  1.7931 -1.3654 -0.1428
  810MOL0     H11725   1.524  11.753  10.611  1.0631  0.4069  0.2455
  810MOL0     H11726   1.596  11.829  10.756 -1.7591  0.7292  2.1321
  810MOL0     H11727   1.394  11.952  10.674  0.2670 -1.5960 -1.1277
  810MOL0     H11728   1.300  11.809  10.700 -1.1363 -1.4772  2.3297
  810MOL0     H11729   1.503  12.090  10.898 -1.3355  2.5031  2.0899
  810MOL0     H11730   1.557  12.094  11.185 -0.7347  3.1999  2.2451
  810MOL0     H11731   1.412  12.093  11.263  0.5958 -1.9635 -0.1351
  810MOL0     H11732   1.496  12.338  11.175  0.2880  0.0361 -1.0238
  810MOL0     H11733   1.467  12.269  11.014  0.9686 -0.1311  0.5690
  810MOL0     H11734   1.218  12.234  11.115 -0.1672 -0.0544  0.6828
  810MOL0     H11735   1.288  12.364  11.223 -0.7798 -1.7642  1.6528
  810MOL0     H11736   1.331  12.494  11.030  2.1280 -1.9460  1.2350
  810MOL0     H11737   1.274  12.367  10.917 -2.3866  1.4606 -0.3544
  810MOL0     H11738   0.948  12.612  11.068  1.4061  1.0940  0.7141
  810MOL0     H11739   0.902  12.939  11.012 -1.8404  1.4140 -1.6192
  810MOL0     H11740   0.808  12.802  11.065  0.3501  1.3336  1.0620
  810MOL0     H11741   0.776  12.881  10.911 -1.3019  1.6304  2.8968
  810MOL0     H11742   1.133  13.177  10.586 -0.9485 -0.7370  0.7526
  810MOL0     H11743   1.115  13.335  10.387  1.6533 -0.6028 -1.0162
  810MOL0     H11744   1.056  13.144  10.013  1.5932  0.1181 -1.3439
  810MOL0     H11745   0.903  13.224   9.984  0.7206  0.9776 -2.8299
  810MOL0     H11746   1.038  13.324   9.834  0.1421  3.0839 -0.7391
  810MOL0     H11747   0.998  13.444   9.950 -2.8411 -1.9102  1.1098
  810MOL0     H11748   1.269  13.305   9.917  2.1544  0.2739  1.9443
  810MOL0     H11749   1.226  13.377  10.065  0.2655 -2.1852 -0.2916
  810MOL0     H11750   1.333  13.538   9.960  1.9091 -0.2209 -3.0549
  810MOL0     H11751   1.163  13.584   9.905  0.5475  0.3874 -1.2540
  810MOL0     H11752   1.372  13.418   9.768  2.4201  2.2119  0.3653
  810MOL0     H11753   1.214  13.458   9.696 -0.3096  0.1501  0.5640
  810MOL0     H11754   1.245  13.688   9.682 -1.2820 -2.5474 -1.3151
  810MOL0     H11755   1.373  13.594   9.598  0.3974 -2.8352  1.4816
  810MOL0     H11756   1.522  13.750   9.702 -2.2209 -0.7404 -2.7886
  810MOL0     H11757   1.516  13.623   9.822 -0.6490 -0.5942 -1.3125
  810MOL0     H11758   1.498  13.802   9.940  0.5943  1.5004 -0.8530
  810MOL0     H11759   1.330  13.746   9.937 -0.7198  3.5580  0.7407
  810MOL0     H11760   0.891  13.026  10.178  0.2930  1.2181 -1.6338
  810MOL0     H11761   0.909  12.880  10.359 -0.4757  0.8402  1.0486
  810MOL0     H11762   1.157  12.692  10.637  1.1329 -3.4200  0.9589
  810MOL0     H11763   1.212  12.520  10.765 -0.6641  1.1962 -2.1198
  810MOL0     H11764   1.981  10.896  10.877 -0.1627  2.7303 -0.5405
  810MOL0     H11765   2.134  10.730  10.971  1.2203  2.0007 -3.1268
  810MOL0     H11766   2.618  10.747  11.241 -2.0313  1.3132  1.4704
  810MOL0     H11767   2.766  10.601  11.375  0.7804 -0.6139 -1.4976
  810MOL0     H11768   2.772  10.175  11.528 -0.5209 -0.5487 -0.4714
  810MOL0     H11769   2.607  10.190  11.460 -2.5635  2.8506 -0.8789
  810MOL0     H11770   2.696  10.184  11.237 -0.5631  2.3502  1.1656
  810MOL0     H11771   2.741  10.040  11.341 -1.1202  0.7180  1.8369
  810MOL0     H11772   2.905  10.286  11.246 -0.0838 -0.2878  0.8662
  810MOL0     H11773   2.969  10.171  11.354 -0.6622  0.2147  0.1634
  810MOL0     H11774   2.843  10.054  11.100 -1.5097  0.9738  0.0765
  810MOL0     H11775   2.984  10.007  11.195  0.4755 -0.6332  0.1034
  810MOL0     H11776   3.127  10.243  10.862  2.9335 -1.2125  1.1619
  810MOL0     H11777   2.464  10.298  11.362 -2.2068  0.4435 -2.5284
  810MOL0     H11778   2.293  10.335  11.181  0.1049  1.5798 -1.6915
  810MOL0     H11779   2.216  10.452  11.297  0.3758 -2.9330  2.4051
  810MOL0     H11780   2.258  10.490  11.122 -0.9854 -0.1484  0.9215
  811MOL0     O11781   2.230   9.132   8.252  0.3551 -0.2869  0.1626
  811MOL0     C11782   2.297   9.107   8.348 -0.0114  0.1940  0.7439
  811MOL0     O11783   2.427   9.062   8.338  0.1782 -0.7989  0.5949
  811MOL0     C11784   2.486   9.064   8.213 -0.5930  0.1083  0.0863
  811MOL0     C11785   2.490   9.168   8.129 -0.4115 -0.1116 -0.6803
  811MOL0     C11786   2.547   9.168   8.003 -0.7375 -0.3825 -0.1007
  811MOL0     C11787   2.629   9.063   7.958  0.3524  0.1756 -0.7781
  811MOL0     O11788   2.692   9.070   7.834  0.2064  0.6661 -0.0439
  811MOL0     C11789   2.825   9.014   7.823  0.6589 -1.3503 -0.8315
  811MOL0     C11790   2.908   9.063   7.704 -0.3266  0.4490 -0.7294
  811MOL0     C11791   2.911   9.216   7.705  0.3189  0.5348 -0.0593
  811MOL0     C11792   2.999   9.279   7.607 -0.5793 -0.0270 -0.6748
  811MOL0     C11793   2.998   9.430   7.611 -0.0935 -0.1135  0.5036
  811MOL0     C11794   3.094   9.478   7.504  0.3082  0.5530  0.0725
  811MOL0     C11795   3.116   9.631   7.500  0.2477  0.2883 -0.6027
  811MOL0     C11796   3.257   9.659   7.443 -1.4751  0.0436  0.1597
  811MOL0     N11797   3.273   9.786   7.371  1.0141 -0.1415  0.3594
  811MOL0     C11798   3.397   9.841   7.331  0.4873  0.1117 -0.0224
  811MOL0     C11799   3.360   9.961   7.276  0.4994  0.4872  0.4354
  811MOL0     C11800   3.446  10.056   7.212  0.0092 -0.7784 -0.0979
  811MOL0     C11801   3.445  10.197   7.284  0.1171  0.2003 -0.1766
  811MOL0     C11802   3.527  10.293   7.197  0.4812 -0.7884 -0.1304
  811MOL0     C11803   3.532  10.422   7.281  0.3846 -0.3493  0.3132
  811MOL0     O11804   3.406  10.493   7.277  0.5170 -0.6200 -0.1317
  811MOL0     C11805   3.332  10.502   7.161  0.2846 -0.8309 -0.0103
  811MOL0     C11806   3.389  10.531   7.041 -0.8263 -0.1957  0.2498
  811MOL0     C11807   3.316  10.562   6.928 -1.1217 -0.2752 -0.5713
  811MOL0     C11808   3.408  10.586   6.811  1.5278 -0.1346 -0.1838
  811MOL0     C11809   3.178  10.571   6.941 -0.0243  0.1349  0.0051
  811MOL0     C11810   3.095  10.617   6.841  0.1338 -0.3093  0.8501
  811MOL0     O11811   3.000  10.718   6.855 -0.4854  0.7202  0.1213
  811MOL0     C11812   3.050  10.839   6.881  0.4767 -0.2722 -1.1169
  811MOL0     C11813   3.048  10.887   7.019 -0.6571  1.3789 -0.1589
  811MOL0     C11814   3.107  10.999   7.058 -0.3895 -0.1621  0.8504
  811MOL0     C11815   3.166  11.084   6.965 -0.3576  0.2819  0.2785
  811MOL0     O11816   3.237  11.203   6.980  1.2963  0.5824 -0.4069
  811MOL0     C11817   3.224  11.269   7.102 -0.0527  0.0919 -0.5433
  811MOL0     C11818   3.311  11.393   7.114 -0.4734  0.0073  0.9570
  811MOL0     C11819   3.292  11.464   7.245  0.2478 -0.0800 -0.0449
  811MOL0     C11820   3.360  11.596   7.262 -1.1624 -0.3086 -0.8103
  811MOL0     C11821   3.313  11.673   7.380 -0.3373 -0.1150  0.4952
  811MOL0     C11822   3.390  11.805   7.384  0.3106 -1.0797  0.0915
  811MOL0     C11823   3.350  11.889   7.507  0.0424  0.2993 -0.1249
  811MOL0     C11824   3.391  11.814   7.642  0.0655  0.1314  0.2742
  811MOL0    Cl11825   3.396  11.928   7.770 -0.3578  0.5815 -0.2985
  811MOL0     C11826   3.161  11.042   6.832 -0.3430  0.0502  0.5434
  811MOL0     C11827   3.109  10.924   6.783 -0.5915  0.4782 -0.2935
  811MOL0     O11828   3.113  10.552   6.739  0.1696 -0.4116 -0.7440
  811MOL0     C11829   3.113  10.541   7.064  0.3897  0.5599 -0.6436
  811MOL0     C11830   3.190  10.509   7.174 -0.0475 -0.3694  0.5522
  811MOL0     N11831   3.229   9.984   7.317  1.1518 -0.5354 -0.0435
  811MOL0     N11832   3.175   9.880   7.365 -0.5658  0.3117  0.1790
  811MOL0     C11833   2.633   8.951   8.051  0.0074  0.5317 -0.5335
  811MOL0     C11834   2.564   8.955   8.170 -0.2246  0.1580 -0.5679
  811MOL0     C11835   2.243   9.132   8.483 -0.9213  0.4427  0.4518
  811MOL0     C11836   2.309   9.061   8.586  0.2077  0.6989  0.0675
  811MOL0     C11837   2.273   9.098   8.716  0.4076 -0.3604  0.7493
  811MOL0     C11838   2.166   9.181   8.737  0.0664  0.1866  0.4078
  811MOL0     O11839   2.140   9.201   8.870  0.3683  0.0614  0.5775
  811MOL0     C11840   2.005   9.180   8.910 -0.3064 -0.5817 -0.3679
  811MOL0     C11841   1.995   9.182   9.058  0.5541  0.9550  0.7917
  811MOL0     C11842   1.865   9.215   9.121  0.3354  0.5735  0.4048
  811MOL0     C11843   1.867   9.261   9.267 -0.1298  0.2139 -0.4953
  811MOL0     C11844   1.751   9.340   9.312  0.3275  0.6428 -0.4062
  811MOL0     C11845   1.652   9.413   9.324  0.8268 -0.5647 -0.5487
  811MOL0     C11846   2.075   9.225   8.631 -1.0940  0.3733 -0.4482
  811MOL0     C11847   2.121   9.205   8.504  0.5871 -0.7360  0.0569
  811MOL0     C11848   2.059   9.288   8.401 -0.7859 -0.2057  0.1699
  811MOL0     H11849   2.443   9.261   8.159  0.2436 -0.2934  0.9980
  811MOL0     H11850   2.549   9.259   7.944 -2.1999  0.0752  0.5266
  811MOL0     H11851   2.811   8.907   7.806  1.7988 -1.3997 -1.5119
  811MOL0     H11852   2.874   9.030   7.920 -1.5377 -2.3553  0.5256
  811MOL0     H11853   3.013   9.037   7.720  0.5447  3.0591 -1.7268
  811MOL0     H11854   2.857   9.015   7.620 -3.4265 -0.0290  1.2258
  811MOL0     H11855   2.808   9.249   7.687  0.1308  0.3521  0.6643
  811MOL0     H11856   2.932   9.259   7.803 -1.1186  3.3714 -0.9013
  811MOL0     H11857   3.097   9.244   7.638 -1.9322 -1.2158  2.7870
  811MOL0     H11858   2.977   9.248   7.505 -0.4951  3.5151 -1.9330
  811MOL0     H11859   3.025   9.466   7.711 -1.5102 -0.2286  0.9487
  811MOL0     H11860   2.900   9.471   7.586 -0.5666 -1.9480 -0.7858
  811MOL0     H11861   3.190   9.431   7.529  1.7393  2.3776 -1.6526
  811MOL0     H11862   3.058   9.449   7.405  1.7473  0.4992 -0.4651
  811MOL0     H11863   3.123   9.666   7.603  0.6183 -1.1278 -0.1241
  811MOL0     H11864   3.043   9.677   7.433 -0.8985 -0.4632  0.0990
  811MOL0     H11865   3.326   9.660   7.527 -0.2005 -1.9304 -0.7590
  811MOL0     H11866   3.284   9.578   7.374 -3.3041  0.9664 -1.7543
  811MOL0     H11867   3.487   9.785   7.353 -1.0788 -0.8381  6.0111
  811MOL0     H11868   3.412  10.069   7.109 -0.5200 -1.9639 -0.0863
  811MOL0     H11869   3.548  10.015   7.207 -0.2326 -1.3493 -0.4570
  811MOL0     H11870   3.350  10.250   7.288  0.9099  1.9221 -1.9915
  811MOL0     H11871   3.487  10.188   7.384  4.0044  2.4595 -1.3817
  811MOL0     H11872   3.629  10.253   7.195  0.9083  0.1948 -3.3521
  811MOL0     H11873   3.477  10.306   7.100 -4.7800 -0.9679  2.2133
  811MOL0     H11874   3.555  10.414   7.388  1.3653  1.7336  0.3135
  811MOL0     H11875   3.613  10.480   7.236 -3.0769  2.1505 -3.4221
  811MOL0     H11876   3.497  10.537   7.029 -1.0024  0.1119 -1.3437
  811MOL0     H11877   3.379  10.681   6.766  1.1698 -0.2542 -0.2046
  811MOL0     H11878   3.394  10.520   6.725  2.3884  1.4084 -1.5661
  811MOL0     H11879   3.516  10.588   6.831  1.1233 -1.2521  2.5227
  811MOL0     H11880   2.991  10.823   7.085 -1.1721  0.6498 -1.2883
  811MOL0     H11881   3.112  11.030   7.161  0.6972 -2.9137  1.7317
  811MOL0     H11882   3.121  11.295   7.127  0.6743  1.6514  0.9974
  811MOL0     H11883   3.259  11.205   7.183 -1.1086  1.9535  1.4873
  811MOL0     H11884   3.418  11.379   7.094 -0.6052  0.9841 -0.6422
  811MOL0     H11885   3.271  11.461   7.038 -0.4661 -1.2080 -0.1628
  811MOL0     H11886   3.317  11.388   7.319  0.9779 -0.4812 -0.6876
  811MOL0     H11887   3.185  11.478   7.259 -0.0893  1.4687 -3.3181
  811MOL0     H11888   3.338  11.658   7.174 -0.3153 -0.1039 -0.8805
  811MOL0     H11889   3.464  11.564   7.269 -1.0931  0.2792  2.8268
  811MOL0     H11890   3.207  11.703   7.375 -0.5571 -0.3741  2.7086
  811MOL0     H11891   3.318  11.615   7.473  4.4286 -2.9091 -1.1455
  811MOL0     H11892   3.366  11.864   7.294  1.2242 -2.2117 -0.9233
  811MOL0     H11893   3.498  11.788   7.388  0.4587 -0.7502 -1.5669
  811MOL0     H11894   3.242  11.903   7.521  0.4943  0.4715  4.8760
  811MOL0     H11895   3.401  11.985   7.503  0.2295  0.3331  2.0023
  811MOL0     H11896   3.477  11.748   7.628 -0.7227 -0.9357  0.3575
  811MOL0     H11897   3.308  11.745   7.662 -2.0152  2.2032 -0.6030
  811MOL0     H11898   3.211  11.099   6.754 -1.7068  0.5922  0.0282
  811MOL0     H11899   3.121  10.891   6.681  0.4777  0.0942 -0.0533
  811MOL0     H11900   3.008  10.563   7.084  0.9850  1.1051  2.3664
  811MOL0     H11901   3.141  10.495   7.270 -0.0510  0.3888  0.6644
  811MOL0     H11902   2.702   8.868   8.041  2.4475  2.0937  1.9171
  811MOL0     H11903   2.575   8.880   8.248  1.8924  2.0977  1.1377
  811MOL0     H11904   2.395   9.000   8.558 -0.3122  0.0905 -0.2381
  811MOL0     H11905   2.327   9.068   8.805  1.9295 -2.4194 -0.7776
  811MOL0     H11906   1.946   9.265   8.873 -0.2520  0.1986  1.2461
  811MOL0     H11907   1.970   9.087   8.865  0.3473 -0.1397 -1.8507
  811MOL0     H11908   2.060   9.266   9.081  1.9869  1.5314 -4.2086
  811MOL0     H11909   2.034   9.092   9.107 -0.8338 -0.4466 -0.5300
  811MOL0     H11910   1.813   9.290   9.061  2.3876  2.8316  1.3042
  811MOL0     H11911   1.810   9.120   9.130  0.1474  0.4423 -1.6683
  811MOL0     H11912   1.947   9.336   9.272  0.9160 -0.9600  1.7831
  811MOL0     H11913   1.888   9.170   9.324  2.5092  0.2431 -1.3139
  811MOL0     H11914   1.584   9.495   9.336  0.4937 -0.4471 -2.8229
  811MOL0     H11915   1.984   9.280   8.651 -1.5799 -1.2749  2.4345
  811MOL0     H11916   2.011   9.379   8.437  1.3885  0.9189  0.3941
  811MOL0     H11917   2.130   9.331   8.329 -2.7699  0.9237 -1.2411
  811MOL0     H11918   1.980   9.236   8.345 -1.7107  2.8242 -1.6311
  812MOL0     O11919   0.752   1.304   8.473  0.5270  0.0105 -0.0101
  812MOL0     C11920   0.824   1.251   8.555  0.3626  0.5635  0.8041
  812MOL0     O11921   0.904   1.328   8.632 -0.4621 -0.1574  0.6164
  812MOL0     C11922   0.956   1.444   8.577  0.6509 -0.3778  0.3680
  812MOL0     C11923   1.091   1.448   8.522 -0.5254 -0.4564  0.4102
  812MOL0     C11924   1.143   1.553   8.448  0.4373 -0.6940  0.4865
  812MOL0     C11925   1.050   1.663   8.419  0.6004 -1.3370 -0.5807
  812MOL0     O11926   1.098   1.774   8.342 -0.8337  0.3982  0.3280
  812MOL0     C11927   1.182   1.855   8.425 -0.4915 -0.0113  0.3152
  812MOL0     C11928   1.188   1.994   8.364  0.7119  0.0960  0.0206
  812MOL0     C11929   1.288   1.994   8.244  0.2895 -0.0157  0.7662
  812MOL0     C11930   1.436   2.034   8.294  0.5247  0.3358  0.2022
  812MOL0     C11931   1.535   2.068   8.179 -1.1653 -0.5089 -0.2856
  812MOL0     C11932   1.685   2.068   8.222 -0.0329 -0.0241 -0.0701
  812MOL0     C11933   1.772   2.166   8.135 -0.1034 -0.1924  0.8092
  812MOL0     C11934   1.882   2.091   8.045 -0.1221 -0.1901  0.0058
  812MOL0     N11935   1.974   2.006   8.126  0.4618  0.6345 -0.1206
  812MOL0     C11936   2.097   2.038   8.178 -0.6376 -0.3715  0.5700
  812MOL0     C11937   2.141   1.921   8.233  0.5183 -1.1706 -0.1510
  812MOL0     C11938   2.270   1.908   8.303 -0.4589 -0.2449 -0.5552
  812MOL0     C11939   2.376   1.857   8.213  0.5887  1.0526  0.5522
  812MOL0     C11940   2.515   1.856   8.282 -0.1348  0.8275 -0.1877
  812MOL0     C11941   2.583   1.994   8.266  1.0177  0.2817 -1.2254
  812MOL0     O11942   2.602   2.029   8.134  0.2031  0.1889  1.0842
  812MOL0     C11943   2.698   2.120   8.104 -0.6683 -0.3121 -0.8606
  812MOL0     C11944   2.665   2.213   7.998  0.0136  0.3148 -0.1178
  812MOL0     C11945   2.741   2.329   7.964 -0.2677 -0.3666  0.1285
  812MOL0     C11946   2.681   2.418   7.873 -0.3524  0.4435  0.1087
  812MOL0     C11947   2.859   2.343   8.028 -0.7952 -0.0450 -0.0015
  812MOL0     C11948   2.963   2.448   7.994  0.4011 -0.5007 -0.4886
  812MOL0     O11949   3.090   2.421   8.041  0.9027  0.1664  0.9022
  812MOL0     C11950   3.187   2.512   8.017 -0.5589  0.4334 -0.1100
  812MOL0     C11951   3.304   2.465   7.951  0.1242  0.0479  0.6708
  812MOL0     C11952   3.420   2.542   7.957  1.0593 -0.0458  0.2635
  812MOL0     C11953   3.416   2.674   8.017 -0.5524  0.3692 -0.0896
  812MOL0     O11954   3.511   2.770   8.012 -0.3206  0.6390  0.4119
  812MOL0     C11955   3.645   2.731   8.053  0.0821  0.0708 -0.1084
  812MOL0     C11956   3.693   2.825   8.163  0.1523 -0.4277  0.7242
  812MOL0     C11957   3.834   2.789   8.199  0.1537 -0.1527 -0.5872
  812MOL0     C11958   3.872   2.854   8.336  0.0001  0.1010  0.4588
  812MOL0     C11959   3.831   2.767   8.459 -0.3659  0.4776  0.3443
  812MOL0     C11960   3.927   2.649   8.460  0.5781 -0.2369  0.1087
  812MOL0     C11961   3.938   2.590   8.592 -0.0822 -0.8694  0.9719
  812MOL0     C11962   4.050   2.489   8.596 -0.4317 -0.3201 -0.1525
  812MOL0    Cl11963   4.183   2.592   8.624  0.6669 -0.4996 -0.2498
  812MOL0     C11964   3.299   2.722   8.080  0.1439  1.2541  0.8267
  812MOL0     C11965   3.188   2.639   8.084 -0.5135  0.4153 -0.1890
  812MOL0     O11966   2.932   2.558   7.943  0.4664 -0.0993 -0.2830
  812MOL0     C11967   2.899   2.251   8.132 -0.3696  0.5335  0.1900
  812MOL0     C11968   2.825   2.131   8.160  0.5656 -0.2451  0.1663
  812MOL0     N11969   2.045   1.824   8.206 -0.3268 -0.0850 -1.0309
  812MOL0     N11970   1.946   1.875   8.140 -0.3639  0.0402  0.3618
  812MOL0     C11971   0.914   1.660   8.457  0.1691 -1.4689  0.9072
  812MOL0     C11972   0.868   1.550   8.541 -0.4550 -0.4180 -0.0685
  812MOL0     C11973   0.837   1.102   8.563  0.7649 -0.3767  0.0706
  812MOL0     C11974   0.945   1.051   8.636 -0.6756  0.5617  0.3672
  812MOL0     C11975   0.971   0.908   8.632  0.0968  0.2433 -0.1082
  812MOL0     C11976   0.890   0.818   8.577  0.1637  0.0100  0.8365
  812MOL0     O11977   0.902   0.683   8.591 -0.4438  0.4424  0.2689
  812MOL0     C11978   0.998   0.638   8.687  0.2859  0.1508 -0.1045
  812MOL0     C11979   0.966   0.491   8.718 -1.0207  0.0876  0.4289
  812MOL0     C11980   0.984   0.401   8.593 -0.9355  0.6124  0.0751
  812MOL0     C11981   0.959   0.252   8.607  1.0094  0.7945  0.0234
  812MOL0     C11982   1.035   0.193   8.710 -0.2266  0.5325 -0.4880
  812MOL0     C11983   1.081   0.128   8.799  0.2685  0.7106  0.6064
  812MOL0     C11984   0.787   0.867   8.496 -0.3285 -0.1393 -0.1521
  812MOL0     C11985   0.758   1.008   8.496 -0.0729 -0.0263 -0.4571
  812MOL0     C11986   0.620   1.034   8.416 -0.8656  0.6760  1.3387
  812MOL0     H11987   1.159   1.368   8.547  0.6741  0.8244  1.4187
  812MOL0     H11988   1.240   1.568   8.402 -0.8435  0.4445 -2.0460
  812MOL0     H11989   1.286   1.821   8.424  0.3176  2.2594  1.4103
  812MOL0     H11990   1.155   1.867   8.531 -1.9847  1.1092 -0.1573
  812MOL0     H11991   1.099   2.041   8.321  0.8271  1.4839  1.2151
  812MOL0     H11992   1.225   2.065   8.439  3.6124  3.1432 -3.8438
  812MOL0     H11993   1.309   1.907   8.181  1.9804 -0.1323  1.4352
  812MOL0     H11994   1.247   2.069   8.176  0.7428 -2.3382 -2.2957
  812MOL0     H11995   1.418   2.127   8.348 -2.7482 -0.3641  0.5498
  812MOL0     H11996   1.476   1.957   8.361  1.1793  1.4260  1.0945
  812MOL0     H11997   1.506   2.165   8.137  4.2764  1.5310 -0.1716
  812MOL0     H11998   1.529   1.997   8.096  0.8911  0.7104 -1.5717
  812MOL0     H11999   1.702   2.077   8.329 -0.2575  1.8548 -0.1637
  812MOL0     H12000   1.723   1.967   8.204  1.0490 -0.2426  2.8912
  812MOL0     H12001   1.805   2.244   8.204 -0.6833  2.3967 -1.6814
  812MOL0     H12002   1.709   2.222   8.066  1.1361  1.7271  1.1721
  812MOL0     H12003   1.824   2.034   7.973  0.4557 -1.7331  0.7133
  812MOL0     H12004   1.938   2.169   7.992  0.3548  1.0654  2.2167
  812MOL0     H12005   2.163   2.123   8.161 -1.6929  0.2386 -0.5742
  812MOL0     H12006   2.240   1.850   8.391 -3.3153  0.2222 -1.1214
  812MOL0     H12007   2.297   2.012   8.323  2.7357 -0.8536 -1.1985
  812MOL0     H12008   2.344   1.755   8.188  0.3301  0.8200  1.7869
  812MOL0     H12009   2.382   1.923   8.126  0.1794  0.6937  0.2429
  812MOL0     H12010   2.486   1.837   8.386  0.3857  2.6353  0.3341
  812MOL0     H12011   2.572   1.774   8.239  3.5592  2.0144  2.0237
  812MOL0     H12012   2.511   2.053   8.323 -2.4413 -1.1902 -3.6872
  812MOL0     H12013   2.680   2.004   8.315  1.2766  0.3159 -1.7475
  812MOL0     H12014   2.569   2.191   7.952 -0.8921  1.2511  1.2361
  812MOL0     H12015   2.677   2.517   7.917  1.6235  0.7478 -0.3017
  812MOL0     H12016   2.584   2.395   7.828 -0.5845  1.7207 -0.0791
  812MOL0     H12017   2.751   2.419   7.788  0.8096  0.6647  1.0454
  812MOL0     H12018   3.300   2.361   7.918  0.2089  0.0882  0.5367
  812MOL0     H12019   3.518   2.509   7.923  1.2771  2.4766 -1.8635
  812MOL0     H12020   3.655   2.628   8.087  0.9430 -0.3595 -1.5621
  812MOL0     H12021   3.717   2.746   7.971 -0.1380 -0.9129 -0.4923
  812MOL0     H12022   3.682   2.925   8.120 -0.9806 -0.4922  0.8418
  812MOL0     H12023   3.635   2.815   8.255  0.1394  0.3368  0.7996
  812MOL0     H12024   3.908   2.815   8.122  0.4777 -0.2220 -0.3049
  812MOL0     H12025   3.844   2.681   8.207  0.8757 -0.1769 -1.5733
  812MOL0     H12026   3.822   2.951   8.344  2.3919  1.6814 -2.0887
  812MOL0     H12027   3.978   2.877   8.325  0.1984 -0.7257  0.5076
  812MOL0     H12028   3.844   2.834   8.544  0.7867  1.8531 -0.8619
  812MOL0     H12029   3.727   2.733   8.466 -0.3225  0.5751  1.7694
  812MOL0     H12030   4.029   2.670   8.427  1.1468 -1.0438  1.2978
  812MOL0     H12031   3.899   2.572   8.387 -0.9438 -0.3147  0.7269
  812MOL0     H12032   3.848   2.534   8.619  1.7985 -3.9353  1.4042
  812MOL0     H12033   3.949   2.669   8.667 -0.3270  0.8379 -0.7248
  812MOL0     H12034   4.054   2.433   8.502 -1.8074  1.0161 -1.0742
  812MOL0     H12035   4.040   2.421   8.681  0.1972 -2.2067 -1.4998
  812MOL0     H12036   3.292   2.822   8.123  1.3114  1.1415  1.3259
  812MOL0     H12037   3.096   2.670   8.134 -0.7591  0.0984 -0.4378
  812MOL0     H12038   2.985   2.267   8.197 -0.8808  0.2961  0.9482
  812MOL0     H12039   2.871   2.050   8.217 -1.4012 -2.7679 -1.6083
  812MOL0     H12040   0.848   1.741   8.429  1.0942 -1.3421 -1.1035
  812MOL0     H12041   0.762   1.543   8.561 -0.8012  0.5211 -1.4296
  812MOL0     H12042   1.022   1.104   8.691 -1.9421  1.4182  1.3645
  812MOL0     H12043   1.056   0.881   8.694  0.2965  1.3326  0.1159
  812MOL0     H12044   1.099   0.654   8.648 -0.5522  1.9752 -1.7124
  812MOL0     H12045   0.982   0.681   8.787  2.2842  0.3051  0.1985
  812MOL0     H12046   0.857   0.484   8.723 -1.4623  0.8623 -4.0260
  812MOL0     H12047   1.034   0.455   8.795  1.2606  1.4367 -0.8364
  812MOL0     H12048   0.922   0.435   8.510 -2.5840 -3.0244 -0.3794
  812MOL0     H12049   1.088   0.401   8.558 -0.1391 -1.9213  2.1497
  812MOL0     H12050   0.989   0.191   8.522 -2.3657 -2.5305  0.9110
  812MOL0     H12051   0.852   0.228   8.620  0.6127  1.6329 -1.5523
  812MOL0     H12052   1.114   0.063   8.876 -0.2210 -1.5654 -0.9994
  812MOL0     H12053   0.735   0.785   8.448  1.6916 -3.0227  2.2069
  812MOL0     H12054   0.642   1.025   8.310  0.2338  1.9860  1.4142
  812MOL0     H12055   0.547   0.958   8.444 -1.6922  0.9487 -0.0139
  812MOL0     H12056   0.570   1.130   8.432 -0.4030  0.6766  2.9766
  813MOL0     O12057   8.940  10.779   4.397 -0.2108 -0.5433 -0.8464
  813MOL0     C12058   9.059  10.797   4.367  0.1972  0.0152  0.2851
  813MOL0     O12059   9.132  10.914   4.382 -0.0200  0.1748  0.5679
  813MOL0     C12060   9.050  11.022   4.408 -0.0435  0.5293 -0.1514
  813MOL0     C12061   8.969  11.079   4.307  0.1264 -0.2855  0.7833
  813MOL0     C12062   8.885  11.187   4.336 -0.8419 -0.2076  0.2077
  813MOL0     C12063   8.886  11.252   4.459 -0.2216 -0.4296  0.0828
  813MOL0     O12064   8.830  11.376   4.467 -0.1945 -0.2877 -0.4435
  813MOL0     C12065   8.691  11.381   4.424  1.4527 -0.5095 -0.0677
  813MOL0     C12066   8.633  11.518   4.444 -0.4792 -0.1615 -0.5723
  813MOL0     C12067   8.487  11.529   4.413  0.9521 -1.0425 -0.9496
  813MOL0     C12068   8.465  11.604   4.283  1.1069 -0.3160 -1.0466
  813MOL0     C12069   8.522  11.528   4.162 -0.0857  0.0216 -0.5512
  813MOL0     C12070   8.489  11.605   4.038  0.2374 -0.1374 -0.9453
  813MOL0     C12071   8.555  11.544   3.918  0.1426  0.8729  0.3740
  813MOL0     C12072   8.496  11.603   3.794  0.6002 -0.1587  0.9129
  813MOL0     N12073   8.566  11.542   3.675 -0.0275  0.5223  0.1315
  813MOL0     C12074   8.530  11.420   3.631  0.0110  0.0009  0.1392
  813MOL0     C12075   8.618  11.395   3.530 -0.3314 -0.2796  0.2078
  813MOL0     C12076   8.623  11.274   3.448 -0.8023 -0.0026  0.5939
  813MOL0     C12077   8.778  11.216   3.469 -0.4956  0.0024 -0.2442
  813MOL0     C12078   8.820  11.108   3.378  0.7192  0.1758  0.0820
  813MOL0     C12079   8.729  10.985   3.383  0.0440  0.0792 -0.0293
  813MOL0     O12080   8.765  10.924   3.505  0.2120  0.0358  0.9889
  813MOL0     C12081   8.828  10.808   3.483  0.0446 -0.9142  0.5532
  813MOL0     C12082   8.971  10.811   3.496  0.4651 -0.0953  0.5388
  813MOL0     C12083   9.044  10.699   3.460  0.5796 -0.5396  0.0179
  813MOL0     C12084   9.187  10.721   3.442  0.1398  0.2329 -0.1981
  813MOL0     C12085   8.983  10.577   3.427 -0.0650  0.4184 -0.3726
  813MOL0     C12086   9.071  10.452   3.409  1.2417 -0.4274  0.3075
  813MOL0     O12087   9.014  10.357   3.322  0.1658  0.5764 -0.1507
  813MOL0     C12088   9.074  10.235   3.313 -0.3785 -0.2132 -0.4084
  813MOL0     C12089   9.037  10.122   3.395  0.5569 -0.9102  0.5721
  813MOL0     C12090   9.105  10.000   3.361 -1.3715  0.1686 -0.3909
  813MOL0     C12091   9.200   9.988   3.257 -0.0882  0.5963  0.0818
  813MOL0     O12092   9.260   9.868   3.229  0.9166 -0.0096  0.5844
  813MOL0     C12093   9.204   9.805   3.110 -0.3337  0.7858  0.5006
  813MOL0     C12094   9.246   9.662   3.097 -0.2124 -0.6657  0.3820
  813MOL0     C12095   9.404   9.666   3.060  0.4549 -0.7869  0.7363
  813MOL0     C12096   9.416   9.684   2.909 -0.3649  0.0992 -0.7488
  813MOL0     C12097   9.562   9.682   2.850  0.3324 -0.7788 -0.4248
  813MOL0     C12098   9.639   9.552   2.819 -0.1941  0.6038  0.5057
  813MOL0     C12099   9.680   9.449   2.923 -0.2956 -0.9430  0.0269
  813MOL0     C12100   9.789   9.496   3.012 -0.0754 -0.4098 -0.4852
  813MOL0    Cl12101   9.755   9.651   3.102 -0.3587  0.1290 -0.1548
  813MOL0     C12102   9.231  10.096   3.177  0.2994 -1.3316 -0.7271
  813MOL0     C12103   9.173  10.218   3.203  0.1610  0.0473 -0.4049
  813MOL0     O12104   9.171  10.431   3.483  0.1616 -0.0142 -0.1110
  813MOL0     C12105   8.842  10.576   3.404  0.2596 -0.4051  0.2159
  813MOL0     C12106   8.766  10.691   3.430 -0.2087 -0.4885  0.3796
  813MOL0     N12107   8.696  11.511   3.515  0.3778 -0.3838 -0.1533
  813MOL0     N12108   8.674  11.592   3.606 -0.2129  0.5917  0.0775
  813MOL0     C12109   8.963  11.189   4.561 -0.9993 -0.2287  0.4928
  813MOL0     C12110   9.040  11.075   4.534  0.2993 -0.1404 -1.3550
  813MOL0     C12111   9.138  10.684   4.319 -0.2394 -0.2009 -0.0072
  813MOL0     C12112   9.240  10.717   4.228  0.7589 -0.8174 -0.6639
  813MOL0     C12113   9.316  10.613   4.173 -0.2623  0.4411  0.6588
  813MOL0     C12114   9.307  10.476   4.205 -0.5176 -0.3826 -0.3266
  813MOL0     O12115   9.399  10.397   4.150 -0.3755  0.1875 -0.2283
  813MOL0     C12116   9.401  10.255   4.164 -0.3822  1.0219 -0.3398
  813MOL0     C12117   9.537  10.199   4.125 -0.5515 -0.3451 -0.1115
  813MOL0     C12118   9.620  10.131   4.241 -0.6097 -0.5645 -0.4347
  813MOL0     C12119   9.770  10.120   4.184  0.4927  0.2143  0.1031
  813MOL0     C12120   9.860  10.065   4.281  0.6852 -0.4308 -0.1415
  813MOL0     C12121   9.932  10.013   4.357 -0.9075 -0.7731 -0.1387
  813MOL0     C12122   9.205  10.441   4.285  0.2097 -0.3291  0.5840
  813MOL0     C12123   9.114  10.540   4.334  0.2287  0.7854 -0.1473
  813MOL0     C12124   8.994  10.472   4.409 -0.1501 -0.1673  0.0694
  813MOL0     H12125   8.966  11.028   4.211  1.8771 -0.9806  1.0513
  813MOL0     H12126   8.825  11.233   4.258 -1.3647  1.9225  1.7576
  813MOL0     H12127   8.637  11.305   4.481  0.9582 -0.0068  0.1376
  813MOL0     H12128   8.687  11.362   4.316  4.2956 -4.2921  0.2684
  813MOL0     H12129   8.645  11.545   4.549 -2.2723  1.2766 -0.6740
  813MOL0     H12130   8.686  11.602   4.398 -0.2405  0.5695  0.9617
  813MOL0     H12131   8.426  11.438   4.412  0.0714 -0.7662  3.8908
  813MOL0     H12132   8.443  11.596   4.487 -0.1022 -1.4034 -1.2260
  813MOL0     H12133   8.359  11.617   4.260  1.0937  0.7889 -0.4168
  813MOL0     H12134   8.524  11.696   4.291  1.6394 -0.5424 -2.1469
  813MOL0     H12135   8.480  11.428   4.147  1.5764 -0.8727  0.4563
  813MOL0     H12136   8.631  11.524   4.167 -0.0455  1.0155 -0.5898
  813MOL0     H12137   8.380  11.607   4.028 -0.1503 -2.0818  1.8289
  813MOL0     H12138   8.521  11.709   4.050  0.7405 -0.1756 -1.9196
  813MOL0     H12139   8.544  11.436   3.921  1.0182  0.7209 -1.1006
  813MOL0     H12140   8.663  11.562   3.926  0.0688  1.3434  0.3915
  813MOL0     H12141   8.388  11.591   3.787  0.6794 -0.0387 -1.4818
  813MOL0     H12142   8.505  11.712   3.799  0.8068 -0.1904  1.2516
  813MOL0     H12143   8.457  11.347   3.668  0.9618 -1.7977 -1.3654
  813MOL0     H12144   8.605  11.301   3.344  1.2440  0.6365  0.3483
  813MOL0     H12145   8.549  11.200   3.480 -0.1964  0.0295  2.1854
  813MOL0     H12146   8.841  11.305   3.455  0.7071 -0.4939  1.5777
  813MOL0     H12147   8.790  11.192   3.575 -2.3552  1.3882  0.3347
  813MOL0     H12148   8.811  11.140   3.274 -3.2517  0.3245  0.2974
  813MOL0     H12149   8.923  11.081   3.400  0.7499  0.8316  0.7813
  813MOL0     H12150   8.624  11.013   3.383  0.4619  1.8522 -1.4086
  813MOL0     H12151   8.740  10.910   3.305  0.3249 -3.0545  2.7915
  813MOL0     H12152   9.014  10.907   3.520  1.6021 -0.1000 -1.2656
  813MOL0     H12153   9.212  10.645   3.367 -3.2169 -1.2660  0.0384
  813MOL0     H12154   9.240  10.697   3.535 -0.8541 -2.9660 -0.3458
  813MOL0     H12155   9.208  10.818   3.395  0.1653 -1.1197 -3.1982
  813MOL0     H12156   8.956  10.118   3.468 -0.7874 -1.8252 -0.9061
  813MOL0     H12157   9.072   9.911   3.413 -0.3945  1.1296  2.0220
  813MOL0     H12158   9.095   9.794   3.109 -0.1896 -1.1955  1.2816
  813MOL0     H12159   9.237   9.865   3.025  2.0366 -1.5951 -0.3981
  813MOL0     H12160   9.223   9.618   3.194  1.6013  2.3642  2.3641
  813MOL0     H12161   9.186   9.607   3.025  1.5490 -2.3907  0.1362
  813MOL0     H12162   9.448   9.571   3.092  0.5082 -1.4045 -1.0560
  813MOL0     H12163   9.465   9.743   3.107  1.7567 -1.4548  0.1833
  813MOL0     H12164   9.376   9.779   2.872 -0.5439 -0.6362 -2.5512
  813MOL0     H12165   9.352   9.610   2.858 -0.8811 -0.4746  0.6653
  813MOL0     H12166   9.561   9.743   2.759  2.5845  1.3788  0.8585
  813MOL0     H12167   9.633   9.744   2.906 -1.4616  0.8542  0.1407
  813MOL0     H12168   9.731   9.591   2.776 -0.7901  0.2325 -1.1653
  813MOL0     H12169   9.597   9.500   2.732 -2.0365  2.9502 -0.1057
  813MOL0     H12170   9.708   9.353   2.877  1.1276 -1.9672  2.7962
  813MOL0     H12171   9.595   9.435   2.990 -1.2400  1.2219 -0.6441
  813MOL0     H12172   9.884   9.508   2.960  1.4849 -0.5235  2.1468
  813MOL0     H12173   9.795   9.409   3.079  3.0731 -1.2890 -1.7386
  813MOL0     H12174   9.307  10.099   3.100  0.9564  4.1719 -0.2367
  813MOL0     H12175   9.199  10.311   3.154 -1.2845  2.9154  3.7137
  813MOL0     H12176   8.797  10.483   3.371 -2.8369  1.0206  0.1342
  813MOL0     H12177   8.662  10.684   3.400 -0.7533  1.4926  1.6492
  813MOL0     H12178   8.969  11.231   4.661 -1.1206 -0.7352  0.7158
  813MOL0     H12179   9.094  11.028   4.616 -1.0198  0.2845 -0.2065
  813MOL0     H12180   9.259  10.821   4.204  0.5861 -0.4115  0.8241
  813MOL0     H12181   9.401  10.636   4.111  0.7898  2.4935  2.6978
  813MOL0     H12182   9.384  10.231   4.269 -0.1099  1.2305 -0.2467
  813MOL0     H12183   9.317  10.206   4.115 -2.2304  0.1009  3.4064
  813MOL0     H12184   9.605  10.279   4.094  0.8456 -2.1195 -1.9649
  813MOL0     H12185   9.531  10.129   4.040  1.4518  0.7502 -1.2241
  813MOL0     H12186   9.621  10.211   4.316  2.6875  1.2542 -2.1768
  813MOL0     H12187   9.581  10.036   4.278  1.3375  0.5686  5.6163
  813MOL0     H12188   9.803  10.220   4.157  0.0290  0.5311  0.6810
  813MOL0     H12189   9.770  10.057   4.095 -1.3294 -1.4773  1.1996
  813MOL0     H12190  10.001   9.962   4.422 -0.6307 -0.1511  0.0555
  813MOL0     H12191   9.185  10.337   4.307  0.6769 -0.1410  2.0216
  813MOL0     H12192   8.964  10.526   4.500 -3.0505 -1.9116  0.2794
  813MOL0     H12193   8.910  10.466   4.341  0.3355 -2.6865 -0.4139
  813MOL0     H12194   9.022  10.369   4.433  3.0325  0.1693 -1.6926
  814MOL0     O12195   0.400   6.962   9.940 -0.0846  0.7914  0.3562
  814MOL0     C12196   0.385   7.037   9.847 -0.8937 -0.1185  0.1371
  814MOL0     O12197   0.445   7.032   9.731 -0.4486  0.5730 -0.1035
  814MOL0     C12198   0.545   6.939   9.712 -0.1487  0.6457 -0.6814
  814MOL0     C12199   0.677   6.964   9.715 -0.7760 -0.7415  0.4915
  814MOL0     C12200   0.780   6.871   9.690  0.0310  0.5830 -0.1110
  814MOL0     C12201   0.733   6.747   9.638 -0.0593 -0.1911 -0.6180
  814MOL0     O12202   0.824   6.649   9.605  0.4415 -0.0985  0.1593
  814MOL0     C12203   0.879   6.666   9.479  0.2501 -0.1888 -0.5971
  814MOL0     C12204   0.991   6.569   9.451  0.7336 -0.5379 -0.2266
  814MOL0     C12205   1.073   6.610   9.330  0.0220  0.9248  0.9604
  814MOL0     C12206   1.208   6.542   9.330 -0.2205  0.1205 -0.3120
  814MOL0     C12207   1.215   6.391   9.308 -0.2448 -0.2806 -0.0086
  814MOL0     C12208   1.190   6.348   9.158 -0.2509 -1.5040  0.2667
  814MOL0     C12209   1.195   6.204   9.140  0.2999 -0.0208  0.5411
  814MOL0     C12210   1.130   6.148   9.012  0.6728 -0.2716  0.9416
  814MOL0     N12211   1.122   5.997   9.032 -0.4805  0.6735  0.7878
  814MOL0     C12212   1.015   5.927   9.077  0.1589 -0.2251 -0.1160
  814MOL0     C12213   1.053   5.804   9.059 -0.2074  0.4641  0.1695
  814MOL0     C12214   0.978   5.686   9.109 -0.2571  0.2039 -0.5819
  814MOL0     C12215   0.910   5.624   8.987  0.6935 -0.3028 -0.9873
  814MOL0     C12216   0.826   5.503   9.022  0.2769  0.5763 -0.3968
  814MOL0     C12217   0.925   5.385   9.017 -0.2856 -0.1655  0.2960
  814MOL0     O12218   0.858   5.265   9.027 -0.1158  1.5179  0.3070
  814MOL0     C12219   0.922   5.143   9.002 -0.3085 -1.1719 -0.3626
  814MOL0     C12220   0.847   5.028   9.013  0.4880 -0.2873  0.2532
  814MOL0     C12221   0.899   4.899   8.997  0.7235  0.5228 -0.3754
  814MOL0     C12222   0.808   4.776   8.996  0.1986  0.2411  1.3101
  814MOL0     C12223   1.038   4.884   8.975 -0.0481 -0.2747 -0.9070
  814MOL0     C12224   1.110   4.770   8.938 -0.5082  0.3295 -0.5313
  814MOL0     O12225   1.251   4.764   8.961  0.7056 -0.7324  0.3623
  814MOL0     C12226   1.323   4.658   8.913 -0.0680 -0.3722 -0.4905
  814MOL0     C12227   1.407   4.587   8.999 -0.5206 -0.9486  0.4008
  814MOL0     C12228   1.478   4.469   8.955 -0.2655  0.3763  0.9862
  814MOL0     C12229   1.486   4.441   8.815 -0.7656  0.0321  0.7860
  814MOL0     O12230   1.565   4.331   8.782  1.0974 -1.2879 -0.2279
  814MOL0     C12231   1.596   4.302   8.649 -0.1713 -0.4745 -1.1114
  814MOL0     C12232   1.511   4.189   8.602 -0.6955  0.5312 -0.2477
  814MOL0     C12233   1.604   4.107   8.504  0.7338 -0.0043  0.8425
  814MOL0     C12234   1.535   4.004   8.415  0.4054  0.1172 -0.5389
  814MOL0     C12235   1.642   3.930   8.318  0.7311 -0.1768 -0.0905
  814MOL0     C12236   1.567   3.857   8.203  0.3684 -0.1488  0.1259
  814MOL0     C12237   1.503   3.719   8.236  0.5321  0.4315 -0.0121
  814MOL0     C12238   1.440   3.658   8.113 -0.3264  0.0162 -0.4278
  814MOL0    Cl12239   1.313   3.763   8.056  0.3570 -0.2989 -0.0524
  814MOL0     C12240   1.409   4.514   8.727 -0.6418  0.1018  0.0207
  814MOL0     C12241   1.327   4.623   8.771  0.4188 -0.0806 -0.3623
  814MOL0     O12242   1.046   4.689   8.870 -0.5433  0.8321 -0.0580
  814MOL0     C12243   1.113   5.000   8.982  0.2851  0.0712 -1.3615
  814MOL0     C12244   1.056   5.126   8.984 -0.2025 -1.0330 -0.5732
  814MOL0     N12245   1.189   5.799   9.028  0.1773  0.5649  0.6310
  814MOL0     N12246   1.229   5.914   9.002  0.0693  0.6472  0.1528
  814MOL0     C12247   0.598   6.717   9.623 -0.1416  0.0297  0.3193
  814MOL0     C12248   0.508   6.817   9.655  0.6859  0.4181 -0.5057
  814MOL0     C12249   0.275   7.141   9.878 -0.7680 -0.1177  0.9579
  814MOL0     C12250   0.179   7.122   9.977 -0.2581 -0.2422 -0.0679
  814MOL0     C12251   0.061   7.202  10.003 -0.1347 -0.0799 -0.1370
  814MOL0     C12252   0.053   7.323   9.919  0.6667  0.1824 -0.8458
  814MOL0     O12253  -0.037   7.426   9.933 -0.3505 -0.3866 -0.1234
  814MOL0     C12254  -0.142   7.413  10.025 -0.1305 -0.0489 -1.2128
  814MOL0     C12255  -0.080   7.441  10.159 -0.4478  0.6108  0.0510
  814MOL0     C12256  -0.080   7.585  10.197 -0.0548 -0.8021  0.0795
  814MOL0     C12257  -0.031   7.692  10.094 -0.2917  0.0715  0.4318
  814MOL0     C12258   0.054   7.805  10.151 -0.4865  0.3980  0.1922
  814MOL0     C12259   0.131   7.894  10.177 -0.1925 -0.3004 -0.3464
  814MOL0     C12260   0.143   7.347   9.816  0.3801  0.4792 -0.2651
  814MOL0     C12261   0.249   7.255   9.799 -0.3139  0.1610 -0.3761
  814MOL0     C12262   0.346   7.306   9.701  0.1247  0.1831 -0.7249
  814MOL0     H12263   0.710   7.063   9.743 -0.7430 -0.6217  0.0312
  814MOL0     H12264   0.887   6.890   9.683  0.8299 -2.8508  0.5822
  814MOL0     H12265   0.919   6.767   9.484  3.7928 -1.3901 -1.6287
  814MOL0     H12266   0.808   6.651   9.397 -0.2508 -1.3828  0.0238
  814MOL0     H12267   1.051   6.556   9.541  1.4299 -2.0360 -0.8697
  814MOL0     H12268   0.942   6.472   9.432  0.9709 -0.9723  1.2649
  814MOL0     H12269   1.022   6.577   9.239  0.9924  1.1130  0.3294
  814MOL0     H12270   1.089   6.718   9.315  0.6561  0.6605 -0.4738
  814MOL0     H12271   1.272   6.580   9.249  3.7906 -1.4077  1.8512
  814MOL0     H12272   1.263   6.572   9.420 -1.1944  3.1963 -0.6225
  814MOL0     H12273   1.133   6.344   9.364 -2.7417  1.4775 -1.9432
  814MOL0     H12274   1.313   6.353   9.338  0.0213  0.5024  0.1432
  814MOL0     H12275   1.094   6.391   9.130 -0.8920 -3.0088  0.0425
  814MOL0     H12276   1.273   6.391   9.100 -1.5384  1.9451  0.7846
  814MOL0     H12277   1.146   6.162   9.228  0.8514 -0.6906  0.5392
  814MOL0     H12278   1.300   6.172   9.142  0.9780  1.0907 -4.4410
  814MOL0     H12279   1.036   6.194   8.980  1.3768 -0.5063 -1.6372
  814MOL0     H12280   1.200   6.171   8.932  0.4755 -0.8882  0.5816
  814MOL0     H12281   0.918   5.970   9.099 -0.8102 -2.6742  0.7194
  814MOL0     H12282   0.913   5.721   9.191  2.1360 -0.1444  1.5941
  814MOL0     H12283   1.045   5.612   9.153 -2.0656  0.0328  2.1691
  814MOL0     H12284   0.855   5.700   8.931 -1.5044 -0.8694  0.2623
  814MOL0     H12285   0.991   5.604   8.917  0.7641 -3.7894 -0.0708
  814MOL0     H12286   0.778   5.514   9.120  0.3047 -1.0598 -0.1665
  814MOL0     H12287   0.748   5.485   8.948 -0.3807 -2.1878  0.8336
  814MOL0     H12288   0.982   5.395   8.925 -2.0848 -0.7298 -0.9213
  814MOL0     H12289   0.996   5.400   9.099  0.6285  0.4685 -0.5879
  814MOL0     H12290   0.740   5.039   9.029  0.0154  1.7552 -3.2090
  814MOL0     H12291   0.764   4.750   8.899  0.3675 -2.3540  1.8637
  814MOL0     H12292   0.724   4.780   9.065 -0.2135  2.8634  0.7449
  814MOL0     H12293   0.863   4.684   9.016 -1.9044 -1.4603 -0.2494
  814MOL0     H12294   1.396   4.627   9.100  0.8813  2.5584 -0.6822
  814MOL0     H12295   1.526   4.402   9.026  1.5754 -1.0407 -1.4507
  814MOL0     H12296   1.595   4.393   8.588 -1.3360 -0.2219 -0.7451
  814MOL0     H12297   1.703   4.285   8.661 -0.3697 -0.4431  1.1415
  814MOL0     H12298   1.474   4.124   8.681 -2.0329  0.6979 -0.7172
  814MOL0     H12299   1.432   4.247   8.552 -0.0125  2.6256  0.9681
  814MOL0     H12300   1.664   4.042   8.568 -0.7993 -1.6303  0.6964
  814MOL0     H12301   1.674   4.169   8.446  1.6821 -1.2306  0.6249
  814MOL0     H12302   1.462   4.057   8.354  1.0153  1.1325 -0.4204
  814MOL0     H12303   1.478   3.937   8.480  2.5942  0.7166  2.1995
  814MOL0     H12304   1.706   4.005   8.270 -0.2228  0.8186  0.1366
  814MOL0     H12305   1.707   3.859   8.369 -0.1388 -2.2873 -1.7629
  814MOL0     H12306   1.636   3.844   8.119 -1.8742  0.1499 -1.8701
  814MOL0     H12307   1.486   3.926   8.175 -0.1984 -1.0755 -0.5717
  814MOL0     H12308   1.430   3.740   8.315  2.3018 -2.6030  2.6422
  814MOL0     H12309   1.568   3.647   8.286  1.1093  0.0918 -1.2181
  814MOL0     H12310   1.392   3.560   8.125 -4.6884  1.7087 -2.0197
  814MOL0     H12311   1.517   3.646   8.036  0.5271  0.8340  0.2797
  814MOL0     H12312   1.412   4.478   8.625 -1.0212 -0.7987  0.3185
  814MOL0     H12313   1.259   4.674   8.703  0.6280 -0.6931 -1.0345
  814MOL0     H12314   1.221   4.994   8.987  0.2056 -1.1412 -0.5307
  814MOL0     H12315   1.129   5.206   8.990 -0.5184 -0.8081  0.3794
  814MOL0     H12316   0.559   6.619   9.597 -0.9552 -0.2122  2.2811
  814MOL0     H12317   0.404   6.797   9.632  1.0889  2.3501 -5.1938
  814MOL0     H12318   0.175   7.029  10.032  1.1615 -0.4477 -0.2830
  814MOL0     H12319  -0.009   7.166  10.078  3.1648 -5.5476  0.8880
  814MOL0     H12320  -0.230   7.471   9.995  0.8573  1.4586 -1.3235
  814MOL0     H12321  -0.186   7.313  10.028 -0.8821  0.2819 -0.5894
  814MOL0     H12322   0.027   7.417  10.167 -0.1492  1.4348 -1.1945
  814MOL0     H12323  -0.137   7.384  10.232 -2.2970  0.0055 -1.7752
  814MOL0     H12324  -0.186   7.607  10.212 -0.1322 -2.4466  2.4702
  814MOL0     H12325  -0.026   7.605  10.290  0.4203 -2.1901  0.1205
  814MOL0     H12326  -0.116   7.735  10.041  1.5657 -0.4692 -3.3530
  814MOL0     H12327   0.034   7.640  10.022 -1.0512 -1.7868  1.0100
  814MOL0     H12328   0.188   7.984  10.174 -0.0686 -0.3458  0.3951
  814MOL0     H12329   0.135   7.444   9.766 -2.0093  1.2283  1.3822
  814MOL0     H12330   0.314   7.266   9.604  0.4278 -0.8685 -0.4055
  814MOL0     H12331   0.358   7.414   9.693  0.8346  0.3220  1.6692
  814MOL0     H12332   0.445   7.266   9.725 -0.1699  1.0995  2.4735
  815MOL0     O12333  10.265  10.271   8.648  0.2965  0.1516 -0.1929
  815MOL0     C12334  10.154  10.265   8.589  0.2005 -0.4290 -0.5294
  815MOL0     O12335  10.124  10.178   8.478 -0.1885 -0.2264 -0.4651
  815MOL0     C12336  10.231  10.105   8.436  0.2111  0.2953 -0.0850
  815MOL0     C12337  10.309  10.016   8.528 -1.4101  0.3187  1.0839
  815MOL0     C12338  10.417   9.936   8.480  0.6993 -0.2711 -0.2467
  815MOL0     C12339  10.440   9.931   8.348 -0.7181  0.1059  1.2101
  815MOL0     O12340  10.545   9.845   8.307 -0.4417  0.0759  0.4421
  815MOL0     C12341  10.528   9.778   8.178 -0.4042  0.6758 -0.2999
  815MOL0     C12342  10.641   9.673   8.160 -0.2733  0.1754 -0.6895
  815MOL0     C12343  10.626   9.543   8.244 -0.3032  0.6966  0.2491
  815MOL0     C12344  10.744   9.443   8.226 -0.6269 -0.5733 -0.0502
  815MOL0     C12345  10.749   9.387   8.094  0.3062 -0.6567  0.1392
  815MOL0     C12346  10.853   9.283   8.085  0.0563  0.2522  0.1954
  815MOL0     C12347  10.832   9.216   7.947  0.7632 -0.0374 -0.7543
  815MOL0     C12348  10.925   9.090   7.928  0.6304 -1.8144 -0.7602
  815MOL0     N12349  10.922   8.988   8.024  1.1500 -0.8198 -0.3434
  815MOL0     C12350  10.823   8.888   8.023 -0.2633 -0.7661  0.4959
  815MOL0     C12351  10.859   8.817   8.125  0.8378  0.6137 -0.2420
  815MOL0     C12352  10.781   8.693   8.173 -0.1746 -0.6950 -0.0217
  815MOL0     C12353  10.873   8.576   8.146 -0.4411 -0.2456  0.2105
  815MOL0     C12354  10.822   8.439   8.190  0.3063 -0.2392  0.4257
  815MOL0     C12355  10.893   8.330   8.131  0.4045 -0.0727  0.1161
  815MOL0     O12356  10.835   8.209   8.181  0.9557 -0.1137  0.8727
  815MOL0     C12357  10.885   8.084   8.149 -0.5144 -1.1402  0.5880
  815MOL0     C12358  10.999   8.073   8.063  0.1400 -0.6590  0.2199
  815MOL0     C12359  11.052   7.950   8.033 -0.6986  0.1097 -0.2389
  815MOL0     C12360  11.174   7.940   7.949  0.2339 -1.0120 -0.0049
  815MOL0     C12361  10.984   7.832   8.063  0.1638 -0.9353 -0.5686
  815MOL0     C12362  11.031   7.692   8.030 -0.7756  0.6806 -0.2874
  815MOL0     O12363  10.932   7.614   7.996  0.7637  0.7817 -0.0859
  815MOL0     C12364  10.951   7.488   7.952  0.2680 -0.7552  0.4508
  815MOL0     C12365  11.027   7.454   7.839  0.3189 -0.1062 -0.4541
  815MOL0     C12366  11.033   7.319   7.819  0.3444 -0.9904 -0.1129
  815MOL0     C12367  10.964   7.216   7.883  0.0015  0.0032  1.0448
  815MOL0     O12368  10.981   7.086   7.841  0.6122  0.0926  0.1430
  815MOL0     C12369  11.114   7.033   7.836  0.2969  0.5449  0.6722
  815MOL0     C12370  11.101   6.906   7.917 -0.3986  0.1830  0.7350
  815MOL0     C12371  11.220   6.815   7.894 -0.3421  0.6210 -0.0098
  815MOL0     C12372  11.209   6.685   7.985 -0.3933  0.9506 -0.1294
  815MOL0     C12373  11.350   6.626   8.013  0.2272 -0.4847  0.2157
  815MOL0     C12374  11.334   6.482   8.068  0.3425 -0.6634 -0.3662
  815MOL0     C12375  11.477   6.419   8.040  0.2085 -0.1260  0.5829
  815MOL0     C12376  11.466   6.271   8.090 -0.0924  0.7171  0.0811
  815MOL0    Cl12377  11.635   6.203   8.093  0.7074  0.0984  0.1359
  815MOL0     C12378  10.882   7.251   7.982 -0.6345 -0.8131 -0.7224
  815MOL0     C12379  10.879   7.394   8.022  0.7630  0.2536  0.4009
  815MOL0     O12380  11.151   7.665   8.016  0.0956  0.2999 -0.2083
  815MOL0     C12381  10.855   7.849   8.129  0.8535 -0.1057 -0.7749
  815MOL0     C12382  10.807   7.974   8.170  0.7188 -0.0007 -0.5617
  815MOL0     N12383  10.983   8.854   8.175  0.0040  0.7765 -0.3335
  815MOL0     N12384  11.019   8.964   8.121 -0.1710 -0.8638 -0.6423
  815MOL0     C12385  10.362  10.005   8.257  0.7088 -0.3182 -0.1350
  815MOL0     C12386  10.266  10.100   8.300  1.8632 -0.7676 -0.4212
  815MOL0     C12387  10.041  10.333   8.670  1.1587  0.8963 -0.7412
  815MOL0     C12388   9.907  10.296   8.623 -0.9728 -0.8065  0.4214
  815MOL0     C12389   9.789  10.351   8.683  0.1000  0.8369  0.0507
  815MOL0     C12390   9.798  10.438   8.800  0.0612 -0.6117  0.7102
  815MOL0     O12391   9.683  10.478   8.847  0.1896 -0.2038  0.2771
  815MOL0     C12392   9.686  10.582   8.950 -0.5345 -0.0625 -0.4914
  815MOL0     C12393   9.542  10.604   9.016  0.2258  0.4991  0.3545
  815MOL0     C12394   9.433  10.654   8.918 -1.0323 -0.2896  0.5700
  815MOL0     C12395   9.388  10.544   8.825 -0.2764 -0.6416  0.2294
  815MOL0     C12396   9.276  10.583   8.740 -0.1629  0.2618  0.0768
  815MOL0     C12397   9.179  10.602   8.672 -0.8595  0.6751 -0.0663
  815MOL0     C12398   9.921  10.475   8.832 -1.0369 -0.9519 -0.7473
  815MOL0     C12399  10.042  10.427   8.779  0.3005  0.2513 -0.0879
  815MOL0     C12400  10.162  10.485   8.828  0.1223 -0.3264 -0.6808
  815MOL0     H12401  10.308  10.029   8.635 -1.3533  0.6397  1.0480
  815MOL0     H12402  10.467   9.872   8.552 -1.1067 -1.2794  0.1840
  815MOL0     H12403  10.525   9.858   8.103 -1.5040  0.0498 -0.9602
  815MOL0     H12404  10.437   9.717   8.180  1.1280 -1.7554 -1.1106
  815MOL0     H12405  10.645   9.669   8.050  2.7371 -0.0891 -0.6487
  815MOL0     H12406  10.740   9.714   8.181  0.3774 -1.3341 -0.6860
  815MOL0     H12407  10.612   9.561   8.351 -2.8684  1.1704 -0.1027
  815MOL0     H12408  10.542   9.486   8.201  0.2585 -0.5729  0.7866
  815MOL0     H12409  10.828   9.513   8.230 -1.8911  1.2326 -2.4888
  815MOL0     H12410  10.746   9.362   8.300 -1.0700 -0.3768  0.1832
  815MOL0     H12411  10.777   9.468   8.025 -3.5666 -1.2749 -2.4988
  815MOL0     H12412  10.655   9.344   8.057  1.5453 -1.0109 -2.8469
  815MOL0     H12413  10.956   9.318   8.090  0.2925 -0.5646  1.4627
  815MOL0     H12414  10.845   9.208   8.164 -1.4971  1.6466  1.4291
  815MOL0     H12415  10.848   9.290   7.868 -2.7625 -0.9415 -2.4789
  815MOL0     H12416  10.725   9.196   7.938  0.7216  0.3446 -1.1433
  815MOL0     H12417  10.897   9.049   7.831 -4.8861 -0.6341  0.0222
  815MOL0     H12418  11.030   9.122   7.923  0.6417 -1.4046  1.1483
  815MOL0     H12419  10.744   8.871   7.951  0.2943  0.5479 -0.4648
  815MOL0     H12420  10.686   8.669   8.124 -1.9819 -2.1659  3.7935
  815MOL0     H12421  10.754   8.696   8.279 -2.3101 -2.2475 -0.4672
  815MOL0     H12422  10.866   8.569   8.037 -1.9972 -0.1257  0.2823
  815MOL0     H12423  10.972   8.582   8.191 -0.7824 -1.8645  1.2538
  815MOL0     H12424  10.828   8.442   8.299  1.1202  1.6452  0.3717
  815MOL0     H12425  10.717   8.436   8.159 -0.0290  0.6857  1.3773
  815MOL0     H12426  10.884   8.338   8.022  0.6790 -3.3234 -0.2574
  815MOL0     H12427  10.996   8.348   8.161  0.2156  2.4607 -0.5662
  815MOL0     H12428  11.046   8.165   8.029 -0.1797 -0.0108  1.4687
  815MOL0     H12429  11.181   8.029   7.886 -3.3477 -0.6596 -0.1118
  815MOL0     H12430  11.161   7.861   7.875 -0.9758  0.8422 -1.8666
  815MOL0     H12431  11.262   7.925   8.013  0.0492 -0.2663  0.4254
  815MOL0     H12432  11.081   7.539   7.798 -2.0487  2.6340  1.6263
  815MOL0     H12433  11.097   7.286   7.737 -0.2600 -3.5274  0.3291
  815MOL0     H12434  11.147   7.008   7.735 -0.6336 -3.5012  1.1861
  815MOL0     H12435  11.175   7.102   7.895 -0.0056 -1.3465  3.3972
  815MOL0     H12436  11.088   6.937   8.021 -3.0753 -1.5673  0.9919
  815MOL0     H12437  11.016   6.848   7.880 -0.7724  1.4707 -0.5348
  815MOL0     H12438  11.312   6.870   7.913  0.7467  0.3780 -3.7255
  815MOL0     H12439  11.227   6.782   7.790  1.3323  2.1397 -0.4209
  815MOL0     H12440  11.136   6.622   7.932 -2.4992  1.6563  1.7841
  815MOL0     H12441  11.162   6.697   8.083  0.6940 -0.5883  0.6245
  815MOL0     H12442  11.401   6.637   7.916 -0.9718  1.1818 -0.2699
  815MOL0     H12443  11.404   6.687   8.085 -0.9373 -1.5023  2.0177
  815MOL0     H12444  11.255   6.440   8.005 -1.3260  1.7242  0.0124
  815MOL0     H12445  11.306   6.487   8.173 -2.3402 -1.4942 -0.9519
  815MOL0     H12446  11.555   6.482   8.084 -0.7423  1.1552  0.4947
  815MOL0     H12447  11.499   6.407   7.933  2.0777 -3.1373  1.2120
  815MOL0     H12448  11.416   6.206   8.018  1.8527 -1.4167  0.5424
  815MOL0     H12449  11.434   6.253   8.193  2.6852 -2.6478  0.5431
  815MOL0     H12450  10.835   7.177   8.044 -2.1462  1.6786  1.2834
  815MOL0     H12451  10.820   7.415   8.110 -1.5001 -1.6578 -0.5384
  815MOL0     H12452  10.798   7.758   8.145 -0.3846  0.2267 -2.8910
  815MOL0     H12453  10.716   7.968   8.229  1.7457 -1.3811  0.9807
  815MOL0     H12454  10.385   9.988   8.152  4.4974 -5.5315  1.1087
  815MOL0     H12455  10.225  10.159   8.217  2.5468 -0.2611 -0.4022
  815MOL0     H12456   9.908  10.239   8.530 -1.5505  1.4900 -1.0698
  815MOL0     H12457   9.688  10.341   8.645  0.0629  1.6977 -0.1061
  815MOL0     H12458   9.755  10.551   9.030 -0.3315  2.3824  0.3631
  815MOL0     H12459   9.717  10.675   8.902 -2.2341  0.5454 -0.4726
  815MOL0     H12460   9.553  10.680   9.094  0.9627 -0.2443  0.9963
  815MOL0     H12461   9.522  10.507   9.063  0.0267  1.0276  1.4074
  815MOL0     H12462   9.346  10.683   8.979 -2.5281 -2.2725 -0.4912
  815MOL0     H12463   9.480  10.732   8.858  0.3121 -1.7942 -0.4052
  815MOL0     H12464   9.369  10.445   8.868  1.8349  0.2387  3.4664
  815MOL0     H12465   9.471  10.532   8.754 -0.8576 -2.2310 -0.2278
  815MOL0     H12466   9.085  10.595   8.622 -1.6176 -0.0556  1.3892
  815MOL0     H12467   9.926  10.539   8.920 -2.5128 -2.6307  0.6196
  815MOL0     H12468  10.242  10.486   8.753 -1.0525 -0.5495 -1.9957
  815MOL0     H12469  10.146  10.583   8.875 -0.0004 -0.1313 -1.1182
  815MOL0     H12470  10.196  10.425   8.912 -3.3788 -2.8472 -0.8230
  816MOL0     O12471   4.950   9.526   4.888 -0.0925  0.5934  0.6850
  816MOL0     C12472   5.067   9.508   4.841  0.2194 -0.0273 -0.3762
  816MOL0     O12473   5.123   9.387   4.839 -0.1193 -0.2424  0.0215
  816MOL0     C12474   5.036   9.278   4.847 -0.2831 -0.8440  1.3519
  816MOL0     C12475   5.024   9.197   4.962 -0.9642  0.5680  0.1574
  816MOL0     C12476   4.963   9.078   4.971 -0.7563  0.0766 -0.0990
  816MOL0     C12477   4.908   9.034   4.848  0.6518 -0.3992 -0.0252
  816MOL0     O12478   4.836   8.917   4.839  0.5688 -0.5655 -0.4274
  816MOL0     C12479   4.807   8.833   4.952  0.3574  0.1025  0.3493
  816MOL0     C12480   4.657   8.849   4.976  0.6959  0.2270 -0.1009
  816MOL0     C12481   4.599   8.754   5.076 -1.3424  0.2991 -0.0458
  816MOL0     C12482   4.454   8.796   5.108 -0.2961  0.9957  0.6680
  816MOL0     C12483   4.372   8.696   5.198  0.0504  0.1853  0.4450
  816MOL0     C12484   4.316   8.573   5.123 -0.3811  0.3873  0.7337
  816MOL0     C12485   4.415   8.468   5.068 -0.0671  0.2457 -0.1123
  816MOL0     C12486   4.362   8.333   5.023  0.3819  0.8196 -0.3049
  816MOL0     N12487   4.309   8.266   5.141 -0.3830  0.4222  0.4172
  816MOL0     C12488   4.174   8.248   5.178 -0.0241  0.4162 -0.5118
  816MOL0     C12489   4.184   8.179   5.292 -0.6268  0.7512 -0.0511
  816MOL0     C12490   4.076   8.122   5.374  0.7382 -0.3712 -0.7412
  816MOL0     C12491   4.079   8.203   5.515  0.2289  0.1472  0.3359
  816MOL0     C12492   3.978   8.324   5.517 -0.1856  0.5735  0.2843
  816MOL0     C12493   3.998   8.412   5.639  0.2787 -0.2882 -0.4351
  816MOL0     O12494   3.986   8.331   5.753 -0.0678  0.5069  0.1290
  816MOL0     C12495   4.074   8.371   5.851 -0.4231 -0.0974 -0.0846
  816MOL0     C12496   4.129   8.501   5.880 -0.2778  0.2955 -0.7308
  816MOL0     C12497   4.213   8.514   5.991  0.2386  1.3249  0.5004
  816MOL0     C12498   4.249   8.656   6.030 -0.1043  0.6053 -0.1765
  816MOL0     C12499   4.258   8.401   6.068 -0.4453  0.6130  0.6429
  816MOL0     C12500   4.341   8.406   6.198  0.7277 -0.3271  0.2947
  816MOL0     O12501   4.439   8.318   6.216  0.5835  0.0401  0.3773
  816MOL0     C12502   4.468   8.303   6.352  0.5048 -0.6707 -0.4489
  816MOL0     C12503   4.567   8.383   6.419 -0.5487  0.4018  0.9469
  816MOL0     C12504   4.592   8.364   6.557 -0.5559 -0.3580  0.9419
  816MOL0     C12505   4.503   8.289   6.640 -0.3328 -0.7639  0.5250
  816MOL0     O12506   4.538   8.295   6.775 -0.2706  0.3761  0.6253
  816MOL0     C12507   4.429   8.249   6.868 -0.0222 -0.6176  0.6974
  816MOL0     C12508   4.401   8.097   6.886 -0.6030  0.5451  0.1924
  816MOL0     C12509   4.329   8.072   7.020 -0.6904 -0.1189  0.4828
  816MOL0     C12510   4.203   8.155   7.045 -0.1860 -0.1763 -0.0173
  816MOL0     C12511   4.145   8.143   7.189 -0.1354  0.0922  0.1203
  816MOL0     C12512   4.012   8.221   7.191 -0.6971 -0.8545 -0.1157
  816MOL0     C12513   3.885   8.137   7.144 -0.1387 -0.2511  0.5412
  816MOL0     C12514   3.757   8.230   7.154 -0.0181  0.1490  0.4563
  816MOL0    Cl12515   3.791   8.371   7.060 -0.1437  0.5949 -0.1368
  816MOL0     C12516   4.396   8.218   6.575 -0.6404 -0.0491  0.0964
  816MOL0     C12517   4.389   8.214   6.436  0.4966 -0.6840 -0.0604
  816MOL0     O12518   4.317   8.501   6.270  0.0623 -0.3250  0.4365
  816MOL0     C12519   4.210   8.282   6.020 -0.0630 -0.7202  0.9754
  816MOL0     C12520   4.121   8.258   5.919 -0.5550 -0.0566  0.3905
  816MOL0     N12521   4.317   8.146   5.325 -0.2097 -0.2177  0.1465
  816MOL0     N12522   4.389   8.205   5.233 -0.3195 -0.0312  0.6318
  816MOL0     C12523   4.910   9.114   4.734 -0.6102 -0.2978  0.6544
  816MOL0     C12524   4.975   9.240   4.732  0.6279  0.3921 -0.2779
  816MOL0     C12525   5.152   9.621   4.819 -0.2961 -0.1917  0.1982
  816MOL0     C12526   5.104   9.752   4.864  0.4469  0.9638 -0.1990
  816MOL0     C12527   5.169   9.872   4.827 -0.2778 -0.3667  0.0363
  816MOL0     C12528   5.296   9.860   4.761  0.2091  0.0229 -0.6018
  816MOL0     O12529   5.355   9.972   4.710  0.3656  0.4759 -0.5354
  816MOL0     C12530   5.499   9.988   4.729 -0.6980 -0.4719 -0.7984
  816MOL0     C12531   5.538  10.130   4.695  0.5198  0.2217  0.1432
  816MOL0     C12532   5.530  10.157   4.538 -0.7595 -0.5687 -1.4625
  816MOL0     C12533   5.546  10.312   4.506  0.2565 -0.6536  1.1508
  816MOL0     C12534   5.497  10.349   4.376  0.2980  0.7098  0.0563
  816MOL0     C12535   5.483  10.377   4.257 -0.2976  0.6470 -0.0476
  816MOL0     C12536   5.356   9.740   4.745 -0.3727  0.1569 -0.3599
  816MOL0     C12537   5.283   9.619   4.760 -0.2595 -0.2371  0.3413
  816MOL0     C12538   5.353   9.493   4.718  0.4156  0.9935  0.0977
  816MOL0     H12539   5.083   9.228   5.048  3.3413  1.5001 -2.7660
  816MOL0     H12540   4.956   9.028   5.068  0.6209 -0.3210 -0.1765
  816MOL0     H12541   4.860   8.861   5.043  0.9266 -1.5358  0.5620
  816MOL0     H12542   4.835   8.728   4.938 -0.2198  0.0542 -0.5217
  816MOL0     H12543   4.645   8.949   5.019  1.9556 -0.4506  2.0024
  816MOL0     H12544   4.605   8.831   4.882 -0.6440 -0.2700  0.6979
  816MOL0     H12545   4.605   8.656   5.028  0.6970 -0.7543  2.1360
  816MOL0     H12546   4.660   8.748   5.167 -0.5296 -2.3545 -0.6597
  816MOL0     H12547   4.452   8.889   5.166 -0.1648  1.4805 -0.0937
  816MOL0     H12548   4.387   8.812   5.023 -2.3960 -2.7413  1.3796
  816MOL0     H12549   4.286   8.746   5.243  2.5426  0.3196  5.8095
  816MOL0     H12550   4.434   8.650   5.276 -4.0063 -0.9452  3.3014
  816MOL0     H12551   4.240   8.520   5.181 -0.0188 -1.2597 -0.2350
  816MOL0     H12552   4.263   8.608   5.034  0.2688 -0.8503 -0.1700
  816MOL0     H12553   4.500   8.452   5.135 -2.4455  0.9444  3.3164
  816MOL0     H12554   4.435   8.512   4.970  0.4994 -0.1609 -0.1834
  816MOL0     H12555   4.275   8.332   4.957  1.6266 -2.0938 -2.0940
  816MOL0     H12556   4.441   8.275   4.976  1.0014  0.9834  0.5019
  816MOL0     H12557   4.084   8.280   5.127 -1.2089 -1.2674  0.4274
  816MOL0     H12558   4.108   8.020   5.400  0.5558  0.0222  1.2007
  816MOL0     H12559   3.992   8.123   5.305 -1.1209  0.6205  1.3822
  816MOL0     H12560   4.076   8.134   5.601 -2.4053 -2.3089 -1.5198
  816MOL0     H12561   4.182   8.234   5.535  0.2077 -0.2128  1.0429
  816MOL0     H12562   3.987   8.394   5.433 -1.6900  3.0480  2.0192
  816MOL0     H12563   3.877   8.283   5.511  0.0212  0.2886 -1.8063
  816MOL0     H12564   4.097   8.459   5.632 -0.2828  0.7892 -1.4378
  816MOL0     H12565   3.927   8.494   5.631 -0.2215 -0.5302  1.2611
  816MOL0     H12566   4.104   8.590   5.824 -1.6445 -0.4049 -1.2916
  816MOL0     H12567   4.233   8.719   5.942  1.6645  1.8844  0.3719
  816MOL0     H12568   4.349   8.671   6.072 -0.7155 -1.4319  2.2491
  816MOL0     H12569   4.188   8.690   6.115  1.9282 -0.8484  1.9894
  816MOL0     H12570   4.628   8.444   6.354  0.0681 -1.3159 -0.1433
  816MOL0     H12571   4.676   8.419   6.597 -0.3020 -1.8914  2.5864
  816MOL0     H12572   4.452   8.288   6.968 -1.5245 -0.0697  0.8692
  816MOL0     H12573   4.337   8.304   6.843 -0.9026 -1.5897  1.6908
  816MOL0     H12574   4.336   8.060   6.806 -0.8466  1.2300  0.0743
  816MOL0     H12575   4.494   8.039   6.877 -1.4673 -0.5795 -2.7197
  816MOL0     H12576   4.399   8.101   7.099 -1.8865  1.3340  1.0517
  816MOL0     H12577   4.299   7.967   7.011 -1.4997  0.2730 -2.4672
  816MOL0     H12578   4.126   8.114   6.979 -0.3846  0.5194 -0.2329
  816MOL0     H12579   4.220   8.259   7.015 -1.4064 -0.2366 -1.0295
  816MOL0     H12580   4.121   8.038   7.213 -1.7799  0.5076  0.4512
  816MOL0     H12581   4.205   8.197   7.262 -2.3859  2.9029  0.0572
  816MOL0     H12582   4.030   8.307   7.126  1.1631 -0.4005  0.9431
  816MOL0     H12583   4.012   8.262   7.292 -0.2055  1.9689 -1.1912
  816MOL0     H12584   3.860   8.048   7.202  1.2041 -0.9026  0.1467
  816MOL0     H12585   3.910   8.098   7.045  0.2827  0.6415  0.2852
  816MOL0     H12586   3.735   8.255   7.258 -1.1386 -1.1721  0.5641
  816MOL0     H12587   3.672   8.174   7.113 -0.5113  0.9758  0.3337
  816MOL0     H12588   4.318   8.154   6.615 -0.5096  0.4310  1.1592
  816MOL0     H12589   4.308   8.173   6.377 -1.2786  1.9295  0.4115
  816MOL0     H12590   4.237   8.187   6.064 -1.6634 -2.2495 -1.1617
  816MOL0     H12591   4.097   8.157   5.888 -1.4806  1.2819 -3.8644
  816MOL0     H12592   4.867   9.074   4.643  1.2927 -0.9315 -0.0140
  816MOL0     H12593   5.002   9.286   4.637  0.8620  0.7999 -0.0179
  816MOL0     H12594   5.008   9.748   4.915  0.8224  0.8753  0.5174
  816MOL0     H12595   5.138   9.974   4.847 -0.0651 -0.1322 -0.7826
  816MOL0     H12596   5.527   9.958   4.831 -1.7523 -1.0623 -0.6712
  816MOL0     H12597   5.559   9.918   4.670  2.1542  0.3509  0.9112
  816MOL0     H12598   5.638  10.158   4.729  0.4790 -0.0527  0.5038
  816MOL0     H12599   5.472  10.200   4.746 -0.3685  0.9394 -1.9062
  816MOL0     H12600   5.605  10.097   4.485  1.8725 -0.4291  1.8382
  816MOL0     H12601   5.434  10.118   4.500 -2.4831  0.8852  1.1336
  816MOL0     H12602   5.647  10.349   4.527  0.7885 -1.8892  0.8652
  816MOL0     H12603   5.473  10.349   4.578 -0.9071 -2.7002  1.1053
  816MOL0     H12604   5.472  10.390   4.151  4.5412  0.3798 -0.8306
  816MOL0     H12605   5.455   9.742   4.700  1.9175  2.1940  4.1046
  816MOL0     H12606   5.286   9.423   4.666  1.1154  0.0859  0.3904
  816MOL0     H12607   5.437   9.512   4.652 -1.4395  1.9808 -2.1324
  816MOL0     H12608   5.383   9.435   4.806  0.1988  1.8177  0.7319
  817MOL0     O12609   6.657   8.558   0.294  0.1939  0.2472 -0.0495
  817MOL0     C12610   6.697   8.671   0.284 -0.3065 -0.1967 -0.0236
  817MOL0     O12611   6.623   8.778   0.319 -0.2219 -0.2020 -0.1088
  817MOL0     C12612   6.500   8.754   0.361 -0.5107 -0.5972  0.2521
  817MOL0     C12613   6.401   8.765   0.262 -0.2872 -0.0527  0.0535
  817MOL0     C12614   6.272   8.745   0.302 -0.0756 -0.2098  0.2216
  817MOL0     C12615   6.238   8.701   0.428  0.5603  0.7265  0.4462
  817MOL0     O12616   6.103   8.687   0.469  0.7866  0.3464 -0.2718
  817MOL0     C12617   6.025   8.806   0.493 -0.4754 -0.9753 -0.1808
  817MOL0     C12618   5.997   8.831   0.642 -0.9903  0.7284  0.6551
  817MOL0     C12619   5.871   8.757   0.677  0.3839  0.2935 -0.4035
  817MOL0     C12620   5.828   8.779   0.826  0.0917  0.6711  0.2051
  817MOL0     C12621   5.718   8.684   0.871  1.0480 -0.3416  0.1008
  817MOL0     C12622   5.782   8.547   0.887 -0.7118  0.4107 -0.1233
  817MOL0     C12623   5.675   8.446   0.949  0.4764 -0.4776  0.4887
  817MOL0     C12624   5.749   8.320   0.991  0.8872  0.6841  0.1708
  817MOL0     N12625   5.665   8.209   1.044 -0.9473  0.1090  0.2383
  817MOL0     C12626   5.553   8.174   0.974  0.5344  0.0289 -0.4754
  817MOL0     C12627   5.497   8.095   1.067  0.1683 -0.4720 -0.2742
  817MOL0     C12628   5.367   8.029   1.046  0.5609  0.4709  0.3693
  817MOL0     C12629   5.256   8.126   0.994 -0.8735  1.0451  0.9884
  817MOL0     C12630   5.123   8.052   1.005 -0.6091  0.1200 -0.0039
  817MOL0     C12631   5.085   7.961   0.884  0.2973  0.7446  0.2255
  817MOL0     O12632   5.019   8.033   0.777 -0.4065 -0.0567 -0.2535
  817MOL0     C12633   4.888   8.089   0.786 -0.9825  0.2503 -0.7852
  817MOL0     C12634   4.794   8.072   0.890 -0.2926 -0.0740  0.2353
  817MOL0     C12635   4.670   8.133   0.891  0.3812  0.8055 -0.0309
  817MOL0     C12636   4.568   8.114   1.001  0.4150 -0.8634  0.3102
  817MOL0     C12637   4.630   8.209   0.769 -0.7203 -0.2865 -1.1049
  817MOL0     C12638   4.489   8.254   0.737 -0.1368 -0.0212  0.2345
  817MOL0     O12639   4.395   8.175   0.778  0.1507  0.3109  0.7037
  817MOL0     C12640   4.261   8.209   0.756  0.7144 -0.1842 -0.2190
  817MOL0     C12641   4.180   8.138   0.672 -0.4815  1.1453 -0.4318
  817MOL0     C12642   4.042   8.180   0.648 -0.2375 -0.1130  1.0057
  817MOL0     C12643   3.989   8.290   0.721  0.0513  0.5832  0.1290
  817MOL0     O12644   3.863   8.324   0.690 -0.3513 -0.1991 -0.8209
  817MOL0     C12645   3.767   8.309   0.793  0.7430  0.0809 -0.2715
  817MOL0     C12646   3.754   8.164   0.845  0.0457  0.6280 -1.0168
  817MOL0     C12647   3.723   8.076   0.727  0.0524  0.3877 -0.3856
  817MOL0     C12648   3.698   7.929   0.760 -0.4560 -0.5493  1.1850
  817MOL0     C12649   3.716   7.859   0.620  0.5958 -0.2409 -0.1309
  817MOL0     C12650   3.727   7.704   0.630  0.3270 -0.6292 -0.3691
  817MOL0     C12651   3.583   7.643   0.644  0.4167 -0.3831 -0.2650
  817MOL0     C12652   3.583   7.490   0.618 -0.4129 -0.1882 -0.2261
  817MOL0    Cl12653   3.419   7.409   0.623  0.1833  0.4416 -0.1944
  817MOL0     C12654   4.067   8.354   0.819 -0.4555 -0.5293 -0.8312
  817MOL0     C12655   4.204   8.323   0.835  0.3637  0.4835  0.1434
  817MOL0     O12656   4.472   8.366   0.680  0.0043  0.3584 -0.8807
  817MOL0     C12657   4.723   8.232   0.664  0.1897  0.1555 -0.0906
  817MOL0     C12658   4.849   8.170   0.677  0.3085 -0.5495 -0.4241
  817MOL0     N12659   5.577   8.082   1.178  0.1838  0.1494  0.1842
  817MOL0     N12660   5.673   8.164   1.172  0.3597 -0.1123  0.8515
  817MOL0     C12661   6.339   8.684   0.522 -1.0770 -0.7180 -0.3215
  817MOL0     C12662   6.475   8.709   0.483 -0.0549 -0.4564  0.4716
  817MOL0     C12663   6.826   8.681   0.207  0.0849 -0.0255 -0.1077
  817MOL0     C12664   6.901   8.556   0.180 -0.4503 -0.7773  0.6171
  817MOL0     C12665   7.013   8.565   0.098  0.5876  0.0591 -0.3156
  817MOL0     C12666   7.077   8.690   0.067  1.1136  0.5933  0.0769
  817MOL0     O12667   7.191   8.691   0.010  0.1633 -0.9765  0.5256
  817MOL0     C12668   7.294   8.746   0.094  0.3605 -0.7294 -0.4055
  817MOL0     C12669   7.399   8.816   0.009 -0.4254 -0.4147  0.5785
  817MOL0     C12670   7.412   8.764  -0.142  0.2362  0.4454  0.2166
  817MOL0     C12671   7.475   8.621  -0.134 -0.1915 -1.0466 -0.0783
  817MOL0     C12672   7.512   8.577  -0.268  0.5513  0.3725 -0.0091
  817MOL0     C12673   7.551   8.538  -0.375  1.0791  0.3243  0.2640
  817MOL0     C12674   7.006   8.808   0.108 -0.1412 -0.2775  1.1722
  817MOL0     C12675   6.884   8.805   0.177 -0.1493 -0.6162 -0.4062
  817MOL0     C12676   6.819   8.941   0.193 -0.3172  0.6863  0.1181
  817MOL0     H12677   6.437   8.811   0.170  0.7723  1.6531  1.2530
  817MOL0     H12678   6.196   8.775   0.230  0.0250  1.9226  0.9263
  817MOL0     H12679   5.932   8.788   0.439 -0.1436 -0.3194 -0.9974
  817MOL0     H12680   6.080   8.895   0.461 -3.4921  0.3723 -1.9963
  817MOL0     H12681   6.079   8.785   0.699 -1.9149 -1.8473  0.0458
  817MOL0     H12682   5.987   8.939   0.658  2.7085  1.0980  1.4195
  817MOL0     H12683   5.789   8.794   0.615  0.2141 -0.3567 -0.5723
  817MOL0     H12684   5.891   8.651   0.657  5.4228  1.3886 -3.0321
  817MOL0     H12685   5.910   8.752   0.894  2.2518  1.9510 -1.7534
  817MOL0     H12686   5.794   8.882   0.839  0.5313  0.6602  1.6228
  817MOL0     H12687   5.648   8.667   0.789  2.1013 -2.7923 -0.3811
  817MOL0     H12688   5.669   8.720   0.962  3.1222  0.0651  1.0991
  817MOL0     H12689   5.818   8.514   0.789 -0.5982  2.0204 -0.6429
  817MOL0     H12690   5.862   8.554   0.961 -0.7945 -1.4324  0.2028
  817MOL0     H12691   5.593   8.421   0.882 -0.1997 -3.1206  2.1128
  817MOL0     H12692   5.636   8.491   1.041 -0.6513  0.0173 -0.2127
  817MOL0     H12693   5.810   8.286   0.907  0.0245 -3.1915  0.9165
  817MOL0     H12694   5.816   8.346   1.073 -0.4228  3.0085  0.5759
  817MOL0     H12695   5.513   8.193   0.875 -1.6951 -2.9834 -0.2991
  817MOL0     H12696   5.330   7.974   1.133  1.8632 -0.0548  0.6195
  817MOL0     H12697   5.395   7.960   0.965 -2.2221  0.1843 -0.4623
  817MOL0     H12698   5.248   8.222   1.045 -1.0659  1.2524  0.5732
  817MOL0     H12699   5.270   8.157   0.890 -5.6611 -1.6238 -0.7448
  817MOL0     H12700   5.117   7.993   1.097 -0.4835 -2.6932 -1.6603
  817MOL0     H12701   5.043   8.126   1.005 -0.0185  0.7666  0.4675
  817MOL0     H12702   5.181   7.920   0.850 -0.0412 -4.3456  4.2337
  817MOL0     H12703   5.025   7.877   0.922 -0.0381  1.6081  1.6881
  817MOL0     H12704   4.816   8.008   0.975 -1.6344  0.5491  1.0840
  817MOL0     H12705   4.500   8.032   0.976 -1.0411  1.1363 -2.9930
  817MOL0     H12706   4.512   8.205   1.020  2.9812  1.1986 -1.2202
  817MOL0     H12707   4.627   8.090   1.090 -0.0521 -0.5080  0.7121
  817MOL0     H12708   4.216   8.057   0.610 -3.0501 -0.5510  0.1493
  817MOL0     H12709   3.992   8.135   0.563  0.2874  1.6475 -0.2822
  817MOL0     H12710   3.791   8.374   0.878  2.6629 -0.1087 -0.6237
  817MOL0     H12711   3.673   8.347   0.751  0.5081 -0.0471  0.1252
  817MOL0     H12712   3.844   8.136   0.901  2.0698  5.4355 -1.3365
  817MOL0     H12713   3.671   8.164   0.916  1.3161  4.7492  0.7626
  817MOL0     H12714   3.802   8.084   0.653  0.2296  0.6715 -0.1688
  817MOL0     H12715   3.635   8.119   0.678 -0.6120 -2.9887 -2.4834
  817MOL0     H12716   3.598   7.909   0.798 -0.7611 -1.6153 -0.0896
  817MOL0     H12717   3.767   7.883   0.832  1.9935 -0.2405 -0.8098
  817MOL0     H12718   3.639   7.892   0.551  0.3163  0.5916  0.5728
  817MOL0     H12719   3.814   7.880   0.576  0.2418 -0.7423 -1.2062
  817MOL0     H12720   3.795   7.674   0.711 -1.3936 -1.5267  0.8146
  817MOL0     H12721   3.787   7.666   0.547  1.3754  0.2607 -0.0363
  817MOL0     H12722   3.513   7.693   0.576 -1.0995  0.5916  1.9058
  817MOL0     H12723   3.540   7.658   0.744  2.4685 -1.5869  0.8594
  817MOL0     H12724   3.632   7.445   0.705  2.4203 -0.7215 -1.9664
  817MOL0     H12725   3.639   7.468   0.526  0.3274  3.8583 -0.9472
  817MOL0     H12726   4.036   8.440   0.879  0.0323 -0.8666 -0.0721
  817MOL0     H12727   4.266   8.377   0.905 -0.9995  0.1428  1.6750
  817MOL0     H12728   4.679   8.281   0.578  0.3126 -1.5448 -1.1769
  817MOL0     H12729   4.912   8.190   0.591  2.8746  0.6088  1.5447
  817MOL0     H12730   6.324   8.656   0.626  0.0486 -3.4071 -0.8020
  817MOL0     H12731   6.547   8.706   0.564  2.6261 -1.5765 -1.7689
  817MOL0     H12732   6.852   8.462   0.202  2.3871 -2.9371 -1.4114
  817MOL0     H12733   7.058   8.477   0.054  0.1741 -0.0257 -0.5824
  817MOL0     H12734   7.261   8.821   0.167  0.0159  0.2413 -1.5265
  817MOL0     H12735   7.333   8.661   0.150 -0.6467 -0.7622  0.2921
  817MOL0     H12736   7.495   8.810   0.062  0.1394 -1.8754 -0.5466
  817MOL0     H12737   7.374   8.921  -0.007 -2.2839 -0.0985  4.5158
  817MOL0     H12738   7.311   8.766  -0.186 -0.6458 -2.2876  1.8304
  817MOL0     H12739   7.484   8.826  -0.195  2.7299 -0.2590  2.6167
  817MOL0     H12740   7.406   8.553  -0.082  0.7009 -0.0060  2.6786
  817MOL0     H12741   7.558   8.637  -0.065 -0.8836  0.8463  0.3817
  817MOL0     H12742   7.593   8.484  -0.457  0.7830 -1.3000  1.1371
  817MOL0     H12743   7.055   8.904   0.098  0.5853 -0.7447  0.1038
  817MOL0     H12744   6.881   9.017   0.144 -1.0057 -0.2089 -2.2870
  817MOL0     H12745   6.731   8.935   0.129 -1.3376 -0.5932  1.5708
  817MOL0     H12746   6.802   8.971   0.297  1.8734  2.4678  0.0399
  818MOL0     O12747   1.081   7.078   3.316 -0.8633  0.7646  0.0442
  818MOL0     C12748   1.107   7.197   3.338 -0.0409  0.1423 -0.0751
  818MOL0     O12749   1.229   7.241   3.383 -0.0662 -0.2211 -0.4048
  818MOL0     C12750   1.312   7.154   3.458  0.2742 -0.5210 -0.1389
  818MOL0     C12751   1.271   7.038   3.522 -0.4665 -0.0359  0.2158
  818MOL0     C12752   1.361   6.955   3.585  0.0476 -0.5312  0.0248
  818MOL0     C12753   1.497   6.982   3.588 -0.4947  0.2900  0.1651
  818MOL0     O12754   1.577   6.904   3.665 -0.1885 -0.5173 -0.0310
  818MOL0     C12755   1.671   6.966   3.752 -0.2929 -0.1097 -0.7546
  818MOL0     C12756   1.685   6.873   3.867 -0.1351 -0.2722 -0.3248
  818MOL0     C12757   1.565   6.866   3.964  0.1144  0.0299  0.1992
  818MOL0     C12758   1.505   6.723   4.006  1.2551  0.3328  0.1438
  818MOL0     C12759   1.467   6.638   3.893  0.8415  0.3326 -0.5709
  818MOL0     C12760   1.464   6.491   3.944 -0.3524 -0.0100 -1.0517
  818MOL0     C12761   1.416   6.391   3.836  0.0163  0.6830  0.0871
  818MOL0     C12762   1.531   6.343   3.747  0.7471  0.1947  0.4788
  818MOL0     N12763   1.498   6.210   3.684  0.9039 -0.0204  0.2582
  818MOL0     C12764   1.543   6.089   3.722 -0.5837 -0.7296 -0.3788
  818MOL0     C12765   1.494   6.000   3.637 -0.1732 -1.0293 -0.5840
  818MOL0     C12766   1.502   5.850   3.641 -0.0826 -0.9772  0.1793
  818MOL0     C12767   1.648   5.796   3.632 -0.2080  1.0580  0.3009
  818MOL0     C12768   1.642   5.641   3.594 -0.3185 -0.2153  0.3667
  818MOL0     C12769   1.789   5.585   3.599  0.1447 -0.0373 -0.2274
  818MOL0     O12770   1.824   5.584   3.741  0.3606 -0.2284  0.3763
  818MOL0     C12771   1.908   5.481   3.772  0.6115 -0.6018  0.2878
  818MOL0     C12772   2.018   5.460   3.689 -0.5069  0.5962 -0.5543
  818MOL0     C12773   2.108   5.356   3.712  0.0916 -0.4572  0.3469
  818MOL0     C12774   2.242   5.374   3.634 -0.0831  0.1621  1.0596
  818MOL0     C12775   2.082   5.266   3.822 -0.0243 -0.2693 -0.4338
  818MOL0     C12776   2.168   5.153   3.869 -0.9546  0.4954  0.1346
  818MOL0     O12777   2.107   5.063   3.953  0.0743  0.0016 -0.7248
  818MOL0     C12778   2.192   4.985   4.031  0.4121 -0.3423  0.1922
  818MOL0     C12779   2.228   5.030   4.152 -0.1156 -0.2753  0.2513
  818MOL0     C12780   2.310   4.955   4.241 -0.1898  0.5101  0.0816
  818MOL0     C12781   2.348   4.829   4.207 -0.3079 -0.1828 -0.4260
  818MOL0     O12782   2.428   4.750   4.290 -0.2207  0.1572  0.7579
  818MOL0     C12783   2.549   4.811   4.338 -0.5720 -0.0470 -0.1301
  818MOL0     C12784   2.630   4.718   4.424  0.0177 -0.1467  0.2338
  818MOL0     C12785   2.644   4.576   4.382 -0.2257 -0.4505  0.6815
  818MOL0     C12786   2.715   4.492   4.488  0.3622  0.2043 -0.8022
  818MOL0     C12787   2.681   4.341   4.461 -0.5472  0.8763 -0.5523
  818MOL0     C12788   2.561   4.282   4.530  0.4255  1.3754 -0.7293
  818MOL0     C12789   2.568   4.271   4.680 -0.5023 -0.1501 -1.0485
  818MOL0     C12790   2.448   4.197   4.737  0.4285 -0.3016  0.4881
  818MOL0    Cl12791   2.314   4.309   4.736  0.4114  0.1354 -0.3638
  818MOL0     C12792   2.305   4.776   4.084 -0.9190 -0.2012  0.0003
  818MOL0     C12793   2.224   4.855   3.997 -0.0653  0.6670 -0.0678
  818MOL0     O12794   2.284   5.135   3.828  0.2873 -0.3275  0.0240
  818MOL0     C12795   1.962   5.296   3.899 -0.7296  0.6945  0.2359
  818MOL0     C12796   1.868   5.395   3.874 -0.0705  0.7126  0.4266
  818MOL0     N12797   1.414   6.074   3.538 -0.6894 -0.8052 -0.0101
  818MOL0     N12798   1.405   6.194   3.582 -0.0763  0.5945  0.3512
  818MOL0     C12799   1.535   7.101   3.527  0.4103  0.1332 -0.1117
  818MOL0     C12800   1.446   7.187   3.454  0.7910  0.3027  0.3300
  818MOL0     C12801   1.021   7.299   3.280 -0.0158 -0.5546 -0.4909
  818MOL0     C12802   1.081   7.402   3.210  0.4715 -0.0883 -0.3197
  818MOL0     C12803   1.007   7.504   3.148  0.4485 -0.3760  0.4178
  818MOL0     C12804   0.878   7.521   3.178 -0.0299 -0.1853  1.0038
  818MOL0     O12805   0.809   7.639   3.132 -0.2245 -0.0747  0.4360
  818MOL0     C12806   0.688   7.615   3.060  0.2163  0.1567  0.0329
  818MOL0     C12807   0.688   7.729   2.956  1.4764  0.4686  0.4190
  818MOL0     C12808   0.635   7.669   2.814 -0.0976  0.2951 -0.4729
  818MOL0     C12809   0.575   7.758   2.711  0.6455 -0.3447  0.4507
  818MOL0     C12810   0.685   7.843   2.667 -0.1015 -0.7616 -0.0415
  818MOL0     C12811   0.779   7.914   2.629  0.9541 -0.1182  0.1831
  818MOL0     C12812   0.811   7.421   3.263 -0.7097 -0.1723  0.1036
  818MOL0     C12813   0.880   7.308   3.313 -0.5372  0.2949  0.1333
  818MOL0     C12814   0.809   7.220   3.386 -0.9505  0.3988  0.7401
  818MOL0     H12815   1.167   7.007   3.527 -0.7311  0.5770 -1.0491
  818MOL0     H12816   1.328   6.863   3.632 -2.0125 -0.1116 -0.5142
  818MOL0     H12817   1.638   7.068   3.774  1.6311  0.1328  1.3259
  818MOL0     H12818   1.768   6.976   3.702 -0.3705  0.4436 -0.8023
  818MOL0     H12819   1.713   6.778   3.820  0.5391 -0.7918  1.0625
  818MOL0     H12820   1.772   6.900   3.927 -0.1014  2.8997 -1.6095
  818MOL0     H12821   1.592   6.925   4.053 -0.7480 -2.2227  2.0579
  818MOL0     H12822   1.484   6.916   3.911  2.1011 -1.3012 -4.6166
  818MOL0     H12823   1.594   6.677   4.049  1.8212 -1.3276 -2.5253
  818MOL0     H12824   1.436   6.728   4.090  0.2518  0.0422 -0.6477
  818MOL0     H12825   1.541   6.647   3.812  3.0198  0.8462  1.3514
  818MOL0     H12826   1.367   6.653   3.853  1.3206  0.5897 -1.7043
  818MOL0     H12827   1.559   6.465   3.992 -1.1092  0.3959  0.7171
  818MOL0     H12828   1.399   6.480   4.031 -0.8321 -0.4622 -1.4525
  818MOL0     H12829   1.342   6.441   3.774  1.6077  1.8774 -0.9275
  818MOL0     H12830   1.378   6.298   3.878  1.3259 -0.2274 -0.6779
  818MOL0     H12831   1.550   6.415   3.666 -0.4649 -0.8941 -0.8227
  818MOL0     H12832   1.625   6.331   3.801  0.8969 -2.6767 -0.2828
  818MOL0     H12833   1.612   6.071   3.803 -2.3327 -0.9089  1.1222
  818MOL0     H12834   1.439   5.813   3.559 -0.8474 -0.9878  0.7565
  818MOL0     H12835   1.462   5.837   3.742  0.0848 -0.0423  0.3743
  818MOL0     H12836   1.694   5.850   3.548  2.7853 -0.0857  1.0759
  818MOL0     H12837   1.699   5.808   3.728  0.8400  0.1013 -0.1166
  818MOL0     H12838   1.570   5.595   3.662 -2.6811  3.7818  0.8554
  818MOL0     H12839   1.602   5.638   3.492 -4.4656 -3.4619  1.8114
  818MOL0     H12840   1.788   5.483   3.559  1.4081 -0.2402  0.2238
  818MOL0     H12841   1.852   5.655   3.543  0.3584 -0.0630 -0.0203
  818MOL0     H12842   2.051   5.526   3.609  0.4738 -2.3094 -2.7154
  818MOL0     H12843   2.298   5.283   3.613 -0.0245  0.1176  1.3971
  818MOL0     H12844   2.309   5.451   3.673  3.0212 -3.2748  3.0953
  818MOL0     H12845   2.220   5.423   3.539 -1.3422  1.7103  2.0733
  818MOL0     H12846   2.208   5.131   4.186  1.2321 -0.8772  3.1616
  818MOL0     H12847   2.345   4.983   4.340 -0.2399 -2.6240  1.1253
  818MOL0     H12848   2.613   4.852   4.260  0.5266  2.2903  1.8640
  818MOL0     H12849   2.527   4.901   4.396  0.1776 -1.4250  2.4681
  818MOL0     H12850   2.727   4.766   4.435 -1.7875  4.5007 -1.7515
  818MOL0     H12851   2.586   4.724   4.524 -0.7101  0.3373 -0.1041
  818MOL0     H12852   2.693   4.555   4.287  0.5887 -1.8639  1.3745
  818MOL0     H12853   2.538   4.551   4.377 -0.6307  1.4573 -1.6081
  818MOL0     H12854   2.685   4.515   4.591 -1.5238 -0.6238 -1.1231
  818MOL0     H12855   2.822   4.505   4.468  0.2284 -2.6374 -4.3880
  818MOL0     H12856   2.666   4.326   4.353  1.5271 -1.7216 -0.5861
  818MOL0     H12857   2.773   4.286   4.486 -0.7043  1.5632  1.6499
  818MOL0     H12858   2.539   4.180   4.496  1.8567  1.5383 -2.2942
  818MOL0     H12859   2.471   4.338   4.501  0.7414  1.2773 -1.9519
  818MOL0     H12860   2.579   4.372   4.721 -0.1169 -1.7598  3.3224
  818MOL0     H12861   2.659   4.221   4.715  0.9745  2.4357 -0.9657
  818MOL0     H12862   2.454   4.170   4.843 -1.8660 -0.3640  0.6512
  818MOL0     H12863   2.429   4.100   4.691 -0.7365  0.0896  0.1198
  818MOL0     H12864   2.310   4.673   4.051 -1.9192 -0.8907  1.8519
  818MOL0     H12865   2.183   4.818   3.903 -1.8595  1.1866  0.4678
  818MOL0     H12866   1.928   5.227   3.975 -2.7719  1.6373  0.2579
  818MOL0     H12867   1.776   5.422   3.925 -1.9068  1.2811 -2.9354
  818MOL0     H12868   1.632   7.142   3.554  0.4702  0.1157 -0.3022
  818MOL0     H12869   1.461   7.290   3.421  4.3308 -0.8692 -2.4578
  818MOL0     H12870   1.187   7.409   3.190  0.5935  2.4118  0.8144
  818MOL0     H12871   1.068   7.580   3.102  0.8603 -0.0448  1.4752
  818MOL0     H12872   0.696   7.521   3.005 -3.4119 -0.6867  0.6362
  818MOL0     H12873   0.593   7.622   3.115 -1.0595 -0.4820 -1.9613
  818MOL0     H12874   0.785   7.778   2.967  0.8569  1.0956  4.5502
  818MOL0     H12875   0.609   7.801   2.980  2.6232  1.3385  1.6778
  818MOL0     H12876   0.718   7.610   2.773  1.9228  1.3285  1.9162
  818MOL0     H12877   0.558   7.599   2.848 -0.1283  0.5364 -0.0446
  818MOL0     H12878   0.490   7.810   2.754  1.0915  1.2823 -0.5239
  818MOL0     H12879   0.545   7.696   2.626  1.4784 -2.9132  1.9124
  818MOL0     H12880   0.867   7.955   2.584 -0.1217 -1.3911 -3.3831
  818MOL0     H12881   0.708   7.433   3.294 -1.8899 -0.8893 -3.1121
  818MOL0     H12882   0.829   7.113   3.370  0.0684  0.2231  2.7897
  818MOL0     H12883   0.818   7.250   3.491 -0.4031 -1.0966  1.1571
  818MOL0     H12884   0.701   7.225   3.369 -1.0050  1.7656  1.3704
  819MOL0     O12885  11.347   1.131   7.919 -0.0556  0.3384 -0.7368
  819MOL0     C12886  11.351   1.144   7.802 -0.4669  0.7000  1.1915
  819MOL0     O12887  11.260   1.094   7.716  0.3428 -0.0268  0.6659
  819MOL0     C12888  11.197   0.975   7.739  0.6221 -0.4226  0.3895
  819MOL0     C12889  11.092   0.963   7.835  0.6524  0.0899  0.5906
  819MOL0     C12890  11.003   0.856   7.836 -0.4265 -1.2908  0.2130
  819MOL0     C12891  11.041   0.741   7.761  0.3422 -0.3476  0.1009
  819MOL0     O12892  10.975   0.624   7.772  0.1036  0.5109 -0.2129
  819MOL0     C12893  10.935   0.580   7.913  0.8891 -0.6118 -0.8094
  819MOL0     C12894  10.865   0.447   7.937 -0.0375 -0.6230 -0.7844
  819MOL0     C12895  10.944   0.326   7.897  0.0587 -0.0061  0.0558
  819MOL0     C12896  10.870   0.197   7.934  0.3584 -0.8228  0.5979
  819MOL0     C12897  10.918   0.077   7.843 -0.6602 -0.4571 -0.4511
  819MOL0     C12898  10.888  -0.059   7.893 -0.6977 -0.2038 -1.0669
  819MOL0     C12899  10.898  -0.169   7.784  1.1459  0.2403  0.0449
  819MOL0     C12900  10.908  -0.304   7.849 -0.2119 -0.7226 -0.2994
  819MOL0     N12901  11.035  -0.330   7.919 -0.4581  0.2949 -0.2293
  819MOL0     C12902  11.068  -0.298   8.045 -0.7005  1.2351 -0.6706
  819MOL0     C12903  11.202  -0.329   8.054  0.0667 -0.0443 -0.7107
  819MOL0     C12904  11.281  -0.299   8.186 -0.4826  0.6062 -0.3346
  819MOL0     C12905  11.323  -0.428   8.255 -0.4118  0.0980 -0.3096
  819MOL0     C12906  11.374  -0.404   8.401 -0.8588  0.0040 -0.6893
  819MOL0     C12907  11.518  -0.467   8.407  0.1465  0.4745 -0.5465
  819MOL0     O12908  11.612  -0.420   8.308  0.5411  0.7254 -0.6253
  819MOL0     C12909  11.644  -0.286   8.329  0.6953 -0.3196  0.2297
  819MOL0     C12910  11.646  -0.203   8.206  0.8078  0.2601 -0.7041
  819MOL0     C12911  11.685  -0.065   8.200 -0.0439 -0.6466 -1.3561
  819MOL0     C12912  11.688   0.004   8.066  1.2554 -0.3024 -0.8465
  819MOL0     C12913  11.700  -0.006   8.335 -0.5702 -0.4471 -0.3230
  819MOL0     C12914  11.728   0.134   8.355 -0.5972 -0.0919  1.1317
  819MOL0     O12915  11.693   0.181   8.474  0.8944  0.3789 -0.6189
  819MOL0     C12916  11.704   0.318   8.520  0.8774  0.6800 -0.1956
  819MOL0     C12917  11.718   0.338   8.655 -0.0703  0.2056 -0.4733
  819MOL0     C12918  11.698   0.459   8.716 -0.4188 -0.0545  0.5645
  819MOL0     C12919  11.652   0.566   8.636 -0.4900  0.1483 -0.4130
  819MOL0     O12920  11.588   0.669   8.707 -0.2507  0.0580  0.4120
  819MOL0     C12921  11.662   0.756   8.804  0.1589  0.9608 -0.1718
  819MOL0     C12922  11.711   0.890   8.756 -0.9062 -0.0874  0.3876
  819MOL0     C12923  11.593   0.970   8.702 -0.2833  0.3825  0.0485
  819MOL0     C12924  11.507   1.021   8.823 -0.0518 -0.2375  0.2442
  819MOL0     C12925  11.400   1.099   8.749  0.8865  0.0070 -0.3789
  819MOL0     C12926  11.334   1.205   8.840  0.6220 -0.2685 -0.6110
  819MOL0     C12927  11.298   1.339   8.777  0.0363  0.4466 -0.1705
  819MOL0     C12928  11.181   1.327   8.682  0.0797  0.2069 -0.4190
  819MOL0    Cl12929  11.032   1.297   8.776 -0.3314 -0.0304 -0.7858
  819MOL0     C12930  11.647   0.567   8.496  0.0743 -0.5348 -0.8909
  819MOL0     C12931  11.668   0.436   8.436  0.1868  0.9815 -0.4237
  819MOL0     O12932  11.795   0.193   8.273 -0.5753 -0.0350 -1.1314
  819MOL0     C12933  11.715  -0.088   8.449 -0.2247  0.4938 -1.2555
  819MOL0     C12934  11.694  -0.228   8.451 -0.1433 -0.5168 -0.9837
  819MOL0     N12935  11.235  -0.409   7.950  0.4059  0.7663 -0.0140
  819MOL0     N12936  11.140  -0.390   7.860 -0.3320  0.7163  0.2909
  819MOL0     C12937  11.142   0.747   7.674  0.6827 -0.1138  1.3505
  819MOL0     C12938  11.218   0.863   7.656 -0.1970 -0.7895 -0.0003
  819MOL0     C12939  11.449   1.234   7.751 -0.7042  0.3819 -1.0858
  819MOL0     C12940  11.525   1.307   7.842 -0.8171  0.2979 -0.5270
  819MOL0     C12941  11.619   1.404   7.805  0.0934 -0.0775  1.0148
  819MOL0     C12942  11.652   1.426   7.666  0.2635 -0.0879 -0.3843
  819MOL0     O12943  11.744   1.518   7.637 -0.1086 -0.3550  0.7596
  819MOL0     C12944  11.760   1.549   7.499 -0.2099 -0.8484 -0.0614
  819MOL0     C12945  11.852   1.663   7.467  1.0316  0.4679 -0.2128
  819MOL0     C12946  11.795   1.783   7.537  0.3470 -0.7001 -0.8742
  819MOL0     C12947  11.878   1.906   7.505 -0.6191 -0.3129  0.6704
  819MOL0     C12948  11.989   1.918   7.600 -0.1371  0.2552  0.4419
  819MOL0     C12949  12.088   1.925   7.676  0.3178 -0.3673  0.2679
  819MOL0     C12950  11.574   1.349   7.572 -0.1754 -0.3878  0.3555
  819MOL0     C12951  11.478   1.256   7.608 -0.2665 -1.2944  0.1905
  819MOL0     C12952  11.390   1.201   7.494  1.1011  0.2120  0.5182
  819MOL0     H12953  11.068   1.045   7.903 -1.7459 -0.2769  0.2884
  819MOL0     H12954  10.911   0.855   7.893  0.3573 -1.3129  1.5395
  819MOL0     H12955  10.860   0.651   7.950 -0.0367 -2.2808  0.6973
  819MOL0     H12956  11.017   0.566   7.983 -1.1695 -1.3925  1.5919
  819MOL0     H12957  10.842   0.439   8.043 -1.2544 -2.0077 -1.1149
  819MOL0     H12958  10.769   0.441   7.884  0.2965  2.9973 -2.0741
  819MOL0     H12959  10.980   0.335   7.795  1.3244  5.1019  0.7066
  819MOL0     H12960  11.034   0.319   7.959 -1.0987 -1.6195  1.6800
  819MOL0     H12961  10.879   0.176   8.041 -1.3048 -0.1118  0.9091
  819MOL0     H12962  10.764   0.210   7.909  0.2382 -3.8428 -1.0325
  819MOL0     H12963  11.026   0.085   7.852 -0.4347 -2.3853 -1.0152
  819MOL0     H12964  10.891   0.098   7.739 -1.9549 -0.7485 -0.1939
  819MOL0     H12965  10.948  -0.081   7.981 -2.3050  0.5230  0.2683
  819MOL0     H12966  10.786  -0.056   7.934  0.9746  2.0557  3.5833
  819MOL0     H12967  10.989  -0.153   7.726 -0.3791  1.9386 -2.0505
  819MOL0     H12968  10.811  -0.171   7.718  0.4380  2.0219  0.8473
  819MOL0     H12969  10.832  -0.321   7.925  0.3073  1.1922  0.7038
  819MOL0     H12970  10.894  -0.374   7.766 -0.5404 -0.6623 -0.2944
  819MOL0     H12971  11.015  -0.240   8.120  0.7118  0.1175  1.2896
  819MOL0     H12972  11.216  -0.254   8.262 -0.1953  0.4354  0.0150
  819MOL0     H12973  11.360  -0.227   8.162  0.2194  0.1522  0.5619
  819MOL0     H12974  11.229  -0.483   8.253 -1.9969  2.4778  1.9393
  819MOL0     H12975  11.399  -0.483   8.199 -1.4172 -3.4259  1.4709
  819MOL0     H12976  11.377  -0.302   8.440  0.3650 -0.7449  1.3236
  819MOL0     H12977  11.304  -0.455   8.466 -2.0792  1.8091 -0.5224
  819MOL0     H12978  11.556  -0.452   8.508  1.5486 -4.1406 -0.1612
  819MOL0     H12979  11.516  -0.576   8.398  1.7755  0.2708  1.0604
  819MOL0     H12980  11.606  -0.253   8.118 -2.5240 -0.6831  1.1633
  819MOL0     H12981  11.777   0.068   8.060 -0.3654  2.3343  1.1132
  819MOL0     H12982  11.605   0.075   8.072  3.6771  3.1424 -3.7926
  819MOL0     H12983  11.671  -0.049   7.972 -2.5888  3.1417 -2.4121
  819MOL0     H12984  11.730   0.248   8.715  0.2221  0.1677 -0.5869
  819MOL0     H12985  11.706   0.454   8.824  1.6034 -0.0019  0.4709
  819MOL0     H12986  11.588   0.772   8.882 -0.5517 -0.3770 -0.5408
  819MOL0     H12987  11.749   0.703   8.846 -1.9006 -1.8009  0.9291
  819MOL0     H12988  11.760   0.954   8.830 -3.1359  2.0432  0.1614
  819MOL0     H12989  11.782   0.873   8.675 -2.3817  1.2199 -1.2711
  819MOL0     H12990  11.527   0.900   8.650 -1.8754 -0.1189  2.5541
  819MOL0     H12991  11.631   1.038   8.626  2.4591 -1.3407 -0.2730
  819MOL0     H12992  11.573   1.091   8.875 -0.1473 -0.7210  1.0261
  819MOL0     H12993  11.466   0.945   8.890  0.6439 -0.0251  0.9222
  819MOL0     H12994  11.441   1.149   8.661 -1.4793 -0.0068 -1.5831
  819MOL0     H12995  11.320   1.029   8.723  0.5628  0.2446 -0.0279
  819MOL0     H12996  11.398   1.231   8.925 -0.7316  0.4437  0.2436
  819MOL0     H12997  11.250   1.158   8.891  1.0868 -1.8059 -1.2204
  819MOL0     H12998  11.383   1.387   8.728  0.9416  1.0757  1.9105
  819MOL0     H12999  11.279   1.407   8.861  2.4142  0.4642  0.4114
  819MOL0     H13000  11.196   1.238   8.620  3.8872  2.3993 -3.0336
  819MOL0     H13001  11.167   1.423   8.632 -1.5654  1.8918  2.9286
  819MOL0     H13002  11.633   0.656   8.434  0.4283 -0.2733 -0.5980
  819MOL0     H13003  11.645   0.422   8.331  1.9122  0.0774 -0.7041
  819MOL0     H13004  11.763  -0.054   8.540 -0.9832 -1.2633 -0.1370
  819MOL0     H13005  11.711  -0.280   8.545 -0.3683 -0.7171 -1.0515
  819MOL0     H13006  11.187   0.667   7.616  2.9231  1.0482  1.4035
  819MOL0     H13007  11.294   0.856   7.578 -2.1659 -1.8953 -1.9398
  819MOL0     H13008  11.509   1.288   7.948 -0.3574 -1.7012 -0.7808
  819MOL0     H13009  11.662   1.466   7.883 -2.2976 -0.5801  2.8421
  819MOL0     H13010  11.800   1.465   7.442  1.2514 -0.2642  0.0696
  819MOL0     H13011  11.668   1.572   7.445  0.4169 -2.7225 -2.0987
  819MOL0     H13012  11.852   1.685   7.360  0.1400 -0.4251 -0.4095
  819MOL0     H13013  11.955   1.639   7.495  0.2950  0.4389  2.8719
  819MOL0     H13014  11.694   1.803   7.502 -0.1667 -0.6919  0.5281
  819MOL0     H13015  11.788   1.778   7.646 -1.3818  0.9741 -0.8486
  819MOL0     H13016  11.821   1.999   7.505  1.1391  0.8184  0.3285
  819MOL0     H13017  11.912   1.895   7.402 -4.1968  0.1765 -0.7065
  819MOL0     H13018  12.168   1.934   7.748 -1.0994 -1.3719  2.0576
  819MOL0     H13019  11.584   1.358   7.464 -2.8046 -1.6440 -0.0657
  819MOL0     H13020  11.291   1.246   7.500  0.9840 -0.2115  2.0675
  819MOL0     H13021  11.418   1.218   7.389 -5.0496  0.6040 -1.4464
  819MOL0     H13022  11.381   1.092   7.495 -1.0702  0.3615  0.7344
  820MOL0     O13023   4.731   1.649   3.026 -0.2601 -1.2737 -0.2265
  820MOL0     C13024   4.796   1.751   3.014  0.1575  0.2996 -0.2832
  820MOL0     O13025   4.891   1.794   3.103  0.3294  0.0037 -0.0214
  820MOL0     C13026   4.902   1.707   3.211 -0.0103  0.0873  1.1358
  820MOL0     C13027   4.814   1.709   3.327  0.1252  0.2703 -0.5260
  820MOL0     C13028   4.859   1.643   3.446  0.4612  0.0621 -0.2032
  820MOL0     C13029   4.992   1.586   3.452 -0.6767  0.3154  0.1838
  820MOL0     O13030   5.053   1.532   3.560  0.1420 -0.0022 -0.4507
  820MOL0     C13031   4.973   1.489   3.671  0.3285 -1.1208  0.8515
  820MOL0     C13032   5.065   1.427   3.778  0.1474  0.5216 -0.2568
  820MOL0     C13033   5.160   1.320   3.720 -0.0004 -0.3391 -0.7004
  820MOL0     C13034   5.256   1.260   3.834 -0.9106 -0.4460  0.3955
  820MOL0     C13035   5.341   1.144   3.775  0.4445 -0.1897  0.1132
  820MOL0     C13036   5.400   1.049   3.883  0.1452  1.0727 -1.1068
  820MOL0     C13037   5.502   1.116   3.971  0.0941 -0.5172  0.2207
  820MOL0     C13038   5.640   1.155   3.897 -0.1667 -0.6657 -0.3356
  820MOL0     N13039   5.712   1.038   3.836  0.3165  0.0938 -0.0882
  820MOL0     C13040   5.693   0.997   3.705 -0.3397 -0.0940  0.3106
  820MOL0     C13041   5.781   0.893   3.682  0.1222  0.8750 -0.8167
  820MOL0     C13042   5.800   0.823   3.557 -0.7829  0.8331 -0.7576
  820MOL0     C13043   5.730   0.681   3.554 -0.9563 -0.6659  0.4672
  820MOL0     C13044   5.585   0.689   3.599 -0.0571 -0.5891 -0.3125
  820MOL0     C13045   5.511   0.558   3.580 -0.6404  0.2563 -0.5575
  820MOL0     O13046   5.571   0.455   3.660  0.0881  0.1208 -0.4065
  820MOL0     C13047   5.496   0.393   3.755  0.1088  0.1995 -0.2721
  820MOL0     C13048   5.359   0.386   3.748 -0.2300  1.4290 -0.1376
  820MOL0     C13049   5.275   0.333   3.852  0.1422  0.0040  0.4349
  820MOL0     C13050   5.123   0.359   3.829 -0.4430 -0.6046  0.5023
  820MOL0     C13051   5.341   0.263   3.969 -0.5626 -0.7006  1.0227
  820MOL0     C13052   5.267   0.207   4.083  0.0459  0.9868  0.7144
  820MOL0     O13053   5.346   0.167   4.188 -0.2849  0.0103  0.3412
  820MOL0     C13054   5.278   0.120   4.304 -0.0354 -0.1542  0.3230
  820MOL0     C13055   5.287   0.192   4.422 -0.1614  0.8047 -0.0571
  820MOL0     C13056   5.246   0.125   4.543 -0.6331 -0.1956  0.9347
  820MOL0     C13057   5.194  -0.002   4.543 -0.7722  0.4306 -0.5470
  820MOL0     O13058   5.166  -0.057   4.662  0.0436  0.3728  0.1652
  820MOL0     C13059   5.051  -0.004   4.732  0.2262  0.0288  0.8600
  820MOL0     C13060   5.016  -0.090   4.856 -0.0715  0.0302 -0.1543
  820MOL0     C13061   4.877  -0.046   4.907 -0.1395 -0.2734 -0.1631
  820MOL0     C13062   4.836  -0.098   5.045  0.6574 -0.2982 -0.4634
  820MOL0     C13063   4.692  -0.057   5.069  0.8528 -0.1910  0.8097
  820MOL0     C13064   4.645  -0.097   5.205  0.2702 -0.1151  0.7136
  820MOL0     C13065   4.488  -0.078   5.229  0.5943 -1.1573  0.1479
  820MOL0     C13066   4.401  -0.154   5.120  0.4159  0.0238  0.5536
  820MOL0    Cl13067   4.234  -0.171   5.187 -0.0541  0.6889  0.2008
  820MOL0     C13068   5.176  -0.077   4.423 -0.2500  0.0926 -0.6091
  820MOL0     C13069   5.230  -0.013   4.307 -0.1453 -0.2574 -0.5944
  820MOL0     O13070   5.145   0.206   4.085  0.4321  0.4650 -0.2434
  820MOL0     C13071   5.484   0.258   3.962 -0.5258  0.7096  0.8296
  820MOL0     C13072   5.559   0.328   3.860 -0.3795 -0.2134 -0.1205
  820MOL0     N13073   5.845   0.870   3.800 -0.2243 -0.1435 -0.3175
  820MOL0     N13074   5.806   0.954   3.886  0.4737  0.1269 -0.2817
  820MOL0     C13075   5.070   1.577   3.334  1.1514  0.4744  0.2144
  820MOL0     C13076   5.026   1.645   3.218 -0.2036  0.2198  0.3389
  820MOL0     C13077   4.772   1.821   2.882  0.8977  0.6092 -0.0224
  820MOL0     C13078   4.649   1.784   2.808  0.4848 -0.9469 -0.1311
  820MOL0     C13079   4.621   1.829   2.676 -0.4121  0.0895 -0.0985
  820MOL0     C13080   4.714   1.913   2.618  0.2884  0.1699 -0.0188
  820MOL0     O13081   4.697   1.952   2.490 -0.2014  0.1705  0.4898
  820MOL0     C13082   4.801   1.999   2.404  0.1486  0.3316 -0.1300
  820MOL0     C13083   4.744   2.037   2.273 -0.0396  0.2793  0.0953
  820MOL0     C13084   4.618   2.130   2.267  0.2782  0.5966  0.1771
  820MOL0     C13085   4.593   2.188   2.126  0.1452 -0.5627 -0.0328
  820MOL0     C13086   4.553   2.089   2.031 -1.0367  0.2836 -0.1518
  820MOL0     C13087   4.518   2.006   1.958 -0.7798 -0.0582 -0.5459
  820MOL0     C13088   4.826   1.956   2.691 -0.5930 -0.0003  0.9534
  820MOL0     C13089   4.864   1.906   2.813  0.3206 -0.3785 -1.0518
  820MOL0     C13090   4.993   1.946   2.881  0.2743  0.4344  0.4827
  820MOL0     H13091   4.715   1.754   3.324  0.6630  1.8169  1.8432
  820MOL0     H13092   4.801   1.647   3.537  1.3472 -0.9308  0.4298
  820MOL0     H13093   4.909   1.412   3.627 -0.4641  1.5914 -3.2353
  820MOL0     H13094   4.907   1.569   3.706  1.9196  0.1788  0.9838
  820MOL0     H13095   5.124   1.499   3.834 -1.5731  2.3028 -0.6092
  820MOL0     H13096   5.004   1.378   3.855  3.9238 -2.1453  1.3330
  820MOL0     H13097   5.108   1.240   3.666 -3.1928  0.7138  0.5921
  820MOL0     H13098   5.227   1.371   3.650  2.2063  1.4869  2.4578
  820MOL0     H13099   5.325   1.334   3.876 -0.2482 -1.2674  0.7725
  820MOL0     H13100   5.197   1.227   3.920 -2.2476  1.8073  0.4419
  820MOL0     H13101   5.425   1.182   3.716  3.4587  0.4766  4.3905
  820MOL0     H13102   5.281   1.085   3.705  3.3845 -2.1652 -0.9276
  820MOL0     H13103   5.320   1.009   3.946  2.3568  0.0360  1.2291
  820MOL0     H13104   5.455   0.962   3.845  3.7363  3.0483 -0.9134
  820MOL0     H13105   5.520   1.056   4.061 -0.0479 -1.0846 -0.1251
  820MOL0     H13106   5.466   1.215   4.002 -0.3046  0.4713 -3.0148
  820MOL0     H13107   5.622   1.241   3.832 -0.3717  0.3732  1.0309
  820MOL0     H13108   5.699   1.198   3.978 -1.3933  2.0108 -0.7555
  820MOL0     H13109   5.633   1.044   3.627  0.8181  0.3320 -0.3364
  820MOL0     H13110   5.909   0.811   3.553 -0.9412 -1.6992  0.5252
  820MOL0     H13111   5.764   0.884   3.474 -1.9392  0.5700 -0.4674
  820MOL0     H13112   5.733   0.649   3.449 -2.9798  2.7990 -0.8142
  820MOL0     H13113   5.781   0.614   3.623 -1.3118 -1.8210 -0.3494
  820MOL0     H13114   5.570   0.712   3.705  1.5675 -0.1649 -0.1549
  820MOL0     H13115   5.530   0.765   3.543  0.8380 -0.2297 -0.7181
  820MOL0     H13116   5.408   0.583   3.609 -0.5584 -0.5089  0.4592
  820MOL0     H13117   5.507   0.520   3.477 -0.0862  1.8152 -1.1786
  820MOL0     H13118   5.292   0.421   3.670  0.2703  1.3319 -0.6148
  820MOL0     H13119   5.057   0.294   3.888 -0.4184 -0.4985  0.6494
  820MOL0     H13120   5.092   0.356   3.725 -1.7924  0.9238  0.8032
  820MOL0     H13121   5.108   0.462   3.865  4.0674  0.1517  0.7181
  820MOL0     H13122   5.328   0.292   4.426 -1.9032  1.5312  0.6934
  820MOL0     H13123   5.264   0.168   4.641 -1.6507  2.0810  0.1981
  820MOL0     H13124   5.069   0.100   4.758  0.6952  0.1662  0.0211
  820MOL0     H13125   4.969  -0.013   4.659  2.6428  0.0223 -2.0454
  820MOL0     H13126   5.011  -0.198   4.844 -1.7595  0.0073  0.4652
  820MOL0     H13127   5.089  -0.059   4.932 -1.7506  0.6569  1.2618
  820MOL0     H13128   4.800  -0.084   4.840 -2.0171  0.3675  1.5329
  820MOL0     H13129   4.893   0.062   4.919  1.1561 -0.4572 -0.0725
  820MOL0     H13130   4.898  -0.051   5.123 -0.3203 -2.6960  1.8905
  820MOL0     H13131   4.850  -0.205   5.058 -0.9468 -0.3801  0.8293
  820MOL0     H13132   4.690   0.051   5.057  0.1954 -0.2020  0.7940
  820MOL0     H13133   4.625  -0.098   4.992  2.0674 -1.3307  0.3176
  820MOL0     H13134   4.698  -0.040   5.282  1.0666 -0.5252  0.4840
  820MOL0     H13135   4.657  -0.205   5.213 -2.2196 -0.7257 -1.9456
  820MOL0     H13136   4.461   0.028   5.233 -0.4111 -1.4430  1.7478
  820MOL0     H13137   4.475  -0.111   5.333  2.4059 -1.3218  0.3543
  820MOL0     H13138   4.444  -0.253   5.104 -0.0878  0.0775 -1.3169
  820MOL0     H13139   4.402  -0.096   5.027  0.4267 -3.0331 -1.4777
  820MOL0     H13140   5.137  -0.178   4.417 -1.0964  0.4112 -0.7186
  820MOL0     H13141   5.237  -0.067   4.213 -3.0407 -2.1179  0.1233
  820MOL0     H13142   5.531   0.194   4.037 -1.4583  0.6541  1.3810
  820MOL0     H13143   5.667   0.325   3.870 -0.3196 -0.8927 -0.9127
  820MOL0     H13144   5.156   1.511   3.331  0.8719  0.1442 -1.8630
  820MOL0     H13145   5.087   1.643   3.128  0.6097  1.2491  0.8445
  820MOL0     H13146   4.582   1.709   2.850 -1.6527 -0.3446 -2.2422
  820MOL0     H13147   4.532   1.793   2.625 -1.1115  1.9331 -0.2732
  820MOL0     H13148   4.851   2.087   2.447  3.5882 -2.3378  1.8822
  820MOL0     H13149   4.880   1.923   2.398  0.5284  0.3196  3.2730
  820MOL0     H13150   4.733   1.938   2.227  0.1858  0.0882  0.4506
  820MOL0     H13151   4.823   2.094   2.223  1.0399 -2.6819 -1.9022
  820MOL0     H13152   4.532   2.077   2.308 -0.3282  2.2033  1.0919
  820MOL0     H13153   4.626   2.211   2.340  2.3378  3.2237 -2.6512
  820MOL0     H13154   4.686   2.241   2.101  1.5008 -2.0992  1.5478
  820MOL0     H13155   4.515   2.264   2.133  1.6209  1.0452 -0.3454
  820MOL0     H13156   4.483   1.929   1.892  2.1726 -0.4486 -1.8256
  820MOL0     H13157   4.898   2.027   2.651  0.0565 -0.2049  1.7372
  820MOL0     H13158   5.058   1.859   2.868 -1.3408 -0.8904  0.8137
  820MOL0     H13159   5.031   2.025   2.816  1.1440 -1.5007 -1.5202
  820MOL0     H13160   4.991   1.984   2.983  0.2689  0.8362  0.3349
  821MOL0     O13161   0.732   2.639  10.464  0.7653  0.4097 -1.2256
  821MOL0     C13162   0.613   2.673  10.449 -0.2229 -0.6358  0.0358
  821MOL0     O13163   0.557   2.758  10.531  0.0117 -0.2123  0.2536
  821MOL0     C13164   0.622   2.812  10.643  1.0639  0.9201 -0.3916
  821MOL0     C13165   0.723   2.908  10.635  0.0362  0.0006 -0.6653
  821MOL0     C13166   0.772   2.976  10.745 -0.4821 -0.5349 -0.2895
  821MOL0     C13167   0.731   2.947  10.881 -0.2408 -0.6300 -0.1196
  821MOL0     O13168   0.781   3.028  10.984 -0.5400 -0.0241  0.6800
  821MOL0     C13169   0.770   3.170  10.960 -0.1845 -0.8435 -0.1327
  821MOL0     C13170   0.623   3.211  10.998 -0.5667 -0.0161  0.4591
  821MOL0     C13171   0.611   3.347  11.071  0.3954 -0.0456 -0.5123
  821MOL0     C13172   0.468   3.399  11.085  0.4777  1.0413 -0.1411
  821MOL0     C13173   0.454   3.512  11.189  0.5709 -1.2445  0.3457
  821MOL0     C13174   0.501   3.643  11.116  0.4676  0.5580 -1.2698
  821MOL0     C13175   0.534   3.754  11.219 -0.4911  0.0956  0.3090
  821MOL0     C13176   0.672   3.728  11.294  0.0686  0.5258  0.0353
  821MOL0     N13177   0.787   3.708  11.198  0.9804 -0.5435 -0.5968
  821MOL0     C13178   0.870   3.602  11.182 -1.0506  0.8483  0.3499
  821MOL0     C13179   0.974   3.660  11.122  0.7152  0.8430  0.9436
  821MOL0     C13180   1.084   3.577  11.061 -0.5407 -0.0308 -0.9450
  821MOL0     C13181   1.199   3.557  11.172  0.7131  0.0254  0.3010
  821MOL0     C13182   1.162   3.467  11.296  0.4236 -0.6648  0.3907
  821MOL0     C13183   1.283   3.420  11.363  0.2305  0.1842 -0.5052
  821MOL0     O13184   1.370   3.353  11.259  0.1934  0.0407 -0.2599
  821MOL0     C13185   1.331   3.239  11.199  0.7115  0.4781 -0.6113
  821MOL0     C13186   1.394   3.213  11.075  0.2848 -0.0167 -0.1234
  821MOL0     C13187   1.362   3.098  11.002 -0.5193 -0.0720  0.4664
  821MOL0     C13188   1.445   3.081  10.878 -0.8132  0.3783 -0.0833
  821MOL0     C13189   1.261   2.999  11.044 -0.0742 -0.4224 -0.2165
  821MOL0     C13190   1.222   2.874  10.970  0.1139 -0.0052  0.3097
  821MOL0     O13191   1.112   2.806  11.018 -0.3201 -0.3955 -0.5607
  821MOL0     C13192   1.081   2.696  10.950 -0.7348  0.3063  0.2500
  821MOL0     C13193   0.976   2.699  10.861 -0.5230  0.0649  0.9575
  821MOL0     C13194   0.922   2.582  10.796 -0.5770 -0.2352 -0.3854
  821MOL0     C13195   0.986   2.459  10.813 -0.6988  0.0405  0.2150
  821MOL0     O13196   0.936   2.345  10.757  0.4278  0.1967  0.1163
  821MOL0     C13197   0.882   2.362  10.622 -0.8101 -0.3696 -0.7563
  821MOL0     C13198   0.893   2.228  10.548 -0.2280  0.4742  0.6218
  821MOL0     C13199   0.829   2.229  10.412 -0.1519 -0.4987 -0.0355
  821MOL0     C13200   0.824   2.100  10.339  0.1488 -1.2111  0.3501
  821MOL0     C13201   0.681   2.048  10.364  0.5564  0.2404 -0.3141
  821MOL0     C13202   0.686   1.902  10.304 -0.1809  0.8024 -0.0299
  821MOL0     C13203   0.562   1.820  10.344 -1.2459  0.7002  0.3289
  821MOL0     C13204   0.582   1.678  10.292 -0.1742 -1.1906 -0.4664
  821MOL0    Cl13205   0.549   1.662  10.115  0.2761 -0.2625 -0.0754
  821MOL0     C13206   1.100   2.460  10.913  0.8944  0.7949  0.6306
  821MOL0     C13207   1.141   2.576  10.981  0.3566 -0.4241 -0.3671
  821MOL0     O13208   1.293   2.840  10.879 -0.2815  0.4442  0.1195
  821MOL0     C13209   1.196   3.035  11.163 -0.8076  0.0921 -0.0098
  821MOL0     C13210   1.236   3.149  11.237  0.0171 -0.2585  0.2828
  821MOL0     N13211   0.959   3.794  11.102  0.7224 -0.8449 -0.8090
  821MOL0     N13212   0.847   3.826  11.150  0.3687 -0.2570 -0.4110
  821MOL0     C13213   0.640   2.843  10.893 -0.1996  0.6868  0.2609
  821MOL0     C13214   0.574   2.785  10.778 -1.0665  1.0364  0.2433
  821MOL0     C13215   0.545   2.627  10.319  0.8534 -0.2901 -0.0663
  821MOL0     C13216   0.626   2.572  10.210  0.2985 -0.1230 -0.5070
  821MOL0     C13217   0.567   2.541  10.086 -0.7672 -0.3106 -0.4166
  821MOL0     C13218   0.429   2.569  10.062 -0.3683  0.3652  0.3902
  821MOL0     O13219   0.384   2.533   9.938  0.1023  0.6297  0.6667
  821MOL0     C13220   0.242   2.524   9.893  0.2732  0.3884  0.3988
  821MOL0     C13221   0.227   2.475   9.749 -0.7389 -0.2607  0.1340
  821MOL0     C13222   0.258   2.328   9.736 -0.1028  1.0084  0.7997
  821MOL0     C13223   0.399   2.281   9.776  0.0017 -0.1215  0.4580
  821MOL0     C13224   0.409   2.135   9.762 -0.0457  0.5715  0.6265
  821MOL0     C13225   0.402   2.016   9.743  0.1252 -0.4592 -0.1630
  821MOL0     C13226   0.348   2.608  10.170 -0.0714 -0.8187  0.1269
  821MOL0     C13227   0.407   2.647  10.292  0.2634 -0.1610 -0.0764
  821MOL0     C13228   0.319   2.719  10.386 -0.6882 -1.0758  0.1698
  821MOL0     H13229   0.751   2.938  10.534  0.7339 -1.1138 -0.8250
  821MOL0     H13230   0.845   3.052  10.719  0.4045 -1.3708 -0.3073
  821MOL0     H13231   0.798   3.206  10.860 -2.6617 -0.9476 -0.9268
  821MOL0     H13232   0.843   3.220  11.024  0.2284 -3.1548  1.3140
  821MOL0     H13233   0.582   3.224  10.897  0.7775 -0.2935 -0.1494
  821MOL0     H13234   0.573   3.127  11.047  0.2077 -1.1582 -0.6189
  821MOL0     H13235   0.651   3.335  11.172 -0.9364  0.4512  0.1038
  821MOL0     H13236   0.666   3.429  11.024 -0.9713  0.0210 -2.0687
  821MOL0     H13237   0.446   3.420  10.979  0.4338 -0.9368 -0.5549
  821MOL0     H13238   0.407   3.314  11.118  1.4520  0.5899  0.5393
  821MOL0     H13239   0.530   3.485  11.263 -0.1126 -2.3819  0.6454
  821MOL0     H13240   0.351   3.514  11.226  0.4551 -0.6556  0.0018
  821MOL0     H13241   0.592   3.619  11.060  1.3289  2.9268 -0.9819
  821MOL0     H13242   0.434   3.682  11.038 -0.6882 -1.9057 -1.6101
  821MOL0     H13243   0.462   3.750  11.300 -3.0272  0.6145 -1.7819
  821MOL0     H13244   0.534   3.851  11.167  1.8643 -0.7589 -1.4951
  821MOL0     H13245   0.689   3.812  11.362  0.5100  1.2992 -0.9975
  821MOL0     H13246   0.658   3.645  11.364 -0.6307  1.2817  0.8164
  821MOL0     H13247   0.851   3.501  11.217  0.3909  0.2403 -0.5347
  821MOL0     H13248   1.132   3.625  10.974  5.4864  1.4287  2.5879
  821MOL0     H13249   1.038   3.481  11.035 -0.5964  0.0525 -1.1614
  821MOL0     H13250   1.288   3.527  11.115  0.6485 -1.8035  1.0934
  821MOL0     H13251   1.220   3.656  11.214  3.8524 -0.1710 -0.5145
  821MOL0     H13252   1.101   3.521  11.370  1.8674  1.8394 -0.1502
  821MOL0     H13253   1.112   3.383  11.249 -0.2729  0.9909 -1.9825
  821MOL0     H13254   1.338   3.494  11.422 -2.9589  1.4461  1.1064
  821MOL0     H13255   1.252   3.342  11.433  2.2520 -1.6017 -1.4544
  821MOL0     H13256   1.461   3.292  11.043  1.8767 -1.5194 -0.6383
  821MOL0     H13257   1.481   3.176  10.838  3.6662 -0.5725  1.1518
  821MOL0     H13258   1.387   3.043  10.793 -4.6109  2.0240  1.5554
  821MOL0     H13259   1.534   3.021  10.900 -1.6892 -2.3521 -3.0726
  821MOL0     H13260   0.925   2.792  10.840  0.7182  0.3931 -0.8174
  821MOL0     H13261   0.832   2.592  10.738 -1.5523  0.5681  1.2063
  821MOL0     H13262   0.776   2.388  10.629 -0.7571  0.1168 -1.6433
  821MOL0     H13263   0.923   2.437  10.554  0.4195 -0.1695  0.1515
  821MOL0     H13264   0.995   2.191  10.536 -0.2133  1.0577 -1.3432
  821MOL0     H13265   0.841   2.160  10.616 -0.6693 -0.4862 -0.6137
  821MOL0     H13266   0.902   2.288  10.355  1.3567 -0.8475  1.4359
  821MOL0     H13267   0.733   2.281  10.405 -0.9845 -2.1959 -1.8148
  821MOL0     H13268   0.899   2.031  10.379 -0.2962 -1.0928  1.4302
  821MOL0     H13269   0.849   2.105  10.233  1.7870 -0.5539  0.7347
  821MOL0     H13270   0.671   2.042  10.473  0.6867  1.1141 -0.2502
  821MOL0     H13271   0.608   2.114  10.316 -0.0985 -0.3073 -0.0964
  821MOL0     H13272   0.769   1.866  10.365 -0.9073  2.0985  1.8073
  821MOL0     H13273   0.707   1.925  10.199  3.5704  2.3079  0.8675
  821MOL0     H13274   0.471   1.855  10.296 -0.5405  1.3919 -0.5350
  821MOL0     H13275   0.557   1.831  10.453  0.7053 -2.1448  0.8165
  821MOL0     H13276   0.518   1.607  10.345 -1.8335  0.3133 -0.3642
  821MOL0     H13277   0.687   1.653  10.313  1.0724  1.8779 -2.3717
  821MOL0     H13278   1.149   2.368  10.943  2.6286  0.7648 -1.9737
  821MOL0     H13279   1.226   2.564  11.047  2.7744  1.3851 -2.9040
  821MOL0     H13280   1.130   2.955  11.198 -1.0669 -0.0720 -0.8535
  821MOL0     H13281   1.191   3.151  11.336 -2.3913  0.7104 -0.7486
  821MOL0     H13282   0.600   2.821  10.992  0.5109 -1.5421  0.1101
  821MOL0     H13283   0.485   2.726  10.803  0.9339 -1.1160  3.0523
  821MOL0     H13284   0.729   2.561  10.243 -0.6113  0.9212  3.2677
  821MOL0     H13285   0.625   2.514   9.999  2.4701  0.8490  1.2065
  821MOL0     H13286   0.184   2.464   9.964 -0.1794  1.4439  0.9371
  821MOL0     H13287   0.190   2.620   9.894 -2.2309 -0.8843 -0.0413
  821MOL0     H13288   0.286   2.540   9.684 -0.1722 -0.8021  0.0986
  821MOL0     H13289   0.125   2.484   9.710 -0.5890  1.0496 -0.0133
  821MOL0     H13290   0.193   2.290   9.816 -3.3199  4.7723  0.3117
  821MOL0     H13291   0.224   2.286   9.641  1.2821  1.5436  0.0328
  821MOL0     H13292   0.432   2.313   9.876  1.2224  2.7315 -0.7323
  821MOL0     H13293   0.470   2.328   9.707  0.5979  1.4159  2.0428
  821MOL0     H13294   0.394   1.909   9.734 -0.6878 -0.3788 -0.4633
  821MOL0     H13295   0.245   2.629  10.144  0.2690  0.9804  0.1141
  821MOL0     H13296   0.337   2.826  10.373  2.8361 -1.8188 -2.3971
  821MOL0     H13297   0.212   2.703  10.368 -1.0619  1.8731 -0.8051
  821MOL0     H13298   0.335   2.689  10.490 -4.7618 -2.4138  0.5955
  822MOL0     O13299   9.161   0.869  11.142  0.2538  0.6690 -0.4063
  822MOL0     C13300   9.125   0.972  11.204 -0.3317  0.3005 -0.0742
  822MOL0     O13301   9.202   1.034  11.295 -0.0220 -0.4939 -1.0364
  822MOL0     C13302   9.318   0.980  11.319 -0.2503 -0.3408  0.1968
  822MOL0     C13303   9.332   0.898  11.430  0.7091  0.8761 -0.1648
  822MOL0     C13304   9.465   0.847  11.452 -0.1117 -0.5266  1.1538
  822MOL0     C13305   9.577   0.885  11.385 -0.0384 -0.2078  0.0708
  822MOL0     O13306   9.696   0.838  11.428 -0.0576  0.2932  0.0349
  822MOL0     C13307   9.803   0.808  11.332 -0.0137  0.2178  0.3521
  822MOL0     C13308   9.790   0.670  11.273  0.4741  0.0828  0.1986
  822MOL0     C13309   9.823   0.572  11.391  0.4345  0.4018 -0.5466
  822MOL0     C13310   9.782   0.435  11.366  0.3340  0.1583  0.0757
  822MOL0     C13311   9.789   0.335  11.483  0.5116  0.0763  0.8953
  822MOL0     C13312   9.934   0.325  11.530 -1.0507 -0.6600 -0.2990
  822MOL0     C13313  10.043   0.275  11.428 -0.1010  0.1128  0.8375
  822MOL0     C13314  10.132   0.170  11.500 -0.2232 -0.2085 -0.3710
  822MOL0     N13315  10.217   0.098  11.402  0.9983 -0.2438 -0.9454
  822MOL0     C13316  10.166   0.018  11.300 -0.5318 -0.0487 -0.0327
  822MOL0     C13317  10.286  -0.020  11.243 -0.2125 -0.2398 -0.2882
  822MOL0     C13318  10.299  -0.125  11.131 -0.9564  0.0063 -0.3062
  822MOL0     C13319  10.242  -0.262  11.163  0.3890 -1.0030  0.1876
  822MOL0     C13320  10.191  -0.324  11.036  0.0373 -0.1610 -0.5868
  822MOL0     C13321  10.153  -0.474  11.048 -0.4478  0.4215  0.5041
  822MOL0     O13322  10.268  -0.548  11.086 -0.5348  0.0582 -0.0273
  822MOL0     C13323  10.259  -0.678  11.127 -0.0585 -0.1253  0.6809
  822MOL0     C13324  10.141  -0.746  11.148  0.7574  0.1370  0.3377
  822MOL0     C13325  10.136  -0.876  11.209 -0.7972  0.3400  0.2842
  822MOL0     C13326  10.000  -0.927  11.242  0.2869  0.6921  0.3747
  822MOL0     C13327  10.253  -0.944  11.254  0.4013 -0.2727  0.6502
  822MOL0     C13328  10.249  -1.077  11.322  0.6679 -0.4484 -0.3128
  822MOL0     O13329  10.232  -1.191  11.248  1.4014 -0.4518 -0.2912
  822MOL0     C13330  10.229  -1.311  11.307  0.0864 -0.2078 -0.5931
  822MOL0     C13331  10.169  -1.346  11.429  0.3900 -0.4314 -0.3136
  822MOL0     C13332  10.188  -1.478  11.480 -0.3591  0.4990 -0.5082
  822MOL0     C13333  10.262  -1.571  11.413  0.4272 -0.3650 -0.0572
  822MOL0     O13334  10.282  -1.689  11.483 -0.3865 -0.3285  0.0145
  822MOL0     C13335  10.395  -1.775  11.454 -0.9193  0.0133  0.1708
  822MOL0     C13336  10.404  -1.899  11.541 -1.3764  0.4604 -0.0188
  822MOL0     C13337  10.546  -1.971  11.504  0.1143  0.2836  0.1043
  822MOL0     C13338  10.559  -2.133  11.534  0.6521 -0.6943 -0.4887
  822MOL0     C13339  10.704  -2.174  11.550  0.1541 -0.8868  0.1451
  822MOL0     C13340  10.782  -2.188  11.419  0.3959  0.0485 -0.0782
  822MOL0     C13341  10.728  -2.293  11.327 -0.3468 -0.2886  0.5211
  822MOL0     C13342  10.726  -2.435  11.399 -0.7690 -0.5967  0.6277
  822MOL0    Cl13343  10.646  -2.555  11.290  0.2774 -0.1519 -0.1427
  822MOL0     C13344  10.305  -1.545  11.280 -0.1389  0.4692 -0.7275
  822MOL0     C13345  10.295  -1.418  11.238 -0.5512  1.0336 -0.7577
  822MOL0     O13346  10.292  -1.061  11.436  0.2815  0.4209  0.5120
  822MOL0     C13347  10.374  -0.867  11.221  0.6007  0.4998 -0.1074
  822MOL0     C13348  10.372  -0.742  11.168  1.0680 -1.3221  0.6820
  822MOL0     N13349  10.393   0.042  11.293  0.0536  0.2723 -0.8022
  822MOL0     N13350  10.354   0.115  11.393 -0.1798  0.7832 -0.2543
  822MOL0     C13351   9.554   0.964  11.279 -0.6910  0.7127 -0.0757
  822MOL0     C13352   9.426   1.010  11.241  0.3551  0.1530 -0.3969
  822MOL0     C13353   8.983   1.015  11.210  0.9212  0.3895  0.1063
  822MOL0     C13354   8.931   1.084  11.324  0.3984 -0.9297  0.7624
  822MOL0     C13355   8.805   1.138  11.334  0.6339 -0.8934  0.3023
  822MOL0     C13356   8.711   1.107  11.228 -0.2712 -0.3975  0.5413
  822MOL0     O13357   8.573   1.131  11.228 -0.4153  0.4999  0.3284
  822MOL0     C13358   8.516   1.210  11.328  0.3879 -0.1255 -0.5971
  822MOL0     C13359   8.479   1.121  11.458 -0.8598  0.2518 -0.0659
  822MOL0     C13360   8.354   1.035  11.447  0.0211  0.2118 -0.0018
  822MOL0     C13361   8.353   0.916  11.343  0.4120 -0.4774 -0.2573
  822MOL0     C13362   8.472   0.832  11.351  0.1088 -0.0168 -0.5695
  822MOL0     C13363   8.566   0.754  11.350  0.0392  0.2828 -0.5104
  822MOL0     C13364   8.760   1.023  11.125 -0.1009 -0.1703  0.1891
  822MOL0     C13365   8.888   0.982  11.104 -0.4773 -0.0071  0.5238
  822MOL0     C13366   8.923   0.918  10.969 -0.1988 -0.0153 -0.2538
  822MOL0     H13367   9.253   0.873  11.501 -1.7122  0.6902 -2.7663
  822MOL0     H13368   9.477   0.771  11.528  0.2454 -0.5717  1.0534
  822MOL0     H13369   9.892   0.820  11.394 -1.1480 -0.3951  2.1823
  822MOL0     H13370   9.796   0.883  11.253 -0.3701  0.2387  0.4045
  822MOL0     H13371   9.694   0.650  11.226  0.5140 -1.0411  0.5530
  822MOL0     H13372   9.862   0.657  11.191 -1.2859 -4.1243 -0.9299
  822MOL0     H13373   9.930   0.587  11.409  0.1014  3.7225 -0.6955
  822MOL0     H13374   9.771   0.609  11.480  1.5115 -0.0417  0.2922
  822MOL0     H13375   9.678   0.427  11.334 -0.4554  0.1701  2.4348
  822MOL0     H13376   9.838   0.393  11.282 -2.4814 -1.5725 -1.0856
  822MOL0     H13377   9.747   0.238  11.454 -1.2321  0.8923  0.5733
  822MOL0     H13378   9.734   0.379  11.567  1.3543 -3.1195  3.3585
  822MOL0     H13379   9.969   0.424  11.560  1.3383 -1.1489 -1.2081
  822MOL0     H13380   9.937   0.268  11.623 -0.4394 -3.4171 -1.8829
  822MOL0     H13381  10.097   0.354  11.376  1.6225 -1.3065  0.3718
  822MOL0     H13382   9.992   0.215  11.352  1.9489  1.6938 -1.9907
  822MOL0     H13383  10.200   0.218  11.572  1.7503  0.2585 -2.4173
  822MOL0     H13384  10.077   0.100  11.564  1.7438 -0.1687  1.5104
  822MOL0     H13385  10.063  -0.002  11.275 -1.6914  3.2232  1.5422
  822MOL0     H13386  10.402  -0.140  11.099 -1.0934  1.1672 -1.3340
  822MOL0     H13387  10.245  -0.083  11.046  1.2115 -0.3872 -1.9524
  822MOL0     H13388  10.324  -0.319  11.206  0.0989 -0.8739  0.9362
  822MOL0     H13389  10.157  -0.248  11.230  0.6775 -2.2242  0.8287
  822MOL0     H13390  10.103  -0.265  11.008 -0.2336 -0.8805 -1.3281
  822MOL0     H13391  10.249  -0.303  10.946 -1.8887  3.2378 -1.2020
  822MOL0     H13392  10.073  -0.479  11.123 -1.5355 -0.0836 -0.6353
  822MOL0     H13393  10.125  -0.506  10.947  0.9087  2.4993 -0.6054
  822MOL0     H13394  10.043  -0.701  11.133  0.3008 -0.6951  0.7471
  822MOL0     H13395   9.939  -0.913  11.153  1.9417  0.7411 -0.8016
  822MOL0     H13396   9.959  -0.882  11.333 -0.6248  1.5408 -0.4381
  822MOL0     H13397  10.003  -1.034  11.265 -1.7904 -0.1412 -2.5831
  822MOL0     H13398  10.117  -1.272  11.489  0.3252 -0.6177 -0.1361
  822MOL0     H13399  10.158  -1.511  11.579 -0.4277 -4.8427 -2.0047
  822MOL0     H13400  10.390  -1.818  11.353 -3.4084 -2.3414  1.1852
  822MOL0     H13401  10.485  -1.712  11.461 -0.0978 -1.2041  0.8880
  822MOL0     H13402  10.402  -1.864  11.645  1.7020  3.7879 -0.8938
  822MOL0     H13403  10.319  -1.965  11.521 -0.4578 -1.1358  1.1587
  822MOL0     H13404  10.618  -1.922  11.570 -0.0631 -0.4865  0.9088
  822MOL0     H13405  10.576  -1.955  11.401  1.6798  1.3215  0.6865
  822MOL0     H13406  10.508  -2.196  11.461  0.8175 -1.8328  0.3529
  822MOL0     H13407  10.491  -2.152  11.617 -1.6343 -0.0750 -2.1218
  822MOL0     H13408  10.751  -2.102  11.617  0.6612 -0.9357 -0.1524
  822MOL0     H13409  10.711  -2.265  11.611  4.8508 -0.4457  0.5917
  822MOL0     H13410  10.888  -2.208  11.436 -0.1992 -2.8141  0.8515
  822MOL0     H13411  10.792  -2.096  11.361  0.4782 -0.0123 -0.1623
  822MOL0     H13412  10.798  -2.295  11.243 -0.0181  3.3791  0.5426
  822MOL0     H13413  10.634  -2.264  11.280 -0.5524 -1.5457  0.1171
  822MOL0     H13414  10.676  -2.427  11.496 -2.7948  0.9014 -0.4814
  822MOL0     H13415  10.831  -2.453  11.424 -0.7103 -1.6574 -0.2951
  822MOL0     H13416  10.339  -1.614  11.203  0.6286  0.0894 -0.0610
  822MOL0     H13417  10.346  -1.390  11.146 -0.2672 -0.1424 -0.9736
  822MOL0     H13418  10.473  -0.901  11.251  0.0774 -0.2570  0.8127
  822MOL0     H13419  10.466  -0.704  11.130 -1.2508  1.5116 -2.7938
  822MOL0     H13420   9.646   0.988  11.227  1.2112 -4.9152 -0.0445
  822MOL0     H13421   9.411   1.078  11.158 -0.1490  0.8914  0.2776
  822MOL0     H13422   9.010   1.095  11.399  2.0324  0.8227 -1.1124
  822MOL0     H13423   8.777   1.195  11.423 -0.4403 -0.6787 -0.1549
  822MOL0     H13424   8.587   1.285  11.365  1.7448 -0.3623 -2.5734
  822MOL0     H13425   8.424   1.249  11.285 -0.6841 -2.4740 -0.6129
  822MOL0     H13426   8.456   1.189  11.540 -1.6661 -0.5513  0.4026
  822MOL0     H13427   8.563   1.063  11.496  0.0508 -1.9145 -4.6546
  822MOL0     H13428   8.357   0.993  11.548 -0.8446  0.2423  0.0448
  822MOL0     H13429   8.264   1.096  11.434 -0.6233 -0.2430  1.9536
  822MOL0     H13430   8.338   0.962  11.245 -1.9487  4.0721  1.8982
  822MOL0     H13431   8.260   0.859  11.346 -3.7151  5.3437 -0.3627
  822MOL0     H13432   8.629   0.668  11.346 -2.0442 -1.3752  0.5509
  822MOL0     H13433   8.683   0.979  11.062 -0.4909 -0.2229  0.7004
  822MOL0     H13434   8.838   0.930  10.901 -2.2797  2.0629  2.4901
  822MOL0     H13435   9.011   0.955  10.917 -1.4038  2.8934 -0.3935
  822MOL0     H13436   8.931   0.814  11.003 -2.2387 -0.0270  0.3236
  823MOL0     O13437  11.018   0.099   2.724  0.5603  0.1112  0.4571
  823MOL0     C13438  11.066   0.063   2.827 -0.0502  0.7407 -0.3158
  823MOL0     O13439  10.995   0.014   2.935 -0.1085  0.3131 -0.4960
  823MOL0     C13440  10.866   0.060   2.930 -0.0917  0.3052 -0.2658
  823MOL0     C13441  10.823   0.174   2.995  0.4371 -0.8532  0.3151
  823MOL0     C13442  10.686   0.216   2.995  0.4560 -0.0324  0.1956
  823MOL0     C13443  10.594   0.129   2.943  0.7619  0.3340  0.9283
  823MOL0     O13444  10.467   0.181   2.924 -0.6460  0.3418 -0.3393
  823MOL0     C13445  10.350   0.113   2.983  0.0041  0.3248  0.1124
  823MOL0     C13446  10.231   0.202   3.041  0.4814  0.0620  0.4304
  823MOL0     C13447  10.187   0.309   2.941 -0.0974 -0.1041  0.3198
  823MOL0     C13448  10.114   0.228   2.823  0.6010 -0.6745 -1.0490
  823MOL0     C13449  10.054   0.317   2.709 -0.3207 -0.2693 -0.3608
  823MOL0     C13450  10.000   0.223   2.603  0.2558  0.1413 -0.2050
  823MOL0     C13451  10.103   0.130   2.525  0.7972  0.2582 -0.5280
  823MOL0     C13452  10.018   0.053   2.424 -0.3018  0.5673  0.2493
  823MOL0     N13453  10.080  -0.044   2.328  0.2316 -0.9587  0.5661
  823MOL0     C13454  10.204  -0.086   2.322 -0.0498 -0.0976  0.8319
  823MOL0     C13455  10.214  -0.145   2.198  0.7907  0.5999  0.5943
  823MOL0     C13456  10.341  -0.211   2.140 -0.6882 -0.5870  0.3482
  823MOL0     C13457  10.414  -0.317   2.238 -0.7469 -0.0307 -0.1308
  823MOL0     C13458  10.319  -0.439   2.263 -0.9042 -0.2632 -0.2580
  823MOL0     C13459  10.215  -0.415   2.369 -0.1658  0.9112 -0.5275
  823MOL0     O13460  10.265  -0.381   2.497 -0.1810  0.2974 -0.2534
  823MOL0     C13461  10.178  -0.321   2.574  0.1024  0.0368  0.7469
  823MOL0     C13462  10.034  -0.318   2.554 -0.0605 -0.2713 -0.0224
  823MOL0     C13463   9.959  -0.259   2.652  0.6821 -0.0776 -0.4935
  823MOL0     C13464   9.813  -0.259   2.621  0.4047  0.0210  0.4695
  823MOL0     C13465  10.016  -0.196   2.770  0.2858  1.0543 -0.1999
  823MOL0     C13466   9.948  -0.109   2.867  0.2445  0.8011  0.1198
  823MOL0     O13467   9.814  -0.095   2.851 -0.1472 -0.1993 -0.5166
  823MOL0     C13468   9.751  -0.046   2.962 -0.0322  0.9024  0.5011
  823MOL0     C13469   9.776   0.084   3.013  0.3238 -0.0802 -0.6083
  823MOL0     C13470   9.713   0.119   3.124  0.3458 -0.4423 -0.5044
  823MOL0     C13471   9.607   0.049   3.180  1.0024 -0.3995  0.1261
  823MOL0     O13472   9.528   0.088   3.280 -0.3915  0.0231 -0.5923
  823MOL0     C13473   9.599   0.145   3.390  0.1964  0.2029 -0.2839
  823MOL0     C13474   9.492   0.132   3.502  0.0800  0.3786  0.2997
  823MOL0     C13475   9.483  -0.013   3.559 -0.3105  0.0283 -0.4034
  823MOL0     C13476   9.386  -0.022   3.676  0.3264 -0.2926 -0.3581
  823MOL0     C13477   9.397  -0.147   3.751 -0.2139 -0.3312  0.0150
  823MOL0     C13478   9.288  -0.166   3.856 -0.1738 -0.5311 -0.1724
  823MOL0     C13479   9.335  -0.276   3.944 -0.2695  0.3460  0.3812
  823MOL0     C13480   9.233  -0.299   4.054  0.2339  0.2568 -0.9167
  823MOL0    Cl13481   9.274  -0.447   4.140 -0.0179  0.1968  0.1513
  823MOL0     C13482   9.578  -0.073   3.120  0.7654 -0.2256 -0.6067
  823MOL0     C13483   9.650  -0.127   3.011 -0.1168 -0.7606 -0.3739
  823MOL0     O13484  10.015  -0.052   2.961 -0.0460 -0.2658  0.8235
  823MOL0     C13485  10.161  -0.191   2.772 -0.1252  0.9005 -0.6930
  823MOL0     C13486  10.237  -0.261   2.678 -0.4544 -0.5976  0.2884
  823MOL0     N13487  10.088  -0.149   2.140 -0.9198  0.6468 -0.1198
  823MOL0     N13488  10.016  -0.070   2.209 -0.2835 -0.4715 -0.0534
  823MOL0     C13489  10.634   0.014   2.872 -0.1627  0.7082  0.3276
  823MOL0     C13490  10.771  -0.019   2.866 -0.2579  0.2583  0.5026
  823MOL0     C13491  11.207   0.073   2.828 -0.3586  0.2217  0.5765
  823MOL0     C13492  11.270   0.145   2.936  0.2911  0.2486 -0.3728
  823MOL0     C13493  11.408   0.164   2.945 -1.0564 -0.1953 -0.3055
  823MOL0     C13494  11.493   0.116   2.838  0.1202 -0.2221  0.0768
  823MOL0     O13495  11.625   0.106   2.828  0.3556  0.5849  0.6290
  823MOL0     C13496  11.699   0.157   2.942  0.7657 -0.7573 -0.0276
  823MOL0     C13497  11.691   0.076   3.069  0.2967  0.3427 -0.5135
  823MOL0     C13498  11.669  -0.069   3.069  0.0207  0.4182  0.0410
  823MOL0     C13499  11.797  -0.147   3.045  0.3617  1.2412  0.8173
  823MOL0     C13500  11.775  -0.292   3.028  0.4817 -0.7429  0.2470
  823MOL0     C13501  11.753  -0.410   3.022  0.2540 -0.5673  0.6738
  823MOL0     C13502  11.427   0.053   2.730  0.0061 -0.0250  0.1489
  823MOL0     C13503  11.293   0.028   2.729 -0.2856  0.8561  0.1307
  823MOL0     C13504  11.232  -0.031   2.605  0.2172  0.4009  0.0259
  823MOL0     H13505  10.899   0.237   3.040  2.4296 -1.1360 -2.4017
  823MOL0     H13506  10.646   0.309   3.033  1.4266  0.6850 -0.5094
  823MOL0     H13507  10.390   0.052   3.065  0.3737  1.7998  1.0672
  823MOL0     H13508  10.301   0.042   2.915  0.3740  1.0283 -0.9001
  823MOL0     H13509  10.149   0.144   3.084 -1.6237 -0.1890 -3.3887
  823MOL0     H13510  10.275   0.268   3.116 -0.3252  2.8159 -1.3461
  823MOL0     H13511  10.119   0.388   2.976  0.4043  0.7223 -0.5257
  823MOL0     H13512  10.275   0.359   2.898 -0.1879 -0.5513 -0.4041
  823MOL0     H13513  10.189   0.161   2.780  1.0956 -1.1716  0.5510
  823MOL0     H13514  10.031   0.169   2.862  1.1985  0.2655  1.9104
  823MOL0     H13515  10.137   0.376   2.669  0.4542 -2.4211 -2.1234
  823MOL0     H13516   9.974   0.387   2.735  1.2959  2.2236 -1.6862
  823MOL0     H13517   9.932   0.148   2.642 -1.4636  0.9579 -1.5118
  823MOL0     H13518   9.939   0.283   2.534 -0.7253  0.5791  1.0146
  823MOL0     H13519  10.158   0.068   2.596 -0.3486  1.2225  1.2865
  823MOL0     H13520  10.177   0.197   2.480  0.1987  0.5131 -1.1382
  823MOL0     H13521   9.950  -0.006   2.486  0.4413 -1.3795 -0.7116
  823MOL0     H13522   9.959   0.117   2.358 -0.8156 -0.0733  0.0773
  823MOL0     H13523  10.296  -0.082   2.380  2.0098 -1.6147 -2.0378
  823MOL0     H13524  10.412  -0.132   2.113 -1.8919  0.1032 -0.9375
  823MOL0     H13525  10.307  -0.265   2.051 -1.8512  0.5397  0.0746
  823MOL0     H13526  10.502  -0.333   2.176 -0.3510  1.2990  0.0622
  823MOL0     H13527  10.449  -0.274   2.333 -2.5125  0.8490  0.1699
  823MOL0     H13528  10.278  -0.460   2.163 -1.5783 -3.9949  0.6551
  823MOL0     H13529  10.378  -0.528   2.284  0.1927  0.5680  0.3229
  823MOL0     H13530  10.147  -0.337   2.334  0.5981  0.4697 -3.3039
  823MOL0     H13531  10.168  -0.514   2.375  1.2809  0.2532  1.0913
  823MOL0     H13532   9.975  -0.361   2.473  0.3187 -3.0715  1.0988
  823MOL0     H13533   9.776  -0.311   2.531 -0.4505  3.0974 -1.1076
  823MOL0     H13534   9.773  -0.159   2.603 -2.9131 -1.4645 -1.3500
  823MOL0     H13535   9.763  -0.304   2.708 -1.9531 -2.0267 -1.7472
  823MOL0     H13536   9.851   0.145   2.963  1.0912  1.0145  1.7381
  823MOL0     H13537   9.742   0.215   3.165 -0.9355 -0.6085  0.8703
  823MOL0     H13538   9.698   0.103   3.408  0.4066  1.1349  0.8552
  823MOL0     H13539   9.619   0.251   3.378  1.9233  0.0804  1.0579
  823MOL0     H13540   9.530   0.200   3.578 -0.8279  1.5922 -0.3050
  823MOL0     H13541   9.396   0.168   3.465 -0.4359 -2.0651 -0.9885
  823MOL0     H13542   9.582  -0.037   3.600 -0.7842 -2.2346 -0.4500
  823MOL0     H13543   9.442  -0.086   3.489 -3.5585  3.2809 -2.2583
  823MOL0     H13544   9.284  -0.022   3.636 -0.5032  0.3534  1.6223
  823MOL0     H13545   9.386   0.057   3.752  0.3990 -1.4890  0.9167
  823MOL0     H13546   9.394  -0.229   3.678  0.6673  1.2847 -1.9428
  823MOL0     H13547   9.499  -0.152   3.789  0.8128 -1.0465 -2.5811
  823MOL0     H13548   9.200  -0.207   3.805  0.2893 -2.8193  0.7464
  823MOL0     H13549   9.267  -0.074   3.911  1.0492 -0.0203 -0.5222
  823MOL0     H13550   9.435  -0.266   3.987  0.1381 -0.4733 -0.3488
  823MOL0     H13551   9.347  -0.364   3.881  1.1526  0.5400  0.3531
  823MOL0     H13552   9.126  -0.307   4.029  0.4339 -2.3194 -1.1427
  823MOL0     H13553   9.241  -0.217   4.126  1.0792 -1.1461  0.6209
  823MOL0     H13554   9.483  -0.119   3.145  0.0933  0.3742 -1.9536
  823MOL0     H13555   9.623  -0.224   2.970  3.3183 -2.6533  1.3854
  823MOL0     H13556  10.220  -0.136   2.845 -0.9197  2.2843 -1.0514
  823MOL0     H13557  10.345  -0.256   2.674 -0.4980 -0.6735 -1.7426
  823MOL0     H13558  10.558  -0.044   2.820 -1.7381  2.0541  1.0362
  823MOL0     H13559  10.803  -0.106   2.808  1.4826 -0.5454  2.5207
  823MOL0     H13560  11.215   0.183   3.022  0.3378  1.3183 -0.7924
  823MOL0     H13561  11.448   0.229   3.023 -0.7872 -1.3598  0.5480
  823MOL0     H13562  11.801   0.163   2.902  0.9609 -3.4035 -0.0991
  823MOL0     H13563  11.668   0.259   2.964  0.4018 -0.7488 -0.5665
  823MOL0     H13564  11.610   0.108   3.136  1.8797  0.5046  1.4229
  823MOL0     H13565  11.774   0.105   3.133 -0.5236  0.8923  0.3304
  823MOL0     H13566  11.625  -0.094   3.166  1.4597 -0.6391  0.4577
  823MOL0     H13567  11.587  -0.092   3.000 -1.6190  2.3029  1.2263
  823MOL0     H13568  11.878  -0.133   3.117  1.4536  2.0564 -0.5288
  823MOL0     H13569  11.824  -0.113   2.944 -2.2574  0.7303 -0.1402
  823MOL0     H13570  11.744  -0.516   3.012 -1.3855 -0.6006  2.1649
  823MOL0     H13571  11.494   0.012   2.655  0.2797 -0.5830  0.6862
  823MOL0     H13572  11.192   0.045   2.537  0.2881  0.2927 -0.1367
  823MOL0     H13573  11.312  -0.075   2.545  1.5904  3.4766 -0.5576
  823MOL0     H13574  11.152  -0.106   2.615 -0.3867  0.9626 -0.5029
  824MOL0     O13575   3.740  10.887  11.112  0.3511 -0.3942 -0.4051
  824MOL0     C13576   3.816  10.784  11.103 -0.8163  0.3125 -1.3471
  824MOL0     O13577   3.889  10.723  11.208 -0.1229  0.3910 -0.3262
  824MOL0     C13578   3.859  10.761  11.337  0.3045 -0.2206 -1.0272
  824MOL0     C13579   3.960  10.795  11.428  0.2026 -0.4100  0.1231
  824MOL0     C13580   3.930  10.838  11.556  0.0520 -0.5384  0.2652
  824MOL0     C13581   3.786  10.835  11.595 -0.5441  0.0341 -1.1390
  824MOL0     O13582   3.747  10.864  11.722 -0.9755 -0.2796 -0.2904
  824MOL0     C13583   3.842  10.883  11.831 -0.0866  0.1788  0.8881
  824MOL0     C13584   3.759  10.849  11.957  0.4026  0.3128  0.0125
  824MOL0     C13585   3.637  10.937  11.983  0.1282 -0.0809  0.7223
  824MOL0     C13586   3.651  11.009  12.115  0.3150  0.1160  1.1364
  824MOL0     C13587   3.521  11.099  12.150  0.3378  0.1320  0.8049
  824MOL0     C13588   3.561  11.203  12.256 -0.5732  0.1917 -0.5778
  824MOL0     C13589   3.441  11.289  12.299 -0.5500 -0.2451  0.5643
  824MOL0     C13590   3.479  11.376  12.414  0.1845  0.4775 -1.0955
  824MOL0     N13591   3.378  11.478  12.441  0.0091  0.0970 -1.0532
  824MOL0     C13592   3.370  11.605  12.383 -0.6110 -0.3254  0.4090
  824MOL0     C13593   3.240  11.639  12.380 -0.3310  1.2080 -0.3656
  824MOL0     C13594   3.194  11.771  12.328  0.0231  0.2204 -0.0334
  824MOL0     C13595   3.096  11.832  12.424  0.4021  0.1185 -0.0934
  824MOL0     C13596   3.062  11.977  12.384  0.2128  0.8018 -0.5879
  824MOL0     C13597   2.938  12.041  12.460 -0.1016 -0.0362 -0.5187
  824MOL0     O13598   2.920  12.176  12.439 -0.1404  0.2932  0.7995
  824MOL0     C13599   2.886  12.233  12.315 -0.1459  0.1365 -0.0844
  824MOL0     C13600   2.918  12.365  12.286  0.4549 -0.8406 -0.3728
  824MOL0     C13601   2.884  12.433  12.167  0.3837  0.3441 -0.5468
  824MOL0     C13602   2.912  12.580  12.153  0.4569  0.6995  0.2302
  824MOL0     C13603   2.801  12.367  12.078 -0.5035  0.0192  0.0525
  824MOL0     C13604   2.750  12.424  11.962 -0.0144 -1.0029 -0.2532
  824MOL0     O13605   2.829  12.504  11.894  0.4949 -0.0800  0.1367
  824MOL0     C13606   2.782  12.601  11.807  0.0852 -0.9792 -0.2042
  824MOL0     C13607   2.707  12.569  11.693  0.6530 -0.3585 -1.3290
  824MOL0     C13608   2.670  12.674  11.602  0.3060 -0.5846  0.4736
  824MOL0     C13609   2.712  12.805  11.620 -0.0976 -0.2186  0.6963
  824MOL0     O13610   2.695  12.915  11.538  0.4855  0.1646 -0.8253
  824MOL0     C13611   2.643  12.898  11.409 -0.3103  0.7801  0.6711
  824MOL0     C13612   2.670  13.030  11.332 -0.1469 -0.0430  0.3753
  824MOL0     C13613   2.669  13.023  11.176  0.0749 -0.1603 -0.7671
  824MOL0     C13614   2.740  13.140  11.103 -0.4188 -0.2095  0.5859
  824MOL0     C13615   2.813  13.102  10.976 -0.1074 -0.5980 -0.3266
  824MOL0     C13616   2.845  13.228  10.884  0.6670 -0.1386 -0.0412
  824MOL0     C13617   2.931  13.339  10.951 -0.5181 -0.3388  0.6247
  824MOL0     C13618   2.987  13.429  10.835 -0.2008  0.5195  0.6988
  824MOL0    Cl13619   2.866  13.523  10.733 -0.3230 -0.4588  0.4160
  824MOL0     C13620   2.791  12.829  11.729 -0.8270 -0.0054 -1.0579
  824MOL0     C13621   2.819  12.732  11.825  0.2541  0.5088 -1.3956
  824MOL0     O13622   2.640  12.385  11.923 -0.4135 -0.1552 -0.9349
  824MOL0     C13623   2.765  12.230  12.105 -0.0760 -0.2026 -0.0360
  824MOL0     C13624   2.807  12.162  12.218 -0.2757  0.2145  0.1310
  824MOL0     N13625   3.171  11.537  12.446  0.3324  0.2609 -0.8292
  824MOL0     N13626   3.255  11.446  12.487 -0.1076 -1.2576 -0.8750
  824MOL0     C13627   3.685  10.790  11.513 -0.3298 -0.4166  0.2153
  824MOL0     C13628   3.723  10.748  11.388  0.5144  1.0228  0.0387
  824MOL0     C13629   3.839  10.743  10.961 -0.0510 -0.2647 -0.0843
  824MOL0     C13630   3.962  10.672  10.939  0.3513  0.3317  0.2520
  824MOL0     C13631   4.007  10.635  10.809  0.8691  0.1221 -0.3837
  824MOL0     C13632   3.923  10.645  10.703 -0.1119  1.2502  0.1490
  824MOL0     O13633   3.955  10.606  10.579  0.0055  0.1117 -0.1951
  824MOL0     C13634   4.058  10.503  10.561 -0.0782  0.2128 -0.4197
  824MOL0     C13635   4.020  10.404  10.457 -0.0207 -0.0328 -0.2890
  824MOL0     C13636   3.912  10.302  10.512  0.7936 -0.7763 -0.3311
  824MOL0     C13637   3.839  10.204  10.415 -0.6273 -0.1921  0.0918
  824MOL0     C13638   3.725  10.260  10.343 -0.3614  0.5580  0.4010
  824MOL0     C13639   3.641  10.318  10.283  0.0777 -0.3670 -0.1453
  824MOL0     C13640   3.801  10.704  10.720  0.3242 -0.9015  0.4680
  824MOL0     C13641   3.764  10.765  10.840 -0.2654  0.0636  0.1850
  824MOL0     C13642   3.635  10.840  10.856  0.3128  0.0149 -0.1065
  824MOL0     H13643   4.057  10.808  11.383  0.0127  0.0141 -0.1679
  824MOL0     H13644   4.017  10.863  11.616 -3.0588  0.2443  4.9273
  824MOL0     H13645   3.874  10.987  11.845  3.0127 -0.9578  3.5429
  824MOL0     H13646   3.926  10.813  11.830  0.3940  0.4880  4.5052
  824MOL0     H13647   3.725  10.745  11.953  2.7687 -0.4979 -1.2674
  824MOL0     H13648   3.823  10.850  12.046  1.7503  2.0619 -0.9142
  824MOL0     H13649   3.627  11.013  11.906 -1.5382  2.3560  3.1505
  824MOL0     H13650   3.546  10.877  11.992 -0.5246  1.0035  1.7357
  824MOL0     H13651   3.667  10.936  12.195 -1.9974 -1.8261 -0.0374
  824MOL0     H13652   3.744  11.066  12.106  0.7733 -0.0490  3.8756
  824MOL0     H13653   3.442  11.040  12.198 -1.2975  1.5967  0.0426
  824MOL0     H13654   3.472  11.141  12.062  0.7303 -0.5387  0.2603
  824MOL0     H13655   3.608  11.161  12.345 -1.6564  1.8708  0.8685
  824MOL0     H13656   3.626  11.273  12.202 -1.0330  0.1988 -1.1269
  824MOL0     H13657   3.356  11.224  12.321  0.0438 -0.8611  1.0430
  824MOL0     H13658   3.413  11.357  12.217  0.7964 -1.1419 -0.6729
  824MOL0     H13659   3.501  11.311  12.499  1.0313  1.6413 -0.3987
  824MOL0     H13660   3.569  11.437  12.402 -0.9928  2.3057 -1.0313
  824MOL0     H13661   3.455  11.661  12.345 -0.3671 -0.5209  0.6527
  824MOL0     H13662   3.157  11.752  12.227  2.8389 -0.5127 -1.0103
  824MOL0     H13663   3.276  11.840  12.309 -1.0939  1.0466 -2.2584
  824MOL0     H13664   3.005  11.772  12.429  0.3465 -0.0316 -2.0274
  824MOL0     H13665   3.141  11.842  12.523 -0.5315  1.4324  0.2226
  824MOL0     H13666   3.149  12.041  12.403  2.8341 -1.6540 -3.2322
  824MOL0     H13667   3.035  11.981  12.278  1.6762 -0.2946 -1.0468
  824MOL0     H13668   2.851  11.983  12.429  0.4728 -0.3188 -1.6805
  824MOL0     H13669   2.949  12.021  12.567 -1.5684 -2.8115 -0.7929
  824MOL0     H13670   2.977  12.429  12.351  1.4488 -0.6241 -1.4505
  824MOL0     H13671   2.825  12.628  12.108  0.1721  1.0676  1.1446
  824MOL0     H13672   2.990  12.600  12.079 -2.4516 -1.2399 -3.6753
  824MOL0     H13673   2.930  12.628  12.250 -1.7289  0.2566  0.8972
  824MOL0     H13674   2.682  12.464  11.681  0.8000 -0.5010 -0.4887
  824MOL0     H13675   2.598  12.656  11.522 -0.8254  1.9349  0.8223
  824MOL0     H13676   2.685  12.814  11.353 -0.7918  1.3952 -0.6397
  824MOL0     H13677   2.536  12.874  11.398  0.9687 -5.2941 -5.7114
  824MOL0     H13678   2.594  13.098  11.371  0.2352  0.5210  0.1537
  824MOL0     H13679   2.770  13.069  11.356  0.5360 -1.3018 -0.3146
  824MOL0     H13680   2.568  13.016  11.135 -0.5312  1.2738  0.3403
  824MOL0     H13681   2.728  12.936  11.147  0.5847  0.4116 -1.4507
  824MOL0     H13682   2.812  13.185  11.171 -0.3230 -0.5403  0.7031
  824MOL0     H13683   2.664  13.217  11.085  0.3133  0.3041 -0.4263
  824MOL0     H13684   2.905  13.059  11.017 -1.5436 -1.3093  2.4313
  824MOL0     H13685   2.770  13.019  10.920  0.3298  0.2572 -1.9807
  824MOL0     H13686   2.745  13.257  10.849 -0.8587 -2.9182  1.5788
  824MOL0     H13687   2.899  13.183  10.801 -0.1006  0.3941 -0.8527
  824MOL0     H13688   3.001  13.290  11.019 -0.5478 -1.9445 -0.4529
  824MOL0     H13689   2.863  13.404  11.007 -2.9537 -1.8974 -0.3824
  824MOL0     H13690   3.047  13.361  10.775  0.9423 -1.2234  3.5766
  824MOL0     H13691   3.057  13.497  10.885  1.3151  1.6561 -2.6628
  824MOL0     H13692   2.824  12.930  11.755 -0.3260  0.0214 -1.7715
  824MOL0     H13693   2.886  12.767  11.903  2.2948  0.5784 -3.0738
  824MOL0     H13694   2.710  12.166  12.036  0.3789 -0.6302 -0.0119
  824MOL0     H13695   2.788  12.057  12.238  2.0699 -0.2947  0.0058
  824MOL0     H13696   3.583  10.797  11.548 -0.0910 -0.1042  0.8671
  824MOL0     H13697   3.648  10.710  11.319  2.5743 -0.7974 -1.3499
  824MOL0     H13698   4.024  10.647  11.024  0.9117  2.7017  0.6083
  824MOL0     H13699   4.105  10.589  10.806  0.2674 -1.4538  1.7219
  824MOL0     H13700   4.151  10.551  10.529  0.6608 -1.1924 -0.4531
  824MOL0     H13701   4.078  10.449  10.654 -1.6238 -0.7099 -0.5935
  824MOL0     H13702   4.106  10.345  10.425  1.7064  2.7910 -1.2575
  824MOL0     H13703   3.997  10.446  10.359  1.1073 -1.1977 -1.0713
  824MOL0     H13704   3.944  10.254  10.605  1.2072 -2.2835 -1.2181
  824MOL0     H13705   3.827  10.363  10.544  0.8148 -1.4591  1.0688
  824MOL0     H13706   3.805  10.125  10.482 -1.2582 -0.8919 -1.0208
  824MOL0     H13707   3.902  10.155  10.340  1.0699  1.1802  0.5589
  824MOL0     H13708   3.568  10.363  10.219 -2.0428 -2.6635  0.5111
  824MOL0     H13709   3.727  10.711  10.641  1.4583  1.9990 -0.4484
  824MOL0     H13710   3.580  10.792  10.938  2.5101 -3.7160 -0.5945
  824MOL0     H13711   3.647  10.946  10.882  0.7593 -0.1965  0.5674
  824MOL0     H13712   3.574  10.834  10.766 -1.1169 -2.2334  0.9247
  825MOL0     O13713   7.418   1.532   2.119  0.3143 -0.3243 -0.4460
  825MOL0     C13714   7.385   1.553   2.239  0.4463  0.2859 -0.6987
  825MOL0     O13715   7.266   1.605   2.276 -0.0772  0.3874 -0.3155
  825MOL0     C13716   7.143   1.573   2.215 -0.2136  0.0653 -0.7040
  825MOL0     C13717   7.027   1.636   2.258 -0.2300 -0.1961  0.2220
  825MOL0     C13718   6.896   1.613   2.217  0.9416 -0.8603  0.1537
  825MOL0     C13719   6.883   1.523   2.101  0.1440 -0.0302  0.4290
  825MOL0     O13720   6.759   1.489   2.049  0.7571  0.4044 -0.1695
  825MOL0     C13721   6.727   1.354   2.028  0.6998 -0.6179 -0.8133
  825MOL0     C13722   6.576   1.334   2.011  0.2872  0.3437 -0.0081
  825MOL0     C13723   6.513   1.348   2.152  0.0129  0.0551 -0.2809
  825MOL0     C13724   6.359   1.307   2.164 -0.1819 -0.2169 -0.0009
  825MOL0     C13725   6.324   1.299   2.320 -0.0807  0.1712  0.7654
  825MOL0     C13726   6.179   1.262   2.335  0.9509  0.0566  0.7921
  825MOL0     C13727   6.148   1.218   2.478  0.3329 -0.0988  0.1604
  825MOL0     C13728   5.993   1.167   2.492  1.2485  1.0324  0.4830
  825MOL0     N13729   5.958   1.176   2.633  0.0658  0.0725 -0.0452
  825MOL0     C13730   5.996   1.092   2.739  0.4001  0.2280  0.6012
  825MOL0     C13731   5.923   1.132   2.851  0.2104  0.1471  0.3418
  825MOL0     C13732   5.932   1.086   2.996  0.1840  0.4344 -0.2749
  825MOL0     C13733   5.864   1.174   3.095 -0.3782  0.0638 -0.2348
  825MOL0     C13734   5.858   1.101   3.231  0.1890 -0.9322 -0.5621
  825MOL0     C13735   5.910   1.187   3.346  0.7253  0.0260  0.0371
  825MOL0     O13736   6.042   1.215   3.326 -0.4388 -0.2430  0.2292
  825MOL0     C13737   6.099   1.329   3.383 -0.0456 -1.4553 -0.1386
  825MOL0     C13738   6.040   1.456   3.365  0.3186  0.0166 -0.2519
  825MOL0     C13739   6.111   1.566   3.399  0.2844 -0.2564 -0.8425
  825MOL0     C13740   6.046   1.706   3.368  0.3300 -0.0341 -0.7682
  825MOL0     C13741   6.245   1.560   3.448 -0.5184 -0.7709 -0.3801
  825MOL0     C13742   6.342   1.671   3.463 -0.0411 -0.1545 -0.1224
  825MOL0     O13743   6.443   1.644   3.550 -0.3189 -0.4255  0.5907
  825MOL0     C13744   6.536   1.747   3.595 -0.3893 -0.6018  0.8123
  825MOL0     C13745   6.592   1.847   3.509 -0.3361 -0.6924 -0.1276
  825MOL0     C13746   6.666   1.965   3.553 -0.4461  0.2874  0.3472
  825MOL0     C13747   6.701   1.969   3.690 -0.1520  0.5618  0.7690
  825MOL0     O13748   6.782   2.073   3.718  0.3257  0.4960  0.4259
  825MOL0     C13749   6.805   2.114   3.859  0.8234  0.0684 -0.0114
  825MOL0     C13750   6.869   2.251   3.847 -0.0858 -0.2406 -0.1423
  825MOL0     C13751   6.922   2.309   3.983  0.8055 -0.4274  0.7397
  825MOL0     C13752   7.013   2.435   3.946  0.4819  0.4761  0.5636
  825MOL0     C13753   7.033   2.522   4.066  0.4417 -0.6977  0.6673
  825MOL0     C13754   7.149   2.622   4.058  0.3508  0.8712  0.0721
  825MOL0     C13755   7.138   2.747   3.968 -0.1368  0.3146  0.2307
  825MOL0     C13756   7.242   2.852   4.011  0.1511 -0.4078 -0.0860
  825MOL0    Cl13757   7.235   2.985   3.908  0.3184 -0.1238  0.4792
  825MOL0     C13758   6.642   1.874   3.778  0.3341  1.1856  0.2223
  825MOL0     C13759   6.565   1.767   3.726 -0.1341  0.5849  0.4202
  825MOL0     O13760   6.317   1.786   3.421  0.0328  0.5859  0.6803
  825MOL0     C13761   6.305   1.437   3.470 -1.2162  0.6260  0.2642
  825MOL0     C13762   6.232   1.318   3.439  0.2882 -0.1761 -0.1202
  825MOL0     N13763   5.845   1.237   2.805  0.4503  0.2157  0.3826
  825MOL0     N13764   5.875   1.268   2.683  0.4211 -0.7459  0.5195
  825MOL0     C13765   6.993   1.462   2.044 -0.3251 -0.5029 -0.8253
  825MOL0     C13766   7.122   1.478   2.108  0.7747 -1.4820  0.0813
  825MOL0     C13767   7.493   1.556   2.343  0.1043  0.6099  0.6054
  825MOL0     C13768   7.468   1.627   2.461 -0.1597  0.2961 -0.3526
  825MOL0     C13769   7.562   1.642   2.574  0.3842 -0.2001 -0.2331
  825MOL0     C13770   7.678   1.574   2.555  1.2079  0.6111 -0.2970
  825MOL0     O13771   7.771   1.586   2.661  0.6577 -0.5609  0.0914
  825MOL0     C13772   7.870   1.689   2.657  0.1682 -0.5796 -0.6685
  825MOL0     C13773   7.903   1.735   2.803  0.0740  0.3513  0.4747
  825MOL0     C13774   8.009   1.852   2.820  1.4223  0.5205 -0.4828
  825MOL0     C13775   8.009   1.897   2.966  0.2477  0.1550 -0.5589
  825MOL0     C13776   8.061   1.788   3.052  0.4127 -0.2572 -1.1575
  825MOL0     C13777   8.112   1.694   3.117 -0.4302  0.4025  0.1999
  825MOL0     C13778   7.704   1.507   2.433  0.3871 -0.5087  0.5651
  825MOL0     C13779   7.620   1.489   2.327  0.6268 -0.4314 -0.9849
  825MOL0     C13780   7.649   1.402   2.211  0.2083  0.2478 -0.0966
  825MOL0     H13781   7.031   1.713   2.335 -0.0037  1.4256 -1.3401
  825MOL0     H13782   6.809   1.662   2.260  1.6558 -0.6968  1.4499
  825MOL0     H13783   6.751   1.288   2.111 -3.0746 -0.8088  0.3088
  825MOL0     H13784   6.785   1.309   1.947  2.6481 -1.1960  0.8265
  825MOL0     H13785   6.530   1.405   1.942  2.4499 -0.3173 -2.2640
  825MOL0     H13786   6.550   1.240   1.961  0.6325  1.2186 -1.9053
  825MOL0     H13787   6.573   1.289   2.222  1.0044 -1.4237 -2.2706
  825MOL0     H13788   6.514   1.451   2.188 -1.3153  0.4523 -1.3044
  825MOL0     H13789   6.291   1.375   2.112  1.9424  3.0118  1.1050
  825MOL0     H13790   6.351   1.203   2.130  0.6399  0.3986 -2.2485
  825MOL0     H13791   6.329   1.402   2.356 -3.8178  1.8206 -2.6518
  825MOL0     H13792   6.389   1.229   2.373  2.0237 -0.0760 -1.9380
  825MOL0     H13793   6.122   1.346   2.295  3.7942  2.2625  1.0104
  825MOL0     H13794   6.160   1.174   2.273 -3.1098  2.2185 -1.4649
  825MOL0     H13795   6.157   1.310   2.537  0.0912 -0.7306  1.1910
  825MOL0     H13796   6.224   1.150   2.518  0.4415  0.0115  0.1442
  825MOL0     H13797   5.925   1.212   2.420  0.0602  0.2364  1.0788
  825MOL0     H13798   5.989   1.059   2.478  0.3095  1.0473  0.5841
  825MOL0     H13799   6.067   1.010   2.727 -1.2737 -1.2260  0.3401
  825MOL0     H13800   6.032   1.054   3.028 -0.3975 -2.2913 -0.9383
  825MOL0     H13801   5.876   0.994   3.015  0.8146  0.8586  5.1430
  825MOL0     H13802   5.921   1.268   3.100  0.8375 -0.6105 -0.8765
  825MOL0     H13803   5.760   1.194   3.067 -0.4539 -0.4078 -0.3055
  825MOL0     H13804   5.749   1.088   3.238 -0.0427  0.6910 -0.8605
  825MOL0     H13805   5.908   1.004   3.226 -2.0314 -2.0619 -3.1381
  825MOL0     H13806   5.849   1.277   3.336 -1.2179 -1.3121 -0.7614
  825MOL0     H13807   5.876   1.167   3.448 -2.1083  3.0311 -0.1381
  825MOL0     H13808   5.945   1.470   3.315  0.9017  1.0632 -1.1005
  825MOL0     H13809   5.938   1.692   3.359 -0.0772  2.2170  0.1325
  825MOL0     H13810   6.067   1.731   3.264 -1.2883 -0.2149 -1.1615
  825MOL0     H13811   6.068   1.789   3.436  0.9213 -1.2421  0.5912
  825MOL0     H13812   6.583   1.848   3.401  3.7227  1.4185 -0.6656
  825MOL0     H13813   6.723   2.031   3.488 -0.2578  0.1092  0.3304
  825MOL0     H13814   6.710   2.109   3.913  0.0499 -0.9029 -1.3809
  825MOL0     H13815   6.872   2.043   3.908 -0.6654 -0.5719  1.1844
  825MOL0     H13816   6.949   2.260   3.773 -0.4285  2.1843 -0.2943
  825MOL0     H13817   6.794   2.321   3.808 -1.3875 -2.7636 -2.4440
  825MOL0     H13818   6.985   2.233   4.030  1.1680 -0.7899 -0.3168
  825MOL0     H13819   6.830   2.336   4.035 -1.0590  0.9674 -2.9227
  825MOL0     H13820   6.973   2.496   3.864 -0.1143  1.3467  1.4783
  825MOL0     H13821   7.108   2.390   3.917  0.2377 -1.8129  2.8944
  825MOL0     H13822   6.946   2.573   4.108 -0.5157 -3.3040  2.0866
  825MOL0     H13823   7.062   2.461   4.152  2.8653  1.4167  1.4769
  825MOL0     H13824   7.232   2.558   4.026 -1.6311 -1.2475 -1.1664
  825MOL0     H13825   7.169   2.649   4.162  0.7046  0.7190  0.0442
  825MOL0     H13826   7.037   2.789   3.959 -0.0433  0.6397  0.6564
  825MOL0     H13827   7.171   2.717   3.869  0.8724  0.3910  0.5364
  825MOL0     H13828   7.343   2.813   4.024  0.5928  0.8558  0.4317
  825MOL0     H13829   7.207   2.900   4.103  1.6025  1.2915 -0.3666
  825MOL0     H13830   6.667   1.886   3.883  0.4197  0.9906  0.2246
  825MOL0     H13831   6.532   1.691   3.796  4.4004 -1.1283  1.0189
  825MOL0     H13832   6.410   1.429   3.498 -0.7385  3.5324 -0.4425
  825MOL0     H13833   6.285   1.224   3.447 -0.4042 -0.5771 -0.1355
  825MOL0     H13834   6.991   1.378   1.975 -0.3498  0.1251 -1.6055
  825MOL0     H13835   7.210   1.443   2.055  0.6800  0.9177 -1.8821
  825MOL0     H13836   7.373   1.678   2.477 -0.7925 -1.6879  3.0491
  825MOL0     H13837   7.535   1.704   2.659  1.8931 -0.9215  0.8282
  825MOL0     H13838   7.958   1.642   2.613 -0.1540 -4.0577  2.0264
  825MOL0     H13839   7.834   1.772   2.595 -0.2025  0.0189  0.3206
  825MOL0     H13840   7.936   1.656   2.872 -0.6891  2.3547  3.3020
  825MOL0     H13841   7.805   1.769   2.840 -1.7270 -1.1360 -2.5127
  825MOL0     H13842   8.106   1.815   2.786 -0.2504 -2.6505 -2.2583
  825MOL0     H13843   7.971   1.936   2.761 -0.7140  0.8843  1.2738
  825MOL0     H13844   7.906   1.925   2.993 -0.4314 -1.2492 -1.5696
  825MOL0     H13845   8.064   1.990   2.983  3.0182 -1.0243 -2.4605
  825MOL0     H13846   8.162   1.616   3.172  1.0219 -0.7159 -2.5234
  825MOL0     H13847   7.808   1.481   2.422  0.6656  1.6540 -3.6314
  825MOL0     H13848   7.685   1.459   2.125  0.0810 -0.3291 -0.5360
  825MOL0     H13849   7.729   1.331   2.234 -0.6338 -1.8282 -2.9285
  825MOL0     H13850   7.568   1.339   2.174  0.7956  0.1907 -1.3373
  826MOL0     O13851  10.450   2.442   9.332 -0.4029 -0.6278 -0.3824
  826MOL0     C13852  10.374   2.369   9.401 -0.3407  0.1798 -0.3279
  826MOL0     O13853  10.248   2.344   9.367  0.0168  0.3620  0.1855
  826MOL0     C13854  10.194   2.427   9.271 -0.0005  1.1504 -1.3142
  826MOL0     C13855  10.089   2.514   9.297 -0.6778  0.2453 -0.4418
  826MOL0     C13856  10.037   2.595   9.202  0.3519  0.4715  0.2290
  826MOL0     C13857  10.077   2.577   9.065 -0.0712  0.0190 -0.3303
  826MOL0     O13858  10.033   2.646   8.957  0.2615  0.8445 -0.6727
  826MOL0     C13859   9.886   2.640   8.949 -0.2031 -0.0922 -0.0134
  826MOL0     C13860   9.860   2.707   8.812  0.6817 -0.3294  0.0207
  826MOL0     C13861   9.884   2.614   8.696  0.3516  0.0473  0.2282
  826MOL0     C13862  10.027   2.621   8.640 -0.5010  0.8751 -0.4381
  826MOL0     C13863  10.056   2.537   8.519 -0.4796  0.7317  0.0016
  826MOL0     C13864  10.205   2.508   8.494 -0.6419 -1.4049 -0.0156
  826MOL0     C13865  10.217   2.426   8.368 -0.7932  0.1866  0.2874
  826MOL0     C13866  10.346   2.331   8.362  0.1733 -0.3204 -0.2589
  826MOL0     N13867  10.343   2.275   8.235 -0.9083  0.6978  0.2236
  826MOL0     C13868  10.270   2.160   8.205 -0.6627 -0.1569 -1.1281
  826MOL0     C13869  10.326   2.118   8.091  0.4241 -0.7045 -0.6199
  826MOL0     C13870  10.290   1.992   8.015  0.0968  0.9865 -0.1948
  826MOL0     C13871  10.392   1.880   8.038 -0.1597  0.0884  0.5536
  826MOL0     C13872  10.519   1.913   7.958  0.3308 -0.3329  0.0297
  826MOL0     C13873  10.619   1.802   7.952 -0.1009 -0.8245  0.1164
  826MOL0     O13874  10.620   1.732   8.079 -1.2691 -0.1859 -0.2062
  826MOL0     C13875  10.667   1.602   8.084 -1.6580  0.1638  0.7183
  826MOL0     C13876  10.685   1.553   8.214 -0.0343  0.3574  0.5561
  826MOL0     C13877  10.717   1.417   8.243  1.3211  0.5330 -0.4349
  826MOL0     C13878  10.721   1.387   8.390 -0.4287 -0.3945 -0.3160
  826MOL0     C13879  10.753   1.326   8.145 -0.7880 -1.0074 -0.4594
  826MOL0     C13880  10.809   1.196   8.168 -0.3853 -0.5253 -1.0290
  826MOL0     O13881  10.836   1.157   8.301 -0.1010 -0.5834  0.6973
  826MOL0     C13882  10.905   1.046   8.335 -0.6493 -0.4218 -0.1039
  826MOL0     C13883  10.905   0.923   8.270  0.3346 -0.6734 -0.4820
  826MOL0     C13884  10.951   0.806   8.320  0.1511  0.4596  0.7583
  826MOL0     C13885  11.011   0.808   8.445 -0.0335 -0.4830  0.2329
  826MOL0     O13886  11.058   0.695   8.488 -0.1524  0.5536 -0.1966
  826MOL0     C13887  11.192   0.688   8.541 -0.0792  0.9321  0.6645
  826MOL0     C13888  11.251   0.548   8.529 -0.1979  0.7913  0.4171
  826MOL0     C13889  11.296   0.537   8.385  0.2382 -0.4427 -0.3451
  826MOL0     C13890  11.350   0.398   8.370 -0.0044 -0.4230 -0.3834
  826MOL0     C13891  11.231   0.295   8.353  0.3645 -1.3260  0.0246
  826MOL0     C13892  11.262   0.170   8.280  0.2746 -0.9893 -0.9545
  826MOL0     C13893  11.373   0.089   8.339  0.5269 -0.0024  0.8135
  826MOL0     C13894  11.356   0.036   8.483 -0.4633  0.1532  0.0068
  826MOL0    Cl13895  11.211  -0.065   8.475  0.2589 -0.3830  0.4514
  826MOL0     C13896  11.028   0.930   8.516 -1.0971  0.7411 -0.3773
  826MOL0     C13897  10.967   1.042   8.463 -0.3384 -1.3145  0.3320
  826MOL0     O13898  10.818   1.122   8.064  0.2533  0.5765 -0.4154
  826MOL0     C13899  10.732   1.381   8.012 -0.0172  0.6548 -0.5102
  826MOL0     C13900  10.696   1.514   7.977 -0.1941 -0.9850  0.2057
  826MOL0     N13901  10.426   2.212   8.054  0.5372  0.1405  0.5186
  826MOL0     N13902  10.434   2.305   8.141  0.1191 -0.4892  0.1874
  826MOL0     C13903  10.176   2.483   9.043 -0.0710  0.1111  0.6809
  826MOL0     C13904  10.233   2.408   9.138  0.0472 -0.1007  0.5109
  826MOL0     C13905  10.424   2.293   9.519 -1.1904  0.3189  0.1407
  826MOL0     C13906  10.354   2.180   9.561 -0.6028 -0.3356 -0.6377
  826MOL0     C13907  10.394   2.111   9.680  0.4530 -0.5824  0.2853
  826MOL0     C13908  10.494   2.156   9.756 -0.1278 -0.0290  0.0153
  826MOL0     O13909  10.521   2.074   9.867 -0.1958 -0.0186 -0.5052
  826MOL0     C13910  10.646   2.087   9.934 -0.7031  0.8215  0.1625
  826MOL0     C13911  10.655   1.979  10.045  0.0188 -0.0114  0.0311
  826MOL0     C13912  10.704   1.854   9.987 -0.9339  0.0285  0.9693
  826MOL0     C13913  10.701   1.752  10.094  0.0359  1.3138 -0.8228
  826MOL0     C13914  10.824   1.756  10.183 -0.1598  0.2697 -0.4771
  826MOL0     C13915  10.927   1.757  10.245 -0.9588 -0.4176 -0.8827
  826MOL0     C13916  10.571   2.265   9.710  0.3774 -0.0295  0.1826
  826MOL0     C13917  10.539   2.343   9.598  0.3619 -0.0779  0.6993
  826MOL0     C13918  10.626   2.461   9.564 -0.1210  0.3676  0.2287
  826MOL0     H13919  10.073   2.538   9.402 -1.7044  3.1871 -1.1740
  826MOL0     H13920   9.973   2.678   9.230 -0.2097  0.5115 -1.0809
  826MOL0     H13921   9.836   2.712   9.013 -1.4297 -0.9211 -0.0059
  826MOL0     H13922   9.843   2.541   8.964 -0.6742  0.1958  0.5443
  826MOL0     H13923   9.755   2.733   8.797  0.8366  1.0168  1.0781
  826MOL0     H13924   9.913   2.803   8.806 -1.0390  0.5919 -1.5942
  826MOL0     H13925   9.855   2.513   8.727 -0.2546  0.8880  2.5973
  826MOL0     H13926   9.827   2.639   8.605  1.9726 -1.5578 -1.3159
  826MOL0     H13927  10.048   2.729   8.631 -0.8618  0.9514 -0.3717
  826MOL0     H13928  10.085   2.585   8.726 -2.1177 -1.0802 -0.1094
  826MOL0     H13929  10.015   2.588   8.431 -1.2723  4.1088  2.1297
  826MOL0     H13930  10.007   2.440   8.534  1.2105 -0.3946 -1.3683
  826MOL0     H13931  10.262   2.601   8.486 -4.4287  1.0608 -0.9289
  826MOL0     H13932  10.242   2.444   8.574 -0.1253 -2.3472 -0.9875
  826MOL0     H13933  10.209   2.501   8.289 -0.8751 -0.2728 -0.1440
  826MOL0     H13934  10.132   2.358   8.368 -1.6305  1.1922  0.9577
  826MOL0     H13935  10.442   2.381   8.378  0.9961 -2.0598  0.5728
  826MOL0     H13936  10.333   2.253   8.438  0.1875  0.2019  0.2946
  826MOL0     H13937  10.201   2.109   8.271  0.7986  0.1294  0.7187
  826MOL0     H13938  10.288   2.006   7.907 -0.6432 -0.3772 -0.3725
  826MOL0     H13939  10.193   1.952   8.044 -1.0906  2.2585 -2.1965
  826MOL0     H13940  10.410   1.875   8.146  1.4901 -2.5159  0.2547
  826MOL0     H13941  10.332   1.795   8.003 -1.8860  2.2837 -2.3170
  826MOL0     H13942  10.496   1.947   7.856 -0.7356 -1.2830 -0.0703
  826MOL0     H13943  10.559   1.994   8.019 -1.7622  1.5677 -0.9396
  826MOL0     H13944  10.593   1.739   7.866  1.0283 -3.1538  1.4190
  826MOL0     H13945  10.718   1.849   7.949 -0.1633 -0.3370  3.1791
  826MOL0     H13946  10.645   1.614   8.294 -3.8964  2.9906 -2.9342
  826MOL0     H13947  10.822   1.374   8.431  0.1360 -1.5761 -2.0001
  826MOL0     H13948  10.658   1.301   8.410  0.9358 -1.8826 -2.0743
  826MOL0     H13949  10.672   1.466   8.448 -1.3631 -1.3262  0.1706
  826MOL0     H13950  10.862   0.899   8.173  0.8434 -5.7778  0.2772
  826MOL0     H13951  10.941   0.713   8.265  0.5354 -0.3549  2.0231
  826MOL0     H13952  11.249   0.756   8.477 -3.5198  2.6552 -0.8257
  826MOL0     H13953  11.187   0.712   8.647 -0.7249  1.0731  0.6017
  826MOL0     H13954  11.337   0.529   8.594 -0.5832 -1.4516  0.3577
  826MOL0     H13955  11.173   0.473   8.545  1.8019 -2.1049 -2.3081
  826MOL0     H13956  11.382   0.604   8.375 -0.0721  0.6817  3.1265
  826MOL0     H13957  11.231   0.561   8.301  0.3453  1.3811  0.0471
  826MOL0     H13958  11.412   0.366   8.455 -0.6754 -1.1078 -0.1389
  826MOL0     H13959  11.403   0.400   8.275 -0.2557 -1.9255 -0.5847
  826MOL0     H13960  11.199   0.273   8.455  0.4674  0.4950  0.4955
  826MOL0     H13961  11.144   0.343   8.307 -0.2410  1.0128  3.2588
  826MOL0     H13962  11.288   0.210   8.182 -2.0878  0.8808 -0.9228
  826MOL0     H13963  11.165   0.122   8.263 -2.0125  2.9512 -0.2763
  826MOL0     H13964  11.464   0.150   8.341 -0.9004  2.4032  4.9281
  826MOL0     H13965  11.387   0.000   8.277 -0.3129 -2.1789  3.5297
  826MOL0     H13966  11.335   0.114   8.557 -2.7514  1.0517 -1.4845
  826MOL0     H13967  11.444  -0.021   8.514 -1.5713 -1.1681  0.7979
  826MOL0     H13968  11.092   0.935   8.604 -1.3986  1.9156 -0.2132
  826MOL0     H13969  10.979   1.139   8.512 -2.9253 -0.5931 -0.3383
  826MOL0     H13970  10.746   1.302   7.938  1.3283  2.0125 -1.7652
  826MOL0     H13971  10.688   1.551   7.875 -0.5046 -2.8598 -0.4865
  826MOL0     H13972  10.204   2.466   8.939 -2.3237  1.4046 -0.2168
  826MOL0     H13973  10.313   2.340   9.111  1.3147  1.4865  0.0638
  826MOL0     H13974  10.275   2.135   9.502 -2.7718  1.6964  0.5277
  826MOL0     H13975  10.352   2.018   9.718  0.7094 -0.7734  0.1082
  826MOL0     H13976  10.737   2.082   9.873  0.6939 -4.8681  2.0690
  826MOL0     H13977  10.642   2.177   9.995 -0.4150  0.5497  0.5898
  826MOL0     H13978  10.556   1.951  10.082  0.3121 -2.2809 -0.7737
  826MOL0     H13979  10.712   2.021  10.129  2.6945 -0.3165 -1.5361
  826MOL0     H13980  10.624   1.818   9.921 -2.1738  0.8044  2.0046
  826MOL0     H13981  10.806   1.865   9.949  0.5307  1.2377  4.7910
  826MOL0     H13982  10.703   1.654  10.046  0.4544 -0.0945  1.8854
  826MOL0     H13983  10.610   1.758  10.154  0.9307  0.4065  0.6762
  826MOL0     H13984  11.018   1.752  10.301 -1.2522  0.5204 -0.2889
  826MOL0     H13985  10.662   2.291   9.764  0.6096 -0.6057  0.0801
  826MOL0     H13986  10.659   2.443   9.461 -0.5018  1.9745 -0.2072
  826MOL0     H13987  10.565   2.551   9.577 -4.7243 -2.6474  2.2153
  826MOL0     H13988  10.714   2.461   9.628 -0.1852  0.0273  0.3185
  827MOL0     O13989   1.834   6.646  10.728 -0.4580 -0.2191 -0.1654
  827MOL0     C13990   1.773   6.641  10.837 -0.3734 -0.7385  0.0141
  827MOL0     O13991   1.640   6.642  10.843  0.8323 -0.0792  0.1743
  827MOL0     C13992   1.558   6.622  10.736  0.3484 -0.3360 -0.1728
  827MOL0     C13993   1.591   6.547  10.628  0.1632  0.2077  0.5240
  827MOL0     C13994   1.498   6.530  10.528 -0.7951 -1.0723 -0.1334
  827MOL0     C13995   1.373   6.594  10.528  0.0311  0.7551 -0.2498
  827MOL0     O13996   1.276   6.577  10.426 -0.3842 -0.6512 -0.6044
  827MOL0     C13997   1.290   6.475  10.321 -0.1508  0.7914 -0.6393
  827MOL0     C13998   1.169   6.467  10.225 -0.2405  0.0543 -0.2092
  827MOL0     C13999   1.077   6.590  10.211 -0.8413 -0.3172 -0.7093
  827MOL0     C14000   0.986   6.589  10.085  0.1296  1.0473  0.8458
  827MOL0     C14001   0.900   6.712  10.094  0.4658  0.6110  0.0180
  827MOL0     C14002   0.797   6.687   9.981  0.0264 -0.2728 -0.4441
  827MOL0     C14003   0.672   6.772   9.991  0.4481  0.6001 -0.8193
  827MOL0     C14004   0.571   6.713  10.088  0.4576 -0.0038 -0.4456
  827MOL0     N14005   0.516   6.603  10.007 -1.3606  0.1205 -0.4895
  827MOL0     C14006   0.425   6.613   9.905  0.2389 -0.2408 -0.3958
  827MOL0     C14007   0.389   6.492   9.879 -0.0599 -0.3590  0.5040
  827MOL0     C14008   0.282   6.434   9.786  0.3762  0.0263 -0.1667
  827MOL0     C14009   0.288   6.503   9.648 -0.4854 -0.1699 -0.2157
  827MOL0     C14010   0.180   6.433   9.554  0.1105  0.6351  0.3440
  827MOL0     C14011   0.229   6.293   9.509  0.9752  0.0091 -0.6123
  827MOL0     O14012   0.358   6.299   9.451  0.1501  0.6824  0.5579
  827MOL0     C14013   0.412   6.179   9.403  0.1873 -0.0306  0.4289
  827MOL0     C14014   0.494   6.183   9.291  0.4018 -0.4760  0.1869
  827MOL0     C14015   0.559   6.071   9.252 -1.7020 -0.1043 -0.1385
  827MOL0     C14016   0.645   6.087   9.126  0.1328  0.5645  0.4290
  827MOL0     C14017   0.558   5.950   9.330 -0.7187  0.5568  0.5460
  827MOL0     C14018   0.628   5.827   9.298  0.3211 -0.4730 -0.5170
  827MOL0     O14019   0.648   5.746   9.398  0.2938  0.4083  0.6203
  827MOL0     C14020   0.703   5.620   9.385  0.2799  0.1602 -1.1533
  827MOL0     C14021   0.634   5.503   9.365  0.8972 -0.3391 -0.5168
  827MOL0     C14022   0.695   5.379   9.364 -0.1912  0.6041 -0.2023
  827MOL0     C14023   0.834   5.371   9.381  0.4613  0.0646 -0.0871
  827MOL0     O14024   0.882   5.242   9.392 -0.2141 -0.1406 -0.0883
  827MOL0     C14025   1.025   5.202   9.400 -0.9858  0.3792  0.3327
  827MOL0     C14026   1.024   5.044   9.407 -0.0948 -1.1894  0.1154
  827MOL0     C14027   1.163   4.986   9.428 -0.9199 -0.4346  0.3652
  827MOL0     C14028   1.135   4.841   9.395  0.5486  0.3516 -0.3407
  827MOL0     C14029   1.252   4.762   9.452  0.7935  0.3794  0.3580
  827MOL0     C14030   1.260   4.613   9.422  0.6917 -0.4572 -0.4111
  827MOL0     C14031   1.400   4.574   9.480  0.5070 -0.1446 -0.6170
  827MOL0     C14032   1.438   4.431   9.433 -0.0225  0.5141 -0.3761
  827MOL0    Cl14033   1.548   4.446   9.289 -0.4299 -0.2585 -0.1036
  827MOL0     C14034   0.907   5.487   9.407  0.4200 -0.5645 -0.5483
  827MOL0     C14035   0.841   5.612   9.415  0.2533 -0.5028 -0.2369
  827MOL0     O14036   0.651   5.798   9.182 -0.1728  0.9412  0.6254
  827MOL0     C14037   0.472   5.946   9.442  0.6630 -0.6583  0.2589
  827MOL0     C14038   0.402   6.059   9.473 -0.3920  0.1876 -0.8226
  827MOL0     N14039   0.452   6.411   9.969  0.6069 -0.0542  0.4889
  827MOL0     N14040   0.535   6.469  10.041  0.1881 -1.0144 -0.0214
  827MOL0     C14041   1.337   6.663  10.650 -0.0663  0.4798  0.7878
  827MOL0     C14042   1.433   6.678  10.753  0.2065 -0.1854 -0.3284
  827MOL0     C14043   1.850   6.634  10.965 -0.2772 -0.6635 -0.2998
  827MOL0     C14044   1.782   6.666  11.087 -0.0380 -0.6765 -0.3968
  827MOL0     C14045   1.849   6.694  11.201  0.6895 -1.6126  0.1098
  827MOL0     C14046   1.981   6.664  11.207  1.2770 -0.2185  0.6968
  827MOL0     O14047   2.066   6.684  11.314 -0.3892  0.5096 -0.1221
  827MOL0     C14048   1.992   6.699  11.437  0.0998  0.2861 -0.8131
  827MOL0     C14049   1.995   6.849  11.458  0.2391  0.3708  0.7086
  827MOL0     C14050   2.134   6.907  11.491 -0.1949  0.3612 -0.0602
  827MOL0     C14051   2.128   7.061  11.497 -0.6791  0.1852 -0.1873
  827MOL0     C14052   2.049   7.103  11.609  0.3508 -0.5454 -0.8630
  827MOL0     C14053   1.999   7.103  11.720 -0.1309 -0.2457  0.2010
  827MOL0     C14054   2.052   6.627  11.093 -0.3944 -0.1669 -0.6023
  827MOL0     C14055   1.989   6.613  10.977 -0.0922 -0.0883  0.6337
  827MOL0     C14056   2.086   6.569  10.856  0.2336  0.0432 -0.1022
  827MOL0     H14057   1.685   6.494  10.630  1.2142  2.0267  1.3848
  827MOL0     H14058   1.522   6.458  10.451  0.3214 -0.6744 -0.1772
  827MOL0     H14059   1.309   6.374  10.359  1.0662  0.7609 -1.2887
  827MOL0     H14060   1.377   6.502  10.261 -1.1379 -0.2135 -2.6564
  827MOL0     H14061   1.203   6.429  10.128  1.6632 -0.8023  0.7532
  827MOL0     H14062   1.106   6.386  10.264  2.0047 -2.2069 -0.9708
  827MOL0     H14063   1.008   6.596  10.296 -1.5773 -1.7654 -1.1671
  827MOL0     H14064   1.141   6.679  10.210  3.2197 -2.9890 -1.9439
  827MOL0     H14065   1.037   6.579   9.989 -0.0285 -2.0964  0.9850
  827MOL0     H14066   0.922   6.500  10.094 -0.5797  1.6779  2.4675
  827MOL0     H14067   0.959   6.803  10.079  0.7529  0.4630  0.2446
  827MOL0     H14068   0.850   6.731  10.189 -0.9340 -0.9426 -0.3536
  827MOL0     H14069   0.845   6.709   9.885 -2.0440  1.2742 -1.2072
  827MOL0     H14070   0.766   6.582   9.973 -2.0969  0.3680 -1.3780
  827MOL0     H14071   0.622   6.779   9.893 -0.2059  3.0470 -0.3904
  827MOL0     H14072   0.709   6.871  10.018  1.4314  0.7986 -2.6903
  827MOL0     H14073   0.622   6.677  10.178  1.6426  2.0923 -0.2329
  827MOL0     H14074   0.499   6.787  10.125  1.0649 -0.2074  1.2321
  827MOL0     H14075   0.391   6.705   9.858  0.7632  0.3376  0.3394
  827MOL0     H14076   0.183   6.465   9.820  0.1721  2.1545 -2.3930
  827MOL0     H14077   0.286   6.325   9.785  4.0498  0.0102 -0.2005
  827MOL0     H14078   0.254   6.606   9.657  2.6217  0.8357  1.4801
  827MOL0     H14079   0.387   6.506   9.602 -0.3082  0.3561  0.1982
  827MOL0     H14080   0.082   6.422   9.602  1.1567  2.3262  3.1275
  827MOL0     H14081   0.165   6.490   9.462  2.5154 -0.6228 -0.9354
  827MOL0     H14082   0.234   6.234   9.601  2.9579  0.9541 -0.0626
  827MOL0     H14083   0.150   6.249   9.446 -0.8317  1.8852  0.1986
  827MOL0     H14084   0.509   6.272   9.230  3.8898 -1.3129 -0.3969
  827MOL0     H14085   0.632   6.013   9.046 -1.2320  2.1711 -0.9249
  827MOL0     H14086   0.751   6.086   9.151 -0.5168 -1.1418  3.6574
  827MOL0     H14087   0.614   6.182   9.081  0.8504  0.8410  0.5142
  827MOL0     H14088   0.530   5.527   9.344 -0.0689 -1.9179  2.0026
  827MOL0     H14089   0.647   5.283   9.347  0.0774  0.0802  1.7197
  827MOL0     H14090   1.076   5.239   9.310 -2.2593  1.9072  0.2152
  827MOL0     H14091   1.072   5.254   9.483  0.4561  2.8425 -1.8620
  827MOL0     H14092   0.957   5.022   9.491 -0.5971  1.7330  0.5911
  827MOL0     H14093   0.987   5.020   9.307  4.4452  0.3894 -2.2397
  827MOL0     H14094   1.203   5.002   9.529  0.9409 -1.2330 -0.2026
  827MOL0     H14095   1.225   5.036   9.353 -2.2005  0.8670  0.1353
  827MOL0     H14096   1.129   4.821   9.288  3.1702  2.3893 -0.9644
  827MOL0     H14097   1.043   4.814   9.450 -0.6286  0.3540 -2.2210
  827MOL0     H14098   1.342   4.803   9.406  0.9095 -1.3760 -1.0786
  827MOL0     H14099   1.247   4.770   9.561 -3.0084  2.2872  0.2410
  827MOL0     H14100   1.248   4.596   9.315  0.1885 -0.2448 -0.3900
  827MOL0     H14101   1.182   4.554   9.472 -1.2117  2.7026  0.6660
  827MOL0     H14102   1.398   4.568   9.589  0.2905  0.2946 -0.5939
  827MOL0     H14103   1.477   4.644   9.446  0.1264 -1.1870 -3.9044
  827MOL0     H14104   1.355   4.362   9.416 -0.3322  0.4152  1.3247
  827MOL0     H14105   1.495   4.391   9.517 -0.2230 -2.8231 -1.6464
  827MOL0     H14106   1.006   5.481   9.450 -0.0511  1.8303  1.0455
  827MOL0     H14107   0.892   5.706   9.434 -3.4271  1.7390 -0.5908
  827MOL0     H14108   0.463   5.859   9.507 -1.9294  0.0104  0.8871
  827MOL0     H14109   0.350   6.049   9.568  0.4532 -0.4933 -0.4255
  827MOL0     H14110   1.239   6.708  10.663 -0.6635 -0.7098  0.5889
  827MOL0     H14111   1.426   6.750  10.835 -0.4557  2.0440 -2.2233
  827MOL0     H14112   1.674   6.671  11.080 -0.0037 -1.5960 -1.7947
  827MOL0     H14113   1.796   6.721  11.291  2.5788  0.0185  0.8008
  827MOL0     H14114   1.889   6.663  11.441 -0.2135  1.2559  1.7679
  827MOL0     H14115   2.024   6.645  11.527 -1.1633 -2.3088 -1.7964
  827MOL0     H14116   1.913   6.884  11.522  0.6519  1.7455  0.5051
  827MOL0     H14117   1.969   6.883  11.358 -0.1891  2.8905  1.5830
  827MOL0     H14118   2.174   6.872  11.587  1.4474  2.6716  0.1713
  827MOL0     H14119   2.197   6.886  11.404 -1.9970 -1.1194 -1.0717
  827MOL0     H14120   2.075   7.104  11.412  0.0941  4.4151  1.2481
  827MOL0     H14121   2.227   7.108  11.498  2.2974 -5.2669  0.0386
  827MOL0     H14122   1.957   7.105  11.818 -0.0082  1.7264  0.2516
  827MOL0     H14123   2.157   6.600  11.095  0.0458  1.4691 -0.2002
  827MOL0     H14124   2.093   6.657  10.792  2.4338  0.7561  1.0139
  827MOL0     H14125   2.188   6.545  10.888 -0.2158 -0.2550  1.1827
  827MOL0     H14126   2.051   6.481  10.801  0.9074  0.1293 -0.6826
  828MOL0     O14127   0.817   9.733   1.264  0.5255 -0.3007 -0.2925
  828MOL0     C14128   0.864   9.740   1.378  0.3667 -0.1406  0.1608
  828MOL0     O14129   0.927   9.850   1.432 -0.0455 -0.2263  0.4806
  828MOL0     C14130   0.898   9.970   1.385  0.7319 -0.9188 -0.3512
  828MOL0     C14131   0.847  10.063   1.480 -1.0517 -0.1624 -0.3586
  828MOL0     C14132   0.807  10.188   1.429  0.1789  0.0889 -0.3721
  828MOL0     C14133   0.802  10.205   1.286 -0.1060 -0.5124  0.3098
  828MOL0     O14134   0.754  10.328   1.240 -0.5365  0.8211 -0.0600
  828MOL0     C14135   0.633  10.332   1.169 -0.3197 -0.0732  0.4116
  828MOL0     C14136   0.652  10.357   1.010  0.8048 -0.3444 -0.1775
  828MOL0     C14137   0.767  10.450   0.985 -0.4791 -1.2592  1.0937
  828MOL0     C14138   0.805  10.439   0.833  0.1076  0.1583  0.5365
  828MOL0     C14139   0.917  10.522   0.779 -0.0319 -0.1901 -0.5080
  828MOL0     C14140   0.936  10.475   0.628  0.1628  0.1321  0.1294
  828MOL0     C14141   1.068  10.519   0.556  0.4153  0.3047  0.4144
  828MOL0     C14142   1.073  10.670   0.517  0.0489  0.3358  0.4339
  828MOL0     N14143   1.108  10.761   0.631 -0.4808 -0.3511 -0.4485
  828MOL0     C14144   1.028  10.859   0.683  0.2282  0.2598  0.4769
  828MOL0     C14145   1.079  10.906   0.797 -0.1885  0.5097 -1.1469
  828MOL0     C14146   1.023  11.004   0.893  0.0022 -0.3137  0.2454
  828MOL0     C14147   1.103  11.138   0.880 -0.6098 -0.0698  0.3032
  828MOL0     C14148   1.072  11.210   0.738 -0.1387  0.0648  0.4095
  828MOL0     C14149   1.097  11.361   0.749  0.1993  0.7913 -0.1454
  828MOL0     O14150   1.231  11.385   0.797  0.4099 -0.9390  0.0350
  828MOL0     C14151   1.265  11.496   0.866  0.4171 -0.1987 -0.2792
  828MOL0     C14152   1.376  11.494   0.956 -0.4887 -0.0935 -0.1479
  828MOL0     C14153   1.413  11.602   1.038  0.2476 -0.0401 -0.2719
  828MOL0     C14154   1.526  11.570   1.137  0.6736  0.5631  0.5642
  828MOL0     C14155   1.327  11.721   1.042 -0.6002  1.0827 -0.3301
  828MOL0     C14156   1.334  11.829   1.150 -0.1881  0.9424 -0.3994
  828MOL0     O14157   1.271  11.943   1.122 -0.7263 -0.7931  0.0697
  828MOL0     C14158   1.219  12.017   1.224  0.8954  0.5807  0.3481
  828MOL0     C14159   1.293  12.121   1.290 -0.1016  0.0031  0.0953
  828MOL0     C14160   1.234  12.184   1.404 -0.8045 -0.5392  0.0449
  828MOL0     C14161   1.108  12.148   1.445  1.0121 -0.0093  0.3193
  828MOL0     O14162   1.056  12.204   1.560  0.0619 -0.0709 -0.8693
  828MOL0     C14163   1.119  12.178   1.693 -0.1970 -0.4278  0.8794
  828MOL0     C14164   1.165  12.035   1.699  0.3917  0.3398 -0.0120
  828MOL0     C14165   1.186  11.980   1.841 -0.2667 -0.1435 -0.1254
  828MOL0     C14166   1.336  11.971   1.876  0.2568  0.6949  0.3073
  828MOL0     C14167   1.379  11.927   2.012 -0.0641 -0.0432 -0.1725
  828MOL0     C14168   1.333  12.016   2.121 -0.0528 -0.0905 -0.6258
  828MOL0     C14169   1.427  12.020   2.243  0.5047 -0.2661 -0.0438
  828MOL0     C14170   1.362  12.122   2.353 -0.1212 -0.4920  0.1878
  828MOL0    Cl14171   1.320  12.274   2.267  0.1421  0.2325  0.0972
  828MOL0     C14172   1.029  12.051   1.377  0.4625  0.8468 -0.2800
  828MOL0     C14173   1.089  11.983   1.277 -0.5561  0.4927  0.3943
  828MOL0     O14174   1.382  11.801   1.263  0.5923  0.1628  0.1892
  828MOL0     C14175   1.222  11.725   0.953 -0.3868  0.0787  0.4615
  828MOL0     C14176   1.187  11.619   0.875  0.3963  0.0086 -0.0506
  828MOL0     N14177   1.196  10.835   0.809  0.5968 -0.0723  0.2280
  828MOL0     N14178   1.206  10.743   0.718 -0.6125  0.1457  0.6751
  828MOL0     C14179   0.856  10.114   1.204 -0.3070  0.2245  0.3934
  828MOL0     C14180   0.907   9.993   1.252 -0.4548  0.6250 -0.9457
  828MOL0     C14181   0.878   9.613   1.450  0.6178 -0.0590  0.4765
  828MOL0     C14182   0.883   9.498   1.380 -0.2069 -0.4449 -0.0732
  828MOL0     C14183   0.912   9.376   1.431  0.3912  0.0807 -0.4482
  828MOL0     C14184   0.922   9.371   1.570  0.2014  0.0772  0.1725
  828MOL0     O14185   0.928   9.261   1.648 -0.6432 -0.5138 -0.5455
  828MOL0     C14186   0.927   9.135   1.588 -0.2644  0.1298 -0.1280
  828MOL0     C14187   0.859   9.036   1.692 -0.3045  0.3820 -0.4305
  828MOL0     C14188   0.714   9.067   1.721  0.2421  0.5376  0.2021
  828MOL0     C14189   0.663   8.957   1.816 -0.6854  0.4565  0.5163
  828MOL0     C14190   0.520   8.985   1.845 -0.6610  0.4797  0.0444
  828MOL0     C14191   0.414   9.038   1.864  0.1020 -0.1100  0.1278
  828MOL0     C14192   0.931   9.489   1.647 -1.2218 -0.1545 -0.3680
  828MOL0     C14193   0.901   9.611   1.585  0.0751 -0.6438  0.2712
  828MOL0     C14194   0.907   9.733   1.680  0.3726  0.8635  0.0834
  828MOL0     H14195   0.860  10.043   1.586 -2.8565 -2.7187 -0.5301
  828MOL0     H14196   0.777  10.272   1.491 -1.4712 -1.4679  1.0425
  828MOL0     H14197   0.594  10.424   1.214  0.2702  0.7488 -0.7000
  828MOL0     H14198   0.566  10.246   1.179 -0.4019 -0.2354 -1.2108
  828MOL0     H14199   0.679  10.257   0.976  0.6876 -1.0402  1.6564
  828MOL0     H14200   0.553  10.383   0.972 -0.2275 -1.3340  1.7207
  828MOL0     H14201   0.738  10.551   1.015  0.2533 -1.3879  2.3007
  828MOL0     H14202   0.858  10.435   1.043  0.6967  2.9829  0.6820
  828MOL0     H14203   0.830  10.335   0.811 -1.7823 -0.4049  0.8978
  828MOL0     H14204   0.717  10.451   0.769  2.2402 -1.7336 -3.0810
  828MOL0     H14205   1.016  10.519   0.825  1.3867  1.4910 -3.1533
  828MOL0     H14206   0.878  10.624   0.787  0.3414 -0.1432  0.9693
  828MOL0     H14207   0.920  10.368   0.611  1.5748 -0.2644  1.1677
  828MOL0     H14208   0.849  10.525   0.584 -0.3685 -1.4710 -0.7199
  828MOL0     H14209   1.070  10.452   0.469  1.5687  1.5578 -0.5624
  828MOL0     H14210   1.156  10.485   0.611  2.2305 -1.0015 -3.0013
  828MOL0     H14211   1.136  10.680   0.427 -3.2656  0.7136 -2.0288
  828MOL0     H14212   0.976  10.696   0.474  0.8396  2.2191 -0.3104
  828MOL0     H14213   0.925  10.881   0.654 -0.5739 -2.4997  0.9190
  828MOL0     H14214   1.033  10.971   0.997 -1.1601 -2.7140 -0.3488
  828MOL0     H14215   0.916  11.016   0.874  0.1845 -1.4839 -1.7198
  828MOL0     H14216   1.066  11.206   0.958  1.1433 -0.8613  1.8961
  828MOL0     H14217   1.209  11.122   0.902 -1.2984 -2.4291  2.3170
  828MOL0     H14218   1.132  11.163   0.660 -1.2805 -0.3131 -0.2699
  828MOL0     H14219   0.968  11.192   0.708  0.6773  0.7768 -3.3538
  828MOL0     H14220   1.092  11.416   0.655 -0.4129  1.5904  0.3463
  828MOL0     H14221   1.015  11.401   0.809  1.5303  1.4732  1.2563
  828MOL0     H14222   1.442  11.409   0.941  0.9218  1.4724 -4.3461
  828MOL0     H14223   1.563  11.662   1.181  1.4558  0.6167 -0.1883
  828MOL0     H14224   1.614  11.533   1.085  1.1271  0.8176  1.1431
  828MOL0     H14225   1.494  11.508   1.222  0.0406 -0.7801 -0.6129
  828MOL0     H14226   1.390  12.136   1.244 -0.5979 -1.5767 -1.5476
  828MOL0     H14227   1.290  12.256   1.462 -1.3956 -1.3705  1.7291
  828MOL0     H14228   1.209  12.240   1.705  0.3404 -0.8977 -0.4997
  828MOL0     H14229   1.046  12.204   1.770 -2.3280  0.4935 -1.3210
  828MOL0     H14230   1.088  11.985   1.639 -0.3336  1.0331  0.3194
  828MOL0     H14231   1.258  12.017   1.644 -0.1238 -1.5218 -0.3558
  828MOL0     H14232   1.144  11.880   1.852  3.6051 -2.0467 -0.6641
  828MOL0     H14233   1.132  12.039   1.916  0.5002  1.0946 -0.5060
  828MOL0     H14234   1.383  12.066   1.849  0.2591  0.9005  1.0255
  828MOL0     H14235   1.370  11.908   1.794 -0.8266  0.1622  0.2461
  828MOL0     H14236   1.355  11.821   2.024  1.5839 -0.7539 -2.4605
  828MOL0     H14237   1.487  11.941   2.020 -0.3569  1.8084  1.4797
  828MOL0     H14238   1.235  11.986   2.161 -1.2944  3.1834 -0.8800
  828MOL0     H14239   1.329  12.118   2.081  1.6959  0.3574  0.2181
  828MOL0     H14240   1.518  12.076   2.219  0.9125 -0.2894  1.3739
  828MOL0     H14241   1.458  11.922   2.282 -0.3812 -0.1750  0.9170
  828MOL0     H14242   1.427  12.145   2.437 -0.9053 -2.1875  1.3130
  828MOL0     H14243   1.271  12.074   2.391  0.7715 -3.9669 -1.6010
  828MOL0     H14244   0.927  12.036   1.411  0.9002 -0.3099  0.5659
  828MOL0     H14245   1.048  11.903   1.216  0.0438  0.8872 -0.5404
  828MOL0     H14246   1.156  11.810   0.941  0.0747  0.3243 -0.3419
  828MOL0     H14247   1.107  11.625   0.802  1.1920  0.3382 -0.9132
  828MOL0     H14248   0.845  10.138   1.098  0.6048 -1.4312 -0.1120
  828MOL0     H14249   0.952   9.920   1.185 -0.8097 -0.2468 -0.2597
  828MOL0     H14250   0.857   9.506   1.275  0.7539  3.2401 -0.1745
  828MOL0     H14251   0.921   9.288   1.368 -0.9564  0.8400 -1.7689
  828MOL0     H14252   0.865   9.128   1.499 -2.6617  0.1438  1.4576
  828MOL0     H14253   1.028   9.096   1.571  0.3700 -0.0607  3.3160
  828MOL0     H14254   0.919   9.040   1.783 -1.9414 -1.9316  0.8505
  828MOL0     H14255   0.866   8.930   1.666 -2.2775  0.0183  0.3524
  828MOL0     H14256   0.704   9.171   1.752  1.2703  0.5954  0.3824
  828MOL0     H14257   0.664   9.056   1.624  0.1634  1.2108  0.1624
  828MOL0     H14258   0.721   8.948   1.909 -0.6325  1.1568  0.5515
  828MOL0     H14259   0.668   8.857   1.773  3.1047  1.7746 -2.6631
  828MOL0     H14260   0.315   9.070   1.892  0.4364  0.3099  0.8514
  828MOL0     H14261   0.954   9.479   1.753  0.7059  1.1287 -0.5955
  828MOL0     H14262   1.012   9.760   1.664  0.1958  0.6517 -1.5367
  828MOL0     H14263   0.829   9.807   1.657 -2.1206 -0.9983  1.9019
  828MOL0     H14264   0.879   9.700   1.781 -0.6399 -1.6769 -0.9376
  829MOL0     O14265   1.346  10.105  10.380 -0.2665 -0.2250  0.7803
  829MOL0     C14266   1.230  10.090  10.353  0.4870  0.1278 -0.0349
  829MOL0     O14267   1.145  10.194  10.318 -0.9071 -0.1672  0.1765
  829MOL0     C14268   1.197  10.318  10.314 -1.7425  0.7046  0.5181
  829MOL0     C14269   1.177  10.386  10.199  0.3540  0.0835  0.6345
  829MOL0     C14270   1.216  10.519  10.187 -0.7867 -0.8484 -0.2341
  829MOL0     C14271   1.269  10.593  10.291 -0.9004  0.0166  0.0241
  829MOL0     O14272   1.304  10.725  10.296  0.0787  0.7624 -0.1688
  829MOL0     C14273   1.356  10.786  10.178  0.1777 -0.4212  0.2612
  829MOL0     C14274   1.444  10.895  10.232  0.6631 -0.8584  0.3296
  829MOL0     C14275   1.509  10.979  10.123  0.1255 -0.6010  0.8434
  829MOL0     C14276   1.595  11.083  10.200 -0.0377 -0.1983 -0.2798
  829MOL0     C14277   1.492  11.182  10.278 -0.2444 -0.1335 -0.1320
  829MOL0     C14278   1.564  11.294  10.343  0.1112 -0.6068  1.0150
  829MOL0     C14279   1.643  11.373  10.238  0.8266 -0.4474  0.3675
  829MOL0     C14280   1.686  11.508  10.296 -0.4614 -0.6150  0.1219
  829MOL0     N14281   1.814  11.486  10.378 -0.4462 -0.1564  0.3813
  829MOL0     C14282   1.946  11.511  10.335  0.0269  0.2723 -1.4614
  829MOL0     C14283   2.015  11.491  10.452 -0.5704 -0.2638 -0.0766
  829MOL0     C14284   2.160  11.534  10.466  0.9334 -0.6898  0.2220
  829MOL0     C14285   2.250  11.440  10.399  0.2259 -0.4049 -0.4907
  829MOL0     C14286   2.220  11.409  10.250  0.4405  0.1815  0.7271
  829MOL0     C14287   2.340  11.361  10.174  0.1242  0.4276  0.6243
  829MOL0     O14288   2.395  11.229  10.223  1.2520  0.0058 -0.4259
  829MOL0     C14289   2.515  11.243  10.278 -1.1479 -0.1504  0.4127
  829MOL0     C14290   2.642  11.252  10.204  0.9211  0.0748 -0.5590
  829MOL0     C14291   2.766  11.278  10.259 -0.5807 -0.0041 -0.1386
  829MOL0     C14292   2.882  11.281  10.164 -1.0390 -1.3384  0.5723
  829MOL0     C14293   2.780  11.282  10.399 -0.1294  1.3734  0.3429
  829MOL0     C14294   2.909  11.295  10.471  0.2520  0.1535 -0.2828
  829MOL0     O14295   2.892  11.281  10.608  0.1884  0.6416 -0.1013
  829MOL0     C14296   2.997  11.256  10.696 -0.0869 -0.4152 -0.0886
  829MOL0     C14297   3.123  11.204  10.663 -1.3521 -0.2095  0.3429
  829MOL0     C14298   3.222  11.182  10.765 -0.9329 -0.2034  0.7301
  829MOL0     C14299   3.196  11.208  10.896 -0.3554 -0.1062  0.0481
  829MOL0     O14300   3.278  11.176  11.002  0.0813  0.4835 -0.2890
  829MOL0     C14301   3.340  11.038  10.986  0.5520  0.9722 -0.4667
  829MOL0     C14302   3.236  10.935  11.043  0.6232 -0.1367 -1.5738
  829MOL0     C14303   3.235  10.934  11.204 -0.4251 -0.0263  0.0713
  829MOL0     C14304   3.134  10.836  11.264 -0.2900 -0.5568  1.1710
  829MOL0     C14305   3.135  10.838  11.416 -0.4527  0.0704 -0.1034
  829MOL0     C14306   3.004  10.787  11.471 -0.3783 -0.0299 -0.3333
  829MOL0     C14307   3.023  10.776  11.624  0.5789  0.3035 -0.0035
  829MOL0     C14308   2.889  10.713  11.679 -1.0305 -0.6076 -0.3975
  829MOL0    Cl14309   2.907  10.672  11.860  0.1463  0.0562  0.1485
  829MOL0     C14310   3.065  11.266  10.934 -1.3041 -0.2055 -0.0477
  829MOL0     C14311   2.979  11.303  10.826 -0.1956 -0.1076 -0.5329
  829MOL0     O14312   3.012  11.323  10.418  0.0789  0.0898 -0.6902
  829MOL0     C14313   2.661  11.249  10.475  0.0027  0.3207  0.6914
  829MOL0     C14314   2.537  11.232  10.415 -0.2879  0.3058  0.3514
  829MOL0     N14315   1.926  11.461  10.555  0.0994  0.8447 -1.6054
  829MOL0     N14316   1.808  11.445  10.508 -0.8001  0.3079 -0.6438
  829MOL0     C14317   1.286  10.519  10.412 -1.4852  0.5007  0.3756
  829MOL0     C14318   1.262  10.384  10.425 -0.3556  0.3465  0.5530
  829MOL0     C14319   1.171   9.954  10.370  0.5319  0.1633  0.4457
  829MOL0     C14320   1.029   9.948  10.375  0.9435 -0.0029 -0.0222
  829MOL0     C14321   0.969   9.824  10.374 -0.5863  0.0440  0.3284
  829MOL0     C14322   1.046   9.701  10.364 -0.3949  0.4008 -0.3583
  829MOL0     O14323   0.984   9.578  10.354 -0.5555 -0.1389  0.6243
  829MOL0     C14324   1.022   9.497  10.244 -0.1793  0.0782  0.4328
  829MOL0     C14325   0.999   9.563  10.111 -0.5669  0.1760  0.5335
  829MOL0     C14326   0.859   9.617  10.089 -0.2002  0.8407 -0.7498
  829MOL0     C14327   0.795   9.581   9.948 -0.4554  0.2269 -0.1502
  829MOL0     C14328   0.862   9.656   9.838 -0.6610 -0.5852 -0.6747
  829MOL0     C14329   0.897   9.715   9.737 -1.4689  0.1723  0.0052
  829MOL0     C14330   1.189   9.716  10.360 -0.7877  1.1667  0.8330
  829MOL0     C14331   1.251   9.838  10.357 -0.2196  0.7175  0.0113
  829MOL0     C14332   1.399   9.840  10.334 -0.2364  0.8670  0.4499
  829MOL0     H14333   1.113  10.348  10.119  0.7301 -3.8757  2.0208
  829MOL0     H14334   1.202  10.563  10.089  2.1942  0.0405 -0.3599
  829MOL0     H14335   1.267  10.828  10.131  0.2069  0.5625  1.0604
  829MOL0     H14336   1.419  10.725  10.112 -0.2391  0.4895 -1.0197
  829MOL0     H14337   1.385  10.961  10.297  0.0952  3.1168 -3.6955
  829MOL0     H14338   1.519  10.856  10.302  0.5498 -0.3406  0.7488
  829MOL0     H14339   1.570  10.908  10.066 -0.8329 -0.3757 -0.5054
  829MOL0     H14340   1.436  11.030  10.061 -0.1751  2.1463  3.2381
  829MOL0     H14341   1.657  11.029  10.273 -0.3728  0.5831  0.6062
  829MOL0     H14342   1.659  11.137  10.129 -0.2068  0.7051  0.2299
  829MOL0     H14343   1.449  11.127  10.362  2.0488 -2.6739 -0.5036
  829MOL0     H14344   1.412  11.222  10.214 -1.6130 -0.4026  1.3541
  829MOL0     H14345   1.485  11.361  10.376  0.3558  0.1534  0.1191
  829MOL0     H14346   1.630  11.269  10.427  2.3976  2.5133  0.3208
  829MOL0     H14347   1.579  11.410  10.158  0.0769  1.8228  1.9139
  829MOL0     H14348   1.728  11.321  10.193  0.9354 -0.5188  0.6499
  829MOL0     H14349   1.705  11.570  10.208 -1.1919 -0.1913  0.2630
  829MOL0     H14350   1.605  11.558  10.349 -0.1805  1.7650 -1.5361
  829MOL0     H14351   1.978  11.537  10.234 -0.1387 -1.2807 -1.9522
  829MOL0     H14352   2.179  11.534  10.574  2.3388 -0.7149 -0.0194
  829MOL0     H14353   2.177  11.631  10.419  2.5373 -0.3626  1.3996
  829MOL0     H14354   2.356  11.467  10.401 -0.1759  1.2277  0.8824
  829MOL0     H14355   2.248  11.349  10.461  0.8707  0.8205  1.4147
  829MOL0     H14356   2.138  11.339  10.239 -0.5469  0.7569  3.5056
  829MOL0     H14357   2.188  11.501  10.200  2.2962  0.2051 -0.5405
  829MOL0     H14358   2.312  11.358  10.068  1.1760  5.2042 -0.0050
  829MOL0     H14359   2.418  11.437  10.165  0.4903 -0.0850 -0.8259
  829MOL0     H14360   2.613  11.261  10.100 -2.2440  1.9474  0.3414
  829MOL0     H14361   2.933  11.378  10.156 -0.9090 -1.5395 -2.1921
  829MOL0     H14362   2.853  11.260  10.061 -0.2003 -0.6865  0.1893
  829MOL0     H14363   2.947  11.195  10.185  0.3397 -0.5747 -0.4226
  829MOL0     H14364   3.152  11.183  10.561  4.3114  0.7206  1.3832
  829MOL0     H14365   3.320  11.151  10.731  0.0469 -0.2153  3.3167
  829MOL0     H14366   3.379  11.007  10.889 -1.4659 -1.1671 -0.6803
  829MOL0     H14367   3.418  11.028  11.062  0.3655 -2.6014 -0.5852
  829MOL0     H14368   3.138  10.969  11.010  0.9925  1.5077 -1.0508
  829MOL0     H14369   3.262  10.833  11.013  0.9787 -0.4524 -0.2616
  829MOL0     H14370   3.210  11.032  11.245  0.8056  0.2757  0.1454
  829MOL0     H14371   3.336  10.917  11.242 -0.7542  1.2441  1.6251
  829MOL0     H14372   3.154  10.736  11.224  2.3763  0.6871 -0.8869
  829MOL0     H14373   3.033  10.864  11.234 -0.3054  0.4943  2.1526
  829MOL0     H14374   3.216  10.780  11.460 -2.6760 -1.4420  2.2793
  829MOL0     H14375   3.144  10.943  11.447  1.6088  0.2200 -1.0577
  829MOL0     H14376   2.971  10.694  11.425 -4.3359  2.3913 -3.0223
  829MOL0     H14377   2.926  10.853  11.433  1.5925  0.6532 -3.6599
  829MOL0     H14378   3.055  10.861  11.684  0.4326  0.0324  0.4699
  829MOL0     H14379   3.101  10.701  11.640 -1.4645 -2.0359 -0.4163
  829MOL0     H14380   2.860  10.622  11.625 -1.6138 -0.3908 -0.4556
  829MOL0     H14381   2.799  10.774  11.664 -0.9396 -0.2008  0.6542
  829MOL0     H14382   3.025  11.289  11.031 -0.0937 -2.4978  1.0898
  829MOL0     H14383   2.883  11.350  10.845  0.0474  0.4890 -0.7526
  829MOL0     H14384   2.661  11.233  10.583  1.6526  2.6616  1.1284
  829MOL0     H14385   2.447  11.211  10.472 -0.7378 -0.5447 -0.6435
  829MOL0     H14386   1.346  10.568  10.489 -2.6910  2.5427  0.1133
  829MOL0     H14387   1.273  10.322  10.513  1.2159 -1.1282 -0.6131
  829MOL0     H14388   0.970  10.038  10.383  2.5399  1.0085  1.1340
  829MOL0     H14389   0.861   9.812  10.381 -0.5256  0.2344  1.9952
  829MOL0     H14390   1.128   9.469  10.250  0.0711  1.0468  0.8315
  829MOL0     H14391   0.976   9.398  10.247 -0.7761  0.2218 -2.1344
  829MOL0     H14392   1.032   9.504  10.025  1.1637  1.1749  0.4699
  829MOL0     H14393   1.066   9.648  10.104 -0.8678  0.3964  0.3114
  829MOL0     H14394   0.786   9.579  10.161  0.2480  1.4160  0.0203
  829MOL0     H14395   0.868   9.725  10.104  0.8813  0.7213 -0.4701
  829MOL0     H14396   0.688   9.604   9.946 -0.0219  2.3951 -0.9077
  829MOL0     H14397   0.796   9.473   9.932 -4.4831  0.2799 -1.9382
  829MOL0     H14398   0.928   9.768   9.649  2.9204 -3.1028 -0.7695
  829MOL0     H14399   1.243   9.625  10.334 -3.4179 -0.9582  2.2328
  829MOL0     H14400   1.447   9.743  10.319  1.7449  1.9408 -0.6440
  829MOL0     H14401   1.422   9.913  10.255 -0.2599  0.9014  0.4749
  829MOL0     H14402   1.454   9.874  10.422  0.8166 -2.6439  1.3195
  830MOL0     O14403   1.136   5.400  10.905  0.7535 -0.0497  0.5831
  830MOL0     C14404   1.034   5.449  10.964 -0.2027 -0.4066 -0.3546
  830MOL0     O14405   0.919   5.476  10.908 -0.5063  0.6418  0.0052
  830MOL0     C14406   0.917   5.464  10.770 -0.2769 -0.2143  0.1283
  830MOL0     C14407   0.969   5.571  10.696  0.3437  1.3672 -0.3734
  830MOL0     C14408   0.992   5.558  10.558  0.4549 -0.0073  0.1523
  830MOL0     C14409   0.952   5.446  10.492 -0.5489  1.6101  0.9232
  830MOL0     O14410   0.965   5.444  10.360  0.6016  0.0080  1.0507
  830MOL0     C14411   1.090   5.434  10.299  0.0195  0.6812  0.3662
  830MOL0     C14412   1.086   5.481  10.157 -0.7985 -0.5438 -0.2698
  830MOL0     C14413   1.015   5.382  10.059  0.1708 -0.0843 -0.4945
  830MOL0     C14414   1.024   5.420   9.917  0.4202 -0.6148  0.4948
  830MOL0     C14415   0.965   5.321   9.811 -0.1612  0.4843 -0.3496
  830MOL0     C14416   0.809   5.327   9.806  0.5362 -0.2173  0.1512
  830MOL0     C14417   0.752   5.475   9.775 -0.2871  0.6540 -0.4218
  830MOL0     C14418   0.592   5.460   9.770 -0.1576 -0.0963  0.1514
  830MOL0     N14419   0.541   5.428   9.906  0.0723  0.1270  0.0926
  830MOL0     C14420   0.560   5.498  10.021 -0.5046 -0.7336  0.4335
  830MOL0     C14421   0.492   5.436  10.122 -0.9071  0.0562 -0.0214
  830MOL0     C14422   0.471   5.488  10.258  0.8368  0.2844 -0.4859
  830MOL0     C14423   0.591   5.434  10.345  0.9558 -0.3625  1.4798
  830MOL0     C14424   0.572   5.497  10.489 -0.2934  0.0235  0.8789
  830MOL0     C14425   0.430   5.477  10.549 -0.2649 -1.1670 -1.1903
  830MOL0     O14426   0.431   5.529  10.686 -0.4233  0.7309  0.6480
  830MOL0     C14427   0.409   5.440  10.790  0.6805  0.4075 -0.6902
  830MOL0     C14428   0.307   5.464  10.876  1.2291  0.0615 -0.6186
  830MOL0     C14429   0.287   5.378  10.986  0.3189 -0.5146  0.6585
  830MOL0     C14430   0.173   5.412  11.081 -0.1754  0.5034  0.1580
  830MOL0     C14431   0.381   5.275  11.015  0.7397 -0.4775 -0.5306
  830MOL0     C14432   0.363   5.172  11.123 -0.2814  0.3722 -0.3082
  830MOL0     O14433   0.385   5.042  11.085  0.0598 -0.2444 -0.4422
  830MOL0     C14434   0.387   4.926  11.153  0.0637  0.2530 -0.1397
  830MOL0     C14435   0.379   4.918  11.293  0.1688  0.5773 -0.8438
  830MOL0     C14436   0.379   4.791  11.351 -0.1311 -0.8782  0.2777
  830MOL0     C14437   0.401   4.671  11.286 -0.0643  0.4989 -0.6931
  830MOL0     O14438   0.413   4.545  11.345 -0.2736  0.1504  0.0885
  830MOL0     C14439   0.409   4.530  11.490  0.2337 -1.1743  0.8920
  830MOL0     C14440   0.405   4.385  11.527  0.1380 -0.5068  0.8487
  830MOL0     C14441   0.266   4.354  11.585  0.9832  0.8236 -0.5088
  830MOL0     C14442   0.222   4.401  11.721 -0.1443 -0.8294  0.1848
  830MOL0     C14443   0.311   4.332  11.829 -0.1770 -0.5261 -0.3953
  830MOL0     C14444   0.223   4.316  11.948  0.7765 -0.6052 -0.1938
  830MOL0     C14445   0.294   4.250  12.075  0.9722 -1.0018  0.8243
  830MOL0     C14446   0.214   4.293  12.204  0.0360 -1.3652  0.3671
  830MOL0    Cl14447   0.277   4.211  12.349  0.5835  0.6185  0.0294
  830MOL0     C14448   0.401   4.680  11.144  0.1138 -0.9166  0.4208
  830MOL0     C14449   0.398   4.804  11.081 -0.3980 -0.4294 -0.1012
  830MOL0     O14450   0.349   5.213  11.238 -0.0558  0.2077  0.3192
  830MOL0     C14451   0.482   5.245  10.913 -0.5367  0.0270  0.0975
  830MOL0     C14452   0.490   5.330  10.800 -0.4561 -0.5434  0.0754
  830MOL0     N14453   0.437   5.327  10.068  0.1983  1.2635 -0.5909
  830MOL0     N14454   0.463   5.324   9.941  0.6566 -0.1056  0.2907
  830MOL0     C14455   0.896   5.346  10.570 -0.9205  0.4197 -0.4035
  830MOL0     C14456   0.879   5.350  10.709  0.5944 -0.8770 -0.3830
  830MOL0     C14457   1.043   5.492  11.113 -0.3547 -0.7242 -0.6365
  830MOL0     C14458   0.921   5.537  11.176 -0.8902  0.9471 -0.0015
  830MOL0     C14459   0.918   5.557  11.313 -0.1457 -0.7096  0.4954
  830MOL0     C14460   1.029   5.565  11.390 -0.4549  0.1664  0.0374
  830MOL0     O14461   1.005   5.597  11.522 -0.4404 -0.1573  0.2384
  830MOL0     C14462   1.113   5.599  11.613 -0.7066 -0.6549 -0.0328
  830MOL0     C14463   1.080   5.679  11.741  0.2689  0.1210 -0.1002
  830MOL0     C14464   0.992   5.594  11.843 -0.3504  0.2458  0.5719
  830MOL0     C14465   0.939   5.690  11.945  0.0092  0.0186  0.6475
  830MOL0     C14466   0.910   5.599  12.061 -0.4670 -0.4082 -0.2903
  830MOL0     C14467   0.865   5.542  12.156 -0.1772  0.2786  0.2910
  830MOL0     C14468   1.150   5.547  11.323 -0.1275 -0.0213  0.7086
  830MOL0     C14469   1.161   5.501  11.197  0.9368  0.3727 -0.1541
  830MOL0     C14470   1.297   5.473  11.136 -0.6865 -0.2827 -0.1381
  830MOL0     H14471   1.002   5.660  10.747 -0.3462  0.2687  2.1114
  830MOL0     H14472   1.040   5.633  10.497  1.1455  0.9481  1.7926
  830MOL0     H14473   1.121   5.330  10.306  0.3263  0.5095 -2.4411
  830MOL0     H14474   1.170   5.492  10.347  0.2234  1.6745 -1.0790
  830MOL0     H14475   1.035   5.578  10.156 -1.4365 -0.8801 -0.5892
  830MOL0     H14476   1.185   5.497  10.113 -1.2741  2.4005 -0.4679
  830MOL0     H14477   1.060   5.285  10.082  3.2407  1.3158 -0.0646
  830MOL0     H14478   0.911   5.366  10.089 -1.2314  2.7243 -3.3088
  830MOL0     H14479   0.986   5.523   9.907  0.8772 -0.5987 -1.5895
  830MOL0     H14480   1.132   5.426   9.902  0.2810 -1.8964 -1.3646
  830MOL0     H14481   0.986   5.218   9.839 -0.1446  0.4662 -0.4260
  830MOL0     H14482   1.011   5.339   9.713 -0.5201 -0.0307 -0.6191
  830MOL0     H14483   0.777   5.255   9.730 -1.3182 -0.6768  1.3109
  830MOL0     H14484   0.767   5.293   9.901  0.7151  2.0925  1.1066
  830MOL0     H14485   0.779   5.522   9.679  1.0045  4.9581  1.7695
  830MOL0     H14486   0.779   5.543   9.857  1.6195 -0.5887  0.0549
  830MOL0     H14487   0.540   5.551   9.737  2.3721  0.5033 -2.7077
  830MOL0     H14488   0.544   5.383   9.709 -2.9416 -0.2217  2.3610
  830MOL0     H14489   0.615   5.591  10.020 -0.7202 -0.5918 -1.4842
  830MOL0     H14490   0.369   5.455  10.281 -0.0546  1.8768 -1.9027
  830MOL0     H14491   0.461   5.595  10.277 -0.2920 -0.4540  4.1882
  830MOL0     H14492   0.592   5.325  10.358  1.9859 -0.3583  1.5363
  830MOL0     H14493   0.693   5.459  10.314  0.2744 -0.5833 -1.2005
  830MOL0     H14494   0.651   5.456  10.552  1.0501  1.8474  0.4497
  830MOL0     H14495   0.588   5.605  10.478 -0.9930  0.5039  3.8118
  830MOL0     H14496   0.351   5.531  10.496 -1.6061  0.0474  1.8131
  830MOL0     H14497   0.397   5.374  10.534  1.5442 -1.7650 -1.2244
  830MOL0     H14498   0.237   5.543  10.853 -0.3603 -1.3878 -0.9145
  830MOL0     H14499   0.142   5.329  11.145  0.2754  0.4386  0.2907
  830MOL0     H14500   0.085   5.450  11.028  1.5105  0.8552 -2.6305
  830MOL0     H14501   0.200   5.494  11.148 -1.7609  1.0686  0.1559
  830MOL0     H14502   0.390   5.002  11.361  1.2470  2.3695 -3.0886
  830MOL0     H14503   0.371   4.786  11.460 -1.9908  3.5908  0.5710
  830MOL0     H14504   0.503   4.564  11.535  1.0848 -2.3333  0.0817
  830MOL0     H14505   0.324   4.588  11.525  0.7006 -0.0740  0.2676
  830MOL0     H14506   0.428   4.316  11.445  0.5924  1.7048 -0.9832
  830MOL0     H14507   0.480   4.365  11.604  1.7781  0.3517 -0.4528
  830MOL0     H14508   0.248   4.246  11.583 -2.3512  1.1441  2.3161
  830MOL0     H14509   0.182   4.388  11.524 -1.5936  0.2608  2.4564
  830MOL0     H14510   0.113   4.385  11.723 -0.1455 -1.1215 -1.2556
  830MOL0     H14511   0.235   4.509  11.731  0.3948 -0.9051  0.3180
  830MOL0     H14512   0.347   4.237  11.788 -0.5332 -1.1148  0.6200
  830MOL0     H14513   0.388   4.404  11.855 -2.4804  0.8913  3.2929
  830MOL0     H14514   0.135   4.262  11.913 -0.0382  0.6794 -0.2083
  830MOL0     H14515   0.185   4.416  11.972 -0.7166 -1.6748  2.1955
  830MOL0     H14516   0.394   4.292  12.090  0.9500 -0.2698 -0.8632
  830MOL0     H14517   0.312   4.142  12.069 -0.1071 -1.2207  1.2704
  830MOL0     H14518   0.105   4.290  12.194 -0.4438  3.1959  1.9165
  830MOL0     H14519   0.224   4.400  12.223 -2.5464 -0.9140 -0.4417
  830MOL0     H14520   0.416   4.592  11.082  0.6915 -0.4089 -0.1735
  830MOL0     H14521   0.417   4.803  10.974  1.1489  3.7800 -0.0587
  830MOL0     H14522   0.554   5.165  10.917  0.2712  0.5081 -2.5537
  830MOL0     H14523   0.558   5.312  10.717  0.0494 -2.1632  0.8045
  830MOL0     H14524   0.877   5.250  10.523  1.7210  0.3963 -1.5757
  830MOL0     H14525   0.835   5.282  10.781  0.4595 -1.1154 -0.6912
  830MOL0     H14526   0.827   5.553  11.124 -0.5892 -0.4008 -1.0077
  830MOL0     H14527   0.822   5.581  11.359  0.2282  2.1683  0.0014
  830MOL0     H14528   1.127   5.496  11.649  0.8426  0.6780  3.7079
  830MOL0     H14529   1.210   5.637  11.582  1.9599 -5.1144  1.8102
  830MOL0     H14530   1.017   5.759  11.701 -0.1113  0.3694  0.9842
  830MOL0     H14531   1.166   5.721  11.792 -1.7089  3.1644  0.9877
  830MOL0     H14532   0.915   5.535  11.791 -0.2788  0.9903 -0.4074
  830MOL0     H14533   1.062   5.521  11.885  2.3537  1.9932 -0.5889
  830MOL0     H14534   0.858   5.752  11.908  1.4919  2.5150  1.3456
  830MOL0     H14535   1.012   5.763  11.982 -1.3927  0.9337  1.7243
  830MOL0     H14536   0.834   5.497  12.248 -1.4858  3.8146  1.7288
  830MOL0     H14537   1.241   5.554  11.382 -1.2606  0.0808  2.5182
  830MOL0     H14538   1.317   5.526  11.042  4.0825  0.8869  1.2740
  830MOL0     H14539   1.380   5.497  11.203 -1.0845  2.9069 -0.6158
  830MOL0     H14540   1.314   5.366  11.124  1.5636  0.0600 -0.4177
  831MOL0     O14541   6.453   5.898   1.727  0.4844 -0.2269  0.1422
  831MOL0     C14542   6.454   5.911   1.849 -0.5234 -0.4187  0.0336
  831MOL0     O14543   6.537   5.854   1.946  0.0038 -0.9585  0.0908
  831MOL0     C14544   6.595   5.733   1.921  0.4726 -0.1356  0.3510
  831MOL0     C14545   6.547   5.623   1.995 -0.0963 -0.2730 -1.0064
  831MOL0     C14546   6.606   5.498   1.973  0.4997 -0.1745 -0.1066
  831MOL0     C14547   6.706   5.485   1.883 -0.4332 -0.7893 -0.1160
  831MOL0     O14548   6.760   5.363   1.857 -0.2113  1.0360 -0.3284
  831MOL0     C14549   6.900   5.357   1.898  0.4038  0.1972  0.2006
  831MOL0     C14550   6.965   5.217   1.864  0.3113  0.2752 -0.4062
  831MOL0     C14551   7.114   5.237   1.877  0.2351  0.7832 -0.8472
  831MOL0     C14552   7.186   5.122   1.806  0.1405 -0.3286 -0.4057
  831MOL0     C14553   7.337   5.143   1.789 -0.6303  0.0712 -0.8839
  831MOL0     C14554   7.414   5.149   1.923  0.4679  0.2525  1.0636
  831MOL0     C14555   7.433   5.301   1.964  0.4808  0.0667  0.7581
  831MOL0     C14556   7.516   5.318   2.097 -0.0724  1.0092  0.2765
  831MOL0     N14557   7.545   5.453   2.144  1.3184 -0.8029 -0.0020
  831MOL0     C14558   7.459   5.546   2.212  0.5466  0.6993 -0.5410
  831MOL0     C14559   7.528   5.664   2.202 -0.2459  0.8206 -0.1787
  831MOL0     C14560   7.496   5.802   2.264  0.6539 -0.6338  0.3281
  831MOL0     C14561   7.430   5.909   2.175 -0.5608 -0.0973 -0.5760
  831MOL0     C14562   7.293   5.863   2.121  0.6845  0.7144 -0.5347
  831MOL0     C14563   7.222   5.997   2.079 -0.2564  2.0739  0.3026
  831MOL0     O14564   7.132   5.967   1.972 -0.7524  0.2051  0.2832
  831MOL0     C14565   7.065   6.063   1.898 -0.1008  0.4086 -0.4832
  831MOL0     C14566   7.100   6.200   1.891 -0.8833  0.1106 -0.0244
  831MOL0     C14567   7.022   6.292   1.823  0.1047  0.0720 -0.1979
  831MOL0     C14568   7.082   6.426   1.800 -0.4514  0.0301  0.5304
  831MOL0     C14569   6.903   6.245   1.752 -0.2982  0.0782  0.2195
  831MOL0     C14570   6.809   6.329   1.673  0.0649  0.3699  0.7089
  831MOL0     O14571   6.690   6.265   1.625  0.4385  0.6193 -0.5549
  831MOL0     C14572   6.595   6.353   1.578 -0.1114  0.2428 -0.5851
  831MOL0     C14573   6.598   6.378   1.444  0.5163  0.6354 -0.0257
  831MOL0     C14574   6.519   6.483   1.397 -0.4739 -0.0553  0.4036
  831MOL0     C14575   6.441   6.568   1.476  0.7365  0.3155 -0.1730
  831MOL0     O14576   6.374   6.672   1.414  0.5585  0.5345 -0.1911
  831MOL0     C14577   6.240   6.699   1.466 -0.7527 -0.2944 -0.3932
  831MOL0     C14578   6.152   6.585   1.435 -0.1597  1.2634 -0.2839
  831MOL0     C14579   6.002   6.631   1.439  0.8557  0.3709 -1.2714
  831MOL0     C14580   5.908   6.536   1.375  0.5783  0.3127  0.2168
  831MOL0     C14581   5.766   6.566   1.412 -0.2821  0.0357 -0.1422
  831MOL0     C14582   5.715   6.696   1.364 -1.1555  0.0634 -0.4228
  831MOL0     C14583   5.580   6.742   1.431 -0.7288 -0.1598 -0.2285
  831MOL0     C14584   5.543   6.884   1.402  0.2524 -0.6113  0.1335
  831MOL0    Cl14585   5.372   6.928   1.432 -0.2589 -0.0574  0.3357
  831MOL0     C14586   6.449   6.541   1.613  0.8116  0.2481  0.4481
  831MOL0     C14587   6.519   6.432   1.665  0.4611  1.0085  0.5583
  831MOL0     O14588   6.839   6.446   1.657  0.1314  0.0487 -0.0666
  831MOL0     C14589   6.869   6.106   1.767 -0.0942  0.3590  0.6554
  831MOL0     C14590   6.949   6.015   1.836 -0.8360  0.4352  0.2194
  831MOL0     N14591   7.637   5.650   2.115 -0.7150  0.9919 -0.1802
  831MOL0     N14592   7.654   5.521   2.105 -0.0678 -0.0287  0.2581
  831MOL0     C14593   6.751   5.597   1.814  0.0924  0.1786 -0.3214
  831MOL0     C14594   6.697   5.721   1.830  0.1980 -0.1374  0.4692
  831MOL0     C14595   6.358   6.016   1.889 -0.3392 -0.7071 -0.6641
  831MOL0     C14596   6.330   6.128   1.807 -0.4284 -0.6880  1.2430
  831MOL0     C14597   6.256   6.236   1.846 -0.0546  0.1038  0.0913
  831MOL0     C14598   6.194   6.255   1.969  0.7070  0.3218  0.0959
  831MOL0     O14599   6.121   6.360   2.004  0.7319 -0.2392  0.4760
  831MOL0     C14600   6.060   6.458   1.910 -0.5370  0.4752  0.4060
  831MOL0     C14601   6.162   6.574   1.881  0.1302  0.3916  0.0697
  831MOL0     C14602   6.163   6.666   1.996 -0.9591  0.0083  0.2977
  831MOL0     C14603   6.243   6.788   1.990  0.8204 -0.5885 -0.5901
  831MOL0     C14604   6.387   6.764   1.980  0.6050  0.7362  0.6448
  831MOL0     C14605   6.506   6.757   1.974 -0.7521 -0.0345 -0.4941
  831MOL0     C14606   6.223   6.148   2.049 -0.2578 -0.6161  0.5426
  831MOL0     C14607   6.299   6.033   2.024  0.7353 -0.2551  0.8878
  831MOL0     C14608   6.313   5.929   2.126  0.6418  0.5561 -0.6935
  831MOL0     H14609   6.464   5.653   2.058  0.9223  1.3723 -0.4129
  831MOL0     H14610   6.558   5.414   2.021 -1.3435 -2.0343 -4.6286
  831MOL0     H14611   6.902   5.370   2.006  0.5183  2.0587  0.0035
  831MOL0     H14612   6.947   5.432   1.834  0.7833  1.0309  1.4397
  831MOL0     H14613   6.930   5.130   1.921 -3.0346 -0.8704 -3.7393
  831MOL0     H14614   6.946   5.189   1.760 -3.4788  2.0889 -0.3645
  831MOL0     H14615   7.151   5.330   1.832 -2.2969  2.6101  0.5532
  831MOL0     H14616   7.149   5.246   1.980 -0.3790  4.0005 -0.8240
  831MOL0     H14617   7.169   5.025   1.854  0.3956 -0.0999  0.1632
  831MOL0     H14618   7.161   5.119   1.700 -1.6691 -1.1384  0.0176
  831MOL0     H14619   7.345   5.233   1.727 -1.7790  0.9912  0.2460
  831MOL0     H14620   7.378   5.061   1.729  2.1130  1.1228 -0.5998
  831MOL0     H14621   7.344   5.111   1.998 -3.1173  0.4651 -1.8741
  831MOL0     H14622   7.513   5.103   1.925  1.6663  2.7052  1.4104
  831MOL0     H14623   7.340   5.359   1.971  0.2150 -0.1101 -0.9729
  831MOL0     H14624   7.498   5.345   1.888  0.7450 -0.0259  0.9309
  831MOL0     H14625   7.461   5.273   2.180 -0.6994 -1.1070 -1.1794
  831MOL0     H14626   7.613   5.267   2.088  0.3705  1.8632  0.1081
  831MOL0     H14627   7.361   5.531   2.256  0.4944  3.0508  0.3214
  831MOL0     H14628   7.595   5.848   2.277 -0.2628  1.9628 -1.1596
  831MOL0     H14629   7.446   5.798   2.361 -0.1638  2.2408  0.1280
  831MOL0     H14630   7.418   5.995   2.242  0.5447 -1.7266  1.8515
  831MOL0     H14631   7.499   5.932   2.093  2.9659  0.3300  2.2729
  831MOL0     H14632   7.301   5.793   2.038 -1.6535  0.8950 -0.9661
  831MOL0     H14633   7.241   5.820   2.207  1.8415  0.2613 -0.0353
  831MOL0     H14634   7.175   6.038   2.169  1.1724  0.0845  2.0524
  831MOL0     H14635   7.295   6.064   2.031 -0.4796  0.0494 -3.2178
  831MOL0     H14636   7.186   6.226   1.952 -1.4734  2.0099  0.0526
  831MOL0     H14637   7.150   6.451   1.882 -1.6575  4.8178  0.3713
  831MOL0     H14638   7.007   6.505   1.796 -0.6824 -0.0731 -4.6633
  831MOL0     H14639   7.149   6.428   1.714 -2.7201  1.5043 -1.3460
  831MOL0     H14640   6.663   6.313   1.386 -0.5615 -0.2793 -0.2521
  831MOL0     H14641   6.520   6.506   1.291  0.7176  0.0869  0.4323
  831MOL0     H14642   6.243   6.720   1.573  1.7135 -0.0348 -0.4593
  831MOL0     H14643   6.206   6.799   1.436  2.0154  1.4544  1.7600
  831MOL0     H14644   6.175   6.553   1.333 -1.4157  0.9228 -0.4839
  831MOL0     H14645   6.172   6.495   1.494 -2.8041 -0.6636 -2.0728
  831MOL0     H14646   5.997   6.733   1.399  0.2896  0.7959 -0.1615
  831MOL0     H14647   5.970   6.638   1.544  2.2439  2.4726 -0.9143
  831MOL0     H14648   5.943   6.439   1.410  0.7427 -0.4360 -1.8794
  831MOL0     H14649   5.919   6.526   1.266  1.4316  1.4034  0.1809
  831MOL0     H14650   5.713   6.497   1.346 -0.0577 -1.0488  0.7855
  831MOL0     H14651   5.753   6.545   1.519  0.3611  1.9881  0.3720
  831MOL0     H14652   5.711   6.693   1.255  1.0979  1.3731 -0.6279
  831MOL0     H14653   5.783   6.770   1.408  1.9765 -2.6539 -0.3228
  831MOL0     H14654   5.599   6.727   1.537  0.4903 -1.2583 -0.5760
  831MOL0     H14655   5.486   6.690   1.414 -1.3742  1.5158 -2.2430
  831MOL0     H14656   5.570   6.900   1.298 -0.7302  1.1937  0.1310
  831MOL0     H14657   5.602   6.954   1.461 -0.9822  2.8516 -2.4369
  831MOL0     H14658   6.396   6.601   1.686 -1.5510 -0.6882 -0.4160
  831MOL0     H14659   6.518   6.403   1.769 -2.5229 -1.4294 -0.0090
  831MOL0     H14660   6.777   6.070   1.722  0.4041 -0.9704  0.6577
  831MOL0     H14661   6.908   5.915   1.839  0.4489 -0.1163  3.4808
  831MOL0     H14662   6.834   5.594   1.744  1.7554  2.3851  1.4090
  831MOL0     H14663   6.717   5.796   1.754 -2.7993 -0.9315 -1.2367
  831MOL0     H14664   6.360   6.123   1.703 -1.6168 -1.7758  0.9270
  831MOL0     H14665   6.222   6.297   1.762  1.7713  0.8765 -0.1214
  831MOL0     H14666   6.037   6.404   1.818 -0.2970  1.3434 -0.1852
  831MOL0     H14667   5.973   6.494   1.966  0.4851 -1.6970  3.6406
  831MOL0     H14668   6.130   6.624   1.790  0.9115 -1.9594 -1.5972
  831MOL0     H14669   6.263   6.535   1.865  0.2130  0.6352 -0.0070
  831MOL0     H14670   6.061   6.705   1.998 -0.0851  2.4891  0.3965
  831MOL0     H14671   6.197   6.616   2.087 -2.5699 -0.5134  0.6466
  831MOL0     H14672   6.227   6.851   2.078 -0.3092  1.2058 -2.0005
  831MOL0     H14673   6.211   6.846   1.903  0.8422  0.3983  0.0459
  831MOL0     H14674   6.609   6.770   1.999 -1.0000  0.6939  0.1914
  831MOL0     H14675   6.175   6.153   2.146  1.5802 -1.3427  1.5526
  831MOL0     H14676   6.240   5.937   2.207 -1.6053 -0.7287 -2.4753
  831MOL0     H14677   6.303   5.827   2.088  1.5604 -0.3774  1.3919
  831MOL0     H14678   6.411   5.932   2.176 -0.0523 -1.2751  0.9051
  832MOL0     O14679   9.090   1.010   1.495 -0.2860 -0.5309  0.0347
  832MOL0     C14680   9.038   1.027   1.385  0.2246 -0.7549  0.2818
  832MOL0     O14681   8.909   1.067   1.359  0.4388 -0.1969  0.0710
  832MOL0     C14682   8.843   1.116   1.468 -0.3419  0.3306 -0.6752
  832MOL0     C14683   8.873   1.236   1.538 -0.9707  0.9826 -0.5209
  832MOL0     C14684   8.810   1.278   1.654 -0.0139  1.0136 -0.2988
  832MOL0     C14685   8.713   1.203   1.718  0.4498  1.0923  0.5304
  832MOL0     O14686   8.658   1.262   1.835 -0.1604  0.0625 -0.0598
  832MOL0     C14687   8.561   1.181   1.897  1.3751  0.3556  0.4818
  832MOL0     C14688   8.544   1.241   2.038 -0.2377 -0.4929 -0.3599
  832MOL0     C14689   8.491   1.388   2.041 -0.2516 -0.6017  0.3489
  832MOL0     C14690   8.337   1.416   2.016 -0.0317  0.0769 -0.8456
  832MOL0     C14691   8.312   1.562   2.036 -0.1422 -0.9990  0.2464
  832MOL0     C14692   8.166   1.610   2.008 -0.1438 -0.1717 -0.4517
  832MOL0     C14693   8.053   1.532   2.079  0.2264  0.0685  1.0151
  832MOL0     C14694   8.063   1.548   2.235 -0.3203  0.2973 -0.0339
  832MOL0     N14695   8.058   1.685   2.269  0.7167 -0.4997  0.4923
  832MOL0     C14696   8.165   1.772   2.293 -0.4237 -0.4257 -0.3679
  832MOL0     C14697   8.111   1.890   2.327 -0.5106 -0.2207  0.5198
  832MOL0     C14698   8.195   2.013   2.361 -0.9121 -0.0890  0.2454
  832MOL0     C14699   8.205   1.997   2.513 -0.0922 -0.3847 -0.4811
  832MOL0     C14700   8.274   2.109   2.592 -0.7321  0.3250 -0.0755
  832MOL0     C14701   8.212   2.243   2.570 -0.3765 -1.6655  0.8318
  832MOL0     O14702   8.230   2.341   2.673 -0.0210  0.1279 -0.7669
  832MOL0     C14703   8.358   2.372   2.720  1.0958  0.6730 -0.1760
  832MOL0     C14704   8.481   2.351   2.652  0.1222 -0.7321 -0.0697
  832MOL0     C14705   8.597   2.406   2.703  0.1221  0.1627 -0.1108
  832MOL0     C14706   8.712   2.410   2.606  1.1454  0.5019 -0.4788
  832MOL0     C14707   8.594   2.471   2.829  0.9079  0.2441  0.2481
  832MOL0     C14708   8.722   2.521   2.893  0.8755 -1.2317 -0.3039
  832MOL0     O14709   8.710   2.630   2.977 -0.3010  0.7600 -0.0896
  832MOL0     C14710   8.810   2.644   3.074  0.3768 -0.4104  0.2928
  832MOL0     C14711   8.791   2.597   3.205  0.7031 -1.1155  0.8925
  832MOL0     C14712   8.890   2.618   3.298  0.6645 -0.7898  0.6202
  832MOL0     C14713   9.024   2.657   3.272  0.6327 -0.4324 -0.2352
  832MOL0     O14714   9.125   2.662   3.366 -0.5544 -0.0097  0.0946
  832MOL0     C14715   9.119   2.577   3.484 -0.1144  1.0094 -0.2996
  832MOL0     C14716   9.268   2.547   3.543 -0.3583 -0.4990  0.3508
  832MOL0     C14717   9.280   2.427   3.628  0.3329  0.5692 -1.1311
  832MOL0     C14718   9.254   2.464   3.778 -0.6037 -0.5091  0.7563
  832MOL0     C14719   9.305   2.349   3.869 -0.4224  0.4535 -0.1739
  832MOL0     C14720   9.266   2.358   4.007 -0.0747  0.6902  0.2686
  832MOL0     C14721   9.303   2.242   4.099 -1.1420 -0.1646 -0.1752
  832MOL0     C14722   9.448   2.246   4.137  0.4084 -0.5730  0.3918
  832MOL0    Cl14723   9.466   2.399   4.239 -0.0057 -0.0777  0.6322
  832MOL0     C14724   9.046   2.694   3.135  0.5181 -0.0031 -0.3188
  832MOL0     C14725   8.936   2.694   3.043 -0.6216  0.1661 -0.1761
  832MOL0     O14726   8.830   2.466   2.869  0.2937 -0.3413  0.1242
  832MOL0     C14727   8.474   2.486   2.899 -0.4748  0.9268  0.4394
  832MOL0     C14728   8.358   2.438   2.844 -0.3237  0.7853 -0.0181
  832MOL0     N14729   7.976   1.867   2.328 -0.0220 -0.1838 -0.1661
  832MOL0     N14730   7.943   1.747   2.306 -0.0703 -0.3215 -0.2146
  832MOL0     C14731   8.679   1.077   1.649 -0.5782 -0.1589 -0.8304
  832MOL0     C14732   8.743   1.036   1.523  0.9055  0.1520 -0.5030
  832MOL0     C14733   9.140   1.024   1.265 -0.4581 -0.3985  0.2152
  832MOL0     C14734   9.096   1.024   1.132 -0.2512  0.0669  0.0281
  832MOL0     C14735   9.177   1.046   1.019  0.3334  0.9256  0.0287
  832MOL0     C14736   9.309   1.045   1.038  0.9241  0.6005 -0.8961
  832MOL0     O14737   9.401   1.054   0.935  0.2947  0.3723 -0.0803
  832MOL0     C14738   9.368   1.127   0.819  0.9005  1.1368 -0.3395
  832MOL0     C14739   9.305   1.264   0.819 -0.1144 -0.6860  0.7445
  832MOL0     C14740   9.288   1.324   0.684 -0.5028  0.1027 -0.0526
  832MOL0     C14741   9.221   1.460   0.689 -0.0673 -0.0350  0.9061
  832MOL0     C14742   9.090   1.473   0.756 -0.0786  0.5330  0.3541
  832MOL0     C14743   8.974   1.494   0.797 -0.5377  0.0318 -0.3139
  832MOL0     C14744   9.363   1.025   1.164  0.2341 -0.7919 -0.6282
  832MOL0     C14745   9.284   1.022   1.285  0.0034 -0.2097 -0.5364
  832MOL0     C14746   9.359   1.026   1.416 -0.3027  0.6868 -0.0186
  832MOL0     H14747   8.948   1.305   1.501  0.7708 -1.7088 -2.4332
  832MOL0     H14748   8.840   1.372   1.698  1.3278  0.5364 -0.1666
  832MOL0     H14749   8.602   1.080   1.902 -1.6730 -0.9772  0.8325
  832MOL0     H14750   8.466   1.190   1.842  1.0316  0.1624  1.0347
  832MOL0     H14751   8.485   1.167   2.092  4.4646 -2.8448  2.2315
  832MOL0     H14752   8.646   1.242   2.078 -0.1431 -1.0719 -0.5839
  832MOL0     H14753   8.511   1.433   2.138  0.8579 -1.5249  0.5640
  832MOL0     H14754   8.547   1.441   1.964  1.6765 -2.0751  0.6422
  832MOL0     H14755   8.304   1.376   1.920  2.8280 -1.3161 -1.3632
  832MOL0     H14756   8.293   1.359   2.098 -2.5813  0.6626 -1.7088
  832MOL0     H14757   8.372   1.625   1.970  1.2766 -0.5657  1.8640
  832MOL0     H14758   8.344   1.588   2.137 -3.1065  4.3862  0.1777
  832MOL0     H14759   8.161   1.717   2.031  0.0528 -0.2437 -0.0759
  832MOL0     H14760   8.148   1.610   1.900  0.5415  0.7984 -0.5789
  832MOL0     H14761   8.066   1.426   2.055  1.9012 -0.2570  3.0810
  832MOL0     H14762   7.953   1.557   2.042  0.3253  1.0027  1.3659
  832MOL0     H14763   7.988   1.483   2.281  1.7360 -1.7405  0.6015
  832MOL0     H14764   8.163   1.515   2.263  0.9941  0.2333 -4.0919
  832MOL0     H14765   8.268   1.738   2.288 -0.2793  0.1884 -3.4816
  832MOL0     H14766   8.140   2.100   2.325 -1.2975  0.2150  1.5188
  832MOL0     H14767   8.298   2.019   2.323  0.6507 -0.5613  3.8968
  832MOL0     H14768   8.103   1.983   2.549 -0.3697  0.9882 -0.6618
  832MOL0     H14769   8.258   1.906   2.541 -0.3183 -0.2184  0.5229
  832MOL0     H14770   8.256   2.084   2.697  1.6196  1.4320  0.6593
  832MOL0     H14771   8.383   2.116   2.580 -0.8102 -0.7400 -1.6185
  832MOL0     H14772   8.249   2.283   2.475  1.7835 -2.3910  1.3186
  832MOL0     H14773   8.104   2.231   2.561 -1.0014  2.8874 -0.1753
  832MOL0     H14774   8.489   2.323   2.547  0.3382 -2.3091  0.3502
  832MOL0     H14775   8.780   2.495   2.618  2.1051 -0.4039  0.7389
  832MOL0     H14776   8.680   2.409   2.501  1.4137 -0.9677 -0.5684
  832MOL0     H14777   8.775   2.322   2.619  0.7290  0.0124 -1.6064
  832MOL0     H14778   8.691   2.576   3.241  0.8492  0.7950  2.6008
  832MOL0     H14779   8.857   2.605   3.400 -2.1627 -4.5930 -0.5558
  832MOL0     H14780   9.054   2.622   3.559 -0.0542  1.7692 -0.6897
  832MOL0     H14781   9.079   2.479   3.456  0.6512  1.1052 -1.8359
  832MOL0     H14782   9.330   2.521   3.457 -2.2096 -1.2291 -0.8165
  832MOL0     H14783   9.296   2.637   3.598 -1.1028 -0.8206  1.2777
  832MOL0     H14784   9.381   2.386   3.617  0.7297  1.4479 -0.8520
  832MOL0     H14785   9.212   2.348   3.596  0.7771  1.0676 -3.5433
  832MOL0     H14786   9.154   2.502   3.799 -1.0478 -1.5026  0.5202
  832MOL0     H14787   9.317   2.549   3.805  0.3218  0.1611 -2.9666
  832MOL0     H14788   9.258   2.263   3.822  0.4480  1.0831 -2.3057
  832MOL0     H14789   9.413   2.341   3.858 -0.5336  1.1765 -2.2670
  832MOL0     H14790   9.157   2.368   4.012 -0.2571 -1.2669  1.0690
  832MOL0     H14791   9.314   2.447   4.047  2.4076 -1.3240  2.1274
  832MOL0     H14792   9.280   2.144   4.058 -0.3399 -0.6530  0.4966
  832MOL0     H14793   9.244   2.239   4.191 -1.5389 -2.6343 -0.4548
  832MOL0     H14794   9.518   2.278   4.059  2.5564  3.6584  3.6500
  832MOL0     H14795   9.474   2.162   4.202 -0.1515 -1.6135 -0.6908
  832MOL0     H14796   9.149   2.721   3.111  0.8840 -1.5132 -0.5453
  832MOL0     H14797   8.955   2.735   2.944 -1.7985  2.9463  0.6594
  832MOL0     H14798   8.468   2.525   3.000  0.8685 -2.1296  1.8379
  832MOL0     H14799   8.263   2.463   2.891 -1.1184 -4.5633  1.9446
  832MOL0     H14800   8.606   1.008   1.690  0.1492 -1.8246 -2.2526
  832MOL0     H14801   8.724   0.936   1.485 -1.9166  0.9501 -1.4308
  832MOL0     H14802   8.988   1.019   1.122 -0.1118  1.2128 -2.9684
  832MOL0     H14803   9.131   1.058   0.921 -0.4006  1.5730  0.4394
  832MOL0     H14804   9.465   1.125   0.768  1.3302  3.6130  0.2381
  832MOL0     H14805   9.301   1.062   0.761  1.0357 -0.1745  0.9245
  832MOL0     H14806   9.375   1.324   0.878  2.1599 -3.1203  0.6885
  832MOL0     H14807   9.208   1.255   0.869 -1.3755 -1.1772 -1.6347
  832MOL0     H14808   9.384   1.327   0.630  0.0431 -4.9848  0.1700
  832MOL0     H14809   9.231   1.251   0.626 -2.1991  0.8204  0.6437
  832MOL0     H14810   9.212   1.508   0.591 -0.2133 -1.2900  0.2795
  832MOL0     H14811   9.286   1.519   0.754  0.4936  0.6012 -0.1955
  832MOL0     H14812   8.868   1.508   0.812 -0.6646 -1.1590  0.0826
  832MOL0     H14813   9.471   1.033   1.172  0.0676  0.4298  0.7973
  832MOL0     H14814   9.312   1.090   1.492  2.1740 -0.0424  2.2664
  832MOL0     H14815   9.347   0.926   1.459  1.8844 -0.4940 -1.9555
  832MOL0     H14816   9.466   1.047   1.413 -0.1793  0.0031 -1.0942
  833MOL0     O14817   3.010   2.051   0.213  0.5243  0.0604  1.0056
  833MOL0     C14818   2.927   2.098   0.135  0.0080  0.5038  0.0217
  833MOL0     O14819   2.801   2.047   0.125  0.3193 -0.1534  0.6479
  833MOL0     C14820   2.768   1.930   0.191 -0.3462  1.0865  0.0496
  833MOL0     C14821   2.703   1.935   0.305 -0.8783 -0.3079 -0.9351
  833MOL0     C14822   2.669   1.813   0.368 -0.2934 -0.0413 -0.6408
  833MOL0     C14823   2.694   1.689   0.306  0.2540  0.2407 -0.3781
  833MOL0     O14824   2.664   1.561   0.365 -0.4689 -0.2640  0.0609
  833MOL0     C14825   2.672   1.556   0.509 -0.6040  0.6716 -0.1853
  833MOL0     C14826   2.815   1.564   0.550 -0.0498 -1.3699  0.0941
  833MOL0     C14827   2.831   1.589   0.710 -0.7695  0.4750 -0.1410
  833MOL0     C14828   2.978   1.559   0.753 -0.3312 -0.1240 -0.3334
  833MOL0     C14829   3.009   1.410   0.763 -0.0087 -0.1275 -0.5989
  833MOL0     C14830   3.146   1.371   0.810 -1.1984 -0.3547  0.2798
  833MOL0     C14831   3.157   1.392   0.957 -0.2625  0.1791  0.2264
  833MOL0     C14832   3.266   1.286   1.008  0.3586 -0.8596 -0.4145
  833MOL0     N14833   3.330   1.330   1.133  0.3101 -0.3256  0.5338
  833MOL0     C14834   3.355   1.458   1.178  0.8185 -0.2999  0.6147
  833MOL0     C14835   3.439   1.447   1.286 -0.0436  0.7008 -0.2416
  833MOL0     C14836   3.500   1.543   1.385 -1.2297 -0.8392 -0.1921
  833MOL0     C14837   3.656   1.550   1.378  0.1862 -0.1523 -0.2538
  833MOL0     C14838   3.706   1.639   1.497  0.7212 -0.1608  0.5047
  833MOL0     C14839   3.857   1.650   1.496 -0.4429 -0.3977  0.2822
  833MOL0     O14840   3.925   1.735   1.402 -0.3525  0.2640 -0.1019
  833MOL0     C14841   3.987   1.843   1.462 -0.8587  1.0772  0.8334
  833MOL0     C14842   4.087   1.826   1.558 -1.1140  0.5022 -1.2653
  833MOL0     C14843   4.159   1.935   1.611 -0.3054  0.4317  0.9916
  833MOL0     C14844   4.262   1.901   1.720  0.4367  0.0046  0.1829
  833MOL0     C14845   4.139   2.065   1.547 -0.5512  0.0600  0.8632
  833MOL0     C14846   4.236   2.181   1.556  0.4917 -0.2306 -1.0209
  833MOL0     O14847   4.360   2.149   1.592  0.3429 -0.1280 -0.4040
  833MOL0     C14848   4.458   2.250   1.589 -0.5127 -0.5200 -0.1899
  833MOL0     C14849   4.487   2.339   1.702  0.1759  0.4742  0.5706
  833MOL0     C14850   4.567   2.452   1.684 -0.3482 -0.1089 -0.4694
  833MOL0     C14851   4.651   2.471   1.567  0.4786  0.6827  0.6897
  833MOL0     O14852   4.745   2.568   1.580 -0.1014  0.1411 -0.8921
  833MOL0     C14853   4.816   2.621   1.464 -0.6225 -0.5429 -0.0621
  833MOL0     C14854   4.731   2.730   1.387  0.3919  0.6256 -0.3211
  833MOL0     C14855   4.657   2.662   1.268 -0.0086 -0.2325  0.1863
  833MOL0     C14856   4.580   2.770   1.180 -0.0771  1.0826 -0.5838
  833MOL0     C14857   4.501   2.708   1.069 -0.5760 -0.7740  0.0271
  833MOL0     C14858   4.573   2.718   0.927 -0.3986 -0.0949  0.5691
  833MOL0     C14859   4.551   2.857   0.859  0.0230  1.5864  0.2708
  833MOL0     C14860   4.619   2.859   0.721  0.3183 -0.0501  0.7252
  833MOL0    Cl14861   4.794   2.845   0.734  0.8057 -0.3494 -0.3300
  833MOL0     C14862   4.629   2.377   1.462 -0.9553 -0.0915 -0.1845
  833MOL0     C14863   4.528   2.278   1.472  0.0936 -0.4547 -0.0774
  833MOL0     O14864   4.192   2.292   1.536  0.0104  0.1498  0.5940
  833MOL0     C14865   4.023   2.074   1.457 -0.6805  0.7614  0.3708
  833MOL0     C14866   3.953   1.967   1.415  0.3512 -0.2072 -0.2161
  833MOL0     N14867   3.466   1.315   1.305  0.3245 -0.2614  0.5104
  833MOL0     N14868   3.397   1.255   1.211  0.0474 -0.4290 -0.9289
  833MOL0     C14869   2.759   1.693   0.177 -0.3372  0.3313 -0.1097
  833MOL0     C14870   2.794   1.810   0.117  0.0149 -1.0734 -1.1125
  833MOL0     C14871   2.971   2.212   0.055  0.0091  0.7194 -0.6667
  833MOL0     C14872   2.888   2.324   0.055 -0.1143 -0.1289 -0.6524
  833MOL0     C14873   2.926   2.442  -0.008 -0.0693  0.5683 -0.4845
  833MOL0     C14874   3.042   2.453  -0.076 -0.7015  0.0489 -0.6326
  833MOL0     O14875   3.103   2.563  -0.136  1.0832  0.0772  0.4910
  833MOL0     C14876   3.045   2.691  -0.128 -0.7673  0.3457  0.0884
  833MOL0     C14877   2.929   2.706  -0.223  0.4793  0.2573 -0.2224
  833MOL0     C14878   2.858   2.839  -0.192  0.3578  0.5151 -0.4218
  833MOL0     C14879   2.952   2.945  -0.244  0.3390 -0.9260  0.3456
  833MOL0     C14880   3.022   3.016  -0.126  0.9399  0.8209  0.7518
  833MOL0     C14881   3.082   3.047  -0.024  0.9953 -0.7949 -0.1049
  833MOL0     C14882   3.123   2.338  -0.085 -0.5301 -0.1791 -0.0722
  833MOL0     C14883   3.088   2.218  -0.014  0.0218  0.1504  0.4987
  833MOL0     C14884   3.180   2.102  -0.017 -0.8846 -0.0685  0.6815
  833MOL0     H14885   2.695   2.033   0.351  2.8117 -0.4359  0.3129
  833MOL0     H14886   2.616   1.819   0.462 -1.3941 -1.7613 -1.1028
  833MOL0     H14887   2.640   1.458   0.545 -0.4646  0.7511  0.1499
  833MOL0     H14888   2.618   1.639   0.556  0.4091  1.8569 -1.0290
  833MOL0     H14889   2.876   1.478   0.525  2.4800  0.0096  1.1142
  833MOL0     H14890   2.857   1.646   0.491 -2.8515  0.1655  0.0065
  833MOL0     H14891   2.811   1.695   0.726  2.8302  1.3094 -0.3181
  833MOL0     H14892   2.767   1.523   0.770  0.7480 -1.0650 -0.1065
  833MOL0     H14893   3.053   1.599   0.683  0.0351  0.2432  0.2609
  833MOL0     H14894   3.001   1.611   0.847 -0.7805 -0.9892  0.2620
  833MOL0     H14895   2.996   1.363   0.665 -3.1950 -1.1996  0.2088
  833MOL0     H14896   2.944   1.349   0.826 -0.6284 -1.7928 -2.7154
  833MOL0     H14897   3.171   1.272   0.772 -1.7141 -1.2086  2.0719
  833MOL0     H14898   3.225   1.432   0.764 -0.1336 -1.4672  0.5769
  833MOL0     H14899   3.065   1.377   1.014  0.0280  0.2615  0.7266
  833MOL0     H14900   3.188   1.495   0.975 -1.1312  0.3061  1.0224
  833MOL0     H14901   3.222   1.187   1.023  3.0090 -2.1044 -0.3095
  833MOL0     H14902   3.344   1.267   0.933  1.9089 -4.5718  1.8557
  833MOL0     H14903   3.317   1.552   1.140 -0.6123 -0.8182  0.7112
  833MOL0     H14904   3.485   1.502   1.486  2.2182 -0.4549  0.6018
  833MOL0     H14905   3.448   1.638   1.372  0.6537  0.1425 -0.8640
  833MOL0     H14906   3.696   1.449   1.387  1.8498  0.5175  0.3567
  833MOL0     H14907   3.691   1.599   1.286 -1.2248  1.3709 -0.0290
  833MOL0     H14908   3.661   1.739   1.497  0.9453 -0.0036 -1.9041
  833MOL0     H14909   3.661   1.588   1.583 -2.3500  0.5326 -0.5570
  833MOL0     H14910   3.884   1.678   1.598 -1.3786 -1.0195  0.7121
  833MOL0     H14911   3.892   1.548   1.475 -1.2868 -0.8790  1.1385
  833MOL0     H14912   4.104   1.725   1.593  1.7127  1.7812  1.5674
  833MOL0     H14913   4.356   1.872   1.672  0.2772 -0.0104 -0.1217
  833MOL0     H14914   4.237   1.812   1.779 -3.0592  1.7769  1.6505
  833MOL0     H14915   4.270   1.990   1.783  0.2328  0.0758  0.1070
  833MOL0     H14916   4.425   2.339   1.791  1.0074 -0.0333  1.1722
  833MOL0     H14917   4.561   2.523   1.766 -1.5579 -2.7813  1.9201
  833MOL0     H14918   4.909   2.666   1.498 -0.0811 -0.6589 -1.3263
  833MOL0     H14919   4.846   2.534   1.404  0.3082  2.0040 -3.5974
  833MOL0     H14920   4.663   2.782   1.456  1.8420  3.0627 -0.6211
  833MOL0     H14921   4.801   2.806   1.352  0.0906  2.3008  2.3647
  833MOL0     H14922   4.579   2.592   1.299 -0.1213 -0.7576 -1.2175
  833MOL0     H14923   4.718   2.594   1.208  0.5532  0.6009 -0.2153
  833MOL0     H14924   4.653   2.845   1.147 -0.4505  1.7471  0.0510
  833MOL0     H14925   4.529   2.836   1.252  2.9381  0.7357  2.1217
  833MOL0     H14926   4.490   2.603   1.096 -1.8693 -1.1629 -1.8640
  833MOL0     H14927   4.405   2.758   1.053  0.2910  0.2751 -2.4556
  833MOL0     H14928   4.538   2.635   0.865  1.4029 -0.6720  0.2688
  833MOL0     H14929   4.682   2.712   0.933 -0.3702  1.3121  1.8107
  833MOL0     H14930   4.613   2.932   0.910  0.1829  0.1162  2.3367
  833MOL0     H14931   4.447   2.889   0.851  0.7938  3.8331 -3.4301
  833MOL0     H14932   4.601   2.957   0.677  1.1708 -1.1840 -2.3878
  833MOL0     H14933   4.571   2.784   0.659  2.9541 -2.9048  1.8513
  833MOL0     H14934   4.691   2.389   1.374 -2.4566 -0.5551 -1.3396
  833MOL0     H14935   4.509   2.218   1.383  0.7440  0.8655 -1.1550
  833MOL0     H14936   4.000   2.167   1.406  2.3445  1.3110 -0.1920
  833MOL0     H14937   3.889   1.976   1.327 -0.8582  1.4923  0.7761
  833MOL0     H14938   2.779   1.603   0.120  2.5279 -0.6816  2.2274
  833MOL0     H14939   2.825   1.812   0.012  0.8453 -2.1175 -0.9070
  833MOL0     H14940   2.798   2.316   0.115  1.4522  3.8988  2.7821
  833MOL0     H14941   2.856   2.523   0.013  0.5062  0.7168  0.9687
  833MOL0     H14942   3.015   2.712  -0.025 -1.1572 -1.6435  0.4238
  833MOL0     H14943   3.126   2.761  -0.150 -0.6771 -0.1593 -1.3087
  833MOL0     H14944   2.856   2.624  -0.222  0.0231  0.6349 -1.3218
  833MOL0     H14945   2.964   2.707  -0.327 -0.3682  1.1093 -0.5182
  833MOL0     H14946   2.764   2.831  -0.247 -0.4013 -0.7189  0.9677
  833MOL0     H14947   2.828   2.842  -0.087  0.8667 -5.0956  0.1903
  833MOL0     H14948   2.886   3.014  -0.298 -0.9960 -1.0024  1.7990
  833MOL0     H14949   3.025   2.914  -0.319  0.8734 -0.5142  0.6950
  833MOL0     H14950   3.117   3.061   0.076 -1.1121 -0.1034  0.6024
  833MOL0     H14951   3.216   2.340  -0.141 -0.5192 -1.9854 -0.1868
  833MOL0     H14952   3.255   2.113  -0.096 -0.6928 -0.3827  0.8117
  833MOL0     H14953   3.233   2.097   0.080  4.6411 -3.5293 -1.9692
  833MOL0     H14954   3.118   2.012  -0.025 -1.2938  0.1250  1.5387
  834MOL0     O14955   4.256   6.974   9.040  0.3661  0.1079  0.7759
  834MOL0     C14956   4.266   6.990   8.917 -0.3028  1.3439 -0.0774
  834MOL0     O14957   4.343   7.090   8.863  0.0574 -0.0818 -0.5495
  834MOL0     C14958   4.376   7.205   8.933 -0.2067  0.0060 -0.4346
  834MOL0     C14959   4.325   7.259   9.056 -0.3468  0.8688 -0.5131
  834MOL0     C14960   4.356   7.391   9.100  0.3462 -0.0488 -0.0728
  834MOL0     C14961   4.454   7.459   9.028 -0.8409 -0.1052 -0.3859
  834MOL0     O14962   4.472   7.592   9.078 -0.1797  0.0229 -0.4873
  834MOL0     C14963   4.570   7.672   9.011  0.3383 -0.0027  0.0837
  834MOL0     C14964   4.720   7.639   9.037  0.0239 -0.4645  0.0203
  834MOL0     C14965   4.767   7.661   9.187 -0.6936 -1.1040 -0.2703
  834MOL0     C14966   4.918   7.658   9.179 -0.1972 -0.5881  0.3449
  834MOL0     C14967   4.997   7.632   9.301  0.6560 -0.0212  0.0748
  834MOL0     C14968   4.988   7.737   9.408  0.2158 -1.0605 -1.1615
  834MOL0     C14969   5.034   7.685   9.552  0.6788 -0.7997 -0.3124
  834MOL0     C14970   4.958   7.768   9.651  0.2698  0.8916 -0.0851
  834MOL0     N14971   5.025   7.779   9.784 -0.7771 -0.0482  0.2978
  834MOL0     C14972   5.033   7.684   9.883  0.1328  0.0821 -0.6982
  834MOL0     C14973   5.086   7.743   9.988  0.2850  0.4518  0.7147
  834MOL0     C14974   5.097   7.673  10.118  0.3814 -1.4516  0.2245
  834MOL0     C14975   5.190   7.557  10.127  0.4468  0.6260 -0.1592
  834MOL0     C14976   5.335   7.610  10.143 -0.3338  1.0428 -0.1758
  834MOL0     C14977   5.425   7.570  10.026  0.4991 -0.9040  0.0607
  834MOL0     O14978   5.528   7.671  10.014 -0.8703  0.3492  0.2798
  834MOL0     C14979   5.663   7.637   9.984  0.0276 -0.3227 -0.1522
  834MOL0     C14980   5.710   7.517   9.933  0.1630  0.0813 -0.4954
  834MOL0     C14981   5.838   7.498   9.904 -0.4115  0.0211  0.1505
  834MOL0     C14982   5.868   7.364   9.831  0.8539  0.2707 -0.4011
  834MOL0     C14983   5.938   7.601   9.916 -0.2526 -0.6664 -0.2630
  834MOL0     C14984   6.084   7.578   9.880  0.4560  0.1929  1.0695
  834MOL0     O14985   6.160   7.688   9.912  0.0591  0.3648  0.0624
  834MOL0     C14986   6.293   7.669   9.898  0.0604  0.5328  0.0404
  834MOL0     C14987   6.361   7.746   9.801 -0.5739  0.7293  0.1373
  834MOL0     C14988   6.501   7.725   9.770 -0.3187 -1.2268 -0.2200
  834MOL0     C14989   6.573   7.624   9.833  0.0081  0.4001 -0.5498
  834MOL0     O14990   6.703   7.587   9.807  0.6085 -0.6635  1.1053
  834MOL0     C14991   6.711   7.496   9.703 -0.3955  0.4009 -0.7032
  834MOL0     C14992   6.716   7.564   9.568 -0.2944  0.4191  0.1740
  834MOL0     C14993   6.803   7.697   9.565  0.4753  0.1992  0.1560
  834MOL0     C14994   6.947   7.665   9.543 -0.0635  0.3824  0.6908
  834MOL0     C14995   7.042   7.784   9.550 -0.0398 -0.3137  0.4323
  834MOL0     C14996   7.188   7.758   9.536 -0.5046 -0.2364  0.0904
  834MOL0     C14997   7.259   7.674   9.644  0.2107  0.6750 -0.1145
  834MOL0     C14998   7.252   7.734   9.780 -0.1655 -0.1930 -1.0759
  834MOL0    Cl14999   7.337   7.651   9.909  0.4098 -0.0153  0.2578
  834MOL0     C15000   6.504   7.552   9.936  0.4711 -0.4957 -0.3237
  834MOL0     C15001   6.362   7.568   9.958  0.5124 -0.2883 -0.4473
  834MOL0     O15002   6.127   7.471   9.850 -0.4728  0.6650 -0.2524
  834MOL0     C15003   5.897   7.724   9.968  1.3990 -0.2748 -0.4209
  834MOL0     C15004   5.760   7.745   9.993  0.0977 -0.0124 -0.0536
  834MOL0     N15005   5.125   7.869   9.961  0.3300  0.4692 -0.4092
  834MOL0     N15006   5.099   7.884   9.838  0.3313 -0.0911 -0.2349
  834MOL0     C15007   4.514   7.401   8.913  0.5212  0.0706  0.6650
  834MOL0     C15008   4.472   7.281   8.867  0.2748 -0.1117 -0.0564
  834MOL0     C15009   4.194   6.891   8.827 -0.2317  0.5287 -1.0322
  834MOL0     C15010   4.228   6.874   8.689  0.8373  0.4676 -0.9365
  834MOL0     C15011   4.160   6.780   8.609  0.0833  0.1013  0.5910
  834MOL0     C15012   4.059   6.690   8.653 -0.9571 -1.0272  0.3517
  834MOL0     O15013   4.027   6.571   8.581  0.3127 -0.6836  0.1447
  834MOL0     C15014   3.967   6.467   8.655 -0.5140  0.0353  0.4992
  834MOL0     C15015   4.065   6.375   8.730 -0.4989  0.1867  0.1371
  834MOL0     C15016   4.174   6.334   8.644 -0.0104 -0.7541 -0.2463
  834MOL0     C15017   4.250   6.229   8.726  0.3674 -0.2258 -0.8992
  834MOL0     C15018   4.351   6.164   8.645  1.2770 -0.3322  0.1124
  834MOL0     C15019   4.427   6.108   8.570  0.0293 -0.0578  0.5778
  834MOL0     C15020   4.019   6.714   8.790 -0.4402 -0.1193  0.2565
  834MOL0     C15021   4.081   6.820   8.868  0.8514  0.4440 -0.1968
  834MOL0     C15022   4.018   6.834   9.007  0.4298 -0.6610 -0.5164
  834MOL0     H15023   4.244   7.209   9.109  0.4452 -1.7996 -1.6364
  834MOL0     H15024   4.317   7.430   9.194 -2.2681 -1.2968 -0.5462
  834MOL0     H15025   4.553   7.777   9.034  0.9819  0.4921 -1.6030
  834MOL0     H15026   4.544   7.665   8.906 -2.0401  1.8244  0.4791
  834MOL0     H15027   4.746   7.535   9.015 -0.4361 -0.2984 -1.4783
  834MOL0     H15028   4.781   7.704   8.973  1.7515 -0.6869  1.3808
  834MOL0     H15029   4.742   7.762   9.220 -0.0804 -1.4493  1.3462
  834MOL0     H15030   4.740   7.575   9.250  1.5448 -1.6091  0.0783
  834MOL0     H15031   4.953   7.570   9.123  2.6865 -0.8429  2.3366
  834MOL0     H15032   4.956   7.755   9.146  0.1077  1.7241  6.2912
  834MOL0     H15033   5.100   7.612   9.273  0.2995  1.0388 -2.2052
  834MOL0     H15034   4.958   7.540   9.345 -1.3730  0.8264  0.2168
  834MOL0     H15035   5.052   7.823   9.386 -0.3943 -0.0416  0.7560
  834MOL0     H15036   4.886   7.777   9.412  0.5544 -0.2861  0.3262
  834MOL0     H15037   5.142   7.699   9.554  0.6442 -0.5772  1.0224
  834MOL0     H15038   5.014   7.578   9.562  1.0890 -1.2118 -3.0283
  834MOL0     H15039   4.961   7.867   9.606 -2.6334  1.4408  0.6845
  834MOL0     H15040   4.853   7.739   9.662  0.2693  1.1885  0.7447
  834MOL0     H15041   4.997   7.581   9.882 -0.4857  0.2775  0.6617
  834MOL0     H15042   4.999   7.631  10.145  0.1806 -0.1025  1.7428
  834MOL0     H15043   5.126   7.749  10.191  1.9137  0.6820 -2.4112
  834MOL0     H15044   5.169   7.495  10.215  2.1952 -1.8654 -1.4092
  834MOL0     H15045   5.176   7.486  10.046  0.8463  0.6088 -0.2115
  834MOL0     H15046   5.343   7.719  10.148  0.2515  1.1621 -2.5961
  834MOL0     H15047   5.384   7.558  10.225 -1.0965  2.8916  1.5373
  834MOL0     H15048   5.454   7.465  10.025 -1.5991 -1.5264 -0.3127
  834MOL0     H15049   5.365   7.579   9.935 -2.3958 -2.7260  1.6434
  834MOL0     H15050   5.638   7.437   9.921  0.4746 -0.0331 -1.7582
  834MOL0     H15051   5.905   7.381   9.730  2.2081 -0.8310 -0.1230
  834MOL0     H15052   5.783   7.295   9.830  2.0439 -1.2861 -2.4835
  834MOL0     H15053   5.933   7.298   9.891 -0.6439  1.6228  2.9819
  834MOL0     H15054   6.307   7.823   9.746  1.0821  0.7875 -1.5240
  834MOL0     H15055   6.542   7.787   9.691  1.4303 -0.9637  0.8375
  834MOL0     H15056   6.807   7.446   9.719 -0.3965  0.5811 -0.1229
  834MOL0     H15057   6.639   7.415   9.714 -0.3261  0.6661  2.6545
  834MOL0     H15058   6.755   7.498   9.490  0.6846  1.9590 -0.6911
  834MOL0     H15059   6.612   7.589   9.542 -0.5478 -1.7837 -1.1604
  834MOL0     H15060   6.795   7.749   9.661  4.8183 -0.5266  1.1317
  834MOL0     H15061   6.755   7.757   9.488 -0.4739  1.4259  1.6284
  834MOL0     H15062   6.959   7.616   9.446 -1.1556 -0.5935  1.0340
  834MOL0     H15063   6.977   7.591   9.617  1.9028  0.0542 -0.3594
  834MOL0     H15064   6.998   7.860   9.485  1.2723  2.6005  2.7303
  834MOL0     H15065   7.021   7.843   9.640 -0.6926 -2.3759  1.6939
  834MOL0     H15066   7.235   7.857   9.528 -1.3350  0.0657 -1.6755
  834MOL0     H15067   7.213   7.692   9.453  2.6396 -0.6732  1.2646
  834MOL0     H15068   7.360   7.654   9.607 -0.4789 -1.6909 -0.9042
  834MOL0     H15069   7.217   7.573   9.646  0.2397  0.4816 -3.3499
  834MOL0     H15070   7.148   7.721   9.810  0.0255 -1.4069 -0.8973
  834MOL0     H15071   7.296   7.835   9.779  2.2529 -1.1586  0.2431
  834MOL0     H15072   6.543   7.469   9.994 -1.1062 -0.6287  0.6053
  834MOL0     H15073   6.305   7.510  10.030 -0.8655 -0.3107 -1.5281
  834MOL0     H15074   5.970   7.802   9.984  0.5880  0.8551 -1.9171
  834MOL0     H15075   5.724   7.840  10.031  0.8360  0.8375 -1.3986
  834MOL0     H15076   4.589   7.452   8.854  0.8311  0.0566  1.0364
  834MOL0     H15077   4.518   7.239   8.778  3.6141  1.8864  0.5664
  834MOL0     H15078   4.312   6.929   8.648 -0.7791  2.5389 -1.6911
  834MOL0     H15079   4.179   6.762   8.504 -0.5667  0.4893  0.4018
  834MOL0     H15080   3.885   6.503   8.718 -3.0418  3.1977 -4.0719
  834MOL0     H15081   3.915   6.401   8.584  0.8643  0.4672 -0.9792
  834MOL0     H15082   4.009   6.286   8.760 -0.3208  1.1607  3.9301
  834MOL0     H15083   4.091   6.440   8.814 -0.5882  0.9304 -0.4087
  834MOL0     H15084   4.138   6.297   8.547 -1.0785 -0.8998  0.1875
  834MOL0     H15085   4.235   6.422   8.622  0.1039  0.0550  2.8450
  834MOL0     H15086   4.186   6.143   8.750  1.7708 -1.0271  0.1293
  834MOL0     H15087   4.291   6.269   8.819 -1.6388 -0.2285  0.0562
  834MOL0     H15088   4.485   6.044   8.506 -0.3595 -1.1937  1.3236
  834MOL0     H15089   3.935   6.657   8.828  1.3809 -2.3513  1.1703
  834MOL0     H15090   4.031   6.930   9.058  3.3963 -1.2144 -0.0234
  834MOL0     H15091   3.911   6.814   9.007  0.0862  0.8782 -2.1704
  834MOL0     H15092   4.072   6.763   9.071  2.9557  0.5686 -1.1245
  835MOL0     O15093   3.733   0.968   5.002  0.3334  0.3559 -0.3814
  835MOL0     C15094   3.757   1.082   4.983  0.0302 -0.6180  0.6278
  835MOL0     O15095   3.747   1.136   4.859 -0.1846 -0.7146 -0.6027
  835MOL0     C15096   3.660   1.082   4.773  0.0514  1.1847  0.5262
  835MOL0     C15097   3.701   1.080   4.640 -0.0280  0.3249  1.3813
  835MOL0     C15098   3.626   1.017   4.536  0.2023  0.8589 -0.5497
  835MOL0     C15099   3.510   0.952   4.567 -0.0568  0.0281 -0.5314
  835MOL0     O15100   3.436   0.874   4.478  0.3082 -0.6839  0.4900
  835MOL0     C15101   3.484   0.872   4.337 -0.2379  0.6229  0.9831
  835MOL0     C15102   3.404   0.778   4.250  0.3201 -0.3526  0.0171
  835MOL0     C15103   3.360   0.640   4.321 -0.3874  0.3802  0.3880
  835MOL0     C15104   3.258   0.562   4.246  0.1808  0.0551  0.5084
  835MOL0     C15105   3.234   0.431   4.319 -0.0349 -0.1020 -0.1483
  835MOL0     C15106   3.119   0.341   4.273  0.6067 -0.6315  0.2971
  835MOL0     C15107   3.150   0.198   4.308 -0.8586  0.2860 -0.8893
  835MOL0     C15108   3.227   0.122   4.198  0.2492  0.4772  0.0843
  835MOL0     N15109   3.264  -0.020   4.242 -0.1239 -0.1658  0.5172
  835MOL0     C15110   3.168  -0.113   4.285 -0.4831 -0.1037 -1.3321
  835MOL0     C15111   3.232  -0.230   4.270 -0.1553  0.3065 -0.2995
  835MOL0     C15112   3.180  -0.362   4.306  0.7794  0.1613  0.0436
  835MOL0     C15113   3.237  -0.395   4.442  0.5821  0.2745 -0.2307
  835MOL0     C15114   3.221  -0.544   4.480  0.7644 -0.2734 -0.5596
  835MOL0     C15115   3.269  -0.572   4.619 -0.0545  0.6625  0.7315
  835MOL0     O15116   3.243  -0.472   4.715 -0.1789 -0.2170 -0.2035
  835MOL0     C15117   3.252  -0.500   4.848 -0.3078  0.5431  0.3569
  835MOL0     C15118   3.229  -0.625   4.912 -0.5428 -0.4497 -0.4005
  835MOL0     C15119   3.244  -0.627   5.054  0.5711  1.1573 -0.2574
  835MOL0     C15120   3.233  -0.761   5.127 -0.5762 -0.0756 -0.8666
  835MOL0     C15121   3.277  -0.507   5.124 -0.5615 -0.1842  0.3958
  835MOL0     C15122   3.305  -0.494   5.268 -0.9765 -0.1533  0.3277
  835MOL0     O15123   3.398  -0.403   5.307  0.3367  0.3084 -0.1399
  835MOL0     C15124   3.424  -0.363   5.434  0.1853  1.0586  0.3544
  835MOL0     C15125   3.559  -0.341   5.473 -1.0454  0.3979 -0.6331
  835MOL0     C15126   3.583  -0.309   5.612  0.3161  0.3187  0.2538
  835MOL0     C15127   3.481  -0.280   5.695  1.1377  0.5540  0.2062
  835MOL0     O15128   3.517  -0.238   5.823 -0.2366  0.8003 -0.0120
  835MOL0     C15129   3.416  -0.260   5.925  1.1990 -0.2487 -0.0548
  835MOL0     C15130   3.491  -0.266   6.061  0.1474 -0.0254  1.0210
  835MOL0     C15131   3.402  -0.320   6.178  0.2804  0.2505 -0.1178
  835MOL0     C15132   3.281  -0.239   6.191  0.1653  0.4932 -0.2081
  835MOL0     C15133   3.206  -0.284   6.325  0.3069  0.2933  0.5710
  835MOL0     C15134   3.067  -0.208   6.340 -0.9674  0.4670  0.2507
  835MOL0     C15135   2.974  -0.223   6.213 -0.1605 -0.9960 -0.5605
  835MOL0     C15136   2.830  -0.202   6.256  0.1445 -0.3732 -0.2042
  835MOL0    Cl15137   2.759  -0.052   6.219 -0.5395  0.2040  0.0928
  835MOL0     C15138   3.348  -0.293   5.655 -0.1376 -0.3065 -0.4410
  835MOL0     C15139   3.316  -0.337   5.526  0.5962  0.0703  1.0136
  835MOL0     O15140   3.248  -0.574   5.339  0.1861  0.2812  0.4991
  835MOL0     C15141   3.289  -0.384   5.051  0.2370 -0.4069 -0.2366
  835MOL0     C15142   3.267  -0.385   4.921 -0.0110  1.3246 -0.5848
  835MOL0     N15143   3.351  -0.215   4.211  0.2256  0.2204 -0.8608
  835MOL0     N15144   3.380  -0.091   4.216  0.4003  0.3429 -0.2203
  835MOL0     C15145   3.458   0.971   4.697  0.1242 -0.1522 -0.5776
  835MOL0     C15146   3.535   1.032   4.797  0.3850  0.3072 -0.1329
  835MOL0     C15147   3.789   1.169   5.092 -0.3671 -0.9718  0.0677
  835MOL0     C15148   3.731   1.295   5.099 -1.2229 -0.1906 -1.1024
  835MOL0     C15149   3.754   1.375   5.203  0.2926 -1.0392 -0.2335
  835MOL0     C15150   3.833   1.345   5.312  0.7878  0.0983  0.9703
  835MOL0     O15151   3.823   1.399   5.438  0.2769 -0.3356  0.8244
  835MOL0     C15152   3.792   1.536   5.459  0.1637 -0.5826 -0.2385
  835MOL0     C15153   3.920   1.614   5.422  0.6654  0.8007 -0.8537
  835MOL0     C15154   3.897   1.759   5.403 -0.1253 -0.0927 -0.0473
  835MOL0     C15155   3.783   1.811   5.306  0.1832 -0.5645  0.6518
  835MOL0     C15156   3.765   1.757   5.173  0.4990  0.4106  0.1477
  835MOL0     C15157   3.760   1.719   5.059  0.1943 -0.3721  1.1614
  835MOL0     C15158   3.903   1.218   5.298  0.2690 -1.0027 -0.3651
  835MOL0     C15159   3.881   1.130   5.194  0.7804  0.6887  0.4119
  835MOL0     C15160   3.970   1.013   5.176 -0.6983  0.4849 -0.0403
  835MOL0     H15161   3.792   1.135   4.615 -0.5424  1.0837  1.1415
  835MOL0     H15162   3.672   1.014   4.437 -0.0267 -0.2545 -0.6326
  835MOL0     H15163   3.590   0.847   4.328  0.1661  2.6537 -0.9327
  835MOL0     H15164   3.478   0.973   4.295 -0.9195  0.9748  1.8841
  835MOL0     H15165   3.316   0.835   4.221  1.6385  0.7747 -2.0296
  835MOL0     H15166   3.466   0.753   4.163  0.7680 -3.2414  1.0579
  835MOL0     H15167   3.443   0.571   4.339 -0.2422  0.2973 -0.5668
  835MOL0     H15168   3.316   0.666   4.418 -0.6157 -0.4377  0.5147
  835MOL0     H15169   3.164   0.618   4.236 -0.2282 -0.8639 -1.1532
  835MOL0     H15170   3.299   0.543   4.146  1.0369  2.4837  0.3480
  835MOL0     H15171   3.223   0.449   4.426 -2.1845 -0.9095 -0.1871
  835MOL0     H15172   3.329   0.378   4.304  1.2248  1.6519  1.2981
  835MOL0     H15173   3.025   0.372   4.321 -0.6110 -0.7255 -1.9272
  835MOL0     H15174   3.105   0.348   4.165  0.5214 -4.5056 -0.0900
  835MOL0     H15175   3.051   0.159   4.333 -1.1859  3.4685  4.2612
  835MOL0     H15176   3.219   0.204   4.392  0.4674 -3.0622 -1.6173
  835MOL0     H15177   3.155   0.106   4.117 -0.8411 -0.0810  1.1427
  835MOL0     H15178   3.319   0.171   4.166 -0.5786  0.3281 -2.8949
  835MOL0     H15179   3.074  -0.083   4.329  0.0628  0.7242 -0.7191
  835MOL0     H15180   3.219  -0.432   4.232 -0.5179  1.0953 -1.5999
  835MOL0     H15181   3.071  -0.367   4.301  0.6025  0.3429  2.3782
  835MOL0     H15182   3.345  -0.375   4.439  0.3764  1.4368 -0.2269
  835MOL0     H15183   3.194  -0.327   4.517 -2.6133  0.1093 -1.7485
  835MOL0     H15184   3.116  -0.572   4.471 -0.1297  1.4245  2.8222
  835MOL0     H15185   3.295  -0.593   4.416  1.0878 -0.5764  0.0365
  835MOL0     H15186   3.229  -0.671   4.644 -1.3082  1.0718  0.4090
  835MOL0     H15187   3.378  -0.579   4.608 -0.3843 -1.0343 -4.3458
  835MOL0     H15188   3.217  -0.718   4.858  1.6691 -1.2223  0.3161
  835MOL0     H15189   3.217  -0.841   5.054  1.8144  0.1040 -1.6891
  835MOL0     H15190   3.152  -0.759   5.200 -1.4566  1.6055 -1.8257
  835MOL0     H15191   3.331  -0.783   5.171  1.0728  4.1063 -1.9258
  835MOL0     H15192   3.636  -0.361   5.400 -1.0105  0.3659 -0.5880
  835MOL0     H15193   3.687  -0.292   5.637  0.6969  1.6387 -2.0128
  835MOL0     H15194   3.345  -0.177   5.922  1.6156  0.0868 -1.3423
  835MOL0     H15195   3.361  -0.353   5.905 -0.7613  1.1677 -1.6745
  835MOL0     H15196   3.577  -0.332   6.045 -1.2923 -2.1784  1.7862
  835MOL0     H15197   3.539  -0.174   6.097  2.5152 -1.3598  1.4792
  835MOL0     H15198   3.474  -0.328   6.260 -1.0559 -1.7010  0.9378
  835MOL0     H15199   3.362  -0.421   6.168  1.4416 -0.2517  0.2043
  835MOL0     H15200   3.218  -0.254   6.102  0.3348  0.0353 -0.2510
  835MOL0     H15201   3.309  -0.135   6.208 -0.5562  1.0895 -2.3317
  835MOL0     H15202   3.182  -0.389   6.304 -1.9403  1.1074 -1.4095
  835MOL0     H15203   3.246  -0.275   6.426  0.9616 -2.6099  0.6591
  835MOL0     H15204   3.083  -0.103   6.363 -2.9780  0.1714  3.7684
  835MOL0     H15205   3.021  -0.240   6.434  2.1271  2.6567  2.7105
  835MOL0     H15206   2.998  -0.329   6.197  2.7672 -0.9139  2.2579
  835MOL0     H15207   3.010  -0.157   6.133 -1.2543  0.3899  0.0662
  835MOL0     H15208   2.819  -0.222   6.363  2.7346 -1.0517  0.0062
  835MOL0     H15209   2.761  -0.272   6.207 -1.8414 -1.0624  3.2491
  835MOL0     H15210   3.273  -0.263   5.727 -1.3169  1.6487 -2.3704
  835MOL0     H15211   3.215  -0.347   5.489  1.5903 -3.0139 -1.2648
  835MOL0     H15212   3.301  -0.294   5.110 -0.9291  0.1447 -0.8014
  835MOL0     H15213   3.285  -0.290   4.871  0.3214  0.4186 -2.2838
  835MOL0     H15214   3.361   0.924   4.713 -1.4691  2.0759 -2.9239
  835MOL0     H15215   3.483   1.037   4.892  0.9171 -0.5787  0.2196
  835MOL0     H15216   3.654   1.324   5.029 -2.6210  1.4014  0.9609
  835MOL0     H15217   3.708   1.473   5.211 -1.1133 -1.6668 -0.3610
  835MOL0     H15218   3.716   1.580   5.393 -0.1274  2.5015  1.9178
  835MOL0     H15219   3.761   1.549   5.563  2.1474 -0.2348  0.3472
  835MOL0     H15220   3.968   1.572   5.333 -0.5846 -0.9892 -0.7331
  835MOL0     H15221   3.992   1.596   5.503 -1.4923 -1.2443  0.7440
  835MOL0     H15222   3.859   1.799   5.497  0.6202  2.0230 -0.6003
  835MOL0     H15223   3.987   1.814   5.375 -0.5869 -0.6184 -2.9299
  835MOL0     H15224   3.810   1.914   5.282  0.6668 -1.0707 -1.0990
  835MOL0     H15225   3.687   1.810   5.358 -0.5886 -2.8126 -0.6941
  835MOL0     H15226   3.748   1.708   4.953  1.2466  2.6585  0.6182
  835MOL0     H15227   3.976   1.201   5.376  0.6893  0.7214 -0.3398
  835MOL0     H15228   4.040   1.020   5.092 -2.8445 -0.9555 -2.1196
  835MOL0     H15229   4.025   1.003   5.269  1.3139  0.4441 -1.1717
  835MOL0     H15230   3.918   0.918   5.160 -1.8934  0.9026  1.1689
  836MOL0     O15231   0.992   7.652   2.420  0.0599  0.2788 -0.3516
  836MOL0     C15232   0.965   7.538   2.467  0.0087  0.2911  1.0956
  836MOL0     O15233   1.035   7.471   2.575 -0.2698  0.5846  0.1282
  836MOL0     C15234   1.153   7.526   2.616 -0.1439  0.1588 -0.4700
  836MOL0     C15235   1.155   7.576   2.744 -0.4976 -0.2245 -0.2177
  836MOL0     C15236   1.282   7.621   2.791  0.1588  0.4228  0.4442
  836MOL0     C15237   1.397   7.614   2.711 -0.6031 -0.0406 -0.2559
  836MOL0     O15238   1.509   7.645   2.777  0.3183 -0.1155 -0.6278
  836MOL0     C15239   1.625   7.688   2.704 -0.6819  0.4271 -0.5286
  836MOL0     C15240   1.757   7.701   2.795  1.0945  0.4675 -0.3437
  836MOL0     C15241   1.862   7.781   2.719 -0.5233  0.4511 -0.5652
  836MOL0     C15242   1.986   7.801   2.804 -0.5406 -0.0230  0.2598
  836MOL0     C15243   2.058   7.672   2.861  0.4508 -0.5421  0.1020
  836MOL0     C15244   2.205   7.711   2.900 -0.4131  0.5323  0.5173
  836MOL0     C15245   2.278   7.601   2.980 -1.4788 -0.1904  0.2338
  836MOL0     C15246   2.232   7.592   3.126 -0.2306  0.0238 -0.4170
  836MOL0     N15247   2.263   7.727   3.200 -0.3169 -0.2543  0.7859
  836MOL0     C15248   2.385   7.798   3.214 -0.4986  0.3136  1.4822
  836MOL0     C15249   2.354   7.913   3.275  0.4122 -0.0141  1.4589
  836MOL0     C15250   2.440   8.030   3.327  0.9702  0.0337 -0.2888
  836MOL0     C15251   2.439   8.151   3.230 -0.7462  0.4893 -0.1943
  836MOL0     C15252   2.300   8.217   3.216 -0.1542  0.6277  0.2612
  836MOL0     C15253   2.240   8.267   3.349 -0.3786 -0.3670 -0.1713
  836MOL0     O15254   2.355   8.311   3.436 -0.7564  0.6059  0.2229
  836MOL0     C15255   2.399   8.440   3.432 -0.1983 -0.0491 -0.2544
  836MOL0     C15256   2.540   8.465   3.427  0.2059  0.0179 -0.2108
  836MOL0     C15257   2.594   8.592   3.451  0.7399  0.4697 -0.2403
  836MOL0     C15258   2.747   8.600   3.451  0.2333  0.1018  0.1379
  836MOL0     C15259   2.501   8.700   3.473 -0.0276 -0.1567 -0.9886
  836MOL0     C15260   2.554   8.833   3.500  0.2428 -0.5328  0.5071
  836MOL0     O15261   2.662   8.874   3.430  0.1688  0.6307 -0.0642
  836MOL0     C15262   2.718   8.999   3.451  0.2176 -0.7516 -0.8692
  836MOL0     C15263   2.851   9.015   3.508  0.4775  0.5353  0.6278
  836MOL0     C15264   2.905   9.143   3.511 -0.1133  1.0722 -0.4043
  836MOL0     C15265   2.831   9.254   3.500  0.5086 -0.2839 -0.5340
  836MOL0     O15266   2.892   9.378   3.524  0.0309 -0.2234 -0.0240
  836MOL0     C15267   2.811   9.492   3.568 -0.6040 -0.0110 -1.1508
  836MOL0     C15268   2.896   9.618   3.599  0.2103 -0.6068 -0.6074
  836MOL0     C15269   2.935   9.624   3.741 -0.5157  0.2859 -0.6168
  836MOL0     C15270   3.052   9.531   3.780 -0.1149  0.0603 -1.0896
  836MOL0     C15271   3.186   9.533   3.699 -0.0049 -0.1213 -0.7499
  836MOL0     C15272   3.262   9.648   3.752  0.1682 -0.0279  0.8797
  836MOL0     C15273   3.400   9.644   3.683  0.3059  0.6159 -0.5554
  836MOL0     C15274   3.481   9.763   3.728 -0.5098 -0.4314  0.6893
  836MOL0    Cl15275   3.632   9.770   3.635  0.1841 -0.0250  0.0873
  836MOL0     C15276   2.701   9.238   3.448 -0.3391  0.5511 -0.5252
  836MOL0     C15277   2.650   9.108   3.421 -0.3242 -1.0126 -0.1469
  836MOL0     O15278   2.503   8.902   3.587  0.3242 -0.7050  0.5937
  836MOL0     C15279   2.362   8.674   3.483  0.2828  0.1823  0.5589
  836MOL0     C15280   2.322   8.547   3.470  0.1474 -0.0632  1.0237
  836MOL0     N15281   2.214   7.907   3.283  0.0485  0.3164 -0.3887
  836MOL0     N15282   2.161   7.802   3.229 -0.0383 -0.7048  0.2857
  836MOL0     C15283   1.388   7.564   2.582 -0.5403 -0.5697 -0.1979
  836MOL0     C15284   1.263   7.518   2.533 -0.0006  0.7715  0.0853
  836MOL0     C15285   0.849   7.468   2.405 -0.5480  0.6032  0.9945
  836MOL0     C15286   0.771   7.538   2.311  0.2614  0.7295 -0.8828
  836MOL0     C15287   0.665   7.467   2.246  0.5731  0.3570  0.2616
  836MOL0     C15288   0.621   7.340   2.284  1.1076  0.3315  1.2637
  836MOL0     O15289   0.519   7.270   2.229  0.1516 -0.1496  0.1274
  836MOL0     C15290   0.393   7.278   2.291  0.8317  0.8768 -0.7139
  836MOL0     C15291   0.376   7.188   2.423 -0.0297  0.4366 -0.2440
  836MOL0     C15292   0.423   7.038   2.388 -0.5805 -0.1027 -0.5683
  836MOL0     C15293   0.339   6.929   2.468 -0.9822 -0.5881  0.5408
  836MOL0     C15294   0.196   6.943   2.432 -1.1460 -0.4117  0.1378
  836MOL0     C15295   0.084   6.947   2.389 -0.2017  1.2691  0.1543
  836MOL0     C15296   0.703   7.268   2.359  0.1620  0.7210 -0.3138
  836MOL0     C15297   0.807   7.329   2.427 -0.3725  0.0325 -0.5794
  836MOL0     C15298   0.894   7.240   2.504 -0.0809 -0.3088  0.1993
  836MOL0     H15299   1.066   7.573   2.806 -0.1787  0.6136  0.2959
  836MOL0     H15300   1.286   7.661   2.892 -0.6778  0.9554  0.2747
  836MOL0     H15301   1.592   7.785   2.665 -2.2679  1.0013  1.9757
  836MOL0     H15302   1.642   7.620   2.620  0.6538 -2.0781  1.6391
  836MOL0     H15303   1.722   7.737   2.892  2.5609 -3.5973  1.9718
  836MOL0     H15304   1.785   7.595   2.805 -2.8295 -0.8447 -1.4590
  836MOL0     H15305   1.884   7.730   2.625  0.3598 -1.8729  0.8175
  836MOL0     H15306   1.828   7.881   2.689  0.7833  1.3379  0.7517
  836MOL0     H15307   2.058   7.860   2.746  0.7899  1.3024  3.0543
  836MOL0     H15308   1.958   7.873   2.882  0.2653 -0.9100  1.4000
  836MOL0     H15309   2.046   7.592   2.787  0.2429 -1.5363  1.1685
  836MOL0     H15310   2.002   7.647   2.952 -2.7493 -0.4664 -1.7025
  836MOL0     H15311   2.258   7.715   2.804  0.0692 -2.5202  0.5520
  836MOL0     H15312   2.205   7.811   2.944  1.7145  1.2234 -0.8734
  836MOL0     H15313   2.383   7.629   2.967 -1.7407  0.5528 -0.4005
  836MOL0     H15314   2.279   7.505   2.927 -1.6871  0.1508 -0.4052
  836MOL0     H15315   2.126   7.563   3.130 -0.1078 -0.3282  1.0987
  836MOL0     H15316   2.287   7.510   3.172 -1.3688  0.0677  1.1259
  836MOL0     H15317   2.482   7.769   3.177  0.4405  0.3722  3.7077
  836MOL0     H15318   2.545   8.002   3.344  1.1633 -0.5914 -2.2920
  836MOL0     H15319   2.401   8.056   3.426  1.0043  1.4050 -0.6255
  836MOL0     H15320   2.513   8.222   3.269  1.5888 -2.0247  0.2139
  836MOL0     H15321   2.460   8.105   3.134  0.7763 -2.4578  1.4257
  836MOL0     H15322   2.295   8.305   3.151 -0.5427  1.0938  0.9047
  836MOL0     H15323   2.243   8.142   3.160  1.0525  0.1157 -0.3020
  836MOL0     H15324   2.179   8.357   3.339  0.7570  0.1639 -4.0922
  836MOL0     H15325   2.177   8.195   3.402  0.1025 -1.0481 -0.5016
  836MOL0     H15326   2.614   8.386   3.418  2.6976  2.2456 -0.8059
  836MOL0     H15327   2.788   8.502   3.478  2.8965  1.5992  1.9257
  836MOL0     H15328   2.781   8.668   3.530  3.0521 -0.4513 -0.5097
  836MOL0     H15329   2.790   8.629   3.355  0.0208  0.2458  0.0837
  836MOL0     H15330   2.905   8.922   3.524  0.3254  0.1932 -0.7552
  836MOL0     H15331   3.011   9.144   3.532 -0.5336 -0.0566  2.0532
  836MOL0     H15332   2.747   9.517   3.482  0.8205  0.5957 -2.0782
  836MOL0     H15333   2.739   9.465   3.646  1.2727 -0.1008  0.6037
  836MOL0     H15334   2.977   9.629   3.527 -0.7749 -0.1322 -1.6776
  836MOL0     H15335   2.838   9.708   3.581  1.1556 -0.0639 -0.9866
  836MOL0     H15336   2.848   9.601   3.803 -1.1876  1.3208 -1.1380
  836MOL0     H15337   2.970   9.726   3.759  1.3571 -0.1054 -1.7629
  836MOL0     H15338   3.013   9.429   3.767 -3.4808  1.0508  0.2724
  836MOL0     H15339   3.075   9.544   3.886 -1.8954  3.0444 -0.9643
  836MOL0     H15340   3.240   9.441   3.723 -1.2878 -0.6563  0.1962
  836MOL0     H15341   3.178   9.541   3.590 -1.1303  0.0754 -0.6679
  836MOL0     H15342   3.273   9.642   3.861  3.7986 -2.9674  0.5667
  836MOL0     H15343   3.210   9.737   3.717  2.4377 -0.2394 -3.8313
  836MOL0     H15344   3.385   9.653   3.575  0.6202  2.4145 -0.4851
  836MOL0     H15345   3.448   9.547   3.697 -1.5027 -0.0628  1.6099
  836MOL0     H15346   3.504   9.758   3.835 -2.0264  1.1356  1.1580
  836MOL0     H15347   3.410   9.844   3.708 -1.5882 -1.9893 -2.4273
  836MOL0     H15348   2.629   9.317   3.431 -2.7173 -1.6512 -1.3788
  836MOL0     H15349   2.553   9.104   3.374 -0.7989  2.4182  0.3272
  836MOL0     H15350   2.299   8.751   3.524  0.7420 -0.2033  2.0585
  836MOL0     H15351   2.223   8.519   3.503 -0.8693 -2.1118 -3.0616
  836MOL0     H15352   1.477   7.540   2.525 -0.3251 -2.6604  0.9281
  836MOL0     H15353   1.255   7.488   2.429 -1.4460  2.5332 -0.3699
  836MOL0     H15354   0.807   7.636   2.282 -1.7658  1.7478 -0.1080
  836MOL0     H15355   0.601   7.518   2.174  0.2280  0.0740  0.3644
  836MOL0     H15356   0.363   7.374   2.334  0.3634  0.1699  0.5732
  836MOL0     H15357   0.319   7.247   2.216  2.2824  0.1836 -1.9228
  836MOL0     H15358   0.272   7.185   2.455 -0.6574 -0.2503 -2.2310
  836MOL0     H15359   0.441   7.225   2.503 -0.1060  0.4761 -0.2004
  836MOL0     H15360   0.400   7.022   2.282  0.9967 -0.3713 -0.8856
  836MOL0     H15361   0.530   7.032   2.411 -0.7248  1.4208  0.7182
  836MOL0     H15362   0.370   6.945   2.572  1.8815 -1.3559 -0.0999
  836MOL0     H15363   0.385   6.833   2.446  2.3007  1.0061 -0.1242
  836MOL0     H15364  -0.017   6.948   2.355 -0.2985 -0.7361  0.2592
  836MOL0     H15365   0.680   7.167   2.391  1.5152  1.1899  2.4828
  836MOL0     H15366   0.994   7.223   2.463  0.3039 -2.3634  1.8313
  836MOL0     H15367   0.906   7.278   2.606  2.1694  1.2283 -0.5706
  836MOL0     H15368   0.844   7.143   2.508 -0.7034 -0.0171 -0.2992
  837MOL0     O15369   7.146   0.441   9.501 -0.0485 -0.3258  0.3187
  837MOL0     C15370   7.146   0.493   9.384  0.8225 -0.5008  0.0519
  837MOL0     O15371   7.101   0.620   9.354 -0.5951 -0.8949 -0.2804
  837MOL0     C15372   7.060   0.698   9.457  0.7296 -0.3827 -0.2444
  837MOL0     C15373   7.156   0.746   9.548  0.1275  0.1032  0.2428
  837MOL0     C15374   7.126   0.809   9.664 -1.1178 -0.4731  0.7914
  837MOL0     C15375   6.994   0.847   9.677  0.2905 -0.6744 -0.2638
  837MOL0     O15376   6.972   0.905   9.796  0.5365 -0.1529  0.6043
  837MOL0     C15377   6.887   0.827   9.877 -0.2289  0.5411 -1.3682
  837MOL0     C15378   6.971   0.732   9.973  1.1660 -0.7993 -0.1557
  837MOL0     C15379   7.010   0.605   9.908  0.7780  0.5375  0.1920
  837MOL0     C15380   7.125   0.538   9.983  0.3029  0.2637  0.9755
  837MOL0     C15381   7.175   0.402   9.919  0.6446  0.1325  0.1649
  837MOL0     C15382   7.265   0.435   9.804  0.8458 -0.5875 -0.4832
  837MOL0     C15383   7.416   0.427   9.846  0.1820  0.2917  0.7466
  837MOL0     C15384   7.521   0.442   9.738 -0.4551 -0.1213  0.2398
  837MOL0     N15385   7.580   0.321   9.691 -0.1996  1.8632  0.7834
  837MOL0     C15386   7.508   0.207   9.651 -0.0465 -0.6820 -0.4064
  837MOL0     C15387   7.599   0.109   9.630 -0.6059  1.1193  0.5425
  837MOL0     C15388   7.568  -0.030   9.573 -0.5963 -0.1499  1.3887
  837MOL0     C15389   7.585  -0.129   9.687 -0.7030  0.4585  0.1722
  837MOL0     C15390   7.740  -0.144   9.723  0.1710 -0.9586 -0.3527
  837MOL0     C15391   7.783  -0.279   9.779 -1.0880 -0.8197 -0.1836
  837MOL0     O15392   7.921  -0.290   9.749  0.5430 -0.4859 -0.8224
  837MOL0     C15393   7.978  -0.411   9.767  0.7550  0.6416  0.5070
  837MOL0     C15394   8.035  -0.449   9.889 -0.7802 -0.7892 -0.0459
  837MOL0     C15395   8.099  -0.571   9.919  0.3136  0.5079  1.0755
  837MOL0     C15396   8.154  -0.585  10.061 -0.6546 -0.9740  0.7596
  837MOL0     C15397   8.116  -0.666   9.815 -0.0004 -0.0896  0.5216
  837MOL0     C15398   8.190  -0.788   9.833 -0.0903  0.0993 -1.2946
  837MOL0     O15399   8.161  -0.866   9.945  0.0555  0.3451  0.6166
  837MOL0     C15400   8.245  -0.965   9.984  0.1602 -0.1149 -0.4788
  837MOL0     C15401   8.194  -1.093  10.025 -0.2751  0.4922  0.2351
  837MOL0     C15402   8.277  -1.188  10.080  0.0246  0.7736  0.0990
  837MOL0     C15403   8.412  -1.152  10.114  0.7616 -0.5146  0.0924
  837MOL0     O15404   8.504  -1.242  10.155 -0.6959 -0.2038 -0.7338
  837MOL0     C15405   8.472  -1.386  10.148 -0.4241 -0.9318  0.0153
  837MOL0     C15406   8.409  -1.431  10.283 -0.4743 -0.4591 -0.1652
  837MOL0     C15407   8.352  -1.574  10.270 -0.0317 -0.8325  0.1180
  837MOL0     C15408   8.289  -1.616  10.402  0.0325 -0.5113  0.7019
  837MOL0     C15409   8.205  -1.748  10.392  0.4699 -0.0035  0.0893
  837MOL0     C15410   8.284  -1.873  10.368 -0.4563  0.1815  0.5472
  837MOL0     C15411   8.180  -1.992  10.341 -0.4700 -0.2203  0.8963
  837MOL0     C15412   8.256  -2.120  10.294  0.3519  0.1046 -0.3027
  837MOL0    Cl15413   8.404  -2.103  10.188  0.0366  0.2385 -0.0994
  837MOL0     C15414   8.462  -1.037  10.078  0.2391 -1.4943 -0.2271
  837MOL0     C15415   8.377  -0.934  10.023 -0.5553  0.4036  0.4108
  837MOL0     O15416   8.283  -0.817   9.752 -0.1184  0.7900  0.6472
  837MOL0     C15417   8.061  -0.628   9.690  0.8406 -0.3075  0.3284
  837MOL0     C15418   8.001  -0.504   9.664  0.4995 -0.1923 -0.5541
  837MOL0     N15419   7.728   0.154   9.654 -0.1753 -0.0744 -0.0754
  837MOL0     N15420   7.710   0.279   9.689 -0.3173 -0.0631  0.5416
  837MOL0     C15421   6.897   0.810   9.589 -0.0103 -0.0728  0.0186
  837MOL0     C15422   6.928   0.731   9.481 -0.6805 -0.2313 -0.2488
  837MOL0     C15423   7.161   0.391   9.272  0.4857 -0.0116  0.1698
  837MOL0     C15424   7.064   0.403   9.168 -0.6111 -0.0983  0.3842
  837MOL0     C15425   7.053   0.308   9.068 -0.7524 -0.0190 -0.9558
  837MOL0     C15426   7.136   0.199   9.077 -0.3579  0.2719  0.1251
  837MOL0     O15427   7.127   0.088   8.998 -0.2513  0.1879 -0.0783
  837MOL0     C15428   7.034   0.092   8.880  0.2502  0.3198 -0.3907
  837MOL0     C15429   7.040  -0.031   8.796  0.0870  0.0334 -0.7931
  837MOL0     C15430   6.939  -0.030   8.686  0.7082 -0.6795  0.5697
  837MOL0     C15431   6.952  -0.142   8.580 -0.2032  0.2907  0.2789
  837MOL0     C15432   6.877  -0.126   8.463  0.3791  0.6680  0.0770
  837MOL0     C15433   6.797  -0.100   8.379  0.6661 -0.4449 -0.1111
  837MOL0     C15434   7.227   0.187   9.183 -0.2170  0.6633  0.9302
  837MOL0     C15435   7.243   0.280   9.278 -0.3420 -0.6698 -0.5137
  837MOL0     C15436   7.348   0.255   9.389  0.1121  0.8273 -0.5933
  837MOL0     H15437   7.261   0.722   9.533  0.2656 -0.6453  2.1165
  837MOL0     H15438   7.203   0.830   9.738 -1.0122  0.5958  0.3822
  837MOL0     H15439   6.823   0.758   9.822 -0.6458 -1.3583  1.2899
  837MOL0     H15440   6.825   0.899   9.930 -3.4525 -2.3047 -0.9059
  837MOL0     H15441   7.063   0.787   9.993  3.2821 -3.9155 -0.7880
  837MOL0     H15442   6.911   0.721  10.064  0.1093 -1.0803 -0.8683
  837MOL0     H15443   6.926   0.542   9.937 -1.0089  1.2383 -2.9803
  837MOL0     H15444   7.011   0.615   9.799 -4.2904 -0.9207 -0.2351
  837MOL0     H15445   7.212   0.603   9.983 -0.4148  1.2497  0.1934
  837MOL0     H15446   7.095   0.527  10.088  2.0943  1.1377  1.6200
  837MOL0     H15447   7.091   0.346   9.877  1.7582  0.1094 -2.1916
  837MOL0     H15448   7.227   0.347   9.998  0.3021  4.0032  3.4270
  837MOL0     H15449   7.238   0.362   9.728 -0.4220 -0.2368 -0.3818
  837MOL0     H15450   7.232   0.528   9.758 -1.1495 -0.5748  0.8613
  837MOL0     H15451   7.431   0.326   9.884  3.1581 -0.2777 -1.5491
  837MOL0     H15452   7.442   0.498   9.925  2.0911  2.0323 -1.3134
  837MOL0     H15453   7.462   0.494   9.662 -0.2819  1.9141  1.4195
  837MOL0     H15454   7.603   0.506   9.771 -0.6055 -0.1587  0.6914
  837MOL0     H15455   7.402   0.187   9.643  0.0050 -2.5652  2.3820
  837MOL0     H15456   7.651  -0.050   9.505  0.6947  0.9950  2.5793
  837MOL0     H15457   7.477  -0.039   9.513 -1.1497 -1.6041  2.3727
  837MOL0     H15458   7.532  -0.094   9.776  1.6133  3.6059  0.5011
  837MOL0     H15459   7.546  -0.229   9.669 -1.4647  0.4139  1.8818
  837MOL0     H15460   7.791  -0.129   9.628  0.9372  1.1169  0.3326
  837MOL0     H15461   7.765  -0.072   9.801 -0.0384 -0.0766 -1.0894
  837MOL0     H15462   7.767  -0.296   9.886 -0.7977  0.7624  0.1250
  837MOL0     H15463   7.743  -0.357   9.714 -1.2925 -0.2543 -0.7468
  837MOL0     H15464   8.037  -0.371   9.965 -2.6615  1.4776 -2.1312
  837MOL0     H15465   8.182  -0.490  10.107  0.9883 -1.9027  1.7843
  837MOL0     H15466   8.250  -0.637  10.062  0.1470  0.1351 -3.1202
  837MOL0     H15467   8.080  -0.642  10.118 -1.0899 -2.5573 -1.2737
  837MOL0     H15468   8.091  -1.125  10.013 -0.5882 -0.1966  3.7409
  837MOL0     H15469   8.243  -1.286  10.109 -1.4414  1.7834  2.0009
  837MOL0     H15470   8.413  -1.396  10.057  2.8688  2.2922 -2.7776
  837MOL0     H15471   8.565  -1.442  10.134 -0.9135 -1.2020 -2.6245
  837MOL0     H15472   8.487  -1.416  10.358 -1.8426 -0.9111  1.4104
  837MOL0     H15473   8.328  -1.361  10.306 -1.4567 -1.9901  1.3045
  837MOL0     H15474   8.443  -1.633  10.253  1.2994  1.1131  0.2201
  837MOL0     H15475   8.273  -1.601  10.200 -0.6116 -3.6675  1.7059
  837MOL0     H15476   8.227  -1.531  10.433  1.6796  0.3059  1.9212
  837MOL0     H15477   8.366  -1.632  10.478 -1.6683 -0.6582  2.4733
  837MOL0     H15478   8.154  -1.759  10.488  1.0659 -2.3244  0.1967
  837MOL0     H15479   8.133  -1.731  10.312 -0.2010  1.7601  0.9947
  837MOL0     H15480   8.338  -1.898  10.459  2.3338  2.5018 -0.3312
  837MOL0     H15481   8.359  -1.848  10.292  0.3448  2.7887  2.0516
  837MOL0     H15482   8.110  -1.968  10.260 -0.8008  0.0424  1.2567
  837MOL0     H15483   8.128  -2.012  10.435  1.4823 -1.5985  1.7463
  837MOL0     H15484   8.184  -2.182  10.239  0.3023 -0.7764  0.7144
  837MOL0     H15485   8.275  -2.184  10.381 -0.0186  1.3136  0.6920
  837MOL0     H15486   8.567  -1.023  10.104 -0.1810  0.3510  0.6387
  837MOL0     H15487   8.423  -0.837  10.008 -1.1498  0.3837 -1.9645
  837MOL0     H15488   8.075  -0.690   9.602 -1.5630 -0.6292  0.0999
  837MOL0     H15489   7.963  -0.477   9.566 -1.1156 -2.5141 -0.6622
  837MOL0     H15490   6.797   0.849   9.608  0.7290  1.8713  0.1879
  837MOL0     H15491   6.843   0.703   9.420  0.0667  1.1571 -2.0213
  837MOL0     H15492   6.991   0.483   9.179 -1.0452 -0.4566  0.1562
  837MOL0     H15493   6.974   0.327   8.996  1.0071 -0.9100 -3.2551
  837MOL0     H15494   6.932   0.116   8.909  0.3939  0.0447  0.3609
  837MOL0     H15495   7.066   0.178   8.820  2.9024  1.7165  2.6920
  837MOL0     H15496   7.018  -0.120   8.855  0.5789 -0.5897 -1.5320
  837MOL0     H15497   7.138  -0.041   8.748 -0.5831 -2.0888 -1.8653
  837MOL0     H15498   6.838  -0.039   8.728  0.3729  1.3335  0.2847
  837MOL0     H15499   6.937   0.063   8.628 -4.5714 -0.9125 -0.1249
  837MOL0     H15500   6.921  -0.237   8.623  0.3044 -0.0829 -0.1710
  837MOL0     H15501   7.057  -0.129   8.550 -0.2559 -0.8075 -0.4374
  837MOL0     H15502   6.725  -0.072   8.304 -0.4629  3.5996  2.1698
  837MOL0     H15503   7.295   0.103   9.194  2.5266  2.9747  3.5132
  837MOL0     H15504   7.443   0.218   9.350 -0.0739  2.6128 -2.9524
  837MOL0     H15505   7.373   0.355   9.424  1.5516  0.5586 -0.7922
  837MOL0     H15506   7.300   0.203   9.473 -1.1370  0.2683 -1.6298
  838MOL0     O15507   2.767  10.495   3.933 -0.3570  0.2189  0.0717
  838MOL0     C15508   2.856  10.413   3.928  0.2785 -0.9024  0.4650
  838MOL0     O15509   2.887  10.331   4.040  0.2112 -1.1212  0.8989
  838MOL0     C15510   2.801  10.327   4.141 -0.2582 -0.5071 -1.1389
  838MOL0     C15511   2.842  10.369   4.260  0.0268 -0.5890  0.0930
  838MOL0     C15512   2.757  10.359   4.379 -0.5078 -0.4701  0.0350
  838MOL0     C15513   2.635  10.285   4.368  0.2129 -0.7360  0.5679
  838MOL0     O15514   2.540  10.280   4.468  0.0632  0.5483 -0.2685
  838MOL0     C15515   2.596  10.235   4.589  0.4525 -0.4562  0.5773
  838MOL0     C15516   2.496  10.228   4.699  0.1046 -0.4222 -0.6660
  838MOL0     C15517   2.562  10.202   4.837  1.0231  0.2619 -1.1204
  838MOL0     C15518   2.463  10.223   4.955  1.1178  0.2312  0.2920
  838MOL0     C15519   2.524  10.187   5.086 -0.4478  0.2621 -0.1194
  838MOL0     C15520   2.441  10.238   5.207  0.1687 -0.1315 -0.2687
  838MOL0     C15521   2.532  10.256   5.332 -0.1504  1.4420  0.8820
  838MOL0     C15522   2.436  10.315   5.440 -0.1485  0.4249 -0.6150
  838MOL0     N15523   2.504  10.305   5.565 -0.2236 -0.5489 -0.4810
  838MOL0     C15524   2.604  10.386   5.608 -0.6887  0.6747  0.3720
  838MOL0     C15525   2.657  10.328   5.718  0.7951 -0.3321  0.2249
  838MOL0     C15526   2.757  10.380   5.806 -0.0749  0.0176  0.4712
  838MOL0     C15527   2.684  10.429   5.934 -0.9507  0.0218  0.0735
  838MOL0     C15528   2.747  10.553   5.992 -0.0029 -0.4952  0.6300
  838MOL0     C15529   2.663  10.641   6.095 -0.6723  0.1303  0.3674
  838MOL0     O15530   2.520  10.666   6.061 -0.3655  0.3713 -0.6481
  838MOL0     C15531   2.514  10.743   5.953  1.0377  0.0010  0.8765
  838MOL0     C15532   2.457  10.684   5.840 -0.3343 -0.6746  0.5402
  838MOL0     C15533   2.433  10.769   5.735  0.3594 -0.5266  0.4370
  838MOL0     C15534   2.366  10.704   5.616  0.3712  0.2692  1.0487
  838MOL0     C15535   2.469  10.911   5.721  0.0374 -0.5137 -0.8280
  838MOL0     C15536   2.451  10.996   5.605  0.6722  0.2293  0.1495
  838MOL0     O15537   2.360  10.969   5.505  0.1161 -0.8841  0.3207
  838MOL0     C15538   2.376  11.003   5.368 -0.4257 -0.1311  0.5229
  838MOL0     C15539   2.321  10.921   5.259  1.0122 -0.4132 -0.7485
  838MOL0     C15540   2.348  10.939   5.124  0.4005 -0.0915 -0.0956
  838MOL0     C15541   2.407  11.050   5.081 -0.6509 -0.8476 -0.6612
  838MOL0     O15542   2.432  11.069   4.952 -0.0218  0.5841 -0.1038
  838MOL0     C15543   2.413  11.209   4.921 -0.4528 -0.7210 -0.9930
  838MOL0     C15544   2.341  11.236   4.791 -0.6884 -0.0218  0.2893
  838MOL0     C15545   2.212  11.147   4.775 -0.0149 -0.0609 -0.5876
  838MOL0     C15546   2.092  11.200   4.858 -0.2224 -0.9085 -0.5544
  838MOL0     C15547   1.970  11.103   4.860  0.3660  0.2503 -0.6591
  838MOL0     C15548   1.919  11.060   4.719 -1.3387 -0.4489 -0.6917
  838MOL0     C15549   1.871  11.175   4.624  1.0346  0.2961 -0.1057
  838MOL0     C15550   1.891  11.131   4.484  0.4711  0.6246  0.9585
  838MOL0    Cl15551   1.835  11.251   4.363 -0.6009  0.4180  0.5316
  838MOL0     C15552   2.464  11.137   5.179 -0.7310  0.1560 -0.1145
  838MOL0     C15553   2.454  11.110   5.317 -0.2093  1.0704 -0.2034
  838MOL0     O15554   2.537  11.086   5.599 -0.2428 -0.4494 -0.9474
  838MOL0     C15555   2.532  10.968   5.837  0.1050  0.2700  0.2760
  838MOL0     C15556   2.558  10.874   5.941  0.3738  0.0930  0.0037
  838MOL0     N15557   2.576  10.218   5.745  0.7446 -0.3793 -0.5581
  838MOL0     N15558   2.481  10.208   5.651 -0.8003 -0.3471 -0.6132
  838MOL0     C15559   2.602  10.245   4.243  0.0712  1.0768  1.0057
  838MOL0     C15560   2.672  10.267   4.127 -0.6330  0.6105 -0.1827
  838MOL0     C15561   2.938  10.418   3.806 -1.1371  0.6950 -0.0874
  838MOL0     C15562   3.083  10.406   3.828 -0.0408 -0.8033  0.6311
  838MOL0     C15563   3.162  10.371   3.722 -1.0483 -0.3236  0.0380
  838MOL0     C15564   3.120  10.372   3.589 -1.0523 -0.0295  0.0832
  838MOL0     O15565   3.212  10.345   3.490  0.0636 -0.1463  0.1235
  838MOL0     C15566   3.181  10.401   3.357 -0.3103  0.1508  0.2218
  838MOL0     C15567   3.301  10.398   3.255  1.0148  0.3190 -0.0232
  838MOL0     C15568   3.433  10.440   3.308  0.4619  0.3504 -0.0052
  838MOL0     C15569   3.519  10.320   3.334 -0.9719  0.0920 -0.6529
  838MOL0     C15570   3.585  10.314   3.470  0.4975 -0.5617 -0.1703
  838MOL0     C15571   3.641  10.313   3.580 -0.0559  0.0544 -0.1873
  838MOL0     C15572   2.985  10.399   3.563  0.5777  0.0842  0.0247
  838MOL0     C15573   2.897  10.422   3.670  0.1201 -0.4202 -0.4908
  838MOL0     C15574   2.754  10.459   3.641 -0.7731  0.3699 -1.4256
  838MOL0     H15575   2.938  10.419   4.255 -0.0479 -0.5722 -2.5786
  838MOL0     H15576   2.786  10.409   4.471  0.0825 -1.8740  0.6575
  838MOL0     H15577   2.665  10.314   4.621 -1.1258  0.4397  1.9237
  838MOL0     H15578   2.650  10.142   4.571  2.5599  1.1916 -2.6760
  838MOL0     H15579   2.459  10.331   4.710  0.1022 -0.6905  3.6720
  838MOL0     H15580   2.413  10.161   4.674  0.5539 -1.1016 -0.3690
  838MOL0     H15581   2.603  10.101   4.838 -1.3923 -0.7765 -0.6568
  838MOL0     H15582   2.648  10.267   4.855  1.7110 -1.0765  0.7357
  838MOL0     H15583   2.441  10.331   4.959  3.4614  0.7804 -0.0560
  838MOL0     H15584   2.368  10.169   4.946 -0.1837  2.5605 -0.9625
  838MOL0     H15585   2.620  10.239   5.092  1.5549 -2.8916 -1.7640
  838MOL0     H15586   2.557  10.083   5.092 -0.4555  0.3059  0.8312
  838MOL0     H15587   2.399  10.337   5.183 -2.0537 -1.1328 -0.7583
  838MOL0     H15588   2.349  10.182   5.230  0.2852  1.1060  4.1188
  838MOL0     H15589   2.619  10.321   5.319  0.6077  0.2385 -0.3804
  838MOL0     H15590   2.570  10.157   5.356 -0.8236  0.6608 -1.0990
  838MOL0     H15591   2.403  10.417   5.419  0.7055  0.3077 -2.7381
  838MOL0     H15592   2.341  10.261   5.450 -0.5702  1.2318 -0.1253
  838MOL0     H15593   2.625  10.485   5.568 -1.7030  0.2978 -1.1784
  838MOL0     H15594   2.812  10.462   5.760  1.9725 -0.7694  1.4205
  838MOL0     H15595   2.823  10.296   5.829 -0.5345 -0.8691 -1.3071
  838MOL0     H15596   2.580  10.443   5.904 -0.8041 -1.4335 -1.2338
  838MOL0     H15597   2.689  10.353   6.012  0.7693 -0.2205 -0.2372
  838MOL0     H15598   2.844  10.528   6.037 -1.2447 -1.0847  3.1727
  838MOL0     H15599   2.757  10.618   5.905  1.5412 -2.6014 -0.8526
  838MOL0     H15600   2.657  10.579   6.184 -2.4918  0.0583  0.2247
  838MOL0     H15601   2.725  10.729   6.117 -0.7316  0.0315  0.9419
  838MOL0     H15602   2.435  10.578   5.838 -0.5836 -0.6717  2.0964
  838MOL0     H15603   2.339  10.601   5.638  2.2802 -0.8754 -1.4439
  838MOL0     H15604   2.438  10.712   5.534 -0.2504  1.6367  0.5960
  838MOL0     H15605   2.274  10.759   5.593  1.4834  2.6205  1.9284
  838MOL0     H15606   2.264  10.834   5.292  2.1824 -0.7828  0.3689
  838MOL0     H15607   2.303  10.870   5.053  0.8260  1.2322 -1.7244
  838MOL0     H15608   2.363  11.274   4.993  3.2684  1.1683  0.1434
  838MOL0     H15609   2.505  11.265   4.906 -2.6659  3.9930  0.9289
  838MOL0     H15610   2.304  11.338   4.800  3.0902  1.5422  0.1013
  838MOL0     H15611   2.410  11.222   4.707  0.4297 -3.5459  1.6157
  838MOL0     H15612   2.229  11.041   4.800 -3.3118 -1.1835 -2.4464
  838MOL0     H15613   2.188  11.144   4.669 -1.5729 -0.3570 -0.2619
  838MOL0     H15614   2.081  11.308   4.845  1.1310 -0.6083  0.5949
  838MOL0     H15615   2.132  11.204   4.959 -0.0817  1.3229 -0.6478
  838MOL0     H15616   2.000  11.018   4.922  1.1760  0.3008 -0.9686
  838MOL0     H15617   1.894  11.146   4.925 -1.5551 -2.0499 -1.2372
  838MOL0     H15618   1.837  10.988   4.728 -1.9975  0.4428  1.0250
  838MOL0     H15619   2.006  11.016   4.668  0.2540  0.3025  1.2531
  838MOL0     H15620   1.922  11.267   4.653 -0.3362  1.2456 -0.6588
  838MOL0     H15621   1.764  11.187   4.641  1.2335 -0.0169  1.5915
  838MOL0     H15622   1.837  11.036   4.469  0.8077  0.6064 -0.1966
  838MOL0     H15623   1.994  11.098   4.468  0.9552  2.7246 -0.5763
  838MOL0     H15624   2.525  11.222   5.147  0.2963 -0.8689 -0.9722
  838MOL0     H15625   2.519  11.175   5.375 -2.6786  2.5889  1.0138
  838MOL0     H15626   2.585  11.062   5.829  0.6192 -0.1587 -1.8203
  838MOL0     H15627   2.615  10.914   6.024 -0.8068  1.0825  0.3687
  838MOL0     H15628   2.514  10.182   4.239  2.1712 -2.0095 -2.1079
  838MOL0     H15629   2.622  10.250   4.032 -2.5155 -1.6097  1.0888
  838MOL0     H15630   3.130  10.409   3.925 -2.1028 -0.1626  1.6557
  838MOL0     H15631   3.270  10.363   3.727 -0.7816  2.3801  0.5456
  838MOL0     H15632   3.094  10.347   3.320  0.1375 -1.2040  1.0441
  838MOL0     H15633   3.154  10.506   3.371 -1.2545 -0.2998  2.1191
  838MOL0     H15634   3.270  10.451   3.165 -0.4932  2.5926  1.7221
  838MOL0     H15635   3.303  10.293   3.224  2.7872  0.4180 -0.3517
  838MOL0     H15636   3.475  10.498   3.225 -0.8990 -0.3114 -1.1956
  838MOL0     H15637   3.428  10.502   3.397  2.3781  2.1454 -1.0523
  838MOL0     H15638   3.599  10.314   3.260 -0.0881  4.3378 -0.2934
  838MOL0     H15639   3.457  10.231   3.321  0.0541 -0.4931 -1.7928
  838MOL0     H15640   3.705  10.318   3.665 -2.1275  0.8936  1.4289
  838MOL0     H15641   2.944  10.396   3.463  0.2220 -1.2106  0.1950
  838MOL0     H15642   2.678  10.423   3.711 -0.3033  0.9671 -0.5855
  838MOL0     H15643   2.767  10.567   3.639  2.6195  0.2040  1.3696
  838MOL0     H15644   2.734  10.432   3.537 -4.9470 -0.8408 -0.4858
  839MOL0     O15645   3.555   5.969  10.559  0.2023 -0.1275 -0.1561
  839MOL0     C15646   3.544   5.927  10.449  0.5376 -0.9416 -0.2405
  839MOL0     O15647   3.423   5.937  10.373 -0.4890 -0.6841 -0.0476
  839MOL0     C15648   3.322   6.011  10.430  0.4847  0.4874  0.3868
  839MOL0     C15649   3.215   5.948  10.498 -0.0746 -1.2966  0.2324
  839MOL0     C15650   3.111   6.036  10.549 -0.4149  0.3704 -1.3425
  839MOL0     C15651   3.111   6.175  10.523  0.5102  0.5435 -0.4091
  839MOL0     O15652   3.018   6.268  10.555 -0.0881 -0.0784 -0.4573
  839MOL0     C15653   2.930   6.235  10.658  0.2560  0.7378 -0.1759
  839MOL0     C15654   2.850   6.356  10.691 -0.5423 -1.0809  0.3843
  839MOL0     C15655   2.724   6.322  10.776 -0.1179 -0.6267 -0.0682
  839MOL0     C15656   2.735   6.367  10.919  0.0530  0.2264 -0.2464
  839MOL0     C15657   2.854   6.302  11.001 -0.0307  0.4205 -0.8940
  839MOL0     C15658   2.852   6.143  11.012  0.4403  0.5466  0.7060
  839MOL0     C15659   2.727   6.090  11.080 -0.6618 -0.6300 -0.5166
  839MOL0     C15660   2.684   6.153  11.219  0.4271 -0.4458 -1.2120
  839MOL0     N15661   2.578   6.241  11.218  0.5628 -0.9878  0.2451
  839MOL0     C15662   2.579   6.360  11.283 -0.0773  0.1975 -0.1303
  839MOL0     C15663   2.447   6.405  11.272 -0.0602 -0.4127 -0.3216
  839MOL0     C15664   2.393   6.532  11.320  0.7880 -1.6301  1.0843
  839MOL0     C15665   2.334   6.534  11.462 -0.0935 -0.4382 -0.4006
  839MOL0     C15666   2.429   6.479  11.577  0.2340 -0.5334  0.1674
  839MOL0     C15667   2.349   6.432  11.695 -0.3913 -0.1131 -0.1359
  839MOL0     O15668   2.284   6.542  11.760  1.0949 -0.6384 -0.7694
  839MOL0     C15669   2.158   6.523  11.822  0.2056  0.4382  0.8530
  839MOL0     C15670   2.089   6.646  11.840 -0.6687 -0.2477 -0.1940
  839MOL0     C15671   1.962   6.658  11.888 -0.0890  0.3835 -0.9968
  839MOL0     C15672   1.893   6.793  11.906  0.6985  0.4674  0.2225
  839MOL0     C15673   1.890   6.530  11.911 -0.0585  0.0500  0.5301
  839MOL0     C15674   1.744   6.522  11.948 -0.8694  0.0275  1.4843
  839MOL0     O15675   1.661   6.614  11.894 -0.4146  0.0986 -0.4415
  839MOL0     C15676   1.524   6.612  11.925  0.3423  0.5725 -0.6817
  839MOL0     C15677   1.472   6.686  12.025  0.5089  0.9058  0.2459
  839MOL0     C15678   1.327   6.692  12.036 -0.5729  1.4281  1.4054
  839MOL0     C15679   1.240   6.602  11.968 -0.2776  0.1306  0.4592
  839MOL0     O15680   1.104   6.602  11.990  0.1793 -0.3706 -0.0600
  839MOL0     C15681   1.018   6.545  11.890 -0.3757  0.5356 -0.2222
  839MOL0     C15682   0.877   6.523  11.944  0.1409 -0.1920  0.7975
  839MOL0     C15683   0.862   6.421  12.058 -0.3316 -0.1940 -0.8027
  839MOL0     C15684   0.747   6.444  12.147  0.3556 -0.3068  0.4055
  839MOL0     C15685   0.755   6.557  12.249 -0.1529  0.2098  0.8661
  839MOL0     C15686   0.625   6.586  12.328  1.3971 -0.4578  0.4489
  839MOL0     C15687   0.518   6.648  12.236  1.2478  0.5725 -0.7938
  839MOL0     C15688   0.375   6.627  12.265 -0.1847 -0.5699 -0.8541
  839MOL0    Cl15689   0.316   6.451  12.299  0.0907  0.0594 -0.3596
  839MOL0     C15690   1.302   6.526  11.862  0.5728 -1.4684  0.5214
  839MOL0     C15691   1.437   6.548  11.837  0.2444  0.1910 -0.2221
  839MOL0     O15692   1.705   6.428  12.018  0.7762 -0.0308  0.1943
  839MOL0     C15693   1.957   6.407  11.893 -0.3212 -0.2680  0.2012
  839MOL0     C15694   2.093   6.406  11.849  0.1079  0.7212 -0.0308
  839MOL0     N15695   2.376   6.310  11.199 -0.6638 -0.6536  0.0972
  839MOL0     N15696   2.453   6.213  11.165 -0.1289  0.4567  0.2436
  839MOL0     C15697   3.220   6.230  10.464 -0.2369  0.2927  0.4233
  839MOL0     C15698   3.323   6.152  10.410 -0.4568  0.7150  0.5114
  839MOL0     C15699   3.658   5.873  10.378  0.4952  0.2209 -0.2296
  839MOL0     C15700   3.656   5.886  10.235  1.5048 -0.5483 -0.0052
  839MOL0     C15701   3.753   5.830  10.153  0.3716 -0.1949 -0.2425
  839MOL0     C15702   3.860   5.773  10.216  0.0013  0.5922  0.2213
  839MOL0     O15703   3.948   5.720  10.126 -0.8910 -0.8664 -0.3495
  839MOL0     C15704   4.045   5.626  10.167 -0.0669 -0.9965 -0.5050
  839MOL0     C15705   4.098   5.551  10.030  0.4280  0.2250 -1.2565
  839MOL0     C15706   4.191   5.647   9.949  0.5041  0.3112  0.1020
  839MOL0     C15707   4.118   5.748   9.865 -0.8380  0.3259  0.2394
  839MOL0     C15708   4.205   5.804   9.760  0.7138  0.0643  0.1585
  839MOL0     C15709   4.287   5.859   9.688 -0.4161 -0.7014  0.0017
  839MOL0     C15710   3.871   5.764  10.355  0.4491 -1.0515  0.4040
  839MOL0     C15711   3.768   5.814  10.439  0.1958  0.1792 -0.7024
  839MOL0     C15712   3.793   5.816  10.591 -0.7818 -0.1912  0.5151
  839MOL0     H15713   3.204   5.841  10.506 -0.6014 -1.2518  0.1105
  839MOL0     H15714   3.024   5.998  10.602 -0.7063  2.8823  0.1272
  839MOL0     H15715   2.987   6.207  10.747  0.1215  4.1191  1.1402
  839MOL0     H15716   2.864   6.149  10.642  0.7622  0.3673 -0.3080
  839MOL0     H15717   2.908   6.415  10.763  0.2172 -2.0366  0.5671
  839MOL0     H15718   2.819   6.405  10.598 -0.4389 -2.6158 -0.4837
  839MOL0     H15719   2.648   6.392  10.739  1.7155  0.7089 -1.4547
  839MOL0     H15720   2.695   6.216  10.775  0.8173 -0.8849 -0.5013
  839MOL0     H15721   2.756   6.474  10.908  0.1392  0.0951 -1.5732
  839MOL0     H15722   2.636   6.357  10.965 -0.3897 -0.7957 -1.3649
  839MOL0     H15723   2.850   6.348  11.100 -0.2855 -2.7979  0.7366
  839MOL0     H15724   2.952   6.329  10.959  0.8181  5.4931  3.3381
  839MOL0     H15725   2.862   6.102  10.911  1.7210  2.5895 -0.0530
  839MOL0     H15726   2.940   6.114  11.070 -0.5548 -0.7650  1.6312
  839MOL0     H15727   2.737   5.982  11.093 -0.6183 -0.3264  2.7945
  839MOL0     H15728   2.641   6.116  11.018 -1.0527 -0.6027  0.0376
  839MOL0     H15729   2.655   6.068  11.281  1.1465 -0.5899 -1.0646
  839MOL0     H15730   2.776   6.189  11.268  1.3296 -2.8460 -1.0182
  839MOL0     H15731   2.664   6.412  11.326  0.3365 -0.0283 -0.6553
  839MOL0     H15732   2.315   6.556  11.247  1.0463  0.8701  1.5165
  839MOL0     H15733   2.466   6.612  11.308 -0.8765 -0.1786 -0.0038
  839MOL0     H15734   2.295   6.635  11.480  0.7378 -0.3935  1.4201
  839MOL0     H15735   2.254   6.460  11.462 -1.2547  0.7858 -0.8043
  839MOL0     H15736   2.497   6.400  11.544  1.2090 -1.4561  3.9698
  839MOL0     H15737   2.492   6.555  11.625  1.0459 -2.2371  1.9331
  839MOL0     H15738   2.283   6.357  11.651 -0.9253  1.6631 -2.5848
  839MOL0     H15739   2.411   6.385  11.772 -1.1135 -1.4005 -0.3151
  839MOL0     H15740   2.146   6.736  11.820  1.1978 -1.7190 -1.9231
  839MOL0     H15741   1.805   6.802  11.842 -0.6425 -2.1484  1.5342
  839MOL0     H15742   1.963   6.876  11.890  0.0340  1.2004  1.0449
  839MOL0     H15743   1.856   6.794  12.009  2.4631 -1.4433  0.9400
  839MOL0     H15744   1.528   6.764  12.076 -0.6861  1.5304  0.6429
  839MOL0     H15745   1.286   6.766  12.104  0.3859  0.7330  2.7869
  839MOL0     H15746   1.015   6.595  11.793 -0.4350  1.8693  0.4473
  839MOL0     H15747   1.053   6.444  11.867 -1.2272  0.4582 -1.2802
  839MOL0     H15748   0.830   6.617  11.976  0.4141  0.0404  0.5176
  839MOL0     H15749   0.820   6.484  11.859  0.9657  0.0054  0.1476
  839MOL0     H15750   0.959   6.420  12.107 -0.3618  0.7680 -0.6980
  839MOL0     H15751   0.849   6.325  12.007 -2.5968 -0.6143  0.4055
  839MOL0     H15752   0.739   6.351  12.205  0.7501 -1.5065 -1.3511
  839MOL0     H15753   0.655   6.444  12.087 -0.5247 -1.1748  1.6997
  839MOL0     H15754   0.829   6.526  12.323  1.5927  0.8380 -0.5510
  839MOL0     H15755   0.788   6.652  12.206 -2.2385  0.5091 -0.1877
  839MOL0     H15756   0.633   6.648  12.417 -2.1726 -1.8017  1.9086
  839MOL0     H15757   0.593   6.487  12.363  0.4819 -0.2296  0.2703
  839MOL0     H15758   0.526   6.617  12.131  1.2070 -2.1979 -0.0698
  839MOL0     H15759   0.534   6.755  12.251 -1.6236  1.5683 -3.6995
  839MOL0     H15760   0.317   6.667  12.181  0.0066  0.8032 -0.3620
  839MOL0     H15761   0.355   6.695  12.349  2.1822 -0.3417 -0.4097
  839MOL0     H15762   1.254   6.459  11.791 -0.9611  1.6347 -1.6200
  839MOL0     H15763   1.480   6.491  11.756  0.8711  0.3500 -0.0090
  839MOL0     H15764   1.905   6.314  11.915  0.4910 -0.1912  2.7779
  839MOL0     H15765   2.148   6.313  11.833 -0.4574  0.6952 -2.2373
  839MOL0     H15766   3.222   6.338  10.453 -1.8154  0.3586  0.6813
  839MOL0     H15767   3.396   6.208  10.354 -1.6970  3.4510  1.4301
  839MOL0     H15768   3.569   5.924  10.181 -1.9570 -2.5582  3.6273
  839MOL0     H15769   3.735   5.812  10.047 -2.0488 -1.7789  0.3527
  839MOL0     H15770   4.126   5.688  10.206  0.6042 -0.5883 -2.4473
  839MOL0     H15771   4.000   5.553  10.236  3.1027 -1.0766  1.7012
  839MOL0     H15772   4.012   5.531   9.966  0.8329 -2.2238 -1.1455
  839MOL0     H15773   4.148   5.458  10.058 -1.8596 -1.6969 -3.1938
  839MOL0     H15774   4.277   5.687  10.005  0.1245  2.9098 -1.0319
  839MOL0     H15775   4.251   5.582   9.885  3.3659  2.5434  0.3127
  839MOL0     H15776   4.094   5.826   9.938  3.0187  2.9984 -1.0009
  839MOL0     H15777   4.029   5.709   9.814 -0.6429  0.5286 -0.2729
  839MOL0     H15778   4.339   5.935   9.632 -2.9836  0.6605 -0.7198
  839MOL0     H15779   3.954   5.719  10.409  0.7793  1.0128  1.7094
  839MOL0     H15780   3.877   5.886  10.600 -0.6776 -0.2702  0.1486
  839MOL0     H15781   3.707   5.836  10.656 -2.0737  4.0885 -2.1611
  839MOL0     H15782   3.831   5.716  10.617  0.2760  0.3276  1.0355
  840MOL0     O15783   5.838   5.240   4.381 -0.4396 -0.6225 -0.2323
  840MOL0     C15784   5.798   5.264   4.269  1.4271 -0.4930 -1.3960
  840MOL0     O15785   5.828   5.188   4.161  0.1355  0.5806 -0.4675
  840MOL0     C15786   5.913   5.080   4.185 -0.6061  0.4319  0.1570
  840MOL0     C15787   5.869   4.947   4.172  1.2184  0.3652  0.1664
  840MOL0     C15788   5.944   4.834   4.189  0.3587  0.4788 -0.2757
  840MOL0     C15789   6.080   4.841   4.218  0.2683  0.0065 -0.2020
  840MOL0     O15790   6.170   4.737   4.221 -0.6599 -0.1142 -0.4026
  840MOL0     C15791   6.124   4.617   4.276 -0.0130 -0.3133  0.1264
  840MOL0     C15792   6.229   4.500   4.248 -0.1329  0.0022  0.3701
  840MOL0     C15793   6.179   4.371   4.300  0.3749 -0.0421  1.0266
  840MOL0     C15794   6.297   4.269   4.307 -0.5978 -0.0849  0.3850
  840MOL0     C15795   6.247   4.132   4.286 -0.1027 -0.1298 -0.1545
  840MOL0     C15796   6.190   4.071   4.412  0.0695 -0.1771 -0.2070
  840MOL0     C15797   6.294   4.028   4.519 -0.5651 -0.4958 -0.2728
  840MOL0     C15798   6.250   4.066   4.659  0.4704  0.1123 -0.9880
  840MOL0     N15799   6.141   3.983   4.707  0.6613  0.5769 -0.6941
  840MOL0     C15800   6.013   3.941   4.667 -0.9174 -0.2668 -0.1570
  840MOL0     C15801   5.970   3.848   4.750 -0.5047  0.3572  0.2410
  840MOL0     C15802   5.836   3.768   4.736  0.3377 -0.1153  0.2084
  840MOL0     C15803   5.762   3.753   4.859 -0.6187  0.1314  0.4908
  840MOL0     C15804   5.722   3.883   4.929 -0.6953  0.4212 -0.0608
  840MOL0     C15805   5.625   3.969   4.857 -0.4997  0.2295 -0.5762
  840MOL0     O15806   5.688   4.028   4.747 -0.5941  0.8046 -0.4797
  840MOL0     C15807   5.643   4.148   4.696  0.2078  0.9117 -0.4467
  840MOL0     C15808   5.735   4.213   4.615  0.7528 -0.2577  0.0770
  840MOL0     C15809   5.706   4.334   4.554  0.5642 -0.6741 -0.9127
  840MOL0     C15810   5.811   4.379   4.455 -1.0232  0.1755  0.6315
  840MOL0     C15811   5.582   4.397   4.574  0.0360 -0.3841  0.7493
  840MOL0     C15812   5.534   4.518   4.505 -0.2006 -0.5145 -0.5606
  840MOL0     O15813   5.626   4.603   4.446  0.7690 -0.2016  0.0573
  840MOL0     C15814   5.577   4.720   4.405  0.1027 -0.4743  0.7947
  840MOL0     C15815   5.556   4.738   4.265  0.7627 -0.7097 -0.1323
  840MOL0     C15816   5.511   4.861   4.213  0.2182 -0.1545 -0.5277
  840MOL0     C15817   5.483   4.968   4.299  1.1348  1.3815  0.5866
  840MOL0     O15818   5.439   5.094   4.260 -0.2496 -0.8409 -0.6678
  840MOL0     C15819   5.394   5.107   4.124  0.1300  0.9389  0.3940
  840MOL0     C15820   5.337   5.240   4.090 -0.7626 -1.2586 -0.1398
  840MOL0     C15821   5.238   5.291   4.190  0.4037  0.5576  0.2354
  840MOL0     C15822   5.161   5.418   4.143 -0.1624  0.1119  0.0232
  840MOL0     C15823   5.054   5.491   4.234  0.3732 -1.0121  0.2193
  840MOL0     C15824   4.951   5.397   4.300 -0.1903 -0.1573 -0.0622
  840MOL0     C15825   4.858   5.334   4.197 -0.1186 -0.3869 -0.2911
  840MOL0     C15826   4.717   5.307   4.237 -0.0148 -0.2500  0.2819
  840MOL0    Cl15827   4.612   5.452   4.240 -0.6917  0.3462 -0.3800
  840MOL0     C15828   5.481   4.945   4.439 -0.8261 -0.4311 -0.3385
  840MOL0     C15829   5.540   4.823   4.489  0.4699  0.6186 -0.2862
  840MOL0     O15830   5.413   4.543   4.512  0.5287  0.4358 -0.4854
  840MOL0     C15831   5.491   4.333   4.659 -0.4006  0.0514 -0.5971
  840MOL0     C15832   5.519   4.203   4.716  0.7913 -0.3551 -0.8157
  840MOL0     N15833   6.066   3.829   4.850  0.4109  0.2106 -0.3210
  840MOL0     N15834   6.163   3.906   4.822 -0.2545 -0.3296 -0.1273
  840MOL0     C15835   6.128   4.972   4.242  0.2501 -0.2095 -0.5904
  840MOL0     C15836   6.053   5.085   4.220 -1.0724 -0.3876  1.4546
  840MOL0     C15837   5.715   5.387   4.259 -0.3155  0.2525 -0.1970
  840MOL0     C15838   5.718   5.441   4.131 -0.6490  1.4530  0.4129
  840MOL0     C15839   5.627   5.542   4.087 -0.7223 -0.8009  0.3942
  840MOL0     C15840   5.526   5.589   4.171  0.9293  0.1772 -0.7968
  840MOL0     O15841   5.450   5.687   4.128 -0.5746 -0.5492  0.1014
  840MOL0     C15842   5.358   5.756   4.210  1.2349  0.3323 -0.1005
  840MOL0     C15843   5.276   5.863   4.143 -0.3564 -0.2213 -0.0133
  840MOL0     C15844   5.167   5.810   4.045 -0.1234 -0.7376  0.9658
  840MOL0     C15845   5.117   5.927   3.950  1.1631  0.2007 -1.0739
  840MOL0     C15846   5.190   5.913   3.820 -0.2511 -0.6765  0.9773
  840MOL0     C15847   5.263   5.897   3.722  0.3735  0.0230  0.8738
  840MOL0     C15848   5.521   5.536   4.302 -0.3692 -0.0509  0.4919
  840MOL0     C15849   5.613   5.436   4.348  0.2212  0.0692  0.5602
  840MOL0     C15850   5.601   5.389   4.492  0.5047  0.3086  0.5169
  840MOL0     H15851   5.764   4.943   4.145  0.3669  1.5702  2.9154
  840MOL0     H15852   5.884   4.743   4.184  1.2701 -0.3535  2.1356
  840MOL0     H15853   6.027   4.590   4.232  0.7795 -0.6947 -1.4399
  840MOL0     H15854   6.105   4.642   4.381 -0.7609  1.6080 -0.4168
  840MOL0     H15855   6.229   4.496   4.138 -1.0154 -0.0814  0.3637
  840MOL0     H15856   6.326   4.528   4.289 -2.3956  2.0596  5.0882
  840MOL0     H15857   6.131   4.387   4.397  0.9562  1.4811  1.0998
  840MOL0     H15858   6.103   4.342   4.227  1.0076  1.9649 -0.5248
  840MOL0     H15859   6.369   4.296   4.229 -1.8951 -0.0115 -0.8236
  840MOL0     H15860   6.344   4.279   4.406 -1.6144  1.5385  0.7447
  840MOL0     H15861   6.336   4.071   4.267  1.0487  0.1137  3.6399
  840MOL0     H15862   6.164   4.122   4.216  0.5765 -1.7495 -0.7667
  840MOL0     H15863   6.117   4.141   4.454  3.2261  3.2164  0.1989
  840MOL0     H15864   6.135   3.983   4.377  0.2693 -0.2234 -0.4072
  840MOL0     H15865   6.391   4.076   4.504 -0.3137 -1.1416 -0.7884
  840MOL0     H15866   6.307   3.920   4.506  2.9299 -0.0604 -1.6689
  840MOL0     H15867   6.337   4.050   4.724 -1.1303 -0.3411  1.1557
  840MOL0     H15868   6.221   4.171   4.660 -3.8776 -0.8519  1.6991
  840MOL0     H15869   5.952   3.970   4.582 -1.7329  0.9019  0.8090
  840MOL0     H15870   5.851   3.668   4.693  0.3199 -2.0292  4.1840
  840MOL0     H15871   5.773   3.808   4.655  1.2994 -2.6754 -1.9532
  840MOL0     H15872   5.670   3.694   4.845 -2.3453  2.0915  2.7607
  840MOL0     H15873   5.825   3.695   4.926 -0.1131 -0.0806 -0.1608
  840MOL0     H15874   5.666   3.846   5.016 -1.3380 -0.1519 -0.7048
  840MOL0     H15875   5.806   3.942   4.968 -0.6522  0.8634 -0.8164
  840MOL0     H15876   5.534   3.919   4.823 -0.3541 -0.0058 -0.6243
  840MOL0     H15877   5.588   4.052   4.917 -1.6225 -0.8949  0.3473
  840MOL0     H15878   5.829   4.163   4.594  0.3341 -0.5776 -1.0667
  840MOL0     H15879   5.763   4.411   4.362  2.2913  0.4607 -1.1341
  840MOL0     H15880   5.871   4.292   4.426  1.1324  2.1839 -1.4006
  840MOL0     H15881   5.871   4.459   4.497 -0.3107  0.8922 -1.5767
  840MOL0     H15882   5.577   4.653   4.201  0.4961 -2.1359  1.5813
  840MOL0     H15883   5.519   4.876   4.106  0.1561 -0.5654 -0.5904
  840MOL0     H15884   5.480   5.086   4.060 -0.5630  2.5818 -1.1643
  840MOL0     H15885   5.308   5.043   4.103 -0.7503  2.7257 -1.6806
  840MOL0     H15886   5.421   5.309   4.082  0.5757 -2.9874 -1.9724
  840MOL0     H15887   5.302   5.237   3.986  0.0995 -1.1891 -0.4400
  840MOL0     H15888   5.287   5.317   4.284  1.1228 -0.2867  0.1149
  840MOL0     H15889   5.167   5.210   4.210  0.0174  0.3619 -1.7025
  840MOL0     H15890   5.093   5.392   4.061  1.4058  2.1279 -2.0669
  840MOL0     H15891   5.241   5.477   4.097 -0.4039 -2.3053 -3.9520
  840MOL0     H15892   5.111   5.531   4.318  0.3047 -1.3391  0.4246
  840MOL0     H15893   5.014   5.577   4.181 -2.4541 -1.0157  2.1585
  840MOL0     H15894   4.896   5.452   4.376  1.1393  0.7592  0.2669
  840MOL0     H15895   5.005   5.317   4.353  0.6172  0.4436  0.0494
  840MOL0     H15896   4.907   5.238   4.179  1.6253  0.0297  1.7385
  840MOL0     H15897   4.847   5.393   4.106 -1.2073  4.4837  2.6149
  840MOL0     H15898   4.708   5.244   4.326 -0.6647  1.2152  1.2903
  840MOL0     H15899   4.686   5.255   4.146  1.0162  3.5666 -2.5022
  840MOL0     H15900   5.449   5.017   4.513 -0.8022 -1.3555  0.5908
  840MOL0     H15901   5.541   4.818   4.597  0.2331  2.1951 -0.1818
  840MOL0     H15902   5.400   4.379   4.695 -1.3217 -2.4338  0.5430
  840MOL0     H15903   5.447   4.166   4.788  0.0243  0.6597 -1.0374
  840MOL0     H15904   6.229   4.996   4.275  0.1036 -1.8303  1.2008
  840MOL0     H15905   6.090   5.183   4.245 -1.5128 -0.0513  0.8115
  840MOL0     H15906   5.790   5.412   4.055  1.2977  1.1912  2.2956
  840MOL0     H15907   5.631   5.585   3.988 -2.1519  2.4200  1.5894
  840MOL0     H15908   5.288   5.682   4.250  2.0481  0.6119  1.9812
  840MOL0     H15909   5.419   5.804   4.287 -1.2829  0.6815  1.8098
  840MOL0     H15910   5.337   5.937   4.091 -0.9214 -0.3590 -0.8931
  840MOL0     H15911   5.232   5.925   4.222  0.2719  1.3617 -0.8435
  840MOL0     H15912   5.209   5.720   3.999  2.2618  0.0105  1.5004
  840MOL0     H15913   5.071   5.785   4.091 -0.6414 -1.7448 -0.5862
  840MOL0     H15914   5.129   6.026   3.996  2.4651 -1.0168  1.4237
  840MOL0     H15915   5.010   5.919   3.931  0.7411  1.5187  0.4645
  840MOL0     H15916   5.332   5.892   3.640  2.0953  0.1505  2.2418
  840MOL0     H15917   5.458   5.578   4.380  2.2537  4.8259  0.3635
  840MOL0     H15918   5.677   5.440   4.552 -0.1147  2.2179 -0.2110
  840MOL0     H15919   5.502   5.406   4.535 -0.3758 -0.9123 -0.9418
  840MOL0     H15920   5.606   5.280   4.489 -3.1045 -0.0126  1.4080
  841MOL0     O15921   2.678   0.379   1.135 -0.2070  0.0210  0.2843
  841MOL0     C15922   2.577   0.345   1.079  0.2585 -0.1139  0.2106
  841MOL0     O15923   2.480   0.428   1.030 -0.0214 -0.7163 -0.0436
  841MOL0     C15924   2.492   0.559   1.067 -0.3181 -0.4278 -0.4865
  841MOL0     C15925   2.547   0.643   0.969 -0.7862 -0.8796  0.0826
  841MOL0     C15926   2.565   0.787   0.991  0.1412  0.4050 -0.2022
  841MOL0     C15927   2.543   0.841   1.120  0.2357  0.5356  0.5023
  841MOL0     O15928   2.545   0.977   1.135 -0.6306 -0.4307  0.2875
  841MOL0     C15929   2.670   1.043   1.098 -0.2868 -0.3097 -0.4232
  841MOL0     C15930   2.636   1.156   1.006  1.6919  0.2941  0.3611
  841MOL0     C15931   2.578   1.102   0.873  0.7378  0.9324 -0.2183
  841MOL0     C15932   2.537   1.216   0.789  0.5822 -0.7461 -0.1375
  841MOL0     C15933   2.519   1.206   0.636 -0.3498  0.8610 -0.5083
  841MOL0     C15934   2.455   1.078   0.590  0.7393  0.1863  1.0740
  841MOL0     C15935   2.377   1.104   0.456  0.2564  0.3212  0.0697
  841MOL0     C15936   2.319   0.963   0.399  0.1443 -0.2136 -0.0116
  841MOL0     N15937   2.219   0.897   0.490  0.1400  0.3704 -0.8884
  841MOL0     C15938   2.251   0.829   0.603  1.1323 -0.0756  0.2205
  841MOL0     C15939   2.140   0.810   0.675 -1.1475 -0.7974 -0.1453
  841MOL0     C15940   2.129   0.728   0.797  0.2651  0.3928  0.4468
  841MOL0     C15941   2.104   0.811   0.922  0.3137 -0.0870 -0.3965
  841MOL0     C15942   2.214   0.924   0.941  0.7885  0.2786 -0.1319
  841MOL0     C15943   2.182   1.020   1.055  0.0419 -0.5863  0.0968
  841MOL0     O15944   2.073   1.107   0.998  0.0790 -0.1405  0.2373
  841MOL0     C15945   2.111   1.192   0.898 -0.2512 -0.4315 -0.2214
  841MOL0     C15946   2.179   1.313   0.929  0.0835  0.7655  0.3903
  841MOL0     C15947   2.202   1.407   0.831  0.8888  0.0216 -0.5768
  841MOL0     C15948   2.259   1.535   0.879 -0.2936  1.0574  1.1320
  841MOL0     C15949   2.175   1.378   0.696  0.0177 -0.3518  0.4524
  841MOL0     C15950   2.241   1.442   0.581 -0.6477  0.1716  0.5215
  841MOL0     O15951   2.182   1.429   0.454  0.5312  0.3086  0.1874
  841MOL0     C15952   2.229   1.512   0.351  0.0598  0.2284 -0.2115
  841MOL0     C15953   2.343   1.482   0.260  0.0129 -0.5150 -1.7071
  841MOL0     C15954   2.376   1.568   0.161 -0.1152  0.9022 -0.1224
  841MOL0     C15955   2.310   1.693   0.143 -0.6723  0.2583 -0.3570
  841MOL0     O15956   2.340   1.760   0.031  0.0518 -0.2462 -0.5464
  841MOL0     C15957   2.466   1.822   0.046 -0.1327 -0.4284  0.3596
  841MOL0     C15958   2.490   1.938  -0.048  0.5564 -0.1918 -0.1393
  841MOL0     C15959   2.491   1.885  -0.191  0.0486  0.3489  0.0342
  841MOL0     C15960   2.492   1.998  -0.294 -0.6265  0.4489  0.4349
  841MOL0     C15961   2.598   2.112  -0.289  0.0575 -0.3165  0.8730
  841MOL0     C15962   2.740   2.059  -0.320 -0.4618  0.3833  0.2713
  841MOL0     C15963   2.831   2.182  -0.313 -0.3405 -0.1719  0.3461
  841MOL0     C15964   2.974   2.147  -0.370 -0.0927  0.6848 -0.5701
  841MOL0    Cl15965   3.024   1.983  -0.320  0.3137  0.2522  0.0545
  841MOL0     C15966   2.207   1.722   0.231 -0.2689 -0.7262  0.6517
  841MOL0     C15967   2.165   1.637   0.335  0.3881  0.6628  0.0577
  841MOL0     O15968   2.344   1.500   0.605 -1.2616  0.0367  0.3868
  841MOL0     C15969   2.083   1.272   0.664 -0.7394  0.1281  0.3702
  841MOL0     C15970   2.066   1.171   0.764  0.3784 -0.4100 -0.1340
  841MOL0     N15971   2.037   0.880   0.609 -0.4736 -1.8178  0.4556
  841MOL0     N15972   2.088   0.942   0.502 -0.1846  0.5790  0.0060
  841MOL0     C15973   2.485   0.760   1.214 -1.0678 -0.4623 -0.5834
  841MOL0     C15974   2.465   0.625   1.188  0.6498 -0.2803  0.3663
  841MOL0     C15975   2.548   0.205   1.075 -0.0577  0.6889 -0.2615
  841MOL0     C15976   2.424   0.170   1.023 -0.0908 -0.7729  0.4971
  841MOL0     C15977   2.376   0.039   1.026  0.7517 -1.4116 -0.4388
  841MOL0     C15978   2.451  -0.063   1.081 -0.6344  0.4441 -0.2708
  841MOL0     O15979   2.394  -0.190   1.076  0.0888  0.5571  0.0540
  841MOL0     C15980   2.470  -0.302   1.117  0.6722  0.1085 -1.2525
  841MOL0     C15981   2.581  -0.346   1.022 -0.1764  0.2392 -0.0736
  841MOL0     C15982   2.672  -0.444   1.085 -0.2700 -0.3689 -0.2171
  841MOL0     C15983   2.802  -0.462   0.999  0.6225 -0.1721  0.0098
  841MOL0     C15984   2.874  -0.333   0.981 -0.2647  0.3051  0.1026
  841MOL0     C15985   2.943  -0.233   0.950 -0.0712 -0.1811 -0.9378
  841MOL0     C15986   2.582  -0.036   1.130  0.3703 -0.4087  0.8126
  841MOL0     C15987   2.628   0.102   1.132  0.3433 -1.3109  0.5094
  841MOL0     C15988   2.760   0.121   1.205  0.4888  0.2160  0.5072
  841MOL0     H15989   2.579   0.607   0.872 -0.7647 -2.1230  0.5317
  841MOL0     H15990   2.608   0.848   0.912  2.1280  1.2367  1.4220
  841MOL0     H15991   2.740   0.974   1.051 -0.5670 -1.2669  0.5308
  841MOL0     H15992   2.720   1.090   1.183 -0.0921 -0.2449 -0.5736
  841MOL0     H15993   2.560   1.216   1.057  0.1157 -3.6426  3.1668
  841MOL0     H15994   2.725   1.219   0.994  1.7056 -0.1769 -2.9362
  841MOL0     H15995   2.651   1.036   0.825 -0.6145 -0.8526  0.0813
  841MOL0     H15996   2.486   1.044   0.890  1.7440 -0.8053 -0.4556
  841MOL0     H15997   2.440   1.241   0.833  0.8178 -2.0519  1.1838
  841MOL0     H15998   2.600   1.304   0.806 -1.2942  0.7288 -0.3763
  841MOL0     H15999   2.620   1.217   0.597 -0.3364  0.0626 -0.7292
  841MOL0     H16000   2.467   1.289   0.590 -1.4991  0.2677 -0.3193
  841MOL0     H16001   2.530   1.000   0.575  1.3261  1.1833 -1.7481
  841MOL0     H16002   2.384   1.046   0.667  2.0050 -2.6695  1.1809
  841MOL0     H16003   2.442   1.156   0.385 -1.2144  0.2526 -1.3929
  841MOL0     H16004   2.291   1.171   0.462  0.1127  0.4478 -2.4713
  841MOL0     H16005   2.265   0.984   0.306  1.0189 -1.6915 -0.9057
  841MOL0     H16006   2.403   0.897   0.373  0.6549  0.1623  0.6584
  841MOL0     H16007   2.346   0.800   0.647  0.8703  0.9400  1.4934
  841MOL0     H16008   2.208   0.653   0.798  2.0172  2.0289 -2.0455
  841MOL0     H16009   2.036   0.672   0.780  1.9243 -2.4397  0.0415
  841MOL0     H16010   2.000   0.844   0.917  0.2216 -0.0527  1.3165
  841MOL0     H16011   2.108   0.741   1.006  3.6924  0.0236 -0.3073
  841MOL0     H16012   2.304   0.870   0.972 -0.1309 -1.2847 -0.0951
  841MOL0     H16013   2.231   0.976   0.847  0.7676 -0.4201 -0.5268
  841MOL0     H16014   2.147   0.969   1.146  0.4040 -2.0552 -0.5562
  841MOL0     H16015   2.273   1.067   1.095  0.4838 -3.2585  2.5859
  841MOL0     H16016   2.205   1.329   1.034  0.8111 -1.2584  0.5758
  841MOL0     H16017   2.368   1.519   0.884 -0.6157 -1.3592  1.7031
  841MOL0     H16018   2.224   1.559   0.979  0.3866 -0.4471  1.7703
  841MOL0     H16019   2.231   1.606   0.801 -0.0503 -4.8461 -5.3830
  841MOL0     H16020   2.388   1.385   0.277  1.2035  0.4220  1.1142
  841MOL0     H16021   2.455   1.530   0.097  1.2457  3.3217  0.0128
  841MOL0     H16022   2.490   1.855   0.147  0.7009  0.7225 -0.1862
  841MOL0     H16023   2.546   1.751   0.022  1.1162  0.8513  0.5893
  841MOL0     H16024   2.409   2.009  -0.029 -0.2036 -1.1392  0.2317
  841MOL0     H16025   2.583   1.987  -0.016 -0.8319  2.5140  0.0091
  841MOL0     H16026   2.407   1.819  -0.216 -0.5329  1.5470 -1.3507
  841MOL0     H16027   2.583   1.827  -0.201 -0.8847 -1.0902 -0.6098
  841MOL0     H16028   2.390   2.035  -0.289 -0.6574  1.0920 -2.8212
  841MOL0     H16029   2.495   1.943  -0.389 -2.3054 -0.4953  0.8837
  841MOL0     H16030   2.575   2.199  -0.351  1.0771  2.4703  4.1094
  841MOL0     H16031   2.584   2.149  -0.187  0.0235  0.8411  0.4617
  841MOL0     H16032   2.745   2.031  -0.426 -1.0919  1.3178 -0.0177
  841MOL0     H16033   2.765   1.981  -0.248 -0.3086  2.0928  2.1546
  841MOL0     H16034   2.855   2.213  -0.211  0.7276 -0.9880  0.3615
  841MOL0     H16035   2.779   2.265  -0.362  0.1118  1.4972  2.5086
  841MOL0     H16036   3.046   2.226  -0.348 -0.4195  1.4127 -2.0014
  841MOL0     H16037   2.972   2.139  -0.479 -0.0620  1.6612 -0.6481
  841MOL0     H16038   2.160   1.816   0.205  0.4741 -1.3962 -3.9357
  841MOL0     H16039   2.084   1.673   0.397  0.0289  1.1482 -0.6630
  841MOL0     H16040   2.050   1.245   0.565 -1.0088 -0.3526  0.5882
  841MOL0     H16041   2.004   1.087   0.734 -0.5064  0.2983 -0.3303
  841MOL0     H16042   2.452   0.811   1.304 -1.1392 -1.5762  0.0318
  841MOL0     H16043   2.403   0.562   1.251  0.7749 -0.5127  0.2589
  841MOL0     H16044   2.364   0.251   0.984  2.4418  1.8005  1.6062
  841MOL0     H16045   2.278   0.010   0.990 -0.0860  1.5194 -0.7220
  841MOL0     H16046   2.510  -0.292   1.218  0.9865 -2.1250 -1.0983
  841MOL0     H16047   2.393  -0.378   1.132  2.2630 -1.0618  2.1377
  841MOL0     H16048   2.629  -0.258   0.979  2.2419 -0.3726  1.1877
  841MOL0     H16049   2.536  -0.399   0.937 -0.8945  3.3156 -1.7316
  841MOL0     H16050   2.701  -0.406   1.184 -0.0602  1.2371 -0.8644
  841MOL0     H16051   2.634  -0.546   1.086 -0.0096 -0.4774 -0.8483
  841MOL0     H16052   2.773  -0.506   0.903  1.4731 -1.1862  0.2007
  841MOL0     H16053   2.878  -0.525   1.047  0.3832 -0.1725  0.3895
  841MOL0     H16054   2.996  -0.149   0.908 -1.7528  0.1588 -2.5090
  841MOL0     H16055   2.644  -0.117   1.166  0.2523 -0.4112  1.0055
  841MOL0     H16056   2.786   0.025   1.250 -4.9823 -1.9608 -0.2517
  841MOL0     H16057   2.839   0.154   1.137  1.3245  2.4695  2.4619
  841MOL0     H16058   2.749   0.198   1.281 -3.2623  1.7105 -1.2850
  842MOL0     O16059   1.082   3.279   8.945  0.3511  0.7278  0.4681
  842MOL0     C16060   0.973   3.327   8.962  0.2018 -0.3919 -0.1513
  842MOL0     O16061   0.869   3.308   8.881 -0.3204 -0.2547 -0.2479
  842MOL0     C16062   0.877   3.187   8.815 -0.1008 -0.4568  0.8910
  842MOL0     C16063   0.880   3.061   8.879 -0.3252 -0.8459  1.0360
  842MOL0     C16064   0.890   2.943   8.801  0.4196  0.0257 -0.2919
  842MOL0     C16065   0.897   2.950   8.666 -0.2119 -0.2544  0.1516
  842MOL0     O16066   0.898   2.834   8.592  0.4920  0.1483 -0.3718
  842MOL0     C16067   0.868   2.847   8.458 -0.6396 -0.2516  0.2331
  842MOL0     C16068   0.839   2.714   8.392 -1.2323 -0.2323 -0.8580
  842MOL0     C16069   0.729   2.642   8.456 -0.3160  0.6268 -0.2585
  842MOL0     C16070   0.677   2.509   8.395  0.2894 -1.1037  0.4601
  842MOL0     C16071   0.584   2.411   8.479  0.5209  0.4735 -0.1919
  842MOL0     C16072   0.651   2.368   8.610 -0.0645 -0.3276 -0.2191
  842MOL0     C16073   0.555   2.273   8.681 -0.6085 -0.1064  0.7592
  842MOL0     C16074   0.619   2.197   8.796 -0.5976 -0.1601  0.5364
  842MOL0     N16075   0.507   2.129   8.873 -1.2583 -0.4447 -0.8315
  842MOL0     C16076   0.407   2.177   8.960 -0.5156  0.4874 -0.1102
  842MOL0     C16077   0.333   2.065   9.000 -0.7620 -0.0644  0.6308
  842MOL0     C16078   0.201   2.079   9.069 -0.6606  0.7388  0.9929
  842MOL0     C16079   0.097   2.152   8.980 -0.5307 -0.1011 -0.7802
  842MOL0     C16080  -0.051   2.126   9.016  0.1993  0.7612 -0.0991
  842MOL0     C16081  -0.072   2.129   9.169 -0.3891 -0.7935 -0.2463
  842MOL0     O16082  -0.200   2.095   9.218 -0.0334  0.5108  0.2293
  842MOL0     C16083  -0.279   2.197   9.278 -0.4330  0.6473  0.2887
  842MOL0     C16084  -0.385   2.153   9.363 -0.7525 -0.0028  0.6368
  842MOL0     C16085  -0.469   2.249   9.421  0.2189 -0.3601  0.4379
  842MOL0     C16086  -0.571   2.205   9.510 -0.0198 -0.0428  0.0747
  842MOL0     C16087  -0.443   2.389   9.394 -0.0130  0.5933 -0.1829
  842MOL0     C16088  -0.525   2.500   9.447  0.1278  0.3830  0.9207
  842MOL0     O16089  -0.532   2.617   9.374 -1.1714 -0.3083 -0.1247
  842MOL0     C16090  -0.607   2.714   9.418 -0.3768 -0.1981  0.5875
  842MOL0     C16091  -0.569   2.777   9.532 -0.6127  0.6592 -0.1169
  842MOL0     C16092  -0.656   2.869   9.591 -0.0552  0.1175 -0.4840
  842MOL0     C16093  -0.789   2.905   9.539 -0.6915 -1.2325  0.7164
  842MOL0     O16094  -0.873   3.005   9.593 -0.1294 -0.0938 -0.4239
  842MOL0     C16095  -0.821   3.092   9.694 -1.1516  0.1782 -0.0531
  842MOL0     C16096  -0.930   3.203   9.709 -0.6234 -0.4117 -0.0837
  842MOL0     C16097  -1.069   3.150   9.742  0.4204 -1.0811  0.0976
  842MOL0     C16098  -1.139   3.257   9.835  0.3463  0.3706 -0.2081
  842MOL0     C16099  -1.272   3.200   9.900 -0.1739 -0.9175 -0.6639
  842MOL0     C16100  -1.321   3.302  10.003 -0.2976  0.5549  1.1399
  842MOL0     C16101  -1.433   3.253  10.091 -0.2879  1.1828 -0.0035
  842MOL0     C16102  -1.393   3.166  10.207 -0.2304  0.0513  0.8542
  842MOL0    Cl16103  -1.531   3.068  10.266  0.2087  0.3582  0.0628
  842MOL0     C16104  -0.831   2.833   9.431 -0.0123  0.4911  0.3665
  842MOL0     C16105  -0.737   2.745   9.362  1.0393 -0.6678  0.4261
  842MOL0     O16106  -0.591   2.488   9.551 -0.1574  0.3905 -0.0407
  842MOL0     C16107  -0.345   2.428   9.305  0.0688  0.1147  0.2872
  842MOL0     C16108  -0.266   2.331   9.243 -0.2243 -0.4763 -0.2906
  842MOL0     N16109   0.394   1.957   8.931 -0.0847  0.0660  0.9440
  842MOL0     N16110   0.493   1.993   8.860 -0.4338  0.0436  0.3549
  842MOL0     C16111   0.905   3.078   8.603  0.0670 -0.3916  0.6188
  842MOL0     C16112   0.896   3.196   8.678 -0.2407 -0.1489 -0.4395
  842MOL0     C16113   0.975   3.448   9.044 -0.0804  0.7100 -0.8456
  842MOL0     C16114   0.882   3.552   9.022  0.5504  0.8458  0.4666
  842MOL0     C16115   0.868   3.655   9.106  0.5711  0.0767  0.1865
  842MOL0     C16116   0.950   3.677   9.221  0.1669  0.6598  0.0119
  842MOL0     O16117   0.924   3.784   9.302 -1.5104  0.2446 -0.4458
  842MOL0     C16118   0.902   3.917   9.246  0.3022  0.0957 -0.1937
  842MOL0     C16119   0.759   3.946   9.251 -0.0150  0.1744 -0.1179
  842MOL0     C16120   0.701   3.931   9.391 -0.1654 -0.0813 -0.0183
  842MOL0     C16121   0.550   3.923   9.368 -0.3802  0.2988 -0.6746
  842MOL0     C16122   0.489   3.901   9.502  0.6012  0.0189  0.2046
  842MOL0     C16123   0.442   3.867   9.610  0.8320  0.4393 -0.2939
  842MOL0     C16124   1.042   3.580   9.245  0.4138  0.2300  0.4885
  842MOL0     C16125   1.055   3.462   9.168 -0.2233  0.5713  0.2759
  842MOL0     C16126   1.136   3.345   9.219 -0.0411  0.0136 -1.0278
  842MOL0     H16127   0.888   3.065   8.988  4.4261 -1.6817  0.9504
  842MOL0     H16128   0.897   2.845   8.847  2.7348  0.1812 -0.1580
  842MOL0     H16129   0.942   2.905   8.402  2.0581 -1.4641  2.3067
  842MOL0     H16130   0.776   2.906   8.455 -0.6786 -0.2781  0.8044
  842MOL0     H16131   0.822   2.734   8.285  0.9053  0.8194 -1.0521
  842MOL0     H16132   0.938   2.666   8.386  1.0762  4.0145 -0.8069
  842MOL0     H16133   0.767   2.614   8.555  2.2218 -1.0111 -1.5808
  842MOL0     H16134   0.652   2.718   8.470 -1.4119 -0.1541 -1.8175
  842MOL0     H16135   0.633   2.544   8.302  1.1773  1.5236  0.9122
  842MOL0     H16136   0.753   2.444   8.352 -1.0474 -1.4270 -1.4925
  842MOL0     H16137   0.571   2.323   8.416 -0.0444 -1.1747  2.1032
  842MOL0     H16138   0.485   2.449   8.506  0.2106 -0.1769 -0.3852
  842MOL0     H16139   0.743   2.313   8.587 -0.0923 -0.1127 -0.8509
  842MOL0     H16140   0.663   2.459   8.670 -0.4665  0.5151 -1.3852
  842MOL0     H16141   0.525   2.198   8.606 -1.7214  0.5409  0.5381
  842MOL0     H16142   0.467   2.329   8.712  0.6536  4.3100 -2.5738
  842MOL0     H16143   0.692   2.124   8.758 -1.1065 -0.5051  0.2127
  842MOL0     H16144   0.664   2.270   8.864 -1.9725  0.5320  0.7430
  842MOL0     H16145   0.381   2.279   8.987 -2.8962 -0.2194  0.4864
  842MOL0     H16146   0.217   2.119   9.169  1.9843  3.8229 -0.5085
  842MOL0     H16147   0.165   1.976   9.076  3.9568 -1.1809 -0.2012
  842MOL0     H16148   0.116   2.260   8.988  0.9220 -0.4064  0.0926
  842MOL0     H16149   0.108   2.133   8.873 -1.3578  5.7090 -2.2822
  842MOL0     H16150  -0.105   2.210   8.972  0.2672 -0.5670 -2.9306
  842MOL0     H16151  -0.095   2.040   8.965 -1.6935  0.1939  2.2585
  842MOL0     H16152  -0.003   2.063   9.223  0.3149 -0.2507 -0.4677
  842MOL0     H16153  -0.038   2.228   9.203  0.2869 -0.8243 -0.8122
  842MOL0     H16154  -0.407   2.048   9.378  1.8329 -0.2106  4.5804
  842MOL0     H16155  -0.665   2.236   9.463  1.3957 -0.3947 -3.2925
  842MOL0     H16156  -0.559   2.241   9.613 -2.4022 -3.3813  1.7208
  842MOL0     H16157  -0.575   2.097   9.528 -3.6207 -0.0727 -0.3125
  842MOL0     H16158  -0.471   2.760   9.577  0.1105  0.7539 -1.6079
  842MOL0     H16159  -0.632   2.907   9.689 -3.7941 -0.3662  0.7626
  842MOL0     H16160  -0.817   3.037   9.788 -1.0994  2.0653  1.0897
  842MOL0     H16161  -0.724   3.138   9.674 -0.3347 -2.0883 -1.7660
  842MOL0     H16162  -0.888   3.270   9.786  1.0608 -0.9888 -0.4482
  842MOL0     H16163  -0.918   3.262   9.617 -0.6342 -0.2517  0.0166
  842MOL0     H16164  -1.043   3.059   9.797 -0.0652  0.1789  2.5828
  842MOL0     H16165  -1.134   3.126   9.657 -3.0311  1.3659  1.7691
  842MOL0     H16166  -1.169   3.342   9.774  1.4122  0.4107 -0.7014
  842MOL0     H16167  -1.075   3.306   9.909  0.4512 -0.4135  0.2285
  842MOL0     H16168  -1.352   3.180   9.829  0.0749 -1.4223 -0.8052
  842MOL0     H16169  -1.251   3.111   9.960  2.1543  0.4963  0.8210
  842MOL0     H16170  -1.364   3.383   9.944  1.5896  0.4940 -0.3960
  842MOL0     H16171  -1.236   3.335  10.064  2.7365 -2.4321 -1.0931
  842MOL0     H16172  -1.495   3.187  10.030  1.1150  0.2173 -0.4563
  842MOL0     H16173  -1.490   3.340  10.124 -2.4016 -1.0776  2.8560
  842MOL0     H16174  -1.356   3.215  10.297 -1.2489  1.7738  0.3911
  842MOL0     H16175  -1.322   3.090  10.175 -1.3022 -0.9273  0.7033
  842MOL0     H16176  -0.931   2.847   9.393 -1.1159 -3.0855  1.5953
  842MOL0     H16177  -0.766   2.695   9.270 -3.6175  1.1659  0.5925
  842MOL0     H16178  -0.327   2.532   9.279  2.9072 -0.5772 -0.7825
  842MOL0     H16179  -0.214   2.370   9.156 -3.7896  4.3720 -0.6553
  842MOL0     H16180   0.906   3.097   8.496 -3.0053  0.1086  0.5895
  842MOL0     H16181   0.888   3.295   8.636 -0.3441 -0.1332 -0.3844
  842MOL0     H16182   0.817   3.564   8.936 -1.6322 -1.2767  1.6931
  842MOL0     H16183   0.789   3.723   9.076  1.0299  0.6582  0.2844
  842MOL0     H16184   0.953   3.989   9.311 -0.7516  2.4008 -1.7635
  842MOL0     H16185   0.929   3.922   9.140 -0.6667 -2.1208 -0.6040
  842MOL0     H16186   0.716   3.880   9.175  0.2252 -1.7217  1.3223
  842MOL0     H16187   0.744   4.050   9.224  3.4365  1.6174  2.6002
  842MOL0     H16188   0.739   3.845   9.448  1.2642 -1.4790 -2.8712
  842MOL0     H16189   0.713   4.024   9.446 -1.0149 -1.4746  2.7101
  842MOL0     H16190   0.516   3.843   9.301 -0.8752 -0.7499  0.7488
  842MOL0     H16191   0.505   4.015   9.329 -1.9625  0.3551  1.1218
  842MOL0     H16192   0.406   3.833   9.705 -1.0533 -0.8631 -1.4024
  842MOL0     H16193   1.092   3.587   9.340  0.1924  2.1485  0.4991
  842MOL0     H16194   1.192   3.361   9.311 -1.2357 -0.7294 -0.1445
  842MOL0     H16195   1.073   3.257   9.234  2.0823 -1.1991  1.5921
  842MOL0     H16196   1.220   3.326   9.152 -0.2907 -0.4076 -1.2249
  843MOL0     O16197   4.617   4.628   8.639 -0.3144 -1.0038 -0.4245
  843MOL0     C16198   4.604   4.566   8.538 -0.5290  0.1267 -0.2438
  843MOL0     O16199   4.694   4.474   8.498 -0.2849 -0.9163  0.3500
  843MOL0     C16200   4.775   4.401   8.577  0.0908 -0.3263  0.2796
  843MOL0     C16201   4.743   4.373   8.714 -0.5741  0.0796 -0.2972
  843MOL0     C16202   4.829   4.293   8.794 -0.0355 -0.1142 -0.6492
  843MOL0     C16203   4.946   4.242   8.746  0.0424 -0.7751 -1.0796
  843MOL0     O16204   5.034   4.168   8.831  0.2432 -0.6975 -0.3333
  843MOL0     C16205   5.178   4.163   8.807  0.4355 -0.3532 -0.1591
  843MOL0     C16206   5.249   4.205   8.928 -0.6744 -0.1710  1.0645
  843MOL0     C16207   5.247   4.099   9.040  0.4476  0.4670 -0.2422
  843MOL0     C16208   5.317   4.146   9.167 -0.2028  0.0743 -0.4951
  843MOL0     C16209   5.309   4.052   9.290  0.1112 -0.6388 -0.1003
  843MOL0     C16210   5.370   4.127   9.409  1.6272 -0.4070 -0.0190
  843MOL0     C16211   5.385   4.053   9.542 -0.1072  0.7750  0.7947
  843MOL0     C16212   5.254   4.039   9.615  0.5307 -0.2531 -0.8177
  843MOL0     N16213   5.193   4.165   9.664  0.3459 -0.2153 -0.1289
  843MOL0     C16214   5.262   4.275   9.722  0.2361 -0.0885 -0.3090
  843MOL0     C16215   5.167   4.357   9.773  0.3247  0.0235 -0.3711
  843MOL0     C16216   5.189   4.479   9.857  0.6358  0.3504 -0.8507
  843MOL0     C16217   5.243   4.596   9.774  0.3396  0.3837  0.4150
  843MOL0     C16218   5.282   4.711   9.866  0.5006 -0.4320 -0.1085
  843MOL0     C16219   5.293   4.837   9.788  0.0723  0.2407  0.2713
  843MOL0     O16220   5.408   4.812   9.711 -0.2796  0.2582 -0.3973
  843MOL0     C16221   5.403   4.883   9.597  0.2991 -0.0344  0.9182
  843MOL0     C16222   5.364   4.826   9.475 -0.7444  0.5817  0.2248
  843MOL0     C16223   5.348   4.904   9.359 -0.2178  0.4927 -0.1151
  843MOL0     C16224   5.307   4.828   9.233  1.0946  0.1361 -0.4045
  843MOL0     C16225   5.377   5.042   9.366  0.6829  0.1197 -0.2613
  843MOL0     C16226   5.375   5.132   9.244  0.1309  0.5773 -0.0866
  843MOL0     O16227   5.466   5.236   9.240 -1.0354 -0.4988 -0.3374
  843MOL0     C16228   5.445   5.350   9.161  0.0414 -0.7296  0.0251
  843MOL0     C16229   5.559   5.408   9.113 -0.5209  0.0168 -1.0270
  843MOL0     C16230   5.534   5.510   9.018 -0.5880  0.1661 -0.4877
  843MOL0     C16231   5.408   5.560   8.987  0.4930 -0.8947 -1.2208
  843MOL0     O16232   5.398   5.668   8.901  0.1661  0.0559 -0.5032
  843MOL0     C16233   5.345   5.793   8.967 -0.3238  0.0563 -0.1953
  843MOL0     C16234   5.454   5.843   9.063 -0.2674  0.7317 -0.7992
  843MOL0     C16235   5.476   5.998   9.047 -0.5493 -0.0872 -0.3826
  843MOL0     C16236   5.594   6.059   9.128  0.9334 -1.0101 -0.1700
  843MOL0     C16237   5.657   6.171   9.050  0.2845 -0.6079 -0.1081
  843MOL0     C16238   5.774   6.230   9.137  0.5102  0.0775  0.4965
  843MOL0     C16239   5.836   6.354   9.065 -0.0253  0.4509 -0.3532
  843MOL0     C16240   5.772   6.495   9.090 -0.0578  0.5137 -0.4528
  843MOL0    Cl16241   5.808   6.544   9.253  0.4495 -0.5218 -0.3625
  843MOL0     C16242   5.296   5.505   9.041 -0.5676 -0.3244  0.0968
  843MOL0     C16243   5.318   5.404   9.134 -0.1102  0.4807 -0.4438
  843MOL0     O16244   5.287   5.116   9.162  0.0435  0.8557  0.1122
  843MOL0     C16245   5.417   5.101   9.483 -0.6808 -0.9337  0.0800
  843MOL0     C16246   5.423   5.028   9.603  0.8984  0.2597  0.1348
  843MOL0     N16247   5.040   4.293   9.747 -0.4620  0.4389  0.1579
  843MOL0     N16248   5.056   4.188   9.675  0.2804  0.3143 -0.8101
  843MOL0     C16249   4.981   4.268   8.610 -0.2295  0.0178  1.0857
  843MOL0     C16250   4.895   4.342   8.525 -0.3314  1.0498 -0.1456
  843MOL0     C16251   4.471   4.576   8.477  1.1779 -0.0938  0.8193
  843MOL0     C16252   4.455   4.532   8.340  1.0850 -0.8369 -0.5191
  843MOL0     C16253   4.338   4.531   8.268  0.4282  0.5881  0.7031
  843MOL0     C16254   4.225   4.592   8.327  0.3125  0.9167  0.4630
  843MOL0     O16255   4.109   4.586   8.247  0.6131  0.1832 -0.1002
  843MOL0     C16256   3.981   4.624   8.302  0.7310 -0.8479  0.2768
  843MOL0     C16257   3.888   4.652   8.186 -0.3215 -0.8947 -0.4652
  843MOL0     C16258   3.744   4.642   8.224  0.3179 -0.6793  0.4252
  843MOL0     C16259   3.654   4.587   8.119  0.0543  0.1038 -0.5064
  843MOL0     C16260   3.671   4.439   8.097 -0.7500 -0.2187  0.2372
  843MOL0     C16261   3.703   4.324   8.083  0.6289  0.3399  0.8936
  843MOL0     C16262   4.225   4.622   8.465  0.3762 -0.2647  0.3102
  843MOL0     C16263   4.345   4.617   8.542  0.0432 -0.3529  0.0188
  843MOL0     C16264   4.321   4.654   8.685 -0.1082 -0.4153  0.7929
  843MOL0     H16265   4.653   4.418   8.757 -1.1714  1.4249 -2.7720
  843MOL0     H16266   4.815   4.273   8.900  2.0609  2.4215  0.2174
  843MOL0     H16267   5.201   4.244   8.738 -0.7996 -0.8390 -1.1889
  843MOL0     H16268   5.228   4.071   8.774  0.3881 -0.5442  0.2946
  843MOL0     H16269   5.353   4.228   8.902 -1.1945 -0.4045 -1.4105
  843MOL0     H16270   5.219   4.297   8.978 -0.5150 -0.4647  1.7090
  843MOL0     H16271   5.142   4.082   9.066  0.1005  3.7438  1.0892
  843MOL0     H16272   5.296   4.008   9.005 -0.2005 -1.0811  2.6517
  843MOL0     H16273   5.419   4.179   9.149 -0.6916  2.1397  0.2712
  843MOL0     H16274   5.262   4.236   9.198  0.4163  0.8088 -1.4804
  843MOL0     H16275   5.372   3.964   9.276  0.9387 -0.1869  0.6636
  843MOL0     H16276   5.204   4.023   9.299 -0.1959  0.0784 -1.2002
  843MOL0     H16277   5.465   4.168   9.375  1.7264 -1.1719 -0.6825
  843MOL0     H16278   5.306   4.211   9.438  3.4186  0.9532  0.1496
  843MOL0     H16279   5.449   4.108   9.612  2.0226  0.0704 -0.5050
  843MOL0     H16280   5.424   3.952   9.531  2.7439  1.8516  0.0441
  843MOL0     H16281   5.181   3.992   9.548 -0.5246  0.7501 -0.4112
  843MOL0     H16282   5.263   3.974   9.703 -1.9354  0.0100 -0.2773
  843MOL0     H16283   5.369   4.296   9.721 -0.1503  2.6462  2.2719
  843MOL0     H16284   5.261   4.468   9.938  0.7473  1.3230 -0.8036
  843MOL0     H16285   5.087   4.500   9.890  0.0794 -0.8716 -1.7003
  843MOL0     H16286   5.332   4.566   9.719 -0.9805 -1.1760 -0.9949
  843MOL0     H16287   5.165   4.621   9.702 -1.1991 -0.3574  1.7533
  843MOL0     H16288   5.206   4.715   9.945 -1.2024  2.2892 -1.7396
  843MOL0     H16289   5.380   4.703   9.912  0.9766  2.5046 -0.4385
  843MOL0     H16290   5.200   4.858   9.734 -0.4077 -0.0883  0.9640
  843MOL0     H16291   5.317   4.920   9.854 -1.5780 -0.6523  2.0912
  843MOL0     H16292   5.341   4.722   9.492  2.1289  0.0869  1.6620
  843MOL0     H16293   5.304   4.722   9.261  0.5370  1.1384  3.9460
  843MOL0     H16294   5.382   4.859   9.159  0.5438  1.0308 -0.6040
  843MOL0     H16295   5.210   4.867   9.202 -0.3402 -1.2897  1.9611
  843MOL0     H16296   5.654   5.379   9.157 -1.8828 -1.7044  1.0213
  843MOL0     H16297   5.619   5.569   8.985  0.0944 -0.7666 -0.4504
  843MOL0     H16298   5.318   5.859   8.884  0.4315 -1.3555 -1.6224
  843MOL0     H16299   5.254   5.783   9.026  1.0468  0.9423  2.2086
  843MOL0     H16300   5.434   5.813   9.167  0.5700 -0.8559 -1.0723
  843MOL0     H16301   5.547   5.787   9.050 -1.0906 -1.7248  2.5443
  843MOL0     H16302   5.385   6.051   9.075  0.9830  2.4048  0.1619
  843MOL0     H16303   5.496   6.021   8.942  1.2786 -0.4568 -0.1468
  843MOL0     H16304   5.669   5.984   9.155  1.7100 -0.8496 -1.7497
  843MOL0     H16305   5.562   6.101   9.223  0.0735  1.2953 -1.4022
  843MOL0     H16306   5.688   6.148   8.947 -0.0601  4.2026 -1.5073
  843MOL0     H16307   5.590   6.252   9.022 -0.2641 -1.2837 -0.8005
  843MOL0     H16308   5.852   6.153   9.143 -1.6435 -2.2137  0.2903
  843MOL0     H16309   5.732   6.252   9.235 -2.2795  0.4235 -0.7063
  843MOL0     H16310   5.825   6.343   8.957 -2.9996  0.3534 -0.1424
  843MOL0     H16311   5.938   6.365   9.102 -1.5052  0.1710  4.4310
  843MOL0     H16312   5.664   6.499   9.074 -0.5028 -1.6441  1.4479
  843MOL0     H16313   5.829   6.559   9.022 -1.5855  2.7252  0.2533
  843MOL0     H16314   5.199   5.543   9.008  0.2710  1.8745 -0.0162
  843MOL0     H16315   5.233   5.365   9.189  0.1902 -3.5157 -2.4583
  843MOL0     H16316   5.443   5.207   9.482 -0.2375 -0.8801  3.5596
  843MOL0     H16317   5.449   5.081   9.694  0.1287  1.4921 -0.3315
  843MOL0     H16318   5.078   4.236   8.573 -1.0016 -2.5316  1.1404
  843MOL0     H16319   4.912   4.344   8.417 -0.9863 -1.0130 -0.3315
  843MOL0     H16320   4.543   4.499   8.284  1.3220 -0.4999 -0.3497
  843MOL0     H16321   4.326   4.483   8.172 -0.5992 -1.8844  1.9925
  843MOL0     H16322   3.937   4.551   8.370  0.5192 -1.2339 -0.2715
  843MOL0     H16323   3.991   4.711   8.368 -0.9218  0.5294 -1.1962
  843MOL0     H16324   3.910   4.570   8.117 -0.4576 -0.9447 -0.4500
  843MOL0     H16325   3.918   4.746   8.140  1.4841  2.0512  5.7293
  843MOL0     H16326   3.724   4.579   8.312  1.5085 -0.8944  0.5567
  843MOL0     H16327   3.707   4.742   8.250  0.7846 -0.8307  1.7670
  843MOL0     H16328   3.675   4.647   8.029 -0.6278  1.9354  0.5019
  843MOL0     H16329   3.549   4.608   8.141  0.0723 -0.3224 -0.0136
  843MOL0     H16330   3.737   4.224   8.066  2.3017  0.9747  0.3444
  843MOL0     H16331   4.132   4.637   8.519  0.1476 -3.8929  1.1691
  843MOL0     H16332   4.381   4.599   8.759 -0.2863  0.7162  1.8011
  843MOL0     H16333   4.339   4.761   8.690 -0.3948 -0.2888 -0.6117
  843MOL0     H16334   4.221   4.630   8.721 -1.0227 -0.8045 -1.8602
  844MOL0     O16335   5.515   6.967   6.642  0.3216  0.0057  0.8242
  844MOL0     C16336   5.416   6.914   6.590 -0.8715 -0.3187  0.4500
  844MOL0     O16337   5.418   6.785   6.550 -0.4642 -1.1662  0.1658
  844MOL0     C16338   5.528   6.706   6.583 -0.0020  0.6976 -0.2589
  844MOL0     C16339   5.610   6.641   6.494 -0.1515  0.8194  0.0827
  844MOL0     C16340   5.717   6.566   6.541 -1.4327  0.8751  1.1375
  844MOL0     C16341   5.742   6.553   6.687 -0.8123  0.1792 -0.7406
  844MOL0     O16342   5.842   6.480   6.744 -0.2679  0.4786 -0.3760
  844MOL0     C16343   5.950   6.456   6.657  0.7919  0.1168 -1.5816
  844MOL0     C16344   5.935   6.321   6.592 -0.0975 -0.4568 -0.1595
  844MOL0     C16345   6.042   6.287   6.481  0.1927  0.4312  0.1358
  844MOL0     C16346   6.170   6.261   6.559 -1.2909  1.1149  0.8960
  844MOL0     C16347   6.272   6.168   6.476 -0.4632  0.4457  0.7435
  844MOL0     C16348   6.222   6.037   6.402 -0.4519 -0.2600  0.0297
  844MOL0     C16349   6.343   5.963   6.339  0.7295 -0.7255 -0.0373
  844MOL0     C16350   6.304   5.831   6.273  0.7098  0.3960  0.2538
  844MOL0     N16351   6.416   5.751   6.229 -0.6359 -0.0689 -0.2045
  844MOL0     C16352   6.404   5.632   6.163 -1.2973  0.1938  0.1069
  844MOL0     C16353   6.530   5.602   6.107  0.2093  0.5853  0.3556
  844MOL0     C16354   6.544   5.489   6.009  0.0705 -0.1333  0.4661
  844MOL0     C16355   6.475   5.528   5.870  0.2115  0.6634 -0.0584
  844MOL0     C16356   6.540   5.642   5.782  0.6295  0.1968 -0.6325
  844MOL0     C16357   6.483   5.783   5.813 -0.5108  0.3412  0.8071
  844MOL0     O16358   6.338   5.783   5.792 -0.9207 -0.3358  0.1634
  844MOL0     C16359   6.278   5.893   5.860 -0.3637  1.0349 -0.5477
  844MOL0     C16360   6.152   5.866   5.925  0.0791  0.6375 -0.9956
  844MOL0     C16361   6.085   5.966   6.002  0.0882 -0.2050  0.2987
  844MOL0     C16362   5.951   5.928   6.055  0.2729 -0.6253 -0.0637
  844MOL0     C16363   6.143   6.096   6.016 -0.4239  0.5580 -0.3471
  844MOL0     C16364   6.084   6.209   6.083  0.1021  0.1554 -0.1453
  844MOL0     O16365   6.153   6.330   6.081 -0.0638 -0.7084 -0.3926
  844MOL0     C16366   6.085   6.438   6.137  0.1042 -0.9917  0.0560
  844MOL0     C16367   6.151   6.523   6.233 -0.6642 -0.2941 -0.0182
  844MOL0     C16368   6.089   6.633   6.282  0.0919 -0.0213  0.0086
  844MOL0     C16369   5.953   6.655   6.270  0.0921 -0.0086 -0.4585
  844MOL0     O16370   5.878   6.761   6.333 -0.2427 -0.1719  0.4659
  844MOL0     C16371   5.935   6.829   6.440 -1.3509  0.0701  0.1428
  844MOL0     C16372   5.827   6.899   6.520  0.5712  0.2796 -0.0379
  844MOL0     C16373   5.825   7.046   6.509 -0.6414  0.0519  1.5746
  844MOL0     C16374   5.813   7.089   6.355 -0.2553  0.1108 -0.6088
  844MOL0     C16375   5.832   7.233   6.322 -0.4369  0.8941  0.0935
  844MOL0     C16376   5.974   7.285   6.377 -0.0214 -0.1224  0.0726
  844MOL0     C16377   6.035   7.410   6.305 -1.0181 -0.6768 -0.4368
  844MOL0     C16378   6.065   7.381   6.152 -0.0350 -0.1327 -0.9773
  844MOL0    Cl16379   6.171   7.505   6.087 -0.1343  0.1825 -0.1324
  844MOL0     C16380   5.881   6.569   6.191  0.0746 -0.7017  0.2555
  844MOL0     C16381   5.945   6.469   6.115  0.0922 -0.7085 -0.7420
  844MOL0     O16382   5.980   6.184   6.149 -0.4110 -0.2867 -1.3917
  844MOL0     C16383   6.267   6.113   5.956 -0.6086 -0.5166 -0.2491
  844MOL0     C16384   6.336   6.022   5.878  0.3190 -0.2493  1.2916
  844MOL0     N16385   6.612   5.699   6.159  0.3543 -0.9694 -0.1782
  844MOL0     N16386   6.543   5.790   6.218  1.2944  1.0205  0.4223
  844MOL0     C16387   5.651   6.618   6.773 -0.2504 -0.0089  0.0377
  844MOL0     C16388   5.549   6.685   6.720 -0.6187  0.2844 -0.5476
  844MOL0     C16389   5.284   6.995   6.566 -0.7043 -0.2097  0.2595
  844MOL0     C16390   5.175   6.920   6.510 -0.0333 -0.5559 -0.4133
  844MOL0     C16391   5.054   6.975   6.489  0.0869  0.0973 -0.3514
  844MOL0     C16392   5.028   7.107   6.511 -0.0888 -0.1012 -0.1178
  844MOL0     O16393   4.913   7.169   6.503 -0.2361  0.3283 -0.3698
  844MOL0     C16394   4.795   7.098   6.456 -0.3433 -0.3788  0.7471
  844MOL0     C16395   4.678   7.197   6.442  0.9990 -0.3675 -0.5851
  844MOL0     C16396   4.597   7.221   6.579 -0.1016  0.2079 -0.3705
  844MOL0     C16397   4.475   7.313   6.564 -0.0193  0.1282  0.6506
  844MOL0     C16398   4.513   7.435   6.489  0.1714  0.5728  0.4072
  844MOL0     C16399   4.515   7.530   6.421  0.2758  0.7895 -0.0177
  844MOL0     C16400   5.132   7.182   6.562 -0.8927  0.2569  0.5688
  844MOL0     C16401   5.263   7.133   6.587 -0.8718  0.6778 -0.2847
  844MOL0     C16402   5.374   7.220   6.650  0.7725 -0.0671  0.8687
  844MOL0     H16403   5.594   6.657   6.388 -1.3822 -2.0225 -0.2327
  844MOL0     H16404   5.784   6.520   6.469 -3.0766  2.3051 -1.4257
  844MOL0     H16405   6.040   6.464   6.718 -0.9570  3.2552  0.9387
  844MOL0     H16406   5.962   6.538   6.585 -0.7793  2.6315  0.8119
  844MOL0     H16407   5.926   6.256   6.679 -0.5458 -0.0483  0.1035
  844MOL0     H16408   5.841   6.328   6.537 -0.5019  1.7179  0.6979
  844MOL0     H16409   5.995   6.205   6.428 -2.0183  0.1879  2.2964
  844MOL0     H16410   6.059   6.364   6.405  1.1512 -1.0092 -1.1612
  844MOL0     H16411   6.224   6.354   6.582 -1.0539  0.9608  0.9593
  844MOL0     H16412   6.146   6.204   6.649  0.0557  0.9864  1.1884
  844MOL0     H16413   6.354   6.138   6.540  1.6905  1.4497 -1.3946
  844MOL0     H16414   6.314   6.232   6.398 -0.4042  0.9762  1.2100
  844MOL0     H16415   6.179   5.969   6.476  3.7914 -1.4497  1.6955
  844MOL0     H16416   6.150   6.073   6.328 -3.7687  1.0599  3.5653
  844MOL0     H16417   6.425   5.946   6.409  3.9733  1.1512 -3.0768
  844MOL0     H16418   6.386   6.025   6.260  1.4366 -3.7061 -2.1520
  844MOL0     H16419   6.231   5.777   6.334  0.8567 -1.4445 -1.1067
  844MOL0     H16420   6.251   5.851   6.179  0.4589 -0.3092  0.2394
  844MOL0     H16421   6.318   5.568   6.147 -0.4233 -0.5101 -2.2142
  844MOL0     H16422   6.487   5.402   6.044  0.3065 -0.8038 -0.7519
  844MOL0     H16423   6.646   5.450   6.005 -0.3315 -1.2558  0.6919
  844MOL0     H16424   6.477   5.437   5.809  0.3522  2.0773 -2.2706
  844MOL0     H16425   6.369   5.548   5.886  0.0554 -1.3828  1.8333
  844MOL0     H16426   6.648   5.650   5.794  0.3098  3.9520  1.4312
  844MOL0     H16427   6.526   5.628   5.675  2.8117  0.5717 -1.0209
  844MOL0     H16428   6.506   5.811   5.916 -0.9746  0.3606  0.9110
  844MOL0     H16429   6.525   5.854   5.741 -2.1105  0.1947 -0.3277
  844MOL0     H16430   6.131   5.760   5.919 -0.6012  0.7984 -1.6430
  844MOL0     H16431   5.915   5.831   6.018  2.1378 -1.3725 -0.0312
  844MOL0     H16432   5.875   5.998   6.020 -1.4402 -2.2130  0.2931
  844MOL0     H16433   5.935   5.941   6.162  0.4203 -1.9905  0.1425
  844MOL0     H16434   6.257   6.519   6.257 -0.8993  0.6560  1.3075
  844MOL0     H16435   6.142   6.706   6.342 -1.8669  0.0504  1.7310
  844MOL0     H16436   5.968   6.745   6.502 -1.5029 -0.4322 -0.4428
  844MOL0     H16437   6.020   6.895   6.417 -1.5402  0.1163 -0.4564
  844MOL0     H16438   5.733   6.869   6.473 -0.0947  2.6847 -0.3351
  844MOL0     H16439   5.834   6.876   6.627 -1.8092 -0.2488  0.0798
  844MOL0     H16440   5.911   7.098   6.553 -0.8248  2.8960 -1.0770
  844MOL0     H16441   5.733   7.067   6.563 -1.0433 -0.7500  1.2331
  844MOL0     H16442   5.717   7.055   6.314 -0.0873  1.2161 -2.0147
  844MOL0     H16443   5.892   7.034   6.304 -1.3450  0.4770 -2.8639
  844MOL0     H16444   5.833   7.251   6.214  5.2394 -0.4868 -0.3832
  844MOL0     H16445   5.753   7.291   6.370  0.7349  2.2670  0.4516
  844MOL0     H16446   6.049   7.206   6.381  1.0203  0.7147  5.5553
  844MOL0     H16447   5.962   7.320   6.480  1.5681 -0.2372  0.3218
  844MOL0     H16448   6.121   7.442   6.365 -1.7271  0.6751 -0.1024
  844MOL0     H16449   5.965   7.493   6.298 -0.7199 -0.1519  1.9022
  844MOL0     H16450   5.970   7.367   6.099 -0.2013 -4.3215  0.0802
  844MOL0     H16451   6.113   7.284   6.137 -0.3762 -0.5954  0.7356
  844MOL0     H16452   5.774   6.581   6.192  0.3630  2.6748  0.9041
  844MOL0     H16453   5.898   6.405   6.041 -0.7920 -0.7391 -0.1713
  844MOL0     H16454   6.327   6.198   5.985  0.9697 -2.1355  1.5291
  844MOL0     H16455   6.426   6.049   5.825  0.2203  0.0947  1.2956
  844MOL0     H16456   5.655   6.606   6.881  1.1847  1.1506  0.1417
  844MOL0     H16457   5.480   6.738   6.785 -0.8148  0.7557 -1.1348
  844MOL0     H16458   5.190   6.816   6.483 -0.2001 -0.3085 -1.4912
  844MOL0     H16459   4.977   6.913   6.443  3.1327 -1.6572 -3.5175
  844MOL0     H16460   4.818   7.054   6.358 -2.6797  3.0742 -1.6125
  844MOL0     H16461   4.767   7.013   6.519  1.1304  0.1750  2.2116
  844MOL0     H16462   4.611   7.161   6.364  0.6124 -2.6094  0.6809
  844MOL0     H16463   4.719   7.295   6.416  0.3504 -0.5472 -2.4369
  844MOL0     H16464   4.555   7.131   6.625 -0.1879  0.1802 -0.5048
  844MOL0     H16465   4.665   7.268   6.651 -0.9578  0.3697  0.3450
  844MOL0     H16466   4.448   7.346   6.665  1.0640  1.1988  0.6162
  844MOL0     H16467   4.387   7.263   6.523  0.8031  1.1213 -2.6053
  844MOL0     H16468   4.509   7.619   6.362 -1.1339 -0.8229 -2.5012
  844MOL0     H16469   5.124   7.290   6.563  1.9416  0.5339  0.4547
  844MOL0     H16470   5.367   7.221   6.759  1.0772 -0.0527  0.8882
  844MOL0     H16471   5.470   7.178   6.618  1.4199  0.1426  2.4443
  844MOL0     H16472   5.387   7.322   6.612  3.1131 -1.0812 -1.3436
  845MOL0     O16473   8.669   4.816   7.162 -0.0957  0.1532  0.3806
  845MOL0     C16474   8.574   4.781   7.089 -0.5977  0.7308 -0.0001
  845MOL0     O16475   8.471   4.860   7.052  0.3809 -0.1007  0.5667
  845MOL0     C16476   8.461   4.987   7.107  0.4110  0.6200  0.1458
  845MOL0     C16477   8.511   5.095   7.044  0.7609 -1.1528  0.7976
  845MOL0     C16478   8.502   5.221   7.099 -0.8221 -0.7099 -0.2167
  845MOL0     C16479   8.435   5.236   7.218  0.4368 -0.1596  0.0940
  845MOL0     O16480   8.442   5.354   7.286  0.2498  0.4851  0.6734
  845MOL0     C16481   8.351   5.401   7.393  0.8211 -0.3050  0.6679
  845MOL0     C16482   8.322   5.547   7.408 -0.4291  0.1875  0.1261
  845MOL0     C16483   8.447   5.616   7.460  1.2113 -0.1474 -1.1222
  845MOL0     C16484   8.395   5.762   7.497 -0.2358  1.6260  0.9137
  845MOL0     C16485   8.487   5.820   7.607  0.0986  0.3303  0.2239
  845MOL0     C16486   8.636   5.853   7.582 -0.0948 -0.0115  0.0406
  845MOL0     C16487   8.653   6.002   7.557 -0.4125 -0.2134  0.1619
  845MOL0     C16488   8.793   6.049   7.502  0.6995 -0.5149 -0.2836
  845MOL0     N16489   8.811   6.188   7.529  0.2140 -0.6866 -0.8104
  845MOL0     C16490   8.929   6.247   7.569  0.3439  0.5983 -0.2254
  845MOL0     C16491   8.914   6.381   7.582  0.2721  0.0707 -0.1985
  845MOL0     C16492   9.017   6.489   7.601 -0.3801 -0.4368  0.2992
  845MOL0     C16493   8.956   6.627   7.561 -0.3176  0.0857 -0.5316
  845MOL0     C16494   9.053   6.743   7.561  0.4269  0.0443 -0.0443
  845MOL0     C16495   9.197   6.727   7.499 -0.0447 -0.1876 -0.4442
  845MOL0     O16496   9.272   6.851   7.482 -0.0921 -0.1045  0.6084
  845MOL0     C16497   9.199   6.963   7.450 -0.3411  0.2344 -0.6250
  845MOL0     C16498   9.169   7.056   7.541 -0.4017  0.8988 -0.0412
  845MOL0     C16499   9.089   7.170   7.514  0.2811 -0.0551 -0.1576
  845MOL0     C16500   9.048   7.248   7.631  1.5751 -0.4895 -0.8948
  845MOL0     C16501   9.047   7.197   7.387  0.2747  1.2130  0.0463
  845MOL0     C16502   8.992   7.320   7.336  0.3341 -0.9221 -0.0595
  845MOL0     O16503   8.901   7.310   7.229 -0.0431 -0.7019  0.9840
  845MOL0     C16504   8.839   7.416   7.156 -0.0770 -0.4082 -0.0770
  845MOL0     C16505   8.744   7.380   7.062  0.2072  0.6933  1.0790
  845MOL0     C16506   8.669   7.478   6.984 -0.1371  0.5005 -1.1770
  845MOL0     C16507   8.698   7.612   6.995 -0.3845  1.0987 -0.6435
  845MOL0     O16508   8.638   7.702   6.912  0.3270  0.8841 -0.4633
  845MOL0     C16509   8.539   7.773   6.980  1.0208 -0.4835 -0.1760
  845MOL0     C16510   8.506   7.891   6.889 -0.2454  0.9927  1.5336
  845MOL0     C16511   8.390   7.985   6.931 -0.0928  0.3349 -0.1112
  845MOL0     C16512   8.252   7.914   6.929  0.8506 -0.8844 -0.1595
  845MOL0     C16513   8.132   7.998   6.979  0.2952 -0.7104  0.3174
  845MOL0     C16514   8.132   8.023   7.133  0.2984 -0.0765 -0.3843
  845MOL0     C16515   8.004   8.105   7.159 -0.4521  0.8609  0.1647
  845MOL0     C16516   8.016   8.206   7.275  0.1934 -0.2409  0.2106
  845MOL0    Cl16517   7.934   8.141   7.415 -0.7307 -0.0481  0.0930
  845MOL0     C16518   8.792   7.657   7.088 -0.7615 -0.1190 -0.4868
  845MOL0     C16519   8.872   7.555   7.162  0.2727 -0.1603  0.0295
  845MOL0     O16520   9.005   7.421   7.394 -0.5095 -0.1381 -0.4970
  845MOL0     C16521   9.074   7.093   7.285 -0.5444  0.2081  0.1734
  845MOL0     C16522   9.161   6.981   7.314 -0.4791 -0.8252 -0.7272
  845MOL0     N16523   8.778   6.399   7.541  0.0412  0.3663  0.8821
  845MOL0     N16524   8.722   6.290   7.500 -0.4047  0.4194 -0.5001
  845MOL0     C16525   8.387   5.119   7.284 -0.3025  0.5555 -0.0731
  845MOL0     C16526   8.405   4.991   7.234  0.6347 -0.0247  0.4457
  845MOL0     C16527   8.557   4.642   7.046  0.5905  0.7186 -0.5189
  845MOL0     C16528   8.434   4.603   6.985  1.1014  0.3826 -0.0724
  845MOL0     C16529   8.424   4.481   6.922  0.0432  1.4454  0.3356
  845MOL0     C16530   8.532   4.389   6.930 -0.1492  0.1367  1.3487
  845MOL0     O16531   8.534   4.260   6.871  0.2060  0.8367  0.4073
  845MOL0     C16532   8.459   4.232   6.748  0.0461 -0.0804 -0.6001
  845MOL0     C16533   8.561   4.141   6.678 -0.0004  0.0889  0.0152
  845MOL0     C16534   8.521   4.118   6.537  0.8174  0.1854 -0.2973
  845MOL0     C16535   8.402   4.016   6.511 -0.3246  0.5368 -0.1565
  845MOL0     C16536   8.351   4.013   6.372  0.3460 -0.3664 -0.3495
  845MOL0     C16537   8.301   4.024   6.260 -1.0935 -0.6076  0.6902
  845MOL0     C16538   8.644   4.425   6.998  0.7002  0.3205 -0.1264
  845MOL0     C16539   8.659   4.549   7.059 -0.6813  0.0334  0.3377
  845MOL0     C16540   8.802   4.566   7.119 -0.2960 -0.4693 -0.1891
  845MOL0     H16541   8.548   5.092   6.942  1.5429 -0.6361  1.0578
  845MOL0     H16542   8.542   5.308   7.048 -1.9891  0.4586  0.7889
  845MOL0     H16543   8.401   5.376   7.487 -0.9821  0.4816  1.8897
  845MOL0     H16544   8.255   5.347   7.391  0.6343 -0.0318  1.7705
  845MOL0     H16545   8.292   5.594   7.314  0.9726  0.4673 -0.1950
  845MOL0     H16546   8.230   5.559   7.466 -3.7267 -1.4935 -4.2114
  845MOL0     H16547   8.471   5.575   7.558 -2.9792  0.3422  0.3146
  845MOL0     H16548   8.525   5.602   7.385 -1.7906 -0.7551 -4.4403
  845MOL0     H16549   8.407   5.819   7.405  1.0284  0.7739  0.5277
  845MOL0     H16550   8.291   5.760   7.531 -1.8463  3.4141 -3.2072
  845MOL0     H16551   8.483   5.747   7.688  0.1089 -0.1621 -0.2066
  845MOL0     H16552   8.437   5.914   7.633  2.9286  2.0910 -0.3236
  845MOL0     H16553   8.694   5.812   7.665  3.4370 -0.0822 -2.2501
  845MOL0     H16554   8.667   5.794   7.495 -0.9565 -4.4735  2.5146
  845MOL0     H16555   8.638   6.051   7.653 -3.4511 -0.7507  0.0405
  845MOL0     H16556   8.571   6.031   7.491 -0.6384  2.0202  1.3305
  845MOL0     H16557   8.879   5.997   7.545  0.5614 -0.2866  0.2776
  845MOL0     H16558   8.811   6.031   7.396 -0.0777  3.6854 -1.3004
  845MOL0     H16559   9.018   6.188   7.586  1.2109  1.0034 -2.9218
  845MOL0     H16560   9.093   6.460   7.529 -2.2513 -1.4439 -1.3918
  845MOL0     H16561   9.054   6.488   7.704 -0.9107  1.3647  0.5419
  845MOL0     H16562   8.913   6.608   7.463  1.4059  1.7834 -1.7013
  845MOL0     H16563   8.870   6.649   7.625  0.1891 -1.6698  0.8189
  845MOL0     H16564   9.002   6.828   7.514  2.2208  0.9300 -0.4807
  845MOL0     H16565   9.068   6.771   7.665  0.5528  1.3844 -0.3961
  845MOL0     H16566   9.258   6.654   7.551  2.5317 -1.1919 -4.4451
  845MOL0     H16567   9.180   6.694   7.396 -5.8643  1.2086 -0.2887
  845MOL0     H16568   9.205   7.047   7.643 -0.7412  1.7299  0.1633
  845MOL0     H16569   9.076   7.205   7.727 -1.8695  0.2023  0.5680
  845MOL0     H16570   8.939   7.254   7.627  1.4465 -2.2709 -0.7675
  845MOL0     H16571   9.088   7.349   7.621  3.6883 -1.2186 -0.3151
  845MOL0     H16572   8.715   7.276   7.059 -0.2348  0.8030  1.2977
  845MOL0     H16573   8.597   7.428   6.920  1.3544 -0.0235 -2.5184
  845MOL0     H16574   8.453   7.709   7.002 -0.6588  1.0340 -1.8991
  845MOL0     H16575   8.580   7.805   7.076  0.4549 -3.2343  1.0735
  845MOL0     H16576   8.592   7.955   6.870  0.6967 -0.6695 -0.0866
  845MOL0     H16577   8.487   7.861   6.786  1.1549  0.9733  1.2655
  845MOL0     H16578   8.384   8.072   6.864  0.0697  0.2507 -0.2371
  845MOL0     H16579   8.406   8.025   7.031 -1.5630  2.1922 -0.5598
  845MOL0     H16580   8.249   7.833   7.002 -1.5012 -1.4265 -0.7522
  845MOL0     H16581   8.229   7.882   6.827 -0.1076 -0.5217 -0.0716
  845MOL0     H16582   8.146   8.092   6.925  1.5980 -2.3741 -2.4910
  845MOL0     H16583   8.039   7.948   6.950  0.4570 -0.4694 -0.6435
  845MOL0     H16584   8.217   8.079   7.174 -0.6000  1.9673 -1.2000
  845MOL0     H16585   8.127   7.929   7.190  2.5230  0.1008  0.1731
  845MOL0     H16586   7.927   8.030   7.180  0.9221 -0.2770  1.3290
  845MOL0     H16587   7.970   8.166   7.075 -3.4607  1.2017  1.5174
  845MOL0     H16588   7.959   8.293   7.241 -1.9415 -1.0235  1.5401
  845MOL0     H16589   8.116   8.250   7.285  0.1655 -0.5549  2.4088
  845MOL0     H16590   8.803   7.765   7.095  1.0241 -0.2361 -1.0774
  845MOL0     H16591   8.952   7.578   7.231  0.9536 -1.7116 -0.1863
  845MOL0     H16592   9.053   7.093   7.178  2.3049  4.0874 -0.6067
  845MOL0     H16593   9.182   6.901   7.245 -0.6554 -0.2235 -1.4839
  845MOL0     H16594   8.347   5.119   7.385  1.3787 -3.4231  0.7505
  845MOL0     H16595   8.387   4.897   7.284  0.0703 -0.0291  0.2483
  845MOL0     H16596   8.353   4.676   6.987  3.2295  2.8991  0.7166
  845MOL0     H16597   8.342   4.454   6.857  1.5840  3.1225 -2.5199
  845MOL0     H16598   8.370   4.171   6.763  0.8439 -1.1167  0.0395
  845MOL0     H16599   8.445   4.319   6.683  1.0199 -0.0763 -0.8244
  845MOL0     H16600   8.563   4.047   6.733 -3.7577  0.3441  0.8561
  845MOL0     H16601   8.658   4.192   6.684 -0.0727  0.1859  0.4195
  845MOL0     H16602   8.488   4.217   6.505  0.1203  0.0064 -0.1623
  845MOL0     H16603   8.597   4.071   6.475 -0.9493 -0.9776 -1.7019
  845MOL0     H16604   8.318   4.045   6.574 -1.0611 -0.0602 -0.8302
  845MOL0     H16605   8.444   3.919   6.539 -2.1427  0.5486  3.0890
  845MOL0     H16606   8.269   4.035   6.159  1.8003  0.3866 -0.2168
  845MOL0     H16607   8.727   4.355   7.006  1.8372  1.8190  2.1507
  845MOL0     H16608   8.864   4.646   7.077 -1.7103  0.9464  0.3333
  845MOL0     H16609   8.786   4.582   7.226 -0.3990 -3.2685  0.2695
  845MOL0     H16610   8.858   4.472   7.113  0.1666 -0.1193 -1.9626
  846MOL0     O16611   1.414  10.194   9.599  0.4163  0.1460 -0.2304
  846MOL0     C16612   1.314  10.259   9.633 -0.3607  0.5719  0.0601
  846MOL0     O16613   1.193  10.208   9.636  0.0447 -0.7307 -0.2193
  846MOL0     C16614   1.169  10.081   9.602 -0.3066  0.4215 -0.1819
  846MOL0     C16615   1.238   9.969   9.654  0.2975 -0.1290  0.5051
  846MOL0     C16616   1.226   9.839   9.595  0.7758  0.0258  1.0759
  846MOL0     C16617   1.146   9.816   9.484  0.3681 -0.3873 -0.0680
  846MOL0     O16618   1.170   9.691   9.428  0.4037 -0.2162 -0.1986
  846MOL0     C16619   1.064   9.652   9.345 -0.4087  0.5448  1.1606
  846MOL0     C16620   1.096   9.498   9.322  0.1968 -0.5182  0.7575
  846MOL0     C16621   0.978   9.430   9.254  0.2020 -0.2238  0.3195
  846MOL0     C16622   1.004   9.276   9.260 -0.1585 -0.3080  0.1173
  846MOL0     C16623   0.877   9.184   9.256 -0.5597 -0.8967 -0.7201
  846MOL0     C16624   0.911   9.048   9.194 -0.3733 -0.3155  0.7924
  846MOL0     C16625   1.008   8.963   9.269  0.1181  0.8536 -0.5586
  846MOL0     C16626   0.949   8.905   9.406  0.1585  1.4623 -0.0263
  846MOL0     N16627   0.862   8.787   9.391 -0.5934 -0.0865 -0.2471
  846MOL0     C16628   0.909   8.660   9.371  0.3232 -0.1911  0.7948
  846MOL0     C16629   0.794   8.584   9.392 -0.3263  1.2207 -0.4536
  846MOL0     C16630   0.789   8.433   9.374  0.4177  0.1131 -0.4602
  846MOL0     C16631   0.708   8.383   9.257 -0.0580  0.8436 -0.0398
  846MOL0     C16632   0.663   8.239   9.290 -0.4881  0.8665 -0.4024
  846MOL0     C16633   0.545   8.247   9.384  0.2228 -0.3067  0.7072
  846MOL0     O16634   0.474   8.126   9.405  0.1913  0.6156  0.6167
  846MOL0     C16635   0.535   8.014   9.461 -1.1445 -0.1740 -1.0366
  846MOL0     C16636   0.642   8.018   9.555 -0.3416  0.2924  1.0599
  846MOL0     C16637   0.687   7.900   9.607  0.7058  0.0300 -0.6734
  846MOL0     C16638   0.809   7.911   9.699  0.4863 -0.0597  1.0125
  846MOL0     C16639   0.630   7.776   9.583 -0.0116 -0.7530 -0.6523
  846MOL0     C16640   0.671   7.639   9.630 -0.5505  0.0386  0.4620
  846MOL0     O16641   0.739   7.632   9.758  0.5015 -0.0015 -0.4932
  846MOL0     C16642   0.778   7.505   9.787  0.6355  0.2678 -0.8781
  846MOL0     C16643   0.689   7.402   9.818  0.1945  0.5383 -0.3174
  846MOL0     C16644   0.736   7.286   9.886 -0.2227  0.3821 -0.4501
  846MOL0     C16645   0.879   7.258   9.899 -0.4965 -0.0463 -0.0510
  846MOL0     O16646   0.913   7.139   9.957  0.5040  0.3877 -0.2229
  846MOL0     C16647   1.042   7.101   9.910  0.1846 -0.1802 -0.2505
  846MOL0     C16648   1.153   7.127  10.014 -0.3744  0.1003 -0.9901
  846MOL0     C16649   1.180   6.999  10.100  1.0038 -0.1047 -0.2619
  846MOL0     C16650   1.298   7.011  10.191  0.5975 -0.8334  0.2858
  846MOL0     C16651   1.294   6.916  10.306  0.2403  0.2421  0.7223
  846MOL0     C16652   1.416   6.938  10.393  0.8917  0.4503  0.2913
  846MOL0     C16653   1.553   6.885  10.354  0.1426  0.6146  0.1543
  846MOL0     C16654   1.660   6.880  10.477  0.7404 -0.1652  0.5011
  846MOL0    Cl16655   1.737   7.037  10.509 -0.1246  0.5107  0.2991
  846MOL0     C16656   0.966   7.358   9.860  0.5131 -0.4038  0.1568
  846MOL0     C16657   0.909   7.481   9.799 -0.2778  0.3511  0.0530
  846MOL0     O16658   0.648   7.545   9.555  0.6461 -0.3239 -0.0212
  846MOL0     C16659   0.505   7.773   9.514  0.5755 -0.5863  0.6948
  846MOL0     C16660   0.468   7.898   9.453 -0.7635  0.6650 -0.3008
  846MOL0     N16661   0.696   8.656   9.432 -0.1966 -0.6932  0.2068
  846MOL0     N16662   0.729   8.781   9.426 -0.4115  0.1660 -0.3725
  846MOL0     C16663   1.080   9.933   9.433  0.6498  0.7880 -0.4822
  846MOL0     C16664   1.090  10.065   9.491  0.6543  0.8301  1.0924
  846MOL0     C16665   1.319  10.402   9.658  0.7874 -0.5498 -0.7914
  846MOL0     C16666   1.422  10.479   9.602 -0.7998  1.3735  0.8451
  846MOL0     C16667   1.435  10.618   9.632  0.4043  0.3491 -0.2979
  846MOL0     C16668   1.347  10.682   9.723  0.7290 -0.9405  0.3585
  846MOL0     O16669   1.347  10.814   9.747  0.1848  0.2659 -0.6287
  846MOL0     C16670   1.222  10.887   9.775  0.0325  0.9268  0.2662
  846MOL0     C16671   1.236  11.024   9.716  0.6278  0.4561 -0.2774
  846MOL0     C16672   1.218  11.013   9.566 -0.3256  0.2167  0.6612
  846MOL0     C16673   1.243  11.146   9.488  0.2155 -0.3864 -0.0055
  846MOL0     C16674   1.158  11.254   9.532 -0.2101 -0.9208 -0.5144
  846MOL0     C16675   1.096  11.339   9.584 -0.1275 -0.0790  0.3235
  846MOL0     C16676   1.249  10.602   9.781  0.7105  0.1159 -0.4732
  846MOL0     C16677   1.228  10.471   9.746 -0.0873  1.2627  0.2393
  846MOL0     C16678   1.107  10.399   9.810  0.2625 -0.2221  0.5799
  846MOL0     H16679   1.312   9.965   9.733  0.6139  0.1668  0.2326
  846MOL0     H16680   1.284   9.758   9.639 -3.2545 -1.5696  4.0265
  846MOL0     H16681   1.048   9.692   9.245 -3.8202 -0.4476  1.1763
  846MOL0     H16682   0.972   9.665   9.402 -3.8327  4.1306 -4.2228
  846MOL0     H16683   1.182   9.508   9.255 -1.1329  2.4859 -0.6897
  846MOL0     H16684   1.126   9.454   9.417  1.0396  0.1175  0.8009
  846MOL0     H16685   0.890   9.471   9.305  0.0494  2.6751 -2.0363
  846MOL0     H16686   0.982   9.462   9.150 -0.0328 -2.2852 -0.3594
  846MOL0     H16687   1.070   9.236   9.183 -0.1837  0.4188 -0.2819
  846MOL0     H16688   1.045   9.253   9.359  1.3690 -4.5477 -1.2693
  846MOL0     H16689   0.795   9.231   9.201  0.6878  2.8929  0.3188
  846MOL0     H16690   0.832   9.175   9.355 -1.4042  0.2042 -0.9825
  846MOL0     H16691   0.809   9.011   9.180  0.1334 -0.9573 -1.6068
  846MOL0     H16692   0.954   9.076   9.098 -1.6100  0.1438  0.3582
  846MOL0     H16693   1.096   9.024   9.291  0.0763  0.7297 -0.0146
  846MOL0     H16694   1.044   8.885   9.200 -3.4855 -0.8046 -0.7997
  846MOL0     H16695   1.039   8.871   9.458  0.8465  0.4924 -1.7398
  846MOL0     H16696   0.911   8.995   9.456 -1.3088  1.3591 -0.8938
  846MOL0     H16697   0.999   8.617   9.327 -0.5004  0.2591 -1.5130
  846MOL0     H16698   0.762   8.388   9.470  1.3196 -1.3504 -0.8426
  846MOL0     H16699   0.888   8.395   9.345 -0.8510 -3.2924 -0.8443
  846MOL0     H16700   0.624   8.448   9.232  0.2513  1.1741 -0.2214
  846MOL0     H16701   0.772   8.390   9.168 -2.2693 -0.7629 -1.8621
  846MOL0     H16702   0.634   8.184   9.200  0.3773 -0.4236  0.0684
  846MOL0     H16703   0.745   8.178   9.331 -1.1176  0.7340  0.7060
  846MOL0     H16704   0.581   8.293   9.476 -1.1530  1.0365  0.6175
  846MOL0     H16705   0.478   8.325   9.345  0.6547 -1.2737 -2.2042
  846MOL0     H16706   0.694   8.111   9.573 -1.6458  0.9468  1.5842
  846MOL0     H16707   0.886   7.838   9.672 -1.5144 -1.1251 -2.6315
  846MOL0     H16708   0.786   7.902   9.805  1.6953 -0.8150  1.2263
  846MOL0     H16709   0.850   8.012   9.688  0.1383 -0.0746 -0.8806
  846MOL0     H16710   0.583   7.419   9.829  0.3580  0.0792  2.8076
  846MOL0     H16711   0.671   7.218   9.941  1.9278 -0.6928  0.9233
  846MOL0     H16712   1.034   6.993   9.896  1.5199  0.0189 -3.5588
  846MOL0     H16713   1.070   7.137   9.810  3.5789  0.2387  0.7361
  846MOL0     H16714   1.242   7.154   9.956  1.3304 -2.0576  0.4290
  846MOL0     H16715   1.123   7.212  10.076  1.2275 -0.6636  0.9529
  846MOL0     H16716   1.179   6.907  10.041 -1.0209 -1.5792  1.8622
  846MOL0     H16717   1.093   6.981  10.165  2.5804 -0.6158  1.8162
  846MOL0     H16718   1.300   7.113  10.231 -1.0733 -1.0093  0.8866
  846MOL0     H16719   1.389   6.996  10.133  0.7870 -1.0632  0.6324
  846MOL0     H16720   1.195   6.916  10.354 -1.0385 -0.5458 -1.7339
  846MOL0     H16721   1.296   6.813  10.269 -0.4460  0.2358  0.6853
  846MOL0     H16722   1.396   6.888  10.488  2.9788  1.4041  1.3048
  846MOL0     H16723   1.418   7.046  10.411  0.4700  0.3782  0.8027
  846MOL0     H16724   1.602   6.933  10.269  0.3481 -0.8777 -0.6129
  846MOL0     H16725   1.530   6.789  10.306  0.3582  1.3323 -1.4536
  846MOL0     H16726   1.735   6.804  10.456  1.5453  0.5742  0.6286
  846MOL0     H16727   1.611   6.849  10.570  0.7425  1.2126  0.9823
  846MOL0     H16728   1.074   7.353   9.873  0.9142 -2.7265 -2.9593
  846MOL0     H16729   0.987   7.557   9.799 -0.6942  0.7786 -0.1551
  846MOL0     H16730   0.447   7.682   9.498 -0.1793  0.4084 -3.2596
  846MOL0     H16731   0.375   7.905   9.397 -1.0263 -0.4293 -0.0204
  846MOL0     H16732   1.029   9.925   9.337  0.1415  1.5572 -0.2801
  846MOL0     H16733   1.053  10.143   9.426  2.8269 -0.8888 -2.5057
  846MOL0     H16734   1.491  10.446   9.526 -2.0606  1.4243 -0.3517
  846MOL0     H16735   1.505  10.681   9.578 -2.5879  1.1204 -3.7220
  846MOL0     H16736   1.131  10.840   9.737 -0.5350  0.0779  2.5056
  846MOL0     H16737   1.203  10.880   9.882  1.3056  1.2424  0.5281
  846MOL0     H16738   1.334  11.065   9.744  1.2218 -1.3966  0.5110
  846MOL0     H16739   1.149  11.076   9.756  0.5192 -0.5870  0.9259
  846MOL0     H16740   1.304  10.957   9.529  2.2412  1.4365  4.1697
  846MOL0     H16741   1.118  10.972   9.549  0.3823 -1.5665  0.6314
  846MOL0     H16742   1.229  11.136   9.380 -0.8632  0.4401  0.0393
  846MOL0     H16743   1.348  11.175   9.498  0.7282 -2.3550  0.8097
  846MOL0     H16744   1.039  11.420   9.625 -2.2227  0.6326 -3.5559
  846MOL0     H16745   1.178  10.642   9.852  1.9628  0.0931  0.8473
  846MOL0     H16746   1.024  10.377   9.743 -0.2614 -1.8872  1.7079
  846MOL0     H16747   1.134  10.297   9.840  0.1945 -0.0290  1.3212
  846MOL0     H16748   1.068  10.454   9.896  0.0694 -2.0920  1.7512
  847MOL0     O16749   6.647   7.860   4.246  0.0778  0.0393  0.4498
  847MOL0     C16750   6.531   7.833   4.272 -0.3770 -0.4937 -0.1389
  847MOL0     O16751   6.435   7.794   4.186 -0.0653  0.7441  0.3823
  847MOL0     C16752   6.476   7.803   4.054 -0.1096 -0.0686  0.1145
  847MOL0     C16753   6.445   7.916   3.979  0.1810  0.1474 -0.8650
  847MOL0     C16754   6.487   7.924   3.844 -0.1117 -0.5114  0.0099
  847MOL0     C16755   6.535   7.811   3.776  0.3114 -0.7757 -0.9575
  847MOL0     O16756   6.561   7.835   3.643  0.1918 -0.8061  0.7252
  847MOL0     C16757   6.683   7.773   3.601  0.4602 -0.3786 -0.3163
  847MOL0     C16758   6.743   7.863   3.487  0.9145  0.6230  0.0867
  847MOL0     C16759   6.794   7.994   3.542  0.1371 -0.1070 -0.0391
  847MOL0     C16760   6.827   8.107   3.446  0.1704  0.0396 -0.2832
  847MOL0     C16761   6.818   8.249   3.515  0.0331 -0.7225 -0.1236
  847MOL0     C16762   6.922   8.276   3.634  0.5281  1.0405  0.5623
  847MOL0     C16763   6.924   8.412   3.701 -0.4572 -0.3193 -0.7954
  847MOL0     C16764   6.794   8.428   3.771  0.4596  0.2752  0.6756
  847MOL0     N16765   6.808   8.521   3.880  0.2795 -0.1774  0.6323
  847MOL0     C16766   6.815   8.654   3.885 -0.6746 -0.7580  0.4274
  847MOL0     C16767   6.846   8.682   4.012  0.1226 -0.0386 -0.1146
  847MOL0     C16768   6.869   8.828   4.057 -0.0662  1.0857 -0.2333
  847MOL0     C16769   6.732   8.900   4.078  0.0046 -0.4962 -0.9325
  847MOL0     C16770   6.636   8.924   3.958  0.2734 -0.8910  0.6825
  847MOL0     C16771   6.523   9.020   4.014  0.7088 -0.7831 -0.2421
  847MOL0     O16772   6.437   9.058   3.912 -0.0802  0.0246 -0.1356
  847MOL0     C16773   6.331   9.136   3.936 -0.0897 -0.0290  0.4146
  847MOL0     C16774   6.253   9.163   3.828 -0.9279 -0.7373 -0.1285
  847MOL0     C16775   6.149   9.256   3.837 -0.0641  0.3653 -0.2635
  847MOL0     C16776   6.106   9.316   3.699  0.0711  0.8838  0.3298
  847MOL0     C16777   6.109   9.318   3.954  0.0570  0.0110 -0.3238
  847MOL0     C16778   5.993   9.409   3.959 -0.5342 -0.4301  0.8342
  847MOL0     O16779   5.892   9.386   3.880 -0.2552 -0.4355  0.6250
  847MOL0     C16780   5.788   9.475   3.874 -0.4350  0.1019 -0.3325
  847MOL0     C16781   5.654   9.442   3.889  0.0477  0.2133  0.2280
  847MOL0     C16782   5.547   9.527   3.889  0.8951 -0.3775 -0.2175
  847MOL0     C16783   5.574   9.664   3.864  0.3140 -0.4997  0.4473
  847MOL0     O16784   5.478   9.764   3.867  0.1572  0.1583 -0.5496
  847MOL0     C16785   5.350   9.719   3.922  0.0113  0.2437 -0.0184
  847MOL0     C16786   5.254   9.825   3.976 -0.1620  0.5488  0.5258
  847MOL0     C16787   5.273   9.961   3.910  0.3475  0.2331  0.2107
  847MOL0     C16788   5.181  10.068   3.970 -0.0105 -0.3606 -0.0365
  847MOL0     C16789   5.187  10.198   3.889 -0.8993  0.5537 -0.3413
  847MOL0     C16790   5.081  10.304   3.927 -0.1417  0.2731  0.8022
  847MOL0     C16791   5.075  10.416   3.816  0.1406 -0.4860 -0.1909
  847MOL0     C16792   5.208  10.489   3.794  0.2077  0.6301  0.1386
  847MOL0    Cl16793   5.234  10.569   3.949  0.2822  0.3123 -0.0563
  847MOL0     C16794   5.711   9.706   3.836  0.4991  0.3803 -0.8451
  847MOL0     C16795   5.815   9.612   3.841  0.0903  0.8031  0.4883
  847MOL0     O16796   5.998   9.493   4.051 -0.3865 -0.4681  0.2334
  847MOL0     C16797   6.191   9.278   4.071 -0.0955  0.7801  0.6411
  847MOL0     C16798   6.301   9.191   4.054 -0.1077 -0.0841 -0.9280
  847MOL0     N16799   6.851   8.562   4.094  0.0346  0.0656  0.2028
  847MOL0     N16800   6.830   8.469   4.004  0.2651 -0.5187 -0.8121
  847MOL0     C16801   6.553   7.695   3.848 -0.0726  0.2737 -0.3427
  847MOL0     C16802   6.528   7.689   3.985 -0.3387  0.4636 -0.3019
  847MOL0     C16803   6.500   7.857   4.406 -0.0163 -0.1511 -0.1757
  847MOL0     C16804   6.599   7.831   4.502 -0.4265 -0.7970 -0.3227
  847MOL0     C16805   6.584   7.858   4.639 -0.6280 -0.2744  0.0349
  847MOL0     C16806   6.462   7.903   4.688  0.2530 -0.6285  1.0034
  847MOL0     O16807   6.429   7.921   4.818  0.4837  0.0113 -0.5196
  847MOL0     C16808   6.507   7.852   4.919  0.0554 -0.2096 -0.9808
  847MOL0     C16809   6.441   7.872   5.049 -1.0700  0.2018  0.0052
  847MOL0     C16810   6.338   7.768   5.087 -0.6039 -0.1254 -0.2199
  847MOL0     C16811   6.203   7.775   5.006 -0.3491 -0.1010  0.3505
  847MOL0     C16812   6.145   7.904   4.983 -0.9513  0.0101  0.0643
  847MOL0     C16813   6.085   8.009   4.963  0.5565 -0.0406 -0.3922
  847MOL0     C16814   6.364   7.938   4.590 -0.3371 -0.1892 -0.4176
  847MOL0     C16815   6.375   7.906   4.451  0.5654  0.4745 -0.3967
  847MOL0     C16816   6.265   7.946   4.366 -0.2244  0.6785  0.6757
  847MOL0     H16817   6.395   7.996   4.033  2.5099  1.7242 -0.8645
  847MOL0     H16818   6.483   8.011   3.779  1.2360 -1.1400 -0.9506
  847MOL0     H16819   6.655   7.672   3.568 -2.2949  0.9293 -2.3551
  847MOL0     H16820   6.758   7.764   3.681  1.2532  0.4130 -0.9587
  847MOL0     H16821   6.819   7.815   3.424 -0.2239 -1.0924 -0.0575
  847MOL0     H16822   6.657   7.876   3.421 -0.6319 -2.2241  1.3397
  847MOL0     H16823   6.713   8.030   3.605 -1.2305  1.6718 -2.6040
  847MOL0     H16824   6.881   7.968   3.604 -0.5020  0.0488  0.9342
  847MOL0     H16825   6.932   8.091   3.420  0.1595  0.1962 -0.4187
  847MOL0     H16826   6.769   8.105   3.353 -1.0596  0.0219  0.4654
  847MOL0     H16827   6.714   8.258   3.545 -0.3169  1.0683 -1.6874
  847MOL0     H16828   6.843   8.328   3.442 -0.5106  2.3198  2.7251
  847MOL0     H16829   6.911   8.201   3.713  0.3178  1.5211  0.9995
  847MOL0     H16830   7.021   8.255   3.593 -0.1033 -3.7432  0.8452
  847MOL0     H16831   6.932   8.492   3.627 -0.0892  1.7846  1.3931
  847MOL0     H16832   7.006   8.402   3.772 -3.3173 -2.6931  2.4864
  847MOL0     H16833   6.714   8.465   3.707  0.0858  0.4172  1.2158
  847MOL0     H16834   6.764   8.335   3.819  1.6141  0.4448  1.7797
  847MOL0     H16835   6.797   8.728   3.808 -1.9818 -0.9631  0.5144
  847MOL0     H16836   6.936   8.876   3.985  1.6243  1.2162  1.3318
  847MOL0     H16837   6.916   8.826   4.156 -3.1173  1.3089  1.3294
  847MOL0     H16838   6.677   8.858   4.162 -2.3686  4.4686  0.3597
  847MOL0     H16839   6.745   9.001   4.117 -0.8077  0.8476 -3.8451
  847MOL0     H16840   6.694   8.959   3.872 -0.4975 -0.7247  0.2199
  847MOL0     H16841   6.580   8.838   3.921  1.1010 -1.6881  1.2577
  847MOL0     H16842   6.482   8.966   4.100  2.4668  1.9394  2.5215
  847MOL0     H16843   6.568   9.110   4.058  0.6342  0.5063 -2.6639
  847MOL0     H16844   6.285   9.110   3.739  1.2546  0.3028 -0.0173
  847MOL0     H16845   6.155   9.266   3.616  1.7225 -0.4046  1.9907
  847MOL0     H16846   6.125   9.423   3.694  2.3949  0.4736 -1.0577
  847MOL0     H16847   5.997   9.311   3.689 -0.0956  1.0703  1.7896
  847MOL0     H16848   5.611   9.343   3.884 -1.6387  0.7990  1.8261
  847MOL0     H16849   5.448   9.483   3.904  0.9465  0.4853  3.2533
  847MOL0     H16850   5.305   9.669   3.836  1.3442 -2.2445  0.6570
  847MOL0     H16851   5.352   9.634   3.989  0.2965 -2.1306 -2.8408
  847MOL0     H16852   5.156   9.783   3.952 -0.6137  1.7545  0.2187
  847MOL0     H16853   5.271   9.836   4.083  0.9623 -4.1492  1.0862
  847MOL0     H16854   5.228   9.946   3.811 -0.6932 -4.8075  1.1453
  847MOL0     H16855   5.377   9.994   3.914  0.3369  0.1572  1.6191
  847MOL0     H16856   5.201  10.091   4.075 -0.4704 -2.0678  0.4388
  847MOL0     H16857   5.078  10.033   3.966 -0.4286  0.8977 -1.7136
  847MOL0     H16858   5.281  10.246   3.917 -0.8216  0.2341 -0.0510
  847MOL0     H16859   5.173  10.169   3.784  1.4067  0.3727 -0.6478
  847MOL0     H16860   5.112  10.341   4.025  1.2545 -0.7256  0.7673
  847MOL0     H16861   4.984  10.254   3.935 -0.2252  0.0957 -0.8929
  847MOL0     H16862   4.999  10.483   3.857 -1.6546 -2.4475 -0.0846
  847MOL0     H16863   5.048  10.388   3.714  1.7456 -1.9957 -0.2393
  847MOL0     H16864   5.204  10.572   3.723  3.4669  1.3137  0.5991
  847MOL0     H16865   5.291  10.421   3.773 -0.0739  0.7563 -1.4954
  847MOL0     H16866   5.719   9.814   3.840  0.3600  0.3855 -0.6764
  847MOL0     H16867   5.917   9.639   3.815 -0.2438  3.0443  1.2385
  847MOL0     H16868   6.166   9.316   4.170  3.3746  5.1399  0.1725
  847MOL0     H16869   6.372   9.172   4.133  0.7277 -3.5733 -2.3435
  847MOL0     H16870   6.584   7.604   3.799  0.3177  1.6385 -2.7653
  847MOL0     H16871   6.516   7.596   4.039  0.3024  0.9547  0.6997
  847MOL0     H16872   6.697   7.795   4.472  1.0108  1.7512  0.9699
  847MOL0     H16873   6.659   7.835   4.715 -1.5089 -5.2210 -0.2670
  847MOL0     H16874   6.529   7.745   4.907  0.4910 -0.1036 -1.1823
  847MOL0     H16875   6.609   7.892   4.916  0.5506 -1.3597 -0.2822
  847MOL0     H16876   6.396   7.972   5.057 -1.7347 -0.0987  0.0543
  847MOL0     H16877   6.522   7.867   5.122 -0.3130 -0.2934 -0.8501
  847MOL0     H16878   6.389   7.671   5.082  1.7344  0.8885  1.9794
  847MOL0     H16879   6.308   7.799   5.188  0.4023  2.9844 -0.7745
  847MOL0     H16880   6.138   7.708   5.063  0.0534 -2.7992 -2.0938
  847MOL0     H16881   6.216   7.732   4.906 -3.4303  0.5764 -0.4480
  847MOL0     H16882   6.025   8.097   4.948 -2.5576 -1.1155  3.8260
  847MOL0     H16883   6.272   7.981   4.627 -1.1719 -1.4690 -0.9123
  847MOL0     H16884   6.167   7.964   4.411 -0.1951  2.8282 -0.0168
  847MOL0     H16885   6.300   8.037   4.318  1.4361 -0.3556 -0.1653
  847MOL0     H16886   6.244   7.874   4.286  1.6798  0.4882  0.2979
  848MOL0     O16887   9.430   1.296   8.438  0.9363  0.0349 -0.4311
  848MOL0     C16888   9.307   1.270   8.447 -0.2896 -0.2642  0.6172
  848MOL0     O16889   9.260   1.143   8.460 -0.6701  0.2795 -0.1336
  848MOL0     C16890   9.335   1.059   8.540 -0.3752 -0.8056 -0.3180
  848MOL0     C16891   9.415   1.111   8.649 -0.3640  0.8617  0.4984
  848MOL0     C16892   9.491   1.022   8.722  0.3066  0.0347  0.2972
  848MOL0     C16893   9.495   0.888   8.693  0.8359  0.6296  0.4185
  848MOL0     O16894   9.581   0.814   8.772  0.1953  0.6566 -0.4524
  848MOL0     C16895   9.516   0.759   8.881  0.3758  0.2535  0.2403
  848MOL0     C16896   9.618   0.729   8.987 -0.6553 -0.0656 -0.7023
  848MOL0     C16897   9.559   0.675   9.121  0.5132  0.1498 -0.2434
  848MOL0     C16898   9.664   0.660   9.225 -0.0056 -0.2919 -0.5260
  848MOL0     C16899   9.608   0.607   9.366  0.2456  0.5319  1.1980
  848MOL0     C16900   9.731   0.576   9.464  0.1446 -0.6109 -1.0994
  848MOL0     C16901   9.687   0.589   9.603  0.5728 -0.4994 -1.2484
  848MOL0     C16902   9.812   0.570   9.702  0.0743 -0.6744  0.3608
  848MOL0     N16903   9.760   0.551   9.842 -0.0554  0.6013 -0.3654
  848MOL0     C16904   9.813   0.613   9.954  0.2250 -0.1630 -0.8790
  848MOL0     C16905   9.718   0.591  10.047  0.9938  0.1342 -0.2830
  848MOL0     C16906   9.711   0.629  10.186  0.1156  0.0669 -0.4532
  848MOL0     C16907   9.656   0.774  10.199  0.0723  0.7380  1.2744
  848MOL0     C16908   9.652   0.804  10.350 -0.2158 -0.2958 -0.1238
  848MOL0     C16909   9.582   0.929  10.384 -0.1558 -0.7183  0.6320
  848MOL0     O16910   9.620   1.051  10.323  0.0335  0.2870 -0.1452
  848MOL0     C16911   9.700   1.142  10.392 -0.2401  0.7175  0.3584
  848MOL0     C16912   9.843   1.153  10.380 -0.0845 -0.3204  0.6132
  848MOL0     C16913   9.928   1.254  10.441  0.9962 -0.0040  0.7544
  848MOL0     C16914  10.078   1.254  10.419  0.2585  0.7249 -0.4318
  848MOL0     C16915   9.854   1.358  10.507  0.8327 -0.7704  0.2006
  848MOL0     C16916   9.916   1.472  10.575  0.5742 -1.3178  0.9137
  848MOL0     O16917   9.848   1.591  10.563  0.2911  0.1821 -0.4189
  848MOL0     C16918   9.907   1.706  10.614  0.8436 -0.1284  0.6954
  848MOL0     C16919   9.945   1.802  10.521  0.1594  0.6703  0.2695
  848MOL0     C16920   9.996   1.928  10.552  0.2829  0.1286 -0.5974
  848MOL0     C16921  10.016   1.957  10.690 -0.2653  0.0602  0.3380
  848MOL0     O16922  10.058   2.083  10.719 -0.2376 -0.5725 -0.3646
  848MOL0     C16923  10.174   2.064  10.803 -0.3595  0.8834 -0.1183
  848MOL0     C16924  10.235   2.199  10.824  0.4633 -0.2127  0.7392
  848MOL0     C16925  10.362   2.196  10.898 -0.3040  0.9602 -0.3727
  848MOL0     C16926  10.471   2.099  10.850 -0.6286 -0.4282  0.5039
  848MOL0     C16927  10.611   2.141  10.898 -0.2128 -0.0647  0.1681
  848MOL0     C16928  10.604   2.166  11.053 -0.3758 -0.4321  0.3175
  848MOL0     C16929  10.742   2.184  11.123  0.3478 -0.7264  0.3099
  848MOL0     C16930  10.799   2.328  11.128 -0.3122  0.3830 -0.0958
  848MOL0    Cl16931  10.725   2.413  11.265 -0.4156  0.1781 -0.1734
  848MOL0     C16932   9.976   1.859  10.782 -0.0705 -1.2042 -0.7858
  848MOL0     C16933   9.917   1.736  10.750  0.7130  0.2566  0.1828
  848MOL0     O16934  10.027   1.460  10.621 -1.1281  0.1894 -0.3606
  848MOL0     C16935   9.708   1.340  10.532 -0.5020 -1.1686  0.5046
  848MOL0     C16936   9.633   1.242  10.469  0.2680  0.1193 -0.1563
  848MOL0     N16937   9.626   0.503   9.993  0.2781 -0.1769  0.3537
  848MOL0     N16938   9.652   0.474   9.866  0.0860  0.0955  0.8207
  848MOL0     C16939   9.424   0.838   8.583 -0.7099 -0.2596  0.8557
  848MOL0     C16940   9.340   0.924   8.508 -0.5087  0.1898  0.9672
  848MOL0     C16941   9.208   1.382   8.432 -0.5346  1.2735 -0.4446
  848MOL0     C16942   9.068   1.347   8.418 -0.3241  0.4699 -0.0711
  848MOL0     C16943   8.959   1.437   8.432  0.4230 -0.1504  1.0987
  848MOL0     C16944   8.999   1.573   8.459 -0.6729  0.4965 -0.9204
  848MOL0     O16945   8.917   1.680   8.485 -0.5755 -0.1404 -0.5056
  848MOL0     C16946   8.779   1.674   8.443 -0.0034  0.2969  0.4339
  848MOL0     C16947   8.684   1.609   8.556 -0.0474 -0.1140 -0.0297
  848MOL0     C16948   8.569   1.527   8.495  0.4392  0.2364 -0.4199
  848MOL0     C16949   8.457   1.611   8.431  0.4880 -0.2609 -0.0362
  848MOL0     C16950   8.496   1.679   8.307 -0.1978  0.7526  0.0296
  848MOL0     C16951   8.505   1.748   8.210 -0.1061 -0.3000  0.1788
  848MOL0     C16952   9.136   1.609   8.452  0.7088  0.3894 -0.0591
  848MOL0     C16953   9.242   1.522   8.443  0.6959  0.3326 -0.4671
  848MOL0     C16954   9.383   1.575   8.444  0.0978 -0.7261  0.8940
  848MOL0     H16955   9.424   1.215   8.682 -0.1896  0.3469  2.1990
  848MOL0     H16956   9.546   1.051   8.811  0.5980 -1.3356  0.5856
  848MOL0     H16957   9.475   0.659   8.863  1.7791 -0.9002  2.8729
  848MOL0     H16958   9.438   0.824   8.922  1.7304  1.4545  1.0117
  848MOL0     H16959   9.683   0.649   8.952  1.5520  2.3237 -2.4275
  848MOL0     H16960   9.672   0.824   8.985  1.8055 -1.3227 -4.7536
  848MOL0     H16961   9.483   0.749   9.148 -0.9408 -1.5668  0.4783
  848MOL0     H16962   9.514   0.576   9.112  2.2840 -1.2091  3.4823
  848MOL0     H16963   9.744   0.589   9.202 -0.3207 -0.0804 -2.3792
  848MOL0     H16964   9.714   0.755   9.244  1.3540 -1.0918  0.0556
  848MOL0     H16965   9.560   0.509   9.356  0.8436  0.2696  0.8606
  848MOL0     H16966   9.531   0.671   9.411 -1.2659  1.5224 -2.4107
  848MOL0     H16967   9.775   0.479   9.440  3.8805  1.2987 -3.0636
  848MOL0     H16968   9.809   0.652   9.448  0.0156 -0.3913 -0.6858
  848MOL0     H16969   9.625   0.501   9.618 -1.0518  0.6883 -0.7617
  848MOL0     H16970   9.638   0.686   9.614 -0.2470 -0.7651 -2.2856
  848MOL0     H16971   9.887   0.493   9.678  0.7092  0.5172 -1.7324
  848MOL0     H16972   9.866   0.665   9.704  2.1449 -1.6503  5.1624
  848MOL0     H16973   9.894   0.682   9.973 -0.8681  1.4218 -1.8038
  848MOL0     H16974   9.812   0.630  10.226 -0.3618  0.2146  0.7713
  848MOL0     H16975   9.648   0.567  10.250 -0.1298  1.8952  1.1757
  848MOL0     H16976   9.719   0.846  10.145 -1.1874 -0.3203 -1.7791
  848MOL0     H16977   9.555   0.778  10.157 -1.0644  0.8052  3.8267
  848MOL0     H16978   9.603   0.723  10.405 -0.7184  3.1381  5.2523
  848MOL0     H16979   9.756   0.807  10.382  0.0531 -1.5397 -0.8159
  848MOL0     H16980   9.476   0.926  10.358  0.5187  0.9967 -2.9025
  848MOL0     H16981   9.584   0.938  10.493 -2.6780  1.7917  0.5555
  848MOL0     H16982   9.897   1.094  10.307 -1.1187  1.7272 -1.9616
  848MOL0     H16983  10.104   1.203  10.325 -0.0194 -2.0230  0.8839
  848MOL0     H16984  10.121   1.203  10.506 -0.0449 -0.0123 -0.7029
  848MOL0     H16985  10.115   1.357  10.416  1.4521  0.4878  2.6885
  848MOL0     H16986   9.909   1.780  10.421 -0.9590 -2.7209  1.2910
  848MOL0     H16987  10.018   2.014  10.490  0.4698  0.8504  0.4490
  848MOL0     H16988  10.146   2.026  10.902  2.7541 -2.4434 -0.3276
  848MOL0     H16989  10.237   1.998  10.744 -0.1089  1.5576 -0.6179
  848MOL0     H16990  10.255   2.234  10.723 -3.3855 -1.8582 -0.8138
  848MOL0     H16991  10.165   2.267  10.875  1.7628  3.3947 -1.8773
  848MOL0     H16992  10.336   2.190  11.004 -1.7534  1.0518 -0.7030
  848MOL0     H16993  10.394   2.300  10.887 -2.9791  2.0408  1.1622
  848MOL0     H16994  10.471   2.103  10.741  0.0494 -1.2859  0.4593
  848MOL0     H16995  10.451   1.996  10.882  1.9784 -1.6461 -1.4785
  848MOL0     H16996  10.682   2.063  10.869  1.1794  1.5841 -1.0409
  848MOL0     H16997  10.641   2.233  10.848 -0.6924 -0.4191 -0.8062
  848MOL0     H16998  10.563   2.070  11.082 -1.3397  0.1866  1.0630
  848MOL0     H16999  10.539   2.247  11.087 -1.3479 -0.7321 -0.7330
  848MOL0     H17000  10.803   2.116  11.062  2.8347 -0.1939  2.0633
  848MOL0     H17001  10.745   2.139  11.223 -1.7311  0.5595  1.0238
  848MOL0     H17002  10.803   2.378  11.031 -0.1430  0.1639 -0.2034
  848MOL0     H17003  10.906   2.318  11.152 -0.8719 -3.0121  1.6397
  848MOL0     H17004   9.986   1.881  10.887  2.0167 -3.0029 -0.5305
  848MOL0     H17005   9.882   1.667  10.826  1.4190 -0.2461  0.0576
  848MOL0     H17006   9.663   1.424  10.585 -3.2197  0.2154 -3.4669
  848MOL0     H17007   9.524   1.243  10.473  0.2610  0.4382 -0.3827
  848MOL0     H17008   9.436   0.732   8.565 -0.7555 -0.6123  2.7159
  848MOL0     H17009   9.284   0.877   8.428 -0.7577 -0.7771  1.7039
  848MOL0     H17010   9.051   1.240   8.404  1.2958  0.0004  1.2691
  848MOL0     H17011   8.862   1.389   8.433  0.8469 -1.1229 -0.4612
  848MOL0     H17012   8.749   1.774   8.411 -0.8581 -0.3161 -0.7554
  848MOL0     H17013   8.776   1.612   8.352  0.8011  1.1017 -0.1589
  848MOL0     H17014   8.655   1.667   8.645  2.5590  0.4130  0.5620
  848MOL0     H17015   8.747   1.538   8.610 -2.4342 -0.3230  2.7428
  848MOL0     H17016   8.601   1.449   8.425  0.0399  0.6671 -1.0893
  848MOL0     H17017   8.539   1.472   8.585  2.8310  1.3189  1.1397
  848MOL0     H17018   8.419   1.684   8.503  1.2898  0.3670 -0.2268
  848MOL0     H17019   8.381   1.542   8.395 -0.9831  1.4423 -0.3213
  848MOL0     H17020   8.534   1.811   8.128 -4.1014  0.1296 -1.1122
  848MOL0     H17021   9.154   1.716   8.454 -2.3437  0.9842  0.3476
  848MOL0     H17022   9.441   1.534   8.361 -0.9380  1.5156 -1.0181
  848MOL0     H17023   9.384   1.684   8.435 -2.0074 -0.6457  1.2349
  848MOL0     H17024   9.443   1.534   8.526  1.6029 -1.5741 -0.5634
  849MOL0     O17025   0.416   4.958   2.919  0.0571  0.8351 -0.2619
  849MOL0     C17026   0.373   4.953   2.802 -0.5599 -0.1425 -0.2171
  849MOL0     O17027   0.252   4.905   2.761 -0.2131  0.5086  1.0224
  849MOL0     C17028   0.150   4.903   2.855 -0.0769 -0.3800  1.1213
  849MOL0     C17029   0.107   4.778   2.883  1.0183  0.7619  0.3432
  849MOL0     C17030   0.015   4.768   2.982 -0.1955 -0.7647  0.1420
  849MOL0     C17031  -0.054   4.882   3.051 -0.3211 -0.4221  0.5265
  849MOL0     O17032  -0.146   4.850   3.144  0.2455 -0.5586  0.8881
  849MOL0     C17033  -0.254   4.930   3.121  0.5123  0.4519 -0.5264
  849MOL0     C17034  -0.371   4.844   3.187  0.1961 -0.1283  0.2719
  849MOL0     C17035  -0.498   4.934   3.196 -0.1780  0.0775 -0.6206
  849MOL0     C17036  -0.597   4.883   3.302  0.3777  0.4974 -0.7188
  849MOL0     C17037  -0.649   4.741   3.290  0.0281  0.5007 -0.6197
  849MOL0     C17038  -0.723   4.683   3.418  1.0711 -0.0154 -0.5994
  849MOL0     C17039  -0.626   4.623   3.520 -0.4524  0.1598 -0.0020
  849MOL0     C17040  -0.707   4.557   3.630  0.0693  0.4903  0.8244
  849MOL0     N17041  -0.615   4.504   3.737 -0.1607 -0.2722  0.5772
  849MOL0     C17042  -0.551   4.381   3.736  0.3634  0.0207  0.6291
  849MOL0     C17043  -0.533   4.356   3.869 -0.2503 -0.3837 -0.2397
  849MOL0     C17044  -0.485   4.230   3.942 -0.2163  0.0180  0.8625
  849MOL0     C17045  -0.551   4.105   3.875  0.0744  0.3144 -0.3385
  849MOL0     C17046  -0.707   4.120   3.884  1.1162 -0.0731  0.7122
  849MOL0     C17047  -0.789   3.994   3.866 -0.2804 -0.3985  0.2610
  849MOL0     O17048  -0.761   3.908   3.981 -0.4885 -0.4160  0.1001
  849MOL0     C17049  -0.842   3.922   4.086 -0.4075 -0.3732 -0.2473
  849MOL0     C17050  -0.957   4.000   4.095  0.4569 -0.3959 -0.6187
  849MOL0     C17051  -1.040   3.993   4.213  0.6620 -0.0933  0.6855
  849MOL0     C17052  -1.163   4.082   4.204 -0.2252  0.5523 -0.5948
  849MOL0     C17053  -0.998   3.909   4.329  0.4222  0.3013  0.4889
  849MOL0     C17054  -1.062   3.908   4.459  0.4859 -0.2814 -0.2643
  849MOL0     O17055  -1.129   4.029   4.499 -0.8409 -0.1701 -0.5030
  849MOL0     C17056  -1.220   4.019   4.598 -0.1174  0.3205 -0.6582
  849MOL0     C17057  -1.330   3.931   4.583 -0.3110 -0.7800  0.4557
  849MOL0     C17058  -1.436   3.932   4.678 -0.0431  0.5779  0.0129
  849MOL0     C17059  -1.421   4.001   4.796  0.2569 -0.6924  0.1960
  849MOL0     O17060  -1.509   4.006   4.898  0.3176  1.4296  0.7118
  849MOL0     C17061  -1.623   3.927   4.890  0.5739 -0.5329  0.8248
  849MOL0     C17062  -1.725   3.964   5.000  0.1605  0.5830 -0.5117
  849MOL0     C17063  -1.825   4.077   4.977  0.5838  0.7518  0.0402
  849MOL0     C17064  -1.772   4.212   4.997  0.2254  0.2651  1.4630
  849MOL0     C17065  -1.839   4.310   4.903  0.1286  0.3673 -0.0803
  849MOL0     C17066  -1.791   4.453   4.932  1.1014 -0.0559 -0.3290
  849MOL0     C17067  -1.849   4.547   4.824 -0.3136 -0.2082 -0.3881
  849MOL0     C17068  -1.982   4.617   4.856 -0.1592 -0.1550 -0.4720
  849MOL0    Cl17069  -2.132   4.518   4.902  0.3628  0.2267  0.1526
  849MOL0     C17070  -1.307   4.085   4.807 -0.1410 -0.6846  0.0042
  849MOL0     C17071  -1.206   4.092   4.714 -0.0311  1.2734 -0.1568
  849MOL0     O17072  -1.065   3.802   4.521 -0.1970 -0.6920 -0.2972
  849MOL0     C17073  -0.881   3.830   4.303 -0.5736 -0.1313  0.7711
  849MOL0     C17074  -0.807   3.834   4.185  0.4007  0.4304 -0.0857
  849MOL0     N17075  -0.575   4.471   3.946 -0.5652 -0.2105  0.5544
  849MOL0     N17076  -0.632   4.550   3.865 -0.5463  0.2594 -0.5369
  849MOL0     C17077  -0.016   5.008   2.991 -0.8789  0.1521  0.2258
  849MOL0     C17078   0.090   5.020   2.905 -0.6448  1.4577  0.0566
  849MOL0     C17079   0.468   4.999   2.693 -0.0123 -0.8941 -0.1567
  849MOL0     C17080   0.414   5.036   2.565 -0.0603 -0.0184  0.1359
  849MOL0     C17081   0.492   5.076   2.461 -0.3566 -0.1426  0.5634
  849MOL0     C17082   0.627   5.120   2.478 -0.0859 -0.6527 -0.0624
  849MOL0     O17083   0.697   5.160   2.363  0.3887 -0.1862  0.8877
  849MOL0     C17084   0.804   5.250   2.402 -0.6434 -0.8204 -0.6550
  849MOL0     C17085   0.833   5.351   2.294  0.3503 -0.1437 -0.0208
  849MOL0     C17086   0.900   5.486   2.341  0.5462  0.1000 -0.3078
  849MOL0     C17087   0.804   5.606   2.366  1.2115 -0.4019 -0.5634
  849MOL0     C17088   0.732   5.659   2.251  0.0427  0.9777  0.3582
  849MOL0     C17089   0.669   5.698   2.154 -0.1732  0.3242  0.8502
  849MOL0     C17090   0.688   5.072   2.596  0.0646  0.8592 -0.4922
  849MOL0     C17091   0.610   5.016   2.703  0.4484 -0.1609  0.7968
  849MOL0     C17092   0.686   4.983   2.826  0.3007  0.5298  0.2817
  849MOL0     H17093   0.151   4.691   2.836 -1.6112  1.0617 -3.1069
  849MOL0     H17094  -0.031   4.671   3.001 -2.2377  0.4006  1.5702
  849MOL0     H17095  -0.287   4.929   3.016 -1.1301 -4.3105 -0.2439
  849MOL0     H17096  -0.234   5.022   3.175 -1.3378  0.0308  0.9687
  849MOL0     H17097  -0.386   4.756   3.123  0.3043  1.6106 -2.2980
  849MOL0     H17098  -0.345   4.811   3.288  5.1239  1.1826 -0.3097
  849MOL0     H17099  -0.486   5.038   3.228 -1.5147  0.2252 -0.5054
  849MOL0     H17100  -0.547   4.954   3.100  2.1565  0.3299 -1.8149
  849MOL0     H17101  -0.552   4.884   3.402  0.9773  0.3263 -0.9821
  849MOL0     H17102  -0.679   4.955   3.310 -1.7632 -1.9287  0.6343
  849MOL0     H17103  -0.564   4.675   3.273  0.6007  1.6522 -2.4576
  849MOL0     H17104  -0.714   4.736   3.202 -2.3220  2.1568  0.8931
  849MOL0     H17105  -0.785   4.761   3.464  0.9946  1.4252 -2.9486
  849MOL0     H17106  -0.776   4.591   3.393  2.3024 -0.1543 -3.0220
  849MOL0     H17107  -0.565   4.701   3.565 -0.2401 -0.2938  0.5042
  849MOL0     H17108  -0.561   4.548   3.473  1.5135  2.9228 -2.0530
  849MOL0     H17109  -0.774   4.630   3.677 -0.3012 -1.3817  3.4107
  849MOL0     H17110  -0.762   4.468   3.601 -1.2183  1.8797 -1.2493
  849MOL0     H17111  -0.531   4.318   3.650 -0.3700  3.4037 -2.2570
  849MOL0     H17112  -0.501   4.221   4.050 -2.6188 -2.9023  0.4016
  849MOL0     H17113  -0.378   4.231   3.919 -0.3300  3.6760 -0.1195
  849MOL0     H17114  -0.524   4.113   3.769 -1.4115 -1.3430 -0.8718
  849MOL0     H17115  -0.514   4.011   3.916  0.7995 -0.0057 -1.6641
  849MOL0     H17116  -0.729   4.158   3.984 -0.9099  0.0286  0.2766
  849MOL0     H17117  -0.744   4.190   3.808  4.7114  0.9553 -0.3245
  849MOL0     H17118  -0.896   4.006   3.851 -0.7028 -4.1414 -0.9074
  849MOL0     H17119  -0.751   3.939   3.779 -1.6616  1.6423 -1.7352
  849MOL0     H17120  -0.984   4.068   4.015  0.9195 -0.8831 -1.1989
  849MOL0     H17121  -1.232   4.085   4.289  1.3965 -0.5134  0.8089
  849MOL0     H17122  -1.218   4.059   4.112 -0.5651  1.6250 -0.6720
  849MOL0     H17123  -1.112   4.178   4.200  3.0267 -0.9575  1.0626
  849MOL0     H17124  -1.338   3.867   4.496  0.8753  1.3477 -1.3187
  849MOL0     H17125  -1.516   3.861   4.663  0.9451 -0.1657 -2.1995
  849MOL0     H17126  -1.672   3.937   4.793 -0.5168 -1.7441  1.2205
  849MOL0     H17127  -1.588   3.823   4.897 -0.6732 -1.1754 -1.5645
  849MOL0     H17128  -1.785   3.873   5.010 -2.4151  2.0711 -1.4368
  849MOL0     H17129  -1.682   3.987   5.098  0.2128 -0.7967 -0.1807
  849MOL0     H17130  -1.905   4.070   5.052  0.3475 -0.1887 -0.2812
  849MOL0     H17131  -1.861   4.060   4.875  3.2835 -1.1847 -0.6935
  849MOL0     H17132  -1.671   4.207   4.955 -0.5455  0.6198 -0.5521
  849MOL0     H17133  -1.778   4.257   5.096  0.5911  0.2766  1.4817
  849MOL0     H17134  -1.817   4.274   4.802  0.9731 -1.5692  0.7378
  849MOL0     H17135  -1.947   4.309   4.918  0.3440  4.6784  4.6244
  849MOL0     H17136  -1.682   4.449   4.922  1.0739 -3.1212 -0.3938
  849MOL0     H17137  -1.808   4.490   5.033  0.2720 -2.3655  0.4483
  849MOL0     H17138  -1.840   4.491   4.730  1.7978 -1.5326  0.5190
  849MOL0     H17139  -1.764   4.616   4.817  2.3677 -3.3610 -2.4333
  849MOL0     H17140  -1.992   4.688   4.774  1.0595  1.0376  0.3582
  849MOL0     H17141  -1.972   4.680   4.945  0.2125  1.5192 -1.6625
  849MOL0     H17142  -1.286   4.148   4.893 -0.7712 -1.7218  0.9345
  849MOL0     H17143  -1.127   4.166   4.728  0.7835  0.2526  0.7708
  849MOL0     H17144  -0.851   3.754   4.375  0.1134 -0.9777 -0.3742
  849MOL0     H17145  -0.723   3.765   4.176  0.7596  1.0331 -1.8956
  849MOL0     H17146  -0.068   5.098   3.021  1.3052  2.3529 -2.0033
  849MOL0     H17147   0.135   5.106   2.856  2.5893 -0.4282 -0.6521
  849MOL0     H17148   0.307   5.024   2.547 -0.2722 -1.3701  1.8954
  849MOL0     H17149   0.441   5.086   2.365  0.1272  0.9848  0.4012
  849MOL0     H17150   0.777   5.300   2.496  0.2645  3.4549 -2.4113
  849MOL0     H17151   0.896   5.197   2.426  0.1624  1.3434  1.5521
  849MOL0     H17152   0.735   5.385   2.259 -0.3689  0.2497  2.2090
  849MOL0     H17153   0.888   5.313   2.207  0.4844 -0.5160  0.2229
  849MOL0     H17154   0.962   5.458   2.427 -0.7160 -0.8000  0.3355
  849MOL0     H17155   0.965   5.531   2.265  0.9301  1.7712  0.9557
  849MOL0     H17156   0.851   5.691   2.416  3.0431 -0.6875 -1.6996
  849MOL0     H17157   0.735   5.554   2.434  2.8050 -1.1778  0.5162
  849MOL0     H17158   0.627   5.744   2.067  0.4471  2.5836  1.6939
  849MOL0     H17159   0.793   5.097   2.600 -0.0496  1.4075 -0.7966
  849MOL0     H17160   0.646   4.902   2.887 -1.4962  1.8480  0.9277
  849MOL0     H17161   0.790   4.961   2.801  1.4541  3.2068  2.2441
  849MOL0     H17162   0.682   5.069   2.894 -0.9024  0.9692 -0.3198
  850MOL0     O17163   3.728   3.300   4.702  0.5239  0.7248  0.4970
  850MOL0     C17164   3.606   3.305   4.705  0.4708  0.4649 -0.2583
  850MOL0     O17165   3.533   3.197   4.654 -0.0124 -0.1646 -0.2691
  850MOL0     C17166   3.588   3.077   4.627 -0.2948  0.0353  0.5099
  850MOL0     C17167   3.666   3.063   4.508  0.4560  0.3631 -0.0613
  850MOL0     C17168   3.722   2.935   4.477  0.6087 -0.9106 -0.2088
  850MOL0     C17169   3.709   2.827   4.574 -0.3276 -0.1562 -0.5071
  850MOL0     O17170   3.769   2.701   4.564 -0.8585  0.1967 -1.1026
  850MOL0     C17171   3.880   2.693   4.476 -0.7967 -0.5144  0.3839
  850MOL0     C17172   3.937   2.554   4.462 -1.3493  0.0066 -0.2405
  850MOL0     C17173   4.022   2.495   4.589  1.0826 -1.1743  0.1733
  850MOL0     C17174   4.148   2.436   4.541  0.1291 -0.3376  0.1522
  850MOL0     C17175   4.223   2.346   4.649 -0.4009  0.6742  0.2409
  850MOL0     C17176   4.275   2.441   4.766  0.7177  0.0663  0.1729
  850MOL0     C17177   4.415   2.407   4.812  0.1464 -0.2375 -0.8042
  850MOL0     C17178   4.439   2.455   4.957  0.2505 -0.1770 -0.5683
  850MOL0     N17179   4.353   2.384   5.054  0.2065  0.5651 -0.2255
  850MOL0     C17180   4.361   2.253   5.093 -0.1242 -0.1143  0.5568
  850MOL0     C17181   4.249   2.235   5.165  0.2308  0.6010  0.2955
  850MOL0     C17182   4.224   2.109   5.242 -0.4254  0.4912  0.7696
  850MOL0     C17183   4.203   1.976   5.164  0.2490 -0.5275  0.5534
  850MOL0     C17184   4.074   1.979   5.074 -0.2481  0.4359  0.1445
  850MOL0     C17185   4.108   1.992   4.930 -0.1659  0.2460 -0.2009
  850MOL0     O17186   4.199   1.892   4.883 -0.8582 -0.1784 -0.1460
  850MOL0     C17187   4.186   1.851   4.756 -0.4116  0.4852 -1.1019
  850MOL0     C17188   4.113   1.914   4.649  0.6034  0.7349 -0.3021
  850MOL0     C17189   4.114   1.869   4.515 -0.7000 -0.4616 -0.5656
  850MOL0     C17190   4.050   1.955   4.415  0.4873  0.1416  0.1917
  850MOL0     C17191   4.192   1.755   4.477  0.1000  0.1422  0.7952
  850MOL0     C17192   4.184   1.691   4.341  0.7031 -0.0439 -0.4322
  850MOL0     O17193   4.284   1.605   4.314  0.0445 -0.1937  0.7004
  850MOL0     C17194   4.278   1.547   4.196 -0.3329  0.4195 -0.9547
  850MOL0     C17195   4.313   1.613   4.074  0.5181  0.1090  0.2293
  850MOL0     C17196   4.287   1.555   3.951  0.8432  0.1727  0.1167
  850MOL0     C17197   4.240   1.422   3.941  0.7957 -0.3956 -0.7147
  850MOL0     O17198   4.230   1.374   3.812  0.8624 -0.1846 -0.1282
  850MOL0     C17199   4.128   1.271   3.795  0.1555  0.2074 -0.4793
  850MOL0     C17200   4.135   1.212   3.655 -0.3339 -0.3138 -0.9017
  850MOL0     C17201   4.096   1.318   3.551 -0.1989  0.8772 -0.0927
  850MOL0     C17202   4.066   1.254   3.409 -0.0741 -0.6997  0.4793
  850MOL0     C17203   3.982   1.351   3.314 -0.7052 -0.2864 -0.7527
  850MOL0     C17204   4.061   1.478   3.301 -0.1535 -0.1093 -0.8027
  850MOL0     C17205   4.053   1.546   3.166 -1.0865  0.4041  0.6772
  850MOL0     C17206   3.921   1.623   3.136 -0.3162  0.5384 -0.3525
  850MOL0    Cl17207   3.920   1.620   2.957  0.3125 -0.5955  0.0472
  850MOL0     C17208   4.211   1.354   4.061 -0.3156 -0.5750 -0.4976
  850MOL0     C17209   4.227   1.414   4.188 -0.0298 -0.1446 -0.1460
  850MOL0     O17210   4.087   1.715   4.267 -0.2142 -0.2526 -0.4616
  850MOL0     C17211   4.265   1.691   4.583 -0.2936 -0.3963 -0.0925
  850MOL0     C17212   4.264   1.742   4.715  0.5673 -0.1175  0.2917
  850MOL0     N17213   4.179   2.352   5.183  0.1031 -0.2316  0.8290
  850MOL0     N17214   4.256   2.440   5.127 -0.1959 -0.4211 -0.1793
  850MOL0     C17215   3.621   2.847   4.679  0.1787 -0.6494 -0.1232
  850MOL0     C17216   3.566   2.973   4.704  0.5818 -0.2252  0.0650
  850MOL0     C17217   3.548   3.437   4.747 -0.1283  0.3192 -0.7120
  850MOL0     C17218   3.629   3.540   4.810  0.1086  0.1922 -0.4554
  850MOL0     C17219   3.587   3.671   4.825 -1.0027  1.3655  0.1921
  850MOL0     C17220   3.449   3.708   4.805 -1.0831  0.5718 -0.3468
  850MOL0     O17221   3.403   3.830   4.816  0.0797  0.3833 -0.8521
  850MOL0     C17222   3.476   3.937   4.870  0.8722  0.0659 -1.3067
  850MOL0     C17223   3.388   4.051   4.923 -0.2637 -0.1091 -0.3522
  850MOL0     C17224   3.298   4.113   4.809 -0.2750  0.0304  0.8062
  850MOL0     C17225   3.201   4.205   4.876  0.3468 -0.4422 -0.3932
  850MOL0     C17226   3.103   4.253   4.774  0.0451 -0.5956 -0.2660
  850MOL0     C17227   3.035   4.314   4.695 -0.0338 -0.3191  0.6598
  850MOL0     C17228   3.370   3.604   4.750 -0.1234 -0.4559 -0.2064
  850MOL0     C17229   3.415   3.473   4.718  0.0975 -1.3454 -0.2819
  850MOL0     C17230   3.321   3.380   4.654 -0.1555 -0.4005  0.3197
  850MOL0     H17231   3.694   3.144   4.442  2.0702  1.8708  2.3083
  850MOL0     H17232   3.787   2.929   4.390  1.7900  4.9497 -0.1141
  850MOL0     H17233   3.955   2.770   4.500 -0.3104  0.2974 -3.1671
  850MOL0     H17234   3.847   2.730   4.378 -1.1604 -1.3338  0.1885
  850MOL0     H17235   3.852   2.490   4.434 -1.8548  0.9121 -0.8308
  850MOL0     H17236   4.009   2.552   4.380 -0.1372 -1.5311  0.8008
  850MOL0     H17237   4.041   2.570   4.667  3.4949 -2.0162  0.5021
  850MOL0     H17238   3.960   2.418   4.634 -1.2215  0.4248 -0.1219
  850MOL0     H17239   4.120   2.373   4.456 -5.8025 -2.1016  2.8775
  850MOL0     H17240   4.214   2.518   4.511 -0.4860  1.2856  2.9526
  850MOL0     H17241   4.303   2.285   4.606 -1.4062 -1.3804  1.1832
  850MOL0     H17242   4.155   2.268   4.684  0.2217  0.0516  0.0845
  850MOL0     H17243   4.256   2.548   4.754 -1.4017 -0.1371  1.1604
  850MOL0     H17244   4.201   2.414   4.842  0.2464 -0.8976 -0.6012
  850MOL0     H17245   4.492   2.453   4.750  0.9579 -0.1864  0.2078
  850MOL0     H17246   4.426   2.298   4.813 -2.8630 -0.6769  1.7275
  850MOL0     H17247   4.543   2.439   4.986 -0.1632  0.7554  1.6753
  850MOL0     H17248   4.414   2.561   4.961 -0.7756 -0.4231 -0.1456
  850MOL0     H17249   4.418   2.165   5.066  0.1304  0.4840 -0.9997
  850MOL0     H17250   4.135   2.121   5.305 -0.0646 -2.8416  2.0847
  850MOL0     H17251   4.309   2.081   5.304 -1.7568 -0.9202  2.0514
  850MOL0     H17252   4.296   1.955   5.112  1.3440  0.0650  2.1822
  850MOL0     H17253   4.184   1.897   5.237 -0.2986  0.1644  1.1771
  850MOL0     H17254   4.013   1.890   5.093 -1.4389  1.1998 -0.0117
  850MOL0     H17255   4.000   2.053   5.106 -1.3943  0.1702 -1.7560
  850MOL0     H17256   4.015   1.978   4.875  0.1020 -1.5249 -0.2654
  850MOL0     H17257   4.152   2.090   4.906  2.2928 -1.1430 -1.8897
  850MOL0     H17258   4.060   2.005   4.675 -1.2245 -0.7262  1.3225
  850MOL0     H17259   3.962   1.907   4.371 -0.1346  1.5555 -0.1593
  850MOL0     H17260   4.115   1.989   4.333 -2.8264 -0.1491 -2.7867
  850MOL0     H17261   4.005   2.045   4.459 -1.8144 -0.9718  0.2600
  850MOL0     H17262   4.345   1.716   4.072  0.4078  0.1637  0.8771
  850MOL0     H17263   4.317   1.610   3.863  2.3584  0.1148  0.5529
  850MOL0     H17264   4.155   1.180   3.849 -1.0182 -0.1814 -0.5266
  850MOL0     H17265   4.030   1.310   3.825  0.8082  0.7290  1.0986
  850MOL0     H17266   4.231   1.169   3.627 -1.3717 -1.4589 -2.8979
  850MOL0     H17267   4.062   1.131   3.664 -1.8573  1.2163  2.4529
  850MOL0     H17268   4.166   1.402   3.551  0.3229  0.5294  2.3734
  850MOL0     H17269   4.005   1.355   3.599 -1.0794 -2.3039  0.9743
  850MOL0     H17270   4.020   1.155   3.416 -0.1132 -0.8337 -1.3365
  850MOL0     H17271   4.154   1.238   3.347 -2.1121 -2.6195 -2.1372
  850MOL0     H17272   3.968   1.296   3.221 -2.2886  2.8369 -2.5466
  850MOL0     H17273   3.892   1.371   3.373  0.0321 -0.9882  0.6408
  850MOL0     H17274   4.166   1.451   3.308 -0.0284  0.4267 -0.5387
  850MOL0     H17275   4.022   1.544   3.380  0.2059 -3.4892  2.4731
  850MOL0     H17276   4.076   1.472   3.088 -0.5878  1.6293 -0.3722
  850MOL0     H17277   4.132   1.622   3.167 -1.5903  1.2198 -3.4570
  850MOL0     H17278   3.927   1.719   3.188 -2.5747 -0.3068  1.6700
  850MOL0     H17279   3.833   1.567   3.169 -0.3011  1.9762  2.4270
  850MOL0     H17280   4.187   1.249   4.074 -1.9875 -0.4450 -2.0099
  850MOL0     H17281   4.183   1.354   4.267 -0.4168  0.8219  0.3889
  850MOL0     H17282   4.319   1.597   4.575  0.9959  0.3170 -0.0600
  850MOL0     H17283   4.326   1.693   4.789  0.3840 -1.1104 -0.1950
  850MOL0     H17284   3.580   2.768   4.740  0.3793 -1.4485 -1.0067
  850MOL0     H17285   3.512   2.981   4.797  0.6477 -1.5142  0.2368
  850MOL0     H17286   3.733   3.511   4.816 -0.6063 -2.8583 -1.2540
  850MOL0     H17287   3.660   3.744   4.858 -0.4456  0.5971  0.7049
  850MOL0     H17288   3.519   3.894   4.961 -1.2607 -0.2174 -0.3747
  850MOL0     H17289   3.558   3.965   4.803  1.3878 -1.5398 -1.3881
  850MOL0     H17290   3.443   4.139   4.955 -1.4880 -0.5203  3.2446
  850MOL0     H17291   3.323   4.003   4.997  1.0656 -1.8390 -0.2306
  850MOL0     H17292   3.365   4.174   4.747 -0.7211 -0.6932 -0.4296
  850MOL0     H17293   3.247   4.035   4.751  0.1932 -0.7210  1.3903
  850MOL0     H17294   3.259   4.285   4.923  3.0162 -2.4557 -0.0343
  850MOL0     H17295   3.147   4.150   4.954  1.4161  1.5523  1.8743
  850MOL0     H17296   2.971   4.385   4.647 -0.3917  0.1082  1.7445
  850MOL0     H17297   3.265   3.628   4.742 -1.4030 -4.4398  2.1345
  850MOL0     H17298   3.344   3.374   4.547 -2.2444 -0.1641 -0.1894
  850MOL0     H17299   3.309   3.283   4.703 -3.8290 -1.0216 -1.4039
  850MOL0     H17300   3.222   3.426   4.668  0.2575 -0.3211  3.5566
  851MOL0     O17301   8.273   3.945   9.634 -0.3033 -0.2337  0.5102
  851MOL0     C17302   8.330   3.900   9.731  0.4518  0.8789  0.0703
  851MOL0     O17303   8.432   3.960   9.806 -0.0059 -0.1420  0.2843
  851MOL0     C17304   8.503   4.072   9.766 -0.3434 -0.5095 -0.0458
  851MOL0     C17305   8.547   4.158   9.858  0.0895  0.1862  0.2416
  851MOL0     C17306   8.631   4.266   9.836  0.4777 -0.4513  0.4716
  851MOL0     C17307   8.686   4.278   9.713 -0.7184 -0.4129  0.3641
  851MOL0     O17308   8.789   4.363   9.674 -0.0653  0.2244  0.2064
  851MOL0     C17309   8.847   4.432   9.783 -0.2742  0.4400 -0.3713
  851MOL0     C17310   8.966   4.509   9.735  0.5490 -1.7476  0.3751
  851MOL0     C17311   9.053   4.544   9.859 -0.0114 -0.5010 -0.0331
  851MOL0     C17312   9.054   4.692   9.893  0.0663  0.5458  0.2097
  851MOL0     C17313   9.143   4.712  10.017  0.5813  0.1148  0.4632
  851MOL0     C17314   9.183   4.849  10.048  0.0169 -1.0410 -0.5116
  851MOL0     C17315   9.286   4.865  10.159  0.9039 -0.1181  1.2464
  851MOL0     C17316   9.238   4.782  10.281 -0.0003 -0.3951 -0.1517
  851MOL0     N17317   9.292   4.829  10.405 -0.3092  0.3883  1.0315
  851MOL0     C17318   9.256   4.936  10.475  0.1513 -0.8094  0.0459
  851MOL0     C17319   9.319   4.935  10.594  0.7829  0.1605 -0.1863
  851MOL0     C17320   9.298   5.050  10.690 -0.0502 -0.4593  0.6810
  851MOL0     C17321   9.425   5.079  10.768 -0.1369  1.1569  0.4807
  851MOL0     C17322   9.464   4.976  10.881 -1.2366 -0.5370  0.3708
  851MOL0     C17323   9.360   4.951  10.995 -0.5505 -0.1988  0.2529
  851MOL0     O17324   9.335   5.080  11.054 -0.0696 -0.4399  0.1796
  851MOL0     C17325   9.261   5.087  11.166  0.4204  0.2667 -1.0268
  851MOL0     C17326   9.141   5.018  11.163 -0.6510  0.6618 -0.2771
  851MOL0     C17327   9.045   5.030  11.270 -0.6538  0.0972  0.4602
  851MOL0     C17328   8.908   4.951  11.276 -0.4430  0.1702  0.3046
  851MOL0     C17329   9.079   5.137  11.366  0.9211 -0.7457  0.1847
  851MOL0     C17330   8.977   5.193  11.470 -0.5203  1.1563 -0.1766
  851MOL0     O17331   9.025   5.236  11.593 -0.2851  0.0231  0.3370
  851MOL0     C17332   8.948   5.304  11.677 -0.7373 -0.2295 -0.7764
  851MOL0     C17333   8.951   5.445  11.688  0.0769 -0.3368  0.3544
  851MOL0     C17334   8.882   5.522  11.787 -1.2871  0.3564  0.4392
  851MOL0     C17335   8.804   5.452  11.876  0.3696 -0.1126  0.4726
  851MOL0     O17336   8.726   5.532  11.957  0.2058 -0.0596 -0.1683
  851MOL0     C17337   8.701   5.480  12.087 -0.1363  0.5340 -0.4396
  851MOL0     C17338   8.551   5.462  12.119 -0.5999 -0.0216  1.0008
  851MOL0     C17339   8.533   5.410  12.269 -0.4055  0.7612 -0.5406
  851MOL0     C17340   8.387   5.363  12.294  0.5076 -0.8244 -0.1567
  851MOL0     C17341   8.379   5.204  12.261 -0.0832 -1.5936 -0.0791
  851MOL0     C17342   8.233   5.164  12.295 -0.7353 -0.2658  0.6868
  851MOL0     C17343   8.186   5.176  12.448  1.5251  0.4916 -0.1558
  851MOL0     C17344   8.071   5.268  12.486  0.0512  0.4647  0.3624
  851MOL0    Cl17345   7.915   5.246  12.392  0.2508 -0.2004 -0.2746
  851MOL0     C17346   8.793   5.309  11.859  0.5652 -0.8602  0.0661
  851MOL0     C17347   8.877   5.242  11.772 -0.3576 -0.4326  0.2877
  851MOL0     O17348   8.856   5.195  11.439  1.0099 -0.1608 -0.1938
  851MOL0     C17349   9.201   5.206  11.355 -0.7182  0.1806 -0.3702
  851MOL0     C17350   9.292   5.183  11.263 -0.3394  0.1846 -0.2821
  851MOL0     N17351   9.404   4.823  10.602 -0.4431 -0.8057  0.5008
  851MOL0     N17352   9.387   4.759  10.485  0.1430  0.2381  0.3808
  851MOL0     C17353   8.638   4.193   9.607  0.4787 -0.0163 -0.0015
  851MOL0     C17354   8.547   4.090   9.636  0.8275 -0.9851 -0.4555
  851MOL0     C17355   8.295   3.762   9.778 -0.2987  0.1026  0.0614
  851MOL0     C17356   8.311   3.731   9.913 -0.7497  0.1707  0.5531
  851MOL0     C17357   8.282   3.607   9.958 -0.2891  0.3423  0.3115
  851MOL0     C17358   8.243   3.505   9.872 -0.3315  0.7228  0.7471
  851MOL0     O17359   8.225   3.377   9.923 -0.7907 -0.4405  0.1945
  851MOL0     C17360   8.360   3.323   9.961 -0.4236 -0.8409  0.4407
  851MOL0     C17361   8.456   3.309   9.838 -0.2091  0.6248 -0.9182
  851MOL0     C17362   8.583   3.225   9.866 -0.8193 -0.6179  1.2838
  851MOL0     C17363   8.698   3.302   9.924 -0.4265  0.1209  0.4619
  851MOL0     C17364   8.677   3.321  10.068 -0.3766  0.4428  0.3627
  851MOL0     C17365   8.670   3.341  10.187 -0.4923  0.9823 -0.4469
  851MOL0     C17366   8.245   3.532   9.731  0.2446 -0.1431 -1.1175
  851MOL0     C17367   8.268   3.662   9.684  0.3946  0.9994 -0.1072
  851MOL0     C17368   8.272   3.677   9.534 -0.7379 -0.0100  0.2931
  851MOL0     H17369   8.512   4.140   9.959 -1.4671  0.8606 -0.1507
  851MOL0     H17370   8.656   4.329   9.921  0.7009  3.2161 -2.0404
  851MOL0     H17371   8.885   4.356   9.852  0.9291 -0.3631 -1.8475
  851MOL0     H17372   8.777   4.498   9.834 -2.6423 -0.6398 -2.0103
  851MOL0     H17373   9.030   4.451   9.667  1.9993  0.0543  0.1438
  851MOL0     H17374   8.924   4.600   9.692  1.8422 -0.8620  0.9573
  851MOL0     H17375   9.042   4.483   9.949  1.3514 -2.5335 -1.1517
  851MOL0     H17376   9.155   4.508   9.841  0.9996  2.3812 -0.7050
  851MOL0     H17377   9.091   4.743   9.804 -0.0805 -1.4207 -1.0444
  851MOL0     H17378   8.948   4.712   9.912 -0.7016 -2.2080 -0.6515
  851MOL0     H17379   9.235   4.658   9.996  0.9098 -0.0614  2.1863
  851MOL0     H17380   9.078   4.677  10.098 -1.6054  0.6378 -0.9740
  851MOL0     H17381   9.242   4.896   9.968  1.3977 -0.3487  0.8447
  851MOL0     H17382   9.092   4.905  10.073  0.9367 -0.3871  1.5888
  851MOL0     H17383   9.302   4.969  10.188  2.7545 -0.3128  1.0419
  851MOL0     H17384   9.386   4.831  10.130  0.3658  0.3980 -1.3935
  851MOL0     H17385   9.129   4.784  10.294 -0.0885  0.7275 -0.9611
  851MOL0     H17386   9.274   4.680  10.263  0.3668 -0.1416 -0.8695
  851MOL0     H17387   9.193   5.017  10.440  0.1126 -2.0710 -3.1154
  851MOL0     H17388   9.208   5.027  10.749  0.1038 -0.8254  0.7786
  851MOL0     H17389   9.267   5.143  10.642  0.8901  1.0454  2.8431
  851MOL0     H17390   9.505   5.059  10.696  0.8030 -1.4194  2.1390
  851MOL0     H17391   9.420   5.180  10.809 -0.5501  1.3113  0.0650
  851MOL0     H17392   9.505   4.888  10.831 -1.2899 -0.3229 -0.0499
  851MOL0     H17393   9.550   5.019  10.933 -1.9549  0.9424  0.3921
  851MOL0     H17394   9.268   4.907  10.957  0.4897 -0.3493 -2.2522
  851MOL0     H17395   9.416   4.877  11.054  0.4393  0.0933 -0.2854
  851MOL0     H17396   9.119   4.951  11.081 -0.8580 -0.7526  0.8909
  851MOL0     H17397   8.919   4.847  11.244  0.4810  0.5424 -0.6732
  851MOL0     H17398   8.833   4.997  11.212  0.3554  2.6059  1.0121
  851MOL0     H17399   8.874   4.974  11.377  2.5461  1.8323  1.0435
  851MOL0     H17400   9.016   5.509  11.628  3.2873 -2.5279  1.2585
  851MOL0     H17401   8.901   5.628  11.800 -0.0150  0.1409  0.4306
  851MOL0     H17402   8.759   5.391  12.111  0.3062  0.7716 -0.6030
  851MOL0     H17403   8.744   5.535  12.171 -2.2579 -2.6924  3.0513
  851MOL0     H17404   8.509   5.557  12.085  0.0335 -1.5500 -5.3970
  851MOL0     H17405   8.521   5.390  12.042  1.3236 -0.5221  0.6553
  851MOL0     H17406   8.552   5.490  12.341  0.1708 -0.8210  1.1236
  851MOL0     H17407   8.605   5.332  12.294 -1.3739  0.1743  0.5286
  851MOL0     H17408   8.322   5.430  12.237  1.8648 -1.4652 -2.6261
  851MOL0     H17409   8.366   5.382  12.399  0.0424  2.0981 -0.6987
  851MOL0     H17410   8.412   5.180  12.160 -0.9264 -4.6141  0.2692
  851MOL0     H17411   8.461   5.168  12.325  1.6383  0.1256 -1.2036
  851MOL0     H17412   8.220   5.061  12.259 -2.6506 -0.8462  2.8395
  851MOL0     H17413   8.165   5.215  12.227 -1.6934 -0.1716  1.6963
  851MOL0     H17414   8.263   5.208  12.518  1.4156  0.6341 -0.0997
  851MOL0     H17415   8.144   5.079  12.475  3.6151 -0.6182 -0.6890
  851MOL0     H17416   8.098   5.372  12.470 -0.0804  0.5914  0.9604
  851MOL0     H17417   8.053   5.251  12.592  0.1774  0.9767  0.4656
  851MOL0     H17418   8.741   5.256  11.938 -2.1716  1.1426 -0.2211
  851MOL0     H17419   8.873   5.133  11.767  1.1617 -0.6864  2.7939
  851MOL0     H17420   9.212   5.288  11.426  1.2608 -0.2112 -0.1547
  851MOL0     H17421   9.373   5.254  11.246 -3.4628  3.6635 -2.0088
  851MOL0     H17422   8.675   4.204   9.506  1.0759 -0.3096  0.1819
  851MOL0     H17423   8.521   4.020   9.557  0.0469 -1.9253  0.6067
  851MOL0     H17424   8.344   3.812   9.977  3.8489  0.5156 -1.8357
  851MOL0     H17425   8.303   3.577  10.060 -0.4800 -1.2282 -0.0775
  851MOL0     H17426   8.404   3.388  10.038  0.9738 -2.0681  0.7288
  851MOL0     H17427   8.350   3.225  10.010 -0.6280 -1.1082 -0.1363
  851MOL0     H17428   8.487   3.404   9.791 -1.5882  0.3977 -2.3620
  851MOL0     H17429   8.390   3.253   9.772 -0.1498  0.5700 -0.9301
  851MOL0     H17430   8.545   3.140   9.924 -2.6486 -0.1664  0.8178
  851MOL0     H17431   8.616   3.184   9.770  1.3039 -1.6018  2.3737
  851MOL0     H17432   8.721   3.395   9.871  1.2409 -0.6138 -0.1822
  851MOL0     H17433   8.787   3.238   9.932 -1.8369 -2.0552 -0.4334
  851MOL0     H17434   8.651   3.375  10.288  1.5970 -0.0831  0.3468
  851MOL0     H17435   8.214   3.465   9.651 -0.1723 -0.5838 -0.5930
  851MOL0     H17436   8.359   3.738   9.510  0.3644 -1.3590  0.7043
  851MOL0     H17437   8.306   3.583   9.490  1.1431  1.3857 -1.3862
  851MOL0     H17438   8.173   3.699   9.493 -1.0562  2.5538  2.1746
  852MOL0     O17439   4.412   1.129   6.297 -0.7517  0.1939  0.2303
  852MOL0     C17440   4.452   1.244   6.275  0.0521 -0.1202 -0.7161
  852MOL0     O17441   4.367   1.348   6.231 -0.0133  0.4760 -0.1109
  852MOL0     C17442   4.235   1.356   6.250 -0.5014 -0.0870  0.1797
  852MOL0     C17443   4.182   1.478   6.270 -0.2403 -0.4639  0.0290
  852MOL0     C17444   4.047   1.499   6.304 -0.7474 -0.5989 -0.1384
  852MOL0     C17445   3.960   1.392   6.308 -0.2761 -0.2919 -0.7195
  852MOL0     O17446   3.825   1.406   6.335  0.7626  0.2850  0.9585
  852MOL0     C17447   3.801   1.483   6.454 -0.2484  0.6958 -0.2217
  852MOL0     C17448   3.704   1.597   6.409  0.3823  0.3080  0.7789
  852MOL0     C17449   3.636   1.680   6.520  0.0435  0.1338  0.4815
  852MOL0     C17450   3.751   1.750   6.595  0.1191 -0.3681  0.3305
  852MOL0     C17451   3.829   1.857   6.519  0.4837 -0.4555 -0.4019
  852MOL0     C17452   3.753   1.990   6.504  0.3878 -0.8093  0.2872
  852MOL0     C17453   3.851   2.097   6.452 -0.1352  0.4021  0.8218
  852MOL0     C17454   3.769   2.228   6.462  0.2515  0.6668 -0.1266
  852MOL0     N17455   3.689   2.244   6.341 -0.3257 -0.2250  0.1025
  852MOL0     C17456   3.747   2.278   6.224  0.4859  0.6273  0.9172
  852MOL0     C17457   3.649   2.245   6.127 -0.1545  0.3193  0.5715
  852MOL0     C17458   3.649   2.253   5.980 -0.5950  0.0344  0.5969
  852MOL0     C17459   3.654   2.408   5.939 -0.1594 -0.3944  0.5992
  852MOL0     C17460   3.803   2.448   5.927  0.1386  0.3818  0.2261
  852MOL0     C17461   3.810   2.597   5.888  0.1657 -0.4603  1.1295
  852MOL0     O17462   3.731   2.629   5.769 -0.1813  0.5930 -0.2491
  852MOL0     C17463   3.630   2.718   5.789  0.0485 -0.5306 -0.2941
  852MOL0     C17464   3.659   2.862   5.773 -1.0366 -0.8356  0.9383
  852MOL0     C17465   3.566   2.964   5.782  0.3831 -0.0401  0.3873
  852MOL0     C17466   3.612   3.102   5.773 -0.6118 -0.3653  0.2949
  852MOL0     C17467   3.436   2.927   5.812  0.6781  0.4919  0.6559
  852MOL0     C17468   3.326   3.024   5.804  0.2549 -0.9483 -0.1621
  852MOL0     O17469   3.329   3.126   5.711  0.5560  0.0529 -0.0544
  852MOL0     C17470   3.215   3.187   5.696  1.7270 -0.0111 -0.0712
  852MOL0     C17471   3.190   3.299   5.779 -0.7040 -0.3064  0.0218
  852MOL0     C17472   3.069   3.372   5.760 -0.2435 -0.3136 -0.3555
  852MOL0     C17473   2.976   3.335   5.665  0.1662  0.3816 -0.4684
  852MOL0     O17474   2.849   3.392   5.652  0.2096 -0.7248  0.0400
  852MOL0     C17475   2.823   3.509   5.728 -0.5269 -0.6368 -0.7549
  852MOL0     C17476   2.686   3.568   5.696  0.7874 -0.6576 -1.2529
  852MOL0     C17477   2.581   3.470   5.731 -0.3162  0.0449 -0.7888
  852MOL0     C17478   2.484   3.419   5.619  0.4926 -0.8435  0.4797
  852MOL0     C17479   2.383   3.317   5.674 -0.9178 -0.7444  0.1449
  852MOL0     C17480   2.310   3.245   5.560 -0.0200  0.1977  1.3491
  852MOL0     C17481   2.255   3.338   5.460  0.4409 -0.0911  0.7475
  852MOL0     C17482   2.124   3.406   5.515 -0.2590 -0.7928  1.0789
  852MOL0    Cl17483   1.991   3.284   5.561 -0.1040 -0.2854  0.3313
  852MOL0     C17484   3.011   3.231   5.572 -0.0578 -0.2020 -0.3665
  852MOL0     C17485   3.130   3.155   5.588  0.8428  0.6517 -0.5715
  852MOL0     O17486   3.228   3.009   5.882 -1.4000  0.1812 -0.4393
  852MOL0     C17487   3.408   2.799   5.829  0.5611  0.5850 -0.2449
  852MOL0     C17488   3.497   2.688   5.810 -0.1644 -0.1450  0.2682
  852MOL0     N17489   3.537   2.210   6.194  0.5882 -0.1632 -0.3124
  852MOL0     N17490   3.563   2.194   6.321  0.7090 -0.9283  0.6378
  852MOL0     C17491   4.007   1.271   6.271 -0.8190 -0.0472  0.1590
  852MOL0     C17492   4.150   1.253   6.248  0.2995  0.3538  0.1057
  852MOL0     C17493   4.598   1.274   6.292  0.9190  0.3109  0.1682
  852MOL0     C17494   4.664   1.217   6.400  1.1738  0.4435 -0.0278
  852MOL0     C17495   4.796   1.244   6.426  0.1524 -0.3674 -0.2737
  852MOL0     C17496   4.869   1.320   6.340 -0.5864 -0.2985 -0.4039
  852MOL0     O17497   5.006   1.344   6.357  0.2954 -0.3254  0.4688
  852MOL0     C17498   5.087   1.226   6.348  0.0519 -0.5542 -0.0911
  852MOL0     C17499   5.229   1.255   6.404  0.6134  0.3124  0.6986
  852MOL0     C17500   5.230   1.313   6.547  0.6547 -0.2119  0.3476
  852MOL0     C17501   5.354   1.269   6.611  0.2232 -0.3005 -0.2418
  852MOL0     C17502   5.367   1.365   6.721  0.1334 -0.6022  0.3972
  852MOL0     C17503   5.385   1.444   6.813 -0.2512 -0.5027 -0.3610
  852MOL0     C17504   4.811   1.388   6.236  0.2393  0.3554 -0.0395
  852MOL0     C17505   4.672   1.370   6.214 -0.3516 -0.0201 -0.8514
  852MOL0     C17506   4.621   1.452   6.098  0.3705 -0.0122  0.6570
  852MOL0     H17507   4.252   1.561   6.265 -2.5464  1.5107 -1.3809
  852MOL0     H17508   4.012   1.598   6.332  1.6789  0.7582 -1.5647
  852MOL0     H17509   3.891   1.521   6.504 -0.5411  0.7089  0.3061
  852MOL0     H17510   3.762   1.416   6.532 -1.0367  0.7109 -0.5938
  852MOL0     H17511   3.756   1.666   6.341 -1.2205  1.8864  1.0627
  852MOL0     H17512   3.620   1.552   6.355 -0.0024  0.1419  1.5107
  852MOL0     H17513   3.570   1.753   6.471  1.9554  0.9963 -0.9557
  852MOL0     H17514   3.590   1.609   6.589 -0.1044 -1.4728 -1.2028
  852MOL0     H17515   3.703   1.799   6.681 -0.2086  0.2324 -0.1844
  852MOL0     H17516   3.826   1.675   6.622  0.9618 -1.0253 -3.2615
  852MOL0     H17517   3.864   1.819   6.422  1.9147  1.6638 -0.7874
  852MOL0     H17518   3.913   1.888   6.581 -0.9316  1.9442  0.4294
  852MOL0     H17519   3.679   1.969   6.427 -0.6786  1.0784  0.7100
  852MOL0     H17520   3.697   2.016   6.595 -2.5202 -1.3223 -1.2380
  852MOL0     H17521   3.873   2.083   6.346 -0.4294  3.2694  0.2806
  852MOL0     H17522   3.944   2.100   6.510  1.4679  3.2495 -1.5936
  852MOL0     H17523   3.697   2.230   6.545  0.3440 -2.2287  0.1255
  852MOL0     H17524   3.835   2.315   6.473  1.7440 -0.3943 -0.3263
  852MOL0     H17525   3.848   2.311   6.205  0.2311  0.0057 -1.8283
  852MOL0     H17526   3.558   2.205   5.943 -1.5672  1.0441  1.5642
  852MOL0     H17527   3.740   2.202   5.947  0.5075  2.2251  0.0277
  852MOL0     H17528   3.603   2.417   5.842 -0.9816  2.5870  1.2350
  852MOL0     H17529   3.610   2.476   6.012  2.8006  1.3136  0.9359
  852MOL0     H17530   3.869   2.442   6.014 -1.5391 -0.1511  1.5183
  852MOL0     H17531   3.860   2.393   5.852 -0.2684 -0.4209  0.4903
  852MOL0     H17532   3.783   2.660   5.973 -0.7753 -0.6893  1.0136
  852MOL0     H17533   3.909   2.638   5.865  1.4838 -2.8920  2.0806
  852MOL0     H17534   3.764   2.890   5.765 -0.7772 -1.4896  1.8422
  852MOL0     H17535   3.541   3.157   5.835 -0.2689  2.1023 -1.3911
  852MOL0     H17536   3.605   3.122   5.666  0.3616 -2.6521 -0.2815
  852MOL0     H17537   3.714   3.128   5.804 -1.2182  1.4513  0.8676
  852MOL0     H17538   3.263   3.336   5.850 -0.1418 -4.1906  1.7061
  852MOL0     H17539   3.057   3.457   5.826 -1.7402  0.9684 -2.1359
  852MOL0     H17540   2.833   3.472   5.830  3.8988 -0.6590 -1.0074
  852MOL0     H17541   2.896   3.589   5.711 -1.1859  0.1286 -0.0974
  852MOL0     H17542   2.673   3.661   5.752 -1.5787 -0.7749 -1.5051
  852MOL0     H17543   2.675   3.597   5.591  2.7239 -2.8552 -2.1534
  852MOL0     H17544   2.521   3.520   5.808  1.0556  2.1878 -1.0305
  852MOL0     H17545   2.622   3.377   5.770  0.9108  0.7720 -0.2918
  852MOL0     H17546   2.540   3.376   5.535  2.4391  1.1440  0.6792
  852MOL0     H17547   2.427   3.505   5.583  0.6966 -0.7032  0.4922
  852MOL0     H17548   2.452   3.252   5.729  0.1167  1.0836  1.1055
  852MOL0     H17549   2.319   3.351   5.756 -2.5714  1.0108 -1.7475
  852MOL0     H17550   2.231   3.180   5.598 -0.7578  0.0245 -0.3933
  852MOL0     H17551   2.376   3.177   5.505 -2.0913 -2.0057  1.4122
  852MOL0     H17552   2.223   3.279   5.373 -1.9698  0.4750  1.1845
  852MOL0     H17553   2.322   3.410   5.413  1.8306 -3.1218 -2.3771
  852MOL0     H17554   2.076   3.471   5.440 -2.3343 -3.7236 -0.3239
  852MOL0     H17555   2.148   3.482   5.590 -3.1559  1.4009 -0.0197
  852MOL0     H17556   2.937   3.218   5.493  0.8077  2.0012 -1.6304
  852MOL0     H17557   3.154   3.071   5.524 -2.6523  0.4349 -1.7994
  852MOL0     H17558   3.307   2.763   5.847  0.9799 -2.7441 -3.3554
  852MOL0     H17559   3.453   2.588   5.810  1.0620 -0.7149 -1.2224
  852MOL0     H17560   3.929   1.196   6.263 -0.1914 -0.6668 -0.1651
  852MOL0     H17561   4.188   1.155   6.219  0.4141  1.4063 -3.8254
  852MOL0     H17562   4.605   1.153   6.466  0.2981  2.5891  1.3914
  852MOL0     H17563   4.838   1.197   6.514 -1.5705 -2.0354 -0.2784
  852MOL0     H17564   5.043   1.143   6.404 -3.1969  1.8236  1.2170
  852MOL0     H17565   5.091   1.185   6.247 -0.7186 -2.9512  0.7954
  852MOL0     H17566   5.278   1.317   6.328 -3.8280  1.9198 -1.1735
  852MOL0     H17567   5.278   1.158   6.407  1.4965  0.5516 -2.5474
  852MOL0     H17568   5.223   1.422   6.542 -1.8903 -0.3805 -2.5204
  852MOL0     H17569   5.140   1.268   6.589 -0.1087  0.7320 -0.2518
  852MOL0     H17570   5.441   1.284   6.547 -0.0939  1.1259 -0.3781
  852MOL0     H17571   5.350   1.171   6.659 -1.8919  0.1860  0.7116
  852MOL0     H17572   5.399   1.506   6.900 -1.8431 -0.6736  0.0436
  852MOL0     H17573   4.858   1.455   6.165  0.9499 -0.3582 -0.2639
  852MOL0     H17574   4.543   1.402   6.040  1.6749 -0.2484 -0.9730
  852MOL0     H17575   4.577   1.551   6.116 -1.6782 -0.7624 -0.0245
  852MOL0     H17576   4.703   1.475   6.028  1.0627  0.9172  1.7369
  853MOL0     O17577   6.175  10.405   5.444 -0.9350 -0.6768  0.3286
  853MOL0     C17578   6.123  10.511   5.449 -0.0936 -0.3599 -0.1009
  853MOL0     O17579   6.061  10.554   5.573 -0.1082 -0.0207  0.9226
  853MOL0     C17580   6.109  10.493   5.690  0.3520 -0.5379 -0.6060
  853MOL0     C17581   6.053  10.557   5.805  0.2123 -0.8725  0.0466
  853MOL0     C17582   6.096  10.526   5.933  0.1771 -0.1313 -0.3227
  853MOL0     C17583   6.192  10.428   5.959 -0.4371  0.0932  0.3555
  853MOL0     O17584   6.246  10.388   6.078 -0.1310  0.2867 -0.3200
  853MOL0     C17585   6.198  10.457   6.204  0.4634  0.8183  1.3081
  853MOL0     C17586   6.278  10.402   6.317  0.1246 -0.9531 -0.6141
  853MOL0     C17587   6.265  10.256   6.347  0.0305  0.6008  0.7890
  853MOL0     C17588   6.363  10.215   6.456 -0.5555  0.7672 -0.8125
  853MOL0     C17589   6.332  10.067   6.499  0.1596 -0.0486 -1.0376
  853MOL0     C17590   6.411   9.964   6.420  1.1695  0.8979 -0.4567
  853MOL0     C17591   6.372   9.820   6.462 -0.2569 -0.5018 -0.5791
  853MOL0     C17592   6.444   9.769   6.590 -0.5357  0.3262  0.8124
  853MOL0     N17593   6.375   9.648   6.632 -0.1139  0.7993 -0.3036
  853MOL0     C17594   6.374   9.525   6.568 -0.2306 -0.1828  0.8444
  853MOL0     C17595   6.304   9.441   6.647  1.0319  0.0280 -0.0461
  853MOL0     C17596   6.294   9.288   6.634  0.7925  1.3161  0.8197
  853MOL0     C17597   6.224   9.252   6.497  0.2827 -0.3625  0.2278
  853MOL0     C17598   6.211   9.100   6.465 -0.2802 -0.1238  0.0370
  853MOL0     C17599   6.115   9.030   6.563 -0.5488 -0.0249  1.5944
  853MOL0     O17600   5.991   9.093   6.546 -0.2901 -0.4175 -0.5087
  853MOL0     C17601   5.898   9.093   6.651  0.7091  0.1551  0.6105
  853MOL0     C17602   5.889   8.982   6.737 -0.3692 -0.0195 -0.4564
  853MOL0     C17603   5.800   8.972   6.841 -0.5087 -0.9506  0.3151
  853MOL0     C17604   5.781   8.835   6.912 -0.2919 -0.3897  0.5234
  853MOL0     C17605   5.714   9.079   6.866 -0.1249  0.4543  0.3800
  853MOL0     C17606   5.602   9.075   6.961 -0.0819  0.7138 -0.1525
  853MOL0     O17607   5.491   9.131   6.918 -0.4390  0.0674 -0.4632
  853MOL0     C17608   5.381   9.143   7.001 -0.1699 -1.2617  0.4057
  853MOL0     C17609   5.317   9.270   7.006  0.5751  0.3258 -0.3718
  853MOL0     C17610   5.189   9.284   7.064 -0.4147  0.4578 -0.9618
  853MOL0     C17611   5.124   9.180   7.124 -0.0350  0.8566  0.4366
  853MOL0     O17612   4.997   9.201   7.165  0.3385  0.2965  0.2406
  853MOL0     C17613   4.958   9.112   7.271  0.4421 -0.0027  1.0191
  853MOL0     C17614   4.841   9.171   7.359 -0.0836 -0.8439  0.5292
  853MOL0     C17615   4.704   9.168   7.289 -0.7844 -1.0552  0.9313
  853MOL0     C17616   4.661   9.025   7.268  0.2955 -0.1023  0.7446
  853MOL0     C17617   4.515   9.011   7.226 -0.2886 -0.5269  1.0212
  853MOL0     C17618   4.455   8.877   7.249  0.0349  0.0166  0.4195
  853MOL0     C17619   4.302   8.873   7.217 -0.2884 -0.5978 -0.1049
  853MOL0     C17620   4.246   8.745   7.271 -0.5025 -1.0281  0.4492
  853MOL0    Cl17621   4.087   8.729   7.206 -0.0411 -0.2803  0.1661
  853MOL0     C17622   5.191   9.062   7.119  0.0274  1.1042  0.0797
  853MOL0     C17623   5.322   9.040   7.069 -0.1123 -0.5158 -0.3187
  853MOL0     O17624   5.628   9.048   7.082 -0.3013  0.3185  0.4105
  853MOL0     C17625   5.712   9.192   6.784 -0.6056  0.7886 -0.0417
  853MOL0     C17626   5.809   9.195   6.676 -0.2819  1.1787 -0.6106
  853MOL0     N17627   6.242   9.520   6.746  0.4355  0.3718  0.2703
  853MOL0     N17628   6.281   9.641   6.733  0.0389 -0.0135 -0.0565
  853MOL0     C17629   6.247  10.353   5.852  0.0853 -0.6744 -0.2999
  853MOL0     C17630   6.211  10.391   5.716  1.4744 -0.3517  0.0272
  853MOL0     C17631   6.106  10.588   5.320 -1.4770 -0.7386 -0.1556
  853MOL0     C17632   6.202  10.572   5.211 -0.9340  0.1684  0.0088
  853MOL0     C17633   6.196  10.655   5.095 -0.2777  0.3616  0.4970
  853MOL0     C17634   6.102  10.748   5.078  0.7069 -0.5251  0.0247
  853MOL0     O17635   6.103  10.823   4.968  0.3817 -0.1143  0.7027
  853MOL0     C17636   6.011  10.923   4.953 -0.1008  0.6445  0.0612
  853MOL0     C17637   6.010  11.004   4.832  0.0077  0.1971  0.4282
  853MOL0     C17638   5.926  10.944   4.719 -0.5613  0.8196 -0.5412
  853MOL0     C17639   5.960  11.018   4.588 -0.0602  0.1308  0.1157
  853MOL0     C17640   5.877  10.970   4.479 -0.3986  0.0417 -0.7213
  853MOL0     C17641   5.810  10.945   4.386 -1.2374  0.5477  0.4245
  853MOL0     C17642   6.013  10.761   5.186  0.0128 -0.2177  0.2450
  853MOL0     C17643   6.004  10.684   5.306 -0.2541  0.0217 -0.1568
  853MOL0     C17644   5.908  10.732   5.418 -0.5384 -0.8697 -0.1701
  853MOL0     H17645   5.992  10.646   5.801 -0.4179 -1.2976  0.0030
  853MOL0     H17646   6.051  10.578   6.016  1.4936  0.7505 -0.1395
  853MOL0     H17647   6.094  10.425   6.216  0.4083  0.5469  0.2168
  853MOL0     H17648   6.212  10.563   6.182 -0.0547  1.0007  1.8210
  853MOL0     H17649   6.384  10.419   6.297 -0.3648  0.4876 -2.2395
  853MOL0     H17650   6.257  10.470   6.401 -0.6834  0.8161 -2.1938
  853MOL0     H17651   6.164  10.226   6.377  0.1678 -2.3510 -1.2896
  853MOL0     H17652   6.292  10.200   6.257  1.3615  1.4083  0.6669
  853MOL0     H17653   6.468  10.220   6.424  0.0328  0.2826  0.8994
  853MOL0     H17654   6.356  10.277   6.546 -1.4087  3.0971 -2.3993
  853MOL0     H17655   6.224  10.054   6.491  0.1496  0.2909 -1.5271
  853MOL0     H17656   6.356  10.057   6.605  2.2861 -2.0648 -1.6025
  853MOL0     H17657   6.395   9.970   6.312  1.2630 -3.3825 -0.9068
  853MOL0     H17658   6.518   9.970   6.441  0.9195 -1.0688  1.8328
  853MOL0     H17659   6.400   9.757   6.378  1.9712  2.0299 -1.8697
  853MOL0     H17660   6.265   9.799   6.473 -0.2440 -1.7246 -2.4139
  853MOL0     H17661   6.551   9.751   6.575 -0.5622  0.5157  0.3490
  853MOL0     H17662   6.440   9.841   6.672 -0.3407 -1.3831  2.3877
  853MOL0     H17663   6.427   9.506   6.476 -1.4744  0.4327 -0.0314
  853MOL0     H17664   6.226   9.252   6.712  0.3051  0.4162 -0.0028
  853MOL0     H17665   6.392   9.241   6.632  0.6908  1.1017 -1.2073
  853MOL0     H17666   6.123   9.294   6.491  0.1825 -0.7278 -1.0671
  853MOL0     H17667   6.282   9.290   6.413  0.1246 -1.0005 -0.1766
  853MOL0     H17668   6.166   9.093   6.365 -0.7927  2.4736  0.0163
  853MOL0     H17669   6.306   9.046   6.472 -0.6270 -0.7878 -0.2370
  853MOL0     H17670   6.093   8.928   6.530 -0.4956  0.8019 -1.3452
  853MOL0     H17671   6.153   9.029   6.665  0.9574  0.1133  1.0649
  853MOL0     H17672   5.951   8.897   6.712  0.9738  0.7494  0.1237
  853MOL0     H17673   5.834   8.843   7.007  2.6073 -0.5515 -0.9723
  853MOL0     H17674   5.832   8.751   6.864  4.1303  0.8048  2.6671
  853MOL0     H17675   5.675   8.809   6.925 -1.5791  3.8709  0.3380
  853MOL0     H17676   5.361   9.359   6.961  2.9344 -0.0699  0.9825
  853MOL0     H17677   5.134   9.378   7.062  1.7095  1.8273  0.5863
  853MOL0     H17678   4.950   9.008   7.236  2.4081 -0.3856  1.5635
  853MOL0     H17679   5.041   9.119   7.341  2.3446  3.6715 -1.3002
  853MOL0     H17680   4.839   9.115   7.453 -0.8581 -0.1280  0.9575
  853MOL0     H17681   4.869   9.275   7.378  0.5815 -0.9859  0.3450
  853MOL0     H17682   4.709   9.225   7.196 -0.0457 -1.6474  0.5889
  853MOL0     H17683   4.635   9.222   7.354 -0.0995 -0.1177  0.9075
  853MOL0     H17684   4.658   8.982   7.369  0.3799  1.5785  1.4907
  853MOL0     H17685   4.716   8.966   7.194  1.1645  1.7358 -0.1293
  853MOL0     H17686   4.457   9.072   7.296 -1.2319 -1.2221  0.8652
  853MOL0     H17687   4.503   9.040   7.122  0.5359  0.1425  1.1040
  853MOL0     H17688   4.477   8.856   7.354 -1.3653  0.9222  0.9314
  853MOL0     H17689   4.497   8.801   7.184 -1.2114 -1.2037  0.9771
  853MOL0     H17690   4.296   8.863   7.108  1.3185  1.0119 -0.3954
  853MOL0     H17691   4.249   8.966   7.243  2.6805  1.4991 -1.0120
  853MOL0     H17692   4.234   8.746   7.379  0.1861 -0.3409  0.5254
  853MOL0     H17693   4.310   8.665   7.232  1.8179 -0.0648  2.0532
  853MOL0     H17694   5.147   8.975   7.166  0.9801  1.2799  1.3503
  853MOL0     H17695   5.359   8.938   7.075 -0.6512 -0.8992 -2.5344
  853MOL0     H17696   5.636   9.269   6.794 -0.4126  0.9062  0.5211
  853MOL0     H17697   5.825   9.279   6.610  1.7374 -0.8390 -2.8746
  853MOL0     H17698   6.320  10.275   5.869  1.1877  0.2739 -0.5402
  853MOL0     H17699   6.259  10.333   5.637  1.4837  0.6673 -0.7294
  853MOL0     H17700   6.285  10.502   5.219  0.5173  1.6105 -1.5157
  853MOL0     H17701   6.273  10.639   5.020  2.0675  2.4161  2.3149
  853MOL0     H17702   5.910  10.883   4.956  0.5196 -1.1070 -1.0590
  853MOL0     H17703   6.038  10.995   5.031 -2.6182  1.4216  0.3110
  853MOL0     H17704   6.109  11.023   4.792  0.4683  0.2771  1.5740
  853MOL0     H17705   5.960  11.097   4.861 -1.5532 -0.3568 -0.3463
  853MOL0     H17706   5.947  10.838   4.709  3.5658  1.4586 -0.3190
  853MOL0     H17707   5.819  10.958   4.741 -0.9189  0.4250 -1.9221
  853MOL0     H17708   6.065  11.004   4.564  0.5228 -1.6767  3.1297
  853MOL0     H17709   5.945  11.126   4.589  2.9917  0.6576 -0.5315
  853MOL0     H17710   5.743  10.906   4.311 -2.8224  2.9636  0.4796
  853MOL0     H17711   5.947  10.847   5.174  0.7238  0.4329  0.9221
  853MOL0     H17712   5.870  10.656   5.486 -3.8464 -1.6194 -2.5763
  853MOL0     H17713   5.963  10.806   5.477 -0.6696 -2.9225  2.7355
  853MOL0     H17714   5.838  10.803   5.371 -1.1849  0.6571  2.8273
  854MOL0     O17715   6.874  11.043   9.899  0.2759 -0.4802 -0.1008
  854MOL0     C17716   6.832  11.151   9.936  0.2283 -0.3897 -0.0736
  854MOL0     O17717   6.855  11.201  10.055  0.8698 -0.9945  0.2683
  854MOL0     C17718   6.944  11.139  10.143 -0.3811 -1.2729 -0.0147
  854MOL0     C17719   7.079  11.132  10.110 -0.0288  0.5039  0.5299
  854MOL0     C17720   7.174  11.076  10.196  0.2031  0.1100 -0.1904
  854MOL0     C17721   7.141  11.050  10.328  0.5021 -0.3422 -1.1746
  854MOL0     O17722   7.244  11.002  10.407 -0.4623 -0.5333 -0.1935
  854MOL0     C17723   7.211  10.974  10.546 -0.0820  0.2536 -1.2359
  854MOL0     C17724   7.166  10.831  10.554  0.3085  0.0067 -0.3234
  854MOL0     C17725   7.194  10.768  10.691  0.9699  1.2273 -0.1288
  854MOL0     C17726   7.060  10.710  10.746 -0.0753  0.6348 -0.4781
  854MOL0     C17727   7.090  10.636  10.893 -0.5324  0.3452  0.7002
  854MOL0     C17728   6.974  10.600  10.966  0.5932  0.5931 -0.3513
  854MOL0     C17729   7.014  10.508  11.079  0.8050  0.5659 -0.3695
  854MOL0     C17730   6.940  10.531  11.205 -0.3296  0.0620  0.5355
  854MOL0     N17731   6.796  10.492  11.205 -0.5474  0.4555  0.9167
  854MOL0     C17732   6.752  10.364  11.213 -0.4007 -0.4605 -0.4489
  854MOL0     C17733   6.624  10.382  11.253  0.1191 -0.1403 -0.4934
  854MOL0     C17734   6.515  10.279  11.278 -0.3917 -1.7023 -1.0416
  854MOL0     C17735   6.559  10.198  11.404 -0.5967 -0.4713  0.7041
  854MOL0     C17736   6.455  10.085  11.425 -0.3421 -0.7527  0.5879
  854MOL0     C17737   6.512   9.994  11.536  0.3406 -0.2741  0.0687
  854MOL0     O17738   6.424   9.877  11.549 -0.6697  0.3723  0.8246
  854MOL0     C17739   6.402   9.789  11.446 -0.5856  1.5088  0.1222
  854MOL0     C17740   6.280   9.727  11.449 -0.4076  0.3645 -0.3694
  854MOL0     C17741   6.249   9.616  11.371  0.0076 -0.8684 -0.0719
  854MOL0     C17742   6.116   9.557  11.415  0.5142  0.6487 -0.6719
  854MOL0     C17743   6.343   9.571  11.274 -0.3554  0.1742 -0.2268
  854MOL0     C17744   6.326   9.449  11.201  0.5351  0.5492 -0.1876
  854MOL0     O17745   6.383   9.433  11.083 -0.4285  0.5607  0.9449
  854MOL0     C17746   6.370   9.305  11.029  0.5171  0.8013 -0.5073
  854MOL0     C17747   6.421   9.194  11.105 -0.2210  1.1180 -0.0995
  854MOL0     C17748   6.396   9.066  11.064  0.1125 -0.0508 -0.7668
  854MOL0     C17749   6.311   9.041  10.957  0.7266 -1.3836 -0.6683
  854MOL0     O17750   6.265   8.915  10.929  0.0937  0.6575  0.6590
  854MOL0     C17751   6.274   8.805  11.021 -0.5154  0.1789  0.4878
  854MOL0     C17752   6.219   8.670  10.967 -0.8609 -0.7696 -0.2109
  854MOL0     C17753   6.329   8.593  10.893  0.0201  0.4261  1.6368
  854MOL0     C17754   6.278   8.452  10.894 -0.3492  0.1173  0.0955
  854MOL0     C17755   6.374   8.351  10.820  1.5605  0.4374 -0.8374
  854MOL0     C17756   6.379   8.354  10.664  0.4845  0.4932  0.0462
  854MOL0     C17757   6.485   8.248  10.627  0.8595  0.6649  0.0655
  854MOL0     C17758   6.518   8.261  10.477 -0.5133  0.4292  0.1076
  854MOL0    Cl17759   6.615   8.120  10.412  0.0037 -0.1169  0.0942
  854MOL0     C17760   6.270   9.149  10.882  0.4798 -0.5855  0.2006
  854MOL0     C17761   6.292   9.283  10.919 -0.4169  0.4300  1.2347
  854MOL0     O17762   6.256   9.368  11.265 -0.4017  0.4151 -0.5872
  854MOL0     C17763   6.464   9.645  11.271 -0.2954  0.9549  0.2061
  854MOL0     C17764   6.500   9.744  11.362  0.2953 -0.2369  0.4632
  854MOL0     N17765   6.592  10.511  11.239 -0.3154  0.2168  0.2321
  854MOL0     N17766   6.693  10.582  11.221  0.1045  0.1162 -1.0184
  854MOL0     C17767   7.006  11.050  10.361 -0.1259 -0.1904 -0.4786
  854MOL0     C17768   6.910  11.105  10.275  0.0935  0.0189  0.1269
  854MOL0     C17769   6.743  11.222   9.845  0.5680  0.4894 -0.0288
  854MOL0     C17770   6.669  11.330   9.884 -0.6550 -0.3474  0.0533
  854MOL0     C17771   6.598  11.422   9.803  0.3508  0.3516  0.6842
  854MOL0     C17772   6.591  11.393   9.665 -0.5004  0.3546 -0.3633
  854MOL0     O17773   6.495  11.468   9.597  1.1002  0.2410 -0.4361
  854MOL0     C17774   6.451  11.403   9.473 -0.2608 -0.4196  0.2841
  854MOL0     C17775   6.315  11.470   9.438 -0.1394 -0.5027 -0.6414
  854MOL0     C17776   6.338  11.625   9.393  0.5209  0.3964  0.1468
  854MOL0     C17777   6.389  11.630   9.252  0.3685  0.6207 -0.9300
  854MOL0     C17778   6.381  11.751   9.180 -0.3337 -0.3105 -0.3567
  854MOL0     C17779   6.367  11.860   9.131  0.3657 -0.6047  0.3444
  854MOL0     C17780   6.667  11.277   9.619 -0.3601 -0.7441 -0.1802
  854MOL0     C17781   6.731  11.188   9.703 -0.1766 -0.5603  0.0029
  854MOL0     C17782   6.779  11.060   9.636  0.1996  0.2047 -1.3032
  854MOL0     H17783   7.109  11.154  10.009  0.4827 -3.1285 -0.2604
  854MOL0     H17784   7.274  11.073  10.154 -0.6169 -1.6200 -2.2252
  854MOL0     H17785   7.133  11.041  10.584 -0.8848 -1.7208  0.8410
  854MOL0     H17786   7.300  10.978  10.610  0.1247 -2.9544 -1.1452
  854MOL0     H17787   7.059  10.834  10.530  0.4651  2.5737 -0.9061
  854MOL0     H17788   7.213  10.773  10.474 -0.7670 -0.3269 -0.7377
  854MOL0     H17789   7.277  10.697  10.691  1.0660  1.3243  1.1216
  854MOL0     H17790   7.232  10.838  10.766 -0.6044 -0.0764  2.0234
  854MOL0     H17791   6.991  10.795  10.748 -0.2642  0.6246 -3.1804
  854MOL0     H17792   7.013  10.632  10.686  2.2026  0.1168 -1.6742
  854MOL0     H17793   7.160  10.695  10.953  1.6979 -2.4878  1.1028
  854MOL0     H17794   7.146  10.548  10.860  0.6358  1.1270  0.5461
  854MOL0     H17795   6.925  10.690  11.004 -1.0974 -0.2271 -0.5095
  854MOL0     H17796   6.902  10.553  10.899 -2.1169  1.0719  2.0144
  854MOL0     H17797   7.120  10.521  11.103  0.4989  1.2317  0.7016
  854MOL0     H17798   7.000  10.405  11.046  3.1839  0.4352 -1.1467
  854MOL0     H17799   6.986  10.468  11.281 -1.7261 -3.5968 -1.4140
  854MOL0     H17800   6.943  10.640  11.221  0.1572  0.2875 -0.9249
  854MOL0     H17801   6.811  10.273  11.210  1.6920  0.7661  1.2031
  854MOL0     H17802   6.503  10.219  11.187 -1.6722 -0.4304 -1.7474
  854MOL0     H17803   6.419  10.327  11.295 -0.4578 -2.2072  0.0938
  854MOL0     H17804   6.654  10.147  11.384 -0.3408 -2.2467  5.2470
  854MOL0     H17805   6.574  10.272  11.484 -0.5576  1.4776 -1.0203
  854MOL0     H17806   6.359  10.131  11.452 -1.7888 -1.6594 -2.4579
  854MOL0     H17807   6.446  10.031  11.330 -0.2511  1.7069 -0.9171
  854MOL0     H17808   6.614   9.957  11.521 -1.1534 -3.2153 -6.0044
  854MOL0     H17809   6.501  10.037  11.636 -2.4329  1.2658 -0.7954
  854MOL0     H17810   6.203   9.768  11.513 -0.0326  0.5105 -0.0139
  854MOL0     H17811   6.064   9.617  11.490 -1.1748 -0.2380 -1.0776
  854MOL0     H17812   6.134   9.459  11.460  1.3779  1.1841  0.1822
  854MOL0     H17813   6.047   9.539  11.332 -1.1959 -2.8638  1.3006
  854MOL0     H17814   6.499   9.206  11.180 -0.2909  2.1438 -0.1842
  854MOL0     H17815   6.444   8.998  11.132  2.9566  2.3386 -0.1712
  854MOL0     H17816   6.376   8.798  11.060 -0.1908 -0.2783 -0.4334
  854MOL0     H17817   6.212   8.832  11.107  2.0579  0.6809  2.2884
  854MOL0     H17818   6.181   8.618  11.054 -1.0829  0.0118  0.1717
  854MOL0     H17819   6.139   8.689  10.895  1.2461  0.0540 -2.4938
  854MOL0     H17820   6.424   8.607  10.945  2.1829  0.7596 -2.0310
  854MOL0     H17821   6.360   8.638  10.798  2.6730 -0.7100  1.8803
  854MOL0     H17822   6.181   8.451  10.844 -0.0170  0.3786 -0.5646
  854MOL0     H17823   6.269   8.425  11.000 -2.4690  0.6746  0.1068
  854MOL0     H17824   6.476   8.369  10.855 -0.3104  2.1747  4.7603
  854MOL0     H17825   6.351   8.250  10.855  6.5198 -0.1911  1.4248
  854MOL0     H17826   6.415   8.454  10.638  0.6169  0.8161  1.3776
  854MOL0     H17827   6.284   8.346  10.610 -0.5643 -0.6346  1.9632
  854MOL0     H17828   6.429   8.154  10.637  1.5202  0.3618  1.0022
  854MOL0     H17829   6.572   8.247  10.693 -0.1905  0.6036  1.4898
  854MOL0     H17830   6.587   8.345  10.471 -0.2905  0.6526  3.5325
  854MOL0     H17831   6.429   8.271  10.415 -0.2607  1.7389 -0.0622
  854MOL0     H17832   6.206   9.121  10.799  1.4941 -1.2088 -0.3818
  854MOL0     H17833   6.268   9.356  10.842  1.3667 -1.6680 -1.5133
  854MOL0     H17834   6.542   9.602  11.209 -1.0597 -2.0517  1.1821
  854MOL0     H17835   6.602   9.779  11.374 -0.2422  0.7018  2.8790
  854MOL0     H17836   6.968  11.029  10.461  2.5110 -0.7278  0.4917
  854MOL0     H17837   6.813  11.124  10.320 -0.3486 -2.7054  0.5168
  854MOL0     H17838   6.672  11.347   9.992  0.5258  3.8157 -0.4701
  854MOL0     H17839   6.537  11.505   9.835 -0.6762  1.3559 -3.2982
  854MOL0     H17840   6.526  11.424   9.396 -0.4447 -0.5715  0.0651
  854MOL0     H17841   6.442  11.296   9.498  5.0407 -0.6162  2.8661
  854MOL0     H17842   6.269  11.468   9.537  1.7891 -0.7856  0.3080
  854MOL0     H17843   6.255  11.420   9.361 -1.7455 -1.3564  1.0945
  854MOL0     H17844   6.242  11.677   9.399 -0.5361 -1.2454 -1.3487
  854MOL0     H17845   6.399  11.678   9.467 -1.1429  1.7594  0.5968
  854MOL0     H17846   6.337  11.564   9.181  0.6889  2.6903 -3.1906
  854MOL0     H17847   6.494  11.599   9.255  0.3291  0.5478  0.1702
  854MOL0     H17848   6.372  11.960   9.095  1.6023  0.0746  2.2450
  854MOL0     H17849   6.670  11.259   9.511 -1.5539  0.0784 -0.3648
  854MOL0     H17850   6.745  11.037   9.534 -2.6206  1.6028 -0.7687
  854MOL0     H17851   6.884  11.048   9.663  0.2522  3.1478  0.2079
  854MOL0     H17852   6.720  10.983   9.686  0.4757  0.8088 -0.0213
  855MOL0     O17853   8.936  10.716   0.012 -0.2232  0.1653  0.4754
  855MOL0     C17854   8.928  10.728   0.132  1.0655  0.7054  0.2362
  855MOL0     O17855   8.893  10.841   0.206 -0.3023  0.6800  0.4635
  855MOL0     C17856   8.841  10.946   0.137  0.6718 -0.6781  0.1797
  855MOL0     C17857   8.706  10.984   0.154 -0.2828  0.8122  0.4906
  855MOL0     C17858   8.643  11.094   0.096  0.2514  0.0072  0.4832
  855MOL0     C17859   8.725  11.167   0.009  0.2088 -0.0838 -0.1758
  855MOL0     O17860   8.677  11.275  -0.069 -0.3805 -0.6884  0.3304
  855MOL0     C17861   8.548  11.331  -0.040 -0.1640  0.0805  0.4536
  855MOL0     C17862   8.524  11.449  -0.135  0.0358 -1.1230 -0.1834
  855MOL0     C17863   8.381  11.492  -0.164  0.5780 -0.0394  0.0018
  855MOL0     C17864   8.385  11.587  -0.283 -0.1412 -0.8237 -0.0751
  855MOL0     C17865   8.244  11.634  -0.314  0.2949  0.9185  0.2665
  855MOL0     C17866   8.214  11.664  -0.459  0.0596  0.4751  0.8111
  855MOL0     C17867   8.276  11.785  -0.504  0.2519 -0.9750 -0.1540
  855MOL0     C17868   8.238  11.813  -0.647  0.8346 -0.0481 -0.8954
  855MOL0     N17869   8.327  11.911  -0.703 -0.0204 -0.0418  1.0779
  855MOL0     C17870   8.463  11.881  -0.711 -0.8773 -0.2828 -0.3437
  855MOL0     C17871   8.518  11.971  -0.798  0.3797  0.0250  1.1795
  855MOL0     C17872   8.670  11.970  -0.832  0.0330 -0.8278  0.3268
  855MOL0     C17873   8.743  12.098  -0.778 -0.5123  0.2959 -0.5436
  855MOL0     C17874   8.900  12.087  -0.792 -0.2043 -0.7337 -0.0835
  855MOL0     C17875   8.964  11.988  -0.695  0.4904  0.3154  0.2623
  855MOL0     O17876   8.951  11.850  -0.733 -0.5393  0.5642 -0.0771
  855MOL0     C17877   9.046  11.763  -0.685  0.6888 -0.0771  0.5644
  855MOL0     C17878   9.118  11.764  -0.565 -0.2089 -0.3377  0.0942
  855MOL0     C17879   9.207  11.662  -0.523 -1.3605 -0.5134  0.2762
  855MOL0     C17880   9.280  11.677  -0.381  0.3552 -0.3224  0.7779
  855MOL0     C17881   9.211  11.543  -0.602  0.4265 -0.1786  0.3753
  855MOL0     C17882   9.309  11.428  -0.571  0.4161 -0.1436 -0.9575
  855MOL0     O17883   9.297  11.331  -0.668  0.5457 -0.0465 -0.4529
  855MOL0     C17884   9.373  11.221  -0.647 -0.4047 -0.4178  0.5745
  855MOL0     C17885   9.485  11.210  -0.724 -0.3897  1.0839  0.6794
  855MOL0     C17886   9.555  11.090  -0.727  0.4598 -0.3102 -0.3035
  855MOL0     C17887   9.534  10.987  -0.637 -0.2785 -0.1390  0.7915
  855MOL0     O17888   9.604  10.871  -0.636  0.0575  0.7856  0.0995
  855MOL0     C17889   9.722  10.854  -0.719  0.4382  0.4101  0.3893
  855MOL0     C17890   9.793  10.724  -0.663  1.1288 -0.3417  0.1027
  855MOL0     C17891   9.888  10.653  -0.764 -0.5777  1.1122 -0.4635
  855MOL0     C17892  10.015  10.635  -0.695  0.2187  0.1433 -0.9318
  855MOL0     C17893  10.127  10.558  -0.771  0.2313 -0.4719 -0.2642
  855MOL0     C17894  10.251  10.528  -0.676  0.5171 -0.5216  0.5763
  855MOL0     C17895  10.362  10.460  -0.748 -0.3574 -0.6498 -0.1182
  855MOL0     C17896  10.485  10.444  -0.652  0.4449  0.5977  0.0389
  855MOL0    Cl17897  10.580  10.322  -0.753  0.4853 -0.3036 -0.0833
  855MOL0     C17898   9.428  11.003  -0.547  0.4726  0.4060  0.3039
  855MOL0     C17899   9.341  11.118  -0.559 -0.0714  0.2636  0.5837
  855MOL0     O17900   9.383  11.427  -0.476 -0.0681  0.5330 -0.3890
  855MOL0     C17901   9.133  11.540  -0.717  0.7338  0.0712  0.2963
  855MOL0     C17902   9.061  11.652  -0.758  0.3120  1.0719 -0.0023
  855MOL0     N17903   8.414  12.050  -0.842  0.3053  0.0018 -0.8942
  855MOL0     N17904   8.301  12.016  -0.792  0.2625  0.2921  0.2844
  855MOL0     C17905   8.862  11.134  -0.007  1.6179 -0.1970  0.0282
  855MOL0     C17906   8.917  11.021   0.048  0.1880 -0.3518 -0.4343
  855MOL0     C17907   8.942  10.599   0.209 -0.3176  0.4151  0.6386
  855MOL0     C17908   8.836  10.570   0.296  0.2473  0.2206  0.1140
  855MOL0     C17909   8.836  10.455   0.377 -0.2568  0.3328  0.0570
  855MOL0     C17910   8.951  10.375   0.376  0.1654  0.5603  0.5029
  855MOL0     O17911   8.952  10.261   0.448 -0.5717 -0.0173  0.3206
  855MOL0     C17912   9.016  10.280   0.580 -0.4386 -0.1077  1.2107
  855MOL0     C17913   8.925  10.239   0.701 -0.3583 -0.9970 -0.0011
  855MOL0     C17914   9.006  10.225   0.833 -0.3101  0.3402  0.3612
  855MOL0     C17915   9.145  10.157   0.838  0.5290  0.0004 -0.3894
  855MOL0     C17916   9.150  10.036   0.756  0.1127  0.1979 -0.9226
  855MOL0     C17917   9.174   9.941   0.679 -0.4713  0.0128  0.4942
  855MOL0     C17918   9.061  10.411   0.297 -0.7824  0.3101 -0.3510
  855MOL0     C17919   9.064  10.517   0.207 -0.3652  0.2755 -0.3049
  855MOL0     C17920   9.170  10.526   0.110 -0.3428  0.0166  0.4173
  855MOL0     H17921   8.645  10.919   0.215 -0.6996 -1.2552 -1.9751
  855MOL0     H17922   8.542  11.116   0.129  0.5569  3.1424 -0.3605
  855MOL0     H17923   8.546  11.347   0.068 -0.0946 -4.3412  1.3129
  855MOL0     H17924   8.473  11.252  -0.052 -0.7887  0.9374 -1.7136
  855MOL0     H17925   8.588  11.528  -0.094 -1.2830  0.1227 -0.4637
  855MOL0     H17926   8.569  11.414  -0.228 -0.8349  0.4538 -1.2459
  855MOL0     H17927   8.318  11.403  -0.179 -1.9176  1.5064  0.7668
  855MOL0     H17928   8.348  11.540  -0.071  0.1423  0.1022 -0.2196
  855MOL0     H17929   8.433  11.681  -0.257  1.1121 -1.3760 -0.2927
  855MOL0     H17930   8.430  11.550  -0.376 -3.1055  2.5648 -3.1622
  855MOL0     H17931   8.227  11.730  -0.264 -0.9950  0.4801  0.6986
  855MOL0     H17932   8.172  11.557  -0.283  0.4389  1.3799  1.8597
  855MOL0     H17933   8.245  11.584  -0.526 -0.6101  0.7785  0.1273
  855MOL0     H17934   8.107  11.659  -0.478  0.5082 -2.4831 -1.5576
  855MOL0     H17935   8.384  11.788  -0.491  0.4705 -1.9549 -1.5050
  855MOL0     H17936   8.224  11.865  -0.451 -0.4861  0.2067 -2.5216
  855MOL0     H17937   8.253  11.724  -0.710 -3.8743 -0.4899 -1.7144
  855MOL0     H17938   8.136  11.847  -0.663 -0.3807 -1.9461  1.9906
  855MOL0     H17939   8.524  11.806  -0.661  2.2820  2.3324  0.0388
  855MOL0     H17940   8.683  11.969  -0.941 -2.7251  0.3003 -0.0856
  855MOL0     H17941   8.718  11.882  -0.788 -1.5352 -0.9406  1.9085
  855MOL0     H17942   8.713  12.184  -0.839 -1.2143  1.1944  1.0256
  855MOL0     H17943   8.721  12.111  -0.672  1.7574  0.0806  0.0031
  855MOL0     H17944   8.937  12.083  -0.894 -2.4237  2.0227 -1.1424
  855MOL0     H17945   8.927  12.183  -0.746 -1.1600 -0.8564  0.7836
  855MOL0     H17946   9.062  12.020  -0.659 -1.1949  2.9904  2.9748
  855MOL0     H17947   8.903  11.991  -0.604 -1.0005  1.0224 -0.7116
  855MOL0     H17948   9.100  11.850  -0.501 -0.7147 -0.9830  0.8238
  855MOL0     H17949   9.235  11.744  -0.307  0.9594 -3.4172  4.1979
  855MOL0     H17950   9.387  11.699  -0.384  0.0620  2.0852  3.3972
  855MOL0     H17951   9.273  11.584  -0.325  0.2710  0.1816  1.6188
  855MOL0     H17952   9.505  11.289  -0.795 -0.4198 -0.4972 -1.1584
  855MOL0     H17953   9.636  11.083  -0.799 -0.2724 -1.9743 -1.0286
  855MOL0     H17954   9.685  10.836  -0.820  0.6706 -0.6520  0.4833
  855MOL0     H17955   9.783  10.945  -0.718 -0.9037  1.3252  1.5426
  855MOL0     H17956   9.844  10.758  -0.572  0.1755 -1.0378  0.9216
  855MOL0     H17957   9.716  10.652  -0.633 -1.0151  1.6464 -0.3804
  855MOL0     H17958   9.917  10.713  -0.850 -1.7325 -1.0154 -2.4623
  855MOL0     H17959   9.859  10.555  -0.803  2.8083 -0.1113 -0.1872
  855MOL0     H17960  10.003  10.573  -0.606  0.0194 -0.6445 -1.5010
  855MOL0     H17961  10.059  10.732  -0.668  1.3574 -0.4774 -0.4731
  855MOL0     H17962  10.082  10.468  -0.813  0.1902 -0.2812 -0.6371
  855MOL0     H17963  10.160  10.615  -0.858 -3.1877 -0.0058 -1.4065
  855MOL0     H17964  10.219  10.463  -0.594 -0.2689  0.4068  1.0349
  855MOL0     H17965  10.274  10.626  -0.632 -0.1320  0.5411 -1.3308
  855MOL0     H17966  10.400  10.528  -0.825  2.2056 -1.6810  0.1429
  855MOL0     H17967  10.330  10.362  -0.784  2.1473 -0.8694 -2.0752
  855MOL0     H17968  10.462  10.402  -0.553  0.4020 -2.4286 -1.1354
  855MOL0     H17969  10.536  10.538  -0.632  0.6178  0.1714  1.7688
  855MOL0     H17970   9.404  10.925  -0.476  2.2366  0.9663  1.5717
  855MOL0     H17971   9.259  11.120  -0.488 -1.2423 -3.9680 -0.3860
  855MOL0     H17972   9.136  11.457  -0.787  1.7087 -0.5004  0.9823
  855MOL0     H17973   9.016  11.654  -0.856  2.2416  0.8322 -0.9462
  855MOL0     H17974   8.926  11.190  -0.073  2.0525  0.4680  1.0053
  855MOL0     H17975   9.021  10.994   0.034  0.2874  0.2384 -0.8120
  855MOL0     H17976   8.748  10.631   0.315 -0.2052  0.2115 -1.7545
  855MOL0     H17977   8.756  10.428   0.445  0.2780 -3.2880 -0.5145
  855MOL0     H17978   9.106  10.217   0.586 -0.5849 -0.1926  4.2948
  855MOL0     H17979   9.027  10.389   0.581 -0.0318 -0.1478  1.6013
  855MOL0     H17980   8.869  10.149   0.676 -2.1795 -0.0214  0.3873
  855MOL0     H17981   8.862  10.327   0.714 -0.5097 -1.3338  1.8883
  855MOL0     H17982   9.015  10.328   0.870 -1.0581  1.2281 -1.7565
  855MOL0     H17983   8.939  10.172   0.901  1.6614 -0.0123  2.0977
  855MOL0     H17984   9.164  10.139   0.944  1.2593  2.2379 -0.0894
  855MOL0     H17985   9.219  10.230   0.804 -2.4163  2.5950 -1.7736
  855MOL0     H17986   9.197   9.867   0.605  3.7422  0.0100  1.5010
  855MOL0     H17987   9.151  10.351   0.306  0.8496  2.8063  1.5920
  855MOL0     H17988   9.131  10.517   0.008 -1.5533  1.4784  0.7145
  855MOL0     H17989   9.224  10.620   0.121  3.3345 -1.8748 -0.0266
  855MOL0     H17990   9.251  10.455   0.127  0.2626  0.3084 -1.1008
  856MOL0     O17991   6.018   8.194   3.967 -0.7422  0.7947 -0.0327
  856MOL0     C17992   6.022   8.102   4.054 -0.7434 -0.3432 -0.1483
  856MOL0     O17993   6.043   7.973   4.032 -0.6274 -0.5079 -0.1175
  856MOL0     C17994   6.052   7.916   3.911 -0.3110  0.5168 -0.5087
  856MOL0     C17995   5.986   7.796   3.883 -0.2522  0.1320 -0.0788
  856MOL0     C17996   6.007   7.726   3.764  0.5831 -0.2356  0.5463
  856MOL0     C17997   6.089   7.768   3.665 -0.4207  0.6105  1.0786
  856MOL0     O17998   6.097   7.706   3.546 -0.4616  0.6695 -0.2885
  856MOL0     C17999   6.225   7.691   3.491  0.2024  0.1930 -0.5962
  856MOL0     C18000   6.245   7.580   3.393 -0.7716  0.2439  0.2338
  856MOL0     C18001   6.399   7.549   3.353 -1.8382  0.0430 -0.1431
  856MOL0     C18002   6.406   7.473   3.221  0.0230  0.3334  0.4164
  856MOL0     C18003   6.544   7.462   3.163  0.8225 -0.0427  0.1343
  856MOL0     C18004   6.603   7.330   3.185 -0.8009  0.2350  0.1484
  856MOL0     C18005   6.749   7.310   3.133 -0.3549 -0.3397  0.2114
  856MOL0     C18006   6.793   7.170   3.152 -0.9710 -0.8508 -0.6253
  856MOL0     N18007   6.940   7.158   3.156 -0.0296 -0.4834 -0.1936
  856MOL0     C18008   7.029   7.202   3.071 -0.3687 -0.4907  1.2850
  856MOL0     C18009   7.153   7.169   3.127 -0.7579  0.2947 -0.7012
  856MOL0     C18010   7.284   7.201   3.062 -0.6825  0.8025 -0.2432
  856MOL0     C18011   7.311   7.348   3.079 -0.5301 -0.6719 -0.0977
  856MOL0     C18012   7.439   7.394   3.004  0.1498  0.5908 -0.1249
  856MOL0     C18013   7.457   7.545   3.011 -0.2290  0.0577 -0.5003
  856MOL0     O18014   7.507   7.581   3.138 -0.4118 -0.2474 -0.1571
  856MOL0     C18015   7.509   7.721   3.146 -0.4079 -0.8808  0.2335
  856MOL0     C18016   7.424   7.774   3.239 -0.8213 -1.4811 -0.5355
  856MOL0     C18017   7.404   7.912   3.248  0.7792 -0.0165 -0.6147
  856MOL0     C18018   7.320   7.963   3.364 -0.2165  0.2245  0.8691
  856MOL0     C18019   7.469   7.997   3.158  1.2647 -0.0222  0.0194
  856MOL0     C18020   7.455   8.139   3.176 -0.1700 -0.6297 -0.1670
  856MOL0     O18021   7.405   8.198   3.067  0.6214  0.7537 -0.4126
  856MOL0     C18022   7.397   8.334   3.057  0.6302  0.0071 -0.0010
  856MOL0     C18023   7.390   8.377   2.920  0.2656  0.5082 -0.1391
  856MOL0     C18024   7.371   8.514   2.892 -0.1815 -0.6490 -1.0244
  856MOL0     C18025   7.358   8.609   2.999  0.3485  0.2609  0.2330
  856MOL0     O18026   7.342   8.746   2.980 -0.6525 -0.0974 -0.3215
  856MOL0     C18027   7.315   8.798   2.848  0.1205 -0.1839 -0.6062
  856MOL0     C18028   7.240   8.932   2.855 -0.0719 -0.5280  0.5716
  856MOL0     C18029   7.336   9.052   2.861  0.2871 -0.6684 -0.7586
  856MOL0     C18030   7.334   9.126   2.996  0.0417 -0.4801  1.1554
  856MOL0     C18031   7.365   9.037   3.109 -0.2956  0.5117 -0.3125
  856MOL0     C18032   7.397   9.126   3.237  0.3380 -0.9197 -0.3305
  856MOL0     C18033   7.277   9.219   3.271  0.6865 -0.8480 -0.1980
  856MOL0     C18034   7.325   9.298   3.398  0.9104  0.3616  0.9068
  856MOL0    Cl18035   7.416   9.218   3.531 -0.0964  0.0052  0.4474
  856MOL0     C18036   7.356   8.557   3.135 -0.4370 -0.1566  0.5350
  856MOL0     C18037   7.376   8.426   3.162 -0.1916 -0.0761 -0.1681
  856MOL0     O18038   7.526   8.187   3.263  0.7211 -0.5050  0.2586
  856MOL0     C18039   7.556   7.944   3.058  0.9533  1.0238  0.6677
  856MOL0     C18040   7.570   7.804   3.056 -1.2349 -0.0872  0.0039
  856MOL0     N18041   7.124   7.095   3.242  0.3716 -0.6754  0.8116
  856MOL0     N18042   6.989   7.087   3.255 -0.9729 -0.9176  0.4282
  856MOL0     C18043   6.155   7.892   3.689  0.6258  0.3376 -0.5579
  856MOL0     C18044   6.126   7.965   3.807 -0.1001 -0.9827  0.0681
  856MOL0     C18045   5.991   8.147   4.185  1.8278  0.8085 -0.0653
  856MOL0     C18046   6.087   8.228   4.255  0.6797  0.3210 -0.2061
  856MOL0     C18047   6.069   8.272   4.395 -0.5343  0.1461  0.8431
  856MOL0     C18048   5.959   8.224   4.458 -0.3702 -0.5545 -0.5151
  856MOL0     O18049   5.961   8.259   4.596 -0.2567  0.7035  0.2768
  856MOL0     C18050   5.880   8.179   4.676  0.1329  0.0401  0.0103
  856MOL0     C18051   5.819   8.252   4.795  0.2951 -0.2183 -0.5290
  856MOL0     C18052   5.739   8.159   4.886 -0.3932  0.0911  0.2949
  856MOL0     C18053   5.682   8.231   5.009 -0.0497 -0.7355  0.0110
  856MOL0     C18054   5.565   8.309   4.977  0.1123  0.2229  0.1016
  856MOL0     C18055   5.472   8.385   4.960  0.2698  1.0450  0.0877
  856MOL0     C18056   5.870   8.142   4.391  0.9253  0.0851 -0.1295
  856MOL0     C18057   5.871   8.105   4.253  0.0551 -1.1775  0.1368
  856MOL0     C18058   5.765   8.012   4.183 -0.4499  0.5660 -0.4383
  856MOL0     H18059   5.911   7.748   3.947 -3.5078  1.1483 -2.8201
  856MOL0     H18060   5.939   7.645   3.738 -0.7379  0.0624  2.8487
  856MOL0     H18061   6.292   7.687   3.578  1.5390  0.9386 -1.5499
  856MOL0     H18062   6.247   7.782   3.435 -0.3653  0.8753  0.2632
  856MOL0     H18063   6.219   7.482   3.435  3.2058 -0.2983  1.9015
  856MOL0     H18064   6.193   7.604   3.300 -1.6523 -1.4731  0.2347
  856MOL0     H18065   6.462   7.637   3.344  0.3245 -1.3049  0.9095
  856MOL0     H18066   6.451   7.493   3.432  0.7780  1.4992 -0.7089
  856MOL0     H18067   6.365   7.375   3.248 -0.3067  0.2620 -0.2954
  856MOL0     H18068   6.337   7.514   3.146  1.6752  2.3560 -0.0822
  856MOL0     H18069   6.610   7.533   3.214  0.1916  1.1487 -0.6658
  856MOL0     H18070   6.542   7.488   3.056 -1.5700  4.0339  0.9765
  856MOL0     H18071   6.605   7.306   3.292  0.4428 -2.3014 -0.3586
  856MOL0     H18072   6.539   7.253   3.142 -0.4151  0.3371 -0.6232
  856MOL0     H18073   6.823   7.369   3.189  2.5621 -1.5196 -2.1321
  856MOL0     H18074   6.762   7.329   3.026  5.0285 -0.6341  0.5324
  856MOL0     H18075   6.751   7.140   3.249 -0.0508  1.3484  0.5148
  856MOL0     H18076   6.750   7.102   3.078  2.8472 -3.4766 -0.7235
  856MOL0     H18077   7.010   7.269   2.988 -2.0471  0.7510  2.6126
  856MOL0     H18078   7.295   7.177   2.956  1.9960 -1.3983  0.4062
  856MOL0     H18079   7.358   7.145   3.120 -2.3075  0.8906  2.0493
  856MOL0     H18080   7.229   7.419   3.068  1.5803  2.1921  1.2054
  856MOL0     H18081   7.343   7.346   3.183  2.9997 -0.1871 -1.0462
  856MOL0     H18082   7.529   7.349   3.047  2.9137  1.3887 -4.4467
  856MOL0     H18083   7.427   7.378   2.897 -2.3686  2.4935 -0.2257
  856MOL0     H18084   7.529   7.574   2.934  0.3484  0.9959  0.3591
  856MOL0     H18085   7.360   7.594   2.997 -0.3934 -0.5352 -1.5942
  856MOL0     H18086   7.389   7.705   3.315 -2.0034 -0.8718 -0.5013
  856MOL0     H18087   7.251   7.884   3.393  0.0232 -0.6179 -0.6956
  856MOL0     H18088   7.257   8.048   3.337 -2.1079 -1.0715  1.0186
  856MOL0     H18089   7.385   7.990   3.448  0.3995 -0.9779  0.8024
  856MOL0     H18090   7.400   8.313   2.833  1.5415  0.7431 -0.1782
  856MOL0     H18091   7.358   8.542   2.788 -0.8770  1.1994 -0.4743
  856MOL0     H18092   7.412   8.803   2.797  1.7173 -0.1053  2.2213
  856MOL0     H18093   7.247   8.731   2.795  0.8836 -1.5107  0.0366
  856MOL0     H18094   7.187   8.955   2.762  0.6011  0.5022  0.4202
  856MOL0     H18095   7.169   8.938   2.938 -3.6241  0.8667 -2.2993
  856MOL0     H18096   7.310   9.130   2.789 -0.6892  1.7426  2.0181
  856MOL0     H18097   7.440   9.025   2.840  0.4831 -1.4303  1.0535
  856MOL0     H18098   7.230   9.156   3.009  0.7097  2.8704 -0.2975
  856MOL0     H18099   7.402   9.212   2.996  0.5366 -0.8440 -0.3567
  856MOL0     H18100   7.299   8.951   3.122 -0.4276  0.9366  2.5056
  856MOL0     H18101   7.465   8.998   3.088  1.4917  3.1515  2.5180
  856MOL0     H18102   7.487   9.185   3.217 -0.9784  2.5445  2.7522
  856MOL0     H18103   7.425   9.059   3.319 -0.7986 -3.5529 -1.9485
  856MOL0     H18104   7.184   9.167   3.296 -0.6483  1.8786  0.8637
  856MOL0     H18105   7.253   9.293   3.195  0.0718 -0.4511  0.3656
  856MOL0     H18106   7.240   9.353   3.439 -0.6964 -1.3075 -0.0484
  856MOL0     H18107   7.392   9.378   3.365 -0.1005  0.6585 -0.5484
  856MOL0     H18108   7.349   8.630   3.215  0.8754 -1.8943  2.3043
  856MOL0     H18109   7.388   8.389   3.263  1.2302 -3.0035 -1.2902
  856MOL0     H18110   7.618   8.013   3.001  0.0769  0.8173 -0.5843
  856MOL0     H18111   7.647   7.760   2.993 -2.2869 -1.5670 -0.3046
  856MOL0     H18112   6.221   7.921   3.608  1.5926 -1.7626 -0.5900
  856MOL0     H18113   6.176   8.061   3.820  0.5259 -1.3948  0.7846
  856MOL0     H18114   6.175   8.259   4.199  2.2310  0.3823  2.1599
  856MOL0     H18115   6.142   8.332   4.450  0.8842  1.3918 -2.1384
  856MOL0     H18116   5.787   8.153   4.625  0.8286  2.0803 -2.5047
  856MOL0     H18117   5.928   8.087   4.709  3.2985  0.9115 -1.8159
  856MOL0     H18118   5.747   8.325   4.759  1.1929  0.5791 -0.7496
  856MOL0     H18119   5.893   8.298   4.860  0.4660 -2.4875  1.0213
  856MOL0     H18120   5.666   8.096   4.834  1.5950 -0.6525 -1.7264
  856MOL0     H18121   5.805   8.081   4.924  1.0890  1.1923  0.0525
  856MOL0     H18122   5.765   8.287   5.052  0.8789 -2.8775  1.1567
  856MOL0     H18123   5.665   8.151   5.081  1.6840  0.0314  1.3260
  856MOL0     H18124   5.386   8.448   4.948  1.4836  2.5450 -1.0206
  856MOL0     H18125   5.780   8.104   4.439  2.2015 -1.9038  0.8377
  856MOL0     H18126   5.668   8.015   4.233 -0.3655 -1.8164 -0.0272
  856MOL0     H18127   5.749   8.061   4.086  0.9837  3.1575  0.5202
  856MOL0     H18128   5.819   7.918   4.168 -1.6675 -0.7322  2.4579
  857MOL0     O18129   8.410   8.571   7.805  0.4885  0.5104 -0.1158
  857MOL0     C18130   8.412   8.677   7.745  0.3489 -0.3712  0.0347
  857MOL0     O18131   8.329   8.781   7.748 -0.1340  0.0140 -0.2027
  857MOL0     C18132   8.233   8.782   7.843  0.3667 -0.1302 -0.0548
  857MOL0     C18133   8.271   8.767   7.971  0.6898  0.1509  0.4251
  857MOL0     C18134   8.180   8.764   8.079 -1.1774 -0.0232  0.2892
  857MOL0     C18135   8.043   8.774   8.059 -0.3419 -0.4611  0.1577
  857MOL0     O18136   7.957   8.754   8.167 -0.9294 -0.5158  0.0083
  857MOL0     C18137   7.821   8.811   8.147 -0.1199 -0.6083 -0.1948
  857MOL0     C18138   7.740   8.745   8.256  0.0410  0.2119 -0.3468
  857MOL0     C18139   7.743   8.589   8.224 -0.2020 -0.3440 -0.1399
  857MOL0     C18140   7.651   8.542   8.109 -0.1881  0.0519 -0.3464
  857MOL0     C18141   7.593   8.389   8.106 -0.1784  0.3471 -0.3335
  857MOL0     C18142   7.470   8.370   8.010 -0.1520 -0.0078 -0.6427
  857MOL0     C18143   7.426   8.220   8.008  0.3955  0.3917 -0.3741
  857MOL0     C18144   7.309   8.175   7.916  0.6799  0.3423  0.9981
  857MOL0     N18145   7.294   8.027   7.900  0.3515 -0.9749 -0.5302
  857MOL0     C18146   7.184   7.956   7.867  0.6156 -0.0436  1.6135
  857MOL0     C18147   7.216   7.816   7.856 -0.1798 -0.3867  0.5232
  857MOL0     C18148   7.133   7.700   7.812 -0.0966 -0.0711  0.4281
  857MOL0     C18149   7.202   7.629   7.698 -0.2052  0.5050 -0.5959
  857MOL0     C18150   7.129   7.504   7.651 -0.1960  0.0197  0.1319
  857MOL0     C18151   7.216   7.434   7.554 -0.1103 -0.0108  0.1046
  857MOL0     O18152   7.178   7.303   7.510  0.9357 -0.4567 -0.2924
  857MOL0     C18153   7.252   7.244   7.414 -0.0912 -0.8974  0.4760
  857MOL0     C18154   7.222   7.120   7.373  0.3300  0.1148  0.1746
  857MOL0     C18155   7.289   7.044   7.284 -0.4004  0.1635 -0.0953
  857MOL0     C18156   7.235   6.908   7.253 -0.7341  0.7090  0.1537
  857MOL0     C18157   7.406   7.109   7.229  0.0635 -0.5093 -0.5073
  857MOL0     C18158   7.483   7.059   7.102  0.1006  0.2528 -0.5717
  857MOL0     O18159   7.587   7.129   7.058  0.1779  0.2788 -0.5889
  857MOL0     C18160   7.634   7.120   6.932 -0.1500 -0.6014  0.4012
  857MOL0     C18161   7.552   7.141   6.823  0.5672  0.4906 -0.5720
  857MOL0     C18162   7.606   7.163   6.696  0.4705  0.8384 -0.3171
  857MOL0     C18163   7.743   7.148   6.678  0.4695  0.7246 -0.2126
  857MOL0     O18164   7.802   7.148   6.556 -0.3662  0.4910 -0.3397
  857MOL0     C18165   7.724   7.160   6.439  1.1354  0.0685  0.4103
  857MOL0     C18166   7.797   7.153   6.298 -0.1248  0.2287 -0.5416
  857MOL0     C18167   7.885   7.021   6.299 -0.1936 -0.0990  0.2424
  857MOL0     C18168   7.975   6.992   6.180  0.0389  0.0338  0.8370
  857MOL0     C18169   7.898   6.944   6.053 -0.1758  0.1329 -0.4129
  857MOL0     C18170   7.865   7.036   5.932  0.1544 -0.2065  1.0065
  857MOL0     C18171   7.975   7.131   5.889 -0.0525 -1.5316  0.6029
  857MOL0     C18172   7.934   7.230   5.780  0.0382 -0.6265  0.6029
  857MOL0    Cl18173   8.003   7.401   5.809  0.0463  0.2520  0.0445
  857MOL0     C18174   7.826   7.123   6.786 -0.3306  0.1277  0.8579
  857MOL0     C18175   7.770   7.110   6.915 -0.5105 -0.6089  0.1939
  857MOL0     O18176   7.439   6.960   7.046 -0.4088 -0.1077  0.7488
  857MOL0     C18177   7.451   7.235   7.278 -0.1576 -0.3634  0.0307
  857MOL0     C18178   7.372   7.306   7.367  0.7417  0.7539 -0.3516
  857MOL0     N18179   7.345   7.810   7.907  0.7900 -0.5730 -0.1205
  857MOL0     N18180   7.383   7.933   7.938 -0.4071  0.7499 -0.0510
  857MOL0     C18181   8.007   8.783   7.924 -0.2168 -0.9064  0.1452
  857MOL0     C18182   8.099   8.796   7.822 -1.3337  0.3481  0.6754
  857MOL0     C18183   8.529   8.695   7.650  0.7484  0.3012 -0.2870
  857MOL0     C18184   8.529   8.789   7.552  0.3611 -0.4697  0.3442
  857MOL0     C18185   8.634   8.800   7.454  0.5580 -0.0904  0.7346
  857MOL0     C18186   8.742   8.712   7.452 -0.2828 -0.5673  0.1103
  857MOL0     O18187   8.822   8.713   7.336 -0.8589 -0.7813  0.8919
  857MOL0     C18188   8.824   8.576   7.284 -0.0660 -1.0454 -0.1545
  857MOL0     C18189   8.860   8.581   7.136  0.0333  1.3186  0.6125
  857MOL0     C18190   9.019   8.593   7.114 -0.4215 -0.6533 -0.8818
  857MOL0     C18191   9.041   8.650   6.972  0.5076  0.4978 -0.0531
  857MOL0     C18192   9.182   8.629   6.951  0.1007 -0.1343  0.2961
  857MOL0     C18193   9.297   8.611   6.920 -0.6634  0.9612  0.1750
  857MOL0     C18194   8.747   8.614   7.552 -0.3959 -0.0564  0.4060
  857MOL0     C18195   8.649   8.614   7.656 -0.0201 -0.2822  0.0815
  857MOL0     C18196   8.677   8.502   7.755 -0.2504 -0.6140  0.4930
  857MOL0     H18197   8.376   8.763   7.999  0.3189  2.0788  2.3812
  857MOL0     H18198   8.231   8.734   8.170  0.5631 -0.5783 -0.8089
  857MOL0     H18199   7.763   8.782   8.059 -2.1304 -0.0347  0.8803
  857MOL0     H18200   7.811   8.919   8.160 -0.9714 -0.6903 -0.0572
  857MOL0     H18201   7.790   8.775   8.348 -2.5794 -0.8382  1.5372
  857MOL0     H18202   7.638   8.782   8.266 -0.8408 -1.8664 -1.1671
  857MOL0     H18203   7.843   8.545   8.223 -0.8446 -1.8557 -1.4081
  857MOL0     H18204   7.700   8.547   8.316  0.0666 -0.0180  0.1394
  857MOL0     H18205   7.562   8.601   8.134  0.1202 -0.4140  2.1157
  857MOL0     H18206   7.695   8.563   8.011 -1.3652  0.6042 -0.7790
  857MOL0     H18207   7.556   8.354   8.203 -0.1826 -2.5212 -1.2796
  857MOL0     H18208   7.679   8.324   8.087 -2.0319 -2.0413 -1.0760
  857MOL0     H18209   7.386   8.427   8.051 -0.8594 -1.2193 -0.3448
  857MOL0     H18210   7.497   8.399   7.908  1.9202 -2.1817 -0.8162
  857MOL0     H18211   7.385   8.188   8.105 -2.2387  1.4414 -1.0675
  857MOL0     H18212   7.506   8.153   7.976  0.7030 -0.2889  1.6766
  857MOL0     H18213   7.215   8.209   7.960 -0.8878 -1.7424 -0.5622
  857MOL0     H18214   7.331   8.222   7.820  0.0781 -1.5285 -0.0990
  857MOL0     H18215   7.096   8.005   7.827  0.7358 -0.6829  0.5172
  857MOL0     H18216   7.026   7.720   7.797  0.3133  1.9390 -0.1656
  857MOL0     H18217   7.137   7.635   7.900 -0.7216 -0.2781  0.3128
  857MOL0     H18218   7.215   7.699   7.615 -2.1812  0.5936 -0.8900
  857MOL0     H18219   7.302   7.606   7.736 -0.7938 -0.6039  0.3456
  857MOL0     H18220   7.123   7.435   7.736  0.0585 -0.5733 -0.3217
  857MOL0     H18221   7.028   7.528   7.614 -1.2443 -1.5359  1.8369
  857MOL0     H18222   7.244   7.499   7.471  0.1719 -0.0380  0.1758
  857MOL0     H18223   7.311   7.428   7.609 -0.9605  1.0618  1.7282
  857MOL0     H18224   7.137   7.074   7.424 -0.2595  2.0880  1.0461
  857MOL0     H18225   7.196   6.853   7.339 -0.2387 -0.3143 -0.2660
  857MOL0     H18226   7.316   6.845   7.215 -2.9923 -2.2275 -0.1609
  857MOL0     H18227   7.156   6.910   7.178  0.9699  0.3580 -1.7493
  857MOL0     H18228   7.448   7.160   6.850  0.5321 -1.2409  0.6741
  857MOL0     H18229   7.538   7.179   6.613 -0.9546 -2.1790  0.1088
  857MOL0     H18230   7.641   7.090   6.441  1.2361 -0.0543  0.3018
  857MOL0     H18231   7.661   7.249   6.453 -0.4590 -0.3350 -3.1664
  857MOL0     H18232   7.729   7.135   6.215 -1.5065 -2.0494  0.9728
  857MOL0     H18233   7.853   7.243   6.269  0.5062  0.2287  0.5739
  857MOL0     H18234   7.814   6.941   6.318  1.0887 -1.1109  0.9759
  857MOL0     H18235   7.952   7.030   6.386 -1.6483 -0.0778  1.3961
  857MOL0     H18236   8.039   6.908   6.206  0.0222 -0.9239 -1.9047
  857MOL0     H18237   8.040   7.076   6.152 -0.9094  0.0893 -1.4307
  857MOL0     H18238   7.957   6.858   6.020 -1.3003 -0.5110 -0.7896
  857MOL0     H18239   7.806   6.893   6.081 -0.0716 -2.4995 -4.1075
  857MOL0     H18240   7.773   7.095   5.944 -1.1508 -2.4210  2.7572
  857MOL0     H18241   7.851   6.969   5.847 -0.6999  0.2887  0.7394
  857MOL0     H18242   8.063   7.071   5.862  2.9437  1.6618  2.4493
  857MOL0     H18243   8.012   7.189   5.975  0.0757 -1.1515  0.2966
  857MOL0     H18244   7.825   7.236   5.771  0.1707  1.2266 -0.3321
  857MOL0     H18245   7.982   7.209   5.684 -0.2957  1.7254 -0.1479
  857MOL0     H18246   7.934   7.110   6.793 -0.5526 -1.6982  1.3882
  857MOL0     H18247   7.839   7.091   6.997 -1.6041 -2.7863  0.6855
  857MOL0     H18248   7.543   7.283   7.248  0.6305 -1.0601  1.2225
  857MOL0     H18249   7.408   7.405   7.392  0.0122  0.5735  1.6714
  857MOL0     H18250   7.903   8.794   7.895 -1.3455  0.7100  4.0533
  857MOL0     H18251   8.066   8.787   7.719  0.8141  2.9541 -0.3596
  857MOL0     H18252   8.444   8.855   7.539  0.3492 -0.6984 -0.7955
  857MOL0     H18253   8.631   8.876   7.377 -1.6109 -0.0268  0.8191
  857MOL0     H18254   8.902   8.533   7.347 -0.3241  0.5786  1.3233
  857MOL0     H18255   8.728   8.524   7.292 -0.3901 -0.1046  4.6290
  857MOL0     H18256   8.804   8.663   7.091 -0.1761  0.0925 -1.5012
  857MOL0     H18257   8.829   8.485   7.094  2.2390  1.0334 -0.5208
  857MOL0     H18258   9.049   8.669   7.186 -1.6087 -1.6376  0.7114
  857MOL0     H18259   9.065   8.498   7.145 -1.9082 -0.9297  0.6360
  857MOL0     H18260   9.020   8.757   6.964  1.2822  0.6405 -0.2615
  857MOL0     H18261   8.985   8.598   6.894  2.3627 -2.1423  0.2094
  857MOL0     H18262   9.402   8.603   6.902 -0.7786 -2.2777  0.3450
  857MOL0     H18263   8.822   8.535   7.551  0.1908  0.4713  1.1236
  857MOL0     H18264   8.697   8.537   7.856  1.1994 -0.7620  0.2896
  857MOL0     H18265   8.593   8.432   7.752 -0.1254 -0.7968  1.1504
  857MOL0     H18266   8.758   8.434   7.726  0.9690 -2.2278  6.4351
  858MOL0     O18267   4.279   2.264   8.206 -0.5023  0.0283  0.8128
  858MOL0     C18268   4.173   2.261   8.262  0.4098 -0.9937 -0.0092
  858MOL0     O18269   4.056   2.292   8.194 -0.2599  0.5589 -0.9533
  858MOL0     C18270   4.055   2.390   8.099  0.0742 -1.0261  0.6367
  858MOL0     C18271   3.945   2.398   8.017 -0.3125 -0.6562 -0.1666
  858MOL0     C18272   3.928   2.498   7.929 -0.4542 -0.4374  0.5815
  858MOL0     C18273   4.020   2.608   7.913  0.2747  0.4140 -0.3548
  858MOL0     O18274   3.972   2.718   7.848 -0.2594  0.4912  0.2769
  858MOL0     C18275   4.076   2.785   7.773 -0.0362 -0.5326  0.5843
  858MOL0     C18276   4.117   2.719   7.643  1.1323 -0.3791 -0.4690
  858MOL0     C18277   3.992   2.665   7.573 -0.8890  0.5872  0.3612
  858MOL0     C18278   4.045   2.558   7.472  0.4682  0.3493  0.4074
  858MOL0     C18279   3.932   2.488   7.404  0.1348  0.6658  0.2659
  858MOL0     C18280   3.852   2.570   7.302  0.0125  0.1782 -0.1498
  858MOL0     C18281   3.768   2.459   7.219 -0.7563  0.2866 -0.6168
  858MOL0     C18282   3.661   2.519   7.141  0.1359 -0.4243 -0.0365
  858MOL0     N18283   3.561   2.591   7.228  1.0956  0.1457 -0.8463
  858MOL0     C18284   3.488   2.533   7.334 -0.7036  0.0381 -0.2525
  858MOL0     C18285   3.429   2.635   7.397  0.2681  0.0791  0.2478
  858MOL0     C18286   3.340   2.630   7.529  0.6994 -0.0402  0.5851
  858MOL0     C18287   3.259   2.498   7.558 -0.1215  0.0245 -0.0983
  858MOL0     C18288   3.147   2.518   7.653 -0.0584 -0.7649  0.6847
  858MOL0     C18289   3.027   2.593   7.577 -0.1756  0.4656  0.2805
  858MOL0     O18290   2.980   2.515   7.466 -0.5342 -0.1245 -0.1661
  858MOL0     C18291   2.886   2.427   7.500 -0.6242  0.0116 -0.5856
  858MOL0     C18292   2.749   2.467   7.496 -0.3716 -0.7163 -0.4156
  858MOL0     C18293   2.651   2.371   7.524  0.4604 -0.3427  0.4500
  858MOL0     C18294   2.508   2.410   7.514  0.0633  0.6654 -0.6383
  858MOL0     C18295   2.682   2.236   7.559  0.0806 -0.0414  0.6321
  858MOL0     C18296   2.588   2.124   7.590 -0.5564 -0.3894  0.5043
  858MOL0     O18297   2.488   2.162   7.680  0.0223  0.3459  0.5729
  858MOL0     C18298   2.396   2.061   7.692  0.1571  0.0392 -0.4746
  858MOL0     C18299   2.370   2.013   7.822 -0.1801  0.5075 -0.3527
  858MOL0     C18300   2.262   1.919   7.839 -0.0312 -0.4600  0.3013
  858MOL0     C18301   2.175   1.885   7.734  0.5403  0.1785  0.3605
  858MOL0     O18302   2.063   1.805   7.763 -0.1752 -0.2807  0.7438
  858MOL0     C18303   2.069   1.678   7.700  0.5928  1.5010 -0.4972
  858MOL0     C18304   1.958   1.587   7.762  0.8464 -0.6243  0.0756
  858MOL0     C18305   1.937   1.611   7.908 -0.7641 -1.0877  0.1560
  858MOL0     C18306   1.869   1.498   7.964  0.2039  0.7464  0.0806
  858MOL0     C18307   1.808   1.515   8.104  0.2618  0.4913  0.2717
  858MOL0     C18308   1.687   1.602   8.099 -0.3598  0.5456  0.3032
  858MOL0     C18309   1.620   1.616   8.231 -0.2470 -0.2273 -0.1679
  858MOL0     C18310   1.503   1.703   8.220 -0.6045 -0.4777  0.0483
  858MOL0    Cl18311   1.376   1.618   8.113 -0.1179 -0.3484  0.2525
  858MOL0     C18312   2.201   1.937   7.600  0.5234  0.2109 -0.6170
  858MOL0     C18313   2.310   2.018   7.583 -0.2164  0.6719  0.3663
  858MOL0     O18314   2.614   2.012   7.536  0.5871  0.2153  0.0903
  858MOL0     C18315   2.818   2.202   7.566 -0.0320  0.4017  0.8152
  858MOL0     C18316   2.915   2.299   7.545  0.8540  0.9772  0.3213
  858MOL0     N18317   3.470   2.749   7.339 -0.5754  0.6506  0.0651
  858MOL0     N18318   3.546   2.726   7.232 -0.1975  0.0621 -0.1844
  858MOL0     C18319   4.145   2.591   7.985  0.0995  0.2045  0.0687
  858MOL0     C18320   4.152   2.492   8.090  1.3196  0.0850 -0.3487
  858MOL0     C18321   4.159   2.201   8.398  0.2249 -0.3943  0.3860
  858MOL0     C18322   4.040   2.138   8.419 -0.4772  0.7991 -1.0436
  858MOL0     C18323   4.022   2.067   8.540 -0.4252 -0.0465 -0.0721
  858MOL0     C18324   4.117   2.056   8.643 -0.7041  0.1394 -0.8635
  858MOL0     O18325   4.089   1.995   8.759  0.6501 -0.1658 -0.2988
  858MOL0     C18326   4.199   1.963   8.840 -0.2279  0.0138  1.0161
  858MOL0     C18327   4.150   1.887   8.964 -0.0441 -1.1909 -0.6556
  858MOL0     C18328   4.111   1.733   8.932 -0.1872  0.2819  0.0491
  858MOL0     C18329   4.088   1.657   9.061  0.0449  0.3560  0.2892
  858MOL0     C18330   3.999   1.721   9.166  0.1634 -0.2527 -0.6938
  858MOL0     C18331   3.947   1.773   9.262  0.9953  0.5611  0.4581
  858MOL0     C18332   4.235   2.113   8.615  0.7639 -1.0026 -0.5361
  858MOL0     C18333   4.259   2.190   8.497  0.3406  0.7472  0.1482
  858MOL0     C18334   4.394   2.254   8.492 -0.0917  0.1882 -0.5361
  858MOL0     H18335   3.873   2.316   8.019 -0.4756 -0.5749 -1.3888
  858MOL0     H18336   3.842   2.493   7.863  0.7923  1.5040 -1.3168
  858MOL0     H18337   4.173   2.794   7.823 -0.1736 -0.8658  0.9101
  858MOL0     H18338   4.046   2.889   7.757  0.7772 -0.3328  0.2855
  858MOL0     H18339   4.187   2.777   7.583  4.7192 -2.8721  0.9747
  858MOL0     H18340   4.183   2.640   7.680 -1.3319 -1.5598  1.7214
  858MOL0     H18341   3.918   2.614   7.635 -1.5928  1.1042 -0.0455
  858MOL0     H18342   3.950   2.754   7.526 -1.7138  1.9043  3.3378
  858MOL0     H18343   4.108   2.606   7.397 -1.0125  0.8550 -0.5589
  858MOL0     H18344   4.115   2.485   7.514 -0.7324 -0.1554  1.6210
  858MOL0     H18345   3.860   2.462   7.482 -0.0382 -1.3909 -0.5207
  858MOL0     H18346   3.968   2.396   7.357 -1.0603  1.7087 -2.9825
  858MOL0     H18347   3.792   2.650   7.347 -0.8843 -0.4270 -0.2439
  858MOL0     H18348   3.916   2.621   7.230  0.8140 -1.7992 -0.8831
  858MOL0     H18349   3.721   2.384   7.283 -1.4169 -0.9470 -2.4955
  858MOL0     H18350   3.840   2.398   7.164  1.5008  0.3009  2.0645
  858MOL0     H18351   3.691   2.584   7.058 -3.1722 -1.5203 -2.3178
  858MOL0     H18352   3.591   2.447   7.097 -0.6672  0.6964 -0.6384
  858MOL0     H18353   3.467   2.429   7.356 -1.6019  0.2954  0.1516
  858MOL0     H18354   3.290   2.726   7.536  2.0569  0.8162 -0.8304
  858MOL0     H18355   3.420   2.635   7.604  0.8302  4.9702  0.3953
  858MOL0     H18356   3.214   2.461   7.465 -0.7120 -3.0833  1.3152
  858MOL0     H18357   3.309   2.407   7.592 -0.7911  0.0566  1.0011
  858MOL0     H18358   3.098   2.429   7.692 -0.9343 -0.4707  0.2884
  858MOL0     H18359   3.175   2.580   7.739 -2.4742  0.2464  0.8191
  858MOL0     H18360   2.951   2.615   7.652  0.3093 -0.3920  1.0540
  858MOL0     H18361   3.053   2.693   7.540  0.6061  0.5032  0.9078
  858MOL0     H18362   2.725   2.566   7.460  1.3318  1.8884  4.5736
  858MOL0     H18363   2.466   2.429   7.613 -2.4767 -0.8321 -1.3386
  858MOL0     H18364   2.454   2.325   7.472 -0.4990  0.5786  0.2378
  858MOL0     H18365   2.495   2.499   7.452  1.3019  0.4945 -1.1696
  858MOL0     H18366   2.434   2.040   7.905  0.5520 -2.8076  0.2986
  858MOL0     H18367   2.227   1.883   7.935 -3.1334  0.6015 -0.3293
  858MOL0     H18368   2.085   1.676   7.592 -1.8764  2.0988 -0.9340
  858MOL0     H18369   2.161   1.631   7.736  0.3114  0.2728 -1.3058
  858MOL0     H18370   1.874   1.619   7.699  0.5392  0.3012  0.9227
  858MOL0     H18371   1.983   1.481   7.758 -0.1862 -0.8607 -0.4926
  858MOL0     H18372   1.874   1.700   7.917  0.2503 -0.3848  0.5373
  858MOL0     H18373   2.037   1.632   7.946 -0.3759 -2.5478 -0.0027
  858MOL0     H18374   1.949   1.424   7.968 -0.2535  0.1764 -1.0631
  858MOL0     H18375   1.786   1.475   7.897 -1.8200  7.0769 -0.3042
  858MOL0     H18376   1.792   1.415   8.144  2.9506 -0.9743 -1.9833
  858MOL0     H18377   1.873   1.566   8.176  2.8455 -1.4044 -0.5432
  858MOL0     H18378   1.620   1.555   8.027 -0.0940  0.2839  0.2235
  858MOL0     H18379   1.708   1.701   8.058  2.3523 -0.3414 -0.6714
  858MOL0     H18380   1.681   1.649   8.315  0.4786  0.3520 -0.9138
  858MOL0     H18381   1.593   1.511   8.246 -0.2041 -0.8446 -3.6389
  858MOL0     H18382   1.542   1.802   8.191  0.1152 -1.1344 -1.3075
  858MOL0     H18383   1.464   1.702   8.322  0.2440 -2.5047  0.3899
  858MOL0     H18384   2.135   1.934   7.514 -0.9874 -3.0933  0.5060
  858MOL0     H18385   2.329   2.055   7.482  0.1647  4.8626  1.7897
  858MOL0     H18386   2.849   2.100   7.585 -1.5067  0.0523  1.4534
  858MOL0     H18387   3.019   2.268   7.535 -0.2621 -2.6714 -1.8377
  858MOL0     H18388   4.212   2.676   7.981  0.9391 -0.4674 -0.5138
  858MOL0     H18389   4.245   2.486   8.146  1.4068  2.9928 -0.0311
  858MOL0     H18390   3.967   2.132   8.338 -1.2405  2.4112 -0.5218
  858MOL0     H18391   3.919   2.032   8.547 -0.2325 -0.4347  0.8507
  858MOL0     H18392   4.262   1.893   8.786 -1.2525 -1.2995  1.4628
  858MOL0     H18393   4.253   2.050   8.879 -0.4552  0.1226  1.0892
  858MOL0     H18394   4.060   1.940   8.998  2.0280  2.0206  0.2951
  858MOL0     H18395   4.223   1.893   9.045 -1.6660  1.8741  0.7853
  858MOL0     H18396   4.012   1.737   8.886 -0.9768 -1.5932  1.4750
  858MOL0     H18397   4.178   1.682   8.862 -0.8568  0.3239 -0.6367
  858MOL0     H18398   4.185   1.629   9.101 -0.9547 -1.5530  1.5400
  858MOL0     H18399   4.036   1.564   9.038 -1.2431 -0.2001  4.4676
  858MOL0     H18400   3.910   1.809   9.357  1.2925 -1.6535  1.4698
  858MOL0     H18401   4.320   2.104   8.681  0.3433  0.8246  0.3242
  858MOL0     H18402   4.381   2.362   8.503  0.3356  0.0331  1.9470
  858MOL0     H18403   4.463   2.219   8.569 -0.8951  2.7531  1.4766
  858MOL0     H18404   4.446   2.223   8.400  0.0556  1.9187 -1.0647
  859MOL0     O18405   1.537   0.626   8.673  0.7282  0.2247  0.4828
  859MOL0     C18406   1.434   0.559   8.688  0.1425 -0.0701 -0.8240
  859MOL0     O18407   1.326   0.579   8.779 -0.6312 -0.4151 -0.2969
  859MOL0     C18408   1.313   0.709   8.829 -0.1690  0.4071  1.0021
  859MOL0     C18409   1.303   0.726   8.964 -1.0090 -0.4505 -0.1749
  859MOL0     C18410   1.294   0.855   9.016  0.4910 -0.2421 -0.3415
  859MOL0     C18411   1.282   0.974   8.932  0.1338  0.3561  0.1058
  859MOL0     O18412   1.291   1.100   8.980  0.1660  0.3985 -0.1128
  859MOL0     C18413   1.197   1.196   8.931  0.3880  0.0521 -0.2536
  859MOL0     C18414   1.182   1.296   9.046 -0.5243 -0.5573  0.0006
  859MOL0     C18415   1.068   1.395   9.028 -0.2678  0.5256 -0.3196
  859MOL0     C18416   1.101   1.502   8.918 -0.3750 -0.7096 -0.2554
  859MOL0     C18417   1.178   1.625   8.980  0.0697  1.0174  0.6307
  859MOL0     C18418   1.201   1.732   8.876 -0.3349  0.4035  0.0335
  859MOL0     C18419   1.290   1.840   8.945 -0.6994  0.5627  0.6653
  859MOL0     C18420   1.319   1.972   8.870  0.1207 -0.2571  0.4636
  859MOL0     N18421   1.427   1.968   8.769 -0.6767  0.1684  0.0554
  859MOL0     C18422   1.566   1.977   8.798  0.0242  0.7173 -0.6696
  859MOL0     C18423   1.634   1.936   8.685  0.3076 -0.6000  0.1008
  859MOL0     C18424   1.782   1.928   8.649  0.0934  0.4251  0.8188
  859MOL0     C18425   1.816   1.797   8.579  0.0766 -0.2589  0.9768
  859MOL0     C18426   1.962   1.760   8.554  0.9505 -0.3447  0.7558
  859MOL0     C18427   1.983   1.644   8.469  0.2347 -0.0427 -0.3233
  859MOL0     O18428   1.907   1.529   8.506  0.1688  0.9705  0.4593
  859MOL0     C18429   1.960   1.428   8.575  0.0182  0.6073 -0.7060
  859MOL0     C18430   1.932   1.413   8.715  0.9348  0.1157  0.0058
  859MOL0     C18431   2.006   1.310   8.785 -0.2514  0.5934  0.1739
  859MOL0     C18432   1.964   1.309   8.936  0.1016 -0.7349  0.2303
  859MOL0     C18433   2.097   1.221   8.731  0.3520  0.2960 -0.4780
  859MOL0     C18434   2.160   1.116   8.818 -0.3684  0.9654  0.2440
  859MOL0     O18435   2.207   1.158   8.947 -0.7514  0.9469 -0.3852
  859MOL0     C18436   2.223   1.061   9.049 -0.5045 -0.1942 -0.2124
  859MOL0     C18437   2.336   1.068   9.134 -0.1316 -0.9035  0.5244
  859MOL0     C18438   2.362   0.966   9.231 -0.0225 -0.4429 -0.4252
  859MOL0     C18439   2.273   0.860   9.252 -0.3772  0.8095 -0.1363
  859MOL0     O18440   2.292   0.793   9.374 -0.3231  0.2473  0.2954
  859MOL0     C18441   2.267   0.657   9.378  0.2970  0.8236 -0.2511
  859MOL0     C18442   2.332   0.611   9.515 -0.5346  0.5694  0.3325
  859MOL0     C18443   2.370   0.460   9.504  0.1526  0.5403  0.6989
  859MOL0     C18444   2.247   0.367   9.495 -1.1421 -0.6550  0.3244
  859MOL0     C18445   2.295   0.230   9.532 -0.2889  0.3110 -0.4993
  859MOL0     C18446   2.297   0.213   9.681  0.6718  0.5290 -0.5136
  859MOL0     C18447   2.229   0.077   9.719 -0.2318 -0.4340  0.4290
  859MOL0     C18448   2.259   0.043   9.866  1.2164  0.3220  0.3066
  859MOL0    Cl18449   2.099   0.017   9.944  0.0489  0.3429  0.3266
  859MOL0     C18450   2.158   0.856   9.172  0.2934 -0.3910  0.9826
  859MOL0     C18451   2.136   0.958   9.071  0.1809 -0.0508  0.4748
  859MOL0     O18452   2.160   1.000   8.773 -0.5366 -0.0851  0.5342
  859MOL0     C18453   2.126   1.237   8.600  0.1314  0.3524  0.6176
  859MOL0     C18454   2.052   1.334   8.522 -1.1242  0.0604 -0.3415
  859MOL0     N18455   1.534   1.916   8.589  0.1305  0.4665 -0.1324
  859MOL0     N18456   1.416   1.939   8.637 -0.4909 -0.1702 -0.4859
  859MOL0     C18457   1.289   0.956   8.791 -0.0596  0.3515 -0.4786
  859MOL0     C18458   1.297   0.815   8.739 -0.1060  0.4200 -0.3350
  859MOL0     C18459   1.420   0.443   8.608 -0.0010  0.4086 -0.1171
  859MOL0     C18460   1.423   0.448   8.467 -0.8651  0.0554 -0.3154
  859MOL0     C18461   1.388   0.338   8.397 -0.2394  0.6908  0.5258
  859MOL0     C18462   1.370   0.216   8.456 -1.0124  0.0930  0.1878
  859MOL0     O18463   1.348   0.110   8.369  0.1435 -0.6619  0.0017
  859MOL0     C18464   1.344  -0.021   8.421 -0.1142 -0.2516 -0.0322
  859MOL0     C18465   1.203  -0.066   8.449  0.1664  0.6787 -0.8438
  859MOL0     C18466   1.110  -0.074   8.328  0.2906 -0.4750  0.4524
  859MOL0     C18467   1.037   0.059   8.284 -0.8169 -0.1897 -0.3636
  859MOL0     C18468   1.003   0.047   8.139 -0.4720 -0.1343 -0.3069
  859MOL0     C18469   0.992   0.029   8.021 -0.8976  0.4162  1.1527
  859MOL0     C18470   1.362   0.212   8.595  0.8157  0.0794  0.4035
  859MOL0     C18471   1.391   0.323   8.670  0.1544 -0.0568  0.7048
  859MOL0     C18472   1.385   0.306   8.820  0.6863  0.5081 -0.0343
  859MOL0     H18473   1.312   0.641   9.031  0.7970  1.6473  2.4256
  859MOL0     H18474   1.300   0.873   9.123 -0.4932  1.4177 -0.5369
  859MOL0     H18475   1.102   1.148   8.905  0.8357 -0.6728 -0.6000
  859MOL0     H18476   1.231   1.242   8.838  0.9636  0.3770  0.1108
  859MOL0     H18477   1.160   1.242   9.138 -0.2950 -1.0142 -0.2105
  859MOL0     H18478   1.275   1.353   9.056  0.5932 -1.7503 -2.5618
  859MOL0     H18479   0.978   1.348   8.989  1.4013 -1.7224 -1.7784
  859MOL0     H18480   1.037   1.441   9.122 -0.2090  0.5972 -0.3356
  859MOL0     H18481   1.165   1.466   8.837  1.0452  0.9291  0.0845
  859MOL0     H18482   1.012   1.555   8.883 -1.0192  0.1010  2.4148
  859MOL0     H18483   1.267   1.597   9.039 -1.1038 -2.3101  1.0391
  859MOL0     H18484   1.109   1.669   9.053 -0.6772 -2.2318  2.0520
  859MOL0     H18485   1.248   1.702   8.782  0.4024 -1.1460  0.8621
  859MOL0     H18486   1.116   1.799   8.860  0.1045  1.0033  0.1625
  859MOL0     H18487   1.387   1.803   8.980 -1.0753 -0.7949  0.3418
  859MOL0     H18488   1.224   1.861   9.031 -3.8292 -5.3886  0.2342
  859MOL0     H18489   1.228   2.017   8.830 -0.8168 -0.0871  2.6421
  859MOL0     H18490   1.349   2.051   8.940  2.0422  1.1204 -1.7908
  859MOL0     H18491   1.620   1.994   8.890  1.8472 -1.5389 -1.2292
  859MOL0     H18492   1.843   1.941   8.739 -1.1280  2.5086  1.4028
  859MOL0     H18493   1.798   2.014   8.584 -0.2605 -1.8321 -2.5118
  859MOL0     H18494   1.773   1.709   8.629  2.9689 -3.4166 -1.5820
  859MOL0     H18495   1.775   1.812   8.479  2.7501  1.0852 -0.0213
  859MOL0     H18496   2.007   1.845   8.501 -1.0855  1.2076  1.3766
  859MOL0     H18497   2.004   1.745   8.653  4.6895 -0.9192 -0.7538
  859MOL0     H18498   1.971   1.666   8.362  1.3881 -1.5969 -0.8130
  859MOL0     H18499   2.088   1.617   8.484 -0.4198 -1.0643  3.4656
  859MOL0     H18500   1.850   1.472   8.754 -0.9988 -2.4090  0.0054
  859MOL0     H18501   1.920   1.211   8.958 -0.0904 -1.0006 -1.1713
  859MOL0     H18502   1.888   1.385   8.958  1.2742  0.3985  0.4474
  859MOL0     H18503   2.048   1.324   9.004  0.8182 -1.1727 -0.5344
  859MOL0     H18504   2.414   1.143   9.133 -1.6104  0.6995  0.4467
  859MOL0     H18505   2.448   0.973   9.296  0.3736 -0.2498 -0.9572
  859MOL0     H18506   2.161   0.630   9.376  0.3748  0.5183 -2.0572
  859MOL0     H18507   2.315   0.600   9.298 -0.0033 -1.0053  0.8173
  859MOL0     H18508   2.429   0.661   9.525 -0.6965  1.4327 -1.7964
  859MOL0     H18509   2.269   0.613   9.604  0.9590 -3.4048  1.6841
  859MOL0     H18510   2.427   0.430   9.593  1.4115  1.0736  0.0892
  859MOL0     H18511   2.439   0.443   9.421  0.3260  2.0624  0.5086
  859MOL0     H18512   2.198   0.361   9.397 -2.1054  0.7650  0.6995
  859MOL0     H18513   2.167   0.399   9.563  0.5447  0.6539  1.7620
  859MOL0     H18514   2.231   0.157   9.481 -0.3585 -0.7293  1.0200
  859MOL0     H18515   2.393   0.200   9.492 -1.6881 -1.9531 -2.5347
  859MOL0     H18516   2.246   0.287   9.744 -2.2253  0.3970 -2.5389
  859MOL0     H18517   2.403   0.211   9.709  0.6286  0.9407 -0.3133
  859MOL0     H18518   2.258  -0.002   9.649 -1.1276  0.4015 -0.9324
  859MOL0     H18519   2.122   0.087   9.700 -0.2564 -0.8232  0.3477
  859MOL0     H18520   2.306   0.125   9.922  2.1225 -0.5404  0.8460
  859MOL0     H18521   2.335  -0.036   9.867  1.3775  0.2996 -2.9620
  859MOL0     H18522   2.078   0.784   9.189 -1.1276  1.3601  2.1955
  859MOL0     H18523   2.047   0.970   9.010  0.8212  2.6327 -0.0632
  859MOL0     H18524   2.198   1.173   8.551 -2.0039 -0.0082 -2.3420
  859MOL0     H18525   2.065   1.341   8.414 -1.4489  1.2193 -0.3291
  859MOL0     H18526   1.300   1.037   8.720  0.0930  0.0652 -0.7840
  859MOL0     H18527   1.304   0.787   8.634  1.4530  0.1332 -0.1759
  859MOL0     H18528   1.459   0.542   8.426 -1.9098 -0.2671 -2.0379
  859MOL0     H18529   1.386   0.330   8.288 -1.4880  2.4644  0.3756
  859MOL0     H18530   1.390  -0.086   8.346 -0.0021  0.4209 -0.5587
  859MOL0     H18531   1.413  -0.039   8.504  1.8002  0.8995 -1.3073
  859MOL0     H18532   1.162   0.003   8.523 -1.2583 -0.1006 -0.8764
  859MOL0     H18533   1.205  -0.167   8.493 -2.5392  0.2736 -1.5120
  859MOL0     H18534   1.166  -0.113   8.242 -0.0670  1.6046 -0.8039
  859MOL0     H18535   1.028  -0.143   8.348 -0.1775 -0.1132 -0.2138
  859MOL0     H18536   1.096   0.147   8.311 -1.6109  0.2457 -0.0025
  859MOL0     H18537   0.951   0.066   8.352 -0.5673  2.8402 -0.2318
  859MOL0     H18538   1.003   0.024   7.914  2.2297 -0.4554  1.4230
  859MOL0     H18539   1.321   0.126   8.647 -2.3321  0.0400 -1.8072
  859MOL0     H18540   1.447   0.367   8.888 -0.2243  0.9236  0.4400
  859MOL0     H18541   1.284   0.338   8.847  1.2917  0.3564  2.6989
  859MOL0     H18542   1.403   0.204   8.855 -1.6292 -0.3526 -1.1915
  860MOL0     O18543   6.950   4.550   7.019 -0.0624  0.5042 -0.4923
  860MOL0     C18544   6.870   4.624   6.959  0.0891 -0.3612 -0.1710
  860MOL0     O18545   6.866   4.655   6.822 -0.8135 -0.3593  0.4848
  860MOL0     C18546   6.961   4.604   6.745 -0.5848  0.3552  0.4006
  860MOL0     C18547   7.093   4.626   6.769  0.5217 -0.4459  0.3616
  860MOL0     C18548   7.189   4.556   6.690 -0.4345  1.3395  0.0428
  860MOL0     C18549   7.158   4.486   6.574 -0.1601 -0.8592 -0.0227
  860MOL0     O18550   7.247   4.435   6.483 -0.8446 -0.2433  0.4326
  860MOL0     C18551   7.380   4.457   6.511 -0.4981  0.1253  0.4144
  860MOL0     C18552   7.467   4.420   6.387  0.2912  0.5283 -0.2049
  860MOL0     C18553   7.436   4.502   6.262  0.9346  0.0247 -0.4834
  860MOL0     C18554   7.521   4.437   6.143  0.2132 -0.3938  0.6602
  860MOL0     C18555   7.473   4.490   6.009 -0.3577 -0.6682 -0.1978
  860MOL0     C18556   7.559   4.419   5.902  0.3744 -0.7160  0.3474
  860MOL0     C18557   7.546   4.269   5.888 -0.1986 -0.6729  0.5153
  860MOL0     C18558   7.409   4.215   5.917  0.0914 -0.0937 -0.1117
  860MOL0     N18559   7.425   4.075   5.963  0.8640 -0.3722  0.4407
  860MOL0     C18560   7.365   4.025   6.073  0.8435 -0.2658  1.0434
  860MOL0     C18561   7.393   3.895   6.078 -0.8379 -0.5673 -1.0009
  860MOL0     C18562   7.357   3.795   6.186  0.4381  0.1274 -0.3878
  860MOL0     C18563   7.244   3.843   6.283 -0.2009 -0.2897  0.8680
  860MOL0     C18564   7.211   3.753   6.401 -0.3798 -0.2802  0.3576
  860MOL0     C18565   7.145   3.624   6.377 -0.3161  0.1282  0.3895
  860MOL0     O18566   7.233   3.518   6.345 -0.6389  0.4789  0.6048
  860MOL0     C18567   7.182   3.391   6.338  0.5837 -0.3395 -0.4160
  860MOL0     C18568   7.048   3.356   6.360  0.7903  0.6289  0.6247
  860MOL0     C18569   6.998   3.223   6.368  0.2380 -0.0846  0.5730
  860MOL0     C18570   6.857   3.192   6.424 -0.1606  0.2147 -0.3623
  860MOL0     C18571   7.098   3.121   6.369  1.3798 -0.1148  0.4529
  860MOL0     C18572   7.080   2.976   6.412 -0.5656 -0.2562 -0.1667
  860MOL0     O18573   7.194   2.911   6.454  0.1160  0.1575 -0.5049
  860MOL0     C18574   7.199   2.776   6.473 -0.6218  0.3832 -0.2052
  860MOL0     C18575   7.190   2.695   6.353 -0.6748  0.0970  0.3823
  860MOL0     C18576   7.220   2.560   6.363 -0.9646 -1.3649  1.3327
  860MOL0     C18577   7.253   2.497   6.485  0.1407 -0.9101 -0.1699
  860MOL0     O18578   7.302   2.379   6.505 -0.9884 -0.4802 -0.0254
  860MOL0     C18579   7.197   2.293   6.477  0.5854  0.4410  0.7627
  860MOL0     C18580   7.221   2.160   6.546 -0.1964 -0.6925 -0.7718
  860MOL0     C18581   7.329   2.081   6.479  0.3513 -0.3632 -0.6042
  860MOL0     C18582   7.310   1.928   6.525 -0.6522  0.5402 -0.1486
  860MOL0     C18583   7.359   1.903   6.665  0.2897  0.0683 -0.1400
  860MOL0     C18584   7.374   1.753   6.693  0.2604 -0.0428 -0.0730
  860MOL0     C18585   7.464   1.749   6.819 -0.0310 -0.3875 -0.3961
  860MOL0     C18586   7.509   1.605   6.860  0.2528 -0.0479 -0.1710
  860MOL0    Cl18587   7.626   1.596   7.003 -0.0628  0.3791 -0.4918
  860MOL0     C18588   7.260   2.578   6.600 -0.3527 -0.1350  0.1029
  860MOL0     C18589   7.225   2.717   6.598  0.4357 -0.1996 -0.3692
  860MOL0     O18590   6.973   2.924   6.418 -0.3167  0.2192  0.0792
  860MOL0     C18591   7.226   3.155   6.333 -0.0835 -0.6400 -0.4945
  860MOL0     C18592   7.276   3.289   6.321  0.0618  0.6184 -0.6534
  860MOL0     N18593   7.463   3.862   5.963 -0.9514 -0.5646  0.3425
  860MOL0     N18594   7.480   3.973   5.896 -0.4200  0.1629  0.6092
  860MOL0     C18595   7.023   4.470   6.547 -0.5746 -0.5891 -0.6674
  860MOL0     C18596   6.927   4.531   6.630  0.3368 -0.3432 -0.5906
  860MOL0     C18597   6.762   4.680   7.048 -0.2862  0.4904  0.8166
  860MOL0     C18598   6.636   4.701   6.985  0.7447 -0.6144 -0.1627
  860MOL0     C18599   6.528   4.764   7.048 -0.0265  0.9841  0.8304
  860MOL0     C18600   6.544   4.818   7.175  0.6867 -0.8324  0.1657
  860MOL0     O18601   6.444   4.881   7.247  0.2901  0.2649  0.1127
  860MOL0     C18602   6.443   5.028   7.248  0.8496 -0.2629 -1.0956
  860MOL0     C18603   6.370   5.068   7.120  0.2266  0.1175  0.2942
  860MOL0     C18604   6.233   5.000   7.086  0.3305 -0.0155  0.7734
  860MOL0     C18605   6.139   5.017   7.205 -0.0534 -0.8548 -0.0972
  860MOL0     C18606   6.119   5.157   7.258 -0.1077 -0.2533 -0.0300
  860MOL0     C18607   6.122   5.261   7.318  0.1673 -0.0766  0.4981
  860MOL0     C18608   6.669   4.797   7.238  0.6290  0.0033 -0.0706
  860MOL0     C18609   6.776   4.725   7.182  0.7964  0.5630  0.9426
  860MOL0     C18610   6.908   4.733   7.251  0.3252  0.1648  0.7602
  860MOL0     H18611   7.128   4.672   6.861  0.4048 -3.6598  2.1843
  860MOL0     H18612   7.294   4.568   6.715 -0.5141 -0.8022  1.6987
  860MOL0     H18613   7.408   4.397   6.598  0.6934 -1.1796 -0.8008
  860MOL0     H18614   7.405   4.560   6.537  1.7277 -0.7560  2.1211
  860MOL0     H18615   7.574   4.427   6.411  0.5880 -1.4624 -0.7344
  860MOL0     H18616   7.449   4.315   6.360  2.5992 -0.0506  0.2381
  860MOL0     H18617   7.333   4.481   6.232  0.9845 -0.0865 -0.5771
  860MOL0     H18618   7.448   4.610   6.277 -2.6852  0.1899  2.8517
  860MOL0     H18619   7.630   4.444   6.149  0.1170  0.2709  1.9859
  860MOL0     H18620   7.494   4.331   6.132 -1.1666  0.0507 -0.5864
  860MOL0     H18621   7.509   4.592   5.998  1.2644 -1.2580 -0.6337
  860MOL0     H18622   7.365   4.485   5.992 -0.3021 -1.6687 -0.3635
  860MOL0     H18623   7.532   4.466   5.807  0.8737  0.8108  0.9311
  860MOL0     H18624   7.663   4.445   5.920 -0.2884  3.5618 -0.8776
  860MOL0     H18625   7.617   4.229   5.961  1.0820  1.0042  0.2556
  860MOL0     H18626   7.571   4.233   5.787  1.2476  2.3458 -0.3303
  860MOL0     H18627   7.351   4.280   5.983 -2.7634  2.6204 -4.7336
  860MOL0     H18628   7.354   4.225   5.823  0.7348  1.3944 -0.3484
  860MOL0     H18629   7.295   4.066   6.146 -1.1123 -2.1958  0.3964
  860MOL0     H18630   7.452   3.793   6.241  1.1918 -0.7954 -1.6725
  860MOL0     H18631   7.350   3.693   6.148  1.0240  0.0173 -0.2123
  860MOL0     H18632   7.293   3.932   6.324  0.7881  0.4270 -1.6401
  860MOL0     H18633   7.156   3.875   6.228  0.1313  2.2953  1.7134
  860MOL0     H18634   7.305   3.721   6.446  0.6026 -1.5391 -2.3732
  860MOL0     H18635   7.142   3.814   6.460  1.2798  0.9906  1.0646
  860MOL0     H18636   7.095   3.599   6.471  1.4679  2.4808  2.0840
  860MOL0     H18637   7.069   3.642   6.301 -0.5440  3.6720  1.3057
  860MOL0     H18638   6.977   3.436   6.374 -0.4652 -0.3655  0.1343
  860MOL0     H18639   6.815   3.099   6.385 -2.1800  0.6558  0.6730
  860MOL0     H18640   6.787   3.276   6.429  0.6300  0.8058  3.5989
  860MOL0     H18641   6.881   3.161   6.526  1.4910  1.4564 -0.3270
  860MOL0     H18642   7.178   2.737   6.254 -0.8563  0.9273  0.7522
  860MOL0     H18643   7.217   2.498   6.274 -0.3006  1.5360 -0.8609
  860MOL0     H18644   7.095   2.323   6.502 -0.4387 -0.7403 -1.6547
  860MOL0     H18645   7.180   2.275   6.370 -0.8712 -2.2363  1.3526
  860MOL0     H18646   7.253   2.191   6.645 -1.8760 -3.6494  0.8557
  860MOL0     H18647   7.123   2.111   6.536 -0.3996 -0.5266  0.2845
  860MOL0     H18648   7.428   2.123   6.503  1.2865 -2.0853 -1.2275
  860MOL0     H18649   7.328   2.075   6.370 -4.4880 -1.4413 -0.7278
  860MOL0     H18650   7.374   1.868   6.459 -1.0015  1.4414 -1.3528
  860MOL0     H18651   7.207   1.895   6.506 -1.3615  1.5351  1.7207
  860MOL0     H18652   7.452   1.957   6.686  0.5229 -0.4427  0.1470
  860MOL0     H18653   7.291   1.939   6.743  1.0384 -2.5438  1.8370
  860MOL0     H18654   7.415   1.708   6.602 -1.3408 -3.7896  0.8525
  860MOL0     H18655   7.279   1.700   6.699 -0.7235  1.5925 -0.7848
  860MOL0     H18656   7.420   1.796   6.907 -1.1408 -0.7841 -0.7219
  860MOL0     H18657   7.564   1.791   6.802 -1.7120  2.9921 -3.4147
  860MOL0     H18658   7.568   1.560   6.779 -0.0090 -1.8089  0.5844
  860MOL0     H18659   7.420   1.546   6.882  2.0145 -2.3122  1.2804
  860MOL0     H18660   7.285   2.539   6.699 -4.2659  1.1934  1.8374
  860MOL0     H18661   7.236   2.779   6.686 -0.9218  0.3770 -0.5797
  860MOL0     H18662   7.309   3.085   6.337  1.8363  1.5304 -0.3468
  860MOL0     H18663   7.380   3.316   6.304  0.5885 -0.1741  1.1789
  860MOL0     H18664   6.990   4.416   6.459 -0.7895  0.4928 -1.2717
  860MOL0     H18665   6.823   4.530   6.599 -0.0509  2.3693  0.3008
  860MOL0     H18666   6.610   4.669   6.885  0.4910 -0.5960 -0.1054
  860MOL0     H18667   6.433   4.757   6.997 -0.8492 -0.6817  2.4643
  860MOL0     H18668   6.405   5.076   7.338  1.2082  1.1401 -1.6661
  860MOL0     H18669   6.548   5.060   7.249  1.2422 -1.0614  3.4971
  860MOL0     H18670   6.435   5.040   7.037  2.9209  3.3186  1.0657
  860MOL0     H18671   6.359   5.177   7.114  1.0410  0.1502 -0.8232
  860MOL0     H18672   6.187   5.047   6.998  0.9222  1.3461  1.1482
  860MOL0     H18673   6.251   4.900   7.045 -2.5526  0.1387 -1.2312
  860MOL0     H18674   6.150   4.951   7.291  1.7875 -0.2465  0.1780
  860MOL0     H18675   6.040   4.992   7.164 -0.6777  0.0392  0.8204
  860MOL0     H18676   6.140   5.358   7.362  0.3712 -0.5023  1.3805
  860MOL0     H18677   6.702   4.837   7.333  0.4193  1.8754 -0.7387
  860MOL0     H18678   6.897   4.788   7.345  1.1183 -2.0869  2.2410
  860MOL0     H18679   6.939   4.630   7.268 -1.1821 -0.5141 -0.3614
  860MOL0     H18680   6.971   4.786   7.179 -0.2361 -1.1525 -0.7619
  861MOL0     O18681   9.433   2.566  11.170  0.0351  0.0449 -0.4611
  861MOL0     C18682   9.460   2.665  11.111  0.2183 -0.6613 -0.7828
  861MOL0     O18683   9.465   2.792  11.180 -0.6388  0.9031 -0.5231
  861MOL0     C18684   9.491   2.793  11.317 -0.1618 -0.8152  0.4928
  861MOL0     C18685   9.597   2.871  11.356 -0.4457 -0.0363 -0.4988
  861MOL0     C18686   9.632   2.884  11.495 -0.1930 -0.1491  0.1750
  861MOL0     C18687   9.565   2.813  11.592  0.3870 -0.3919  0.4038
  861MOL0     O18688   9.591   2.842  11.719 -0.2664  0.0853  0.2149
  861MOL0     C18689   9.718   2.802  11.768 -0.7684  0.4287 -0.3080
  861MOL0     C18690   9.779   2.897  11.868  0.1189 -0.7122 -0.0839
  861MOL0     C18691   9.715   2.905  12.008 -0.7105 -0.1462  0.7171
  861MOL0     C18692   9.657   2.764  12.067 -1.1587  0.1228  0.5675
  861MOL0     C18693   9.631   2.757  12.217 -0.5262  0.7253  1.0594
  861MOL0     C18694   9.509   2.826  12.279 -0.4065 -0.3810  0.3801
  861MOL0     C18695   9.477   2.765  12.415  0.1321  0.1468  0.3238
  861MOL0     C18696   9.481   2.864  12.527 -0.3917 -0.5582  0.3758
  861MOL0     N18697   9.450   2.785  12.644  0.4296 -0.0301  0.0166
  861MOL0     C18698   9.542   2.739  12.728  0.6541  0.3247  0.1522
  861MOL0     C18699   9.472   2.659  12.810  0.4879  0.1467  0.1612
  861MOL0     C18700   9.537   2.564  12.917  0.0306 -0.0509 -0.6058
  861MOL0     C18701   9.660   2.625  12.982 -0.2755 -0.2139  0.3814
  861MOL0     C18702   9.724   2.553  13.096  0.4292  1.2548  0.1278
  861MOL0     C18703   9.817   2.631  13.189  0.8629 -0.5214 -0.6523
  861MOL0     O18704   9.889   2.735  13.136  0.4055  0.7001  0.0660
  861MOL0     C18705   9.984   2.718  13.046 -0.4502  0.2107  0.1612
  861MOL0     C18706  10.028   2.825  12.967 -0.8960 -0.6055  0.0542
  861MOL0     C18707  10.142   2.822  12.886 -1.8764 -0.1795  0.6113
  861MOL0     C18708  10.168   2.946  12.796  0.5610  0.2724  0.0126
  861MOL0     C18709  10.220   2.699  12.875 -0.0495 -0.4486 -0.6103
  861MOL0     C18710  10.344   2.681  12.801  0.1505  0.5599 -0.5850
  861MOL0     O18711  10.438   2.597  12.857 -0.3065  0.7439  0.0742
  861MOL0     C18712  10.552   2.566  12.775  0.8757 -0.0948 -1.4420
  861MOL0     C18713  10.556   2.442  12.714  0.2897 -0.1362  0.7259
  861MOL0     C18714  10.677   2.406  12.651 -0.2526 -0.9902 -0.0059
  861MOL0     C18715  10.789   2.497  12.651  0.5295  0.3988  0.3328
  861MOL0     O18716  10.908   2.485  12.585  0.3009  0.4908 -0.1183
  861MOL0     C18717  10.970   2.358  12.554  0.3661 -0.0043 -0.5292
  861MOL0     C18718  10.972   2.333  12.403 -0.4565 -0.7827  0.0479
  861MOL0     C18719  11.030   2.196  12.366  0.7749  0.3025  0.4037
  861MOL0     C18720  11.174   2.164  12.414  0.1407  0.0539 -0.2101
  861MOL0     C18721  11.242   2.041  12.348 -0.6465  0.3497  0.6784
  861MOL0     C18722  11.166   1.906  12.383 -0.7201  0.1513 -0.4895
  861MOL0     C18723  11.243   1.795  12.311  0.1951 -0.5089  0.3865
  861MOL0     C18724  11.194   1.655  12.359 -0.5418 -0.1476  0.4272
  861MOL0    Cl18725  11.168   1.624  12.530 -0.3338  0.3630 -0.5453
  861MOL0     C18726  10.780   2.616  12.724  0.5124  0.3046  0.5988
  861MOL0     C18727  10.652   2.658  12.767  0.1488 -0.0319  0.2897
  861MOL0     O18728  10.347   2.728  12.695  0.1287 -0.1655 -0.2379
  861MOL0     C18729  10.166   2.589  12.952 -0.7229 -0.1244  0.6412
  861MOL0     C18730  10.051   2.594  13.037 -0.6624  1.1708  0.3790
  861MOL0     N18731   9.335   2.672  12.782 -0.6821 -0.0752  0.7578
  861MOL0     N18732   9.327   2.755  12.688  0.8923  0.8003  1.0651
  861MOL0     C18733   9.457   2.735  11.557 -0.0972 -0.1105  0.9256
  861MOL0     C18734   9.418   2.723  11.418 -0.1838 -0.1110 -0.9461
  861MOL0     C18735   9.458   2.667  10.961 -0.5247  0.5349 -0.3257
  861MOL0     C18736   9.414   2.775  10.889  0.0362 -0.4692 -0.4245
  861MOL0     C18737   9.403   2.767  10.751  0.2788  0.0017  0.0956
  861MOL0     C18738   9.460   2.658  10.684  0.8021 -0.3258  0.5608
  861MOL0     O18739   9.462   2.669  10.539  0.0181 -0.5870  0.2145
  861MOL0     C18740   9.542   2.570  10.470 -0.2079  0.4549  1.0902
  861MOL0     C18741   9.561   2.598  10.320  0.9219  0.0464  0.5270
  861MOL0     C18742   9.418   2.594  10.259 -0.3849  0.0877 -0.1128
  861MOL0     C18743   9.412   2.593  10.108 -0.3434  0.1375  0.7523
  861MOL0     C18744   9.518   2.537  10.034  0.1503 -0.7542 -0.0349
  861MOL0     C18745   9.615   2.487   9.980  0.6683  0.3831  0.0760
  861MOL0     C18746   9.512   2.557  10.754  0.5001  0.0588 -0.1193
  861MOL0     C18747   9.517   2.553  10.893  0.3184 -0.5841 -0.3491
  861MOL0     C18748   9.580   2.431  10.959  0.8253 -0.2719 -0.0212
  861MOL0     H18749   9.668   2.915  11.287  0.7792 -2.3125 -0.7817
  861MOL0     H18750   9.708   2.956  11.523 -0.3254  1.3074 -2.8370
  861MOL0     H18751   9.779   2.789  11.678 -0.2093 -1.4631  0.2991
  861MOL0     H18752   9.714   2.704  11.817  0.7042  2.5424  4.6737
  861MOL0     H18753   9.881   2.864  11.889 -1.0481 -2.7579  3.0450
  861MOL0     H18754   9.783   2.993  11.816 -1.2991 -1.1313 -1.0173
  861MOL0     H18755   9.791   2.931  12.082  0.3459 -0.4803 -0.2130
  861MOL0     H18756   9.640   2.983  11.995 -0.9315 -0.4406  0.1797
  861MOL0     H18757   9.570   2.726  12.012 -1.9212  3.3670 -0.7334
  861MOL0     H18758   9.736   2.690  12.052 -2.2227 -0.9971  0.4128
  861MOL0     H18759   9.722   2.781  12.272 -0.2108 -0.3031  1.0124
  861MOL0     H18760   9.636   2.650  12.240  1.5423  0.9251  1.7702
  861MOL0     H18761   9.543   2.930  12.273  1.9961 -1.1930 -2.7419
  861MOL0     H18762   9.420   2.818  12.215  0.9784  1.3993 -1.9315
  861MOL0     H18763   9.541   2.680  12.441  2.6878  1.4496 -1.2961
  861MOL0     H18764   9.376   2.725  12.400  0.0970 -1.0860  3.2433
  861MOL0     H18765   9.580   2.909  12.537  0.0757 -0.9980 -1.7558
  861MOL0     H18766   9.412   2.947  12.516  1.0804  0.8701  1.4582
  861MOL0     H18767   9.648   2.757  12.713 -0.0252  2.7064 -2.5268
  861MOL0     H18768   9.575   2.471  12.873  0.4593 -0.1388 -0.0657
  861MOL0     H18769   9.462   2.536  12.992  0.1932  2.2309  0.4922
  861MOL0     H18770   9.731   2.637  12.900  0.0396  1.9052  0.9120
  861MOL0     H18771   9.635   2.725  13.021 -1.2441  0.1147 -1.0034
  861MOL0     H18772   9.648   2.519  13.167 -0.8969  0.0818 -1.7453
  861MOL0     H18773   9.784   2.466  13.066  0.3021 -0.2975  3.8831
  861MOL0     H18774   9.748   2.676  13.262 -0.3694  1.6693 -3.0164
  861MOL0     H18775   9.882   2.567  13.250 -0.5607 -1.5954 -0.2025
  861MOL0     H18776   9.970   2.916  12.979  1.0397  0.7417 -0.3491
  861MOL0     H18777  10.223   2.922  12.704  0.2146  1.4459 -0.5100
  861MOL0     H18778  10.228   3.005  12.867 -1.0253  1.3363  0.5110
  861MOL0     H18779  10.075   2.999  12.775  0.3809 -0.2597 -0.5576
  861MOL0     H18780  10.463   2.386  12.718  0.0442  0.1284 -0.6760
  861MOL0     H18781  10.689   2.310  12.601 -1.2192 -1.6139  0.9137
  861MOL0     H18782  11.071   2.360  12.596  1.1094  1.0288 -2.2692
  861MOL0     H18783  10.916   2.276  12.603 -0.1966  0.4926 -0.3154
  861MOL0     H18784  10.867   2.331  12.371 -0.9674 -0.1941  1.5860
  861MOL0     H18785  11.028   2.409  12.346 -0.0874  0.1711  1.6278
  861MOL0     H18786  11.038   2.185  12.257 -1.6096 -0.8997  0.2872
  861MOL0     H18787  10.966   2.120  12.410  1.4121  0.5815  1.8497
  861MOL0     H18788  11.153   2.151  12.521  1.2311  0.7394  0.1028
  861MOL0     H18789  11.242   2.250  12.405  0.7015 -0.4825 -1.2382
  861MOL0     H18790  11.240   2.052  12.239  3.5343 -1.7357  0.1484
  861MOL0     H18791  11.347   2.037  12.378 -0.6963 -0.8060  0.7688
  861MOL0     H18792  11.063   1.905  12.344 -0.3229 -0.6913 -1.5492
  861MOL0     H18793  11.163   1.893  12.492 -1.5861  1.6528 -0.2987
  861MOL0     H18794  11.350   1.810  12.326 -0.3022  0.9528  2.9800
  861MOL0     H18795  11.230   1.810  12.203  1.1539  1.3393  0.4902
  861MOL0     H18796  11.263   1.580  12.320 -0.9739 -0.8064  0.9092
  861MOL0     H18797  11.100   1.632  12.308 -0.2657 -0.6359  0.1368
  861MOL0     H18798  10.859   2.689  12.708  0.2098  0.3095 -1.0467
  861MOL0     H18799  10.645   2.755  12.815 -1.2046  0.6008 -1.1200
  861MOL0     H18800  10.214   2.492  12.953  1.8275  0.8642 -3.1654
  861MOL0     H18801  10.037   2.502  13.093  0.6700  0.5947 -0.1951
  861MOL0     H18802   9.412   2.679  11.639  2.2973 -2.0395  1.0685
  861MOL0     H18803   9.344   2.651  11.386 -1.2340  1.0737 -1.2875
  861MOL0     H18804   9.377   2.858  10.948 -0.7396 -1.8481  1.0964
  861MOL0     H18805   9.359   2.851  10.699 -1.7437 -0.9685  0.1225
  861MOL0     H18806   9.646   2.575  10.503  0.0800 -0.2381  0.3202
  861MOL0     H18807   9.504   2.468  10.475  3.1248 -1.0656 -0.8509
  861MOL0     H18808   9.627   2.525  10.274  4.6562  2.5802  1.4267
  861MOL0     H18809   9.594   2.701  10.308 -0.0373  0.1336 -1.8960
  861MOL0     H18810   9.359   2.507  10.291 -0.6437  0.9711  1.9922
  861MOL0     H18811   9.376   2.686  10.299 -0.5888 -0.4232  0.9015
  861MOL0     H18812   9.414   2.699  10.080  4.2081  0.0127 -0.0822
  861MOL0     H18813   9.321   2.541  10.077 -0.5682  0.3914  0.9752
  861MOL0     H18814   9.693   2.434   9.929  1.8086  0.0524  2.0781
  861MOL0     H18815   9.554   2.477  10.694  0.8755  0.6096 -0.6024
  861MOL0     H18816   9.658   2.466  11.027 -0.1034 -0.5217  1.2133
  861MOL0     H18817   9.501   2.378  11.012  0.6413  1.0469  1.0693
  861MOL0     H18818   9.634   2.367  10.888 -0.3332 -2.2092  0.7671
  862MOL0     O18819  11.464   1.270   4.189 -0.0261  0.5010  0.4048
  862MOL0     C18820  11.507   1.339   4.279 -0.2511 -0.6720 -0.6727
  862MOL0     O18821  11.643   1.340   4.317 -0.6429  1.0964 -0.0839
  862MOL0     C18822  11.734   1.258   4.256  0.6188 -0.0673 -0.7121
  862MOL0     C18823  11.830   1.206   4.343 -0.1161  0.5077  0.2442
  862MOL0     C18824  11.936   1.123   4.292  0.2617  0.7612 -0.0932
  862MOL0     C18825  11.939   1.080   4.155  0.2300 -0.0044  0.4331
  862MOL0     O18826  12.034   0.983   4.113 -0.2209 -0.2406  0.1237
  862MOL0     C18827  12.159   0.984   4.175 -0.4327  0.0327  0.7126
  862MOL0     C18828  12.274   0.928   4.095  0.2718  0.2448  0.0558
  862MOL0     C18829  12.290   1.004   3.968  1.0771  0.4420  0.4559
  862MOL0     C18830  12.202   0.942   3.858 -0.8886  0.3423  0.9220
  862MOL0     C18831  12.263   0.966   3.716  0.6277 -0.2670 -0.4671
  862MOL0     C18832  12.168   0.934   3.599  0.5465 -0.1361  0.6258
  862MOL0     C18833  12.241   0.935   3.461 -0.1235  0.9244 -0.1327
  862MOL0     C18834  12.174   0.854   3.357 -0.7204 -0.3484  0.4784
  862MOL0     N18835  12.276   0.782   3.270 -0.1152  1.1428  0.7032
  862MOL0     C18836  12.249   0.656   3.228 -0.1501  0.5703 -0.7038
  862MOL0     C18837  12.336   0.635   3.131 -0.3520  0.5578 -0.5553
  862MOL0     C18838  12.356   0.511   3.037  0.1973  0.3088 -0.8338
  862MOL0     C18839  12.487   0.447   3.083  0.4195  0.3432  0.5925
  862MOL0     C18840  12.538   0.319   3.004  0.0798 -0.8429  0.4992
  862MOL0     C18841  12.432   0.217   2.957  0.4813 -0.9700  1.4644
  862MOL0     O18842  12.380   0.253   2.830  0.0676  0.1904 -0.7077
  862MOL0     C18843  12.425   0.216   2.711 -0.9365  0.2176 -0.3015
  862MOL0     C18844  12.365   0.267   2.596  0.5212  0.0066 -0.0952
  862MOL0     C18845  12.424   0.249   2.463  0.1533  1.0123 -0.3998
  862MOL0     C18846  12.357   0.335   2.353  0.5306 -0.2064 -0.3598
  862MOL0     C18847  12.541   0.174   2.444 -0.7587  0.4408  0.1908
  862MOL0     C18848  12.608   0.177   2.316 -0.2902  0.2508  0.5842
  862MOL0     O18849  12.639   0.050   2.256 -0.4080 -0.7715  0.6355
  862MOL0     C18850  12.696   0.044   2.129 -0.0933 -0.1683 -0.0465
  862MOL0     C18851  12.656   0.130   2.022 -0.3251  0.3546  0.6199
  862MOL0     C18852  12.709   0.113   1.893 -0.0082  1.2264 -0.3143
  862MOL0     C18853  12.804   0.017   1.875 -0.5630  0.0840 -0.1967
  862MOL0     O18854  12.849   0.017   1.749  0.1937  0.6661  0.1260
  862MOL0     C18855  12.987  -0.008   1.722 -0.2132  1.0397  0.3421
  862MOL0     C18856  12.999  -0.051   1.577  0.4792 -0.1315  0.2984
  862MOL0     C18857  13.135  -0.080   1.511 -0.5694  0.0936 -0.5305
  862MOL0     C18858  13.221  -0.170   1.600  0.1593  0.2245 -0.3399
  862MOL0     C18859  13.345  -0.234   1.531  0.7724 -0.1801  0.8734
  862MOL0     C18860  13.460  -0.261   1.627  0.0264 -0.4546 -0.3531
  862MOL0     C18861  13.435  -0.383   1.724 -0.4652 -0.1566 -0.6515
  862MOL0     C18862  13.573  -0.415   1.800  0.6705 -0.1451  0.6695
  862MOL0    Cl18863  13.608  -0.277   1.904 -0.6373  0.1190 -0.0943
  862MOL0     C18864  12.832  -0.080   1.968  0.4684  0.6367  0.0738
  862MOL0     C18865  12.785  -0.062   2.098 -0.5621  0.5216 -0.2572
  862MOL0     O18866  12.645   0.281   2.269  0.2220  0.4510 -0.7957
  862MOL0     C18867  12.598   0.112   2.558 -0.1637  0.5617 -0.1228
  862MOL0     C18868  12.543   0.135   2.686  0.1449  0.8133 -0.0237
  862MOL0     N18869  12.420   0.748   3.113  0.5904  0.5056 -0.1967
  862MOL0     N18870  12.385   0.827   3.209  0.1120 -0.3921 -0.0998
  862MOL0     C18871  11.835   1.126   4.080 -0.5432  0.0282  0.8113
  862MOL0     C18872  11.745   1.223   4.125  0.4246  0.0741 -0.9183
  862MOL0     C18873  11.409   1.418   4.366  0.9795 -0.9069 -0.0209
  862MOL0     C18874  11.270   1.369   4.371 -0.2052  0.7089 -1.0175
  862MOL0     C18875  11.156   1.441   4.427 -0.8135 -0.1659  0.3284
  862MOL0     C18876  11.184   1.551   4.505  0.4910 -0.8862  0.8311
  862MOL0     O18877  11.074   1.604   4.565  0.2225  0.2619  0.1369
  862MOL0     C18878  11.093   1.714   4.658 -0.2518 -0.1515  0.6842
  862MOL0     C18879  10.953   1.768   4.705  0.3208  0.5559  0.1021
  862MOL0     C18880  10.876   1.668   4.786  0.2938  1.1746  0.0038
  862MOL0     C18881  10.786   1.734   4.890 -1.0069  0.1618 -0.3148
  862MOL0     C18882  10.850   1.764   5.020 -0.2413 -0.0987  0.1739
  862MOL0     C18883  10.894   1.790   5.133 -0.1310  0.3534 -0.1851
  862MOL0     C18884  11.318   1.602   4.503  0.9811 -0.2874 -0.7191
  862MOL0     C18885  11.428   1.544   4.428  0.1137 -0.2882  0.2189
  862MOL0     C18886  11.557   1.625   4.433  0.0888 -0.4749  0.0865
  862MOL0     H18887  11.832   1.242   4.446 -2.6680 -2.0976  1.3456
  862MOL0     H18888  12.020   1.097   4.355  2.0998 -2.6888 -3.5236
  862MOL0     H18889  12.158   0.926   4.267  0.0663  0.4427  0.9803
  862MOL0     H18890  12.195   1.086   4.195  1.3095 -0.1245 -1.2221
  862MOL0     H18891  12.360   0.929   4.163 -0.7852 -1.9923  1.5530
  862MOL0     H18892  12.259   0.821   4.079 -1.9815  0.2605  1.5560
  862MOL0     H18893  12.253   1.105   3.985 -1.0036 -0.1041 -0.4725
  862MOL0     H18894  12.398   1.009   3.951  1.1186 -0.7014  0.2524
  862MOL0     H18895  12.173   0.837   3.873 -2.0186  0.9261  3.4508
  862MOL0     H18896  12.108   0.997   3.869 -1.7228 -0.8902  0.1570
  862MOL0     H18897  12.354   0.907   3.705  2.1793  1.3120  2.7225
  862MOL0     H18898  12.292   1.069   3.694  0.3935 -0.3627 -1.2637
  862MOL0     H18899  12.140   0.829   3.617  1.4570 -0.5151 -0.0638
  862MOL0     H18900  12.078   0.996   3.588 -1.1723 -2.8967 -3.1920
  862MOL0     H18901  12.343   0.900   3.480 -0.4002  0.4221  0.4582
  862MOL0     H18902  12.249   1.042   3.440 -0.4863  0.8906 -0.4498
  862MOL0     H18903  12.095   0.789   3.397 -2.7192 -0.8149 -3.7073
  862MOL0     H18904  12.119   0.922   3.292 -0.8756 -1.1255 -0.2252
  862MOL0     H18905  12.181   0.577   3.259 -2.6058  2.1861 -1.6091
  862MOL0     H18906  12.372   0.526   2.930  1.9360  2.0773 -0.3799
  862MOL0     H18907  12.276   0.439   3.058  1.9127 -0.8717  2.3839
  862MOL0     H18908  12.573   0.513   3.097  2.1243 -1.8050  0.8114
  862MOL0     H18909  12.470   0.424   3.188 -1.1066  4.7169  1.5291
  862MOL0     H18910  12.595   0.362   2.921  0.2270 -0.3552  0.8486
  862MOL0     H18911  12.612   0.271   3.068 -0.8793 -2.3888  0.5286
  862MOL0     H18912  12.472   0.115   2.955 -1.0304 -1.6252 -1.9312
  862MOL0     H18913  12.360   0.216   3.040  0.5570  3.9401  1.8641
  862MOL0     H18914  12.277   0.330   2.600 -0.5137 -1.4601  2.8605
  862MOL0     H18915  12.402   0.434   2.338  0.4790 -0.2685 -0.9569
  862MOL0     H18916  12.256   0.368   2.378  0.9345  1.9007 -1.3257
  862MOL0     H18917  12.347   0.272   2.264  1.8368 -1.4990  0.3567
  862MOL0     H18918  12.577   0.203   2.037  1.0897  2.6958 -2.2692
  862MOL0     H18919  12.687   0.177   1.809  0.0023  2.2891  0.4798
  862MOL0     H18920  13.048   0.079   1.747  2.9075 -1.6470  2.9360
  862MOL0     H18921  13.020  -0.088   1.788 -3.1019 -0.0122  0.6594
  862MOL0     H18922  12.929  -0.128   1.544  0.4241  1.1928 -3.0722
  862MOL0     H18923  12.964   0.034   1.517  1.7248  1.4605  1.7153
  862MOL0     H18924  13.190   0.014   1.506 -3.7090  2.3195  2.2055
  862MOL0     H18925  13.138  -0.128   1.412  0.3614 -2.7082  0.7464
  862MOL0     H18926  13.161  -0.251   1.642 -1.1853  1.7323  0.8008
  862MOL0     H18927  13.249  -0.116   1.691 -0.6044 -1.5188  0.9735
  862MOL0     H18928  13.309  -0.329   1.491  0.0099  1.2228 -1.9702
  862MOL0     H18929  13.379  -0.174   1.447 -1.5895  1.5841  1.0941
  862MOL0     H18930  13.491  -0.168   1.675  2.0959  0.3222 -2.9535
  862MOL0     H18931  13.546  -0.281   1.562  1.5123  1.3779  0.9377
  862MOL0     H18932  13.391  -0.466   1.668 -0.7016  0.6846 -1.7474
  862MOL0     H18933  13.362  -0.358   1.801 -0.1719  2.4012 -1.1148
  862MOL0     H18934  13.650  -0.424   1.723  1.2765 -0.8265  1.3369
  862MOL0     H18935  13.570  -0.502   1.866 -0.7780 -0.9852 -0.4610
  862MOL0     H18936  12.884  -0.173   1.949  0.2668  0.6412 -0.4982
  862MOL0     H18937  12.813  -0.122   2.184 -1.7864  2.9234  1.9598
  862MOL0     H18938  12.684   0.050   2.539 -1.5149 -0.3546 -4.2929
  862MOL0     H18939  12.600   0.089   2.766  1.4061 -2.3728 -2.5112
  862MOL0     H18940  11.832   1.092   3.977  0.3447 -0.6249  0.9876
  862MOL0     H18941  11.669   1.262   4.058 -0.7441 -2.1417 -0.9711
  862MOL0     H18942  11.249   1.275   4.322  1.8271 -0.9318  1.0565
  862MOL0     H18943  11.057   1.402   4.408 -1.2731  1.9180 -2.1826
  862MOL0     H18944  11.152   1.674   4.742  3.2659 -1.2218 -2.0377
  862MOL0     H18945  11.150   1.798   4.618 -4.0658  3.0728  1.4400
  862MOL0     H18946  10.892   1.818   4.629  1.8364  3.1582  0.4722
  862MOL0     H18947  10.981   1.855   4.766  3.5975  0.5956 -1.2363
  862MOL0     H18948  10.809   1.613   4.720 -1.7927  0.3479  2.6685
  862MOL0     H18949  10.947   1.599   4.833 -1.5223  0.7645  2.3093
  862MOL0     H18950  10.696   1.674   4.909 -1.6875  0.5233 -2.1633
  862MOL0     H18951  10.746   1.829   4.853 -4.7152 -0.7648  0.8877
  862MOL0     H18952  10.925   1.806   5.234  1.1210  0.7171 -0.6111
  862MOL0     H18953  11.346   1.690   4.560 -2.2726  0.4508 -0.0838
  862MOL0     H18954  11.645   1.582   4.481  3.4669  2.4538 -2.9208
  862MOL0     H18955  11.598   1.645   4.334 -0.1201  4.5169  0.7282
  862MOL0     H18956  11.538   1.723   4.477 -0.5653  0.3134 -1.8294
  863MOL0     O18957   4.683   7.185   3.894 -1.0118  0.0681 -0.5128
  863MOL0     C18958   4.606   7.201   3.991  0.7745  0.3005  0.0742
  863MOL0     O18959   4.501   7.126   4.016 -0.2535  0.0459  0.5698
  863MOL0     C18960   4.418   7.068   3.921  0.9272 -0.0198 -0.3645
  863MOL0     C18961   4.470   6.969   3.841  0.9538  0.4052 -0.2711
  863MOL0     C18962   4.389   6.886   3.758 -0.6206  0.2868 -0.4810
  863MOL0     C18963   4.253   6.921   3.738  1.0252  0.4278 -0.0428
  863MOL0     O18964   4.167   6.867   3.645 -0.0057  0.9621  0.0004
  863MOL0     C18965   4.229   6.826   3.515  0.1180 -0.3020  0.1503
  863MOL0     C18966   4.113   6.828   3.416  0.2458 -0.2449  0.2138
  863MOL0     C18967   4.174   6.768   3.283  0.1879 -0.9786 -0.4467
  863MOL0     C18968   4.068   6.679   3.209 -0.0139 -0.0632  0.1472
  863MOL0     C18969   4.131   6.614   3.080 -0.5375  0.3382 -1.3841
  863MOL0     C18970   4.071   6.491   3.007  1.2858 -1.7233  0.4989
  863MOL0     C18971   4.065   6.358   3.076 -0.4710 -0.4480  0.1466
  863MOL0     C18972   4.213   6.285   3.079  0.0531  0.4420  0.0625
  863MOL0     N18973   4.186   6.149   3.099 -1.0709  0.3662  0.1893
  863MOL0     C18974   4.132   6.061   3.010  0.1381  0.0361  1.2501
  863MOL0     C18975   4.143   5.943   3.064 -0.2391  0.3827 -0.2251
  863MOL0     C18976   4.111   5.819   2.990 -0.0650 -0.2324 -0.4318
  863MOL0     C18977   4.227   5.738   2.932 -0.0008 -0.2694 -0.6167
  863MOL0     C18978   4.188   5.645   2.819  0.4277 -0.8532 -0.4954
  863MOL0     C18979   4.304   5.563   2.780 -0.6758 -0.0803  0.7498
  863MOL0     O18980   4.259   5.461   2.699  0.1522  0.4053  0.2905
  863MOL0     C18981   4.227   5.485   2.566 -0.0274  0.2127 -0.7593
  863MOL0     C18982   4.260   5.603   2.494  0.4549  0.5153 -0.6112
  863MOL0     C18983   4.210   5.624   2.366 -0.1824 -0.9745 -0.1879
  863MOL0     C18984   4.270   5.742   2.295  0.7307  0.0294  0.3975
  863MOL0     C18985   4.131   5.521   2.307 -0.5461 -0.7356  0.0993
  863MOL0     C18986   4.079   5.521   2.164  0.3808 -0.3962  0.0612
  863MOL0     O18987   4.089   5.404   2.093 -0.1073 -0.2076 -0.4204
  863MOL0     C18988   4.038   5.401   1.963 -0.0767 -0.1239  0.1543
  863MOL0     C18989   3.903   5.378   1.924 -0.6448 -0.1899  0.0156
  863MOL0     C18990   3.879   5.351   1.792  0.3002  0.3729  0.7426
  863MOL0     C18991   3.980   5.347   1.690  0.6487  0.4606  0.4749
  863MOL0     O18992   3.948   5.322   1.563  0.0235  0.0417  0.3888
  863MOL0     C18993   3.937   5.180   1.536  0.4758  0.2377  0.4236
  863MOL0     C18994   4.067   5.111   1.488 -0.3522  0.9972 -0.7205
  863MOL0     C18995   4.045   4.966   1.442  0.1248  0.2478  0.0279
  863MOL0     C18996   4.009   4.879   1.576 -0.0267 -0.0655 -0.3981
  863MOL0     C18997   4.011   4.731   1.557 -0.3280 -0.6197 -0.1370
  863MOL0     C18998   4.146   4.687   1.487  0.8582 -0.3905 -0.1907
  863MOL0     C18999   4.277   4.718   1.555 -0.7321  0.4141  0.7340
  863MOL0     C19000   4.388   4.637   1.483  0.3573 -1.0620 -0.7760
  863MOL0    Cl19001   4.552   4.696   1.528 -0.1389  1.1182 -0.2928
  863MOL0     C19002   4.103   5.381   1.723  0.6709  0.5887 -0.3124
  863MOL0     C19003   4.131   5.399   1.861  0.0601  0.2700  0.4396
  863MOL0     O19004   4.043   5.631   2.117 -0.2767 -0.6955  0.4061
  863MOL0     C19005   4.105   5.400   2.374  0.0441  0.2007 -0.2718
  863MOL0     C19006   4.153   5.385   2.498  0.3352  0.6056 -0.2454
  863MOL0     N19007   4.190   5.952   3.195 -0.1517  0.2180  0.4474
  863MOL0     N19008   4.227   6.075   3.207  0.5626  0.2373  0.3298
  863MOL0     C19009   4.200   7.017   3.816  0.7808  0.4808 -1.0005
  863MOL0     C19010   4.279   7.096   3.903  0.9050  0.8441 -0.4104
  863MOL0     C19011   4.638   7.314   4.080  0.7776 -0.5681 -1.8830
  863MOL0     C19012   4.760   7.378   4.068  0.2874 -0.1893  0.6478
  863MOL0     C19013   4.812   7.481   4.145  0.2104  0.3003  0.4666
  863MOL0     C19014   4.727   7.539   4.229  0.4176  1.2634  0.2224
  863MOL0     O19015   4.780   7.653   4.275  0.0639 -0.3051 -0.2352
  863MOL0     C19016   4.698   7.777   4.299 -0.1081  0.8456  0.2716
  863MOL0     C19017   4.651   7.842   4.168 -0.1435 -0.0515 -1.0106
  863MOL0     C19018   4.773   7.867   4.084  0.1036  0.2915  1.0815
  863MOL0     C19019   4.735   7.983   3.977  0.3865  0.3158 -0.3368
  863MOL0     C19020   4.655   7.926   3.868  0.5458  0.9122  0.7032
  863MOL0     C19021   4.578   7.889   3.778  0.1139 -1.1048  0.2718
  863MOL0     C19022   4.603   7.478   4.252 -0.1099  0.4757  0.3683
  863MOL0     C19023   4.560   7.360   4.189  0.9645 -0.4975 -0.2096
  863MOL0     C19024   4.438   7.283   4.239 -0.8154 -0.7292  0.4538
  863MOL0     H19025   4.576   6.950   3.858  0.3644 -0.1577  3.8836
  863MOL0     H19026   4.439   6.800   3.717  2.9374  1.4766  0.9504
  863MOL0     H19027   4.269   6.725   3.526 -0.5750 -0.9423 -2.6682
  863MOL0     H19028   4.314   6.884   3.477  0.3086 -1.4580 -1.2662
  863MOL0     H19029   4.035   6.759   3.449  2.3576 -3.9363 -1.9344
  863MOL0     H19030   4.076   6.931   3.404 -1.4118 -0.4125  2.9957
  863MOL0     H19031   4.207   6.843   3.211  1.7442 -0.4591  0.7643
  863MOL0     H19032   4.255   6.697   3.304 -0.9690 -2.5684 -1.1316
  863MOL0     H19033   4.032   6.591   3.262  2.4656 -0.4845  1.2806
  863MOL0     H19034   3.983   6.744   3.190  1.2491  3.1532  4.1320
  863MOL0     H19035   4.232   6.581   3.103 -0.8060  0.6729  0.4349
  863MOL0     H19036   4.155   6.696   3.011 -0.7595  0.1309 -1.7106
  863MOL0     H19037   3.967   6.520   2.987  2.0023  1.5265  0.9307
  863MOL0     H19038   4.113   6.475   2.908  0.3107 -1.2415 -0.0127
  863MOL0     H19039   3.992   6.293   3.027 -0.4753  0.4778 -1.1349
  863MOL0     H19040   4.026   6.367   3.178 -1.4694  3.4491 -0.4104
  863MOL0     H19041   4.270   6.302   2.987  2.8668  0.7427  1.7530
  863MOL0     H19042   4.273   6.320   3.163  0.1246  0.2239  0.1020
  863MOL0     H19043   4.092   6.085   2.912  1.2401 -0.2285  0.7188
  863MOL0     H19044   4.044   5.842   2.907 -0.8366  1.9642  0.7337
  863MOL0     H19045   4.045   5.763   3.058 -2.2468  2.8381  0.1792
  863MOL0     H19046   4.294   5.817   2.895  1.3435 -0.9599  0.2385
  863MOL0     H19047   4.270   5.678   3.013  0.0008  0.5653  0.0172
  863MOL0     H19048   4.118   5.569   2.854 -1.2145  0.8830  0.1504
  863MOL0     H19049   4.154   5.710   2.738  2.5203  3.3407  1.6801
  863MOL0     H19050   4.385   5.620   2.732 -0.8701 -0.4239 -0.0016
  863MOL0     H19051   4.353   5.520   2.868 -1.7754  0.1849  1.5154
  863MOL0     H19052   4.326   5.675   2.542 -1.9776  1.3765  1.6952
  863MOL0     H19053   4.369   5.764   2.336 -1.0471  2.7568  3.7090
  863MOL0     H19054   4.208   5.829   2.319 -1.5029 -1.1452 -0.8333
  863MOL0     H19055   4.277   5.734   2.186  1.0903  3.0323  0.1029
  863MOL0     H19056   3.820   5.371   1.993 -1.2508  0.1790 -0.6588
  863MOL0     H19057   3.773   5.336   1.772  0.3824  2.6581 -2.0387
  863MOL0     H19058   3.904   5.127   1.626  0.8702 -1.7346 -0.5417
  863MOL0     H19059   3.861   5.173   1.458  0.3973  1.3838  0.3812
  863MOL0     H19060   4.107   5.164   1.401  1.5227  1.0442  0.1341
  863MOL0     H19061   4.145   5.108   1.564 -0.3459 -1.4890 -0.7454
  863MOL0     H19062   4.144   4.931   1.411 -0.9138 -2.5037 -0.4756
  863MOL0     H19063   3.974   4.967   1.359  1.0579 -0.1328 -0.8013
  863MOL0     H19064   3.907   4.909   1.602  0.6333  4.5572 -2.1310
  863MOL0     H19065   4.076   4.903   1.659 -1.2120 -4.0630  1.9680
  863MOL0     H19066   4.009   4.682   1.655 -1.8843  1.0468  0.7122
  863MOL0     H19067   3.924   4.710   1.494  0.1092  1.5826 -1.6218
  863MOL0     H19068   4.158   4.733   1.388  1.4851  1.1729  0.5898
  863MOL0     H19069   4.144   4.578   1.482 -0.1613 -0.4848  1.5641
  863MOL0     H19070   4.285   4.691   1.661  1.2856  2.7739  1.2724
  863MOL0     H19071   4.299   4.825   1.555 -1.8385  0.6744 -1.0810
  863MOL0     H19072   4.371   4.647   1.376 -0.9958 -2.3334 -0.7129
  863MOL0     H19073   4.379   4.533   1.517 -0.2190 -0.9563 -0.5947
  863MOL0     H19074   4.180   5.378   1.647  0.5558 -1.7652 -0.4068
  863MOL0     H19075   4.237   5.407   1.881  1.0403 -1.5756 -3.1186
  863MOL0     H19076   4.045   5.324   2.326 -1.0593  0.9588 -0.1332
  863MOL0     H19077   4.113   5.302   2.555 -1.5810  2.1870  0.8307
  863MOL0     H19078   4.094   7.038   3.813  0.8327  0.6528 -2.2917
  863MOL0     H19079   4.233   7.179   3.956  1.0412  1.7557 -1.6739
  863MOL0     H19080   4.815   7.346   3.980 -2.3381 -0.8491 -0.8648
  863MOL0     H19081   4.902   7.528   4.105 -0.9411  1.2153 -1.1707
  863MOL0     H19082   4.606   7.751   4.352 -0.1079 -0.3028 -0.2466
  863MOL0     H19083   4.751   7.843   4.367  2.8617 -1.8782  0.8323
  863MOL0     H19084   4.597   7.935   4.188  1.2054  1.4835 -3.8642
  863MOL0     H19085   4.585   7.775   4.113  0.3323 -0.0108 -1.6404
  863MOL0     H19086   4.868   7.887   4.133  0.1592 -0.4514  1.2913
  863MOL0     H19087   4.784   7.775   4.026 -3.0642 -0.8106  2.0071
  863MOL0     H19088   4.827   8.015   3.929 -0.0642  0.6336 -1.0034
  863MOL0     H19089   4.688   8.069   4.027 -0.9297  0.1875 -1.2894
  863MOL0     H19090   4.497   7.866   3.712 -1.6119  2.0216  1.0794
  863MOL0     H19091   4.540   7.522   4.329 -1.3796 -2.8062  1.3785
  863MOL0     H19092   4.390   7.346   4.315 -0.8009 -0.0635 -0.0815
  863MOL0     H19093   4.366   7.260   4.159 -0.5484 -0.1772  0.0495
  863MOL0     H19094   4.477   7.197   4.293 -1.5965 -1.1093  0.4201
  864MOL0     O19095  10.001   0.319   5.645  0.6693 -1.0236 -0.4902
  864MOL0     C19096   9.877   0.289   5.642  0.4838 -0.7902 -0.3549
  864MOL0     O19097   9.814   0.213   5.539  0.1579 -0.6298 -0.5973
  864MOL0     C19098   9.893   0.214   5.428 -0.5663  0.2081 -0.4775
  864MOL0     C19099   9.926   0.337   5.368 -0.4082  0.0229  0.3577
  864MOL0     C19100  10.018   0.340   5.266  0.2678  0.7699 -0.1817
  864MOL0     C19101  10.068   0.218   5.213  0.2603 -0.5516 -0.1233
  864MOL0     O19102  10.158   0.211   5.112  0.0061  0.4733 -1.1695
  864MOL0     C19103  10.208   0.335   5.058  0.8461  0.3177 -0.3623
  864MOL0     C19104  10.297   0.302   4.939  0.0443  0.3561  0.0191
  864MOL0     C19105  10.438   0.253   4.988 -0.0563 -0.5379 -0.9628
  864MOL0     C19106  10.544   0.368   4.968  0.5852 -0.3951 -0.1680
  864MOL0     C19107  10.690   0.359   5.019  0.0035 -0.2332  0.1417
  864MOL0     C19108  10.794   0.304   4.919  0.6785 -0.4869 -0.1034
  864MOL0     C19109  10.937   0.280   4.976  1.2219 -0.3819 -0.5231
  864MOL0     C19110  10.986   0.417   5.034  0.3142  0.3177  0.0194
  864MOL0     N19111  11.128   0.422   5.022 -0.5203  0.6276 -0.7501
  864MOL0     C19112  11.206   0.426   4.906 -0.0112  0.3630  0.2985
  864MOL0     C19113  11.334   0.408   4.955  0.1927 -0.4608  0.4294
  864MOL0     C19114  11.459   0.392   4.868  0.4903  0.2123 -0.3234
  864MOL0     C19115  11.527   0.524   4.839  1.4260  0.3223  0.8431
  864MOL0     C19116  11.672   0.486   4.796  0.7388 -0.2526  0.2608
  864MOL0     C19117  11.680   0.399   4.674 -0.0104  0.2330  0.1218
  864MOL0     O19118  11.617   0.477   4.569 -0.0646  0.1783 -0.1809
  864MOL0     C19119  11.568   0.414   4.464  0.9102  0.9491 -0.1689
  864MOL0     C19120  11.451   0.468   4.413 -0.9874 -0.2836 -0.7306
  864MOL0     C19121  11.392   0.400   4.306  0.0762  0.0463  0.8420
  864MOL0     C19122  11.268   0.465   4.244  0.0604  0.0816 -0.0930
  864MOL0     C19123  11.442   0.273   4.252  0.3990 -0.6221 -0.8117
  864MOL0     C19124  11.380   0.195   4.143 -0.5328  0.4471 -0.3219
  864MOL0     O19125  11.468   0.088   4.109  0.1133 -0.3037 -0.2191
  864MOL0     C19126  11.436   0.002   4.007 -0.8751  0.2395 -0.1888
  864MOL0     C19127  11.414   0.036   3.877  0.4477 -0.0150  0.1744
  864MOL0     C19128  11.390  -0.061   3.777  0.7959  0.4001 -0.2151
  864MOL0     C19129  11.386  -0.199   3.807  0.7025 -0.9232 -0.8447
  864MOL0     O19130  11.353  -0.280   3.702 -0.1415 -0.5884  0.2753
  864MOL0     C19131  11.374  -0.423   3.714  0.0780  0.0825 -0.6452
  864MOL0     C19132  11.326  -0.499   3.595  0.2522 -0.1585  0.5821
  864MOL0     C19133  11.395  -0.635   3.576 -0.2534 -1.2057  0.5758
  864MOL0     C19134  11.400  -0.713   3.704 -0.3151  1.0017 -0.3871
  864MOL0     C19135  11.429  -0.863   3.686 -0.1290  0.6015  0.2881
  864MOL0     C19136  11.329  -0.953   3.594 -0.2092 -0.6287 -0.2392
  864MOL0     C19137  11.388  -1.089   3.598 -0.5872  0.6323  1.1739
  864MOL0     C19138  11.303  -1.186   3.513  0.2426 -0.6220  0.9974
  864MOL0    Cl19139  11.327  -1.134   3.342 -0.1984 -0.0947 -0.0395
  864MOL0     C19140  11.399  -0.230   3.943 -0.3233 -0.2417 -0.0444
  864MOL0     C19141  11.433  -0.131   4.037  0.7400  0.3011 -0.2223
  864MOL0     O19142  11.271   0.208   4.098 -0.1141 -0.4051  0.2664
  864MOL0     C19143  11.550   0.222   4.318 -0.5996  0.1435  0.6651
  864MOL0     C19144  11.610   0.286   4.421  0.2504  1.1360 -0.0713
  864MOL0     N19145  11.335   0.403   5.094 -0.0415  0.4377  0.1483
  864MOL0     N19146  11.211   0.413   5.128 -0.0742  0.4196 -0.5942
  864MOL0     C19147  10.028   0.103   5.267 -0.7023  0.1062 -0.5283
  864MOL0     C19148   9.941   0.097   5.373 -0.7663  0.5265 -0.3550
  864MOL0     C19149   9.800   0.344   5.754 -0.9720 -0.1895  0.1959
  864MOL0     C19150   9.854   0.357   5.886  0.2884  0.0484 -0.5289
  864MOL0     C19151   9.773   0.392   5.992 -0.2526  0.8901 -0.1287
  864MOL0     C19152   9.640   0.437   5.970 -0.1802 -0.7337 -0.3475
  864MOL0     O19153   9.555   0.489   6.070 -0.5990 -0.2223 -0.6950
  864MOL0     C19154   9.593   0.518   6.210 -0.3869 -0.0858 -0.0724
  864MOL0     C19155   9.682   0.640   6.218  0.6211 -0.1033  1.3747
  864MOL0     C19156   9.606   0.757   6.164  0.1351 -0.0438 -0.1139
  864MOL0     C19157   9.490   0.802   6.252 -0.7637  0.4291  0.0128
  864MOL0     C19158   9.415   0.907   6.189 -0.3032 -0.6992 -1.0040
  864MOL0     C19159   9.359   1.000   6.143 -0.1916 -0.3921  0.0730
  864MOL0     C19160   9.590   0.425   5.844  0.2998  0.5736  0.3617
  864MOL0     C19161   9.663   0.381   5.735  0.2517 -0.5140  0.0968
  864MOL0     C19162   9.605   0.404   5.600  0.1949 -0.7370  1.1271
  864MOL0     H19163   9.882   0.429   5.404  0.5900  1.0521 -0.9639
  864MOL0     H19164  10.042   0.434   5.216  0.8906  1.0272  0.5730
  864MOL0     H19165  10.265   0.391   5.132 -0.1936  2.3739 -1.0252
  864MOL0     H19166  10.131   0.403   5.020 -0.6482 -1.3335 -0.4162
  864MOL0     H19167  10.272   0.226   4.864 -0.6313 -0.2228  0.8072
  864MOL0     H19168  10.291   0.392   4.878 -1.9829 -0.3598 -0.9265
  864MOL0     H19169  10.427   0.217   5.090 -0.9364  0.9469 -0.5087
  864MOL0     H19170  10.469   0.167   4.927  0.2688  1.1230 -3.2716
  864MOL0     H19171  10.545   0.401   4.864  1.5034  2.2729  0.6101
  864MOL0     H19172  10.511   0.461   5.016  2.5134  0.3273 -0.1501
  864MOL0     H19173  10.696   0.305   5.114 -0.6088  1.5387  1.2286
  864MOL0     H19174  10.727   0.462   5.028  0.5962 -0.4839  0.6324
  864MOL0     H19175  10.765   0.203   4.887  0.4379 -0.7229  0.8280
  864MOL0     H19176  10.800   0.374   4.836  0.7455  1.8969  1.8199
  864MOL0     H19177  11.012   0.256   4.900  0.6627 -0.2024 -1.1384
  864MOL0     H19178  10.937   0.197   5.048 -0.0793  0.5719  0.6150
  864MOL0     H19179  10.947   0.503   4.978  1.8148 -0.3678 -2.2259
  864MOL0     H19180  10.966   0.433   5.141  1.3810 -1.8451  0.5906
  864MOL0     H19181  11.173   0.442   4.804 -0.4835  1.1856  0.5757
  864MOL0     H19182  11.434   0.336   4.777 -0.2798  1.6537 -1.0426
  864MOL0     H19183  11.520   0.334   4.938 -1.5433 -0.8414  0.6762
  864MOL0     H19184  11.475   0.578   4.759 -2.3201 -1.3443  1.9551
  864MOL0     H19185  11.532   0.588   4.927  1.2166 -0.2765  1.2967
  864MOL0     H19186  11.719   0.584   4.788 -2.7182  1.4961 -1.0727
  864MOL0     H19187  11.729   0.444   4.879  4.3623  1.4629 -1.1194
  864MOL0     H19188  11.787   0.389   4.652 -0.7014 -1.7135 -3.0860
  864MOL0     H19189  11.625   0.305   4.680  0.8817 -0.3559 -0.6183
  864MOL0     H19190  11.399   0.556   4.449  0.6597 -0.1604  1.5357
  864MOL0     H19191  11.171   0.416   4.258  0.6010 -0.4116  2.3823
  864MOL0     H19192  11.287   0.459   4.136 -0.3537  1.1793 -0.2383
  864MOL0     H19193  11.257   0.564   4.288  0.1645 -0.9829  2.4974
  864MOL0     H19194  11.403   0.141   3.852  0.2221 -0.0738  0.0251
  864MOL0     H19195  11.372  -0.018   3.679 -0.4856  2.5430  0.8811
  864MOL0     H19196  11.481  -0.436   3.735 -0.7791 -0.0793  5.2264
  864MOL0     H19197  11.319  -0.452   3.803 -1.5087  1.2256 -1.2164
  864MOL0     H19198  11.219  -0.514   3.609  0.3083  0.3413  1.6548
  864MOL0     H19199  11.348  -0.431   3.512 -1.2045  3.3273  2.8298
  864MOL0     H19200  11.499  -0.619   3.547 -1.0772  3.0825 -0.6391
  864MOL0     H19201  11.344  -0.690   3.496 -4.8790 -1.3201  3.2230
  864MOL0     H19202  11.299  -0.713   3.746 -2.4050 -4.1456 -4.2264
  864MOL0     H19203  11.469  -0.666   3.774  1.4084 -0.7965 -0.7910
  864MOL0     H19204  11.529  -0.872   3.643  0.4211 -1.9082  1.8807
  864MOL0     H19205  11.442  -0.904   3.786 -0.4173  0.5535  0.3067
  864MOL0     H19206  11.341  -0.919   3.491  1.4515  1.6129  0.6338
  864MOL0     H19207  11.224  -0.962   3.624  0.3960 -2.0043  1.6354
  864MOL0     H19208  11.382  -1.133   3.698 -2.7432 -2.4951 -0.1574
  864MOL0     H19209  11.488  -1.093   3.554 -1.2320 -3.9035 -0.4229
  864MOL0     H19210  11.197  -1.173   3.533  0.6518  2.4296  1.7059
  864MOL0     H19211  11.333  -1.290   3.530 -0.5796 -0.3519  4.8381
  864MOL0     H19212  11.393  -0.335   3.969  1.8067 -0.6673 -1.0633
  864MOL0     H19213  11.425  -0.159   4.142 -3.9681  3.6403  0.6059
  864MOL0     H19214  11.583   0.119   4.303  0.6882  0.0434  3.5226
  864MOL0     H19215  11.694   0.249   4.479 -3.3465 -3.8400  2.6750
  864MOL0     H19216  10.069   0.022   5.208  2.9325  0.8346  0.7786
  864MOL0     H19217   9.907  -0.003   5.397 -0.9104  0.9011  1.0843
  864MOL0     H19218   9.961   0.342   5.903 -0.0766  0.4627  2.6532
  864MOL0     H19219   9.819   0.405   6.089  0.8176  0.9435 -0.6357
  864MOL0     H19220   9.504   0.530   6.272  0.7364 -0.4568  1.6661
  864MOL0     H19221   9.650   0.428   6.234  0.7872  0.3603 -1.1055
  864MOL0     H19222   9.772   0.632   6.156  1.7525  2.4734  2.5292
  864MOL0     H19223   9.724   0.663   6.316  1.5535 -0.7507  1.1429
  864MOL0     H19224   9.675   0.842   6.154  1.4438 -1.1050 -0.4733
  864MOL0     H19225   9.567   0.730   6.066 -2.7900  2.1763  0.3129
  864MOL0     H19226   9.524   0.824   6.353 -1.0808  0.4011  0.1267
  864MOL0     H19227   9.410   0.728   6.260 -0.9990  0.7864  1.1246
  864MOL0     H19228   9.299   1.074   6.092 -2.1520 -1.9731 -0.0584
  864MOL0     H19229   9.487   0.457   5.830  0.5275  1.0722 -0.2531
  864MOL0     H19230   9.527   0.480   5.612 -0.4838 -1.0969 -0.7371
  864MOL0     H19231   9.670   0.440   5.521 -0.8007 -0.3329  0.4717
  864MOL0     H19232   9.563   0.314   5.555  0.9940 -1.4956  1.8427
  865MOL0     O19233  10.757   3.431   1.140  0.3345 -0.0859 -0.1881
  865MOL0     C19234  10.738   3.420   1.263 -0.4808  0.0607  0.0688
  865MOL0     O19235  10.693   3.309   1.327 -0.7167 -0.0888  0.6970
  865MOL0     C19236  10.674   3.197   1.258  0.6086  1.1564 -0.0696
  865MOL0     C19237  10.548   3.160   1.203  1.5131 -0.6847 -0.2721
  865MOL0     C19238  10.533   3.055   1.110  0.4242  0.2453 -1.2554
  865MOL0     C19239  10.649   2.970   1.090  0.6654  0.1132 -0.5306
  865MOL0     O19240  10.646   2.848   1.015  0.5275 -0.1070 -0.7264
  865MOL0     C19241  10.564   2.844   0.898  0.2654 -0.2963 -0.9830
  865MOL0     C19242  10.645   2.774   0.789  0.2848 -0.2691 -0.3744
  865MOL0     C19243  10.663   2.625   0.808 -0.3491  0.2734 -0.5128
  865MOL0     C19244  10.712   2.580   0.667 -0.2453  0.6192  0.5016
  865MOL0     C19245  10.621   2.467   0.601  0.0220  0.0488 -0.2866
  865MOL0     C19246  10.653   2.422   0.465 -0.4047 -1.0315 -0.1813
  865MOL0     C19247  10.615   2.538   0.365  0.4864  0.4089 -0.1323
  865MOL0     C19248  10.633   2.494   0.219 -0.4894 -0.5574 -1.0737
  865MOL0     N19249  10.734   2.391   0.196 -0.4542  0.6307  0.2035
  865MOL0     C19250  10.706   2.277   0.117 -0.5326 -0.8672 -0.1729
  865MOL0     C19251  10.819   2.210   0.104 -0.9950  0.4135 -0.3575
  865MOL0     C19252  10.846   2.090   0.018  0.1401  0.0789 -0.2198
  865MOL0     C19253  10.978   2.100  -0.050 -0.6702  0.5602  0.3363
  865MOL0     C19254  11.007   1.982  -0.147  0.7216 -0.1253 -0.5525
  865MOL0     C19255  11.109   1.874  -0.097  0.4056  0.1495 -0.1250
  865MOL0     O19256  11.232   1.945  -0.092  0.2549 -0.0669 -0.1082
  865MOL0     C19257  11.349   1.871  -0.083 -0.1722 -0.0170 -0.1344
  865MOL0     C19258  11.443   1.936  -0.154 -0.3889  0.3024  0.1651
  865MOL0     C19259  11.570   1.879  -0.173  0.3908  0.3917  0.6502
  865MOL0     C19260  11.674   1.951  -0.258  0.2480  0.5672 -0.4478
  865MOL0     C19261  11.600   1.752  -0.118  0.0405 -0.1060 -0.0207
  865MOL0     C19262  11.731   1.676  -0.133 -0.7898  0.4425 -0.1274
  865MOL0     O19263  11.814   1.713  -0.236 -0.4201 -0.0665  0.0425
  865MOL0     C19264  11.941   1.648  -0.252 -0.1652 -0.3919 -0.7891
  865MOL0     C19265  12.045   1.713  -0.329 -0.3390 -0.7069 -0.0517
  865MOL0     C19266  12.177   1.679  -0.326 -0.4520  0.7849 -0.0524
  865MOL0     C19267  12.216   1.552  -0.262  0.2000 -0.2148  0.0410
  865MOL0     O19268  12.343   1.502  -0.276 -0.1804 -1.2741  0.3150
  865MOL0     C19269  12.418   1.499  -0.155  0.4616 -0.3600 -0.9435
  865MOL0     C19270  12.542   1.412  -0.184  0.0758  0.1434  0.3721
  865MOL0     C19271  12.650   1.421  -0.079  0.2353 -0.1337 -0.7465
  865MOL0     C19272  12.762   1.321  -0.122 -0.3161 -0.1215  1.0685
  865MOL0     C19273  12.882   1.332  -0.034 -1.0068  0.1404 -0.4441
  865MOL0     C19274  12.982   1.209  -0.042  0.4923  1.0838  0.5220
  865MOL0     C19275  13.092   1.211   0.054 -0.3218 -0.3491  0.1349
  865MOL0     C19276  13.215   1.141   0.003  0.2479  0.6900 -0.2703
  865MOL0    Cl19277  13.193   0.970  -0.041 -0.0375  0.0406 -0.1564
  865MOL0     C19278  12.120   1.469  -0.204 -0.3894  0.0895  0.0781
  865MOL0     C19279  11.991   1.526  -0.191 -0.0734 -1.3476  0.6109
  865MOL0     O19280  11.770   1.614  -0.034  0.4321 -0.4963 -0.9558
  865MOL0     C19281  11.500   1.692  -0.032  0.1132  0.2870  0.3647
  865MOL0     C19282  11.375   1.751  -0.016  0.2540 -1.4612  0.2784
  865MOL0     N19283  10.913   2.269   0.186 -0.2446  0.0266 -0.7828
  865MOL0     N19284  10.860   2.373   0.237  0.3226 -0.7542 -0.5205
  865MOL0     C19285  10.768   3.001   1.149 -0.4773  0.0559  0.3141
  865MOL0     C19286  10.781   3.109   1.235 -0.1355  0.0912 -0.2145
  865MOL0     C19287  10.770   3.532   1.353  0.8466 -0.4639 -0.8488
  865MOL0     C19288  10.765   3.514   1.497 -0.8021  0.3073  0.5956
  865MOL0     C19289  10.812   3.612   1.583  0.2769  0.2034  0.7462
  865MOL0     C19290  10.853   3.739   1.540  0.5827  0.8053 -0.0378
  865MOL0     O19291  10.892   3.841   1.623  0.3455 -0.3215 -0.1102
  865MOL0     C19292  10.950   3.816   1.754 -0.6399 -0.2235  0.4580
  865MOL0     C19293  11.081   3.895   1.773 -0.0940  0.8752 -0.3156
  865MOL0     C19294  11.060   4.047   1.780 -0.3484 -0.0823 -0.0478
  865MOL0     C19295  11.083   4.131   1.910  0.1040  0.4391  0.5929
  865MOL0     C19296  11.006   4.068   2.015 -0.2417  0.2446 -0.2990
  865MOL0     C19297  10.955   4.026   2.116  0.3347 -0.6491 -0.6400
  865MOL0     C19298  10.846   3.771   1.410  0.4093 -0.0040 -0.0006
  865MOL0     C19299  10.804   3.678   1.312  0.0139  1.3858 -1.1177
  865MOL0     C19300  10.792   3.720   1.168  0.3150  0.1790 -0.0225
  865MOL0     H19301  10.465   3.230   1.212  0.3084 -1.9060 -1.3239
  865MOL0     H19302  10.441   3.039   1.054  1.3866 -5.0204 -1.8522
  865MOL0     H19303  10.533   2.944   0.865  0.2451 -0.1912 -0.6497
  865MOL0     H19304  10.475   2.790   0.932 -0.4047  1.1664 -0.3012
  865MOL0     H19305  10.602   2.800   0.692  0.4090  3.0813  0.3597
  865MOL0     H19306  10.741   2.826   0.785 -0.4763  1.2442  0.3087
  865MOL0     H19307  10.743   2.612   0.882 -1.3217  0.4334  0.5966
  865MOL0     H19308  10.576   2.571   0.846  1.8506 -3.1960  0.1324
  865MOL0     H19309  10.720   2.659   0.592  1.8395 -0.0788 -0.0763
  865MOL0     H19310  10.810   2.532   0.668  0.0122  1.0547  2.9597
  865MOL0     H19311  10.514   2.488   0.608  0.2929  0.9038  2.7469
  865MOL0     H19312  10.623   2.389   0.678 -0.7284  0.0075 -0.3023
  865MOL0     H19313  10.758   2.392   0.465 -0.5549 -1.5722  0.3315
  865MOL0     H19314  10.593   2.332   0.445 -0.9451 -0.2800 -2.3006
  865MOL0     H19315  10.677   2.625   0.387 -0.9680  1.1856  1.0792
  865MOL0     H19316  10.513   2.569   0.391 -0.8091 -1.0861 -2.9770
  865MOL0     H19317  10.535   2.471   0.174 -0.5297 -0.9059 -0.8105
  865MOL0     H19318  10.670   2.585   0.171  0.8823  0.6241  1.9565
  865MOL0     H19319  10.612   2.258   0.065 -0.6231  3.5909 -2.1873
  865MOL0     H19320  10.766   2.078  -0.056  1.3397 -2.9949 -1.1804
  865MOL0     H19321  10.841   2.001   0.082  2.5126 -0.8466 -1.2389
  865MOL0     H19322  10.977   2.195  -0.105 -1.1274 -0.7846 -2.1034
  865MOL0     H19323  11.061   2.116   0.019  0.1437  1.2174 -0.7606
  865MOL0     H19324  10.912   1.930  -0.166  1.7389 -3.1881  1.8146
  865MOL0     H19325  11.052   2.019  -0.239  0.7460  1.5950  0.1185
  865MOL0     H19326  11.081   1.846   0.005 -0.6488 -1.2086 -0.7669
  865MOL0     H19327  11.109   1.786  -0.162 -2.3940 -2.2570  2.7768
  865MOL0     H19328  11.415   2.034  -0.189 -1.0315  1.8535  4.4593
  865MOL0     H19329  11.773   1.957  -0.212 -0.9083  1.4787  2.1223
  865MOL0     H19330  11.646   2.055  -0.276 -0.0804  0.7560  1.0177
  865MOL0     H19331  11.677   1.901  -0.355  0.5994  2.4703 -1.4696
  865MOL0     H19332  12.025   1.801  -0.390 -0.6454 -1.3849 -0.9619
  865MOL0     H19333  12.251   1.743  -0.372 -1.9319  2.1063 -0.6570
  865MOL0     H19334  12.451   1.600  -0.129 -2.3283  1.0528 -2.3622
  865MOL0     H19335  12.361   1.444  -0.079 -0.1157 -1.0269 -1.8397
  865MOL0     H19336  12.509   1.309  -0.200 -2.2389  0.7648  0.7836
  865MOL0     H19337  12.596   1.448  -0.272  2.4111 -0.9550  1.2865
  865MOL0     H19338  12.618   1.399   0.024 -0.7679  0.6588 -0.8802
  865MOL0     H19339  12.692   1.522  -0.085 -1.6629  0.9290  1.9883
  865MOL0     H19340  12.796   1.345  -0.223 -2.0694 -0.5247  0.3620
  865MOL0     H19341  12.722   1.219  -0.129  0.2701 -0.3399 -6.1037
  865MOL0     H19342  12.942   1.422  -0.054  2.1796 -1.4142  1.2836
  865MOL0     H19343  12.836   1.333   0.065  0.0335 -3.0050  0.1967
  865MOL0     H19344  13.017   1.204  -0.146  1.1679 -0.3173  0.7982
  865MOL0     H19345  12.931   1.113  -0.040  0.8457  0.7685 -2.1868
  865MOL0     H19346  13.070   1.164   0.151 -2.1894  2.0069  0.9483
  865MOL0     H19347  13.116   1.316   0.073  0.4191 -0.7735  1.7518
  865MOL0     H19348  13.294   1.153   0.078  0.7171 -0.5356 -0.5295
  865MOL0     H19349  13.252   1.195  -0.084  2.1543  2.2549  1.3992
  865MOL0     H19350  12.157   1.378  -0.157 -1.0631  1.3935  3.4076
  865MOL0     H19351  11.920   1.461  -0.143 -0.1744 -0.1599  2.1538
  865MOL0     H19352  11.528   1.593   0.004 -0.1206  0.7432  1.8832
  865MOL0     H19353  11.304   1.708   0.053 -0.4818  2.4343  2.2594
  865MOL0     H19354  10.859   2.959   1.108 -0.2973  0.7154  0.0196
  865MOL0     H19355  10.878   3.146   1.266 -0.5284  0.1782  0.9404
  865MOL0     H19356  10.728   3.424   1.545 -0.7115  0.2385  0.5372
  865MOL0     H19357  10.799   3.589   1.688  2.3495  1.4517  1.3366
  865MOL0     H19358  10.872   3.847   1.824  0.1969  0.9099  0.9135
  865MOL0     H19359  10.963   3.708   1.763 -1.3683 -0.5795 -2.0436
  865MOL0     H19360  11.156   3.867   1.698 -1.8536 -1.3360 -1.3529
  865MOL0     H19361  11.122   3.865   1.870 -1.1667 -3.7055 -1.0413
  865MOL0     H19362  11.123   4.100   1.708 -0.5905  2.6426  1.5961
  865MOL0     H19363  10.960   4.068   1.741 -0.4419 -2.1202 -1.0142
  865MOL0     H19364  11.051   4.231   1.877  1.8125  0.6624 -0.5100
  865MOL0     H19365  11.186   4.157   1.934  0.0223  0.5101  0.8667
  865MOL0     H19366  10.913   3.998   2.211 -0.5673  0.4067 -0.7027
  865MOL0     H19367  10.859   3.873   1.373 -0.6876  0.3943  0.6562
  865MOL0     H19368  10.709   3.674   1.113  2.0151 -0.0625 -2.5762
  865MOL0     H19369  10.785   3.829   1.164  1.3710  0.2688  0.2417
  865MOL0     H19370  10.888   3.701   1.118  1.7194 -0.6403  2.7547
  866MOL0     O19371  11.497   2.278   3.287  0.6995 -0.1499  0.1731
  866MOL0     C19372  11.382   2.330   3.291 -1.0885  0.2877  0.2362
  866MOL0     O19373  11.322   2.392   3.183 -0.5658  0.0390 -0.6774
  866MOL0     C19374  11.375   2.344   3.059  0.2396 -0.0624  0.4646
  866MOL0     C19375  11.481   2.402   2.992 -0.1825  0.8369 -0.7964
  866MOL0     C19376  11.524   2.352   2.865 -0.2601  0.8055 -0.4197
  866MOL0     C19377  11.441   2.264   2.794  0.7047  0.5438 -0.2078
  866MOL0     O19378  11.476   2.250   2.665  0.3090  0.8120  0.2502
  866MOL0     C19379  11.371   2.212   2.573 -0.4948 -0.0098  0.6976
  866MOL0     C19380  11.267   2.326   2.537 -0.0216  0.4117  0.4645
  866MOL0     C19381  11.190   2.277   2.410 -0.9151 -0.0523 -0.2281
  866MOL0     C19382  11.065   2.357   2.393  0.2162  1.1960  0.9286
  866MOL0     C19383  10.966   2.285   2.303  0.3234  0.9035  0.0544
  866MOL0     C19384  10.832   2.364   2.309 -0.6774 -0.3551 -0.1790
  866MOL0     C19385  10.727   2.293   2.221  0.4645  0.5830 -0.1237
  866MOL0     C19386  10.633   2.196   2.300 -0.5382  0.9545  0.2059
  866MOL0     N19387  10.519   2.153   2.220  0.5681 -0.3677  0.6835
  866MOL0     C19388  10.404   2.233   2.204  0.4420  0.4941 -1.1768
  866MOL0     C19389  10.323   2.141   2.139 -0.1911 -0.9200  0.1043
  866MOL0     C19390  10.179   2.162   2.103 -0.2819  0.2705 -0.1617
  866MOL0     C19391  10.099   2.029   2.079 -0.2273  0.2808 -0.1810
  866MOL0     C19392   9.953   2.070   2.071  0.8462  0.9157 -0.0432
  866MOL0     C19393   9.857   1.954   2.059  0.1991  0.5218  0.3236
  866MOL0     O19394   9.895   1.857   1.949  0.0005 -0.4221  0.4255
  866MOL0     C19395   9.827   1.738   1.930 -0.6482 -0.1363 -0.3947
  866MOL0     C19396   9.757   1.678   2.036  0.2160 -0.4236 -0.4297
  866MOL0     C19397   9.695   1.562   2.024 -0.6342 -0.0280  0.1618
  866MOL0     C19398   9.622   1.518   2.142  0.6531  0.4949  0.0470
  866MOL0     C19399   9.709   1.486   1.902 -0.2423 -0.2391 -0.1915
  866MOL0     C19400   9.639   1.351   1.883 -0.7443 -0.6181  0.1379
  866MOL0     O19401   9.651   1.291   1.763 -0.0636 -0.1420 -0.1194
  866MOL0     C19402   9.602   1.169   1.744  0.3259  0.0566 -0.8524
  866MOL0     C19403   9.690   1.066   1.707 -0.0576 -0.2838  1.0723
  866MOL0     C19404   9.646   0.938   1.689  0.9580  0.6254  0.2309
  866MOL0     C19405   9.513   0.895   1.704 -0.0315  0.2745  0.1231
  866MOL0     O19406   9.474   0.762   1.711 -0.4544 -0.0858 -0.6630
  866MOL0     C19407   9.358   0.744   1.795  0.5276 -0.5195  0.1266
  866MOL0     C19408   9.334   0.596   1.833 -0.1951 -0.8536  0.7330
  866MOL0     C19409   9.468   0.520   1.824 -1.0351 -0.2951 -0.1366
  866MOL0     C19410   9.458   0.380   1.888  0.6762  0.3012  0.0162
  866MOL0     C19411   9.594   0.327   1.936  0.3718  0.1136  0.1476
  866MOL0     C19412   9.569   0.196   2.008 -0.0345  0.4912 -0.1887
  866MOL0     C19413   9.686   0.111   2.069  0.2897 -0.1701  0.0273
  866MOL0     C19414   9.636  -0.002   2.176 -0.3663  0.1567 -0.2502
  866MOL0    Cl19415   9.552  -0.125   2.083  0.5890  0.4391 -0.4348
  866MOL0     C19416   9.422   1.000   1.731  0.4828 -0.3993 -0.3648
  866MOL0     C19417   9.462   1.135   1.748 -0.0101 -0.4369 -0.0490
  866MOL0     O19418   9.590   1.302   1.983  0.0740 -0.8323  0.0031
  866MOL0     C19419   9.783   1.541   1.801  0.5452  0.6518  0.3552
  866MOL0     C19420   9.838   1.666   1.809  0.4262  0.4598  0.1526
  866MOL0     N19421  10.397   2.034   2.095 -0.4333 -0.1149  0.5373
  866MOL0     N19422  10.513   2.044   2.141 -0.0620  0.6251  0.4976
  866MOL0     C19423  11.326   2.220   2.859  0.0733  0.1471  0.1699
  866MOL0     C19424  11.296   2.249   2.988  0.4386 -0.6987 -0.2166
  866MOL0     C19425  11.322   2.327   3.424 -0.2851 -0.0706 -0.5748
  866MOL0     C19426  11.372   2.217   3.503 -0.7696 -0.4700  0.4557
  866MOL0     C19427  11.310   2.182   3.625  0.1221  0.5552 -0.1054
  866MOL0     C19428  11.206   2.267   3.672  0.1439  1.0471 -0.7183
  866MOL0     O19429  11.163   2.242   3.799 -0.3586  0.4274 -0.0410
  866MOL0     C19430  11.043   2.300   3.843 -0.2551  0.3668  0.1473
  866MOL0     C19431  10.987   2.237   3.971 -0.3347 -0.0898 -0.3222
  866MOL0     C19432  11.089   2.224   4.099 -0.0852 -0.9202  0.5535
  866MOL0     C19433  11.201   2.340   4.108  1.1435 -0.0590  0.3564
  866MOL0     C19434  11.129   2.465   4.138 -0.1853 -1.1228  0.1005
  866MOL0     C19435  11.074   2.570   4.173 -0.0127  0.1711  0.4819
  866MOL0     C19436  11.163   2.379   3.596 -0.5789 -0.0129  0.4191
  866MOL0     C19437  11.213   2.405   3.470  0.2214 -0.4965  0.4020
  866MOL0     C19438  11.157   2.521   3.388  0.3246 -0.0427 -0.4168
  866MOL0     H19439  11.548   2.463   3.052  0.8918 -1.8435  0.9068
  866MOL0     H19440  11.616   2.399   2.831  0.2070 -0.5398 -1.1043
  866MOL0     H19441  11.332   2.111   2.589 -0.7862  0.2496  1.6602
  866MOL0     H19442  11.435   2.183   2.488 -0.0554  2.8659 -0.0465
  866MOL0     H19443  11.200   2.361   2.616  0.4497 -2.0678  2.0712
  866MOL0     H19444  11.325   2.413   2.506 -1.6464  2.8113  3.5625
  866MOL0     H19445  11.239   2.274   2.312 -2.5241  2.1425 -1.1962
  866MOL0     H19446  11.173   2.170   2.430  3.5411 -0.7668  0.7175
  866MOL0     H19447  11.013   2.374   2.487 -0.7382 -1.4778  0.9614
  866MOL0     H19448  11.088   2.450   2.340  0.6634  0.8482  0.4992
  866MOL0     H19449  10.946   2.183   2.335 -1.5954  0.4567 -2.2624
  866MOL0     H19450  11.003   2.273   2.200  0.0192  2.0007 -0.1919
  866MOL0     H19451  10.803   2.362   2.415  2.6401  0.3478  0.8723
  866MOL0     H19452  10.863   2.467   2.290  0.5545  0.1026  3.3737
  866MOL0     H19453  10.777   2.246   2.136  0.8998  1.5962 -0.4505
  866MOL0     H19454  10.655   2.362   2.175  0.2134  2.2136  2.5265
  866MOL0     H19455  10.701   2.112   2.318 -0.3115  0.8554 -1.0259
  866MOL0     H19456  10.600   2.237   2.395 -0.3383  3.5296 -0.7567
  866MOL0     H19457  10.372   2.328   2.247 -3.4144 -0.9681 -0.4247
  866MOL0     H19458  10.169   2.224   2.013 -0.1662  0.7009  0.1155
  866MOL0     H19459  10.124   2.221   2.177  0.3858 -0.1680  0.6953
  866MOL0     H19460  10.134   1.977   1.990 -0.7489  0.1668 -0.3214
  866MOL0     H19461  10.111   1.959   2.162  0.2880 -2.0774 -2.1310
  866MOL0     H19462   9.922   2.126   2.159  4.4011  2.4070  0.4243
  866MOL0     H19463   9.946   2.138   1.986  0.0769 -0.6112 -1.2542
  866MOL0     H19464   9.861   1.915   2.161 -0.6251  1.9121  0.9242
  866MOL0     H19465   9.757   1.994   2.037  0.3429  0.0831 -1.2491
  866MOL0     H19466   9.737   1.740   2.123  1.5370 -0.2650 -0.2203
  866MOL0     H19467   9.621   1.593   2.222  2.5075 -2.2026  2.8316
  866MOL0     H19468   9.677   1.439   2.193 -2.5102 -1.9107  0.0034
  866MOL0     H19469   9.520   1.483   2.126  1.5138 -2.3468  0.3056
  866MOL0     H19470   9.796   1.082   1.690 -0.3183  0.4858  0.0372
  866MOL0     H19471   9.712   0.856   1.661 -0.3810 -1.1311  1.9453
  866MOL0     H19472   9.395   0.798   1.883 -1.9614 -1.8768  2.1403
  866MOL0     H19473   9.260   0.787   1.776  0.8337  0.9331  1.6059
  866MOL0     H19474   9.302   0.583   1.937 -4.5791  2.4370  0.1044
  866MOL0     H19475   9.258   0.539   1.779 -0.3238 -1.0994  1.1674
  866MOL0     H19476   9.543   0.578   1.878  0.4949 -2.3343  0.0802
  866MOL0     H19477   9.505   0.510   1.722 -2.4600  1.1473 -0.8292
  866MOL0     H19478   9.414   0.314   1.812 -1.8996  1.0943  0.7270
  866MOL0     H19479   9.381   0.370   1.965 -1.2297  1.0833 -1.6989
  866MOL0     H19480   9.667   0.315   1.855  0.8435  3.2502  0.0077
  866MOL0     H19481   9.630   0.405   2.003  0.9252 -0.7861  0.9327
  866MOL0     H19482   9.521   0.130   1.936  0.9662 -0.1102 -0.3229
  866MOL0     H19483   9.503   0.217   2.093 -1.0854  0.6501 -1.0321
  866MOL0     H19484   9.752   0.184   2.117  0.1340 -0.6121  0.9533
  866MOL0     H19485   9.749   0.055   1.999  0.0510 -0.9184  0.3909
  866MOL0     H19486   9.579   0.051   2.252  1.6331  0.2165  1.2842
  866MOL0     H19487   9.708  -0.055   2.238 -1.0295 -0.5606 -0.0855
  866MOL0     H19488   9.317   0.982   1.751 -0.5393  0.5235 -4.1955
  866MOL0     H19489   9.387   1.210   1.770  1.5808  0.4872  2.6411
  866MOL0     H19490   9.796   1.506   1.699 -1.4478 -1.2153  0.6605
  866MOL0     H19491   9.887   1.711   1.724 -1.9837  0.4816 -1.3227
  866MOL0     H19492  11.257   2.145   2.821 -0.5950 -0.6877  2.7969
  866MOL0     H19493  11.210   2.197   3.029  0.5598 -1.4497 -0.8777
  866MOL0     H19494  11.456   2.149   3.490 -0.3244  0.2763 -0.7107
  866MOL0     H19495  11.341   2.092   3.677 -0.2952 -0.1902 -1.1211
  866MOL0     H19496  11.068   2.402   3.875  0.4721 -0.4874  2.5178
  866MOL0     H19497  10.961   2.298   3.771 -0.9247  1.6161  0.8274
  866MOL0     H19498  10.941   2.140   3.952  2.4040 -2.1572  2.5655
  866MOL0     H19499  10.904   2.303   3.995 -2.7699 -3.1432  0.2953
  866MOL0     H19500  11.041   2.198   4.194  0.6786 -0.9869  0.9292
  866MOL0     H19501  11.147   2.133   4.081  0.9101 -0.2999  0.5169
  866MOL0     H19502  11.275   2.356   4.029  2.3420  2.1952  1.8110
  866MOL0     H19503  11.259   2.315   4.198  0.8294 -0.5945  0.4089
  866MOL0     H19504  11.020   2.661   4.193 -0.0998 -0.0040  1.0461
  866MOL0     H19505  11.082   2.445   3.628 -2.0703 -0.4497 -2.1439
  866MOL0     H19506  11.242   2.573   3.340  0.2223 -0.3881 -0.9871
  866MOL0     H19507  11.071   2.500   3.324 -2.8750  3.0295  2.4554
  866MOL0     H19508  11.118   2.609   3.440 -0.4541  0.3969 -1.7034
  867MOL0     O19509   7.660   4.481   9.631  0.1706  0.2623 -0.4466
  867MOL0     C19510   7.774   4.513   9.627 -0.3558  0.4829  0.2598
  867MOL0     O19511   7.876   4.429   9.577  0.0024 -0.2582 -0.5899
  867MOL0     C19512   7.855   4.307   9.522  0.2296 -0.5087  0.1629
  867MOL0     C19513   7.951   4.210   9.543 -0.3094  0.7785  0.3453
  867MOL0     C19514   7.950   4.088   9.473  0.3183 -0.2236 -0.2717
  867MOL0     C19515   7.844   4.055   9.388 -0.3774 -0.5903 -0.3496
  867MOL0     O19516   7.846   3.935   9.324 -0.5728  0.9229 -0.2062
  867MOL0     C19517   7.857   3.956   9.181 -0.6261 -0.6578  0.3857
  867MOL0     C19518   7.813   3.829   9.099 -0.1979  0.1652 -0.3660
  867MOL0     C19519   7.829   3.849   8.952 -0.2508 -0.1578  0.2852
  867MOL0     C19520   7.820   3.726   8.856  0.2074  0.1621  0.6977
  867MOL0     C19521   7.677   3.670   8.851  0.0014 -0.1642  0.1872
  867MOL0     C19522   7.573   3.750   8.762  0.2511 -0.6305 -0.3324
  867MOL0     C19523   7.426   3.703   8.743 -0.1609  0.8084 -0.1184
  867MOL0     C19524   7.406   3.550   8.729  0.5928 -0.3618 -0.5955
  867MOL0     N19525   7.436   3.521   8.586  0.6659 -0.0738  0.2507
  867MOL0     C19526   7.352   3.543   8.480 -0.1601 -0.1179  0.1308
  867MOL0     C19527   7.409   3.494   8.371 -0.5320 -0.6997  0.5392
  867MOL0     C19528   7.365   3.504   8.225 -0.1958 -0.2744  0.3818
  867MOL0     C19529   7.347   3.365   8.155 -0.3007 -0.1494 -0.4162
  867MOL0     C19530   7.486   3.310   8.097  0.2111 -0.6616 -0.1767
  867MOL0     C19531   7.511   3.368   7.955 -0.0582 -0.1135  0.1036
  867MOL0     O19532   7.617   3.293   7.902 -0.4323 -0.7373 -0.0501
  867MOL0     C19533   7.651   3.316   7.772  0.0388 -0.3415  0.4508
  867MOL0     C19534   7.676   3.209   7.687 -0.1008  0.6301 -0.4225
  867MOL0     C19535   7.698   3.214   7.547  0.0264  0.7862 -0.3171
  867MOL0     C19536   7.697   3.083   7.469  0.5496  0.9615  0.0973
  867MOL0     C19537   7.705   3.343   7.490 -0.2327  0.7402 -0.1448
  867MOL0     C19538   7.744   3.380   7.348  0.2142 -0.7485 -0.3385
  867MOL0     O19539   7.707   3.503   7.289 -0.0378 -0.8550  0.2222
  867MOL0     C19540   7.739   3.532   7.158 -0.3313 -0.6243 -0.3720
  867MOL0     C19541   7.670   3.475   7.054  0.1646 -0.1802  0.0370
  867MOL0     C19542   7.715   3.501   6.920  0.5437 -0.0979  0.0296
  867MOL0     C19543   7.827   3.581   6.892  0.0530  0.4960 -0.7890
  867MOL0     O19544   7.872   3.611   6.766 -0.0333  1.0848  0.6646
  867MOL0     C19545   7.821   3.524   6.658  0.0871 -0.1291  0.4598
  867MOL0     C19546   7.892   3.556   6.533  0.5491  0.5862 -0.0750
  867MOL0     C19547   8.043   3.533   6.538 -0.8567  0.8159 -0.8519
  867MOL0     C19548   8.120   3.618   6.427 -0.0934 -0.5640 -0.7470
  867MOL0     C19549   8.103   3.568   6.281 -0.3470 -0.6103 -0.3234
  867MOL0     C19550   8.150   3.691   6.193  0.4719 -0.3215 -1.1725
  867MOL0     C19551   8.119   3.673   6.050 -0.6946  0.2737  0.5515
  867MOL0     C19552   8.168   3.794   5.966  0.5167 -0.2873 -0.4843
  867MOL0    Cl19553   8.070   3.781   5.815  0.1422 -0.5429 -0.3679
  867MOL0     C19554   7.891   3.635   7.004 -0.6796 -0.5524 -0.0862
  867MOL0     C19555   7.853   3.614   7.138  0.0291 -1.4125  0.9680
  867MOL0     O19556   7.812   3.300   7.294  0.0518 -0.0224  0.8478
  867MOL0     C19557   7.687   3.457   7.570  0.4198 -0.7252  0.1082
  867MOL0     C19558   7.660   3.440   7.709 -0.3631  0.3197  0.3950
  867MOL0     N19559   7.524   3.438   8.411 -0.0723 -0.4240 -0.9912
  867MOL0     N19560   7.542   3.460   8.545 -1.0632 -0.2958  0.2000
  867MOL0     C19561   7.743   4.152   9.363 -1.1477 -0.4158  0.4377
  867MOL0     C19562   7.752   4.275   9.424 -0.3983  0.7883  0.8286
  867MOL0     C19563   7.816   4.644   9.691  0.2179 -0.0979 -0.7332
  867MOL0     C19564   7.945   4.659   9.727 -0.2441 -0.5755  0.4463
  867MOL0     C19565   7.992   4.773   9.793 -0.2697  0.0072 -0.0910
  867MOL0     C19566   7.908   4.880   9.812 -0.5201 -0.7032  0.5587
  867MOL0     O19567   7.972   4.993   9.858 -0.0314  0.2315 -0.3194
  867MOL0     C19568   7.889   5.087   9.933  0.4478 -0.8279 -0.7149
  867MOL0     C19569   7.803   5.032  10.060  0.1326 -0.2677 -0.4091
  867MOL0     C19570   7.907   4.967  10.156 -0.0193  0.4476 -0.0523
  867MOL0     C19571   7.854   4.856  10.244  0.5556 -0.0699  0.5492
  867MOL0     C19572   7.800   4.755  10.150 -0.9786 -1.0877  0.1734
  867MOL0     C19573   7.771   4.677  10.064  0.4669 -0.4819  0.2586
  867MOL0     C19574   7.775   4.863   9.787 -1.0231  1.1738 -0.4023
  867MOL0     C19575   7.723   4.743   9.734 -1.0120  0.0631 -0.9788
  867MOL0     C19576   7.566   4.732   9.737  0.6021 -0.4211  0.1063
  867MOL0     H19577   8.029   4.247   9.609  1.5014  0.1208 -1.3271
  867MOL0     H19578   8.014   4.007   9.505 -0.0159  0.2999  1.9022
  867MOL0     H19579   7.962   3.984   9.166 -1.4387  2.5280 -0.1649
  867MOL0     H19580   7.805   4.045   9.143  1.5023  0.4936 -0.0150
  867MOL0     H19581   7.882   3.754   9.139  0.2864  1.3759  1.1683
  867MOL0     H19582   7.708   3.811   9.120  0.0878  0.4389  1.4240
  867MOL0     H19583   7.744   3.906   8.913 -2.0455 -1.8251  1.5553
  867MOL0     H19584   7.917   3.912   8.936 -1.3986  1.2244 -0.8838
  867MOL0     H19585   7.854   3.753   8.756 -1.0614  0.7965  0.4209
  867MOL0     H19586   7.886   3.658   8.911  1.5555  2.0131  1.5183
  867MOL0     H19587   7.642   3.669   8.954 -1.6130  0.6365 -0.3256
  867MOL0     H19588   7.693   3.565   8.824  1.3156  0.3438 -1.1924
  867MOL0     H19589   7.561   3.850   8.805  1.0587 -0.8458  0.4287
  867MOL0     H19590   7.624   3.776   8.669  0.6469  0.6503  0.2252
  867MOL0     H19591   7.382   3.750   8.655 -0.5948  0.0212 -0.3308
  867MOL0     H19592   7.361   3.726   8.827 -0.7205 -0.1729 -0.2745
  867MOL0     H19593   7.462   3.483   8.795  2.3218 -2.0949 -3.5628
  867MOL0     H19594   7.299   3.535   8.748  0.3636  1.0840 -0.6441
  867MOL0     H19595   7.255   3.591   8.476 -0.6959 -1.0250  1.6790
  867MOL0     H19596   7.431   3.572   8.170  3.4595 -2.8021  1.3271
  867MOL0     H19597   7.261   3.540   8.222  0.0449  0.4610  0.5664
  867MOL0     H19598   7.319   3.284   8.222 -1.2344 -1.0983 -1.8737
  867MOL0     H19599   7.278   3.379   8.071  1.2245  1.4868 -1.4727
  867MOL0     H19600   7.567   3.326   8.169 -0.5163 -2.8560  1.2268
  867MOL0     H19601   7.481   3.201   8.087  2.1916 -0.9324  1.0962
  867MOL0     H19602   7.423   3.355   7.892  0.3836  1.5388 -0.9146
  867MOL0     H19603   7.545   3.471   7.943  2.0241 -1.0092 -3.0219
  867MOL0     H19604   7.663   3.115   7.739  0.2117  1.9862  2.2872
  867MOL0     H19605   7.649   3.003   7.526 -2.6540  2.3483 -0.4104
  867MOL0     H19606   7.799   3.046   7.461  0.3736  0.2361  1.0596
  867MOL0     H19607   7.651   3.091   7.369  1.0809 -2.8952 -0.6213
  867MOL0     H19608   7.596   3.396   7.062 -1.2374  0.7587 -2.6509
  867MOL0     H19609   7.656   3.449   6.845  2.0489 -1.1480 -0.4870
  867MOL0     H19610   7.821   3.417   6.682 -0.2117  0.1642  1.8724
  867MOL0     H19611   7.717   3.551   6.643  0.2229 -0.1200 -0.5654
  867MOL0     H19612   7.847   3.483   6.465 -1.1189 -2.3982  3.8164
  867MOL0     H19613   7.865   3.659   6.510  1.1253  0.4692 -1.3127
  867MOL0     H19614   8.071   3.428   6.527  2.7170  0.9695  3.5809
  867MOL0     H19615   8.079   3.545   6.641 -2.7035  0.1981 -0.0960
  867MOL0     H19616   8.224   3.614   6.460  0.1855  0.7815 -1.4093
  867MOL0     H19617   8.083   3.721   6.434 -1.1365 -1.0112  1.2521
  867MOL0     H19618   8.172   3.484   6.267  2.4657  1.9217 -3.8945
  867MOL0     H19619   7.997   3.548   6.266 -0.4961  0.7797 -1.3012
  867MOL0     H19620   8.252   3.728   6.211 -0.8433  4.0905 -1.6672
  867MOL0     H19621   8.083   3.776   6.211 -1.2293 -1.4951 -1.7598
  867MOL0     H19622   8.011   3.658   6.039 -0.5355 -0.1926 -0.5289
  867MOL0     H19623   8.167   3.584   6.008 -0.5027 -0.0576  1.4557
  867MOL0     H19624   8.275   3.797   5.943  0.8446  2.2459  0.9812
  867MOL0     H19625   8.153   3.890   6.018 -1.8423  0.3418 -2.1487
  867MOL0     H19626   7.973   3.706   6.997  2.1484 -3.6950 -1.2774
  867MOL0     H19627   7.890   3.666   7.226  0.9542  2.0088 -1.2690
  867MOL0     H19628   7.691   3.559   7.533  1.9082 -0.7147  0.2572
  867MOL0     H19629   7.640   3.525   7.774  4.3585  1.4156  0.7910
  867MOL0     H19630   7.662   4.120   9.298 -0.4250 -0.1270 -0.6428
  867MOL0     H19631   7.677   4.351   9.404 -2.8457 -1.6489  0.0382
  867MOL0     H19632   8.016   4.587   9.687 -1.3911 -1.2237 -0.4875
  867MOL0     H19633   8.098   4.796   9.796  0.3637 -2.5934  2.8001
  867MOL0     H19634   7.945   5.170   9.977 -0.9295 -1.1099  1.7662
  867MOL0     H19635   7.826   5.130   9.854 -0.2678  1.4678  1.0145
  867MOL0     H19636   7.716   4.974  10.029  0.0318 -0.5513  0.3687
  867MOL0     H19637   7.758   5.114  10.117  2.3778  0.7672 -0.0050
  867MOL0     H19638   7.989   4.926  10.096 -3.0263 -0.4364 -4.0000
  867MOL0     H19639   7.949   5.050  10.214  0.3801  0.1571  0.0750
  867MOL0     H19640   7.783   4.892  10.318  0.1601 -2.1251  1.2442
  867MOL0     H19641   7.931   4.814  10.309  0.0715 -0.6009  0.7852
  867MOL0     H19642   7.732   4.614   9.987  1.4006  0.6375 -1.1804
  867MOL0     H19643   7.703   4.942   9.807  1.2894  3.0570  0.9104
  867MOL0     H19644   7.522   4.703   9.641  0.2959 -2.7510  0.8736
  867MOL0     H19645   7.531   4.646   9.795 -0.6335 -2.3365 -3.1764
  867MOL0     H19646   7.519   4.824   9.772  3.3624  0.4423  1.8512
  868MOL0     O19647   3.508   1.231   6.907 -0.1073 -0.6940 -0.3189
  868MOL0     C19648   3.505   1.207   7.030 -0.4730 -0.0592 -0.1093
  868MOL0     O19649   3.403   1.126   7.091 -0.4735  0.7006  0.6922
  868MOL0     C19650   3.279   1.123   7.045 -0.2040 -0.0978 -0.1613
  868MOL0     C19651   3.221   1.233   6.989  0.1739 -0.6687  0.2135
  868MOL0     C19652   3.091   1.228   6.946  1.0410  0.4784 -0.4215
  868MOL0     C19653   3.010   1.117   6.966  0.8013  0.1022 -0.6654
  868MOL0     O19654   2.879   1.113   6.916 -0.1374 -0.6696 -0.0123
  868MOL0     C19655   2.792   1.007   6.965 -0.5177  0.2535 -0.1846
  868MOL0     C19656   2.641   1.048   6.966  0.2106 -0.0557  0.2941
  868MOL0     C19657   2.609   1.099   6.820  0.5307  0.1216  0.0209
  868MOL0     C19658   2.485   1.202   6.818 -0.9433 -0.1290  0.6228
  868MOL0     C19659   2.436   1.254   6.683 -0.3458  1.1993  0.0944
  868MOL0     C19660   2.318   1.351   6.701  0.2712 -0.1997 -0.0902
  868MOL0     C19661   2.190   1.283   6.723 -0.0570 -0.1658  0.0490
  868MOL0     C19662   2.079   1.385   6.724  0.3696  0.6480  0.2034
  868MOL0     N19663   1.963   1.345   6.798  0.3052  1.1398  0.0203
  868MOL0     C19664   1.894   1.424   6.882 -0.3277 -0.2588 -0.2567
  868MOL0     C19665   1.783   1.361   6.924  0.2932  0.9532  0.4550
  868MOL0     C19666   1.691   1.404   7.034 -0.6775 -0.8535  0.3211
  868MOL0     C19667   1.552   1.441   7.008 -0.0226 -0.0228 -0.3696
  868MOL0     C19668   1.537   1.496   6.865  0.2413  0.8492  1.2992
  868MOL0     C19669   1.383   1.525   6.832  0.5981 -0.1846  0.3071
  868MOL0     O19670   1.353   1.657   6.867  0.3723  0.2814 -0.3830
  868MOL0     C19671   1.235   1.692   6.809  0.9688  0.6231  0.3949
  868MOL0     C19672   1.197   1.826   6.829  1.0245  1.1084  0.3042
  868MOL0     C19673   1.073   1.875   6.788 -0.2765  0.8553 -0.7982
  868MOL0     C19674   1.036   2.015   6.824  0.0757 -0.2245  0.3396
  868MOL0     C19675   0.984   1.787   6.719  0.0845 -0.4758  0.4377
  868MOL0     C19676   0.849   1.822   6.676 -0.7931  0.1463  0.1178
  868MOL0     O19677   0.767   1.718   6.648 -0.2274  0.2573 -0.5665
  868MOL0     C19678   0.643   1.747   6.595 -0.3053  0.3691 -0.1588
  868MOL0     C19679   0.635   1.748   6.456 -0.2904  0.0570 -0.1114
  868MOL0     C19680   0.519   1.784   6.391 -0.0596  0.5275  0.4790
  868MOL0     C19681   0.402   1.798   6.463  1.3110 -0.3006 -0.0558
  868MOL0     O19682   0.279   1.820   6.410  0.3549 -0.4083 -0.4769
  868MOL0     C19683   0.250   1.830   6.266  0.4860 -0.4971 -0.5259
  868MOL0     C19684   0.259   1.708   6.184  0.3998  0.4946  0.1081
  868MOL0     C19685   0.212   1.580   6.254  0.0422 -0.2187  0.8284
  868MOL0     C19686   0.078   1.583   6.320 -0.4525 -0.7442  0.0218
  868MOL0     C19687   0.060   1.462   6.414  0.0954  0.3323  0.0233
  868MOL0     C19688  -0.042   1.461   6.525  0.2238  0.1109 -0.8144
  868MOL0     C19689  -0.057   1.314   6.580  0.6548  0.9204  0.1143
  868MOL0     C19690  -0.123   1.287   6.715 -0.6192  0.4897 -0.2156
  868MOL0    Cl19691  -0.278   1.373   6.706  0.4278 -0.1156  0.1483
  868MOL0     C19692   0.410   1.801   6.610 -0.2880  1.2191  0.6713
  868MOL0     C19693   0.533   1.774   6.670  0.3534 -1.0604 -0.0576
  868MOL0     O19694   0.819   1.940   6.674 -0.0432  0.4075  0.2122
  868MOL0     C19695   1.018   1.648   6.703 -0.5503 -1.0192  0.0987
  868MOL0     C19696   1.136   1.599   6.747 -0.8929 -0.3687 -0.3706
  868MOL0     N19697   1.790   1.237   6.873 -0.3770 -0.1200  0.2708
  868MOL0     N19698   1.898   1.225   6.801  0.0828  0.1024 -0.4083
  868MOL0     C19699   3.069   1.001   7.024  0.3871  0.7635 -0.1886
  868MOL0     C19700   3.206   1.000   7.061 -0.0265 -0.7048 -0.1950
  868MOL0     C19701   3.620   1.228   7.124  0.6799 -0.7202  1.1204
  868MOL0     C19702   3.653   1.129   7.220  0.1437  0.5074  0.7842
  868MOL0     C19703   3.761   1.122   7.303 -0.2044 -0.3629  1.0956
  868MOL0     C19704   3.840   1.237   7.302  0.2680  0.0770 -0.1401
  868MOL0     O19705   3.961   1.228   7.374 -0.5634 -0.3304  0.6795
  868MOL0     C19706   4.007   1.341   7.442 -0.5516 -0.5336 -0.4388
  868MOL0     C19707   4.021   1.307   7.593 -0.6283 -0.4961 -0.3109
  868MOL0     C19708   3.890   1.308   7.667  0.5969 -0.3722  0.0033
  868MOL0     C19709   3.810   1.439   7.665  1.2008 -0.6134 -0.2823
  868MOL0     C19710   3.886   1.544   7.736 -0.0927 -0.4399  0.4133
  868MOL0     C19711   3.955   1.627   7.792  0.2664 -1.1540  0.0673
  868MOL0     C19712   3.823   1.341   7.204 -0.7069  0.0636 -1.1011
  868MOL0     C19713   3.721   1.333   7.113  0.5121  0.0747  0.3100
  868MOL0     C19714   3.708   1.446   7.015 -0.4028 -0.4491 -0.4894
  868MOL0     H19715   3.272   1.329   6.997 -0.2252 -0.4171 -0.1784
  868MOL0     H19716   3.044   1.316   6.902  1.1944  0.6031 -0.3383
  868MOL0     H19717   2.809   0.982   7.070  1.5499  1.3684 -0.1824
  868MOL0     H19718   2.807   0.918   6.902  2.1865 -1.0160  2.0492
  868MOL0     H19719   2.575   0.963   6.988 -0.1086  0.1927  0.2958
  868MOL0     H19720   2.619   1.131   7.033  2.4769  3.0930 -2.5256
  868MOL0     H19721   2.699   1.137   6.771 -0.9649  0.8902 -2.2868
  868MOL0     H19722   2.579   1.008   6.767  2.2141 -0.9761  0.8589
  868MOL0     H19723   2.405   1.147   6.869  1.3279 -1.3209  3.1320
  868MOL0     H19724   2.523   1.284   6.880  0.0942 -2.3732  3.1988
  868MOL0     H19725   2.400   1.172   6.621 -1.8358  2.7751 -1.2361
  868MOL0     H19726   2.515   1.305   6.626 -0.8288  0.5164 -1.2277
  868MOL0     H19727   2.337   1.424   6.781 -0.5954  0.3944 -0.4112
  868MOL0     H19728   2.312   1.395   6.601 -1.8348  0.7141  0.3822
  868MOL0     H19729   2.181   1.243   6.824 -1.9176 -1.4411 -0.5620
  868MOL0     H19730   2.180   1.202   6.649  0.1240 -0.8433  0.7480
  868MOL0     H19731   2.112   1.479   6.771  1.3875 -0.2294  1.3114
  868MOL0     H19732   2.062   1.403   6.617  2.3006 -1.3681 -0.5407
  868MOL0     H19733   1.905   1.529   6.906 -2.0946  0.3571 -1.8428
  868MOL0     H19734   1.736   1.495   7.076 -2.5530 -0.0982  0.7648
  868MOL0     H19735   1.693   1.325   7.109  2.1617 -0.7455  0.4759
  868MOL0     H19736   1.484   1.357   7.026 -0.0598 -0.0350 -0.5615
  868MOL0     H19737   1.513   1.520   7.073 -1.1702  0.6070 -1.7520
  868MOL0     H19738   1.591   1.585   6.831  1.8128 -0.3747  0.5140
  868MOL0     H19739   1.564   1.410   6.803  0.2169  0.1368  2.2500
  868MOL0     H19740   1.357   1.512   6.726  1.6980 -2.1963  0.2272
  868MOL0     H19741   1.323   1.461   6.896  0.1872  1.1621  1.3084
  868MOL0     H19742   1.266   1.895   6.877  0.1812  2.7117 -0.6898
  868MOL0     H19743   1.110   2.059   6.892 -0.8624 -0.7393  1.7443
  868MOL0     H19744   0.939   2.011   6.875 -0.4398  0.6095 -0.5267
  868MOL0     H19745   1.023   2.080   6.737 -0.4930 -0.8568 -0.0601
  868MOL0     H19746   0.712   1.717   6.387 -2.4110 -1.4692 -1.9150
  868MOL0     H19747   0.516   1.791   6.283  0.2656  0.0394  0.4376
  868MOL0     H19748   0.151   1.875   6.252  1.4378  2.2090  0.6868
  868MOL0     H19749   0.316   1.913   6.237 -2.0871  2.4606  1.4302
  868MOL0     H19750   0.195   1.723   6.096 -1.1313 -1.8112  0.7601
  868MOL0     H19751   0.363   1.695   6.150 -0.0497  1.2190 -1.6679
  868MOL0     H19752   0.291   1.549   6.323  1.1904 -2.3713 -1.3012
  868MOL0     H19753   0.215   1.491   6.191  3.2136 -2.4635  3.7984
  868MOL0     H19754  -0.001   1.573   6.245  2.3422 -1.2788 -3.0744
  868MOL0     H19755   0.074   1.680   6.371 -0.1009 -0.7875  0.1353
  868MOL0     H19756   0.024   1.383   6.347  1.5548  0.8506 -1.4347
  868MOL0     H19757   0.161   1.438   6.448 -0.0293  0.1255  0.2461
  868MOL0     H19758  -0.141   1.482   6.483 -1.1148 -2.6477  0.6663
  868MOL0     H19759  -0.006   1.523   6.607  2.2056 -1.8459 -0.1005
  868MOL0     H19760   0.041   1.267   6.594  0.3710  0.3046  0.0682
  868MOL0     H19761  -0.121   1.260   6.509 -0.7008  0.0170  1.9318
  868MOL0     H19762  -0.058   1.328   6.793 -1.2380 -0.0511  0.6040
  868MOL0     H19763  -0.133   1.182   6.743 -1.1504  0.4544 -0.5232
  868MOL0     H19764   0.339   1.823   6.689 -1.9558 -0.0351 -0.3994
  868MOL0     H19765   0.555   1.788   6.776 -0.8260  1.0104 -0.0303
  868MOL0     H19766   0.953   1.572   6.660  1.4707 -1.6651 -1.9542
  868MOL0     H19767   1.156   1.492   6.741 -0.9385 -0.5214  1.7496
  868MOL0     H19768   3.017   0.908   7.044 -0.1097  1.3102  1.2212
  868MOL0     H19769   3.251   0.913   7.107  0.0384  0.5811  2.3745
  868MOL0     H19770   3.581   1.048   7.211  0.7459  0.1494 -1.1941
  868MOL0     H19771   3.786   1.033   7.359  2.4196 -0.3339  0.0992
  868MOL0     H19772   4.108   1.365   7.408 -0.5526  0.2258  0.0706
  868MOL0     H19773   3.937   1.424   7.428 -3.6270 -2.9291 -0.2426
  868MOL0     H19774   4.083   1.377   7.649 -0.8679 -0.3812 -0.1869
  868MOL0     H19775   4.050   1.203   7.604 -1.5401 -0.9863 -2.1175
  868MOL0     H19776   3.823   1.233   7.622 -1.4264  0.4325  1.4919
  868MOL0     H19777   3.917   1.297   7.772 -2.3190  0.6994  0.9781
  868MOL0     H19778   3.711   1.427   7.712  1.1988 -2.6510 -0.7326
  868MOL0     H19779   3.784   1.469   7.563 -1.3530  1.3566  0.8208
  868MOL0     H19780   4.004   1.702   7.850 -0.6447 -1.5348  1.3654
  868MOL0     H19781   3.900   1.416   7.212  1.9424 -2.6142  1.0436
  868MOL0     H19782   3.602   1.459   6.988 -0.9417 -0.9364  1.2871
  868MOL0     H19783   3.747   1.536   7.064  4.6311 -1.8307 -1.4612
  868MOL0     H19784   3.757   1.436   6.918 -1.0482  0.8687 -0.9768
  869MOL0     O19785   3.360   2.472  11.031 -0.2028  0.4645  0.0837
  869MOL0     C19786   3.378   2.589  11.074 -0.0606  0.0188  0.4592
  869MOL0     O19787   3.324   2.705  11.019 -0.9503 -0.5380 -0.7868
  869MOL0     C19788   3.208   2.691  10.943 -0.6506  0.1912  0.0805
  869MOL0     C19789   3.209   2.752  10.809  0.1364  0.5070 -0.6833
  869MOL0     C19790   3.096   2.733  10.730 -0.3668 -0.3790  0.1401
  869MOL0     C19791   2.984   2.663  10.772 -0.1459  0.2929 -0.3216
  869MOL0     O19792   2.875   2.657  10.684  0.1393  0.6386 -0.1981
  869MOL0     C19793   2.756   2.582  10.730  0.9042 -0.3432 -0.8239
  869MOL0     C19794   2.666   2.544  10.613  0.2013 -1.1072  0.5003
  869MOL0     C19795   2.722   2.423  10.544  0.4416 -0.5138 -0.0120
  869MOL0     C19796   2.595   2.352  10.489 -0.1001  0.2190 -0.0992
  869MOL0     C19797   2.631   2.207  10.458  0.3527  0.3317 -0.0022
  869MOL0     C19798   2.743   2.182  10.355  0.2630  0.5168 -0.0664
  869MOL0     C19799   2.751   2.023  10.338 -0.6113 -0.8569 -0.5688
  869MOL0     C19800   2.841   1.992  10.215  0.4205  0.2221 -0.0361
  869MOL0     N19801   2.856   1.850  10.185 -0.6713  0.3435  0.4534
  869MOL0     C19802   2.945   1.761  10.240 -0.0120 -1.0369  0.3874
  869MOL0     C19803   2.932   1.643  10.185 -0.1260  0.9181 -0.4287
  869MOL0     C19804   3.016   1.526  10.209 -0.4640  0.8300  0.0076
  869MOL0     C19805   2.968   1.409  10.124  0.4752  0.4193 -0.7145
  869MOL0     C19806   3.063   1.292  10.131 -0.2410  0.6891 -0.0956
  869MOL0     C19807   3.042   1.208  10.260  0.1284  0.4774 -0.1423
  869MOL0     O19808   3.094   1.258  10.377 -0.6351 -0.5289  0.5262
  869MOL0     C19809   3.104   1.193  10.493  0.4506 -0.4314 -0.5580
  869MOL0     C19810   3.094   1.271  10.608  0.3112 -0.4173  0.4209
  869MOL0     C19811   3.102   1.204  10.739 -0.0639  0.0697  0.1607
  869MOL0     C19812   3.118   1.294  10.859  0.3184  0.4946  0.2704
  869MOL0     C19813   3.110   1.071  10.749 -0.6045 -0.2778  0.9483
  869MOL0     C19814   3.104   0.986  10.872 -0.2530 -0.1500  1.0714
  869MOL0     O19815   3.136   0.855  10.859 -0.4135 -0.5705 -0.0891
  869MOL0     C19816   3.127   0.788  10.984 -0.2147 -0.9605 -0.2688
  869MOL0     C19817   3.221   0.791  11.084 -0.9495 -0.2786 -0.7659
  869MOL0     C19818   3.219   0.698  11.194 -0.7402 -1.5588 -0.3834
  869MOL0     C19819   3.111   0.614  11.215  0.5161 -0.0992 -0.3589
  869MOL0     O19820   3.118   0.520  11.320 -0.2697  0.2980 -0.9812
  869MOL0     C19821   3.021   0.407  11.326 -0.0770 -0.2026  1.1423
  869MOL0     C19822   3.033   0.335  11.466  0.3936 -0.7348  0.0013
  869MOL0     C19823   3.172   0.280  11.502  0.0437  0.6766  0.5614
  869MOL0     C19824   3.159   0.187  11.625  0.9683  0.4201 -1.1787
  869MOL0     C19825   3.298   0.196  11.701 -0.3306  0.4623 -0.3336
  869MOL0     C19826   3.298   0.128  11.834 -0.9361  0.0383 -1.1936
  869MOL0     C19827   3.423   0.149  11.918  0.7395 -0.2551 -0.0861
  869MOL0     C19828   3.444   0.034  12.013 -0.3226 -0.2076 -0.0542
  869MOL0    Cl19829   3.573   0.066  12.136  0.2990  0.1096 -0.1607
  869MOL0     C19830   2.998   0.630  11.120 -0.3238  0.5827  0.2307
  869MOL0     C19831   3.019   0.704  10.997 -0.2610 -0.1032 -0.8099
  869MOL0     O19832   3.072   1.038  10.973 -0.1475  0.3940 -0.0694
  869MOL0     C19833   3.106   0.998  10.630 -0.4441 -1.3650 -0.6310
  869MOL0     C19834   3.110   1.060  10.508  0.3040  0.5047 -0.2970
  869MOL0     N19835   2.817   1.649  10.101  0.3496  0.0737 -0.4327
  869MOL0     N19836   2.779   1.775  10.102 -0.5406  0.8492 -0.7834
  869MOL0     C19837   2.989   2.609  10.904 -0.4848  0.4004 -0.4814
  869MOL0     C19838   3.095   2.623  10.989 -0.0531  0.1682 -0.4417
  869MOL0     C19839   3.473   2.622  11.180 -0.9000 -0.1415 -0.3446
  869MOL0     C19840   3.428   2.724  11.269 -0.1092 -0.4656  0.2360
  869MOL0     C19841   3.509   2.760  11.379 -0.2114 -0.5246 -0.5494
  869MOL0     C19842   3.636   2.700  11.404 -0.2523 -0.4169  0.1150
  869MOL0     O19843   3.714   2.738  11.521 -0.3901  0.4684  0.9815
  869MOL0     C19844   3.855   2.710  11.530  0.7992 -0.7628  1.5412
  869MOL0     C19845   3.915   2.814  11.425  0.4601  0.8531 -1.6362
  869MOL0     C19846   4.077   2.791  11.402  0.5162  0.0487  0.2284
  869MOL0     C19847   4.113   2.670  11.319 -1.0796 -0.1783 -0.5300
  869MOL0     C19848   4.266   2.671  11.301  0.9946 -0.2089 -0.1591
  869MOL0     C19849   4.388   2.663  11.306  0.7331 -0.5349 -0.0398
  869MOL0     C19850   3.677   2.603  11.312  0.4610 -0.0068  0.0549
  869MOL0     C19851   3.594   2.562  11.202 -1.7123  0.6009 -0.1896
  869MOL0     C19852   3.649   2.441  11.120  0.3253 -0.7706  0.2856
  869MOL0     H19853   3.295   2.804  10.769 -0.5792  1.6189 -0.8402
  869MOL0     H19854   3.092   2.783  10.634 -0.2797  0.8050  0.7370
  869MOL0     H19855   2.713   2.652  10.801  3.0321 -3.3707  3.9380
  869MOL0     H19856   2.782   2.495  10.791 -2.5205 -3.1002 -2.8894
  869MOL0     H19857   2.563   2.540  10.650 -0.5178  2.7211 -0.5905
  869MOL0     H19858   2.666   2.631  10.546 -0.5552 -1.9669 -0.6672
  869MOL0     H19859   2.791   2.445  10.462  1.2080 -0.7473  0.5559
  869MOL0     H19860   2.778   2.354  10.608 -0.1907 -0.2565  0.8229
  869MOL0     H19861   2.522   2.347  10.570 -0.0749 -1.1635 -0.1376
  869MOL0     H19862   2.559   2.410  10.404  4.1254  2.2209 -0.7996
  869MOL0     H19863   2.541   2.153  10.428 -0.1974  1.6024 -0.7058
  869MOL0     H19864   2.668   2.152  10.546 -2.5106 -5.5447 -1.9183
  869MOL0     H19865   2.717   2.210  10.253 -1.8170  0.3388  0.3812
  869MOL0     H19866   2.837   2.229  10.386  0.8553  2.4685 -4.1868
  869MOL0     H19867   2.653   1.975  10.327 -2.3823  2.4392 -0.3310
  869MOL0     H19868   2.802   1.993  10.430  1.8822  0.7166 -1.3613
  869MOL0     H19869   2.795   2.048  10.133  1.8797 -1.1231 -1.8649
  869MOL0     H19870   2.940   2.032  10.238  1.1321 -1.4019 -0.1605
  869MOL0     H19871   3.023   1.794  10.309  0.0035  3.2990 -1.4089
  869MOL0     H19872   3.007   1.495  10.314 -2.6589 -1.3961 -0.7401
  869MOL0     H19873   3.115   1.563  10.180 -0.1180 -1.5614 -2.2266
  869MOL0     H19874   2.868   1.389  10.162  0.1852  0.4055 -1.4702
  869MOL0     H19875   2.966   1.444  10.020 -3.7022  4.3310  0.3590
  869MOL0     H19876   3.054   1.225  10.046 -1.6692  2.0193 -1.0382
  869MOL0     H19877   3.167   1.325  10.121 -0.9574  2.2918 -3.2084
  869MOL0     H19878   2.941   1.184  10.295  0.0116  1.7104  0.4233
  869MOL0     H19879   3.092   1.110  10.254 -0.0497  0.4817 -4.0378
  869MOL0     H19880   3.089   1.377  10.585 -0.4431 -0.3087  1.0447
  869MOL0     H19881   3.119   1.399  10.829 -0.4501 -0.5202 -3.7828
  869MOL0     H19882   3.213   1.265  10.905  1.8811 -0.4183 -3.2118
  869MOL0     H19883   3.028   1.276  10.918  0.8584 -2.0751  0.4106
  869MOL0     H19884   3.302   0.862  11.071 -1.0680 -0.0090 -0.0966
  869MOL0     H19885   3.308   0.693  11.257  0.0724 -0.6657 -1.4206
  869MOL0     H19886   2.917   0.440  11.316  1.0264  4.0547  1.9234
  869MOL0     H19887   3.036   0.341  11.240  0.3654  0.8494  0.3870
  869MOL0     H19888   3.017   0.411  11.542  1.9432  0.7468 -1.0953
  869MOL0     H19889   2.954   0.260  11.480  3.1959 -3.2643  4.2343
  869MOL0     H19890   3.242   0.360  11.525  1.4518 -0.4699  0.3843
  869MOL0     H19891   3.208   0.223  11.416 -0.4512  1.0360  0.1094
  869MOL0     H19892   3.127   0.088  11.590 -2.2265  0.7286  0.4285
  869MOL0     H19893   3.072   0.217  11.685 -0.4529 -2.4920 -1.5623
  869MOL0     H19894   3.375   0.158  11.635 -0.4934 -2.7317  1.1635
  869MOL0     H19895   3.320   0.299  11.731 -0.1862 -0.6512  3.9663
  869MOL0     H19896   3.285   0.020  11.821 -0.4903 -0.0634 -0.8235
  869MOL0     H19897   3.222   0.178  11.896 -1.4594 -3.0387  0.8757
  869MOL0     H19898   3.406   0.244  11.970 -0.5797 -1.4932  1.9053
  869MOL0     H19899   3.508   0.151  11.850  2.5433 -1.4824  2.0064
  869MOL0     H19900   3.470  -0.057  11.958  2.2966  0.5390 -0.1908
  869MOL0     H19901   3.351   0.006  12.062 -1.0669 -0.0900 -1.3479
  869MOL0     H19902   2.913   0.563  11.119  1.0085 -1.1932 -0.3721
  869MOL0     H19903   2.940   0.699  10.922 -2.1171  2.4971  0.8216
  869MOL0     H19904   3.106   0.889  10.627 -2.3881 -1.5938  2.5891
  869MOL0     H19905   3.109   0.992  10.424 -1.0746 -1.8001  1.4780
  869MOL0     H19906   2.909   2.553  10.951 -0.4106 -0.3566 -1.2409
  869MOL0     H19907   3.092   2.572  11.084  0.7100 -2.6878 -1.8587
  869MOL0     H19908   3.327   2.763  11.271 -0.6143 -1.6376 -0.7607
  869MOL0     H19909   3.474   2.835  11.449  1.6927 -1.1269  1.1766
  869MOL0     H19910   3.892   2.730  11.631 -0.4495 -2.0768  2.2966
  869MOL0     H19911   3.885   2.609  11.501  1.0509 -0.0523 -0.9105
  869MOL0     H19912   3.892   2.910  11.471  1.9154  1.5415 -2.2682
  869MOL0     H19913   3.863   2.806  11.329 -0.9669  0.9664 -0.8953
  869MOL0     H19914   4.104   2.883  11.350  0.2902 -1.8368 -3.6066
  869MOL0     H19915   4.128   2.776  11.497 -0.4074 -0.3995  0.6725
  869MOL0     H19916   4.070   2.682  11.219  1.2542  0.0147 -1.5720
  869MOL0     H19917   4.082   2.579  11.370 -1.1318 -1.1057 -2.1602
  869MOL0     H19918   4.495   2.668  11.315  1.0333  1.6125 -3.1443
  869MOL0     H19919   3.773   2.555  11.323 -0.6793 -2.1032  1.7022
  869MOL0     H19920   3.681   2.467  11.018  0.0641 -1.8297 -0.0748
  869MOL0     H19921   3.734   2.393  11.170  0.5544 -1.7599 -0.9980
  869MOL0     H19922   3.567   2.369  11.114  0.5754 -0.9464 -2.6365
  870MOL0     O19923   3.012   5.138   8.829 -0.2869 -0.1252 -1.6013
  870MOL0     C19924   3.057   5.038   8.776  0.0654 -1.1918 -1.1252
  870MOL0     O19925   3.180   5.031   8.723  0.6280  0.6162 -0.8368
  870MOL0     C19926   3.281   5.111   8.763 -0.8321 -0.5412 -0.6676
  870MOL0     C19927   3.414   5.063   8.763 -0.5733  0.5743  0.6721
  870MOL0     C19928   3.526   5.149   8.787 -0.6189  0.6788 -0.0115
  870MOL0     C19929   3.508   5.287   8.805  0.4034 -0.1540  1.0460
  870MOL0     O19930   3.601   5.382   8.832  0.8576 -0.1704  0.2522
  870MOL0     C19931   3.737   5.345   8.872  0.4314  0.3976  0.0080
  870MOL0     C19932   3.831   5.325   8.748 -0.1925  0.1083 -0.9434
  870MOL0     C19933   3.833   5.446   8.652 -0.3532  0.4633 -0.2642
  870MOL0     C19934   3.918   5.416   8.524 -0.4090  0.2444  0.2456
  870MOL0     C19935   4.068   5.392   8.564 -0.0298 -0.0233 -0.1667
  870MOL0     C19936   4.169   5.396   8.441 -0.7583  0.1179 -0.0835
  870MOL0     C19937   4.161   5.269   8.346  0.0051 -0.4701  0.1785
  870MOL0     C19938   4.227   5.136   8.396  0.7438 -0.1325 -0.1796
  870MOL0     N19939   4.175   5.068   8.521 -0.6934  0.3606  0.3507
  870MOL0     C19940   4.051   5.024   8.548 -0.9655 -0.6842  0.5633
  870MOL0     C19941   4.067   4.957   8.665  0.4455  0.4731  0.7393
  870MOL0     C19942   3.953   4.871   8.720  0.5739  0.9639  0.1355
  870MOL0     C19943   3.845   4.921   8.823 -0.5244  0.1736  0.0621
  870MOL0     C19944   3.880   4.870   8.965  0.4908  0.0213 -0.5228
  870MOL0     C19945   3.996   4.945   9.028 -0.2902  0.3365  0.1141
  870MOL0     O19946   3.958   5.076   9.062  0.3568 -0.1669  0.0659
  870MOL0     C19947   4.064   5.161   9.101  0.0340 -0.2485  0.5387
  870MOL0     C19948   4.031   5.290   9.163 -0.0966 -0.3606  0.0504
  870MOL0     C19949   4.122   5.386   9.204 -0.6812 -0.0848 -1.6344
  870MOL0     C19950   4.081   5.515   9.260 -0.0018 -0.0686  0.7220
  870MOL0     C19951   4.259   5.348   9.197 -0.0970  0.5956 -0.7154
  870MOL0     C19952   4.382   5.427   9.248  0.7791  0.0730  0.1106
  870MOL0     O19953   4.359   5.518   9.350  0.5980  0.3338  0.1531
  870MOL0     C19954   4.445   5.622   9.369  0.3217 -0.0348 -0.8506
  870MOL0     C19955   4.493   5.702   9.265 -0.0136 -0.3543  0.7256
  870MOL0     C19956   4.586   5.799   9.289 -0.7938  0.3678 -0.2333
  870MOL0     C19957   4.644   5.803   9.416  0.2715 -0.3611 -0.5328
  870MOL0     O19958   4.760   5.875   9.429  1.1442  0.2360  0.2717
  870MOL0     C19959   4.745   5.988   9.511  0.0915  1.0518 -0.6204
  870MOL0     C19960   4.824   6.108   9.450 -0.0777 -0.2994 -0.2100
  870MOL0     C19961   4.791   6.235   9.528 -0.9801 -0.0800  0.4241
  870MOL0     C19962   4.853   6.235   9.669 -0.6811 -0.2834  1.3333
  870MOL0     C19963   4.860   6.380   9.712 -0.8091 -0.6892 -0.8747
  870MOL0     C19964   4.938   6.398   9.841 -0.7289 -0.7714 -0.7279
  870MOL0     C19965   4.927   6.549   9.879  0.3301  0.0942 -0.5332
  870MOL0     C19966   4.992   6.570  10.013 -0.8539 -0.1823  0.1332
  870MOL0    Cl19967   5.020   6.753  10.032 -0.2271  0.0207 -0.3608
  870MOL0     C19968   4.604   5.721   9.529 -0.1866 -0.8515  0.8540
  870MOL0     C19969   4.496   5.635   9.501 -0.3846 -0.7605  0.3314
  870MOL0     O19970   4.493   5.399   9.214 -0.1168 -0.8578  0.1318
  870MOL0     C19971   4.295   5.228   9.127  0.3942 -0.9539 -0.8470
  870MOL0     C19972   4.197   5.129   9.098 -0.6310 -0.7984  0.1648
  870MOL0     N19973   4.192   4.967   8.719  0.1297  0.7098 -0.4964
  870MOL0     N19974   4.259   5.021   8.625  0.3098 -0.5723 -0.6529
  870MOL0     C19975   3.378   5.343   8.790  1.1644  0.6168 -0.9565
  870MOL0     C19976   3.270   5.255   8.770  0.3762  0.7991 -0.3082
  870MOL0     C19977   2.962   4.917   8.762  0.1182 -0.1904 -0.6144
  870MOL0     C19978   2.828   4.922   8.805  0.1798 -0.3362  0.9506
  870MOL0     C19979   2.740   4.810   8.810 -0.2735 -0.9036 -0.3661
  870MOL0     C19980   2.779   4.681   8.767 -0.1394  0.5723 -0.2588
  870MOL0     O19981   2.686   4.577   8.776  0.3258 -0.6392  0.5302
  870MOL0     C19982   2.729   4.451   8.729 -0.4945  0.3569 -0.4077
  870MOL0     C19983   2.722   4.441   8.578 -0.4360  0.4217 -1.1619
  870MOL0     C19984   2.777   4.298   8.530  0.0411 -0.2236  0.1438
  870MOL0     C19985   2.799   4.287   8.380 -0.1989  1.1635  0.6092
  870MOL0     C19986   2.667   4.300   8.318 -0.0755 -0.0983 -0.9679
  870MOL0     C19987   2.556   4.323   8.269 -0.3306  0.0131  0.1913
  870MOL0     C19988   2.921   4.674   8.741 -0.1922  0.0053  0.7482
  870MOL0     C19989   3.007   4.789   8.727  0.0494  0.7120  0.4042
  870MOL0     C19990   3.152   4.753   8.691 -0.1436 -0.3965  0.0643
  870MOL0     H19991   3.437   4.960   8.738  0.9769  1.9078 -5.1887
  870MOL0     H19992   3.622   5.103   8.804 -2.2426 -1.9041  3.3930
  870MOL0     H19993   3.741   5.252   8.930  0.7870  1.5507  1.9039
  870MOL0     H19994   3.776   5.420   8.941  1.4862 -1.0623  1.0409
  870MOL0     H19995   3.928   5.308   8.795 -1.6677 -3.2169  1.2400
  870MOL0     H19996   3.815   5.231   8.695  0.7050 -0.6629  0.1193
  870MOL0     H19997   3.733   5.465   8.612  0.1333  1.3775 -1.0839
  870MOL0     H19998   3.886   5.529   8.701  0.8080 -1.5678  2.1448
  870MOL0     H19999   3.894   5.324   8.469 -0.0559  1.4778 -2.1066
  870MOL0     H20000   3.917   5.503   8.458  1.1612  0.9697  1.1186
  870MOL0     H20001   4.069   5.299   8.621 -0.0430 -0.4066 -0.7810
  870MOL0     H20002   4.106   5.471   8.630 -2.1881  0.9468 -0.0107
  870MOL0     H20003   4.156   5.487   8.382  0.8663 -0.0868 -0.8109
  870MOL0     H20004   4.272   5.401   8.478  0.2081  2.5362 -2.7019
  870MOL0     H20005   4.218   5.298   8.257 -1.3428 -1.1514 -0.9477
  870MOL0     H20006   4.053   5.267   8.328 -0.0837  2.5980 -0.1766
  870MOL0     H20007   4.217   5.072   8.308  1.1479  0.8792 -0.9845
  870MOL0     H20008   4.332   5.159   8.413  0.1699  2.4855  0.2258
  870MOL0     H20009   3.970   5.039   8.477  0.0868 -3.1087 -1.2978
  870MOL0     H20010   3.989   4.773   8.754 -1.0243  1.1992  2.7799
  870MOL0     H20011   3.906   4.840   8.626  0.7908 -1.5436  0.7797
  870MOL0     H20012   3.845   5.030   8.812  1.1570  0.0676 -1.2532
  870MOL0     H20013   3.745   4.884   8.797  1.2095 -3.3781 -2.1965
  870MOL0     H20014   3.790   4.877   9.026 -1.5963 -0.9676 -3.2864
  870MOL0     H20015   3.896   4.762   8.968 -0.0602 -0.0682 -0.7042
  870MOL0     H20016   4.033   4.891   9.115 -0.6490 -0.9925 -0.5242
  870MOL0     H20017   4.071   4.944   8.948 -0.7762  1.6520 -0.3882
  870MOL0     H20018   3.924   5.306   9.179 -0.3263 -1.0745 -0.6972
  870MOL0     H20019   4.149   5.593   9.222 -2.6809  0.9296 -2.4911
  870MOL0     H20020   4.077   5.522   9.369 -4.1876 -3.4781  1.0544
  870MOL0     H20021   3.980   5.528   9.220 -0.1173 -1.2882  0.5996
  870MOL0     H20022   4.447   5.692   9.167  0.3763  1.1659  0.3650
  870MOL0     H20023   4.613   5.853   9.199 -0.5028  1.9006  0.7378
  870MOL0     H20024   4.643   6.024   9.527 -1.3933 -0.9622 -4.2897
  870MOL0     H20025   4.793   5.957   9.604 -2.6040  0.6841  0.7196
  870MOL0     H20026   4.932   6.088   9.452 -0.1369 -0.6016 -0.1119
  870MOL0     H20027   4.796   6.117   9.345  0.3368 -1.1932 -0.4085
  870MOL0     H20028   4.685   6.259   9.543 -1.2235 -0.4565 -0.6055
  870MOL0     H20029   4.841   6.316   9.474  1.0158 -0.1842  2.0117
  870MOL0     H20030   4.943   6.173   9.669 -3.1979 -4.2817  0.7356
  870MOL0     H20031   4.785   6.188   9.741 -3.1160  3.0985  1.5300
  870MOL0     H20032   4.899   6.436   9.627 -0.3565  1.1322  0.4643
  870MOL0     H20033   4.756   6.416   9.714 -0.7024  0.1687 -4.2012
  870MOL0     H20034   5.043   6.369   9.833 -0.7334 -0.2942 -4.0816
  870MOL0     H20035   4.891   6.341   9.922  1.9861  2.1677  3.3265
  870MOL0     H20036   4.821   6.572   9.886  0.4184  0.3453 -0.0038
  870MOL0     H20037   4.984   6.612   9.810  1.5382  2.4164  2.3579
  870MOL0     H20038   5.083   6.509  10.016 -0.9437 -0.2879  1.0680
  870MOL0     H20039   4.925   6.546  10.096 -1.6970  1.8144  0.0755
  870MOL0     H20040   4.653   5.735   9.625  0.1333 -0.6132  0.6598
  870MOL0     H20041   4.460   5.568   9.578 -0.1563 -0.4914  0.6753
  870MOL0     H20042   4.401   5.204   9.120  1.2253  2.1166 -0.4795
  870MOL0     H20043   4.235   5.033   9.063 -0.5730 -0.8855  0.4653
  870MOL0     H20044   3.353   5.449   8.789 -0.9943  0.1782  0.1733
  870MOL0     H20045   3.169   5.296   8.765 -1.4398 -3.0080  1.5769
  870MOL0     H20046   2.786   5.017   8.835  3.2225  0.6066  2.7252
  870MOL0     H20047   2.635   4.833   8.820  0.1181  1.7435 -1.6095
  870MOL0     H20048   2.831   4.429   8.761  0.9978  2.9120 -2.9115
  870MOL0     H20049   2.664   4.377   8.778  1.6721 -0.8870  0.7444
  870MOL0     H20050   2.781   4.511   8.519 -0.4146  1.0515 -0.4180
  870MOL0     H20051   2.616   4.452   8.553 -0.8359 -1.2667 -0.3776
  870MOL0     H20052   2.877   4.288   8.575 -0.0010  1.4943  0.6744
  870MOL0     H20053   2.714   4.220   8.574 -1.0398  0.5937  0.0658
  870MOL0     H20054   2.837   4.186   8.362 -0.5554  0.8306  1.6360
  870MOL0     H20055   2.850   4.373   8.337 -0.1785  0.9408  0.1801
  870MOL0     H20056   2.466   4.321   8.210  1.1800 -1.8778 -2.2421
  870MOL0     H20057   2.963   4.580   8.708  1.2916 -0.0409  2.6242
  870MOL0     H20058   3.178   4.647   8.688  3.9135  0.3144  2.0610
  870MOL0     H20059   3.178   4.796   8.594 -0.6859  1.9385  0.8766
  870MOL0     H20060   3.215   4.790   8.773  0.4800  1.4476 -1.1942
  871MOL0     O20061   0.878   6.133   7.114  0.1586 -0.4612  0.3172
  871MOL0     C20062   0.844   6.237   7.058 -1.3609 -0.4816  0.2468
  871MOL0     O20063   0.736   6.314   7.089  0.6524  0.1271  0.4088
  871MOL0     C20064   0.636   6.250   7.161 -0.5130  0.6500 -1.0124
  871MOL0     C20065   0.526   6.210   7.095  0.4028  0.8214 -0.1395
  871MOL0     C20066   0.409   6.150   7.157 -0.4633 -0.0032  0.4333
  871MOL0     C20067   0.411   6.141   7.296 -0.6692  0.6534 -0.4630
  871MOL0     O20068   0.313   6.084   7.372  0.7241 -0.8093 -1.2292
  871MOL0     C20069   0.202   6.025   7.307 -0.1945  0.6851  0.4038
  871MOL0     C20070   0.147   5.907   7.393  1.2498 -1.5774 -0.1195
  871MOL0     C20071   0.019   5.858   7.338 -0.3558  0.6732  0.3486
  871MOL0     C20072  -0.104   5.942   7.355  0.0294  0.1153  0.4911
  871MOL0     C20073  -0.240   5.887   7.296 -0.0440  0.1254 -0.5841
  871MOL0     C20074  -0.273   5.748   7.356 -0.4452 -0.5194 -0.0278
  871MOL0     C20075  -0.403   5.688   7.295  0.1489  0.2324 -0.0072
  871MOL0     C20076  -0.430   5.568   7.376 -0.4071 -0.8718  1.1109
  871MOL0     N20077  -0.547   5.485   7.343  0.5125 -0.4190  0.0987
  871MOL0     C20078  -0.567   5.359   7.373  0.6467  0.3106 -0.2760
  871MOL0     C20079  -0.680   5.313   7.305  0.0763  0.6818 -0.5895
  871MOL0     C20080  -0.749   5.175   7.314  0.0107 -0.3356 -0.1135
  871MOL0     C20081  -0.667   5.045   7.313  0.3059 -0.1727  0.1863
  871MOL0     C20082  -0.613   4.982   7.181 -0.3885  0.0437 -0.0863
  871MOL0     C20083  -0.523   5.078   7.099 -0.0699  0.1327  0.4843
  871MOL0     O20084  -0.403   5.098   7.182 -0.0078 -0.9131 -0.2485
  871MOL0     C20085  -0.317   5.200   7.159  0.3130 -0.1460  0.0949
  871MOL0     C20086  -0.213   5.220   7.251 -0.3797  0.1707 -0.3570
  871MOL0     C20087  -0.109   5.309   7.225  0.1776 -0.4040  0.0467
  871MOL0     C20088   0.012   5.332   7.319 -0.5198 -0.0185 -0.2383
  871MOL0     C20089  -0.123   5.390   7.109  0.6583  0.4839  0.2189
  871MOL0     C20090  -0.036   5.504   7.071  0.2966 -0.1734 -1.9206
  871MOL0     O20091   0.047   5.495   6.964  0.3393  0.0168 -0.3025
  871MOL0     C20092   0.133   5.604   6.926  0.3406  0.2925 -0.6634
  871MOL0     C20093   0.225   5.662   7.008  0.7750  0.6808 -0.1930
  871MOL0     C20094   0.299   5.774   6.976  0.2318  0.6034  0.0968
  871MOL0     C20095   0.292   5.819   6.841 -0.2126  0.1253 -0.3266
  871MOL0     O20096   0.373   5.916   6.800 -1.1236 -0.3480 -0.4829
  871MOL0     C20097   0.310   6.038   6.729 -1.3804 -0.2797  0.6930
  871MOL0     C20098   0.398   6.093   6.618  0.7130 -0.6247 -0.4266
  871MOL0     C20099   0.532   6.119   6.674  0.8146  0.4091  1.0390
  871MOL0     C20100   0.627   6.154   6.554  1.0120 -0.6830 -0.3625
  871MOL0     C20101   0.764   6.184   6.613 -0.1531  0.3327 -0.3014
  871MOL0     C20102   0.866   6.213   6.506 -0.2118 -0.1686  0.1917
  871MOL0     C20103   0.863   6.353   6.451 -0.4301  0.4200  0.3833
  871MOL0     C20104   0.836   6.350   6.301  0.7930  0.3944  0.0414
  871MOL0    Cl20105   0.665   6.302   6.271 -0.0981 -0.0461 -0.5262
  871MOL0     C20106   0.199   5.761   6.756  0.0530  0.4394 -0.4294
  871MOL0     C20107   0.127   5.651   6.798 -0.0046 -0.0703 -0.0693
  871MOL0     O20108  -0.033   5.596   7.156 -1.0168 -0.2601  0.8669
  871MOL0     C20109  -0.233   5.376   7.023  0.6041  0.0443  0.7356
  871MOL0     C20110  -0.327   5.275   7.039  0.6143  0.5991 -0.5119
  871MOL0     N20111  -0.719   5.409   7.217  0.4115 -0.6142  0.3601
  871MOL0     N20112  -0.630   5.517   7.235  0.3478  0.8184  0.6052
  871MOL0     C20113   0.524   6.190   7.367 -0.0343 -0.0659  0.6101
  871MOL0     C20114   0.634   6.237   7.296  0.0747  0.4970 -0.8266
  871MOL0     C20115   0.934   6.296   6.952  0.4614 -0.0321 -1.0178
  871MOL0     C20116   0.938   6.436   6.943  0.5436  0.4988  1.0117
  871MOL0     C20117   1.024   6.497   6.853  0.7847 -0.4777 -0.5734
  871MOL0     C20118   1.108   6.418   6.774 -0.2450  0.8533 -0.0185
  871MOL0     O20119   1.194   6.475   6.688 -0.6243  0.7163 -0.0999
  871MOL0     C20120   1.161   6.592   6.608  0.6706  0.1782  0.1085
  871MOL0     C20121   1.279   6.638   6.522 -0.0187  0.4617  1.1607
  871MOL0     C20122   1.324   6.537   6.412  1.3137 -0.3495 -0.9335
  871MOL0     C20123   1.457   6.576   6.361 -0.3114  0.1081  0.6437
  871MOL0     C20124   1.451   6.657   6.240 -0.1950 -0.3901 -0.0363
  871MOL0     C20125   1.429   6.723   6.143  0.1195 -0.1350 -0.1576
  871MOL0     C20126   1.118   6.278   6.798 -0.7812 -0.6119 -0.2073
  871MOL0     C20127   1.027   6.212   6.882 -0.1858 -0.6123  0.1958
  871MOL0     C20128   1.035   6.056   6.886 -0.4895 -0.5290  0.1382
  871MOL0     H20129   0.520   6.226   6.987 -1.0696 -0.9964 -0.3718
  871MOL0     H20130   0.319   6.135   7.098 -2.0029  3.9119  1.4568
  871MOL0     H20131   0.226   5.972   7.214 -0.6005 -2.5924  2.0408
  871MOL0     H20132   0.118   6.095   7.297 -0.4982  0.2936  0.2178
  871MOL0     H20133   0.214   5.823   7.416  0.4372 -1.2879  4.2877
  871MOL0     H20134   0.128   5.948   7.493  2.2925 -4.1356  1.2334
  871MOL0     H20135   0.040   5.839   7.232 -3.1732  0.1085 -0.1954
  871MOL0     H20136   0.004   5.762   7.388 -2.6385  0.1946 -1.0906
  871MOL0     H20137  -0.114   5.949   7.464  0.4680  0.7145  0.4945
  871MOL0     H20138  -0.095   6.039   7.305 -4.1318  0.2863 -0.3461
  871MOL0     H20139  -0.231   5.882   7.187  0.5468 -0.6621 -0.5092
  871MOL0     H20140  -0.321   5.954   7.325 -1.5760 -2.8859  2.8208
  871MOL0     H20141  -0.203   5.666   7.341 -2.8701 -2.6984 -0.0292
  871MOL0     H20142  -0.275   5.754   7.465  1.1174  0.1070 -0.0013
  871MOL0     H20143  -0.366   5.660   7.196  0.5536  1.8047 -0.3385
  871MOL0     H20144  -0.493   5.750   7.285  0.9768  1.8846  2.0158
  871MOL0     H20145  -0.346   5.498   7.383  1.5191  1.2767  0.6487
  871MOL0     H20146  -0.438   5.597   7.481  1.9556 -1.5931  1.5584
  871MOL0     H20147  -0.505   5.303   7.442 -0.3062 -0.3012  0.0948
  871MOL0     H20148  -0.832   5.176   7.244 -0.8735 -0.4153  0.9109
  871MOL0     H20149  -0.805   5.175   7.408  0.7378  1.1276  0.3547
  871MOL0     H20150  -0.579   5.060   7.375 -0.5195  2.9541  0.7667
  871MOL0     H20151  -0.729   4.973   7.368 -0.4540  0.3614  0.0450
  871MOL0     H20152  -0.555   4.897   7.218 -1.4402  0.2961  2.3698
  871MOL0     H20153  -0.688   4.935   7.118  0.1916 -1.4578  0.3118
  871MOL0     H20154  -0.493   5.035   7.004  2.2520  1.0191  0.7611
  871MOL0     H20155  -0.584   5.167   7.079 -0.6626  0.2552  2.5220
  871MOL0     H20156  -0.205   5.168   7.346 -1.7477 -1.0102 -0.8376
  871MOL0     H20157   0.105   5.309   7.267  0.4518  0.0041  1.4066
  871MOL0     H20158   0.010   5.254   7.396 -0.3540  1.2368  1.0831
  871MOL0     H20159   0.011   5.431   7.364 -1.0217 -1.2394  2.6745
  871MOL0     H20160   0.231   5.635   7.113  0.0323 -0.7021 -0.4862
  871MOL0     H20161   0.367   5.821   7.045  0.0629 -0.9279  1.3784
  871MOL0     H20162   0.215   6.018   6.680 -1.5457 -3.1891  2.0110
  871MOL0     H20163   0.282   6.120   6.797 -0.2754  0.3957  0.3615
  871MOL0     H20164   0.408   6.006   6.552  2.6510 -0.3733 -0.5186
  871MOL0     H20165   0.355   6.177   6.561 -1.7462 -2.0000 -0.7696
  871MOL0     H20166   0.574   6.035   6.730  0.3231  0.1199  0.9817
  871MOL0     H20167   0.522   6.197   6.750  0.9303  0.6620  0.7970
  871MOL0     H20168   0.596   6.244   6.500 -0.6540  0.1351  1.8124
  871MOL0     H20169   0.632   6.083   6.471  0.7236  0.6320 -1.5477
  871MOL0     H20170   0.767   6.275   6.673 -0.1828  2.0236 -2.7412
  871MOL0     H20171   0.787   6.105   6.686 -0.2259  1.7884  1.3577
  871MOL0     H20172   0.875   6.134   6.431  0.2809 -0.2036  0.2865
  871MOL0     H20173   0.963   6.208   6.557  0.6428 -0.4172 -1.4178
  871MOL0     H20174   0.961   6.400   6.461 -0.8236  1.7750 -1.6613
  871MOL0     H20175   0.791   6.417   6.502  0.3433  1.0192  0.7413
  871MOL0     H20176   0.905   6.276   6.259  1.0745  0.5079  0.3044
  871MOL0     H20177   0.847   6.453   6.266  2.0803  0.0021 -0.7895
  871MOL0     H20178   0.193   5.808   6.658  0.4186  1.7231  0.1357
  871MOL0     H20179   0.062   5.620   6.717 -0.1957  1.5586 -0.5827
  871MOL0     H20180  -0.238   5.438   6.935  1.9383  1.0500  1.3346
  871MOL0     H20181  -0.399   5.248   6.961 -0.1291 -2.4442  1.0770
  871MOL0     H20182   0.538   6.193   7.475  2.9598  1.4733  0.2748
  871MOL0     H20183   0.723   6.259   7.354  1.0348  0.6529 -2.3133
  871MOL0     H20184   0.870   6.502   6.996 -0.6071 -0.7725  1.1552
  871MOL0     H20185   1.021   6.604   6.836  1.8865 -0.3190  0.1298
  871MOL0     H20186   1.077   6.582   6.539 -2.1308  1.2066  3.0717
  871MOL0     H20187   1.133   6.679   6.669 -3.3345 -0.0731 -1.1213
  871MOL0     H20188   1.359   6.644   6.597  1.7490 -1.2040 -0.4759
  871MOL0     H20189   1.252   6.735   6.481 -0.8364  0.1622  0.9629
  871MOL0     H20190   1.323   6.436   6.453 -2.0998 -0.6165 -1.3772
  871MOL0     H20191   1.249   6.534   6.333 -0.9434  0.0471  1.0703
  871MOL0     H20192   1.505   6.483   6.330 -5.1188 -1.9305 -1.7496
  871MOL0     H20193   1.524   6.616   6.438 -1.1053  0.7087  1.0434
  871MOL0     H20194   1.397   6.773   6.054 -3.3477 -2.7090 -0.5788
  871MOL0     H20195   1.203   6.225   6.756  2.0402  1.9151  1.8552
  871MOL0     H20196   0.954   6.019   6.822  2.9322  0.0197 -5.1520
  871MOL0     H20197   1.130   6.027   6.841 -0.5371 -2.3413  1.1084
  871MOL0     H20198   1.027   6.004   6.982 -0.1849 -0.8694 -0.0216
  872MOL0     O20199   4.110   5.602   6.288 -0.0404 -0.8935 -0.2963
  872MOL0     C20200   4.077   5.721   6.257 -0.6141  1.3520  0.5419
  872MOL0     O20201   4.152   5.831   6.289 -0.0417 -0.0222  0.6806
  872MOL0     C20202   4.269   5.806   6.346 -0.4769  0.9924  0.0953
  872MOL0     C20203   4.389   5.818   6.278  0.9691 -0.3635  0.3580
  872MOL0     C20204   4.513   5.798   6.348 -0.1348  0.3060  0.3965
  872MOL0     C20205   4.521   5.765   6.489 -0.1363 -0.2406 -0.5247
  872MOL0     O20206   4.640   5.748   6.555  0.0013 -0.3489  0.1370
  872MOL0     C20207   4.717   5.637   6.512  0.8574  0.4933 -0.4073
  872MOL0     C20208   4.716   5.521   6.607 -0.5100 -0.3071 -0.4626
  872MOL0     C20209   4.600   5.429   6.599 -0.2394 -0.1505  0.3888
  872MOL0     C20210   4.620   5.290   6.658  0.0762  0.1101 -0.4088
  872MOL0     C20211   4.684   5.179   6.580  0.0383  0.2510 -0.1030
  872MOL0     C20212   4.625   5.153   6.449  0.2445 -0.1517 -0.7863
  872MOL0     C20213   4.704   5.066   6.349 -0.6286  0.7769 -0.2143
  872MOL0     C20214   4.637   5.071   6.206 -0.6453  0.8529 -0.4344
  872MOL0     N20215   4.535   4.970   6.190  1.0292 -0.6461  0.0121
  872MOL0     C20216   4.549   4.831   6.194 -0.4445 -0.6536  0.6580
  872MOL0     C20217   4.429   4.792   6.170  0.0578 -0.2389 -0.7097
  872MOL0     C20218   4.372   4.662   6.167 -0.3762 -0.2726 -0.1999
  872MOL0     C20219   4.255   4.630   6.255  0.0085  0.1376  0.2815
  872MOL0     C20220   4.206   4.479   6.243 -0.3649  0.2980 -0.1265
  872MOL0     C20221   4.172   4.440   6.102 -0.1378 -0.6042  0.4589
  872MOL0     O20222   4.064   4.526   6.047 -0.2742  0.1221  0.1246
  872MOL0     C20223   4.063   4.545   5.911  0.9068 -0.3823 -0.5914
  872MOL0     C20224   4.092   4.446   5.822  0.5794 -0.0512  0.1706
  872MOL0     C20225   4.088   4.475   5.685  0.4361 -0.6647  0.4499
  872MOL0     C20226   4.125   4.366   5.591 -0.5776  0.4996  0.8641
  872MOL0     C20227   4.045   4.604   5.638  0.2050 -0.1675  0.3004
  872MOL0     C20228   4.039   4.638   5.488  0.3381  0.1062 -0.6935
  872MOL0     O20229   4.125   4.584   5.401  0.4304 -1.0711 -0.3810
  872MOL0     C20230   4.133   4.625   5.267  0.0740  0.2855 -0.4767
  872MOL0     C20231   4.096   4.740   5.210  0.5684 -0.2342  0.8205
  872MOL0     C20232   4.109   4.748   5.065 -0.8889  0.9072  0.3289
  872MOL0     C20233   4.172   4.648   4.983  0.8026 -0.7938  0.1509
  872MOL0     O20234   4.180   4.672   4.851  0.6206  0.0105 -0.3992
  872MOL0     C20235   4.142   4.561   4.759 -0.0315  0.1648  0.3406
  872MOL0     C20236   4.006   4.498   4.767 -0.5369  0.4814  0.2852
  872MOL0     C20237   3.889   4.597   4.798 -0.3023  0.5655  0.3950
  872MOL0     C20238   3.760   4.571   4.725 -0.5457 -0.5354  0.6899
  872MOL0     C20239   3.657   4.555   4.826  1.0360 -0.3312  0.7774
  872MOL0     C20240   3.519   4.567   4.756  0.9669 -0.3681  0.4974
  872MOL0     C20241   3.412   4.552   4.867  0.0328  0.8422  0.6006
  872MOL0     C20242   3.281   4.572   4.794 -0.1684  0.7655 -0.7785
  872MOL0    Cl20243   3.158   4.567   4.935  0.1050 -0.0608  0.0357
  872MOL0     C20244   4.216   4.537   5.055 -0.2476  0.6084  0.2718
  872MOL0     C20245   4.185   4.524   5.187  0.6936 -0.4186 -0.1651
  872MOL0     O20246   3.942   4.715   5.458 -0.5007 -0.0195 -1.0605
  872MOL0     C20247   3.996   4.699   5.725 -0.6435  0.4643  0.2764
  872MOL0     C20248   4.004   4.665   5.859 -0.0553  0.0061 -0.0449
  872MOL0     N20249   4.346   4.899   6.129 -0.1023  0.3490 -0.5329
  872MOL0     N20250   4.414   5.000   6.146 -0.2043 -0.4165  0.4500
  872MOL0     C20251   4.398   5.772   6.555  0.8159  1.3127 -0.0509
  872MOL0     C20252   4.267   5.789   6.485  0.0356  0.8522 -0.0670
  872MOL0     C20253   3.962   5.751   6.161 -1.0030  0.2928 -0.7215
  872MOL0     C20254   3.958   5.881   6.106  0.5063 -0.0084  1.2496
  872MOL0     C20255   3.854   5.919   6.014  0.5872  0.1324 -0.1591
  872MOL0     C20256   3.751   5.824   5.981  0.2399  1.1322 -0.3755
  872MOL0     O20257   3.632   5.856   5.918 -0.5221 -0.2522 -0.6195
  872MOL0     C20258   3.557   5.765   5.846 -0.6865  0.3815  0.0573
  872MOL0     C20259   3.619   5.714   5.714  0.1856 -0.9755  0.1616
  872MOL0     C20260   3.509   5.644   5.644 -0.1046 -0.1131 -0.1644
  872MOL0     C20261   3.545   5.495   5.626 -0.1052  0.1451  0.1770
  872MOL0     C20262   3.571   5.423   5.753  0.3271 -0.0535  0.5622
  872MOL0     C20263   3.585   5.379   5.864 -0.3328  0.3829 -0.4684
  872MOL0     C20264   3.765   5.693   6.035 -0.5291  0.1166  0.7678
  872MOL0     C20265   3.875   5.653   6.111 -0.4988 -0.4831  0.0125
  872MOL0     C20266   3.888   5.508   6.144  0.5642  0.6827 -0.5520
  872MOL0     H20267   4.398   5.843   6.173  0.2841  2.8662  0.9817
  872MOL0     H20268   4.607   5.800   6.294 -0.0736 -1.8894  0.3260
  872MOL0     H20269   4.821   5.672   6.505  2.1414 -3.0060 -1.0145
  872MOL0     H20270   4.693   5.601   6.411 -1.4723  1.0122 -0.0923
  872MOL0     H20271   4.811   5.467   6.606 -0.3435 -0.0797  0.8561
  872MOL0     H20272   4.715   5.562   6.709 -2.1451 -1.2933 -0.0432
  872MOL0     H20273   4.515   5.477   6.648  0.8196  1.2143  0.9656
  872MOL0     H20274   4.562   5.422   6.497  2.7796 -4.0619 -0.7562
  872MOL0     H20275   4.675   5.303   6.752  1.4999 -1.8192 -0.9169
  872MOL0     H20276   4.520   5.253   6.681  0.4234 -1.6790 -1.6079
  872MOL0     H20277   4.670   5.090   6.642  3.2986  1.1893  2.2142
  872MOL0     H20278   4.791   5.199   6.566  0.7358 -3.5873 -1.5151
  872MOL0     H20279   4.532   5.099   6.466 -0.2507  0.0515 -2.6947
  872MOL0     H20280   4.602   5.245   6.395 -0.4082 -0.2105 -0.6238
  872MOL0     H20281   4.709   4.966   6.391  1.1557  1.8391  2.3301
  872MOL0     H20282   4.801   5.116   6.348  0.5270 -1.3197  1.0427
  872MOL0     H20283   4.586   5.167   6.195  0.8909  1.5665 -1.9099
  872MOL0     H20284   4.712   5.068   6.125 -1.6694  2.7225 -1.5245
  872MOL0     H20285   4.636   4.770   6.219  2.0602  1.9224 -1.1361
  872MOL0     H20286   4.450   4.589   6.190  2.9052  2.1546 -2.6541
  872MOL0     H20287   4.335   4.653   6.064 -2.7457  1.5587  0.4000
  872MOL0     H20288   4.277   4.649   6.361  1.9801  1.9657 -0.3807
  872MOL0     H20289   4.170   4.693   6.228  2.1004  2.3818 -1.5066
  872MOL0     H20290   4.283   4.417   6.290 -1.0604  0.4763  1.3118
  872MOL0     H20291   4.116   4.472   6.306  0.2957 -1.1075  0.7005
  872MOL0     H20292   4.269   4.436   6.052 -0.6481  1.7071 -0.8511
  872MOL0     H20293   4.136   4.338   6.084  3.6425 -1.4796 -4.2102
  872MOL0     H20294   4.125   4.345   5.847  0.3976 -1.0524 -3.1121
  872MOL0     H20295   4.070   4.360   5.496 -1.3710 -3.7175  1.3745
  872MOL0     H20296   4.107   4.266   5.632 -0.5365 -0.3577 -1.0779
  872MOL0     H20297   4.231   4.380   5.564 -1.2111  4.5236 -0.1353
  872MOL0     H20298   4.045   4.823   5.258  0.6747  0.3357 -0.0343
  872MOL0     H20299   4.078   4.839   5.013  4.4262  2.1328 -1.2776
  872MOL0     H20300   4.153   4.612   4.662  1.7332  1.9620  1.4121
  872MOL0     H20301   4.222   4.487   4.769  1.6423  1.7134 -0.8549
  872MOL0     H20302   4.001   4.458   4.665 -1.1628  0.9327  0.1363
  872MOL0     H20303   4.011   4.428   4.852  0.0305 -0.1815 -0.2849
  872MOL0     H20304   3.924   4.699   4.780 -1.0569  0.5054 -1.6487
  872MOL0     H20305   3.870   4.611   4.905  3.9383  0.3224  1.3878
  872MOL0     H20306   3.773   4.477   4.671 -0.1807 -0.6621  0.9957
  872MOL0     H20307   3.728   4.655   4.663 -0.5172 -2.5389 -2.2180
  872MOL0     H20308   3.670   4.459   4.876 -0.9216  0.2348  2.4997
  872MOL0     H20309   3.664   4.628   4.907 -0.4835 -1.1152  1.6534
  872MOL0     H20310   3.517   4.490   4.679  2.2843 -0.8099  0.8677
  872MOL0     H20311   3.503   4.666   4.714  2.2183  0.9055  2.8369
  872MOL0     H20312   3.438   4.616   4.952  1.9727 -0.4905  1.0522
  872MOL0     H20313   3.414   4.445   4.889 -0.4954  0.7566  0.2569
  872MOL0     H20314   3.257   4.489   4.728  1.7825 -0.0740 -0.5020
  872MOL0     H20315   3.282   4.673   4.752  0.1837  0.7501 -0.8122
  872MOL0     H20316   4.262   4.455   5.000 -3.3461  0.6249 -2.6568
  872MOL0     H20317   4.220   4.429   5.228  0.7567 -0.0155  0.7422
  872MOL0     H20318   3.947   4.795   5.712 -2.3264 -0.2314  1.0330
  872MOL0     H20319   3.973   4.735   5.936  0.7828 -0.3437  0.6231
  872MOL0     H20320   4.399   5.774   6.663  1.9730  1.5974 -0.0579
  872MOL0     H20321   4.175   5.799   6.540  1.3275  2.3964  1.9555
  872MOL0     H20322   4.038   5.952   6.122  0.3057  0.6143 -0.3542
  872MOL0     H20323   3.843   6.020   5.976  2.8473  0.5915  0.2613
  872MOL0     H20324   3.524   5.681   5.908  1.8501  1.9003  3.8221
  872MOL0     H20325   3.468   5.825   5.823  0.4404  1.9233 -0.4206
  872MOL0     H20326   3.694   5.644   5.750  1.1706  1.2663  2.8190
  872MOL0     H20327   3.670   5.792   5.657 -2.5647 -0.9349 -2.4907
  872MOL0     H20328   3.422   5.642   5.709  0.7931 -0.5645  1.0478
  872MOL0     H20329   3.487   5.692   5.548  0.0534  0.2438 -0.0240
  872MOL0     H20330   3.635   5.481   5.565  0.1132  3.0765 -0.3115
  872MOL0     H20331   3.471   5.448   5.560  1.0490  1.4759 -2.2052
  872MOL0     H20332   3.598   5.346   5.965 -0.1975 -0.4233 -0.7444
  872MOL0     H20333   3.703   5.608   6.008 -0.4578  0.2763  0.0999
  872MOL0     H20334   3.906   5.501   6.252  1.4026  2.0811 -0.5813
  872MOL0     H20335   3.796   5.453   6.120  2.2656 -2.7119  0.0305
  872MOL0     H20336   3.969   5.457   6.092 -0.8723 -2.0900 -0.2844
  873MOL0     O20337   3.523   7.817   9.981  0.4887 -0.6293 -0.6623
  873MOL0     C20338   3.470   7.924  10.015 -0.4663 -0.2467 -0.2509
  873MOL0     O20339   3.402   8.008   9.934  0.6715 -0.1930  0.2969
  873MOL0     C20340   3.358   7.968   9.808  0.0468  0.4980 -0.9338
  873MOL0     C20341   3.438   8.011   9.706  0.0649  0.2995 -0.3016
  873MOL0     C20342   3.411   7.985   9.570  0.2714 -0.4448 -0.1408
  873MOL0     C20343   3.293   7.911   9.529 -0.8812 -0.6569  0.1432
  873MOL0     O20344   3.260   7.898   9.398  0.2603 -1.1835 -0.0441
  873MOL0     C20345   3.130   7.846   9.350 -0.3320  0.1628  0.1272
  873MOL0     C20346   3.142   7.695   9.308 -0.3302 -0.0175  0.0128
  873MOL0     C20347   3.015   7.623   9.284 -0.2371 -0.5736 -0.8543
  873MOL0     C20348   2.960   7.656   9.155 -0.2286  0.2251  0.2789
  873MOL0     C20349   2.827   7.586   9.120 -0.8450 -0.5604  0.8880
  873MOL0     C20350   2.831   7.436   9.131 -0.6641 -1.1696 -0.6683
  873MOL0     C20351   2.939   7.366   9.036 -0.4478 -0.5249  0.1289
  873MOL0     C20352   2.928   7.215   9.064 -0.6185 -0.4805  0.2996
  873MOL0     N20353   2.860   7.153   8.951  0.1704  0.3469 -0.2370
  873MOL0     C20354   2.903   7.168   8.818  0.4843 -0.5066 -0.3589
  873MOL0     C20355   2.794   7.139   8.748 -0.4640 -0.5339 -0.5453
  873MOL0     C20356   2.760   7.152   8.602 -0.5162 -0.3896 -0.3599
  873MOL0     C20357   2.889   7.186   8.527 -0.1924 -0.2665 -0.2591
  873MOL0     C20358   2.863   7.226   8.376  1.3574 -0.0441  0.3874
  873MOL0     C20359   2.723   7.185   8.318  0.2326 -0.8671 -0.0389
  873MOL0     O20360   2.722   7.187   8.173 -0.4392 -0.3038  0.1011
  873MOL0     C20361   2.672   7.061   8.133 -0.3489  0.4258  0.3772
  873MOL0     C20362   2.747   6.942   8.116 -0.1179  0.7964 -0.2262
  873MOL0     C20363   2.687   6.828   8.072  0.6666 -0.2830 -1.0286
  873MOL0     C20364   2.760   6.693   8.086 -1.5563  0.3372  0.0246
  873MOL0     C20365   2.555   6.833   8.019 -0.3273 -0.4099 -0.1852
  873MOL0     C20366   2.490   6.711   7.960 -0.2064 -0.2409  0.4350
  873MOL0     O20367   2.396   6.737   7.857  0.5972 -0.3662  0.4641
  873MOL0     C20368   2.289   6.660   7.843  0.1360  0.5898  1.2202
  873MOL0     C20369   2.302   6.525   7.823 -0.4354  0.3971  0.4192
  873MOL0     C20370   2.197   6.435   7.803  0.4400 -0.2662 -0.4127
  873MOL0     C20371   2.068   6.492   7.806  0.2319 -0.3413  0.3363
  873MOL0     O20372   1.965   6.407   7.784  1.0442 -0.0965  0.4315
  873MOL0     C20373   1.870   6.399   7.900  0.1143  0.1102  0.1104
  873MOL0     C20374   1.795   6.268   7.891 -0.0171  0.0531 -0.5084
  873MOL0     C20375   1.745   6.218   8.023  0.0479 -0.3538  0.8847
  873MOL0     C20376   1.671   6.081   7.998  1.1631 -0.1602 -1.0356
  873MOL0     C20377   1.637   6.018   8.138 -0.2941 -0.0159  0.1920
  873MOL0     C20378   1.546   5.889   8.110 -0.2381  0.2137 -0.4533
  873MOL0     C20379   1.445   5.849   8.215  0.0091 -0.3176  0.9101
  873MOL0     C20380   1.363   5.730   8.175 -1.0169 -0.0764 -0.0119
  873MOL0    Cl20381   1.251   5.688   8.311 -0.4427  0.4225 -0.3247
  873MOL0     C20382   2.048   6.625   7.807 -0.5441 -0.3579  0.5988
  873MOL0     C20383   2.157   6.712   7.827  0.1756  0.1856 -1.1559
  873MOL0     O20384   2.499   6.602   8.015 -0.0794 -0.4448  0.3192
  873MOL0     C20385   2.479   6.949   8.036 -0.4365 -0.2118 -0.4581
  873MOL0     C20386   2.537   7.067   8.098 -0.2486  0.3943 -0.8840
  873MOL0     N20387   2.689   7.123   8.837  0.3573 -0.9386 -0.2451
  873MOL0     N20388   2.727   7.124   8.959 -0.3396 -0.2787  0.2567
  873MOL0     C20389   3.225   7.862   9.636 -0.4608  0.0675  0.1331
  873MOL0     C20390   3.253   7.890   9.771  0.2157  0.5053  0.0994
  873MOL0     C20391   3.475   7.964  10.153 -0.3734 -0.2452 -0.7724
  873MOL0     C20392   3.354   8.001  10.216 -0.2024  0.2377 -0.0871
  873MOL0     C20393   3.354   8.039  10.350  0.4028  0.3167 -0.1466
  873MOL0     C20394   3.466   8.036  10.428 -0.7221  1.2910  0.2308
  873MOL0     O20395   3.467   8.066  10.564  0.5348 -0.5342  0.4920
  873MOL0     C20396   3.438   8.200  10.587 -0.4523  0.0028 -0.3301
  873MOL0     C20397   3.452   8.217  10.737  0.1429  0.5666  0.3554
  873MOL0     C20398   3.447   8.358  10.792 -0.1957 -0.3239  0.2385
  873MOL0     C20399   3.514   8.388  10.929  0.4034 -0.6611 -0.0641
  873MOL0     C20400   3.430   8.328  11.036 -0.5233  1.4979 -0.1575
  873MOL0     C20401   3.349   8.276  11.119 -0.1248 -0.3264  0.0755
  873MOL0     C20402   3.587   7.971  10.380 -0.5625 -0.8458 -0.4958
  873MOL0     C20403   3.588   7.949  10.240  0.2931  0.8743  0.1682
  873MOL0     C20404   3.714   7.908  10.178  0.2361  0.4166  0.2124
  873MOL0     H20405   3.530   8.067   9.720  0.0441  0.6554 -1.4428
  873MOL0     H20406   3.490   8.014   9.501  0.6265 -1.0257  0.0110
  873MOL0     H20407   3.089   7.919   9.280  3.3350  1.4893 -0.8923
  873MOL0     H20408   3.053   7.843   9.427 -0.5423  0.0378 -0.0874
  873MOL0     H20409   3.206   7.683   9.220  1.2734 -1.1934  1.2884
  873MOL0     H20410   3.177   7.644   9.398  1.1976 -0.6998 -0.9254
  873MOL0     H20411   3.037   7.515   9.279  2.9754 -0.0101 -1.2446
  873MOL0     H20412   2.952   7.646   9.369  3.0869 -0.7687  1.8928
  873MOL0     H20413   2.958   7.765   9.146  1.8035  0.3731  1.1775
  873MOL0     H20414   3.032   7.629   9.077  0.6766 -1.2051  1.5552
  873MOL0     H20415   2.810   7.620   9.017  1.5492  1.6212  1.1006
  873MOL0     H20416   2.745   7.631   9.176 -0.5244 -1.1738  1.8774
  873MOL0     H20417   2.866   7.417   9.233  0.1601  0.4034 -0.6313
  873MOL0     H20418   2.728   7.400   9.130 -0.3550 -2.1742  0.5260
  873MOL0     H20419   3.042   7.396   9.059 -0.2636 -0.1870 -1.0712
  873MOL0     H20420   2.933   7.391   8.930  0.1535  1.3299  0.4888
  873MOL0     H20421   3.024   7.164   9.078 -0.9738 -0.3106  4.5534
  873MOL0     H20422   2.886   7.195   9.163  1.7940 -2.3617  1.0354
  873MOL0     H20423   2.993   7.215   8.779  0.8470 -1.0234 -0.1635
  873MOL0     H20424   2.675   7.219   8.588 -1.5627 -1.5384  0.2175
  873MOL0     H20425   2.712   7.055   8.581 -3.1148  0.4716  1.0618
  873MOL0     H20426   2.946   7.270   8.568 -0.7270  0.3011 -0.6685
  873MOL0     H20427   2.965   7.106   8.523 -1.7562 -1.8117 -0.3037
  873MOL0     H20428   2.860   7.335   8.375 -1.6933 -0.0191 -0.3271
  873MOL0     H20429   2.942   7.188   8.311  0.2160  0.5965 -1.4695
  873MOL0     H20430   2.681   7.095   8.363 -3.1749  2.1842  3.5869
  873MOL0     H20431   2.657   7.262   8.358  1.5263 -0.2416  0.9743
  873MOL0     H20432   2.850   6.924   8.143 -0.4496  0.5557  0.9470
  873MOL0     H20433   2.697   6.614   8.129 -0.9969 -1.5157 -2.3400
  873MOL0     H20434   2.853   6.717   8.138 -1.9954  6.2090 -1.2213
  873MOL0     H20435   2.782   6.657   7.985  2.5806  0.2813  0.7574
  873MOL0     H20436   2.398   6.483   7.795 -0.8693 -1.1578  1.1502
  873MOL0     H20437   2.216   6.329   7.788 -1.4518 -0.8036  0.6296
  873MOL0     H20438   1.923   6.392   7.995 -1.6041 -1.7878  0.9967
  873MOL0     H20439   1.802   6.484   7.886  0.2707 -0.2407 -3.8782
  873MOL0     H20440   1.730   6.265   7.803  2.3337 -1.8180 -2.3271
  873MOL0     H20441   1.867   6.193   7.858  0.0318 -1.3492  2.4462
  873MOL0     H20442   1.677   6.296   8.060  1.4661  2.8841 -2.6636
  873MOL0     H20443   1.832   6.212   8.088 -0.6320 -0.5563  1.7971
  873MOL0     H20444   1.738   6.011   7.948 -0.5599 -2.4374 -0.3156
  873MOL0     H20445   1.577   6.098   7.945 -1.9615  1.2009  4.1996
  873MOL0     H20446   1.725   5.993   8.198  0.7544 -2.0122 -1.9830
  873MOL0     H20447   1.580   6.097   8.188  0.3687  0.5028  0.1383
  873MOL0     H20448   1.607   5.800   8.096 -1.1194 -0.6166  0.7569
  873MOL0     H20449   1.487   5.907   8.020 -0.7372  1.5966  0.1210
  873MOL0     H20450   1.379   5.932   8.242  1.4836  0.4444  2.4146
  873MOL0     H20451   1.493   5.829   8.311 -1.3277  0.7014  1.8382
  873MOL0     H20452   1.416   5.635   8.161  1.0020  0.8314  1.0491
  873MOL0     H20453   1.327   5.751   8.074  1.6273  1.5871 -0.7031
  873MOL0     H20454   1.948   6.665   7.794 -0.5230  0.1148  1.7966
  873MOL0     H20455   2.155   6.821   7.826  0.4268  0.1981 -2.1394
  873MOL0     H20456   2.375   6.948   8.005  0.4736  0.2843 -3.8934
  873MOL0     H20457   2.497   7.165   8.119 -0.5795  0.3087 -1.1060
  873MOL0     H20458   3.138   7.804   9.608 -1.4900  1.3928  0.4822
  873MOL0     H20459   3.184   7.853   9.846 -1.8904 -1.3545 -2.5576
  873MOL0     H20460   3.266   7.989  10.154  1.1810  1.0964 -2.3380
  873MOL0     H20461   3.254   8.038  10.391 -0.5333 -1.2160 -2.2420
  873MOL0     H20462   3.507   8.259  10.526 -2.1403  0.3249 -2.0165
  873MOL0     H20463   3.334   8.228  10.570 -0.1216  1.0813 -0.6883
  873MOL0     H20464   3.548   8.173  10.768  0.6430  1.1086 -0.4087
  873MOL0     H20465   3.375   8.158  10.787 -1.8321  4.7708  2.8010
  873MOL0     H20466   3.486   8.425  10.715 -2.6226  0.2860 -0.5521
  873MOL0     H20467   3.342   8.388  10.803 -1.6222 -1.6705 -5.9383
  873MOL0     H20468   3.514   8.495  10.951 -4.0775 -0.4281 -0.2604
  873MOL0     H20469   3.612   8.341  10.939 -0.2797 -1.8030  1.9017
  873MOL0     H20470   3.285   8.248  11.201 -1.1887  1.4408 -0.1076
  873MOL0     H20471   3.673   7.948  10.443 -0.0823  1.3967 -0.2403
  873MOL0     H20472   3.711   7.811  10.127  1.0877  0.6267 -0.2669
  873MOL0     H20473   3.763   7.990  10.125 -0.8601  0.8028 -0.2223
  873MOL0     H20474   3.784   7.880  10.257  1.8752  0.4271 -1.1699
  874MOL0     O20475   2.191  10.043  10.870  0.4620  0.3099 -0.8467
  874MOL0     C20476   2.231   9.940  10.823 -0.0145  0.0828  1.2197
  874MOL0     O20477   2.356   9.920  10.759 -0.2935  0.9847  0.3099
  874MOL0     C20478   2.427  10.037  10.753 -0.9211 -0.8052  0.3048
  874MOL0     C20479   2.540  10.053  10.834  0.6536  0.3954 -0.0295
  874MOL0     C20480   2.607  10.175  10.834 -0.3262 -0.5665 -0.5400
  874MOL0     C20481   2.565  10.283  10.751 -0.9831  0.1840 -1.6576
  874MOL0     O20482   2.629  10.408  10.741  0.7287  0.0595 -0.0840
  874MOL0     C20483   2.685  10.471  10.859  0.3309  0.2728  1.0572
  874MOL0     C20484   2.779  10.589  10.815 -0.8945  0.2621 -0.0585
  874MOL0     C20485   2.816  10.670  10.931 -1.0584 -0.5956 -0.5921
  874MOL0     C20486   2.883  10.803  10.889 -0.2350 -0.5613  0.9720
  874MOL0     C20487   2.775  10.907  10.860  0.7134 -0.0219  0.3870
  874MOL0     C20488   2.740  10.968  10.995 -0.2181  1.0856  1.0046
  874MOL0     C20489   2.644  11.081  10.966  0.3569 -0.5612 -0.1357
  874MOL0     C20490   2.659  11.200  11.080 -0.0379  0.4012  0.8629
  874MOL0     N20491   2.638  11.137  11.213 -0.2991 -0.2908 -0.4760
  874MOL0     C20492   2.521  11.078  11.257 -1.1125  0.8244 -0.1769
  874MOL0     C20493   2.562  11.026  11.378 -0.3264 -1.1803  0.0962
  874MOL0     C20494   2.451  10.980  11.481  0.0073 -0.4717 -0.0305
  874MOL0     C20495   2.511  10.946  11.617  0.6027  0.8899 -0.5968
  874MOL0     C20496   2.507  11.056  11.730 -0.4132  0.4169  0.3035
  874MOL0     C20497   2.621  11.029  11.830  0.0548 -0.5839 -0.3512
  874MOL0     O20498   2.634  10.892  11.872 -0.2490 -0.2063 -0.2851
  874MOL0     C20499   2.531  10.837  11.945  0.7721 -0.5945 -0.5609
  874MOL0     C20500   2.444  10.924  12.020  0.6455 -0.1367 -0.3097
  874MOL0     C20501   2.338  10.874  12.093 -0.4205  0.2932 -1.1725
  874MOL0     C20502   2.268  10.972  12.183  0.9213 -0.9037 -0.5796
  874MOL0     C20503   2.315  10.735  12.098 -0.8719 -0.5604 -0.4896
  874MOL0     C20504   2.201  10.672  12.163  0.5215  0.6666 -0.2627
  874MOL0     O20505   2.218  10.541  12.190 -0.5353 -0.0945 -0.4008
  874MOL0     C20506   2.123  10.441  12.207  0.1387 -0.0725  0.2284
  874MOL0     C20507   1.988  10.463  12.199 -0.0253 -0.1028  0.1464
  874MOL0     C20508   1.901  10.355  12.235  0.0228 -0.7850  0.7066
  874MOL0     C20509   1.952  10.234  12.291 -0.4670  0.1016 -0.2096
  874MOL0     O20510   1.866  10.132  12.324  0.2708  0.0761 -0.1468
  874MOL0     C20511   1.903   9.996  12.302 -0.1720  0.6610  0.4689
  874MOL0     C20512   1.766   9.918  12.296 -0.6853  0.1195 -0.5941
  874MOL0     C20513   1.796   9.765  12.280  0.5364 -0.1270  0.4404
  874MOL0     C20514   1.678   9.694  12.213  0.3370  0.3900  0.1620
  874MOL0     C20515   1.721   9.556  12.156 -0.9476 -0.0288  0.2879
  874MOL0     C20516   1.617   9.489  12.057 -0.1749  0.4433  0.5565
  874MOL0     C20517   1.624   9.532  11.906 -0.7716 -0.3818 -0.5854
  874MOL0     C20518   1.495   9.499  11.825 -0.2964  0.0381 -0.2370
  874MOL0    Cl20519   1.433   9.331  11.841  0.2052  0.3677 -0.6875
  874MOL0     C20520   2.092  10.216  12.305  0.4158  0.3508  0.6133
  874MOL0     C20521   2.170  10.323  12.255 -0.4328  0.7998  0.4597
  874MOL0     O20522   2.090  10.735  12.185 -0.3749 -0.0206  0.5340
  874MOL0     C20523   2.396  10.657  12.021  0.4641 -0.5663 -0.0134
  874MOL0     C20524   2.493  10.706  11.936  0.4266  0.4574 -0.1372
  874MOL0     N20525   2.686  11.056  11.399 -0.3013  0.2457 -1.1063
  874MOL0     N20526   2.742  11.113  11.296 -0.3287  0.6572 -0.6835
  874MOL0     C20527   2.470  10.260  10.658 -0.5173  0.2688  0.6627
  874MOL0     C20528   2.406  10.136  10.655 -0.1298  0.6693  0.6968
  874MOL0     C20529   2.147   9.807  10.825 -0.7241  0.1131  0.4159
  874MOL0     C20530   2.205   9.682  10.807  0.8222  0.6126  0.0379
  874MOL0     C20531   2.130   9.558  10.800  0.3223 -0.2034  0.6114
  874MOL0     C20532   1.986   9.560  10.817 -0.9593 -0.5208  0.1689
  874MOL0     O20533   1.901   9.457  10.790  0.4236 -0.0279 -0.6420
  874MOL0     C20534   1.951   9.350  10.716 -0.6596 -0.4891  0.2642
  874MOL0     C20535   2.029   9.258  10.805 -0.0920  0.0300 -0.0872
  874MOL0     C20536   1.940   9.149  10.875  0.2348  0.2154 -0.1842
  874MOL0     C20537   1.860   9.193  11.000  0.6557  0.2949  0.7154
  874MOL0     C20538   1.782   9.083  11.059  0.0272  0.7783  0.5161
  874MOL0     C20539   1.709   8.997  11.104 -0.5908  0.2004 -0.2702
  874MOL0     C20540   1.932   9.686  10.847  0.0373 -0.2189 -1.3080
  874MOL0     C20541   2.010   9.811  10.850  0.5389  0.3629 -0.1478
  874MOL0     C20542   1.922   9.933  10.866  0.5335  0.0569 -0.2624
  874MOL0     H20543   2.567   9.967  10.895 -0.8120 -1.1187 -1.4079
  874MOL0     H20544   2.698  10.184  10.892 -0.6607  0.6889 -0.1979
  874MOL0     H20545   2.741  10.398  10.918  0.7176 -1.5632 -1.4121
  874MOL0     H20546   2.598  10.505  10.916 -0.9055 -1.6349  0.4117
  874MOL0     H20547   2.851  10.540  10.748 -3.5628 -2.6238 -1.0860
  874MOL0     H20548   2.720  10.655  10.750  1.0765  1.7077 -0.4574
  874MOL0     H20549   2.725  10.673  10.992 -0.1199 -0.7333  0.8490
  874MOL0     H20550   2.896  10.620  10.986  1.6191  0.4393 -3.2749
  874MOL0     H20551   2.940  10.837  10.977  1.4374 -0.3186 -0.1488
  874MOL0     H20552   2.951  10.794  10.804  1.0656 -1.4854  2.0649
  874MOL0     H20553   2.684  10.866  10.816  0.1511 -1.4450  2.6833
  874MOL0     H20554   2.811  10.972  10.781 -1.4905  1.5232  0.5593
  874MOL0     H20555   2.682  10.898  11.055 -1.3576 -0.3999 -1.6454
  874MOL0     H20556   2.829  10.995  11.052  1.0966  1.3494 -1.0431
  874MOL0     H20557   2.541  11.046  10.977 -0.0031  0.8685  1.5526
  874MOL0     H20558   2.653  11.120  10.865  1.4875  1.2053  0.6050
  874MOL0     H20559   2.754  11.253  11.068  0.6671 -0.9475  0.2482
  874MOL0     H20560   2.575  11.269  11.067  0.2093  0.8538  1.6279
  874MOL0     H20561   2.432  11.065  11.197  0.1353  2.0662 -2.4176
  874MOL0     H20562   2.415  10.887  11.437  3.0842 -2.2395  0.8879
  874MOL0     H20563   2.374  11.057  11.488  1.2610  0.7560  0.8859
  874MOL0     H20564   2.449  10.858  11.637  0.6305  0.2704 -2.9855
  874MOL0     H20565   2.612  10.910  11.595  0.0861 -0.7565 -0.3861
  874MOL0     H20566   2.525  11.155  11.686  1.6018  0.2867  0.7053
  874MOL0     H20567   2.409  11.042  11.775 -1.5533  3.0929 -1.1140
  874MOL0     H20568   2.717  11.052  11.781 -0.6705  1.0032 -1.1146
  874MOL0     H20569   2.617  11.100  11.913 -0.1618 -0.3073 -0.5960
  874MOL0     H20570   2.480  11.024  12.038  2.5043 -1.0493  1.5144
  874MOL0     H20571   2.320  11.067  12.192  1.3056 -1.3276  3.0052
  874MOL0     H20572   2.261  10.928  12.283  3.1940  0.8663  0.4450
  874MOL0     H20573   2.165  10.982  12.149  0.7260 -3.3580 -0.9278
  874MOL0     H20574   1.955  10.563  12.173  1.6513 -0.0114 -1.8742
  874MOL0     H20575   1.799  10.393  12.229  0.3040 -0.1718 -0.4157
  874MOL0     H20576   1.955   9.988  12.207 -1.3145 -6.1060 -0.0900
  874MOL0     H20577   1.965   9.961  12.384 -0.2893 -0.4887  0.0816
  874MOL0     H20578   1.711   9.924  12.390 -2.1183  0.5802 -1.4363
  874MOL0     H20579   1.707   9.952  12.211 -0.6193  1.0616 -0.2724
  874MOL0     H20580   1.814   9.718  12.377  0.1845  0.5871  0.8604
  874MOL0     H20581   1.891   9.753  12.228  1.1893  3.5522  0.5006
  874MOL0     H20582   1.627   9.752  12.135  2.3304 -1.5433 -2.8104
  874MOL0     H20583   1.598   9.668  12.282 -1.6757 -0.6955 -2.4184
  874MOL0     H20584   1.815   9.575  12.103 -0.9651  0.8158  0.5361
  874MOL0     H20585   1.748   9.485  12.234  1.3265  0.6726  0.2241
  874MOL0     H20586   1.516   9.513  12.091  0.0413  0.4773  1.1881
  874MOL0     H20587   1.629   9.381  12.067  2.1951  0.5464 -0.4760
  874MOL0     H20588   1.710   9.482  11.862  0.7595  2.6103 -1.3089
  874MOL0     H20589   1.652   9.638  11.899  1.2729 -0.7618  0.9617
  874MOL0     H20590   1.500   9.524  11.718 -0.3629 -0.2688 -0.3107
  874MOL0     H20591   1.422   9.574  11.859  0.6983  1.4966 -1.1536
  874MOL0     H20592   2.148  10.135  12.349 -1.0980 -1.0105  0.1127
  874MOL0     H20593   2.277  10.303  12.263 -0.4859 -0.4204 -1.2743
  874MOL0     H20594   2.395  10.549  12.029 -2.2348 -0.8779 -2.6319
  874MOL0     H20595   2.550  10.632  11.882  2.0659  2.1922 -0.8869
  874MOL0     H20596   2.455  10.342  10.588 -1.2542 -0.4738 -0.0797
  874MOL0     H20597   2.332  10.107  10.581 -0.1689  0.3498  0.8588
  874MOL0     H20598   2.314   9.690  10.809  0.9491 -0.6482 -0.6359
  874MOL0     H20599   2.192   9.473  10.771  1.4651  1.0701 -0.9351
  874MOL0     H20600   1.875   9.288  10.668  0.4190  0.0536 -2.2717
  874MOL0     H20601   2.011   9.391  10.634  0.8957 -2.1068  0.5267
  874MOL0     H20602   2.089   9.302  10.885  0.0223  1.1127 -0.7532
  874MOL0     H20603   2.092   9.198  10.739 -0.3298 -2.2585  1.6549
  874MOL0     H20604   1.863   9.112  10.806 -3.3258 -1.6548  4.1904
  874MOL0     H20605   1.994   9.057  10.900 -1.9363 -0.6057  2.0132
  874MOL0     H20606   1.790   9.272  10.970 -0.3181  0.1689  2.5100
  874MOL0     H20607   1.928   9.229  11.078  0.6309 -0.6477  1.1876
  874MOL0     H20608   1.654   8.920  11.154 -0.9076 -1.5298 -3.0428
  874MOL0     H20609   1.826   9.686  10.870 -0.0810  0.7957 -1.7627
  874MOL0     H20610   1.965   9.990  10.949  3.0659  0.8090 -1.9622
  874MOL0     H20611   1.906   9.993  10.776 -0.3071  2.0032  1.1264
  874MOL0     H20612   1.819   9.921  10.899  0.9072 -1.2787  0.5105
  875MOL0     O20613  11.007   9.233   5.857 -0.1996 -0.3127 -0.1318
  875MOL0     C20614  11.038   9.123   5.813 -0.0543 -0.2424  0.1315
  875MOL0     O20615  10.946   9.040   5.751 -0.0140  0.7413 -0.0456
  875MOL0     C20616  10.821   9.068   5.709  0.5930 -0.4887 -0.1113
  875MOL0     C20617  10.796   9.043   5.567 -0.1230 -0.2562  0.5074
  875MOL0     C20618  10.677   9.068   5.504 -0.1417 -0.2183  0.4922
  875MOL0     C20619  10.570   9.119   5.579  0.2579 -0.1680  0.2321
  875MOL0     O20620  10.447   9.161   5.532 -0.6426 -0.9868  0.2907
  875MOL0     C20621  10.418   9.127   5.397  0.4729  0.0949 -0.4362
  875MOL0     C20622  10.266   9.156   5.375 -0.0845  0.3400 -0.2857
  875MOL0     C20623  10.217   9.298   5.410 -0.4021  0.2254 -0.3928
  875MOL0     C20624  10.063   9.307   5.398  1.0763  0.3065  0.1329
  875MOL0     C20625  10.004   9.437   5.454  0.2751 -0.0161  0.3448
  875MOL0     C20626   9.856   9.441   5.443  0.0493  0.4781  0.1575
  875MOL0     C20627   9.785   9.544   5.531  0.3946 -0.6874 -1.0770
  875MOL0     C20628   9.790   9.495   5.680 -0.6055  0.1181  0.1756
  875MOL0     N20629   9.686   9.555   5.767 -0.6312  0.2510 -0.1513
  875MOL0     C20630   9.556   9.578   5.725  0.1188  0.1247  0.1819
  875MOL0     C20631   9.512   9.678   5.807 -0.0003  0.8025 -0.4601
  875MOL0     C20632   9.361   9.719   5.803 -0.3034  0.0100 -1.0500
  875MOL0     C20633   9.349   9.861   5.861 -1.0861 -0.5574  0.9670
  875MOL0     C20634   9.438   9.960   5.788 -0.4620 -0.4889  0.3301
  875MOL0     C20635   9.411  10.104   5.821  0.3120  0.0539 -0.3558
  875MOL0     O20636   9.391  10.118   5.961 -0.5134 -0.0445  0.3072
  875MOL0     C20637   9.516  10.138   6.022  1.0845 -0.1885  0.5394
  875MOL0     C20638   9.581  10.026   6.079  0.9956 -0.2862 -0.5117
  875MOL0     C20639   9.691  10.039   6.162 -0.6924 -0.8293  0.0601
  875MOL0     C20640   9.753   9.918   6.223 -0.3245 -0.2163 -0.2323
  875MOL0     C20641   9.749  10.168   6.172 -0.7211 -0.4177 -0.6219
  875MOL0     C20642   9.870  10.195   6.258 -1.1616 -1.0921 -0.2747
  875MOL0     O20643   9.939  10.310   6.244  0.4733 -0.9457  0.1386
  875MOL0     C20644  10.046  10.335   6.323 -0.1871 -0.0348  0.5707
  875MOL0     C20645  10.175  10.292   6.288 -0.1467 -0.2428  0.3011
  875MOL0     C20646  10.282  10.305   6.381  0.7095  0.2379 -0.0606
  875MOL0     C20647  10.265  10.366   6.510  0.1344 -0.1693 -0.1569
  875MOL0     O20648  10.365  10.375   6.601  0.5356  0.3060  0.0990
  875MOL0     C20649  10.490  10.300   6.583  0.5002  0.0921 -0.1189
  875MOL0     C20650  10.482  10.142   6.582 -0.5027 -0.2619  0.1798
  875MOL0     C20651  10.604  10.082   6.509 -0.1265  0.3019  0.0392
  875MOL0     C20652  10.750  10.107   6.560 -0.6424 -0.2642 -0.6898
  875MOL0     C20653  10.764  10.047   6.697  0.9489 -0.2666 -0.6850
  875MOL0     C20654  10.895  10.070   6.774 -0.7461 -0.0995  0.2338
  875MOL0     C20655  10.884  10.010   6.915 -0.9735 -0.2215 -0.2061
  875MOL0     C20656  10.965  10.092   7.012 -0.0470 -0.3479  0.2712
  875MOL0    Cl20657  11.143  10.061   6.977  0.3274 -0.0460  0.1476
  875MOL0     C20658  10.135  10.396   6.545  0.2005 -0.1847 -0.8334
  875MOL0     C20659  10.026  10.385   6.449 -0.9622 -0.0109 -0.4720
  875MOL0     O20660   9.895  10.117   6.353  0.2380  0.3182  0.3767
  875MOL0     C20661   9.695  10.276   6.102 -0.5981  0.2745 -0.1688
  875MOL0     C20662   9.571  10.263   6.032 -0.4306  0.4288 -0.6324
  875MOL0     N20663   9.620   9.705   5.890 -0.5564  1.3799 -0.0102
  875MOL0     N20664   9.725   9.632   5.867 -0.2085 -0.2085 -0.1663
  875MOL0     C20665  10.597   9.147   5.713 -0.5997 -0.2383  0.6223
  875MOL0     C20666  10.711   9.119   5.781 -1.5092  0.4865  0.0143
  875MOL0     C20667  11.182   9.072   5.816 -0.0710  0.1998 -0.6336
  875MOL0     C20668  11.208   8.943   5.761  0.4487  0.4731  1.5332
  875MOL0     C20669  11.326   8.878   5.769 -0.1691  0.3453 -0.0062
  875MOL0     C20670  11.422   8.927   5.856  0.3470  0.8139  0.2585
  875MOL0     O20671  11.529   8.847   5.871 -0.2238 -0.1122  0.0078
  875MOL0     C20672  11.656   8.899   5.922  0.0421 -0.6270  0.4070
  875MOL0     C20673  11.729   8.958   5.803 -0.7545 -0.7287 -0.5970
  875MOL0     C20674  11.827   8.849   5.745  0.4190  0.7133 -0.4640
  875MOL0     C20675  11.949   8.818   5.837  0.2621  0.4511  0.8686
  875MOL0     C20676  12.036   8.740   5.748  0.0215 -1.1678  0.0559
  875MOL0     C20677  12.089   8.665   5.675 -0.4210 -0.4646  0.4311
  875MOL0     C20678  11.398   9.058   5.909 -0.0239 -0.1757  0.1927
  875MOL0     C20679  11.282   9.134   5.900 -0.0667 -0.2941  0.4607
  875MOL0     C20680  11.274   9.273   5.957  0.1582  0.7799  0.5859
  875MOL0     H20681  10.868   8.985   5.510  0.2810 -2.5564  3.1227
  875MOL0     H20682  10.677   9.049   5.397  2.1979  2.7948 -0.1851
  875MOL0     H20683  10.445   9.023   5.380  1.2469 -0.0337  1.3666
  875MOL0     H20684  10.469   9.194   5.327 -1.5108  2.4477  0.2050
  875MOL0     H20685  10.251   9.135   5.269  1.7362  2.6212 -1.0712
  875MOL0     H20686  10.210   9.094   5.445  1.8012  1.9069  2.8235
  875MOL0     H20687  10.253   9.338   5.506  1.7827  2.2430 -1.9464
  875MOL0     H20688  10.260   9.365   5.335  1.7678 -0.7618 -0.0806
  875MOL0     H20689  10.034   9.303   5.292  0.4814 -1.3501  0.3288
  875MOL0     H20690  10.022   9.219   5.449  1.8982  0.9938  2.0609
  875MOL0     H20691  10.052   9.512   5.391 -3.8254  1.4071 -1.4381
  875MOL0     H20692  10.034   9.457   5.557  1.2074 -0.4740  0.1726
  875MOL0     H20693   9.829   9.467   5.341  2.9645  0.8390 -0.6179
  875MOL0     H20694   9.811   9.343   5.463  0.2383  0.2534 -0.5062
  875MOL0     H20695   9.682   9.539   5.495 -1.1576  1.1027  2.6468
  875MOL0     H20696   9.816   9.645   5.504 -3.3600  0.3720 -2.0167
  875MOL0     H20697   9.796   9.388   5.702  0.0370  0.0540 -0.2776
  875MOL0     H20698   9.890   9.519   5.718 -1.1646 -2.0002  3.3682
  875MOL0     H20699   9.508   9.533   5.639 -1.2606  0.2255  0.8559
  875MOL0     H20700   9.301   9.645   5.857  3.6622 -2.4656  0.3477
  875MOL0     H20701   9.318   9.713   5.702  0.4308 -0.8580 -1.3137
  875MOL0     H20702   9.247   9.897   5.840 -0.2105 -0.1380 -3.8531
  875MOL0     H20703   9.369   9.846   5.967  1.5410 -2.3529  0.3077
  875MOL0     H20704   9.541   9.943   5.820 -0.4632  1.2462  1.3705
  875MOL0     H20705   9.419   9.956   5.681 -1.2538 -2.5042  0.4949
  875MOL0     H20706   9.496  10.165   5.787 -0.1575  1.4575  0.8951
  875MOL0     H20707   9.335  10.146   5.754  1.7503 -2.1045 -3.6113
  875MOL0     H20708   9.529   9.931   6.073 -0.2052  0.3892 -1.2432
  875MOL0     H20709   9.721   9.834   6.160 -1.9466 -0.2101  0.5344
  875MOL0     H20710   9.707   9.890   6.318  1.2448 -2.9485 -0.1787
  875MOL0     H20711   9.862   9.920   6.234 -0.4545 -0.6965  1.3991
  875MOL0     H20712  10.198  10.235   6.198  1.0040 -0.7355  0.8826
  875MOL0     H20713  10.386  10.283   6.360  1.4965  2.6374  0.9217
  875MOL0     H20714  10.542  10.339   6.495 -0.1682  3.4641  0.8385
  875MOL0     H20715  10.550  10.331   6.669  1.6281  3.8850 -2.0644
  875MOL0     H20716  10.478  10.104   6.685 -1.1394  0.1271  0.3058
  875MOL0     H20717  10.396  10.109   6.524 -0.4856  1.1056 -0.6622
  875MOL0     H20718  10.603  10.105   6.402  0.0294 -0.4029 -0.1187
  875MOL0     H20719  10.589   9.974   6.510  2.3528 -0.2301  4.5171
  875MOL0     H20720  10.766  10.215   6.559 -0.7042 -0.2498 -0.0800
  875MOL0     H20721  10.832  10.060   6.505  0.1337 -2.8951  2.3944
  875MOL0     H20722  10.691  10.095   6.763  0.6312  1.0533 -1.9601
  875MOL0     H20723  10.741   9.941   6.685  2.5550 -0.4977 -2.1252
  875MOL0     H20724  10.906  10.179   6.777  1.7374 -0.1954 -1.9324
  875MOL0     H20725  10.970  10.025   6.709 -0.9097  1.0286 -0.7721
  875MOL0     H20726  10.928   9.910   6.914 -0.5197 -0.1274  2.5327
  875MOL0     H20727  10.780  10.014   6.950 -1.5999 -0.7443 -1.9000
  875MOL0     H20728  10.950  10.061   7.116  2.5392  0.3028  0.9038
  875MOL0     H20729  10.942  10.199   7.009  1.0142 -0.0443  1.6686
  875MOL0     H20730  10.113  10.435   6.644  2.6257  0.0821 -0.3426
  875MOL0     H20731   9.931  10.427   6.480  0.0442  0.1577  2.8311
  875MOL0     H20732   9.738  10.375   6.116  1.7197 -0.7128  0.1057
  875MOL0     H20733   9.517  10.348   5.991  1.2875  1.3234 -1.1333
  875MOL0     H20734  10.524   9.206   5.768  0.8997  1.5333  0.7919
  875MOL0     H20735  10.738   9.155   5.880 -0.1486 -1.0520  0.2513
  875MOL0     H20736  11.141   8.893   5.691  3.8998 -0.4264 -1.4179
  875MOL0     H20737  11.344   8.780   5.725  2.9312 -0.2407  2.2385
  875MOL0     H20738  11.634   8.984   5.988 -0.4206  2.6177 -3.5618
  875MOL0     H20739  11.717   8.829   5.980 -1.4418 -2.0871  0.2825
  875MOL0     H20740  11.804   9.023   5.851  0.3037 -1.7240 -0.8633
  875MOL0     H20741  11.673   9.018   5.731  1.0282 -0.1173 -1.5467
  875MOL0     H20742  11.784   8.754   5.712  3.6310 -0.1614 -2.5458
  875MOL0     H20743  11.864   8.893   5.652 -0.2805  0.9042 -0.6656
  875MOL0     H20744  11.918   8.759   5.924 -1.3759  2.0779  1.4501
  875MOL0     H20745  12.003   8.903   5.880  2.6722  1.1365 -3.0427
  875MOL0     H20746  12.130   8.613   5.590  1.4821 -0.0934  1.0711
  875MOL0     H20747  11.460   9.102   5.987 -2.8005  0.6528  2.0735
  875MOL0     H20748  11.292   9.347   5.879 -1.3506  0.8917  0.3207
  875MOL0     H20749  11.173   9.276   6.000 -1.2676  1.0874 -2.5335
  875MOL0     H20750  11.343   9.287   6.041  0.9443 -1.5191  0.4006
  876MOL0     O20751  10.295   4.769   9.592 -1.1333  0.2914  0.4220
  876MOL0     C20752  10.368   4.690   9.521  0.3794  0.2089 -0.8878
  876MOL0     O20753  10.324   4.627   9.403 -0.1939  0.0281 -0.2123
  876MOL0     C20754  10.206   4.680   9.352  0.0676 -0.4366 -0.2106
  876MOL0     C20755  10.186   4.810   9.299 -0.0586 -0.8873 -0.4326
  876MOL0     C20756  10.055   4.845   9.256 -0.7882 -0.1065  0.2263
  876MOL0     C20757   9.954   4.753   9.261  0.4487 -0.4040  1.3843
  876MOL0     O20758   9.836   4.794   9.201  0.4299  0.0043 -0.2437
  876MOL0     C20759   9.763   4.711   9.105 -0.8139 -0.1730 -0.3620
  876MOL0     C20760   9.783   4.771   8.965  0.4234 -0.1313 -0.1780
  876MOL0     C20761   9.717   4.685   8.861  0.3241  0.0765 -0.5047
  876MOL0     C20762   9.736   4.753   8.723  0.6150 -0.7551  0.1883
  876MOL0     C20763   9.705   4.662   8.598 -0.7220  0.2227  0.0890
  876MOL0     C20764   9.727   4.738   8.465  0.4371  0.8462 -0.6392
  876MOL0     C20765   9.711   4.649   8.336 -0.3365  0.5111 -0.3723
  876MOL0     C20766   9.688   4.720   8.197  0.5804 -0.4687 -0.7977
  876MOL0     N20767   9.815   4.792   8.167  0.6653 -1.0210 -0.0699
  876MOL0     C20768   9.937   4.740   8.135  0.0571  0.3154  0.3608
  876MOL0     C20769  10.020   4.853   8.120  0.4773 -0.6531  0.1564
  876MOL0     C20770  10.165   4.862   8.100  0.6759 -0.7513  0.0364
  876MOL0     C20771  10.241   4.869   8.235  0.3270 -0.1711  0.9172
  876MOL0     C20772  10.382   4.914   8.198 -0.7467 -0.4343  0.8337
  876MOL0     C20773  10.389   5.066   8.194 -1.3440  0.1196  0.8611
  876MOL0     O20774  10.399   5.125   8.325  0.1420 -0.2354 -0.6815
  876MOL0     C20775  10.454   5.252   8.342 -0.2896 -0.9330  0.0197
  876MOL0     C20776  10.466   5.343   8.236 -0.7362  0.1664  1.3280
  876MOL0     C20777  10.530   5.469   8.256  0.9980 -1.1253  0.5070
  876MOL0     C20778  10.532   5.559   8.132  0.2773 -0.2270  0.3569
  876MOL0     C20779  10.557   5.511   8.385  0.2610  1.0569 -0.4552
  876MOL0     C20780  10.607   5.648   8.416 -0.0288 -0.1310  0.5544
  876MOL0     O20781  10.526   5.745   8.387  1.1202  0.2041  0.0739
  876MOL0     C20782  10.560   5.878   8.424  0.0578 -0.6762  1.0834
  876MOL0     C20783  10.588   5.960   8.315 -0.6389  0.4184 -0.0081
  876MOL0     C20784  10.616   6.096   8.333 -0.5577  0.2367 -0.1370
  876MOL0     C20785  10.614   6.148   8.468  0.0999  0.5800  0.6888
  876MOL0     O20786  10.630   6.279   8.507 -0.1753 -0.6820 -0.4433
  876MOL0     C20787  10.663   6.374   8.399  0.2569 -0.8109 -0.1465
  876MOL0     C20788  10.657   6.522   8.450  0.6844 -0.7624  0.1125
  876MOL0     C20789  10.702   6.621   8.342  0.2258  0.4730  0.2678
  876MOL0     C20790  10.605   6.632   8.218 -1.1835 -0.4902 -0.3564
  876MOL0     C20791  10.627   6.745   8.122  0.1832 -0.3544  0.5026
  876MOL0     C20792  10.549   6.866   8.161 -0.2490  0.6931 -0.1531
  876MOL0     C20793  10.588   6.978   8.064  1.0003 -0.8142  0.3165
  876MOL0     C20794  10.533   7.110   8.113 -0.0270  0.1686 -0.5209
  876MOL0    Cl20795  10.633   7.169   8.251 -0.3601  0.0221 -0.4346
  876MOL0     C20796  10.587   6.058   8.578 -1.2613  0.2623  0.1338
  876MOL0     C20797  10.556   5.925   8.551  0.7674 -0.3517  0.1614
  876MOL0     O20798  10.709   5.670   8.475 -0.4573 -0.0472  0.2241
  876MOL0     C20799  10.544   5.418   8.492  0.0750 -0.0249  0.3019
  876MOL0     C20800  10.495   5.289   8.463  0.3814  0.4022  0.0999
  876MOL0     N20801   9.942   4.961   8.138 -0.2654 -0.4778  0.2490
  876MOL0     N20802   9.820   4.929   8.162 -0.0018  1.3684 -0.8828
  876MOL0     C20803   9.974   4.620   9.299 -0.6293 -0.1159 -1.1476
  876MOL0     C20804  10.099   4.585   9.343  0.3354 -0.1412  0.5137
  876MOL0     C20805  10.501   4.676   9.565  0.4660  0.5615  0.3132
  876MOL0     C20806  10.546   4.542   9.568  0.5844 -0.3135  0.5866
  876MOL0     C20807  10.669   4.506   9.620  0.1677 -0.4389  0.4632
  876MOL0     C20808  10.749   4.606   9.669  0.0714  0.0165  0.4904
  876MOL0     O20809  10.854   4.557   9.744 -0.3386 -0.8927 -0.0080
  876MOL0     C20810  10.979   4.637   9.757  0.7840  0.0226  0.0023
  876MOL0     C20811  11.002   4.686   9.902 -0.2309  0.0935 -0.1971
  876MOL0     C20812  11.011   4.570   9.994 -0.5783 -0.1462  0.1204
  876MOL0     C20813  11.070   4.600  10.135  0.3573 -0.2876  0.4433
  876MOL0     C20814  10.964   4.614  10.238  0.8985 -0.8637  0.0428
  876MOL0     C20815  10.873   4.639  10.317 -0.4420 -0.6812  0.0408
  876MOL0     C20816  10.706   4.742   9.663 -0.7077  0.2604 -0.2651
  876MOL0     C20817  10.585   4.780   9.616  0.2527  0.3515 -0.3867
  876MOL0     C20818  10.539   4.924   9.647  0.1466 -0.4273 -0.0123
  876MOL0     H20819  10.276   4.871   9.287  0.1364 -0.7470  1.4263
  876MOL0     H20820  10.039   4.949   9.230 -0.0567 -0.3124 -1.1854
  876MOL0     H20821   9.657   4.718   9.132 -0.3163  0.3314  1.6352
  876MOL0     H20822   9.789   4.605   9.098 -0.6924 -0.0540 -2.8684
  876MOL0     H20823   9.735   4.868   8.950 -2.5414 -1.2603  1.0971
  876MOL0     H20824   9.888   4.761   8.937  0.7655  0.5259  0.8258
  876MOL0     H20825   9.762   4.585   8.865 -1.5393 -0.7919 -0.2782
  876MOL0     H20826   9.611   4.673   8.884  0.5072 -1.6538 -0.4070
  876MOL0     H20827   9.669   4.839   8.720  1.8513  0.3262  2.0191
  876MOL0     H20828   9.837   4.794   8.716  0.4839 -0.4292  0.1889
  876MOL0     H20829   9.605   4.622   8.617 -0.2909 -0.2278  1.5925
  876MOL0     H20830   9.781   4.584   8.599 -0.7745  0.1712  0.0666
  876MOL0     H20831   9.647   4.811   8.458 -1.3424 -0.3782  3.5890
  876MOL0     H20832   9.829   4.777   8.462  1.1838 -1.0165 -1.2101
  876MOL0     H20833   9.626   4.580   8.339 -1.8165  2.1561 -1.7145
  876MOL0     H20834   9.808   4.599   8.329  1.4759  3.9513 -3.3743
  876MOL0     H20835   9.663   4.650   8.117 -0.7658 -0.1242 -0.6904
  876MOL0     H20836   9.599   4.783   8.205  0.3684 -0.6545 -1.5637
  876MOL0     H20837   9.967   4.637   8.149  0.4304 -0.2436 -3.4480
  876MOL0     H20838  10.198   4.944   8.036 -1.9629 -1.5629 -2.5736
  876MOL0     H20839  10.194   4.777   8.038  0.1049 -1.0159  0.1252
  876MOL0     H20840  10.201   4.946   8.301  0.8743  0.4113  0.5690
  876MOL0     H20841  10.239   4.775   8.291 -1.2754  1.6180  4.0863
  876MOL0     H20842  10.448   4.886   8.280  2.3337 -1.5419 -1.8201
  876MOL0     H20843  10.416   4.865   8.107  1.1972  3.0113 -0.4915
  876MOL0     H20844  10.466   5.080   8.118 -2.5089 -1.4653 -0.6794
  876MOL0     H20845  10.293   5.101   8.154 -0.6540 -1.4102 -2.4372
  876MOL0     H20846  10.444   5.316   8.133  0.2436  3.4520  0.1349
  876MOL0     H20847  10.467   5.515   8.055 -2.1938  0.1449  2.1082
  876MOL0     H20848  10.627   5.586   8.086  0.0796  1.3994  0.8283
  876MOL0     H20849  10.475   5.649   8.159  1.5939  1.5067 -2.2032
  876MOL0     H20850  10.573   5.932   8.211 -0.1760 -1.0394  0.2899
  876MOL0     H20851  10.618   6.167   8.250  1.3313  0.2933 -0.0739
  876MOL0     H20852  10.767   6.357   8.370 -0.5436 -0.9502 -3.4014
  876MOL0     H20853  10.596   6.365   8.312 -2.0767  3.5935  0.9052
  876MOL0     H20854  10.560   6.558   8.484  1.5195  3.3243 -1.2205
  876MOL0     H20855  10.712   6.528   8.544  0.6237 -1.9677  0.2408
  876MOL0     H20856  10.797   6.580   8.306 -0.0766 -3.4725  3.2295
  876MOL0     H20857  10.699   6.719   8.391 -2.4020 -0.0676  1.3989
  876MOL0     H20858  10.506   6.637   8.264 -0.9293 -1.5503  0.3615
  876MOL0     H20859  10.614   6.538   8.162 -0.5211 -2.2593  2.4884
  876MOL0     H20860  10.731   6.759   8.092 -0.1076 -1.0416 -0.9212
  876MOL0     H20861  10.577   6.705   8.033 -1.8571 -1.9691  2.2718
  876MOL0     H20862  10.576   6.887   8.265 -0.2374  0.7090 -0.1591
  876MOL0     H20863  10.441   6.855   8.152 -0.6576 -1.2100  4.1852
  876MOL0     H20864  10.527   6.972   7.973  0.0303  4.0667  0.3791
  876MOL0     H20865  10.694   6.984   8.039  0.8630  2.3027  0.0301
  876MOL0     H20866  10.424   7.108   8.122 -0.0406 -0.2462 -0.7578
  876MOL0     H20867  10.557   7.185   8.037  3.1229 -0.3544 -0.1492
  876MOL0     H20868  10.595   6.099   8.678 -1.2408  2.3860 -0.6779
  876MOL0     H20869  10.532   5.846   8.621 -3.1221 -1.6444 -2.3472
  876MOL0     H20870  10.572   5.455   8.590 -1.0679  1.4140  0.1043
  876MOL0     H20871  10.480   5.211   8.538 -0.8662 -0.4312 -0.9724
  876MOL0     H20872   9.891   4.550   9.294 -0.3864 -0.4046 -1.1469
  876MOL0     H20873  10.111   4.483   9.379  1.2479 -0.0542  0.4791
  876MOL0     H20874  10.492   4.460   9.522  1.9590 -3.0524  3.4173
  876MOL0     H20875  10.689   4.402   9.643 -0.4878 -0.9473 -1.1338
  876MOL0     H20876  11.066   4.576   9.730  1.7844  2.1199 -1.8688
  876MOL0     H20877  10.987   4.725   9.693  0.4699  1.7410  2.1929
  876MOL0     H20878  10.909   4.737   9.928 -1.2802 -1.8211 -0.0254
  876MOL0     H20879  11.092   4.748   9.902  0.7619 -1.2478  1.6122
  876MOL0     H20880  10.910   4.529  10.005 -0.0594 -1.6737 -0.5122
  876MOL0     H20881  11.068   4.491   9.944  0.8879 -0.1218  1.6800
  876MOL0     H20882  11.126   4.693  10.128  1.7720 -1.2465 -4.4437
  876MOL0     H20883  11.132   4.511  10.150 -5.3468 -4.7796  0.6751
  876MOL0     H20884  10.801   4.676  10.386 -0.6192 -0.6166 -0.1778
  876MOL0     H20885  10.772   4.815   9.709  0.7717  0.2144 -2.1765
  876MOL0     H20886  10.625   4.980   9.687 -0.0682 -1.6350  2.2638
  876MOL0     H20887  10.510   4.968   9.551  1.7696  1.8108  0.4242
  876MOL0     H20888  10.458   4.937   9.719  2.1493  0.9502  2.1410
  877MOL0     O20889  10.257   0.054   6.132  0.0712 -0.6359  0.0390
  877MOL0     C20890  10.221   0.120   6.033 -0.6471  0.0813  0.4327
  877MOL0     O20891  10.116   0.210   6.039 -0.4112 -0.3830  0.4372
  877MOL0     C20892  10.055   0.232   6.160 -0.3398  0.6736  0.4511
  877MOL0     C20893  10.088   0.351   6.227  0.4155 -0.2246 -0.9156
  877MOL0     C20894  10.016   0.393   6.339  0.3660  0.2861 -1.0325
  877MOL0     C20895   9.910   0.313   6.388  0.4722  0.0376 -0.0724
  877MOL0     O20896   9.844   0.351   6.508  0.3315  0.0971  0.2337
  877MOL0     C20897   9.711   0.299   6.536 -0.3054  0.5056 -0.5278
  877MOL0     C20898   9.661   0.360   6.660 -0.6405  0.8223  0.0788
  877MOL0     C20899   9.620   0.507   6.637 -0.2471 -0.1168  0.1251
  877MOL0     C20900   9.470   0.534   6.608  0.5836  0.2448 -0.2825
  877MOL0     C20901   9.435   0.678   6.639  0.3741  0.1045  0.1826
  877MOL0     C20902   9.451   0.723   6.782 -0.9406 -0.7977 -0.5800
  877MOL0     C20903   9.366   0.850   6.794  0.3172  0.0595  0.7320
  877MOL0     C20904   9.239   0.819   6.883  0.2729 -0.1159  0.4135
  877MOL0     N20905   9.115   0.890   6.858  0.1668 -0.0279 -0.2951
  877MOL0     C20906   9.048   0.899   6.731 -0.5415  0.2283  0.0679
  877MOL0     C20907   8.930   0.944   6.767  0.2642 -0.4068  0.2481
  877MOL0     C20908   8.794   0.946   6.695 -0.2861 -0.0893 -0.3612
  877MOL0     C20909   8.798   0.887   6.551 -0.2477 -1.2379  0.5339
  877MOL0     C20910   8.655   0.871   6.495 -1.1257 -0.6538 -0.1612
  877MOL0     C20911   8.555   0.987   6.485  0.4552 -0.1722  1.0328
  877MOL0     O20912   8.438   0.963   6.411 -0.5273  0.2948 -0.3583
  877MOL0     C20913   8.353   1.073   6.398 -0.8218 -0.6641  0.6517
  877MOL0     C20914   8.362   1.211   6.424 -0.0864 -0.5837 -0.0782
  877MOL0     C20915   8.258   1.302   6.376  0.1199  0.1385 -0.0809
  877MOL0     C20916   8.291   1.446   6.410  0.5994  0.2991  0.1995
  877MOL0     C20917   8.135   1.254   6.310  0.1730 -0.4824  0.1662
  877MOL0     C20918   8.011   1.329   6.270 -0.2424 -1.0160  0.3994
  877MOL0     O20919   7.919   1.265   6.183  1.1239  0.2291  0.1516
  877MOL0     C20920   7.823   1.342   6.130  0.3231  0.2478 -0.0656
  877MOL0     C20921   7.848   1.436   6.028 -0.4636 -0.1230 -0.7377
  877MOL0     C20922   7.745   1.512   5.984 -0.0896 -0.1371 -0.6028
  877MOL0     C20923   7.611   1.491   6.030  0.6320  0.3929 -0.6727
  877MOL0     O20924   7.506   1.553   5.973  0.4193 -0.7830  0.7285
  877MOL0     C20925   7.371   1.504   5.971 -0.1667 -0.2182 -0.1166
  877MOL0     C20926   7.254   1.602   5.923  0.2539  0.6415  0.7979
  877MOL0     C20927   7.244   1.724   6.016  0.3552 -0.2076  0.2276
  877MOL0     C20928   7.132   1.826   5.996 -0.7740  0.7040  0.3875
  877MOL0     C20929   7.170   1.967   6.038  0.1372  0.1211 -0.2990
  877MOL0     C20930   7.049   2.055   6.023 -1.2106 -0.4286  0.0282
  877MOL0     C20931   7.069   2.204   6.075  0.4716 -0.0882  0.1162
  877MOL0     C20932   6.954   2.307   6.058 -0.3937  1.4474  0.4765
  877MOL0    Cl20933   6.975   2.452   6.163 -0.4296 -0.1345 -0.2050
  877MOL0     C20934   7.588   1.398   6.127 -0.7919  0.0838 -0.9069
  877MOL0     C20935   7.698   1.334   6.186 -0.3852 -0.2052  0.4561
  877MOL0     O20936   8.013   1.447   6.304  0.2834 -1.0248  0.2571
  877MOL0     C20937   8.134   1.119   6.278  0.1983  0.6078 -1.5071
  877MOL0     C20938   8.233   1.028   6.340  0.6805  1.0589  0.9078
  877MOL0     N20939   8.922   0.968   6.901  0.1489  0.2882 -0.0992
  877MOL0     N20940   9.032   0.946   6.953 -0.2933  0.2704  0.4906
  877MOL0     C20941   9.881   0.192   6.325 -0.1152  1.0192 -0.1176
  877MOL0     C20942   9.956   0.151   6.213  0.4017 -1.1420 -0.3532
  877MOL0     C20943  10.287   0.099   5.901 -0.2221 -0.4955 -0.2504
  877MOL0     C20944  10.211   0.108   5.787  0.0040 -0.7017  0.8467
  877MOL0     C20945  10.259   0.075   5.666 -0.1066  0.0451  0.1435
  877MOL0     C20946  10.381   0.012   5.650 -0.0134 -0.5228  0.0963
  877MOL0     O20947  10.438  -0.047   5.540 -0.5053 -0.4390 -0.2679
  877MOL0     C20948  10.422   0.032   5.424  0.3347  0.3785 -0.7111
  877MOL0     C20949  10.504  -0.023   5.307 -0.6522  0.9596  0.1404
  877MOL0     C20950  10.475  -0.171   5.276  0.0640  0.4441 -0.7383
  877MOL0     C20951  10.340  -0.203   5.217  0.6148 -0.3206 -0.2442
  877MOL0     C20952  10.320  -0.135   5.088 -0.6091  0.9673 -0.4834
  877MOL0     C20953  10.298  -0.088   4.982  0.1410  0.0487  0.4407
  877MOL0     C20954  10.465   0.016   5.759 -0.2222  0.5151 -0.7482
  877MOL0     C20955  10.430   0.063   5.883  0.3776  0.5851  0.7428
  877MOL0     C20956  10.531   0.065   5.992  0.1622 -0.1422  0.7331
  877MOL0     H20957  10.168   0.413   6.187  0.1722  1.1086  0.5672
  877MOL0     H20958  10.059   0.476   6.395  3.2133 -3.3275  2.8069
  877MOL0     H20959   9.703   0.190   6.540  0.6153  0.4215 -0.7787
  877MOL0     H20960   9.648   0.332   6.453  2.4187  3.2339 -1.6917
  877MOL0     H20961   9.575   0.300   6.690 -0.7624  0.6492 -0.5985
  877MOL0     H20962   9.738   0.341   6.736 -0.2520  0.1190 -0.4736
  877MOL0     H20963   9.645   0.566   6.725  0.3916  0.5133 -0.4711
  877MOL0     H20964   9.686   0.546   6.559  1.9895 -3.1109  0.3689
  877MOL0     H20965   9.462   0.505   6.503  1.5587 -0.4130 -0.1908
  877MOL0     H20966   9.415   0.463   6.671 -0.6773  2.8790  1.7601
  877MOL0     H20967   9.328   0.686   6.617  0.4375  0.1951 -0.0871
  877MOL0     H20968   9.496   0.742   6.574 -2.0523  1.4519 -0.9020
  877MOL0     H20969   9.434   0.648   6.860 -2.4394  0.3509  0.2553
  877MOL0     H20970   9.555   0.757   6.789 -1.6382  1.7485 -1.3818
  877MOL0     H20971   9.341   0.897   6.699  0.5686  0.4174  0.8399
  877MOL0     H20972   9.424   0.920   6.855 -1.4855  1.7745  0.5772
  877MOL0     H20973   9.231   0.710   6.887  4.5202 -0.6522 -0.9180
  877MOL0     H20974   9.272   0.848   6.983  2.2235  2.8535 -0.9737
  877MOL0     H20975   9.088   0.867   6.635  1.2561  2.4504  0.0023
  877MOL0     H20976   8.743   1.043   6.695 -0.9972 -0.4243 -1.9432
  877MOL0     H20977   8.728   0.886   6.758 -2.1773  1.9379 -0.3011
  877MOL0     H20978   8.865   0.948   6.489  1.4375 -2.6896  0.8408
  877MOL0     H20979   8.856   0.794   6.551  0.9237 -0.6215 -2.4204
  877MOL0     H20980   8.655   0.819   6.399 -0.2532 -1.3943  0.2347
  877MOL0     H20981   8.609   0.796   6.560  2.1425 -1.6641  1.1648
  877MOL0     H20982   8.528   1.021   6.585 -1.2681  2.1296 -0.1195
  877MOL0     H20983   8.608   1.074   6.445  3.9770 -2.2267  0.7374
  877MOL0     H20984   8.450   1.240   6.481  0.1165  2.8465 -1.8235
  877MOL0     H20985   8.390   1.461   6.368  0.7083 -0.8009  0.0402
  877MOL0     H20986   8.300   1.457   6.518 -1.0806  0.1641  0.3848
  877MOL0     H20987   8.219   1.525   6.386  1.5358  1.2385  0.4003
  877MOL0     H20988   7.945   1.442   5.980 -0.3943  3.9502 -0.4729
  877MOL0     H20989   7.755   1.574   5.896 -0.8181 -0.8031 -1.1582
  877MOL0     H20990   7.379   1.424   5.897 -0.0022  0.3808 -0.7637
  877MOL0     H20991   7.328   1.460   6.061 -2.0004  1.4766 -0.0931
  877MOL0     H20992   7.273   1.642   5.823 -2.6071 -0.8778 -0.4804
  877MOL0     H20993   7.162   1.543   5.914  1.0867 -0.5055 -0.4204
  877MOL0     H20994   7.340   1.775   6.007  0.2757  0.5137  2.7449
  877MOL0     H20995   7.244   1.691   6.120 -0.0511  4.3969  1.8779
  877MOL0     H20996   7.040   1.802   6.050  1.1033 -1.4841  2.9139
  877MOL0     H20997   7.121   1.824   5.888  0.4048  2.4362  0.2001
  877MOL0     H20998   7.191   1.964   6.146 -0.4493 -0.2183 -0.1910
  877MOL0     H20999   7.256   1.988   5.974  1.1456  0.4436  1.1062
  877MOL0     H21000   6.953   2.018   6.061 -1.0680 -0.6666  0.1538
  877MOL0     H21001   7.020   2.065   5.918 -1.8068  0.0800  0.2346
  877MOL0     H21002   7.153   2.241   6.016 -0.3821  0.0897 -1.0063
  877MOL0     H21003   7.104   2.203   6.179 -0.7683 -0.4761  0.5512
  877MOL0     H21004   6.854   2.265   6.072  0.8633 -3.1508 -2.2135
  877MOL0     H21005   6.960   2.337   5.953 -5.4203  1.2594 -0.0791
  877MOL0     H21006   7.495   1.381   6.179  0.5673  1.2217  2.1520
  877MOL0     H21007   7.685   1.253   6.257  0.4837  0.4433  1.3924
  877MOL0     H21008   8.038   1.087   6.239 -1.1860  0.7405  1.4904
  877MOL0     H21009   8.209   0.923   6.330 -0.1392  0.8926  3.7663
  877MOL0     H21010   9.800   0.131   6.362 -0.0796  0.8395 -0.3374
  877MOL0     H21011   9.952   0.058   6.157  3.2626  0.2435 -3.2136
  877MOL0     H21012  10.112   0.152   5.789  0.4952  0.7053 -1.6800
  877MOL0     H21013  10.188   0.086   5.584 -1.2746 -1.8931  0.8235
  877MOL0     H21014  10.322   0.060   5.390  0.1855 -1.6533 -2.0872
  877MOL0     H21015  10.467   0.129   5.450 -0.5645  0.6453 -0.0897
  877MOL0     H21016  10.610  -0.006   5.326 -0.6578  3.3019 -1.5776
  877MOL0     H21017  10.485   0.033   5.215  0.8450  3.2809  1.1553
  877MOL0     H21018  10.565  -0.209   5.227 -0.8768 -0.9654 -1.4427
  877MOL0     H21019  10.473  -0.222   5.372  1.2198 -1.0304 -1.4672
  877MOL0     H21020  10.258  -0.175   5.282 -0.4251  1.2436 -2.1108
  877MOL0     H21021  10.320  -0.310   5.204 -1.5926 -0.0052  0.1997
  877MOL0     H21022  10.261  -0.049   4.890 -2.1914 -0.9427  0.8728
  877MOL0     H21023  10.567  -0.019   5.742  0.4263  1.7425  0.4216
  877MOL0     H21024  10.629   0.033   5.955 -0.2532 -0.8832  0.2376
  877MOL0     H21025  10.539   0.167   6.029 -0.4823 -0.6476  2.3827
  877MOL0     H21026  10.501   0.001   6.076 -2.6843  0.1577  0.0502
  878MOL0     O21027   8.772   7.509   0.353 -0.4045 -0.6692  0.2525
  878MOL0     C21028   8.837   7.588   0.279 -0.5265  0.7645 -0.0957
  878MOL0     O21029   8.872   7.550   0.154  0.2773 -0.6440 -0.1594
  878MOL0     C21030   8.894   7.421   0.121 -0.4887  1.0413 -0.9646
  878MOL0     C21031   8.955   7.330   0.209  0.0135 -0.4932 -0.2681
  878MOL0     C21032   8.991   7.201   0.168 -0.1685  0.1954  0.5552
  878MOL0     C21033   8.946   7.151   0.043  0.3642  0.0665 -0.9537
  878MOL0     O21034   8.963   7.026  -0.003  0.1556  0.4497 -0.1744
  878MOL0     C21035   9.079   6.960   0.047  0.0698  0.3159 -0.3406
  878MOL0     C21036   9.108   6.847  -0.052 -0.4329  0.6962  0.2580
  878MOL0     C21037   9.197   6.897  -0.164  0.2825 -0.1196  0.4303
  878MOL0     C21038   9.226   6.774  -0.259 -0.5889 -0.0234  0.1175
  878MOL0     C21039   9.308   6.806  -0.384  0.4610 -0.4921 -0.3282
  878MOL0     C21040   9.460   6.825  -0.353  0.4841  0.0069  0.6159
  878MOL0     C21041   9.524   6.844  -0.491  0.4115 -0.3302  0.7640
  878MOL0     C21042   9.675   6.868  -0.473  0.2057  0.1955  0.1170
  878MOL0     N21043   9.755   6.749  -0.428 -0.5057 -0.0852 -0.2103
  878MOL0     C21044   9.807   6.659  -0.518 -0.0254 -0.2647  0.3713
  878MOL0     C21045   9.893   6.590  -0.441  0.4603 -0.3056 -0.1771
  878MOL0     C21046   9.982   6.480  -0.483  0.7663 -0.4907 -0.4308
  878MOL0     C21047   9.896   6.375  -0.553 -0.3042  0.6469  0.5507
  878MOL0     C21048   9.981   6.256  -0.591 -0.4004  0.0859 -0.3629
  878MOL0     C21049   9.909   6.152  -0.679 -0.6743 -0.1066  0.3361
  878MOL0     O21050   9.800   6.107  -0.597 -0.0664  0.6922 -0.5083
  878MOL0     C21051   9.686   6.071  -0.664  0.8529  0.0500 -0.0049
  878MOL0     C21052   9.562   6.127  -0.629 -0.5143 -0.4393 -0.6502
  878MOL0     C21053   9.442   6.101  -0.688 -0.7499  0.5102 -0.0464
  878MOL0     C21054   9.330   6.173  -0.629  0.4070 -0.7644 -0.5016
  878MOL0     C21055   9.432   5.992  -0.770  0.6877 -0.1411  1.0031
  878MOL0     C21056   9.295   5.934  -0.818  0.4859 -0.6209  0.6833
  878MOL0     O21057   9.187   5.962  -0.739 -1.1649 -0.2485  0.1309
  878MOL0     C21058   9.065   5.914  -0.768  0.9567 -0.5190 -0.2695
  878MOL0     C21059   9.039   5.780  -0.759 -0.4660  0.0561  1.1225
  878MOL0     C21060   8.911   5.728  -0.785 -0.0843  1.2924 -0.9006
  878MOL0     C21061   8.805   5.815  -0.809  0.2444  0.1217 -0.6199
  878MOL0     O21062   8.682   5.759  -0.824 -0.0405  0.6592 -0.4281
  878MOL0     C21063   8.574   5.832  -0.870  0.1421  0.2668  0.5680
  878MOL0     C21064   8.452   5.740  -0.868  0.4304  0.0052  0.3785
  878MOL0     C21065   8.446   5.655  -0.991  0.4140 -0.1635  0.1291
  878MOL0     C21066   8.480   5.507  -0.973  0.3720  0.1423 -0.7142
  878MOL0     C21067   8.497   5.423  -1.093  1.1995  0.0041  0.8815
  878MOL0     C21068   8.397   5.441  -1.215 -0.7917  0.4564  0.1519
  878MOL0     C21069   8.253   5.384  -1.193 -0.4737  0.1042  0.0759
  878MOL0     C21070   8.155   5.423  -1.305 -0.7452 -0.3005 -0.1204
  878MOL0    Cl21071   8.173   5.301  -1.434 -0.0925 -0.2177  0.3347
  878MOL0     C21072   8.835   5.950  -0.826  0.5492 -0.2283  0.5613
  878MOL0     C21073   8.966   6.000  -0.818 -0.0056 -0.4118 -0.9856
  878MOL0     O21074   9.301   5.859  -0.914  0.3095  0.1569 -0.2634
  878MOL0     C21075   9.553   5.939  -0.814  0.1428  0.1032 -0.4322
  878MOL0     C21076   9.673   5.971  -0.752 -0.1353  1.4268 -1.0661
  878MOL0     N21077   9.907   6.644  -0.318 -0.0264  0.2662 -0.4369
  878MOL0     N21078   9.804   6.722  -0.309 -0.7275  0.5188 -0.9026
  878MOL0     C21079   8.867   7.236  -0.038  0.6462 -0.7788 -0.5287
  878MOL0     C21080   8.851   7.374  -0.010 -0.1927 -0.1451 -0.2987
  878MOL0     C21081   8.846   7.736   0.319  0.4852  0.9619  0.1774
  878MOL0     C21082   8.861   7.827   0.216 -0.0481  0.9915  0.2194
  878MOL0     C21083   8.869   7.967   0.245 -0.4853  0.9880 -0.5445
  878MOL0     C21084   8.859   8.017   0.378 -0.7710 -0.4201  0.4200
  878MOL0     O21085   8.868   8.150   0.395 -0.8330 -0.0998  0.0397
  878MOL0     C21086   8.829   8.204   0.516  0.5729  0.7322  0.0477
  878MOL0     C21087   8.853   8.346   0.516  0.4449 -1.0456 -0.5249
  878MOL0     C21088   9.011   8.366   0.500  0.8511  0.5844  0.5522
  878MOL0     C21089   9.062   8.498   0.551 -0.2708 -0.2252 -0.2795
  878MOL0     C21090   8.993   8.611   0.480 -1.3099  0.9033  0.1477
  878MOL0     C21091   8.933   8.694   0.419 -0.5298 -0.3743 -0.5497
  878MOL0     C21092   8.845   7.926   0.484  0.7302  0.5428 -0.5814
  878MOL0     C21093   8.833   7.785   0.454 -0.5791  1.0132  0.1798
  878MOL0     C21094   8.822   7.694   0.581 -0.1357  0.0883  0.3229
  878MOL0     H21095   8.983   7.361   0.310 -1.5299  0.8428 -0.1976
  878MOL0     H21096   9.045   7.137   0.237  2.6975  2.1185  0.3016
  878MOL0     H21097   9.051   6.913   0.142 -0.5767 -1.3348 -1.2920
  878MOL0     H21098   9.169   7.020   0.063 -0.5734  2.0979 -2.8920
  878MOL0     H21099   9.139   6.748  -0.018 -3.0990 -0.7568 -1.2504
  878MOL0     H21100   9.016   6.819  -0.103 -0.8851  3.3471 -0.5260
  878MOL0     H21101   9.159   6.975  -0.231  1.8552  2.0854  2.0001
  878MOL0     H21102   9.285   6.939  -0.115  1.2219 -3.3971  1.8432
  878MOL0     H21103   9.279   6.698  -0.200 -2.5430 -3.9032 -2.7046
  878MOL0     H21104   9.130   6.735  -0.295 -0.3080 -0.0201 -0.6507
  878MOL0     H21105   9.267   6.891  -0.440  0.5860  0.2684  0.6901
  878MOL0     H21106   9.295   6.716  -0.445 -1.2066  1.3245 -2.8595
  878MOL0     H21107   9.473   6.912  -0.288 -2.6363 -0.5191  2.1682
  878MOL0     H21108   9.504   6.736  -0.307 -0.2869  0.5435  2.5069
  878MOL0     H21109   9.474   6.922  -0.548  0.3050  0.8134  2.3640
  878MOL0     H21110   9.517   6.753  -0.552  0.3626  0.4791 -0.4748
  878MOL0     H21111   9.708   6.894  -0.574  1.9798 -1.2511  0.2834
  878MOL0     H21112   9.692   6.953  -0.406 -0.8825  0.9848 -0.5623
  878MOL0     H21113   9.783   6.659  -0.624  0.3951  2.0011  0.2205
  878MOL0     H21114  10.027   6.429  -0.397  2.9918 -2.4643 -2.5859
  878MOL0     H21115  10.077   6.500  -0.533  0.9173  0.6269  0.2805
  878MOL0     H21116   9.824   6.348  -0.475 -2.1263  2.4828 -0.3937
  878MOL0     H21117   9.844   6.403  -0.645 -1.2830 -1.3663  0.4432
  878MOL0     H21118  10.061   6.292  -0.657 -1.3584 -1.1908 -2.2935
  878MOL0     H21119  10.022   6.209  -0.501  0.8064 -0.4233 -1.1583
  878MOL0     H21120   9.882   6.191  -0.777  0.9484  0.3051  0.0264
  878MOL0     H21121   9.978   6.068  -0.693  1.6628  0.8825  4.2881
  878MOL0     H21122   9.583   6.211  -0.563 -1.0554 -0.2560 -0.7076
  878MOL0     H21123   9.348   6.269  -0.580 -2.5456 -1.2516  1.7597
  878MOL0     H21124   9.284   6.111  -0.552 -0.0621 -0.4448 -0.5222
  878MOL0     H21125   9.251   6.194  -0.702 -1.3805 -0.1688  1.4992
  878MOL0     H21126   9.119   5.713  -0.726 -2.5133 -2.1663  1.8467
  878MOL0     H21127   8.897   5.621  -0.781 -0.3547  1.2861 -1.7270
  878MOL0     H21128   8.552   5.910  -0.797  3.1458 -0.2678  2.1793
  878MOL0     H21129   8.593   5.882  -0.966 -1.7173 -0.8588 -0.4614
  878MOL0     H21130   8.453   5.684  -0.774 -2.0409  2.3097  1.8875
  878MOL0     H21131   8.365   5.804  -0.857  1.3955  1.2214  1.1734
  878MOL0     H21132   8.506   5.703  -1.068  0.4688  2.0953  1.4578
  878MOL0     H21133   8.343   5.662  -1.027 -1.2318 -1.3156  4.0228
  878MOL0     H21134   8.416   5.453  -0.902 -1.4076 -0.9028 -2.9831
  878MOL0     H21135   8.582   5.513  -0.933 -0.2387 -3.0898  1.8087
  878MOL0     H21136   8.587   5.454  -1.147  1.7968  1.9417  2.8714
  878MOL0     H21137   8.502   5.316  -1.070 -0.5741  0.0892  1.8549
  878MOL0     H21138   8.446   5.383  -1.294  0.1537  2.2847 -0.6510
  878MOL0     H21139   8.395   5.544  -1.251  0.3389  1.3388  2.4491
  878MOL0     H21140   8.229   5.425  -1.095  1.4214  2.5434 -0.3875
  878MOL0     H21141   8.254   5.275  -1.182 -0.9691 -0.0744 -1.3648
  878MOL0     H21142   8.192   5.513  -1.356 -1.9559 -1.4243 -3.2543
  878MOL0     H21143   8.054   5.433  -1.267 -0.4363  0.9660  0.4098
  878MOL0     H21144   8.753   6.015  -0.852 -0.0068 -1.4614 -0.8982
  878MOL0     H21145   8.997   6.104  -0.823  0.2725 -0.4390 -0.0395
  878MOL0     H21146   9.544   5.859  -0.887 -1.4949 -0.9377  0.8336
  878MOL0     H21147   9.764   5.922  -0.782  0.2877  0.7207  1.1757
  878MOL0     H21148   8.819   7.201  -0.129 -1.0836  1.6181 -0.6362
  878MOL0     H21149   8.794   7.437  -0.078 -2.3742 -0.8274  0.8346
  878MOL0     H21150   8.852   7.805   0.110 -0.3779 -3.3428  0.9756
  878MOL0     H21151   8.882   8.024   0.153 -0.4287  1.1870 -0.4132
  878MOL0     H21152   8.726   8.176   0.538  1.0711 -1.4969 -0.2156
  878MOL0     H21153   8.893   8.157   0.592 -2.6892 -2.6530  1.0205
  878MOL0     H21154   8.814   8.385   0.610 -0.1263  0.6086 -1.3966
  878MOL0     H21155   8.812   8.400   0.430  2.4436  2.0003  0.2860
  878MOL0     H21156   9.075   8.292   0.550  0.7037 -0.6659 -1.0178
  878MOL0     H21157   9.046   8.357   0.396  1.4829 -0.7405  0.8580
  878MOL0     H21158   9.171   8.511   0.548 -0.3238  0.7993  1.2262
  878MOL0     H21159   9.035   8.498   0.657 -0.8153  1.6464 -0.3938
  878MOL0     H21160   8.894   8.778   0.364 -0.0366 -0.5761 -1.2330
  878MOL0     H21161   8.854   7.954   0.589  0.7174  0.9144 -0.6787
  878MOL0     H21162   8.727   7.640   0.585 -0.6630  1.0066  3.7380
  878MOL0     H21163   8.901   7.618   0.571 -0.8348 -0.6157  0.0390
  878MOL0     H21164   8.830   7.750   0.675  3.5001  1.4900 -0.6501
  879MOL0     O21165   0.028   8.744   2.648  0.6220  0.2371  0.8699
  879MOL0     C21166   0.148   8.738   2.657  0.1051  0.5903  0.7007
  879MOL0     O21167   0.211   8.640   2.716 -0.5142  0.0604  0.2921
  879MOL0     C21168   0.149   8.534   2.778 -0.6441  0.6975 -0.2362
  879MOL0     C21169   0.144   8.524   2.910 -0.4785  0.1859 -0.4793
  879MOL0     C21170   0.086   8.412   2.965 -0.2703  0.0063  0.2298
  879MOL0     C21171   0.018   8.319   2.884  0.0899 -0.1076 -1.3312
  879MOL0     O21172  -0.041   8.212   2.953  0.0540  0.2900  0.3034
  879MOL0     C21173  -0.121   8.119   2.888  0.6255 -0.2221  0.3977
  879MOL0     C21174  -0.166   8.019   2.984 -0.4662  0.4212  0.0212
  879MOL0     C21175  -0.260   7.919   2.922 -0.7723 -0.0447 -0.7305
  879MOL0     C21176  -0.293   7.817   3.032 -0.2882 -0.2518 -1.1253
  879MOL0     C21177  -0.389   7.717   2.971 -0.7386 -0.4931  0.7973
  879MOL0     C21178  -0.325   7.600   2.891  0.3641 -0.1253  0.5930
  879MOL0     C21179  -0.427   7.484   2.865 -1.2080  0.3560  0.0325
  879MOL0     C21180  -0.395   7.377   2.761 -0.5349 -0.4718 -0.4099
  879MOL0     N21181  -0.521   7.321   2.718 -0.7686  0.7544  0.3232
  879MOL0     C21182  -0.590   7.236   2.804  0.5772 -0.0389 -0.3314
  879MOL0     C21183  -0.698   7.208   2.720 -0.6369 -0.0736 -1.0170
  879MOL0     C21184  -0.818   7.136   2.759  0.1044 -0.4328  0.4683
  879MOL0     C21185  -0.796   6.984   2.730  1.1119  0.1022 -0.3756
  879MOL0     C21186  -0.906   6.897   2.792  0.9265  0.0605  0.2059
  879MOL0     C21187  -0.903   6.750   2.749 -0.2155 -0.0243  0.6470
  879MOL0     O21188  -0.921   6.731   2.604 -0.1467 -0.4386  0.8471
  879MOL0     C21189  -1.047   6.727   2.556  0.6024  0.7613 -0.3041
  879MOL0     C21190  -1.066   6.650   2.441  0.0029 -0.6763  0.1870
  879MOL0     C21191  -1.198   6.641   2.379 -0.4651 -0.5163 -0.0893
  879MOL0     C21192  -1.211   6.548   2.257  0.0265  1.0177 -0.3166
  879MOL0     C21193  -1.313   6.714   2.435  0.3454 -0.3736 -0.8179
  879MOL0     C21194  -1.455   6.716   2.395 -0.6747  0.8046 -0.0600
  879MOL0     O21195  -1.532   6.822   2.429  0.4643 -0.1151  0.2383
  879MOL0     C21196  -1.630   6.862   2.342  0.5460  0.1346  0.0741
  879MOL0     C21197  -1.594   6.865   2.205  0.7847  0.4076 -1.1684
  879MOL0     C21198  -1.688   6.921   2.117 -1.4471  0.9388  0.4650
  879MOL0     C21199  -1.811   6.965   2.155  0.1487  0.7061  0.3746
  879MOL0     O21200  -1.892   7.018   2.050 -0.4654  0.6602 -0.2687
  879MOL0     C21201  -2.030   6.969   2.048 -0.6517 -0.2725 -0.1979
  879MOL0     C21202  -2.118   7.069   1.969  0.3702  0.0017  0.9091
  879MOL0     C21203  -2.106   7.055   1.821  0.4541 -0.4318  0.9989
  879MOL0     C21204  -2.223   7.129   1.752  0.4181  1.2451  0.2134
  879MOL0     C21205  -2.213   7.133   1.595 -0.4270 -0.3425 -0.0047
  879MOL0     C21206  -2.336   7.189   1.519  0.0494  0.3373 -0.5562
  879MOL0     C21207  -2.447   7.083   1.531  0.1958  0.0754  0.4611
  879MOL0     C21208  -2.589   7.156   1.516  0.0575 -0.4098 -0.5788
  879MOL0    Cl21209  -2.601   7.277   1.378 -0.3231 -0.6365 -0.1133
  879MOL0     C21210  -1.841   6.970   2.286  0.2074 -0.3344 -0.3051
  879MOL0     C21211  -1.756   6.913   2.380 -0.5944  0.4924 -0.0598
  879MOL0     O21212  -1.499   6.615   2.339  0.1639  0.3015 -0.0547
  879MOL0     C21213  -1.288   6.787   2.555  0.0147  0.4899 -0.1658
  879MOL0     C21214  -1.158   6.783   2.612  1.1915 -0.1030 -0.2274
  879MOL0     N21215  -0.683   7.262   2.594 -0.0716  0.6832  0.9604
  879MOL0     N21216  -0.569   7.325   2.591  0.3834 -0.3664  0.3573
  879MOL0     C21217   0.024   8.324   2.742 -0.4841  0.3441 -0.2221
  879MOL0     C21218   0.085   8.443   2.691 -0.8839 -0.1453 -0.3709
  879MOL0     C21219   0.219   8.851   2.612 -0.4838 -0.0214  0.3591
  879MOL0     C21220   0.165   8.983   2.617  0.2510  0.4015 -0.1659
  879MOL0     C21221   0.240   9.098   2.586 -0.5206  0.9417  0.6165
  879MOL0     C21222   0.369   9.081   2.545  0.2488  0.5996 -0.2517
  879MOL0     O21223   0.456   9.180   2.517  0.2402  0.5102 -0.4226
  879MOL0     C21224   0.415   9.317   2.564 -0.3745  0.2859 -0.1510
  879MOL0     C21225   0.494   9.429   2.512 -0.4528 -1.0396  0.5501
  879MOL0     C21226   0.647   9.423   2.555  0.4758 -0.2404 -0.5685
  879MOL0     C21227   0.697   9.548   2.635  0.6074  0.0991  0.5278
  879MOL0     C21228   0.682   9.666   2.545 -0.5287 -0.1886 -0.7964
  879MOL0     C21229   0.662   9.770   2.489 -1.5340 -0.2762 -0.5321
  879MOL0     C21230   0.416   8.952   2.532 -0.2994  0.4994 -0.3031
  879MOL0     C21231   0.347   8.835   2.563 -0.1681  0.1407 -0.2269
  879MOL0     C21232   0.415   8.698   2.527  1.0799 -0.4592 -0.5905
  879MOL0     H21233   0.198   8.596   2.972  0.6478 -2.0840  1.3131
  879MOL0     H21234   0.080   8.390   3.071 -3.4686 -4.1557 -0.5168
  879MOL0     H21235  -0.072   8.054   2.815  0.1162 -0.8007  0.5584
  879MOL0     H21236  -0.203   8.161   2.829  2.1472  0.7840 -1.0935
  879MOL0     H21237  -0.082   7.956   3.012 -0.7003  0.3048  0.4814
  879MOL0     H21238  -0.203   8.061   3.078  1.4848 -0.5983  1.2903
  879MOL0     H21239  -0.348   7.980   2.897  0.2803  0.2428 -4.2160
  879MOL0     H21240  -0.210   7.864   2.842 -1.5514 -0.7937 -0.7190
  879MOL0     H21241  -0.203   7.773   3.077 -0.9263  1.1996  1.8429
  879MOL0     H21242  -0.350   7.872   3.107  0.0298  1.1043 -1.8475
  879MOL0     H21243  -0.458   7.777   2.911 -1.5731 -0.6235  1.5944
  879MOL0     H21244  -0.452   7.668   3.047 -3.1480 -1.2883 -1.5289
  879MOL0     H21245  -0.306   7.650   2.796  0.7132  0.1734  0.8157
  879MOL0     H21246  -0.227   7.573   2.933  1.1423  1.4016 -0.1493
  879MOL0     H21247  -0.516   7.536   2.828 -4.4303 -3.3351  1.8891
  879MOL0     H21248  -0.465   7.440   2.957 -2.5270 -0.9258 -1.0650
  879MOL0     H21249  -0.331   7.421   2.684  0.9886 -1.5327  0.1868
  879MOL0     H21250  -0.345   7.291   2.807 -1.7617 -0.3571  1.2418
  879MOL0     H21251  -0.567   7.200   2.904  2.4433  0.3505 -0.5886
  879MOL0     H21252  -0.900   7.166   2.693  0.4866 -1.1742 -0.3544
  879MOL0     H21253  -0.847   7.153   2.863  0.6817 -1.8740  0.8891
  879MOL0     H21254  -0.792   6.980   2.620 -0.3098  2.3715 -0.5727
  879MOL0     H21255  -0.699   6.951   2.768  0.8792 -2.0247 -1.4544
  879MOL0     H21256  -0.893   6.902   2.900  0.4737  2.4707  0.2098
  879MOL0     H21257  -0.994   6.951   2.753  2.2108  0.8834 -1.7059
  879MOL0     H21258  -0.811   6.699   2.779 -1.0207 -1.7990  0.2402
  879MOL0     H21259  -0.988   6.699   2.795 -0.6722  0.0951 -0.0409
  879MOL0     H21260  -0.973   6.601   2.413 -1.4431 -4.2678  1.1957
  879MOL0     H21261  -1.250   6.606   2.173 -0.0604  1.4551  0.0219
  879MOL0     H21262  -1.278   6.465   2.280  1.0418  0.5650  1.1596
  879MOL0     H21263  -1.114   6.504   2.235 -1.1144 -0.8601 -1.8622
  879MOL0     H21264  -1.504   6.827   2.159  1.0873  1.9358 -1.9065
  879MOL0     H21265  -1.671   6.907   2.010  1.2071  0.5282  0.8541
  879MOL0     H21266  -2.030   6.871   1.999 -1.4504 -0.8859  0.9952
  879MOL0     H21267  -2.073   6.953   2.147 -0.5402 -1.4854 -0.3265
  879MOL0     H21268  -2.222   7.047   1.993  0.7037 -1.5492  1.0393
  879MOL0     H21269  -2.082   7.163   2.013 -0.2481  0.6070  0.1440
  879MOL0     H21270  -2.115   6.950   1.791  1.9114  0.3112 -2.5573
  879MOL0     H21271  -2.012   7.099   1.786  1.3654 -2.1676  1.1681
  879MOL0     H21272  -2.224   7.231   1.790 -1.1399  1.7776 -1.1373
  879MOL0     H21273  -2.317   7.079   1.775 -0.3720  2.1050 -1.0456
  879MOL0     H21274  -2.124   7.194   1.576  0.9854 -1.4673  2.5706
  879MOL0     H21275  -2.187   7.032   1.562 -1.4566 -0.2881 -1.0243
  879MOL0     H21276  -2.317   7.211   1.413  1.6014  0.8229 -0.1925
  879MOL0     H21277  -2.378   7.277   1.568  1.0705  0.8038 -0.4905
  879MOL0     H21278  -2.443   7.028   1.625 -1.4958 -0.2014  0.4071
  879MOL0     H21279  -2.431   7.015   1.447 -2.0989 -1.6553  1.3238
  879MOL0     H21280  -2.602   7.195   1.617  4.8140 -0.5117  0.3147
  879MOL0     H21281  -2.666   7.079   1.518 -0.5443  0.1565 -1.3267
  879MOL0     H21282  -1.935   7.019   2.306  0.5532  0.8555 -1.4527
  879MOL0     H21283  -1.780   6.920   2.485  3.3398 -3.4044  1.4138
  879MOL0     H21284  -1.366   6.836   2.613 -0.9097 -1.7963  0.6480
  879MOL0     H21285  -1.152   6.827   2.711 -1.6099  0.0246 -0.0173
  879MOL0     H21286  -0.012   8.253   2.668  2.0305 -0.9579 -0.3005
  879MOL0     H21287   0.100   8.455   2.584 -3.3784  1.0930 -0.6391
  879MOL0     H21288   0.061   8.989   2.645  0.0508  0.6452 -0.9246
  879MOL0     H21289   0.194   9.195   2.602  0.5512  1.4201  0.8583
  879MOL0     H21290   0.316   9.334   2.522 -2.2706 -0.8264  3.4058
  879MOL0     H21291   0.408   9.323   2.673 -1.8529 -0.5494 -0.1797
  879MOL0     H21292   0.449   9.524   2.540  1.6431  0.0067  0.6227
  879MOL0     H21293   0.486   9.415   2.404  0.1969  1.8848  0.0397
  879MOL0     H21294   0.666   9.337   2.620 -0.9160 -0.6459 -0.6586
  879MOL0     H21295   0.710   9.400   2.468  1.0586  0.3904 -0.3226
  879MOL0     H21296   0.805   9.532   2.644  0.8255  0.7206 -0.7233
  879MOL0     H21297   0.658   9.563   2.737  0.9193  1.1561  0.5089
  879MOL0     H21298   0.652   9.859   2.429 -2.6561 -0.6089 -0.8674
  879MOL0     H21299   0.516   8.949   2.490  0.8186  3.3382  1.8696
  879MOL0     H21300   0.331   8.636   2.493  0.9690 -1.6380  1.6092
  879MOL0     H21301   0.491   8.714   2.450  3.2123 -2.3643  0.9870
  879MOL0     H21302   0.464   8.656   2.616 -2.3169 -0.4207  1.5003
  880MOL0     O21303   0.246   7.822   5.179  0.7217 -0.9083 -0.7315
  880MOL0     C21304   0.170   7.790   5.273  0.4456  0.0658 -0.3557
  880MOL0     O21305   0.206   7.793   5.418 -0.2315 -0.4329 -0.3997
  880MOL0     C21306   0.333   7.825   5.458  0.7160 -0.0438 -0.1136
  880MOL0     C21307   0.355   7.901   5.577  0.5520  0.2365 -0.0322
  880MOL0     C21308   0.482   7.930   5.618 -0.3145  0.9954  0.0134
  880MOL0     C21309   0.596   7.901   5.542  0.1505  0.8683 -1.0525
  880MOL0     O21310   0.723   7.926   5.594  0.2553 -0.1766 -0.2401
  880MOL0     C21311   0.748   7.947   5.738 -0.2316  0.9360 -0.7300
  880MOL0     C21312   0.901   7.939   5.753  0.6802 -0.3769 -0.7370
  880MOL0     C21313   0.949   7.957   5.899  0.6949  0.9359  0.2210
  880MOL0     C21314   0.856   7.875   5.994  0.4743 -0.7041  0.5263
  880MOL0     C21315   0.917   7.869   6.139 -0.5390  0.2225 -0.4041
  880MOL0     C21316   0.835   7.796   6.242  0.6681  0.3044 -0.0313
  880MOL0     C21317   0.914   7.774   6.370 -0.0733 -0.0113  0.3216
  880MOL0     C21318   0.839   7.704   6.488 -0.4495 -0.5791  0.0215
  880MOL0     N21319   0.918   7.685   6.609  0.3770 -0.2922  0.1363
  880MOL0     C21320   0.960   7.793   6.687 -0.9578 -0.6138  1.0850
  880MOL0     C21321   0.987   7.735   6.805  0.3020  1.0540  0.0864
  880MOL0     C21322   1.034   7.817   6.923 -1.6012  0.4502  0.8098
  880MOL0     C21323   0.922   7.889   7.003  0.3321 -0.1052  0.1175
  880MOL0     C21324   0.781   7.823   7.018  0.9727 -0.0402  0.2076
  880MOL0     C21325   0.699   7.862   7.135 -0.0974  0.5544  0.6300
  880MOL0     O21326   0.708   8.003   7.150  0.2276  0.3966 -0.1384
  880MOL0     C21327   0.629   8.092   7.084 -0.4715  0.4701 -0.1768
  880MOL0     C21328   0.538   8.066   6.985  0.2574  0.4627  0.4199
  880MOL0     C21329   0.453   8.165   6.927 -0.5070 -0.0169 -0.8598
  880MOL0     C21330   0.352   8.120   6.836 -0.9283  0.8863  0.4032
  880MOL0     C21331   0.476   8.298   6.980  0.3516  0.1656 -0.3067
  880MOL0     C21332   0.400   8.423   6.934 -0.9086  0.3090  1.2714
  880MOL0     O21333   0.450   8.545   6.971 -0.0631 -0.0963 -0.6483
  880MOL0     C21334   0.404   8.660   6.918 -0.1570 -0.2938 -0.4893
  880MOL0     C21335   0.428   8.696   6.783  1.4742 -0.2051 -0.2737
  880MOL0     C21336   0.367   8.809   6.724 -0.2337 -0.2296  0.5143
  880MOL0     C21337   0.280   8.891   6.808 -0.2140  0.6433 -0.0919
  880MOL0     O21338   0.217   9.008   6.764 -0.2240  0.0539 -0.1895
  880MOL0     C21339   0.184   9.014   6.623 -0.3188 -0.6991  0.2600
  880MOL0     C21340   0.128   9.152   6.587  0.0465  0.1961 -0.7260
  880MOL0     C21341   0.038   9.206   6.701  0.0434  0.0204  0.6174
  880MOL0     C21342  -0.070   9.289   6.648 -0.6630  0.2120 -0.5717
  880MOL0     C21343  -0.167   9.328   6.756  0.4778  0.0928  0.4467
  880MOL0     C21344  -0.120   9.451   6.822  0.9426  0.2021 -0.1974
  880MOL0     C21345  -0.185   9.501   6.944 -0.1655 -0.1123 -0.2093
  880MOL0     C21346  -0.125   9.627   6.982  0.6749 -1.1698 -1.0083
  880MOL0    Cl21347   0.048   9.598   7.038 -0.0937  0.1651 -0.6436
  880MOL0     C21348   0.265   8.850   6.934  0.1061 -0.0553 -0.1330
  880MOL0     C21349   0.311   8.728   6.989 -0.2512 -0.7601 -0.5307
  880MOL0     O21350   0.300   8.405   6.867 -0.1903  0.2741  0.5004
  880MOL0     C21351   0.568   8.318   7.085  0.1623 -0.6543  0.8208
  880MOL0     C21352   0.634   8.217   7.146 -0.5054  0.3623  0.0330
  880MOL0     N21353   0.969   7.600   6.803 -0.0423 -0.2644 -0.1879
  880MOL0     N21354   0.925   7.572   6.678 -0.3307 -0.3410 -0.8754
  880MOL0     C21355   0.575   7.831   5.424  0.4177 -0.6216  1.1236
  880MOL0     C21356   0.443   7.784   5.386 -0.1136 -0.8031  0.2375
  880MOL0     C21357   0.031   7.739   5.240  0.9606  0.9053 -0.6376
  880MOL0     C21358  -0.039   7.667   5.336  0.3753 -0.0970 -0.2023
  880MOL0     C21359  -0.157   7.604   5.306 -0.4258 -0.5953  0.1593
  880MOL0     C21360  -0.228   7.631   5.189 -0.1881 -0.3120 -0.6914
  880MOL0     O21361  -0.349   7.570   5.169  0.1621  1.3747  0.6069
  880MOL0     C21362  -0.399   7.547   5.037 -0.2400  0.7094  0.5908
  880MOL0     C21363  -0.516   7.449   5.013 -0.4400  0.7743 -0.2342
  880MOL0     C21364  -0.599   7.467   4.891  0.2860 -0.4209  0.2230
  880MOL0     C21365  -0.750   7.483   4.920  0.2154  0.5183 -0.1895
  880MOL0     C21366  -0.781   7.628   4.898  1.1652 -0.3434 -1.1913
  880MOL0     C21367  -0.807   7.744   4.876 -0.7393 -0.5410  0.2359
  880MOL0     C21368  -0.167   7.722   5.097 -0.1866  0.1499 -0.1882
  880MOL0     C21369  -0.036   7.769   5.121  0.7100 -0.1842 -1.1686
  880MOL0     C21370   0.019   7.858   5.019 -0.1793  0.2004  0.1302
  880MOL0     H21371   0.273   7.946   5.633  0.7168  0.4560  0.0315
  880MOL0     H21372   0.482   7.987   5.711 -1.0766  0.7246  0.1798
  880MOL0     H21373   0.698   7.865   5.789  0.9854  0.2651 -0.5719
  880MOL0     H21374   0.705   8.041   5.774 -0.5621  1.4074 -2.2784
  880MOL0     H21375   0.936   7.844   5.712  1.1300 -0.5403  0.0152
  880MOL0     H21376   0.949   8.015   5.690  3.8476 -3.2182 -2.0309
  880MOL0     H21377   1.056   7.938   5.916  0.2926  0.4858  2.4639
  880MOL0     H21378   0.928   8.060   5.928 -3.0485  0.0222  1.2637
  880MOL0     H21379   0.755   7.915   5.994 -0.2826 -2.5196 -0.4603
  880MOL0     H21380   0.850   7.776   5.947  1.7251  1.1503 -4.0473
  880MOL0     H21381   0.931   7.971   6.177 -0.2286 -0.2565  0.8384
  880MOL0     H21382   1.018   7.827   6.139 -0.5681 -0.0575  2.5386
  880MOL0     H21383   0.739   7.845   6.261  0.6521  0.2981 -0.0938
  880MOL0     H21384   0.805   7.701   6.196 -3.6554  0.9622  0.9285
  880MOL0     H21385   0.938   7.874   6.408  0.6412 -1.0108  2.6415
  880MOL0     H21386   1.008   7.720   6.352  0.2469  0.2522  1.1830
  880MOL0     H21387   0.753   7.764   6.518 -0.4435 -1.2540  1.4677
  880MOL0     H21388   0.789   7.614   6.450  1.6813 -2.1470  0.6613
  880MOL0     H21389   0.953   7.901   6.676  2.7242 -0.3448 -0.1554
  880MOL0     H21390   1.102   7.896   6.892 -4.3444  2.9631  0.7068
  880MOL0     H21391   1.082   7.740   6.984 -0.8362 -0.3264 -0.7206
  880MOL0     H21392   0.965   7.914   7.101  2.0801 -0.0328 -0.6399
  880MOL0     H21393   0.894   7.983   6.955 -0.8272 -1.2796 -1.5825
  880MOL0     H21394   0.730   7.838   6.923  0.0609  2.8046  1.0631
  880MOL0     H21395   0.802   7.715   7.017 -2.8229 -0.9163 -0.4746
  880MOL0     H21396   0.597   7.824   7.143  0.8453 -1.7318  3.0579
  880MOL0     H21397   0.749   7.821   7.223  1.1872  0.7835  0.0269
  880MOL0     H21398   0.513   7.965   6.951  1.7571  0.8122 -2.0098
  880MOL0     H21399   0.373   8.017   6.807 -1.1581  1.2463 -1.1120
  880MOL0     H21400   0.362   8.172   6.740 -0.5953  0.7551  0.3664
  880MOL0     H21401   0.250   8.134   6.874 -0.3214  0.5114  2.2766
  880MOL0     H21402   0.501   8.639   6.726  1.3757 -0.1564 -0.4480
  880MOL0     H21403   0.403   8.844   6.628 -2.1940 -1.4753 -0.7622
  880MOL0     H21404   0.271   8.999   6.559  0.4121  2.4246  0.3795
  880MOL0     H21405   0.105   8.941   6.603 -4.1961  2.7316  1.5093
  880MOL0     H21406   0.204   9.229   6.572  1.7110 -1.1891  0.2461
  880MOL0     H21407   0.070   9.147   6.494 -0.8325  2.0424 -0.3129
  880MOL0     H21408   0.098   9.254   6.779 -0.8993  1.1724  0.6500
  880MOL0     H21409  -0.002   9.118   6.753  3.0999 -0.1200  3.0943
  880MOL0     H21410  -0.121   9.230   6.571 -1.3848  1.3806 -1.0127
  880MOL0     H21411  -0.025   9.371   6.591 -0.4241  0.7343  0.3465
  880MOL0     H21412  -0.268   9.334   6.713  1.1272 -1.5386 -1.4644
  880MOL0     H21413  -0.173   9.246   6.828  1.9755  0.3711  0.8997
  880MOL0     H21414  -0.136   9.532   6.750  0.8393 -0.5012 -0.9801
  880MOL0     H21415  -0.013   9.438   6.838  1.0241  2.2819  1.3594
  880MOL0     H21416  -0.167   9.422   7.018  2.9608 -2.0504 -2.7531
  880MOL0     H21417  -0.292   9.508   6.925 -0.2050 -3.6741 -2.3042
  880MOL0     H21418  -0.182   9.675   7.062 -1.3996  1.5710 -3.8970
  880MOL0     H21419  -0.133   9.706   6.906 -1.2017 -1.0851 -0.7613
  880MOL0     H21420   0.212   8.912   7.006 -1.9913 -2.1346  0.2082
  880MOL0     H21421   0.289   8.697   7.090  1.0543 -2.4263 -0.7096
  880MOL0     H21422   0.587   8.416   7.128 -0.5535  0.2184 -0.7719
  880MOL0     H21423   0.690   8.245   7.235 -1.9736  3.1700  0.2029
  880MOL0     H21424   0.660   7.812   5.360 -1.1340  0.9470 -1.5744
  880MOL0     H21425   0.429   7.717   5.302  1.2604 -3.3620  1.9195
  880MOL0     H21426  -0.001   7.639   5.434 -2.4304 -1.9830  0.4781
  880MOL0     H21427  -0.191   7.537   5.384  1.2138  0.7508  2.1375
  880MOL0     H21428  -0.436   7.648   5.015 -0.6569  0.3706 -0.3132
  880MOL0     H21429  -0.318   7.523   4.968 -1.5785  1.5434 -1.3734
  880MOL0     H21430  -0.588   7.464   5.094 -0.4674 -0.5983  0.0203
  880MOL0     H21431  -0.471   7.350   5.021  0.2917  1.1956  1.3140
  880MOL0     H21432  -0.565   7.553   4.833  0.7863 -2.0534 -2.0216
  880MOL0     H21433  -0.580   7.385   4.821  1.5382 -0.7375  0.9066
  880MOL0     H21434  -0.781   7.455   5.021 -1.6244 -2.4381 -1.4379
  880MOL0     H21435  -0.798   7.416   4.848  1.8005  0.2166 -1.0270
  880MOL0     H21436  -0.823   7.848   4.854  0.2490 -0.1982  1.0484
  880MOL0     H21437  -0.214   7.754   5.005  2.0221  1.9272 -0.7797
  880MOL0     H21438  -0.053   7.889   4.943 -0.6752 -1.6089 -0.1669
  880MOL0     H21439   0.068   7.940   5.073 -1.4609 -0.3942  2.3695
  880MOL0     H21440   0.100   7.810   4.964 -0.5035 -0.6703  0.4021
  881MOL0     O21441   1.672   6.531   9.072 -0.8340  0.1793 -0.7518
  881MOL0     C21442   1.571   6.532   9.002  0.4293  0.0814 -0.4185
  881MOL0     O21443   1.473   6.628   9.011 -0.1235 -0.5305 -0.1672
  881MOL0     C21444   1.465   6.732   9.099 -0.1076  0.2722 -0.4120
  881MOL0     C21445   1.542   6.751   9.219  0.2994 -0.1711  0.1107
  881MOL0     C21446   1.536   6.859   9.298 -0.6626 -0.6012  0.7745
  881MOL0     C21447   1.427   6.958   9.265 -0.4486  0.5002  0.6723
  881MOL0     O21448   1.400   7.069   9.344  0.9394  0.4793  0.1660
  881MOL0     C21449   1.451   7.065   9.473 -0.2951  0.5128 -0.3461
  881MOL0     C21450   1.389   7.190   9.534 -0.5823 -0.2280 -0.6000
  881MOL0     C21451   1.462   7.247   9.662  0.3084  0.3500 -0.5490
  881MOL0     C21452   1.404   7.353   9.745  1.5514 -0.5079 -0.5859
  881MOL0     C21453   1.475   7.384   9.881 -0.2649 -0.7706 -0.1099
  881MOL0     C21454   1.629   7.398   9.868  0.6221 -0.0001  0.4424
  881MOL0     C21455   1.684   7.435  10.007  0.3906  0.6037 -0.0142
  881MOL0     C21456   1.639   7.326  10.123 -0.2839 -0.2226  0.6602
  881MOL0     N21457   1.708   7.208  10.096  0.6050 -0.4452  0.1362
  881MOL0     C21458   1.827   7.166  10.146  0.7456 -0.2629  0.1235
  881MOL0     C21459   1.839   7.040  10.100  0.5111  0.0907  0.3885
  881MOL0     C21460   1.975   6.966  10.121  1.0457 -1.2062  0.1743
  881MOL0     C21461   1.994   6.830  10.032 -0.3997 -0.6839  0.1580
  881MOL0     C21462   2.000   6.857   9.885  0.7727  0.0307 -0.1465
  881MOL0     C21463   2.101   6.960   9.851 -0.0565 -0.4813  0.1408
  881MOL0     O21464   2.151   6.949   9.714 -0.0314 -0.1735 -0.1225
  881MOL0     C21465   2.235   6.847   9.673  0.3411  0.3386 -0.5619
  881MOL0     C21466   2.330   6.789   9.751 -0.5432  0.2346 -0.0175
  881MOL0     C21467   2.417   6.680   9.707  0.4638 -0.1459  0.2246
  881MOL0     C21468   2.508   6.628   9.819  0.5852 -0.1450  0.7424
  881MOL0     C21469   2.385   6.612   9.586 -0.1910 -0.4502  0.5687
  881MOL0     C21470   2.428   6.473   9.549  0.5390 -0.0447 -0.3850
  881MOL0     O21471   2.402   6.432   9.431 -0.0391 -0.7036 -0.1841
  881MOL0     C21472   2.452   6.314   9.382  0.1268 -0.6074  0.0725
  881MOL0     C21473   2.556   6.329   9.288  0.7786 -0.8437 -0.0363
  881MOL0     C21474   2.607   6.211   9.228  0.4644 -0.9055 -0.5803
  881MOL0     C21475   2.549   6.081   9.255 -0.0875 -0.3658  0.4165
  881MOL0     O21476   2.600   5.983   9.180  0.1024  0.4502 -0.4564
  881MOL0     C21477   2.572   5.846   9.236  0.1142 -1.3089  0.3583
  881MOL0     C21478   2.641   5.735   9.155  0.7191 -0.7175 -0.9782
  881MOL0     C21479   2.604   5.592   9.201  0.6758 -0.2693  0.0086
  881MOL0     C21480   2.698   5.542   9.316  0.6720  0.7210 -0.2081
  881MOL0     C21481   2.671   5.392   9.358 -0.1717 -0.0892 -0.4133
  881MOL0     C21482   2.546   5.370   9.452 -0.3759  0.8455  0.8245
  881MOL0     C21483   2.558   5.415   9.591 -0.2396 -0.2319  1.1401
  881MOL0     C21484   2.441   5.374   9.685 -0.1142 -0.5938  0.7131
  881MOL0    Cl21485   2.388   5.205   9.663  0.6014 -0.4164  0.4474
  881MOL0     C21486   2.441   6.081   9.346  0.6773  0.6214  0.2470
  881MOL0     C21487   2.397   6.194   9.410  0.0215 -0.5152 -0.4229
  881MOL0     O21488   2.485   6.399   9.634 -0.4273  0.0251  0.5487
  881MOL0     C21489   2.301   6.690   9.499 -0.4576  0.3702 -0.8552
  881MOL0     C21490   2.228   6.801   9.541  0.5929  0.0251  0.6197
  881MOL0     N21491   1.728   6.998  10.031  0.4366 -0.3680 -0.1161
  881MOL0     N21492   1.647   7.105  10.028 -0.0422  0.1709 -0.7027
  881MOL0     C21493   1.344   6.935   9.150 -0.3578 -0.3385 -0.5968
  881MOL0     C21494   1.363   6.822   9.076  0.4713  0.4604  0.2129
  881MOL0     C21495   1.546   6.412   8.922  0.2498  0.3770  0.1311
  881MOL0     C21496   1.545   6.284   8.978  0.7244  0.4882 -0.5985
  881MOL0     C21497   1.517   6.168   8.903 -0.1168  0.6893 -0.7958
  881MOL0     C21498   1.508   6.176   8.768 -0.0936  0.0928  0.0039
  881MOL0     O21499   1.486   6.069   8.698 -0.8630 -0.1019  0.2310
  881MOL0     C21500   1.369   6.067   8.614  0.4387 -0.0380  0.3238
  881MOL0     C21501   1.322   5.926   8.575  1.0880  0.4258  0.7107
  881MOL0     C21502   1.265   5.858   8.695 -0.1912  0.6702 -0.4990
  881MOL0     C21503   1.154   5.754   8.683  1.1186 -0.5084 -0.5958
  881MOL0     C21504   1.022   5.818   8.699 -0.3951  0.0653  0.3718
  881MOL0     C21505   0.909   5.861   8.712  0.2959 -0.0074  0.3635
  881MOL0     C21506   1.520   6.297   8.715 -0.1284  0.3966  1.8963
  881MOL0     C21507   1.523   6.420   8.783 -0.2466 -0.6947  0.3406
  881MOL0     C21508   1.530   6.552   8.704 -0.0767 -0.4597  0.3424
  881MOL0     H21509   1.615   6.673   9.235 -1.5251 -2.0842 -0.4235
  881MOL0     H21510   1.600   6.853   9.385  0.6898 -0.5406 -0.1914
  881MOL0     H21511   1.560   7.054   9.480 -0.6325 -2.8522  1.7560
  881MOL0     H21512   1.414   6.971   9.515  0.9169 -1.1506 -2.7380
  881MOL0     H21513   1.381   7.269   9.460  2.4105 -1.3112 -2.2151
  881MOL0     H21514   1.287   7.165   9.565 -1.0591  0.8315 -1.2688
  881MOL0     H21515   1.486   7.168   9.734  0.3079  0.1445 -0.7725
  881MOL0     H21516   1.559   7.285   9.629 -0.4463  2.5442 -0.3917
  881MOL0     H21517   1.401   7.445   9.686 -0.6868  0.9659  1.6484
  881MOL0     H21518   1.298   7.338   9.769  1.3377  1.5972  0.0158
  881MOL0     H21519   1.450   7.302   9.949 -0.0082 -1.3261 -0.6732
  881MOL0     H21520   1.440   7.478   9.924  0.9643  0.0725 -0.9158
  881MOL0     H21521   1.681   7.310   9.829  0.6901 -1.0598  2.7523
  881MOL0     H21522   1.643   7.478   9.794 -1.4174  0.3476  0.3883
  881MOL0     H21523   1.637   7.529  10.037 -2.2189 -1.2057  2.0220
  881MOL0     H21524   1.793   7.435  10.010  0.4432 -1.2605 -0.7598
  881MOL0     H21525   1.689   7.363  10.213 -1.8518 -1.3471  2.0301
  881MOL0     H21526   1.530   7.322  10.128 -0.4252 -3.7930 -1.4925
  881MOL0     H21527   1.914   7.219  10.182  1.4319  0.5292 -2.4685
  881MOL0     H21528   1.981   6.941  10.228 -1.7838  2.4447  1.4296
  881MOL0     H21529   2.056   7.036  10.097 -0.0920 -0.1107 -0.6092
  881MOL0     H21530   2.083   6.775  10.063 -3.0301 -3.8047  3.0945
  881MOL0     H21531   1.915   6.755  10.043  0.3451 -2.0266 -2.5440
  881MOL0     H21532   2.029   6.764   9.836  1.0100  0.7345 -1.3882
  881MOL0     H21533   1.898   6.886   9.857  0.5658  0.8921  1.3853
  881MOL0     H21534   2.059   7.061   9.857 -0.3196 -0.6234  0.7590
  881MOL0     H21535   2.183   6.967   9.924  0.2397  1.4177 -0.3407
  881MOL0     H21536   2.352   6.832   9.848 -1.4049 -2.3876  1.4373
  881MOL0     H21537   2.516   6.702   9.899  0.5783  3.1917 -2.1010
  881MOL0     H21538   2.606   6.612   9.775  0.1610  1.3469 -0.8351
  881MOL0     H21539   2.479   6.530   9.857  3.2161 -1.1056  0.4520
  881MOL0     H21540   2.602   6.427   9.280 -1.2991  0.3097  1.1796
  881MOL0     H21541   2.687   6.236   9.160  1.5512  0.7891  1.2352
  881MOL0     H21542   2.598   5.832   9.342  0.3379 -1.1895  0.3202
  881MOL0     H21543   2.464   5.832   9.240 -0.0610  0.1244  1.7554
  881MOL0     H21544   2.610   5.744   9.051 -3.3599 -1.6999 -0.0340
  881MOL0     H21545   2.749   5.754   9.162  0.6365 -0.6908  0.5068
  881MOL0     H21546   2.602   5.524   9.116 -2.0057  0.4406 -0.6092
  881MOL0     H21547   2.499   5.597   9.231  0.9291  1.0306  0.7982
  881MOL0     H21548   2.688   5.605   9.405 -2.1165 -2.7703  2.2681
  881MOL0     H21549   2.800   5.555   9.278  0.0120 -0.1099 -2.4111
  881MOL0     H21550   2.651   5.335   9.266  3.1058 -1.9319 -0.1307
  881MOL0     H21551   2.757   5.353   9.413 -2.1921 -0.2745  2.8701
  881MOL0     H21552   2.546   5.260   9.458 -1.4881  0.6103 -1.9752
  881MOL0     H21553   2.452   5.402   9.406 -0.9064 -0.0439  1.2549
  881MOL0     H21554   2.574   5.523   9.589 -1.6597  0.0570 -2.6112
  881MOL0     H21555   2.651   5.377   9.635 -0.1822  0.6041  1.7477
  881MOL0     H21556   2.355   5.431   9.647  0.5342 -0.4826 -0.6366
  881MOL0     H21557   2.460   5.407   9.787  1.3538  0.2996  0.1714
  881MOL0     H21558   2.388   5.988   9.361  1.7245 -0.3148 -1.5454
  881MOL0     H21559   2.315   6.190   9.482  0.6852 -1.6885  0.3100
  881MOL0     H21560   2.284   6.646   9.402  1.1017 -0.4178 -0.8085
  881MOL0     H21561   2.163   6.852   9.470 -0.9902 -1.7443  0.7405
  881MOL0     H21562   1.264   7.005   9.129  0.3677  0.8273  0.3620
  881MOL0     H21563   1.296   6.815   8.991 -2.8320  1.8708  2.4763
  881MOL0     H21564   1.567   6.272   9.084  0.7746  1.0152 -0.5450
  881MOL0     H21565   1.509   6.071   8.950  2.4175 -0.0833 -1.8034
  881MOL0     H21566   1.305   6.146   8.655 -0.3660  1.6945 -3.8410
  881MOL0     H21567   1.381   6.099   8.510  0.9015 -0.6624  0.1802
  881MOL0     H21568   1.403   5.857   8.551  0.6573 -0.2727  1.2323
  881MOL0     H21569   1.243   5.941   8.501  0.0192  3.7357  2.3034
  881MOL0     H21570   1.346   5.801   8.741 -0.4759 -1.4620 -2.4551
  881MOL0     H21571   1.232   5.936   8.765 -0.6608  0.6467 -0.6918
  881MOL0     H21572   1.165   5.689   8.770 -0.3099 -0.6551 -0.5126
  881MOL0     H21573   1.168   5.695   8.592 -2.5529 -0.3062 -1.4580
  881MOL0     H21574   0.805   5.887   8.708  0.4812  0.7784  0.4108
  881MOL0     H21575   1.514   6.302   8.607 -3.1664 -0.4582  1.9482
  881MOL0     H21576   1.568   6.525   8.606  0.4516 -0.9730  0.6848
  881MOL0     H21577   1.435   6.604   8.684  1.3305  2.1765  0.0122
  881MOL0     H21578   1.591   6.630   8.752  0.0274  1.9280 -3.2796
  882MOL0     O21579   0.454   0.933   2.395  0.4283  0.4060 -0.6369
  882MOL0     C21580   0.348   0.983   2.432  0.1646 -0.3751  0.3146
  882MOL0     O21581   0.237   0.983   2.359  0.3559  0.0533  0.4787
  882MOL0     C21582   0.245   0.932   2.235  0.4192  0.3943  0.2429
  882MOL0     C21583   0.226   0.791   2.224 -0.1591 -0.7698  0.3635
  882MOL0     C21584   0.209   0.732   2.098  0.5308 -0.0931 -0.1365
  882MOL0     C21585   0.228   0.806   1.980  1.2292  0.4862  1.1500
  882MOL0     O21586   0.243   0.740   1.859  0.6739 -0.1927  0.0216
  882MOL0     C21587   0.233   0.802   1.729 -0.7659  0.9277  0.3266
  882MOL0     C21588   0.101   0.815   1.650  0.6675  0.2079 -1.0516
  882MOL0     C21589   0.024   0.680   1.632 -0.4627 -0.3785 -0.2640
  882MOL0     C21590  -0.103   0.678   1.533  0.6663  0.5719  1.2341
  882MOL0     C21591  -0.042   0.665   1.398  0.7905 -0.4046  0.6003
  882MOL0     C21592  -0.136   0.658   1.277  0.3177  0.6856 -0.4067
  882MOL0     C21593  -0.069   0.584   1.161 -0.1593 -0.9771 -0.1902
  882MOL0     C21594   0.053   0.654   1.099 -0.0417 -0.2277 -0.6469
  882MOL0     N21595   0.077   0.624   0.956 -0.0504 -0.2685 -0.7078
  882MOL0     C21596   0.107   0.502   0.900 -0.4697 -0.0356  0.3037
  882MOL0     C21597   0.145   0.524   0.768 -0.7433 -0.0475  0.1815
  882MOL0     C21598   0.169   0.425   0.656  0.2090  0.2126  0.4944
  882MOL0     C21599   0.047   0.407   0.563  0.2113 -1.1908 -0.6088
  882MOL0     C21600   0.072   0.288   0.461  0.2950 -0.5654  0.4716
  882MOL0     C21601  -0.040   0.272   0.357  0.2888 -0.4968 -0.1025
  882MOL0     O21602  -0.006   0.361   0.252 -0.2080 -0.4336 -0.0440
  882MOL0     C21603  -0.052   0.340   0.125 -0.4285  0.8607  0.4649
  882MOL0     C21604  -0.166   0.258   0.095  0.2767 -0.0648  0.3086
  882MOL0     C21605  -0.206   0.221  -0.038  0.1907  0.3451 -0.4722
  882MOL0     C21606  -0.324   0.120  -0.057 -0.0361  0.3764  0.3945
  882MOL0     C21607  -0.133   0.279  -0.148  0.4293  0.5311 -0.7313
  882MOL0     C21608  -0.168   0.239  -0.284  0.1384 -0.0220 -0.5111
  882MOL0     O21609  -0.064   0.228  -0.372  0.3225  0.3448 -0.1855
  882MOL0     C21610  -0.095   0.195  -0.502 -0.7825 -0.3586  0.0281
  882MOL0     C21611  -0.082   0.291  -0.608 -0.1828  0.3338 -0.8750
  882MOL0     C21612  -0.110   0.248  -0.736 -0.4357  0.0935  0.2833
  882MOL0     C21613  -0.174   0.123  -0.759 -0.5343  0.1533 -0.7529
  882MOL0     O21614  -0.216   0.058  -0.870  0.3536  0.4993  0.4881
  882MOL0     C21615  -0.312   0.145  -0.952 -0.4450 -0.2671 -0.5057
  882MOL0     C21616  -0.435   0.066  -0.977  0.4396 -0.7516 -0.7653
  882MOL0     C21617  -0.505   0.026  -0.845  0.8827  0.4162  0.1126
  882MOL0     C21618  -0.644  -0.026  -0.861  0.3982 -0.3277 -0.3426
  882MOL0     C21619  -0.655  -0.104  -0.989  0.1475  0.5252 -0.0430
  882MOL0     C21620  -0.801  -0.163  -0.990  0.1309 -1.0043 -0.2430
  882MOL0     C21621  -0.797  -0.279  -1.092  0.3186  0.2215  0.3095
  882MOL0     C21622  -0.928  -0.323  -1.150 -0.5714  0.1114 -0.4692
  882MOL0    Cl21623  -0.869  -0.415  -1.290 -0.1962  0.0856 -0.0663
  882MOL0     C21624  -0.193   0.035  -0.649  1.1201 -0.6325  0.4972
  882MOL0     C21625  -0.147   0.072  -0.524 -0.7569 -1.0510  0.3353
  882MOL0     O21626  -0.285   0.227  -0.312  0.5512 -0.2175 -0.3474
  882MOL0     C21627  -0.026   0.365  -0.127  0.8523 -0.3506 -0.5022
  882MOL0     C21628   0.008   0.391   0.006 -0.5122 -0.6249 -0.1776
  882MOL0     N21629   0.125   0.659   0.750 -0.0101 -0.2171  0.5951
  882MOL0     N21630   0.093   0.719   0.861  0.6532  0.6705 -0.3631
  882MOL0     C21631   0.273   0.946   1.991 -0.0029  0.0984 -0.4455
  882MOL0     C21632   0.257   1.005   2.119  0.8102 -0.0437 -0.0520
  882MOL0     C21633   0.342   1.055   2.558 -0.2586  0.3255  0.4135
  882MOL0     C21634   0.230   1.043   2.646  0.1797 -0.7328  0.4823
  882MOL0     C21635   0.223   1.115   2.772 -0.2265  0.4075  0.7054
  882MOL0     C21636   0.331   1.191   2.815 -0.1985 -0.1280  0.3464
  882MOL0     O21637   0.321   1.235   2.939  0.4676 -0.3229 -0.0656
  882MOL0     C21638   0.323   1.378   2.952 -0.2520  1.0124  0.0353
  882MOL0     C21639   0.331   1.426   3.094  0.4270  0.3385 -0.6435
  882MOL0     C21640   0.250   1.562   3.120  0.3037  0.3178  0.7007
  882MOL0     C21641   0.293   1.645   3.247  0.2687 -0.9768  0.2050
  882MOL0     C21642   0.437   1.683   3.255  0.4493  0.1658  0.1469
  882MOL0     C21643   0.562   1.696   3.255 -0.4763 -0.0880  0.5605
  882MOL0     C21644   0.443   1.194   2.743  0.0509  0.4641 -0.5093
  882MOL0     C21645   0.450   1.134   2.608 -0.3623  0.3322 -0.0019
  882MOL0     C21646   0.581   1.171   2.530  1.2490  0.4568 -0.3058
  882MOL0     H21647   0.222   0.731   2.315 -3.6147 -0.3916  0.6026
  882MOL0     H21648   0.205   0.624   2.094 -1.3779 -0.0927  0.6336
  882MOL0     H21649   0.291   0.734   1.666  2.3786  2.8751  0.8934
  882MOL0     H21650   0.290   0.894   1.722  2.5646 -1.0582 -0.7860
  882MOL0     H21651   0.044   0.882   1.716 -0.0800 -0.4511 -1.0020
  882MOL0     H21652   0.122   0.870   1.558 -1.9016  1.4099 -1.0043
  882MOL0     H21653   0.094   0.606   1.593  0.7233  0.4105  0.3146
  882MOL0     H21654  -0.013   0.651   1.731 -0.0321 -1.0605 -0.3007
  882MOL0     H21655  -0.176   0.600   1.556  0.7633 -0.4312 -1.4733
  882MOL0     H21656  -0.163   0.769   1.527  1.9887  1.4633 -4.0563
  882MOL0     H21657   0.002   0.565   1.399 -2.9592 -2.2681  1.2243
  882MOL0     H21658   0.036   0.741   1.391 -2.2491  2.8397 -4.1119
  882MOL0     H21659  -0.217   0.591   1.304  1.5856  0.6498  4.1005
  882MOL0     H21660  -0.188   0.751   1.250 -0.6683  0.4083  0.4872
  882MOL0     H21661  -0.140   0.554   1.084 -1.6862  1.1226  0.3148
  882MOL0     H21662  -0.032   0.490   1.202  1.4318 -0.7631 -1.0138
  882MOL0     H21663   0.044   0.762   1.107 -0.3974 -0.2380 -0.8731
  882MOL0     H21664   0.140   0.630   1.161  0.9078 -0.9681 -2.1774
  882MOL0     H21665   0.108   0.412   0.960 -1.6203  0.5941  1.3198
  882MOL0     H21666   0.190   0.329   0.705 -1.1586 -0.4144 -0.1104
  882MOL0     H21667   0.259   0.441   0.595 -0.6697 -2.7004 -1.8107
  882MOL0     H21668  -0.031   0.372   0.632 -1.0507  1.0575 -0.8234
  882MOL0     H21669   0.028   0.501   0.510  0.9660  0.7038  2.2877
  882MOL0     H21670   0.165   0.306   0.406 -0.3508  0.5962 -0.2855
  882MOL0     H21671   0.074   0.204   0.530 -0.4945 -1.6079 -0.7170
  882MOL0     H21672  -0.051   0.170   0.319  0.5730 -0.2208 -0.9543
  882MOL0     H21673  -0.133   0.303   0.404  1.3904  0.4738  1.5204
  882MOL0     H21674  -0.232   0.218   0.172 -2.0684  2.6494 -0.1265
  882MOL0     H21675  -0.355   0.074   0.037  1.9814 -0.7508  0.5605
  882MOL0     H21676  -0.288   0.040  -0.122 -1.3378  0.1885 -0.1255
  882MOL0     H21677  -0.410   0.166  -0.107 -1.0652  0.1096  1.8902
  882MOL0     H21678  -0.023   0.380  -0.588  0.1776  0.2441 -1.5247
  882MOL0     H21679  -0.092   0.312  -0.821  2.5542 -1.8631 -0.7019
  882MOL0     H21680  -0.342   0.234  -0.896  0.9245 -0.4310  0.5447
  882MOL0     H21681  -0.268   0.172  -1.049 -1.1807 -1.2239 -1.1221
  882MOL0     H21682  -0.510   0.114  -1.040  1.3736  1.1137 -0.5226
  882MOL0     H21683  -0.394  -0.020  -1.030  2.4079  1.9484 -4.0908
  882MOL0     H21684  -0.495   0.110  -0.774  0.0639  0.7278 -0.1284
  882MOL0     H21685  -0.461  -0.061  -0.795 -3.0324 -1.0876  1.3000
  882MOL0     H21686  -0.719   0.053  -0.871 -1.4755 -2.0823 -0.9596
  882MOL0     H21687  -0.667  -0.085  -0.772 -0.1898 -2.2734 -1.7220
  882MOL0     H21688  -0.646  -0.048  -1.083  0.8275 -0.1538 -0.3949
  882MOL0     H21689  -0.584  -0.185  -0.969  0.1419  0.1786 -1.3292
  882MOL0     H21690  -0.871  -0.085  -1.020 -0.0147 -1.3991 -0.9342
  882MOL0     H21691  -0.834  -0.196  -0.891 -1.7310  2.5534  0.4792
  882MOL0     H21692  -0.741  -0.367  -1.061 -0.4717 -0.5115 -0.3007
  882MOL0     H21693  -0.739  -0.247  -1.179 -0.0727  0.9918  0.3195
  882MOL0     H21694  -0.991  -0.236  -1.173 -0.9822  0.0969  0.5611
  882MOL0     H21695  -0.972  -0.390  -1.075  0.2148  0.2783  0.1509
  882MOL0     H21696  -0.252  -0.055  -0.659  1.9221 -1.2112  0.8670
  882MOL0     H21697  -0.162  -0.001  -0.445  0.6640 -1.7340  0.0189
  882MOL0     H21698   0.042   0.405  -0.201  0.3370  0.4206 -0.5699
  882MOL0     H21699   0.097   0.448   0.030 -1.6494  0.8270  0.7408
  882MOL0     H21700   0.301   0.991   1.896  2.1888 -1.0172 -0.3897
  882MOL0     H21701   0.283   1.108   2.139  1.8008 -0.6233  1.9418
  882MOL0     H21702   0.139   0.991   2.620 -3.2115  2.6151  4.1437
  882MOL0     H21703   0.131   1.126   2.827  0.8701 -1.2899  3.0740
  882MOL0     H21704   0.412   1.421   2.903  0.7260  2.5423  2.9439
  882MOL0     H21705   0.239   1.409   2.889 -0.8279 -1.4804 -0.5265
  882MOL0     H21706   0.438   1.432   3.117  0.7822  3.3435 -2.5497
  882MOL0     H21707   0.278   1.354   3.157 -1.9664  0.2417 -2.5934
  882MOL0     H21708   0.265   1.630   3.036  3.6118  2.3014  2.6654
  882MOL0     H21709   0.145   1.534   3.123  0.6402 -1.8014 -2.4468
  882MOL0     H21710   0.274   1.581   3.333 -1.2266  2.9900  3.1512
  882MOL0     H21711   0.233   1.735   3.262 -0.5668 -1.3369 -0.8631
  882MOL0     H21712   0.667   1.700   3.235 -0.5273 -1.1760 -0.0395
  882MOL0     H21713   0.524   1.251   2.790 -1.5345 -0.1548  3.3496
  882MOL0     H21714   0.549   1.220   2.437 -1.7673  0.2115  0.5067
  882MOL0     H21715   0.654   1.232   2.585  1.4281 -2.1624  2.6022
  882MOL0     H21716   0.629   1.075   2.511 -0.9473 -0.5845 -0.9253
  883MOL0     O21717   3.843   2.201   4.605  0.7874  0.5345 -0.0653
  883MOL0     C21718   3.741   2.267   4.612  0.0279 -0.3837 -0.0595
  883MOL0     O21719   3.656   2.299   4.503 -0.8946  0.4627  0.0028
  883MOL0     C21720   3.674   2.251   4.375 -0.0805  0.2272  0.4306
  883MOL0     C21721   3.672   2.114   4.358  0.0021  0.3608  0.0343
  883MOL0     C21722   3.692   2.056   4.228 -0.9728  0.3350 -1.4382
  883MOL0     C21723   3.692   2.141   4.116 -0.5838 -0.2889 -0.4744
  883MOL0     O21724   3.694   2.088   3.984 -0.1305  0.2944 -0.1155
  883MOL0     C21725   3.627   2.165   3.880 -0.5929  0.6754 -0.6683
  883MOL0     C21726   3.618   2.075   3.753  0.7303  0.0725  0.3966
  883MOL0     C21727   3.557   2.147   3.635  0.1973  0.3492  0.0086
  883MOL0     C21728   3.576   2.056   3.511 -0.4088  0.1203 -0.3133
  883MOL0     C21729   3.588   2.145   3.389  0.3432  0.2550 -0.0728
  883MOL0     C21730   3.566   2.054   3.266 -0.8936  0.7689  1.1586
  883MOL0     C21731   3.596   2.109   3.129 -0.9258 -0.6255  1.1023
  883MOL0     C21732   3.728   2.199   3.123 -0.5198  0.1544 -0.0164
  883MOL0     N21733   3.759   2.232   2.987  0.0303  0.4042 -0.7252
  883MOL0     C21734   3.754   2.358   2.927 -0.5044 -0.3845 -0.8043
  883MOL0     C21735   3.807   2.348   2.804  0.2320 -0.4836 -0.1150
  883MOL0     C21736   3.819   2.459   2.713  0.0671 -0.4676  0.6814
  883MOL0     C21737   3.921   2.560   2.765  0.2121  0.5240  0.3154
  883MOL0     C21738   4.066   2.513   2.725  0.4193  0.7892  0.3363
  883MOL0     C21739   4.166   2.597   2.786 -0.6009 -0.0151 -1.4714
  883MOL0     O21740   4.180   2.725   2.730 -0.0945 -0.0500  0.1801
  883MOL0     C21741   4.269   2.738   2.624 -0.3177  0.3382 -0.3479
  883MOL0     C21742   4.319   2.623   2.546  0.1591  0.9317 -0.0382
  883MOL0     C21743   4.425   2.652   2.455 -0.0990 -0.0044  0.0024
  883MOL0     C21744   4.480   2.539   2.378  0.3807  0.2102  0.7690
  883MOL0     C21745   4.491   2.775   2.455  0.2321 -0.0180  0.5044
  883MOL0     C21746   4.628   2.810   2.412  0.1846  0.4265  0.3272
  883MOL0     O21747   4.668   2.934   2.440 -0.7433  0.1071 -0.7435
  883MOL0     C21748   4.790   2.973   2.406 -0.0099  0.1513  0.5199
  883MOL0     C21749   4.803   3.057   2.301  0.5096 -0.3994  0.2453
  883MOL0     C21750   4.914   3.113   2.275  0.0229 -1.0025  0.8908
  883MOL0     C21751   5.035   3.107   2.343  0.8139  0.9958  0.6080
  883MOL0     O21752   5.149   3.167   2.303 -0.6145 -0.3612 -0.0680
  883MOL0     C21753   5.133   3.277   2.210  0.7365  0.2408  0.2750
  883MOL0     C21754   5.266   3.340   2.181  0.0808  0.7140  0.0216
  883MOL0     C21755   5.359   3.229   2.136  0.5783 -0.1134  0.4470
  883MOL0     C21756   5.501   3.282   2.103 -0.9478 -0.1905 -0.3537
  883MOL0     C21757   5.595   3.168   2.082 -0.4385 -0.2169  0.9340
  883MOL0     C21758   5.644   3.103   2.215 -1.0192 -0.4485 -0.3596
  883MOL0     C21759   5.752   2.989   2.199 -0.0768  0.7350  0.0121
  883MOL0     C21760   5.852   2.989   2.303  0.6427 -0.0636 -0.5278
  883MOL0    Cl21761   5.934   3.138   2.266  0.2453  0.5965  0.0677
  883MOL0     C21762   5.027   3.018   2.457  0.8459  0.9213  1.0480
  883MOL0     C21763   4.907   2.948   2.483  0.5294 -0.3356 -0.3037
  883MOL0     O21764   4.706   2.722   2.378 -0.3857 -0.1832  0.3513
  883MOL0     C21765   4.421   2.878   2.524 -0.1348  0.0204 -0.2719
  883MOL0     C21766   4.308   2.867   2.597 -0.0687  0.1253  0.4271
  883MOL0     N21767   3.865   2.219   2.797  0.6055  0.4877 -0.4632
  883MOL0     N21768   3.838   2.150   2.907  0.0838  0.5274  0.6731
  883MOL0     C21769   3.681   2.278   4.133 -0.1890 -0.1617 -0.0088
  883MOL0     C21770   3.681   2.330   4.261 -0.3084 -0.6121  0.3281
  883MOL0     C21771   3.686   2.319   4.748  0.1314  0.3303  0.1414
  883MOL0     C21772   3.547   2.360   4.751 -0.1858  0.2027  0.2513
  883MOL0     C21773   3.501   2.428   4.868  0.1907  0.1932  0.1181
  883MOL0     C21774   3.587   2.444   4.977 -0.2605 -0.2786  0.6460
  883MOL0     O21775   3.565   2.516   5.098  0.0669 -0.8784 -0.4344
  883MOL0     C21776   3.453   2.598   5.116  0.1088 -0.1840 -0.9502
  883MOL0     C21777   3.486   2.718   5.212 -0.2323 -0.3150  1.9218
  883MOL0     C21778   3.368   2.766   5.292  0.3424  0.8952 -0.1165
  883MOL0     C21779   3.340   2.695   5.429 -0.6212 -0.8959  1.0565
  883MOL0     C21780   3.231   2.764   5.496 -0.4793 -0.9447  1.1371
  883MOL0     C21781   3.137   2.819   5.552 -0.8597 -0.0960  0.0723
  883MOL0     C21782   3.708   2.381   4.971 -0.5223  0.1042  0.0828
  883MOL0     C21783   3.765   2.326   4.861  0.5626 -0.1037  0.9629
  883MOL0     C21784   3.887   2.237   4.877 -0.5804 -0.1598  0.0900
  883MOL0     H21785   3.656   2.046   4.442 -0.3741  0.6186  0.1764
  883MOL0     H21786   3.676   1.949   4.214 -1.3755 -0.2057  2.2617
  883MOL0     H21787   3.686   2.252   3.851  1.1025 -0.0446  0.4972
  883MOL0     H21788   3.524   2.190   3.909 -0.7607 -1.9069  1.3639
  883MOL0     H21789   3.712   2.023   3.734 -0.6419 -2.2063 -0.6053
  883MOL0     H21790   3.543   1.996   3.764 -2.7269  2.5627 -2.5848
  883MOL0     H21791   3.453   2.155   3.665  0.1776 -1.7370  0.6446
  883MOL0     H21792   3.596   2.249   3.623 -1.4384  0.9784 -0.1423
  883MOL0     H21793   3.661   1.988   3.518 -0.3117 -0.0674 -2.5818
  883MOL0     H21794   3.483   1.999   3.515 -0.7469  0.7036  3.0446
  883MOL0     H21795   3.687   2.191   3.376  0.9440 -1.6728 -3.8064
  883MOL0     H21796   3.509   2.220   3.399  0.0235 -0.2431  1.3953
  883MOL0     H21797   3.629   1.966   3.281  1.0723  1.6820 -1.1456
  883MOL0     H21798   3.465   2.016   3.251  0.0838 -1.2596 -0.8059
  883MOL0     H21799   3.518   2.177   3.092 -1.9074 -1.6208  1.2985
  883MOL0     H21800   3.607   2.029   3.056 -1.0226  1.9121 -1.8921
  883MOL0     H21801   3.723   2.282   3.194 -1.1547 -0.0860  0.2316
  883MOL0     H21802   3.806   2.130   3.156  0.1854 -0.5244 -2.8472
  883MOL0     H21803   3.709   2.448   2.970 -0.4657 -0.8588  0.2614
  883MOL0     H21804   3.721   2.506   2.699  0.0484 -0.7585 -0.2033
  883MOL0     H21805   3.845   2.410   2.619  1.1357 -1.5454  1.5164
  883MOL0     H21806   3.908   2.660   2.724  3.5687  0.6509 -0.7727
  883MOL0     H21807   3.911   2.560   2.874  0.8910 -0.2916  0.3911
  883MOL0     H21808   4.080   2.405   2.734 -1.0183  0.5199 -0.4060
  883MOL0     H21809   4.071   2.522   2.616 -0.8002  0.9647  0.2811
  883MOL0     H21810   4.144   2.617   2.891  0.3095 -0.9263 -1.0788
  883MOL0     H21811   4.257   2.536   2.785 -0.3399  0.1011  2.1019
  883MOL0     H21812   4.289   2.520   2.566 -1.0383  1.3702  0.5857
  883MOL0     H21813   4.392   2.483   2.346  0.3195  0.7071  0.0584
  883MOL0     H21814   4.543   2.482   2.447  0.3121  2.4408  2.7914
  883MOL0     H21815   4.539   2.562   2.289 -0.7319 -1.9540 -0.5999
  883MOL0     H21816   4.717   3.069   2.236 -0.6648  0.5655  1.9210
  883MOL0     H21817   4.910   3.176   2.187  1.8846 -0.1874  1.3512
  883MOL0     H21818   5.101   3.236   2.114 -2.4824 -0.7729  1.6116
  883MOL0     H21819   5.058   3.353   2.236 -1.9549 -1.5764 -1.6839
  883MOL0     H21820   5.259   3.414   2.101 -3.0895 -0.2684 -0.7692
  883MOL0     H21821   5.299   3.386   2.274  0.8588  4.1127 -1.7869
  883MOL0     H21822   5.308   3.190   2.047  2.8762 -5.4719  1.0705
  883MOL0     H21823   5.361   3.145   2.206  1.4231 -0.8342 -0.4198
  883MOL0     H21824   5.536   3.337   2.191  1.7170 -0.5814 -1.0652
  883MOL0     H21825   5.489   3.354   2.022  4.0331  0.1121 -1.1336
  883MOL0     H21826   5.564   3.097   2.006  1.8515  0.5912 -0.8898
  883MOL0     H21827   5.683   3.201   2.025 -0.4794 -1.4488  0.1342
  883MOL0     H21828   5.566   3.060   2.278  0.8539  2.3215  4.5148
  883MOL0     H21829   5.689   3.189   2.266  0.0508 -0.6777 -0.8911
  883MOL0     H21830   5.792   3.002   2.098 -3.6248 -0.6401 -1.7867
  883MOL0     H21831   5.703   2.891   2.200  2.8914 -0.9071  2.6377
  883MOL0     H21832   5.912   2.898   2.300 -0.9158 -1.1179 -0.8816
  883MOL0     H21833   5.804   2.995   2.401 -2.1569 -7.2770 -0.8273
  883MOL0     H21834   5.124   3.008   2.504  1.0809  3.6362  1.3098
  883MOL0     H21835   4.904   2.883   2.570  2.1328  0.1360  0.1281
  883MOL0     H21836   4.466   2.977   2.530 -0.6536  0.1589  3.0176
  883MOL0     H21837   4.256   2.950   2.643  0.9778  1.2645 -0.3589
  883MOL0     H21838   3.691   2.349   4.051  0.8184 -0.8883 -0.5469
  883MOL0     H21839   3.682   2.438   4.273 -0.2830 -0.4079 -1.2482
  883MOL0     H21840   3.480   2.355   4.666 -0.6488 -0.2462  0.6373
  883MOL0     H21841   3.411   2.487   4.878  0.9145  1.0684  1.9289
  883MOL0     H21842   3.402   2.627   5.024  0.8598  3.5776 -0.3484
  883MOL0     H21843   3.394   2.526   5.174  0.2018  0.1880 -0.3833
  883MOL0     H21844   3.509   2.794   5.136  1.3278 -1.2743  1.3968
  883MOL0     H21845   3.573   2.690   5.273  2.1992  1.7369 -0.3287
  883MOL0     H21846   3.395   2.866   5.327  1.1701 -0.1601  2.5036
  883MOL0     H21847   3.277   2.768   5.232  0.3147  1.1116 -0.0698
  883MOL0     H21848   3.424   2.698   5.498  0.8361 -0.2197 -0.6541
  883MOL0     H21849   3.299   2.594   5.422  0.1728 -1.2123  0.7581
  883MOL0     H21850   3.055   2.870   5.597  0.1439  0.5935  1.1701
  883MOL0     H21851   3.767   2.382   5.062 -0.4355 -1.1716  0.0658
  883MOL0     H21852   3.945   2.245   4.970 -0.7898 -2.6680  0.5136
  883MOL0     H21853   3.848   2.136   4.864 -0.5019 -0.1028 -0.6052
  883MOL0     H21854   3.963   2.251   4.799  1.3162  0.3690  1.9312
  884MOL0     O21855   6.586   3.802   8.744 -0.1589 -0.3692  0.9993
  884MOL0     C21856   6.672   3.722   8.774 -0.2454 -0.0023 -0.5065
  884MOL0     O21857   6.679   3.590   8.723 -0.3289  0.4700  0.6563
  884MOL0     C21858   6.585   3.552   8.623 -0.5916  0.5553 -0.2933
  884MOL0     C21859   6.461   3.514   8.663 -0.1670  0.4138  0.1677
  884MOL0     C21860   6.369   3.495   8.565 -0.3818 -0.6126  0.3852
  884MOL0     C21861   6.399   3.528   8.430  0.2144  0.7536  0.5841
  884MOL0     O21862   6.309   3.531   8.329  0.3965  0.1737  0.1667
  884MOL0     C21863   6.164   3.512   8.362  0.3404  0.8088 -0.4190
  884MOL0     C21864   6.077   3.532   8.237  0.4925  0.1963 -0.1504
  884MOL0     C21865   6.116   3.428   8.139 -0.0467 -0.1593 -0.6250
  884MOL0     C21866   6.015   3.433   8.019 -0.2352  0.0344  0.0656
  884MOL0     C21867   6.051   3.338   7.904  0.2456 -0.8955  0.4710
  884MOL0     C21868   5.920   3.302   7.831 -0.5276 -0.3712  0.0513
  884MOL0     C21869   5.949   3.285   7.677  0.1988 -0.0486  0.1332
  884MOL0     C21870   5.812   3.250   7.619  0.6779 -0.4604  0.3460
  884MOL0     N21871   5.754   3.119   7.660  0.4798  0.1111 -0.4559
  884MOL0     C21872   5.638   3.094   7.727  0.0114  0.0580 -0.3885
  884MOL0     C21873   5.608   2.971   7.706  0.1691 -1.0091 -0.9129
  884MOL0     C21874   5.482   2.911   7.751 -0.4463  0.9538 -0.5005
  884MOL0     C21875   5.368   2.969   7.681  0.2006 -0.9581  0.0457
  884MOL0     C21876   5.233   2.925   7.739  0.6680 -0.4724 -0.3438
  884MOL0     C21877   5.179   2.791   7.691  0.5576  0.1885  0.5234
  884MOL0     O21878   5.154   2.789   7.550 -0.6238 -0.2732  1.0243
  884MOL0     C21879   5.227   2.729   7.458  0.4491  0.5505 -0.7657
  884MOL0     C21880   5.168   2.728   7.338  0.4270  0.2055  0.5605
  884MOL0     C21881   5.239   2.706   7.221  0.1997  0.5571  0.4892
  884MOL0     C21882   5.148   2.704   7.091 -0.3416 -0.2105 -0.4804
  884MOL0     C21883   5.381   2.688   7.229 -0.0804  1.3316  0.7392
  884MOL0     C21884   5.460   2.651   7.106 -0.8075  0.1088 -0.3538
  884MOL0     O21885   5.596   2.626   7.129 -0.1270 -0.1684  0.3214
  884MOL0     C21886   5.686   2.611   7.023  0.4582 -0.4455  0.3319
  884MOL0     C21887   5.667   2.507   6.928 -0.9468 -0.1313  0.8462
  884MOL0     C21888   5.752   2.488   6.825 -0.4534 -0.1452  0.2902
  884MOL0     C21889   5.861   2.571   6.809  0.0943  1.2119 -0.0356
  884MOL0     O21890   5.959   2.564   6.710 -0.2577  0.9042 -0.2420
  884MOL0     C21891   5.977   2.453   6.631  0.4682 -0.2666 -0.0813
  884MOL0     C21892   6.019   2.330   6.705 -0.5437 -0.4603 -0.5389
  884MOL0     C21893   6.168   2.303   6.687 -0.9160 -0.8462 -0.8858
  884MOL0     C21894   6.234   2.213   6.786 -1.0398 -0.4897  0.8672
  884MOL0     C21895   6.383   2.197   6.747 -0.4168 -0.7850 -0.2262
  884MOL0     C21896   6.430   2.056   6.758 -0.3833 -0.5998  0.0859
  884MOL0     C21897   6.516   2.041   6.893  0.0776  0.1208 -0.1533
  884MOL0     C21898   6.574   1.902   6.908 -1.1502  0.1126 -0.3559
  884MOL0    Cl21899   6.699   1.882   6.786 -0.0519  0.5186 -0.0246
  884MOL0     C21900   5.890   2.661   6.913  0.2938 -0.7983 -0.6368
  884MOL0     C21901   5.805   2.683   7.019 -0.1119  0.2529  0.1134
  884MOL0     O21902   5.403   2.647   6.994 -0.4444  0.4953 -0.3188
  884MOL0     C21903   5.438   2.676   7.353  0.0288 -0.7552  0.1671
  884MOL0     C21904   5.361   2.688   7.471 -0.6674 -0.0294  0.5480
  884MOL0     N21905   5.709   2.911   7.629  0.1690 -0.4822 -0.1713
  884MOL0     N21906   5.799   3.003   7.605  0.6039  0.7511 -0.5420
  884MOL0     C21907   6.527   3.555   8.389  0.4839 -0.4946 -0.6906
  884MOL0     C21908   6.625   3.570   8.490 -0.2048 -0.8325 -0.3598
  884MOL0     C21909   6.745   3.742   8.907 -0.3052 -0.5217 -0.3794
  884MOL0     C21910   6.816   3.631   8.957 -0.2099  0.8716  0.0127
  884MOL0     C21911   6.888   3.635   9.080 -0.4383  0.3130  0.6535
  884MOL0     C21912   6.882   3.747   9.157  0.1128  0.5938 -0.7411
  884MOL0     O21913   6.960   3.758   9.274  0.2193 -0.1552  0.5205
  884MOL0     C21914   6.968   3.885   9.348 -0.3959  0.9810 -0.5288
  884MOL0     C21915   7.087   3.874   9.436 -1.4188 -0.3725 -0.1419
  884MOL0     C21916   7.074   3.756   9.536  0.4254 -0.3002 -0.8551
  884MOL0     C21917   6.962   3.777   9.641  0.3600  0.1311  0.4247
  884MOL0     C21918   7.014   3.834   9.763 -0.0003 -0.2867  0.2594
  884MOL0     C21919   7.053   3.869   9.869  0.3709  0.7145  0.1806
  884MOL0     C21920   6.808   3.852   9.116  0.2109 -1.2895  0.0902
  884MOL0     C21921   6.745   3.863   8.982 -0.6016  0.1592 -0.5261
  884MOL0     C21922   6.674   3.998   8.953 -0.0955 -0.7074  0.3837
  884MOL0     H21923   6.441   3.496   8.768  0.3305  2.0468  0.5693
  884MOL0     H21924   6.269   3.466   8.595 -0.6714 -1.9519 -1.6445
  884MOL0     H21925   6.124   3.585   8.432  0.0315 -0.6845  1.0327
  884MOL0     H21926   6.148   3.410   8.399 -0.2519  0.0790 -2.5318
  884MOL0     H21927   5.972   3.521   8.265  1.0462 -2.5687  1.1193
  884MOL0     H21928   6.108   3.630   8.200 -1.3292 -0.2142 -3.1335
  884MOL0     H21929   6.214   3.453   8.097  1.2030 -2.0477  0.9739
  884MOL0     H21930   6.101   3.331   8.187  1.7120 -0.6029 -0.9075
  884MOL0     H21931   5.913   3.413   8.053 -2.5218  3.3536 -3.8286
  884MOL0     H21932   5.989   3.534   7.984 -2.0716  0.6499  2.8262
  884MOL0     H21933   6.116   3.260   7.943  1.8037  0.7245  1.2922
  884MOL0     H21934   6.113   3.391   7.830  1.1163 -1.7192  0.6002
  884MOL0     H21935   5.897   3.205   7.877  2.8602 -0.9374  0.8232
  884MOL0     H21936   5.843   3.380   7.837  0.2084  0.2579  1.7810
  884MOL0     H21937   6.016   3.201   7.658 -0.2949 -0.2197 -0.9666
  884MOL0     H21938   5.988   3.383   7.646  1.1352  0.4526  2.6964
  884MOL0     H21939   5.750   3.341   7.618  1.6766  0.2872 -2.3911
  884MOL0     H21940   5.827   3.242   7.511 -0.1982 -0.1231  0.1939
  884MOL0     H21941   5.585   3.177   7.774  2.7842  1.8531 -0.1430
  884MOL0     H21942   5.475   2.925   7.860 -1.4945  0.8769 -0.5538
  884MOL0     H21943   5.489   2.803   7.740 -0.0073  0.8348  0.7676
  884MOL0     H21944   5.373   3.078   7.689  2.2269 -0.9047 -1.1851
  884MOL0     H21945   5.374   2.948   7.574 -0.2581  4.2263 -1.2686
  884MOL0     H21946   5.238   2.918   7.848 -3.0395 -1.3359 -0.0793
  884MOL0     H21947   5.154   2.999   7.719  1.3054  0.0229 -1.0768
  884MOL0     H21948   5.242   2.708   7.724 -1.0527 -2.3943 -2.4225
  884MOL0     H21949   5.080   2.776   7.735 -0.3195  1.0419 -1.0775
  884MOL0     H21950   5.065   2.764   7.329  0.3478  0.1294  1.1492
  884MOL0     H21951   5.163   2.788   7.023  0.6744  1.1832  1.3412
  884MOL0     H21952   5.044   2.707   7.124 -0.2948 -0.8202 -0.2476
  884MOL0     H21953   5.164   2.613   7.032 -0.0104 -0.5094  0.0508
  884MOL0     H21954   5.601   2.422   6.940  1.8281 -2.8333 -1.3591
  884MOL0     H21955   5.710   2.422   6.750  0.2527  1.2945 -1.4511
  884MOL0     H21956   5.883   2.440   6.576  0.1568 -0.0216  0.3855
  884MOL0     H21957   6.051   2.475   6.553 -0.2143  0.8561 -0.4337
  884MOL0     H21958   6.010   2.326   6.814  1.8125 -1.0999 -0.3251
  884MOL0     H21959   5.959   2.250   6.662  0.2867  0.9091 -4.6313
  884MOL0     H21960   6.227   2.396   6.684 -0.9386 -0.8509 -2.4972
  884MOL0     H21961   6.183   2.262   6.586  1.1440 -2.6106  0.0488
  884MOL0     H21962   6.187   2.114   6.783  0.9232 -1.5457  2.3786
  884MOL0     H21963   6.229   2.240   6.891 -1.9964  0.9303  0.4787
  884MOL0     H21964   6.400   2.229   6.643 -0.9513 -0.8030 -0.3224
  884MOL0     H21965   6.432   2.278   6.803 -1.5846  0.1145 -0.4514
  884MOL0     H21966   6.478   2.025   6.665 -3.8037  0.9899 -2.4052
  884MOL0     H21967   6.344   1.988   6.764 -0.3074 -0.5735  3.4630
  884MOL0     H21968   6.455   2.056   6.983  0.1635  1.2547 -0.2763
  884MOL0     H21969   6.603   2.107   6.898 -0.5890  1.1603 -1.7675
  884MOL0     H21970   6.483   1.841   6.895 -1.3789 -0.4169  2.8207
  884MOL0     H21971   6.614   1.878   7.007 -2.4976  0.1945  0.2308
  884MOL0     H21972   5.986   2.710   6.902  0.5836 -1.4240 -0.9939
  884MOL0     H21973   5.820   2.765   7.089  1.4978  0.2890 -0.2290
  884MOL0     H21974   5.542   2.644   7.361 -0.1167 -0.9215  1.8693
  884MOL0     H21975   5.410   2.705   7.567 -0.1592  3.4548 -0.2038
  884MOL0     H21976   6.552   3.582   8.286  0.2779  3.4852  0.1548
  884MOL0     H21977   6.722   3.618   8.475  0.5461 -1.2770  2.4524
  884MOL0     H21978   6.819   3.529   8.919  0.6114  1.1518 -0.7178
  884MOL0     H21979   6.932   3.549   9.130 -0.6771  0.8988  1.9120
  884MOL0     H21980   6.978   3.971   9.281 -0.7151  3.0044  1.8871
  884MOL0     H21981   6.875   3.901   9.402 -3.2023 -2.2217 -3.8718
  884MOL0     H21982   7.106   3.967   9.490 -0.7092  0.2435 -1.4064
  884MOL0     H21983   7.170   3.851   9.368 -0.5073  1.0552  0.4411
  884MOL0     H21984   7.050   3.664   9.482 -0.0583 -1.4185  1.1620
  884MOL0     H21985   7.167   3.742   9.590  1.4403 -1.0444 -2.7069
  884MOL0     H21986   6.928   3.678   9.672 -1.5881  0.5393 -0.2425
  884MOL0     H21987   6.881   3.839   9.600  1.6737  0.9723 -1.0199
  884MOL0     H21988   7.081   3.891   9.970  1.5470  2.5101 -0.4881
  884MOL0     H21989   6.806   3.948   9.167  2.7161 -0.8248 -0.5286
  884MOL0     H21990   6.717   4.070   9.024  2.2887 -1.0126 -0.6635
  884MOL0     H21991   6.687   4.035   8.851  0.3114 -3.1063 -0.4767
  884MOL0     H21992   6.570   3.976   8.980 -0.6335  2.1191  0.9847
  885MOL0     O21993   9.838   7.254   3.213 -0.0518 -0.5518  0.3565
  885MOL0     C21994   9.753   7.248   3.122 -0.0380 -0.0141 -0.7939
  885MOL0     O21995   9.777   7.235   2.989  0.3321 -0.6970  0.6180
  885MOL0     C21996   9.909   7.228   2.961 -0.8576 -0.1876 -0.0465
  885MOL0     C21997   9.974   7.103   2.949 -0.4261  0.5482  1.4506
  885MOL0     C21998  10.110   7.095   2.909 -0.0696 -0.9242  0.2205
  885MOL0     C21999  10.178   7.212   2.876  0.5951 -0.3849  1.2034
  885MOL0     O22000  10.305   7.189   2.835 -0.7718 -0.6561 -0.2049
  885MOL0     C22001  10.404   7.288   2.860  0.3761 -0.8517 -0.9634
  885MOL0     C22002  10.433   7.312   3.006 -0.6986  0.0194 -0.0729
  885MOL0     C22003  10.541   7.419   3.021  0.3184  0.9626 -0.5757
  885MOL0     C22004  10.486   7.555   2.966  0.0588 -0.1568  0.6073
  885MOL0     C22005  10.581   7.662   3.023 -0.7644  0.2478  0.5784
  885MOL0     C22006  10.572   7.806   2.977 -0.6056 -0.3982  0.0039
  885MOL0     C22007  10.672   7.898   3.059  0.3889  0.4276  0.3170
  885MOL0     C22008  10.702   8.035   3.004  0.0048  0.1553  0.2704
  885MOL0     N22009  10.788   8.113   3.091  0.7203 -0.5814 -0.0777
  885MOL0     C22010  10.924   8.130   3.078  0.1091  0.2189  0.0512
  885MOL0     C22011  10.952   8.221   3.178 -0.4861  0.7854 -0.1941
  885MOL0     C22012  11.088   8.276   3.214 -0.3629  0.8625  0.6248
  885MOL0     C22013  11.138   8.359   3.099 -0.7946 -0.0326  1.2748
  885MOL0     C22014  11.273   8.417   3.145  0.0127 -0.2572  0.8196
  885MOL0     C22015  11.318   8.532   3.057  0.3404 -0.4749  0.0355
  885MOL0     O22016  11.225   8.640   3.072 -0.3741  0.3873  0.9129
  885MOL0     C22017  11.234   8.760   2.999 -0.1450  0.1734 -0.6628
  885MOL0     C22018  11.134   8.849   3.032  0.6201 -0.3525 -0.9067
  885MOL0     C22019  11.138   8.982   2.971 -0.0373  0.7961  0.0477
  885MOL0     C22020  11.024   9.071   3.005 -1.1093  0.1873 -0.2569
  885MOL0     C22021  11.242   9.016   2.877 -0.3921  0.2559 -0.4036
  885MOL0     C22022  11.263   9.146   2.813 -0.4266 -0.4507 -0.6614
  885MOL0     O22023  11.332   9.150   2.693  0.5330  0.5884  0.4760
  885MOL0     C22024  11.369   9.247   2.606  0.3046 -0.2972  0.4589
  885MOL0     C22025  11.384   9.387   2.633  0.1290 -0.1073 -0.0001
  885MOL0     C22026  11.423   9.487   2.539 -1.7297  0.4971 -0.0049
  885MOL0     C22027  11.461   9.435   2.408  0.4645 -0.7918  0.8821
  885MOL0     O22028  11.489   9.528   2.314  0.1061 -0.4100 -0.4521
  885MOL0     C22029  11.606   9.594   2.347 -0.3438 -0.0463  0.2585
  885MOL0     C22030  11.624   9.703   2.231  0.1442  0.4938 -0.9450
  885MOL0     C22031  11.662   9.657   2.085 -0.3027 -0.4286 -1.1344
  885MOL0     C22032  11.682   9.786   2.004 -0.8300  0.6361  0.8978
  885MOL0     C22033  11.723   9.750   1.860  0.1383  0.2398 -0.0494
  885MOL0     C22034  11.799   9.857   1.786  1.0098  0.0076  0.4401
  885MOL0     C22035  11.876   9.806   1.666  0.8498 -0.5719 -0.9698
  885MOL0     C22036  11.930   9.909   1.574  0.8001  0.0075 -1.3884
  885MOL0    Cl22037  12.090   9.875   1.522 -0.2723  0.1628  0.2650
  885MOL0     C22038  11.457   9.300   2.381  0.5457  0.7776  1.4825
  885MOL0     C22039  11.413   9.206   2.476  0.3230 -0.4948 -0.4384
  885MOL0     O22040  11.236   9.245   2.877  0.6286 -0.0591 -0.0701
  885MOL0     C22041  11.336   8.911   2.850  0.6898  0.0050 -0.4155
  885MOL0     C22042  11.335   8.789   2.908  0.2369  0.1020  0.7366
  885MOL0     N22043  10.842   8.232   3.255  0.6879 -0.5419 -0.5538
  885MOL0     N22044  10.745   8.167   3.203  0.8752  0.0354  0.2040
  885MOL0     C22045  10.115   7.329   2.889  0.0782  0.9502  0.4330
  885MOL0     C22046   9.991   7.344   2.934 -0.2498 -0.2272 -0.1886
  885MOL0     C22047   9.604   7.235   3.170 -0.6914 -0.6579  0.7814
  885MOL0     C22048   9.504   7.168   3.091  0.4971  0.6583 -0.8583
  885MOL0     C22049   9.368   7.159   3.125  0.6048  0.1623  0.7127
  885MOL0     C22050   9.327   7.214   3.250  0.0690  0.3821  0.4226
  885MOL0     O22051   9.206   7.215   3.303  0.2694 -0.6583 -0.2823
  885MOL0     C22052   9.114   7.117   3.249 -0.9685  0.1447  0.3650
  885MOL0     C22053   8.985   7.109   3.336  0.8583  0.5248 -0.0900
  885MOL0     C22054   8.910   6.982   3.296  0.8384 -0.8376 -0.4425
  885MOL0     C22055   8.805   6.937   3.388  0.3280 -0.2852  0.9008
  885MOL0     C22056   8.707   7.044   3.408  0.3012  0.4609 -0.6391
  885MOL0     C22057   8.638   7.144   3.434 -0.5019  0.3720 -0.2062
  885MOL0     C22058   9.414   7.295   3.319 -0.6968  0.7537  0.3857
  885MOL0     C22059   9.546   7.296   3.283 -0.2924 -0.4090 -0.0177
  885MOL0     C22060   9.642   7.382   3.365  0.0045  0.0318 -0.0154
  885MOL0     H22061   9.919   7.009   2.954 -0.6427  0.4791 -1.1886
  885MOL0     H22062  10.154   6.998   2.887  4.0933  0.7481  0.2831
  885MOL0     H22063  10.377   7.382   2.810 -0.4244 -1.2674 -1.3490
  885MOL0     H22064  10.495   7.245   2.817  0.3374 -1.8366 -0.0911
  885MOL0     H22065  10.347   7.339   3.068  0.1837 -0.8178  1.5843
  885MOL0     H22066  10.473   7.217   3.043  0.3464 -0.5292 -2.3812
  885MOL0     H22067  10.567   7.429   3.127 -2.1359 -0.0082  0.2188
  885MOL0     H22068  10.632   7.386   2.970 -1.4019 -3.8077 -1.1590
  885MOL0     H22069  10.473   7.564   2.858  2.1694  0.0768  0.3302
  885MOL0     H22070  10.384   7.558   3.007 -0.5139 -4.8522  0.0346
  885MOL0     H22071  10.679   7.627   2.989 -0.7442  2.8824 -2.5220
  885MOL0     H22072  10.587   7.656   3.132 -6.1466 -0.4193  1.1067
  885MOL0     H22073  10.600   7.808   2.872  0.6489 -6.0859 -0.1008
  885MOL0     H22074  10.471   7.844   2.992 -1.0576 -1.0123 -1.3634
  885MOL0     H22075  10.767   7.847   3.076  2.1870  2.2094 -3.2072
  885MOL0     H22076  10.621   7.912   3.154 -1.9811  0.2277 -0.8387
  885MOL0     H22077  10.729   8.038   2.898 -2.6069 -2.9086 -0.6640
  885MOL0     H22078  10.603   8.079   2.991 -1.8720 -3.4066  1.0809
  885MOL0     H22079  10.992   8.086   3.006  1.8883  0.2443  1.6265
  885MOL0     H22080  11.158   8.198   3.245  1.7605  1.3090 -2.5930
  885MOL0     H22081  11.061   8.343   3.296 -2.3018 -0.1804  0.8988
  885MOL0     H22082  11.141   8.293   3.011  1.1673 -0.4989  1.6518
  885MOL0     H22083  11.077   8.445   3.071  2.4843  2.2277  0.5439
  885MOL0     H22084  11.266   8.443   3.251  2.3011 -2.1425  1.5259
  885MOL0     H22085  11.357   8.350   3.126  0.0437  0.1169 -0.4849
  885MOL0     H22086  11.415   8.567   3.092  0.2034  1.4027 -1.3097
  885MOL0     H22087  11.323   8.505   2.951  0.0901 -0.6650  0.0712
  885MOL0     H22088  11.052   8.812   3.092 -0.8775 -1.6782 -3.5656
  885MOL0     H22089  10.969   9.093   2.913  0.3695 -2.0398 -1.7834
  885MOL0     H22090  11.067   9.163   3.047  0.7182 -1.4375  1.6648
  885MOL0     H22091  10.951   9.031   3.075 -0.1558 -0.4584  0.3991
  885MOL0     H22092  11.341   9.424   2.726 -3.0000 -3.8948  0.3293
  885MOL0     H22093  11.428   9.589   2.575 -1.4314  0.6969 -0.5865
  885MOL0     H22094  11.596   9.639   2.446 -1.9607 -1.4260  0.7741
  885MOL0     H22095  11.692   9.526   2.340  0.4736  1.1033 -1.8580
  885MOL0     H22096  11.533   9.764   2.232 -0.3397 -0.2232 -0.6806
  885MOL0     H22097  11.706   9.763   2.274  0.1233 -0.6560  0.7612
  885MOL0     H22098  11.581   9.594   2.046 -1.8318  0.4014  0.5397
  885MOL0     H22099  11.749   9.591   2.080 -0.9744 -1.8096  2.5121
  885MOL0     H22100  11.741   9.860   2.058  0.0721  0.1678  0.5696
  885MOL0     H22101  11.578   9.820   1.999 -0.9061  0.5305  1.6557
  885MOL0     H22102  11.776   9.654   1.861 -1.9724 -0.9997 -0.4766
  885MOL0     H22103  11.639   9.714   1.800  0.8314  0.7350 -1.3626
  885MOL0     H22104  11.879   9.910   1.839 -0.3453 -0.5458  3.2246
  885MOL0     H22105  11.722   9.923   1.745 -1.3559 -2.1345  1.1491
  885MOL0     H22106  11.810   9.737   1.613 -1.7692  0.8936  0.1672
  885MOL0     H22107  11.960   9.744   1.697  0.3242 -0.0383  1.8417
  885MOL0     H22108  11.929  10.002   1.632  0.4643 -0.7596 -0.1275
  885MOL0     H22109  11.871   9.925   1.484 -1.1647  2.4219  0.1674
  885MOL0     H22110  11.483   9.263   2.282 -0.1390  5.8795 -0.9289
  885MOL0     H22111  11.405   9.099   2.459  4.5830 -1.5208  2.3900
  885MOL0     H22112  11.420   8.922   2.782 -0.2768  1.8690 -1.3877
  885MOL0     H22113  11.415   8.719   2.889 -1.4562 -1.4813 -1.0999
  885MOL0     H22114  10.169   7.421   2.870 -1.3670  1.7166 -0.1216
  885MOL0     H22115   9.952   7.445   2.946  1.7559  0.4155  1.5408
  885MOL0     H22116   9.536   7.123   2.998 -0.5381  1.9096 -1.8552
  885MOL0     H22117   9.298   7.109   3.059 -0.0781  1.5018  0.3873
  885MOL0     H22118   9.091   7.134   3.143  4.1343 -1.5489 -1.3138
  885MOL0     H22119   9.165   7.020   3.250 -0.2979  0.4862  1.9494
  885MOL0     H22120   8.930   7.203   3.331  1.6851  1.3053  3.1882
  885MOL0     H22121   9.015   7.093   3.440 -3.1608  1.5956  1.4442
  885MOL0     H22122   8.878   6.994   3.193  2.0298  0.8310 -0.6686
  885MOL0     H22123   8.977   6.898   3.280  2.1494  0.1304 -0.2367
  885MOL0     H22124   8.837   6.884   3.478  0.6327 -0.1678  0.8617
  885MOL0     H22125   8.743   6.861   3.339 -1.2265 -0.5027  3.0426
  885MOL0     H22126   8.566   7.216   3.466 -3.2245 -2.4226  0.4010
  885MOL0     H22127   9.377   7.345   3.409 -0.3609 -0.9659  1.5169
  885MOL0     H22128   9.596   7.466   3.419 -1.0429 -1.6419  1.7871
  885MOL0     H22129   9.707   7.321   3.427 -0.5146  1.3951  1.9759
  885MOL0     H22130   9.702   7.432   3.287  1.1248 -2.7076 -1.0145
  886MOL0     O22131   4.799   8.999   3.475 -0.8383 -0.7945 -0.4230
  886MOL0     C22132   4.723   8.915   3.520  0.0107  0.3851  0.0249
  886MOL0     O22133   4.685   8.804   3.456 -0.0100 -0.4146  1.2082
  886MOL0     C22134   4.778   8.744   3.376 -0.5015 -0.3199  0.1985
  886MOL0     C22135   4.792   8.796   3.247 -0.1898 -0.8614 -0.3568
  886MOL0     C22136   4.869   8.736   3.160 -0.4020  0.2566 -0.7262
  886MOL0     C22137   4.934   8.608   3.198  0.0997  0.2794  0.4841
  886MOL0     O22138   5.030   8.564   3.110  0.1597 -0.1340  0.0278
  886MOL0     C22139   5.046   8.424   3.092  0.4046  0.7171  0.3547
  886MOL0     C22140   4.916   8.355   3.039  0.1896 -0.4049 -0.1745
  886MOL0     C22141   4.875   8.434   2.911  0.2599 -0.6009 -0.5458
  886MOL0     C22142   4.750   8.371   2.854  0.0065  1.1590 -0.9173
  886MOL0     C22143   4.720   8.445   2.712  0.1758 -0.2057 -0.3332
  886MOL0     C22144   4.595   8.379   2.655  1.0153  0.9052 -0.5249
  886MOL0     C22145   4.523   8.474   2.557 -0.0094 -0.3864  0.5688
  886MOL0     C22146   4.400   8.404   2.506 -0.7097  0.8499  0.4488
  886MOL0     N22147   4.318   8.494   2.421 -0.0112 -1.1639 -0.4608
  886MOL0     C22148   4.235   8.594   2.460 -0.6927 -0.1828  0.2097
  886MOL0     C22149   4.201   8.658   2.351  0.1746  0.2502 -0.1322
  886MOL0     C22150   4.087   8.752   2.321 -0.5451 -0.0472  0.6918
  886MOL0     C22151   4.078   8.806   2.169  0.1975 -0.8793 -0.6290
  886MOL0     C22152   3.983   8.932   2.161  0.5182  0.5679 -0.4251
  886MOL0     C22153   3.832   8.902   2.183  0.4705  0.5009  0.6871
  886MOL0     O22154   3.767   9.028   2.186  0.0712 -0.8104  0.2200
  886MOL0     C22155   3.658   9.033   2.261  0.9331 -0.5747  1.2748
  886MOL0     C22156   3.620   9.149   2.309  0.3211 -0.1694 -0.5782
  886MOL0     C22157   3.523   9.167   2.409  0.5863  0.0112  0.1184
  886MOL0     C22158   3.491   9.304   2.463  0.3637 -0.1017 -0.3844
  886MOL0     C22159   3.446   9.057   2.457 -0.0335  0.1230  0.4584
  886MOL0     C22160   3.342   9.063   2.563 -0.0430  0.3189 -0.6074
  886MOL0     O22161   3.339   9.173   2.649 -0.0415  0.1418  0.0102
  886MOL0     C22162   3.252   9.188   2.754  0.1657 -0.5075 -0.1820
  886MOL0     C22163   3.250   9.315   2.819  0.2021 -0.1700  0.1210
  886MOL0     C22164   3.166   9.360   2.921 -0.5167  0.2255  0.4944
  886MOL0     C22165   3.088   9.269   2.977  0.4316 -0.6220  0.0241
  886MOL0     O22166   3.002   9.304   3.078 -0.6963 -0.3838 -0.0217
  886MOL0     C22167   3.027   9.251   3.214 -0.4858 -0.6667  0.0459
  886MOL0     C22168   3.153   9.317   3.284  0.2931  0.3148  0.2016
  886MOL0     C22169   3.296   9.278   3.230  0.6145 -0.3498 -0.4027
  886MOL0     C22170   3.322   9.124   3.254  0.0573 -0.9230  0.7056
  886MOL0     C22171   3.473   9.099   3.274  0.0133  0.0068 -0.0165
  886MOL0     C22172   3.499   8.955   3.325  0.1033  0.1015 -0.1225
  886MOL0     C22173   3.631   8.912   3.406  0.9939  0.4750 -1.1038
  886MOL0     C22174   3.621   8.937   3.565  0.3619 -0.3546  0.0442
  886MOL0    Cl22175   3.750   8.834   3.658  0.3825  0.0359  0.2874
  886MOL0     C22176   3.096   9.141   2.932  0.5875  0.8864 -0.2115
  886MOL0     C22177   3.170   9.099   2.825 -0.0600  0.7078 -0.4670
  886MOL0     O22178   3.257   8.968   2.565  0.4974 -0.7057  0.2056
  886MOL0     C22179   3.477   8.931   2.395 -0.1413  0.2242  0.0748
  886MOL0     C22180   3.573   8.924   2.290  0.4405 -0.0707 -1.0054
  886MOL0     N22181   4.269   8.598   2.245 -0.4988  0.3819  0.3501
  886MOL0     N22182   4.356   8.511   2.290  0.6089  0.0244  0.0562
  886MOL0     C22183   4.926   8.557   3.328  1.0824 -0.3442 -0.3247
  886MOL0     C22184   4.844   8.628   3.416 -0.0054 -0.0465 -0.2819
  886MOL0     C22185   4.643   8.941   3.640 -0.8854  0.4460 -0.0858
  886MOL0     C22186   4.531   8.857   3.670 -0.3686  0.1657 -0.0019
  886MOL0     C22187   4.441   8.885   3.772 -0.4086  0.4114 -0.2804
  886MOL0     C22188   4.461   8.999   3.857 -0.1716  0.5079  0.1242
  886MOL0     O22189   4.375   9.042   3.956 -0.2910  0.2094 -0.4873
  886MOL0     C22190   4.247   8.964   3.971 -0.3551 -0.6864 -0.2171
  886MOL0     C22191   4.140   9.047   4.057  0.3964  0.5193 -0.0443
  886MOL0     C22192   4.181   9.054   4.201  0.5983  0.2776 -0.1697
  886MOL0     C22193   4.143   9.194   4.264 -0.2767 -0.1666  0.4110
  886MOL0     C22194   4.158   9.211   4.412  0.6122 -0.8972 -0.1602
  886MOL0     C22195   4.160   9.218   4.534  0.6075 -0.1370  0.0256
  886MOL0     C22196   4.572   9.075   3.824 -0.5484  0.2074  0.2392
  886MOL0     C22197   4.667   9.057   3.717  0.1668 -0.3328 -0.3845
  886MOL0     C22198   4.775   9.165   3.694 -0.3099 -0.6988  0.2041
  886MOL0     H22199   4.739   8.885   3.215 -2.8829 -2.0284  0.5792
  886MOL0     H22200   4.879   8.773   3.059  1.2061 -0.1274 -0.7324
  886MOL0     H22201   5.082   8.373   3.182 -0.7460 -0.2953  0.2669
  886MOL0     H22202   5.126   8.407   3.019 -1.5822 -1.8475 -1.4039
  886MOL0     H22203   4.942   8.254   3.007 -0.3819 -1.8966  3.5857
  886MOL0     H22204   4.839   8.356   3.117  1.3229 -1.5004  1.0120
  886MOL0     H22205   4.852   8.540   2.922 -0.8202 -1.0049  1.8294
  886MOL0     H22206   4.951   8.438   2.833 -1.0331  0.4511 -1.8125
  886MOL0     H22207   4.781   8.266   2.843  2.4689  1.3242  2.6931
  886MOL0     H22208   4.659   8.381   2.913 -0.5879 -0.0447 -1.5846
  886MOL0     H22209   4.800   8.445   2.637 -1.0777 -0.7009 -1.7128
  886MOL0     H22210   4.706   8.551   2.732  1.4467  0.2776 -1.8632
  886MOL0     H22211   4.611   8.289   2.596 -1.1077  0.3988 -0.4161
  886MOL0     H22212   4.526   8.348   2.733  1.4666  1.7772  0.2359
  886MOL0     H22213   4.577   8.498   2.465  1.2118 -1.4768  0.9735
  886MOL0     H22214   4.496   8.565   2.610 -1.3286 -1.6211  2.1243
  886MOL0     H22215   4.435   8.320   2.446 -1.2519 -1.1551  2.7880
  886MOL0     H22216   4.333   8.375   2.587 -1.7521 -1.0147 -1.0057
  886MOL0     H22217   4.196   8.605   2.561 -3.0026 -1.1788 -0.4990
  886MOL0     H22218   4.087   8.831   2.396  0.1520  1.2975 -0.6866
  886MOL0     H22219   3.995   8.698   2.345 -1.6816  1.9409  1.0108
  886MOL0     H22220   4.174   8.845   2.132 -0.9021  2.5874 -0.1887
  886MOL0     H22221   4.038   8.727   2.106 -2.5510  0.4346 -0.6669
  886MOL0     H22222   4.019   8.991   2.246  0.9969 -2.2941  1.5287
  886MOL0     H22223   3.995   8.987   2.068 -1.7721  0.4909 -0.8146
  886MOL0     H22224   3.787   8.841   2.104  1.1916  0.1990  0.5011
  886MOL0     H22225   3.822   8.859   2.283  1.2028 -0.7227  0.2506
  886MOL0     H22226   3.681   9.232   2.277 -0.7017 -0.1920 -2.7578
  886MOL0     H22227   3.551   9.382   2.414 -0.1924  1.4668  1.3422
  886MOL0     H22228   3.512   9.312   2.570  0.4699  2.6008 -0.5407
  886MOL0     H22229   3.384   9.320   2.452  0.2679 -0.7774 -0.4545
  886MOL0     H22230   3.328   9.379   2.780  1.4538 -0.1061  2.5515
  886MOL0     H22231   3.184   9.455   2.971  1.2593  0.7996 -1.1232
  886MOL0     H22232   2.940   9.272   3.276  1.4306  0.0635  2.6575
  886MOL0     H22233   3.045   9.143   3.210  1.6237 -0.3221 -1.9240
  886MOL0     H22234   3.140   9.426   3.276 -1.3468  0.1588  0.3647
  886MOL0     H22235   3.153   9.305   3.393  0.3349 -0.3729  0.1257
  886MOL0     H22236   3.372   9.346   3.271 -0.0891 -0.0723  0.4871
  886MOL0     H22237   3.298   9.298   3.123  1.1291  1.9451 -0.0179
  886MOL0     H22238   3.282   9.066   3.171 -0.9652  1.5218 -0.6050
  886MOL0     H22239   3.265   9.104   3.346  1.0111 -2.6724  0.9477
  886MOL0     H22240   3.530   9.116   3.183  0.2150  0.1736  0.1405
  886MOL0     H22241   3.511   9.169   3.350  0.4884  0.3804 -0.5935
  886MOL0     H22242   3.481   8.897   3.234  0.9707  4.1173 -3.1618
  886MOL0     H22243   3.417   8.927   3.392  0.0976 -1.0436 -0.5975
  886MOL0     H22244   3.724   8.963   3.377  0.0967  2.2053 -1.0790
  886MOL0     H22245   3.646   8.804   3.398  1.2433  0.2994  1.1645
  886MOL0     H22246   3.529   8.891   3.603  1.1867 -1.2847  1.0036
  886MOL0     H22247   3.628   9.044   3.585 -0.5181 -0.1713 -0.6038
  886MOL0     H22248   3.032   9.068   2.980  0.8861  1.2527  0.7864
  886MOL0     H22249   3.177   8.994   2.798  1.1818  0.4203  0.8270
  886MOL0     H22250   3.412   8.846   2.414 -0.4483  0.8470  2.0108
  886MOL0     H22251   3.570   8.834   2.230 -1.6233  2.1646 -4.6135
  886MOL0     H22252   4.991   8.473   3.353 -1.9870 -2.4714  1.2045
  886MOL0     H22253   4.820   8.600   3.518  0.3525 -1.7132 -0.6102
  886MOL0     H22254   4.520   8.759   3.624  0.5505 -0.8032  1.7464
  886MOL0     H22255   4.366   8.808   3.786  1.6371 -2.0374 -1.7352
  886MOL0     H22256   4.198   8.951   3.874 -2.8525  0.8913  0.7456
  886MOL0     H22257   4.272   8.866   4.014 -1.4712 -1.9222 -2.2469
  886MOL0     H22258   4.045   8.994   4.055  0.0861  0.9095  1.9917
  886MOL0     H22259   4.123   9.149   4.021 -1.1549 -0.0041 -0.8661
  886MOL0     H22260   4.142   8.964   4.251 -2.4901  0.2269 -2.4266
  886MOL0     H22261   4.290   9.044   4.200  0.5982 -0.2180 -3.3577
  886MOL0     H22262   4.036   9.212   4.248 -0.6809 -2.0562  0.7505
  886MOL0     H22263   4.208   9.274   4.227  1.3128 -0.1614  2.9508
  886MOL0     H22264   4.174   9.224   4.640 -1.5355 -2.5398  0.5491
  886MOL0     H22265   4.575   9.168   3.879 -0.4153  0.1271  0.3676
  886MOL0     H22266   4.761   9.234   3.609 -0.9432  1.9285  2.3036
  886MOL0     H22267   4.771   9.235   3.778  1.1741  1.5104 -1.4590
  886MOL0     H22268   4.880   9.137   3.693 -0.0838 -0.2720  3.2986
  887MOL0     O22269   0.739   6.425   0.107  0.0863 -0.6083 -0.3338
  887MOL0     C22270   0.787   6.321   0.149 -0.5304  0.2113  0.4936
  887MOL0     O22271   0.738   6.245   0.260 -0.1650  0.3204  0.0336
  887MOL0     C22272   0.602   6.253   0.281 -0.6635  0.6555 -1.0573
  887MOL0     C22273   0.553   6.205   0.399 -0.9827  0.5216  0.0927
  887MOL0     C22274   0.417   6.181   0.426 -0.6894 -0.5273 -0.5353
  887MOL0     C22275   0.320   6.235   0.335 -0.3067  0.1079 -1.0546
  887MOL0     O22276   0.195   6.228   0.381 -0.8721 -0.1097  0.2386
  887MOL0     C22277   0.157   6.348   0.454  0.8058 -0.1330 -0.4873
  887MOL0     C22278   0.005   6.360   0.455 -0.3053  1.0040 -0.4283
  887MOL0     C22279  -0.065   6.274   0.555  0.5747 -0.2556  0.5718
  887MOL0     C22280  -0.033   6.124   0.544  0.5334 -0.2186  0.0674
  887MOL0     C22281  -0.137   6.047   0.634 -0.3074  0.0319 -0.4372
  887MOL0     C22282  -0.118   5.894   0.637  0.2974  0.1290 -0.8368
  887MOL0     C22283  -0.257   5.818   0.657 -0.0431  0.2051 -0.7189
  887MOL0     C22284  -0.236   5.671   0.609 -0.2378 -0.3194  0.2871
  887MOL0     N22285  -0.343   5.575   0.656 -0.1073  0.6187  0.5876
  887MOL0     C22286  -0.324   5.484   0.749  0.6900  0.0949 -1.1639
  887MOL0     C22287  -0.420   5.393   0.736 -0.1446  0.6994  0.5250
  887MOL0     C22288  -0.450   5.266   0.804  0.9086 -0.0300 -0.0017
  887MOL0     C22289  -0.500   5.291   0.949  0.1191 -0.3060  0.4193
  887MOL0     C22290  -0.568   5.156   0.999  0.3917 -0.5348  0.5672
  887MOL0     C22291  -0.645   5.175   1.141 -0.3953 -0.8393  0.2691
  887MOL0     O22292  -0.550   5.150   1.249  0.4041  0.7334  0.9145
  887MOL0     C22293  -0.557   5.219   1.366  0.6462 -0.2651  0.5504
  887MOL0     C22294  -0.452   5.211   1.458  0.6880 -0.2051 -0.2533
  887MOL0     C22295  -0.458   5.251   1.598 -0.1184 -0.4589  0.8565
  887MOL0     C22296  -0.326   5.255   1.666  0.2789 -0.6062 -0.6694
  887MOL0     C22297  -0.577   5.298   1.654  0.6669  0.0932 -0.0085
  887MOL0     C22298  -0.602   5.348   1.799 -0.1663  0.1411  0.8184
  887MOL0     O22299  -0.721   5.416   1.830 -1.0201 -0.6438 -0.0938
  887MOL0     C22300  -0.762   5.442   1.969  0.2495 -0.4617  0.0996
  887MOL0     C22301  -0.713   5.363   2.080 -0.1348 -0.5875  1.1493
  887MOL0     C22302  -0.787   5.379   2.204  0.2602  0.9467  0.0752
  887MOL0     C22303  -0.888   5.468   2.226 -0.0501 -0.1518 -0.2324
  887MOL0     O22304  -0.942   5.474   2.350  0.2356 -0.1202  0.4888
  887MOL0     C22305  -1.055   5.565   2.379 -0.1393  0.2247 -0.7892
  887MOL0     C22306  -1.126   5.513   2.498  0.4772 -0.2036 -0.4328
  887MOL0     C22307  -1.073   5.548   2.638  0.4778 -0.7920 -0.4174
  887MOL0     C22308  -1.103   5.697   2.656 -1.1070 -0.0492 -0.4769
  887MOL0     C22309  -1.098   5.731   2.814  0.2071  0.6685 -0.2316
  887MOL0     C22310  -1.139   5.874   2.842  0.0169  0.3149 -0.1722
  887MOL0     C22311  -1.105   5.898   2.995 -1.0403 -0.8116  0.9237
  887MOL0     C22312  -1.131   6.042   3.050 -0.2370  0.4289  0.7601
  887MOL0    Cl22313  -1.306   6.068   3.085  0.3721 -0.0191 -0.1721
  887MOL0     C22314  -0.924   5.547   2.115 -0.5358 -0.5357  0.1203
  887MOL0     C22315  -0.864   5.535   1.993  0.7807  0.1744 -0.1634
  887MOL0     O22316  -0.508   5.341   1.875 -0.6131  0.3928 -1.1335
  887MOL0     C22317  -0.684   5.311   1.561  0.3614  0.0443 -0.0574
  887MOL0     C22318  -0.677   5.274   1.425  0.2552  1.4504 -0.2070
  887MOL0     N22319  -0.487   5.418   0.618  0.3408  0.4902 -0.1372
  887MOL0     N22320  -0.443   5.527   0.573  0.3493  0.3119  0.4566
  887MOL0     C22321   0.369   6.284   0.214  0.4095  0.1993 -0.0225
  887MOL0     C22322   0.504   6.286   0.189 -1.1494 -0.4089 -0.3473
  887MOL0     C22323   0.929   6.294   0.108 -0.0041 -0.3177  0.2455
  887MOL0     C22324   0.998   6.205   0.193 -0.0742  0.6088 -0.5441
  887MOL0     C22325   1.121   6.148   0.158  0.0719 -0.0103  0.1683
  887MOL0     C22326   1.173   6.174   0.030 -0.5163 -0.4456 -0.6570
  887MOL0     O22327   1.288   6.116  -0.025  0.1731 -1.2617 -0.8692
  887MOL0     C22328   1.406   6.071   0.049  1.3966 -0.1239  0.2855
  887MOL0     C22329   1.431   5.923   0.080  0.6222 -0.0611  0.5326
  887MOL0     C22330   1.473   5.847  -0.055 -0.5767 -1.0346 -1.1812
  887MOL0     C22331   1.503   5.691  -0.036 -0.6879 -0.2742 -0.9363
  887MOL0     C22332   1.592   5.665   0.077  0.8694  0.7109 -0.3955
  887MOL0     C22333   1.669   5.631   0.164  0.6531  1.9163  0.3681
  887MOL0     C22334   1.121   6.292  -0.038 -1.0379  0.7544 -1.0376
  887MOL0     C22335   0.994   6.341  -0.004 -0.3056 -0.1456  0.1093
  887MOL0     C22336   0.928   6.432  -0.120 -0.6428 -0.4360  0.2249
  887MOL0     H22337   0.619   6.177   0.481  0.3828  3.6824  0.1963
  887MOL0     H22338   0.378   6.146   0.521 -0.0277 -1.2017 -0.5083
  887MOL0     H22339   0.189   6.440   0.404 -2.6671 -0.9100 -4.7871
  887MOL0     H22340   0.199   6.349   0.555  1.4589 -0.6621 -0.7509
  887MOL0     H22341  -0.013   6.468   0.459  2.1662  1.4666  0.0088
  887MOL0     H22342  -0.037   6.336   0.357  0.8036 -2.3106 -0.2151
  887MOL0     H22343  -0.046   6.315   0.654 -1.7038 -0.1450  1.0033
  887MOL0     H22344  -0.173   6.286   0.545  0.5206  0.3928  1.7691
  887MOL0     H22345  -0.031   6.077   0.445  2.1000  1.1881 -0.6316
  887MOL0     H22346   0.068   6.107   0.582  0.9554  2.4940  0.3855
  887MOL0     H22347  -0.235   6.066   0.589  0.4046 -1.7913 -3.0393
  887MOL0     H22348  -0.130   6.080   0.738 -0.3093 -1.2257 -0.0166
  887MOL0     H22349  -0.075   5.864   0.542 -0.5501  0.4486 -1.3342
  887MOL0     H22350  -0.044   5.859   0.709 -0.0591 -2.7819 -1.7755
  887MOL0     H22351  -0.338   5.859   0.596 -0.2767 -1.0913 -1.2973
  887MOL0     H22352  -0.297   5.816   0.759 -2.0664 -3.5531 -1.4169
  887MOL0     H22353  -0.234   5.670   0.500 -0.2044  3.2895  0.1126
  887MOL0     H22354  -0.141   5.628   0.642  0.5439  0.4132 -0.9257
  887MOL0     H22355  -0.253   5.477   0.830  1.6530 -3.1614 -2.1616
  887MOL0     H22356  -0.365   5.198   0.807  0.1543 -1.0799 -1.3252
  887MOL0     H22357  -0.535   5.217   0.756 -0.3793  1.5158  0.5837
  887MOL0     H22358  -0.419   5.316   1.018  2.8644 -6.3716 -0.0247
  887MOL0     H22359  -0.580   5.365   0.938  1.0089  0.8529  1.4522
  887MOL0     H22360  -0.637   5.112   0.926 -0.8948  3.2675 -0.7387
  887MOL0     H22361  -0.486   5.085   1.013 -0.5608 -1.6778  0.4520
  887MOL0     H22362  -0.697   5.271   1.143 -0.4664 -0.8772  0.2471
  887MOL0     H22363  -0.722   5.098   1.141  1.5134 -2.9599  3.0501
  887MOL0     H22364  -0.357   5.176   1.418 -0.3067 -2.4291 -0.8283
  887MOL0     H22365  -0.334   5.202   1.761 -1.2494 -1.5226 -1.2691
  887MOL0     H22366  -0.294   5.359   1.680 -0.7714 -0.2014 -1.2174
  887MOL0     H22367  -0.242   5.210   1.612  2.3042 -1.3987  2.8127
  887MOL0     H22368  -0.629   5.294   2.072  0.0299 -0.1921 -2.8121
  887MOL0     H22369  -0.764   5.338   2.302 -1.4035  2.9582  1.4051
  887MOL0     H22370  -1.018   5.666   2.400 -0.5440  0.4174 -0.9946
  887MOL0     H22371  -1.122   5.569   2.293  0.0325  1.5759 -0.8717
  887MOL0     H22372  -1.231   5.539   2.480  0.5030 -0.0905 -0.4197
  887MOL0     H22373  -1.126   5.403   2.497 -3.1298 -0.3361 -0.5808
  887MOL0     H22374  -0.966   5.528   2.651  0.7568  1.9813  3.4784
  887MOL0     H22375  -1.127   5.491   2.714  0.8865  0.4603  0.8713
  887MOL0     H22376  -1.204   5.730   2.630 -1.6016  0.2709  1.6487
  887MOL0     H22377  -1.019   5.750   2.609 -0.4214  0.1869  0.9437
  887MOL0     H22378  -1.163   5.661   2.867  1.0824  0.6872  0.9089
  887MOL0     H22379  -0.997   5.713   2.852  0.4042  2.6538  0.3099
  887MOL0     H22380  -1.240   5.892   2.805 -0.8042  0.3162  1.9678
  887MOL0     H22381  -1.072   5.945   2.794  0.8465 -0.4695 -0.2079
  887MOL0     H22382  -1.000   5.873   3.009  0.9064  2.5798 -4.3802
  887MOL0     H22383  -1.170   5.831   3.052 -3.0471 -0.0631 -0.3428
  887MOL0     H22384  -1.092   6.120   2.983 -0.9014 -0.4511 -0.7113
  887MOL0     H22385  -1.064   6.057   3.135  1.5149 -1.8834 -0.1169
  887MOL0     H22386  -1.008   5.617   2.114 -0.6064 -0.5327  1.9842
  887MOL0     H22387  -0.884   5.579   1.896 -0.9869 -0.2898 -0.0414
  887MOL0     H22388  -0.780   5.343   1.602  1.0260 -0.7041  2.2241
  887MOL0     H22389  -0.768   5.260   1.368  0.9821 -1.2114 -0.8996
  887MOL0     H22390   0.294   6.319   0.144 -2.3387 -2.6084  1.2523
  887MOL0     H22391   0.525   6.299   0.084  0.4241  1.2790  0.1272
  887MOL0     H22392   0.964   6.161   0.286  0.2253  1.7534  0.1246
  887MOL0     H22393   1.170   6.075   0.223 -1.9505 -2.1071 -0.5517
  887MOL0     H22394   1.495   6.112  -0.000  1.1918  0.0415  0.0505
  887MOL0     H22395   1.403   6.121   0.146  1.1909 -0.6939  0.5734
  887MOL0     H22396   1.341   5.885   0.129  0.2191  1.7214  1.2082
  887MOL0     H22397   1.513   5.901   0.149  0.5846  0.4024  0.7241
  887MOL0     H22398   1.389   5.853  -0.125 -0.6935 -1.3854 -1.0722
  887MOL0     H22399   1.551   5.911  -0.095 -4.0020  2.8426 -2.4041
  887MOL0     H22400   1.551   5.657  -0.128  2.7792 -1.6045  1.1848
  887MOL0     H22401   1.408   5.641  -0.012 -1.3262  1.0350 -0.6285
  887MOL0     H22402   1.745   5.595   0.230  0.9826 -0.7552 -1.3128
  887MOL0     H22403   1.181   6.307  -0.127 -0.3287 -2.9933 -1.3894
  887MOL0     H22404   0.884   6.526  -0.086  1.6253 -0.0255  2.3319
  887MOL0     H22405   1.005   6.452  -0.195  1.1525 -1.6762  1.6305
  887MOL0     H22406   0.852   6.377  -0.177 -0.5357  1.1920 -1.5740
  888MOL0     O22407   7.378   5.619   4.967  0.2269 -0.1457 -0.3058
  888MOL0     C22408   7.298   5.532   4.933  0.6745 -0.1104 -0.3453
  888MOL0     O22409   7.248   5.508   4.800  0.0467 -0.5855  0.0837
  888MOL0     C22410   7.305   5.576   4.693 -0.1223  0.1380  0.2767
  888MOL0     C22411   7.221   5.632   4.600  0.3676 -0.2435  0.2750
  888MOL0     C22412   7.274   5.726   4.506  0.1983 -0.0159  0.1461
  888MOL0     C22413   7.407   5.743   4.490  0.2974  0.7556 -0.0347
  888MOL0     O22414   7.461   5.820   4.396 -0.7751 -0.1637  0.7420
  888MOL0     C22415   7.407   5.953   4.373  0.3066 -0.0874  0.6219
  888MOL0     C22416   7.331   5.971   4.244  0.4547  0.0319  0.6868
  888MOL0     C22417   7.418   5.918   4.127 -0.4649  0.9174  0.1664
  888MOL0     C22418   7.372   5.782   4.079  0.7289  0.1190 -0.4458
  888MOL0     C22419   7.469   5.698   3.988 -1.0502 -0.8123  0.2129
  888MOL0     C22420   7.590   5.645   4.065  0.3056  0.6003 -0.3432
  888MOL0     C22421   7.668   5.530   3.992 -0.3659  0.0461  0.6621
  888MOL0     C22422   7.677   5.541   3.843  0.5471 -1.1938 -0.7484
  888MOL0     N22423   7.737   5.423   3.793 -0.1405  0.2212  1.3237
  888MOL0     C22424   7.664   5.317   3.770 -1.0213  0.8298 -0.6396
  888MOL0     C22425   7.758   5.214   3.763  0.4771 -0.4109  0.4160
  888MOL0     C22426   7.715   5.061   3.760 -0.0014 -0.1565  0.9402
  888MOL0     C22427   7.684   5.020   3.909 -0.0386 -0.9212 -0.0786
  888MOL0     C22428   7.623   4.877   3.931  0.2156 -0.9360  0.1713
  888MOL0     C22429   7.481   4.861   3.854 -0.4949 -0.1489  0.1320
  888MOL0     O22430   7.400   4.970   3.890  0.1102 -0.5556  1.4164
  888MOL0     C22431   7.261   4.966   3.870  0.0937  0.3882 -0.1698
  888MOL0     C22432   7.188   4.857   3.815  0.3956 -0.4439  0.4393
  888MOL0     C22433   7.049   4.865   3.802  0.2220  0.1153  0.3301
  888MOL0     C22434   6.986   4.755   3.723 -0.4914  0.3906  1.1024
  888MOL0     C22435   6.977   4.975   3.850 -0.0935  0.5544  0.5516
  888MOL0     C22436   6.836   4.999   3.833  0.9857 -0.2292  0.6191
  888MOL0     O22437   6.794   5.125   3.796 -0.4497 -0.3533 -0.1967
  888MOL0     C22438   6.662   5.160   3.813 -0.4941  0.3185 -0.2199
  888MOL0     C22439   6.612   5.161   3.935 -0.7822  0.0177 -0.4339
  888MOL0     C22440   6.486   5.185   3.961 -0.0556  0.0597 -0.0584
  888MOL0     C22441   6.391   5.207   3.860  1.0027  0.5769 -0.3455
  888MOL0     O22442   6.260   5.220   3.891 -0.5097 -0.1189 -0.3331
  888MOL0     C22443   6.189   5.327   3.817  1.0357  0.2474 -0.0664
  888MOL0     C22444   6.068   5.362   3.902  0.6878  0.1350 -0.2680
  888MOL0     C22445   5.967   5.468   3.848  0.6590  0.2182  0.1214
  888MOL0     C22446   6.041   5.584   3.789 -0.0997 -1.5514 -0.0815
  888MOL0     C22447   5.948   5.702   3.760  0.3233 -1.1472 -0.5174
  888MOL0     C22448   5.885   5.774   3.872 -0.2638  0.2763 -0.5924
  888MOL0     C22449   5.978   5.828   3.975  0.2633  0.1850 -0.0550
  888MOL0     C22450   5.913   5.914   4.081  1.2578 -0.2447  0.2340
  888MOL0    Cl22451   5.855   6.069   4.004  0.1935 -0.2540  0.3550
  888MOL0     C22452   6.438   5.201   3.724  0.6245 -0.1598  0.6573
  888MOL0     C22453   6.575   5.178   3.705 -1.1135  1.1364 -0.3143
  888MOL0     O22454   6.755   4.904   3.845 -1.0905 -0.1023  0.3208
  888MOL0     C22455   7.056   5.076   3.914  0.2799 -0.1649 -0.3891
  888MOL0     C22456   7.195   5.069   3.925  0.3676  0.3996 -0.5219
  888MOL0     N22457   7.886   5.272   3.767 -0.5964  0.3713  0.0511
  888MOL0     N22458   7.866   5.396   3.779 -0.4016  0.1814 -0.5623
  888MOL0     C22459   7.498   5.666   4.566  0.7874 -0.5756  0.1515
  888MOL0     C22460   7.444   5.587   4.674  0.1795 -0.3169  1.3046
  888MOL0     C22461   7.245   5.446   5.039  1.1557  0.0475 -0.2233
  888MOL0     C22462   7.156   5.344   4.997  0.9329  0.8778  0.0745
  888MOL0     C22463   7.104   5.255   5.087  0.0093 -0.4487 -0.8790
  888MOL0     C22464   7.135   5.251   5.219  0.4104  0.6004 -0.8453
  888MOL0     O22465   7.081   5.169   5.319 -0.2893  0.0462 -0.0153
  888MOL0     C22466   6.947   5.120   5.296  0.6693  0.2319  1.0662
  888MOL0     C22467   6.872   5.078   5.417 -0.0068 -0.3354  0.2741
  888MOL0     C22468   6.779   5.182   5.496  0.3681  0.3692  0.0777
  888MOL0     C22469   6.695   5.272   5.412  0.0909 -0.2491 -1.0946
  888MOL0     C22470   6.595   5.195   5.338 -1.1151  0.4678  0.7897
  888MOL0     C22471   6.518   5.148   5.258  0.0373 -0.2569  0.8993
  888MOL0     C22472   7.221   5.356   5.265 -1.2599 -0.2596 -0.8553
  888MOL0     C22473   7.275   5.456   5.182 -0.3129  0.5913 -0.4108
  888MOL0     C22474   7.349   5.568   5.249  0.3474 -0.4835 -0.1509
  888MOL0     H22475   7.116   5.613   4.616  0.5829 -0.5027  1.4901
  888MOL0     H22476   7.210   5.774   4.433 -0.0758 -0.8683 -0.1847
  888MOL0     H22477   7.496   6.015   4.356 -0.3457  1.7113  3.2129
  888MOL0     H22478   7.359   5.992   4.462 -0.9901  1.8771 -0.8583
  888MOL0     H22479   7.232   5.925   4.240 -0.4120  1.8638 -1.4217
  888MOL0     H22480   7.289   6.072   4.231 -0.2873 -0.3995 -0.5462
  888MOL0     H22481   7.414   5.987   4.042 -0.3887  1.7133  0.7988
  888MOL0     H22482   7.522   5.910   4.159 -0.7584  2.5527  1.6330
  888MOL0     H22483   7.349   5.723   4.168  1.0035  0.8014  0.0824
  888MOL0     H22484   7.281   5.796   4.020 -0.1791 -1.9152  0.3811
  888MOL0     H22485   7.512   5.758   3.908 -0.4548 -1.9039 -0.3048
  888MOL0     H22486   7.418   5.612   3.942  0.4109 -1.2943 -0.5737
  888MOL0     H22487   7.660   5.727   4.084  0.1111  1.8564 -4.1601
  888MOL0     H22488   7.549   5.621   4.164 -1.5393 -2.0322 -1.6411
  888MOL0     H22489   7.615   5.437   4.014 -0.2844 -1.0897 -3.2206
  888MOL0     H22490   7.769   5.518   4.030  0.1773 -2.3064 -1.3027
  888MOL0     H22491   7.579   5.562   3.799 -0.3341  0.2704  1.7239
  888MOL0     H22492   7.737   5.631   3.829 -3.7977  2.1500  0.2446
  888MOL0     H22493   7.556   5.316   3.769 -1.1002  0.2982 -4.2940
  888MOL0     H22494   7.792   4.996   3.717  0.9033  1.9154 -0.8087
  888MOL0     H22495   7.629   5.047   3.694  2.6666 -4.1422 -2.1776
  888MOL0     H22496   7.785   5.014   3.951 -0.3028 -1.7845  0.4723
  888MOL0     H22497   7.632   5.096   3.968  0.7536 -0.1906 -0.3003
  888MOL0     H22498   7.689   4.797   3.893  0.8921 -0.8189  1.0801
  888MOL0     H22499   7.621   4.845   4.035 -0.2625 -0.0996  0.4168
  888MOL0     H22500   7.491   4.871   3.746  0.6687  1.4348  0.3381
  888MOL0     H22501   7.432   4.768   3.882 -0.5815  0.7820  3.5435
  888MOL0     H22502   7.232   4.762   3.788 -1.3093 -1.2173  0.2513
  888MOL0     H22503   7.059   4.698   3.664 -1.5241  0.8116 -0.6459
  888MOL0     H22504   6.900   4.784   3.662 -0.5958 -0.6727  0.7278
  888MOL0     H22505   6.947   4.693   3.804  1.0453  1.8234  3.0284
  888MOL0     H22506   6.673   5.130   4.019  0.7881  0.9650 -1.1802
  888MOL0     H22507   6.469   5.183   4.068 -2.3194  1.0363 -0.3509
  888MOL0     H22508   6.249   5.417   3.808 -1.3672  1.8106 -1.7304
  888MOL0     H22509   6.156   5.287   3.720 -1.3088  1.1961  0.2758
  888MOL0     H22510   5.997   5.280   3.912  0.5171  0.5740  3.3039
  888MOL0     H22511   6.104   5.395   3.999  1.4561 -2.5188  0.4085
  888MOL0     H22512   5.911   5.499   3.937 -1.0520  0.6360 -1.0638
  888MOL0     H22513   5.896   5.423   3.778  1.9337  1.5543 -2.1667
  888MOL0     H22514   6.098   5.549   3.703  3.7162  2.5844  0.3340
  888MOL0     H22515   6.119   5.618   3.858 -2.9260 -0.0015  2.6252
  888MOL0     H22516   5.992   5.777   3.694 -2.8388  1.5555  0.1563
  888MOL0     H22517   5.862   5.660   3.708  0.3998 -1.6342 -0.2664
  888MOL0     H22518   5.812   5.707   3.920 -0.5369  0.5053 -0.6810
  888MOL0     H22519   5.825   5.847   3.817 -0.8467 -1.0731 -1.8284
  888MOL0     H22520   6.045   5.895   3.921 -2.1032  4.1826  1.5494
  888MOL0     H22521   6.049   5.752   4.009  1.9496  1.6967 -0.0548
  888MOL0     H22522   5.983   5.923   4.164 -1.9747  0.1735  3.1230
  888MOL0     H22523   5.825   5.861   4.119 -1.2607  3.8902  0.7900
  888MOL0     H22524   6.368   5.227   3.644 -0.0345  0.7813  1.5121
  888MOL0     H22525   6.630   5.165   3.612  3.8518 -1.8552  2.5755
  888MOL0     H22526   7.011   5.166   3.955  2.2689  1.8583 -2.3677
  888MOL0     H22527   7.249   5.149   3.974 -0.6280 -0.2120  1.7197
  888MOL0     H22528   7.602   5.659   4.534  0.4281  0.5486 -1.4079
  888MOL0     H22529   7.513   5.526   4.731  2.3131 -0.1829 -0.9599
  888MOL0     H22530   7.130   5.322   4.895 -0.3296 -0.1166  0.5881
  888MOL0     H22531   7.045   5.170   5.053 -0.5970 -0.7714  0.8390
  888MOL0     H22532   6.890   5.195   5.241  0.6192 -3.0002 -3.8622
  888MOL0     H22533   6.961   5.038   5.226 -2.0009  0.8304 -0.3080
  888MOL0     H22534   6.941   5.051   5.497  4.6016  3.9797 -1.7054
  888MOL0     H22535   6.809   4.997   5.379 -0.2584 -0.5579  1.1560
  888MOL0     H22536   6.719   5.142   5.578  0.0065  0.2490 -0.2440
  888MOL0     H22537   6.852   5.248   5.545 -1.3805  0.5544  2.6368
  888MOL0     H22538   6.763   5.327   5.346  2.6129 -3.3197 -1.2720
  888MOL0     H22539   6.643   5.345   5.474 -0.0895 -1.0300 -0.3132
  888MOL0     H22540   6.452   5.083   5.204  2.7457  0.2429 -3.4525
  888MOL0     H22541   7.242   5.363   5.372  0.5621 -1.8940 -1.0477
  888MOL0     H22542   7.340   5.545   5.356  2.0950 -2.8735 -0.4346
  888MOL0     H22543   7.456   5.569   5.228  0.2370 -2.2839 -0.9838
  888MOL0     H22544   7.313   5.669   5.228  3.3693  0.4228 -1.4518
  889MOL0     O22545   9.521   4.951   6.646  0.3121  0.1538  0.2167
  889MOL0     C22546   9.482   4.848   6.695 -0.7156 -0.6436  1.1872
  889MOL0     O22547   9.554   4.766   6.786  1.0084 -0.1879 -0.6363
  889MOL0     C22548   9.657   4.817   6.860 -0.5622 -0.2775  0.4747
  889MOL0     C22549   9.684   4.955   6.883  0.7039 -0.1727 -0.1811
  889MOL0     C22550   9.793   4.985   6.958  0.4362 -0.1348 -0.1360
  889MOL0     C22551   9.872   4.888   7.016 -0.0715 -0.5528 -1.2180
  889MOL0     O22552   9.972   4.908   7.112 -0.3506  0.0506  0.5246
  889MOL0     C22553   9.950   5.012   7.202  0.0749  0.5022 -0.7095
  889MOL0     C22554  10.052   5.004   7.320 -0.1243 -0.8258 -0.3660
  889MOL0     C22555  10.198   5.035   7.279  0.2160 -0.1007 -0.1104
  889MOL0     C22556  10.223   5.179   7.255  0.5211  0.3986  0.0843
  889MOL0     C22557  10.376   5.208   7.250  0.0997  0.8368  0.4735
  889MOL0     C22558  10.404   5.356   7.258 -0.6276 -0.3952 -0.6546
  889MOL0     C22559  10.384   5.435   7.130  0.5077  0.7981  0.5473
  889MOL0     C22560  10.422   5.583   7.162  0.8288  0.9720  0.3192
  889MOL0     N22561  10.333   5.642   7.255 -0.7694 -0.1946  0.0809
  889MOL0     C22562  10.253   5.742   7.220  0.4248  0.0463  0.8111
  889MOL0     C22563  10.211   5.803   7.339  0.3510  0.6690 -0.5248
  889MOL0     C22564  10.123   5.921   7.340 -0.6506 -0.7615  0.0027
  889MOL0     C22565   9.985   5.899   7.287  0.0770 -0.3490 -1.0512
  889MOL0     C22566   9.894   6.008   7.318  0.1260 -0.4382 -0.5909
  889MOL0     C22567   9.760   5.974   7.236  0.6264 -0.2015 -1.2692
  889MOL0     O22568   9.660   6.049   7.306 -0.2714  0.0589 -0.8714
  889MOL0     C22569   9.583   6.136   7.233  0.6365  0.0772 -0.7785
  889MOL0     C22570   9.548   6.138   7.095  0.4154  1.2615 -0.5180
  889MOL0     C22571   9.464   6.236   7.037 -0.0737  0.0768  0.5150
  889MOL0     C22572   9.429   6.221   6.892 -0.4918  0.0625  0.5492
  889MOL0     C22573   9.409   6.334   7.121  0.2029 -0.1469 -0.1884
  889MOL0     C22574   9.323   6.443   7.071 -0.1490  0.1497  0.1114
  889MOL0     O22575   9.329   6.562   7.142  0.6334 -0.5285 -0.1695
  889MOL0     C22576   9.266   6.671   7.083  0.6347  0.2153  0.0807
  889MOL0     C22577   9.129   6.672   7.075  0.0569  0.1517  0.1327
  889MOL0     C22578   9.069   6.776   6.996 -0.3404  0.5510 -0.2529
  889MOL0     C22579   9.144   6.891   6.955  0.9647 -0.3434  0.5613
  889MOL0     O22580   9.063   6.998   6.907 -0.4462  0.2222  0.5324
  889MOL0     C22581   9.138   7.115   6.871 -0.3619  0.5272 -0.7122
  889MOL0     C22582   9.041   7.228   6.852 -0.3089 -0.0546 -0.8257
  889MOL0     C22583   9.079   7.369   6.824 -0.1550  0.0419 -0.2151
  889MOL0     C22584   8.991   7.426   6.713 -0.3101 -0.7009 -0.1087
  889MOL0     C22585   9.022   7.577   6.676  0.5020  0.4803 -0.1238
  889MOL0     C22586   8.907   7.667   6.723  0.9390  0.1526  0.0188
  889MOL0     C22587   8.939   7.815   6.694 -0.8792  0.2631  0.5519
  889MOL0     C22588   9.010   7.843   6.556 -0.0850  0.9855  0.0338
  889MOL0    Cl22589   8.980   8.015   6.500  0.3489  0.3312  0.5002
  889MOL0     C22590   9.283   6.891   6.970  0.4973 -1.4560  0.0656
  889MOL0     C22591   9.339   6.776   7.027 -0.1614  0.6154 -0.4053
  889MOL0     O22592   9.266   6.432   6.964  0.4464 -0.5630  0.3489
  889MOL0     C22593   9.431   6.329   7.258 -0.6591 -0.3573  1.1145
  889MOL0     C22594   9.521   6.238   7.308  0.4767  0.2552 -0.3828
  889MOL0     N22595  10.283   5.744   7.439  0.5281  0.4226  0.2019
  889MOL0     N22596  10.355   5.648   7.389 -0.2640 -0.5882 -0.1678
  889MOL0     C22597   9.849   4.758   6.988  0.7345  0.6276 -0.7764
  889MOL0     C22598   9.742   4.717   6.908 -0.1219 -0.5257 -0.8365
  889MOL0     C22599   9.341   4.808   6.676 -0.8740  0.6722  0.2331
  889MOL0     C22600   9.325   4.671   6.639 -0.2802  0.4370  0.6853
  889MOL0     C22601   9.192   4.619   6.628  0.0449  0.6910 -0.0431
  889MOL0     C22602   9.088   4.709   6.655 -0.2791  0.0624  0.3286
  889MOL0     O22603   8.956   4.681   6.635 -0.3749 -1.3382 -0.4554
  889MOL0     C22604   8.907   4.565   6.700 -0.7873  0.6237  0.5963
  889MOL0     C22605   8.766   4.517   6.659  0.0414 -0.2532  0.0987
  889MOL0     C22606   8.730   4.501   6.511 -0.7164 -0.4089 -0.7805
  889MOL0     C22607   8.797   4.389   6.439  0.2737 -0.4734 -0.7477
  889MOL0     C22608   8.701   4.343   6.337 -0.3715  0.0354  0.2036
  889MOL0     C22609   8.622   4.282   6.257 -0.4263  0.3131 -0.5226
  889MOL0     C22610   9.107   4.839   6.690  0.0667  0.0580 -0.1384
  889MOL0     C22611   9.235   4.884   6.707  0.8447 -0.0615 -0.1371
  889MOL0     C22612   9.249   5.025   6.767 -0.4935  0.3270  0.1160
  889MOL0     H22613   9.617   5.037   6.858  2.9654  0.7908 -3.8494
  889MOL0     H22614   9.820   5.086   6.988 -2.3978  0.3852  0.9932
  889MOL0     H22615   9.851   4.993   7.245 -0.2846 -2.6812 -2.6121
  889MOL0     H22616   9.961   5.110   7.157  0.9101  0.6285 -0.2536
  889MOL0     H22617  10.032   5.077   7.399 -1.5639 -1.9754  0.3721
  889MOL0     H22618  10.050   4.904   7.364  2.9108 -1.1638 -0.7512
  889MOL0     H22619  10.260   5.013   7.367  2.0283  0.1724 -1.2701
  889MOL0     H22620  10.238   4.977   7.196  1.1115  1.6476 -0.9497
  889MOL0     H22621  10.168   5.223   7.171  0.3711  2.7177  1.2927
  889MOL0     H22622  10.184   5.245   7.333 -1.9490 -1.2679  0.3594
  889MOL0     H22623  10.415   5.166   7.157 -1.2767 -2.2698  1.1353
  889MOL0     H22624  10.420   5.159   7.337 -1.5457 -1.4278  0.1426
  889MOL0     H22625  10.344   5.398   7.340  3.7405  3.8890  0.8829
  889MOL0     H22626  10.508   5.371   7.289 -0.4319 -1.1886 -0.9283
  889MOL0     H22627  10.280   5.425   7.099  0.0773 -3.4383  2.4861
  889MOL0     H22628  10.456   5.398   7.057  0.6706 -3.5631  2.5587
  889MOL0     H22629  10.520   5.587   7.209 -0.1034  0.7916  2.3687
  889MOL0     H22630  10.442   5.649   7.077  0.5726  1.8904  0.9524
  889MOL0     H22631  10.219   5.776   7.123  0.5170  1.0421  1.1247
  889MOL0     H22632  10.177   6.004   7.294 -2.5124  0.9102  0.6814
  889MOL0     H22633  10.106   5.947   7.445 -1.6334 -1.7110  0.1053
  889MOL0     H22634   9.999   5.873   7.182 -1.9556 -2.7193 -0.8307
  889MOL0     H22635   9.951   5.814   7.348 -0.2015  0.2446 -0.3658
  889MOL0     H22636   9.883   6.008   7.427  1.1724 -0.1934 -0.4778
  889MOL0     H22637   9.924   6.106   7.282  1.2256 -2.2029 -5.2123
  889MOL0     H22638   9.769   6.016   7.135  1.3100  2.0126 -0.3480
  889MOL0     H22639   9.728   5.870   7.247 -3.3084  0.9037 -0.9020
  889MOL0     H22640   9.600   6.065   7.033 -2.3107 -3.6146  2.3323
  889MOL0     H22641   9.472   6.135   6.839  1.0810  1.5224 -0.6467
  889MOL0     H22642   9.479   6.307   6.846 -1.0701  0.4609  0.6648
  889MOL0     H22643   9.321   6.230   6.879 -0.4533  0.0026  0.1878
  889MOL0     H22644   9.057   6.596   7.104 -2.1466  0.9077 -2.8688
  889MOL0     H22645   8.965   6.753   6.975 -0.1563 -1.3900  0.7600
  889MOL0     H22646   9.206   7.145   6.951 -0.0320 -1.3001 -0.2715
  889MOL0     H22647   9.188   7.099   6.775  0.8577 -1.7050  0.2208
  889MOL0     H22648   8.963   7.195   6.782 -2.0908  1.7169  0.2060
  889MOL0     H22649   8.988   7.224   6.948 -1.0540 -3.1515 -1.2726
  889MOL0     H22650   9.186   7.379   6.809 -0.0637  0.2175  0.5177
  889MOL0     H22651   9.031   7.426   6.904  3.1285  0.3267  1.7335
  889MOL0     H22652   8.887   7.423   6.749 -0.0858  0.7225  0.7447
  889MOL0     H22653   8.992   7.359   6.627 -1.7838 -2.8138  1.4096
  889MOL0     H22654   9.123   7.600   6.712  0.0411  0.5873  1.1477
  889MOL0     H22655   9.004   7.581   6.569 -3.7316  0.7943  0.4261
  889MOL0     H22656   8.877   7.653   6.827  0.1155  1.1621 -0.0653
  889MOL0     H22657   8.818   7.647   6.663  1.6652  1.8622 -1.7547
  889MOL0     H22658   8.998   7.852   6.778 -0.7546  1.6800 -0.1185
  889MOL0     H22659   8.850   7.878   6.701 -1.0920 -0.1083  1.2271
  889MOL0     H22660   8.970   7.778   6.478 -1.9331 -0.3965  2.0148
  889MOL0     H22661   9.116   7.829   6.579 -0.0515  2.6367  1.1488
  889MOL0     H22662   9.348   6.976   6.949 -2.6165  1.4174  1.1758
  889MOL0     H22663   9.447   6.766   7.026  0.0230  2.3769 -1.4042
  889MOL0     H22664   9.401   6.412   7.321  0.5466  2.5212 -1.8259
  889MOL0     H22665   9.540   6.231   7.415  1.4335 -3.4927 -0.6730
  889MOL0     H22666   9.910   4.681   7.034 -0.4369 -0.0654 -0.3412
  889MOL0     H22667   9.713   4.614   6.888 -1.4397  0.1404 -2.6379
  889MOL0     H22668   9.404   4.606   6.603 -1.3366  1.1940 -3.6236
  889MOL0     H22669   9.160   4.519   6.602  2.1658 -1.0729  3.5039
  889MOL0     H22670   8.966   4.478   6.669 -2.3729 -0.7893  1.3512
  889MOL0     H22671   8.927   4.580   6.807  0.6472 -3.4182  1.0921
  889MOL0     H22672   8.696   4.583   6.712 -0.7436 -2.8701  2.5668
  889MOL0     H22673   8.747   4.414   6.692 -2.2992 -0.8628 -2.7669
  889MOL0     H22674   8.622   4.485   6.509 -1.0146  1.1050  0.7048
  889MOL0     H22675   8.737   4.601   6.469 -3.6726  0.7753  1.1780
  889MOL0     H22676   8.827   4.308   6.506 -1.0060  1.9242  3.0564
  889MOL0     H22677   8.881   4.440   6.391  1.0290  1.9916  2.7173
  889MOL0     H22678   8.540   4.242   6.200 -1.9337  0.8331  1.1698
  889MOL0     H22679   9.023   4.905   6.708  2.2039  3.0326 -0.1197
  889MOL0     H22680   9.308   5.015   6.859  0.9447 -0.8080 -0.8816
  889MOL0     H22681   9.297   5.094   6.698  1.3150 -0.0773  0.9249
  889MOL0     H22682   9.148   5.060   6.789 -1.3975 -0.3755 -2.5089
  890MOL0     O22683   2.284   0.528   7.939 -0.1568  0.6523 -0.0699
  890MOL0     C22684   2.249   0.462   8.037  0.2722 -0.4634  0.0509
  890MOL0     O22685   2.184   0.343   8.033 -1.0635 -0.6826 -0.2102
  890MOL0     C22686   2.158   0.273   7.911  0.1718 -0.1406  0.5021
  890MOL0     C22687   2.109   0.330   7.787 -0.2158 -0.6455 -0.1559
  890MOL0     C22688   2.057   0.258   7.687 -0.3039  0.5366  0.3848
  890MOL0     C22689   2.058   0.117   7.694  0.6739  0.7327 -0.3663
  890MOL0     O22690   1.999   0.026   7.597  0.3513  0.0324  0.1227
  890MOL0     C22691   1.952   0.072   7.468 -0.2042  0.3553  1.1676
  890MOL0     C22692   1.847  -0.020   7.407  0.2426 -0.3807 -0.2433
  890MOL0     C22693   1.787   0.041   7.283  0.3113 -0.3793  0.3245
  890MOL0     C22694   1.711  -0.073   7.208  1.2657  0.1798 -0.1930
  890MOL0     C22695   1.647  -0.035   7.075 -0.0593 -0.1275 -0.5827
  890MOL0     C22696   1.530  -0.123   7.043  0.3428 -0.0714 -0.6862
  890MOL0     C22697   1.468  -0.095   6.913 -0.0630  0.2025  0.0314
  890MOL0     C22698   1.332  -0.164   6.904  1.1897 -0.4379  0.9173
  890MOL0     N22699   1.226  -0.090   6.816  0.0872  0.5978 -0.1498
  890MOL0     C22700   1.232  -0.092   6.673 -0.2057 -1.1998 -0.7331
  890MOL0     C22701   1.117  -0.033   6.640  0.5680 -0.5843 -0.4842
  890MOL0     C22702   1.069  -0.023   6.495  0.0792  0.5107 -0.4138
  890MOL0     C22703   1.140  -0.121   6.397 -0.1988  0.0696  0.2254
  890MOL0     C22704   1.043  -0.190   6.314  0.0052  0.3074  0.6512
  890MOL0     C22705   0.991  -0.093   6.214  0.0790  0.4212 -0.4929
  890MOL0     O22706   0.921  -0.169   6.121 -0.4418 -0.6688 -0.2113
  890MOL0     C22707   0.863  -0.118   6.010  0.2574 -0.9224 -1.0153
  890MOL0     C22708   0.852  -0.207   5.901 -0.7121 -0.6740  0.6322
  890MOL0     C22709   0.805  -0.167   5.779 -0.1876 -1.1124 -1.2774
  890MOL0     C22710   0.818  -0.262   5.670 -0.9463 -0.8626 -0.3623
  890MOL0     C22711   0.753  -0.036   5.758  0.9577  0.1530 -0.3411
  890MOL0     C22712   0.695   0.016   5.631 -0.7615  0.2626  0.8511
  890MOL0     O22713   0.655  -0.068   5.531 -0.6896  0.4128  0.1806
  890MOL0     C22714   0.611  -0.019   5.413 -0.6181 -0.7310  1.1621
  890MOL0     C22715   0.693  -0.019   5.307 -0.3236 -0.1331  0.5181
  890MOL0     C22716   0.662   0.023   5.177  0.3653  0.3124 -0.0096
  890MOL0     C22717   0.539   0.058   5.147 -0.6601 -1.0516  0.2028
  890MOL0     O22718   0.485   0.078   5.019 -0.0205 -0.3558  0.3228
  890MOL0     C22719   0.541   0.188   4.946 -0.8088 -0.2576 -0.7583
  890MOL0     C22720   0.446   0.238   4.844  0.9684  0.3886  0.5398
  890MOL0     C22721   0.438   0.161   4.717 -0.6589  0.3603  0.6678
  890MOL0     C22722   0.510   0.223   4.597  0.0569  0.4676  0.1236
  890MOL0     C22723   0.483   0.159   4.463  0.4193  0.9377 -0.4022
  890MOL0     C22724   0.590   0.043   4.449 -0.3455 -0.0124 -0.0662
  890MOL0     C22725   0.566  -0.020   4.312 -0.2941 -1.0934 -0.3810
  890MOL0     C22726   0.673   0.019   4.208  0.2461 -0.1142 -0.5321
  890MOL0    Cl22727   0.711   0.189   4.214  0.1667  0.6402  0.4199
  890MOL0     C22728   0.452   0.055   5.254 -0.8061 -0.7994  0.4658
  890MOL0     C22729   0.483   0.021   5.384 -0.7646  0.2834  0.8303
  890MOL0     O22730   0.682   0.140   5.629  0.6812  0.0022  0.5633
  890MOL0     C22731   0.760   0.047   5.866  0.7363 -0.5594 -0.3897
  890MOL0     C22732   0.817   0.011   5.984  0.3579  0.9726 -0.4805
  890MOL0     N22733   1.044   0.002   6.756 -0.4172  0.0531 -0.1772
  890MOL0     N22734   1.107  -0.035   6.858 -0.1696  0.8079 -0.2807
  890MOL0     C22735   2.108   0.057   7.804  0.8079 -0.4677  0.2621
  890MOL0     C22736   2.154   0.134   7.914  0.0600 -0.0777  0.0200
  890MOL0     C22737   2.263   0.529   8.171 -0.6438  0.3086 -0.5160
  890MOL0     C22738   2.290   0.667   8.182 -0.1787 -0.5374 -0.0235
  890MOL0     C22739   2.315   0.736   8.299  0.0859  0.5445  0.0131
  890MOL0     C22740   2.302   0.672   8.423 -0.1242  0.8443  0.1899
  890MOL0     O22741   2.333   0.721   8.550 -0.4012  0.9354  0.1946
  890MOL0     C22742   2.403   0.854   8.561 -1.0896  0.1487 -0.0231
  890MOL0     C22743   2.452   0.885   8.705  1.1727  0.1321 -0.0150
  890MOL0     C22744   2.551   0.785   8.763  0.4797  0.1289  0.2793
  890MOL0     C22745   2.582   0.826   8.909  1.2557  0.3137  0.6609
  890MOL0     C22746   2.676   0.731   8.962 -0.5253  0.0333 -0.1404
  890MOL0     C22747   2.758   0.662   9.021  0.2468  0.1493 -0.4710
  890MOL0     C22748   2.262   0.535   8.421  0.3238  0.3897  0.6318
  890MOL0     C22749   2.243   0.463   8.302 -0.2569 -0.5306  0.1149
  890MOL0     C22750   2.222   0.310   8.325 -0.4298  0.2705  0.1679
  890MOL0     H22751   2.104   0.438   7.785 -1.0428 -0.5653  2.3304
  890MOL0     H22752   2.021   0.303   7.596  0.0817 -0.5278 -0.3186
  890MOL0     H22753   2.037   0.082   7.400 -0.7721  2.2503  0.6685
  890MOL0     H22754   1.916   0.175   7.466  0.1736  0.4938  1.4049
  890MOL0     H22755   1.886  -0.121   7.393 -0.5180 -0.7316  0.1191
  890MOL0     H22756   1.763  -0.039   7.475  0.2685 -0.2070 -0.1616
  890MOL0     H22757   1.717   0.119   7.313  1.9717  1.5866 -0.6376
  890MOL0     H22758   1.861   0.096   7.223 -0.7842  1.1094  0.3019
  890MOL0     H22759   1.780  -0.157   7.191  1.0902 -0.3806  1.6723
  890MOL0     H22760   1.624  -0.100   7.269  1.7771  0.5062  0.6961
  890MOL0     H22761   1.716  -0.044   6.990 -2.8538  1.6177 -3.2638
  890MOL0     H22762   1.606   0.066   7.064 -2.6796 -1.3198 -3.0080
  890MOL0     H22763   1.569  -0.225   7.053  0.9520  0.3038  1.3373
  890MOL0     H22764   1.456  -0.104   7.121  2.2845  1.6852  0.8756
  890MOL0     H22765   1.540  -0.116   6.834 -0.9406  0.8724 -0.9770
  890MOL0     H22766   1.457   0.013   6.901 -0.0453 -0.0946 -3.6316
  890MOL0     H22767   1.351  -0.260   6.855 -0.7102 -1.4390  2.0091
  890MOL0     H22768   1.292  -0.193   7.001 -2.4764  0.6943 -0.0852
  890MOL0     H22769   1.307  -0.126   6.602 -0.3593 -3.8961  0.3023
  890MOL0     H22770   1.080   0.075   6.449  0.6305  1.1113  0.9182
  890MOL0     H22771   0.962  -0.041   6.488  0.1198  1.0471 -4.3060
  890MOL0     H22772   1.215  -0.078   6.330  1.5299 -0.7842  1.5216
  890MOL0     H22773   1.196  -0.198   6.451  1.4426  0.6592 -0.5542
  890MOL0     H22774   1.082  -0.274   6.256 -0.9686  1.8280 -2.5004
  890MOL0     H22775   0.956  -0.220   6.372  0.1113 -0.8438  0.2357
  890MOL0     H22776   0.922  -0.025   6.264 -0.0648 -1.1399  1.5306
  890MOL0     H22777   1.072  -0.039   6.163  1.1029  3.4555  3.8113
  890MOL0     H22778   0.896  -0.305   5.915 -2.6628 -1.8113 -0.7066
  890MOL0     H22779   0.880  -0.346   5.703 -0.0073  0.8257  2.5801
  890MOL0     H22780   0.866  -0.212   5.586  0.7924 -0.5456  0.7587
  890MOL0     H22781   0.720  -0.305   5.650 -0.7230 -1.7024  0.2735
  890MOL0     H22782   0.790  -0.067   5.321  0.1086  0.0582 -1.5073
  890MOL0     H22783   0.728   0.007   5.092 -1.1726  1.8144 -1.5655
  890MOL0     H22784   0.574   0.271   5.009  0.2844 -1.9798  1.0230
  890MOL0     H22785   0.624   0.145   4.889 -0.9003  1.2122 -2.0689
  890MOL0     H22786   0.351   0.240   4.900  0.8267 -0.6606  0.3620
  890MOL0     H22787   0.465   0.339   4.808  1.9723 -1.0823 -3.6035
  890MOL0     H22788   0.333   0.148   4.688 -0.2857 -1.4576  0.0172
  890MOL0     H22789   0.480   0.062   4.735  2.5085  0.8783 -2.6273
  890MOL0     H22790   0.615   0.198   4.612 -0.3451 -0.9038  0.7884
  890MOL0     H22791   0.479   0.328   4.585 -3.8616 -0.6810 -1.6935
  890MOL0     H22792   0.387   0.106   4.465  1.7960 -1.7346  2.2817
  890MOL0     H22793   0.495   0.232   4.381  2.4795  2.1820  0.9137
  890MOL0     H22794   0.573  -0.043   4.516  0.4346  2.8214  4.1580
  890MOL0     H22795   0.689   0.089   4.457  0.0936 -1.0632  0.9648
  890MOL0     H22796   0.469   0.011   4.271 -1.7768 -0.3232  3.2760
  890MOL0     H22797   0.564  -0.129   4.314  2.5385 -1.1986 -0.0622
  890MOL0     H22798   0.621  -0.017   4.119 -1.2916 -1.6900  0.9227
  890MOL0     H22799   0.767  -0.035   4.225  1.1708  1.5644 -0.0899
  890MOL0     H22800   0.352   0.085   5.223 -0.0184  1.2147 -0.3220
  890MOL0     H22801   0.416   0.039   5.467 -3.3209  2.1945 -1.4501
  890MOL0     H22802   0.720   0.148   5.869  0.0377 -0.7063 -2.6578
  890MOL0     H22803   0.821   0.087   6.062  2.4977 -0.7631  1.2623
  890MOL0     H22804   2.112  -0.052   7.810 -1.7710 -0.6218  0.3763
  890MOL0     H22805   2.197   0.090   8.003  0.7870 -1.5001 -0.9844
  890MOL0     H22806   2.312   0.730   8.097  2.6476 -1.1712  0.1182
  890MOL0     H22807   2.316   0.844   8.288  0.9087  0.6560  1.0531
  890MOL0     H22808   2.492   0.856   8.497 -0.4513  2.8886  0.8365
  890MOL0     H22809   2.330   0.930   8.531  0.0235  1.3251  0.1626
  890MOL0     H22810   2.366   0.883   8.772  0.2555  0.4758 -1.1426
  890MOL0     H22811   2.500   0.983   8.714  1.7659  0.1687 -2.5908
  890MOL0     H22812   2.518   0.681   8.759  1.6713 -0.2694  0.4159
  890MOL0     H22813   2.646   0.789   8.709  1.2016 -4.0215  0.8870
  890MOL0     H22814   2.489   0.824   8.966  1.1817  1.9725  0.6333
  890MOL0     H22815   2.625   0.926   8.916  4.4556 -0.5931 -2.8840
  890MOL0     H22816   2.832   0.604   9.072  0.3427  1.6209  1.1711
  890MOL0     H22817   2.237   0.480   8.511 -2.5187 -1.6460 -1.2157
  890MOL0     H22818   2.280   0.249   8.254 -0.2516  2.6063 -1.8505
  890MOL0     H22819   2.271   0.280   8.417 -1.0710 -0.5285  0.2601
  890MOL0     H22820   2.117   0.280   8.327 -0.1228 -1.2953 -2.3868
  891MOL0     O22821   9.463   3.500   7.130  0.7370  0.1827  0.3268
  891MOL0     C22822   9.542   3.416   7.179 -0.5147  0.6468  0.2844
  891MOL0     O22823   9.512   3.289   7.212 -0.1847  0.2417  0.0020
  891MOL0     C22824   9.381   3.250   7.190 -0.2880  0.4654  0.3142
  891MOL0     C22825   9.338   3.171   7.092  0.1919  0.7489  0.1443
  891MOL0     C22826   9.203   3.124   7.088 -0.8516  0.0369 -0.1446
  891MOL0     C22827   9.101   3.182   7.173 -0.5521  0.5804  0.7493
  891MOL0     O22828   8.968   3.159   7.180 -0.5003 -0.4262 -0.3654
  891MOL0     C22829   8.912   3.151   7.049  0.4745  0.4918 -0.2032
  891MOL0     C22830   8.761   3.188   7.051  0.0219  0.5196  0.2785
  891MOL0     C22831   8.731   3.327   6.994 -0.5607 -0.2834 -0.4949
  891MOL0     C22832   8.805   3.424   7.076  0.3304 -0.1800  0.0848
  891MOL0     C22833   8.789   3.568   7.025  0.0863  0.2062 -0.4994
  891MOL0     C22834   8.855   3.606   6.884 -0.1769  0.1625 -0.8916
  891MOL0     C22835   8.980   3.528   6.835 -0.2995 -0.2674  0.8209
  891MOL0     C22836   9.052   3.590   6.716  0.1169  0.7346 -0.2519
  891MOL0     N22837   9.171   3.515   6.673  0.4274  0.3821 -0.1737
  891MOL0     C22838   9.270   3.451   6.747 -0.2756 -0.4111  0.2762
  891MOL0     C22839   9.360   3.390   6.659  0.9824 -0.8007 -0.0859
  891MOL0     C22840   9.477   3.313   6.704  0.5766 -0.5036 -0.6541
  891MOL0     C22841   9.571   3.389   6.792 -0.8442  0.1969 -0.3329
  891MOL0     C22842   9.697   3.307   6.837 -0.4954  0.3481 -0.2936
  891MOL0     C22843   9.813   3.402   6.870 -0.7796 -0.7697  0.7451
  891MOL0     O22844   9.939   3.340   6.901 -0.4747  0.6178  1.0116
  891MOL0     C22845  10.049   3.416   6.935  0.8091 -0.9142 -0.3118
  891MOL0     C22846  10.047   3.555   6.936 -0.0664  0.8050  0.0338
  891MOL0     C22847  10.158   3.627   6.960 -0.2615  1.2230 -0.5684
  891MOL0     C22848  10.143   3.777   6.958  0.3804 -0.6497  0.6298
  891MOL0     C22849  10.282   3.557   7.001 -0.2391  0.2234  0.5673
  891MOL0     C22850  10.408   3.630   7.044 -1.2227 -0.3555  0.6036
  891MOL0     O22851  10.543   3.586   7.000  0.1229 -0.3053 -0.7116
  891MOL0     C22852  10.657   3.657   7.036  0.3687 -0.0800  0.1019
  891MOL0     C22853  10.693   3.696   7.171 -0.5126  0.2326  0.8578
  891MOL0     C22854  10.814   3.767   7.185  0.3977 -0.0109  0.2626
  891MOL0     C22855  10.903   3.790   7.085  0.4875 -0.4138 -0.0932
  891MOL0     O22856  11.022   3.857   7.117  0.1307  0.2143 -0.0953
  891MOL0     C22857  11.038   3.934   7.236 -0.4525 -1.4527 -0.9797
  891MOL0     C22858  11.124   3.859   7.341 -0.5589  0.1205 -0.0533
  891MOL0     C22859  11.269   3.820   7.283 -0.2043 -0.4416 -1.1955
  891MOL0     C22860  11.383   3.895   7.350  0.0606  0.0038 -1.0047
  891MOL0     C22861  11.518   3.841   7.298  0.1683 -1.1120 -0.2541
  891MOL0     C22862  11.638   3.887   7.390  0.6222  0.0802  0.6199
  891MOL0     C22863  11.766   3.806   7.349  0.2454  0.2445  0.9408
  891MOL0     C22864  11.890   3.857   7.424 -0.7593  0.4547  0.0777
  891MOL0    Cl22865  11.869   3.815   7.608 -0.2685 -0.1343 -0.6760
  891MOL0     C22866  10.872   3.750   6.962 -0.2728 -0.0524 -0.1533
  891MOL0     C22867  10.753   3.676   6.935 -0.3554  0.5032  0.5256
  891MOL0     O22868  10.388   3.739   7.107 -0.1124 -0.2973 -1.0600
  891MOL0     C22869  10.274   3.413   7.000 -0.3178 -0.1420  0.5308
  891MOL0     C22870  10.160   3.345   6.970  0.4430  0.0072 -0.4171
  891MOL0     N22871   9.312   3.441   6.539  0.1916  0.5202  0.3859
  891MOL0     N22872   9.208   3.511   6.542 -0.8069  0.2127  0.4480
  891MOL0     C22873   9.154   3.265   7.273  0.8193  0.9249  1.0127
  891MOL0     C22874   9.287   3.291   7.287 -0.1771 -0.6048  0.5825
  891MOL0     C22875   9.688   3.459   7.207 -0.1178  0.5535 -0.1928
  891MOL0     C22876   9.775   3.354   7.249  0.1148 -0.5098  0.6061
  891MOL0     C22877   9.908   3.374   7.271 -0.8423  0.1303  0.2785
  891MOL0     C22878   9.956   3.508   7.275  0.2017 -0.3324  1.0602
  891MOL0     O22879  10.087   3.541   7.321  0.1831 -0.2624 -0.2068
  891MOL0     C22880  10.185   3.447   7.374 -0.4553 -0.5458  0.2254
  891MOL0     C22881  10.154   3.449   7.521  0.0626 -0.0337  0.4004
  891MOL0     C22882  10.270   3.396   7.603 -0.0350  0.0741  0.1145
  891MOL0     C22883  10.228   3.253   7.650  0.0373  0.0703 -1.2161
  891MOL0     C22884  10.346   3.189   7.708 -0.4597  0.0814 -0.0826
  891MOL0     C22885  10.445   3.152   7.767  0.3806  0.5899 -0.1930
  891MOL0     C22886   9.876   3.614   7.234  0.1562 -0.2711  0.1095
  891MOL0     C22887   9.743   3.586   7.195 -0.2123  0.1349 -1.1336
  891MOL0     C22888   9.663   3.706   7.149  0.1961  1.0025 -0.3956
  891MOL0     H22889   9.406   3.128   7.019  1.9899  1.4299  1.3191
  891MOL0     H22890   9.176   3.051   7.012  2.3650 -1.3086 -0.1309
  891MOL0     H22891   8.928   3.047   7.021  1.2839  0.1537  1.3922
  891MOL0     H22892   8.966   3.214   6.978  2.5757  2.3929  2.8097
  891MOL0     H22893   8.705   3.123   6.983 -0.8657  0.3546  1.1541
  891MOL0     H22894   8.721   3.169   7.151  2.5853 -1.4485  1.0615
  891MOL0     H22895   8.764   3.330   6.889  2.1083 -1.6125  0.2098
  891MOL0     H22896   8.625   3.350   7.002 -0.4979 -0.6704  2.1868
  891MOL0     H22897   8.761   3.427   7.177 -1.5777 -1.9480 -0.6271
  891MOL0     H22898   8.914   3.414   7.073  0.5050  1.1098 -3.7936
  891MOL0     H22899   8.834   3.640   7.094  0.9518  0.0415 -0.8833
  891MOL0     H22900   8.680   3.583   7.020 -0.6901 -4.1368 -0.6859
  891MOL0     H22901   8.771   3.592   6.815 -0.7250 -1.7719  0.1056
  891MOL0     H22902   8.865   3.715   6.881 -2.1256  0.4629  0.9917
  891MOL0     H22903   8.953   3.423   6.819  1.8113 -0.7340  0.0394
  891MOL0     H22904   9.050   3.537   6.918 -0.8633  0.6586  1.2149
  891MOL0     H22905   8.978   3.591   6.636  0.9223  0.7441 -1.0051
  891MOL0     H22906   9.087   3.690   6.745  2.0476 -0.2454  1.0169
  891MOL0     H22907   9.287   3.459   6.854  0.0165  0.2638  0.1822
  891MOL0     H22908   9.537   3.281   6.618  0.2207 -1.8336 -0.4316
  891MOL0     H22909   9.449   3.221   6.756 -1.0743  1.1836  1.6065
  891MOL0     H22910   9.599   3.483   6.742  1.5054  1.1589  2.5017
  891MOL0     H22911   9.519   3.422   6.882 -2.6549 -0.2521 -1.1846
  891MOL0     H22912   9.677   3.250   6.928  0.9506 -0.5028 -0.4898
  891MOL0     H22913   9.743   3.236   6.769 -0.1039 -1.2612  1.5756
  891MOL0     H22914   9.836   3.464   6.783  0.7057  2.3738  3.1910
  891MOL0     H22915   9.793   3.477   6.948 -2.2925  2.3782 -2.3775
  891MOL0     H22916   9.960   3.616   6.913  0.4503  1.6609  0.3209
  891MOL0     H22917  10.169   3.811   7.058  0.6059 -0.4513  0.5054
  891MOL0     H22918  10.038   3.805   6.948  0.8438  0.4051 -2.2059
  891MOL0     H22919  10.212   3.826   6.889  1.2913 -0.3002  1.7527
  891MOL0     H22920  10.620   3.672   7.248 -1.5162 -2.9670 -0.8826
  891MOL0     H22921  10.839   3.791   7.288 -0.4973  0.3374  0.4101
  891MOL0     H22922  11.105   4.017   7.213 -0.5353 -2.3086 -4.9616
  891MOL0     H22923  10.943   3.966   7.280  0.8071 -0.7386  1.3742
  891MOL0     H22924  11.151   3.927   7.422  0.8728  1.5010 -1.6174
  891MOL0     H22925  11.072   3.768   7.374 -0.6669  0.4341  0.6490
  891MOL0     H22926  11.280   3.850   7.179 -0.8571 -1.1496 -1.4817
  891MOL0     H22927  11.290   3.714   7.300  0.2250  0.1103  2.4089
  891MOL0     H22928  11.373   3.881   7.458  1.1101  0.0555 -0.8904
  891MOL0     H22929  11.378   4.003   7.336  4.3935  0.7603  1.3632
  891MOL0     H22930  11.521   3.732   7.305  3.1346 -1.1549 -0.9178
  891MOL0     H22931  11.539   3.868   7.194  1.4863  1.7600  0.6639
  891MOL0     H22932  11.600   3.875   7.492 -1.6481 -1.4693 -0.3431
  891MOL0     H22933  11.662   3.993   7.372 -2.7480  0.7505 -0.6084
  891MOL0     H22934  11.787   3.804   7.241  0.6104  0.7536  1.0002
  891MOL0     H22935  11.739   3.704   7.379 -2.1198 -0.3267 -2.4901
  891MOL0     H22936  11.900   3.964   7.401 -0.1647  0.0084 -1.8882
  891MOL0     H22937  11.971   3.802   7.375 -3.6535 -1.4639 -2.9809
  891MOL0     H22938  10.943   3.752   6.880  2.6245 -2.0042  2.1118
  891MOL0     H22939  10.740   3.634   6.836  3.1908 -0.9499  0.5293
  891MOL0     H22940  10.362   3.352   7.013 -0.4694 -0.8149 -1.2631
  891MOL0     H22941  10.167   3.238   6.985 -0.7863  0.1732  1.8534
  891MOL0     H22942   9.083   3.319   7.335 -0.1891  1.9877 -0.9758
  891MOL0     H22943   9.314   3.355   7.370 -0.4861  1.7915 -1.0734
  891MOL0     H22944   9.740   3.253   7.268  0.1184 -0.9400 -1.4525
  891MOL0     H22945   9.973   3.298   7.311 -2.5531 -3.1818 -2.6442
  891MOL0     H22946  10.175   3.344   7.337  2.4225 -0.2519 -1.7181
  891MOL0     H22947  10.286   3.479   7.345 -0.8547  2.5356  1.8511
  891MOL0     H22948  10.059   3.402   7.545  0.0442  0.5389  1.5032
  891MOL0     H22949  10.136   3.549   7.562 -1.9825 -0.4528  0.6135
  891MOL0     H22950  10.359   3.399   7.540 -1.1209  0.0862 -1.4966
  891MOL0     H22951  10.283   3.467   7.685  0.4414  0.6257 -0.4282
  891MOL0     H22952  10.194   3.198   7.561  0.6894 -0.8191 -0.9308
  891MOL0     H22953  10.144   3.256   7.720  0.3714 -2.1227 -0.6444
  891MOL0     H22954  10.532   3.117   7.818 -1.4000 -2.7018  0.9544
  891MOL0     H22955   9.916   3.713   7.253  0.4848 -0.6740  1.6710
  891MOL0     H22956   9.662   3.696   7.040  1.5122  1.6009 -0.4732
  891MOL0     H22957   9.565   3.720   7.196  0.9442  0.8863  1.2427
  891MOL0     H22958   9.720   3.795   7.174  3.6967 -1.3081  0.5416
  892MOL0     O22959   8.396   4.418   3.952  0.3554  0.1213  0.0722
  892MOL0     C22960   8.282   4.465   3.936 -0.2681  0.2013  0.3127
  892MOL0     O22961   8.175   4.425   4.008 -0.4518  0.7925 -0.2168
  892MOL0     C22962   8.178   4.319   4.098 -0.3136 -0.5380  0.3220
  892MOL0     C22963   8.118   4.344   4.225 -0.6720 -0.6347  1.5806
  892MOL0     C22964   8.093   4.238   4.306 -0.5608  1.1958  0.1655
  892MOL0     C22965   8.131   4.110   4.276  0.4138  0.1155 -0.9847
  892MOL0     O22966   8.122   4.002   4.363  0.5493  0.7205  0.5059
  892MOL0     C22967   8.001   3.986   4.436 -0.5512  0.8219 -0.6876
  892MOL0     C22968   8.024   3.870   4.529 -0.1620  1.0756 -0.1458
  892MOL0     C22969   8.136   3.904   4.641 -0.9600  0.7328 -0.0479
  892MOL0     C22970   8.128   4.034   4.728 -0.2808  0.0604 -0.2796
  892MOL0     C22971   8.240   4.046   4.836  0.4994 -1.0472  0.0874
  892MOL0     C22972   8.382   4.054   4.798  0.8744  0.5746  0.1850
  892MOL0     C22973   8.465   4.086   4.924 -0.3556  0.0635 -0.4226
  892MOL0     C22974   8.611   4.033   4.914  0.0605  0.6894 -0.0283
  892MOL0     N22975   8.688   4.094   4.805 -0.6800 -0.2423  0.0705
  892MOL0     C22976   8.686   4.226   4.775  0.9278 -1.3433  0.7421
  892MOL0     C22977   8.771   4.247   4.668 -0.4070  0.0030  0.8940
  892MOL0     C22978   8.810   4.375   4.600  0.5612 -0.7028  0.0161
  892MOL0     C22979   8.953   4.409   4.610 -0.3283  0.1286 -0.5285
  892MOL0     C22980   8.972   4.560   4.585 -0.7685  0.3240 -1.1408
  892MOL0     C22981   8.926   4.618   4.458 -0.3706 -0.2683 -0.2547
  892MOL0     O22982   9.004   4.576   4.351 -0.0064 -0.7689  0.1800
  892MOL0     C22983   8.950   4.510   4.244 -0.8970 -0.5965  0.2316
  892MOL0     C22984   9.041   4.421   4.184 -0.0426  0.5541 -0.7937
  892MOL0     C22985   9.005   4.345   4.073  0.0221  0.8717  0.1662
  892MOL0     C22986   9.121   4.258   4.019  0.2067  0.2703  0.5074
  892MOL0     C22987   8.878   4.365   4.013 -0.0604 -0.2580 -0.1571
  892MOL0     C22988   8.826   4.285   3.895  0.8866 -0.5918 -0.4019
  892MOL0     O22989   8.752   4.349   3.806  0.2198  0.5177  0.6076
  892MOL0     C22990   8.717   4.275   3.698  0.2966 -0.6958 -0.4839
  892MOL0     C22991   8.633   4.159   3.701 -0.3635 -0.7617 -0.0891
  892MOL0     C22992   8.578   4.092   3.590  0.2001 -0.4953  0.2242
  892MOL0     C22993   8.610   4.138   3.463 -0.2984  0.0341 -1.0804
  892MOL0     O22994   8.561   4.080   3.351 -0.0279 -0.0153 -0.4141
  892MOL0     C22995   8.628   3.966   3.318  1.0280  0.5537  0.7072
  892MOL0     C22996   8.643   3.955   3.167 -0.4705 -0.2277  0.3068
  892MOL0     C22997   8.523   3.906   3.088  0.5092 -0.1430  0.5849
  892MOL0     C22998   8.546   3.916   2.943 -0.0602 -0.6441  0.1733
  892MOL0     C22999   8.440   3.868   2.852 -0.2646  0.1846  0.9581
  892MOL0     C23000   8.444   3.716   2.833  0.2287  0.0214 -0.0146
  892MOL0     C23001   8.395   3.673   2.692 -0.7934  0.4794 -0.6448
  892MOL0     C23002   8.268   3.580   2.698 -0.1012  0.0715 -0.5997
  892MOL0    Cl23003   8.113   3.678   2.703 -0.5326 -0.2111 -0.6463
  892MOL0     C23004   8.691   4.251   3.454 -0.2101 -0.2449  0.3852
  892MOL0     C23005   8.741   4.321   3.567 -0.0567  0.3843 -0.5235
  892MOL0     O23006   8.858   4.169   3.891  0.0674  0.0873  0.1313
  892MOL0     C23007   8.784   4.441   4.086  0.5756  0.5675 -0.2801
  892MOL0     C23008   8.821   4.518   4.201 -0.1540 -0.3983 -0.1825
  892MOL0     N23009   8.793   4.124   4.626 -0.3776  0.2873 -1.1891
  892MOL0     N23010   8.753   4.029   4.704  0.2553  0.5170 -0.4777
  892MOL0     C23011   8.189   4.085   4.152 -0.2333 -0.0564 -0.1462
  892MOL0     C23012   8.221   4.188   4.063 -0.2794 -1.4726  0.1112
  892MOL0     C23013   8.259   4.567   3.826 -0.7046 -0.0219  1.2896
  892MOL0     C23014   8.137   4.641   3.828 -0.0897 -0.2466  0.9261
  892MOL0     C23015   8.113   4.733   3.727 -0.2564  0.1482  1.3631
  892MOL0     C23016   8.204   4.748   3.615 -0.4277 -0.5848 -0.7523
  892MOL0     O23017   8.169   4.836   3.522  0.0865  0.2470  0.2406
  892MOL0     C23018   8.259   4.847   3.404  0.2109 -0.4995  0.4241
  892MOL0     C23019   8.206   4.965   3.321 -0.1059 -0.4199  0.7608
  892MOL0     C23020   8.259   4.960   3.180  0.2401 -1.3312  0.1869
  892MOL0     C23021   8.204   4.856   3.089  0.0962 -0.6014  1.0169
  892MOL0     C23022   8.057   4.872   3.077 -0.2103 -0.5249 -0.1040
  892MOL0     C23023   7.935   4.870   3.068 -0.0172  0.2842 -0.2573
  892MOL0     C23024   8.316   4.670   3.609  0.1411 -0.0396 -0.4625
  892MOL0     C23025   8.345   4.580   3.709 -0.2300 -0.6772 -0.6643
  892MOL0     C23026   8.472   4.500   3.673  1.0129  0.1965 -1.6389
  892MOL0     H23027   8.092   4.446   4.252  0.0057  0.2829 -0.9229
  892MOL0     H23028   8.044   4.262   4.401 -0.4592  0.8252  0.3163
  892MOL0     H23029   7.914   3.968   4.372 -3.4809  3.0086  2.3826
  892MOL0     H23030   7.987   4.067   4.507  0.8266 -0.4894  1.1902
  892MOL0     H23031   7.933   3.858   4.589 -0.2321  2.6401  0.1187
  892MOL0     H23032   8.041   3.770   4.489  0.9822  0.2934  2.1126
  892MOL0     H23033   8.157   3.816   4.702  1.7887  1.1966 -0.1609
  892MOL0     H23034   8.221   3.905   4.571  0.8955 -1.8925  1.9369
  892MOL0     H23035   8.135   4.117   4.656 -2.4133  0.4157 -0.1366
  892MOL0     H23036   8.030   4.045   4.773 -0.4028 -5.3014  1.3630
  892MOL0     H23037   8.213   3.956   4.892 -4.5390 -1.3796 -2.3192
  892MOL0     H23038   8.218   4.137   4.892  3.8636  0.4680 -0.8079
  892MOL0     H23039   8.413   3.956   4.759  0.7350  0.9851 -1.0112
  892MOL0     H23040   8.400   4.118   4.711 -3.1235  1.4758 -0.1645
  892MOL0     H23041   8.419   4.044   5.014  1.4843 -0.5168  0.2894
  892MOL0     H23042   8.475   4.194   4.942  0.6930 -0.1088  0.1416
  892MOL0     H23043   8.675   4.056   5.000 -1.4741  5.2499  0.1647
  892MOL0     H23044   8.601   3.926   4.897 -0.1963  0.0555  3.4787
  892MOL0     H23045   8.621   4.301   4.821 -0.1569 -2.6329  1.3717
  892MOL0     H23046   8.758   4.462   4.639  3.0913  0.8072  0.2417
  892MOL0     H23047   8.788   4.369   4.493 -1.0710  0.4659  0.2527
  892MOL0     H23048   8.982   4.388   4.714 -1.0110 -0.7731 -0.5052
  892MOL0     H23049   9.012   4.348   4.542 -0.2495 -2.1184  1.4412
  892MOL0     H23050   8.919   4.613   4.664 -0.7512 -0.1849 -0.7856
  892MOL0     H23051   9.078   4.584   4.596 -1.3068  2.9013 -1.1202
  892MOL0     H23052   8.819   4.603   4.439 -0.5008  1.2572 -0.8710
  892MOL0     H23053   8.950   4.724   4.468  0.1607 -0.4024 -0.0575
  892MOL0     H23054   9.146   4.428   4.211 -0.8158  1.8780  2.3659
  892MOL0     H23055   9.094   4.152   4.017 -1.9799  0.7757 -0.3100
  892MOL0     H23056   9.208   4.268   4.084  1.9315  3.9951 -2.0292
  892MOL0     H23057   9.139   4.288   3.915 -0.4508 -0.3815  0.1884
  892MOL0     H23058   8.613   4.130   3.804  0.5793  1.1641  0.6888
  892MOL0     H23059   8.501   4.018   3.606  2.3908 -2.6473  1.4182
  892MOL0     H23060   8.731   3.970   3.354  0.4775 -2.7088  3.0977
  892MOL0     H23061   8.575   3.880   3.360 -1.3910  1.1797 -0.8646
  892MOL0     H23062   8.675   4.057   3.142 -0.1333  0.8202  4.3893
  892MOL0     H23063   8.727   3.892   3.138 -2.2740 -2.2685 -0.7988
  892MOL0     H23064   8.440   3.971   3.117  1.6337  1.7073 -0.1525
  892MOL0     H23065   8.506   3.801   3.111  0.0877 -0.3842 -0.7369
  892MOL0     H23066   8.639   3.865   2.918 -0.1529 -0.1808 -1.2354
  892MOL0     H23067   8.559   4.023   2.924  1.5490 -0.9142 -0.3911
  892MOL0     H23068   8.338   3.891   2.884 -0.4368  0.4478  0.2482
  892MOL0     H23069   8.469   3.910   2.755  1.2189 -2.0730  0.3454
  892MOL0     H23070   8.384   3.668   2.912  1.5462 -2.5212 -0.4736
  892MOL0     H23071   8.548   3.684   2.837  1.4730  3.6773  0.1766
  892MOL0     H23072   8.475   3.611   2.649  0.6966  0.0890  2.4329
  892MOL0     H23073   8.373   3.749   2.615 -4.4274  1.0386  0.7471
  892MOL0     H23074   8.284   3.525   2.791 -0.3298  2.4106  0.9053
  892MOL0     H23075   8.271   3.507   2.617 -0.6968 -1.0768  0.3743
  892MOL0     H23076   8.718   4.299   3.360 -0.6851 -2.5226 -1.0092
  892MOL0     H23077   8.798   4.414   3.567  0.3505  0.1454  0.4005
  892MOL0     H23078   8.683   4.437   4.046  0.8929 -0.6312 -1.0357
  892MOL0     H23079   8.747   4.572   4.258  0.0414  0.1786 -0.4760
  892MOL0     H23080   8.217   3.984   4.124  1.8861  0.7145 -1.1194
  892MOL0     H23081   8.274   4.177   3.969  0.2253  0.7161  0.0740
  892MOL0     H23082   8.058   4.620   3.900 -2.9403  1.6111 -1.4067
  892MOL0     H23083   8.020   4.789   3.725 -1.3856 -1.3315 -3.9706
  892MOL0     H23084   8.367   4.849   3.421  0.1654 -0.3401  0.6969
  892MOL0     H23085   8.233   4.753   3.354 -3.1050  0.0135  0.9417
  892MOL0     H23086   8.226   5.056   3.378 -3.9764  0.7350  0.5987
  892MOL0     H23087   8.096   4.964   3.322 -0.1139 -0.3406  0.4244
  892MOL0     H23088   8.236   5.054   3.129 -0.9979 -2.3122 -1.1572
  892MOL0     H23089   8.366   4.951   3.195  0.0378 -3.7644  0.5440
  892MOL0     H23090   8.213   4.752   3.123  2.3830 -0.7848  0.0262
  892MOL0     H23091   8.256   4.872   2.994  0.4526 -1.8088  0.9929
  892MOL0     H23092   7.828   4.875   3.061  0.0195  2.1555  0.0246
  892MOL0     H23093   8.386   4.684   3.527 -0.5960  0.7413 -0.9762
  892MOL0     H23094   8.437   4.398   3.654  0.0424  0.6623 -2.4533
  892MOL0     H23095   8.529   4.527   3.584  3.7859 -3.3374 -1.1817
  892MOL0     H23096   8.541   4.505   3.757 -0.9896  1.7527  0.0251
  893MOL0     O23097   1.320   2.696   1.105 -0.5079 -1.5649  0.0956
  893MOL0     C23098   1.282   2.681   1.217  0.4036  0.2325 -0.0977
  893MOL0     O23099   1.179   2.599   1.262 -0.5154  0.7456  0.4262
  893MOL0     C23100   1.164   2.480   1.199  1.8162  0.7575  0.6095
  893MOL0     C23101   1.142   2.456   1.055 -0.1136  0.4106 -0.3320
  893MOL0     C23102   1.122   2.325   1.007 -0.1125  0.4440 -0.6079
  893MOL0     C23103   1.101   2.217   1.091 -0.2501 -0.3132 -0.2568
  893MOL0     O23104   1.100   2.091   1.037  0.4392  0.6510 -0.0677
  893MOL0     C23105   1.033   1.993   1.112  0.1122 -0.3396 -0.0026
  893MOL0     C23106   1.020   1.857   1.042 -0.4769  0.3944  0.0035
  893MOL0     C23107   0.950   1.740   1.112  0.1701 -0.6771 -0.7011
  893MOL0     C23108   0.807   1.792   1.168 -1.4644  0.2826 -0.2019
  893MOL0     C23109   0.746   1.691   1.259 -0.7262 -0.3136  0.5459
  893MOL0     C23110   0.668   1.587   1.179 -0.5873 -0.6259  0.0205
  893MOL0     C23111   0.614   1.478   1.278 -0.1649 -0.1261  0.8482
  893MOL0     C23112   0.581   1.358   1.201  0.1203 -0.2570  0.8799
  893MOL0     N23113   0.467   1.377   1.111 -0.0040 -0.9053 -0.2360
  893MOL0     C23114   0.339   1.364   1.153 -0.7837 -0.1689  1.0362
  893MOL0     C23115   0.257   1.392   1.054  0.5473  0.3732  0.3476
  893MOL0     C23116   0.111   1.382   1.045 -0.9392  0.0054  0.4421
  893MOL0     C23117   0.067   1.509   1.127  0.0513  1.5778 -0.0246
  893MOL0     C23118   0.099   1.640   1.070 -0.4193  0.3205  0.3579
  893MOL0     C23119   0.068   1.660   0.922 -0.3831 -0.4319  0.1363
  893MOL0     O23120   0.087   1.799   0.901 -0.0470  0.5274 -0.4604
  893MOL0     C23121   0.209   1.841   0.848 -0.7768 -0.8053 -0.1750
  893MOL0     C23122   0.217   1.969   0.795  0.1623  0.2210 -0.0957
  893MOL0     C23123   0.334   2.029   0.755  0.2489 -0.1114  0.4376
  893MOL0     C23124   0.320   2.171   0.704 -0.5236  0.2014  0.2992
  893MOL0     C23125   0.460   1.965   0.772  0.2438  0.0596 -0.0521
  893MOL0     C23126   0.587   2.024   0.742 -0.9884 -0.0283  0.1244
  893MOL0     O23127   0.680   1.934   0.729 -0.3394 -0.0242 -0.3629
  893MOL0     C23128   0.804   1.958   0.682 -0.1029 -1.0140  0.0535
  893MOL0     C23129   0.851   1.878   0.580  0.2934 -0.1105  0.3784
  893MOL0     C23130   0.968   1.912   0.523  0.0344  0.0275  1.2955
  893MOL0     C23131   1.061   1.996   0.584  0.5980 -1.0695 -0.9483
  893MOL0     O23132   1.176   2.031   0.523  0.0767  0.3927 -0.7429
  893MOL0     C23133   1.215   2.170   0.503  0.4217  0.5910  0.3361
  893MOL0     C23134   1.118   2.227   0.395 -0.8448  0.8750 -0.2267
  893MOL0     C23135   0.989   2.273   0.454  1.4355  0.5922  0.5065
  893MOL0     C23136   0.932   2.373   0.351 -0.2314 -0.1597 -0.3519
  893MOL0     C23137   0.803   2.443   0.415  0.8200  0.2368  0.5166
  893MOL0     C23138   0.699   2.345   0.471 -0.5919 -0.5142 -0.1199
  893MOL0     C23139   0.578   2.416   0.525  0.4617 -0.2046 -0.3866
  893MOL0     C23140   0.475   2.451   0.421 -0.0212  0.4105 -0.6028
  893MOL0    Cl23141   0.325   2.502   0.494 -0.1134  0.0891  0.2573
  893MOL0     C23142   1.017   2.062   0.702  0.8016 -0.2982  0.0454
  893MOL0     C23143   0.895   2.042   0.752  0.7606 -0.1314  0.6137
  893MOL0     O23144   0.610   2.146   0.723  0.4241  0.4290 -0.4442
  893MOL0     C23145   0.455   1.829   0.831  0.4312 -1.0366  0.2708
  893MOL0     C23146   0.328   1.772   0.863  0.1511 -0.0845 -0.5630
  893MOL0     N23147   0.342   1.433   0.952 -0.1059 -0.7164  1.1928
  893MOL0     N23148   0.462   1.425   0.985  0.1850 -0.2450  0.1271
  893MOL0     C23149   1.110   2.241   1.236 -0.4138 -1.4148  0.4428
  893MOL0     C23150   1.134   2.374   1.274 -0.1219  0.7772 -0.6357
  893MOL0     C23151   1.322   2.775   1.325 -1.0142 -1.6346 -0.3330
  893MOL0     C23152   1.255   2.777   1.454 -0.8062  0.0067  0.2885
  893MOL0     C23153   1.290   2.862   1.556  0.1006  0.6665  0.0660
  893MOL0     C23154   1.397   2.949   1.535 -0.5261 -0.4740  0.0643
  893MOL0     O23155   1.453   3.030   1.633 -0.3394  0.1279  0.4183
  893MOL0     C23156   1.429   3.170   1.601  0.1182 -0.1456 -0.6007
  893MOL0     C23157   1.439   3.248   1.732  0.3739  0.3070 -0.1294
  893MOL0     C23158   1.591   3.289   1.753 -0.2998 -0.1253 -0.5870
  893MOL0     C23159   1.588   3.406   1.857  0.7455 -1.0986  1.1589
  893MOL0     C23160   1.721   3.465   1.872  0.0754 -0.5132  0.1029
  893MOL0     C23161   1.831   3.512   1.877 -0.9637 -1.1089  0.2854
  893MOL0     C23162   1.461   2.960   1.415  0.6085 -0.4155 -0.1001
  893MOL0     C23163   1.431   2.876   1.309 -0.7189 -0.4114 -0.3916
  893MOL0     C23164   1.517   2.887   1.183 -0.4594 -1.0295  0.5457
  893MOL0     H23165   1.166   2.539   0.990 -1.4122  0.2541 -1.0420
  893MOL0     H23166   1.123   2.300   0.901  0.0013 -0.8189 -0.3306
  893MOL0     H23167   0.934   2.039   1.125 -0.0018 -0.6099  0.0770
  893MOL0     H23168   1.086   1.971   1.205  4.1667 -2.5619 -2.5667
  893MOL0     H23169   0.963   1.866   0.949 -4.5526 -0.9828  2.1020
  893MOL0     H23170   1.124   1.824   1.030 -0.0977  0.8284  1.7538
  893MOL0     H23171   0.937   1.670   1.029  0.9019  0.7335 -2.0584
  893MOL0     H23172   1.019   1.717   1.194  1.4651 -1.3617 -1.9340
  893MOL0     H23173   0.837   1.879   1.228 -1.3714 -0.3517  0.6818
  893MOL0     H23174   0.742   1.829   1.089  0.6745  0.1813 -2.1157
  893MOL0     H23175   0.671   1.741   1.321 -0.3696  1.6762 -0.5590
  893MOL0     H23176   0.828   1.653   1.320 -0.3362  1.4439  1.1581
  893MOL0     H23177   0.598   1.651   1.124  1.5040  1.5535 -0.2815
  893MOL0     H23178   0.737   1.556   1.100 -1.3295 -0.8486 -0.5517
  893MOL0     H23179   0.528   1.507   1.337 -1.8605  0.8026 -1.8758
  893MOL0     H23180   0.699   1.461   1.345  3.0100 -0.6517 -2.8948
  893MOL0     H23181   0.671   1.326   1.148  2.2793  1.6485  3.1665
  893MOL0     H23182   0.557   1.275   1.267  2.3518 -1.5574  0.1426
  893MOL0     H23183   0.305   1.322   1.247 -3.5341 -1.4342 -0.3826
  893MOL0     H23184   0.072   1.290   1.088  0.6350  0.2279  2.4834
  893MOL0     H23185   0.082   1.391   0.940 -0.6448 -0.0492  0.3555
  893MOL0     H23186  -0.040   1.500   1.107  0.2253  3.1950 -1.9312
  893MOL0     H23187   0.074   1.505   1.236 -2.1184 -4.2551  0.2783
  893MOL0     H23188   0.033   1.702   1.131  1.3264  0.5174  2.1543
  893MOL0     H23189   0.203   1.673   1.081 -0.7348  2.8388 -2.8308
  893MOL0     H23190   0.126   1.608   0.846  1.8847  1.6786  0.2651
  893MOL0     H23191  -0.036   1.627   0.915 -0.1729 -0.6784 -2.8747
  893MOL0     H23192   0.124   2.024   0.782  0.5588  0.8055 -0.5078
  893MOL0     H23193   0.377   2.199   0.616 -2.0090  2.0064 -0.1633
  893MOL0     H23194   0.343   2.245   0.781 -1.0480  1.0372 -0.3323
  893MOL0     H23195   0.216   2.184   0.672 -0.5309 -0.0701  0.2046
  893MOL0     H23196   0.784   1.818   0.520  1.0446  0.0761 -0.6883
  893MOL0     H23197   1.012   1.850   0.446  1.4316  0.0707  2.0322
  893MOL0     H23198   1.196   2.218   0.599 -2.9267 -0.4898  0.3342
  893MOL0     H23199   1.320   2.169   0.471 -0.5288 -0.3536 -3.2660
  893MOL0     H23200   1.179   2.309   0.357  1.6917 -0.4435  0.8017
  893MOL0     H23201   1.102   2.144   0.324 -1.5647 -1.2378  2.2370
  893MOL0     H23202   0.993   2.329   0.547 -2.5441 -1.1306  1.9321
  893MOL0     H23203   0.916   2.193   0.466 -0.2228  2.0659  0.7004
  893MOL0     H23204   0.913   2.320   0.258  0.7564 -2.8177  0.8618
  893MOL0     H23205   0.995   2.462   0.338  0.0289 -0.2785  0.0755
  893MOL0     H23206   0.838   2.491   0.506 -2.2636  1.5035  1.1405
  893MOL0     H23207   0.771   2.515   0.339  1.8975 -1.3953 -1.6116
  893MOL0     H23208   0.754   2.288   0.546  0.4721 -0.1988 -0.6464
  893MOL0     H23209   0.662   2.271   0.399 -1.0786  0.6286 -1.0723
  893MOL0     H23210   0.606   2.508   0.579  0.3913 -1.4137  1.8528
  893MOL0     H23211   0.539   2.350   0.603  0.5474  1.0223  0.7341
  893MOL0     H23212   0.447   2.372   0.351 -1.5295  0.3743  0.0139
  893MOL0     H23213   0.516   2.537   0.367  0.3728  1.3846  1.1855
  893MOL0     H23214   1.087   2.126   0.755  1.1749 -2.0495  1.7509
  893MOL0     H23215   0.852   2.106   0.828  0.6996  1.8230 -0.9944
  893MOL0     H23216   0.549   1.780   0.856  1.6479  1.5596  1.1410
  893MOL0     H23217   0.338   1.676   0.912 -1.2613  1.1450  2.3731
  893MOL0     H23218   1.096   2.160   1.307  0.9225 -0.6318  1.6499
  893MOL0     H23219   1.135   2.400   1.379  3.4452 -0.1086 -0.3312
  893MOL0     H23220   1.176   2.709   1.485 -0.0756  0.0814  2.5341
  893MOL0     H23221   1.242   2.852   1.653  1.4206 -0.8450  0.6191
  893MOL0     H23222   1.498   3.207   1.524  1.3253 -0.4749  0.3056
  893MOL0     H23223   1.330   3.187   1.557  0.6776  0.4222 -1.6921
  893MOL0     H23224   1.404   3.191   1.818 -1.3690 -0.4145 -1.2763
  893MOL0     H23225   1.386   3.343   1.737  2.2426  1.3759  0.6055
  893MOL0     H23226   1.655   3.208   1.790 -1.7201 -0.7367  0.6539
  893MOL0     H23227   1.636   3.334   1.664  0.2580  3.4025  1.3019
  893MOL0     H23228   1.555   3.374   1.956 -1.3416 -0.4988  0.6920
  893MOL0     H23229   1.522   3.479   1.810  1.0982 -2.8963 -2.5005
  893MOL0     H23230   1.916   3.577   1.881  0.5196 -2.7486 -2.1664
  893MOL0     H23231   1.530   3.036   1.382  1.3480 -1.2549 -0.5259
  893MOL0     H23232   1.607   2.940   1.214 -1.9110  0.9312  1.6284
  893MOL0     H23233   1.547   2.785   1.156  0.2515 -0.2484 -1.8591
  893MOL0     H23234   1.456   2.937   1.108 -1.2719 -0.0910  1.7938
  894MOL0     O23235   6.717  10.346   3.998 -0.1486 -0.2960 -0.2992
  894MOL0     C23236   6.654  10.242   4.013  0.7210  0.1015  0.0145
  894MOL0     O23237   6.679  10.149   4.112  0.1743 -0.0663  0.1880
  894MOL0     C23238   6.801  10.144   4.169 -0.8713 -1.0731 -0.5428
  894MOL0     C23239   6.927  10.202   4.122  0.1899 -0.1656 -0.4395
  894MOL0     C23240   7.044  10.189   4.201 -0.4991 -0.4880  0.2293
  894MOL0     C23241   7.043  10.130   4.325 -0.2896 -0.3709  0.4498
  894MOL0     O23242   7.167  10.105   4.386 -0.2953  0.1191  0.1012
  894MOL0     C23243   7.192   9.997   4.472 -0.3153  0.1770 -0.2438
  894MOL0     C23244   7.346   9.990   4.499  0.9153 -0.0231 -0.4582
  894MOL0     C23245   7.388  10.083   4.619 -0.7827 -0.3263 -0.1876
  894MOL0     C23246   7.526  10.037   4.666  0.1359 -0.1015 -0.0892
  894MOL0     C23247   7.599  10.141   4.747  0.1514 -0.0799  1.0532
  894MOL0     C23248   7.526  10.169   4.875  0.0216  1.0078  0.3653
  894MOL0     C23249   7.601  10.235   4.983  0.5747  0.5530  0.0364
  894MOL0     C23250   7.507  10.266   5.105 -0.9019 -0.6323  0.3111
  894MOL0     N23251   7.459  10.152   5.172 -0.0567  0.4011  0.0753
  894MOL0     C23252   7.531  10.072   5.267  0.5833  0.4651  0.5443
  894MOL0     C23253   7.450   9.967   5.306  0.2846 -0.4480  0.4445
  894MOL0     C23254   7.482   9.857   5.395  0.7323  0.2132 -0.1183
  894MOL0     C23255   7.626   9.818   5.367  0.3274 -0.1828  0.0243
  894MOL0     C23256   7.666   9.697   5.449 -0.2197 -0.5915  0.3724
  894MOL0     C23257   7.789   9.625   5.387 -0.0137  0.2853 -0.0518
  894MOL0     O23258   7.907   9.700   5.409  1.5433 -0.0583  0.0500
  894MOL0     C23259   8.021   9.656   5.347 -0.6190 -0.1159 -0.4661
  894MOL0     C23260   8.135   9.731   5.385  0.0988  0.0650 -0.4205
  894MOL0     C23261   8.258   9.723   5.316  0.0052 -0.0450  0.1757
  894MOL0     C23262   8.365   9.827   5.348 -0.1695  0.1073  0.7546
  894MOL0     C23263   8.277   9.621   5.221  0.2319  0.0706 -0.5532
  894MOL0     C23264   8.406   9.597   5.144 -0.1086 -0.3785 -0.4083
  894MOL0     O23265   8.509   9.690   5.159  0.3138  0.0960  0.2878
  894MOL0     C23266   8.621   9.684   5.078 -0.7760  0.4528  0.1047
  894MOL0     C23267   8.743   9.702   5.139  0.1052  0.2030 -0.3556
  894MOL0     C23268   8.857   9.694   5.058  0.0395 -0.4924  0.1105
  894MOL0     C23269   8.855   9.667   4.921 -0.0989  0.0162  0.1511
  894MOL0     O23270   8.964   9.665   4.835  0.1353 -0.0218  0.0928
  894MOL0     C23271   9.082   9.741   4.883  0.5462 -1.3026 -0.6728
  894MOL0     C23272   9.100   9.884   4.809  0.1950  0.3754 -0.0659
  894MOL0     C23273   8.997   9.988   4.862  0.8685  0.2594  0.3704
  894MOL0     C23274   9.039  10.049   4.995 -0.4187  0.2037 -0.9361
  894MOL0     C23275   8.977  10.187   5.025 -0.0236  0.3422  0.1633
  894MOL0     C23276   9.027  10.226   5.169 -0.5961  0.9333 -0.5078
  894MOL0     C23277   8.996  10.372   5.199 -0.0651  0.5138  0.1807
  894MOL0     C23278   8.979  10.393   5.345 -0.3895  0.0525  0.1896
  894MOL0    Cl23279   9.130  10.332   5.434 -0.1465  0.0148 -0.1103
  894MOL0     C23280   8.733   9.654   4.859 -0.7922 -0.3481  0.0122
  894MOL0     C23281   8.617   9.669   4.941 -0.6065 -0.4022 -0.3166
  894MOL0     O23282   8.416   9.490   5.088  0.1000  0.3244  0.0250
  894MOL0     C23283   8.168   9.536   5.190 -1.0223  0.4020  0.1070
  894MOL0     C23284   8.042   9.552   5.255  0.1912  0.1473 -0.7567
  894MOL0     N23285   7.333   9.973   5.227 -0.9348  0.4759 -0.6179
  894MOL0     N23286   7.349  10.073   5.151 -0.4376  0.0419  0.6799
  894MOL0     C23287   6.925  10.078   4.372  0.0134  0.0951  0.6414
  894MOL0     C23288   6.809  10.085   4.297  0.7365  0.7000 -0.2893
  894MOL0     C23289   6.530  10.243   3.929  0.7798 -0.7942 -0.3205
  894MOL0     C23290   6.425  10.185   3.980 -0.4307  0.7072  0.3591
  894MOL0     C23291   6.304  10.174   3.908 -0.3428  0.6629  0.4756
  894MOL0     C23292   6.281  10.257   3.799 -0.3768 -0.8862  0.3270
  894MOL0     O23293   6.154  10.273   3.754 -0.1602  0.9548  0.1068
  894MOL0     C23294   6.126  10.278   3.613  0.8556  0.0871 -0.1753
  894MOL0     C23295   6.063  10.147   3.556 -0.4785 -0.2921 -0.2625
  894MOL0     C23296   5.942  10.099   3.638  0.9075 -0.3972  0.2430
  894MOL0     C23297   5.888   9.980   3.576 -0.1879  0.1164  0.6390
  894MOL0     C23298   5.967   9.863   3.588 -1.4701  0.8629 -0.2069
  894MOL0     C23299   6.027   9.762   3.598 -0.2156 -0.1626 -1.0650
  894MOL0     C23300   6.399  10.319   3.745 -0.1261 -0.6362 -0.9887
  894MOL0     C23301   6.520  10.310   3.802  0.2430  0.1158 -0.2569
  894MOL0     C23302   6.636  10.377   3.729 -0.3183  0.2430 -0.0682
  894MOL0     H23303   6.938  10.256   4.029  1.5924  1.1105  0.4209
  894MOL0     H23304   7.135  10.229   4.157 -2.2278 -0.3015 -3.4820
  894MOL0     H23305   7.157   9.901   4.433  1.4827 -1.2994  1.5445
  894MOL0     H23306   7.141  10.021   4.566  0.3464  0.5312  0.0310
  894MOL0     H23307   7.353   9.887   4.535 -0.4828 -0.1017 -0.3458
  894MOL0     H23308   7.416   9.989   4.415  4.3588 -2.6565  2.1350
  894MOL0     H23309   7.399  10.183   4.578  0.5556 -2.1570 -4.9364
  894MOL0     H23310   7.309  10.089   4.695 -1.4964 -2.5962 -0.6556
  894MOL0     H23311   7.530   9.938   4.713 -1.8862 -0.7562 -1.1974
  894MOL0     H23312   7.590  10.028   4.578 -0.3826 -0.3843 -0.4401
  894MOL0     H23313   7.621  10.232   4.690 -0.6480 -0.7234 -0.3285
  894MOL0     H23314   7.696  10.095   4.769  0.3100 -0.7521 -0.8659
  894MOL0     H23315   7.439  10.232   4.855 -0.4320  0.2463 -0.1411
  894MOL0     H23316   7.502  10.073   4.921  3.3025  0.1060  0.4578
  894MOL0     H23317   7.639  10.320   4.927 -1.9407  1.4945 -0.3791
  894MOL0     H23318   7.683  10.175   5.025  0.5283 -0.1632 -0.8718
  894MOL0     H23319   7.554  10.340   5.171 -0.2134  0.9084 -1.7856
  894MOL0     H23320   7.418  10.318   5.069  1.0289  2.0324 -0.9856
  894MOL0     H23321   7.634  10.088   5.299  1.0287 -0.5676 -0.3201
  894MOL0     H23322   7.430   9.765   5.367  0.2357  0.8535 -1.3507
  894MOL0     H23323   7.461   9.884   5.498 -1.4440  0.0405 -0.4660
  894MOL0     H23324   7.641   9.803   5.260 -1.0941 -0.0011 -0.2182
  894MOL0     H23325   7.686   9.901   5.407  0.5388 -1.2385  2.0060
  894MOL0     H23326   7.704   9.728   5.547 -0.9395  1.3045  0.1010
  894MOL0     H23327   7.586   9.623   5.460  0.7652 -1.6157  0.8887
  894MOL0     H23328   7.794   9.533   5.446 -1.8890 -2.2760 -3.5331
  894MOL0     H23329   7.781   9.603   5.280  1.1515  0.6305 -0.2311
  894MOL0     H23330   8.131   9.807   5.461  0.8169  0.2412 -0.5470
  894MOL0     H23331   8.310   9.912   5.390 -1.1699 -1.1225  2.0563
  894MOL0     H23332   8.411   9.874   5.261 -3.9540  2.8862  0.0216
  894MOL0     H23333   8.433   9.791   5.427  3.0251  0.6444 -1.5668
  894MOL0     H23334   8.741   9.720   5.246  0.5322 -0.6584 -0.1998
  894MOL0     H23335   8.943   9.704   5.124 -1.9888 -2.6061  3.3651
  894MOL0     H23336   9.101   9.770   4.987  1.9612  2.8639 -1.8656
  894MOL0     H23337   9.176   9.693   4.855 -0.1570 -2.2066 -1.5433
  894MOL0     H23338   9.200   9.922   4.829 -0.0469  0.6717  0.6266
  894MOL0     H23339   9.089   9.875   4.701 -0.1645  3.4325 -0.3721
  894MOL0     H23340   8.898   9.945   4.884  0.3621  1.4222  0.4304
  894MOL0     H23341   9.006  10.061   4.781  1.7527 -1.4975 -1.1806
  894MOL0     H23342   9.145  10.075   5.004 -0.7156  0.8422  1.2443
  894MOL0     H23343   9.020   9.977   5.075  0.0822  1.4203  0.3228
  894MOL0     H23344   9.011  10.267   4.959  1.2394 -1.2316 -1.1806
  894MOL0     H23345   8.868  10.183   5.029 -0.1253 -0.9612 -2.2980
  894MOL0     H23346   9.133  10.203   5.185 -0.4708  2.7787  1.7504
  894MOL0     H23347   8.961  10.170   5.236 -0.0474  0.3929 -0.4076
  894MOL0     H23348   8.907  10.397   5.140 -1.6054 -2.1453  1.1677
  894MOL0     H23349   9.073  10.433   5.150 -0.1123  0.3461 -0.1026
  894MOL0     H23350   8.894  10.346   5.396  1.6895 -3.9733  0.3372
  894MOL0     H23351   8.960  10.498   5.372 -1.7285 -0.8136  3.0931
  894MOL0     H23352   8.728   9.621   4.756 -2.3076 -1.2749  0.3473
  894MOL0     H23353   8.525   9.653   4.885 -0.4533 -1.2609 -0.3308
  894MOL0     H23354   8.169   9.444   5.133 -4.2446 -1.1546  2.2674
  894MOL0     H23355   7.965   9.482   5.225 -0.3725  0.1409  0.6509
  894MOL0     H23356   6.904  10.029   4.466 -1.2740 -1.0615 -0.1990
  894MOL0     H23357   6.714  10.055   4.341 -0.0538  1.0579 -1.6767
  894MOL0     H23358   6.432  10.123   4.069  0.6777 -1.2746 -1.0443
  894MOL0     H23359   6.227  10.104   3.940  1.4481 -0.9705  1.3635
  894MOL0     H23360   6.049  10.355   3.606 -0.5734 -1.1148  1.4582
  894MOL0     H23361   6.214  10.294   3.550  1.2967  1.0030  0.6529
  894MOL0     H23362   6.145  10.079   3.534  2.7582  3.4230 -0.8414
  894MOL0     H23363   6.018  10.174   3.460  0.4855 -1.7292 -1.1515
  894MOL0     H23364   5.949  10.089   3.747 -1.5873 -2.6501  0.3260
  894MOL0     H23365   5.865  10.175   3.623 -0.0625 -1.6335 -1.4448
  894MOL0     H23366   5.869   9.996   3.469  0.6728 -1.2808  0.2467
  894MOL0     H23367   5.789   9.957   3.616 -0.4498 -1.0003 -0.5827
  894MOL0     H23368   6.095   9.684   3.625  0.3114  0.5817 -0.2351
  894MOL0     H23369   6.387  10.383   3.659  1.0461  1.7821  0.5447
  894MOL0     H23370   6.724  10.313   3.740 -1.6965 -1.7017  0.1197
  894MOL0     H23371   6.611  10.371   3.623 -1.0548 -0.1068  0.1172
  894MOL0     H23372   6.655  10.479   3.762  0.6085  0.5866 -1.5785
  895MOL0     O23373   8.584   7.681   5.715 -0.7779 -0.7243  0.0639
  895MOL0     C23374   8.514   7.714   5.623 -0.7865 -0.3049 -0.0108
  895MOL0     O23375   8.429   7.632   5.555 -0.2704 -0.1396  0.0151
  895MOL0     C23376   8.423   7.494   5.574  0.5620  1.4233  0.2959
  895MOL0     C23377   8.398   7.429   5.456  1.1130  0.6535 -0.2112
  895MOL0     C23378   8.380   7.297   5.468  0.0358  0.0405  0.4840
  895MOL0     C23379   8.401   7.216   5.587 -0.3225  0.2011 -0.5793
  895MOL0     O23380   8.387   7.081   5.604 -0.1347  0.0337  0.6994
  895MOL0     C23381   8.316   7.010   5.502  0.5692  0.4070 -0.3381
  895MOL0     C23382   8.287   6.864   5.549 -0.0806 -0.1580 -0.1700
  895MOL0     C23383   8.169   6.849   5.647  1.4329  0.0492  0.9816
  895MOL0     C23384   8.046   6.810   5.557  0.2380  0.4592  0.1510
  895MOL0     C23385   7.950   6.923   5.521  0.0960 -0.1246  0.0195
  895MOL0     C23386   7.824   6.866   5.452 -0.4221 -0.7080  0.3475
  895MOL0     C23387   7.720   6.969   5.403  0.5474 -0.8720 -0.6116
  895MOL0     C23388   7.630   6.909   5.294  0.9014  0.4750  0.4235
  895MOL0     N23389   7.574   6.782   5.336  0.6479 -0.4170 -0.0341
  895MOL0     C23390   7.535   6.737   5.459  0.0112 -0.5168 -0.0519
  895MOL0     C23391   7.505   6.612   5.443  0.1608  0.4003 -1.2412
  895MOL0     C23392   7.466   6.520   5.554 -0.4919  0.1051 -0.5616
  895MOL0     C23393   7.580   6.471   5.642 -0.1013  0.2512 -0.3906
  895MOL0     C23394   7.682   6.382   5.577 -0.4676  0.1383  0.5575
  895MOL0     C23395   7.809   6.363   5.657  0.6208  0.0280  1.0458
  895MOL0     O23396   7.861   6.481   5.708  0.2572  0.0883  0.4066
  895MOL0     C23397   7.990   6.464   5.746 -1.2562  0.4315  0.2412
  895MOL0     C23398   8.032   6.464   5.882  0.0725  0.3854 -0.1636
  895MOL0     C23399   8.161   6.463   5.924 -0.1071 -0.3605 -0.2662
  895MOL0     C23400   8.190   6.452   6.075  0.4805 -0.1778  0.6198
  895MOL0     C23401   8.268   6.470   5.829 -0.9461  0.3493 -0.6266
  895MOL0     C23402   8.408   6.488   5.866 -0.1830 -0.4842  0.4463
  895MOL0     O23403   8.503   6.435   5.789 -0.8703  0.4741 -0.2049
  895MOL0     C23404   8.497   6.305   5.756  0.5195  0.7218  0.8159
  895MOL0     C23405   8.553   6.281   5.631  0.0287  0.1693  0.1239
  895MOL0     C23406   8.544   6.154   5.575 -0.3604  1.3341 -0.2822
  895MOL0     C23407   8.468   6.052   5.637 -0.2620  0.0483  0.9841
  895MOL0     O23408   8.464   5.920   5.594 -0.9258  0.1046 -0.1775
  895MOL0     C23409   8.547   5.888   5.485  0.2366 -0.6745  0.3554
  895MOL0     C23410   8.528   5.746   5.457  0.1535  1.0543  0.4429
  895MOL0     C23411   8.612   5.692   5.345 -0.6329 -0.0557  0.6075
  895MOL0     C23412   8.557   5.558   5.299  0.3503 -0.0361  0.6301
  895MOL0     C23413   8.500   5.472   5.411  0.8842 -0.2420  0.0619
  895MOL0     C23414   8.345   5.455   5.419  0.4837  0.3273  0.4613
  895MOL0     C23415   8.280   5.370   5.306  0.2266  0.4992 -0.4231
  895MOL0     C23416   8.124   5.381   5.302  0.4405 -0.5118  0.4246
  895MOL0    Cl23417   8.049   5.323   5.455 -0.0587 -0.1464 -0.1945
  895MOL0     C23418   8.406   6.084   5.758  0.2448  0.5720 -0.0778
  895MOL0     C23419   8.418   6.209   5.824 -0.6448  0.7890 -0.6166
  895MOL0     O23420   8.432   6.565   5.956 -0.0126 -0.4340 -0.9721
  895MOL0     C23421   8.229   6.476   5.695 -0.2505 -0.3540  0.1399
  895MOL0     C23422   8.097   6.465   5.657 -0.2355  1.4478  1.6277
  895MOL0     N23423   7.518   6.580   5.309 -0.3839  0.6582 -0.3794
  895MOL0     N23424   7.562   6.685   5.250 -0.4628  0.0284  0.8607
  895MOL0     C23425   8.449   7.288   5.698 -0.0173  0.2851 -0.5407
  895MOL0     C23426   8.460   7.421   5.693  0.1334 -0.0457 -0.2092
  895MOL0     C23427   8.525   7.854   5.579 -0.3843 -0.2028  0.5263
  895MOL0     C23428   8.440   7.896   5.473 -0.5620  0.2581  0.4609
  895MOL0     C23429   8.452   8.021   5.410  0.2321 -0.6082 -0.2690
  895MOL0     C23430   8.545   8.114   5.464 -0.3936  1.0522 -0.9852
  895MOL0     O23431   8.565   8.230   5.404  0.0765  0.1749 -0.3705
  895MOL0     C23432   8.518   8.339   5.478 -0.1674 -0.4953 -1.3768
  895MOL0     C23433   8.374   8.365   5.442  0.8630 -0.8715  0.1021
  895MOL0     C23434   8.316   8.471   5.538  0.0528  0.9194  0.8460
  895MOL0     C23435   8.170   8.506   5.486 -0.8531  0.2092 -0.4497
  895MOL0     C23436   8.067   8.410   5.508  0.0409 -0.3966 -0.1670
  895MOL0     C23437   7.978   8.339   5.543  0.2961 -1.0670  0.2262
  895MOL0     C23438   8.629   8.071   5.578 -0.2772  0.2954 -0.1928
  895MOL0     C23439   8.629   7.944   5.630 -0.3843 -0.0366 -0.4270
  895MOL0     C23440   8.733   7.919   5.737 -0.0567 -0.0356 -0.0544
  895MOL0     H23441   8.391   7.481   5.361 -0.2079  1.3856  0.2708
  895MOL0     H23442   8.348   7.247   5.377  1.1521  1.5683 -0.8027
  895MOL0     H23443   8.376   6.996   5.411 -2.4279 -2.2006 -2.0924
  895MOL0     H23444   8.221   7.059   5.482 -1.0184 -2.9655 -1.7759
  895MOL0     H23445   8.280   6.801   5.460  0.5538  0.2772 -0.5358
  895MOL0     H23446   8.374   6.824   5.602  2.4185  0.9034 -3.2301
  895MOL0     H23447   8.184   6.752   5.697 -4.4377 -2.8178 -1.7756
  895MOL0     H23448   8.166   6.937   5.712 -1.7226  0.9531 -0.2101
  895MOL0     H23449   8.078   6.756   5.468  3.3401  1.5582  0.4764
  895MOL0     H23450   7.985   6.749   5.625  0.7180 -0.4617 -0.2230
  895MOL0     H23451   7.997   6.997   5.455 -1.3359 -0.1074 -1.0441
  895MOL0     H23452   7.924   6.962   5.620 -2.0790  0.1920 -0.6028
  895MOL0     H23453   7.857   6.817   5.360  0.7215 -2.0045  1.3917
  895MOL0     H23454   7.768   6.790   5.508 -2.7219  1.2861  0.9134
  895MOL0     H23455   7.770   7.064   5.383 -0.4809 -0.0278  0.6281
  895MOL0     H23456   7.663   6.980   5.496  2.4972 -1.0643  0.6647
  895MOL0     H23457   7.547   6.979   5.276  0.4942 -0.5565 -2.1139
  895MOL0     H23458   7.676   6.909   5.195 -0.3904  1.3563 -0.2070
  895MOL0     H23459   7.542   6.800   5.546 -4.4608 -3.1199  2.5713
  895MOL0     H23460   7.413   6.431   5.521  1.6287 -1.7261  0.7061
  895MOL0     H23461   7.399   6.579   5.619 -0.4638 -0.3612 -0.1024
  895MOL0     H23462   7.631   6.553   5.693  0.4931  0.2385 -0.9517
  895MOL0     H23463   7.532   6.416   5.723  1.7313 -0.5047  0.2321
  895MOL0     H23464   7.641   6.283   5.558 -1.2394  0.4243  0.6762
  895MOL0     H23465   7.686   6.417   5.473  1.1580  1.3519  0.9874
  895MOL0     H23466   7.791   6.298   5.743  0.7528  1.6851  2.3920
  895MOL0     H23467   7.884   6.320   5.591 -0.3790  1.1844 -0.9548
  895MOL0     H23468   7.947   6.456   5.949  0.3989 -1.0692  0.0948
  895MOL0     H23469   8.218   6.553   6.107 -0.5753  0.5665 -0.7137
  895MOL0     H23470   8.269   6.380   6.098 -1.3324 -3.2467 -1.8707
  895MOL0     H23471   8.103   6.419   6.131 -0.0051  1.9210  1.1818
  895MOL0     H23472   8.607   6.356   5.575  1.6528 -1.0510 -0.0035
  895MOL0     H23473   8.574   6.131   5.473 -2.8450 -0.4385 -0.7269
  895MOL0     H23474   8.511   5.952   5.404  0.8929 -0.4145  0.2610
  895MOL0     H23475   8.652   5.920   5.493 -0.0171  0.4488 -0.4618
  895MOL0     H23476   8.558   5.690   5.545  0.4396 -2.9575 -1.9516
  895MOL0     H23477   8.423   5.722   5.437  0.6293  0.5754 -1.7524
  895MOL0     H23478   8.714   5.677   5.382 -0.3882 -3.1649 -1.0347
  895MOL0     H23479   8.603   5.766   5.264 -0.6316 -0.4101  0.2833
  895MOL0     H23480   8.645   5.507   5.259 -0.4642 -0.3777 -0.7889
  895MOL0     H23481   8.483   5.580   5.222 -0.3536  1.0410  1.5836
  895MOL0     H23482   8.540   5.374   5.384  0.7143 -0.8080  1.7273
  895MOL0     H23483   8.536   5.487   5.513  2.4373 -0.7014 -0.3938
  895MOL0     H23484   8.303   5.556   5.412  1.4522  0.6981 -0.2545
  895MOL0     H23485   8.310   5.406   5.511 -0.2950 -1.6652 -0.8443
  895MOL0     H23486   8.313   5.271   5.339  3.0897  1.3127 -0.5703
  895MOL0     H23487   8.326   5.397   5.211 -1.5245  2.2103 -0.8515
  895MOL0     H23488   8.075   5.325   5.222 -2.0732  1.1153  0.6902
  895MOL0     H23489   8.100   5.486   5.284  1.4715 -0.4265 -0.5489
  895MOL0     H23490   8.347   6.009   5.808 -0.9131  1.9877  0.7398
  895MOL0     H23491   8.363   6.222   5.916 -1.7871  0.9485 -1.2967
  895MOL0     H23492   8.298   6.487   5.612 -0.7987 -2.6306 -0.6959
  895MOL0     H23493   8.075   6.481   5.552 -0.0813  1.8433  1.6533
  895MOL0     H23494   8.468   7.229   5.787 -0.3109 -1.2586 -1.4479
  895MOL0     H23495   8.489   7.476   5.782  1.5017 -0.9114 -0.0907
  895MOL0     H23496   8.369   7.826   5.430 -0.9165 -0.6141  2.3803
  895MOL0     H23497   8.394   8.068   5.332  2.2007  0.2055 -1.2856
  895MOL0     H23498   8.526   8.329   5.586 -0.9053 -1.8670 -1.4273
  895MOL0     H23499   8.586   8.421   5.453 -1.3149  1.3430  1.0765
  895MOL0     H23500   8.328   8.266   5.440  1.4716 -1.2665 -4.1741
  895MOL0     H23501   8.366   8.411   5.343  1.3030 -0.6653  0.1602
  895MOL0     H23502   8.318   8.422   5.636 -0.6490  0.8657  0.8407
  895MOL0     H23503   8.379   8.560   5.541 -0.0186  0.9402  1.7664
  895MOL0     H23504   8.182   8.531   5.381  2.9866  2.6179  0.3258
  895MOL0     H23505   8.138   8.601   5.531 -1.7261  0.6894 -2.0397
  895MOL0     H23506   7.903   8.278   5.589  1.3301 -0.3014  3.2020
  895MOL0     H23507   8.704   8.142   5.613  0.8140 -1.4344  1.1867
  895MOL0     H23508   8.673   7.917   5.829 -0.8312 -0.3411 -0.5577
  895MOL0     H23509   8.783   7.823   5.721 -0.6228 -0.3990  0.2965
  895MOL0     H23510   8.807   7.999   5.749  1.3707 -0.9945 -2.1063
  896MOL0     O23511   2.812   6.200   0.911 -1.0104  0.4501  0.3730
  896MOL0     C23512   2.712   6.256   0.891  0.1421 -0.0855  0.2162
  896MOL0     O23513   2.594   6.216   0.950 -0.1981 -0.0826  0.4712
  896MOL0     C23514   2.587   6.094   1.016 -0.8073 -0.3434  0.3864
  896MOL0     C23515   2.553   5.986   0.944  0.2096  0.5155  0.1950
  896MOL0     C23516   2.546   5.852   1.002 -0.2050 -0.0450 -0.7402
  896MOL0     C23517   2.564   5.833   1.147 -0.0924 -0.2770  0.6844
  896MOL0     O23518   2.557   5.716   1.217  0.0707  0.4132 -0.1505
  896MOL0     C23519   2.514   5.591   1.160  0.0754  0.0897 -0.2083
  896MOL0     C23520   2.639   5.504   1.099  0.4548 -1.0684 -0.0887
  896MOL0     C23521   2.589   5.372   1.041  0.3864 -0.1436  0.0982
  896MOL0     C23522   2.529   5.288   1.148  0.1366  0.1358 -1.0066
  896MOL0     C23523   2.527   5.138   1.106 -0.4595 -0.3253 -0.4397
  896MOL0     C23524   2.478   5.036   1.221 -0.0212  0.3306 -0.5929
  896MOL0     C23525   2.364   5.088   1.303 -0.5121 -0.3716 -0.2204
  896MOL0     C23526   2.232   5.085   1.231  0.1947 -0.2797  1.2344
  896MOL0     N23527   2.182   5.226   1.234 -0.7382 -0.6294  0.2937
  896MOL0     C23528   2.175   5.316   1.336 -0.7308 -0.4898 -1.0850
  896MOL0     C23529   2.141   5.438   1.275  0.2360  0.3482 -0.8638
  896MOL0     C23530   2.121   5.578   1.350  0.9032 -0.6580 -0.6085
  896MOL0     C23531   2.245   5.660   1.344  0.2645  0.0071 -0.7597
  896MOL0     C23532   2.223   5.795   1.422  0.3253  0.1032  0.0644
  896MOL0     C23533   2.352   5.866   1.465 -0.0990  0.3568  0.1210
  896MOL0     O23534   2.389   5.809   1.595 -0.5898  0.1170  0.6559
  896MOL0     C23535   2.467   5.871   1.688 -0.7356 -0.2043  0.1494
  896MOL0     C23536   2.506   6.010   1.684  0.0963  0.2887  0.2892
  896MOL0     C23537   2.610   6.074   1.745  1.0839 -0.8900  0.1847
  896MOL0     C23538   2.615   6.227   1.730 -0.7510  0.9797 -0.4998
  896MOL0     C23539   2.689   5.987   1.820  0.1525 -0.9041 -0.1793
  896MOL0     C23540   2.800   6.039   1.900 -0.1353  0.2076  0.0464
  896MOL0     O23541   2.868   5.945   1.958 -0.0290 -0.4476  0.3227
  896MOL0     C23542   2.997   5.983   2.007  0.7186  0.4728  0.2880
  896MOL0     C23543   3.012   6.021   2.138 -0.0872 -0.0642  0.8344
  896MOL0     C23544   3.139   6.045   2.193  0.9743 -1.0658 -0.7789
  896MOL0     C23545   3.253   6.047   2.116 -0.2628 -0.2466  1.0207
  896MOL0     O23546   3.380   6.082   2.162  0.5535 -0.1347 -0.7270
  896MOL0     C23547   3.394   6.094   2.307 -0.2927 -0.4282 -0.7325
  896MOL0     C23548   3.540   6.133   2.339  0.1380  0.3940 -0.3121
  896MOL0     C23549   3.566   6.274   2.294  0.5800  0.3289 -0.7249
  896MOL0     C23550   3.700   6.319   2.337  0.3398  0.1372 -0.0163
  896MOL0     C23551   3.720   6.460   2.285 -0.8563  0.0270  0.1515
  896MOL0     C23552   3.681   6.580   2.380 -0.4513  0.3354 -0.8511
  896MOL0     C23553   3.690   6.716   2.312  0.2996 -0.9654 -0.2813
  896MOL0     C23554   3.645   6.823   2.403  0.7957  0.7747  0.7440
  896MOL0    Cl23555   3.477   6.784   2.468 -0.3092  0.5292 -0.0250
  896MOL0     C23556   3.236   6.010   1.986 -0.0771  0.6139  0.1854
  896MOL0     C23557   3.114   5.967   1.932  0.6541 -0.7998 -0.4833
  896MOL0     O23558   2.816   6.160   1.918 -0.7237 -0.0307  0.4105
  896MOL0     C23559   2.656   5.846   1.833 -0.7710 -0.5509 -0.0948
  896MOL0     C23560   2.542   5.797   1.771  0.6220  0.4985 -0.2831
  896MOL0     N23561   2.151   5.415   1.140  0.7690 -0.6732 -0.9972
  896MOL0     N23562   2.165   5.288   1.115 -0.5991 -0.4676 -0.5519
  896MOL0     C23563   2.600   5.952   1.214  0.0335  0.2056 -0.3383
  896MOL0     C23564   2.607   6.080   1.160 -0.3911 -0.2844 -0.3775
  896MOL0     C23565   2.704   6.358   0.792 -0.1528  0.1894  0.4915
  896MOL0     C23566   2.700   6.326   0.655  0.1831 -0.0315 -0.5442
  896MOL0     C23567   2.706   6.432   0.559 -0.4431  0.3878  1.0052
  896MOL0     C23568   2.722   6.563   0.586  0.3657 -0.0018 -0.6013
  896MOL0     O23569   2.718   6.657   0.498  0.3831 -0.0470 -0.1811
  896MOL0     C23570   2.596   6.658   0.422  0.9092 -0.1802  0.1511
  896MOL0     C23571   2.555   6.813   0.418  0.0825  0.2940  0.4047
  896MOL0     C23572   2.434   6.823   0.339  1.5018  0.4554  0.4063
  896MOL0     C23573   2.387   6.974   0.322  0.5371  1.1081 -0.0677
  896MOL0     C23574   2.266   6.991   0.400  1.0855 -0.7358  0.1002
  896MOL0     C23575   2.174   7.016   0.480 -0.6735  0.8279  0.9230
  896MOL0     C23576   2.734   6.593   0.723 -1.1744  0.0521 -0.4929
  896MOL0     C23577   2.732   6.490   0.819 -0.6542  0.1052  0.3238
  896MOL0     C23578   2.752   6.531   0.968 -0.4439  0.3840 -0.0921
  896MOL0     H23579   2.558   5.995   0.836  3.0610 -2.7705 -0.1105
  896MOL0     H23580   2.533   5.769   0.934  0.3635 -0.3161 -0.5215
  896MOL0     H23581   2.430   5.604   1.092 -0.2675  3.0118  0.6381
  896MOL0     H23582   2.470   5.535   1.243 -1.4915  0.8237 -0.5172
  896MOL0     H23583   2.671   5.548   1.004 -0.9225 -0.6635 -0.3975
  896MOL0     H23584   2.725   5.499   1.166  0.9721  2.0928 -0.3228
  896MOL0     H23585   2.517   5.388   0.961  1.3674  1.6997 -0.4899
  896MOL0     H23586   2.678   5.326   0.998 -0.6962  0.4504 -2.9755
  896MOL0     H23587   2.596   5.280   1.234 -1.5120  0.7936  0.3981
  896MOL0     H23588   2.431   5.323   1.182 -0.1600 -1.2634 -0.3333
  896MOL0     H23589   2.632   5.118   1.082 -0.4913 -0.2217 -0.6679
  896MOL0     H23590   2.466   5.124   1.016  0.3263  3.7946 -1.8045
  896MOL0     H23591   2.436   4.948   1.172 -1.3373  2.2545 -3.1653
  896MOL0     H23592   2.567   5.018   1.282 -1.3239  0.7299  1.5181
  896MOL0     H23593   2.395   5.183   1.346  2.6516 -2.0688  1.6299
  896MOL0     H23594   2.346   5.026   1.391  0.4345 -3.4560 -2.0312
  896MOL0     H23595   2.240   5.061   1.124  0.5671  2.2658  0.6204
  896MOL0     H23596   2.156   5.018   1.271  2.2503 -2.6140  1.4567
  896MOL0     H23597   2.171   5.299   1.443 -3.1016 -1.9120 -1.3106
  896MOL0     H23598   2.080   5.564   1.450 -3.0229  3.6437 -1.2849
  896MOL0     H23599   2.053   5.637   1.288  0.6119  0.7055  0.9551
  896MOL0     H23600   2.325   5.618   1.406  2.0141  0.7442 -2.4170
  896MOL0     H23601   2.276   5.672   1.240 -1.3461 -0.8693 -1.3638
  896MOL0     H23602   2.173   5.863   1.353  0.1402 -0.3928 -0.3009
  896MOL0     H23603   2.166   5.784   1.514  1.5130 -1.5379  0.6704
  896MOL0     H23604   2.436   5.850   1.398 -0.4732 -0.0571 -0.2515
  896MOL0     H23605   2.330   5.973   1.479  1.2113  0.7483 -0.6160
  896MOL0     H23606   2.436   6.075   1.631  0.0864 -0.4186 -0.5855
  896MOL0     H23607   2.722   6.250   1.736  0.2857 -3.3549  2.7358
  896MOL0     H23608   2.562   6.283   1.807 -2.1784 -1.3638  0.3332
  896MOL0     H23609   2.573   6.253   1.632  0.1879  2.7074 -0.4823
  896MOL0     H23610   2.925   6.019   2.202 -1.3663 -1.1434 -0.8545
  896MOL0     H23611   3.132   6.072   2.298 -1.7705 -0.6238 -1.0075
  896MOL0     H23612   3.324   6.160   2.359  0.6150  2.5118 -2.9956
  896MOL0     H23613   3.376   5.997   2.354  2.4578 -0.7117 -0.0754
  896MOL0     H23614   3.564   6.119   2.445  2.2333  4.6451  0.0229
  896MOL0     H23615   3.611   6.075   2.281  2.2501  3.4469 -1.0605
  896MOL0     H23616   3.489   6.344   2.327  1.5269  0.5951  1.0104
  896MOL0     H23617   3.556   6.258   2.186  0.0198  0.3492 -0.6795
  896MOL0     H23618   3.773   6.254   2.287  0.1180  0.8095 -1.2483
  896MOL0     H23619   3.702   6.319   2.446  1.0904 -2.1897  0.0271
  896MOL0     H23620   3.827   6.478   2.265 -0.4514 -2.9096 -0.7184
  896MOL0     H23621   3.668   6.469   2.189  1.5674  1.6665 -1.1393
  896MOL0     H23622   3.730   6.576   2.477 -1.9813 -1.0869 -0.0628
  896MOL0     H23623   3.578   6.550   2.402 -0.6517 -0.1065 -2.2540
  896MOL0     H23624   3.625   6.709   2.225 -1.5187 -3.3716  1.1617
  896MOL0     H23625   3.792   6.730   2.272  0.7877 -1.4427  0.7629
  896MOL0     H23626   3.635   6.916   2.347 -1.2223  0.3168  0.2609
  896MOL0     H23627   3.706   6.839   2.493  0.3401 -1.6778  1.5549
  896MOL0     H23628   3.321   6.002   1.919  0.0554 -3.2698  0.6348
  896MOL0     H23629   3.121   5.922   1.834  2.2495 -0.4081 -0.5831
  896MOL0     H23630   2.710   5.779   1.899  1.0114  0.3881 -0.5214
  896MOL0     H23631   2.517   5.692   1.776  1.2049  0.3580 -0.2623
  896MOL0     H23632   2.611   5.943   1.322 -2.0181 -1.6818 -0.2308
  896MOL0     H23633   2.635   6.171   1.211 -5.7217  0.3062  2.2180
  896MOL0     H23634   2.673   6.224   0.628  1.4252  0.2620 -3.1898
  896MOL0     H23635   2.684   6.400   0.457 -1.2653 -1.9475  1.8550
  896MOL0     H23636   2.605   6.626   0.318 -1.0025 -1.8247  0.4308
  896MOL0     H23637   2.521   6.587   0.457  2.1130 -1.1765  0.8064
  896MOL0     H23638   2.627   6.886   0.381  1.6137 -1.4744 -0.2925
  896MOL0     H23639   2.546   6.837   0.524 -1.7300 -2.4890  0.9837
  896MOL0     H23640   2.462   6.786   0.240  0.2214 -1.1908  0.6224
  896MOL0     H23641   2.349   6.758   0.364  0.7683  2.1956  2.9185
  896MOL0     H23642   2.354   7.001   0.221 -0.8065  0.7613  0.2656
  896MOL0     H23643   2.459   7.051   0.353  0.5855  1.8277 -1.8492
  896MOL0     H23644   2.102   7.017   0.559 -0.1012 -1.6838  1.5801
  896MOL0     H23645   2.766   6.693   0.749  0.2686 -0.4497 -0.2496
  896MOL0     H23646   2.835   6.481   1.018  2.0330  2.6937 -1.5757
  896MOL0     H23647   2.759   6.639   0.987 -0.6834  0.5791 -1.0399
  896MOL0     H23648   2.661   6.509   1.024  0.1538  4.6759  3.1506
  897MOL0     O23649   6.776   3.885   0.917 -0.6174  0.0192  0.5408
  897MOL0     C23650   6.830   3.923   0.810 -0.3895  0.4122  0.1399
  897MOL0     O23651   6.862   3.841   0.705  0.3868  0.1080  0.4418
  897MOL0     C23652   6.817   3.715   0.704 -0.2705 -0.2931  0.6132
  897MOL0     C23653   6.706   3.669   0.627 -0.2186  0.5974 -0.9671
  897MOL0     C23654   6.687   3.526   0.628 -0.2789 -0.0406  0.9110
  897MOL0     C23655   6.766   3.442   0.709  0.5348  0.6121 -0.5559
  897MOL0     O23656   6.736   3.311   0.696 -0.2183 -0.1462 -0.6780
  897MOL0     C23657   6.824   3.212   0.747 -0.1021  0.2365 -0.9119
  897MOL0     C23658   6.753   3.079   0.709  0.0584  0.3393 -0.5076
  897MOL0     C23659   6.601   3.067   0.756  0.5806 -0.1006  0.7420
  897MOL0     C23660   6.538   2.936   0.708 -0.2991  0.8973  0.3163
  897MOL0     C23661   6.407   2.918   0.786  0.4064  1.1985  0.0614
  897MOL0     C23662   6.330   2.790   0.743  0.1370 -0.0050  0.5795
  897MOL0     C23663   6.197   2.776   0.816  0.3086  0.9121  0.3319
  897MOL0     C23664   6.136   2.644   0.787  0.2276 -0.5210  0.3285
  897MOL0     N23665   6.093   2.617   0.651  0.1317  0.4131  0.9319
  897MOL0     C23666   5.990   2.665   0.587  0.5646 -0.1617 -0.4203
  897MOL0     C23667   5.991   2.616   0.463  0.3613  0.2098  0.6034
  897MOL0     C23668   5.908   2.642   0.342  0.4200 -0.4885  0.8335
  897MOL0     C23669   5.983   2.607   0.212  0.3321 -0.6578  0.7236
  897MOL0     C23670   5.894   2.663   0.085  0.8070 -0.0667 -0.2128
  897MOL0     C23671   5.956   2.618  -0.044  0.2370 -0.4732 -0.2148
  897MOL0     O23672   6.093   2.669  -0.059  0.7069  1.3936 -0.1936
  897MOL0     C23673   6.146   2.663  -0.181  0.1235  0.2092  0.3016
  897MOL0     C23674   6.112   2.558  -0.283 -0.3305 -0.4771 -1.0287
  897MOL0     C23675   6.167   2.559  -0.410 -0.3445 -0.2284  0.0214
  897MOL0     C23676   6.117   2.449  -0.493 -0.1089 -0.3324  0.3092
  897MOL0     C23677   6.258   2.669  -0.435 -0.1049 -0.4769 -0.0154
  897MOL0     C23678   6.323   2.681  -0.572  1.0691 -0.3650  0.4425
  897MOL0     O23679   6.386   2.801  -0.598  0.0421  0.2245  0.0683
  897MOL0     C23680   6.430   2.836  -0.723  0.3614  0.3341 -0.1619
  897MOL0     C23681   6.529   2.932  -0.720 -0.2252 -0.3122 -0.9495
  897MOL0     C23682   6.578   2.984  -0.842  0.9215  0.3377 -0.1534
  897MOL0     C23683   6.514   2.959  -0.967  0.1540 -0.1135  0.4100
  897MOL0     O23684   6.544   3.021  -1.086 -0.3714 -0.1696  0.0829
  897MOL0     C23685   6.619   3.150  -1.075  0.1867 -0.3779  0.2888
  897MOL0     C23686   6.677   3.197  -1.204 -0.5820 -0.3932  0.6730
  897MOL0     C23687   6.571   3.280  -1.284 -0.8483 -0.1274 -0.4843
  897MOL0     C23688   6.629   3.365  -1.404 -0.9059  0.2738 -0.2262
  897MOL0     C23689   6.685   3.500  -1.356 -0.5826 -0.0738 -0.1863
  897MOL0     C23690   6.673   3.606  -1.473  1.0477  0.3419 -0.2366
  897MOL0     C23691   6.539   3.670  -1.456 -0.6851 -0.8406  0.7414
  897MOL0     C23692   6.548   3.783  -1.357 -0.6133 -0.0561 -0.8097
  897MOL0    Cl23693   6.387   3.819  -1.285 -0.0845  0.1259  0.2665
  897MOL0     C23694   6.414   2.869  -0.969  0.0485  0.5158 -0.2300
  897MOL0     C23695   6.371   2.806  -0.846  0.1300  0.3990 -0.5381
  897MOL0     O23696   6.327   2.590  -0.649  0.1106  1.0250  0.1574
  897MOL0     C23697   6.295   2.761  -0.333  0.2553 -0.7590  0.8032
  897MOL0     C23698   6.242   2.756  -0.209 -0.5292  0.5619 -0.1040
  897MOL0     N23699   6.104   2.536   0.452  0.2036  0.0216  1.0513
  897MOL0     N23700   6.171   2.541   0.561  0.1070 -0.3635  0.0771
  897MOL0     C23701   6.864   3.497   0.793  0.3438  0.0849 -0.6401
  897MOL0     C23702   6.892   3.628   0.785  0.2304  0.1572 -0.5088
  897MOL0     C23703   6.856   4.070   0.799 -0.5901  0.8847 -0.5745
  897MOL0     C23704   6.844   4.142   0.679  0.0272  0.2845  0.2974
  897MOL0     C23705   6.893   4.277   0.670  0.1217 -0.7230 -0.9481
  897MOL0     C23706   6.947   4.345   0.779  0.7417 -0.8010  0.6404
  897MOL0     O23707   6.985   4.482   0.775 -0.1806  0.7615 -0.0986
  897MOL0     C23708   6.977   4.574   0.663 -0.6229  0.8205  0.5273
  897MOL0     C23709   7.110   4.607   0.594  0.3014  0.3595 -0.4709
  897MOL0     C23710   7.137   4.505   0.488 -0.1329  0.0777 -0.1918
  897MOL0     C23711   7.241   4.538   0.379 -0.9568 -0.6912 -0.7648
  897MOL0     C23712   7.370   4.590   0.424  0.0853 -0.5387 -0.0591
  897MOL0     C23713   7.485   4.615   0.453 -0.5442  1.2229  0.6954
  897MOL0     C23714   6.945   4.279   0.905 -0.0230 -0.0055  0.0714
  897MOL0     C23715   6.906   4.142   0.913  0.2437  0.6307  0.5847
  897MOL0     C23716   6.951   4.076   1.054 -0.2152  0.4309  0.6372
  897MOL0     H23717   6.647   3.735   0.565 -0.3250  1.7945  0.3611
  897MOL0     H23718   6.605   3.489   0.568 -3.4643  2.2895  3.4425
  897MOL0     H23719   6.817   3.227   0.855 -3.6155  0.7019 -1.0821
  897MOL0     H23720   6.928   3.217   0.714  1.3894  0.2077  3.2495
  897MOL0     H23721   6.755   3.073   0.600 -0.2933  0.2131 -0.5090
  897MOL0     H23722   6.814   2.996   0.746 -0.3425  0.5811  0.7379
  897MOL0     H23723   6.587   3.074   0.865 -0.6130 -3.6714  0.9407
  897MOL0     H23724   6.546   3.153   0.716  0.3183 -0.4848  0.2672
  897MOL0     H23725   6.531   2.944   0.599  3.0043  4.3943  0.1526
  897MOL0     H23726   6.606   2.852   0.722 -0.0877  0.9307 -0.4558
  897MOL0     H23727   6.347   3.008   0.771 -1.9245 -0.1705  0.7044
  897MOL0     H23728   6.414   2.915   0.895 -0.6167  0.1065  0.1077
  897MOL0     H23729   6.313   2.809   0.637 -2.2824  2.1138  1.2600
  897MOL0     H23730   6.395   2.705   0.767 -2.3923 -1.9135  1.0478
  897MOL0     H23731   6.136   2.862   0.787  0.2945  0.0804 -2.4413
  897MOL0     H23732   6.208   2.781   0.924 -2.5563 -1.1214  0.8501
  897MOL0     H23733   6.215   2.573   0.815 -0.7484 -2.3118 -1.2763
  897MOL0     H23734   6.042   2.631   0.840 -0.4508 -2.2718 -1.2246
  897MOL0     H23735   5.912   2.718   0.640  2.1567 -0.3370  2.3080
  897MOL0     H23736   5.882   2.749   0.342  1.7470 -0.0280  4.1362
  897MOL0     H23737   5.816   2.587   0.362 -0.5226 -0.9742 -3.7105
  897MOL0     H23738   6.083   2.652   0.213 -0.2076  0.6518  2.7644
  897MOL0     H23739   6.006   2.500   0.208  1.3780 -0.4148 -2.0160
  897MOL0     H23740   5.788   2.635   0.091  1.2462 -1.4925  3.5616
  897MOL0     H23741   5.895   2.772   0.078  2.0936  0.5614  5.3888
  897MOL0     H23742   5.959   2.510  -0.061 -1.2147 -0.3082 -1.7471
  897MOL0     H23743   5.890   2.657  -0.122  3.0961  2.8296 -1.2795
  897MOL0     H23744   6.033   2.491  -0.250 -0.3588  0.5213  1.0879
  897MOL0     H23745   6.009   2.455  -0.509 -0.0936 -1.1389 -0.1082
  897MOL0     H23746   6.126   2.357  -0.436  1.2296  1.3899  3.1249
  897MOL0     H23747   6.162   2.443  -0.593 -2.9075  2.0304 -1.2289
  897MOL0     H23748   6.576   2.942  -0.623 -3.0801 -1.9558  0.7490
  897MOL0     H23749   6.651   3.062  -0.828  0.7315  0.2623  1.3814
  897MOL0     H23750   6.550   3.229  -1.043  0.6474  1.2747 -2.5211
  897MOL0     H23751   6.706   3.138  -1.010  1.3762 -1.4369 -1.4212
  897MOL0     H23752   6.774   3.244  -1.184  0.5006 -0.0136 -4.1213
  897MOL0     H23753   6.697   3.111  -1.269 -1.2433  0.2515 -0.4172
  897MOL0     H23754   6.508   3.335  -1.213  1.4918  0.0642  1.5530
  897MOL0     H23755   6.500   3.203  -1.315 -1.6542  0.2302  0.4323
  897MOL0     H23756   6.545   3.386  -1.472  1.2135  3.4101 -2.1831
  897MOL0     H23757   6.699   3.311  -1.468  0.8416 -1.0312  2.6319
  897MOL0     H23758   6.647   3.544  -1.263  0.5826  1.9902 -0.6309
  897MOL0     H23759   6.792   3.488  -1.340 -0.8692  0.3855  2.7022
  897MOL0     H23760   6.674   3.549  -1.566 -0.2145  0.5522 -0.3891
  897MOL0     H23761   6.759   3.674  -1.476  1.1499  0.3950  1.9216
  897MOL0     H23762   6.457   3.601  -1.433 -1.4126 -0.2083  0.0820
  897MOL0     H23763   6.507   3.716  -1.550  1.4697  1.1816  0.8991
  897MOL0     H23764   6.611   3.860  -1.403  2.1132 -1.5611  0.1653
  897MOL0     H23765   6.612   3.745  -1.276  0.4928 -1.2867 -2.2031
  897MOL0     H23766   6.364   2.848  -1.063  1.8858  0.1075 -1.1637
  897MOL0     H23767   6.277   2.752  -0.856 -1.2928  2.9413 -1.7896
  897MOL0     H23768   6.377   2.831  -0.349 -0.8567  0.5689  0.7967
  897MOL0     H23769   6.272   2.826  -0.132 -0.0591  0.1232  0.1211
  897MOL0     H23770   6.902   3.437   0.875  0.5529 -0.9933 -1.4913
  897MOL0     H23771   6.970   3.673   0.845 -1.1154  0.4551  1.0920
  897MOL0     H23772   6.792   4.090   0.599  1.0054 -2.0377  1.0886
  897MOL0     H23773   6.877   4.336   0.580  1.9471  1.6467  0.1402
  897MOL0     H23774   6.896   4.558   0.592  0.2291  1.7016 -0.6743
  897MOL0     H23775   6.941   4.673   0.694 -0.7075  0.7015  0.8096
  897MOL0     H23776   7.191   4.611   0.668 -1.1709  4.6107  1.1981
  897MOL0     H23777   7.100   4.704   0.543  0.5467 -0.0560 -1.3235
  897MOL0     H23778   7.176   4.418   0.542  1.3768  2.1675  2.3167
  897MOL0     H23779   7.042   4.476   0.442  0.1832 -1.5132  0.0850
  897MOL0     H23780   7.194   4.618   0.321 -0.8914  0.3255  0.5474
  897MOL0     H23781   7.268   4.450   0.320  1.7171 -0.6156  0.2161
  897MOL0     H23782   7.583   4.629   0.495 -0.3579  0.6576  0.4537
  897MOL0     H23783   6.981   4.327   0.995 -2.4309 -1.1260  1.7331
  897MOL0     H23784   6.862   4.052   1.112 -0.1233  2.3351  1.6468
  897MOL0     H23785   7.020   3.992   1.045  1.3082  1.0736  4.4134
  897MOL0     H23786   7.005   4.143   1.122 -0.5172  1.4186 -0.0692
  898MOL0     O23787  10.319   0.477   4.514  0.8391  0.1433 -0.6954
  898MOL0     C23788  10.408   0.522   4.429  1.0690 -0.4828 -0.2788
  898MOL0     O23789  10.511   0.451   4.375  0.2022  0.0331 -0.4398
  898MOL0     C23790  10.558   0.340   4.444  0.0522 -0.8190  0.1660
  898MOL0     C23791  10.642   0.258   4.364 -0.3322 -0.0899 -1.1099
  898MOL0     C23792  10.694   0.139   4.428  0.5663 -0.2599 -2.5229
  898MOL0     C23793  10.660   0.098   4.557 -0.0248 -1.0081 -0.3192
  898MOL0     O23794  10.696  -0.018   4.608  1.0992  1.0985 -0.0981
  898MOL0     C23795  10.836  -0.063   4.599  0.3586 -1.0176  0.1672
  898MOL0     C23796  10.874  -0.168   4.697 -0.2444 -0.2531 -0.5274
  898MOL0     C23797  10.835  -0.118   4.830 -0.3079  0.9837 -0.5944
  898MOL0     C23798  10.919  -0.191   4.939 -0.4050 -0.2694  0.5422
  898MOL0     C23799  10.866  -0.178   5.074  0.6889 -0.0292  0.3187
  898MOL0     C23800  10.934  -0.268   5.179  0.2999 -0.7149 -0.4399
  898MOL0     C23801  10.859  -0.268   5.306  0.7301  0.7053  0.3051
  898MOL0     C23802  10.914  -0.381   5.392  0.7087 -0.4623 -0.8692
  898MOL0     N23803  10.845  -0.365   5.524  1.0763  0.3028  0.1420
  898MOL0     C23804  10.760  -0.462   5.569  0.1225 -0.6609  0.2329
  898MOL0     C23805  10.715  -0.412   5.685 -0.0167  0.1702 -0.6514
  898MOL0     C23806  10.635  -0.488   5.788  0.2155  0.5551  0.2789
  898MOL0     C23807  10.492  -0.507   5.732 -1.1653  0.1327  0.2080
  898MOL0     C23808  10.417  -0.381   5.731 -0.5846 -0.3992 -0.4966
  898MOL0     C23809  10.362  -0.328   5.866 -0.2747 -1.1156  0.4538
  898MOL0     O23810  10.278  -0.423   5.921 -0.0938 -0.6145  0.6002
  898MOL0     C23811  10.218  -0.391   6.043 -0.2659 -0.5222 -0.4720
  898MOL0     C23812  10.107  -0.463   6.087 -0.6654 -0.8292  0.0983
  898MOL0     C23813  10.027  -0.439   6.197 -0.5986  0.0365  0.1932
  898MOL0     C23814   9.896  -0.516   6.206 -0.6254 -0.4436 -0.7489
  898MOL0     C23815  10.059  -0.324   6.277  0.2056  0.0133 -0.3744
  898MOL0     C23816   9.989  -0.289   6.405  0.3019 -0.4225  0.0283
  898MOL0     O23817  10.043  -0.177   6.468  0.3455 -0.6940 -0.2184
  898MOL0     C23818   9.987  -0.126   6.585  0.6206  0.3627  0.2103
  898MOL0     C23819   9.938  -0.205   6.692 -0.2844 -0.6841  0.4800
  898MOL0     C23820   9.877  -0.139   6.797 -0.6477 -0.2992  0.4261
  898MOL0     C23821   9.863  -0.001   6.800  0.4419 -0.5340  0.3269
  898MOL0     O23822   9.807   0.070   6.898  0.8542 -0.0491 -0.7514
  898MOL0     C23823   9.893   0.098   7.005 -0.3885 -0.1274 -0.3558
  898MOL0     C23824   9.827   0.159   7.124 -0.1791  0.6516  0.0617
  898MOL0     C23825   9.739   0.064   7.207  0.2758 -0.7616 -0.7021
  898MOL0     C23826   9.657   0.130   7.309  1.2949 -0.2604 -0.2863
  898MOL0     C23827   9.589   0.016   7.389  1.0229 -0.7405 -0.5470
  898MOL0     C23828   9.472   0.076   7.470  0.1770 -0.0301 -0.2567
  898MOL0     C23829   9.519   0.160   7.586  0.3054  0.2053  0.2668
  898MOL0     C23830   9.414   0.238   7.662  1.0810  0.3922 -0.0528
  898MOL0    Cl23831   9.288   0.120   7.719  0.1491 -0.2117  0.0426
  898MOL0     C23832   9.922   0.075   6.699 -0.5552 -0.2094 -0.4812
  898MOL0     C23833   9.988   0.011   6.596  0.1892  0.3292  0.2772
  898MOL0     O23834   9.892  -0.347   6.439  0.2465 -0.0246 -0.1806
  898MOL0     C23835  10.169  -0.241   6.235 -0.3457 -0.4225  0.3474
  898MOL0     C23836  10.241  -0.275   6.118 -0.0247  0.0310 -0.3958
  898MOL0     N23837  10.780  -0.290   5.707  0.0655 -0.0544  0.0488
  898MOL0     N23838  10.853  -0.262   5.606  0.2131 -0.2894 -0.9590
  898MOL0     C23839  10.580   0.184   4.629  0.1272 -0.2780  0.1525
  898MOL0     C23840  10.528   0.302   4.574  0.1733  0.7427  0.1201
  898MOL0     C23841  10.378   0.658   4.369 -0.7490  0.0212  0.3676
  898MOL0     C23842  10.466   0.700   4.265  0.7483 -1.3989  0.3502
  898MOL0     C23843  10.473   0.826   4.213 -0.0419 -0.2989 -0.3645
  898MOL0     C23844  10.394   0.921   4.282 -0.1505  0.1756  0.4610
  898MOL0     O23845  10.380   1.051   4.228 -0.1072  0.2796  0.8910
  898MOL0     C23846  10.461   1.082   4.118 -0.2705 -0.7502 -0.2773
  898MOL0     C23847  10.421   1.223   4.072 -0.3593 -0.2483 -0.3712
  898MOL0     C23848  10.267   1.225   4.044  0.3216 -0.3124 -0.1548
  898MOL0     C23849  10.224   1.353   3.966 -0.6327  0.5124  0.5556
  898MOL0     C23850  10.300   1.355   3.839  0.0613 -0.8783  0.4211
  898MOL0     C23851  10.354   1.365   3.726  0.6543 -0.3249 -0.2698
  898MOL0     C23852  10.301   0.885   4.380  1.0299 -0.4023  0.1382
  898MOL0     C23853  10.292   0.751   4.430  0.5097  0.4747 -0.4645
  898MOL0     C23854  10.183   0.727   4.543 -1.3751 -0.0458  0.4160
  898MOL0     H23855  10.664   0.276   4.259  0.0528  1.7613 -0.7398
  898MOL0     H23856  10.742   0.060   4.372  0.7166 -2.8346  0.9040
  898MOL0     H23857  10.894   0.026   4.626 -2.2316  1.0819 -0.7385
  898MOL0     H23858  10.862  -0.092   4.497  0.8704  1.5036 -0.5022
  898MOL0     H23859  10.828  -0.264   4.673 -1.2000 -0.3462  1.4416
  898MOL0     H23860  10.982  -0.183   4.691 -0.3749 -0.6037 -2.8729
  898MOL0     H23861  10.831  -0.009   4.839  2.4528  1.4199 -3.0469
  898MOL0     H23862  10.735  -0.157   4.851  0.7916 -2.7562 -1.4628
  898MOL0     H23863  10.939  -0.297   4.923  2.1595  0.3179 -0.6447
  898MOL0     H23864  11.018  -0.144   4.936 -0.9742  0.9978  0.9056
  898MOL0     H23865  10.758  -0.199   5.075  1.0424 -2.1721 -0.8368
  898MOL0     H23866  10.876  -0.075   5.111  0.7507 -0.1389  0.6088
  898MOL0     H23867  10.929  -0.371   5.142  0.5769 -1.6692  1.9780
  898MOL0     H23868  11.041  -0.249   5.193  0.3903 -2.4538  1.8535
  898MOL0     H23869  10.754  -0.290   5.287  1.1410 -1.1434  0.0311
  898MOL0     H23870  10.857  -0.170   5.355 -1.5733  0.1987  1.3486
  898MOL0     H23871  10.884  -0.469   5.334 -0.6329  0.7112 -2.0637
  898MOL0     H23872  11.023  -0.377   5.396  0.6919  3.2500  3.5201
  898MOL0     H23873  10.730  -0.551   5.514 -1.9986 -0.9460  1.7060
  898MOL0     H23874  10.633  -0.445   5.888 -0.9056  0.6978  0.2122
  898MOL0     H23875  10.680  -0.586   5.808  0.2039  0.6699  0.8811
  898MOL0     H23876  10.492  -0.543   5.629 -2.2609 -2.7996  1.1447
  898MOL0     H23877  10.441  -0.581   5.793 -1.7332  0.8308  0.5975
  898MOL0     H23878  10.473  -0.302   5.682  0.0452  3.0847  4.9340
  898MOL0     H23879  10.323  -0.398   5.678 -2.9729  1.8559  2.6075
  898MOL0     H23880  10.447  -0.308   5.932 -0.3574 -1.0291  0.5334
  898MOL0     H23881  10.318  -0.230   5.848 -1.9711 -2.0352 -0.6691
  898MOL0     H23882  10.103  -0.556   6.032  0.6973 -0.6244 -0.3890
  898MOL0     H23883   9.868  -0.524   6.101  2.4491 -1.3174 -1.6012
  898MOL0     H23884   9.818  -0.452   6.248  0.0076 -0.7872  1.0612
  898MOL0     H23885   9.903  -0.609   6.264 -0.5325 -0.4692 -0.8015
  898MOL0     H23886   9.953  -0.312   6.692  2.7943 -0.3631 -0.6935
  898MOL0     H23887   9.853  -0.206   6.879  2.1502 -2.9158 -0.6956
  898MOL0     H23888   9.953   0.016   7.043  2.3891  1.5094 -0.9337
  898MOL0     H23889   9.954   0.176   6.959 -3.0021  2.3073  0.0227
  898MOL0     H23890   9.907   0.209   7.180  0.3140 -0.9162  0.8032
  898MOL0     H23891   9.762   0.241   7.092 -0.6302  0.1756 -0.2396
  898MOL0     H23892   9.815  -0.009   7.236 -1.5220 -2.3407  0.2584
  898MOL0     H23893   9.673   0.002   7.146 -0.6556 -2.0990  1.5343
  898MOL0     H23894   9.576   0.193   7.273 -0.6436 -1.0028  2.3890
  898MOL0     H23895   9.711   0.203   7.370 -0.4986  1.2749 -0.4376
  898MOL0     H23896   9.573  -0.065   7.317  0.1820 -0.6513 -0.4761
  898MOL0     H23897   9.660  -0.026   7.460 -2.2514 -0.2450  3.3735
  898MOL0     H23898   9.410  -0.010   7.496 -0.5691 -0.3736 -2.9110
  898MOL0     H23899   9.405   0.137   7.410  0.6679 -1.0624 -1.9178
  898MOL0     H23900   9.603   0.225   7.563  0.8538 -0.0864  1.3993
  898MOL0     H23901   9.548   0.089   7.664 -2.0498 -0.3604  0.7356
  898MOL0     H23902   9.362   0.307   7.595  1.0321 -0.5412 -1.0074
  898MOL0     H23903   9.457   0.289   7.749 -0.0153  0.9004  0.2012
  898MOL0     H23904   9.916   0.183   6.704 -1.4928 -0.2165 -1.1401
  898MOL0     H23905  10.026   0.073   6.516 -1.1078  0.8062  0.0126
  898MOL0     H23906  10.200  -0.151   6.286  0.4871  0.4708 -1.6462
  898MOL0     H23907  10.315  -0.207   6.078  1.8788 -1.9051 -0.3718
  898MOL0     H23908  10.564   0.164   4.734 -1.5480  2.2743  0.4844
  898MOL0     H23909  10.490   0.380   4.639  0.3959  0.3942  0.6809
  898MOL0     H23910  10.536   0.631   4.220  1.5622 -0.5703  0.3223
  898MOL0     H23911  10.536   0.855   4.130 -0.2125 -0.7262 -0.6419
  898MOL0     H23912  10.570   1.081   4.132 -0.5486  0.9282  2.9504
  898MOL0     H23913  10.442   1.008   4.039 -0.5247 -1.6531  0.6199
  898MOL0     H23914  10.488   1.249   3.990 -1.2351 -0.9615 -1.3357
  898MOL0     H23915  10.431   1.293   4.155 -1.0442  0.3002 -0.7378
  898MOL0     H23916  10.242   1.131   3.994 -0.1148 -0.8123  0.9746
  898MOL0     H23917  10.218   1.241   4.140  1.6277  0.7818  0.3617
  898MOL0     H23918  10.250   1.447   4.015  0.6738  1.3045 -1.5148
  898MOL0     H23919  10.116   1.350   3.949 -0.8407 -0.6196  1.8790
  898MOL0     H23920  10.379   1.374   3.622 -0.4118 -0.4151 -0.5508
  898MOL0     H23921  10.244   0.964   4.428  3.3114  1.7653 -0.5170
  898MOL0     H23922  10.233   0.670   4.622 -1.1073  0.7289  0.8211
  898MOL0     H23923  10.163   0.827   4.581  0.9853 -0.8606  4.3886
  898MOL0     H23924  10.093   0.686   4.497 -0.6817 -2.0434  0.7420
  899MOL0     O23925   3.739  11.507   8.233 -0.2562  1.0671  0.3268
  899MOL0     C23926   3.695  11.576   8.140  0.3987 -0.1915 -1.6227
  899MOL0     O23927   3.730  11.706   8.109  0.3241  0.6867  0.0464
  899MOL0     C23928   3.826  11.761   8.183  0.4537 -0.4665 -0.3313
  899MOL0     C23929   3.957  11.724   8.153  0.2064  0.3771  0.6313
  899MOL0     C23930   4.058  11.801   8.211 -0.6010  0.3848  0.5014
  899MOL0     C23931   4.033  11.889   8.317  0.4075  0.3933 -0.8481
  899MOL0     O23932   4.138  11.948   8.386 -0.4349 -0.9156 -0.5064
  899MOL0     C23933   4.148  11.940   8.531 -0.7739 -0.1022 -0.8421
  899MOL0     C23934   4.264  11.849   8.565 -0.8719 -0.4432 -0.1288
  899MOL0     C23935   4.398  11.852   8.484 -0.6551  0.5268 -0.1422
  899MOL0     C23936   4.485  11.739   8.520  0.2018 -0.3794 -0.2171
  899MOL0     C23937   4.586  11.714   8.403  0.1922  0.3434 -1.0432
  899MOL0     C23938   4.655  11.582   8.408 -0.2782 -0.3879  0.1381
  899MOL0     C23939   4.730  11.553   8.535 -0.2894 -0.0526  0.1969
  899MOL0     C23940   4.823  11.434   8.531 -0.0348 -0.2607 -0.1922
  899MOL0     N23941   4.757  11.302   8.546 -0.5839  0.6231 -0.0557
  899MOL0     C23942   4.625  11.265   8.512  1.4462  0.6856  0.5301
  899MOL0     C23943   4.598  11.149   8.581  0.9145 -0.3836  0.0623
  899MOL0     C23944   4.469  11.071   8.585  0.0983  1.0489  0.4951
  899MOL0     C23945   4.391  11.135   8.695  0.8609  0.3407 -0.0059
  899MOL0     C23946   4.246  11.076   8.697  0.5609 -0.6041  0.3697
  899MOL0     C23947   4.157  11.164   8.788 -0.3765  0.6329 -0.2109
  899MOL0     O23948   4.235  11.190   8.911 -0.1321  0.4625  0.4364
  899MOL0     C23949   4.170  11.196   9.032 -0.3309 -0.4318 -1.0929
  899MOL0     C23950   4.231  11.261   9.132  0.0388  0.1135 -0.5169
  899MOL0     C23951   4.170  11.291   9.260  1.1277 -0.7242 -0.2978
  899MOL0     C23952   4.237  11.383   9.354 -0.3843  0.1463 -0.3948
  899MOL0     C23953   4.045  11.217   9.292  0.8364 -0.5445 -0.3226
  899MOL0     C23954   3.969  11.230   9.418 -0.5157  0.1333  0.1229
  899MOL0     O23955   3.838  11.203   9.405 -0.5395  0.0053 -0.4859
  899MOL0     C23956   3.750  11.227   9.504  0.2031  0.2137  0.8038
  899MOL0     C23957   3.666  11.128   9.567 -0.7425 -0.2725  0.2602
  899MOL0     C23958   3.553  11.171   9.641 -0.5438  0.9517  0.0996
  899MOL0     C23959   3.540  11.307   9.679  0.1125  1.9614 -1.1730
  899MOL0     O23960   3.453  11.334   9.785 -0.0706  0.3819 -0.0689
  899MOL0     C23961   3.423  11.472   9.823 -1.1167 -0.1259 -0.0412
  899MOL0     C23962   3.359  11.545   9.703  0.5917  0.4240  0.0174
  899MOL0     C23963   3.205  11.530   9.734 -0.4050  0.0402 -0.7764
  899MOL0     C23964   3.143  11.639   9.834  0.4432 -0.4474 -0.2676
  899MOL0     C23965   3.013  11.571   9.898  0.1952  0.2736 -0.5378
  899MOL0     C23966   2.895  11.556   9.809  0.0807  0.1822  0.3970
  899MOL0     C23967   2.768  11.510   9.889 -0.2375  0.1956  0.4875
  899MOL0     C23968   2.716  11.593  10.012 -0.1494  0.2519  0.0179
  899MOL0    Cl23969   2.648  11.750   9.957  0.1075 -0.2219  0.3679
  899MOL0     C23970   3.630  11.398   9.631  0.0917 -0.2284  0.1515
  899MOL0     C23971   3.729  11.366   9.542  0.4223  0.2767 -0.2587
  899MOL0     O23972   4.033  11.265   9.522  0.7334 -0.6266 -1.2331
  899MOL0     C23973   3.990  11.139   9.185 -0.8035  0.1673 -0.3935
  899MOL0     C23974   4.053  11.123   9.065  0.6364  1.1426  0.7819
  899MOL0     N23975   4.718  11.108   8.643  0.5157 -0.6367 -1.2639
  899MOL0     N23976   4.807  11.207   8.628 -0.4211 -0.5147 -0.2546
  899MOL0     C23977   3.905  11.923   8.349  0.3548  0.2161  0.3705
  899MOL0     C23978   3.797  11.863   8.272  0.1843 -1.2961 -0.1837
  899MOL0     C23979   3.588  11.497   8.054 -0.5922  0.3689 -0.3643
  899MOL0     C23980   3.585  11.539   7.921 -0.7375  1.0643 -0.7087
  899MOL0     C23981   3.492  11.482   7.836  0.3479  0.0207  0.4113
  899MOL0     C23982   3.387  11.393   7.882  0.5466  0.1619  0.2337
  899MOL0     O23983   3.296  11.336   7.804 -0.2810  0.4921 -0.1333
  899MOL0     C23984   3.269  11.383   7.672 -0.1634 -0.5420  0.2840
  899MOL0     C23985   3.352  11.284   7.582 -0.2025 -0.3663  0.7548
  899MOL0     C23986   3.257  11.158   7.557 -0.5105 -0.1780 -0.8714
  899MOL0     C23987   3.324  11.046   7.479 -0.1439  0.3951 -1.0263
  899MOL0     C23988   3.240  10.930   7.458  0.4465 -0.5676 -0.6516
  899MOL0     C23989   3.161  10.842   7.437 -0.7606  0.3513 -0.5182
  899MOL0     C23990   3.399  11.353   8.014  0.0417 -0.5912  0.1544
  899MOL0     C23991   3.498  11.398   8.105 -0.3989  0.5639  0.8768
  899MOL0     C23992   3.490  11.365   8.251  0.6443  0.4597  0.4364
  899MOL0     H23993   3.992  11.651   8.081  0.7215  0.9087  0.3364
  899MOL0     H23994   4.160  11.776   8.184 -0.7626  1.5097 -1.2933
  899MOL0     H23995   4.058  11.910   8.585 -1.4110  1.3331 -1.0440
  899MOL0     H23996   4.173  12.041   8.566  2.8661 -1.1928  0.1491
  899MOL0     H23997   4.284  11.868   8.671  0.6594  1.3203 -0.6920
  899MOL0     H23998   4.215  11.752   8.551 -0.6390 -0.3610 -1.5982
  899MOL0     H23999   4.381  11.834   8.377  2.8757 -0.3568 -0.6829
  899MOL0     H24000   4.448  11.949   8.496  1.5201 -0.7124  1.6519
  899MOL0     H24001   4.549  11.749   8.608  1.3187 -1.0007 -0.9320
  899MOL0     H24002   4.422  11.650   8.534 -2.5615  1.3671 -0.6297
  899MOL0     H24003   4.655  11.798   8.405  0.1258  0.3922  0.7856
  899MOL0     H24004   4.545  11.718   8.302  0.3598  0.9665 -1.0923
  899MOL0     H24005   4.585  11.503   8.381 -0.9171 -0.1387  1.0136
  899MOL0     H24006   4.728  11.598   8.328  1.0997 -0.4547  1.3303
  899MOL0     H24007   4.661  11.535   8.619 -1.4953 -0.7007 -0.8959
  899MOL0     H24008   4.796  11.638   8.554  0.9392 -0.8066 -0.6019
  899MOL0     H24009   4.893  11.431   8.447 -0.4872  3.5934 -0.8727
  899MOL0     H24010   4.893  11.454   8.612  0.3136  0.2305 -0.6099
  899MOL0     H24011   4.557  11.319   8.447 -1.4509 -0.3373  2.4968
  899MOL0     H24012   4.479  10.964   8.604  3.6948  1.6300  2.7448
  899MOL0     H24013   4.408  11.095   8.498 -0.5954 -1.6957  0.1408
  899MOL0     H24014   4.434  11.115   8.794 -1.4060 -0.3504  0.9189
  899MOL0     H24015   4.387  11.243   8.675  1.9992  0.0567 -1.9538
  899MOL0     H24016   4.207  11.061   8.596 -0.1424  1.9272  0.2030
  899MOL0     H24017   4.244  10.982   8.754 -0.2895  0.4227  2.1312
  899MOL0     H24018   4.141  11.262   8.740  1.7107  0.8619 -0.5201
  899MOL0     H24019   4.059  11.118   8.803  0.1273 -0.4953 -0.3195
  899MOL0     H24020   4.329  11.304   9.111  1.4435 -2.0895  1.0893
  899MOL0     H24021   4.321  11.443   9.317  1.1748 -2.3907 -1.2013
  899MOL0     H24022   4.292  11.313   9.418  0.7502 -1.5116 -3.0192
  899MOL0     H24023   4.163  11.438   9.414 -3.7325 -4.3588  0.0955
  899MOL0     H24024   3.691  11.027   9.535  1.9643  0.9629 -1.9042
  899MOL0     H24025   3.496  11.090   9.685  3.6110 -1.4613  1.6649
  899MOL0     H24026   3.362  11.471   9.914 -0.2038  0.1138  0.5815
  899MOL0     H24027   3.511  11.519   9.866 -0.0673 -3.2375  1.5489
  899MOL0     H24028   3.382  11.652   9.697  0.2001  0.5952  1.2273
  899MOL0     H24029   3.365  11.493   9.607 -2.7652 -0.5018  0.1807
  899MOL0     H24030   3.185  11.429   9.772 -0.3929  0.7679  1.2605
  899MOL0     H24031   3.153  11.554   9.640  0.7659  0.3384 -1.3736
  899MOL0     H24032   3.119  11.731   9.780 -1.6603 -0.8868 -0.1775
  899MOL0     H24033   3.218  11.665   9.909 -0.8964 -0.8743  1.2726
  899MOL0     H24034   3.027  11.478   9.955 -3.2124 -0.9455 -1.4846
  899MOL0     H24035   2.968  11.640   9.970 -1.3331 -1.7291  0.5476
  899MOL0     H24036   2.912  11.476   9.735 -0.2153 -0.4414  0.9965
  899MOL0     H24037   2.890  11.648   9.751  3.3987  0.4698  0.3593
  899MOL0     H24038   2.781  11.405   9.916  2.0071  0.1910 -0.4049
  899MOL0     H24039   2.685  11.508   9.817  0.8664  0.3565 -0.8392
  899MOL0     H24040   2.796  11.608  10.085 -1.7565  1.6410  1.6271
  899MOL0     H24041   2.632  11.535  10.054  0.1583 -2.1083 -2.3830
  899MOL0     H24042   3.616  11.499   9.667  0.0926 -0.2381  0.1789
  899MOL0     H24043   3.790  11.443   9.496  0.2747  1.3300  1.2463
  899MOL0     H24044   3.903  11.077   9.206 -0.2054 -1.1318 -1.5739
  899MOL0     H24045   4.029  11.045   8.994  0.0217  2.5463 -0.6133
  899MOL0     H24046   3.880  12.005   8.417  0.4889 -0.4001  1.1748
  899MOL0     H24047   3.694  11.890   8.296  0.2659 -2.7722  2.1413
  899MOL0     H24048   3.642  11.612   7.865  0.9519 -1.6532 -2.8273
  899MOL0     H24049   3.503  11.516   7.734 -0.1507  3.2251  1.3121
  899MOL0     H24050   3.161  11.384   7.652 -0.3111  3.4179  0.6090
  899MOL0     H24051   3.304  11.486   7.659 -0.0727 -0.2564  2.5507
  899MOL0     H24052   3.449  11.265   7.630  1.5305 -1.7361 -2.9115
  899MOL0     H24053   3.378  11.331   7.487 -1.1305 -1.3008  0.0105
  899MOL0     H24054   3.234  11.117   7.656  2.6848  1.6632  0.7937
  899MOL0     H24055   3.168  11.192   7.503 -1.8411 -0.5531  0.9767
  899MOL0     H24056   3.414  11.026   7.538  2.3830  3.3204 -3.5168
  899MOL0     H24057   3.354  11.094   7.385 -3.7187  1.2315 -1.8919
  899MOL0     H24058   3.105  10.754   7.411  2.1181 -1.7646  0.0084
  899MOL0     H24059   3.316  11.292   8.047 -0.3004 -0.4849 -0.5091
  899MOL0     H24060   3.590  11.343   8.291  0.8356 -0.6599 -0.5858
  899MOL0     H24061   3.439  11.445   8.305  1.1739  1.6783 -0.8178
  899MOL0     H24062   3.433  11.271   8.251 -1.9252  1.8720 -2.2544
  900MOL0     O24063   5.354   0.937   8.404 -0.2343  0.0765  0.3004
  900MOL0     C24064   5.397   0.878   8.503 -0.2196 -0.1824  0.9967
  900MOL0     O24065   5.334   0.880   8.618  0.0838  0.5381  0.3170
  900MOL0     C24066   5.205   0.936   8.652 -0.5735 -1.2902  0.3735
  900MOL0     C24067   5.114   0.974   8.558 -0.7973 -0.4112  0.0633
  900MOL0     C24068   4.989   1.027   8.587 -0.0963 -0.3794 -0.7030
  900MOL0     C24069   4.947   1.033   8.721  0.0375 -0.5876  0.2608
  900MOL0     O24070   4.830   1.098   8.759 -0.4018  0.3055 -0.8245
  900MOL0     C24071   4.813   1.230   8.699 -0.7845  0.4077 -0.3701
  900MOL0     C24072   4.890   1.348   8.755  0.8267 -0.7628 -0.4360
  900MOL0     C24073   4.830   1.374   8.900 -0.4018  0.0452 -0.0420
  900MOL0     C24074   4.884   1.512   8.947  0.3389 -0.7762  0.2134
  900MOL0     C24075   4.854   1.535   9.095  0.0866 -0.6028 -1.1432
  900MOL0     C24076   4.912   1.673   9.135 -0.5327 -0.7984  0.2884
  900MOL0     C24077   4.844   1.716   9.273  0.3712 -0.6406 -0.5116
  900MOL0     C24078   4.875   1.870   9.298  0.2833  0.0744  0.3042
  900MOL0     N24079   5.007   1.904   9.337  0.8820 -0.0995 -0.5117
  900MOL0     C24080   5.049   1.897   9.472 -0.0411  0.1576  0.6381
  900MOL0     C24081   5.176   1.930   9.465 -0.0288 -0.0993  0.8760
  900MOL0     C24082   5.272   1.931   9.581  0.1171  0.0871  0.4700
  900MOL0     C24083   5.383   2.050   9.582 -0.1975  0.2770 -0.3315
  900MOL0     C24084   5.467   2.045   9.708  0.3514  0.2065 -0.2157
  900MOL0     C24085   5.612   2.009   9.682  0.0569  0.4440 -0.7644
  900MOL0     O24086   5.627   1.884   9.627 -0.4485  1.0466 -0.2683
  900MOL0     C24087   5.755   1.842   9.601 -0.4476  0.4799  1.7989
  900MOL0     C24088   5.864   1.935   9.587  0.6539  0.0956 -0.0780
  900MOL0     C24089   5.987   1.897   9.535  1.2669  0.5292  0.3297
  900MOL0     C24090   6.097   2.004   9.517  0.1462 -0.0364 -0.0848
  900MOL0     C24091   6.002   1.761   9.495 -0.9733 -0.8104  0.0424
  900MOL0     C24092   6.115   1.722   9.423 -0.5234  0.6808  0.9473
  900MOL0     O24093   6.175   1.616   9.482 -0.5194 -0.5287  0.1581
  900MOL0     C24094   6.311   1.580   9.471 -0.2190 -0.2812 -0.5590
  900MOL0     C24095   6.386   1.567   9.592  0.7368  0.2698 -0.2285
  900MOL0     C24096   6.508   1.512   9.597 -0.5505 -0.6819 -0.3176
  900MOL0     C24097   6.569   1.457   9.482  0.3875  0.7062 -0.1140
  900MOL0     O24098   6.687   1.399   9.500 -0.2854 -0.3083  0.1357
  900MOL0     C24099   6.733   1.317   9.389 -0.0317 -0.7253 -0.2040
  900MOL0     C24100   6.835   1.216   9.430 -0.0161  0.4240  0.1098
  900MOL0     C24101   6.897   1.166   9.306  0.1174 -0.0882  1.0598
  900MOL0     C24102   6.982   1.048   9.345  0.3199 -0.2917  0.4966
  900MOL0     C24103   7.074   1.005   9.235 -0.2116 -0.0988  0.1544
  900MOL0     C24104   6.995   0.967   9.110 -0.0966 -0.8153  0.5380
  900MOL0     C24105   6.999   1.074   8.997  0.1292  0.1752 -0.0913
  900MOL0     C24106   6.889   1.042   8.894  0.4911  0.7501 -0.1264
  900MOL0    Cl24107   6.746   1.140   8.937 -0.2729 -0.3056  0.0216
  900MOL0     C24108   6.503   1.476   9.364  0.6468  0.7634  0.8600
  900MOL0     C24109   6.373   1.541   9.352  0.8811  0.9354  0.1230
  900MOL0     O24110   6.142   1.756   9.309  1.3786  0.6515  0.2849
  900MOL0     C24111   5.905   1.673   9.500 -0.3910  0.1017  1.4792
  900MOL0     C24112   5.775   1.714   9.552 -0.7132 -0.4201 -0.6416
  900MOL0     N24113   5.209   1.951   9.333  0.1459 -0.3393  0.8934
  900MOL0     N24114   5.106   1.948   9.257 -0.4445 -0.6362  0.5732
  900MOL0     C24115   5.038   0.983   8.817 -0.3747 -0.3609 -0.2258
  900MOL0     C24116   5.167   0.940   8.779  0.0789  0.0631  0.4426
  900MOL0     C24117   5.510   0.784   8.485 -0.0134  0.0105  1.3418
  900MOL0     C24118   5.551   0.691   8.588  0.6976  0.4984 -0.1506
  900MOL0     C24119   5.656   0.607   8.570  0.5587  1.0554  0.0820
  900MOL0     C24120   5.724   0.593   8.459 -0.2258 -0.9561 -1.3800
  900MOL0     O24121   5.834   0.518   8.441  0.7607 -0.3601  0.2744
  900MOL0     C24122   5.905   0.448   8.546 -0.0449  1.0834 -0.1015
  900MOL0     C24123   6.017   0.533   8.590  0.7822 -0.4229  0.5429
  900MOL0     C24124   6.096   0.491   8.715  0.4492  1.0435  0.0940
  900MOL0     C24125   6.220   0.410   8.686 -0.5441 -0.3416  0.3171
  900MOL0     C24126   6.194   0.277   8.641 -0.3026  0.5316 -0.6143
  900MOL0     C24127   6.176   0.162   8.604  0.0970 -0.2521  0.9549
  900MOL0     C24128   5.688   0.674   8.354  0.4560 -0.2614 -0.0952
  900MOL0     C24129   5.580   0.771   8.357 -0.8513 -0.8681 -0.4717
  900MOL0     C24130   5.568   0.857   8.234  0.2988  0.0273 -0.4310
  900MOL0     H24131   5.129   0.951   8.453  3.8350 -2.8865  0.9714
  900MOL0     H24132   4.926   1.053   8.502  0.7347 -0.4126 -1.3316
  900MOL0     H24133   4.706   1.251   8.711 -0.4995  1.7484 -0.0352
  900MOL0     H24134   4.838   1.226   8.593  2.0739  1.2699  0.1881
  900MOL0     H24135   4.996   1.322   8.758  1.0871  0.1706 -1.1700
  900MOL0     H24136   4.885   1.434   8.688  1.4858  1.9350  2.7234
  900MOL0     H24137   4.721   1.380   8.908 -0.3752 -0.7260  0.9860
  900MOL0     H24138   4.863   1.289   8.960  3.1730  0.5385 -1.0327
  900MOL0     H24139   4.987   1.540   8.922  0.1773  0.6524  0.9793
  900MOL0     H24140   4.836   1.591   8.888  0.7458 -0.6225  0.0804
  900MOL0     H24141   4.909   1.465   9.159  2.2495  1.3570 -0.7253
  900MOL0     H24142   4.746   1.539   9.113 -0.3718 -0.6627 -3.5382
  900MOL0     H24143   5.021   1.673   9.145 -0.4464 -0.7389 -0.5810
  900MOL0     H24144   4.878   1.744   9.059 -1.0466  1.5262  2.5323
  900MOL0     H24145   4.892   1.659   9.353  0.6040 -1.0817 -0.9622
  900MOL0     H24146   4.738   1.687   9.270  0.3722 -0.8068  0.5429
  900MOL0     H24147   4.858   1.922   9.203 -1.2412  1.0295  1.0617
  900MOL0     H24148   4.804   1.913   9.369  0.3098  3.4589 -1.5342
  900MOL0     H24149   4.994   1.876   9.563  2.4327  3.0193  3.0414
  900MOL0     H24150   5.327   1.836   9.588 -0.5956 -0.5583 -1.8522
  900MOL0     H24151   5.207   1.951   9.667 -0.7657 -2.2516  0.4182
  900MOL0     H24152   5.441   2.039   9.490  2.6163  0.5151  1.3043
  900MOL0     H24153   5.338   2.150   9.582  0.7295  0.7066 -0.2053
  900MOL0     H24154   5.464   2.139   9.764  4.1467 -0.4018  1.3050
  900MOL0     H24155   5.436   1.964   9.775  2.3527  0.1668  0.7340
  900MOL0     H24156   5.660   2.087   9.623  0.5905  0.1702 -0.6896
  900MOL0     H24157   5.666   2.004   9.777  2.2983 -0.2232 -2.0165
  900MOL0     H24158   5.852   2.036   9.625  0.1117  0.6140 -1.5535
  900MOL0     H24159   6.055   2.088   9.461 -3.4324 -0.2821  1.9243
  900MOL0     H24160   6.187   1.972   9.463  1.6974  0.3834  2.1208
  900MOL0     H24161   6.117   2.040   9.618 -1.4722  2.0656 -0.4523
  900MOL0     H24162   6.334   1.590   9.684 -3.3954  1.2630 -2.5915
  900MOL0     H24163   6.560   1.500   9.692 -0.5752  0.9006 -0.0678
  900MOL0     H24164   6.658   1.252   9.342 -0.0149 -1.1196  0.3063
  900MOL0     H24165   6.780   1.382   9.315  1.1476  0.5899  1.6154
  900MOL0     H24166   6.913   1.257   9.495  1.6104 -2.3995  0.0770
  900MOL0     H24167   6.793   1.137   9.493 -2.8958 -0.0966 -2.2345
  900MOL0     H24168   6.955   1.239   9.249 -1.3104  0.4683  0.2824
  900MOL0     H24169   6.822   1.139   9.231  2.5151 -2.3167 -0.7198
  900MOL0     H24170   6.914   0.967   9.372 -2.4525  1.2856 -1.1883
  900MOL0     H24171   7.048   1.069   9.430  0.2067 -2.7966  1.2774
  900MOL0     H24172   7.159   1.072   9.221 -0.3780 -0.1392 -1.1909
  900MOL0     H24173   7.115   0.905   9.253  1.3126 -0.2041 -3.1545
  900MOL0     H24174   6.891   0.952   9.141 -0.1260  0.5175  1.1836
  900MOL0     H24175   7.038   0.872   9.078 -0.6417 -1.5537  1.9122
  900MOL0     H24176   7.092   1.068   8.940  0.4977  3.5152 -0.0074
  900MOL0     H24177   6.997   1.176   9.035  2.0074 -0.0245  0.6675
  900MOL0     H24178   6.860   0.937   8.905  1.0120  0.7162  1.1325
  900MOL0     H24179   6.929   1.058   8.794 -0.0483  1.0128 -0.3061
  900MOL0     H24180   6.544   1.446   9.268 -0.9352  0.4518  0.2533
  900MOL0     H24181   6.331   1.564   9.254  0.9523 -2.5810 -0.8971
  900MOL0     H24182   5.926   1.573   9.465 -2.9427  0.4849 -1.6569
  900MOL0     H24183   5.687   1.651   9.547 -0.9459 -0.1751  0.3005
  900MOL0     H24184   5.011   0.988   8.923  5.4526  1.8034  1.5405
  900MOL0     H24185   5.238   0.902   8.852  0.5607 -1.1473 -0.6199
  900MOL0     H24186   5.493   0.677   8.679  1.9660 -0.1808  0.5855
  900MOL0     H24187   5.689   0.558   8.660  3.3735  0.9350 -0.9302
  900MOL0     H24188   5.848   0.421   8.636  2.2379 -0.3641  1.0243
  900MOL0     H24189   5.941   0.351   8.509  0.0080  0.4058  1.6185
  900MOL0     H24190   5.965   0.628   8.600 -0.2749 -0.7304 -1.5337
  900MOL0     H24191   6.087   0.551   8.508  0.5869  2.1995  0.8615
  900MOL0     H24192   6.131   0.575   8.775  2.7260 -0.4797  0.9980
  900MOL0     H24193   6.029   0.433   8.780  2.0410  0.2081  1.0277
  900MOL0     H24194   6.278   0.404   8.779  1.6613  3.4751 -0.5924
  900MOL0     H24195   6.283   0.460   8.612 -2.2161  0.4435 -0.6396
  900MOL0     H24196   6.168   0.058   8.579 -0.3883  0.4851 -2.4152
  900MOL0     H24197   5.739   0.676   8.258  0.7342  1.9977  0.0380
  900MOL0     H24198   5.587   0.961   8.265  0.7543 -0.0627 -0.3994
  900MOL0     H24199   5.637   0.823   8.157  0.1229 -2.4529  0.4351
  900MOL0     H24200   5.474   0.853   8.178  1.5590  0.0576 -2.6594
  901MOL0     O24201   3.180   1.561   8.806  0.4962 -0.1228 -0.6042
  901MOL0     C24202   3.240   1.478   8.873 -0.5415  0.4345  0.3023
  901MOL0     O24203   3.287   1.512   9.000  0.0205 -0.3833 -0.1903
  901MOL0     C24204   3.260   1.630   9.069 -0.9684 -0.3049 -0.5508
  901MOL0     C24205   3.151   1.722   9.057 -0.0602 -0.5204 -0.1373
  901MOL0     C24206   3.149   1.833   9.135  0.2942 -0.5416 -1.1497
  901MOL0     C24207   3.245   1.849   9.240  0.2616 -0.0368 -0.7872
  901MOL0     O24208   3.246   1.965   9.324  0.7308  0.7071 -0.5503
  901MOL0     C24209   3.134   2.054   9.328 -0.9588  0.5382 -0.0584
  901MOL0     C24210   3.154   2.133   9.452 -0.0799  0.3897 -0.3434
  901MOL0     C24211   3.125   2.063   9.585  0.3805  0.4835  0.0894
  901MOL0     C24212   3.071   2.156   9.690  0.3456 -0.3809 -0.6912
  901MOL0     C24213   3.107   2.099   9.837  1.1056 -0.7402 -0.7430
  901MOL0     C24214   3.027   2.163   9.943  0.0444  0.8164 -0.7027
  901MOL0     C24215   3.048   2.307   9.960 -1.0384 -0.7241  0.8034
  901MOL0     C24216   3.194   2.355  10.000 -0.3751  0.0191 -1.3886
  901MOL0     N24217   3.234   2.280  10.124  0.3795 -0.2487 -0.0411
  901MOL0     C24218   3.162   2.304  10.247  0.6511  0.2466 -0.2146
  901MOL0     C24219   3.179   2.194  10.320  0.6006  1.0603 -0.1065
  901MOL0     C24220   3.117   2.170  10.456  0.4168 -1.0962  1.3610
  901MOL0     C24221   3.215   2.165  10.563 -1.0706  0.5000 -0.0047
  901MOL0     C24222   3.236   2.287  10.640  0.8008 -0.5061 -0.6951
  901MOL0     C24223   3.386   2.309  10.687  1.0495  0.3660 -0.0190
  901MOL0     O24224   3.441   2.178  10.717  0.4682 -0.2677  0.4557
  901MOL0     C24225   3.429   2.110  10.826  0.5750  0.6725  0.2366
  901MOL0     C24226   3.498   1.987  10.846 -0.1879  0.1778 -0.2540
  901MOL0     C24227   3.492   1.899  10.959  0.2457 -0.8085  0.2179
  901MOL0     C24228   3.573   1.775  10.963  0.2169 -0.9671  0.0090
  901MOL0     C24229   3.387   1.925  11.043  0.0101 -0.8638 -0.4139
  901MOL0     C24230   3.334   1.840  11.151 -0.6674  0.4602 -0.3070
  901MOL0     O24231   3.293   1.717  11.115  0.4058  0.6918  0.0277
  901MOL0     C24232   3.214   1.635  11.193 -0.4234 -0.2937  0.9265
  901MOL0     C24233   3.234   1.500  11.164 -0.6882 -0.2467 -0.0959
  901MOL0     C24234   3.148   1.404  11.227  0.7371  0.5433  0.3791
  901MOL0     C24235   3.054   1.452  11.322  0.0077  0.1075 -0.6094
  901MOL0     O24236   2.969   1.367  11.384 -0.1770 -0.0477 -0.4950
  901MOL0     C24237   3.041   1.252  11.449 -0.0213 -0.5367 -0.5687
  901MOL0     C24238   2.997   1.123  11.375  0.0236 -0.0450  0.2954
  901MOL0     C24239   3.091   0.998  11.402  0.1291  0.2809 -0.6885
  901MOL0     C24240   3.091   0.975  11.562  0.0593  0.9374  0.7058
  901MOL0     C24241   3.166   0.842  11.585 -0.2842  0.0957 -0.3110
  901MOL0     C24242   3.139   0.800  11.734  0.0126  0.4266 -0.6693
  901MOL0     C24243   3.172   0.654  11.778  0.7946 -0.6253 -0.1725
  901MOL0     C24244   3.146   0.640  11.925 -0.2102 -0.3138  0.4708
  901MOL0    Cl24245   3.143   0.475  11.983  0.5505  0.0849 -0.1151
  901MOL0     C24246   3.053   1.590  11.354 -0.3210  0.6052 -0.7520
  901MOL0     C24247   3.130   1.680  11.296 -1.3754 -0.1029 -0.0215
  901MOL0     O24248   3.332   1.888  11.269  0.2358  1.1722  0.7349
  901MOL0     C24249   3.324   2.053  11.041 -0.0479  0.1220  0.1365
  901MOL0     C24250   3.342   2.142  10.927  1.1025 -0.4152 -0.3005
  901MOL0     N24251   3.257   2.100  10.255 -0.5448  0.6939  0.9664
  901MOL0     N24252   3.295   2.162  10.147 -0.0634 -0.7462  0.9437
  901MOL0     C24253   3.355   1.765   9.257 -0.3911 -0.0970 -0.2172
  901MOL0     C24254   3.364   1.653   9.169  0.0888  0.1858  0.5187
  901MOL0     C24255   3.259   1.337   8.814  0.2198  0.4318 -0.1044
  901MOL0     C24256   3.357   1.258   8.875  0.7888 -0.1228  1.3302
  901MOL0     C24257   3.381   1.128   8.834  0.0665 -0.7254  0.0192
  901MOL0     C24258   3.307   1.062   8.746  0.2861  0.1674 -0.3296
  901MOL0     O24259   3.343   0.932   8.720 -0.3082 -0.6879  0.0902
  901MOL0     C24260   3.250   0.842   8.650 -0.6450  0.7397 -0.0363
  901MOL0     C24261   3.168   0.773   8.755 -0.0539  0.5480  1.4759
  901MOL0     C24262   3.086   0.651   8.708  0.2498  0.2715 -0.0904
  901MOL0     C24263   2.939   0.675   8.681 -0.4543 -1.1330 -0.4671
  901MOL0     C24264   2.930   0.693   8.534 -0.5018  0.4881  0.6758
  901MOL0     C24265   2.951   0.706   8.419 -0.7108  0.4305  0.2389
  901MOL0     C24266   3.191   1.134   8.683 -0.9471  0.0475  0.3477
  901MOL0     C24267   3.175   1.267   8.719  0.0556 -0.9335  0.8592
  901MOL0     C24268   3.058   1.337   8.650 -0.2868 -0.2701  0.2957
  901MOL0     H24269   3.084   1.709   8.972  0.5743 -3.6115 -0.3051
  901MOL0     H24270   3.075   1.907   9.106  0.4015  0.0735  0.0686
  901MOL0     H24271   3.038   2.002   9.335 -1.8902  2.2759  0.8554
  901MOL0     H24272   3.145   2.109   9.234  1.6287 -1.6565 -1.1930
  901MOL0     H24273   3.251   2.180   9.467  0.4544 -1.4809  3.0221
  901MOL0     H24274   3.078   2.211   9.450 -0.6970 -0.0940  1.6539
  901MOL0     H24275   3.050   1.985   9.579  0.3045  0.4560  1.1717
  901MOL0     H24276   3.214   2.012   9.621 -1.9180 -2.3971  2.1104
  901MOL0     H24277   3.115   2.254   9.668  1.0757 -1.0426 -2.3499
  901MOL0     H24278   2.963   2.170   9.674 -0.0255 -0.4859  1.4648
  901MOL0     H24279   3.213   2.112   9.859  0.6353  3.7225 -0.2309
  901MOL0     H24280   3.082   1.993   9.840 -2.1724 -0.0639  1.1740
  901MOL0     H24281   2.924   2.134   9.918 -0.8590 -1.0797  3.9922
  901MOL0     H24282   3.050   2.115  10.039 -1.0298 -1.7700 -1.6262
  901MOL0     H24283   2.979   2.337  10.039 -1.2517  2.9430 -0.6045
  901MOL0     H24284   3.023   2.361   9.868  2.2128 -0.8203 -0.2477
  901MOL0     H24285   3.252   2.341   9.908  2.4691  0.0329  0.3181
  901MOL0     H24286   3.197   2.463  10.014 -0.0727 -0.1226 -0.2680
  901MOL0     H24287   3.102   2.391  10.272 -0.2658 -1.2125  3.2029
  901MOL0     H24288   3.077   2.069  10.442 -1.3565 -0.2446 -0.2458
  901MOL0     H24289   3.031   2.236  10.469  1.6961  1.5497 -2.0352
  901MOL0     H24290   3.175   2.091  10.633 -2.2027  0.4055 -0.7197
  901MOL0     H24291   3.309   2.133  10.519  0.8491  3.5405  1.5483
  901MOL0     H24292   3.207   2.364  10.568  0.2389 -0.6877 -0.6716
  901MOL0     H24293   3.168   2.295  10.726  0.5341 -0.5013 -0.9042
  901MOL0     H24294   3.445   2.349  10.604 -1.9193 -0.3843 -2.6739
  901MOL0     H24295   3.400   2.372  10.776  2.7501 -1.7283  1.3260
  901MOL0     H24296   3.566   1.959  10.766  0.2098 -2.4170  0.8540
  901MOL0     H24297   3.506   1.688  10.975  0.2708 -0.8531  1.3175
  901MOL0     H24298   3.644   1.778  11.046 -1.0891  2.4301  1.1622
  901MOL0     H24299   3.611   1.761  10.861 -1.7753 -0.4960 -0.8594
  901MOL0     H24300   3.309   1.466  11.093  0.0184 -0.4055  0.7036
  901MOL0     H24301   3.169   1.300  11.207  0.3989  0.3488  0.9905
  901MOL0     H24302   3.148   1.273  11.447 -0.6178  3.3454 -0.8397
  901MOL0     H24303   3.020   1.243  11.556 -2.9098 -1.2793 -1.1101
  901MOL0     H24304   2.893   1.105  11.400  0.3790 -1.3844  0.9269
  901MOL0     H24305   3.013   1.129  11.267  0.4041  0.7546  0.3883
  901MOL0     H24306   3.193   1.020  11.368  0.8180  0.4642  1.3946
  901MOL0     H24307   3.050   0.912  11.349 -1.4313  1.6296 -1.8041
  901MOL0     H24308   2.991   0.958  11.604  0.4828 -2.2493  0.7215
  901MOL0     H24309   3.153   1.050  11.611  1.2729  0.1340  0.4712
  901MOL0     H24310   3.144   0.763  11.513  1.2665 -0.7636  0.1316
  901MOL0     H24311   3.271   0.864  11.564 -0.4337  1.0236 -0.1483
  901MOL0     H24312   3.035   0.821  11.759 -1.2126 -3.5896 -1.6645
  901MOL0     H24313   3.202   0.870  11.790  0.7143 -0.3955 -0.4174
  901MOL0     H24314   3.273   0.624  11.748 -0.6016 -4.9706 -1.1749
  901MOL0     H24315   3.093   0.592  11.734  0.5890 -1.1368  0.9049
  901MOL0     H24316   3.052   0.692  11.949 -0.5968 -0.7699 -0.0305
  901MOL0     H24317   3.221   0.698  11.980  2.9301 -3.6438  0.0652
  901MOL0     H24318   2.983   1.629  11.428 -3.5082 -2.4967 -1.8742
  901MOL0     H24319   3.124   1.784  11.324  2.8264  0.0041  1.1148
  901MOL0     H24320   3.280   2.081  11.136 -1.7602  1.1710 -0.9065
  901MOL0     H24321   3.283   2.233  10.931 -4.8131 -3.6527 -1.8195
  901MOL0     H24322   3.426   1.785   9.336 -0.2192  1.4534 -0.7334
  901MOL0     H24323   3.448   1.585   9.169 -0.5348 -0.6003  0.9351
  901MOL0     H24324   3.415   1.302   8.956 -2.2526  2.6342  2.2341
  901MOL0     H24325   3.446   1.070   8.898 -0.0956  0.7558  1.6114
  901MOL0     H24326   3.194   0.893   8.570 -0.0919  1.5469  0.0835
  901MOL0     H24327   3.310   0.767   8.598 -2.3562 -1.6526  1.2481
  901MOL0     H24328   3.107   0.842   8.813 -0.5360  0.8449  0.6420
  901MOL0     H24329   3.241   0.735   8.826  0.2854  1.2398  1.5087
  901MOL0     H24330   3.142   0.603   8.628  1.8480 -0.9753  1.6728
  901MOL0     H24331   3.097   0.583   8.793 -0.9734  1.5202  1.1314
  901MOL0     H24332   2.906   0.764   8.735  3.5403  2.6518 -3.5005
  901MOL0     H24333   2.883   0.583   8.700 -0.6453 -0.9083  0.0448
  901MOL0     H24334   2.987   0.717   8.319  0.1508 -3.4756 -0.0301
  901MOL0     H24335   3.134   1.089   8.602 -1.6318 -0.3403  1.0333
  901MOL0     H24336   2.982   1.266   8.618  0.9737 -1.4495 -0.1740
  901MOL0     H24337   3.011   1.414   8.712  1.3003  2.8650 -2.0370
  901MOL0     H24338   3.098   1.403   8.572  0.8018 -0.0237  1.0346
  902MOL0     O24339   7.130   2.064   9.997  0.2471  0.2445  0.3917
  902MOL0     C24340   7.246   2.107   9.985  0.5373 -0.1009  0.1778
  902MOL0     O24341   7.333   2.131  10.087  0.1603  0.0697 -0.3099
  902MOL0     C24342   7.294   2.088  10.210  0.3294 -0.1894  0.1582
  902MOL0     C24343   7.314   1.953  10.247 -0.2006 -0.2492 -0.7550
  902MOL0     C24344   7.274   1.915  10.373  0.4944  0.4342 -1.2697
  902MOL0     C24345   7.223   2.001  10.469 -0.5828  0.0017 -0.5847
  902MOL0     O24346   7.195   1.957  10.597 -0.1755  0.0510 -0.2032
  902MOL0     C24347   7.160   1.820  10.619 -0.1657 -0.6530  0.1940
  902MOL0     C24348   7.066   1.794  10.740 -0.4899 -0.4577  0.6695
  902MOL0     C24349   7.063   1.644  10.762  1.1036 -0.4657  0.3356
  902MOL0     C24350   6.956   1.554  10.689  0.0330  0.3320  0.2528
  902MOL0     C24351   6.816   1.594  10.734  0.0448 -1.0480  0.1325
  902MOL0     C24352   6.706   1.506  10.680  0.1606  0.1543 -0.6273
  902MOL0     C24353   6.570   1.538  10.752  0.0122 -0.1452 -0.1773
  902MOL0     C24354   6.463   1.460  10.685  0.2707  0.5416  0.8640
  902MOL0     N24355   6.340   1.507  10.739  0.1253 -0.1046 -0.6101
  902MOL0     C24356   6.265   1.622  10.701 -0.1130  0.2796  0.0449
  902MOL0     C24357   6.147   1.615  10.769 -0.0640  0.2530 -0.4960
  902MOL0     C24358   6.026   1.700  10.759  0.5541 -0.0103 -0.1561
  902MOL0     C24359   5.892   1.618  10.745 -0.1507  0.4166  0.2600
  902MOL0     C24360   5.858   1.580  10.596  0.2204  0.5080  0.2481
  902MOL0     C24361   5.717   1.511  10.584  0.0257  0.1936 -0.3094
  902MOL0     O24362   5.626   1.623  10.600 -1.3702  0.2534  0.0737
  902MOL0     C24363   5.497   1.606  10.563  0.6489 -0.0719 -0.8038
  902MOL0     C24364   5.468   1.576  10.432  0.9028 -0.4140 -0.7003
  902MOL0     C24365   5.338   1.549  10.390 -0.4319  0.0411 -0.2767
  902MOL0     C24366   5.319   1.506  10.246 -0.7593  0.8458  0.2502
  902MOL0     C24367   5.228   1.573  10.480 -0.3493  0.3043  0.1113
  902MOL0     C24368   5.078   1.557  10.449  0.8819  0.9290 -0.6962
  902MOL0     O24369   4.991   1.558  10.554 -0.1018 -0.8572 -0.1243
  902MOL0     C24370   4.857   1.576  10.521  0.3431 -0.5194 -0.1429
  902MOL0     C24371   4.765   1.471  10.539  0.4440  0.1963 -0.2958
  902MOL0     C24372   4.628   1.484  10.553  0.4369 -0.1987  0.2563
  902MOL0     C24373   4.562   1.607  10.553 -0.3174 -0.2601 -0.7052
  902MOL0     O24374   4.425   1.624  10.561 -0.2804  0.0859  0.1100
  902MOL0     C24375   4.388   1.710  10.669 -0.5601 -0.1216 -0.4757
  902MOL0     C24376   4.239   1.704  10.702 -0.8167 -0.2231 -0.3440
  902MOL0     C24377   4.151   1.796  10.616 -0.5502  0.1807 -0.6321
  902MOL0     C24378   4.017   1.820  10.686  0.5784  0.5853 -0.2482
  902MOL0     C24379   4.036   1.948  10.781  0.5535 -0.4344 -0.3015
  902MOL0     C24380   3.896   1.970  10.849 -0.2373 -0.3829  0.0637
  902MOL0     C24381   3.899   2.109  10.916 -0.4560  0.3381 -0.2101
  902MOL0     C24382   3.943   2.095  11.068 -0.0388 -0.1283 -0.3414
  902MOL0    Cl24383   3.819   2.002  11.157 -0.1093  0.3576  0.3164
  902MOL0     C24384   4.648   1.717  10.528 -0.2640 -0.2513  0.2072
  902MOL0     C24385   4.787   1.697  10.511  0.4656 -0.5665  0.3694
  902MOL0     O24386   5.050   1.579  10.337  0.4170  0.1569 -0.2745
  902MOL0     C24387   5.265   1.593  10.610  0.0695  0.2013 -0.3021
  902MOL0     C24388   5.394   1.613  10.655 -0.7204  0.2820  0.5100
  902MOL0     N24389   6.159   1.493  10.851 -0.7659  0.5455 -0.2584
  902MOL0     N24390   6.269   1.435  10.825  0.1759  0.0646  0.6385
  902MOL0     C24391   7.207   2.136  10.428 -0.3440 -0.0077 -0.4308
  902MOL0     C24392   7.235   2.176  10.302  0.5742 -0.4021 -0.1211
  902MOL0     C24393   7.294   2.132   9.849 -0.3582 -0.4083  0.8452
  902MOL0     C24394   7.419   2.079   9.818 -0.2750 -0.1576  0.2555
  902MOL0     C24395   7.482   2.104   9.699  0.6127 -0.6602  0.1903
  902MOL0     C24396   7.414   2.182   9.603  0.6208 -0.2078  0.3299
  902MOL0     O24397   7.476   2.240   9.496  0.4397  0.2940  0.4543
  902MOL0     C24398   7.484   2.162   9.375  0.2991 -0.4937  0.2758
  902MOL0     C24399   7.347   2.119   9.316 -0.6144 -1.0007  0.2190
  902MOL0     C24400   7.282   2.238   9.241 -0.1069  0.6278 -0.1732
  902MOL0     C24401   7.328   2.293   9.110 -0.6450 -0.3844  0.0399
  902MOL0     C24402   7.378   2.196   9.019  0.2404  0.8536  0.2946
  902MOL0     C24403   7.413   2.109   8.939  0.3421 -0.1196  0.1102
  902MOL0     C24404   7.287   2.232   9.627 -0.1351 -0.6303  0.4002
  902MOL0     C24405   7.231   2.220   9.752 -0.3258 -0.7739 -0.8753
  902MOL0     C24406   7.103   2.305   9.791 -0.2830 -0.3340  0.1902
  902MOL0     H24407   7.369   1.884  10.184 -1.6226 -0.0612 -2.2786
  902MOL0     H24408   7.286   1.808  10.385 -0.2749  0.2709 -1.8906
  902MOL0     H24409   7.263   1.781  10.620  0.0678 -0.5782 -3.8829
  902MOL0     H24410   7.108   1.784  10.530  1.8977 -0.4926 -1.1669
  902MOL0     H24411   7.118   1.830  10.829  0.6572 -3.6909  1.4457
  902MOL0     H24412   6.968   1.838  10.717  1.3176  2.1184 -3.2798
  902MOL0     H24413   7.162   1.598  10.748  1.1611  0.2679 -2.3204
  902MOL0     H24414   7.039   1.643  10.868 -2.3673  1.7600 -0.2905
  902MOL0     H24415   6.956   1.558  10.580 -2.4072 -0.6003  0.1526
  902MOL0     H24416   6.970   1.448  10.710 -0.3757 -0.7810 -4.1149
  902MOL0     H24417   6.808   1.697  10.697 -1.0162 -0.8909  0.7597
  902MOL0     H24418   6.809   1.597  10.843 -2.2242 -1.2076  0.0339
  902MOL0     H24419   6.698   1.512  10.571  0.1072  0.1206 -0.6259
  902MOL0     H24420   6.740   1.406  10.710  1.5235  0.7419 -0.1650
  902MOL0     H24421   6.558   1.644  10.728 -2.1187 -0.3179 -0.0165
  902MOL0     H24422   6.578   1.518  10.859  2.1025 -1.2909 -0.4889
  902MOL0     H24423   6.466   1.468  10.576 -1.4158 -0.1814  0.7292
  902MOL0     H24424   6.484   1.354  10.706  1.0210  0.2975 -0.9082
  902MOL0     H24425   6.285   1.690  10.618  0.3813 -1.1431 -1.0518
  902MOL0     H24426   6.027   1.765  10.671 -0.3112 -0.3611 -0.4335
  902MOL0     H24427   6.013   1.769  10.842  1.8424  0.9310 -0.6950
  902MOL0     H24428   5.898   1.521  10.796  1.2408 -0.0609 -0.7461
  902MOL0     H24429   5.802   1.663  10.787 -0.4009  0.4388 -0.2863
  902MOL0     H24430   5.852   1.670  10.535 -2.4264 -0.5090 -1.1292
  902MOL0     H24431   5.941   1.523  10.552 -0.5383  0.4330 -1.1287
  902MOL0     H24432   5.717   1.469  10.483  3.2968  1.4745 -0.9825
  902MOL0     H24433   5.706   1.430  10.657  0.0277  0.8305  0.4127
  902MOL0     H24434   5.544   1.572  10.355  1.1693 -0.3515 -0.4431
  902MOL0     H24435   5.265   1.412  10.238 -0.5909  0.8229 -0.7784
  902MOL0     H24436   5.417   1.494  10.198 -0.3549  0.9283  1.0398
  902MOL0     H24437   5.268   1.583  10.187  0.9188  0.9370 -1.1748
  902MOL0     H24438   4.805   1.372  10.558  2.4126  0.3876 -2.8386
  902MOL0     H24439   4.558   1.401  10.548  1.5780 -1.0996 -1.5938
  902MOL0     H24440   4.447   1.667  10.751  0.8115 -2.5344 -2.5448
  902MOL0     H24441   4.426   1.812  10.661 -1.4955  0.5711  2.7525
  902MOL0     H24442   4.193   1.608  10.680 -2.8982  0.7226 -0.3226
  902MOL0     H24443   4.220   1.727  10.807 -0.6342  1.2757 -0.6159
  902MOL0     H24444   4.136   1.752  10.517  0.7808  4.9781 -3.3112
  902MOL0     H24445   4.177   1.898  10.586  5.0548 -1.0862 -1.0768
  902MOL0     H24446   3.964   1.741  10.740  2.5274 -1.6725 -1.4826
  902MOL0     H24447   3.936   1.846  10.617 -0.2711  0.0189  0.5109
  902MOL0     H24448   4.113   1.917  10.852  0.6730 -3.6001 -1.6307
  902MOL0     H24449   4.073   2.029  10.718 -0.4409 -2.2698 -3.5181
  902MOL0     H24450   3.867   1.889  10.917 -0.0507 -0.8440 -0.3995
  902MOL0     H24451   3.813   1.968  10.778 -0.0285 -0.0439 -0.1915
  902MOL0     H24452   3.803   2.161  10.910 -0.2430  0.6511 -1.1192
  902MOL0     H24453   3.965   2.166  10.851  0.4342 -0.9987 -0.5337
  902MOL0     H24454   3.948   2.196  11.109 -0.1361 -0.5775  0.7988
  902MOL0     H24455   4.032   2.035  11.086 -0.7896 -0.4019  3.1610
  902MOL0     H24456   4.603   1.815  10.516  3.3259  1.5913  0.2678
  902MOL0     H24457   4.836   1.793  10.507 -1.0495  0.2241  0.1163
  902MOL0     H24458   5.184   1.584  10.682  0.8372  0.5608  0.6286
  902MOL0     H24459   5.418   1.631  10.759 -0.3246  2.8322  0.0276
  902MOL0     H24460   7.172   2.213  10.497 -1.0163 -0.5540 -0.1494
  902MOL0     H24461   7.216   2.279  10.274  1.5319 -0.5952 -1.5904
  902MOL0     H24462   7.467   2.019   9.893 -0.4343  0.2829  0.7148
  902MOL0     H24463   7.576   2.056   9.675  0.2657 -0.5527 -1.4927
  902MOL0     H24464   7.531   2.229   9.303  1.0490 -0.7816  0.4943
  902MOL0     H24465   7.554   2.080   9.393  0.9145 -0.0007  0.1554
  902MOL0     H24466   7.286   2.093   9.403  0.1607  2.4200  1.9227
  902MOL0     H24467   7.351   2.034   9.247 -2.7604 -0.9125 -0.1028
  902MOL0     H24468   7.190   2.193   9.202  0.6432 -0.2181 -1.0307
  902MOL0     H24469   7.262   2.317   9.314 -0.1441 -0.1780  0.6990
  902MOL0     H24470   7.413   2.350   9.148 -1.0698  0.1161  0.2480
  902MOL0     H24471   7.263   2.371   9.070 -1.4692  0.4328  2.7268
  902MOL0     H24472   7.437   2.028   8.874  1.5678 -0.4509  0.9558
  902MOL0     H24473   7.233   2.295   9.557 -0.9490 -1.3161  0.4045
  902MOL0     H24474   7.093   2.315   9.900  3.7665  0.6299  0.6486
  902MOL0     H24475   7.102   2.407   9.751 -0.7914 -1.4218 -2.8522
  902MOL0     H24476   7.018   2.265   9.734 -1.0161  1.7846 -0.3005
  903MOL0     O24477   3.173   8.363  10.353  0.5375  0.5737  0.1691
  903MOL0     C24478   3.095   8.374  10.442 -0.2334 -0.2542  0.2077
  903MOL0     O24479   2.998   8.277  10.471  0.0337 -0.2466 -0.6022
  903MOL0     C24480   2.987   8.168  10.389  0.0417 -0.7469 -0.0790
  903MOL0     C24481   2.994   8.040  10.450 -1.2138 -0.1927 -0.2691
  903MOL0     C24482   3.000   7.925  10.370 -0.4774  0.3721 -0.0283
  903MOL0     C24483   2.996   7.939  10.234 -0.6337 -1.0851  0.1117
  903MOL0     O24484   3.006   7.839  10.144 -0.8870  0.4280 -0.0779
  903MOL0     C24485   3.047   7.710  10.192  0.7248 -0.0806  0.2281
  903MOL0     C24486   3.057   7.606  10.082 -0.6135 -1.0699 -1.1761
  903MOL0     C24487   2.928   7.596   9.999 -0.2753  0.6470  0.4896
  903MOL0     C24488   2.801   7.570  10.082 -0.7031 -0.6726 -0.4637
  903MOL0     C24489   2.672   7.585  10.008 -1.8031 -0.8214 -0.4560
  903MOL0     C24490   2.625   7.727  10.013  0.9416  0.6593  0.0948
  903MOL0     C24491   2.491   7.735   9.940 -0.3078  0.3430 -0.2375
  903MOL0     C24492   2.445   7.875   9.938  0.8698 -0.6928  0.2126
  903MOL0     N24493   2.299   7.886   9.914  0.0897  0.1424  0.5573
  903MOL0     C24494   2.244   7.882   9.786 -0.0277  0.0741 -1.1558
  903MOL0     C24495   2.108   7.882   9.807 -0.7337 -0.4505  0.1901
  903MOL0     C24496   2.001   7.900   9.702  0.3901 -0.8168 -0.5768
  903MOL0     C24497   1.870   7.828   9.724 -0.4174  0.0016 -0.0307
  903MOL0     C24498   1.802   7.890   9.841  0.7018  0.3893  0.2163
  903MOL0     C24499   1.655   7.841   9.819  0.4392 -0.7334 -0.7409
  903MOL0     O24500   1.571   7.834   9.942 -1.3767 -0.2107  0.2467
  903MOL0     C24501   1.508   7.943   9.989 -0.0223  0.1836 -0.8173
  903MOL0     C24502   1.426   7.922  10.097  0.3087  0.8244  0.0700
  903MOL0     C24503   1.343   8.018  10.154  0.5810  0.1164  0.5791
  903MOL0     C24504   1.250   7.960  10.263 -0.0775  0.2049  0.2328
  903MOL0     C24505   1.352   8.151  10.101 -0.5454 -0.0396  0.0053
  903MOL0     C24506   1.262   8.270  10.153 -0.7479  0.4043  1.3972
  903MOL0     O24507   1.277   8.396  10.099 -0.3240  0.1120  0.0210
  903MOL0     C24508   1.211   8.508  10.154 -0.5280  0.1358  0.2277
  903MOL0     C24509   1.078   8.533  10.126  0.0932 -0.1673 -0.2738
  903MOL0     C24510   1.008   8.648  10.180 -0.3929  0.4117  0.7554
  903MOL0     C24511   1.087   8.741  10.256  0.7019 -0.4220  0.8758
  903MOL0     O24512   1.035   8.861  10.297  1.0094  0.3396  0.2741
  903MOL0     C24513   0.908   8.900  10.244  0.1762 -0.1920 -0.4624
  903MOL0     C24514   0.884   9.034  10.313 -0.7819  1.0426  0.3715
  903MOL0     C24515   0.744   9.090  10.275 -0.2938 -0.7557 -0.7145
  903MOL0     C24516   0.725   9.222  10.354 -0.1322  0.1972  0.2241
  903MOL0     C24517   0.592   9.284  10.347  0.1352  0.0700 -0.7973
  903MOL0     C24518   0.557   9.338  10.204 -0.1932  0.6721 -0.2022
  903MOL0     C24519   0.433   9.429  10.205 -0.0009  0.2254  0.5364
  903MOL0     C24520   0.378   9.459  10.070 -1.1873 -0.2965  0.1971
  903MOL0    Cl24521   0.300   9.309   9.996 -0.0624  0.2193  0.1079
  903MOL0     C24522   1.221   8.714  10.289  0.0543 -0.3067  0.5111
  903MOL0     C24523   1.285   8.600  10.229 -0.5320 -0.8963 -0.3716
  903MOL0     O24524   1.210   8.247  10.259  0.4385 -0.2730  0.1235
  903MOL0     C24525   1.443   8.178   9.998 -0.2165 -0.2178  0.0895
  903MOL0     C24526   1.526   8.075   9.949 -0.2366 -0.1178  0.2475
  903MOL0     N24527   2.090   7.866   9.944  0.1773  0.0878 -1.1013
  903MOL0     N24528   2.197   7.878  10.006  0.1078  0.1573  0.3470
  903MOL0     C24529   2.996   8.062  10.171  0.0110  0.0702  0.5828
  903MOL0     C24530   2.995   8.177  10.249  0.3057 -0.4469  0.4950
  903MOL0     C24531   3.113   8.485  10.536  0.8267  0.1273 -0.0554
  903MOL0     C24532   3.036   8.488  10.660  0.5837  0.9742  0.7845
  903MOL0     C24533   3.058   8.588  10.756  0.7809 -0.2251  1.0605
  903MOL0     C24534   3.130   8.696  10.723  0.6728  0.4507  0.5609
  903MOL0     O24535   3.148   8.801  10.804  0.3331 -0.0512 -0.0802
  903MOL0     C24536   3.130   8.786  10.946 -0.0317  1.0341  0.1685
  903MOL0     C24537   3.234   8.694  11.020 -0.4958  0.3004  0.7166
  903MOL0     C24538   3.229   8.710  11.174  0.7633 -0.1529 -0.6320
  903MOL0     C24539   3.277   8.580  11.250 -0.1701 -0.1055 -0.1108
  903MOL0     C24540   3.296   8.612  11.392  0.5910  0.9520  0.3634
  903MOL0     C24541   3.292   8.614  11.511  0.2171 -0.2138  0.0612
  903MOL0     C24542   3.203   8.703  10.602 -0.6575  0.3424 -0.6978
  903MOL0     C24543   3.189   8.605  10.502  0.1139 -0.8095  0.3784
  903MOL0     C24544   3.273   8.616  10.378  0.5127 -0.7146  0.2741
  903MOL0     H24545   2.998   8.035  10.558 -0.9673  0.5405 -0.2375
  903MOL0     H24546   3.023   7.829  10.415  2.1029 -0.6576 -3.1695
  903MOL0     H24547   2.980   7.670  10.269  1.8991 -4.4927 -0.7358
  903MOL0     H24548   3.147   7.731  10.232 -0.1833  1.4184  1.8122
  903MOL0     H24549   3.145   7.637  10.025  2.5080 -2.0944  2.6130
  903MOL0     H24550   3.076   7.506  10.122 -1.3882 -0.1046  1.9208
  903MOL0     H24551   2.914   7.688   9.941  0.0725 -0.2201 -1.0376
  903MOL0     H24552   2.953   7.518   9.926  0.7928  0.8643  0.6176
  903MOL0     H24553   2.821   7.466  10.108 -1.8145 -0.5381  1.0245
  903MOL0     H24554   2.803   7.631  10.173  1.8728 -2.3024  0.6564
  903MOL0     H24555   2.604   7.518  10.063  2.4728 -3.6191  1.9930
  903MOL0     H24556   2.685   7.564   9.902  0.2250 -1.4615 -0.1219
  903MOL0     H24557   2.608   7.768  10.113  2.0072 -0.0883  0.5945
  903MOL0     H24558   2.704   7.792   9.975  3.8825 -2.3136  0.6782
  903MOL0     H24559   2.409   7.676   9.982 -1.8636  1.5560 -1.4592
  903MOL0     H24560   2.501   7.695   9.839  0.8008 -3.7151  1.3178
  903MOL0     H24561   2.463   7.917  10.038  0.2249  0.6389 -0.2065
  903MOL0     H24562   2.494   7.934   9.860  0.5920  1.9722  1.8749
  903MOL0     H24563   2.293   7.898   9.690  0.2784  0.8543 -0.8706
  903MOL0     H24564   2.033   7.883   9.599  1.4931 -1.2408 -0.1801
  903MOL0     H24565   1.983   8.008   9.706  0.6846 -0.7971  0.3610
  903MOL0     H24566   1.806   7.840   9.636 -1.7608  0.1088  0.9276
  903MOL0     H24567   1.893   7.723   9.745  3.2042  0.6633 -0.1305
  903MOL0     H24568   1.843   7.853   9.936  1.4998 -2.5831 -1.1577
  903MOL0     H24569   1.817   7.997   9.825  1.3623  0.1440 -0.9290
  903MOL0     H24570   1.600   7.904   9.748 -0.7484  0.3102  1.0387
  903MOL0     H24571   1.664   7.744   9.770  2.4448 -0.8467 -0.2391
  903MOL0     H24572   1.413   7.821  10.135  0.5834  0.0138 -1.8516
  903MOL0     H24573   1.145   7.986  10.247 -0.4025 -1.1781  0.0026
  903MOL0     H24574   1.281   7.995  10.362  0.0751 -0.7443  0.5304
  903MOL0     H24575   1.255   7.851  10.268 -0.8137  0.0600 -1.4325
  903MOL0     H24576   1.028   8.462  10.061  0.4649 -1.1868  0.5123
  903MOL0     H24577   0.901   8.655  10.160 -0.1701  0.1385 -0.5673
  903MOL0     H24578   0.897   8.907  10.135 -0.6165 -2.8099 -0.6083
  903MOL0     H24579   0.832   8.827  10.274  0.3352 -0.6620 -1.1980
  903MOL0     H24580   0.886   9.029  10.423 -2.5867 -3.2477  0.3975
  903MOL0     H24581   0.961   9.104  10.279  0.6815 -0.9295 -0.5607
  903MOL0     H24582   0.659   9.027  10.300 -0.3681 -0.8477 -1.1981
  903MOL0     H24583   0.730   9.107  10.168 -1.4532  1.3004 -0.2745
  903MOL0     H24584   0.802   9.294  10.326 -0.1526 -0.6885 -2.4619
  903MOL0     H24585   0.727   9.209  10.462 -0.3812 -0.7831  0.1158
  903MOL0     H24586   0.533   9.196  10.375  2.6125 -0.8552  2.0570
  903MOL0     H24587   0.589   9.364  10.421 -3.0449  1.6352 -2.3986
  903MOL0     H24588   0.537   9.249  10.144 -0.4204  0.2395  0.4974
  903MOL0     H24589   0.634   9.403  10.162  1.9187 -1.0042  0.8975
  903MOL0     H24590   0.445   9.525  10.256 -0.3098  1.5493 -1.7402
  903MOL0     H24591   0.349   9.380  10.257 -2.3834  3.4656  0.0563
  903MOL0     H24592   0.447   9.498   9.994 -2.3358 -3.2490 -2.5432
  903MOL0     H24593   0.294   9.529  10.080  1.2464  3.7509 -3.6650
  903MOL0     H24594   1.275   8.793  10.341  1.6186 -0.6305 -0.5500
  903MOL0     H24595   1.391   8.582  10.242 -0.3928  0.7728  1.1566
  903MOL0     H24596   1.457   8.283   9.974  0.9613 -0.3162  0.2589
  903MOL0     H24597   1.603   8.102   9.877  0.8828 -5.6978 -1.0998
  903MOL0     H24598   2.982   8.072  10.064  0.1927 -0.4035  0.5130
  903MOL0     H24599   3.000   8.268  10.191 -0.4993 -1.7292 -1.6645
  903MOL0     H24600   2.978   8.400  10.684  2.8837 -1.2575 -1.1887
  903MOL0     H24601   3.006   8.573  10.850  0.2753 -1.5974  0.5778
  903MOL0     H24602   3.133   8.884  10.995  2.5039  1.1568 -0.1385
  903MOL0     H24603   3.029   8.748  10.965  0.0356 -1.0221 -2.9085
  903MOL0     H24604   3.334   8.705  10.979 -1.5003 -0.4872 -2.1632
  903MOL0     H24605   3.210   8.591  10.992 -1.6715  1.1714 -1.7714
  903MOL0     H24606   3.294   8.797  11.190 -1.6576  2.0349 -1.9251
  903MOL0     H24607   3.133   8.740  11.218  1.7901  0.6093  1.2317
  903MOL0     H24608   3.383   8.577  11.222  1.0080 -0.1811  3.7498
  903MOL0     H24609   3.216   8.491  11.236 -1.3254  0.1897  2.4278
  903MOL0     H24610   3.294   8.620  11.618  2.8851 -0.1124  0.0658
  903MOL0     H24611   3.273   8.786  10.594 -3.8435  3.9107  3.3684
  903MOL0     H24612   3.331   8.525  10.367  0.8283 -0.3124 -1.6938
  903MOL0     H24613   3.196   8.640  10.303 -0.7008  1.5363  2.0982
  903MOL0     H24614   3.346   8.697  10.382 -2.0808  1.7273  1.7974
  904MOL0     O24615   1.311   2.690   3.300  0.4498  0.0980 -0.8298
  904MOL0     C24616   1.206   2.660   3.242  0.4281 -0.0067  0.1942
  904MOL0     O24617   1.092   2.735   3.248  0.1071  0.7279  0.0309
  904MOL0     C24618   1.094   2.875   3.257 -0.2062 -0.3313 -0.1195
  904MOL0     C24619   0.995   2.940   3.326  1.4974 -0.4332  0.1760
  904MOL0     C24620   0.974   3.078   3.329  0.0059  0.3967 -0.5943
  904MOL0     C24621   1.074   3.161   3.249  0.5062 -0.1830 -0.9796
  904MOL0     O24622   1.074   3.294   3.228 -0.2300  0.6720 -0.2341
  904MOL0     C24623   0.980   3.369   3.311 -0.0655 -0.8752  0.3461
  904MOL0     C24624   0.982   3.516   3.272 -1.1467 -0.1995 -0.3262
  904MOL0     C24625   0.881   3.589   3.351  0.1064 -0.8093 -0.5067
  904MOL0     C24626   0.918   3.596   3.495 -0.2968 -0.7774 -0.0678
  904MOL0     C24627   0.838   3.697   3.578 -0.2052 -0.2570  0.1846
  904MOL0     C24628   0.881   3.721   3.721  0.5472 -0.6353 -0.6945
  904MOL0     C24629   0.789   3.816   3.802 -0.4755  0.3612  0.2231
  904MOL0     C24630   0.855   3.847   3.935 -0.7355  0.7123 -0.5836
  904MOL0     N24631   0.969   3.939   3.928 -0.7557 -0.0445  0.1132
  904MOL0     C24632   0.964   4.069   3.894  0.9483  0.3058 -0.9293
  904MOL0     C24633   1.089   4.107   3.904 -0.1281 -0.2910  0.6845
  904MOL0     C24634   1.132   4.241   3.857  0.1631 -0.1708  0.2211
  904MOL0     C24635   1.202   4.219   3.721  0.4786 -0.2558 -0.5003
  904MOL0     C24636   1.264   4.349   3.687 -0.5328  0.2046  0.2695
  904MOL0     C24637   1.296   4.348   3.531  0.8403  0.6010 -0.6085
  904MOL0     O24638   1.377   4.459   3.505  0.6157  0.4974 -0.2657
  904MOL0     C24639   1.415   4.506   3.379  0.2966  0.4728  0.5358
  904MOL0     C24640   1.500   4.611   3.367  0.0552 -0.3930 -0.6178
  904MOL0     C24641   1.538   4.666   3.252  0.4377 -0.8317  0.1821
  904MOL0     C24642   1.637   4.781   3.265  0.4808 -0.3440  0.0223
  904MOL0     C24643   1.484   4.624   3.124 -0.5952  0.8428  0.3217
  904MOL0     C24644   1.523   4.671   2.990 -0.2979  0.0117 -0.1340
  904MOL0     O24645   1.486   4.589   2.888 -0.3734  0.1565 -0.0271
  904MOL0     C24646   1.540   4.606   2.761  1.0335 -0.6244  0.0715
  904MOL0     C24647   1.612   4.716   2.706  0.0496 -0.2646 -0.1277
  904MOL0     C24648   1.645   4.714   2.571  0.2473 -0.9653 -0.8432
  904MOL0     C24649   1.623   4.608   2.483  1.2691  1.4261  0.5381
  904MOL0     O24650   1.678   4.610   2.363 -0.1041 -0.5163  0.2480
  904MOL0     C24651   1.825   4.591   2.378  0.2056 -0.0724  0.2347
  904MOL0     C24652   1.884   4.659   2.264 -0.7984 -0.2721  0.7044
  904MOL0     C24653   2.036   4.648   2.259 -0.3284 -0.0594  0.6315
  904MOL0     C24654   2.098   4.747   2.163  0.1365 -0.3306 -0.5699
  904MOL0     C24655   2.237   4.687   2.111  0.3752 -0.3397  0.0562
  904MOL0     C24656   2.326   4.803   2.088  0.3417  0.2926 -0.5605
  904MOL0     C24657   2.467   4.753   2.062 -0.8894  0.4534  0.0362
  904MOL0     C24658   2.561   4.877   2.041 -1.0297 -0.0650 -0.9051
  904MOL0    Cl24659   2.731   4.826   1.997  0.1786  0.1912 -0.0207
  904MOL0     C24660   1.547   4.497   2.530 -0.4136  0.8124 -0.1452
  904MOL0     C24661   1.508   4.504   2.669  0.4103 -0.7996  0.3294
  904MOL0     O24662   1.608   4.762   2.984 -0.1121  0.6109 -0.2380
  904MOL0     C24663   1.397   4.513   3.133  1.0209 -0.1401 -0.3401
  904MOL0     C24664   1.367   4.452   3.262 -0.3932 -0.2102  1.7356
  904MOL0     N24665   1.166   4.009   3.950 -0.5655 -0.2211 -0.8786
  904MOL0     N24666   1.096   3.898   3.958  0.4769  0.1367 -0.6764
  904MOL0     C24667   1.183   3.097   3.197 -0.7919  0.1928  0.1422
  904MOL0     C24668   1.190   2.957   3.191  1.4949  0.4097 -0.0076
  904MOL0     C24669   1.202   2.523   3.219  0.1901  0.2017  0.2271
  904MOL0     C24670   1.083   2.455   3.251 -0.7363 -0.5452  0.2222
  904MOL0     C24671   1.073   2.321   3.213 -0.4135 -0.9329  0.3611
  904MOL0     C24672   1.177   2.250   3.150 -0.3093 -0.3181 -1.0851
  904MOL0     O24673   1.177   2.120   3.140  0.1256  0.5457  0.1580
  904MOL0     C24674   1.070   2.058   3.072 -0.0771  0.2474 -0.4095
  904MOL0     C24675   1.064   2.104   2.922  0.1018 -0.2747  0.6860
  904MOL0     C24676   0.926   2.053   2.864 -0.7020  0.1623 -0.1755
  904MOL0     C24677   0.940   2.033   2.709 -0.0231  0.8841  0.4543
  904MOL0     C24678   0.824   1.980   2.645  0.2908  0.5577  0.2559
  904MOL0     C24679   0.732   1.943   2.588 -0.5611  0.3324  0.2970
  904MOL0     C24680   1.292   2.322   3.117 -0.1630 -0.4868  0.1472
  904MOL0     C24681   1.301   2.463   3.133 -0.0303  0.2216 -1.3654
  904MOL0     C24682   1.425   2.525   3.077 -0.2295 -0.2318  0.2321
  904MOL0     H24683   0.926   2.879   3.384  0.5781 -1.0862 -1.5401
  904MOL0     H24684   0.897   3.132   3.382  0.0325 -1.5903  1.6078
  904MOL0     H24685   1.008   3.375   3.417 -4.4645 -0.4832  1.6658
  904MOL0     H24686   0.882   3.321   3.311  0.5820 -2.2730  1.1294
  904MOL0     H24687   1.082   3.555   3.291 -0.0178 -3.5920  1.6156
  904MOL0     H24688   0.955   3.529   3.166 -2.8388  0.7493  0.1768
  904MOL0     H24689   0.871   3.691   3.311  1.6787 -0.2820  0.3620
  904MOL0     H24690   0.785   3.537   3.347 -0.3562 -0.1674  1.4485
  904MOL0     H24691   0.914   3.497   3.540 -1.7636 -1.1750 -1.0026
  904MOL0     H24692   1.020   3.635   3.485 -1.6552  2.5938 -3.3766
  904MOL0     H24693   0.748   3.639   3.599  0.8679 -2.3842 -0.7375
  904MOL0     H24694   0.804   3.790   3.531  1.4955  0.3332  0.0524
  904MOL0     H24695   0.878   3.622   3.767 -3.6998 -0.6877 -0.7021
  904MOL0     H24696   0.983   3.760   3.717 -0.0633  1.1072 -0.0354
  904MOL0     H24697   0.695   3.762   3.820  0.1384 -1.6111 -1.9890
  904MOL0     H24698   0.759   3.912   3.758 -1.4000  0.3997  0.8964
  904MOL0     H24699   0.780   3.891   4.001 -1.9434  1.9455 -2.6754
  904MOL0     H24700   0.897   3.755   3.978  4.0779  4.4321  3.9662
  904MOL0     H24701   0.878   4.130   3.868  2.0689  2.0893 -0.5722
  904MOL0     H24702   1.189   4.291   3.936  0.1779  2.2118 -1.2038
  904MOL0     H24703   1.045   4.307   3.850 -0.7522 -1.4758 -1.6010
  904MOL0     H24704   1.278   4.142   3.735  1.4290  1.2132  4.4047
  904MOL0     H24705   1.129   4.196   3.643  0.9466  1.5883 -1.5529
  904MOL0     H24706   1.198   4.432   3.714 -0.0926 -0.1866  2.7118
  904MOL0     H24707   1.359   4.361   3.739  0.1695 -0.8904 -0.7142
  904MOL0     H24708   1.339   4.253   3.497  0.1936  0.9985 -2.6376
  904MOL0     H24709   1.206   4.363   3.471  2.5700 -0.1316 -3.5857
  904MOL0     H24710   1.536   4.651   3.462 -3.4000  0.4007  0.5008
  904MOL0     H24711   1.728   4.741   3.217  0.5421 -1.6720  1.1689
  904MOL0     H24712   1.669   4.796   3.369  4.2103 -2.2418 -0.6476
  904MOL0     H24713   1.611   4.876   3.218  2.1549  1.0570  1.7677
  904MOL0     H24714   1.646   4.810   2.747  5.4968  0.3701 -4.7775
  904MOL0     H24715   1.696   4.801   2.531  0.2544  0.4220  1.8953
  904MOL0     H24716   1.871   4.631   2.469  1.2110 -1.2476  0.2762
  904MOL0     H24717   1.848   4.484   2.369  1.0403  0.2177 -1.3910
  904MOL0     H24718   1.829   4.651   2.169 -0.6026  2.1928  0.3170
  904MOL0     H24719   1.862   4.765   2.281 -4.6008 -0.6476 -0.8419
  904MOL0     H24720   2.062   4.545   2.233 -0.1251  0.3948 -1.1066
  904MOL0     H24721   2.072   4.669   2.360 -2.3130  2.0786  0.9912
  904MOL0     H24722   2.098   4.846   2.208 -0.8165 -0.7284  0.3599
  904MOL0     H24723   2.023   4.759   2.084 -2.7386  3.9683  2.3975
  904MOL0     H24724   2.274   4.624   2.192 -0.9028  0.2979  1.1764
  904MOL0     H24725   2.247   4.641   2.012  3.1849  2.6312 -1.2392
  904MOL0     H24726   2.334   4.866   2.177  1.8991 -0.5518 -0.0678
  904MOL0     H24727   2.295   4.864   2.003 -0.2682 -1.8893 -1.9889
  904MOL0     H24728   2.477   4.695   1.970  1.6112  0.6100  0.1563
  904MOL0     H24729   2.500   4.684   2.140  2.9930  0.3155 -1.5209
  904MOL0     H24730   2.562   4.938   2.132 -0.2569  2.5403 -2.5641
  904MOL0     H24731   2.527   4.942   1.960 -1.4286 -1.1222 -1.6075
  904MOL0     H24732   1.530   4.408   2.471  1.8157 -1.3396  2.1981
  904MOL0     H24733   1.457   4.419   2.712  0.8202 -1.5533 -0.6464
  904MOL0     H24734   1.361   4.464   3.043 -1.5011  0.9996 -0.0251
  904MOL0     H24735   1.319   4.355   3.251  3.5805 -2.3773  1.4884
  904MOL0     H24736   1.269   3.147   3.154 -1.0122  0.1837 -0.3125
  904MOL0     H24737   1.263   2.908   3.128 -1.6276  0.6497 -4.2472
  904MOL0     H24738   1.001   2.513   3.291  0.1285  0.0771  1.1511
  904MOL0     H24739   0.977   2.271   3.215  0.0374 -1.8415  0.0094
  904MOL0     H24740   1.080   1.949   3.080  1.4544  0.5010  4.3610
  904MOL0     H24741   0.969   2.072   3.112  0.2552  0.7263  0.2810
  904MOL0     H24742   1.146   2.075   2.855 -0.9036 -0.3674 -0.5285
  904MOL0     H24743   1.065   2.213   2.918  2.2300 -0.2800 -0.4672
  904MOL0     H24744   0.891   1.957   2.902  0.3454 -0.6118 -1.0865
  904MOL0     H24745   0.846   2.117   2.903 -3.8123 -3.5053  0.0172
  904MOL0     H24746   1.027   1.969   2.690 -1.2940 -0.1322 -2.5474
  904MOL0     H24747   0.970   2.122   2.653 -2.1938  0.5727 -1.3137
  904MOL0     H24748   0.638   1.918   2.543 -0.9544  2.0009  0.1265
  904MOL0     H24749   1.376   2.263   3.080 -1.8335 -2.6776 -0.4254
  904MOL0     H24750   1.439   2.482   2.978 -2.3146  1.2523 -0.7751
  904MOL0     H24751   1.419   2.634   3.064 -1.9952  0.0457  2.6255
  904MOL0     H24752   1.510   2.495   3.139  0.3892 -3.9853 -2.1376
  905MOL0     O24753   0.660   3.634   0.655 -0.5573  0.7221 -0.5688
  905MOL0     C24754   0.734   3.539   0.682  0.2495 -0.2253 -0.2850
  905MOL0     O24755   0.866   3.558   0.719  0.5072  0.3027 -0.7938
  905MOL0     C24756   0.916   3.683   0.718 -1.0153 -0.0076 -1.1390
  905MOL0     C24757   1.017   3.718   0.620 -0.0986  0.0836  0.8449
  905MOL0     C24758   1.055   3.852   0.615 -0.3556 -0.8137 -0.1706
  905MOL0     C24759   1.016   3.947   0.704  0.4037  0.4338 -0.2087
  905MOL0     O24760   1.077   4.067   0.694  0.1903  0.2054  0.9003
  905MOL0     C24761   1.045   4.168   0.779  1.4961 -0.0463  0.3561
  905MOL0     C24762   1.131   4.188   0.898  0.6076  0.3317 -0.3384
  905MOL0     C24763   1.080   4.324   0.954  0.5726  0.3765  0.5428
  905MOL0     C24764   1.183   4.377   1.044 -0.4384 -0.7653 -0.7866
  905MOL0     C24765   1.133   4.510   1.105  0.3685 -0.3859 -0.1456
  905MOL0     C24766   1.253   4.577   1.175 -0.0490 -0.6594  1.1202
  905MOL0     C24767   1.329   4.680   1.083 -0.9378 -0.2899 -0.0496
  905MOL0     C24768   1.386   4.621   0.951 -0.7339 -0.5808  0.6622
  905MOL0     N24769   1.460   4.724   0.860 -0.7563  0.1650 -0.1750
  905MOL0     C24770   1.520   4.837   0.894 -0.6728 -0.2709  0.2640
  905MOL0     C24771   1.582   4.889   0.780  0.3306 -0.7654  0.2594
  905MOL0     C24772   1.629   5.033   0.764 -1.0591  0.0684 -0.7042
  905MOL0     C24773   1.617   5.118   0.888 -0.1263 -0.4683 -0.3340
  905MOL0     C24774   1.475   5.161   0.905  0.1183 -0.8751  0.2208
  905MOL0     C24775   1.461   5.236   1.033  0.6694  0.1872 -0.4152
  905MOL0     O24776   1.548   5.352   1.052  0.1176  0.5106 -0.2442
  905MOL0     C24777   1.529   5.431   1.165  1.0736  0.5132  0.0081
  905MOL0     C24778   1.630   5.519   1.182  0.3719 -0.5625 -0.3314
  905MOL0     C24779   1.615   5.619   1.283  0.4387  0.3735 -0.1447
  905MOL0     C24780   1.707   5.733   1.275  0.1374 -0.0067 -0.2977
  905MOL0     C24781   1.511   5.605   1.380  0.2454 -0.1897  0.2885
  905MOL0     C24782   1.479   5.712   1.490 -0.5782  0.6004  0.4926
  905MOL0     O24783   1.355   5.705   1.541  0.0298 -0.3790  0.6411
  905MOL0     C24784   1.314   5.776   1.653  1.3601 -0.7724 -0.2065
  905MOL0     C24785   1.393   5.826   1.756 -0.7158 -0.1212  0.8816
  905MOL0     C24786   1.337   5.891   1.869  0.8133 -0.6555  0.3263
  905MOL0     C24787   1.203   5.927   1.868  0.0481  0.1174  0.2416
  905MOL0     O24788   1.151   6.012   1.969  0.1001  0.3427 -0.0898
  905MOL0     C24789   1.170   5.965   2.101 -0.1920  0.1393  0.6703
  905MOL0     C24790   1.038   5.909   2.157  0.1279 -0.0242 -0.6499
  905MOL0     C24791   0.964   6.026   2.227  0.8872  0.0226  1.0723
  905MOL0     C24792   0.826   5.999   2.254  0.4944 -0.5625 -0.2498
  905MOL0     C24793   0.745   6.112   2.312 -0.1743 -0.1366  0.1749
  905MOL0     C24794   0.602   6.062   2.361 -0.0341  0.2400  0.0086
  905MOL0     C24795   0.523   6.178   2.432  1.0558 -0.0666  0.6278
  905MOL0     C24796   0.534   6.159   2.579  0.9469 -0.1154  0.3275
  905MOL0    Cl24797   0.451   6.312   2.633 -0.0363  0.0970 -0.1329
  905MOL0     C24798   1.118   5.888   1.763  0.5312 -0.0097  0.4645
  905MOL0     C24799   1.174   5.814   1.657  0.3822  0.1355 -0.5198
  905MOL0     O24800   1.571   5.788   1.525 -0.3100  0.1218 -0.6726
  905MOL0     C24801   1.413   5.501   1.363  1.7752  0.0460  0.9429
  905MOL0     C24802   1.417   5.421   1.253  0.4538 -0.2330  0.3767
  905MOL0     N24803   1.543   4.803   0.675 -0.8829 -0.4958  0.2398
  905MOL0     N24804   1.476   4.709   0.731  0.0345 -0.5371  0.8862
  905MOL0     C24805   0.933   3.902   0.814  1.0656 -0.2003  0.4098
  905MOL0     C24806   0.881   3.773   0.818  0.2840 -0.3450 -0.3427
  905MOL0     C24807   0.696   3.394   0.667  0.9229  0.5594 -0.0163
  905MOL0     C24808   0.794   3.305   0.617  0.0714  1.0779 -0.0467
  905MOL0     C24809   0.771   3.170   0.587  0.5504  0.5954  0.4596
  905MOL0     C24810   0.640   3.129   0.577  0.4241  0.1240 -0.5883
  905MOL0     O24811   0.626   3.012   0.511  0.9953  0.3561  0.3095
  905MOL0     C24812   0.500   2.962   0.488  0.0774 -0.0783 -0.1004
  905MOL0     C24813   0.507   2.830   0.411  0.5822 -0.2565  0.1602
  905MOL0     C24814   0.544   2.852   0.265  0.0163  0.1421 -0.3460
  905MOL0     C24815   0.507   2.736   0.169 -0.3398  0.2746 -0.1086
  905MOL0     C24816   0.366   2.700   0.173  0.1524 -0.3797 -0.6040
  905MOL0     C24817   0.243   2.676   0.177  0.2491 -0.9264  0.1971
  905MOL0     C24818   0.533   3.216   0.623  0.2337  0.5278 -0.9959
  905MOL0     C24819   0.563   3.337   0.681  0.4689 -0.7524 -0.3543
  905MOL0     C24820   0.456   3.412   0.747  0.3776 -0.8386  0.5027
  905MOL0     H24821   1.038   3.648   0.540 -1.4242  1.0880 -0.4525
  905MOL0     H24822   1.120   3.860   0.528 -1.7570 -3.9960 -1.6623
  905MOL0     H24823   0.938   4.166   0.799  1.5601 -0.8077  0.6622
  905MOL0     H24824   1.053   4.247   0.704 -0.0183 -0.9170 -0.8006
  905MOL0     H24825   1.114   4.109   0.972  3.0932 -1.3602 -1.4379
  905MOL0     H24826   1.232   4.200   0.857  2.0684  0.0804  2.9191
  905MOL0     H24827   1.044   4.400   0.885 -0.5256 -1.0518 -0.5248
  905MOL0     H24828   0.988   4.301   1.009  0.2061  1.4632  0.4107
  905MOL0     H24829   1.193   4.303   1.124 -1.0214  0.3915  0.3953
  905MOL0     H24830   1.278   4.391   0.992  0.9208 -1.5346  1.3406
  905MOL0     H24831   1.055   4.495   1.179 -2.0406  1.7615 -2.0653
  905MOL0     H24832   1.089   4.574   1.028 -0.6594 -0.4055  0.4139
  905MOL0     H24833   1.220   4.630   1.264 -0.0965 -0.6200  1.0794
  905MOL0     H24834   1.324   4.497   1.199  1.6842  1.2484  2.7555
  905MOL0     H24835   1.419   4.705   1.139 -0.9466 -1.9933  0.7889
  905MOL0     H24836   1.267   4.766   1.055  0.3142  0.9889  0.9842
  905MOL0     H24837   1.450   4.538   0.981  0.9227  0.2547 -0.3909
  905MOL0     H24838   1.313   4.573   0.885 -1.4919 -0.6057  1.5094
  905MOL0     H24839   1.518   4.885   0.992  1.7780  0.7508 -0.1100
  905MOL0     H24840   1.586   5.076   0.673 -0.5293 -1.2594 -1.6182
  905MOL0     H24841   1.737   5.035   0.742 -0.9962 -2.6933 -1.0009
  905MOL0     H24842   1.643   5.055   0.973  4.1037  2.4367  0.8786
  905MOL0     H24843   1.693   5.197   0.887  1.4794 -1.9727 -0.7318
  905MOL0     H24844   1.453   5.237   0.828  0.5429 -0.3270  0.6354
  905MOL0     H24845   1.399   5.082   0.899 -0.1866 -0.9486  3.3874
  905MOL0     H24846   1.357   5.267   1.047  0.0854 -1.2585 -1.3452
  905MOL0     H24847   1.478   5.170   1.119 -1.7823  1.1924  0.9674
  905MOL0     H24848   1.697   5.537   1.098 -0.0603 -1.1817 -0.8220
  905MOL0     H24849   1.785   5.713   1.201  0.1036  2.8634 -1.2173
  905MOL0     H24850   1.762   5.753   1.368 -1.8106  1.4615  0.6023
  905MOL0     H24851   1.662   5.825   1.237  4.6859  2.1776 -1.0394
  905MOL0     H24852   1.498   5.801   1.772 -0.8923 -1.0622  0.6177
  905MOL0     H24853   1.388   5.921   1.960  0.3425  0.5084  0.2206
  905MOL0     H24854   1.249   5.889   2.107 -0.3268 -0.2038 -1.2766
  905MOL0     H24855   1.216   6.046   2.160  1.4358  0.3969 -0.8694
  905MOL0     H24856   0.976   5.854   2.087 -0.2031 -2.4157  1.3784
  905MOL0     H24857   1.059   5.824   2.224 -0.8668 -0.7010 -1.1740
  905MOL0     H24858   0.972   6.116   2.166  1.4809 -0.8910 -0.2302
  905MOL0     H24859   1.002   6.044   2.328 -1.2643 -0.5103  2.0402
  905MOL0     H24860   0.833   5.924   2.333 -0.2274  1.2393  1.6159
  905MOL0     H24861   0.775   5.964   2.163  0.8526  2.1828 -1.5904
  905MOL0     H24862   0.799   6.135   2.405  2.0392 -1.1569 -0.7993
  905MOL0     H24863   0.730   6.204   2.256 -1.4324  1.5516  3.0478
  905MOL0     H24864   0.599   5.977   2.430 -2.2980  0.8733  0.8114
  905MOL0     H24865   0.544   6.033   2.273 -0.1232  2.6605 -0.7941
  905MOL0     H24866   0.417   6.183   2.406  0.8075 -1.4359  1.2928
  905MOL0     H24867   0.566   6.278   2.417 -2.8101  1.8903  1.3931
  905MOL0     H24868   0.642   6.156   2.600  0.5889  0.1820  2.4343
  905MOL0     H24869   0.476   6.074   2.616 -2.8130  0.8608 -2.7184
  905MOL0     H24870   1.015   5.923   1.763  1.1172  2.1362 -3.0157
  905MOL0     H24871   1.106   5.769   1.584 -1.0137 -1.0047  1.3930
  905MOL0     H24872   1.323   5.485   1.421 -0.1275 -1.8417 -2.2372
  905MOL0     H24873   1.336   5.351   1.233 -0.0977  0.7818 -1.1401
  905MOL0     H24874   0.895   3.965   0.893 -1.0642 -2.2637  1.1204
  905MOL0     H24875   0.811   3.749   0.897 -1.1752  0.8366 -1.2155
  905MOL0     H24876   0.893   3.347   0.608 -0.7530  3.2632  0.5848
  905MOL0     H24877   0.851   3.110   0.543 -1.2448 -0.7314 -1.1314
  905MOL0     H24878   0.447   2.926   0.577  2.8234 -0.8316  1.3496
  905MOL0     H24879   0.440   3.038   0.436 -4.0021 -1.2778  2.4150
  905MOL0     H24880   0.413   2.774   0.409 -0.6159  1.6453  0.9446
  905MOL0     H24881   0.573   2.762   0.465 -2.4813 -1.8841  2.0709
  905MOL0     H24882   0.505   2.943   0.218  2.8749  0.2838 -2.7892
  905MOL0     H24883   0.653   2.856   0.263  0.0217  1.1886  0.9372
  905MOL0     H24884   0.565   2.644   0.184 -1.1175 -0.8495 -3.1764
  905MOL0     H24885   0.528   2.760   0.064 -0.7652 -0.5764 -0.3983
  905MOL0     H24886   0.139   2.648   0.172  0.3592 -1.3692  0.3501
  905MOL0     H24887   0.431   3.179   0.616  0.1381  0.6432 -0.2193
  905MOL0     H24888   0.415   3.489   0.681  2.7238  0.3238  0.2805
  905MOL0     H24889   0.388   3.348   0.804  1.1353 -0.8877  1.3910
  905MOL0     H24890   0.501   3.469   0.829  1.7182 -2.1530  0.7370
  906MOL0     O24891   1.121   6.836   4.506  0.6896 -0.7282 -0.1243
  906MOL0     C24892   1.114   6.942   4.562  0.1027  0.0366  0.5191
  906MOL0     O24893   1.138   6.966   4.693 -0.1556  0.1857 -0.2339
  906MOL0     C24894   1.154   6.845   4.767 -1.3219 -0.3220 -0.6926
  906MOL0     C24895   1.049   6.776   4.825  0.8615 -0.4734  0.6030
  906MOL0     C24896   1.069   6.657   4.886 -0.1197 -1.0379 -0.0334
  906MOL0     C24897   1.194   6.588   4.900  0.9434 -0.6793 -0.5430
  906MOL0     O24898   1.204   6.468   4.962 -0.2599  0.1050  0.2818
  906MOL0     C24899   1.334   6.398   4.964 -0.4023  0.6477 -0.0015
  906MOL0     C24900   1.322   6.270   5.035 -0.0802  0.1082  0.5976
  906MOL0     C24901   1.284   6.291   5.177  0.2199 -0.3270 -0.8257
  906MOL0     C24902   1.260   6.156   5.242  0.7713  0.4129  1.2823
  906MOL0     C24903   1.122   6.094   5.204 -0.2542 -1.0163 -0.2448
  906MOL0     C24904   1.114   5.948   5.218 -0.5795  0.7229  0.2601
  906MOL0     C24905   0.985   5.892   5.159 -0.0127 -0.3758  0.6619
  906MOL0     C24906   0.866   5.926   5.239  1.0846 -0.6900 -0.1431
  906MOL0     N24907   0.741   5.857   5.197  0.1995 -0.0357  0.4052
  906MOL0     C24908   0.647   5.874   5.095  0.5063  0.9294  0.1169
  906MOL0     C24909   0.551   5.772   5.107 -0.7042  0.0434  0.4297
  906MOL0     C24910   0.442   5.750   5.021 -0.2298  0.1031 -0.3931
  906MOL0     C24911   0.465   5.611   4.946  0.4083 -0.1802 -0.3824
  906MOL0     C24912   0.354   5.576   4.846  1.3793 -0.7213 -0.8079
  906MOL0     C24913   0.403   5.454   4.763 -0.0117 -0.1815  1.0399
  906MOL0     O24914   0.541   5.465   4.721 -0.0056  0.5247  0.7266
  906MOL0     C24915   0.588   5.376   4.622 -0.5916 -0.0334 -0.5229
  906MOL0     C24916   0.499   5.284   4.562  0.2230  1.6208 -0.4907
  906MOL0     C24917   0.549   5.195   4.460  0.5029 -0.8883  0.1389
  906MOL0     C24918   0.461   5.085   4.407 -0.1597 -0.2185  0.1419
  906MOL0     C24919   0.680   5.220   4.411  0.1140  0.2115 -0.5984
  906MOL0     C24920   0.732   5.146   4.293 -0.3511  0.2002  1.1168
  906MOL0     O24921   0.869   5.116   4.295  0.4641 -0.4570  0.4399
  906MOL0     C24922   0.930   5.051   4.189  0.1584 -0.9118 -0.0694
  906MOL0     C24923   1.024   5.127   4.113 -0.6435 -0.1920 -0.6036
  906MOL0     C24924   1.095   5.077   4.001 -0.2304 -0.9472  0.7883
  906MOL0     C24925   1.058   4.955   3.953 -0.3545  0.8127  0.1663
  906MOL0     O24926   1.113   4.923   3.830  0.6235 -0.2180  0.3674
  906MOL0     C24927   1.111   4.793   3.762  0.0824  0.1392 -0.4927
  906MOL0     C24928   1.212   4.788   3.649 -0.4286  0.0304  0.2406
  906MOL0     C24929   1.357   4.784   3.703  0.2328 -1.0735  0.0638
  906MOL0     C24930   1.411   4.921   3.738  0.0527  0.5025 -0.2084
  906MOL0     C24931   1.556   4.900   3.773 -0.2700  0.5511  0.0466
  906MOL0     C24932   1.624   5.030   3.800 -0.1365 -0.2976  0.0308
  906MOL0     C24933   1.775   4.986   3.821  0.3779 -0.1582 -0.3766
  906MOL0     C24934   1.871   5.034   3.706  0.0249 -0.3383  0.2121
  906MOL0    Cl24935   1.829   4.954   3.545 -0.0029  0.3447 -0.0714
  906MOL0     C24936   0.966   4.872   4.027 -0.5185  0.1563  1.8457
  906MOL0     C24937   0.907   4.922   4.152 -0.5719  0.1531  0.0197
  906MOL0     O24938   0.665   5.140   4.189 -0.5096 -0.0927 -0.5358
  906MOL0     C24939   0.773   5.302   4.476  1.3444 -0.1004  0.6805
  906MOL0     C24940   0.725   5.365   4.594 -0.0613  0.0076  0.7240
  906MOL0     N24941   0.595   5.694   5.211 -0.0247 -0.3594 -0.3973
  906MOL0     N24942   0.697   5.750   5.272  0.0838  0.8955  0.6129
  906MOL0     C24943   1.305   6.662   4.834  1.1326  0.8294 -0.4387
  906MOL0     C24944   1.285   6.781   4.763  0.6137 -1.0130 -0.3364
  906MOL0     C24945   1.079   7.052   4.466 -0.5726 -0.2958 -0.0108
  906MOL0     C24946   1.181   7.141   4.442  1.4018  0.6763 -0.1133
  906MOL0     C24947   1.159   7.256   4.367  0.0716  0.1339  0.2024
  906MOL0     C24948   1.037   7.296   4.322 -0.0404  0.6904 -0.1564
  906MOL0     O24949   1.035   7.428   4.277  0.9414  0.4177  0.2558
  906MOL0     C24950   0.935   7.456   4.171  0.6039  0.3112 -0.5951
  906MOL0     C24951   0.962   7.362   4.052 -0.9682  0.1480  0.4124
  906MOL0     C24952   0.964   7.431   3.917  0.2250 -0.0017  0.1954
  906MOL0     C24953   0.983   7.322   3.802  0.5450  0.2399  0.6376
  906MOL0     C24954   1.117   7.271   3.816  0.6226 -0.5249 -0.1910
  906MOL0     C24955   1.230   7.226   3.811  0.3871  0.4215 -0.4990
  906MOL0     C24956   0.932   7.211   4.344 -1.1698  0.7971  0.2043
  906MOL0     C24957   0.951   7.087   4.426 -0.2715 -0.2959  0.8143
  906MOL0     C24958   0.830   7.018   4.463 -0.1343  0.2351 -0.5594
  906MOL0     H24959   0.951   6.821   4.817  2.1742  2.2461 -2.6274
  906MOL0     H24960   0.974   6.608   4.905 -2.7618  3.0452 -1.3233
  906MOL0     H24961   1.402   6.459   5.025 -0.5087  0.1309  0.6486
  906MOL0     H24962   1.380   6.369   4.869  1.0615 -2.0493  1.4166
  906MOL0     H24963   1.248   6.208   4.985 -0.5557  1.3013 -0.2119
  906MOL0     H24964   1.419   6.220   5.022  0.7124  1.8753 -0.6634
  906MOL0     H24965   1.366   6.347   5.224 -0.1798  0.1507 -0.6916
  906MOL0     H24966   1.202   6.362   5.185  2.4916  2.3721 -0.1065
  906MOL0     H24967   1.337   6.082   5.216  0.9518 -0.1228  3.2096
  906MOL0     H24968   1.267   6.166   5.351  3.4180 -2.0727  1.4766
  906MOL0     H24969   1.114   6.102   5.096  1.5026  3.9303 -0.2745
  906MOL0     H24970   1.036   6.151   5.242 -1.6749 -3.0537 -0.2201
  906MOL0     H24971   1.202   5.911   5.164  0.6061  0.8825  1.9975
  906MOL0     H24972   1.136   5.911   5.318 -0.5950  1.6379  0.6133
  906MOL0     H24973   0.982   5.783   5.153 -1.7658 -0.2697 -2.5584
  906MOL0     H24974   0.984   5.927   5.055  2.0169 -1.6128  0.1582
  906MOL0     H24975   0.880   5.903   5.345 -3.0689  0.4243  0.8440
  906MOL0     H24976   0.842   6.032   5.234 -2.7554 -1.4405 -1.3648
  906MOL0     H24977   0.660   5.945   5.013  1.6483  1.1574  0.4748
  906MOL0     H24978   0.429   5.830   4.946  1.6012  1.0905  0.2769
  906MOL0     H24979   0.351   5.742   5.080  0.9444 -0.5093  1.4132
  906MOL0     H24980   0.564   5.617   4.899  0.4520  1.7557 -0.1195
  906MOL0     H24981   0.459   5.537   5.025  2.4093 -0.3010 -0.2914
  906MOL0     H24982   0.257   5.567   4.896  1.2310  1.4038 -0.6376
  906MOL0     H24983   0.337   5.659   4.777 -0.9725 -0.2237  0.2760
  906MOL0     H24984   0.393   5.362   4.821 -0.7104 -0.5276  0.3819
  906MOL0     H24985   0.343   5.442   4.672 -0.2143 -1.8270  1.3636
  906MOL0     H24986   0.393   5.277   4.584  0.3332  1.0750 -0.1053
  906MOL0     H24987   0.386   5.038   4.471  0.1668 -0.0806  0.6326
  906MOL0     H24988   0.529   5.009   4.367  0.4797  1.4891 -2.2465
  906MOL0     H24989   0.422   5.127   4.314  2.0041  1.1803 -0.2144
  906MOL0     H24990   1.040   5.224   4.159 -0.4444 -1.1408  1.3862
  906MOL0     H24991   1.170   5.132   3.943 -3.0762  1.5771 -0.8196
  906MOL0     H24992   1.134   4.705   3.822  1.5849  0.5778 -0.3638
  906MOL0     H24993   1.013   4.766   3.722  0.0151  0.3907 -0.5051
  906MOL0     H24994   1.195   4.699   3.588 -0.7105  1.6100 -2.1018
  906MOL0     H24995   1.200   4.871   3.579  3.1123  0.3846 -0.1215
  906MOL0     H24996   1.415   4.751   3.616  0.5971 -1.0887  0.3103
  906MOL0     H24997   1.376   4.719   3.789 -2.1804 -2.8994 -0.6831
  906MOL0     H24998   1.366   4.974   3.821  2.4767  0.9476  0.9202
  906MOL0     H24999   1.412   4.989   3.652 -1.2121 -0.7686 -1.2869
  906MOL0     H25000   1.571   4.839   3.862  1.7186 -1.9535 -1.8531
  906MOL0     H25001   1.606   4.839   3.696 -1.7265  2.2166 -2.3639
  906MOL0     H25002   1.581   5.089   3.882 -1.7232  2.4182 -2.5508
  906MOL0     H25003   1.610   5.091   3.710 -2.4855 -3.2957 -1.8469
  906MOL0     H25004   1.794   4.879   3.834  2.4604  0.3976  2.0167
  906MOL0     H25005   1.803   5.033   3.916 -0.2949  0.4195 -0.4585
  906MOL0     H25006   1.977   5.023   3.729  0.5200 -0.1947 -1.8207
  906MOL0     H25007   1.861   5.142   3.691  1.4575 -0.3766 -1.2996
  906MOL0     H25008   0.952   4.770   3.993  3.9362 -0.5057  1.3896
  906MOL0     H25009   0.856   4.852   4.218  1.8934 -1.2721  0.5415
  906MOL0     H25010   0.875   5.320   4.445  0.9270  2.9367  0.8523
  906MOL0     H25011   0.781   5.436   4.653  0.4156  0.7176 -0.5482
  906MOL0     H25012   1.399   6.609   4.843  0.9362  0.8642  3.3050
  906MOL0     H25013   1.372   6.823   4.713  1.1429  0.2755  1.5344
  906MOL0     H25014   1.282   7.115   4.472  1.4862  1.2075  0.0715
  906MOL0     H25015   1.247   7.319   4.357 -2.6237  4.6352  1.5221
  906MOL0     H25016   0.831   7.458   4.207  1.5237 -1.3199  2.4506
  906MOL0     H25017   0.953   7.560   4.141  2.2506 -0.3510 -2.0493
  906MOL0     H25018   0.896   7.274   4.046 -1.6471  0.6205  0.7649
  906MOL0     H25019   1.064   7.332   4.075 -1.4662 -0.8404  1.4812
  906MOL0     H25020   0.868   7.483   3.906 -1.0910 -1.6503  2.9277
  906MOL0     H25021   1.035   7.514   3.907 -0.5371  0.5900 -0.5189
  906MOL0     H25022   0.974   7.378   3.708 -2.9007 -0.8731  0.1504
  906MOL0     H25023   0.905   7.245   3.798 -0.5857  1.3598  0.0812
  906MOL0     H25024   1.326   7.181   3.795 -0.7715 -2.7603  0.7002
  906MOL0     H25025   0.828   7.229   4.316 -1.7216 -3.3383 -1.1449
  906MOL0     H25026   0.837   6.961   4.556  1.1046  1.9531  0.4417
  906MOL0     H25027   0.747   7.087   4.481  1.1987  1.0437  3.7253
  906MOL0     H25028   0.796   6.954   4.381  1.2803 -0.0108 -0.9765
  907MOL0     O25029   8.770  10.719   9.284 -0.1467 -0.1037 -0.0457
  907MOL0     C25030   8.716  10.625   9.226  0.7747  0.3892  0.2484
  907MOL0     O25031   8.722  10.600   9.093  0.1576 -0.1088 -0.2823
  907MOL0     C25032   8.743  10.702   9.008 -0.3422  0.4318 -0.3873
  907MOL0     C25033   8.673  10.819   9.010 -0.5467  0.1947  0.3195
  907MOL0     C25034   8.691  10.919   8.916 -0.3576  1.1843 -0.1219
  907MOL0     C25035   8.797  10.907   8.826 -0.0449  1.2698  0.1346
  907MOL0     O25036   8.826  10.995   8.728 -0.2200  0.3895 -0.1873
  907MOL0     C25037   8.752  11.113   8.702  0.0020 -0.8417 -1.1706
  907MOL0     C25038   8.832  11.210   8.614  0.4137 -0.7138  0.0700
  907MOL0     C25039   8.972  11.240   8.671  0.1472 -0.2504 -0.3244
  907MOL0     C25040   9.066  11.298   8.554 -1.6251  0.6960  0.2365
  907MOL0     C25041   9.191  11.367   8.630 -0.4422  0.6565  0.3597
  907MOL0     C25042   9.279  11.438   8.518  0.2471  0.4665 -0.0913
  907MOL0     C25043   9.411  11.496   8.577  0.8753  0.2306  0.6256
  907MOL0     C25044   9.366  11.602   8.684  0.0841 -0.5070 -0.1066
  907MOL0     N25045   9.484  11.671   8.730 -0.0456 -0.5872 -0.2653
  907MOL0     C25046   9.565  11.766   8.662  0.6012  0.7114  1.0889
  907MOL0     C25047   9.678  11.779   8.738 -0.3277  0.1771 -0.1683
  907MOL0     C25048   9.788  11.885   8.713  0.9162 -0.0443 -0.1672
  907MOL0     C25049   9.739  12.037   8.714  0.0750 -0.1299 -0.7606
  907MOL0     C25050   9.692  12.061   8.566 -0.5742  0.3777  0.1754
  907MOL0     C25051   9.787  12.167   8.504  0.4864  0.8956  0.0953
  907MOL0     O25052   9.744  12.186   8.371  0.5904 -0.0256 -0.3980
  907MOL0     C25053   9.766  12.087   8.272  0.0605 -0.7594  0.3562
  907MOL0     C25054   9.691  12.108   8.157 -0.1220  0.5090  0.1764
  907MOL0     C25055   9.681  12.008   8.048 -0.1866  0.4453 -0.0658
  907MOL0     C25056   9.581  12.036   7.942  0.2361 -0.0796 -0.0794
  907MOL0     C25057   9.772  11.897   8.051  0.4659  0.0793  0.4045
  907MOL0     C25058   9.776  11.789   7.951  0.3606  0.6643 -0.0387
  907MOL0     O25059   9.898  11.737   7.936  0.2883 -0.2100  0.8510
  907MOL0     C25060   9.922  11.665   7.823  0.0173  0.2597 -0.3988
  907MOL0     C25061   9.907  11.525   7.822  0.5535 -0.2738  0.1947
  907MOL0     C25062   9.923  11.466   7.698  0.2561 -0.2713 -0.3743
  907MOL0     C25063   9.949  11.527   7.579 -0.0510 -0.1315  0.4938
  907MOL0     O25064   9.954  11.469   7.452 -0.2733 -0.0310 -0.1378
  907MOL0     C25065   9.989  11.330   7.454  0.0649  0.5008 -0.1020
  907MOL0     C25066   9.914  11.256   7.337  0.3554 -0.9034 -0.3177
  907MOL0     C25067   9.972  11.296   7.199 -0.6934 -0.0038 -0.2177
  907MOL0     C25068  10.115  11.224   7.182  0.1847 -0.6991  0.3587
  907MOL0     C25069  10.185  11.281   7.057  0.7550 -0.6446 -0.2156
  907MOL0     C25070  10.316  11.224   7.012 -0.1621  0.9694  0.3639
  907MOL0     C25071  10.428  11.253   7.109 -0.0773  0.2216 -0.0888
  907MOL0     C25072  10.530  11.140   7.100 -0.2035  0.8041 -0.1345
  907MOL0    Cl25073  10.466  10.976   7.158  0.3746  0.3548 -0.1477
  907MOL0     C25074   9.966  11.669   7.584  0.3713  0.0993 -1.1498
  907MOL0     C25075   9.947  11.734   7.704  0.4083 -0.0394 -0.3860
  907MOL0     O25076   9.673  11.751   7.899 -0.1838 -1.4494  0.0343
  907MOL0     C25077   9.854  11.887   8.159 -0.4534  0.0104 -0.0312
  907MOL0     C25078   9.847  11.975   8.271 -0.1615  0.2678 -0.2910
  907MOL0     N25079   9.661  11.695   8.854  0.5124 -0.1047  0.1512
  907MOL0     N25080   9.549  11.633   8.840  0.0523 -0.0946 -0.1597
  907MOL0     C25081   8.885  10.796   8.832 -0.4660 -0.4381 -0.9858
  907MOL0     C25082   8.856  10.695   8.930 -0.2771 -0.2831  0.8071
  907MOL0     C25083   8.636  10.526   9.309  0.6445  0.0067  1.7071
  907MOL0     C25084   8.658  10.384   9.286 -0.8278 -0.5698 -0.3338
  907MOL0     C25085   8.597  10.285   9.367  0.6192 -0.2814  0.4929
  907MOL0     C25086   8.506  10.324   9.464  0.0596 -0.4953  0.0150
  907MOL0     O25087   8.438  10.234   9.541 -0.0817 -0.2643 -0.3268
  907MOL0     C25088   8.471  10.247   9.683 -0.9318 -0.2112 -0.1763
  907MOL0     C25089   8.485  10.102   9.739 -0.5579  0.2227 -0.0348
  907MOL0     C25090   8.358  10.016   9.705  0.4647 -0.0611  0.4384
  907MOL0     C25091   8.349   9.882   9.780  0.0225  0.8665  0.2430
  907MOL0     C25092   8.230   9.812   9.728 -0.2618  0.5928 -0.3139
  907MOL0     C25093   8.124   9.761   9.694 -1.1505 -0.3176  0.4729
  907MOL0     C25094   8.479  10.460   9.475  0.5251  0.0689 -1.5168
  907MOL0     C25095   8.546  10.561   9.405 -0.3733 -0.7738 -0.1154
  907MOL0     C25096   8.527  10.706   9.440 -0.3124  0.5678 -0.3798
  907MOL0     H25097   8.589  10.836   9.077 -0.9829  0.9635 -0.4057
  907MOL0     H25098   8.621  11.001   8.927  2.3936  3.6502  0.2501
  907MOL0     H25099   8.713  11.170   8.787 -0.7486 -1.2694 -1.2167
  907MOL0     H25100   8.658  11.094   8.649 -0.2421  1.2275 -1.5442
  907MOL0     H25101   8.838  11.171   8.512  1.4020 -0.3816 -0.0158
  907MOL0     H25102   8.781  11.306   8.601 -2.1158 -2.3782 -5.9613
  907MOL0     H25103   8.952  11.313   8.750 -0.4014  2.0165 -2.4396
  907MOL0     H25104   9.022  11.154   8.717  0.0934 -0.4014 -0.5504
  907MOL0     H25105   9.106  11.219   8.490 -2.4858  1.0657 -0.7819
  907MOL0     H25106   9.007  11.371   8.499 -0.2892  2.4442  1.0178
  907MOL0     H25107   9.247  11.297   8.693  0.7741  1.8895  0.6825
  907MOL0     H25108   9.160  11.437   8.708  0.9475  0.8998  0.7217
  907MOL0     H25109   9.313  11.365   8.445 -0.7681 -0.5519  0.4146
  907MOL0     H25110   9.217  11.519   8.480 -0.0356 -0.0504 -0.7397
  907MOL0     H25111   9.475  11.548   8.506  2.0332 -2.5629 -0.5083
  907MOL0     H25112   9.475  11.415   8.613  0.4514 -0.9048 -1.0663
  907MOL0     H25113   9.294  11.675   8.644  0.5672  1.4037  2.2863
  907MOL0     H25114   9.319  11.558   8.773  0.3705 -0.6833 -0.0411
  907MOL0     H25115   9.553  11.809   8.563  3.4647 -3.5099 -1.4491
  907MOL0     H25116   9.835  11.854   8.619  2.6485 -1.6187  1.1272
  907MOL0     H25117   9.864  11.869   8.791  1.4435  0.8086 -0.5019
  907MOL0     H25118   9.652  12.043   8.780 -0.2110 -1.9044 -0.9249
  907MOL0     H25119   9.824  12.102   8.737  0.3811 -1.1505  1.1579
  907MOL0     H25120   9.680  11.973   8.502 -0.6785  0.4020  0.1604
  907MOL0     H25121   9.586  12.087   8.562 -1.5470 -3.1088  0.0776
  907MOL0     H25122   9.777  12.260   8.561 -3.5260  0.0080  1.1007
  907MOL0     H25123   9.888  12.124   8.503 -0.3144 -1.1188 -1.9959
  907MOL0     H25124   9.631  12.199   8.153  0.6311  0.9564 -1.4023
  907MOL0     H25125   9.634  12.030   7.846 -0.0707 -1.6224 -0.1904
  907MOL0     H25126   9.547  12.139   7.951  1.6760  0.3189  1.2198
  907MOL0     H25127   9.498  11.965   7.937 -0.7110  1.0041  0.0411
  907MOL0     H25128   9.876  11.468   7.908 -0.4249  1.6946  1.2131
  907MOL0     H25129   9.911  11.358   7.699  1.1885 -0.4578  3.0824
  907MOL0     H25130  10.096  11.328   7.435 -0.4345 -0.1895 -3.3299
  907MOL0     H25131   9.977  11.267   7.543 -2.1460  3.4223  1.8849
  907MOL0     H25132   9.914  11.148   7.356 -4.4963 -0.8380  1.3527
  907MOL0     H25133   9.811  11.283   7.361  1.2561  1.7920  0.9518
  907MOL0     H25134   9.985  11.405   7.202 -2.2093  0.1898 -0.2430
  907MOL0     H25135   9.910  11.284   7.110  1.7044  1.5488 -2.2316
  907MOL0     H25136  10.087  11.124   7.145  1.4260 -0.1722 -2.2878
  907MOL0     H25137  10.180  11.215   7.269  5.1776 -0.2972 -2.8714
  907MOL0     H25138  10.121  11.268   6.969  0.3644 -1.2170  0.1463
  907MOL0     H25139  10.198  11.389   7.061 -2.5437 -0.0209 -2.4952
  907MOL0     H25140  10.339  11.266   6.913 -0.8739 -0.6487 -0.5326
  907MOL0     H25141  10.297  11.118   6.994  2.1053  1.0379 -3.8473
  907MOL0     H25142  10.385  11.260   7.209 -1.5541 -0.2998 -0.6625
  907MOL0     H25143  10.475  11.345   7.071  3.2403 -1.6266 -0.8086
  907MOL0     H25144  10.611  11.165   7.169 -0.0510  0.5110 -0.2080
  907MOL0     H25145  10.568  11.144   6.998 -2.7974  1.4664 -1.1526
  907MOL0     H25146   9.990  11.732   7.498 -3.0074  1.6480 -1.1036
  907MOL0     H25147   9.953  11.842   7.710 -0.8901  0.3661 -3.9082
  907MOL0     H25148   9.914  11.797   8.161 -2.9003 -1.7298 -0.4916
  907MOL0     H25149   9.896  11.947   8.365  0.5395 -2.1204 -1.2746
  907MOL0     H25150   8.962  10.797   8.756  0.4248 -1.3414 -0.1172
  907MOL0     H25151   8.926  10.613   8.934  1.3582  0.9386 -0.9981
  907MOL0     H25152   8.726  10.344   9.213  1.9610 -3.3723  3.3867
  907MOL0     H25153   8.616  10.182   9.340 -0.4692 -1.0763  2.6037
  907MOL0     H25154   8.567  10.294   9.707  0.2274 -2.8182  0.6751
  907MOL0     H25155   8.388  10.310   9.716 -1.9813 -0.2271 -2.5635
  907MOL0     H25156   8.508  10.117   9.845 -1.3291 -0.1476  0.1905
  907MOL0     H25157   8.584  10.076   9.700  0.4752  5.0950 -1.4688
  907MOL0     H25158   8.276  10.082   9.737  0.7980  0.3600  0.4393
  907MOL0     H25159   8.363  10.003   9.596 -3.3443  2.3321 -0.2261
  907MOL0     H25160   8.339   9.892   9.889  0.9333 -0.2483  0.4524
  907MOL0     H25161   8.442   9.824   9.771 -1.1799 -0.9250 -1.4285
  907MOL0     H25162   8.029   9.732   9.655 -1.7166  0.2145  1.4202
  907MOL0     H25163   8.403  10.485   9.549 -0.2583 -3.5864 -0.8932
  907MOL0     H25164   8.432  10.704   9.494 -0.2713 -2.0886 -0.2773
  907MOL0     H25165   8.603  10.745   9.507  1.0792 -0.8183 -1.0926
  907MOL0     H25166   8.533  10.771   9.352  4.2238 -0.0161 -0.7497
  908MOL0     O25167   7.190   7.678  11.364  0.0675  0.6693  0.0847
  908MOL0     C25168   7.158   7.563  11.313  0.1482  0.2938 -0.1616
  908MOL0     O25169   7.199   7.441  11.361  0.2099  0.3844  0.8597
  908MOL0     C25170   7.306   7.432  11.442 -0.3991 -0.2906  0.6628
  908MOL0     C25171   7.336   7.504  11.556 -1.4403 -0.6118  0.6311
  908MOL0     C25172   7.448   7.498  11.634 -0.5434  0.2822  0.2853
  908MOL0     C25173   7.540   7.402  11.605 -0.7126  0.2937  1.2498
  908MOL0     O25174   7.655   7.394  11.676  0.0773 -0.0162 -0.4355
  908MOL0     C25175   7.762   7.305  11.640 -0.7066 -0.3187  0.0271
  908MOL0     C25176   7.880   7.308  11.748 -0.1490 -0.0869  0.0040
  908MOL0     C25177   7.841   7.250  11.881  0.2681 -0.7476 -1.2479
  908MOL0     C25178   7.719   7.157  11.881 -0.5227 -0.3378  0.3252
  908MOL0     C25179   7.690   7.079  12.007  1.3329  1.4332 -0.4289
  908MOL0     C25180   7.578   6.982  11.988 -0.0787 -0.0306  0.1751
  908MOL0     C25181   7.624   6.848  11.933 -0.1617 -0.8267 -0.1559
  908MOL0     C25182   7.504   6.749  11.932 -0.5610  0.0827 -0.5945
  908MOL0     N25183   7.549   6.623  11.865 -0.4137 -0.2468  0.5455
  908MOL0     C25184   7.552   6.495  11.916  0.5024  0.2315 -0.9890
  908MOL0     C25185   7.602   6.417  11.824  0.6859  0.4676  0.0363
  908MOL0     C25186   7.621   6.269  11.841 -0.4549 -0.1233  0.5640
  908MOL0     C25187   7.499   6.194  11.794  0.1466 -0.0862 -0.1068
  908MOL0     C25188   7.484   6.050  11.853  0.0018 -0.4209  0.4770
  908MOL0     C25189   7.356   5.986  11.803 -0.6495 -0.0283 -0.1434
  908MOL0     O25190   7.237   6.024  11.880 -0.5429 -0.9067  0.6571
  908MOL0     C25191   7.114   5.966  11.847 -0.4047 -0.8910 -0.2494
  908MOL0     C25192   7.001   6.048  11.837 -1.1328  0.3220 -0.5303
  908MOL0     C25193   6.873   5.998  11.795  0.5023  0.2523  0.0392
  908MOL0     C25194   6.761   6.105  11.777  0.2522  0.5023  0.0610
  908MOL0     C25195   6.856   5.854  11.775  0.0608 -0.0398 -1.5733
  908MOL0     C25196   6.723   5.798  11.758 -0.2015  0.4078 -0.0237
  908MOL0     O25197   6.641   5.842  11.652 -0.1963 -0.5639 -0.9924
  908MOL0     C25198   6.513   5.797  11.637 -0.5676  1.1720  0.0171
  908MOL0     C25199   6.470   5.744  11.505  0.3734 -0.8050 -0.2795
  908MOL0     C25200   6.335   5.706  11.491 -0.7250 -0.6707 -0.6421
  908MOL0     C25201   6.245   5.705  11.599 -0.7769  0.1165 -0.3492
  908MOL0     O25202   6.127   5.649  11.577  0.2159 -0.1623  0.8684
  908MOL0     C25203   6.048   5.595  11.684 -0.2564 -0.0854 -0.7173
  908MOL0     C25204   5.925   5.508  11.631  0.2004 -0.0104 -0.0668
  908MOL0     C25205   5.818   5.606  11.580 -0.5224  0.0596  0.2092
  908MOL0     C25206   5.699   5.532  11.508 -0.7959  0.1969 -0.8463
  908MOL0     C25207   5.572   5.616  11.477  0.2518  0.8235 -0.3755
  908MOL0     C25208   5.469   5.523  11.409  0.4028  0.2420 -0.6712
  908MOL0     C25209   5.348   5.610  11.389  0.7331 -0.3808 -0.3536
  908MOL0     C25210   5.264   5.549  11.291  0.4442  0.5074  1.2331
  908MOL0    Cl25211   5.102   5.643  11.285 -0.0920  0.1663  0.0884
  908MOL0     C25212   6.290   5.756  11.722  0.3100  0.0973 -0.3022
  908MOL0     C25213   6.418   5.787  11.741 -0.1602 -0.1494 -1.3298
  908MOL0     O25214   6.690   5.707  11.831 -0.1910 -0.3507  0.1215
  908MOL0     C25215   6.971   5.770  11.799 -0.1899 -0.5945 -0.6806
  908MOL0     C25216   7.102   5.830  11.829  0.4393  0.2433 -0.3788
  908MOL0     N25217   7.642   6.490  11.713 -0.1882 -0.0005  0.1748
  908MOL0     N25218   7.610   6.619  11.744  0.8326  0.5421 -0.0480
  908MOL0     C25219   7.515   7.319  11.495  0.0789 -0.2237  0.1540
  908MOL0     C25220   7.399   7.334  11.415  0.4982 -0.2804 -0.2430
  908MOL0     C25221   7.071   7.569  11.193  0.7144 -0.3860  0.2547
  908MOL0     C25222   7.052   7.450  11.117 -0.5298  0.1864  0.1298
  908MOL0     C25223   6.985   7.461  10.991  0.8838  0.1108 -0.3812
  908MOL0     C25224   6.934   7.580  10.943 -0.2797  0.7773 -0.0284
  908MOL0     O25225   6.879   7.582  10.817  0.2046  0.1875  0.6517
  908MOL0     C25226   6.818   7.702  10.761 -0.2717 -0.2126  0.7482
  908MOL0     C25227   6.913   7.821  10.699 -0.1742 -0.1737  0.2027
  908MOL0     C25228   6.852   7.947  10.630 -0.7819 -1.0544 -0.1339
  908MOL0     C25229   6.962   8.040  10.569  0.7171  0.4847  0.5609
  908MOL0     C25230   6.901   8.165  10.528 -0.7035  0.6714  0.6552
  908MOL0     C25231   6.856   8.278  10.514  0.2107  0.0450  0.5683
  908MOL0     C25232   6.942   7.691  11.028  1.0742  0.0920 -0.0140
  908MOL0     C25233   7.003   7.687  11.148 -0.2870 -0.9998 -0.1123
  908MOL0     C25234   6.997   7.830  11.213 -0.1755  0.1788  0.4025
  908MOL0     H25235   7.256   7.574  11.576 -3.3061 -2.0714 -1.2101
  908MOL0     H25236   7.473   7.570  11.711  3.3862  2.2581 -2.4693
  908MOL0     H25237   7.809   7.342  11.548 -1.2130 -1.5669 -0.7450
  908MOL0     H25238   7.724   7.204  11.628 -2.7053  0.5102 -1.1463
  908MOL0     H25239   7.970   7.256  11.715  0.3018  0.0550  0.9608
  908MOL0     H25240   7.900   7.414  11.762  2.8638 -0.4052 -1.1970
  908MOL0     H25241   7.932   7.194  11.906 -0.2087 -1.0278 -0.0438
  908MOL0     H25242   7.820   7.332  11.950 -1.9029 -4.1813  2.6107
  908MOL0     H25243   7.632   7.221  11.861  0.9688  1.2840 -1.3404
  908MOL0     H25244   7.730   7.080  11.804 -1.5011  0.2262 -0.4009
  908MOL0     H25245   7.655   7.147  12.085 -1.6605 -1.5390  1.0595
  908MOL0     H25246   7.778   7.026  12.044 -0.6472 -0.2393  2.2200
  908MOL0     H25247   7.527   6.959  12.082 -1.0660  0.5107 -0.2101
  908MOL0     H25248   7.500   7.027  11.925 -0.5612 -0.9781  0.0708
  908MOL0     H25249   7.692   6.810  12.010 -0.1474  2.5745  1.7161
  908MOL0     H25250   7.682   6.850  11.841  0.2794 -4.6937 -0.1153
  908MOL0     H25251   7.487   6.718  12.035 -0.8487  1.1144 -0.3258
  908MOL0     H25252   7.410   6.794  11.901 -0.6989 -0.9270 -1.7154
  908MOL0     H25253   7.518   6.455  12.011 -1.0583  1.9025 -0.7796
  908MOL0     H25254   7.627   6.241  11.947 -3.8991  0.9223  1.1400
  908MOL0     H25255   7.706   6.237  11.779  0.5478 -0.7211  2.1802
  908MOL0     H25256   7.415   6.250  11.837 -0.3169 -2.2391  2.0375
  908MOL0     H25257   7.499   6.198  11.685  2.5803 -0.6391 -0.1790
  908MOL0     H25258   7.573   5.991  11.829  1.4735  0.9151  2.3455
  908MOL0     H25259   7.480   6.052  11.962  1.6976 -0.4979  0.5607
  908MOL0     H25260   7.338   6.005  11.697  0.2314  1.6025 -0.0322
  908MOL0     H25261   7.369   5.879  11.816  1.4245  0.2075 -0.0029
  908MOL0     H25262   7.018   6.153  11.860  1.0253  0.3930 -2.1563
  908MOL0     H25263   6.693   6.076  11.858  1.1744 -1.7327  0.1089
  908MOL0     H25264   6.719   6.099  11.677  0.2950 -0.4855  0.0870
  908MOL0     H25265   6.790   6.210  11.781  1.7546  0.2847 -2.5364
  908MOL0     H25266   6.548   5.738  11.430  3.4352 -2.4362  2.7663
  908MOL0     H25267   6.316   5.656  11.396 -0.5915 -0.2991 -0.8678
  908MOL0     H25268   6.120   5.542  11.747 -1.4224 -2.5470 -1.3101
  908MOL0     H25269   5.998   5.664  11.753 -2.2357 -0.4581 -1.7178
  908MOL0     H25270   5.955   5.446  11.546 -0.0604 -1.6711  1.0030
  908MOL0     H25271   5.885   5.452  11.716 -1.2315  0.9177 -0.0846
  908MOL0     H25272   5.872   5.680  11.519  2.1214 -0.3325  1.9370
  908MOL0     H25273   5.764   5.668  11.652 -2.8084 -1.8754  0.2614
  908MOL0     H25274   5.671   5.449  11.574  1.9911  0.3217  0.6233
  908MOL0     H25275   5.750   5.495  11.418  0.2335 -1.0149  0.2014
  908MOL0     H25276   5.530   5.668  11.563  1.1584  0.2911  0.4066
  908MOL0     H25277   5.603   5.690  11.403  1.3608 -1.0746 -1.9196
  908MOL0     H25278   5.448   5.446  11.483 -0.1469  1.5956  0.6482
  908MOL0     H25279   5.511   5.485  11.316  0.8833 -1.6053  0.2660
  908MOL0     H25280   5.372   5.713  11.359  1.1601  0.6699  3.2053
  908MOL0     H25281   5.310   5.623  11.491  0.2123  0.4711 -0.6383
  908MOL0     H25282   5.251   5.446  11.327  1.5626 -0.3533 -0.7143
  908MOL0     H25283   5.308   5.548  11.191 -4.3363 -0.7038 -1.1568
  908MOL0     H25284   6.224   5.777  11.805  1.9363  0.6761  0.8975
  908MOL0     H25285   6.449   5.821  11.839  1.5412 -3.1916 -0.6815
  908MOL0     H25286   6.960   5.662  11.793 -1.2049 -0.7089  2.0809
  908MOL0     H25287   7.180   5.758  11.854 -1.1312 -0.9855  1.2505
  908MOL0     H25288   7.581   7.236  11.471  2.7615  2.5376 -3.0241
  908MOL0     H25289   7.388   7.269  11.329  0.8607 -0.9417  0.1964
  908MOL0     H25290   7.093   7.357  11.154 -0.4274  0.7034  1.3638
  908MOL0     H25291   6.981   7.368  10.935  2.1067 -1.7471  2.3801
  908MOL0     H25292   6.758   7.679  10.672  1.3875 -2.2883  0.0860
  908MOL0     H25293   6.755   7.741  10.841 -0.3093  0.3561  0.4451
  908MOL0     H25294   6.980   7.763  10.634 -1.6988  0.4545 -2.0523
  908MOL0     H25295   6.989   7.845  10.774  2.7520 -4.6786 -0.8808
  908MOL0     H25296   6.785   7.914  10.551  0.9894 -1.4345 -1.5376
  908MOL0     H25297   6.793   7.991  10.711 -0.4273 -0.1353 -0.3599
  908MOL0     H25298   7.012   7.994  10.484 -0.0199  0.4898  0.1077
  908MOL0     H25299   7.031   8.055  10.652  3.7859 -0.3701 -1.6838
  908MOL0     H25300   6.824   8.381  10.518 -0.6129  0.0176 -2.7025
  908MOL0     H25301   6.901   7.783  10.988  0.1342  0.7658  2.3323
  908MOL0     H25302   7.101   7.864  11.210 -1.0357  3.0538 -0.3151
  908MOL0     H25303   6.936   7.905  11.162 -0.7548 -0.8076 -0.3825
  908MOL0     H25304   6.969   7.826  11.319 -1.0858  3.6514  0.4217
  909MOL0     O25305  10.948   3.630   2.678 -0.4272  0.1931  0.0781
  909MOL0     C25306  10.897   3.733   2.642  0.3326  0.0013 -0.3124
  909MOL0     O25307  10.902   3.850   2.708 -0.0795 -0.6850  0.4274
  909MOL0     C25308  10.973   3.858   2.826 -0.7003  0.0356  0.5083
  909MOL0     C25309  10.907   3.912   2.931  0.7682  0.0140  0.2039
  909MOL0     C25310  10.968   3.911   3.062  1.2278 -0.1808 -0.0525
  909MOL0     C25311  11.088   3.865   3.091 -1.0259  0.4118 -0.0801
  909MOL0     O25312  11.144   3.845   3.218 -0.1426  0.4469  0.5861
  909MOL0     C25313  11.049   3.875   3.324  0.1034 -1.6350 -0.3574
  909MOL0     C25314  11.117   3.844   3.458  0.3244  0.4402 -0.1209
  909MOL0     C25315  11.086   3.708   3.511  0.2926  0.0369  0.3187
  909MOL0     C25316  11.160   3.594   3.440  0.4667  0.5549 -0.0196
  909MOL0     C25317  11.132   3.458   3.500 -0.2232 -0.4755 -0.4133
  909MOL0     C25318  11.222   3.349   3.432 -0.4924  0.0939 -0.2591
  909MOL0     C25319  11.198   3.200   3.477  0.1088 -0.0113 -0.0795
  909MOL0     C25320  11.166   3.180   3.625 -0.0152 -0.7830  0.2290
  909MOL0     N25321  11.114   3.043   3.655  0.9841 -0.3384 -0.2435
  909MOL0     C25322  10.980   3.012   3.635 -0.1485  0.0413  0.7669
  909MOL0     C25323  10.975   2.880   3.643 -1.0318  0.3585 -0.1633
  909MOL0     C25324  10.861   2.790   3.646 -0.5251 -0.5025 -0.1668
  909MOL0     C25325  10.827   2.771   3.789 -0.2889  0.2238  0.1320
  909MOL0     C25326  10.748   2.887   3.858 -0.6723 -0.2564  0.3235
  909MOL0     C25327  10.723   2.847   4.005  0.1875 -0.2451 -0.5238
  909MOL0     O25328  10.847   2.858   4.077 -0.1453  0.3828  0.7388
  909MOL0     C25329  10.876   2.981   4.133 -0.1838  0.8206  0.1811
  909MOL0     C25330  10.804   3.093   4.125 -0.0470  0.6769  0.7284
  909MOL0     C25331  10.835   3.210   4.196  0.4432  0.3735 -0.3929
  909MOL0     C25332  10.740   3.330   4.179 -0.0838  0.4689  0.0459
  909MOL0     C25333  10.954   3.213   4.271 -0.7351  0.1019 -0.0975
  909MOL0     C25334  10.993   3.324   4.357  0.7658 -0.2590 -0.1417
  909MOL0     O25335  11.054   3.279   4.480  0.3362  0.5395 -0.2960
  909MOL0     C25336  11.076   3.371   4.574  0.6424 -0.0007  0.4105
  909MOL0     C25337  11.203   3.409   4.614 -0.7614  0.5492  0.9434
  909MOL0     C25338  11.217   3.518   4.698  0.3663  0.2321  0.0791
  909MOL0     C25339  11.106   3.583   4.751 -0.8472  0.6714 -0.3479
  909MOL0     O25340  11.111   3.697   4.826 -0.2244  0.7059 -0.1406
  909MOL0     C25341  11.236   3.756   4.862 -1.1618 -0.7142  0.4762
  909MOL0     C25342  11.208   3.882   4.955  0.5885  0.1328  0.1128
  909MOL0     C25343  11.114   3.988   4.898 -0.0613  0.3364 -1.0094
  909MOL0     C25344  11.125   4.105   5.002 -0.4434  0.9895 -0.0794
  909MOL0     C25345  11.262   4.172   5.001 -0.0937  0.0259  0.5474
  909MOL0     C25346  11.253   4.324   5.028  0.9868  0.3794 -0.0261
  909MOL0     C25347  11.394   4.387   5.024 -0.3236  0.9665  0.4462
  909MOL0     C25348  11.396   4.519   5.075  0.1529 -0.8231  0.6636
  909MOL0    Cl25349  11.296   4.642   4.985  0.2978 -0.2001 -0.1060
  909MOL0     C25350  10.980   3.536   4.725 -0.2803  0.5816 -1.4459
  909MOL0     C25351  10.965   3.433   4.630 -0.0097 -0.1794 -0.8719
  909MOL0     O25352  10.967   3.440   4.331  0.4800 -0.2972  0.4492
  909MOL0     C25353  11.024   3.093   4.287 -0.1386 -0.3838 -0.3807
  909MOL0     C25354  10.987   2.982   4.220  0.8806  0.9875  1.0522
  909MOL0     N25355  11.110   2.834   3.663  0.4585  0.2263  0.5406
  909MOL0     N25356  11.185   2.938   3.683  0.0933 -0.6899  0.5851
  909MOL0     C25357  11.163   3.823   2.975 -1.2734 -0.8236 -0.5582
  909MOL0     C25358  11.106   3.814   2.851 -1.3769 -0.2613  0.1256
  909MOL0     C25359  10.824   3.737   2.511 -0.5642 -0.3475  0.1441
  909MOL0     C25360  10.786   3.871   2.465 -0.6312  1.0891  0.3349
  909MOL0     C25361  10.714   3.884   2.350 -0.7528 -0.4371 -0.8825
  909MOL0     C25362  10.678   3.774   2.274 -0.0322  0.4527 -0.5692
  909MOL0     O25363  10.607   3.804   2.170  0.0692  0.5189 -0.4090
  909MOL0     C25364  10.542   3.711   2.069 -0.3134 -0.5811 -1.3013
  909MOL0     C25365  10.438   3.629   2.152  0.3098 -0.0470  0.3051
  909MOL0     C25366  10.351   3.532   2.068 -0.0646  0.0509  0.0405
  909MOL0     C25367  10.431   3.403   2.033 -0.5844  0.6167  0.3244
  909MOL0     C25368  10.341   3.284   2.009 -0.8748  0.5109 -0.2009
  909MOL0     C25369  10.264   3.190   2.005 -0.3311  0.0501  0.2830
  909MOL0     C25370  10.713   3.642   2.319 -0.7442  0.6044  0.3552
  909MOL0     C25371  10.778   3.629   2.439 -0.3169 -0.5561 -0.1603
  909MOL0     C25372  10.801   3.477   2.474  0.4854  0.8495 -0.1056
  909MOL0     H25373  10.804   3.946   2.923  1.4004  1.9085 -0.2259
  909MOL0     H25374  10.897   3.945   3.136  1.0198  1.2878 -0.8878
  909MOL0     H25375  10.955   3.819   3.321 -2.4437  1.9106  3.1964
  909MOL0     H25376  11.030   3.982   3.313  2.5482 -0.9524  1.3388
  909MOL0     H25377  11.226   3.836   3.458  0.2526 -0.8418 -0.0125
  909MOL0     H25378  11.074   3.911   3.534 -2.3775  1.2265 -2.1662
  909MOL0     H25379  11.093   3.702   3.620  0.4954  3.9000  0.6374
  909MOL0     H25380  10.979   3.683   3.510  0.4172 -0.4959 -0.6943
  909MOL0     H25381  11.111   3.589   3.342 -1.5687  0.4595  0.9505
  909MOL0     H25382  11.266   3.621   3.434  0.6508 -0.0928  0.1641
  909MOL0     H25383  11.029   3.433   3.474  0.4496 -1.4143 -2.3465
  909MOL0     H25384  11.146   3.463   3.608  2.2149 -1.5404 -0.6168
  909MOL0     H25385  11.208   3.342   3.324  1.4625  2.4287 -0.7838
  909MOL0     H25386  11.328   3.373   3.450  0.8912 -2.8907 -3.2970
  909MOL0     H25387  11.268   3.131   3.429  0.4247  1.9114 -2.6434
  909MOL0     H25388  11.105   3.169   3.427  2.2079 -3.5913 -2.1694
  909MOL0     H25389  11.258   3.191   3.684  0.0803  3.7415 -0.4153
  909MOL0     H25390  11.105   3.257   3.674 -0.0284  0.2589 -1.3613
  909MOL0     H25391  10.902   3.086   3.624 -1.0669 -0.0670  4.8161
  909MOL0     H25392  10.874   2.695   3.594 -1.7797  0.0444 -1.5530
  909MOL0     H25393  10.777   2.840   3.597 -2.2021  0.4182  3.3238
  909MOL0     H25394  10.768   2.679   3.786  0.2712 -0.1123 -1.7847
  909MOL0     H25395  10.908   2.740   3.856  0.2936  0.8020 -0.2966
  909MOL0     H25396  10.808   2.978   3.863  1.0386 -1.3943  1.8918
  909MOL0     H25397  10.657   2.915   3.805 -0.8359  0.4613  0.9722
  909MOL0     H25398  10.629   2.889   4.041 -0.9807 -1.3389 -2.1582
  909MOL0     H25399  10.700   2.740   4.001 -1.3743 -0.0075  1.0467
  909MOL0     H25400  10.711   3.083   4.070  1.4740 -4.7750 -1.5077
  909MOL0     H25401  10.639   3.290   4.172  0.1794 -0.1776 -0.0993
  909MOL0     H25402  10.780   3.380   4.091 -0.0069 -0.1660 -0.2825
  909MOL0     H25403  10.738   3.399   4.265 -1.7013  0.9320 -0.3335
  909MOL0     H25404  11.289   3.364   4.565  0.1894  4.6375 -1.6692
  909MOL0     H25405  11.318   3.558   4.710  0.5159  0.5151 -1.7355
  909MOL0     H25406  11.295   3.687   4.921  0.3190 -0.1860 -0.3431
  909MOL0     H25407  11.287   3.786   4.770 -0.6870 -3.7960 -0.3772
  909MOL0     H25408  11.181   3.848   5.056  1.5966 -1.3212 -0.0873
  909MOL0     H25409  11.304   3.934   4.961  0.6052  0.5074 -2.3878
  909MOL0     H25410  11.011   3.952   4.888  0.7443 -1.8113 -2.1430
  909MOL0     H25411  11.157   4.027   4.805  1.9328 -0.3664 -0.4459
  909MOL0     H25412  11.109   4.066   5.103  1.0558  1.7345  0.4722
  909MOL0     H25413  11.044   4.175   4.977 -1.0209  0.3945  0.0972
  909MOL0     H25414  11.327   4.126   5.076  1.1659  1.3288  0.2937
  909MOL0     H25415  11.305   4.150   4.903 -3.9647 -0.5408 -1.2182
  909MOL0     H25416  11.213   4.327   5.129 -0.1783 -2.0960 -0.3387
  909MOL0     H25417  11.190   4.380   4.958 -0.0377 -0.7840 -0.0819
  909MOL0     H25418  11.425   4.391   4.919 -2.5611  2.7220 -0.2286
  909MOL0     H25419  11.467   4.322   5.073 -0.2521  0.9028  0.2608
  909MOL0     H25420  11.498   4.556   5.077 -0.9995  2.7439 -0.1115
  909MOL0     H25421  11.370   4.503   5.180 -2.8825 -4.2848 -0.3648
  909MOL0     H25422  10.898   3.598   4.760 -1.6652 -0.9890 -1.7708
  909MOL0     H25423  10.866   3.417   4.589 -0.7638 -2.8884  1.6170
  909MOL0     H25424  11.112   3.087   4.349  0.6754  1.2384 -1.3132
  909MOL0     H25425  11.032   2.884   4.233  1.6914  1.4243  1.6448
  909MOL0     H25426  11.263   3.784   2.990 -1.3964 -0.1411  2.9949
  909MOL0     H25427  11.166   3.784   2.766  1.3205  3.2690  0.5590
  909MOL0     H25428  10.817   3.965   2.509  3.8298 -0.9095  2.1424
  909MOL0     H25429  10.684   3.984   2.320 -1.9947 -0.2956  0.7454
  909MOL0     H25430  10.501   3.774   1.990 -0.6846  3.1191  1.5156
  909MOL0     H25431  10.612   3.635   2.033  0.8346 -0.2485  0.1215
  909MOL0     H25432  10.376   3.710   2.194 -0.2571 -0.5143  0.3862
  909MOL0     H25433  10.470   3.560   2.230  0.1083 -2.9962 -2.0587
  909MOL0     H25434  10.259   3.508   2.122  1.1791 -1.1095  1.7508
  909MOL0     H25435  10.324   3.575   1.971  1.3912  2.1298  0.4823
  909MOL0     H25436  10.509   3.371   2.102 -0.0470 -0.3019 -0.6694
  909MOL0     H25437  10.485   3.406   1.937 -0.5815 -0.1630  0.2948
  909MOL0     H25438  10.190   3.113   2.013  0.4069 -0.9333 -1.8769
  909MOL0     H25439  10.697   3.558   2.253  1.8656 -0.0084  0.3889
  909MOL0     H25440  10.776   3.464   2.580 -1.7104 -2.5587 -0.8756
  909MOL0     H25441  10.729   3.406   2.432  0.5223  0.4232  0.5387
  909MOL0     H25442  10.902   3.441   2.454 -0.5908 -4.1039  1.8525
  910MOL0     O25443   1.978   8.968   0.882  0.1923 -0.2484  0.0990
  910MOL0     C25444   2.091   8.988   0.924 -0.4631  0.9979 -0.0015
  910MOL0     O25445   2.120   8.982   1.061  0.2385 -0.0878  0.3906
  910MOL0     C25446   2.030   8.968   1.166 -0.1480  0.6554  0.8431
  910MOL0     C25447   2.069   9.012   1.291 -0.3619 -0.6978 -0.7184
  910MOL0     C25448   1.986   8.974   1.405  0.4796 -1.0665 -0.3301
  910MOL0     C25449   1.862   8.909   1.384  0.0969 -0.5922 -0.2284
  910MOL0     O25450   1.784   8.901   1.497  0.7681 -0.4764  0.2563
  910MOL0     C25451   1.644   8.870   1.481  0.2103  0.0925  0.3129
  910MOL0     C25452   1.577   8.880   1.618 -0.2747  0.7099 -0.1039
  910MOL0     C25453   1.551   9.025   1.668  0.5063 -0.2441 -0.5588
  910MOL0     C25454   1.668   9.126   1.656  0.1170 -0.1273  1.0757
  910MOL0     C25455   1.619   9.254   1.728  0.0838  0.2338  0.0064
  910MOL0     C25456   1.720   9.372   1.762 -0.8156  0.1623 -0.2338
  910MOL0     C25457   1.790   9.428   1.634  0.7233  0.2386 -0.5962
  910MOL0     C25458   1.898   9.529   1.680 -0.0633 -0.0714 -0.3904
  910MOL0     N25459   1.973   9.582   1.563 -0.8001 -0.5928  0.0407
  910MOL0     C25460   1.952   9.685   1.474 -0.4845 -0.5983 -0.4632
  910MOL0     C25461   2.040   9.664   1.376 -0.3945  1.2068 -0.9988
  910MOL0     C25462   2.060   9.750   1.259  0.1216  0.8376  0.0589
  910MOL0     C25463   2.007   9.676   1.139  0.0547 -1.0332  0.0331
  910MOL0     C25464   1.862   9.622   1.157  0.2404 -0.3203 -0.0845
  910MOL0     C25465   1.755   9.734   1.189  0.6096 -0.0202 -0.4485
  910MOL0     O25466   1.756   9.846   1.101 -0.1083  0.7636 -0.4325
  910MOL0     C25467   1.762   9.971   1.163 -0.4974 -0.5862 -0.1343
  910MOL0     C25468   1.875  10.038   1.131 -0.1556 -0.0350  0.7147
  910MOL0     C25469   1.903  10.163   1.190  0.3450 -0.1260  0.2065
  910MOL0     C25470   2.033  10.219   1.138  0.2841  0.3902 -1.1779
  910MOL0     C25471   1.814  10.227   1.280 -0.3320 -0.3396  0.6198
  910MOL0     C25472   1.840  10.356   1.347 -0.2087  0.5705 -0.7931
  910MOL0     O25473   1.735  10.413   1.421 -0.3695 -0.6014 -0.3454
  910MOL0     C25474   1.740  10.457   1.546 -1.4583  0.0560  0.3906
  910MOL0     C25475   1.621  10.504   1.591  1.0032  0.2722 -0.2588
  910MOL0     C25476   1.602  10.556   1.727  0.2977 -0.1239  0.3932
  910MOL0     C25477   1.718  10.555   1.816 -0.0575 -0.1293  0.4113
  910MOL0     O25478   1.708  10.610   1.941  0.3025 -0.0230  0.3061
  910MOL0     C25479   1.632  10.729   1.961 -0.6639  0.0120 -0.4419
  910MOL0     C25480   1.683  10.813   2.079  0.2322 -0.6786  0.1154
  910MOL0     C25481   1.596  10.939   2.113 -0.0676  0.7127 -0.2905
  910MOL0     C25482   1.657  11.006   2.244 -0.6263 -0.6212 -1.0004
  910MOL0     C25483   1.600  11.152   2.261  0.1057  0.4694  0.2644
  910MOL0     C25484   1.450  11.154   2.280 -0.1882 -1.0807 -0.5583
  910MOL0     C25485   1.403  11.096   2.415 -0.2527 -0.7076 -0.1247
  910MOL0     C25486   1.279  11.173   2.489 -0.3281 -0.4619 -0.0927
  910MOL0    Cl25487   1.296  11.342   2.548  0.0961  0.2050 -0.1336
  910MOL0     C25488   1.840  10.511   1.764  0.3125 -0.8891  0.3406
  910MOL0     C25489   1.864  10.464   1.625 -0.0433 -0.1685 -1.3990
  910MOL0     O25490   1.946  10.413   1.325  0.1021 -0.0423 -0.8488
  910MOL0     C25491   1.688  10.160   1.306 -0.1780 -0.2007 -0.3607
  910MOL0     C25492   1.674  10.031   1.259  0.5012  0.1472  0.6157
  910MOL0     N25493   2.117   9.552   1.408  0.0954 -0.3844 -0.0935
  910MOL0     N25494   2.068   9.503   1.510 -0.6421 -0.7643 -0.0011
  910MOL0     C25495   1.827   8.861   1.258  0.2164 -0.7635 -0.4003
  910MOL0     C25496   1.911   8.893   1.152 -0.5584  0.6689  0.0375
  910MOL0     C25497   2.200   9.002   0.822 -0.2116  0.4452  0.7716
  910MOL0     C25498   2.281   9.111   0.830  0.2477  0.2157  0.0828
  910MOL0     C25499   2.376   9.125   0.730  0.5323 -0.0972  0.1131
  910MOL0     C25500   2.386   9.028   0.623 -0.7289 -0.2154 -0.2140
  910MOL0     O25501   2.472   9.031   0.517 -1.0377 -0.0111 -0.7757
  910MOL0     C25502   2.577   9.129   0.515 -0.5994 -0.9180  0.5279
  910MOL0     C25503   2.637   9.123   0.362  0.5738  0.1616  0.2679
  910MOL0     C25504   2.721   8.995   0.336 -0.4961  0.3977 -0.5256
  910MOL0     C25505   2.751   8.977   0.185  0.4028  0.4799  0.8860
  910MOL0     C25506   2.799   8.838   0.176  0.8900  0.0279  0.4542
  910MOL0     C25507   2.829   8.720   0.168 -0.4715 -0.7026  0.4847
  910MOL0     C25508   2.315   8.914   0.632 -0.5176 -0.5046 -0.3701
  910MOL0     C25509   2.216   8.907   0.719  0.8103  0.2281  0.2645
  910MOL0     C25510   2.125   8.788   0.715 -0.2924 -0.0565  0.0966
  910MOL0     H25511   2.162   9.068   1.293 -1.2718  0.8627 -0.5032
  910MOL0     H25512   2.024   9.006   1.501  0.3913 -1.0331 -0.3062
  910MOL0     H25513   1.621   8.772   1.438 -2.6060  0.5914  0.5019
  910MOL0     H25514   1.602   8.948   1.418  2.1359  0.9143 -0.0139
  910MOL0     H25515   1.487   8.819   1.618 -2.4154  3.5829  1.7330
  910MOL0     H25516   1.642   8.837   1.695 -1.6556 -0.5172  0.3974
  910MOL0     H25517   1.472   9.069   1.607  0.5660  1.4785  0.5329
  910MOL0     H25518   1.518   9.024   1.772 -0.7834 -0.5495 -0.9447
  910MOL0     H25519   1.757   9.084   1.704 -0.4004 -0.8901  1.3972
  910MOL0     H25520   1.687   9.137   1.548  2.7747 -0.1719  1.4875
  910MOL0     H25521   1.590   9.231   1.831 -3.9771  2.3850 -0.4568
  910MOL0     H25522   1.530   9.288   1.675  0.9140  0.5666 -1.2335
  910MOL0     H25523   1.663   9.454   1.804  0.3916 -0.4066  2.7161
  910MOL0     H25524   1.797   9.326   1.825 -1.8787 -0.4670  0.6262
  910MOL0     H25525   1.704   9.464   1.577 -0.3556 -1.9929 -0.5211
  910MOL0     H25526   1.846   9.355   1.574 -1.0184 -0.9220 -0.8815
  910MOL0     H25527   1.859   9.609   1.744 -0.4468 -2.5073  2.6606
  910MOL0     H25528   1.971   9.481   1.745 -0.2116  1.1481  0.7097
  910MOL0     H25529   1.881   9.767   1.470  1.0409  0.7137 -2.4217
  910MOL0     H25530   2.168   9.767   1.247 -0.2015  1.9163 -1.5073
  910MOL0     H25531   2.006   9.845   1.267 -0.5780  0.5912 -1.4063
  910MOL0     H25532   2.009   9.747   1.055 -1.5521  2.3219  2.5908
  910MOL0     H25533   2.076   9.596   1.109  2.5889  2.2063 -3.8784
  910MOL0     H25534   1.845   9.583   1.056 -1.6153 -0.5841  0.2944
  910MOL0     H25535   1.866   9.543   1.232  1.8613  1.5126  1.8763
  910MOL0     H25536   1.660   9.683   1.172 -0.4458  1.5098  0.6333
  910MOL0     H25537   1.745   9.756   1.296 -0.6213 -3.6360  0.3105
  910MOL0     H25538   1.950   9.992   1.067  2.7978  0.9603  3.1932
  910MOL0     H25539   2.088  10.252   1.227  0.1502 -2.1784 -0.0709
  910MOL0     H25540   2.002  10.310   1.085 -1.8040 -0.8871 -2.2515
  910MOL0     H25541   2.092  10.149   1.078  1.2573  0.3703 -0.2280
  910MOL0     H25542   1.530  10.498   1.532  0.8186  1.1159 -0.0827
  910MOL0     H25543   1.510  10.586   1.777  0.5259 -1.1552  1.4913
  910MOL0     H25544   1.630  10.790   1.870  3.5439  2.7235  0.9860
  910MOL0     H25545   1.532  10.693   1.989 -1.0364  0.8320 -0.6675
  910MOL0     H25546   1.680  10.743   2.163  0.2864 -0.8959 -0.0590
  910MOL0     H25547   1.782  10.850   2.050 -0.1922  0.1809 -0.2751
  910MOL0     H25548   1.490  10.913   2.124  0.6695 -1.5621  3.1812
  910MOL0     H25549   1.608  11.010   2.031 -3.0575  1.4200 -0.2412
  910MOL0     H25550   1.766  11.015   2.243 -0.5833 -1.0721 -0.7334
  910MOL0     H25551   1.632  10.946   2.332  2.3068 -2.1844 -1.1298
  910MOL0     H25552   1.647  11.214   2.338  2.1936 -2.0664  1.1559
  910MOL0     H25553   1.624  11.199   2.165  1.6602 -2.0337 -0.6480
  910MOL0     H25554   1.390  11.100   2.206  0.1292 -1.2599 -0.6884
  910MOL0     H25555   1.409  11.255   2.267 -0.3201 -1.1388 -0.5955
  910MOL0     H25556   1.485  11.092   2.487 -1.1189 -1.1562  0.8651
  910MOL0     H25557   1.386  10.988   2.403 -0.3847 -0.6855 -0.1447
  910MOL0     H25558   1.258  11.107   2.574 -0.3990  0.6055  0.7455
  910MOL0     H25559   1.196  11.180   2.419  0.4269  0.5981 -0.9193
  910MOL0     H25560   1.921  10.528   1.835  1.3065  1.4825 -1.2467
  910MOL0     H25561   1.961  10.438   1.585  1.5102 -2.9318  3.2929
  910MOL0     H25562   1.612  10.216   1.360  1.0575  0.8926  0.3142
  910MOL0     H25563   1.586   9.969   1.274  0.2197 -0.3282 -2.4066
  910MOL0     H25564   1.740   8.800   1.237 -0.5001  0.1349 -0.1076
  910MOL0     H25565   1.893   8.830   1.065 -0.0418  2.6059 -1.5427
  910MOL0     H25566   2.286   9.168   0.922 -2.0384 -0.6845  0.8331
  910MOL0     H25567   2.445   9.208   0.741 -2.7694  2.6904  1.8940
  910MOL0     H25568   2.528   9.225   0.535 -1.1043 -1.3191  1.2801
  910MOL0     H25569   2.655   9.108   0.589  1.1741  1.0867 -0.6734
  910MOL0     H25570   2.701   9.211   0.352 -0.6489  1.2740  1.7161
  910MOL0     H25571   2.556   9.122   0.289 -0.2108 -1.3006  1.0959
  910MOL0     H25572   2.818   9.004   0.386 -0.5348 -1.1559 -0.1190
  910MOL0     H25573   2.662   8.918   0.386 -1.3654  1.8873  0.8100
  910MOL0     H25574   2.833   9.044   0.157  2.2038 -1.5983  0.9613
  910MOL0     H25575   2.662   8.995   0.123 -0.6525 -3.1286  1.1088
  910MOL0     H25576   2.850   8.615   0.174  0.9907 -0.3615  3.3641
  910MOL0     H25577   2.342   8.839   0.559 -2.1206 -0.1932 -1.3419
  910MOL0     H25578   2.165   8.720   0.639 -1.5862 -0.2671 -0.4131
  910MOL0     H25579   2.127   8.735   0.810  2.8792 -2.2029 -0.9733
  910MOL0     H25580   2.026   8.818   0.680 -1.5866 -2.1029  1.8246
  911MOL0     O25581   6.165   7.625   1.996 -0.2014  0.2526  0.4073
  911MOL0     C25582   6.192   7.605   2.114  0.2772 -0.2626 -0.2749
  911MOL0     O25583   6.242   7.480   2.157 -0.8918  0.3830 -0.2338
  911MOL0     C25584   6.280   7.386   2.068 -1.0135 -0.5305  0.1036
  911MOL0     C25585   6.199   7.352   1.962 -0.4195 -0.2272 -0.1087
  911MOL0     C25586   6.233   7.245   1.876 -0.7729 -0.5773 -0.3545
  911MOL0     C25587   6.360   7.194   1.879 -0.1111  1.0881 -0.4603
  911MOL0     O25588   6.411   7.111   1.783 -0.0170  0.0866 -0.4260
  911MOL0     C25589   6.389   7.132   1.646  0.0045  0.6073  0.3959
  911MOL0     C25590   6.514   7.087   1.561 -0.2739  0.4053 -0.1512
  911MOL0     C25591   6.557   6.946   1.587 -0.0491 -0.2574  0.6892
  911MOL0     C25592   6.696   6.923   1.517  0.4447  0.0392 -0.2519
  911MOL0     C25593   6.746   6.778   1.504  0.2515 -0.9129 -0.6449
  911MOL0     C25594   6.859   6.759   1.402  0.1501 -0.3389  0.4415
  911MOL0     C25595   6.994   6.820   1.438  0.2548 -0.1906  0.6002
  911MOL0     C25596   7.100   6.782   1.338 -0.0347 -0.4004  0.7646
  911MOL0     N25597   7.230   6.845   1.360  0.2157 -0.5271 -0.7640
  911MOL0     C25598   7.325   6.788   1.452  0.6392 -0.4874  0.2513
  911MOL0     C25599   7.416   6.885   1.442 -0.5627 -0.2038  0.0355
  911MOL0     C25600   7.557   6.872   1.497 -0.7378  1.0007  0.5419
  911MOL0     C25601   7.658   6.988   1.485  0.7857 -0.5868 -0.8338
  911MOL0     C25602   7.792   6.941   1.542  0.5355  0.2857 -0.5467
  911MOL0     C25603   7.889   7.052   1.525 -0.7125 -0.3894 -0.1336
  911MOL0     O25604   7.940   7.068   1.395  0.6102 -0.3323  0.1557
  911MOL0     C25605   7.946   7.199   1.361 -0.5797 -0.7621  0.8989
  911MOL0     C25606   7.988   7.305   1.444 -0.1815 -0.4108  0.2541
  911MOL0     C25607   8.020   7.437   1.397 -0.7303 -0.0755 -0.2781
  911MOL0     C25608   8.052   7.549   1.494  0.4291 -0.5575 -0.4631
  911MOL0     C25609   8.001   7.461   1.258 -0.1484 -1.1825  0.8297
  911MOL0     C25610   8.036   7.590   1.188  0.3231 -0.1247  1.2073
  911MOL0     O25611   7.983   7.589   1.061 -0.3997 -0.2762 -0.4506
  911MOL0     C25612   7.998   7.707   0.993  0.5012 -0.5018  0.4949
  911MOL0     C25613   7.917   7.815   1.046  0.0346  0.5520  1.0033
  911MOL0     C25614   7.943   7.943   0.989 -0.4125  0.5356  0.9985
  911MOL0     C25615   8.017   7.958   0.870 -0.5774 -0.6456  0.0517
  911MOL0     O25616   8.018   8.076   0.803  0.6651  0.8499 -0.1437
  911MOL0     C25617   8.157   8.116   0.800 -0.5261 -0.8955 -0.3305
  911MOL0     C25618   8.170   8.268   0.801  0.2758 -0.1947  0.0594
  911MOL0     C25619   8.096   8.331   0.675 -0.8122  0.4426 -0.3046
  911MOL0     C25620   8.091   8.482   0.696 -0.1462  0.2765 -0.0221
  911MOL0     C25621   7.996   8.550   0.588 -0.3347  0.2559 -1.0166
  911MOL0     C25622   8.008   8.496   0.450  0.0410 -0.3519 -0.2235
  911MOL0     C25623   7.931   8.591   0.353  1.0801  0.2330  0.7460
  911MOL0     C25624   7.771   8.591   0.376 -0.9172  0.0604 -0.1549
  911MOL0    Cl25625   7.697   8.453   0.284  0.1319 -0.4343 -0.2833
  911MOL0     C25626   8.060   7.846   0.807 -0.7785 -0.6236  0.2825
  911MOL0     C25627   8.060   7.726   0.871 -0.9266  0.7915  0.5405
  911MOL0     O25628   8.115   7.670   1.234  0.5205  0.6019  0.1715
  911MOL0     C25629   7.937   7.363   1.184  0.2997 -0.3063  0.6101
  911MOL0     C25630   7.927   7.236   1.229 -0.1065  0.5038 -1.1834
  911MOL0     N25631   7.387   6.979   1.349 -0.3248  0.0179  0.3905
  911MOL0     N25632   7.273   6.963   1.298  0.4788  0.5813  0.1198
  911MOL0     C25633   6.442   7.228   1.983 -0.1548 -0.4116 -1.1010
  911MOL0     C25634   6.403   7.324   2.077  0.1686  0.8461 -0.4050
  911MOL0     C25635   6.155   7.706   2.216  0.4483 -0.1557 -1.0451
  911MOL0     C25636   6.164   7.844   2.191  0.8827 -0.9496 -0.4729
  911MOL0     C25637   6.135   7.938   2.285  1.1884  0.3081  0.2390
  911MOL0     C25638   6.102   7.897   2.419  0.0286 -0.6640  0.0340
  911MOL0     O25639   6.060   7.981   2.516  0.2000  0.3649 -0.4499
  911MOL0     C25640   5.922   8.034   2.495 -0.6020 -0.0888 -0.1314
  911MOL0     C25641   5.880   8.134   2.607 -0.4147  0.0254 -0.2499
  911MOL0     C25642   5.979   8.257   2.592 -0.1557  0.2239 -0.2705
  911MOL0     C25643   5.978   8.340   2.719  0.9304  0.9885 -0.0578
  911MOL0     C25644   6.047   8.286   2.837 -0.0068  0.2475 -0.3742
  911MOL0     C25645   6.104   8.243   2.938  0.1648  0.1590  0.0693
  911MOL0     C25646   6.092   7.760   2.437  0.0541 -0.5952 -1.2121
  911MOL0     C25647   6.120   7.659   2.346 -0.0873 -0.7624 -0.2244
  911MOL0     C25648   6.101   7.506   2.388  1.0914 -0.0232 -0.5783
  911MOL0     H25649   6.098   7.391   1.948  0.3397  2.2838  0.7387
  911MOL0     H25650   6.169   7.211   1.796 -2.2871 -2.2183  1.4487
  911MOL0     H25651   6.390   7.240   1.630  1.0854  0.6327  0.5768
  911MOL0     H25652   6.307   7.074   1.602  2.3967 -2.9978  0.2496
  911MOL0     H25653   6.501   7.113   1.455 -1.0440 -1.9425 -0.6886
  911MOL0     H25654   6.599   7.148   1.593  1.0334 -1.1995 -0.4153
  911MOL0     H25655   6.559   6.926   1.695 -1.9177  0.8195  0.9707
  911MOL0     H25656   6.489   6.867   1.554  2.0005 -1.6849 -0.3163
  911MOL0     H25657   6.675   6.946   1.412  0.2429  0.7793 -0.0536
  911MOL0     H25658   6.767   6.988   1.568  0.1392  1.0247 -1.0517
  911MOL0     H25659   6.667   6.722   1.454  2.2982 -3.7403 -0.9367
  911MOL0     H25660   6.759   6.724   1.598  0.5201 -0.5566 -0.4743
  911MOL0     H25661   6.885   6.654   1.387 -1.5291 -0.5090 -1.5922
  911MOL0     H25662   6.815   6.793   1.308 -1.6135 -0.1063  1.3094
  911MOL0     H25663   7.017   6.801   1.543 -3.8055  1.8415  2.0337
  911MOL0     H25664   6.983   6.929   1.433  2.5031  0.0867  0.5360
  911MOL0     H25665   7.127   6.676   1.331 -1.0787 -0.7971  2.2320
  911MOL0     H25666   7.057   6.797   1.239  0.1527 -1.9569  0.4205
  911MOL0     H25667   7.320   6.698   1.512 -0.6428 -0.6417 -0.0516
  911MOL0     H25668   7.605   6.789   1.443 -0.8221  0.0045  1.9215
  911MOL0     H25669   7.556   6.836   1.600 -2.1710  1.2930  0.6534
  911MOL0     H25670   7.667   7.014   1.379 -1.6042 -1.0629 -1.2243
  911MOL0     H25671   7.614   7.069   1.544 -0.3458 -1.6511 -0.1804
  911MOL0     H25672   7.778   6.908   1.645  0.8629  0.0029 -0.5895
  911MOL0     H25673   7.836   6.853   1.495  1.0956 -1.0627  2.2843
  911MOL0     H25674   7.837   7.140   1.563 -1.9403 -2.0016  2.2298
  911MOL0     H25675   7.968   7.047   1.600 -4.3770  2.0072  4.4019
  911MOL0     H25676   8.001   7.280   1.549 -3.2096  1.4069  1.1499
  911MOL0     H25677   7.969   7.619   1.505 -1.0863 -2.0079 -2.1680
  911MOL0     H25678   8.137   7.607   1.456  0.6810 -0.7458 -0.1926
  911MOL0     H25679   8.080   7.507   1.591  0.4086  0.8283  0.1709
  911MOL0     H25680   7.865   7.791   1.138 -1.2853 -0.7729 -0.0302
  911MOL0     H25681   7.886   8.030   1.021 -1.5795 -0.4581  1.7153
  911MOL0     H25682   8.220   8.095   0.887 -1.6535  1.6373  1.2082
  911MOL0     H25683   8.205   8.081   0.708 -0.1480 -3.4156  0.7524
  911MOL0     H25684   8.113   8.300   0.889 -1.0991  2.4354 -1.6371
  911MOL0     H25685   8.272   8.306   0.816 -0.0429  0.6835  0.0649
  911MOL0     H25686   7.992   8.298   0.668 -0.8733  0.8474 -1.4917
  911MOL0     H25687   8.152   8.298   0.588  0.0660  1.2427 -0.0509
  911MOL0     H25688   8.192   8.523   0.690 -0.1857  0.6076  1.2734
  911MOL0     H25689   8.064   8.517   0.795  0.8443  3.8176 -0.8669
  911MOL0     H25690   7.893   8.532   0.620 -0.8626 -0.0084 -2.7738
  911MOL0     H25691   8.005   8.658   0.579 -4.8089  0.7120 -2.2213
  911MOL0     H25692   7.961   8.398   0.452 -4.0576  1.4267  2.3068
  911MOL0     H25693   8.116   8.499   0.432  0.2525  0.3711  1.0718
  911MOL0     H25694   7.959   8.583   0.247 -1.3466 -1.4367  0.1423
  911MOL0     H25695   7.967   8.691   0.379  1.3834  0.9617 -2.1007
  911MOL0     H25696   7.736   8.688   0.339  1.8733  2.0034  1.8767
  911MOL0     H25697   7.742   8.581   0.481  1.8609 -0.3484  0.6454
  911MOL0     H25698   8.112   7.862   0.714  0.1340  0.4163  0.9494
  911MOL0     H25699   8.095   7.636   0.822 -2.4992 -0.1201  1.0094
  911MOL0     H25700   7.917   7.384   1.079  0.1870 -1.0004  0.4876
  911MOL0     H25701   7.898   7.163   1.154 -1.7153  1.9077 -1.9826
  911MOL0     H25702   6.538   7.177   1.984 -0.1407 -0.3838 -0.1907
  911MOL0     H25703   6.471   7.315   2.162  0.9660 -1.3654 -1.1905
  911MOL0     H25704   6.192   7.872   2.090  1.8693  0.1465  0.0737
  911MOL0     H25705   6.131   8.046   2.277 -3.9837  0.4724  1.5452
  911MOL0     H25706   5.913   8.086   2.400  3.3013  2.8435  0.8655
  911MOL0     H25707   5.861   7.943   2.504  0.6580 -0.8424  1.3721
  911MOL0     H25708   5.892   8.083   2.704  2.2316  1.3940  0.2575
  911MOL0     H25709   5.778   8.169   2.595 -1.3765 -1.7592  1.9995
  911MOL0     H25710   6.078   8.222   2.564 -0.8232 -0.1635 -2.2777
  911MOL0     H25711   5.943   8.320   2.510 -3.0373 -1.3405 -0.3437
  911MOL0     H25712   5.873   8.362   2.738  0.8630  0.7555 -0.1512
  911MOL0     H25713   6.014   8.441   2.699 -0.1986  2.2692  3.6609
  911MOL0     H25714   6.159   8.213   3.025  0.9317 -1.7980 -1.0345
  911MOL0     H25715   6.068   7.732   2.539 -3.1673  1.1849 -1.3462
  911MOL0     H25716   6.049   7.451   2.309 -3.0813  3.5238 -0.6691
  911MOL0     H25717   6.198   7.458   2.405  0.6815 -0.5913  0.2132
  911MOL0     H25718   6.043   7.496   2.480 -0.8349 -3.7600 -1.9915
  912MOL0     O25719   5.530   2.115   3.191 -0.4617  0.6070 -0.3537
  912MOL0     C25720   5.640   2.180   3.205 -0.1490  0.5408 -0.4748
  912MOL0     O25721   5.654   2.298   3.271 -0.3844  0.3860 -0.1024
  912MOL0     C25722   5.566   2.375   3.342 -1.2881  0.1536 -0.0719
  912MOL0     C25723   5.427   2.343   3.366 -0.1888 -0.3384  0.4646
  912MOL0     C25724   5.342   2.432   3.438 -0.4573  0.6644  0.5915
  912MOL0     C25725   5.388   2.554   3.486  0.6785 -0.4799 -0.8236
  912MOL0     O25726   5.329   2.644   3.565  0.3182 -0.1082 -0.1208
  912MOL0     C25727   5.188   2.617   3.580 -0.2888  0.6869  1.1459
  912MOL0     C25728   5.140   2.740   3.663 -0.5331  0.5348  0.1188
  912MOL0     C25729   5.010   2.716   3.731  0.4317 -0.5892 -0.4342
  912MOL0     C25730   4.956   2.831   3.817 -0.1135  0.1830  0.0664
  912MOL0     C25731   4.844   2.786   3.915 -0.1381 -0.1972  0.3412
  912MOL0     C25732   4.750   2.910   3.949  0.3582 -0.7909  0.0080
  912MOL0     C25733   4.615   2.872   3.987  1.4793  0.1797 -0.0294
  912MOL0     C25734   4.522   2.983   4.023  0.1805  0.8137 -0.7850
  912MOL0     N25735   4.566   3.057   4.138 -0.0516  0.4604 -0.7389
  912MOL0     C25736   4.562   3.017   4.270 -0.0670 -0.2230  0.5275
  912MOL0     C25737   4.642   3.109   4.330  0.0345 -0.5387  0.0524
  912MOL0     C25738   4.683   3.107   4.476  0.0822  0.4498 -0.7171
  912MOL0     C25739   4.631   3.220   4.565 -0.2918  1.1561  0.1888
  912MOL0     C25740   4.716   3.223   4.696 -0.2476  1.6039 -0.3436
  912MOL0     C25741   4.659   3.299   4.815 -0.2957  0.1001  0.0987
  912MOL0     O25742   4.537   3.252   4.862 -0.0212  0.6147 -0.7956
  912MOL0     C25743   4.511   3.274   4.993 -0.4954 -0.1421  0.3816
  912MOL0     C25744   4.449   3.168   5.067 -0.6606 -0.1178 -0.2339
  912MOL0     C25745   4.389   3.191   5.199 -0.2828  0.0097  0.0294
  912MOL0     C25746   4.325   3.069   5.274  0.0715  0.7896 -1.1772
  912MOL0     C25747   4.394   3.319   5.259 -0.5723 -0.7448  0.4026
  912MOL0     C25748   4.337   3.358   5.395 -1.0116  0.2655 -0.5382
  912MOL0     O25749   4.408   3.444   5.465  0.2365 -0.9606  0.5269
  912MOL0     C25750   4.385   3.490   5.593 -0.0922  0.1736  0.4201
  912MOL0     C25751   4.351   3.407   5.700 -0.8287  0.6177 -0.9077
  912MOL0     C25752   4.349   3.446   5.838 -0.6769  0.2270 -0.4571
  912MOL0     C25753   4.404   3.570   5.868  1.2275  0.0676  0.2693
  912MOL0     O25754   4.426   3.591   6.000  0.6665 -0.3028 -0.5849
  912MOL0     C25755   4.558   3.632   6.033  0.1745 -0.0757  0.2804
  912MOL0     C25756   4.659   3.510   6.012 -0.3620  0.4614  0.0181
  912MOL0     C25757   4.634   3.421   6.128 -0.3692  0.5099  0.3534
  912MOL0     C25758   4.677   3.279   6.107  0.1228  0.6152  0.5971
  912MOL0     C25759   4.661   3.194   6.233 -0.6554 -0.8269 -0.1844
  912MOL0     C25760   4.675   3.035   6.212  0.0979  0.3150 -0.8525
  912MOL0     C25761   4.614   2.950   6.331 -0.2170  0.1370  0.9739
  912MOL0     C25762   4.571   2.807   6.305 -0.4301  0.3262  0.1513
  912MOL0    Cl25763   4.434   2.791   6.203  0.1206  0.3338  0.2907
  912MOL0     C25764   4.425   3.656   5.764  0.7114 -0.1365 -0.4461
  912MOL0     C25765   4.432   3.609   5.629  0.7863 -0.2321 -0.2766
  912MOL0     O25766   4.239   3.292   5.439 -0.6942  0.3459  0.3297
  912MOL0     C25767   4.468   3.421   5.190 -0.4737  0.3987  0.0475
  912MOL0     C25768   4.519   3.401   5.058 -0.3473  0.6845 -0.9587
  912MOL0     N25769   4.688   3.204   4.242  0.7806 -0.4261 -0.7436
  912MOL0     N25770   4.640   3.170   4.124 -0.1234  0.0322 -0.2263
  912MOL0     C25771   5.525   2.587   3.456 -0.8621 -0.4431  0.4743
  912MOL0     C25772   5.614   2.493   3.394 -0.1456 -0.4648 -0.3811
  912MOL0     C25773   5.758   2.120   3.148 -0.4622  0.3534 -1.1052
  912MOL0     C25774   5.780   1.982   3.170  0.0245  0.2420 -0.1216
  912MOL0     C25775   5.901   1.927   3.117  0.4910 -0.0637  0.2085
  912MOL0     C25776   6.006   2.008   3.062 -0.7974  0.9518 -0.1806
  912MOL0     O25777   6.132   1.950   3.048 -0.4238 -0.1403  0.4063
  912MOL0     C25778   6.243   2.039   3.044  0.0991 -0.5272 -1.2127
  912MOL0     C25779   6.364   1.971   3.073 -0.3224  0.2594 -0.0210
  912MOL0     C25780   6.377   1.840   2.995  0.5230  0.1876 -0.4151
  912MOL0     C25781   6.523   1.794   2.961 -0.1332 -0.3618  0.0320
  912MOL0     C25782   6.575   1.727   3.079  0.0269  0.0379 -0.1828
  912MOL0     C25783   6.601   1.664   3.181 -1.0472  0.3710  0.1934
  912MOL0     C25784   5.974   2.139   3.024  0.6640 -0.3098  0.3120
  912MOL0     C25785   5.849   2.187   3.065 -0.0025 -0.8228 -0.7655
  912MOL0     C25786   5.821   2.332   3.016  0.1053 -0.2028 -1.1634
  912MOL0     H25787   5.383   2.250   3.332  1.7557 -1.3379  0.5801
  912MOL0     H25788   5.239   2.396   3.443  0.1710 -1.0567  1.8627
  912MOL0     H25789   5.180   2.517   3.624 -0.6883 -0.4651 -1.3552
  912MOL0     H25790   5.139   2.607   3.483 -1.3504  1.3639  1.6039
  912MOL0     H25791   5.223   2.770   3.728 -0.7709  0.1100  0.6331
  912MOL0     H25792   5.128   2.830   3.603 -1.8610  2.1131  2.5730
  912MOL0     H25793   4.941   2.682   3.654  0.4996  0.2127 -0.8546
  912MOL0     H25794   5.021   2.636   3.806 -0.2182  0.3295  0.6776
  912MOL0     H25795   5.032   2.869   3.886 -0.4251  3.7649 -1.3125
  912MOL0     H25796   4.925   2.916   3.755  2.0979  0.6631 -0.4630
  912MOL0     H25797   4.887   2.738   4.003  1.8679 -0.8045 -0.8903
  912MOL0     H25798   4.784   2.715   3.857 -1.7102  2.3485 -1.3970
  912MOL0     H25799   4.799   2.969   4.027 -0.6603  0.0291  0.0639
  912MOL0     H25800   4.740   2.987   3.871 -2.8247  1.4664  2.3585
  912MOL0     H25801   4.622   2.797   4.067 -1.5326 -0.3437 -0.1592
  912MOL0     H25802   4.572   2.831   3.895 -1.9082 -2.5449  2.4807
  912MOL0     H25803   4.509   3.046   3.935 -1.8801 -1.1618 -1.9945
  912MOL0     H25804   4.433   2.934   4.063  2.0529 -1.3232  1.0906
  912MOL0     H25805   4.508   2.927   4.299 -0.7303 -0.6211 -1.7939
  912MOL0     H25806   4.791   3.124   4.485 -0.1781  2.5226 -0.9249
  912MOL0     H25807   4.649   3.015   4.523 -0.5536  1.6552  1.2844
  912MOL0     H25808   4.633   3.322   4.525 -0.8863  0.8472 -0.6744
  912MOL0     H25809   4.528   3.207   4.600  0.5801 -2.1247  1.8800
  912MOL0     H25810   4.736   3.117   4.719 -1.3348  1.2429 -1.0215
  912MOL0     H25811   4.815   3.267   4.681  2.1972 -2.1504  2.6542
  912MOL0     H25812   4.728   3.286   4.898 -2.7527 -0.3058  2.1784
  912MOL0     H25813   4.657   3.405   4.787 -0.3347  0.0737  0.0020
  912MOL0     H25814   4.448   3.072   5.016 -0.3040  0.7520 -1.9448
  912MOL0     H25815   4.218   3.091   5.278  0.1981  1.4650 -1.3792
  912MOL0     H25816   4.361   3.071   5.378 -2.0630  1.9757 -0.4033
  912MOL0     H25817   4.348   2.973   5.227 -3.3702 -1.6029  1.5106
  912MOL0     H25818   4.315   3.308   5.677  1.0356 -0.1756 -0.5998
  912MOL0     H25819   4.317   3.369   5.908  2.9941 -2.8286 -1.7948
  912MOL0     H25820   4.601   3.721   5.985  0.4241  1.1138  2.5477
  912MOL0     H25821   4.552   3.673   6.134 -2.5948  2.2691 -0.6672
  912MOL0     H25822   4.641   3.470   5.912 -0.4193  3.1919 -1.1671
  912MOL0     H25823   4.761   3.548   6.022 -0.7331  1.2640  0.9030
  912MOL0     H25824   4.533   3.433   6.169 -0.2383  1.8127  0.3508
  912MOL0     H25825   4.687   3.464   6.214 -3.0375  1.7059  1.5354
  912MOL0     H25826   4.777   3.271   6.062 -0.4198 -5.9319 -0.4950
  912MOL0     H25827   4.609   3.234   6.034 -1.7674  1.1800  1.9508
  912MOL0     H25828   4.745   3.228   6.294  0.6692 -0.7351 -1.9880
  912MOL0     H25829   4.563   3.214   6.278 -0.2533 -1.1547  0.8690
  912MOL0     H25830   4.782   3.016   6.202 -0.0935 -1.5648  0.0711
  912MOL0     H25831   4.615   3.021   6.122  0.1256 -0.4110 -0.7674
  912MOL0     H25832   4.535   3.008   6.380 -0.5572  2.0044 -1.5375
  912MOL0     H25833   4.700   2.936   6.397 -0.3550 -3.1574  0.5861
  912MOL0     H25834   4.562   2.755   6.401 -0.5555  0.8712  0.4420
  912MOL0     H25835   4.658   2.762   6.255 -2.0452 -1.2781 -1.3521
  912MOL0     H25836   4.465   3.755   5.782 -1.4947  1.3424 -2.9706
  912MOL0     H25837   4.463   3.674   5.547  1.8768 -0.4480 -0.0497
  912MOL0     H25838   4.472   3.524   5.226  2.5413  0.5861 -0.5531
  912MOL0     H25839   4.558   3.487   5.004 -1.3267  2.5201  1.0851
  912MOL0     H25840   5.573   2.680   3.486 -1.3131  0.1877 -0.6977
  912MOL0     H25841   5.719   2.518   3.380 -0.3144 -0.5946 -2.1048
  912MOL0     H25842   5.696   1.932   3.215 -2.3159  2.6557 -1.5114
  912MOL0     H25843   5.914   1.819   3.122 -0.6460 -0.2958 -1.1614
  912MOL0     H25844   6.249   2.079   2.942  2.2289 -2.7162 -2.0426
  912MOL0     H25845   6.233   2.124   3.112  0.4072 -0.1590 -1.6186
  912MOL0     H25846   6.375   1.962   3.182 -0.0780  0.2502 -0.0465
  912MOL0     H25847   6.447   2.040   3.058  1.5004 -1.6536  0.8713
  912MOL0     H25848   6.334   1.763   3.060  0.5662  1.4708  1.1918
  912MOL0     H25849   6.326   1.856   2.899 -1.0432 -1.7760  0.0194
  912MOL0     H25850   6.577   1.878   2.917  0.6438 -0.3996  0.8782
  912MOL0     H25851   6.507   1.713   2.890  2.3602 -0.8971  0.0029
  912MOL0     H25852   6.640   1.613   3.267 -2.9855 -2.8829 -0.6964
  912MOL0     H25853   6.032   2.199   2.954 -3.6085  1.1889 -2.2932
  912MOL0     H25854   5.903   2.363   2.951 -0.5537  3.5445 -0.4301
  912MOL0     H25855   5.732   2.339   2.953 -0.7393  0.6332  0.0599
  912MOL0     H25856   5.813   2.403   3.099  1.2840 -1.4651  0.0726
  913MOL0     O25857  10.947   6.749  10.458  0.3566  0.1610  0.0839
  913MOL0     C25858  11.065   6.768  10.459 -0.3423  0.0033  0.4237
  913MOL0     O25859  11.156   6.679  10.392 -0.4081 -0.4921 -0.1155
  913MOL0     C25860  11.101   6.577  10.318 -0.5512 -0.8424  0.1460
  913MOL0     C25861  11.015   6.483  10.375 -0.3559 -0.5032 -1.2432
  913MOL0     C25862  10.974   6.379  10.296 -0.0754  0.0377 -0.1710
  913MOL0     C25863  11.016   6.358  10.166 -0.2495 -0.1260 -0.7482
  913MOL0     O25864  10.955   6.247  10.101  0.1210 -0.1274  0.1934
  913MOL0     C25865  11.037   6.183  10.004 -0.7562 -0.3140  0.5389
  913MOL0     C25866  10.961   6.085   9.926 -0.4229 -0.1643 -0.4671
  913MOL0     C25867  10.918   5.955  10.006  0.3640 -0.8308  0.5539
  913MOL0     C25868  10.806   5.885   9.929 -0.4269  0.2210  0.2933
  913MOL0     C25869  10.756   5.773  10.011 -0.7948  0.2203  1.0828
  913MOL0     C25870  10.657   5.809  10.130  0.1750 -0.2614 -0.6781
  913MOL0     C25871  10.610   5.686  10.207  0.4549  0.4444 -0.2348
  913MOL0     C25872  10.712   5.603  10.284 -0.5301  0.1955  0.2785
  913MOL0     N25873  10.653   5.483  10.352 -0.4187  0.0744  0.3679
  913MOL0     C25874  10.587   5.491  10.475  0.3586 -0.0713 -0.2876
  913MOL0     C25875  10.593   5.359  10.515  0.0196  0.0317 -0.1810
  913MOL0     C25876  10.529   5.299  10.644  0.4002  0.2333 -0.2880
  913MOL0     C25877  10.599   5.360  10.774  0.3087  0.3554  0.0025
  913MOL0     C25878  10.527   5.308  10.908  0.4015  0.2383 -0.2573
  913MOL0     C25879  10.376   5.337  10.928  0.7315  0.3867  0.3639
  913MOL0     O25880  10.341   5.301  11.063  0.1569  0.2367 -0.2484
  913MOL0     C25881  10.219   5.228  11.083 -0.3692 -0.3488 -0.5861
  913MOL0     C25882  10.116   5.218  10.995  0.7689  0.3817 -0.0383
  913MOL0     C25883   9.992   5.167  11.038 -0.1034  0.0001  0.6368
  913MOL0     C25884   9.879   5.160  10.944 -0.3876 -0.1703 -0.7875
  913MOL0     C25885   9.987   5.115  11.172 -0.4719 -0.1366 -0.0060
  913MOL0     C25886   9.860   5.056  11.234  0.3650  0.7082 -0.3949
  913MOL0     O25887   9.867   4.972  11.342  0.4336  0.0951  0.6243
  913MOL0     C25888   9.786   4.853  11.351 -0.2516 -0.3772  0.2524
  913MOL0     C25889   9.710   4.795  11.249  1.3129  0.1016 -0.5934
  913MOL0     C25890   9.649   4.666  11.262 -0.0231 -0.2026  0.8446
  913MOL0     C25891   9.658   4.597  11.381 -0.6277 -0.6695 -0.2247
  913MOL0     O25892   9.593   4.486  11.403 -0.0523  0.1244 -0.1693
  913MOL0     C25893   9.589   4.429  11.534 -0.1982  0.4209  0.1331
  913MOL0     C25894   9.474   4.492  11.598  0.2883  0.1670 -0.1615
  913MOL0     C25895   9.454   4.483  11.745 -0.0912 -0.5132 -0.5269
  913MOL0     C25896   9.413   4.342  11.800 -0.5978 -0.5195  0.6121
  913MOL0     C25897   9.420   4.340  11.948 -0.0751  0.0525 -0.6389
  913MOL0     C25898   9.379   4.196  11.996 -0.4945 -0.3413 -0.1873
  913MOL0     C25899   9.434   4.179  12.137 -0.1895  0.5297 -0.0728
  913MOL0     C25900   9.404   4.060  12.229  0.1944 -0.2955 -0.5666
  913MOL0    Cl25901   9.240   4.088  12.283 -0.2266 -0.2938 -0.3720
  913MOL0     C25902   9.723   4.670  11.487  0.8818  0.3599 -0.1382
  913MOL0     C25903   9.788   4.794  11.474  0.5059 -1.1509  0.6238
  913MOL0     O25904   9.754   5.083  11.184 -0.3707  0.6583 -0.0163
  913MOL0     C25905  10.092   5.135  11.262 -0.8203 -0.3382 -0.5290
  913MOL0     C25906  10.205   5.180  11.211 -0.5109  0.5534 -0.2001
  913MOL0     N25907  10.644   5.283  10.419  0.4984 -0.2817  0.4252
  913MOL0     N25908  10.684   5.354  10.321  0.0540  0.0671  0.0496
  913MOL0     C25909  11.103   6.450  10.105  1.0527  0.3955 -0.5835
  913MOL0     C25910  11.151   6.552  10.190  0.0999  0.6849 -0.3024
  913MOL0     C25911  11.129   6.865  10.551  0.2436  0.2569 -0.4220
  913MOL0     C25912  11.260   6.853  10.580 -0.4839  0.5865  0.1370
  913MOL0     C25913  11.336   6.919  10.679  0.2452  0.1038  0.2698
  913MOL0     C25914  11.258   7.015  10.762 -0.6039 -0.0455  0.3466
  913MOL0     O25915  11.314   7.101  10.854  0.0544  0.3071  0.4478
  913MOL0     C25916  11.445   7.066  10.903  0.0081  0.0939 -1.5044
  913MOL0     C25917  11.472   7.173  11.013 -0.4298 -0.6762  0.0677
  913MOL0     C25918  11.506   7.311  10.941  0.3829 -0.7201 -0.4206
  913MOL0     C25919  11.546   7.423  11.044  0.7554 -0.1902 -0.8685
  913MOL0     C25920  11.587   7.547  10.982 -0.6175  0.4672  0.2676
  913MOL0     C25921  11.613   7.658  10.947  0.3608  0.4844 -0.7844
  913MOL0     C25922  11.118   7.031  10.740  0.1943 -0.2466  0.4227
  913MOL0     C25923  11.052   6.954  10.631  0.0729  0.1244  0.1171
  913MOL0     C25924  10.915   7.001  10.606 -0.6465 -0.4989  0.0685
  913MOL0     H25925  10.990   6.493  10.480 -0.2834 -0.7116 -1.2052
  913MOL0     H25926  10.905   6.314  10.349  1.9365  0.0608  2.7140
  913MOL0     H25927  11.120   6.137  10.058 -1.5626  0.5304  2.6257
  913MOL0     H25928  11.081   6.250   9.930 -0.1627 -1.5211 -0.2380
  913MOL0     H25929  10.879   6.141   9.879  0.0076  1.1366  0.2717
  913MOL0     H25930  11.015   6.056   9.837  1.0956  2.6230 -0.5768
  913MOL0     H25931  11.000   5.884  10.023 -0.5402 -2.4620 -1.4437
  913MOL0     H25932  10.879   5.982  10.104  0.3507 -2.1340  0.9209
  913MOL0     H25933  10.733   5.961   9.898  1.4927  1.9128 -0.3685
  913MOL0     H25934  10.856   5.839   9.843  0.8286  2.4457 -0.2627
  913MOL0     H25935  10.846   5.729  10.055 -0.0161  1.3187  0.6297
  913MOL0     H25936  10.717   5.695   9.945 -0.3688  1.6801 -0.9954
  913MOL0     H25937  10.712   5.879  10.192  0.3087  2.1884 -3.3832
  913MOL0     H25938  10.574   5.874  10.100 -0.4034 -0.3021  0.7199
  913MOL0     H25939  10.539   5.624  10.151  0.9832 -0.1152 -0.2917
  913MOL0     H25940  10.551   5.734  10.286  1.8431  1.7493  0.0427
  913MOL0     H25941  10.795   5.566  10.223  0.6021  0.8472  1.3760
  913MOL0     H25942  10.762   5.662  10.361  1.5641 -0.8612 -0.1709
  913MOL0     H25943  10.557   5.583  10.524  1.6985  2.2731 -3.5177
  913MOL0     H25944  10.553   5.193  10.632 -0.5357  0.2577 -3.1763
  913MOL0     H25945  10.420   5.309  10.644  0.4776  1.2362 -0.9520
  913MOL0     H25946  10.706   5.340  10.772  0.3537  0.5990 -1.7080
  913MOL0     H25947  10.596   5.469  10.771  1.1929  0.3716 -0.4459
  913MOL0     H25948  10.542   5.200  10.920  2.3165  0.7084  2.3659
  913MOL0     H25949  10.573   5.354  10.996 -1.8163  1.5190  0.3250
  913MOL0     H25950  10.354   5.441  10.903  1.0855  0.3799  0.0050
  913MOL0     H25951  10.326   5.273  10.855 -2.3893 -0.3483  2.9254
  913MOL0     H25952  10.113   5.252  10.892 -0.5320 -0.5734 -0.3427
  913MOL0     H25953   9.856   5.056  10.920  2.5479 -1.5501  1.5752
  913MOL0     H25954   9.894   5.216  10.852  0.7935  1.2969  0.2367
  913MOL0     H25955   9.785   5.203  10.981  0.0606  1.4307 -1.4369
  913MOL0     H25956   9.684   4.839  11.153 -4.3711 -0.3156  0.4256
  913MOL0     H25957   9.591   4.616  11.185  0.1249  3.0045 -1.5401
  913MOL0     H25958   9.554   4.326  11.521  2.2998 -0.8714  2.4539
  913MOL0     H25959   9.685   4.404  11.581  0.8490 -0.8937 -2.4645
  913MOL0     H25960   9.492   4.598  11.581 -1.3348  0.3856 -0.7687
  913MOL0     H25961   9.381   4.471  11.544  0.6679  0.9390 -1.1601
  913MOL0     H25962   9.375   4.549  11.782 -0.2814 -2.6756  3.3938
  913MOL0     H25963   9.545   4.512  11.799  0.6875 -2.4006 -0.7704
  913MOL0     H25964   9.462   4.261  11.746  0.2128  1.0397 -1.1115
  913MOL0     H25965   9.308   4.330  11.773 -0.7277  2.6507 -0.7914
  913MOL0     H25966   9.524   4.359  11.977 -0.8484  2.4897  0.8753
  913MOL0     H25967   9.353   4.415  11.993  0.3023 -0.3039  0.5708
  913MOL0     H25968   9.408   4.114  11.930 -2.0084 -1.4337  0.4315
  913MOL0     H25969   9.270   4.184  11.999 -0.3186 -2.1582 -0.0093
  913MOL0     H25970   9.419   4.271  12.193 -0.1807  0.4041  0.1346
  913MOL0     H25971   9.541   4.167  12.120 -0.5091 -0.5463 -1.5702
  913MOL0     H25972   9.478   4.064  12.309  1.4753 -0.5594 -1.7096
  913MOL0     H25973   9.409   3.966  12.175  1.7825 -1.0268  0.7793
  913MOL0     H25974   9.738   4.628  11.586  2.3446  0.8901 -0.1057
  913MOL0     H25975   9.852   4.842  11.547 -0.0536  1.5480 -0.5117
  913MOL0     H25976  10.095   5.125  11.370  0.3035  2.0711 -0.2765
  913MOL0     H25977  10.288   5.188  11.280 -1.8437  4.1167  1.2484
  913MOL0     H25978  11.153   6.441  10.009  1.9624 -0.1387 -0.0723
  913MOL0     H25979  11.220   6.628  10.154  1.0969  0.3470  0.8223
  913MOL0     H25980  11.328   6.795  10.519 -1.0465 -0.7742  0.7667
  913MOL0     H25981  11.444   6.909  10.688  0.8442  3.4226 -1.5706
  913MOL0     H25982  11.427   6.970  10.952 -0.3753  0.9449  0.0848
  913MOL0     H25983  11.524   7.062  10.827  2.3804 -2.8149  0.8748
  913MOL0     H25984  11.560   7.147  11.072 -2.2022 -0.2824  3.1104
  913MOL0     H25985  11.391   7.179  11.087 -0.2764 -0.1346  0.2009
  913MOL0     H25986  11.590   7.297  10.873 -0.4702 -1.8847 -1.2826
  913MOL0     H25987  11.418   7.341  10.883 -1.5823 -2.3663  1.4978
  913MOL0     H25988  11.636   7.393  11.098 -0.4937 -0.8561  0.9320
  913MOL0     H25989  11.464   7.448  11.112 -0.0064 -2.8091 -0.7145
  913MOL0     H25990  11.646   7.760  10.942 -0.9806  1.0449  0.7690
  913MOL0     H25991  11.047   7.099  10.786 -3.7730 -0.3811 -4.5897
  913MOL0     H25992  10.901   7.033  10.503 -0.8822  3.5260  1.1736
  913MOL0     H25993  10.843   6.921  10.624 -0.1983 -1.3684 -1.7892
  913MOL0     H25994  10.896   7.086  10.673  3.9538  1.2944 -0.4891
  914MOL0     O25995   5.112   9.893   0.624 -0.0376 -0.1815 -0.1601
  914MOL0     C25996   5.218   9.935   0.682 -0.4588  0.2046  0.4853
  914MOL0     O25997   5.253   9.900   0.816  0.0440 -0.1911  0.3983
  914MOL0     C25998   5.168   9.810   0.877  0.4235 -0.8249 -0.4362
  914MOL0     C25999   5.227   9.686   0.908 -0.3608  0.4379 -1.1893
  914MOL0     C26000   5.148   9.590   0.967  1.2366 -0.0902 -0.8819
  914MOL0     C26001   5.009   9.606   1.004 -0.0135 -0.8346 -0.1336
  914MOL0     O26002   4.947   9.494   1.056 -0.5889  1.3002  0.2005
  914MOL0     C26003   4.805   9.483   1.048 -0.8816  0.1510  0.4061
  914MOL0     C26004   4.758   9.338   1.062  0.6001  0.4886 -0.9385
  914MOL0     C26005   4.832   9.270   1.180 -0.6692  0.1948  0.2020
  914MOL0     C26006   4.946   9.179   1.135 -0.5995  0.5782  0.3777
  914MOL0     C26007   5.047   9.133   1.245  0.4560 -0.0203 -0.7325
  914MOL0     C26008   5.122   9.251   1.305 -0.1507 -0.1519  0.0640
  914MOL0     C26009   5.231   9.224   1.419  1.1722  1.4385  0.5900
  914MOL0     C26010   5.310   9.346   1.419  0.3631  0.2682  0.4805
  914MOL0     N26011   5.226   9.469   1.428  0.2545 -0.2446  0.0196
  914MOL0     C26012   5.211   9.573   1.327 -0.5969 -0.2673 -0.3962
  914MOL0     C26013   5.109   9.656   1.374 -0.2188  0.7964  0.3166
  914MOL0     C26014   5.056   9.781   1.318 -0.2695  0.4538 -0.7633
  914MOL0     C26015   4.910   9.791   1.317  0.5638  0.0403  0.0064
  914MOL0     C26016   4.866   9.932   1.324 -0.5660 -0.0436 -0.2730
  914MOL0     C26017   4.710   9.929   1.303 -0.7308  0.0932 -0.6054
  914MOL0     O26018   4.667   9.930   1.163 -0.9195 -0.0560 -0.4737
  914MOL0     C26019   4.652  10.052   1.098  0.9580  1.0535  0.0444
  914MOL0     C26020   4.560  10.054   0.990 -0.3693  0.9949 -0.5733
  914MOL0     C26021   4.547  10.171   0.915 -0.4358 -0.9426 -0.5485
  914MOL0     C26022   4.432  10.171   0.807 -0.6445 -0.4023  0.2925
  914MOL0     C26023   4.621  10.290   0.947  0.0779  1.2078  0.6051
  914MOL0     C26024   4.594  10.422   0.886 -0.7780 -0.4761  0.0031
  914MOL0     O26025   4.509  10.442   0.777  0.4784  0.2187  0.3415
  914MOL0     C26026   4.406  10.540   0.791  0.0485  0.4044 -0.3918
  914MOL0     C26027   4.339  10.592   0.682 -0.0983  0.4736 -0.0974
  914MOL0     C26028   4.234  10.676   0.699  0.0843  0.0635 -0.4273
  914MOL0     C26029   4.190  10.722   0.819 -0.4130  0.5303 -0.0776
  914MOL0     O26030   4.093  10.808   0.821 -0.4580 -0.1100 -0.5532
  914MOL0     C26031   4.014  10.836   0.943 -0.0610  0.7920  0.3459
  914MOL0     C26032   3.910  10.953   0.909 -0.0781 -0.4199 -0.3516
  914MOL0     C26033   3.820  10.982   1.029 -0.5373  0.6347 -0.5808
  914MOL0     C26034   3.880  11.074   1.138 -0.3106  0.6402  0.5996
  914MOL0     C26035   3.941  11.202   1.073  0.1572 -0.2725 -0.2909
  914MOL0     C26036   3.837  11.289   0.990  0.4449 -0.0851  0.2661
  914MOL0     C26037   3.854  11.441   0.993 -0.6603 -0.8549  0.5260
  914MOL0     C26038   3.810  11.506   1.129  0.1323 -0.6047  0.3463
  914MOL0    Cl26039   3.819  11.686   1.093 -0.0149  0.2345 -0.1883
  914MOL0     C26040   4.249  10.672   0.940  0.0227 -0.5470 -0.2281
  914MOL0     C26041   4.358  10.580   0.919 -0.6698  0.2731 -0.2535
  914MOL0     O26042   4.664  10.508   0.928  0.1727 -1.1712  0.2975
  914MOL0     C26043   4.724  10.278   1.050  0.0370  0.3515  0.2233
  914MOL0     C26044   4.739  10.165   1.123 -0.5895 -0.1077  0.4654
  914MOL0     N26045   5.064   9.600   1.498 -0.5651 -0.7924  0.1968
  914MOL0     N26046   5.128   9.490   1.519  0.0611 -1.1045 -0.4772
  914MOL0     C26047   4.954   9.733   0.981 -0.5085  0.4485  0.0579
  914MOL0     C26048   5.034   9.837   0.922 -0.6043  0.9251  1.6348
  914MOL0     C26049   5.313  10.019   0.603 -0.9020 -0.4901  0.2861
  914MOL0     C26050   5.270  10.062   0.475  0.2269  0.0089 -0.1500
  914MOL0     C26051   5.356  10.127   0.386  0.4104 -0.0129 -0.2294
  914MOL0     C26052   5.490  10.160   0.428  1.0657  0.0847  0.6414
  914MOL0     O26053   5.589  10.232   0.350  0.3279 -0.6666  0.2564
  914MOL0     C26054   5.580  10.234   0.213  0.8882 -0.8026 -0.0611
  914MOL0     C26055   5.499  10.353   0.155 -0.8496  0.4552  0.4006
  914MOL0     C26056   5.568  10.494   0.178 -0.3746 -0.4711  1.4649
  914MOL0     C26057   5.686  10.517   0.087  0.4396 -0.3155  0.3034
  914MOL0     C26058   5.625  10.564  -0.034 -0.2829 -0.1942 -0.3305
  914MOL0     C26059   5.575  10.620  -0.128 -0.0741  0.4836 -0.5506
  914MOL0     C26060   5.534  10.128   0.550  0.0969 -0.5309  0.8644
  914MOL0     C26061   5.446  10.060   0.639 -0.0232  0.5046 -0.7046
  914MOL0     C26062   5.496  10.020   0.776 -0.1044  1.1018  0.6165
  914MOL0     H26063   5.332   9.664   0.891 -0.0030  1.6078 -0.5990
  914MOL0     H26064   5.200   9.496   0.982  0.9713  0.1335  1.9945
  914MOL0     H26065   4.770   9.519   0.950  0.3006  1.6108  0.4858
  914MOL0     H26066   4.777   9.554   1.126  1.8776 -0.1195  1.7493
  914MOL0     H26067   4.651   9.333   1.084  1.1023 -1.2014  1.5026
  914MOL0     H26068   4.782   9.283   0.970  1.1313 -0.5324 -0.2067
  914MOL0     H26069   4.885   9.344   1.241  1.8647 -0.5446 -0.9743
  914MOL0     H26070   4.755   9.216   1.235 -3.4026  1.5838 -2.0213
  914MOL0     H26071   4.906   9.096   1.076 -0.0094 -0.7978  1.8369
  914MOL0     H26072   5.016   9.230   1.069 -1.1250 -0.3444 -0.9486
  914MOL0     H26073   5.121   9.066   1.198 -0.8018 -0.0071 -2.8671
  914MOL0     H26074   5.003   9.080   1.330 -0.3557 -0.0482 -1.1602
  914MOL0     H26075   5.175   9.308   1.228  0.5569 -3.6223 -2.1888
  914MOL0     H26076   5.046   9.316   1.350 -1.7612 -1.1373 -1.1550
  914MOL0     H26077   5.281   9.129   1.402 -1.1719  0.3882 -0.9583
  914MOL0     H26078   5.173   9.203   1.509  1.5021 -1.0774  0.2870
  914MOL0     H26079   5.367   9.332   1.511 -1.5260  1.9041  1.9977
  914MOL0     H26080   5.375   9.346   1.331  0.6492 -0.1663  0.6883
  914MOL0     H26081   5.266   9.586   1.234 -1.9557  2.7020 -0.9279
  914MOL0     H26082   5.098   9.789   1.217 -0.5918 -0.7961 -1.0054
  914MOL0     H26083   5.104   9.853   1.385 -0.1758 -1.1386  0.9378
  914MOL0     H26084   4.879   9.741   1.225 -1.6606  0.9785  0.1858
  914MOL0     H26085   4.859   9.747   1.403  1.1706  2.7488  1.8719
  914MOL0     H26086   4.892   9.978   1.420  3.0050 -1.1541 -0.5841
  914MOL0     H26087   4.913   9.993   1.247 -0.0448 -3.9060 -3.3792
  914MOL0     H26088   4.668   9.835   1.343 -0.3994 -0.1071 -0.7276
  914MOL0     H26089   4.682  10.018   1.360  0.8418  0.8184 -0.9256
  914MOL0     H26090   4.491   9.973   0.971 -0.8183  1.4860 -1.0707
  914MOL0     H26091   4.382  10.074   0.806 -0.9055 -0.2639 -0.3333
  914MOL0     H26092   4.477  10.178   0.708 -0.5074  1.9336  0.4567
  914MOL0     H26093   4.362  10.255   0.804  0.5689  0.6720 -3.5807
  914MOL0     H26094   4.357  10.558   0.580 -0.0180 -0.6092  0.2621
  914MOL0     H26095   4.172  10.707   0.616  0.1123 -3.1874 -1.8220
  914MOL0     H26096   3.955  10.750   0.975 -1.4197  0.7089 -2.1541
  914MOL0     H26097   4.081  10.868   1.023  2.3335 -0.0006 -1.2184
  914MOL0     H26098   3.965  11.039   0.870  0.3579 -0.1412  0.8374
  914MOL0     H26099   3.840  10.922   0.831 -1.8529 -0.0562  1.0523
  914MOL0     H26100   3.792  10.884   1.068  2.5278 -0.8655 -1.7967
  914MOL0     H26101   3.731  11.032   0.988 -2.5815 -1.5382  0.9438
  914MOL0     H26102   3.955  11.025   1.201  0.6033  0.8314 -0.3078
  914MOL0     H26103   3.789  11.098   1.194 -1.8653 -1.2718 -0.9665
  914MOL0     H26104   3.984  11.270   1.148 -0.9140  2.4872 -2.0189
  914MOL0     H26105   4.027  11.175   1.011 -1.4946  0.1813 -2.9180
  914MOL0     H26106   3.738  11.265   1.029  1.5895 -1.2809  2.6479
  914MOL0     H26107   3.833  11.266   0.883 -1.2017 -0.0978  0.3123
  914MOL0     H26108   3.791  11.468   0.908 -1.4552 -0.5541  1.1977
  914MOL0     H26109   3.956  11.472   0.968 -1.1037 -0.0670 -0.3746
  914MOL0     H26110   3.872  11.476   1.214 -1.6873  1.3594  2.5032
  914MOL0     H26111   3.703  11.483   1.142 -0.6377  1.6529 -1.3887
  914MOL0     H26112   4.217  10.706   1.037  1.9366 -1.5516  0.8317
  914MOL0     H26113   4.407  10.542   1.008 -0.8142  0.7646  0.0334
  914MOL0     H26114   4.806  10.349   1.053  0.5998 -0.0299 -2.5566
  914MOL0     H26115   4.822  10.164   1.192  1.5989  2.6411 -1.8540
  914MOL0     H26116   4.850   9.761   0.997 -1.1447 -0.7025 -1.8322
  914MOL0     H26117   4.990   9.936   0.911 -3.1868 -0.2476  0.6560
  914MOL0     H26118   5.170  10.032   0.446 -0.1910  1.6436 -0.5256
  914MOL0     H26119   5.319  10.146   0.286 -1.4122 -0.7575  0.2718
  914MOL0     H26120   5.681  10.234   0.169 -0.2747  0.2586 -3.0078
  914MOL0     H26121   5.536  10.138   0.184  1.6603 -0.4753 -2.5859
  914MOL0     H26122   5.401  10.352   0.204 -1.0592  2.5442  0.1041
  914MOL0     H26123   5.494  10.341   0.047  1.6601  1.4812  0.1042
  914MOL0     H26124   5.483  10.563   0.174 -1.5204 -1.8545  1.2209
  914MOL0     H26125   5.605  10.499   0.281 -1.1600  2.3206  1.7043
  914MOL0     H26126   5.745  10.432   0.050 -0.3874 -2.1828  2.9602
  914MOL0     H26127   5.746  10.594   0.137  2.4697 -2.3393  1.2084
  914MOL0     H26128   5.533  10.661  -0.217 -0.7960 -2.4663 -1.6614
  914MOL0     H26129   5.634  10.158   0.579 -1.2539  3.3848  2.1218
  914MOL0     H26130   5.433  10.074   0.848 -3.4810  2.8390 -3.2696
  914MOL0     H26131   5.496   9.911   0.786  4.2685  0.6245 -1.9207
  914MOL0     H26132   5.598  10.059   0.784  0.9607 -1.0345 -1.3881
  915MOL0     O26133   8.619   6.302   6.808  0.0706 -0.2337  0.3832
  915MOL0     C26134   8.740   6.338   6.809  0.2407  0.2655  0.3283
  915MOL0     O26135   8.790   6.456   6.864 -0.0801  0.4537 -0.1921
  915MOL0     C26136   8.712   6.497   6.972 -0.1054 -0.2020  0.1306
  915MOL0     C26137   8.738   6.465   7.113 -0.1216 -0.1140  0.0830
  915MOL0     C26138   8.657   6.538   7.212 -0.0898  0.6790  1.1985
  915MOL0     C26139   8.537   6.610   7.174 -0.6339 -0.6601  0.3863
  915MOL0     O26140   8.444   6.663   7.255  0.1296 -0.4399 -0.5631
  915MOL0     C26141   8.502   6.750   7.349 -0.4151 -0.5159  0.1673
  915MOL0     C26142   8.410   6.848   7.423 -0.2756 -0.0289 -0.0940
  915MOL0     C26143   8.330   6.762   7.529  0.2559  1.1013 -0.0447
  915MOL0     C26144   8.220   6.852   7.598  0.0968  0.3153 -0.8538
  915MOL0     C26145   8.145   6.759   7.704 -0.2272 -0.2749  0.2632
  915MOL0     C26146   8.035   6.822   7.775  0.1974 -0.5715  0.2854
  915MOL0     C26147   7.902   6.820   7.698  0.4926  0.0945 -0.2595
  915MOL0     C26148   7.796   6.911   7.768 -0.2902 -0.4351 -1.1293
  915MOL0     N26149   7.732   6.852   7.898  1.0349 -0.5109  0.7068
  915MOL0     C26150   7.640   6.746   7.905 -0.0252  0.3921 -0.4369
  915MOL0     C26151   7.607   6.739   8.033 -0.1539  0.2808  0.7587
  915MOL0     C26152   7.511   6.637   8.087 -0.4529 -0.6081 -0.3466
  915MOL0     C26153   7.580   6.578   8.222  0.1259  0.2509  0.9997
  915MOL0     C26154   7.491   6.456   8.261 -0.7737 -0.0709  0.1225
  915MOL0     C26155   7.365   6.485   8.337  0.2969 -0.3360  0.5477
  915MOL0     O26156   7.398   6.549   8.461 -0.6643  0.3185 -0.3343
  915MOL0     C26157   7.463   6.481   8.561  0.2969  0.1986  1.1273
  915MOL0     C26158   7.549   6.570   8.629 -0.7288 -0.1933 -0.2000
  915MOL0     C26159   7.606   6.528   8.748 -0.0681 -0.4571 -0.1542
  915MOL0     C26160   7.702   6.625   8.817  0.3538  0.2465 -0.3729
  915MOL0     C26161   7.588   6.393   8.788  0.4232  0.0905  0.3101
  915MOL0     C26162   7.656   6.327   8.903  0.3325  0.6132 -0.1703
  915MOL0     O26163   7.669   6.185   8.921  0.2474 -0.2411 -0.1346
  915MOL0     C26164   7.729   6.129   9.029 -0.2237 -0.4109 -0.5088
  915MOL0     C26165   7.854   6.156   9.081  0.5340 -0.5443  0.9120
  915MOL0     C26166   7.899   6.084   9.184 -1.2806  0.6325  0.6550
  915MOL0     C26167   7.826   5.987   9.247 -0.2572 -0.2033 -0.0431
  915MOL0     O26168   7.892   5.919   9.344 -0.1615 -0.2214 -0.0867
  915MOL0     C26169   7.826   5.808   9.396  0.6952  0.8632  0.2282
  915MOL0     C26170   7.821   5.691   9.298 -0.3966 -0.1340 -0.5480
  915MOL0     C26171   7.956   5.649   9.248 -0.1383  0.3851  0.4810
  915MOL0     C26172   7.940   5.510   9.173  0.0572 -0.9580 -0.5758
  915MOL0     C26173   8.074   5.462   9.121 -0.1190 -0.2658 -0.2805
  915MOL0     C26174   8.064   5.316   9.070 -0.4574  0.4536  0.1161
  915MOL0     C26175   8.195   5.239   9.088 -0.6743 -0.0321  1.3342
  915MOL0     C26176   8.280   5.228   8.959  0.4174  0.0953  0.6727
  915MOL0    Cl26177   8.382   5.085   8.997 -0.1614 -0.1062  0.0581
  915MOL0     C26178   7.695   5.965   9.209 -0.4340  0.2423 -0.8891
  915MOL0     C26179   7.656   6.032   9.096  0.5653  0.3458  0.1001
  915MOL0     O26180   7.710   6.401   8.982 -0.9977 -0.9302  0.9486
  915MOL0     C26181   7.501   6.304   8.717  0.2561  0.2815 -0.5515
  915MOL0     C26182   7.440   6.352   8.607  0.0614 -0.0577 -1.0384
  915MOL0     N26183   7.674   6.837   8.103  0.5495 -0.3948  0.0688
  915MOL0     N26184   7.746   6.908   8.015  0.4910  0.0346 -0.5817
  915MOL0     C26185   8.498   6.593   7.038 -0.3572 -0.4301 -0.2078
  915MOL0     C26186   8.594   6.559   6.941  0.4320  1.1964  0.0826
  915MOL0     C26187   8.838   6.263   6.729  0.5266 -0.2786  0.6116
  915MOL0     C26188   8.982   6.299   6.726 -0.0950 -0.0853 -0.0850
  915MOL0     C26189   9.072   6.241   6.637 -0.2544 -0.1874  0.4112
  915MOL0     C26190   9.026   6.135   6.549 -0.2788 -0.5479 -0.2037
  915MOL0     O26191   9.120   6.071   6.476  0.6505  0.3448 -0.1956
  915MOL0     C26192   9.158   6.147   6.356 -0.0183  0.3336  0.4044
  915MOL0     C26193   9.120   6.063   6.223  0.0556 -0.5280 -1.0110
  915MOL0     C26194   8.970   6.032   6.221  0.0666 -0.0062 -0.3700
  915MOL0     C26195   8.931   5.888   6.266  0.8698 -0.7935  0.6785
  915MOL0     C26196   8.788   5.887   6.300 -0.1785  0.3347  0.1927
  915MOL0     C26197   8.667   5.876   6.319  0.2948 -0.8262 -0.0588
  915MOL0     C26198   8.892   6.106   6.556 -0.5330  0.8651 -0.2824
  915MOL0     C26199   8.796   6.163   6.642  0.6470 -0.4002 -0.6385
  915MOL0     C26200   8.652   6.111   6.614 -0.4871  0.3408 -0.1250
  915MOL0     H26201   8.832   6.412   7.129  0.5498  1.5043  2.0160
  915MOL0     H26202   8.692   6.523   7.313 -0.4419 -0.6689  1.1427
  915MOL0     H26203   8.583   6.804   7.299  0.5833 -2.2329 -0.1678
  915MOL0     H26204   8.556   6.688   7.422 -0.6759  0.8401  1.5541
  915MOL0     H26205   8.479   6.924   7.460  0.3711 -0.5574 -0.1724
  915MOL0     H26206   8.352   6.891   7.341  0.2791 -0.1554 -0.5603
  915MOL0     H26207   8.292   6.670   7.485  3.2590  0.2671 -1.1885
  915MOL0     H26208   8.400   6.743   7.612  0.4518  1.6036 -0.0901
  915MOL0     H26209   8.275   6.932   7.649  0.7536  1.4519 -3.2363
  915MOL0     H26210   8.158   6.886   7.516 -0.4843 -0.8983 -0.9408
  915MOL0     H26211   8.224   6.730   7.774  0.5204 -3.0928 -1.5345
  915MOL0     H26212   8.115   6.664   7.658  2.8643 -1.8966  1.3308
  915MOL0     H26213   8.022   6.786   7.877 -0.8989  0.0577  0.3738
  915MOL0     H26214   8.054   6.928   7.792 -0.1068 -0.7453  1.8685
  915MOL0     H26215   7.855   6.722   7.700 -0.0350  0.3535  0.4743
  915MOL0     H26216   7.924   6.852   7.596  1.1164 -1.8035 -0.7703
  915MOL0     H26217   7.832   7.010   7.796 -0.1876 -0.9035  0.5327
  915MOL0     H26218   7.716   6.928   7.695  0.0148  3.6302 -0.7379
  915MOL0     H26219   7.598   6.696   7.818 -0.6721 -0.8759  0.5825
  915MOL0     H26220   7.484   6.562   8.012  0.2884  0.6457 -1.9336
  915MOL0     H26221   7.420   6.695   8.106 -2.2900 -2.6813 -2.1925
  915MOL0     H26222   7.681   6.542   8.205  0.6768  2.5196 -1.0851
  915MOL0     H26223   7.607   6.655   8.295  2.4275 -0.7040  1.2218
  915MOL0     H26224   7.468   6.411   8.164  3.0602 -1.6651 -0.2233
  915MOL0     H26225   7.560   6.393   8.319  0.3754  1.3699  0.3969
  915MOL0     H26226   7.315   6.550   8.264  2.1359  0.4525 -0.0866
  915MOL0     H26227   7.296   6.400   8.343  2.1143 -2.1858 -2.3668
  915MOL0     H26228   7.576   6.666   8.586 -3.5735  0.2963 -1.1245
  915MOL0     H26229   7.652   6.675   8.901 -3.0454  0.3335 -2.2851
  915MOL0     H26230   7.734   6.695   8.739  1.5320  0.1881  0.0288
  915MOL0     H26231   7.800   6.586   8.847  0.9509  1.3920 -0.7619
  915MOL0     H26232   7.916   6.237   9.043  0.6412 -1.7113 -1.5537
  915MOL0     H26233   8.005   6.087   9.207 -1.7298  0.0994  2.9968
  915MOL0     H26234   7.887   5.771   9.479 -2.6654 -0.4268  2.3206
  915MOL0     H26235   7.729   5.837   9.437  0.4097  1.0641 -0.5633
  915MOL0     H26236   7.785   5.606   9.356 -3.1925  0.8122 -0.7414
  915MOL0     H26237   7.747   5.716   9.221 -2.0905  1.1417  1.3680
  915MOL0     H26238   8.017   5.634   9.338 -1.4429  2.6109  1.8401
  915MOL0     H26239   7.999   5.725   9.183 -1.8608 -1.3511 -2.9316
  915MOL0     H26240   7.868   5.514   9.091  1.2643 -1.8497 -1.7354
  915MOL0     H26241   7.901   5.439   9.246  2.0912  1.3246  3.0595
  915MOL0     H26242   8.111   5.522   9.038  0.4141  0.7981  0.6861
  915MOL0     H26243   8.150   5.471   9.200  2.3379  3.5670 -2.7784
  915MOL0     H26244   8.027   5.319   8.967 -0.6957  0.2811  0.1958
  915MOL0     H26245   7.988   5.256   9.121  0.4197 -1.4889 -0.7529
  915MOL0     H26246   8.170   5.136   9.114 -0.2260 -0.1256  1.4111
  915MOL0     H26247   8.257   5.279   9.169  1.3275  2.7711 -1.3419
  915MOL0     H26248   8.332   5.321   8.934  1.1637 -0.4987 -0.0607
  915MOL0     H26249   8.208   5.200   8.881  0.8270 -1.2327  0.7482
  915MOL0     H26250   7.627   5.893   9.253  0.7467  0.7944  2.0822
  915MOL0     H26251   7.562   6.009   9.046  1.1815  0.2160 -1.0481
  915MOL0     H26252   7.494   6.196   8.732  2.0095 -0.0612 -1.7774
  915MOL0     H26253   7.364   6.290   8.559  0.2368 -2.1588  1.1974
  915MOL0     H26254   8.397   6.621   7.008 -1.1058 -1.0525  1.5425
  915MOL0     H26255   8.565   6.564   6.837  1.9490  0.6494 -0.3905
  915MOL0     H26256   9.024   6.374   6.791 -0.0689 -0.3877  0.2476
  915MOL0     H26257   9.173   6.276   6.650  0.1516 -1.4697  0.8625
  915MOL0     H26258   9.109   6.244   6.343 -0.8848  0.2665  2.7024
  915MOL0     H26259   9.267   6.153   6.348  0.0872 -1.0653  0.5190
  915MOL0     H26260   9.185   5.977   6.207  2.5034  1.5197 -2.9744
  915MOL0     H26261   9.141   6.123   6.134  1.1173  1.2788  0.3848
  915MOL0     H26262   8.909   6.100   6.281  0.9436 -0.7839  1.5187
  915MOL0     H26263   8.953   6.042   6.114  3.9654 -1.4735 -1.3079
  915MOL0     H26264   9.000   5.842   6.338  0.5976  0.7064  1.9660
  915MOL0     H26265   8.934   5.835   6.171  0.1973  2.4607 -1.3017
  915MOL0     H26266   8.563   5.868   6.343  0.0567  3.0930  0.8363
  915MOL0     H26267   8.849   6.033   6.488 -0.0716  0.5239 -0.2138
  915MOL0     H26268   8.649   6.039   6.533 -0.6982 -0.1050  0.2756
  915MOL0     H26269   8.610   6.067   6.705 -1.4773  1.1980 -0.1415
  915MOL0     H26270   8.588   6.194   6.583  0.9054  2.0181  1.2690
  916MOL0     O26271   7.275   6.378   6.146  0.3277  0.3695  1.0351
  916MOL0     C26272   7.176   6.308   6.174  0.3985  0.6627 -0.4923
  916MOL0     O26273   7.097   6.239   6.089 -0.1741  0.7329 -0.3943
  916MOL0     C26274   7.116   6.244   5.953 -0.8421 -0.2640 -0.3782
  916MOL0     C26275   7.108   6.124   5.882  0.7655 -0.2216  0.6267
  916MOL0     C26276   7.129   6.115   5.741  0.1146  0.3108 -0.6440
  916MOL0     C26277   7.150   6.236   5.670  0.3919 -0.1232 -0.3281
  916MOL0     O26278   7.166   6.217   5.536  0.1698  0.1950 -0.3396
  916MOL0     C26279   7.146   6.333   5.448 -0.0200 -0.3720 -0.6436
  916MOL0     C26280   7.175   6.279   5.307  0.4254 -0.1975 -0.1056
  916MOL0     C26281   7.307   6.202   5.292  0.1213 -0.3893  0.0011
  916MOL0     C26282   7.360   6.221   5.154  0.1518  0.9846  0.3519
  916MOL0     C26283   7.290   6.143   5.034 -0.4890 -0.7133  0.0179
  916MOL0     C26284   7.367   6.139   4.899  0.2946  0.5771  0.3184
  916MOL0     C26285   7.499   6.051   4.909 -0.2743  0.0418  0.3693
  916MOL0     C26286   7.628   6.129   4.891 -0.1027 -0.3142  1.0741
  916MOL0     N26287   7.742   6.033   4.866 -0.4988  0.3919  0.0948
  916MOL0     C26288   7.775   5.969   4.742  0.8241  0.8071 -0.6110
  916MOL0     C26289   7.898   5.919   4.766 -0.0372  0.4480 -0.1361
  916MOL0     C26290   7.979   5.851   4.653 -0.5598 -0.0345 -0.2959
  916MOL0     C26291   7.913   5.725   4.611  0.2281  0.7699  0.2321
  916MOL0     C26292   8.025   5.641   4.547  1.3494  0.2353 -0.6766
  916MOL0     C26293   7.976   5.508   4.511 -0.4357 -1.2474 -1.0591
  916MOL0     O26294   8.079   5.447   4.432 -0.1537 -0.9954  0.4553
  916MOL0     C26295   8.176   5.363   4.483 -0.3552 -0.0465  0.2578
  916MOL0     C26296   8.298   5.358   4.407 -0.1649  0.6011 -0.8057
  916MOL0     C26297   8.414   5.285   4.444  1.1738 -0.0653 -0.8067
  916MOL0     C26298   8.541   5.285   4.357 -0.2265  0.9269  0.0530
  916MOL0     C26299   8.403   5.205   4.561  0.3148 -0.1176 -0.2205
  916MOL0     C26300   8.526   5.142   4.620 -0.1000  0.3449  0.8512
  916MOL0     O26301   8.496   5.017   4.664 -0.0140  0.2111 -0.0963
  916MOL0     C26302   8.585   4.931   4.731 -0.5000  0.0429  0.5030
  916MOL0     C26303   8.545   4.804   4.743 -0.5576  0.7302 -0.2376
  916MOL0     C26304   8.598   4.719   4.845 -0.8279  0.7782  0.1751
  916MOL0     C26305   8.713   4.762   4.924  0.1604 -0.4249 -0.1148
  916MOL0     O26306   8.778   4.687   5.020 -0.3668 -0.2123 -0.5663
  916MOL0     C26307   8.797   4.549   4.976 -0.4009 -1.4016  0.3807
  916MOL0     C26308   8.923   4.496   5.036 -0.8408  0.0898 -0.0065
  916MOL0     C26309   8.934   4.348   5.007  0.0411  0.6924 -0.5601
  916MOL0     C26310   9.070   4.281   4.971 -0.9578 -0.5233  0.3145
  916MOL0     C26311   9.038   4.144   4.920  0.4350  0.0334 -0.3418
  916MOL0     C26312   8.982   4.043   5.023 -0.7103 -0.7501  0.3593
  916MOL0     C26313   8.958   3.900   4.979 -0.3835 -0.6891 -0.5954
  916MOL0     C26314   8.921   3.812   5.101  0.3159  0.3434 -1.0554
  916MOL0    Cl26315   8.763   3.851   5.173 -0.0438 -0.2234  0.2840
  916MOL0     C26316   8.767   4.882   4.886 -0.5658 -0.4052 -0.7281
  916MOL0     C26317   8.706   4.967   4.790  0.0653  0.0441 -0.1460
  916MOL0     O26318   8.638   5.205   4.619  0.4857  0.0572  0.2114
  916MOL0     C26319   8.283   5.211   4.636  0.4964 -0.1541 -0.1416
  916MOL0     C26320   8.172   5.290   4.604  0.3516 -0.3231  0.9534
  916MOL0     N26321   7.940   5.950   4.894 -0.1515 -0.5578  0.1592
  916MOL0     N26322   7.851   6.022   4.944  0.1810 -0.1334  0.8865
  916MOL0     C26323   7.150   6.360   5.737 -0.2280  0.2098  0.6413
  916MOL0     C26324   7.136   6.362   5.876 -0.2468 -0.2151  0.3319
  916MOL0     C26325   7.124   6.309   6.315 -0.4402  0.6315 -0.1277
  916MOL0     C26326   6.998   6.233   6.339  0.1549 -1.0551  0.2784
  916MOL0     C26327   6.939   6.247   6.467 -0.7642  0.7960  0.3399
  916MOL0     C26328   6.995   6.325   6.569 -0.3189 -0.3452  0.2206
  916MOL0     O26329   6.908   6.353   6.668  0.0927  0.6205  0.2430
  916MOL0     C26330   6.960   6.433   6.774 -0.0754 -0.6848  0.7490
  916MOL0     C26331   6.856   6.446   6.883  0.0289 -0.6340 -0.7168
  916MOL0     C26332   6.746   6.537   6.836 -0.1606  0.9051 -0.4106
  916MOL0     C26333   6.601   6.490   6.872  0.2933  0.5471 -0.3477
  916MOL0     C26334   6.574   6.366   6.801  0.3314  0.2412  0.3995
  916MOL0     C26335   6.557   6.273   6.720  1.3973  0.5809  0.1779
  916MOL0     C26336   7.124   6.383   6.548  0.0811  0.3868  0.4439
  916MOL0     C26337   7.191   6.365   6.426  1.0441 -0.3257 -0.2318
  916MOL0     C26338   7.324   6.438   6.438 -0.1410 -0.6211 -0.7253
  916MOL0     H26339   7.088   6.034   5.938  1.7014 -0.7601  0.1252
  916MOL0     H26340   7.116   6.018   5.694 -1.3860  1.1890 -2.1672
  916MOL0     H26341   7.212   6.416   5.474  2.4876 -3.1212  2.8580
  916MOL0     H26342   7.042   6.364   5.454 -0.4941 -1.1816 -3.1983
  916MOL0     H26343   7.094   6.213   5.273 -0.4125  0.2155  1.0547
  916MOL0     H26344   7.174   6.368   5.243 -1.7057 -0.1145 -0.0390
  916MOL0     H26345   7.382   6.247   5.359 -0.7791 -0.1342  0.8679
  916MOL0     H26346   7.299   6.098   5.322  1.6569  0.2433  3.0047
  916MOL0     H26347   7.370   6.328   5.131  4.2418  0.5940 -0.3859
  916MOL0     H26348   7.459   6.178   5.164 -0.5353 -0.3909  1.5411
  916MOL0     H26349   7.194   6.191   5.014 -0.2551 -0.7487 -1.2864
  916MOL0     H26350   7.270   6.045   5.078  2.3857 -1.9623 -1.1920
  916MOL0     H26351   7.304   6.123   4.811  0.1602  1.5540  0.2245
  916MOL0     H26352   7.411   6.238   4.883 -3.3355  2.1265 -0.9174
  916MOL0     H26353   7.494   5.980   4.826 -0.7888  3.2473 -2.5794
  916MOL0     H26354   7.492   6.000   5.006 -2.3921 -3.1868 -1.2713
  916MOL0     H26355   7.618   6.182   4.796  0.7820 -1.3609  0.3650
  916MOL0     H26356   7.645   6.193   4.979 -1.6560  1.2247  0.3169
  916MOL0     H26357   7.709   5.955   4.657  0.2401 -1.1320  0.1158
  916MOL0     H26358   8.077   5.836   4.697  0.1357 -1.2565 -2.1512
  916MOL0     H26359   7.992   5.932   4.579  0.7011  1.4277  1.4434
  916MOL0     H26360   7.867   5.675   4.698  0.0247 -1.6866 -1.1967
  916MOL0     H26361   7.834   5.756   4.543  0.6942  1.4518  0.0028
  916MOL0     H26362   8.059   5.697   4.460  1.9445  0.4405 -0.3191
  916MOL0     H26363   8.110   5.630   4.615 -0.2729  0.5211  1.4940
  916MOL0     H26364   7.950   5.454   4.602 -1.5865 -0.4925 -0.9079
  916MOL0     H26365   7.889   5.528   4.447 -0.6333  0.9754 -0.1940
  916MOL0     H26366   8.293   5.421   4.318  1.9364  1.3686 -0.4402
  916MOL0     H26367   8.504   5.304   4.256  2.0893  1.7964 -0.7148
  916MOL0     H26368   8.593   5.189   4.363 -2.4284 -0.2272  1.5884
  916MOL0     H26369   8.608   5.369   4.380  0.6278  0.6940 -1.4208
  916MOL0     H26370   8.452   4.775   4.695 -0.2085  0.6648 -0.8827
  916MOL0     H26371   8.554   4.622   4.861 -1.0651  0.7449 -0.6224
  916MOL0     H26372   8.721   4.486   5.022 -0.3336  0.0249  2.5645
  916MOL0     H26373   8.815   4.541   4.868 -1.0371  0.2331  0.1299
  916MOL0     H26374   9.007   4.539   4.982  0.4826 -2.4553 -0.1323
  916MOL0     H26375   8.952   4.518   5.139  2.4569 -2.9095 -0.1074
  916MOL0     H26376   8.865   4.316   4.927 -2.3874 -2.8509  2.5910
  916MOL0     H26377   8.895   4.310   5.102  0.6762  1.4840  0.0349
  916MOL0     H26378   9.132   4.281   5.061 -1.0332  1.9179  0.4451
  916MOL0     H26379   9.123   4.342   4.898  1.4794  1.4393  3.4631
  916MOL0     H26380   8.976   4.164   4.832 -0.3752  2.4377  0.6750
  916MOL0     H26381   9.129   4.098   4.881  0.9991  0.2467  0.6954
  916MOL0     H26382   8.889   4.089   5.059 -1.9535 -2.0374 -1.0602
  916MOL0     H26383   9.046   4.035   5.111 -1.0466 -0.0520  0.6808
  916MOL0     H26384   9.034   3.856   4.914 -2.6658 -2.7703 -2.0915
  916MOL0     H26385   8.864   3.910   4.922 -1.4248 -1.9290  0.8192
  916MOL0     H26386   9.006   3.806   5.170  0.7323  1.0101 -1.4934
  916MOL0     H26387   8.920   3.707   5.070  0.0346 -1.2205  3.5005
  916MOL0     H26388   8.861   4.915   4.929  0.2819  1.5828 -3.7640
  916MOL0     H26389   8.749   5.065   4.774 -4.3089  2.4195  0.8658
  916MOL0     H26390   8.265   5.147   4.722  0.3976  1.0348  0.7431
  916MOL0     H26391   8.087   5.290   4.671 -1.0517 -2.7043 -0.6560
  916MOL0     H26392   7.161   6.454   5.686  1.6756  0.0420  0.6830
  916MOL0     H26393   7.143   6.462   5.919 -0.7943  0.8317 -1.8629
  916MOL0     H26394   6.936   6.193   6.260 -0.4893  1.4592 -0.5884
  916MOL0     H26395   6.836   6.218   6.480 -1.3317  3.2779  1.9688
  916MOL0     H26396   7.048   6.390   6.822 -0.1469 -0.4454  1.0959
  916MOL0     H26397   6.991   6.528   6.730 -2.9605 -1.0546 -2.5672
  916MOL0     H26398   6.901   6.497   6.969  0.1347 -2.1926  0.1871
  916MOL0     H26399   6.823   6.347   6.914  1.5708 -0.7358  0.7122
  916MOL0     H26400   6.764   6.629   6.893  0.8721 -0.9391  2.4708
  916MOL0     H26401   6.734   6.553   6.729  0.9761  0.0467 -0.6788
  916MOL0     H26402   6.536   6.567   6.830 -0.4378  0.4970  0.6637
  916MOL0     H26403   6.583   6.490   6.979  0.0963 -0.9180 -0.3586
  916MOL0     H26404   6.549   6.205   6.637  0.7148 -0.8761  1.3689
  916MOL0     H26405   7.178   6.445   6.619  2.2744  0.5790 -1.2926
  916MOL0     H26406   7.360   6.454   6.540 -1.0073 -0.0916 -0.4913
  916MOL0     H26407   7.405   6.390   6.383  1.5862  0.5648  0.6483
  916MOL0     H26408   7.318   6.540   6.399 -2.4545 -0.5525 -0.3387
  917MOL0     O26409   9.966  10.696   0.435  0.0326 -0.1141  0.1848
  917MOL0     C26410  10.079  10.739   0.438 -0.0155  0.1700  0.3068
  917MOL0     O26411  10.182  10.706   0.520 -0.7372 -0.7117  0.3719
  917MOL0     C26412  10.174  10.608   0.624  0.4818 -0.7788  0.1140
  917MOL0     C26413  10.277  10.595   0.707 -0.2261  0.2807 -0.3096
  917MOL0     C26414  10.279  10.497   0.806  1.0579  0.3005  1.0665
  917MOL0     C26415  10.170  10.407   0.814 -0.1456  0.1766  0.5863
  917MOL0     O26416  10.172  10.295   0.887 -0.1771  0.1039 -0.2323
  917MOL0     C26417  10.260  10.191   0.848  0.2782  0.9304 -0.3446
  917MOL0     C26418  10.209  10.059   0.917  0.7062 -0.1352 -0.2660
  917MOL0     C26419  10.299   9.935   0.909  1.1554 -0.2823  0.5833
  917MOL0     C26420  10.256   9.845   0.789  0.5461 -0.3279 -1.0760
  917MOL0     C26421  10.326   9.710   0.784 -1.0761  0.9383  0.0032
  917MOL0     C26422  10.486   9.704   0.760 -0.7399  0.2275  0.0888
  917MOL0     C26423  10.546   9.589   0.847  0.9070  0.1484  0.7290
  917MOL0     C26424  10.690   9.595   0.817 -0.1525 -0.4501 -0.1526
  917MOL0     N26425  10.784   9.511   0.897 -0.7875  0.0991 -0.0514
  917MOL0     C26426  10.741   9.389   0.941  0.2568 -0.2352  0.6124
  917MOL0     C26427  10.836   9.347   1.030  0.2271  0.0026  0.0628
  917MOL0     C26428  10.830   9.217   1.108  0.3473  0.2987  0.0307
  917MOL0     C26429  10.731   9.238   1.218  0.1835 -0.3306 -0.2114
  917MOL0     C26430  10.708   9.105   1.292 -0.2469 -1.0460 -0.2154
  917MOL0     C26431  10.584   9.102   1.371 -0.0000  0.2324 -0.5076
  917MOL0     O26432  10.562   9.231   1.438 -0.5177  0.4199  0.0183
  917MOL0     C26433  10.435   9.265   1.488  0.9500  0.0965  0.5793
  917MOL0     C26434  10.421   9.342   1.591 -0.0469  0.2346 -0.2489
  917MOL0     C26435  10.297   9.383   1.637  0.2046  0.7304  0.0787
  917MOL0     C26436  10.298   9.450   1.773  0.0046 -0.2755  0.7628
  917MOL0     C26437  10.178   9.353   1.554 -0.0704  0.8614 -0.3773
  917MOL0     C26438  10.039   9.404   1.579  0.4998 -0.0465 -0.1110
  917MOL0     O26439   9.987   9.430   1.702 -0.2678  0.0875  0.4922
  917MOL0     C26440   9.866   9.502   1.710  0.4278  0.2944  0.8853
  917MOL0     C26441   9.807   9.586   1.614  0.3506 -0.1514  0.2166
  917MOL0     C26442   9.683   9.644   1.639 -0.1416 -0.1010  0.2629
  917MOL0     C26443   9.618   9.636   1.760 -0.2804 -0.3259  0.1065
  917MOL0     O26444   9.497   9.696   1.786  0.6286 -0.0851  0.0600
  917MOL0     C26445   9.472   9.822   1.726  1.1166  0.4276 -0.0508
  917MOL0     C26446   9.351   9.892   1.795  0.2736  0.5475  0.2193
  917MOL0     C26447   9.383   9.940   1.929  0.6227  1.0810  0.0765
  917MOL0     C26448   9.477  10.058   1.922  0.5439  0.4996  0.2966
  917MOL0     C26449   9.519  10.098   2.064  0.0118 -0.2366  0.8950
  917MOL0     C26450   9.405  10.150   2.150 -0.4612  0.4226  0.2961
  917MOL0     C26451   9.470  10.204   2.274  0.6403  0.4043  0.5323
  917MOL0     C26452   9.471  10.106   2.390  0.7548 -0.2955 -0.6866
  917MOL0    Cl26453   9.598   9.985   2.387  0.0015  0.3525  0.1687
  917MOL0     C26454   9.676   9.551   1.856  0.7005  0.7178 -0.3577
  917MOL0     C26455   9.798   9.492   1.833  0.0507 -0.3509 -0.0145
  917MOL0     O26456   9.974   9.413   1.477 -0.8077  1.2793  0.4425
  917MOL0     C26457  10.193   9.279   1.442 -0.1616 -0.2532  0.5552
  917MOL0     C26458  10.320   9.236   1.407  0.0583 -0.0207  0.2419
  917MOL0     N26459  10.929   9.447   1.034 -0.6526  0.7154 -0.2079
  917MOL0     N26460  10.899   9.544   0.957 -1.0671  0.1535 -0.4646
  917MOL0     C26461  10.073  10.418   0.718  0.3758 -0.5458 -0.4902
  917MOL0     C26462  10.067  10.521   0.633 -0.2517  0.9940  0.2085
  917MOL0     C26463  10.123  10.809   0.322 -0.0700  0.0017 -0.6092
  917MOL0     C26464  10.194  10.923   0.359 -0.1705  0.1046  0.2196
  917MOL0     C26465  10.281  10.986   0.266 -0.0611  0.3915  0.7170
  917MOL0     C26466  10.271  10.944   0.132 -0.2281 -0.5781  0.4462
  917MOL0     O26467  10.338  11.024   0.050  0.6093 -0.3219 -0.8584
  917MOL0     C26468  10.336  10.997  -0.093  1.0008 -0.1386  0.5253
  917MOL0     C26469  10.476  11.050  -0.151 -0.5462  0.4787  0.0071
  917MOL0     C26470  10.592  10.976  -0.079 -0.5940 -0.5222  0.5968
  917MOL0     C26471  10.723  11.014  -0.148  0.9187 -0.1941 -0.7712
  917MOL0     C26472  10.836  10.932  -0.102 -1.0177 -0.4861 -0.1771
  917MOL0     C26473  10.929  10.865  -0.056 -0.0791  0.0511  0.6583
  917MOL0     C26474  10.191  10.831   0.095  0.2794  0.7173 -0.3084
  917MOL0     C26475  10.125  10.760   0.191  0.5576  0.1234  0.0908
  917MOL0     C26476  10.079  10.618   0.142  0.2513 -0.2879 -1.0765
  917MOL0     H26477  10.353  10.672   0.714  1.0156 -1.0720  3.0006
  917MOL0     H26478  10.369  10.497   0.866  4.0610  2.2594 -2.9840
  917MOL0     H26479  10.358  10.209   0.892  1.9072 -2.1436 -2.3533
  917MOL0     H26480  10.248  10.183   0.739 -4.1710  0.4971 -0.0252
  917MOL0     H26481  10.186  10.064   1.023 -0.0817  0.9800 -0.4714
  917MOL0     H26482  10.116  10.036   0.865  1.4636 -0.6736 -1.4475
  917MOL0     H26483  10.403   9.962   0.891  0.2116  2.0625 -2.1659
  917MOL0     H26484  10.299   9.876   1.000  0.7608 -0.7144  0.3106
  917MOL0     H26485  10.148   9.827   0.786  0.3351 -0.2168  2.3195
  917MOL0     H26486  10.282   9.896   0.696 -1.2477  0.0980 -1.3859
  917MOL0     H26487  10.281   9.640   0.712  1.1604  0.7517 -1.3036
  917MOL0     H26488  10.300   9.655   0.875 -1.4017 -1.6002 -1.5143
  917MOL0     H26489  10.498   9.688   0.653 -1.8604 -0.8967  0.1087
  917MOL0     H26490  10.534   9.798   0.789  0.8326  0.1218 -1.9255
  917MOL0     H26491  10.498   9.497   0.812  1.0076 -1.0906  3.5784
  917MOL0     H26492  10.527   9.615   0.952 -1.4986  2.6187 -0.1826
  917MOL0     H26493  10.708   9.575   0.711  2.9578 -0.1051  0.2060
  917MOL0     H26494  10.717   9.697   0.846  1.9462 -2.2947  5.8741
  917MOL0     H26495  10.659   9.332   0.897  0.5136  0.6170 -1.0079
  917MOL0     H26496  10.931   9.199   1.147  2.2668  0.4292 -4.2889
  917MOL0     H26497  10.799   9.134   1.044 -0.5995  2.0924 -1.9302
  917MOL0     H26498  10.768   9.311   1.289 -0.8332  2.1647 -2.1103
  917MOL0     H26499  10.632   9.266   1.179 -0.2494 -1.6345 -0.1240
  917MOL0     H26500  10.698   9.027   1.216 -1.6727 -2.2262  1.0966
  917MOL0     H26501  10.788   9.069   1.357 -0.4847 -0.4661  0.4176
  917MOL0     H26502  10.495   9.071   1.316 -0.1912  1.6249 -1.0418
  917MOL0     H26503  10.593   9.026   1.449 -1.2142  1.4129  0.8446
  917MOL0     H26504  10.503   9.357   1.660 -1.2682  0.2346  1.2725
  917MOL0     H26505  10.200   9.493   1.796 -0.2036 -1.5250  2.3980
  917MOL0     H26506  10.373   9.529   1.770  0.4474 -0.7066  0.3668
  917MOL0     H26507  10.333   9.378   1.847  1.0324 -1.4334 -0.7851
  917MOL0     H26508   9.837   9.596   1.511 -0.6150  1.2401  0.0376
  917MOL0     H26509   9.630   9.694   1.559  1.1905 -1.9598 -1.9077
  917MOL0     H26510   9.561   9.886   1.725  0.4748  1.3443 -0.3247
  917MOL0     H26511   9.443   9.798   1.623  1.3651  0.7303 -0.1938
  917MOL0     H26512   9.336   9.981   1.735  2.1238 -0.2254 -1.5032
  917MOL0     H26513   9.263   9.828   1.811  0.5631  0.4883  1.7220
  917MOL0     H26514   9.429   9.865   1.994 -0.3086  1.8680  1.7423
  917MOL0     H26515   9.287   9.964   1.976  0.5795 -0.7790  1.0388
  917MOL0     H26516   9.433  10.145   1.873 -2.6275 -2.0124 -1.7796
  917MOL0     H26517   9.561  10.032   1.857 -1.4568  1.3341 -2.8787
  917MOL0     H26518   9.575  10.018   2.113  1.3253  0.3197  0.3560
  917MOL0     H26519   9.584  10.184   2.049  0.9180 -0.6734  2.1791
  917MOL0     H26520   9.336  10.069   2.177  1.3647 -0.6020  2.2051
  917MOL0     H26521   9.347  10.236   2.115  1.7833  2.6455  1.6649
  917MOL0     H26522   9.411  10.286   2.316  1.4530  0.9428  0.6499
  917MOL0     H26523   9.572  10.238   2.252  0.1088  1.0773 -1.0451
  917MOL0     H26524   9.374  10.056   2.387 -0.0595  1.3014 -3.0239
  917MOL0     H26525   9.483  10.156   2.487 -1.5949 -0.3455 -0.3005
  917MOL0     H26526   9.625   9.533   1.949 -2.2588  0.2905 -1.9574
  917MOL0     H26527   9.845   9.434   1.912  1.8638 -0.9347 -1.4409
  917MOL0     H26528  10.102   9.261   1.385 -0.8173 -0.3966  1.6105
  917MOL0     H26529  10.328   9.166   1.324  1.0236 -0.8639  1.0219
  917MOL0     H26530   9.993  10.346   0.731 -1.1311  0.9473 -1.1254
  917MOL0     H26531   9.974  10.524   0.576 -0.3956 -1.7148  0.1905
  917MOL0     H26532  10.187  10.959   0.461  0.7363  1.1196 -0.0476
  917MOL0     H26533  10.337  11.075   0.292  2.4660 -0.8425 -0.1610
  917MOL0     H26534  10.319  10.890  -0.112 -0.0186 -0.0510  0.9029
  917MOL0     H26535  10.256  11.048  -0.146 -0.5150 -1.5943  1.3137
  917MOL0     H26536  10.485  11.159  -0.144  1.6482  0.2436  1.9948
  917MOL0     H26537  10.485  11.028  -0.258  0.3409 -0.5581  0.2726
  917MOL0     H26538  10.605  10.995   0.028  1.5018 -2.0871  0.6885
  917MOL0     H26539  10.589  10.869  -0.103 -0.5602 -0.2114 -0.8968
  917MOL0     H26540  10.744  11.117  -0.117  0.7031 -0.0771 -1.0100
  917MOL0     H26541  10.706  11.010  -0.256 -6.3107  0.5328 -0.1178
  917MOL0     H26542  11.005  10.796  -0.025  0.6482  0.2120 -0.6636
  917MOL0     H26543  10.176  10.803  -0.008 -0.0106 -0.9717  0.1673
  917MOL0     H26544  10.125  10.576   0.052  1.7000 -2.8508  0.7482
  917MOL0     H26545  10.091  10.536   0.212  0.3473  0.2804 -0.4136
  917MOL0     H26546   9.971  10.615   0.121 -0.0872 -1.3965  0.6359
  918MOL0     O26547   4.977   3.681   4.584  0.7695 -0.6713 -0.4263
  918MOL0     C26548   4.989   3.616   4.481  0.0299 -0.7542  1.0508
  918MOL0     O26549   4.950   3.672   4.357 -0.0890 -0.3846  0.3730
  918MOL0     C26550   4.939   3.812   4.338  0.0582  0.2673 -0.5739
  918MOL0     C26551   5.053   3.894   4.329 -0.3073 -0.4260  0.4871
  918MOL0     C26552   5.036   4.031   4.308  0.7351  0.0832 -0.4640
  918MOL0     C26553   4.907   4.082   4.296 -0.3386 -0.4787 -0.1570
  918MOL0     O26554   4.898   4.213   4.290 -0.9345 -0.7809  0.3773
  918MOL0     C26555   4.797   4.270   4.205  0.5491 -0.2509  0.6172
  918MOL0     C26556   4.822   4.257   4.064 -0.0174 -0.2694  0.4966
  918MOL0     C26557   4.768   4.375   3.981 -0.0777 -0.7504  0.0203
  918MOL0     C26558   4.695   4.338   3.844  0.1331  0.2640 -0.2316
  918MOL0     C26559   4.633   4.446   3.760  0.3592  0.3162  0.0855
  918MOL0     C26560   4.734   4.537   3.705  0.3555 -0.3423 -0.0320
  918MOL0     C26561   4.662   4.657   3.623 -0.7936 -0.2020 -0.7143
  918MOL0     C26562   4.581   4.766   3.708  0.2205 -0.2349 -0.3353
  918MOL0     N26563   4.649   4.853   3.802  0.5145  0.1794 -0.5285
  918MOL0     C26564   4.785   4.872   3.816 -0.6418  0.3538  0.0148
  918MOL0     C26565   4.801   4.954   3.926  0.1067 -0.8683 -0.2572
  918MOL0     C26566   4.927   5.027   3.971  0.1666 -0.0585  0.5660
  918MOL0     C26567   5.059   4.942   3.956  0.1946 -1.6411 -0.6712
  918MOL0     C26568   5.072   4.830   4.053  0.0622  0.6083 -0.8317
  918MOL0     C26569   5.055   4.699   3.985  0.1242  0.7493 -0.6710
  918MOL0     O26570   5.172   4.653   3.918  0.2083  0.6652 -0.2213
  918MOL0     C26571   5.236   4.548   3.983 -0.8813  0.0009 -0.4212
  918MOL0     C26572   5.227   4.418   3.920  1.2214 -0.0620 -0.3024
  918MOL0     C26573   5.289   4.307   3.983 -0.0666  0.5523 -0.4442
  918MOL0     C26574   5.273   4.185   3.901 -0.9853 -0.0084 -0.1809
  918MOL0     C26575   5.362   4.325   4.106  0.6828 -0.6697  0.1175
  918MOL0     C26576   5.427   4.215   4.173 -0.3815 -0.8912  0.0377
  918MOL0     O26577   5.525   4.242   4.258 -0.4603  0.3064  0.0552
  918MOL0     C26578   5.600   4.132   4.290  0.4658  0.5269  0.0339
  918MOL0     C26579   5.731   4.130   4.253  0.3488 -0.0127  0.3841
  918MOL0     C26580   5.816   4.029   4.300 -0.1986  0.2786  0.4953
  918MOL0     C26581   5.767   3.924   4.367 -0.3824 -0.4031 -0.8346
  918MOL0     O26582   5.848   3.818   4.418  1.2188 -0.2412 -1.2005
  918MOL0     C26583   5.847   3.681   4.360 -0.1216 -1.0675 -1.2794
  918MOL0     C26584   5.958   3.657   4.261 -1.0404  0.4627 -1.0198
  918MOL0     C26585   6.101   3.657   4.332 -0.6443 -0.1521  0.2712
  918MOL0     C26586   6.211   3.701   4.229  1.4371 -0.2028 -0.0464
  918MOL0     C26587   6.352   3.679   4.289 -0.5530 -0.8548  0.1736
  918MOL0     C26588   6.395   3.535   4.291 -0.4618 -0.3796 -0.4327
  918MOL0     C26589   6.366   3.449   4.171  0.5596 -0.9380  0.1234
  918MOL0     C26590   6.426   3.311   4.198 -0.7243  0.2801  0.1888
  918MOL0    Cl26591   6.393   3.183   4.074 -0.1616  0.2537  0.5081
  918MOL0     C26592   5.640   3.919   4.411  0.1566  0.1488 -0.0824
  918MOL0     C26593   5.558   4.026   4.368 -0.4156 -0.2902 -0.2292
  918MOL0     O26594   5.380   4.101   4.151 -0.9707 -0.1290  0.4018
  918MOL0     C26595   5.368   4.462   4.165  0.0476 -0.0463 -0.0272
  918MOL0     C26596   5.303   4.569   4.104  0.0107  0.1419 -0.4741
  918MOL0     N26597   4.673   4.988   3.966 -0.1919  0.8653 -0.0709
  918MOL0     N26598   4.580   4.912   3.908 -0.4133  0.0651  0.8760
  918MOL0     C26599   4.792   3.994   4.298  0.4148 -0.6243  0.0833
  918MOL0     C26600   4.808   3.861   4.318  0.4508 -0.2869  0.1793
  918MOL0     C26601   5.030   3.476   4.479  0.1172  0.2042 -0.8862
  918MOL0     C26602   4.998   3.394   4.370 -0.4502 -0.7161  0.5984
  918MOL0     C26603   5.007   3.260   4.365 -0.2867  0.0003  0.8675
  918MOL0     C26604   5.063   3.191   4.475 -1.1378  0.1666  0.5595
  918MOL0     O26605   5.082   3.059   4.484  0.6436  1.0488 -0.4449
  918MOL0     C26606   5.046   2.966   4.376  0.8029 -0.4754  0.0058
  918MOL0     C26607   5.120   2.965   4.242 -0.7359  0.8323  0.4390
  918MOL0     C26608   5.275   2.952   4.264  0.3440 -0.0753 -0.5729
  918MOL0     C26609   5.369   2.938   4.142  0.8363 -0.0924  0.3759
  918MOL0     C26610   5.337   2.820   4.064 -0.1478 -0.0811 -1.0615
  918MOL0     C26611   5.299   2.730   3.992  0.6727  0.4305  0.4242
  918MOL0     C26612   5.112   3.268   4.579  0.5367  1.4858 -0.6377
  918MOL0     C26613   5.096   3.409   4.591 -0.1964  0.2806  0.4633
  918MOL0     C26614   5.131   3.476   4.718 -0.2443  0.0424  0.3064
  918MOL0     H26615   5.156   3.865   4.341  1.0365  3.5576  0.2356
  918MOL0     H26616   5.118   4.102   4.297  0.3072  0.3734 -2.1625
  918MOL0     H26617   4.790   4.378   4.221  1.4977  0.1463 -1.3085
  918MOL0     H26618   4.701   4.222   4.225  0.4175 -0.7627 -1.1016
  918MOL0     H26619   4.929   4.244   4.049 -0.0691 -1.8524  1.2967
  918MOL0     H26620   4.775   4.168   4.022  0.9843 -0.0919 -1.0662
  918MOL0     H26621   4.685   4.423   4.034 -0.4858 -2.2071  0.7435
  918MOL0     H26622   4.849   4.448   3.968 -3.2666  3.4439  1.4740
  918MOL0     H26623   4.768   4.288   3.780 -1.0510 -0.2246 -1.2328
  918MOL0     H26624   4.614   4.272   3.879  0.9948  0.5559  2.5799
  918MOL0     H26625   4.568   4.507   3.824 -2.0036  0.9595 -2.7169
  918MOL0     H26626   4.568   4.409   3.680 -0.5856  0.3309  0.8176
  918MOL0     H26627   4.796   4.584   3.782 -0.7639 -0.9721  1.2986
  918MOL0     H26628   4.795   4.476   3.638 -2.1654 -0.4902 -2.3645
  918MOL0     H26629   4.604   4.611   3.543  0.1856  1.1449 -2.2763
  918MOL0     H26630   4.741   4.719   3.577  1.6840 -0.7612  2.4307
  918MOL0     H26631   4.513   4.828   3.649 -0.1451  1.4753  1.7603
  918MOL0     H26632   4.512   4.701   3.763  2.3685 -4.4052 -2.1183
  918MOL0     H26633   4.864   4.826   3.757 -0.3916 -0.0940  0.6877
  918MOL0     H26634   4.919   5.055   4.076 -1.9298 -3.3166  1.4452
  918MOL0     H26635   4.927   5.114   3.906  0.1855 -0.0458  0.5830
  918MOL0     H26636   5.078   4.915   3.852  1.2824 -0.2929 -0.8635
  918MOL0     H26637   5.142   5.012   3.970 -2.5906  2.1692 -1.4349
  918MOL0     H26638   5.165   4.836   4.110 -1.7969  1.3368  2.3747
  918MOL0     H26639   4.987   4.847   4.119 -1.0472  3.4370 -2.8169
  918MOL0     H26640   5.031   4.625   4.062  0.7159  2.2957  1.0826
  918MOL0     H26641   4.979   4.707   3.906  1.1903 -0.9599 -1.9178
  918MOL0     H26642   5.175   4.400   3.827 -2.3056 -0.8794  1.6522
  918MOL0     H26643   5.211   4.122   3.964 -1.5051  1.5175  0.8934
  918MOL0     H26644   5.367   4.133   3.880 -2.4750 -2.3182 -1.5781
  918MOL0     H26645   5.223   4.203   3.806 -1.1095 -1.1591 -0.3420
  918MOL0     H26646   5.774   4.210   4.193  1.8477 -0.4586  0.8112
  918MOL0     H26647   5.920   4.039   4.270 -0.0508 -2.9346 -0.3707
  918MOL0     H26648   5.859   3.601   4.434  1.2414 -0.3019 -0.6478
  918MOL0     H26649   5.759   3.665   4.297  0.0241 -1.2082 -1.4498
  918MOL0     H26650   5.932   3.557   4.226 -1.0199 -0.3490  1.1337
  918MOL0     H26651   5.959   3.717   4.170  0.7512  0.3522 -1.1132
  918MOL0     H26652   6.123   3.553   4.358 -2.4503 -0.9676 -1.2269
  918MOL0     H26653   6.102   3.731   4.412 -0.8630  1.0732 -0.8412
  918MOL0     H26654   6.193   3.808   4.218 -0.5908 -0.4131  0.9158
  918MOL0     H26655   6.187   3.652   4.134  0.5067  1.7055 -0.8305
  918MOL0     H26656   6.417   3.729   4.218 -2.3412  0.3831 -0.6820
  918MOL0     H26657   6.357   3.732   4.385  0.5473 -1.7982  0.6680
  918MOL0     H26658   6.361   3.486   4.383  0.9510  0.3036  0.4852
  918MOL0     H26659   6.503   3.542   4.305  0.2420 -1.1721 -4.3117
  918MOL0     H26660   6.406   3.500   4.082  0.3580  0.8833  1.0205
  918MOL0     H26661   6.257   3.454   4.168  0.6277  0.4734 -1.4901
  918MOL0     H26662   6.386   3.271   4.291 -2.5017 -0.3719 -0.8134
  918MOL0     H26663   6.534   3.320   4.209 -0.9331  0.6418  2.2337
  918MOL0     H26664   5.603   3.833   4.466  1.4162 -1.3518 -1.4724
  918MOL0     H26665   5.454   4.027   4.400  0.3151  0.2551  2.2876
  918MOL0     H26666   5.408   4.486   4.263 -2.8891  0.1904  1.1974
  918MOL0     H26667   5.298   4.661   4.162 -1.0082 -0.6906  0.7996
  918MOL0     H26668   4.689   4.027   4.286  0.2756 -0.9766  0.2854
  918MOL0     H26669   4.719   3.800   4.309  0.0741  0.3319 -0.5111
  918MOL0     H26670   4.963   3.445   4.281 -0.4940 -2.0250 -0.1607
  918MOL0     H26671   4.964   3.199   4.286 -1.6499  1.5881  0.3203
  918MOL0     H26672   5.053   2.866   4.420 -1.0805  0.4540  2.6332
  918MOL0     H26673   4.943   2.978   4.343  0.3957  0.0284  1.4052
  918MOL0     H26674   5.089   3.045   4.175  0.1903  1.1303  0.3493
  918MOL0     H26675   5.096   2.871   4.191  3.5185 -1.3730  1.9819
  918MOL0     H26676   5.311   3.047   4.305  1.4949  0.9594 -3.7162
  918MOL0     H26677   5.279   2.862   4.326 -1.6046  0.4084  0.3408
  918MOL0     H26678   5.476   2.933   4.166  2.1981  0.5444 -4.4076
  918MOL0     H26679   5.363   3.030   4.082  2.8495  0.7907  1.3912
  918MOL0     H26680   5.271   2.644   3.935  0.6041 -1.7121  3.4363
  918MOL0     H26681   5.150   3.218   4.668 -0.2656 -1.4489 -1.8583
  918MOL0     H26682   5.050   3.514   4.781 -0.7370 -0.1868 -0.1780
  918MOL0     H26683   5.170   3.399   4.784 -0.4966  0.4930  0.9891
  918MOL0     H26684   5.193   3.561   4.691 -1.1027 -0.0211 -2.0946
  919MOL0     O26685  10.951   6.422   3.518  0.6827 -0.2770  0.5787
  919MOL0     C26686  10.987   6.309   3.556  0.3206  0.1510  0.4162
  919MOL0     O26687  10.930   6.245   3.667 -0.0548  0.2298  0.5605
  919MOL0     C26688  10.799   6.275   3.704 -0.2104  0.0721  0.0753
  919MOL0     C26689  10.750   6.410   3.725 -0.1185  0.2750 -0.7469
  919MOL0     C26690  10.628   6.431   3.800 -0.5089 -1.3274  0.7220
  919MOL0     C26691  10.566   6.317   3.853  0.5414 -0.8487  0.6700
  919MOL0     O26692  10.447   6.314   3.925  0.5370 -0.6385 -0.6850
  919MOL0     C26693  10.447   6.402   4.043 -0.0341  0.2191 -0.3653
  919MOL0     C26694  10.343   6.359   4.137  1.0221  0.8093  0.1306
  919MOL0     C26695  10.204   6.356   4.088  0.3534 -0.4841  0.5120
  919MOL0     C26696  10.169   6.500   4.053  0.6816  1.2137  0.7092
  919MOL0     C26697  10.026   6.522   3.999  0.2572  0.5702  0.1510
  919MOL0     C26698   9.909   6.490   4.092 -0.3425  1.0239 -0.4653
  919MOL0     C26699   9.775   6.531   4.036 -0.2896 -0.9472  1.6445
  919MOL0     C26700   9.664   6.513   4.137 -0.8257  0.5950  0.5698
  919MOL0     N26701   9.595   6.384   4.118 -0.1131 -0.1520  0.4763
  919MOL0     C26702   9.488   6.378   4.038  0.1793  0.3118 -0.1574
  919MOL0     C26703   9.452   6.254   4.021 -0.0623 -0.4116 -0.3417
  919MOL0     C26704   9.324   6.195   3.958  0.5408  0.3501  0.4742
  919MOL0     C26705   9.344   6.129   3.823 -0.1076 -0.6551  0.6852
  919MOL0     C26706   9.289   6.207   3.705 -0.3128  0.1663 -0.9708
  919MOL0     C26707   9.327   6.359   3.707 -0.2717  1.2919 -0.5462
  919MOL0     O26708   9.464   6.359   3.656  0.5103  0.0992  0.0980
  919MOL0     C26709   9.550   6.465   3.659 -0.7219 -0.5539 -0.4621
  919MOL0     C26710   9.649   6.453   3.564  0.0879 -0.0937  0.1036
  919MOL0     C26711   9.754   6.549   3.558  0.2176  0.6174 -0.2805
  919MOL0     C26712   9.867   6.512   3.478  0.3918 -0.1279  0.9339
  919MOL0     C26713   9.748   6.666   3.644  1.0171  0.4147 -0.6652
  919MOL0     C26714   9.854   6.764   3.642 -0.3820 -0.6643 -0.8681
  919MOL0     O26715   9.888   6.827   3.520 -0.5806 -0.7231 -0.2656
  919MOL0     C26716   9.991   6.920   3.516 -0.0632  0.2380 -0.4855
  919MOL0     C26717  10.117   6.909   3.575 -0.6208 -0.7865 -0.6477
  919MOL0     C26718  10.214   7.015   3.555 -0.3863  0.9985  0.0876
  919MOL0     C26719  10.187   7.128   3.477  0.4594 -0.9993 -1.0078
  919MOL0     O26720  10.293   7.212   3.457 -0.0281 -0.3529  0.8546
  919MOL0     C26721  10.253   7.350   3.419 -0.7181 -0.0989 -0.1376
  919MOL0     C26722  10.389   7.430   3.397  0.0462  0.4204 -0.0138
  919MOL0     C26723  10.361   7.574   3.364 -0.0218 -0.1383 -0.0614
  919MOL0     C26724  10.326   7.642   3.496 -0.9617 -0.1221  0.2817
  919MOL0     C26725  10.300   7.793   3.469  0.0345  0.4779  0.9954
  919MOL0     C26726  10.439   7.865   3.487  0.8665  0.8516 -0.1791
  919MOL0     C26727  10.415   8.015   3.454 -0.2248 -0.4684  0.2474
  919MOL0     C26728  10.551   8.089   3.463 -0.5707  0.7181 -0.3676
  919MOL0    Cl26729  10.617   8.089   3.638  0.4578  0.0564 -0.3826
  919MOL0     C26730  10.058   7.151   3.434 -0.5651  0.9409  0.3604
  919MOL0     C26731   9.961   7.046   3.454 -0.4736  0.6016 -0.5702
  919MOL0     O26732   9.897   6.802   3.753  0.2958  0.5763  0.2347
  919MOL0     C26733   9.634   6.680   3.726  0.6118 -0.5506  0.6101
  919MOL0     C26734   9.531   6.585   3.736  0.4950  0.2182 -1.1727
  919MOL0     N26735   9.556   6.173   4.074  0.0573 -0.0901 -0.0605
  919MOL0     N26736   9.637   6.259   4.139  0.2390  0.5030  0.4167
  919MOL0     C26737  10.615   6.186   3.825  0.5370 -0.5960 -0.9597
  919MOL0     C26738  10.729   6.165   3.759  0.1860 -0.2859 -0.8003
  919MOL0     C26739  11.106   6.245   3.496 -0.2812  0.2771 -0.4887
  919MOL0     C26740  11.170   6.145   3.573 -0.2383 -0.3653 -0.7564
  919MOL0     C26741  11.297   6.092   3.541 -0.1577 -0.6407  0.0651
  919MOL0     C26742  11.353   6.132   3.419 -0.2094  0.4410  0.3446
  919MOL0     O26743  11.469   6.085   3.365  0.0535  0.2113 -0.7250
  919MOL0     C26744  11.556   6.028   3.462  0.2698 -0.3330  0.5734
  919MOL0     C26745  11.696   6.005   3.410 -0.2995  0.4649 -0.4040
  919MOL0     C26746  11.779   5.931   3.510  0.2408  0.2920 -0.6964
  919MOL0     C26747  11.936   5.921   3.467 -0.5259 -0.4078 -0.5345
  919MOL0     C26748  11.996   6.053   3.455  1.3126 -0.2170 -0.3040
  919MOL0     C26749  12.042   6.168   3.441 -0.0012  0.5541 -0.0016
  919MOL0     C26750  11.292   6.229   3.339  0.0219  0.3606 -0.5052
  919MOL0     C26751  11.169   6.290   3.383  0.2750  0.6383  2.0740
  919MOL0     C26752  11.097   6.389   3.289  0.1102  0.3357  0.7497
  919MOL0     H26753  10.807   6.495   3.689 -0.3140  1.0850  0.7809
  919MOL0     H26754  10.587   6.527   3.829 -1.7306 -1.8257  0.7004
  919MOL0     H26755  10.431   6.509   4.027 -0.6569  0.6417  2.4837
  919MOL0     H26756  10.535   6.395   4.108 -1.4778  1.8044  1.8926
  919MOL0     H26757  10.358   6.255   4.167 -2.2896 -0.2819 -1.5306
  919MOL0     H26758  10.350   6.422   4.226  0.3178  0.6624  0.2959
  919MOL0     H26759  10.189   6.277   4.014 -0.5744 -1.1523  1.3797
  919MOL0     H26760  10.138   6.332   4.172  2.4950  3.6709  3.7782
  919MOL0     H26761  10.187   6.571   4.134  3.4381  0.4778  0.8384
  919MOL0     H26762  10.227   6.527   3.965  0.8637  1.1870  0.8211
  919MOL0     H26763   9.996   6.457   3.916 -3.2525 -0.3639  1.9416
  919MOL0     H26764  10.025   6.627   3.970 -0.1476  0.0717 -1.8489
  919MOL0     H26765   9.896   6.384   4.112  0.7962  1.2611  1.7339
  919MOL0     H26766   9.920   6.535   4.191  0.3630  0.2058 -0.1679
  919MOL0     H26767   9.743   6.468   3.953  2.8245 -2.4435  1.4245
  919MOL0     H26768   9.777   6.635   4.002 -4.3212 -0.8945  1.0137
  919MOL0     H26769   9.711   6.502   4.235 -0.3851 -0.0857  0.2920
  919MOL0     H26770   9.602   6.603   4.130 -1.2966  0.2499  0.2332
  919MOL0     H26771   9.431   6.468   4.017  0.2016  0.0742 -1.2774
  919MOL0     H26772   9.248   6.273   3.954 -1.1828 -1.2018  1.6587
  919MOL0     H26773   9.298   6.117   4.030  0.6361 -0.0404  0.0890
  919MOL0     H26774   9.451   6.115   3.803  0.4720  3.0834  0.5035
  919MOL0     H26775   9.294   6.032   3.829  1.3455 -1.3658  2.5064
  919MOL0     H26776   9.326   6.160   3.613  0.8386 -2.1633  0.5643
  919MOL0     H26777   9.181   6.196   3.711 -0.4104  1.7306  2.0800
  919MOL0     H26778   9.263   6.416   3.638 -0.2922  0.7293 -0.9948
  919MOL0     H26779   9.332   6.393   3.811  0.5729 -2.2829  0.7128
  919MOL0     H26780   9.645   6.367   3.497  0.3263 -1.5154  1.8408
  919MOL0     H26781   9.859   6.408   3.443  1.3015  0.5828 -1.5872
  919MOL0     H26782   9.958   6.527   3.536 -0.1456 -0.3029  1.8464
  919MOL0     H26783   9.868   6.572   3.387  3.9399 -1.1487  0.1555
  919MOL0     H26784  10.130   6.816   3.630 -0.4272 -0.5810 -0.3445
  919MOL0     H26785  10.320   7.002   3.576 -1.1252 -3.0944  2.2347
  919MOL0     H26786  10.206   7.354   3.321 -0.7381 -1.5163 -0.2123
  919MOL0     H26787  10.193   7.390   3.502 -0.1914 -2.2153  1.3567
  919MOL0     H26788  10.449   7.428   3.488  1.4305 -2.6814 -0.8620
  919MOL0     H26789  10.445   7.381   3.318 -0.6268 -0.4075  0.0065
  919MOL0     H26790  10.278   7.587   3.295 -1.2677  0.2319  1.4539
  919MOL0     H26791  10.449   7.627   3.326 -0.0189 -0.7915 -0.9848
  919MOL0     H26792  10.394   7.618   3.577  0.9120  0.5830 -1.0230
  919MOL0     H26793  10.225   7.610   3.525 -0.9782 -1.0138 -0.7017
  919MOL0     H26794  10.248   7.794   3.373 -1.0286 -3.3546  1.3575
  919MOL0     H26795  10.238   7.836   3.548 -0.1470  2.9526 -0.3860
  919MOL0     H26796  10.518   7.818   3.429  4.0674  0.1589  4.2617
  919MOL0     H26797  10.463   7.858   3.594 -0.5987 -1.3363  0.0705
  919MOL0     H26798  10.342   8.061   3.521 -0.7275  1.6617 -1.6425
  919MOL0     H26799  10.389   8.029   3.349 -1.7548  1.9941  0.8838
  919MOL0     H26800  10.552   8.189   3.420 -0.5037  1.4836  1.3440
  919MOL0     H26801  10.627   8.027   3.414 -0.2653 -0.5370  1.5447
  919MOL0     H26802  10.035   7.224   3.357  2.7634  1.0233 -0.7123
  919MOL0     H26803   9.869   7.067   3.401 -3.6047  2.6447  4.7958
  919MOL0     H26804   9.625   6.765   3.792 -1.3002 -1.1685  1.2103
  919MOL0     H26805   9.447   6.620   3.795 -1.8792 -1.2939 -3.4158
  919MOL0     H26806  10.552   6.102   3.853  0.3036  0.1761  0.9896
  919MOL0     H26807  10.768   6.064   3.758 -1.2141 -0.8459 -0.7832
  919MOL0     H26808  11.122   6.101   3.659 -1.3232 -0.3379 -1.3275
  919MOL0     H26809  11.339   6.015   3.605  1.1332  0.2569  0.3301
  919MOL0     H26810  11.563   6.087   3.554 -0.3143 -0.1587  0.5056
  919MOL0     H26811  11.516   5.929   3.486 -1.2213  0.4669  1.5571
  919MOL0     H26812  11.747   6.097   3.381 -0.4964 -0.0359 -2.5244
  919MOL0     H26813  11.704   5.941   3.321  2.7690 -4.3770  2.8411
  919MOL0     H26814  11.758   5.973   3.608  1.6281 -1.3721  0.3807
  919MOL0     H26815  11.745   5.828   3.525  1.5624 -0.0760 -0.1350
  919MOL0     H26816  11.941   5.881   3.365  2.6231 -0.8118 -0.2878
  919MOL0     H26817  12.001   5.876   3.542  1.3841  2.0446 -0.5640
  919MOL0     H26818  12.069   6.271   3.430  0.8107  0.3083 -0.3758
  919MOL0     H26819  11.358   6.258   3.258 -0.6624  1.4107 -0.7146
  919MOL0     H26820  10.992   6.367   3.271 -0.7550  3.5482  1.3279
  919MOL0     H26821  11.100   6.489   3.334 -1.6894  0.3105  0.9912
  919MOL0     H26822  11.149   6.394   3.193 -2.8608 -0.4639 -1.0247
  920MOL0     O26823  10.933   6.998   0.699  0.4521  0.5994  0.5910
  920MOL0     C26824  10.865   7.039   0.605 -0.1224  0.5954  0.5686
  920MOL0     O26825  10.887   7.021   0.469 -0.0873  0.4249  0.8168
  920MOL0     C26826  11.006   6.980   0.415  1.4071 -0.0812  0.6603
  920MOL0     C26827  11.058   7.053   0.306  0.4173  0.4912  0.0788
  920MOL0     C26828  11.169   6.998   0.240 -0.9656  0.2835  0.0103
  920MOL0     C26829  11.232   6.881   0.272 -0.1346 -1.0536  0.4035
  920MOL0     O26830  11.347   6.848   0.211  0.0409  0.2788 -0.0802
  920MOL0     C26831  11.369   6.703   0.187 -0.4897  0.3401  0.3841
  920MOL0     C26832  11.495   6.699   0.102  0.2643 -1.0163  0.2099
  920MOL0     C26833  11.635   6.687   0.168  0.7192 -1.0015 -0.2581
  920MOL0     C26834  11.680   6.810   0.265  1.0360 -0.1301 -0.2626
  920MOL0     C26835  11.782   6.769   0.370  0.6448 -0.0179 -0.9894
  920MOL0     C26836  11.903   6.696   0.315 -0.2631 -0.1431 -0.4858
  920MOL0     C26837  12.002   6.797   0.255  0.9008  0.1453 -0.0625
  920MOL0     C26838  12.121   6.725   0.191  0.5650 -0.7041  0.4878
  920MOL0     N26839  12.198   6.818   0.104 -0.1668 -0.1590 -0.3827
  920MOL0     C26840  12.322   6.784   0.056 -0.7703  0.0098  0.4811
  920MOL0     C26841  12.359   6.892  -0.023  0.5078 -0.3675 -0.4122
  920MOL0     C26842  12.475   6.939  -0.103  0.7787 -0.9835  0.0257
  920MOL0     C26843  12.481   6.873  -0.236  0.5124 -0.0011  0.7879
  920MOL0     C26844  12.384   6.937  -0.334  0.6284 -0.0916  0.3081
  920MOL0     C26845  12.373   7.088  -0.345 -0.3371 -1.2794 -0.1686
  920MOL0     O26846  12.509   7.129  -0.384 -0.5484  0.0688 -0.9795
  920MOL0     C26847  12.527   7.234  -0.475 -0.4274  0.6812  0.9583
  920MOL0     C26848  12.657   7.281  -0.505 -1.2278 -0.1020 -0.4807
  920MOL0     C26849  12.689   7.375  -0.608  0.4695 -0.8461 -0.7606
  920MOL0     C26850  12.838   7.413  -0.637 -0.3711  0.2942  0.2027
  920MOL0     C26851  12.581   7.455  -0.662  0.5360  1.1040 -0.2845
  920MOL0     C26852  12.591   7.580  -0.734 -0.5965 -0.1051  1.0145
  920MOL0     O26853  12.478   7.651  -0.738 -0.3273 -0.1620  0.1572
  920MOL0     C26854  12.477   7.779  -0.781  0.1279  0.4101  0.1189
  920MOL0     C26855  12.443   7.882  -0.688 -0.2008 -0.5808  0.0939
  920MOL0     C26856  12.449   8.015  -0.723 -0.2220 -0.3864  0.1689
  920MOL0     C26857  12.486   8.056  -0.852  0.1698 -0.9900  0.3967
  920MOL0     O26858  12.474   8.186  -0.889 -0.3058 -0.0914 -0.5964
  920MOL0     C26859  12.582   8.236  -0.980  0.2231  0.6948  0.4714
  920MOL0     C26860  12.554   8.381  -1.013  0.1713  0.3422  0.5059
  920MOL0     C26861  12.601   8.464  -0.885 -0.7255  0.3896  0.4106
  920MOL0     C26862  12.590   8.614  -0.902  1.1320 -0.8696 -0.5102
  920MOL0     C26863  12.617   8.691  -0.770 -0.5210 -0.2612 -0.4620
  920MOL0     C26864  12.613   8.853  -0.772 -0.5044 -0.0103  0.3611
  920MOL0     C26865  12.469   8.910  -0.793  0.1763 -0.5302 -0.8434
  920MOL0     C26866  12.469   9.059  -0.754 -0.4655 -0.3884 -0.8767
  920MOL0    Cl26867  12.310   9.120  -0.799  0.5009 -0.3219 -0.4659
  920MOL0     C26868  12.507   7.955  -0.943  0.5632 -0.0135  0.4874
  920MOL0     C26869  12.497   7.822  -0.909  0.1134  0.0165 -0.6907
  920MOL0     O26870  12.702   7.631  -0.772  0.0900 -0.5827  0.2310
  920MOL0     C26871  12.449   7.408  -0.638 -0.1911 -0.7758  0.4454
  920MOL0     C26872  12.421   7.305  -0.542 -0.3981  0.4090  0.1329
  920MOL0     N26873  12.254   6.990  -0.015  0.0501  0.2850 -0.1555
  920MOL0     N26874  12.165   6.940   0.062  0.1626 -0.9763  0.0859
  920MOL0     C26875  11.184   6.826   0.396 -0.7453  0.4481  0.6777
  920MOL0     C26876  11.071   6.866   0.463 -0.6468 -1.4031  0.2559
  920MOL0     C26877  10.736   7.092   0.638  0.7820  0.2805  0.1653
  920MOL0     C26878  10.676   7.033   0.750 -0.4080 -0.6087 -0.1240
  920MOL0     C26879  10.550   7.078   0.791 -0.3045 -0.8375 -0.1555
  920MOL0     C26880  10.476   7.171   0.725 -0.5397  0.0114 -0.1758
  920MOL0     O26881  10.358   7.207   0.795 -0.3441  0.1252  0.0164
  920MOL0     C26882  10.249   7.257   0.720 -0.4067 -0.2369 -0.3110
  920MOL0     C26883  10.119   7.273   0.796  0.4658  0.0289  0.9971
  920MOL0     C26884  10.108   7.416   0.834  0.3550  0.2592  0.3617
  920MOL0     C26885   9.987   7.436   0.932 -0.0678  0.4401 -0.2248
  920MOL0     C26886   9.909   7.561   0.909 -0.0051 -0.2353 -0.5585
  920MOL0     C26887   9.856   7.664   0.911 -0.5274 -0.7956  0.6054
  920MOL0     C26888  10.535   7.226   0.617  0.1770 -0.2525  0.8402
  920MOL0     C26889  10.666   7.198   0.578  0.4751  0.5820  0.0885
  920MOL0     C26890  10.732   7.280   0.466  0.2579  0.2645 -0.9928
  920MOL0     H26891  11.009   7.147   0.283 -1.0496 -0.1749  0.3662
  920MOL0     H26892  11.216   7.046   0.155 -0.9672 -2.9639 -1.9981
  920MOL0     H26893  11.298   6.650   0.124  3.1314 -0.4568 -3.4734
  920MOL0     H26894  11.374   6.653   0.284  0.6721 -0.3734 -0.0114
  920MOL0     H26895  11.477   6.608   0.043 -0.7990  1.1323 -2.9940
  920MOL0     H26896  11.500   6.788   0.039 -0.8451 -1.7601 -0.9846
  920MOL0     H26897  11.627   6.595   0.228  1.1768 -1.7124 -1.2578
  920MOL0     H26898  11.718   6.666   0.100  1.9113 -1.7240  1.3596
  920MOL0     H26899  11.718   6.894   0.206 -0.7553  1.0441  0.1664
  920MOL0     H26900  11.591   6.853   0.313  0.9478 -3.3874  2.9347
  920MOL0     H26901  11.724   6.701   0.434  0.2204 -2.4709 -3.7495
  920MOL0     H26902  11.813   6.860   0.422 -1.4719 -0.0375  0.4346
  920MOL0     H26903  11.952   6.641   0.396 -2.7652 -1.2849  0.3354
  920MOL0     H26904  11.883   6.617   0.241  0.0452 -2.2635  1.5804
  920MOL0     H26905  12.026   6.870   0.333 -2.3896 -0.3422  1.6328
  920MOL0     H26906  11.947   6.848   0.175  1.3859  0.3535 -0.2619
  920MOL0     H26907  12.183   6.676   0.266  3.5238 -0.8801 -1.8733
  920MOL0     H26908  12.090   6.652   0.116 -0.5976  1.4314 -1.2325
  920MOL0     H26909  12.383   6.697   0.079 -0.0288  0.6052  0.7975
  920MOL0     H26910  12.565   6.921  -0.043  0.5481  3.5827  2.1682
  920MOL0     H26911  12.479   7.048  -0.104  2.2789 -1.0099 -1.8176
  920MOL0     H26912  12.578   6.882  -0.286  0.1490 -2.1813 -0.4678
  920MOL0     H26913  12.470   6.765  -0.222  0.4595 -0.6277 -3.0907
  920MOL0     H26914  12.403   6.892  -0.432 -1.5018 -0.2402 -0.0697
  920MOL0     H26915  12.282   6.909  -0.307  0.2421  0.5528 -0.4382
  920MOL0     H26916  12.294   7.100  -0.420  0.2498  2.2792 -0.3538
  920MOL0     H26917  12.336   7.135  -0.254 -1.9605 -2.4572 -0.1807
  920MOL0     H26918  12.731   7.240  -0.438 -3.5799 -2.4823  0.8502
  920MOL0     H26919  12.854   7.500  -0.573 -2.3810  0.8021  0.0822
  920MOL0     H26920  12.870   7.427  -0.740  0.8043 -2.3672  0.1248
  920MOL0     H26921  12.908   7.337  -0.603 -0.6254 -2.0489 -3.8856
  920MOL0     H26922  12.417   7.858  -0.585  1.4002 -2.7853  0.0534
  920MOL0     H26923  12.404   8.091  -0.660 -0.3695 -1.0115  0.8366
  920MOL0     H26924  12.680   8.219  -0.934 -1.1244 -1.0545  2.9634
  920MOL0     H26925  12.593   8.193  -1.079  3.7426 -3.5874  2.4067
  920MOL0     H26926  12.616   8.416  -1.096  1.4123 -3.0080 -0.1429
  920MOL0     H26927  12.453   8.413  -1.041  0.0868  1.1693  1.6908
  920MOL0     H26928  12.702   8.444  -0.849 -1.6657 -0.1206  2.9299
  920MOL0     H26929  12.537   8.435  -0.801 -2.9712  1.0472 -0.9788
  920MOL0     H26930  12.485   8.638  -0.916  0.6152 -1.8605  1.3683
  920MOL0     H26931  12.649   8.665  -0.979  0.0569  0.0578 -0.7497
  920MOL0     H26932  12.560   8.662  -0.681 -0.8017 -0.8528 -0.8296
  920MOL0     H26933  12.722   8.669  -0.748  0.0920  2.3038 -0.5064
  920MOL0     H26934  12.681   8.880  -0.853 -1.1160  0.4758 -0.0038
  920MOL0     H26935  12.658   8.886  -0.678  4.2267  0.6909 -1.8630
  920MOL0     H26936  12.400   8.845  -0.739  1.7628 -2.2520 -0.7849
  920MOL0     H26937  12.432   8.892  -0.894  0.5202 -1.0973 -0.8703
  920MOL0     H26938  12.551   9.112  -0.804  1.9648 -2.3298  0.8174
  920MOL0     H26939  12.489   9.063  -0.647 -3.5338 -2.1372 -0.1131
  920MOL0     H26940  12.535   7.996  -1.039  3.2512  0.0207  1.1869
  920MOL0     H26941  12.533   7.758  -0.989  0.1620  0.3029 -0.9012
  920MOL0     H26942  12.357   7.446  -0.680 -1.4565 -1.0318  2.8583
  920MOL0     H26943  12.319   7.270  -0.534 -0.7361  0.3753 -3.2202
  920MOL0     H26944  11.245   6.751   0.445 -0.2136 -0.2328 -0.9618
  920MOL0     H26945  11.047   6.816   0.556 -1.3011 -2.0952 -0.2687
  920MOL0     H26946  10.729   6.958   0.809  5.1612  1.9889 -1.1700
  920MOL0     H26947  10.512   7.045   0.887 -3.7000  3.5298  0.2808
  920MOL0     H26948  10.281   7.348   0.668  2.9950 -0.3864  1.2917
  920MOL0     H26949  10.232   7.189   0.635 -2.4371  0.5512 -0.6001
  920MOL0     H26950  10.119   7.219   0.891 -1.6509 -1.9398 -0.0288
  920MOL0     H26951  10.038   7.241   0.731  3.4863 -1.6006 -2.2930
  920MOL0     H26952  10.200   7.436   0.889  1.8665 -0.2561 -1.8273
  920MOL0     H26953  10.094   7.484   0.749 -0.1367  0.8280  0.8813
  920MOL0     H26954  10.023   7.422   1.035 -2.8115 -0.8236  0.6634
  920MOL0     H26955   9.914   7.355   0.922  1.6996 -1.2570 -0.0938
  920MOL0     H26956   9.792   7.749   0.900  2.4970  1.8063  1.6697
  920MOL0     H26957  10.483   7.307   0.567  1.3507 -0.0471 -0.0820
  920MOL0     H26958  10.822   7.335   0.498 -1.0199  0.2041  3.4712
  920MOL0     H26959  10.755   7.205   0.390 -1.9149 -1.2193 -0.2879
  920MOL0     H26960  10.650   7.342   0.427 -0.9045 -1.0964 -0.7845
  921MOL0     O26961  10.545   8.890   9.579 -0.5893  0.3620 -0.1401
  921MOL0     C26962  10.456   8.805   9.565 -0.1819 -0.5477 -0.3261
  921MOL0     O26963  10.481   8.673   9.556  0.3091  0.0732  0.3637
  921MOL0     C26964  10.605   8.641   9.584  0.4271 -0.0922 -0.0146
  921MOL0     C26965  10.641   8.558   9.695 -0.0729 -1.5414  0.1890
  921MOL0     C26966  10.772   8.515   9.707  0.4963 -0.9187 -1.0988
  921MOL0     C26967  10.874   8.553   9.624  0.5702 -0.6570  0.2648
  921MOL0     O26968  10.999   8.516   9.662  0.2186  0.8968 -0.6713
  921MOL0     C26969  11.101   8.519   9.565 -0.1205  0.2041 -0.6471
  921MOL0     C26970  11.233   8.464   9.618 -0.4213 -0.2029  0.1001
  921MOL0     C26971  11.352   8.494   9.524 -1.1276 -0.2646 -0.2156
  921MOL0     C26972  11.355   8.420   9.383 -0.4364 -0.1180  0.4781
  921MOL0     C26973  11.347   8.265   9.392  0.2403  0.7364  0.1311
  921MOL0     C26974  11.323   8.180   9.257  0.6387 -0.2934 -0.0169
  921MOL0     C26975  11.277   8.031   9.278 -0.1838  0.3415  0.9756
  921MOL0     C26976  11.144   8.010   9.344 -0.0399 -0.1979  0.1421
  921MOL0     N26977  11.160   8.024   9.494 -0.3777  0.4657 -0.6357
  921MOL0     C26978  11.264   7.989   9.577  0.1422 -0.7293 -0.2548
  921MOL0     C26979  11.232   8.052   9.697  0.2974  0.9400  0.4272
  921MOL0     C26980  11.327   8.057   9.815  0.5363 -0.2172 -0.3819
  921MOL0     C26981  11.351   8.204   9.867  0.2175 -0.7793 -0.0102
  921MOL0     C26982  11.460   8.212   9.985  0.1490 -0.2642 -0.4434
  921MOL0     C26983  11.411   8.229  10.125  0.0700  0.1064 -1.2257
  921MOL0     O26984  11.319   8.123  10.177 -0.0951  0.3439  0.0309
  921MOL0     C26985  11.238   8.163  10.284  0.6206 -0.7347 -0.2599
  921MOL0     C26986  11.195   8.050  10.361 -0.2756 -0.3287  0.0911
  921MOL0     C26987  11.116   8.058  10.476  0.8215 -0.4435  0.0722
  921MOL0     C26988  11.090   7.925  10.542 -0.4891 -0.0192 -0.4888
  921MOL0     C26989  11.069   8.183  10.518 -0.5413 -0.2665 -0.8735
  921MOL0     C26990  10.977   8.204  10.634 -0.3867 -0.4587  0.4435
  921MOL0     O26991  10.888   8.306  10.608 -0.6531  0.6291 -0.3364
  921MOL0     C26992  10.796   8.341  10.705 -0.3806 -0.4346 -0.0458
  921MOL0     C26993  10.826   8.395  10.832  0.2600 -0.0930  0.1721
  921MOL0     C26994  10.723   8.452  10.911 -0.0400  1.0617 -0.7911
  921MOL0     C26995  10.584   8.422  10.890 -0.1997 -0.7402 -0.2759
  921MOL0     O26996  10.489   8.458  10.983  0.2589  0.6644 -0.0294
  921MOL0     C26997  10.343   8.462  10.954 -0.0226  0.4603  0.2037
  921MOL0     C26998  10.283   8.600  10.994  0.7942 -0.0567  0.4894
  921MOL0     C26999  10.134   8.624  10.965 -0.0714 -0.6647 -0.8934
  921MOL0     C27000  10.087   8.618  10.818 -0.9254  0.4818 -0.5003
  921MOL0     C27001   9.943   8.660  10.815  0.1806 -0.1682 -0.4026
  921MOL0     C27002   9.888   8.690  10.681  0.0497 -0.2515  0.2125
  921MOL0     C27003   9.987   8.756  10.577  0.5037 -0.7951  0.5442
  921MOL0     C27004   9.895   8.785  10.448 -0.7927 -0.6822  0.1726
  921MOL0    Cl27005  10.003   8.877  10.334  0.0833 -0.1336 -0.1592
  921MOL0     C27006  10.548   8.364  10.767 -0.6317 -0.1852 -0.0505
  921MOL0     C27007  10.659   8.331  10.677 -0.4134  0.3382  0.0512
  921MOL0     O27008  10.980   8.130  10.729 -0.2008 -0.4649  0.0437
  921MOL0     C27009  11.107   8.294  10.440 -0.7017  0.2471  0.7597
  921MOL0     C27010  11.186   8.289  10.323  0.0928 -0.3960 -0.7161
  921MOL0     N27011  11.110   8.121   9.682  0.4455  0.1031 -0.5806
  921MOL0     N27012  11.068   8.095   9.565 -0.0150  0.0627  1.6394
  921MOL0     C27013  10.839   8.636   9.520 -0.0699 -1.0358 -0.7124
  921MOL0     C27014  10.705   8.676   9.495 -0.0088  0.7061  0.0189
  921MOL0     C27015  10.311   8.849   9.557 -0.8718 -0.6881  0.0474
  921MOL0     C27016  10.219   8.756   9.492 -0.0269  0.2136 -0.3637
  921MOL0     C27017  10.085   8.781   9.468  1.0087  0.1456  0.1999
  921MOL0     C27018  10.037   8.901   9.513 -0.3516 -0.5139  0.2081
  921MOL0     O27019   9.908   8.919   9.487  0.9273  0.3821 -0.2657
  921MOL0     C27020   9.817   8.965   9.593  0.0862 -1.3049 -0.2114
  921MOL0     C27021   9.674   8.970   9.558  0.4308  0.6179  0.3071
  921MOL0     C27022   9.639   8.836   9.484 -0.3344 -0.2790 -0.2109
  921MOL0     C27023   9.685   8.706   9.559 -0.4762  0.2282  0.3728
  921MOL0     C27024   9.646   8.587   9.479  1.6220 -0.0406  0.3479
  921MOL0     C27025   9.602   8.501   9.410  0.0135 -0.7103 -0.8374
  921MOL0     C27026  10.115   8.995   9.573 -0.6481 -0.9478 -0.2751
  921MOL0     C27027  10.258   8.971   9.595  1.4688 -0.4440  0.6249
  921MOL0     C27028  10.336   9.082   9.664  0.6062  0.0062 -0.2951
  921MOL0     H27029  10.558   8.534   9.762 -1.7909 -0.2697 -1.3746
  921MOL0     H27030  10.794   8.453   9.793 -1.4153  4.4105  3.8735
  921MOL0     H27031  11.111   8.627   9.548  0.8692 -0.1079 -2.2764
  921MOL0     H27032  11.079   8.457   9.478 -2.1990 -0.5980  0.3872
  921MOL0     H27033  11.263   8.523   9.705  0.7171 -0.0920 -0.3567
  921MOL0     H27034  11.224   8.357   9.643 -1.8477 -0.6823 -2.2021
  921MOL0     H27035  11.365   8.601   9.508  0.6373 -0.5623 -0.9794
  921MOL0     H27036  11.444   8.462   9.575  0.1319  0.4313 -1.9569
  921MOL0     H27037  11.266   8.451   9.327 -0.1169  1.5304  0.8388
  921MOL0     H27038  11.445   8.446   9.325  1.2373  0.0511  3.0093
  921MOL0     H27039  11.266   8.245   9.463  1.9641  0.8136  2.2329
  921MOL0     H27040  11.441   8.231   9.436  0.8838  1.6980 -0.4668
  921MOL0     H27041  11.241   8.237   9.211  0.9091  0.5224  0.4983
  921MOL0     H27042  11.417   8.190   9.202  1.4678 -1.2301  1.1797
  921MOL0     H27043  11.345   7.971   9.339 -1.0903  0.7260  2.4052
  921MOL0     H27044  11.269   7.993   9.175  2.3479  1.1641  0.4062
  921MOL0     H27045  11.083   8.096   9.313  2.1448  1.0772 -0.8358
  921MOL0     H27046  11.109   7.913   9.306  1.4611 -0.5946 -0.2743
  921MOL0     H27047  11.351   7.925   9.566  0.2892 -0.6243  0.2365
  921MOL0     H27048  11.430   8.027   9.791  2.1729  1.6871  3.4802
  921MOL0     H27049  11.295   7.999   9.902 -2.3436  2.9230  0.8364
  921MOL0     H27050  11.381   8.263   9.780 -1.4691 -1.4212 -1.0904
  921MOL0     H27051  11.264   8.245   9.918  0.9333  0.8473 -0.0657
  921MOL0     H27052  11.529   8.127   9.983  1.1249  0.5056 -0.5654
  921MOL0     H27053  11.532   8.293   9.969  0.5231 -0.4860  0.0636
  921MOL0     H27054  11.501   8.236  10.187 -0.0364 -0.7287 -0.9571
  921MOL0     H27055  11.365   8.328  10.134  2.5029  1.1511  1.2893
  921MOL0     H27056  11.214   7.950  10.323 -1.7159 -0.2614 -0.8989
  921MOL0     H27057  10.986   7.895  10.526  0.5314 -2.9652 -2.2522
  921MOL0     H27058  11.121   7.935  10.647  1.8091  1.8840 -1.2698
  921MOL0     H27059  11.154   7.842  10.512 -1.6552 -1.6240  1.1814
  921MOL0     H27060  10.930   8.421  10.851  0.2817 -1.5337  2.3053
  921MOL0     H27061  10.750   8.499  11.005  1.4982 -0.6352 -0.3277
  921MOL0     H27062  10.313   8.438  10.852  1.6831 -0.4306 -0.1239
  921MOL0     H27063  10.297   8.388  11.020 -0.0644  0.0924 -0.2316
  921MOL0     H27064  10.297   8.618  11.101  3.5019 -1.6387  0.4750
  921MOL0     H27065  10.337   8.675  10.935  1.1946 -1.6435 -1.2563
  921MOL0     H27066  10.104   8.720  11.009 -5.3329 -3.4630  2.6562
  921MOL0     H27067  10.082   8.552  11.028 -0.9255 -0.4215 -1.3092
  921MOL0     H27068  10.100   8.516  10.780 -1.8030  0.0993  0.1747
  921MOL0     H27069  10.151   8.686  10.762  0.2176 -0.9106 -0.9325
  921MOL0     H27070   9.889   8.573  10.855  1.7346 -1.0184 -0.1004
  921MOL0     H27071   9.916   8.743  10.882 -1.6866 -0.9036 -0.1836
  921MOL0     H27072   9.803   8.756  10.700 -1.8045 -1.6065 -2.6389
  921MOL0     H27073   9.860   8.599  10.627 -1.1598  1.7108 -2.6899
  921MOL0     H27074  10.072   8.691  10.556 -0.6574 -1.6024 -2.1391
  921MOL0     H27075  10.029   8.846  10.623  0.5421  2.4822 -5.0645
  921MOL0     H27076   9.802   8.834  10.478  0.5408  2.9165 -1.0640
  921MOL0     H27077   9.876   8.690  10.397  2.6814 -1.1133 -0.5954
  921MOL0     H27078  10.445   8.332  10.755  0.2327 -2.8218 -1.3482
  921MOL0     H27079  10.620   8.286  10.586 -1.5509 -0.2857  0.8102
  921MOL0     H27080  11.059   8.391  10.456 -2.2517 -0.3187 -0.2929
  921MOL0     H27081  11.206   8.386  10.277  0.9373  0.4363  1.2662
  921MOL0     H27082  10.913   8.684   9.457  1.4165  0.1818  1.8175
  921MOL0     H27083  10.677   8.729   9.404 -1.1111 -1.7180 -1.1552
  921MOL0     H27084  10.253   8.657   9.464 -2.5547 -0.5484 -1.0098
  921MOL0     H27085  10.022   8.705   9.421 -0.2353  0.4417  1.3109
  921MOL0     H27086   9.841   8.912   9.685  1.5566  2.1697  1.6161
  921MOL0     H27087   9.843   9.071   9.606 -2.4774 -0.5474 -0.6269
  921MOL0     H27088   9.652   9.057   9.495 -4.4903 -1.0177 -0.6623
  921MOL0     H27089   9.619   8.971   9.653  3.2954 -1.0624  2.1409
  921MOL0     H27090   9.531   8.839   9.465 -0.1394  0.5792 -1.3665
  921MOL0     H27091   9.696   8.839   9.391 -0.7395 -4.8121 -0.8026
  921MOL0     H27092   9.640   8.703   9.658 -3.2281 -4.1017 -0.7149
  921MOL0     H27093   9.794   8.697   9.559 -0.5391 -0.7551  1.1403
  921MOL0     H27094   9.537   8.445   9.346 -0.3133 -0.9714 -0.2832
  921MOL0     H27095  10.060   9.085   9.596 -2.0968 -1.2508 -2.2837
  921MOL0     H27096  10.439   9.082   9.627  0.8463  0.0266  0.3596
  921MOL0     H27097  10.289   9.178   9.643 -1.5702 -0.2763  2.6678
  921MOL0     H27098  10.340   9.052   9.769  0.2339  2.4083  0.4596
  922MOL0     O27099   0.758   4.270   0.100  0.2818  0.2094 -0.3416
  922MOL0     C27100   0.812   4.188   0.024 -0.3050 -0.7414 -0.1001
  922MOL0     O27101   0.851   4.211  -0.109  0.3516 -0.1720  0.2846
  922MOL0     C27102   0.845   4.348  -0.148 -0.0422  0.6499  0.0024
  922MOL0     C27103   0.956   4.433  -0.111 -0.1296 -0.1347 -0.3754
  922MOL0     C27104   0.961   4.569  -0.155 -0.4447  1.3379 -0.5847
  922MOL0     C27105   0.854   4.617  -0.229  0.2863  0.0463 -0.2548
  922MOL0     O27106   0.872   4.742  -0.274  0.3072  0.0048  0.5418
  922MOL0     C27107   0.762   4.836  -0.296 -0.3901  0.6395  0.0057
  922MOL0     C27108   0.820   4.951  -0.380  0.3023 -0.4959  0.5189
  922MOL0     C27109   0.718   5.067  -0.377 -0.0482 -0.7622  0.3553
  922MOL0     C27110   0.706   5.134  -0.241 -0.0081  0.4952 -0.3342
  922MOL0     C27111   0.831   5.156  -0.172 -1.2453  0.1112  0.1272
  922MOL0     C27112   0.818   5.215  -0.029  1.5474  0.1286 -0.2759
  922MOL0     C27113   0.949   5.236   0.043  0.3386 -0.5568 -0.6481
  922MOL0     C27114   1.029   5.108   0.065  0.2000 -0.3069  0.6845
  922MOL0     N27115   1.116   5.083  -0.054 -0.7353 -0.0140  0.5843
  922MOL0     C27116   1.245   5.139  -0.073 -0.1058  0.0094 -0.8228
  922MOL0     C27117   1.305   5.049  -0.157  0.6108 -1.3435 -0.2707
  922MOL0     C27118   1.450   5.034  -0.201 -0.4442 -1.0443  0.2992
  922MOL0     C27119   1.532   5.158  -0.226 -0.0282 -0.3152 -1.1253
  922MOL0     C27120   1.580   5.222  -0.094 -0.2952 -0.8462 -0.8543
  922MOL0     C27121   1.650   5.359  -0.135  0.1792 -0.3386  0.1827
  922MOL0     O27122   1.744   5.329  -0.233 -0.2156  0.6869 -0.5592
  922MOL0     C27123   1.874   5.292  -0.190  1.0761 -0.1192 -0.5331
  922MOL0     C27124   1.913   5.256  -0.054  0.4258  0.8745 -0.2370
  922MOL0     C27125   2.043   5.212  -0.031  0.2877  0.5453  0.1746
  922MOL0     C27126   2.078   5.176   0.115 -0.1746 -0.2024 -0.6457
  922MOL0     C27127   2.134   5.197  -0.134 -0.6878  0.0629 -0.3648
  922MOL0     C27128   2.277   5.145  -0.121  0.7909 -0.1136  0.0511
  922MOL0     O27129   2.367   5.179  -0.214 -0.2036 -0.2572  0.4950
  922MOL0     C27130   2.491   5.124  -0.239  0.2865 -0.3902  0.3665
  922MOL0     C27131   2.555   5.155  -0.353 -0.2198  0.1989  0.1326
  922MOL0     C27132   2.680   5.091  -0.380 -0.5433  0.1985 -1.0909
  922MOL0     C27133   2.731   5.000  -0.288  0.7478 -0.0969  1.1069
  922MOL0     O27134   2.849   4.941  -0.325 -0.1494  0.1968  0.7004
  922MOL0     C27135   2.850   4.796  -0.302  0.4086  0.3376 -0.3523
  922MOL0     C27136   2.964   4.739  -0.377  0.4886  0.2229  0.5744
  922MOL0     C27137   3.098   4.773  -0.326  0.6538 -0.1917  0.1788
  922MOL0     C27138   3.218   4.701  -0.391  0.4715 -0.6619 -0.2126
  922MOL0     C27139   3.344   4.720  -0.298  0.2258 -0.7163  0.0702
  922MOL0     C27140   3.385   4.863  -0.246  0.0134  0.2388 -1.2047
  922MOL0     C27141   3.391   4.962  -0.366  0.4618 -0.1012 -0.4770
  922MOL0     C27142   3.503   4.903  -0.455 -0.0919 -0.2875 -0.2319
  922MOL0    Cl27143   3.612   5.038  -0.521  0.3332  0.3462  0.1648
  922MOL0     C27144   2.676   4.981  -0.165  0.6358 -0.1239  0.3024
  922MOL0     C27145   2.558   5.046  -0.138  1.1969  0.2482 -0.0316
  922MOL0     O27146   2.304   5.065  -0.027 -0.0903  0.4024  0.0922
  922MOL0     C27147   2.101   5.239  -0.258  0.1006  0.8364  0.7164
  922MOL0     C27148   1.974   5.287  -0.287  0.3516 -0.8972  0.5446
  922MOL0     N27149   1.215   4.962  -0.210  0.3338 -0.3542 -0.2632
  922MOL0     N27150   1.104   4.992  -0.159 -0.7264 -0.3643  0.3752
  922MOL0     C27151   0.743   4.539  -0.266 -0.2134  0.6173 -0.4711
  922MOL0     C27152   0.734   4.398  -0.227 -0.6656 -0.0918 -0.6433
  922MOL0     C27153   0.840   4.047   0.077 -0.1173  0.4070  0.0920
  922MOL0     C27154   0.926   3.968   0.003  0.0728  0.1389 -0.9050
  922MOL0     C27155   0.978   3.846   0.046  0.0571 -0.8196  0.2663
  922MOL0     C27156   0.917   3.789   0.166 -0.0174  0.4054 -0.4557
  922MOL0     O27157   0.954   3.661   0.214  0.3012 -0.3300  0.3539
  922MOL0     C27158   1.051   3.574   0.154 -0.5756 -0.6295 -0.0928
  922MOL0     C27159   1.132   3.489   0.255 -0.0443 -0.9641  0.2566
  922MOL0     C27160   1.041   3.399   0.335 -0.0362  0.4153  0.3519
  922MOL0     C27161   1.121   3.314   0.435  0.1604  0.2332  0.1432
  922MOL0     C27162   1.205   3.393   0.524  0.2474 -0.4064 -0.0050
  922MOL0     C27163   1.271   3.458   0.604 -0.2839  0.2545  0.7674
  922MOL0     C27164   0.824   3.865   0.235  1.0208 -0.2696 -0.0342
  922MOL0     C27165   0.790   4.000   0.200 -0.6779 -0.2792  0.5255
  922MOL0     C27166   0.686   4.060   0.297 -0.5169 -0.7404 -0.0961
  922MOL0     H27167   1.041   4.398  -0.053  0.4760  0.6081 -0.7974
  922MOL0     H27168   1.043   4.633  -0.126 -0.4725  0.7708  0.8131
  922MOL0     H27169   0.718   4.867  -0.201  0.6370  1.8006  0.1223
  922MOL0     H27170   0.679   4.788  -0.349 -0.9202  0.7367  0.7335
  922MOL0     H27171   0.923   4.975  -0.351  0.6291 -0.7930 -0.3653
  922MOL0     H27172   0.828   4.899  -0.476 -0.5144 -1.3901  0.9154
  922MOL0     H27173   0.747   5.144  -0.448  1.3832 -1.0512  0.5975
  922MOL0     H27174   0.622   5.035  -0.419  0.5136  1.2786 -2.7306
  922MOL0     H27175   0.651   5.228  -0.256 -2.8533 -1.1886 -1.1533
  922MOL0     H27176   0.639   5.083  -0.172  1.5455  0.9156  1.5783
  922MOL0     H27177   0.905   5.210  -0.231 -2.1830  0.2233 -0.9730
  922MOL0     H27178   0.867   5.054  -0.153  0.6599 -0.0237 -3.4599
  922MOL0     H27179   0.778   5.315  -0.049  0.9819 -0.6250 -3.4375
  922MOL0     H27180   0.745   5.163   0.034  1.1721  1.5152  0.4833
  922MOL0     H27181   0.917   5.270   0.142  1.0235 -2.8104  0.4132
  922MOL0     H27182   1.017   5.302  -0.013 -0.6051  1.6553  0.6650
  922MOL0     H27183   1.099   5.119   0.148  1.7398  0.2976 -0.6501
  922MOL0     H27184   0.951   5.035   0.091  0.5034 -0.2531  1.7751
  922MOL0     H27185   1.298   5.208  -0.008  1.3181  0.6291 -2.5556
  922MOL0     H27186   1.457   4.987  -0.300  0.8665  1.3837 -0.8502
  922MOL0     H27187   1.500   4.975  -0.124 -0.7647 -1.0753  0.4814
  922MOL0     H27188   1.618   5.125  -0.285  1.9514  1.3728  0.6349
  922MOL0     H27189   1.491   5.234  -0.293  0.5401  1.0704  0.0523
  922MOL0     H27190   1.492   5.253  -0.036  0.9742  3.2292 -0.7434
  922MOL0     H27191   1.650   5.163  -0.033  0.4102  0.6001 -0.2080
  922MOL0     H27192   1.578   5.430  -0.177 -0.3781 -0.3363  1.1159
  922MOL0     H27193   1.694   5.407  -0.047 -0.7014  3.6809 -1.3390
  922MOL0     H27194   1.834   5.248   0.019 -0.4584 -1.1340 -1.3480
  922MOL0     H27195   2.048   5.073   0.136 -3.2407 -0.1105 -3.7784
  922MOL0     H27196   2.028   5.255   0.171 -0.1218  1.3748 -2.6789
  922MOL0     H27197   2.186   5.191   0.131 -0.5569  1.3795  0.7179
  922MOL0     H27198   2.518   5.218  -0.433  0.5961  0.9723  0.3371
  922MOL0     H27199   2.728   5.111  -0.475  1.9419 -1.6296 -0.3429
  922MOL0     H27200   2.873   4.778  -0.197  1.0767  0.4596 -0.4722
  922MOL0     H27201   2.756   4.747  -0.327  1.2995 -2.8154  1.8616
  922MOL0     H27202   2.954   4.631  -0.371 -2.4798  0.4537  1.2868
  922MOL0     H27203   2.955   4.769  -0.482 -0.2226 -2.6316 -0.2708
  922MOL0     H27204   3.106   4.764  -0.218  1.3067  1.5917  0.3033
  922MOL0     H27205   3.123   4.874  -0.359  2.1720 -0.9278 -1.1129
  922MOL0     H27206   3.233   4.735  -0.494 -1.1739 -2.2342 -1.0234
  922MOL0     H27207   3.206   4.593  -0.397  0.4191 -0.6936  0.3977
  922MOL0     H27208   3.327   4.654  -0.212  1.5882 -1.0266  0.1185
  922MOL0     H27209   3.434   4.674  -0.339 -0.3213  0.1175 -2.2189
  922MOL0     H27210   3.470   4.858  -0.178 -0.8210  1.9771  0.0476
  922MOL0     H27211   3.306   4.896  -0.178  0.4641  0.6509 -0.8807
  922MOL0     H27212   3.414   5.062  -0.329 -1.1892  0.6126 -1.3117
  922MOL0     H27213   3.296   4.966  -0.420  0.4088  1.6164 -0.2842
  922MOL0     H27214   3.458   4.851  -0.539  1.5520  0.8054 -1.8885
  922MOL0     H27215   3.571   4.836  -0.401 -1.2946 -2.1147 -0.9197
  922MOL0     H27216   2.728   4.918  -0.095  1.0404  0.0517  0.1638
  922MOL0     H27217   2.516   5.006  -0.046  1.9899 -0.3963  0.0601
  922MOL0     H27218   2.172   5.240  -0.339 -1.4681  1.2868 -0.7145
  922MOL0     H27219   1.956   5.317  -0.390 -1.1877  1.6995  1.4801
  922MOL0     H27220   0.662   4.572  -0.329 -0.8052 -0.4034 -0.2581
  922MOL0     H27221   0.656   4.326  -0.247  0.2451 -2.3844  3.0293
  922MOL0     H27222   0.946   4.000  -0.098 -3.7942  0.2147 -1.7850
  922MOL0     H27223   1.055   3.793  -0.009 -0.3142 -1.4104  0.2988
  922MOL0     H27224   0.993   3.512   0.085 -1.4626 -0.5002  0.5270
  922MOL0     H27225   1.117   3.643   0.101 -2.3186  1.8804  0.7785
  922MOL0     H27226   1.184   3.568   0.310 -2.8671  0.9720  0.3492
  922MOL0     H27227   1.207   3.433   0.198 -0.4999 -1.2783 -0.0407
  922MOL0     H27228   0.970   3.462   0.390 -1.0252  0.6839 -1.1568
  922MOL0     H27229   0.988   3.342   0.258 -0.9149  1.5715  0.0543
  922MOL0     H27230   1.182   3.238   0.384 -0.6857 -1.6931  1.8627
  922MOL0     H27231   1.050   3.250   0.488 -1.7488  0.5768 -1.8158
  922MOL0     H27232   1.315   3.506   0.689 -2.3878  1.8607  1.0466
  922MOL0     H27233   0.769   3.820   0.318 -0.0729  0.6146 -0.2477
  922MOL0     H27234   0.668   4.005   0.389 -4.1401 -0.1649 -0.3048
  922MOL0     H27235   0.699   4.162   0.335  0.4760 -0.1142 -1.9410
  922MOL0     H27236   0.588   4.057   0.248 -2.6149  0.0245  3.6671
  923MOL0     O27237   5.951  10.579   8.592 -0.2240 -0.7164  0.4391
  923MOL0     C27238   5.959  10.677   8.512 -0.2780 -0.9507  0.6349
  923MOL0     O27239   6.034  10.794   8.528 -0.0641 -0.6548 -0.5345
  923MOL0     C27240   6.116  10.800   8.633 -0.0827  0.7224 -0.2039
  923MOL0     C27241   6.247  10.783   8.615 -0.3065  0.8260 -0.3266
  923MOL0     C27242   6.340  10.805   8.723  0.9797  0.2556  0.2470
  923MOL0     C27243   6.287  10.841   8.852 -0.1998  0.1490 -0.1506
  923MOL0     O27244   6.366  10.876   8.961  0.3018 -0.3416 -0.1697
  923MOL0     C27245   6.507  10.850   8.954 -0.2666 -0.0835 -0.9025
  923MOL0     C27246   6.554  10.868   9.107 -0.8122 -0.5918 -0.1594
  923MOL0     C27247   6.672  10.785   9.141 -0.9084 -0.6545  0.4047
  923MOL0     C27248   6.801  10.843   9.081 -0.1968  0.1187 -0.4023
  923MOL0     C27249   6.821  10.999   9.097  0.0187 -0.3066  0.0301
  923MOL0     C27250   6.968  11.039   9.057 -0.4263  0.0476 -0.4575
  923MOL0     C27251   7.016  11.026   8.911 -0.2359 -0.0673  0.0367
  923MOL0     C27252   7.129  11.121   8.866  0.4772  0.5944  0.1226
  923MOL0     N27253   7.247  11.111   8.952  0.5533 -0.0918 -0.2393
  923MOL0     C27254   7.266  11.192   9.068  0.6991 -0.2392 -0.1641
  923MOL0     C27255   7.377  11.148   9.117  0.1337 -0.2603 -0.2262
  923MOL0     C27256   7.428  11.192   9.254 -0.8959 -0.1954  0.2016
  923MOL0     C27257   7.319  11.198   9.363  0.3436  0.4208  0.4014
  923MOL0     C27258   7.344  11.093   9.468  0.7878 -0.1453 -0.1342
  923MOL0     C27259   7.295  10.951   9.424  0.0427 -0.2153 -0.6306
  923MOL0     O27260   7.155  10.947   9.409 -0.4354 -0.4355  0.0264
  923MOL0     C27261   7.119  10.822   9.369  1.1072  0.5372 -0.9331
  923MOL0     C27262   7.018  10.763   9.441 -0.4672 -0.0184  0.3371
  923MOL0     C27263   6.968  10.643   9.391 -0.5757 -0.2900 -0.8332
  923MOL0     C27264   6.858  10.581   9.477  0.4973  0.9612 -0.0514
  923MOL0     C27265   7.017  10.583   9.272  0.0912 -0.0908 -0.0512
  923MOL0     C27266   6.972  10.449   9.223 -0.3813 -0.2172 -1.3837
  923MOL0     O27267   7.034  10.402   9.109 -0.4584 -0.7747  0.8763
  923MOL0     C27268   7.025  10.269   9.058 -0.7506  0.1404 -0.2709
  923MOL0     C27269   6.906  10.196   9.066  0.1955 -0.5309  0.7787
  923MOL0     C27270   6.911  10.071   9.012  0.7962  0.1211  0.2322
  923MOL0     C27271   7.019  10.006   8.956 -0.5844 -0.1514 -0.4649
  923MOL0     O27272   7.031   9.894   8.884  0.0183 -0.8520 -0.4434
  923MOL0     C27273   6.917   9.833   8.819 -0.7779 -0.0395 -0.1432
  923MOL0     C27274   6.958   9.696   8.777 -1.1706  0.6500 -0.0753
  923MOL0     C27275   6.840   9.621   8.715  0.1338 -0.7594 -0.1876
  923MOL0     C27276   6.897   9.511   8.635 -0.7642 -0.3954  0.2196
  923MOL0     C27277   6.799   9.393   8.626  0.4917  0.5733 -0.0675
  923MOL0     C27278   6.849   9.290   8.528  0.5200  0.0415  0.9613
  923MOL0     C27279   6.963   9.204   8.583 -0.5398  0.3397 -1.1369
  923MOL0     C27280   6.933   9.096   8.692  0.9723  0.5609  0.2956
  923MOL0    Cl27281   6.781   8.998   8.651  0.2841 -0.0593  0.4042
  923MOL0     C27282   7.137  10.071   8.959 -0.4440 -0.3754 -0.2018
  923MOL0     C27283   7.148  10.204   9.012  0.1971 -0.0210 -0.1568
  923MOL0     O27284   6.887  10.390   9.278 -0.5911  0.5566 -0.6352
  923MOL0     C27285   7.114  10.650   9.202 -0.2952  0.1812  0.0319
  923MOL0     C27286   7.166  10.772   9.250  0.0544 -0.5339  0.3581
  923MOL0     N27287   7.419  11.035   9.053 -0.0012  0.1923 -0.3472
  923MOL0     N27288   7.340  11.016   8.953  0.2569  0.1135  0.2232
  923MOL0     C27289   6.148  10.844   8.874 -0.1848 -0.3105  0.5845
  923MOL0     C27290   6.056  10.838   8.761 -0.0042  0.7545 -0.8973
  923MOL0     C27291   5.868  10.687   8.401  0.9569  0.1120 -0.1520
  923MOL0     C27292   5.868  10.810   8.331  0.6208  0.1465  0.2830
  923MOL0     C27293   5.784  10.833   8.217 -0.0236  0.2386 -0.9986
  923MOL0     C27294   5.685  10.747   8.176 -0.3049  0.2440  0.5120
  923MOL0     O27295   5.588  10.792   8.096  0.0267  0.0427 -0.1941
  923MOL0     C27296   5.481  10.725   8.028 -0.6749  0.5569  0.0744
  923MOL0     C27297   5.525  10.625   7.924  0.3487 -0.1709  0.4925
  923MOL0     C27298   5.584  10.698   7.801 -0.1191 -0.2101  0.6003
  923MOL0     C27299   5.474  10.757   7.713 -1.0423  0.3196  0.2632
  923MOL0     C27300   5.518  10.792   7.583  0.1430 -0.0364 -0.9742
  923MOL0     C27301   5.569  10.797   7.470 -0.3749 -0.6814  0.9916
  923MOL0     C27302   5.671  10.630   8.253 -0.9433  0.6025  0.1740
  923MOL0     C27303   5.771  10.589   8.349 -0.2579 -0.1654 -0.5611
  923MOL0     C27304   5.787  10.447   8.388 -0.2897 -0.8796  0.4637
  923MOL0     H27305   6.285  10.741   8.522  0.7484  1.4032 -0.1777
  923MOL0     H27306   6.444  10.780   8.702  0.3662 -1.4800 -0.9550
  923MOL0     H27307   6.554  10.931   8.898 -1.7824  3.9397  2.9964
  923MOL0     H27308   6.529  10.748   8.920 -2.0098 -1.1301  0.9199
  923MOL0     H27309   6.580  10.965   9.148  2.3532 -1.7665  0.8809
  923MOL0     H27310   6.467  10.829   9.161 -0.1529 -1.2895  0.4188
  923MOL0     H27311   6.674  10.771   9.250 -3.7812 -0.5160  0.5534
  923MOL0     H27312   6.654  10.681   9.113  1.3180 -1.6269  2.2251
  923MOL0     H27313   6.892  10.789   9.108 -1.9205 -1.2113  3.5576
  923MOL0     H27314   6.795  10.827   8.973 -0.9629  1.3373 -0.5535
  923MOL0     H27315   6.805  11.013   9.204  0.3304  2.2173 -0.1940
  923MOL0     H27316   6.745  11.054   9.042 -0.2541 -3.0726 -2.6702
  923MOL0     H27317   6.983  11.137   9.102  0.1400 -0.5641  0.7251
  923MOL0     H27318   7.022  10.962   9.113 -3.6472 -1.2156  1.1672
  923MOL0     H27319   6.933  11.048   8.843  0.7708  1.1170 -0.8545
  923MOL0     H27320   7.059  10.929   8.884  3.2923  2.1407 -3.3509
  923MOL0     H27321   7.172  11.085   8.772  1.2892 -2.1066  1.4256
  923MOL0     H27322   7.096  11.225   8.857 -1.1048 -0.0063 -1.5818
  923MOL0     H27323   7.210  11.279   9.102  1.3338  1.0442 -2.2419
  923MOL0     H27324   7.466  11.294   9.246  0.9167 -0.9483 -1.4298
  923MOL0     H27325   7.524  11.142   9.269 -0.7563 -0.9251 -2.6249
  923MOL0     H27326   7.341  11.284   9.427  0.8045  0.6410 -0.0512
  923MOL0     H27327   7.214  11.194   9.331  0.4169  0.3675  0.1687
  923MOL0     H27328   7.446  11.078   9.505  0.5397 -3.4227 -0.5102
  923MOL0     H27329   7.290  11.120   9.559  1.0583 -2.7081  0.8745
  923MOL0     H27330   7.349  10.924   9.333 -0.5759 -0.3551 -0.9629
  923MOL0     H27331   7.322  10.880   9.503 -3.5599 -0.2154  0.7991
  923MOL0     H27332   6.970  10.810   9.527 -1.8117 -0.7339  0.0030
  923MOL0     H27333   6.888  10.479   9.503 -2.5696 -0.3759 -1.2913
  923MOL0     H27334   6.760  10.573   9.430 -1.0690  0.1968  3.0468
  923MOL0     H27335   6.845  10.641   9.568  0.2290  4.4978 -2.2224
  923MOL0     H27336   6.814  10.237   9.105 -1.4992 -1.6820 -1.8007
  923MOL0     H27337   6.817  10.017   9.024  1.2444 -0.3208  2.1079
  923MOL0     H27338   6.830   9.829   8.886 -1.1444  1.9008 -0.4604
  923MOL0     H27339   6.887   9.889   8.730 -0.5627  3.1513  1.6335
  923MOL0     H27340   7.043   9.711   8.710 -0.5489 -2.2026 -0.0800
  923MOL0     H27341   6.986   9.649   8.872 -2.0991  0.9048  0.3353
  923MOL0     H27342   6.795   9.691   8.643 -0.6232  0.0010  0.9861
  923MOL0     H27343   6.760   9.601   8.787 -0.8968 -1.2899 -1.4439
  923MOL0     H27344   6.998   9.477   8.659 -0.1042  1.4276  0.1914
  923MOL0     H27345   6.905   9.558   8.536 -0.9139 -4.3530 -1.8846
  923MOL0     H27346   6.779   9.352   8.725  1.5039  0.6856  0.1945
  923MOL0     H27347   6.700   9.426   8.593  0.2827 -0.1314 -0.1585
  923MOL0     H27348   6.888   9.339   8.439 -1.1262  0.3272  0.3764
  923MOL0     H27349   6.758   9.238   8.500 -0.5541  2.5787 -0.6039
  923MOL0     H27350   7.035   9.274   8.625  0.6161 -2.8681  2.8752
  923MOL0     H27351   7.016   9.154   8.501  3.4677  1.5804  0.4271
  923MOL0     H27352   6.912   9.150   8.784 -1.2120 -1.1453  0.8743
  923MOL0     H27353   7.011   9.020   8.705 -1.1612 -1.7562  0.3139
  923MOL0     H27354   7.222  10.019   8.913 -0.5421 -3.6357  2.8512
  923MOL0     H27355   7.244  10.253   9.013 -0.5208  1.8079 -3.8929
  923MOL0     H27356   7.162  10.615   9.111  0.0198 -0.0205  0.2703
  923MOL0     H27357   7.237  10.825   9.186  1.5123 -2.1796  0.5136
  923MOL0     H27358   6.100  10.874   8.967  0.7524 -1.4989  1.4874
  923MOL0     H27359   5.948  10.844   8.769 -0.2348 -2.5655 -0.0931
  923MOL0     H27360   5.933  10.892   8.360 -0.7937  0.8450  1.6371
  923MOL0     H27361   5.797  10.925   8.161 -1.2905  1.6922  0.9454
  923MOL0     H27362   5.435  10.658   8.101  2.2616 -0.5821  1.0634
  923MOL0     H27363   5.422  10.805   7.984  1.0086  1.1425 -1.2266
  923MOL0     H27364   5.441  10.567   7.884  1.6598 -0.4734 -2.0571
  923MOL0     H27365   5.590  10.549   7.968  0.5142  0.4228  1.2922
  923MOL0     H27366   5.650  10.778   7.835  0.4512  0.6054 -2.2220
  923MOL0     H27367   5.642  10.629   7.739 -1.0656 -2.0533  1.6795
  923MOL0     H27368   5.431  10.842   7.766  1.0530  0.0612  2.5295
  923MOL0     H27369   5.390  10.688   7.699 -1.7405  1.2708 -0.3697
  923MOL0     H27370   5.611  10.789   7.372  0.3763 -1.3546  1.3530
  923MOL0     H27371   5.591  10.558   8.246  2.7862 -3.9534 -0.1143
  923MOL0     H27372   5.752  10.432   8.491 -1.7306 -0.9502 -0.0207
  923MOL0     H27373   5.727  10.385   8.321  0.6198  1.2370 -2.4946
  923MOL0     H27374   5.893  10.421   8.386 -0.2245 -0.7247  1.3381
  924MOL0     O27375   7.306  10.106   1.569  0.1613  0.5152 -0.3298
  924MOL0     C27376   7.241  10.193   1.510 -0.0722 -0.1013  0.1860
  924MOL0     O27377   7.107  10.224   1.521  0.4977 -0.2406  0.5748
  924MOL0     C27378   7.018  10.162   1.596  0.8209  0.3455 -1.1889
  924MOL0     C27379   6.899  10.113   1.533 -0.6576  0.5652 -0.1543
  924MOL0     C27380   6.807  10.039   1.608 -0.2107  0.6875 -0.1679
  924MOL0     C27381   6.826  10.015   1.741  0.7294  0.2490  0.5691
  924MOL0     O27382   6.741   9.934   1.816 -0.2247 -0.4730  0.2987
  924MOL0     C27383   6.605   9.908   1.780 -0.4818 -0.7594 -0.4554
  924MOL0     C27384   6.504   9.889   1.899 -0.3904  0.1449  0.4147
  924MOL0     C27385   6.528   9.987   2.025 -0.4535 -0.0031 -0.0805
  924MOL0     C27386   6.650   9.962   2.118 -0.6469  0.1220  0.2621
  924MOL0     C27387   6.666  10.061   2.240  0.9340 -0.1090  0.2132
  924MOL0     C27388   6.736  10.181   2.186 -0.4366  0.3504  0.3839
  924MOL0     C27389   6.896  10.170   2.177  0.8697  0.4602  0.3272
  924MOL0     C27390   6.956  10.310   2.178 -0.1924 -0.4908 -1.5103
  924MOL0     N27391   7.103  10.301   2.165 -0.4156  0.4265 -0.0001
  924MOL0     C27392   7.188  10.360   2.247 -0.3151  0.3181  0.0620
  924MOL0     C27393   7.310  10.321   2.200 -0.6362  0.6320  0.5769
  924MOL0     C27394   7.443  10.346   2.269  0.2847  0.1857 -0.2261
  924MOL0     C27395   7.504  10.210   2.293 -0.4942  0.7240  0.9623
  924MOL0     C27396   7.641  10.201   2.358 -0.6551  1.1518  0.1033
  924MOL0     C27397   7.744  10.112   2.287 -0.3517  0.0446 -0.9270
  924MOL0     O27398   7.756  10.165   2.156  0.0124  0.5717  0.1532
  924MOL0     C27399   7.855  10.119   2.068 -0.6366  0.0029  0.4392
  924MOL0     C27400   7.832  10.140   1.927  0.0001 -0.9781 -0.4705
  924MOL0     C27401   7.922  10.107   1.834  0.2227  0.4637  0.1614
  924MOL0     C27402   7.881  10.121   1.697 -0.5289  0.2451 -0.3095
  924MOL0     C27403   8.048  10.055   1.876  0.2083  0.6176 -0.3187
  924MOL0     C27404   8.154  10.022   1.781  0.5111  0.2480 -0.8056
  924MOL0     O27405   8.274  10.016   1.853 -0.1360 -0.2098 -0.5845
  924MOL0     C27406   8.389   9.965   1.793  0.1700 -0.1202 -0.8788
  924MOL0     C27407   8.385   9.859   1.699 -0.1217 -0.4889  0.4833
  924MOL0     C27408   8.501   9.810   1.647  0.6334 -0.2781 -0.8326
  924MOL0     C27409   8.629   9.862   1.674  0.4321  0.2032  0.3102
  924MOL0     O27410   8.732   9.802   1.607  0.3735  0.2428 -0.0624
  924MOL0     C27411   8.839   9.891   1.584 -0.3362  0.5478 -0.2271
  924MOL0     C27412   8.944   9.819   1.501  0.0071 -0.1295 -0.3749
  924MOL0     C27413   9.089   9.880   1.506 -0.0368 -0.0246  0.4144
  924MOL0     C27414   9.092  10.002   1.401 -0.3201  0.1430  0.3312
  924MOL0     C27415   9.241  10.031   1.368  0.6791  0.1314 -0.7657
  924MOL0     C27416   9.258  10.142   1.264 -0.0526 -0.2645 -0.2776
  924MOL0     C27417   9.224  10.280   1.324  0.4207  0.4825 -0.2656
  924MOL0     C27418   9.226  10.405   1.229  0.2261 -0.4045  0.2710
  924MOL0    Cl27419   9.095  10.412   1.100 -0.1288 -0.1570 -0.2022
  924MOL0     C27420   8.630   9.962   1.765 -0.5347 -0.4051 -0.2645
  924MOL0     C27421   8.513  10.018   1.821  0.2318  0.1900  0.7311
  924MOL0     O27422   8.135   9.994   1.663 -0.1264 -0.6091 -0.0319
  924MOL0     C27423   8.066  10.022   2.012 -0.7317  0.4887  0.0153
  924MOL0     C27424   7.973  10.054   2.110  0.0322  0.6183 -0.5016
  924MOL0     N27425   7.298  10.237   2.081 -0.3463  0.4011 -0.1070
  924MOL0     N27426   7.170  10.233   2.064 -0.6454 -0.5862 -0.0840
  924MOL0     C27427   6.949  10.047   1.800  0.6624 -0.0337  0.1058
  924MOL0     C27428   7.045  10.110   1.729  0.1727 -0.0823 -0.2982
  924MOL0     C27429   7.316  10.286   1.411  0.3801 -0.0380 -0.0812
  924MOL0     C27430   7.249  10.377   1.334 -0.3710  0.1664 -0.6643
  924MOL0     C27431   7.310  10.464   1.252 -0.0804  0.3322 -0.2775
  924MOL0     C27432   7.448  10.454   1.237  0.3068  0.4038  1.1289
  924MOL0     O27433   7.511  10.543   1.163 -0.6498 -0.2619 -0.6439
  924MOL0     C27434   7.576  10.648   1.237 -0.1382 -0.1118  0.5006
  924MOL0     C27435   7.697  10.692   1.148  0.2683  0.0550 -0.2771
  924MOL0     C27436   7.796  10.808   1.203 -0.4018 -0.3861 -1.0725
  924MOL0     C27437   7.867  10.888   1.086  0.9876  0.5807 -0.5953
  924MOL0     C27438   7.939  11.022   1.119  2.1122 -0.9216  0.4752
  924MOL0     C27439   8.003  11.119   1.155 -0.3850  0.5332 -0.1050
  924MOL0     C27440   7.514  10.370   1.317  0.2852  0.7367  0.0552
  924MOL0     C27441   7.454  10.286   1.408 -0.4876 -1.1902 -0.3929
  924MOL0     C27442   7.553  10.204   1.491  0.7432  0.4388  0.0069
  924MOL0     H27443   6.876  10.149   1.433 -4.7362  2.2673  1.1778
  924MOL0     H27444   6.712  10.004   1.568 -0.3868  0.0022  0.8079
  924MOL0     H27445   6.606   9.818   1.717 -1.3453 -1.0521 -0.0586
  924MOL0     H27446   6.569   9.995   1.725 -1.1301 -1.5193 -1.2681
  924MOL0     H27447   6.399   9.901   1.869 -0.5234 -2.0400 -0.1735
  924MOL0     H27448   6.509   9.785   1.930 -1.8586 -1.7716 -4.6902
  924MOL0     H27449   6.542  10.089   1.989  1.0143 -0.6248 -1.3534
  924MOL0     H27450   6.435   9.996   2.083 -0.7166  1.2846 -0.6768
  924MOL0     H27451   6.646   9.857   2.149 -0.7628  0.5650  1.8155
  924MOL0     H27452   6.750   9.968   2.074 -0.4135 -0.5159  0.6965
  924MOL0     H27453   6.727  10.008   2.313  0.3182  0.7732  1.3929
  924MOL0     H27454   6.572  10.079   2.293  0.5500 -2.3572  0.4343
  924MOL0     H27455   6.706  10.205   2.083 -0.8255 -1.0368  0.1536
  924MOL0     H27456   6.717  10.274   2.240 -0.2238  0.2898  0.5630
  924MOL0     H27457   6.925  10.119   2.085 -4.8053 -2.2002 -0.4039
  924MOL0     H27458   6.923  10.106   2.261 -2.9452 -0.4359  1.0550
  924MOL0     H27459   6.919  10.369   2.094 -1.8463  2.2044  0.9500
  924MOL0     H27460   6.926  10.371   2.264 -0.5682 -0.3865 -1.7150
  924MOL0     H27461   7.175  10.406   2.344 -1.0800  0.8985 -0.3101
  924MOL0     H27462   7.422  10.403   2.360  0.1573  2.6645 -1.6888
  924MOL0     H27463   7.518  10.407   2.217  0.8651  1.2369  1.7373
  924MOL0     H27464   7.443  10.153   2.364  1.2700 -2.2330  0.2736
  924MOL0     H27465   7.496  10.146   2.205 -1.6265 -0.9704  2.2380
  924MOL0     H27466   7.673  10.305   2.348 -0.9016  1.0322 -3.2878
  924MOL0     H27467   7.636  10.155   2.457 -0.5212 -1.5883 -1.0784
  924MOL0     H27468   7.830  10.131   2.351 -0.7650 -1.0292 -0.0218
  924MOL0     H27469   7.715  10.008   2.272 -2.0642  0.5879 -1.6982
  924MOL0     H27470   7.736  10.182   1.898 -0.7693 -1.7506  0.8409
  924MOL0     H27471   7.815  10.208   1.693  2.2055  2.9651  4.3712
  924MOL0     H27472   7.845  10.023   1.666  0.6117 -0.7247  1.2772
  924MOL0     H27473   7.970  10.149   1.638  0.3709 -2.1179 -0.1702
  924MOL0     H27474   8.292   9.814   1.665  0.5757 -1.1175 -0.6870
  924MOL0     H27475   8.495   9.725   1.579  0.3152 -0.7054 -0.2731
  924MOL0     H27476   8.801   9.972   1.520 -0.6970 -0.2859 -1.0928
  924MOL0     H27477   8.876   9.938   1.676  3.0094 -2.3613  0.1107
  924MOL0     H27478   8.948   9.724   1.554  1.7275  2.3814  4.6246
  924MOL0     H27479   8.909   9.797   1.400 -0.1611 -0.3303 -0.2731
  924MOL0     H27480   9.169   9.809   1.480  1.5586  1.9268 -0.2518
  924MOL0     H27481   9.120   9.921   1.602  2.2022 -0.6630  0.0132
  924MOL0     H27482   9.042  10.083   1.455  0.5382  1.1004 -0.2791
  924MOL0     H27483   9.031   9.985   1.312 -1.5893  1.1569  0.9771
  924MOL0     H27484   9.292  10.068   1.458 -3.1429 -0.8297  2.0264
  924MOL0     H27485   9.293   9.937   1.346  1.7925  0.3877  0.5611
  924MOL0     H27486   9.195  10.126   1.175  0.5945  1.1900 -1.0323
  924MOL0     H27487   9.362  10.139   1.230 -0.2563 -0.4382 -0.9111
  924MOL0     H27488   9.285  10.313   1.408  1.1381  1.1935 -1.0514
  924MOL0     H27489   9.120  10.267   1.355  0.1286 -1.1237 -1.7975
  924MOL0     H27490   9.320  10.405   1.172 -0.7308  0.4637 -1.3652
  924MOL0     H27491   9.217  10.500   1.284 -0.4580  0.7176 -1.6980
  924MOL0     H27492   8.720  10.021   1.782 -2.4390  2.5850  0.3109
  924MOL0     H27493   8.505  10.102   1.890  2.7256  1.1449 -0.0387
  924MOL0     H27494   8.153   9.973   2.054 -1.8304  1.1667  3.3461
  924MOL0     H27495   7.985  10.016   2.211  1.7910 -1.9151 -1.5633
  924MOL0     H27496   6.974  10.025   1.904 -2.2823  1.5385  1.2687
  924MOL0     H27497   7.143  10.123   1.773 -1.4164 -0.4240  3.7917
  924MOL0     H27498   7.140  10.375   1.342 -0.3022  1.1344  0.7823
  924MOL0     H27499   7.247  10.537   1.201 -0.2225  1.1613  1.0334
  924MOL0     H27500   7.518  10.738   1.261  0.5185 -0.4166  3.5998
  924MOL0     H27501   7.616  10.615   1.333  2.9854  0.4137 -0.4897
  924MOL0     H27502   7.651  10.731   1.057  0.6414  0.2178 -0.3997
  924MOL0     H27503   7.753  10.600   1.125 -0.0523 -0.0026 -0.8460
  924MOL0     H27504   7.746  10.868   1.280  0.2857 -2.9659  1.5814
  924MOL0     H27505   7.880  10.758   1.252 -0.4275  1.6942  1.3200
  924MOL0     H27506   7.797  10.900   1.003  0.1794  4.0070  0.4504
  924MOL0     H27507   7.943  10.816   1.056 -1.0841 -0.9221 -2.6714
  924MOL0     H27508   8.052  11.207   1.190 -2.2552  1.6003 -0.0488
  924MOL0     H27509   7.621  10.372   1.302  0.2383 -2.2008 -1.6363
  924MOL0     H27510   7.557  10.245   1.593  0.5446  2.1270 -0.6263
  924MOL0     H27511   7.523  10.100   1.480  0.9472  0.2150  1.3284
  924MOL0     H27512   7.656  10.217   1.458  1.3283 -1.3378  0.9925
  925MOL0     O27513   8.541   3.584   2.283  0.6534  1.0411  0.1890
  925MOL0     C27514   8.487   3.637   2.181  0.5019  0.1726  0.0406
  925MOL0     O27515   8.543   3.725   2.095  0.0509 -0.1586  0.1396
  925MOL0     C27516   8.654   3.787   2.136 -0.1737  0.7792  0.8088
  925MOL0     C27517   8.774   3.758   2.073 -0.8288  0.1483 -0.2200
  925MOL0     C27518   8.891   3.830   2.110 -0.5607 -0.5608 -0.1454
  925MOL0     C27519   8.889   3.929   2.214 -0.8994  0.4542  0.4931
  925MOL0     O27520   9.006   4.000   2.225  1.1983 -0.1182 -0.0556
  925MOL0     C27521   8.994   4.111   2.322 -0.2480  0.4416 -0.4874
  925MOL0     C27522   9.123   4.191   2.321 -0.4541  0.1711 -0.9369
  925MOL0     C27523   9.137   4.246   2.174  0.0008  0.3563  0.1668
  925MOL0     C27524   9.022   4.323   2.122  0.3020  0.8725  0.0350
  925MOL0     C27525   9.054   4.358   1.977  0.5380 -0.6235  0.1068
  925MOL0     C27526   8.959   4.470   1.936 -0.6997 -0.1845 -0.6266
  925MOL0     C27527   8.988   4.538   1.797  0.0771 -0.4639 -0.1666
  925MOL0     C27528   8.976   4.441   1.685 -0.2504  0.8957  0.8839
  925MOL0     N27529   9.030   4.488   1.554 -0.2712 -0.4881 -0.1016
  925MOL0     C27530   9.161   4.504   1.518 -0.5655 -0.5274  0.0348
  925MOL0     C27531   9.159   4.553   1.391  0.7379  0.7742  1.0010
  925MOL0     C27532   9.272   4.583   1.294 -0.6412  0.5888 -0.2071
  925MOL0     C27533   9.346   4.448   1.260 -0.2342 -0.1524 -0.5031
  925MOL0     C27534   9.248   4.370   1.171  0.5036 -0.6200 -0.8768
  925MOL0     C27535   9.303   4.243   1.100  0.1431 -0.5499  0.2227
  925MOL0     O27536   9.437   4.258   1.054  0.8621  0.6356 -0.0781
  925MOL0     C27537   9.467   4.348   0.964 -0.2826 -0.0509  1.0179
  925MOL0     C27538   9.373   4.423   0.895  0.1662  0.0133 -0.5798
  925MOL0     C27539   9.397   4.509   0.793 -0.4247  0.5666  0.7864
  925MOL0     C27540   9.282   4.588   0.730 -0.7528  0.3332 -1.1752
  925MOL0     C27541   9.527   4.517   0.746  0.2593  0.0207  1.1177
  925MOL0     C27542   9.577   4.606   0.632 -0.8989 -0.6836 -1.2030
  925MOL0     O27543   9.711   4.599   0.601  0.0566 -0.3424 -0.4670
  925MOL0     C27544   9.762   4.701   0.519  0.0240 -0.5989 -0.4031
  925MOL0     C27545   9.888   4.749   0.538 -0.2907 -0.4628 -0.6972
  925MOL0     C27546   9.953   4.848   0.462  0.6880  0.5257  0.4309
  925MOL0     C27547   9.894   4.882   0.344 -0.8403 -0.0960 -0.2434
  925MOL0     O27548   9.946   4.960   0.247 -0.7746  0.1784  0.3505
  925MOL0     C27549  10.044   5.056   0.278  0.0754  0.2447  0.3982
  925MOL0     C27550  10.075   5.142   0.160  0.0118 -1.2607  0.4506
  925MOL0     C27551   9.968   5.265   0.157 -0.1702  0.6383 -0.0440
  925MOL0     C27552  10.004   5.371   0.046  0.1728  0.8989 -0.0903
  925MOL0     C27553   9.894   5.463  -0.002  0.2213  0.3482  0.1706
  925MOL0     C27554   9.767   5.394  -0.056  0.4482  0.8033  1.1370
  925MOL0     C27555   9.690   5.501  -0.145  0.5516 -0.2488 -0.5241
  925MOL0     C27556   9.541   5.499  -0.110  0.2435  1.4986 -0.4505
  925MOL0    Cl27557   9.474   5.611  -0.230  0.2271  0.2591  0.1445
  925MOL0     C27558   9.762   4.837   0.318  0.0837  0.6970 -0.1446
  925MOL0     C27559   9.696   4.755   0.402  0.3810  1.1342 -0.3635
  925MOL0     O27560   9.497   4.687   0.577 -0.0033  0.5721  0.0395
  925MOL0     C27561   9.620   4.442   0.812 -0.1654 -0.1334  0.3262
  925MOL0     C27562   9.592   4.361   0.922  0.7615 -0.2827 -0.2506
  925MOL0     N27563   9.023   4.571   1.358  0.2105 -0.1431 -0.2122
  925MOL0     N27564   8.949   4.533   1.457 -1.4980 -0.1001 -0.4257
  925MOL0     C27565   8.763   3.947   2.285 -0.3799 -0.5106 -0.6742
  925MOL0     C27566   8.652   3.875   2.250  0.4079  1.2213  0.1566
  925MOL0     C27567   8.348   3.591   2.157  0.7589 -0.9053  0.3069
  925MOL0     C27568   8.273   3.557   2.273  0.1119  0.6102 -0.0272
  925MOL0     C27569   8.146   3.510   2.254 -0.0847  0.7372 -1.0439
  925MOL0     C27570   8.081   3.496   2.133 -0.8837 -0.8109 -0.1879
  925MOL0     O27571   7.949   3.459   2.131 -0.4391  0.5018  0.4577
  925MOL0     C27572   7.886   3.446   1.997 -0.4462 -0.0202 -0.2438
  925MOL0     C27573   7.739   3.400   1.999  0.0899 -0.0831 -0.2304
  925MOL0     C27574   7.713   3.302   2.114  0.0532 -0.1262  0.1170
  925MOL0     C27575   7.575   3.245   2.104 -0.4926 -0.4033  1.2059
  925MOL0     C27576   7.469   3.345   2.111 -0.2510  0.5595  0.8654
  925MOL0     C27577   7.367   3.410   2.118  0.1803  0.2818  0.1795
  925MOL0     C27578   8.154   3.532   2.024  0.2825  0.4922  0.4386
  925MOL0     C27579   8.289   3.583   2.033  0.4828  0.5330 -0.5867
  925MOL0     C27580   8.353   3.628   1.909  0.6646 -1.0888  0.1834
  925MOL0     H27581   8.788   3.681   1.998 -1.5373  1.3136 -1.6053
  925MOL0     H27582   8.984   3.800   2.062  0.0705 -0.1780  0.7903
  925MOL0     H27583   8.992   4.064   2.420  1.7394  0.4192 -0.4192
  925MOL0     H27584   8.906   4.172   2.297  2.1522  3.3283 -2.6560
  925MOL0     H27585   9.121   4.280   2.384 -1.8070  2.3694 -3.8607
  925MOL0     H27586   9.212   4.133   2.348 -0.1824  0.3760 -1.3807
  925MOL0     H27587   9.223   4.314   2.168  1.2043 -0.5404  4.0877
  925MOL0     H27588   9.157   4.157   2.115  0.9418  0.5840  0.1217
  925MOL0     H27589   8.933   4.259   2.117  0.7246  0.1399  1.4315
  925MOL0     H27590   8.996   4.401   2.194 -1.0440 -0.0756  0.6305
  925MOL0     H27591   9.043   4.273   1.909  0.7157  0.9724 -2.0322
  925MOL0     H27592   9.150   4.409   1.969 -0.9659  2.6447  1.1326
  925MOL0     H27593   8.854   4.439   1.931 -0.7354 -0.3406  0.6945
  925MOL0     H27594   8.962   4.552   2.009  1.8128  0.2601 -1.1234
  925MOL0     H27595   9.090   4.578   1.789 -0.4426  0.7690 -1.0152
  925MOL0     H27596   8.915   4.619   1.784 -0.0021 -0.4457  0.3592
  925MOL0     H27597   9.018   4.345   1.716 -1.8768  0.2097  1.0625
  925MOL0     H27598   8.870   4.426   1.666  0.2322 -2.4052  0.1785
  925MOL0     H27599   9.242   4.466   1.580 -2.5703  0.5577  3.5936
  925MOL0     H27600   9.336   4.655   1.345  1.3127 -1.6275  0.7023
  925MOL0     H27601   9.239   4.628   1.200  0.3654 -3.0590 -2.5499
  925MOL0     H27602   9.435   4.472   1.201  0.4962  1.8905  1.3126
  925MOL0     H27603   9.379   4.387   1.344 -2.4382 -1.0482 -0.2200
  925MOL0     H27604   9.170   4.336   1.241  1.0217 -0.0203  0.0174
  925MOL0     H27605   9.200   4.436   1.098 -0.4043 -0.4413 -0.1481
  925MOL0     H27606   9.310   4.153   1.162  0.4424  0.4826  1.7819
  925MOL0     H27607   9.231   4.208   1.026 -1.1087  2.4189 -0.1092
  925MOL0     H27608   9.267   4.411   0.914  0.3471 -2.2363 -0.7189
  925MOL0     H27609   9.268   4.568   0.624  1.1724  0.4030 -1.4853
  925MOL0     H27610   9.297   4.696   0.736  2.8346 -0.0606 -0.7457
  925MOL0     H27611   9.190   4.570   0.786  0.1321 -0.4564  0.0988
  925MOL0     H27612   9.958   4.710   0.611  1.3225  0.4350 -1.6996
  925MOL0     H27613  10.051   4.881   0.494  0.4364  1.7488 -0.0353
  925MOL0     H27614  10.018   5.124   0.359  0.7900  0.9487  0.0582
  925MOL0     H27615  10.133   4.995   0.295  1.7040  0.6844 -4.8528
  925MOL0     H27616  10.171   5.194   0.160 -0.8896  0.4834  0.9094
  925MOL0     H27617  10.055   5.083   0.070  1.9521 -0.0810 -0.8328
  925MOL0     H27618   9.973   5.316   0.253  0.9691 -3.2746  2.1733
  925MOL0     H27619   9.864   5.231   0.155  1.0189 -3.9769  1.9404
  925MOL0     H27620  10.046   5.314  -0.038  2.1843 -1.6408  2.4369
  925MOL0     H27621  10.079   5.441   0.083  3.1776 -1.2759 -1.6325
  925MOL0     H27622   9.862   5.534   0.075 -0.0334 -1.0293  1.3741
  925MOL0     H27623   9.937   5.524  -0.082 -3.0461  1.9204 -0.5802
  925MOL0     H27624   9.694   5.357   0.016  2.6507 -2.7568  1.8154
  925MOL0     H27625   9.799   5.311  -0.119  0.6021 -0.6426  3.0366
  925MOL0     H27626   9.702   5.474  -0.251 -2.1043  0.5375 -1.1037
  925MOL0     H27627   9.725   5.601  -0.120 -2.0835 -0.1222  3.4302
  925MOL0     H27628   9.534   5.523  -0.004 -0.2815 -0.7857  0.0848
  925MOL0     H27629   9.498   5.400  -0.125 -1.1830  1.5680  2.5098
  925MOL0     H27630   9.721   4.865   0.221 -0.2571  1.3512  0.1826
  925MOL0     H27631   9.595   4.731   0.371  0.1151 -1.2421  1.9101
  925MOL0     H27632   9.721   4.431   0.772 -0.2342 -1.1638  0.3968
  925MOL0     H27633   9.666   4.291   0.959  2.0367  0.1539 -1.8611
  925MOL0     H27634   8.751   4.020   2.365 -0.1421 -2.9467  1.7163
  925MOL0     H27635   8.571   3.908   2.314 -0.0323 -0.7534  0.6903
  925MOL0     H27636   8.304   3.564   2.377 -0.4191  2.6574  0.0272
  925MOL0     H27637   8.099   3.483   2.349  2.1430 -2.3602 -0.6888
  925MOL0     H27638   7.895   3.533   1.932 -1.3847 -0.7852 -1.4487
  925MOL0     H27639   7.934   3.367   1.939 -3.3148 -0.6502 -1.9621
  925MOL0     H27640   7.723   3.358   1.900  0.5089  0.7557 -0.6641
  925MOL0     H27641   7.676   3.489   2.003  0.4969  0.2047 -0.0704
  925MOL0     H27642   7.777   3.217   2.089 -1.8829 -1.9609  1.1341
  925MOL0     H27643   7.736   3.349   2.210 -3.6329  1.3185  0.4482
  925MOL0     H27644   7.556   3.174   2.184 -2.8473 -1.1252  0.1145
  925MOL0     H27645   7.566   3.196   2.007  1.3556  5.1377 -2.2775
  925MOL0     H27646   7.272   3.458   2.117 -0.1987 -0.2582  2.9228
  925MOL0     H27647   8.099   3.534   1.931 -0.9035  1.3732  1.1340
  925MOL0     H27648   8.345   3.737   1.904  1.6209 -1.0634 -1.0846
  925MOL0     H27649   8.453   3.591   1.886  1.2231  0.8299 -0.7286
  925MOL0     H27650   8.288   3.595   1.827 -0.8859  2.2546 -0.1099
  926MOL0     O27651   7.540  10.068   0.961  0.6617  0.7313 -0.0287
  926MOL0     C27652   7.474  10.172   0.949  0.2951 -0.6388 -0.7513
  926MOL0     O27653   7.347  10.195   1.004 -0.3185 -0.0769  0.9773
  926MOL0     C27654   7.268  10.116   1.086  0.3060 -0.1574 -0.4102
  926MOL0     C27655   7.132  10.139   1.084 -0.1112  0.1450 -0.4222
  926MOL0     C27656   7.050  10.064   1.167  0.0810 -0.0300 -0.4731
  926MOL0     C27657   7.097   9.958   1.253 -0.4642  0.7920 -0.1892
  926MOL0     O27658   7.005   9.882   1.317 -0.3490  0.2559 -0.1104
  926MOL0     C27659   7.029   9.741   1.333 -0.9504  0.0725 -1.1910
  926MOL0     C27660   6.912   9.691   1.424 -0.0152 -0.7175 -0.0696
  926MOL0     C27661   6.934   9.549   1.469  0.6023 -0.4931  0.4228
  926MOL0     C27662   7.039   9.547   1.581 -0.1929  0.4289  0.5047
  926MOL0     C27663   7.050   9.403   1.643  0.6328  1.0477  0.3946
  926MOL0     C27664   7.138   9.392   1.765 -0.3345 -0.0943  0.3121
  926MOL0     C27665   7.288   9.428   1.741  0.2602 -0.7932 -0.1703
  926MOL0     C27666   7.366   9.385   1.860 -0.1414  0.0660 -0.4507
  926MOL0     N27667   7.386   9.233   1.875 -0.3521 -0.3095 -0.2669
  926MOL0     C27668   7.488   9.163   1.814  0.2425  0.9974  0.3776
  926MOL0     C27669   7.461   9.037   1.848  0.5343  0.2329  0.5984
  926MOL0     C27670   7.544   8.919   1.808  0.5532  0.1148  1.0883
  926MOL0     C27671   7.680   8.925   1.892  0.0126  0.5941 -1.0958
  926MOL0     C27672   7.653   8.859   2.025 -0.1493 -0.4674 -0.4564
  926MOL0     C27673   7.780   8.839   2.107 -1.1515 -0.2987 -0.1190
  926MOL0     O27674   7.840   8.730   2.045 -0.8873 -0.2179  0.2328
  926MOL0     C27675   7.933   8.649   2.114  1.0731  0.1328 -0.5804
  926MOL0     C27676   7.923   8.517   2.100  0.4927  0.1593 -0.3944
  926MOL0     C27677   8.009   8.435   2.180  0.2031  0.4046 -0.6087
  926MOL0     C27678   7.996   8.292   2.154 -0.5836 -0.2543 -0.0130
  926MOL0     C27679   8.092   8.488   2.276  0.0580  0.8783 -0.0518
  926MOL0     C27680   8.178   8.408   2.366  0.7267 -0.6710  0.2171
  926MOL0     O27681   8.131   8.283   2.393  0.3451  0.2444  0.4127
  926MOL0     C27682   8.218   8.193   2.453 -0.1879 -1.1937 -0.5505
  926MOL0     C27683   8.325   8.137   2.385  0.3637 -0.1158 -0.1465
  926MOL0     C27684   8.408   8.046   2.443  0.1747 -0.1526 -0.2437
  926MOL0     C27685   8.397   8.016   2.580  0.5048  0.0408  0.0924
  926MOL0     O27686   8.477   7.929   2.649  0.1490  0.3172 -0.1864
  926MOL0     C27687   8.611   7.928   2.613 -0.5427  0.0966 -0.1158
  926MOL0     C27688   8.701   7.915   2.746  0.3564 -1.1893 -0.7446
  926MOL0     C27689   8.848   7.918   2.724  0.1792  0.8143  0.2876
  926MOL0     C27690   8.908   7.916   2.867 -0.4149 -0.1921  0.2575
  926MOL0     C27691   9.060   7.919   2.869  0.4552 -0.3020 -0.3781
  926MOL0     C27692   9.111   7.877   3.005  0.3903 -0.5280  0.7163
  926MOL0     C27693   9.268   7.872   3.018 -0.3691 -0.9687 -0.0620
  926MOL0     C27694   9.339   8.014   3.032 -0.0561  0.4098 -1.1835
  926MOL0    Cl27695   9.482   7.997   3.148  0.5521  0.3016  0.0137
  926MOL0     C27696   8.270   8.056   2.640  0.3750  0.8962 -0.9006
  926MOL0     C27697   8.182   8.136   2.581  0.1650 -0.1254 -0.2094
  926MOL0     O27698   8.275   8.457   2.425 -0.2504  1.0584 -0.0808
  926MOL0     C27699   8.091   8.624   2.293 -0.2147 -0.2402 -0.0403
  926MOL0     C27700   8.011   8.706   2.214  0.4599 -0.7817 -0.4753
  926MOL0     N27701   7.345   9.033   1.924 -0.0515 -0.9771  0.0703
  926MOL0     N27702   7.302   9.151   1.941  0.0480 -0.4993 -0.0512
  926MOL0     C27703   7.230   9.927   1.245  0.6218 -0.2811  1.0967
  926MOL0     C27704   7.320  10.007   1.165  1.0675 -0.4359  0.1640
  926MOL0     C27705   7.538  10.278   0.869 -0.3483  0.1188 -0.1777
  926MOL0     C27706   7.492  10.412   0.887  0.3914  0.1255 -0.0011
  926MOL0     C27707   7.547  10.529   0.822  0.2288  1.3685 -0.4647
  926MOL0     C27708   7.669  10.513   0.758  0.2778  0.2891 -0.1568
  926MOL0     O27709   7.735  10.616   0.697  0.0405  0.5314 -0.3651
  926MOL0     C27710   7.689  10.748   0.701  0.3956  0.0742  0.3388
  926MOL0     C27711   7.804  10.841   0.655  0.4789 -0.4059 -0.1285
  926MOL0     C27712   7.768  10.988   0.683  0.3034  0.2841  0.1113
  926MOL0     C27713   7.894  11.082   0.712 -0.8088 -0.7834 -0.6247
  926MOL0     C27714   8.004  11.068   0.616  0.2140  0.0523 -0.0532
  926MOL0     C27715   8.102  11.058   0.540  0.2918  0.7937 -0.3402
  926MOL0     C27716   7.720  10.388   0.741 -0.3591 -0.7669  0.2335
  926MOL0     C27717   7.654  10.272   0.782 -0.0600  0.1228 -0.8596
  926MOL0     C27718   7.709  10.140   0.739 -0.2741  0.5433  0.3252
  926MOL0     H27719   7.075  10.212   1.028 -0.3806 -1.2285 -2.0133
  926MOL0     H27720   6.944  10.085   1.176  0.0364 -0.8581  1.2387
  926MOL0     H27721   7.119   9.712   1.387 -2.6983 -1.9307  0.8808
  926MOL0     H27722   7.018   9.692   1.235 -2.4769 -0.1359 -0.9412
  926MOL0     H27723   6.906   9.752   1.514 -0.2837 -1.8613  0.7060
  926MOL0     H27724   6.815   9.693   1.373  0.7471  0.6207 -1.5560
  926MOL0     H27725   6.840   9.504   1.503  0.1906 -0.6938 -0.8985
  926MOL0     H27726   6.955   9.486   1.383 -1.1459  0.4979 -0.8085
  926MOL0     H27727   7.137   9.585   1.553 -0.3048  1.2306  1.1735
  926MOL0     H27728   7.013   9.616   1.661  0.0991  1.0085  0.1013
  926MOL0     H27729   7.100   9.331   1.579 -0.0103  0.5680  0.4167
  926MOL0     H27730   6.953   9.367   1.679  0.8543 -1.1949 -1.0965
  926MOL0     H27731   7.107   9.462   1.843  1.7571 -0.1907  1.2891
  926MOL0     H27732   7.136   9.286   1.793 -0.6853 -0.8903 -2.3982
  926MOL0     H27733   7.308   9.534   1.723 -0.0231 -0.6329  0.4281
  926MOL0     H27734   7.345   9.382   1.659  1.8293 -0.2885  0.5922
  926MOL0     H27735   7.463   9.435   1.865  0.0487 -0.3474  0.1154
  926MOL0     H27736   7.314   9.412   1.953  2.4338 -1.0654  1.4367
  926MOL0     H27737   7.570   9.194   1.750  0.7936 -1.4605 -0.2125
  926MOL0     H27738   7.568   8.943   1.704  1.1298  2.4321  1.6962
  926MOL0     H27739   7.489   8.825   1.807 -0.5946  0.7248 -1.2333
  926MOL0     H27740   7.757   8.869   1.838  2.2183  1.2629  1.1874
  926MOL0     H27741   7.714   9.027   1.907 -1.7248  1.5912 -3.3396
  926MOL0     H27742   7.581   8.908   2.090 -2.0438 -1.7004 -1.5382
  926MOL0     H27743   7.608   8.761   2.011 -1.0271 -0.3933  1.5477
  926MOL0     H27744   7.844   8.928   2.112 -1.9673  0.2511  2.8830
  926MOL0     H27745   7.761   8.807   2.210  2.0893  1.3534  1.1347
  926MOL0     H27746   7.875   8.479   2.011  2.2110 -0.5124 -1.0678
  926MOL0     H27747   8.092   8.241   2.140 -1.0019 -1.2172  0.5269
  926MOL0     H27748   7.938   8.271   2.063 -1.5252 -0.6982  0.6690
  926MOL0     H27749   7.943   8.243   2.236  1.6148 -1.5684  0.7262
  926MOL0     H27750   8.324   8.184   2.287 -2.1804  2.0966  0.7850
  926MOL0     H27751   8.494   8.012   2.387 -0.1512 -0.4256 -0.5834
  926MOL0     H27752   8.647   7.848   2.548 -0.4133 -0.7233  0.9333
  926MOL0     H27753   8.641   8.022   2.565  2.1690  0.8453  2.6916
  926MOL0     H27754   8.682   8.000   2.814 -0.4611 -1.5579 -0.4966
  926MOL0     H27755   8.670   7.821   2.792  0.9887 -2.1359 -2.2123
  926MOL0     H27756   8.866   7.997   2.651 -0.8034 -0.2131 -1.1328
  926MOL0     H27757   8.879   7.823   2.681 -0.3901 -0.8141  3.1771
  926MOL0     H27758   8.875   7.821   2.909  0.0557  0.0235  1.1534
  926MOL0     H27759   8.879   7.998   2.934  1.8133 -0.5248  1.7543
  926MOL0     H27760   9.098   7.848   2.795 -2.2721 -0.1235 -2.0775
  926MOL0     H27761   9.093   8.019   2.841  2.2167 -0.6598  0.2344
  926MOL0     H27762   9.077   7.776   3.029 -0.2716 -0.2000  1.2332
  926MOL0     H27763   9.070   7.945   3.081 -2.5569  2.0542 -2.8161
  926MOL0     H27764   9.300   7.818   2.929  1.2633  0.5262 -0.4426
  926MOL0     H27765   9.284   7.819   3.112  1.2964  1.2639  1.0220
  926MOL0     H27766   9.274   8.084   3.085  0.7045 -0.5371  1.1291
  926MOL0     H27767   9.367   8.041   2.929  0.9238  1.2442 -0.7211
  926MOL0     H27768   8.261   8.019   2.742 -2.4814 -0.2679 -1.4835
  926MOL0     H27769   8.087   8.170   2.622  0.4815  1.7215 -0.8637
  926MOL0     H27770   8.162   8.666   2.364  0.6945 -0.3588 -0.8602
  926MOL0     H27771   8.004   8.810   2.241 -0.5458 -1.2022  1.0199
  926MOL0     H27772   7.268   9.834   1.285  1.9516 -1.5801 -2.7537
  926MOL0     H27773   7.420   9.966   1.156  0.7074 -1.3859  0.4427
  926MOL0     H27774   7.405  10.434   0.948  1.6529  3.3427  0.8296
  926MOL0     H27775   7.495  10.622   0.843 -0.0291  0.9969  0.6352
  926MOL0     H27776   7.609  10.768   0.629  0.8896  1.3416  0.1274
  926MOL0     H27777   7.654  10.771   0.802 -2.2668 -1.0309 -0.2459
  926MOL0     H27778   7.836  10.823   0.552  2.2587 -1.3535  0.5529
  926MOL0     H27779   7.893  10.815   0.713  0.0764  2.5561  2.0771
  926MOL0     H27780   7.703  11.012   0.599 -1.0383 -0.9143  0.7579
  926MOL0     H27781   7.702  11.002   0.769 -0.0983 -2.0633  0.2616
  926MOL0     H27782   7.931  11.055   0.811  0.6930  1.4072 -0.5303
  926MOL0     H27783   7.881  11.190   0.720  3.2497 -0.3109  3.8864
  926MOL0     H27784   8.189  11.067   0.478  0.0068  0.3201 -0.8149
  926MOL0     H27785   7.801  10.380   0.670  1.4428  2.6873  1.6662
  926MOL0     H27786   7.790  10.159   0.668  1.8514 -3.5155  1.3333
  926MOL0     H27787   7.753  10.090   0.827  1.9177 -0.3552 -1.1933
  926MOL0     H27788   7.645  10.067   0.689 -0.8952  2.2595 -1.4962
  927MOL0     O27789   9.978   0.919   0.906 -0.0074 -0.1139  0.7093
  927MOL0     C27790  10.069   1.002   0.883  0.1089 -0.2211 -0.0748
  927MOL0     O27791  10.071   1.136   0.925  0.3121  0.1434 -0.6308
  927MOL0     C27792   9.991   1.184   1.022  0.5302 -0.1918 -0.1137
  927MOL0     C27793   9.932   1.117   1.125  0.4713  0.5929  0.1176
  927MOL0     C27794   9.842   1.175   1.213 -0.6186  0.3602 -0.6393
  927MOL0     C27795   9.806   1.306   1.198  0.1907 -0.3658 -0.1663
  927MOL0     O27796   9.722   1.350   1.304 -0.2945 -0.1853  0.2252
  927MOL0     C27797   9.666   1.486   1.308  0.8376 -0.9791 -0.0936
  927MOL0     C27798   9.562   1.492   1.422 -0.5589  0.4044  0.0055
  927MOL0     C27799   9.489   1.620   1.425 -0.0332 -0.7824 -0.8587
  927MOL0     C27800   9.399   1.631   1.552  0.3054  0.6168 -0.8752
  927MOL0     C27801   9.458   1.675   1.688 -0.3826 -0.5982  0.2392
  927MOL0     C27802   9.486   1.831   1.673 -0.0183 -0.2828  0.3699
  927MOL0     C27803   9.481   1.905   1.812  0.8614  0.2678  0.4434
  927MOL0     C27804   9.487   2.057   1.801  0.1643  0.0345  0.7772
  927MOL0     N27805   9.611   2.100   1.727  0.4132  0.2824 -0.0238
  927MOL0     C27806   9.725   2.033   1.709  1.4923 -0.3237 -0.1132
  927MOL0     C27807   9.805   2.116   1.636 -0.6486 -0.3491 -0.5459
  927MOL0     C27808   9.950   2.090   1.591  0.5459  0.1614 -0.5391
  927MOL0     C27809  10.051   2.204   1.607  0.1405  0.2652 -0.4475
  927MOL0     C27810  10.079   2.256   1.748  0.2766 -0.4613 -0.1720
  927MOL0     C27811  10.193   2.361   1.746  0.3945  0.4456  0.5589
  927MOL0     O27812  10.174   2.451   1.854  0.8250  0.4530 -0.3054
  927MOL0     C27813  10.279   2.507   1.926 -0.2279  0.2579  0.5310
  927MOL0     C27814  10.242   2.566   2.048 -1.0788 -0.6593 -0.2804
  927MOL0     C27815  10.347   2.606   2.147  0.8773  0.6551  0.1599
  927MOL0     C27816  10.312   2.666   2.284  0.5719 -0.3803 -0.2350
  927MOL0     C27817  10.483   2.597   2.119 -0.3498  0.6215  0.6811
  927MOL0     C27818  10.594   2.638   2.204  0.5155  0.2978  0.6924
  927MOL0     O27819  10.705   2.675   2.132 -0.1240 -0.2306 -0.1766
  927MOL0     C27820  10.818   2.725   2.198  0.7398  0.3437 -0.8511
  927MOL0     C27821  10.809   2.805   2.312 -0.7523 -1.2965  0.4769
  927MOL0     C27822  10.917   2.889   2.343 -0.2270 -0.3547 -0.8073
  927MOL0     C27823  11.044   2.869   2.287  0.4601 -0.3473 -0.3454
  927MOL0     O27824  11.147   2.957   2.315 -0.3012 -0.6772 -0.1524
  927MOL0     C27825  11.213   3.018   2.204 -1.3774 -0.4291 -0.3317
  927MOL0     C27826  11.291   3.147   2.261 -0.4906  0.0439 -0.0416
  927MOL0     C27827  11.432   3.122   2.308  0.1715  0.2566 -0.5959
  927MOL0     C27828  11.500   3.253   2.344  0.0552  0.8809  0.6463
  927MOL0     C27829  11.537   3.260   2.495 -0.6394 -0.3733 -0.2986
  927MOL0     C27830  11.639   3.167   2.550 -0.1134 -0.1870 -0.9581
  927MOL0     C27831  11.630   3.143   2.704 -0.4444  0.4193 -0.0451
  927MOL0     C27832  11.735   3.036   2.750  0.3876  0.6480  0.0648
  927MOL0    Cl27833  11.887   3.141   2.763 -0.2577 -0.6747  0.3751
  927MOL0     C27834  11.056   2.771   2.184  0.7568  0.7465  0.4472
  927MOL0     C27835  10.938   2.708   2.134 -0.6907  1.3550 -0.2823
  927MOL0     O27836  10.590   2.609   2.322  0.0461 -0.3419  0.0791
  927MOL0     C27837  10.513   2.536   1.992 -0.6040  0.6130 -0.5374
  927MOL0     C27838  10.415   2.500   1.898  0.1623  0.6828  0.3571
  927MOL0     N27839   9.744   2.238   1.627 -0.0372 -0.1936  0.3171
  927MOL0     N27840   9.626   2.227   1.683 -0.5883  1.0068 -0.8785
  927MOL0     C27841   9.878   1.390   1.111 -0.4163 -0.5313  0.0210
  927MOL0     C27842   9.966   1.324   1.020  0.4299 -0.0971  0.5440
  927MOL0     C27843  10.188   0.949   0.817 -0.3284  0.5172 -0.3570
  927MOL0     C27844  10.172   0.824   0.744 -0.1120 -0.1138 -1.0528
  927MOL0     C27845  10.292   0.770   0.707  0.6745  0.4460 -0.2101
  927MOL0     C27846  10.426   0.818   0.726 -0.5074 -0.7392  0.2310
  927MOL0     O27847  10.532   0.765   0.664  0.1323 -0.3278  0.2320
  927MOL0     C27848  10.552   0.626   0.657 -0.5646 -0.2573  0.0690
  927MOL0     C27849  10.664   0.619   0.544  0.4111  0.7018 -0.3382
  927MOL0     C27850  10.625   0.689   0.419 -0.2028  0.2670  0.6994
  927MOL0     C27851  10.752   0.722   0.334 -0.0371  0.5372 -0.1418
  927MOL0     C27852  10.729   0.797   0.206  0.8261  0.2487  0.2589
  927MOL0     C27853  10.698   0.854   0.101 -0.2193 -0.1465  0.0616
  927MOL0     C27854  10.432   0.937   0.802  0.0011 -0.8567 -1.3201
  927MOL0     C27855  10.317   1.002   0.848 -1.0193  0.1942 -0.1502
  927MOL0     C27856  10.353   1.135   0.919  0.6761  0.0046 -0.4815
  927MOL0     H27857   9.954   1.011   1.139  0.2897  0.3264 -1.3449
  927MOL0     H27858   9.791   1.115   1.288  0.4725  1.0745  0.7267
  927MOL0     H27859   9.615   1.510   1.215 -0.7689  0.7134  1.1434
  927MOL0     H27860   9.742   1.564   1.321  1.1963 -1.6400  2.4774
  927MOL0     H27861   9.495   1.406   1.412  4.0246 -3.5966  0.0129
  927MOL0     H27862   9.606   1.479   1.521 -3.8107  1.8595  1.8123
  927MOL0     H27863   9.572   1.692   1.428  0.7981 -1.7376  0.6524
  927MOL0     H27864   9.413   1.622   1.347 -2.5244 -2.0896  1.3907
  927MOL0     H27865   9.310   1.693   1.536 -1.0162 -0.9712 -0.0078
  927MOL0     H27866   9.361   1.532   1.579  2.9087  0.1033  1.3353
  927MOL0     H27867   9.549   1.618   1.710  1.7600  2.4970  0.0034
  927MOL0     H27868   9.395   1.659   1.776  1.7461 -1.2043  1.7436
  927MOL0     H27869   9.581   1.841   1.620 -0.1796  1.5290  0.3908
  927MOL0     H27870   9.396   1.869   1.622  1.6300  2.3547 -0.7710
  927MOL0     H27871   9.562   1.864   1.873 -0.7120  0.2331  2.6536
  927MOL0     H27872   9.391   1.876   1.868  2.0026 -0.4887  1.9399
  927MOL0     H27873   9.399   2.094   1.747 -0.5821 -0.7092  1.4659
  927MOL0     H27874   9.499   2.098   1.901  1.5257  1.8530 -0.0635
  927MOL0     H27875   9.748   1.930   1.733  4.1934  0.0138 -0.9684
  927MOL0     H27876   9.957   2.056   1.487 -0.2253  0.1463 -0.5929
  927MOL0     H27877   9.984   2.004   1.649  0.6357  2.5528  3.3353
  927MOL0     H27878  10.147   2.164   1.575  0.2328  0.7988 -0.8643
  927MOL0     H27879  10.021   2.289   1.544 -2.4107  0.1679  0.5138
  927MOL0     H27880   9.984   2.298   1.784  1.1178 -0.8048  2.7624
  927MOL0     H27881  10.108   2.168   1.806  1.4576  0.1916  0.2714
  927MOL0     H27882  10.286   2.304   1.757  2.3472  2.7491 -2.2547
  927MOL0     H27883  10.216   2.417   1.655  0.9258  1.8913  1.5510
  927MOL0     H27884  10.138   2.577   2.078 -0.9141 -0.9475  0.4032
  927MOL0     H27885  10.377   2.752   2.306 -1.3793  1.4267 -1.1822
  927MOL0     H27886  10.338   2.583   2.350  0.1333 -0.6483 -0.3953
  927MOL0     H27887  10.211   2.701   2.306  1.2030  1.7395 -0.4859
  927MOL0     H27888  10.710   2.820   2.353 -1.6417 -1.9344 -1.3051
  927MOL0     H27889  10.887   2.978   2.397 -3.0797  0.8083 -3.9219
  927MOL0     H27890  11.287   2.959   2.150 -0.0220  2.2595 -1.6241
  927MOL0     H27891  11.129   3.044   2.139 -1.8774  0.4556  0.6231
  927MOL0     H27892  11.287   3.237   2.199 -0.1093  0.0639 -0.0412
  927MOL0     H27893  11.239   3.177   2.353 -0.3553 -5.6582  2.2662
  927MOL0     H27894  11.490   3.083   2.224  1.7064  2.8212 -0.8334
  927MOL0     H27895  11.436   3.060   2.398  0.3773 -0.2472 -0.9459
  927MOL0     H27896  11.435   3.336   2.315  1.3870  1.2842 -1.4048
  927MOL0     H27897  11.591   3.256   2.283  1.6925 -1.7292  2.7239
  927MOL0     H27898  11.579   3.360   2.506  0.5066 -0.9068  0.3143
  927MOL0     H27899  11.446   3.249   2.554  0.7914 -1.4308  1.8340
  927MOL0     H27900  11.743   3.186   2.521 -0.0410 -1.4574 -1.6033
  927MOL0     H27901  11.621   3.067   2.508 -2.2404 -0.2669  0.0339
  927MOL0     H27902  11.534   3.095   2.726 -0.0789  0.1838  1.0684
  927MOL0     H27903  11.634   3.241   2.752 -2.0562  2.0176 -2.8927
  927MOL0     H27904  11.735   2.952   2.679  3.4278  0.1188  0.5873
  927MOL0     H27905  11.701   3.008   2.850  0.9183  1.7137  0.5605
  927MOL0     H27906  11.158   2.762   2.148  1.0856  0.9557  1.3220
  927MOL0     H27907  10.956   2.635   2.056 -1.5250  0.0388  0.7167
  927MOL0     H27908  10.618   2.528   1.966 -0.7907  0.2136 -1.2162
  927MOL0     H27909  10.438   2.456   1.802 -1.3621  1.2176 -0.2944
  927MOL0     H27910   9.876   1.498   1.103  1.7387 -0.4065  0.7326
  927MOL0     H27911  10.033   1.388   0.963  0.5501  1.0486  1.9187
  927MOL0     H27912  10.083   0.768   0.719 -0.1361 -0.1532 -0.8785
  927MOL0     H27913  10.284   0.673   0.657 -1.3843 -0.5271  1.8351
  927MOL0     H27914  10.588   0.576   0.747 -0.9969 -0.6686  0.0146
  927MOL0     H27915  10.460   0.582   0.620  0.7381 -1.9404 -1.3343
  927MOL0     H27916  10.674   0.517   0.506  2.9954  1.8121 -3.0166
  927MOL0     H27917  10.758   0.654   0.587  0.8555  0.4679 -1.0873
  927MOL0     H27918  10.544   0.638   0.366 -0.4898  2.9178 -1.6752
  927MOL0     H27919  10.587   0.791   0.435  0.2435  0.4883  0.3853
  927MOL0     H27920  10.797   0.623   0.321  0.4704  0.3106  2.7014
  927MOL0     H27921  10.825   0.781   0.390  0.1562  0.9250 -0.7981
  927MOL0     H27922  10.682   0.906   0.009 -4.6325 -1.2914 -0.0430
  927MOL0     H27923  10.523   0.983   0.840 -1.4125  0.7527  0.3167
  927MOL0     H27924  10.461   1.148   0.927  0.7837 -0.9764 -0.3248
  927MOL0     H27925  10.317   1.228   0.873  1.5667  0.6310  0.0518
  927MOL0     H27926  10.306   1.141   1.017  0.0964 -0.3516 -0.7310
  928MOL0     O27927   9.620   3.347   5.049  0.5531  0.3697 -0.0196
  928MOL0     C27928   9.721   3.308   4.991  1.1733 -0.3041  0.2540
  928MOL0     O27929   9.849   3.349   5.017  0.3444 -0.6077 -0.6260
  928MOL0     C27930   9.855   3.446   5.114  0.3532  0.1304  0.7284
  928MOL0     C27931   9.878   3.578   5.087  0.3468 -1.0323 -0.4766
  928MOL0     C27932   9.905   3.669   5.184  0.0489 -0.8156 -0.0337
  928MOL0     C27933   9.893   3.630   5.317 -0.5519 -0.2563  0.4335
  928MOL0     O27934   9.909   3.713   5.421  0.2211  0.3753  0.3239
  928MOL0     C27935   9.932   3.849   5.392 -0.7390  0.6083  1.0561
  928MOL0     C27936   9.941   3.927   5.528  0.4105  0.2951  1.2738
  928MOL0     C27937   9.817   3.920   5.625 -0.2119  0.9185 -0.2973
  928MOL0     C27938   9.812   4.041   5.717 -0.0693  0.2367 -0.3513
  928MOL0     C27939   9.691   4.022   5.806 -0.1895 -0.7095 -0.6522
  928MOL0     C27940   9.683   4.137   5.907  0.7333 -0.1765 -0.2545
  928MOL0     C27941   9.547   4.121   5.978  1.0940 -0.0520  0.3521
  928MOL0     C27942   9.526   4.228   6.095 -0.7064 -0.2802  0.2996
  928MOL0     N27943   9.394   4.241   6.153  0.0421  0.3105 -1.0032
  928MOL0     C27944   9.273   4.204   6.095 -0.7212 -0.6579  1.4005
  928MOL0     C27945   9.182   4.211   6.197  0.6756 -1.0757 -0.6324
  928MOL0     C27946   9.029   4.175   6.198  0.4625  0.4325  0.4110
  928MOL0     C27947   8.996   4.086   6.074 -0.6788  0.0286 -0.1233
  928MOL0     C27948   8.849   4.078   6.056 -0.3959 -0.5130  0.4956
  928MOL0     C27949   8.827   3.995   5.933  0.6356  0.5378 -0.0700
  928MOL0     O27950   8.808   3.850   5.963 -0.1788  0.4742 -0.5030
  928MOL0     C27951   8.804   3.768   5.854  0.1990  0.0965 -0.5835
  928MOL0     C27952   8.859   3.642   5.868 -0.1488  0.1332 -0.0730
  928MOL0     C27953   8.893   3.558   5.772  0.0852  0.6204  0.5129
  928MOL0     C27954   8.957   3.422   5.797  0.0517  0.2643 -0.3766
  928MOL0     C27955   8.866   3.601   5.639 -0.7373 -0.6247  0.0689
  928MOL0     C27956   8.913   3.520   5.514  0.0366  0.4091 -0.3264
  928MOL0     O27957   9.010   3.425   5.524  0.5239  0.4508 -0.8643
  928MOL0     C27958   9.040   3.340   5.421 -1.0914 -0.3300  0.4399
  928MOL0     C27959   8.974   3.217   5.389 -0.6579  0.0006  0.5274
  928MOL0     C27960   9.011   3.133   5.285 -0.5285 -0.4150 -0.2958
  928MOL0     C27961   9.133   3.167   5.211  0.0808 -0.1621 -0.5192
  928MOL0     O27962   9.183   3.094   5.104  0.4147 -0.2443  0.2921
  928MOL0     C27963   9.126   2.960   5.086 -0.1452 -0.5722 -0.0329
  928MOL0     C27964   9.207   2.870   4.983  0.2017 -1.1505  0.1041
  928MOL0     C27965   9.115   2.744   4.947  0.9619  0.3552  0.0888
  928MOL0     C27966   9.179   2.649   4.856 -0.8752  0.4223  0.6942
  928MOL0     C27967   9.076   2.559   4.779 -0.1937 -0.1312 -0.2977
  928MOL0     C27968   9.164   2.514   4.655 -0.1654 -0.9608 -0.4755
  928MOL0     C27969   9.136   2.371   4.611 -0.2792  0.6496  0.3200
  928MOL0     C27970   9.185   2.276   4.717  0.2640 -0.5706 -0.7629
  928MOL0    Cl27971   9.158   2.116   4.641 -0.1626 -0.4224 -0.4637
  928MOL0     C27972   9.190   3.282   5.234 -0.2758 -0.5793  0.0569
  928MOL0     C27973   9.146   3.373   5.338  0.6556  0.2849 -0.6897
  928MOL0     O27974   8.850   3.539   5.407  0.1110  0.2101  0.1404
  928MOL0     C27975   8.799   3.723   5.615 -0.3472  0.5353 -0.4137
  928MOL0     C27976   8.771   3.807   5.728  0.6891  0.3341  1.1867
  928MOL0     N27977   9.250   4.268   6.302 -0.2485  0.4971  0.2627
  928MOL0     N27978   9.380   4.282   6.283  0.0960 -1.5192  0.4305
  928MOL0     C27979   9.883   3.496   5.346 -0.4179  0.0764  0.4562
  928MOL0     C27980   9.865   3.408   5.243 -0.5403  0.4172 -1.1930
  928MOL0     C27981   9.709   3.193   4.896  0.9390 -0.5786  0.0950
  928MOL0     C27982   9.819   3.147   4.836 -0.8455  0.4803 -0.9090
  928MOL0     C27983   9.819   3.033   4.755  0.0174  0.7394  1.3089
  928MOL0     C27984   9.703   2.964   4.725  0.2040  0.1439 -0.2812
  928MOL0     O27985   9.705   2.839   4.671 -0.1402  0.0629 -0.2190
  928MOL0     C27986   9.596   2.740   4.657  0.7460  0.4332 -0.1460
  928MOL0     C27987   9.573   2.701   4.510 -0.3615  0.5455  0.1674
  928MOL0     C27988   9.574   2.819   4.406 -0.4683 -0.1220  0.2079
  928MOL0     C27989   9.443   2.855   4.343  0.9508 -0.9328  0.2232
  928MOL0     C27990   9.346   2.884   4.450 -0.5675 -0.5690 -0.1706
  928MOL0     C27991   9.268   2.892   4.548  0.1160  0.4419  0.9286
  928MOL0     C27992   9.582   3.020   4.774 -0.2380 -0.0988 -0.5686
  928MOL0     C27993   9.581   3.131   4.858  0.4785  0.1898 -0.4580
  928MOL0     C27994   9.437   3.163   4.896  0.6869 -0.5609 -0.4579
  928MOL0     H27995   9.870   3.612   4.984 -2.8647 -2.3772 -0.7937
  928MOL0     H27996   9.928   3.773   5.162  0.2956 -0.5677  1.3087
  928MOL0     H27997   9.857   3.905   5.335 -0.0757  1.3622  0.9087
  928MOL0     H27998  10.024   3.857   5.333 -2.5771  1.1914 -1.9754
  928MOL0     H27999  10.024   3.882   5.583 -0.9859 -1.4738  2.0424
  928MOL0     H28000   9.950   4.032   5.499  1.2227 -0.2044 -0.4053
  928MOL0     H28001   9.724   3.917   5.567 -0.3849  0.4787 -0.0038
  928MOL0     H28002   9.826   3.839   5.698  1.0902  3.1956  2.2504
  928MOL0     H28003   9.905   4.040   5.775  0.8894  1.3500 -1.8068
  928MOL0     H28004   9.804   4.136   5.663 -0.4083  0.5944  0.3187
  928MOL0     H28005   9.690   3.928   5.863  2.4490 -0.2690  0.2691
  928MOL0     H28006   9.602   4.016   5.742 -0.4463  2.5161 -0.7479
  928MOL0     H28007   9.758   4.117   5.984  0.0686  2.1747  1.1071
  928MOL0     H28008   9.708   4.235   5.866 -2.0831  1.5958  1.8691
  928MOL0     H28009   9.522   4.022   6.018  1.3588 -1.6446 -3.0745
  928MOL0     H28010   9.468   4.140   5.905 -1.0723 -0.5487  2.4627
  928MOL0     H28011   9.580   4.209   6.188 -0.2413  1.0982  0.3379
  928MOL0     H28012   9.573   4.315   6.048  0.6448 -1.7518 -1.2299
  928MOL0     H28013   9.250   4.164   5.997 -0.5711  0.9595  0.6668
  928MOL0     H28014   8.959   4.258   6.187 -0.8888 -0.9808 -3.2594
  928MOL0     H28015   9.012   4.121   6.291  2.4015  0.4411  0.8065
  928MOL0     H28016   9.036   4.126   5.981  0.5770 -1.2764 -0.1665
  928MOL0     H28017   9.045   3.992   6.099  2.7284  1.7404  0.2026
  928MOL0     H28018   8.789   4.049   6.143 -1.4073  2.0155  0.7428
  928MOL0     H28019   8.827   4.183   6.032  1.3085 -0.3654 -0.5877
  928MOL0     H28020   8.737   4.029   5.881  1.3208  2.7351  0.0548
  928MOL0     H28021   8.912   4.006   5.866  0.8245  1.7042  0.3360
  928MOL0     H28022   8.880   3.610   5.969  0.6724 -0.9259 -0.5523
  928MOL0     H28023   8.901   3.340   5.752 -0.3233 -0.8108  1.9406
  928MOL0     H28024   8.952   3.394   5.902 -1.3390 -0.1806 -0.5394
  928MOL0     H28025   9.065   3.421   5.782  0.4662  0.1261  2.3064
  928MOL0     H28026   8.886   3.203   5.451 -1.0499  0.7211  0.1423
  928MOL0     H28027   8.955   3.047   5.252 -2.1789  0.3334  0.4282
  928MOL0     H28028   9.133   2.905   5.181 -1.5764 -0.7182  0.0029
  928MOL0     H28029   9.020   2.967   5.062  0.4363  2.8996 -2.2520
  928MOL0     H28030   9.228   2.929   4.893  1.8537 -1.5443  0.2115
  928MOL0     H28031   9.296   2.834   5.033  0.5015 -2.5586 -1.3690
  928MOL0     H28032   9.025   2.773   4.892  1.6464  4.4724  0.7791
  928MOL0     H28033   9.089   2.685   5.035  3.4961 -2.8920 -1.1499
  928MOL0     H28034   9.250   2.586   4.910  0.0409  0.7465 -0.1098
  928MOL0     H28035   9.236   2.708   4.784 -1.9109  0.2969 -0.2616
  928MOL0     H28036   9.045   2.479   4.848  0.5072  1.4797  1.9990
  928MOL0     H28037   8.985   2.610   4.744 -1.0468  1.8266  4.0952
  928MOL0     H28038   9.271   2.521   4.678  0.0475 -2.4960 -0.8677
  928MOL0     H28039   9.134   2.577   4.570  3.4095  0.4093 -0.9135
  928MOL0     H28040   9.182   2.344   4.516 -0.4796  0.5982  0.2362
  928MOL0     H28041   9.028   2.366   4.593 -0.3576  1.5672  0.4896
  928MOL0     H28042   9.127   2.281   4.810  0.5536 -1.4160 -0.5255
  928MOL0     H28043   9.287   2.298   4.749 -0.9887  1.9193  2.0508
  928MOL0     H28044   9.275   3.311   5.172 -1.1074  2.2640  0.1053
  928MOL0     H28045   9.193   3.468   5.360  0.1522  0.1809  0.9472
  928MOL0     H28046   8.773   3.753   5.514 -0.0129 -0.3621 -0.7746
  928MOL0     H28047   8.721   3.901   5.707 -1.1594 -0.5484  1.3921
  928MOL0     H28048   9.885   3.466   5.450  1.7868 -0.2032  0.3719
  928MOL0     H28049   9.868   3.301   5.259 -1.0416  0.4019 -1.1844
  928MOL0     H28050   9.916   3.180   4.872 -0.5204 -3.2408  2.2266
  928MOL0     H28051   9.911   2.996   4.709 -0.5135  0.5690  0.3590
  928MOL0     H28052   9.635   2.654   4.711  1.4112  1.8586  1.7781
  928MOL0     H28053   9.508   2.783   4.707  2.3115  3.4856  0.1950
  928MOL0     H28054   9.477   2.650   4.500 -0.4900  0.9637 -0.8539
  928MOL0     H28055   9.635   2.621   4.468 -2.8526 -0.8974 -0.9962
  928MOL0     H28056   9.607   2.918   4.436  3.2324 -0.2856 -2.6465
  928MOL0     H28057   9.649   2.787   4.333 -0.1030 -1.7089  1.2467
  928MOL0     H28058   9.424   2.764   4.284  0.2745 -1.5286  1.3325
  928MOL0     H28059   9.443   2.941   4.275 -1.8315  0.0691  1.3627
  928MOL0     H28060   9.219   2.878   4.642 -3.5006 -0.7687 -0.9376
  928MOL0     H28061   9.490   2.970   4.745 -0.5354 -0.6045  1.1045
  928MOL0     H28062   9.416   3.270   4.908 -1.2211 -1.0525  1.1403
  928MOL0     H28063   9.363   3.131   4.822  0.7712 -1.0166 -0.3485
  928MOL0     H28064   9.423   3.126   4.998 -3.0025  0.9658 -0.2499
  929MOL0     O28065   7.743   3.166   6.301  0.3116  0.4107 -0.4101
  929MOL0     C28066   7.687   3.237   6.373 -0.1377  0.6266 -0.9029
  929MOL0     O28067   7.616   3.351   6.342 -0.3264  0.5986  0.7863
  929MOL0     C28068   7.621   3.412   6.215  0.5221  0.6583  0.0458
  929MOL0     C28069   7.614   3.333   6.100 -0.0051 -0.4773 -0.2622
  929MOL0     C28070   7.621   3.396   5.975  1.0168  0.3786 -0.0129
  929MOL0     C28071   7.642   3.527   5.967 -0.2177 -0.0111 -0.3355
  929MOL0     O28072   7.680   3.570   5.840 -0.2594 -0.5100 -0.2955
  929MOL0     C28073   7.750   3.695   5.833  0.3318 -0.6400 -0.5079
  929MOL0     C28074   7.773   3.721   5.689 -0.1527  0.1232  0.4134
  929MOL0     C28075   7.820   3.609   5.606  0.2746 -0.4641 -0.0345
  929MOL0     C28076   7.849   3.657   5.469 -0.1955 -0.4642  0.1725
  929MOL0     C28077   7.902   3.541   5.392 -0.2726 -1.6592 -0.1104
  929MOL0     C28078   7.932   3.576   5.253 -0.3580 -0.0407  0.1196
  929MOL0     C28079   7.966   3.447   5.172 -0.5881  0.3404  0.0295
  929MOL0     C28080   8.110   3.393   5.193  0.0398  1.1080  0.2340
  929MOL0     N28081   8.151   3.262   5.136  0.2244 -0.7930  0.9880
  929MOL0     C28082   8.240   3.171   5.192  0.5230  0.2652  0.0778
  929MOL0     C28083   8.245   3.072   5.103 -0.9342  0.3683 -1.3598
  929MOL0     C28084   8.332   2.954   5.118 -0.8857  0.1307  0.0767
  929MOL0     C28085   8.253   2.828   5.102 -0.1031  0.2628  0.0257
  929MOL0     C28086   8.355   2.714   5.131  0.7822  0.4295 -0.6099
  929MOL0     C28087   8.313   2.573   5.090 -0.2539 -0.2949  0.4110
  929MOL0     O28088   8.428   2.493   5.119 -0.0517  0.0804  0.1724
  929MOL0     C28089   8.412   2.355   5.117  0.1534  0.1351  0.6021
  929MOL0     C28090   8.305   2.276   5.066  0.3647 -0.4607 -0.0359
  929MOL0     C28091   8.303   2.134   5.060  0.2795 -0.3563 -0.0056
  929MOL0     C28092   8.172   2.072   5.012 -0.1509  0.5090 -0.3473
  929MOL0     C28093   8.421   2.069   5.097 -0.6854  0.3422 -0.8106
  929MOL0     C28094   8.442   1.923   5.123 -0.5927 -0.6234  0.1936
  929MOL0     O28095   8.328   1.850   5.144  0.0749  1.1600 -0.2901
  929MOL0     C28096   8.321   1.709   5.137  0.3357 -0.2383  0.4885
  929MOL0     C28097   8.194   1.658   5.125  0.3789  0.4089 -0.0576
  929MOL0     C28098   8.174   1.517   5.111  0.6686 -0.1580 -0.8672
  929MOL0     C28099   8.277   1.426   5.133  0.5237  0.7852 -0.0459
  929MOL0     O28100   8.264   1.283   5.145  0.2108  0.0806 -0.1382
  929MOL0     C28101   8.134   1.229   5.163 -1.0725  0.5363  0.3047
  929MOL0     C28102   8.155   1.081   5.159  0.2019  0.5925  0.0040
  929MOL0     C28103   8.239   1.013   5.052 -0.6618  0.2332 -0.0668
  929MOL0     C28104   8.289   0.880   5.099 -0.4485  0.2979 -0.7232
  929MOL0     C28105   8.416   0.901   5.185  0.7804 -0.0331  0.3823
  929MOL0     C28106   8.451   0.776   5.278  0.4868 -0.6268  0.3230
  929MOL0     C28107   8.445   0.638   5.207  0.3409  0.6239  0.0337
  929MOL0     C28108   8.561   0.617   5.117  0.2499 -0.7550 -0.2071
  929MOL0    Cl28109   8.559   0.441   5.062 -0.0689  0.1259  0.2364
  929MOL0     C28110   8.400   1.480   5.151  0.3937  0.6067 -0.3759
  929MOL0     C28111   8.425   1.618   5.156 -0.3255 -0.9225  1.2060
  929MOL0     O28112   8.552   1.880   5.104  0.1065 -0.3001  0.0754
  929MOL0     C28113   8.518   2.144   5.157 -0.2689 -0.6821  0.3391
  929MOL0     C28114   8.511   2.290   5.180 -0.3853  0.3450 -0.2593
  929MOL0     N28115   8.168   3.104   4.989 -0.1667 -0.0863  0.1173
  929MOL0     N28116   8.110   3.223   5.012  0.3012 -0.5733  0.0376
  929MOL0     C28117   7.636   3.604   6.084 -0.6519 -0.2733 -0.5835
  929MOL0     C28118   7.622   3.545   6.210  0.3829 -0.2618  0.7432
  929MOL0     C28119   7.667   3.188   6.509 -0.0386  0.9441 -0.6112
  929MOL0     C28120   7.534   3.163   6.559  0.3526  0.6560  0.1698
  929MOL0     C28121   7.522   3.114   6.689  0.2271  0.4605  0.0579
  929MOL0     C28122   7.633   3.061   6.757 -0.2630 -0.4079  0.3764
  929MOL0     O28123   7.639   2.996   6.872  0.3878 -0.3278 -1.2399
  929MOL0     C28124   7.525   2.928   6.923 -0.5077 -0.3687 -0.2052
  929MOL0     C28125   7.528   2.780   6.944  0.7181 -0.2346 -0.7421
  929MOL0     C28126   7.647   2.748   7.043  0.6420  0.8043 -0.2443
  929MOL0     C28127   7.626   2.803   7.187 -0.1738  0.5063 -0.8384
  929MOL0     C28128   7.685   2.724   7.295 -0.4032 -0.4200 -0.1836
  929MOL0     C28129   7.748   2.671   7.387 -0.0125 -0.3987 -0.3278
  929MOL0     C28130   7.754   3.075   6.703  0.3071 -0.9512 -0.4110
  929MOL0     C28131   7.785   3.144   6.588 -0.3430 -0.4343  0.7898
  929MOL0     C28132   7.934   3.157   6.549 -0.2362 -0.4801 -0.2858
  929MOL0     H28133   7.587   3.230   6.118  1.5006 -0.5764  1.9820
  929MOL0     H28134   7.638   3.328   5.892 -0.3311 -0.6107  0.4817
  929MOL0     H28135   7.841   3.690   5.894 -0.6644 -0.3572  1.0569
  929MOL0     H28136   7.697   3.781   5.876  0.8218 -1.0521  0.9746
  929MOL0     H28137   7.689   3.768   5.638  1.6540 -1.0587 -4.1713
  929MOL0     H28138   7.855   3.794   5.690  0.6810 -0.7546  2.3797
  929MOL0     H28139   7.908   3.573   5.660  0.8169 -1.1615 -1.3260
  929MOL0     H28140   7.748   3.527   5.600 -0.7578  0.4126  0.1872
  929MOL0     H28141   7.768   3.703   5.412  0.8498  0.1846 -0.8250
  929MOL0     H28142   7.923   3.737   5.479 -1.6072  1.5774 -3.5398
  929MOL0     H28143   7.831   3.459   5.392 -0.8508 -1.2006 -1.7221
  929MOL0     H28144   7.996   3.523   5.445  0.0495  1.2510  0.4930
  929MOL0     H28145   7.842   3.623   5.212  0.2316  1.8046  0.8686
  929MOL0     H28146   8.007   3.654   5.243 -2.0434  1.4954 -1.4064
  929MOL0     H28147   7.948   3.470   5.067 -1.0299  0.2254  0.0796
  929MOL0     H28148   7.899   3.369   5.209 -0.3197  1.3738  2.9678
  929MOL0     H28149   8.179   3.463   5.146 -0.5132  2.4777  1.3760
  929MOL0     H28150   8.129   3.381   5.300  2.0574 -2.9565 -0.3980
  929MOL0     H28151   8.299   3.187   5.282  0.3911 -0.2449  0.2550
  929MOL0     H28152   8.356   2.943   5.224 -0.1500 -3.0721 -0.3389
  929MOL0     H28153   8.424   2.964   5.061 -2.7202 -0.1751 -3.1666
  929MOL0     H28154   8.168   2.820   5.171 -0.4857 -0.9459 -0.5611
  929MOL0     H28155   8.230   2.804   4.997  1.0292 -0.4011 -0.0832
  929MOL0     H28156   8.444   2.737   5.071  0.0246 -0.0685 -1.9626
  929MOL0     H28157   8.385   2.715   5.236  0.3410  0.9936 -0.4829
  929MOL0     H28158   8.231   2.545   5.157 -2.7739 -0.9188 -2.6599
  929MOL0     H28159   8.271   2.572   4.989 -0.9215  0.1616  0.6706
  929MOL0     H28160   8.231   2.338   5.015  1.7583  2.1567  0.8989
  929MOL0     H28161   8.135   1.994   5.079 -1.4307  1.8504  0.5753
  929MOL0     H28162   8.178   2.027   4.912 -1.6413 -0.2373 -0.1318
  929MOL0     H28163   8.094   2.149   5.008  0.7844  1.4891 -0.0724
  929MOL0     H28164   8.117   1.733   5.113  0.8314  0.7397 -1.0759
  929MOL0     H28165   8.075   1.490   5.076  0.6746 -1.8184  0.2792
  929MOL0     H28166   8.080   1.252   5.255 -1.7638  1.2481 -0.2626
  929MOL0     H28167   8.082   1.252   5.069  2.6062 -4.5836 -3.6064
  929MOL0     H28168   8.211   1.063   5.251 -0.9564 -1.1123  0.4254
  929MOL0     H28169   8.057   1.032   5.164  1.1220 -1.3177  0.1640
  929MOL0     H28170   8.323   1.077   5.026 -1.5553  0.9351 -1.3230
  929MOL0     H28171   8.172   0.987   4.969 -1.4121  0.0661  0.5778
  929MOL0     H28172   8.314   0.817   5.013  1.6289  0.9496 -0.6600
  929MOL0     H28173   8.211   0.830   5.157 -0.7009 -0.0015 -1.3115
  929MOL0     H28174   8.501   0.917   5.118 -1.5572  1.2861 -2.5109
  929MOL0     H28175   8.400   0.988   5.249 -2.4349  1.9723 -2.7696
  929MOL0     H28176   8.387   0.776   5.367  0.2368  0.6176  0.1607
  929MOL0     H28177   8.553   0.796   5.311 -0.3350 -0.3613  2.9660
  929MOL0     H28178   8.351   0.623   5.154 -0.7117 -2.1546  2.4049
  929MOL0     H28179   8.447   0.556   5.280  2.4826  0.8400  0.2975
  929MOL0     H28180   8.662   0.637   5.152  0.1658  0.3061 -0.5254
  929MOL0     H28181   8.543   0.687   5.035 -1.2666  1.6492  2.0485
  929MOL0     H28182   8.480   1.410   5.169 -1.3273 -1.0276  1.4978
  929MOL0     H28183   8.527   1.653   5.163  0.8222 -3.8598  0.8680
  929MOL0     H28184   8.603   2.107   5.213  0.2609 -2.7211 -1.6727
  929MOL0     H28185   8.589   2.347   5.230  1.3148 -2.5256  0.6295
  929MOL0     H28186   7.649   3.712   6.090  2.3812 -0.4394 -2.2958
  929MOL0     H28187   7.634   3.603   6.301 -0.1020  0.4317  0.3737
  929MOL0     H28188   7.441   3.183   6.508 -0.6694 -2.2295  0.7536
  929MOL0     H28189   7.420   3.105   6.724 -0.2857 -1.5593 -1.7372
  929MOL0     H28190   7.497   2.984   7.013  2.1389 -1.4402  1.4037
  929MOL0     H28191   7.438   2.946   6.859  0.4113 -1.0285 -1.7022
  929MOL0     H28192   7.517   2.728   6.848  0.6601 -1.9749  0.1662
  929MOL0     H28193   7.431   2.749   6.983  0.7692  1.0929  0.5029
  929MOL0     H28194   7.656   2.639   7.045  3.8324  0.9934  0.1894
  929MOL0     H28195   7.743   2.774   6.998  2.6938 -1.0208  2.6767
  929MOL0     H28196   7.521   2.818   7.211  0.0846  2.2202 -0.6280
  929MOL0     H28197   7.675   2.901   7.196 -0.3955  0.5074  0.6822
  929MOL0     H28198   7.797   2.610   7.460 -0.4748 -2.0230 -1.3298
  929MOL0     H28199   7.831   3.034   6.768  0.2766  0.5376  0.6013
  929MOL0     H28200   7.969   3.054   6.534  0.0925 -0.4552  0.2572
  929MOL0     H28201   7.948   3.208   6.454  0.6967 -1.1650 -0.5403
  929MOL0     H28202   7.996   3.209   6.623  1.6077 -0.8270 -1.5051
  930MOL0     O28203   0.321   1.497   8.111 -0.7530 -0.5419  0.5876
  930MOL0     C28204   0.392   1.585   8.062 -0.2338  0.8566  0.2603
  930MOL0     O28205   0.351   1.704   8.026 -0.2479 -0.8307  0.2665
  930MOL0     C28206   0.219   1.738   8.046  0.1475 -1.0610  0.2734
  930MOL0     C28207   0.162   1.765   8.174  1.1742 -0.0830  0.7884
  930MOL0     C28208   0.018   1.782   8.179  0.6825 -0.4146 -0.1311
  930MOL0     C28209  -0.062   1.779   8.062 -0.2070  0.2129  0.0137
  930MOL0     O28210  -0.199   1.796   8.056 -0.1903 -0.0877  0.1092
  930MOL0     C28211  -0.275   1.867   8.162  0.1449 -0.0473  0.2670
  930MOL0     C28212  -0.420   1.852   8.146 -0.7681  0.8288  0.5487
  930MOL0     C28213  -0.511   1.879   8.276 -0.5008 -0.0822  0.0689
  930MOL0     C28214  -0.662   1.859   8.246 -0.4652 -0.1784 -0.2013
  930MOL0     C28215  -0.750   1.989   8.253 -0.0918  0.4505 -0.1891
  930MOL0     C28216  -0.758   2.048   8.397  0.2443 -0.0842 -0.4008
  930MOL0     C28217  -0.847   2.177   8.380 -0.4967 -0.0020 -0.6388
  930MOL0     C28218  -0.787   2.294   8.305  0.0343  0.8950 -0.2022
  930MOL0     N28219  -0.678   2.367   8.375  0.0700 -0.0308 -0.0767
  930MOL0     C28220  -0.548   2.346   8.349 -0.2306  0.4466  0.4347
  930MOL0     C28221  -0.484   2.452   8.396  0.2289 -0.9323  0.1889
  930MOL0     C28222  -0.337   2.472   8.401 -0.1540 -0.4675  0.1093
  930MOL0     C28223  -0.264   2.471   8.266  0.6951 -1.0186 -0.1891
  930MOL0     C28224  -0.213   2.323   8.233  0.1121 -0.0538 -0.3236
  930MOL0     C28225  -0.167   2.318   8.088  0.2784 -0.0754  0.2577
  930MOL0     O28226  -0.101   2.196   8.056 -0.5206  0.2293  0.4609
  930MOL0     C28227   0.031   2.194   8.045 -1.0451  0.0557  0.6110
  930MOL0     C28228   0.119   2.269   8.120 -0.6257  0.2999  0.2575
  930MOL0     C28229   0.255   2.296   8.075 -0.1328  0.3367 -0.3122
  930MOL0     C28230   0.341   2.382   8.161 -0.3318  0.2344  0.5183
  930MOL0     C28231   0.307   2.215   7.962  0.5925  0.4056 -0.0489
  930MOL0     C28232   0.445   2.231   7.917  0.9924 -0.2382  1.3541
  930MOL0     O28233   0.546   2.240   8.009 -0.1576  0.3499 -0.1358
  930MOL0     C28234   0.678   2.286   7.989  0.4976 -0.4275  0.4571
  930MOL0     C28235   0.775   2.277   8.086  0.0563 -0.4627 -0.4097
  930MOL0     C28236   0.908   2.339   8.072  0.0179  0.0169 -0.5038
  930MOL0     C28237   0.943   2.382   7.943 -0.7765  0.1826  0.5432
  930MOL0     O28238   1.072   2.422   7.910  0.0481 -0.2089 -0.1032
  930MOL0     C28239   1.179   2.394   8.000  0.2687  0.0885 -0.1848
  930MOL0     C28240   1.314   2.418   7.940 -0.4724 -0.0972 -0.4118
  930MOL0     C28241   1.353   2.352   7.813 -0.1766  0.7680  0.7862
  930MOL0     C28242   1.502   2.328   7.799  0.6274  0.4230  0.0089
  930MOL0     C28243   1.520   2.202   7.700 -0.4839 -0.4756  0.4447
  930MOL0     C28244   1.671   2.183   7.693  0.4226 -0.3054  1.5173
  930MOL0     C28245   1.704   2.101   7.576  0.1551 -0.6725 -0.6326
  930MOL0     C28246   1.850   2.063   7.582 -0.3303  0.4685  0.0751
  930MOL0    Cl28247   1.951   2.212   7.577  0.2480 -0.5036 -0.1745
  930MOL0     C28248   0.851   2.394   7.845 -0.1720  0.9180  0.8736
  930MOL0     C28249   0.717   2.343   7.868  0.0154 -0.7081  0.1304
  930MOL0     O28250   0.449   2.240   7.794 -0.3707  0.4232  0.2279
  930MOL0     C28251   0.217   2.129   7.893 -1.3302 -0.4055  0.4099
  930MOL0     C28252   0.089   2.123   7.933 -0.6382  0.4855  0.3094
  930MOL0     N28253  -0.580   2.536   8.452  0.0359  0.3697 -0.2811
  930MOL0     N28254  -0.699   2.491   8.433 -0.5034 -0.1244 -0.5172
  930MOL0     C28255  -0.001   1.749   7.941  1.1430  0.1018  0.8055
  930MOL0     C28256   0.140   1.737   7.924  0.1156 -0.8755  0.1352
  930MOL0     C28257   0.533   1.538   8.045  0.0008 -0.6206 -0.9447
  930MOL0     C28258   0.604   1.515   8.164  0.8205  0.0739 -0.4889
  930MOL0     C28259   0.736   1.473   8.173 -0.3563 -0.2902  0.0528
  930MOL0     C28260   0.812   1.466   8.059 -0.1941 -0.7278 -0.1296
  930MOL0     O28261   0.941   1.425   8.047  0.2554 -0.0983  0.7798
  930MOL0     C28262   1.012   1.373   8.158  0.6243  0.7729 -0.4927
  930MOL0     C28263   0.987   1.218   8.182 -0.5968 -0.1621  0.4181
  930MOL0     C28264   1.056   1.131   8.077 -0.4452  0.0940 -0.2692
  930MOL0     C28265   0.979   1.136   7.941 -0.6718 -0.1039  0.1657
  930MOL0     C28266   1.014   1.025   7.853  0.0623 -0.0630 -0.2832
  930MOL0     C28267   1.057   0.930   7.792  0.3037 -0.1983 -0.5404
  930MOL0     C28268   0.744   1.497   7.936 -0.9732 -0.4009 -0.7211
  930MOL0     C28269   0.604   1.530   7.930 -0.0870  0.4489 -0.1911
  930MOL0     C28270   0.534   1.564   7.807 -0.2709  0.4498  0.7340
  930MOL0     H28271   0.220   1.783   8.264 -1.4124  1.0596  2.3388
  930MOL0     H28272  -0.044   1.792   8.268 -1.5334 -3.5251 -1.1481
  930MOL0     H28273  -0.246   1.972   8.158  2.0810 -0.5490 -3.3996
  930MOL0     H28274  -0.248   1.824   8.259 -1.8508  1.7618  1.7266
  930MOL0     H28275  -0.449   1.918   8.064 -0.2508 -2.0469 -2.0983
  930MOL0     H28276  -0.431   1.747   8.119 -0.9080  1.5193 -2.4211
  930MOL0     H28277  -0.482   1.811   8.357  0.1740  0.8638  0.6464
  930MOL0     H28278  -0.488   1.977   8.319 -2.2988  1.8662 -3.0110
  930MOL0     H28279  -0.666   1.817   8.145  3.3132 -1.6858  0.1039
  930MOL0     H28280  -0.693   1.780   8.315  1.2213  0.6865  1.6524
  930MOL0     H28281  -0.852   1.967   8.221  0.1432 -0.9943  0.0181
  930MOL0     H28282  -0.705   2.054   8.177  1.9419  1.5294  1.8053
  930MOL0     H28283  -0.802   1.972   8.461 -2.5496  2.7763  1.3575
  930MOL0     H28284  -0.657   2.080   8.426 -0.6638  1.2409  1.5068
  930MOL0     H28285  -0.875   2.214   8.479  1.0809 -0.7191  0.1099
  930MOL0     H28286  -0.945   2.157   8.336 -1.2679 -0.6427  1.2932
  930MOL0     H28287  -0.772   2.265   8.200 -1.1925  0.7789 -0.3683
  930MOL0     H28288  -0.867   2.367   8.292 -3.1983 -2.3457 -0.3690
  930MOL0     H28289  -0.517   2.258   8.294 -0.6916  0.8765 -0.5259
  930MOL0     H28290  -0.290   2.392   8.459 -1.9177 -1.3756  0.3429
  930MOL0     H28291  -0.325   2.563   8.461  0.5209  0.4240 -1.3115
  930MOL0     H28292  -0.333   2.485   8.182 -0.0932 -1.2531  0.4120
  930MOL0     H28293  -0.189   2.551   8.271 -0.1093 -0.3052  0.6972
  930MOL0     H28294  -0.137   2.285   8.302 -1.2355 -1.2335  0.5651
  930MOL0     H28295  -0.296   2.252   8.229 -0.5156  0.5895  0.8019
  930MOL0     H28296  -0.254   2.338   8.026  1.7444  0.2854 -1.7809
  930MOL0     H28297  -0.100   2.402   8.065 -1.1372  0.1828 -3.6854
  930MOL0     H28298   0.098   2.318   8.215 -1.8660  0.5091 -0.1154
  930MOL0     H28299   0.419   2.318   8.205  2.1240 -1.9969 -5.8506
  930MOL0     H28300   0.281   2.438   8.232  0.6422  1.4941  0.3770
  930MOL0     H28301   0.383   2.457   8.093  1.0236 -0.8585  0.0962
  930MOL0     H28302   0.735   2.242   8.180 -0.2919  3.0227  0.8940
  930MOL0     H28303   0.976   2.333   8.156  1.3277 -0.0211 -1.5262
  930MOL0     H28304   1.162   2.453   8.091 -2.7256 -1.3820  0.3578
  930MOL0     H28305   1.171   2.286   8.019 -3.4131  0.1997 -0.3208
  930MOL0     H28306   1.332   2.524   7.920 -2.4903  0.3520 -0.0927
  930MOL0     H28307   1.378   2.391   8.025 -1.5105  4.0423  2.0112
  930MOL0     H28308   1.331   2.424   7.734  1.6068  0.3405 -0.1397
  930MOL0     H28309   1.303   2.256   7.799  2.9526 -0.9881  0.7205
  930MOL0     H28310   1.557   2.297   7.889  1.7615 -2.7795 -1.5812
  930MOL0     H28311   1.547   2.426   7.781 -3.7557  2.3743 -1.5523
  930MOL0     H28312   1.476   2.110   7.739 -1.3810 -0.0996  0.3505
  930MOL0     H28313   1.475   2.197   7.601  0.9320 -2.9258 -0.1436
  930MOL0     H28314   1.705   2.133   7.784  1.9724  0.3526  1.3435
  930MOL0     H28315   1.728   2.277   7.690  2.8645 -1.6069 -3.1936
  930MOL0     H28316   1.696   2.159   7.484 -0.5906  1.0178  0.4504
  930MOL0     H28317   1.645   2.009   7.579  1.1745 -1.3170  0.9738
  930MOL0     H28318   1.879   1.994   7.502 -2.7390 -0.4578 -0.0757
  930MOL0     H28319   1.869   2.017   7.679 -1.0203  0.8712  0.4093
  930MOL0     H28320   0.877   2.446   7.753 -0.4180 -2.0119 -1.0036
  930MOL0     H28321   0.645   2.358   7.788  0.4757  2.2168  0.1343
  930MOL0     H28322   0.253   2.071   7.809  1.7167  1.1837  0.4503
  930MOL0     H28323   0.025   2.051   7.884 -0.1005  0.7877 -0.8767
  930MOL0     H28324  -0.058   1.741   7.849 -0.7245  0.2779  1.9073
  930MOL0     H28325   0.186   1.705   7.832  1.4396  2.9263 -0.6863
  930MOL0     H28326   0.552   1.527   8.259  1.5521  0.0919 -0.0807
  930MOL0     H28327   0.773   1.437   8.268  4.8553 -0.5873 -1.7725
  930MOL0     H28328   1.118   1.396   8.143  0.2330  0.8424 -4.0398
  930MOL0     H28329   0.979   1.424   8.249  0.5868 -1.6925  0.9354
  930MOL0     H28330   0.880   1.196   8.182 -0.9327  1.3790  0.1241
  930MOL0     H28331   1.020   1.198   8.284 -2.0198 -0.7125  0.7872
  930MOL0     H28332   1.152   1.183   8.069  0.8621 -2.1210  0.2934
  930MOL0     H28333   1.064   1.029   8.115  0.4318 -0.1692 -1.1162
  930MOL0     H28334   1.001   1.228   7.888  1.1599  0.2656  1.4668
  930MOL0     H28335   0.870   1.133   7.953 -0.5469 -0.9009  1.3349
  930MOL0     H28336   1.108   0.855   7.734 -1.7214 -0.1395 -2.5166
  930MOL0     H28337   0.792   1.490   7.839  0.7795 -1.9641  0.2052
  930MOL0     H28338   0.452   1.493   7.793  0.3940 -0.5846  1.9475
  930MOL0     H28339   0.479   1.658   7.822 -1.2582 -0.2708  1.8445
  930MOL0     H28340   0.594   1.574   7.716  0.1357  1.2126  1.0740
  931MOL0     O28341   1.676   8.069   6.518  0.2632  0.6964  0.5723
  931MOL0     C28342   1.771   8.009   6.572 -0.5216  0.0753  0.0173
  931MOL0     O28343   1.835   8.049   6.689 -0.0370 -0.3875 -0.3110
  931MOL0     C28344   1.781   8.160   6.751 -0.3799  0.9100  0.2052
  931MOL0     C28345   1.647   8.167   6.790 -0.0274  0.2334  0.2652
  931MOL0     C28346   1.595   8.287   6.845 -0.1649  0.0245 -0.5174
  931MOL0     C28347   1.690   8.396   6.857 -0.5505 -0.8363  0.5484
  931MOL0     O28348   1.657   8.522   6.895 -0.0760  0.6100 -0.3641
  931MOL0     C28349   1.570   8.532   7.014  0.2541  0.9576 -0.4645
  931MOL0     C28350   1.466   8.644   6.994  0.1308  0.4462  1.0387
  931MOL0     C28351   1.378   8.602   6.880 -0.2652  0.1852  1.3335
  931MOL0     C28352   1.254   8.686   6.878 -0.0590 -0.7876 -0.4690
  931MOL0     C28353   1.132   8.649   6.798 -0.2868 -0.2148  0.1545
  931MOL0     C28354   1.156   8.576   6.671  0.4275  0.2057  0.1166
  931MOL0     C28355   1.032   8.546   6.596  0.8350 -0.4253 -0.3550
  931MOL0     C28356   0.992   8.672   6.513  0.8850 -0.1663  0.5319
  931MOL0     N28357   0.860   8.658   6.452 -0.1666 -0.3499 -0.1120
  931MOL0     C28358   0.811   8.696   6.329 -0.7460 -0.4273 -0.8244
  931MOL0     C28359   0.676   8.667   6.332  0.2802  0.7115  0.3291
  931MOL0     C28360   0.572   8.712   6.231 -0.3845  0.5914  0.2297
  931MOL0     C28361   0.522   8.847   6.263 -0.7432  0.0846 -0.5980
  931MOL0     C28362   0.643   8.944   6.268  0.2291 -0.0167 -0.3819
  931MOL0     C28363   0.608   9.082   6.222  0.0697  0.3361 -0.1549
  931MOL0     O28364   0.483   9.126   6.285  0.1030  0.5115 -0.0492
  931MOL0     C28365   0.411   9.209   6.209  0.2905  0.1577 -0.0934
  931MOL0     C28366   0.460   9.331   6.163 -0.6386  0.2402  0.5486
  931MOL0     C28367   0.372   9.418   6.096 -0.1139  0.5723  1.1097
  931MOL0     C28368   0.434   9.549   6.052 -0.3606 -0.4692 -0.1368
  931MOL0     C28369   0.236   9.384   6.066  0.8252  0.2039 -0.1077
  931MOL0     C28370   0.136   9.467   5.984  0.1432  0.0842  0.1155
  931MOL0     O28371   0.187   9.552   5.893  0.4834  0.3071 -0.2427
  931MOL0     C28372   0.096   9.615   5.812  0.2019 -0.6975  0.4698
  931MOL0     C28373  -0.017   9.683   5.858 -0.4996  0.5311 -0.0006
  931MOL0     C28374  -0.089   9.753   5.766  0.1851 -0.2358 -0.8068
  931MOL0     C28375  -0.054   9.766   5.631  0.1347  0.3021  1.0501
  931MOL0     O28376  -0.142   9.842   5.559 -0.0349 -0.0486  0.3445
  931MOL0     C28377  -0.171   9.804   5.425  0.6317 -0.3879  0.7348
  931MOL0     C28378  -0.284   9.882   5.359 -0.6336  0.1188  0.9697
  931MOL0     C28379  -0.424   9.843   5.425  0.3068  0.5156 -0.0264
  931MOL0     C28380  -0.539   9.928   5.352  0.3659 -0.5888  0.6446
  931MOL0     C28381  -0.676   9.880   5.387  0.3407  0.9074  0.3241
  931MOL0     C28382  -0.718   9.939   5.514  0.0025  0.4843 -0.6301
  931MOL0     C28383  -0.855   9.881   5.565  0.3411  0.1311  0.3378
  931MOL0     C28384  -0.991   9.905   5.496  0.0332  0.4881 -0.2575
  931MOL0    Cl28385  -1.026  10.081   5.482 -0.0053 -0.2055 -0.3665
  931MOL0     C28386   0.052   9.679   5.582  0.2681 -0.8113 -0.1717
  931MOL0     C28387   0.131   9.608   5.671  0.0400 -0.4738 -0.2339
  931MOL0     O28388   0.018   9.438   5.986 -0.0544 -0.1361  0.2343
  931MOL0     C28389   0.189   9.259   6.123 -0.9078  0.6329 -0.4713
  931MOL0     C28390   0.279   9.172   6.188 -0.3389 -0.1082  1.1661
  931MOL0     N28391   0.650   8.601   6.454  0.1525 -0.0783  0.1629
  931MOL0     N28392   0.759   8.588   6.516 -0.3576  0.4419  0.0680
  931MOL0     C28393   1.819   8.389   6.798 -0.0807  0.3431 -0.0450
  931MOL0     C28394   1.868   8.262   6.757 -0.1293 -0.0800  0.4932
  931MOL0     C28395   1.843   7.894   6.512  0.0280  0.7993 -0.3001
  931MOL0     C28396   1.958   7.847   6.577 -0.2135  0.5571 -0.3549
  931MOL0     C28397   2.037   7.736   6.527 -0.1700  0.0344  0.0650
  931MOL0     C28398   1.999   7.669   6.408 -0.1340 -0.4338 -0.3793
  931MOL0     O28399   2.059   7.557   6.360 -0.1957 -0.5368 -0.0927
  931MOL0     C28400   2.181   7.509   6.427 -0.2496 -0.3386 -0.0757
  931MOL0     C28401   2.259   7.421   6.337 -0.4542 -0.3072 -0.7911
  931MOL0     C28402   2.260   7.473   6.192  0.2846  0.0437  0.1350
  931MOL0     C28403   2.374   7.403   6.112 -0.3009  0.5076  0.5089
  931MOL0     C28404   2.438   7.510   6.034 -0.0572 -0.2732  0.0664
  931MOL0     C28405   2.484   7.608   5.972 -0.2192  0.6999  0.2221
  931MOL0     C28406   1.878   7.718   6.352 -0.5014 -0.0118  0.8476
  931MOL0     C28407   1.805   7.829   6.392 -0.6496  0.7799  0.3367
  931MOL0     C28408   1.680   7.850   6.319 -1.1281  0.4963  0.3241
  931MOL0     H28409   1.588   8.075   6.787 -1.4540  1.1055  0.4624
  931MOL0     H28410   1.500   8.298   6.896  1.1633 -1.2283  2.4849
  931MOL0     H28411   1.628   8.561   7.102 -0.9541  4.7812 -0.7370
  931MOL0     H28412   1.525   8.433   7.023  2.0356  0.2698  1.6611
  931MOL0     H28413   1.404   8.653   7.084 -2.7660 -0.9270 -0.6480
  931MOL0     H28414   1.511   8.738   6.962 -0.8074  0.1610 -1.2944
  931MOL0     H28415   1.424   8.618   6.782 -2.4565  3.1635  0.6726
  931MOL0     H28416   1.365   8.494   6.894  0.5473 -0.2269 -0.7305
  931MOL0     H28417   1.222   8.698   6.982 -2.4547  2.7607 -1.4310
  931MOL0     H28418   1.284   8.785   6.844 -0.2712  0.3226  2.3440
  931MOL0     H28419   1.077   8.742   6.780  0.1646  0.1204  0.4812
  931MOL0     H28420   1.076   8.583   6.865  1.7755 -1.4505  0.7669
  931MOL0     H28421   1.227   8.622   6.601  0.5626 -0.1842 -0.0088
  931MOL0     H28422   1.209   8.485   6.703  0.0222 -0.5446 -1.2452
  931MOL0     H28423   0.956   8.520   6.671  0.4761  2.5092  0.4205
  931MOL0     H28424   1.046   8.462   6.527 -0.3148 -0.1286 -0.9812
  931MOL0     H28425   0.999   8.770   6.560 -1.8324  1.8350 -2.7892
  931MOL0     H28426   1.061   8.674   6.429 -0.6678  0.3829 -0.7802
  931MOL0     H28427   0.861   8.768   6.265  2.9355 -0.3254  1.8479
  931MOL0     H28428   0.486   8.645   6.232 -0.3671  0.5196 -1.3425
  931MOL0     H28429   0.618   8.710   6.132  1.4619  3.2655  0.9402
  931MOL0     H28430   0.451   8.885   6.190 -0.7511 -2.1035 -1.8130
  931MOL0     H28431   0.465   8.855   6.356 -0.8991 -1.8397 -0.4763
  931MOL0     H28432   0.675   8.948   6.372 -1.8717 -1.2458  0.3829
  931MOL0     H28433   0.729   8.913   6.207  1.8396  2.4357  0.5049
  931MOL0     H28434   0.696   9.143   6.243  1.1833 -1.7965  1.7939
  931MOL0     H28435   0.591   9.086   6.114  2.1069  0.6916 -0.4990
  931MOL0     H28436   0.563   9.364   6.177  0.1610 -1.5289 -0.7599
  931MOL0     H28437   0.451   9.553   5.944 -1.2456  0.7859 -0.2518
  931MOL0     H28438   0.528   9.572   6.103 -1.0895  0.7028  0.7444
  931MOL0     H28439   0.362   9.622   6.090 -1.5488 -0.8921 -1.4926
  931MOL0     H28440  -0.045   9.686   5.963 -0.1214 -3.1884  0.3230
  931MOL0     H28441  -0.165   9.818   5.807 -0.9594 -2.1367  0.2786
  931MOL0     H28442  -0.084   9.808   5.359  0.3077 -1.0204  0.2541
  931MOL0     H28443  -0.213   9.703   5.415 -2.3929  0.9223 -1.5490
  931MOL0     H28444  -0.261   9.989   5.360 -0.1692  0.1545 -2.3582
  931MOL0     H28445  -0.285   9.851   5.254 -1.0866 -0.8967  1.2653
  931MOL0     H28446  -0.424   9.849   5.534 -1.5284 -0.9242  0.0946
  931MOL0     H28447  -0.442   9.736   5.411  1.8521  0.2310 -0.0626
  931MOL0     H28448  -0.517   9.918   5.245 -2.1240 -1.7923  0.1555
  931MOL0     H28449  -0.526  10.029   5.391  2.2448 -1.5564  2.7272
  931MOL0     H28450  -0.750   9.902   5.310 -0.4808  0.2614  0.9174
  931MOL0     H28451  -0.687   9.771   5.387 -1.4010  0.9219  4.0865
  931MOL0     H28452  -0.710  10.048   5.507  2.6127  0.2720 -2.0664
  931MOL0     H28453  -0.641   9.917   5.589  0.0912 -3.6086 -1.7170
  931MOL0     H28454  -0.873   9.925   5.663  0.7154 -1.4427  1.1402
  931MOL0     H28455  -0.845   9.772   5.572 -1.1890 -0.4668 -3.7590
  931MOL0     H28456  -1.080   9.868   5.547  0.4375 -2.3256 -1.4468
  931MOL0     H28457  -0.978   9.870   5.393 -0.8447 -1.5045  0.2749
  931MOL0     H28458   0.085   9.682   5.478  0.1477  0.1460 -0.1919
  931MOL0     H28459   0.215   9.548   5.635  2.5516  2.3031  0.6008
  931MOL0     H28460   0.088   9.235   6.090 -0.4441 -0.3106 -1.2335
  931MOL0     H28461   0.244   9.079   6.232 -1.9480  1.2378  2.8806
  931MOL0     H28462   1.864   8.487   6.787 -2.1439  1.4104  0.4971
  931MOL0     H28463   1.964   8.265   6.707  0.7500  2.5281  2.0978
  931MOL0     H28464   1.995   7.888   6.671 -0.4001  0.0085 -0.0317
  931MOL0     H28465   2.120   7.704   6.590 -1.2757 -1.1329  0.9828
  931MOL0     H28466   2.248   7.589   6.461 -1.5553  1.9640 -2.4865
  931MOL0     H28467   2.157   7.452   6.517 -1.3035  1.7917  1.0849
  931MOL0     H28468   2.217   7.321   6.355  1.1040 -0.9287 -0.4397
  931MOL0     H28469   2.364   7.421   6.367 -0.2018  1.7227 -1.5336
  931MOL0     H28470   2.172   7.451   6.132  0.3970  0.9754 -0.3952
  931MOL0     H28471   2.271   7.582   6.189  3.6371 -0.1179  1.9170
  931MOL0     H28472   2.332   7.322   6.052  1.0716  0.5628 -0.5858
  931MOL0     H28473   2.447   7.355   6.178 -0.9465 -4.4156 -1.9058
  931MOL0     H28474   2.524   7.687   5.912 -0.0516 -0.0119 -0.6182
  931MOL0     H28475   1.840   7.664   6.266 -1.2753  0.7548  0.6944
  931MOL0     H28476   1.588   7.839   6.376 -0.8857  0.1647  0.6592
  931MOL0     H28477   1.680   7.949   6.272 -0.5862 -0.2308 -1.2881
  931MOL0     H28478   1.673   7.780   6.235  0.5451  3.1741 -2.2692
  932MOL0     O28479   8.116   1.894   3.918  0.7236  0.0631 -0.3740
  932MOL0     C28480   8.191   1.815   3.869  0.0330  0.4985  0.9544
  932MOL0     O28481   8.184   1.758   3.747 -0.1315 -0.0519 -0.7896
  932MOL0     C28482   8.099   1.810   3.660  0.4125  0.3533  0.1074
  932MOL0     C28483   8.147   1.867   3.541  0.0699 -0.5565 -0.1557
  932MOL0     C28484   8.059   1.898   3.435  0.6159 -0.3063 -0.3290
  932MOL0     C28485   7.922   1.883   3.450  0.5887  0.2253  0.1189
  932MOL0     O28486   7.842   1.937   3.353 -0.4929  0.0751  0.6103
  932MOL0     C28487   7.702   1.930   3.352  0.4760  1.0412  0.8701
  932MOL0     C28488   7.635   1.985   3.228 -0.0866  0.1416  0.0642
  932MOL0     C28489   7.665   2.137   3.211 -0.6766 -0.1680 -1.1311
  932MOL0     C28490   7.595   2.209   3.091  0.0318 -0.8521  0.1971
  932MOL0     C28491   7.649   2.346   3.076 -0.2224  0.4347  0.0691
  932MOL0     C28492   7.561   2.432   2.987  0.2116 -0.9843  0.4288
  932MOL0     C28493   7.529   2.383   2.851  0.9066  0.7245  0.6081
  932MOL0     C28494   7.444   2.489   2.792 -0.2271  0.1315 -0.2513
  932MOL0     N28495   7.390   2.446   2.668  0.2898  0.3074 -0.4734
  932MOL0     C28496   7.466   2.418   2.552 -0.4352  0.1646  0.8817
  932MOL0     C28497   7.381   2.430   2.443  0.6759 -1.3725 -0.5174
  932MOL0     C28498   7.432   2.437   2.300  0.3051  0.3741 -0.0847
  932MOL0     C28499   7.510   2.564   2.265 -0.2962 -0.1338  1.0708
  932MOL0     C28500   7.407   2.686   2.267 -0.7243  0.2941  0.0207
  932MOL0     C28501   7.469   2.814   2.192  0.0734 -0.0559  0.5667
  932MOL0     O28502   7.484   2.773   2.050 -0.0191 -0.5713 -0.8757
  932MOL0     C28503   7.573   2.846   1.971  0.5500 -0.5368 -0.4334
  932MOL0     C28504   7.547   2.924   1.859 -0.1353 -0.3346  0.4836
  932MOL0     C28505   7.644   3.000   1.787 -0.0832  0.3664 -0.4451
  932MOL0     C28506   7.585   3.074   1.664 -0.5647  0.4481  0.4045
  932MOL0     C28507   7.777   3.009   1.828  0.0146  0.1585  0.1638
  932MOL0     C28508   7.894   3.088   1.768 -0.3769  0.5667  0.4650
  932MOL0     O28509   8.024   3.034   1.778 -0.4144 -0.2711 -0.5165
  932MOL0     C28510   8.130   3.086   1.713  0.3734  0.9017  1.1865
  932MOL0     C28511   8.179   3.005   1.601 -0.4444  0.0581  1.1599
  932MOL0     C28512   8.267   3.055   1.501 -1.0783  0.5495 -0.3226
  932MOL0     C28513   8.323   3.183   1.534  0.4240 -0.1843  0.7650
  932MOL0     O28514   8.416   3.251   1.456  0.5240 -0.1348 -0.3236
  932MOL0     C28515   8.410   3.217   1.309 -0.0503 -0.4219 -0.0967
  932MOL0     C28516   8.540   3.267   1.237  0.0125 -0.4815 -0.8900
  932MOL0     C28517   8.577   3.410   1.279 -0.3102  0.1648 -0.2126
  932MOL0     C28518   8.675   3.478   1.180 -0.1884  0.2680  0.2045
  932MOL0     C28519   8.816   3.417   1.191 -0.6527  0.0134  0.2044
  932MOL0     C28520   8.912   3.469   1.085  0.2781 -0.2349 -0.1319
  932MOL0     C28521   8.921   3.619   1.094  0.1283 -0.2082 -1.5629
  932MOL0     C28522   9.017   3.682   0.986 -0.4657  0.1027 -0.4745
  932MOL0    Cl28523   9.183   3.601   0.998  0.0988  0.0873  0.2324
  932MOL0     C28524   8.270   3.260   1.637 -1.1944  0.0664 -0.4099
  932MOL0     C28525   8.178   3.211   1.723  0.4204 -0.4641  0.2131
  932MOL0     O28526   7.865   3.188   1.708  1.2172  0.6328 -0.1854
  932MOL0     C28527   7.806   2.924   1.935  0.1508 -0.2625  0.7549
  932MOL0     C28528   7.709   2.858   2.004  0.2743 -0.1177 -0.3672
  932MOL0     N28529   7.252   2.457   2.494 -0.2208  0.1521 -0.4202
  932MOL0     N28530   7.259   2.456   2.624 -0.0405 -0.7802 -1.2948
  932MOL0     C28531   7.872   1.838   3.575  0.1802  0.4521 -0.3294
  932MOL0     C28532   7.958   1.794   3.682 -0.0798 -0.3367  0.4125
  932MOL0     C28533   8.283   1.733   3.955  0.1369  0.0592 -0.5905
  932MOL0     C28534   8.321   1.601   3.922  0.1112  0.0505 -0.8160
  932MOL0     C28535   8.431   1.537   3.981  0.5429  0.5698  0.1078
  932MOL0     C28536   8.513   1.609   4.077  1.1488  0.3449  0.5828
  932MOL0     O28537   8.613   1.541   4.131  0.0820  0.6457  0.9342
  932MOL0     C28538   8.677   1.597   4.249 -0.2986 -0.2376 -0.1916
  932MOL0     C28539   8.801   1.530   4.281 -0.1380 -0.6714 -0.5372
  932MOL0     C28540   8.872   1.596   4.407  1.3416  0.6609  0.5755
  932MOL0     C28541   9.004   1.525   4.452  0.5926 -0.8347  0.1427
  932MOL0     C28542   9.076   1.626   4.537  0.5142  0.2474  0.5513
  932MOL0     C28543   9.128   1.712   4.598  0.1011  0.5463 -0.6932
  932MOL0     C28544   8.468   1.734   4.105  0.3161 -1.4990 -0.6474
  932MOL0     C28545   8.352   1.801   4.055 -0.6168  0.4289  0.3089
  932MOL0     C28546   8.326   1.944   4.102 -0.1078  1.2102  1.4916
  932MOL0     H28547   8.255   1.877   3.530  0.1952  1.0380  1.8957
  932MOL0     H28548   8.088   1.952   3.345  0.2434  0.3583 -0.0614
  932MOL0     H28549   7.662   1.975   3.443 -0.1975  2.7560 -0.2222
  932MOL0     H28550   7.668   1.826   3.358  2.6644  0.3191  1.6235
  932MOL0     H28551   7.671   1.933   3.139 -2.0425  2.2795 -2.1270
  932MOL0     H28552   7.526   1.978   3.222  0.0129 -0.4312 -2.2876
  932MOL0     H28553   7.633   2.192   3.300 -1.1557 -1.4151 -0.5159
  932MOL0     H28554   7.774   2.149   3.208 -0.1945 -2.6251  1.9351
  932MOL0     H28555   7.608   2.156   2.997 -3.6192 -0.6814 -0.5481
  932MOL0     H28556   7.489   2.213   3.115 -0.3110 -0.8613 -1.2458
  932MOL0     H28557   7.750   2.326   3.041  1.4008 -0.7107  4.6649
  932MOL0     H28558   7.661   2.399   3.171 -1.1191  2.3252 -0.8155
  932MOL0     H28559   7.468   2.460   3.037 -1.6103 -0.1250 -3.1131
  932MOL0     H28560   7.614   2.525   2.967 -1.6597 -0.4199 -2.5024
  932MOL0     H28561   7.466   2.294   2.855 -2.4211  2.9404  1.2009
  932MOL0     H28562   7.624   2.369   2.798 -0.8211 -1.6458 -2.2138
  932MOL0     H28563   7.361   2.513   2.859 -1.3105 -0.7831 -1.2329
  932MOL0     H28564   7.509   2.576   2.777 -1.8124  1.4871  0.4724
  932MOL0     H28565   7.575   2.417   2.544 -0.5104  1.4111 -1.1694
  932MOL0     H28566   7.346   2.426   2.233 -0.4585 -0.2230  0.9693
  932MOL0     H28567   7.488   2.346   2.281 -0.5106 -0.5477  1.6542
  932MOL0     H28568   7.596   2.559   2.333  0.4320 -1.5797  0.0862
  932MOL0     H28569   7.556   2.556   2.166 -4.2267 -2.9907 -0.7882
  932MOL0     H28570   7.308   2.657   2.231 -1.7943 -2.1731  4.3125
  932MOL0     H28571   7.390   2.720   2.370  1.4388  0.4483  0.3615
  932MOL0     H28572   7.396   2.895   2.201 -0.1385 -0.3228  1.2502
  932MOL0     H28573   7.566   2.849   2.229 -0.2687  0.8210  0.6649
  932MOL0     H28574   7.441   2.922   1.836 -0.4205 -1.0915  1.8067
  932MOL0     H28575   7.526   3.007   1.600  2.3587 -2.9375  0.9521
  932MOL0     H28576   7.664   3.110   1.598 -1.3727  0.9195 -0.3341
  932MOL0     H28577   7.529   3.161   1.699 -0.6720  0.6352 -0.2152
  932MOL0     H28578   8.136   2.906   1.587  0.7445 -0.3291  0.0791
  932MOL0     H28579   8.283   2.991   1.415  0.5313 -0.9738  1.0264
  932MOL0     H28580   8.414   3.108   1.305  1.4329 -0.6840  3.8030
  932MOL0     H28581   8.326   3.266   1.258 -0.4657  0.1071  1.0645
  932MOL0     H28582   8.623   3.198   1.253  1.5752  1.7064  1.3057
  932MOL0     H28583   8.515   3.269   1.130 -2.7061  0.7735 -0.3342
  932MOL0     H28584   8.622   3.396   1.378 -2.7625 -2.6434  0.6480
  932MOL0     H28585   8.492   3.478   1.288 -2.8653 -2.6881 -0.9691
  932MOL0     H28586   8.677   3.584   1.206 -1.3169  1.5260 -4.1256
  932MOL0     H28587   8.649   3.467   1.074 -0.5394 -3.5585  0.5443
  932MOL0     H28588   8.860   3.430   1.290  2.9031  0.0198 -1.2151
  932MOL0     H28589   8.813   3.307   1.189 -1.2990  0.0358 -1.2910
  932MOL0     H28590   8.872   3.432   0.990 -1.7523  1.3897  0.0246
  932MOL0     H28591   9.011   3.431   1.111  1.0748  1.5961 -0.3713
  932MOL0     H28592   8.955   3.643   1.195 -0.6000 -0.7383 -1.1870
  932MOL0     H28593   8.823   3.665   1.084 -0.6528 -1.3139  0.4537
  932MOL0     H28594   9.014   3.791   0.985 -2.1380  0.1671 -3.6156
  932MOL0     H28595   8.984   3.642   0.889  1.9868 -2.0963 -0.5217
  932MOL0     H28596   8.309   3.360   1.645  1.8396 -0.9768 -1.0028
  932MOL0     H28597   8.159   3.264   1.816 -0.0483  0.0702 -0.1790
  932MOL0     H28598   7.909   2.917   1.967 -0.2176 -1.9620  1.7099
  932MOL0     H28599   7.741   2.795   2.086  0.1670  1.0198  0.5630
  932MOL0     H28600   7.764   1.844   3.584  0.1401  0.6327 -0.8866
  932MOL0     H28601   7.906   1.771   3.775 -0.7440  0.8717  0.3718
  932MOL0     H28602   8.263   1.560   3.840 -2.0188 -0.7742  1.0024
  932MOL0     H28603   8.464   1.436   3.957  0.3832 -0.0281  2.2098
  932MOL0     H28604   8.719   1.692   4.214 -0.7787 -0.9151 -2.7512
  932MOL0     H28605   8.606   1.607   4.332  3.0842  0.3436  2.8822
  932MOL0     H28606   8.865   1.534   4.193  2.5944  0.6243  1.3420
  932MOL0     H28607   8.785   1.423   4.297  3.0234 -1.6386 -2.8392
  932MOL0     H28608   8.887   1.701   4.382  1.1795  0.1475 -1.9664
  932MOL0     H28609   8.797   1.591   4.486 -0.4172 -0.1207 -1.0746
  932MOL0     H28610   9.062   1.505   4.361 -1.0375 -4.2522 -0.2815
  932MOL0     H28611   8.984   1.428   4.498  0.7341 -1.9397 -1.9830
  932MOL0     H28612   9.188   1.790   4.640 -0.3538  2.0029 -2.6130
  932MOL0     H28613   8.517   1.805   4.171 -2.0422  1.1198 -1.5351
  932MOL0     H28614   8.219   1.944   4.124 -0.4383  1.8270 -0.0345
  932MOL0     H28615   8.377   1.963   4.197  1.9971  3.4452  0.0223
  932MOL0     H28616   8.366   2.012   4.026  2.6022 -2.1922 -0.4300
  933MOL0     O28617   6.594   7.324   7.240 -0.7634  0.5984  0.3369
  933MOL0     C28618   6.550   7.241   7.322  0.9249  0.0570 -0.1443
  933MOL0     O28619   6.420   7.239   7.369  0.3001  0.4896  0.4963
  933MOL0     C28620   6.335   7.346   7.340  0.5444 -0.8040  0.5727
  933MOL0     C28621   6.247   7.327   7.234  0.1943 -0.5409  0.2348
  933MOL0     C28622   6.167   7.440   7.202  0.1415 -0.4183  0.3675
  933MOL0     C28623   6.164   7.561   7.274 -0.9616  0.3315 -0.4869
  933MOL0     O28624   6.100   7.679   7.253 -0.7228  0.0810  0.5990
  933MOL0     C28625   6.004   7.682   7.148 -0.2943  0.6248  0.8927
  933MOL0     C28626   5.862   7.690   7.201 -0.0055  0.5735 -0.5078
  933MOL0     C28627   5.791   7.785   7.109 -0.6384  0.3729  0.4907
  933MOL0     C28628   5.646   7.808   7.140  0.5581  0.5024  0.6611
  933MOL0     C28629   5.569   7.887   7.030 -0.4350  0.6612 -0.3872
  933MOL0     C28630   5.431   7.923   7.083  0.9232 -0.2744 -0.0348
  933MOL0     C28631   5.332   7.815   7.064  0.2279 -0.8715  0.2727
  933MOL0     C28632   5.195   7.860   7.137  0.2663 -0.2391 -0.3718
  933MOL0     N28633   5.119   7.957   7.051 -0.5530  0.0996 -0.7546
  933MOL0     C28634   4.986   7.979   7.072 -0.0162  0.0071 -0.1428
  933MOL0     C28635   4.951   8.068   6.977 -0.2627 -1.3596  0.4697
  933MOL0     C28636   4.802   8.101   6.945 -0.3459  0.5068 -0.1869
  933MOL0     C28637   4.742   8.183   7.057  0.1490  0.1549  0.5258
  933MOL0     C28638   4.804   8.326   7.060 -0.0066  0.2905 -0.4324
  933MOL0     C28639   4.758   8.406   7.182 -0.0845  0.3517  1.2703
  933MOL0     O28640   4.616   8.385   7.207  0.0348  0.5601 -0.1330
  933MOL0     C28641   4.565   8.461   7.305 -0.2664  0.7810  0.6880
  933MOL0     C28642   4.622   8.566   7.381 -0.2163 -0.6721  0.2913
  933MOL0     C28643   4.551   8.630   7.481  0.2782 -0.1544  0.1148
  933MOL0     C28644   4.624   8.740   7.556  0.8005 -1.0565  0.7199
  933MOL0     C28645   4.418   8.589   7.513 -0.8684 -0.3473  0.0259
  933MOL0     C28646   4.334   8.631   7.627 -0.5102 -0.7955 -0.1757
  933MOL0     O28647   4.218   8.561   7.643  0.7203  0.2112  0.0965
  933MOL0     C28648   4.145   8.572   7.757 -0.1848 -0.0878 -0.5238
  933MOL0     C28649   4.010   8.564   7.754  0.2069 -0.9321 -0.4592
  933MOL0     C28650   3.924   8.564   7.859  0.8252  0.2970  0.2578
  933MOL0     C28651   3.975   8.576   7.992 -0.1362  0.9695  0.6345
  933MOL0     O28652   3.884   8.573   8.098 -0.2655  0.1450 -0.3347
  933MOL0     C28653   3.905   8.696   8.171  0.2337 -1.0561 -0.0604
  933MOL0     C28654   3.780   8.702   8.258 -0.3409  0.1972  0.2553
  933MOL0     C28655   3.755   8.838   8.329 -0.3629 -0.3505  0.7950
  933MOL0     C28656   3.641   8.809   8.429 -0.2334 -0.2187 -0.0975
  933MOL0     C28657   3.638   8.923   8.537  0.3548 -0.9570 -0.4475
  933MOL0     C28658   3.528   8.913   8.645  0.0345 -0.4615  0.5809
  933MOL0     C28659   3.467   9.052   8.657  0.8590  1.0626 -0.4916
  933MOL0     C28660   3.356   9.058   8.763  0.5302 -0.4245 -0.3061
  933MOL0    Cl28661   3.384   8.960   8.912 -0.5340  0.1386  0.0988
  933MOL0     C28662   4.121   8.581   8.007  0.8564  0.1366 -0.2002
  933MOL0     C28663   4.204   8.584   7.890  0.4985 -0.2907  1.4306
  933MOL0     O28664   4.388   8.703   7.715  0.2363  0.4084 -0.1505
  933MOL0     C28665   4.360   8.479   7.436 -0.0340 -0.2469  0.1308
  933MOL0     C28666   4.437   8.423   7.326  0.2384 -0.9327 -0.9269
  933MOL0     N28667   5.062   8.109   6.907  0.1737 -0.5362 -0.1223
  933MOL0     N28668   5.159   8.038   6.950 -0.4860  1.4243  0.0660
  933MOL0     C28669   6.251   7.565   7.388 -0.0512 -0.6569 -0.0868
  933MOL0     C28670   6.337   7.462   7.420 -0.7433 -0.4751  0.2753
  933MOL0     C28671   6.635   7.120   7.353  0.4430  0.4436 -0.0032
  933MOL0     C28672   6.570   7.002   7.404 -0.6150 -0.0146  1.2107
  933MOL0     C28673   6.637   6.888   7.422 -0.4079  0.4930 -0.0970
  933MOL0     C28674   6.771   6.883   7.408  0.9559  0.4733  0.0865
  933MOL0     O28675   6.827   6.767   7.435 -0.2808 -0.1914 -0.0911
  933MOL0     C28676   6.948   6.728   7.383  0.3048  0.0963 -0.0678
  933MOL0     C28677   6.951   6.576   7.384 -0.8614 -0.7594  0.2311
  933MOL0     C28678   6.846   6.503   7.296 -0.8771  0.5219 -0.8963
  933MOL0     C28679   6.842   6.357   7.351 -0.5840  0.3197 -0.4451
  933MOL0     C28680   6.780   6.258   7.264  0.0409  0.0897 -0.5783
  933MOL0     C28681   6.736   6.193   7.175 -0.3528 -0.4925  0.3397
  933MOL0     C28682   6.836   6.994   7.361  0.1165  0.8066  0.7981
  933MOL0     C28683   6.777   7.118   7.336  0.1297 -0.6085 -1.1283
  933MOL0     C28684   6.868   7.227   7.285 -1.2267  0.4193  0.4509
  933MOL0     H28685   6.256   7.234   7.180  1.4426 -0.3696  0.1153
  933MOL0     H28686   6.109   7.421   7.112  0.3421 -3.1560  0.7205
  933MOL0     H28687   6.019   7.597   7.080  4.8595  0.2622  2.0383
  933MOL0     H28688   6.028   7.777   7.100 -2.3541  0.6169 -0.2730
  933MOL0     H28689   5.816   7.591   7.194  1.0020 -0.2065  2.4253
  933MOL0     H28690   5.863   7.724   7.305 -0.4122 -0.1650 -0.2518
  933MOL0     H28691   5.839   7.883   7.119  2.4951 -1.0721  0.9473
  933MOL0     H28692   5.799   7.747   7.007 -3.9381 -0.0298  0.2937
  933MOL0     H28693   5.602   7.708   7.134 -0.3484  0.9938 -1.8456
  933MOL0     H28694   5.635   7.849   7.241 -0.4130 -1.4340  1.3897
  933MOL0     H28695   5.555   7.828   6.939 -2.4688 -0.7359  0.7581
  933MOL0     H28696   5.630   7.977   7.018  1.5712 -0.7872 -1.5360
  933MOL0     H28697   5.433   7.947   7.189 -2.6488 -0.5060  0.2022
  933MOL0     H28698   5.385   8.008   7.032 -2.4942 -1.0520  1.5239
  933MOL0     H28699   5.370   7.721   7.104 -0.4044 -1.7832 -1.2073
  933MOL0     H28700   5.315   7.807   6.956 -0.0141 -1.2962  0.3384
  933MOL0     H28701   5.128   7.781   7.171  1.4099 -0.3403  1.8090
  933MOL0     H28702   5.214   7.916   7.228 -3.4834  0.6243  0.0351
  933MOL0     H28703   4.917   7.928   7.138 -0.0981 -0.5491 -0.6447
  933MOL0     H28704   4.755   8.009   6.909  2.4362  0.6510 -4.9947
  933MOL0     H28705   4.791   8.157   6.852 -2.1041 -0.9312 -0.8980
  933MOL0     H28706   4.633   8.186   7.045 -0.1202 -1.6273  1.9894
  933MOL0     H28707   4.760   8.123   7.147  2.7235  0.3402  0.2159
  933MOL0     H28708   4.911   8.310   7.073 -0.1521 -1.1243 -0.8456
  933MOL0     H28709   4.796   8.389   6.971  3.8782 -1.5971 -2.3085
  933MOL0     H28710   4.807   8.365   7.270 -0.3470 -1.8399  0.4428
  933MOL0     H28711   4.782   8.512   7.169 -1.5818  0.3190 -5.2807
  933MOL0     H28712   4.725   8.602   7.382 -0.3441 -0.2721 -0.2414
  933MOL0     H28713   4.721   8.755   7.509  0.2493 -1.4981 -0.6032
  933MOL0     H28714   4.660   8.723   7.658  0.2917 -0.6651  0.9750
  933MOL0     H28715   4.558   8.828   7.556  1.4011 -0.5752  1.7843
  933MOL0     H28716   3.962   8.562   7.656  0.4773  1.0703 -0.6703
  933MOL0     H28717   3.817   8.559   7.845  0.8097 -1.5702  0.7431
  933MOL0     H28718   3.996   8.692   8.232 -0.0588 -3.2007  0.2989
  933MOL0     H28719   3.907   8.781   8.102 -1.7624 -2.1102 -1.5051
  933MOL0     H28720   3.690   8.682   8.198 -0.8058  0.8217  0.7294
  933MOL0     H28721   3.785   8.625   8.335 -0.5768 -0.1909 -0.1069
  933MOL0     H28722   3.712   8.912   8.260  3.7118 -0.2888 -2.0326
  933MOL0     H28723   3.843   8.872   8.384  0.5664 -0.5509 -0.5025
  933MOL0     H28724   3.673   8.721   8.485  0.9578  0.7629  0.8377
  933MOL0     H28725   3.542   8.793   8.387 -0.6143  1.4391  0.0759
  933MOL0     H28726   3.740   8.924   8.576  0.7956 -1.4629 -1.5472
  933MOL0     H28727   3.613   9.014   8.482 -1.9642 -1.2830 -0.0305
  933MOL0     H28728   3.589   8.878   8.729  0.4571 -2.6599 -0.5618
  933MOL0     H28729   3.459   8.828   8.645 -0.8215  0.2106 -0.3512
  933MOL0     H28730   3.426   9.087   8.562 -1.1790 -0.8481 -0.3908
  933MOL0     H28731   3.544   9.121   8.691 -1.1884  2.6441  1.1730
  933MOL0     H28732   3.260   9.028   8.719  0.4017 -1.2617  0.5010
  933MOL0     H28733   3.339   9.160   8.798  1.0208 -0.6686  0.6872
  933MOL0     H28734   4.175   8.585   8.101  0.4515  2.1570 -0.0155
  933MOL0     H28735   4.312   8.587   7.902  1.1154  2.3724 -2.7381
  933MOL0     H28736   4.261   8.435   7.445 -0.4602 -0.3418 -3.4099
  933MOL0     H28737   4.394   8.346   7.262 -0.6648  0.6633 -2.2995
  933MOL0     H28738   6.234   7.652   7.450 -0.9564  0.5322 -1.9153
  933MOL0     H28739   6.405   7.467   7.504 -0.9369  1.3856  0.3494
  933MOL0     H28740   6.465   7.006   7.432 -0.8168 -0.7239  0.5610
  933MOL0     H28741   6.595   6.792   7.447  2.3791 -0.1522  2.9310
  933MOL0     H28742   6.954   6.771   7.283 -0.2986 -0.7177 -0.4659
  933MOL0     H28743   7.025   6.769   7.449 -1.3153  0.0119  1.9984
  933MOL0     H28744   6.933   6.528   7.481  0.7654 -1.1573  0.3619
  933MOL0     H28745   7.050   6.538   7.359 -0.0870  1.2545  0.0635
  933MOL0     H28746   6.751   6.556   7.306  0.0678  2.1484 -0.1470
  933MOL0     H28747   6.877   6.509   7.191  0.9679  1.4579 -0.3432
  933MOL0     H28748   6.803   6.347   7.453 -1.8253  0.5717 -0.8712
  933MOL0     H28749   6.944   6.320   7.350 -1.6801 -3.1120  0.3329
  933MOL0     H28750   6.710   6.133   7.090 -0.7731  0.2168 -0.0371
  933MOL0     H28751   6.944   6.987   7.348 -0.0886 -1.5264  0.0030
  933MOL0     H28752   6.870   7.311   7.356  1.4755  1.3008 -0.5466
  933MOL0     H28753   6.970   7.186   7.278 -1.3620  0.2623 -0.7259
  933MOL0     H28754   6.847   7.269   7.187  3.5787 -1.4545 -1.7080
  934MOL0     O28755   2.969  10.339   4.645 -0.4558 -0.0368 -0.4653
  934MOL0     C28756   3.007  10.415   4.730 -0.2792 -0.1748  0.0603
  934MOL0     O28757   3.076  10.524   4.706 -0.3101  0.1004  0.3275
  934MOL0     C28758   3.092  10.566   4.573 -0.2405 -0.8811  0.1625
  934MOL0     C28759   3.216  10.571   4.513 -0.4198  0.9366 -0.4351
  934MOL0     C28760   3.228  10.632   4.389  0.5197  0.3207  1.2862
  934MOL0     C28761   3.109  10.673   4.318  0.3816 -0.4102  0.0061
  934MOL0     O28762   3.117  10.741   4.201 -0.5904 -1.1960  0.1081
  934MOL0     C28763   3.028  10.707   4.094  0.5155  0.0574 -0.0674
  934MOL0     C28764   3.048  10.779   3.956 -0.3789 -0.1995  0.1964
  934MOL0     C28765   3.113  10.917   3.983  0.0179  0.0914 -0.2168
  934MOL0     C28766   3.082  11.026   3.884 -0.5509 -0.6373  0.6273
  934MOL0     C28767   3.152  11.161   3.918  0.1304  1.1249  1.0921
  934MOL0     C28768   3.107  11.274   3.814  0.4359 -0.7929  0.1331
  934MOL0     C28769   3.219  11.390   3.823  0.4856 -0.0893  0.5860
  934MOL0     C28770   3.164  11.520   3.751 -0.4770  0.3498  0.1146
  934MOL0     N28771   3.180  11.510   3.600  0.4714 -0.2252  0.0596
  934MOL0     C28772   3.125  11.587   3.496 -0.7817 -0.2877  0.5268
  934MOL0     C28773   3.145  11.519   3.374  0.4689  0.0117 -0.4233
  934MOL0     C28774   3.078  11.564   3.243  0.0797 -0.3386  0.6774
  934MOL0     C28775   3.178  11.642   3.152  0.8734 -0.8228  0.2076
  934MOL0     C28776   3.095  11.711   3.040 -0.4244 -0.1544 -0.7297
  934MOL0     C28777   3.193  11.748   2.918 -0.4449 -0.0457 -0.4929
  934MOL0     O28778   3.295  11.844   2.953  0.1189  0.3057  0.4006
  934MOL0     C28779   3.369  11.880   2.847 -0.3493  0.8934 -0.5817
  934MOL0     C28780   3.476  11.800   2.833 -0.0786  0.7268  0.2899
  934MOL0     C28781   3.564  11.808   2.720 -0.3096 -0.6162  0.2121
  934MOL0     C28782   3.675  11.707   2.712  0.3502  0.0653 -0.4174
  934MOL0     C28783   3.547  11.916   2.629 -0.2372  0.4730  0.0022
  934MOL0     C28784   3.627  11.952   2.508 -0.4712  1.0525 -0.7926
  934MOL0     O28785   3.579  12.058   2.437  0.5665  0.2050 -0.2281
  934MOL0     C28786   3.649  12.098   2.331  0.6894 -0.2852 -0.0455
  934MOL0     C28787   3.679  12.237   2.324 -0.3126 -0.2289  0.0917
  934MOL0     C28788   3.759  12.290   2.226 -0.2365 -0.4363  0.9469
  934MOL0     C28789   3.788  12.215   2.116 -0.1281  0.1170  0.3377
  934MOL0     O28790   3.870  12.259   2.009  0.1028 -0.7530  0.0163
  934MOL0     C28791   3.904  12.398   2.005 -0.4699 -1.0646 -0.6803
  934MOL0     C28792   4.003  12.419   1.885  0.3851 -0.6111 -0.2946
  934MOL0     C28793   3.935  12.376   1.766 -0.9535  0.2720 -0.1375
  934MOL0     C28794   4.017  12.408   1.638 -0.0381 -0.6610 -0.0943
  934MOL0     C28795   3.974  12.302   1.529 -0.1831 -0.5909 -0.6172
  934MOL0     C28796   3.856  12.372   1.468 -0.0342 -0.5205 -0.3359
  934MOL0     C28797   3.768  12.275   1.383 -0.2105  0.1047  0.4318
  934MOL0     C28798   3.694  12.342   1.265  0.3348  0.5685 -0.0335
  934MOL0    Cl28799   3.558  12.448   1.309  0.2518  0.1659  0.0977
  934MOL0     C28800   3.737  12.088   2.106 -0.2255 -0.8375  0.5579
  934MOL0     C28801   3.668  12.024   2.213 -0.5464  0.0827  0.6377
  934MOL0     O28802   3.730  11.895   2.487 -0.5620  0.2489 -0.2875
  934MOL0     C28803   3.432  11.996   2.647 -0.3210 -0.9951 -0.0211
  934MOL0     C28804   3.339  11.971   2.746 -0.3027  0.3136 -0.6547
  934MOL0     N28805   3.209  11.398   3.413 -0.2334 -0.2313 -0.5952
  934MOL0     N28806   3.226  11.402   3.540  0.2280 -0.2270  0.7720
  934MOL0     C28807   2.990  10.663   4.376  0.3396 -0.3150 -0.2670
  934MOL0     C28808   2.983  10.624   4.508  0.7793 -0.5367  0.2264
  934MOL0     C28809   2.969  10.383   4.868  1.0262  1.3598 -0.2150
  934MOL0     C28810   2.963  10.485   4.959  0.5809  0.3422 -0.1574
  934MOL0     C28811   2.928  10.471   5.096 -0.2119  0.6780  0.6249
  934MOL0     C28812   2.908  10.342   5.151  1.2854  0.5304  0.9236
  934MOL0     O28813   2.888  10.322   5.282 -0.0447  0.3611  0.0183
  934MOL0     C28814   2.917  10.193   5.339  0.3317 -0.4079  0.0774
  934MOL0     C28815   2.936  10.195   5.491  0.5576  0.8813  0.4119
  934MOL0     C28816   2.958  10.048   5.536 -0.1789  0.4388  0.0774
  934MOL0     C28817   2.936  10.041   5.679 -0.0394 -0.5113  1.0282
  934MOL0     C28818   2.939   9.905   5.730  0.6974  0.0353  0.0458
  934MOL0     C28819   2.961   9.805   5.796 -0.8221 -0.5303 -1.0194
  934MOL0     C28820   2.899  10.239   5.064  0.1230  0.6325 -0.0976
  934MOL0     C28821   2.933  10.260   4.927 -0.2873  0.3890  0.4455
  934MOL0     C28822   2.911  10.141   4.840 -0.5092 -0.0812 -0.2372
  934MOL0     H28823   3.301  10.523   4.561 -0.6854  2.4583  1.7011
  934MOL0     H28824   3.326  10.660   4.352 -0.4381 -0.0904 -1.8008
  934MOL0     H28825   2.926  10.720   4.132 -0.1114 -2.6427 -0.5928
  934MOL0     H28826   3.033  10.603   4.061  0.9958 -0.1346  0.6103
  934MOL0     H28827   3.108  10.708   3.898 -0.9482  0.8467 -1.7536
  934MOL0     H28828   2.953  10.801   3.907 -1.0873 -0.4403  1.4187
  934MOL0     H28829   3.089  10.958   4.082  2.3342 -0.7411  0.7662
  934MOL0     H28830   3.222  10.905   3.987 -0.0159 -0.0742  2.7026
  934MOL0     H28831   3.097  10.997   3.780 -1.1526  0.3002  0.2642
  934MOL0     H28832   2.975  11.046   3.890 -0.8152 -2.1289  1.9007
  934MOL0     H28833   3.261  11.148   3.917 -0.1324 -1.4010 -0.1892
  934MOL0     H28834   3.132  11.188   4.023  1.0639  0.2833  1.5016
  934MOL0     H28835   3.122  11.231   3.715  2.2124 -1.0026  0.4733
  934MOL0     H28836   3.008  11.313   3.839  0.7750  0.3860 -0.2866
  934MOL0     H28837   3.315  11.348   3.790 -0.9502 -2.2241 -1.1562
  934MOL0     H28838   3.224  11.416   3.929  2.9778  0.3983  0.4188
  934MOL0     H28839   3.057  11.523   3.771 -0.7179 -2.1204 -0.5312
  934MOL0     H28840   3.202  11.614   3.793  0.8149 -0.2507  0.3467
  934MOL0     H28841   3.082  11.685   3.484  0.1702 -0.0180 -0.8633
  934MOL0     H28842   2.987  11.622   3.256 -0.6604  0.3140 -4.8949
  934MOL0     H28843   3.032  11.479   3.191 -1.3666 -0.6711  2.4056
  934MOL0     H28844   3.228  11.720   3.209  1.3374 -1.5639  0.8247
  934MOL0     H28845   3.253  11.574   3.111  3.1370  1.5430  0.1259
  934MOL0     H28846   3.008  11.656   3.003 -1.7605 -0.2376  2.2405
  934MOL0     H28847   3.048  11.803   3.077 -0.0843 -0.2335 -0.0981
  934MOL0     H28848   3.245  11.657   2.888 -0.1383 -0.4478  1.1988
  934MOL0     H28849   3.130  11.781   2.834 -1.9793 -1.9357 -0.1542
  934MOL0     H28850   3.488  11.713   2.896  3.0294  0.2599 -0.7857
  934MOL0     H28851   3.652  11.611   2.760  0.0724  0.2370 -0.2124
  934MOL0     H28852   3.762  11.739   2.769  0.9705  0.0942 -1.3608
  934MOL0     H28853   3.707  11.696   2.608  0.4517 -1.2756 -0.2632
  934MOL0     H28854   3.644  12.306   2.400 -0.4661  0.7407 -0.8295
  934MOL0     H28855   3.783  12.396   2.224  0.0552 -0.4838  1.6460
  934MOL0     H28856   3.816  12.463   1.992 -0.0090 -0.8312 -3.3496
  934MOL0     H28857   3.965  12.423   2.092  0.7070 -1.1049 -1.4707
  934MOL0     H28858   4.011  12.528   1.884 -5.4132  0.2139  2.2881
  934MOL0     H28859   4.101  12.377   1.911  1.2307  1.2008 -0.3265
  934MOL0     H28860   3.837  12.423   1.754 -1.5095 -1.2989 -2.5604
  934MOL0     H28861   3.937  12.267   1.778 -0.7810  0.3035  0.1210
  934MOL0     H28862   4.117  12.372   1.663  0.3483  0.9790  0.9003
  934MOL0     H28863   4.022  12.509   1.595 -2.3010 -0.4470  0.0119
  934MOL0     H28864   4.051  12.278   1.456  1.0831 -2.2913  1.1506
  934MOL0     H28865   3.950  12.206   1.577  1.1474  0.0639  1.5272
  934MOL0     H28866   3.889  12.461   1.415 -2.7522  1.3570  0.8662
  934MOL0     H28867   3.785  12.405   1.544 -0.8867 -1.0703 -0.8703
  934MOL0     H28868   3.706  12.208   1.443  0.5314 -2.4078 -1.4043
  934MOL0     H28869   3.839  12.210   1.329  1.0317  0.6947  1.3047
  934MOL0     H28870   3.653  12.264   1.199  1.0006  2.1454 -2.4436
  934MOL0     H28871   3.759  12.405   1.204 -1.3067  0.9398 -1.5102
  934MOL0     H28872   3.769  12.030   2.020 -3.8897  0.8296 -2.2036
  934MOL0     H28873   3.639  11.921   2.202 -0.9089  0.3779 -1.4257
  934MOL0     H28874   3.403  12.082   2.587 -1.7885  0.2408  2.3076
  934MOL0     H28875   3.253  12.037   2.760  1.0227  1.9729 -0.0355
  934MOL0     H28876   2.896  10.696   4.332 -0.7297 -1.8401  0.7713
  934MOL0     H28877   2.891  10.638   4.563  0.4801  0.8147 -0.5880
  934MOL0     H28878   2.981  10.591   4.943 -2.5413  0.9752 -0.1253
  934MOL0     H28879   2.927  10.562   5.156  1.6035  1.9756 -1.1836
  934MOL0     H28880   2.830  10.130   5.321  1.3999 -2.2416  0.9905
  934MOL0     H28881   3.012  10.158   5.296  0.7740  1.1629 -0.2954
  934MOL0     H28882   2.838  10.229   5.524  0.3280  2.8580 -2.0249
  934MOL0     H28883   3.019  10.263   5.513  1.4369  1.2230 -3.3428
  934MOL0     H28884   2.886   9.983   5.485 -1.0442  1.0888  0.4373
  934MOL0     H28885   3.059  10.013   5.515 -0.6841  0.3601 -2.6119
  934MOL0     H28886   2.838  10.083   5.699 -0.0760  1.4060 -2.3666
  934MOL0     H28887   3.007  10.105   5.732  1.8809 -0.1875 -1.7079
  934MOL0     H28888   2.979   9.723   5.862 -2.0668 -0.4169 -0.5109
  934MOL0     H28889   2.857  10.142   5.092  1.1592  0.2160  0.0484
  934MOL0     H28890   2.990  10.129   4.765  0.1475  0.7730  0.2906
  934MOL0     H28891   2.913  10.052   4.905  2.2120  1.6321  2.3248
  934MOL0     H28892   2.811  10.144   4.798  0.0154  1.0248 -1.4671
  935MOL0     O28893  11.055   7.337  10.151 -0.4750  0.2816 -0.3923
  935MOL0     C28894  11.082   7.293  10.260 -0.5657  0.4756 -1.4657
  935MOL0     O28895  11.132   7.168  10.287  0.2403 -0.0423 -0.1337
  935MOL0     C28896  11.115   7.068  10.198  0.1750  0.5025 -0.6726
  935MOL0     C28897  10.998   6.984  10.202 -0.4515  0.3504 -0.4405
  935MOL0     C28898  10.995   6.870  10.121  0.9611 -0.1385 -0.2544
  935MOL0     C28899  11.095   6.852  10.027 -0.4723  0.4692  0.0301
  935MOL0     O28900  11.088   6.757   9.928  0.1897  0.3752  0.3319
  935MOL0     C28901  10.963   6.693   9.900  0.5529 -0.0768 -0.2572
  935MOL0     C28902  10.981   6.599   9.788 -0.0567 -0.5237  0.3534
  935MOL0     C28903  10.853   6.519   9.774  0.2172 -0.4802  0.7553
  935MOL0     C28904  10.869   6.421   9.655  0.5191 -1.1146  0.5843
  935MOL0     C28905  10.744   6.324   9.654 -0.3573 -1.0826  0.1082
  935MOL0     C28906  10.755   6.233   9.532  0.6142  0.3224  0.0546
  935MOL0     C28907  10.859   6.123   9.557 -0.1853  0.0041 -0.1684
  935MOL0     C28908  10.828   6.010   9.451  0.0024 -0.4909 -0.3453
  935MOL0     N28909  10.900   5.888   9.474 -0.4076  0.4831  0.0853
  935MOL0     C28910  10.863   5.793   9.567  0.0789 -0.2912  0.0722
  935MOL0     C28911  10.956   5.693   9.553  0.7622 -0.2695 -0.1698
  935MOL0     C28912  10.961   5.563   9.620 -0.4458  0.8042  0.0342
  935MOL0     C28913  11.064   5.572   9.734 -0.4785 -0.1343 -0.6435
  935MOL0     C28914  11.212   5.594   9.684 -0.1680  0.3560 -0.3888
  935MOL0     C28915  11.305   5.584   9.806 -0.1752 -0.0412  0.2676
  935MOL0     O28916  11.283   5.693   9.899  0.1789  0.7374  0.0242
  935MOL0     C28917  11.386   5.749   9.984  0.3437  0.3106  0.0112
  935MOL0     C28918  11.514   5.701   9.995 -0.6076 -0.6367 -0.4097
  935MOL0     C28919  11.611   5.758  10.076 -1.0639  0.6519  0.8989
  935MOL0     C28920  11.732   5.676  10.109 -0.3007  0.0867  0.0805
  935MOL0     C28921  11.581   5.883  10.141  0.2059 -0.3128 -0.1107
  935MOL0     C28922  11.678   5.968  10.217  0.0487  0.3144 -0.8105
  935MOL0     O28923  11.651   6.105  10.252  0.6873  0.1571  0.4438
  935MOL0     C28924  11.750   6.159  10.320 -1.0960 -0.8982  0.1627
  935MOL0     C28925  11.774   6.130  10.458 -0.9203  0.3322  0.6116
  935MOL0     C28926  11.892   6.173  10.513  0.5242  0.7515 -0.4166
  935MOL0     C28927  11.980   6.261  10.454  0.2912  0.2168 -0.0446
  935MOL0     O28928  12.086   6.316  10.521 -0.5527 -0.0983 -0.3627
  935MOL0     C28929  12.201   6.374  10.453  0.7936 -0.8608  0.7138
  935MOL0     C28930  12.304   6.411  10.559  0.4227  0.8538  0.0961
  935MOL0     C28931  12.392   6.287  10.593 -0.6601  0.2847  0.3565
  935MOL0     C28932  12.531   6.333  10.646  0.1496 -0.7761 -0.2172
  935MOL0     C28933  12.628   6.224  10.676 -0.0312 -0.2137  0.2978
  935MOL0     C28934  12.779   6.270  10.698  0.0518 -0.1384 -0.1323
  935MOL0     C28935  12.878   6.161  10.735 -0.4713  0.0124 -0.4032
  935MOL0     C28936  13.022   6.197  10.709 -0.5813 -0.6104  0.1720
  935MOL0    Cl28937  13.072   6.151  10.543 -0.0812  0.1481  0.1921
  935MOL0     C28938  11.959   6.287  10.316 -0.0741  0.8389 -0.1594
  935MOL0     C28939  11.853   6.235  10.249 -0.3796 -0.5830  0.8594
  935MOL0     O28940  11.777   5.913  10.251  1.0105  0.8624  0.4101
  935MOL0     C28941  11.445   5.925  10.138  0.7894  0.2757  0.2309
  935MOL0     C28942  11.347   5.856  10.070 -0.4053  0.0807  0.1493
  935MOL0     N28943  11.048   5.731   9.457  0.7482 -0.3125 -0.0264
  935MOL0     N28944  11.011   5.842   9.402 -0.3799  0.0059 -0.3097
  935MOL0     C28945  11.205   6.930  10.024 -0.0187 -0.7725  0.4137
  935MOL0     C28946  11.216   7.029  10.117 -0.5186 -0.4354 -0.5083
  935MOL0     C28947  11.072   7.385  10.373  0.0739  0.2722 -0.4268
  935MOL0     C28948  11.132   7.343  10.495 -0.0883  0.3461  0.1403
  935MOL0     C28949  11.119   7.417  10.616  0.6188 -0.0776  0.3219
  935MOL0     C28950  11.039   7.531  10.618 -0.5097  0.8615  0.3491
  935MOL0     O28951  11.009   7.591  10.735  0.7279  0.2194 -0.0781
  935MOL0     C28952  11.126   7.664  10.780  0.5081 -0.2405 -0.5137
  935MOL0     C28953  11.084   7.787  10.865  0.3239 -0.5284  0.3735
  935MOL0     C28954  11.207   7.877  10.910 -0.4754  0.0858 -0.3686
  935MOL0     C28955  11.190   7.999  10.996 -0.7022 -0.3779 -0.4991
  935MOL0     C28956  11.325   8.052  11.036  0.6002 -0.5713 -0.1193
  935MOL0     C28957  11.432   8.096  11.049 -0.2707 -1.5891  0.6213
  935MOL0     C28958  10.978   7.569  10.503 -0.5447  0.3225  0.2902
  935MOL0     C28959  10.998   7.503  10.379  0.1662 -0.1579  0.2242
  935MOL0     C28960  10.909   7.556  10.264 -0.2679  0.1657  1.0114
  935MOL0     H28961  10.919   7.016  10.269 -0.6457  2.6223 -1.6639
  935MOL0     H28962  10.905   6.810  10.119  0.2004  0.9576 -2.6391
  935MOL0     H28963  10.886   6.765   9.872 -2.0788 -1.9655  1.6328
  935MOL0     H28964  10.925   6.645   9.990 -1.8667  1.3056 -0.4611
  935MOL0     H28965  10.995   6.652   9.693 -0.2745 -0.7277  0.2071
  935MOL0     H28966  11.061   6.528   9.814 -0.2782 -0.7065  0.5401
  935MOL0     H28967  10.834   6.466   9.868  0.5924  0.8630  1.6259
  935MOL0     H28968  10.764   6.580   9.756 -0.8307 -2.5995 -2.0725
  935MOL0     H28969  10.878   6.472   9.559  0.2548 -1.3150  0.4508
  935MOL0     H28970  10.956   6.354   9.662  1.2559 -0.0267  2.5360
  935MOL0     H28971  10.649   6.376   9.642  0.7786  0.9013 -0.9435
  935MOL0     H28972  10.739   6.276   9.752 -2.1608  3.5773  2.5929
  935MOL0     H28973  10.660   6.178   9.524  1.5012 -1.2763 -0.0285
  935MOL0     H28974  10.775   6.286   9.439 -2.4755 -0.3802 -1.1186
  935MOL0     H28975  10.837   6.082   9.657 -0.0976 -1.5073 -0.7403
  935MOL0     H28976  10.963   6.155   9.551 -0.4527  0.7935 -0.7186
  935MOL0     H28977  10.723   5.982   9.463 -0.2560  1.2049  2.3256
  935MOL0     H28978  10.855   6.042   9.350 -0.9131 -1.1840 -0.8263
  935MOL0     H28979  10.778   5.782   9.634  0.3873 -0.8297  0.3871
  935MOL0     H28980  10.994   5.478   9.560  1.1087  0.2368  1.5940
  935MOL0     H28981  10.863   5.537   9.659 -2.1586  3.0970 -2.3822
  935MOL0     H28982  11.041   5.659   9.796 -0.8276 -2.2369  2.3739
  935MOL0     H28983  11.047   5.488   9.802  1.4880  1.1323  1.5372
  935MOL0     H28984  11.236   5.511   9.616 -0.3279  0.8640 -1.0760
  935MOL0     H28985  11.224   5.692   9.638  0.2706  0.8912  0.8487
  935MOL0     H28986  11.282   5.491   9.859  0.5895  0.2250  1.1033
  935MOL0     H28987  11.409   5.579   9.772 -0.5766 -0.1772 -0.9794
  935MOL0     H28988  11.540   5.614   9.935  1.3673 -1.1575  1.0882
  935MOL0     H28989  11.829   5.721  10.083 -0.3055 -0.7565 -1.4629
  935MOL0     H28990  11.724   5.578  10.061  1.5727 -0.9938  1.7973
  935MOL0     H28991  11.734   5.667  10.218 -0.5226  2.2775  0.3032
  935MOL0     H28992  11.704   6.064  10.508 -0.2931 -2.0462 -1.4474
  935MOL0     H28993  11.911   6.162  10.619  1.4577  0.0637 -0.6431
  935MOL0     H28994  12.230   6.308  10.370  3.2679 -2.1113  2.4201
  935MOL0     H28995  12.168   6.465  10.404  1.5742 -0.5316  0.7841
  935MOL0     H28996  12.368   6.493  10.525 -0.7821  1.6321 -0.3385
  935MOL0     H28997  12.264   6.450  10.652 -0.3243 -0.9372  0.5685
  935MOL0     H28998  12.409   6.237  10.497  0.5159  0.4039  0.4908
  935MOL0     H28999  12.345   6.217  10.662  0.7255  0.0330  1.0815
  935MOL0     H29000  12.511   6.398  10.732  2.3571  1.6829 -1.4336
  935MOL0     H29001  12.577   6.393  10.567 -0.9676 -2.1206 -1.9780
  935MOL0     H29002  12.609   6.167  10.768  3.4807 -0.4199  1.0527
  935MOL0     H29003  12.631   6.149  10.597  1.6193  0.1642 -0.0322
  935MOL0     H29004  12.787   6.341  10.780 -0.1490 -1.3614  0.9707
  935MOL0     H29005  12.807   6.328  10.610 -0.7314  2.3247  1.1526
  935MOL0     H29006  12.841   6.078  10.674 -3.0421  0.7296  0.0644
  935MOL0     H29007  12.865   6.116  10.833  2.5328  0.9796  0.5476
  935MOL0     H29008  13.094   6.147  10.773  1.2341  0.4724 -0.9178
  935MOL0     H29009  13.039   6.302  10.735  1.9042 -1.6102  3.1656
  935MOL0     H29010  12.031   6.355  10.271 -0.1030  0.7745 -0.3059
  935MOL0     H29011  11.838   6.251  10.142  1.1404  0.7740  0.8137
  935MOL0     H29012  11.422   6.014  10.196 -0.9258  1.0154 -1.4872
  935MOL0     H29013  11.244   5.888  10.078 -0.1325  0.5029  3.5326
  935MOL0     H29014  11.275   6.909   9.943 -0.6955  0.4392 -0.5107
  935MOL0     H29015  11.303   7.092  10.127  1.4478 -3.0893  0.4349
  935MOL0     H29016  11.204   7.262  10.506 -1.2951 -0.6707  0.8544
  935MOL0     H29017  11.168   7.374  10.702 -1.6177 -0.4856  1.4772
  935MOL0     H29018  11.197   7.599  10.831  0.9650 -0.8081 -1.8154
  935MOL0     H29019  11.190   7.694  10.696  1.8115 -0.6584  0.3047
  935MOL0     H29020  11.030   7.749  10.953 -2.6548 -0.2534 -1.2102
  935MOL0     H29021  11.011   7.850  10.813 -0.2586 -1.6713 -0.2332
  935MOL0     H29022  11.268   7.815  10.975 -1.1863  0.7400  0.9625
  935MOL0     H29023  11.258   7.907  10.817 -1.2418  2.4684 -0.0942
  935MOL0     H29024  11.126   7.989  11.084  1.3647 -0.4590  1.0813
  935MOL0     H29025  11.148   8.082  10.938  0.6997 -0.6283 -1.9679
  935MOL0     H29026  11.532   8.130  11.067  0.5814 -0.7837 -4.1932
  935MOL0     H29027  10.920   7.660  10.507 -1.1398  0.0727 -1.5164
  935MOL0     H29028  10.960   7.557  10.168 -1.9544 -0.5971  0.0734
  935MOL0     H29029  10.831   7.480  10.259  1.0737 -1.1587 -2.8609
  935MOL0     H29030  10.874   7.658  10.283  0.7820  0.6418  0.5073
  936MOL0     O29031   1.495   4.404   4.417  0.5390 -0.0232 -0.8585
  936MOL0     C29032   1.397   4.344   4.467 -0.5899 -0.1577  1.1932
  936MOL0     O29033   1.368   4.204   4.446  0.2176 -0.2516 -0.2781
  936MOL0     C29034   1.460   4.128   4.388 -0.6973  0.3759  0.9491
  936MOL0     C29035   1.431   4.054   4.271  0.7328  0.5635  0.0649
  936MOL0     C29036   1.526   3.971   4.216  0.1372 -0.2596 -0.0407
  936MOL0     C29037   1.652   3.948   4.271  0.3524  0.3971  0.2652
  936MOL0     O29038   1.736   3.860   4.221 -1.5628 -0.2610 -0.0360
  936MOL0     C29039   1.791   3.768   4.320  0.2797 -0.1650  1.2959
  936MOL0     C29040   1.858   3.643   4.262  0.6650 -0.0682  0.6201
  936MOL0     C29041   1.845   3.536   4.364 -0.4384 -0.3062 -0.2772
  936MOL0     C29042   1.913   3.410   4.327  0.7647 -0.4077 -0.4294
  936MOL0     C29043   1.909   3.310   4.444  0.0371  0.3430  0.1263
  936MOL0     C29044   1.948   3.176   4.411  0.4522  0.3829  0.7773
  936MOL0     C29045   2.093   3.143   4.445  0.7722  0.3936  1.7587
  936MOL0     C29046   2.117   3.111   4.590 -0.1808  0.3666  0.2849
  936MOL0     N29047   2.259   3.072   4.621 -0.1120 -0.0576 -0.4734
  936MOL0     C29048   2.304   2.945   4.617 -0.3707  0.4109  0.5509
  936MOL0     C29049   2.436   2.963   4.646 -0.5201 -0.0382 -0.3180
  936MOL0     C29050   2.536   2.853   4.675  0.1402  0.0716 -0.1523
  936MOL0     C29051   2.493   2.722   4.605  0.8488  0.4963  0.0225
  936MOL0     C29052   2.580   2.591   4.633  0.0153 -0.1369  0.4437
  936MOL0     C29053   2.569   2.544   4.779  0.2655  0.0797  0.4652
  936MOL0     O29054   2.657   2.433   4.804  0.2313 -0.0002 -0.2095
  936MOL0     C29055   2.598   2.310   4.817 -0.3408  0.7804 -0.0412
  936MOL0     C29056   2.484   2.286   4.899  0.3976 -0.4274 -1.1362
  936MOL0     C29057   2.432   2.151   4.917  0.2646  0.3686  0.1558
  936MOL0     C29058   2.315   2.141   5.000 -0.4682  0.0003 -0.3061
  936MOL0     C29059   2.508   2.038   4.861  1.0920  0.4848  0.3518
  936MOL0     C29060   2.468   1.903   4.874  0.2797 -0.1773  0.1268
  936MOL0     O29061   2.565   1.815   4.839  0.0933  0.6532 -0.9839
  936MOL0     C29062   2.525   1.684   4.813  0.4686  1.3985 -0.5980
  936MOL0     C29063   2.555   1.577   4.902 -0.2690 -0.0800 -0.0993
  936MOL0     C29064   2.508   1.447   4.866 -0.8700  0.2714 -0.1590
  936MOL0     C29065   2.435   1.427   4.744 -0.0234  0.4475 -0.1242
  936MOL0     O29066   2.403   1.293   4.725 -0.2581  0.3284  0.2734
  936MOL0     C29067   2.309   1.278   4.619 -0.2104  0.0667 -0.5721
  936MOL0     C29068   2.263   1.130   4.608  0.8772 -0.4819  0.5265
  936MOL0     C29069   2.361   1.020   4.647 -0.0214 -0.5274  0.0120
  936MOL0     C29070   2.327   0.880   4.607  0.1618  0.7357 -0.3473
  936MOL0     C29071   2.428   0.774   4.656  1.1693 -0.8928 -1.4206
  936MOL0     C29072   2.417   0.647   4.570 -0.3525 -0.4942 -0.0555
  936MOL0     C29073   2.516   0.544   4.621  0.0439 -0.5530 -0.3424
  936MOL0     C29074   2.523   0.419   4.545  0.2224  0.0982  0.6994
  936MOL0    Cl29075   2.364   0.336   4.539 -0.2122 -0.3498  0.2293
  936MOL0     C29076   2.408   1.531   4.656 -0.5893 -1.2870 -0.0265
  936MOL0     C29077   2.443   1.657   4.698 -0.3904  0.5397  0.2136
  936MOL0     O29078   2.355   1.866   4.904 -0.0495  0.4266 -0.1170
  936MOL0     C29079   2.624   2.075   4.793 -0.3787  0.2695  1.1857
  936MOL0     C29080   2.673   2.201   4.774 -0.6702  0.0121 -0.3494
  936MOL0     N29081   2.465   3.098   4.657  0.5448  0.9636 -0.4746
  936MOL0     N29082   2.351   3.158   4.646  0.0480 -0.5598 -0.4025
  936MOL0     C29083   1.685   4.030   4.383  0.4285 -0.7292 -0.1973
  936MOL0     C29084   1.591   4.113   4.444  1.2056  1.0226 -0.0214
  936MOL0     C29085   1.299   4.415   4.547 -0.5081  0.1341 -0.8863
  936MOL0     C29086   1.173   4.359   4.567  0.9290 -0.2392  0.0850
  936MOL0     C29087   1.071   4.430   4.635 -0.1123 -0.3658  0.9501
  936MOL0     C29088   1.094   4.560   4.676 -0.6705  0.8052  0.3035
  936MOL0     O29089   0.994   4.623   4.743  0.5607 -0.7161 -0.0953
  936MOL0     C29090   1.004   4.764   4.779 -1.1233 -0.1594 -0.6197
  936MOL0     C29091   0.872   4.832   4.810  0.5129  0.3948 -0.0890
  936MOL0     C29092   0.771   4.819   4.700  0.0213 -0.7030 -0.1371
  936MOL0     C29093   0.673   4.932   4.671 -0.0834 -0.3149 -0.0346
  936MOL0     C29094   0.627   5.005   4.789 -0.4137 -0.8278  1.1043
  936MOL0     C29095   0.590   5.067   4.882  0.4497 -0.2547  0.1727
  936MOL0     C29096   1.220   4.614   4.673 -0.2257  0.2839  0.1136
  936MOL0     C29097   1.320   4.545   4.604  0.6115 -0.1192 -0.4904
  936MOL0     C29098   1.450   4.626   4.607 -0.2860 -0.1219  0.8383
  936MOL0     H29099   1.331   4.066   4.231 -0.1599 -3.5412  0.6855
  936MOL0     H29100   1.487   3.912   4.134 -1.9818  0.6820  0.2359
  936MOL0     H29101   1.714   3.741   4.394  1.2875  2.6150  3.5547
  936MOL0     H29102   1.869   3.817   4.380  1.5739 -0.3618 -0.1818
  936MOL0     H29103   1.805   3.607   4.173  0.4900 -2.4728  1.6258
  936MOL0     H29104   1.961   3.658   4.230  0.3770 -3.2916 -2.4129
  936MOL0     H29105   1.889   3.573   4.457 -0.0624 -2.3751  0.4087
  936MOL0     H29106   1.740   3.514   4.381  0.1390 -2.2510  1.1190
  936MOL0     H29107   1.852   3.375   4.243 -3.4233  1.1672  1.6579
  936MOL0     H29108   2.015   3.426   4.290 -0.1719  0.2134 -3.0012
  936MOL0     H29109   1.811   3.305   4.491 -0.0878  1.1066 -0.0398
  936MOL0     H29110   1.984   3.339   4.518 -0.5044 -0.4544  1.0062
  936MOL0     H29111   1.878   3.098   4.442  1.9131 -0.9449  0.8492
  936MOL0     H29112   1.938   3.159   4.303  3.5270 -5.0988  1.0232
  936MOL0     H29113   2.154   3.227   4.409  1.5648 -0.3605  1.3086
  936MOL0     H29114   2.120   3.055   4.387 -0.5895  0.0935  1.5453
  936MOL0     H29115   2.095   3.201   4.649 -3.1146  0.4345 -0.7468
  936MOL0     H29116   2.046   3.034   4.619  1.4096 -1.1607  0.2583
  936MOL0     H29117   2.256   2.852   4.589  0.6941  0.1800 -0.6137
  936MOL0     H29118   2.522   2.845   4.783  1.6368 -0.1868  0.0423
  936MOL0     H29119   2.639   2.880   4.650 -0.6041  1.2869 -2.0962
  936MOL0     H29120   2.391   2.693   4.633  1.5217 -0.9294  1.1077
  936MOL0     H29121   2.496   2.734   4.496 -1.6122 -3.8284 -0.7618
  936MOL0     H29122   2.543   2.507   4.572 -3.2551  1.0947  0.5156
  936MOL0     H29123   2.682   2.614   4.602 -1.1539  1.7278 -2.4516
  936MOL0     H29124   2.584   2.624   4.852  2.2591 -0.6821  0.9608
  936MOL0     H29125   2.471   2.496   4.789  1.1871 -2.1607 -0.5511
  936MOL0     H29126   2.437   2.365   4.957  1.4195 -3.1915  4.0551
  936MOL0     H29127   2.241   2.078   4.950 -0.4264 -0.5340  0.2860
  936MOL0     H29128   2.270   2.238   5.024  0.3651  0.7635 -1.6848
  936MOL0     H29129   2.340   2.097   5.097  0.6536  1.0226 -0.1066
  936MOL0     H29130   2.619   1.585   4.990  2.2458  1.6597 -1.9397
  936MOL0     H29131   2.525   1.363   4.933 -0.4370  1.1817  0.8986
  936MOL0     H29132   2.218   1.328   4.653 -0.3186 -0.2813 -0.3395
  936MOL0     H29133   2.350   1.316   4.525 -1.2527  1.8837 -0.3263
  936MOL0     H29134   2.177   1.126   4.676  0.3711  1.6148  0.1017
  936MOL0     H29135   2.228   1.110   4.507  1.3051 -3.4357  0.8795
  936MOL0     H29136   2.358   1.037   4.755 -1.9731  0.7483 -0.1956
  936MOL0     H29137   2.457   1.045   4.601 -0.3712  0.1144 -0.3711
  936MOL0     H29138   2.326   0.872   4.498  1.7271 -1.5404 -0.2737
  936MOL0     H29139   2.228   0.842   4.636  0.7813 -3.2561 -2.7234
  936MOL0     H29140   2.528   0.818   4.649  0.9738  0.3272  1.7679
  936MOL0     H29141   2.410   0.754   4.762 -0.1700  6.7031  0.3829
  936MOL0     H29142   2.458   0.671   4.471  1.1087 -0.7713  0.4505
  936MOL0     H29143   2.316   0.608   4.578 -1.7987  2.9570  0.3299
  936MOL0     H29144   2.491   0.542   4.728 -0.8721  2.3880 -0.4169
  936MOL0     H29145   2.620   0.578   4.619 -0.8664  2.4297 -1.3759
  936MOL0     H29146   2.604   0.355   4.583  1.0503  0.1214 -0.9174
  936MOL0     H29147   2.560   0.448   4.446  1.4538 -2.0472  0.4604
  936MOL0     H29148   2.338   1.532   4.573 -1.7912 -1.8983  0.9583
  936MOL0     H29149   2.400   1.743   4.648 -2.9704 -0.9973 -0.3854
  936MOL0     H29150   2.684   1.998   4.744 -1.9501  1.0537 -2.2749
  936MOL0     H29151   2.756   2.208   4.704 -4.1729  3.4856 -4.7370
  936MOL0     H29152   1.784   4.017   4.427 -0.7108 -3.5435  1.8213
  936MOL0     H29153   1.617   4.167   4.535  0.3885 -0.5445  1.1756
  936MOL0     H29154   1.149   4.259   4.533  1.3077  0.4039 -2.2204
  936MOL0     H29155   0.974   4.388   4.657  0.3596 -1.8608  0.2908
  936MOL0     H29156   1.069   4.774   4.866 -0.5168  1.2729 -1.2014
  936MOL0     H29157   1.047   4.818   4.694  2.3110 -0.8951  0.5112
  936MOL0     H29158   0.904   4.934   4.831 -0.3906  0.6875 -0.0664
  936MOL0     H29159   0.838   4.801   4.909  0.5281  2.9362  0.7592
  936MOL0     H29160   0.831   4.795   4.612  2.6833 -1.1234  1.6761
  936MOL0     H29161   0.717   4.734   4.744  2.2829 -2.9595 -1.4829
  936MOL0     H29162   0.596   4.887   4.609  0.7141  0.1241 -1.3902
  936MOL0     H29163   0.725   5.010   4.614  2.6867  0.3624  3.1018
  936MOL0     H29164   0.550   5.129   4.959  2.2519 -0.4729  1.3576
  936MOL0     H29165   1.227   4.710   4.724 -2.4661 -0.4401  1.9281
  936MOL0     H29166   1.469   4.654   4.503 -0.6804 -3.2235 -0.1711
  936MOL0     H29167   1.462   4.712   4.673  3.3671  0.4265 -0.3410
  936MOL0     H29168   1.528   4.558   4.641  1.6157  0.6202 -1.7694
  937MOL0     O29169   3.042   9.499   6.832  0.0472  0.0171  0.3151
  937MOL0     C29170   3.031   9.576   6.927 -0.1066  1.0213  0.1240
  937MOL0     O29171   3.142   9.627   7.000 -0.2727  0.1749 -0.6331
  937MOL0     C29172   3.259   9.664   6.931 -0.3638  0.8467  0.1617
  937MOL0     C29173   3.368   9.685   7.011  0.3616  0.2286 -0.3215
  937MOL0     C29174   3.483   9.734   6.955  0.3150  0.3679 -0.4333
  937MOL0     C29175   3.499   9.743   6.815  0.3449  0.2948  0.1720
  937MOL0     O29176   3.628   9.741   6.759 -0.2520 -0.5077 -0.6083
  937MOL0     C29177   3.658   9.804   6.634  0.0238 -0.1214  0.0100
  937MOL0     C29178   3.686   9.958   6.650 -0.0754  0.2034  0.0739
  937MOL0     C29179   3.791   9.979   6.762 -0.4832 -0.3946 -0.4227
  937MOL0     C29180   3.732  10.017   6.902 -0.8350 -0.4583 -0.0909
  937MOL0     C29181   3.724  10.166   6.913  0.6065 -0.2021 -0.2564
  937MOL0     C29182   3.860  10.220   6.954  1.0803 -0.0535 -0.4383
  937MOL0     C29183   3.854  10.368   6.968  0.0946  0.3688  0.1550
  937MOL0     C29184   3.989  10.424   7.013 -0.2052 -0.4882  0.0745
  937MOL0     N29185   4.089  10.429   6.916 -0.5266 -0.3824 -0.3781
  937MOL0     C29186   4.131  10.548   6.864  1.0016  0.5346 -0.0308
  937MOL0     C29187   4.246  10.532   6.803 -0.2358  0.4194 -0.2228
  937MOL0     C29188   4.328  10.614   6.717 -0.2240  0.1710  0.3155
  937MOL0     C29189   4.470  10.647   6.772  0.6233 -0.2203 -0.4599
  937MOL0     C29190   4.577  10.658   6.666 -0.2331 -0.2350  0.2294
  937MOL0     C29191   4.569  10.804   6.616 -0.2632  0.7974  0.5062
  937MOL0     O29192   4.481  10.810   6.503 -0.3516 -0.4492  0.1744
  937MOL0     C29193   4.390  10.913   6.481  0.3736  0.7308 -0.2934
  937MOL0     C29194   4.393  11.039   6.536  0.2806  0.1664 -0.5374
  937MOL0     C29195   4.283  11.133   6.522  0.2197  0.8382 -0.9115
  937MOL0     C29196   4.293  11.274   6.590 -0.2705  0.6222 -0.0512
  937MOL0     C29197   4.172  11.087   6.450  0.5309  0.2710 -0.0268
  937MOL0     C29198   4.045  11.160   6.429 -0.9363  0.5957  0.4712
  937MOL0     O29199   4.042  11.291   6.468 -0.4098  0.7797  0.3536
  937MOL0     C29200   3.931  11.354   6.488  0.1566 -0.4319 -0.9941
  937MOL0     C29201   3.854  11.413   6.386 -0.4429  0.0107  0.2352
  937MOL0     C29202   3.737  11.491   6.414  0.4000 -0.6016 -0.1301
  937MOL0     C29203   3.701  11.521   6.548  0.0087 -0.3825  0.6409
  937MOL0     O29204   3.591  11.597   6.590  0.3289  0.3192 -0.0909
  937MOL0     C29205   3.558  11.705   6.507  0.5315 -0.4322  0.9776
  937MOL0     C29206   3.439  11.788   6.570 -0.3641  0.3760  0.5488
  937MOL0     C29207   3.301  11.722   6.540 -0.5240  0.5188 -0.2736
  937MOL0     C29208   3.186  11.794   6.622  0.3569  0.1486 -0.3272
  937MOL0     C29209   3.054  11.713   6.629 -0.0133 -1.2073  0.4121
  937MOL0     C29210   3.063  11.581   6.697 -0.0599 -0.6546  0.3261
  937MOL0     C29211   2.936  11.501   6.688 -0.2892 -0.4472 -1.1155
  937MOL0     C29212   2.939  11.371   6.772  0.5058  0.0649  0.1566
  937MOL0    Cl29213   2.882  11.389   6.936 -0.0430  0.3778 -0.0437
  937MOL0     C29214   3.777  11.464   6.649  0.9519 -0.9508  0.5306
  937MOL0     C29215   3.882  11.378   6.620  0.1167 -0.5532 -0.1127
  937MOL0     O29216   3.952  11.087   6.399 -0.1374  0.5623 -0.1877
  937MOL0     C29217   4.173  10.954   6.404  0.2933 -0.0858  0.7055
  937MOL0     C29218   4.281  10.875   6.419 -0.5159 -0.0492  0.9293
  937MOL0     N29219   4.279  10.401   6.835 -0.2753 -0.7925  0.2189
  937MOL0     N29220   4.184  10.333   6.897 -0.5452 -0.0124 -0.4077
  937MOL0     C29221   3.390   9.697   6.738  0.2759 -0.9933  0.3104
  937MOL0     C29222   3.268   9.677   6.799  0.8409 -0.2256 -0.0796
  937MOL0     C29223   2.891   9.608   6.974  0.7136  0.1611  0.4739
  937MOL0     C29224   2.801   9.512   6.940 -0.0980 -0.2564 -0.4009
  937MOL0     C29225   2.667   9.524   6.984  0.3608  0.2435 -0.6020
  937MOL0     C29226   2.628   9.636   7.056  0.1013  0.4597  1.0256
  937MOL0     O29227   2.501   9.679   7.076  0.1931 -0.5295 -0.0777
  937MOL0     C29228   2.392   9.626   6.997 -0.8127  0.3838 -0.1334
  937MOL0     C29229   2.304   9.534   7.085  0.1522  0.3294  0.8540
  937MOL0     C29230   2.171   9.539   7.008  0.9356 -0.5920 -0.4451
  937MOL0     C29231   2.064   9.445   7.082  0.3609 -0.3368  0.2579
  937MOL0     C29232   1.927   9.459   7.034  0.2015 -0.4474 -0.4874
  937MOL0     C29233   1.821   9.481   6.991 -0.4359  0.0915  0.3726
  937MOL0     C29234   2.716   9.735   7.084  0.3119 -0.6949 -0.4179
  937MOL0     C29235   2.850   9.722   7.045  0.1086 -0.7444  0.3003
  937MOL0     C29236   2.939   9.842   7.066 -0.3283 -1.0579 -0.0653
  937MOL0     H29237   3.363   9.676   7.119  0.4819  0.0453 -0.3291
  937MOL0     H29238   3.562   9.771   7.019  1.1206  0.1990 -1.2930
  937MOL0     H29239   3.576   9.793   6.563 -2.0881 -1.5756  2.5245
  937MOL0     H29240   3.747   9.758   6.591  1.6769  1.9724  0.9947
  937MOL0     H29241   3.734   9.989   6.557  0.7909 -4.5882 -1.3726
  937MOL0     H29242   3.603  10.026   6.667  0.5306  2.7425 -5.1584
  937MOL0     H29243   3.838   9.883   6.785 -2.4799 -0.7084  3.0720
  937MOL0     H29244   3.861  10.056   6.728  0.3292 -1.0828 -0.3461
  937MOL0     H29245   3.632   9.975   6.916 -0.7441 -2.2208 -3.7136
  937MOL0     H29246   3.803   9.969   6.970  1.7650 -1.2602 -3.1466
  937MOL0     H29247   3.654  10.198   6.990 -0.1211 -2.2859 -0.0205
  937MOL0     H29248   3.704  10.210   6.815  2.5577 -0.1167 -0.6751
  937MOL0     H29249   3.885  10.175   7.051  2.1157  1.9120  0.2503
  937MOL0     H29250   3.934  10.193   6.878 -0.9910 -0.6679 -2.3471
  937MOL0     H29251   3.775  10.390   7.040 -0.0797 -2.9533  1.1659
  937MOL0     H29252   3.843  10.416   6.871  4.6013  1.6373  0.0289
  937MOL0     H29253   3.979  10.526   7.051  0.5712  0.1623 -1.3636
  937MOL0     H29254   4.027  10.366   7.098  1.2969 -0.3746 -0.4804
  937MOL0     H29255   4.080  10.644   6.870 -0.4801 -0.3157  2.1139
  937MOL0     H29256   4.286  10.715   6.712 -0.6096  0.1277  2.1082
  937MOL0     H29257   4.335  10.567   6.619 -1.8687 -1.5732  0.9719
  937MOL0     H29258   4.459  10.741   6.826 -0.9491  0.0036 -1.1044
  937MOL0     H29259   4.508  10.574   6.844 -1.1269 -1.0278 -0.2928
  937MOL0     H29260   4.674  10.652   6.717  0.6926  0.7967 -1.3293
  937MOL0     H29261   4.570  10.574   6.596 -0.2198 -0.9315  1.0504
  937MOL0     H29262   4.539  10.868   6.700 -1.9799 -0.5252  0.9491
  937MOL0     H29263   4.664  10.846   6.579 -0.3003 -0.1379 -0.7225
  937MOL0     H29264   4.477  11.076   6.594 -0.3536  2.7348 -1.1247
  937MOL0     H29265   4.381  11.268   6.655 -2.0283 -1.8412  2.3576
  937MOL0     H29266   4.201  11.282   6.649 -1.0738 -2.0306 -0.7833
  937MOL0     H29267   4.297  11.365   6.531 -1.1120 -0.5888 -2.0826
  937MOL0     H29268   3.887  11.392   6.284  1.3990  0.3519  0.7141
  937MOL0     H29269   3.671  11.519   6.332  0.4898 -1.2187 -0.4160
  937MOL0     H29270   3.646  11.769   6.513 -0.0539  0.3348  1.6935
  937MOL0     H29271   3.533  11.693   6.401 -0.7599  0.7047  1.1221
  937MOL0     H29272   3.449  11.792   6.679 -0.9716 -0.1551  0.6328
  937MOL0     H29273   3.448  11.889   6.531  1.5227 -0.1351 -0.4571
  937MOL0     H29274   3.309  11.617   6.569 -1.7324 -0.3047 -2.6148
  937MOL0     H29275   3.281  11.728   6.432 -1.7173 -0.6444 -0.1453
  937MOL0     H29276   3.163  11.894   6.584  2.1247  0.8973  0.4619
  937MOL0     H29277   3.238  11.809   6.718  0.6775 -0.5017 -0.3899
  937MOL0     H29278   2.984  11.781   6.679  1.7434  1.6184 -0.7311
  937MOL0     H29279   3.015  11.705   6.528 -1.1470  2.4717  0.3882
  937MOL0     H29280   3.089  11.595   6.803  0.3061 -2.4914  0.5070
  937MOL0     H29281   3.132  11.522   6.636 -1.0094  0.2117 -1.7003
  937MOL0     H29282   2.914  11.470   6.585 -0.6919 -2.7614 -0.3798
  937MOL0     H29283   2.845  11.553   6.718 -0.5083 -2.3331  1.8482
  937MOL0     H29284   3.042  11.333   6.771  2.0064  3.3312  3.5450
  937MOL0     H29285   2.871  11.301   6.724 -1.0909  1.0750  0.8881
  937MOL0     H29286   3.739  11.474   6.750 -0.3247  3.0360 -0.1526
  937MOL0     H29287   3.927  11.329   6.707 -0.4549 -0.5948  0.1627
  937MOL0     H29288   4.089  10.917   6.345  0.9784 -1.9946  0.8560
  937MOL0     H29289   4.274  10.774   6.379 -1.9212 -0.4439  2.1267
  937MOL0     H29290   3.402   9.681   6.632 -2.3700  1.2788 -0.4442
  937MOL0     H29291   3.192   9.667   6.722 -0.1810 -1.9390  1.0826
  937MOL0     H29292   2.823   9.425   6.878 -1.4123 -1.7174  1.0806
  937MOL0     H29293   2.590   9.449   6.967 -0.2041  0.9501 -1.2504
  937MOL0     H29294   2.339   9.705   6.943  3.0982  1.6725 -2.4922
  937MOL0     H29295   2.426   9.575   6.906  0.4178  0.7273  0.1259
  937MOL0     H29296   2.291   9.563   7.190 -0.2933 -0.3908  1.0039
  937MOL0     H29297   2.337   9.429   7.090  0.8846  0.5855  1.8191
  937MOL0     H29298   2.135   9.640   6.990  1.1704  0.0893  2.4556
  937MOL0     H29299   2.175   9.492   6.909 -4.4553  1.1404 -1.8406
  937MOL0     H29300   2.072   9.480   7.185  0.1078  1.7810 -0.3854
  937MOL0     H29301   2.087   9.338   7.072  0.7375 -0.2924  0.6186
  937MOL0     H29302   1.716   9.495   6.972 -0.4302  3.4460  2.0839
  937MOL0     H29303   2.689   9.816   7.151  0.2115 -1.8723  1.0101
  937MOL0     H29304   2.881   9.921   7.113  0.0604  0.4774 -2.0214
  937MOL0     H29305   3.027   9.825   7.129  0.8638  0.6742 -1.1742
  937MOL0     H29306   2.985   9.859   6.968 -0.2762 -0.3449  0.0730
  938MOL0     O29307   3.586   1.627   1.850 -0.0819 -0.7361 -0.3214
  938MOL0     C29308   3.661   1.718   1.882 -0.1873 -0.3685 -0.2901
  938MOL0     O29309   3.778   1.703   1.954 -0.2181 -0.3796 -0.3412
  938MOL0     C29310   3.838   1.584   1.987  0.8562 -0.4075 -0.0692
  938MOL0     C29311   3.876   1.483   1.901  0.6781  0.5174 -0.4528
  938MOL0     C29312   3.924   1.366   1.962 -0.0108  0.8582 -0.0175
  938MOL0     C29313   3.933   1.351   2.101 -0.0067 -0.5051 -0.1045
  938MOL0     O29314   3.972   1.233   2.150  0.5098 -0.8880 -0.7811
  938MOL0     C29315   4.047   1.238   2.275  0.3670  0.5030 -0.7426
  938MOL0     C29316   4.127   1.107   2.294  0.8720 -0.6359 -0.4832
  938MOL0     C29317   4.234   1.123   2.397 -0.4639  0.5850 -0.2031
  938MOL0     C29318   4.162   1.119   2.533  0.5973 -0.5315  0.5181
  938MOL0     C29319   4.258   1.124   2.641 -0.1350  0.0970  0.1505
  938MOL0     C29320   4.200   1.153   2.787  0.4128  0.7331  0.1377
  938MOL0     C29321   4.083   1.064   2.817 -0.7087 -0.5873  0.6810
  938MOL0     C29322   4.044   1.071   2.960 -0.4228 -0.3607 -0.3498
  938MOL0     N29323   4.142   0.987   3.044  0.2140  0.0127 -0.7030
  938MOL0     C29324   4.236   1.031   3.123 -0.9317 -0.2970 -0.7949
  938MOL0     C29325   4.289   0.930   3.193  1.1118  0.5843  0.9070
  938MOL0     C29326   4.399   0.927   3.296 -0.0352  0.9559 -0.0598
  938MOL0     C29327   4.362   0.942   3.436  0.6166 -0.0756  0.3809
  938MOL0     C29328   4.465   0.894   3.534  0.1646  0.7546 -0.1508
  938MOL0     C29329   4.413   0.916   3.674 -0.0715 -0.7959  0.5366
  938MOL0     O29330   4.296   0.831   3.717 -0.0924  0.3518 -0.2154
  938MOL0     C29331   4.312   0.697   3.747 -0.5335  0.4588  0.0459
  938MOL0     C29332   4.203   0.599   3.752 -0.5821  0.4978 -0.4044
  938MOL0     C29333   4.224   0.462   3.785  0.8968  0.3842  0.1115
  938MOL0     C29334   4.108   0.369   3.815 -0.3952  0.0858  0.0098
  938MOL0     C29335   4.356   0.416   3.793 -0.6340 -0.3150  0.4708
  938MOL0     C29336   4.381   0.280   3.837 -1.1178  0.0633  0.4855
  938MOL0     O29337   4.355   0.188   3.745  0.3780  0.3869 -0.5814
  938MOL0     C29338   4.393   0.061   3.785 -0.5524 -0.1233 -0.3169
  938MOL0     C29339   4.306  -0.028   3.844 -0.0490 -0.3028  0.9314
  938MOL0     C29340   4.346  -0.159   3.880  0.0288  0.1537 -0.5313
  938MOL0     C29341   4.482  -0.193   3.876  0.6285 -0.9095  0.3483
  938MOL0     O29342   4.521  -0.305   3.935 -0.4526 -0.0646  0.3378
  938MOL0     C29343   4.597  -0.393   3.848 -0.0049 -0.7114  0.2066
  938MOL0     C29344   4.593  -0.533   3.904 -0.5234 -0.3059  0.4427
  938MOL0     C29345   4.454  -0.589   3.924 -0.7002  0.2101 -0.2218
  938MOL0     C29346   4.476  -0.731   3.976  0.0062  0.9583  0.5239
  938MOL0     C29347   4.341  -0.803   3.969 -0.6494  0.4755 -0.9136
  938MOL0     C29348   4.283  -0.854   3.841 -0.7430  0.2551 -0.2429
  938MOL0     C29349   4.332  -0.993   3.803  0.0761 -0.0654 -0.0862
  938MOL0     C29350   4.318  -1.019   3.656  0.6975 -0.7260 -0.4014
  938MOL0    Cl29351   4.147  -0.983   3.623  0.3060 -0.0583  0.0478
  938MOL0     C29352   4.572  -0.105   3.812  0.4009 -0.2015 -0.7975
  938MOL0     C29353   4.530   0.018   3.773  0.2556 -0.6039 -0.2664
  938MOL0     O29354   4.451   0.255   3.938  0.0992 -0.6316  0.5544
  938MOL0     C29355   4.467   0.502   3.771  0.3649  0.0655 -1.1849
  938MOL0     C29356   4.440   0.638   3.757  0.1131  0.0111 -0.0784
  938MOL0     N29357   4.224   0.814   3.145  0.0908 -0.8008 -0.1318
  938MOL0     N29358   4.135   0.857   3.060  0.3582  0.8694  0.6340
  938MOL0     C29359   3.888   1.451   2.182  0.3064  0.1938  0.1640
  938MOL0     C29360   3.845   1.566   2.120 -0.8696  0.0807 -0.6525
  938MOL0     C29361   3.632   1.856   1.837 -0.0953 -0.0212  1.0525
  938MOL0     C29362   3.732   1.953   1.841 -0.5791  1.2243  0.3307
  938MOL0     C29363   3.707   2.079   1.792 -0.9613 -0.1899 -0.3493
  938MOL0     C29364   3.589   2.129   1.741 -0.0326  0.8055 -0.5546
  938MOL0     O29365   3.578   2.258   1.715 -0.1893 -0.3955  0.9753
  938MOL0     C29366   3.680   2.332   1.637  0.9695  1.0674 -0.4297
  938MOL0     C29367   3.731   2.261   1.512  0.2841  0.0818 -0.0847
  938MOL0     C29368   3.620   2.251   1.400  0.0372  0.3346 -0.7102
  938MOL0     C29369   3.679   2.174   1.281 -0.5744 -0.2362 -0.2340
  938MOL0     C29370   3.774   2.253   1.206  0.2701 -1.2036 -0.5952
  938MOL0     C29371   3.850   2.334   1.157 -0.2118 -0.9105  0.0460
  938MOL0     C29372   3.483   2.032   1.727 -0.0602 -0.3079 -0.4170
  938MOL0     C29373   3.502   1.899   1.782 -0.6242  0.1971 -0.3709
  938MOL0     C29374   3.374   1.814   1.790  0.6490 -0.0923 -0.0224
  938MOL0     H29375   3.869   1.487   1.793 -0.2041  1.1169 -0.3824
  938MOL0     H29376   3.965   1.286   1.901  0.7906  0.0561  1.5275
  938MOL0     H29377   3.975   1.258   2.355 -0.1808  3.3060 -1.8361
  938MOL0     H29378   4.120   1.318   2.268  2.2082 -0.9342  0.8574
  938MOL0     H29379   4.071   1.015   2.315  1.5291 -0.6876  1.2065
  938MOL0     H29380   4.174   1.083   2.198 -0.9233 -0.8973 -1.3320
  938MOL0     H29381   4.303   1.038   2.396 -1.1880 -0.0171 -0.2418
  938MOL0     H29382   4.283   1.220   2.385 -0.3343  0.3578 -1.8047
  938MOL0     H29383   4.088   1.198   2.550 -1.8967 -2.6533  0.1656
  938MOL0     H29384   4.113   1.022   2.533  2.4843 -1.5278  0.8981
  938MOL0     H29385   4.312   1.216   2.618 -1.5676  0.8679 -0.2680
  938MOL0     H29386   4.321   1.035   2.635 -0.1846  0.0353  0.5210
  938MOL0     H29387   4.275   1.141   2.866  0.9661  0.1120 -0.4789
  938MOL0     H29388   4.174   1.260   2.787  0.4983  0.7655 -1.0833
  938MOL0     H29389   4.104   0.960   2.791 -0.2594  0.0035 -1.5357
  938MOL0     H29390   4.001   1.088   2.749 -1.2081 -0.5990  1.2747
  938MOL0     H29391   4.031   1.171   3.002  2.5568  0.3340 -0.8398
  938MOL0     H29392   3.948   1.019   2.963 -0.7544 -0.6775 -5.8980
  938MOL0     H29393   4.278   1.130   3.133  2.7699 -1.7536 -0.0765
  938MOL0     H29394   4.470   1.008   3.276 -0.5160  1.7325  1.2582
  938MOL0     H29395   4.446   0.828   3.284 -0.2192  0.5750  1.9388
  938MOL0     H29396   4.355   1.050   3.450  0.7182  0.3068 -2.0925
  938MOL0     H29397   4.267   0.888   3.449  1.3524 -1.2719  0.9742
  938MOL0     H29398   4.482   0.787   3.519 -1.2803  0.3543  0.8800
  938MOL0     H29399   4.557   0.953   3.525  1.3184 -0.8642  0.4821
  938MOL0     H29400   4.494   0.902   3.747  0.7468 -1.9660 -0.5459
  938MOL0     H29401   4.389   1.022   3.678 -3.1104 -1.4231  1.6118
  938MOL0     H29402   4.097   0.621   3.744 -0.4998  1.2308  0.3757
  938MOL0     H29403   4.062   0.424   3.898 -1.2658 -1.9025  0.9233
  938MOL0     H29404   4.133   0.273   3.861  1.3491  0.8351  0.7214
  938MOL0     H29405   4.034   0.350   3.736 -0.6721 -2.1497  0.7189
  938MOL0     H29406   4.198  -0.017   3.846 -0.3884 -1.6074 -2.3594
  938MOL0     H29407   4.275  -0.221   3.933 -1.7540  1.2880 -1.5160
  938MOL0     H29408   4.559  -0.397   3.746  2.6612  2.2744 -1.0794
  938MOL0     H29409   4.704  -0.368   3.848 -0.3742  1.2233 -1.7168
  938MOL0     H29410   4.651  -0.593   3.834  0.9517  2.5333 -0.9481
  938MOL0     H29411   4.641  -0.548   4.002 -0.3435 -0.5940  0.3118
  938MOL0     H29412   4.393  -0.581   3.833 -0.6705 -1.2813 -0.3889
  938MOL0     H29413   4.396  -0.525   3.992 -2.7644  0.4827 -2.1022
  938MOL0     H29414   4.517  -0.729   4.077  3.7088  1.4065 -0.8489
  938MOL0     H29415   4.540  -0.798   3.918 -2.2103 -0.3604 -0.5535
  938MOL0     H29416   4.333  -0.894   4.028 -1.6818  0.3941 -1.1432
  938MOL0     H29417   4.267  -0.731   4.006 -0.6065 -0.2810  0.7000
  938MOL0     H29418   4.329  -0.797   3.760 -1.7760  0.9033 -0.3892
  938MOL0     H29419   4.175  -0.842   3.835 -0.8402  1.6621  2.5920
  938MOL0     H29420   4.268  -1.069   3.848 -0.9827 -1.1348 -3.1408
  938MOL0     H29421   4.436  -1.004   3.835  0.8060  3.2821 -0.9499
  938MOL0     H29422   4.348  -1.122   3.635 -1.5153 -1.4870 -0.1130
  938MOL0     H29423   4.382  -0.949   3.601 -0.3844 -0.3285 -1.1907
  938MOL0     H29424   4.675  -0.135   3.799  0.8106  1.2443 -1.0783
  938MOL0     H29425   4.604   0.090   3.738  2.1765 -1.0257  2.5417
  938MOL0     H29426   4.571   0.473   3.760  0.0422 -0.8107 -2.0854
  938MOL0     H29427   4.526   0.698   3.728 -0.1297  2.1760  3.1883
  938MOL0     H29428   3.879   1.450   2.290  0.4035  0.3979  0.1749
  938MOL0     H29429   3.796   1.649   2.171 -2.2713  0.8591 -3.0849
  938MOL0     H29430   3.830   1.937   1.885 -0.1057  0.8413 -0.8195
  938MOL0     H29431   3.788   2.149   1.808  1.2549 -2.1990 -2.0532
  938MOL0     H29432   3.631   2.423   1.603 -0.3913  0.2404 -0.7746
  938MOL0     H29433   3.762   2.361   1.704 -1.0452  2.7026  1.4937
  938MOL0     H29434   3.779   2.165   1.535 -0.7028 -0.4550 -0.2230
  938MOL0     H29435   3.805   2.335   1.481 -1.6132  1.0209 -2.6350
  938MOL0     H29436   3.536   2.193   1.438  0.5636  0.9419  1.5319
  938MOL0     H29437   3.586   2.346   1.357 -2.0020  0.3330  0.7627
  938MOL0     H29438   3.602   2.151   1.207 -0.3199  3.8257 -1.9935
  938MOL0     H29439   3.720   2.080   1.320 -0.0932  1.4105  3.7188
  938MOL0     H29440   3.918   2.398   1.105 -4.2432  1.4280 -2.9930
  938MOL0     H29441   3.382   2.064   1.701  0.0011 -1.1853 -1.8609
  938MOL0     H29442   3.353   1.778   1.891 -2.7363 -1.5643 -1.1100
  938MOL0     H29443   3.284   1.864   1.754 -0.6523 -2.8289 -0.8737
  938MOL0     H29444   3.386   1.728   1.723 -0.4325  2.3669 -3.6634
  939MOL0     O29445   3.074   9.064   6.940  0.4123  0.6603 -0.7107
  939MOL0     C29446   3.015   8.960   6.916 -0.1763  0.5301 -0.1534
  939MOL0     O29447   2.908   8.911   6.968  0.9208 -0.2346 -0.0023
  939MOL0     C29448   2.847   8.974   7.071 -0.2410  0.0750 -0.3084
  939MOL0     C29449   2.756   9.075   7.046  0.1496 -0.5739  0.2537
  939MOL0     C29450   2.723   9.159   7.164  0.6601  0.2372 -0.0899
  939MOL0     C29451   2.766   9.122   7.294 -0.4323 -0.1027 -0.3365
  939MOL0     O29452   2.736   9.184   7.412 -0.6165  0.4761  0.0161
  939MOL0     C29453   2.651   9.298   7.422  0.1928 -0.7557  0.2314
  939MOL0     C29454   2.525   9.280   7.507 -0.7390  0.5456  0.4063
  939MOL0     C29455   2.426   9.385   7.480 -0.3806 -0.0346  0.5588
  939MOL0     C29456   2.309   9.373   7.570 -0.0247  0.4635  0.9184
  939MOL0     C29457   2.213   9.475   7.512  1.3089 -0.2654  0.8944
  939MOL0     C29458   2.073   9.451   7.556  0.0159 -0.0311 -0.7182
  939MOL0     C29459   1.978   9.569   7.516  0.4731  0.8953  0.1925
  939MOL0     C29460   1.837   9.561   7.578  0.6679  0.9360 -0.1281
  939MOL0     N29461   1.760   9.465   7.499  0.3346 -1.4160  0.2500
  939MOL0     C29462   1.725   9.459   7.361  0.3539 -0.3633 -1.2133
  939MOL0     C29463   1.626   9.365   7.358 -0.1296  0.3890  0.2760
  939MOL0     C29464   1.553   9.307   7.232  0.8207 -0.0094  0.4567
  939MOL0     C29465   1.631   9.208   7.141  0.0013 -0.6980 -0.4087
  939MOL0     C29466   1.693   9.083   7.217  0.0446 -0.2370 -0.1892
  939MOL0     C29467   1.709   8.953   7.133  0.3865  1.2286 -0.0517
  939MOL0     O29468   1.838   8.994   7.083  0.2953 -0.2852 -0.8652
  939MOL0     C29469   1.923   8.905   7.038 -0.0392 -0.0544  0.1384
  939MOL0     C29470   2.059   8.939   7.046 -0.1657 -0.3091  0.0574
  939MOL0     C29471   2.159   8.845   7.018  0.2621  0.1889 -0.7151
  939MOL0     C29472   2.301   8.877   7.073  0.0695 -0.8839  0.6423
  939MOL0     C29473   2.121   8.712   6.970  0.1795  0.1031 -0.1783
  939MOL0     C29474   2.210   8.603   6.939  0.3530  0.3203 -0.3438
  939MOL0     O29475   2.164   8.484   6.891 -0.1802  0.0886  0.1073
  939MOL0     C29476   2.263   8.393   6.846 -0.4779  1.4899 -0.7500
  939MOL0     C29477   2.297   8.379   6.710 -0.6505  0.0983  0.0117
  939MOL0     C29478   2.391   8.279   6.670  0.0617  0.2002  0.6906
  939MOL0     C29479   2.461   8.199   6.752 -0.2940  1.0194 -0.3958
  939MOL0     O29480   2.561   8.117   6.702  0.7316  0.4426 -0.0090
  939MOL0     C29481   2.652   8.046   6.786 -0.2332 -0.3816 -0.6547
  939MOL0     C29482   2.739   7.950   6.708  0.2279 -0.6046 -1.0689
  939MOL0     C29483   2.802   7.845   6.804  0.0014  0.3970  0.0998
  939MOL0     C29484   2.856   7.723   6.753 -0.2600  0.2770  1.1425
  939MOL0     C29485   2.974   7.743   6.654  0.7666  0.0402 -0.7128
  939MOL0     C29486   2.989   7.607   6.581  0.3375  0.1655 -0.7269
  939MOL0     C29487   3.128   7.612   6.512  0.1087  0.9725  0.3508
  939MOL0     C29488   3.167   7.465   6.462 -0.0688  0.3498 -0.9133
  939MOL0    Cl29489   3.048   7.401   6.346  0.0925 -0.3384 -0.1033
  939MOL0     C29490   2.434   8.207   6.898  0.2206  0.4397 -0.3027
  939MOL0     C29491   2.329   8.297   6.942  1.1788 -0.0714  0.2805
  939MOL0     O29492   2.326   8.620   6.964 -0.2015  0.0166  0.2951
  939MOL0     C29493   1.982   8.679   6.971  0.3933 -0.4228  0.0600
  939MOL0     C29494   1.882   8.773   7.000  1.2814 -0.1038 -0.2121
  939MOL0     N29495   1.603   9.315   7.489 -0.1211  0.0950  0.6953
  939MOL0     N29496   1.679   9.375   7.564 -0.6201 -0.1908  0.1540
  939MOL0     C29497   2.856   9.017   7.304 -0.5593  0.6471 -0.2702
  939MOL0     C29498   2.906   8.954   7.196  0.5044 -0.5560 -0.3289
  939MOL0     C29499   3.087   8.871   6.822  0.4758 -0.1371 -0.0489
  939MOL0     C29500   3.036   8.854   6.693  0.2765 -0.0371  0.2691
  939MOL0     C29501   3.098   8.771   6.598 -0.3197 -0.4601  0.5104
  939MOL0     C29502   3.224   8.710   6.633  0.2258 -0.2351  0.0576
  939MOL0     O29503   3.293   8.641   6.537 -0.4846 -0.4931 -0.3971
  939MOL0     C29504   3.412   8.570   6.569  0.4772 -0.1718  0.3578
  939MOL0     C29505   3.455   8.505   6.444 -0.4959  0.3834  0.5217
  939MOL0     C29506   3.609   8.486   6.440 -0.4229 -0.3816 -0.7576
  939MOL0     C29507   3.667   8.416   6.314 -0.1179  0.7149 -0.1757
  939MOL0     C29508   3.814   8.424   6.327  0.4385 -0.9711  0.0128
  939MOL0     C29509   3.930   8.445   6.349  0.6596 -0.1878 -0.1233
  939MOL0     C29510   3.277   8.726   6.768 -0.1887 -0.2258  0.9907
  939MOL0     C29511   3.202   8.801   6.863  0.1477 -0.0435 -0.7023
  939MOL0     C29512   3.255   8.814   7.008 -0.2428 -0.3778  0.4463
  939MOL0     H29513   2.713   9.083   6.946 -1.6439  0.4481  1.0395
  939MOL0     H29514   2.647   9.236   7.152 -1.4171 -1.6299  0.3243
  939MOL0     H29515   2.625   9.331   7.321  1.7811  1.7676  0.5624
  939MOL0     H29516   2.711   9.376   7.470 -0.7350  1.6586 -2.3089
  939MOL0     H29517   2.481   9.182   7.490 -1.0421  0.4933  1.4357
  939MOL0     H29518   2.566   9.272   7.608  0.3585  4.6312  0.4879
  939MOL0     H29519   2.476   9.481   7.493  0.7882 -0.2776 -1.5620
  939MOL0     H29520   2.396   9.377   7.375  0.7891 -1.2661  0.2939
  939MOL0     H29521   2.272   9.270   7.574 -1.3377  0.6708 -2.7717
  939MOL0     H29522   2.320   9.406   7.674 -1.2807  2.7309  0.4060
  939MOL0     H29523   2.211   9.478   7.403  2.7244  0.7892  0.8656
  939MOL0     H29524   2.241   9.577   7.541 -0.7783  0.4521  0.5362
  939MOL0     H29525   2.027   9.357   7.523 -3.5128  1.0053  0.6894
  939MOL0     H29526   2.079   9.451   7.666  0.1695  0.8184 -0.7188
  939MOL0     H29527   1.966   9.576   7.408  0.2045 -0.7825  0.0898
  939MOL0     H29528   2.020   9.660   7.560  2.3389  0.2711 -0.1973
  939MOL0     H29529   1.842   9.550   7.687 -2.0216 -0.4485 -0.0619
  939MOL0     H29530   1.807   9.665   7.559  0.3449  0.6509 -1.2917
  939MOL0     H29531   1.763   9.522   7.281  0.1532 -2.4322 -3.0469
  939MOL0     H29532   1.508   9.382   7.166  1.2913 -0.8396 -0.8399
  939MOL0     H29533   1.474   9.244   7.272 -1.3324  1.6057 -0.9926
  939MOL0     H29534   1.570   9.171   7.058 -0.7230 -0.9432  0.2148
  939MOL0     H29535   1.723   9.255   7.105  1.7719 -1.6005  2.5863
  939MOL0     H29536   1.784   9.116   7.268 -1.0662  2.9829 -0.0651
  939MOL0     H29537   1.619   9.061   7.295 -0.8318  1.5756 -0.4702
  939MOL0     H29538   1.713   8.860   7.191 -3.9495  1.4420  0.8765
  939MOL0     H29539   1.626   8.951   7.062 -0.8808 -1.5811  1.3271
  939MOL0     H29540   2.072   9.039   7.084 -0.6875  0.8670 -2.5905
  939MOL0     H29541   2.365   8.884   6.984  0.0377  0.0783  0.6832
  939MOL0     H29542   2.341   8.801   7.140  0.5002 -0.3585  0.9878
  939MOL0     H29543   2.299   8.969   7.133 -2.2697  1.0934 -2.1676
  939MOL0     H29544   2.251   8.443   6.637  0.5947  0.8887 -0.1061
  939MOL0     H29545   2.424   8.285   6.567  2.2498  1.8825  1.4212
  939MOL0     H29546   2.717   8.119   6.835 -0.4428  0.2993 -1.3657
  939MOL0     H29547   2.597   8.005   6.871  0.0632  2.4691  1.0133
  939MOL0     H29548   2.679   7.896   6.633  0.1330 -1.2326 -0.5555
  939MOL0     H29549   2.810   8.016   6.659  0.8055  0.8045  1.4778
  939MOL0     H29550   2.728   7.822   6.881  1.3448  0.9448  1.6202
  939MOL0     H29551   2.889   7.887   6.857  0.7320 -2.9992  1.8985
  939MOL0     H29552   2.771   7.679   6.700  0.1206 -0.2228  0.9388
  939MOL0     H29553   2.892   7.666   6.839  0.8106 -0.8060  0.0075
  939MOL0     H29554   2.964   7.816   6.574  1.9290 -0.1769 -1.0758
  939MOL0     H29555   3.069   7.769   6.701  0.2761  1.7660 -0.6291
  939MOL0     H29556   2.906   7.587   6.513 -1.1760 -0.8027  1.2866
  939MOL0     H29557   2.989   7.529   6.657 -1.2952 -0.9317 -1.8026
  939MOL0     H29558   3.214   7.646   6.571  1.5290 -2.3997  0.4522
  939MOL0     H29559   3.125   7.679   6.425  5.2733  0.6064 -0.4038
  939MOL0     H29560   3.182   7.402   6.550  3.5077  0.9231 -0.9509
  939MOL0     H29561   3.271   7.474   6.427  1.3765 -0.2160  2.7618
  939MOL0     H29562   2.486   8.144   6.969  0.8608  3.3655  2.0567
  939MOL0     H29563   2.305   8.306   7.047 -1.9596 -4.1668  0.1687
  939MOL0     H29564   1.936   8.583   6.949  0.7159 -0.6466  0.3515
  939MOL0     H29565   1.778   8.744   6.990  1.6625 -0.7046 -4.0838
  939MOL0     H29566   2.897   9.002   7.404 -1.5239  2.8349  0.5236
  939MOL0     H29567   2.988   8.883   7.203  0.6843 -0.4606 -1.3414
  939MOL0     H29568   2.945   8.901   6.656  0.5141 -1.4620 -2.2963
  939MOL0     H29569   3.043   8.763   6.504  1.7506  0.2692 -0.8305
  939MOL0     H29570   3.475   8.651   6.606 -1.3235  1.4833 -0.0207
  939MOL0     H29571   3.396   8.505   6.655  2.4334 -3.0874 -1.3234
  939MOL0     H29572   3.433   8.561   6.352  0.8383 -3.2220 -2.2579
  939MOL0     H29573   3.413   8.405   6.427 -3.7101  1.8888 -1.4392
  939MOL0     H29574   3.651   8.584   6.461 -0.8467 -0.8483  2.8042
  939MOL0     H29575   3.632   8.413   6.518  0.3556  0.5150 -0.1389
  939MOL0     H29576   3.628   8.465   6.224 -1.6040 -1.6129 -0.9086
  939MOL0     H29577   3.638   8.310   6.312 -1.1343  0.9899 -0.4134
  939MOL0     H29578   4.029   8.459   6.388  0.5583 -0.7912  0.3702
  939MOL0     H29579   3.367   8.682   6.809  0.4393 -2.7878 -2.6776
  939MOL0     H29580   3.181   8.769   7.076 -1.3261 -0.9566 -1.0671
  939MOL0     H29581   3.358   8.783   7.029  0.8206  2.2929 -0.4653
  939MOL0     H29582   3.252   8.922   7.026  1.6135 -0.6722  3.2129
  940MOL0     O29583   4.063  10.635   7.825 -0.5728  0.1001 -0.8917
  940MOL0     C29584   4.030  10.707   7.916 -0.5287 -0.4036  0.2198
  940MOL0     O29585   3.915  10.783   7.915 -0.4202  1.2613 -0.7023
  940MOL0     C29586   3.848  10.795   7.802 -0.6606  1.1246 -0.5159
  940MOL0     C29587   3.732  10.729   7.778  0.1289  0.2024 -0.1092
  940MOL0     C29588   3.657  10.744   7.659  0.0825 -0.5845 -0.6464
  940MOL0     C29589   3.721  10.825   7.565  0.3044 -0.0468 -0.0273
  940MOL0     O29590   3.659  10.854   7.452  0.5433 -1.0431  0.3618
  940MOL0     C29591   3.607  10.761   7.363  0.0126 -0.0132  0.8897
  940MOL0     C29592   3.513  10.830   7.263 -0.7632  0.2485 -0.2950
  940MOL0     C29593   3.579  10.863   7.127  0.1323 -0.1320 -0.7189
  940MOL0     C29594   3.479  10.944   7.043 -0.4023  0.8005  0.2529
  940MOL0     C29595   3.514  10.960   6.900  0.4643 -0.2940 -0.0189
  940MOL0     C29596   3.586  11.088   6.852  0.2471 -0.0781 -0.0197
  940MOL0     C29597   3.656  11.077   6.715 -0.3061 -0.4023 -0.0100
  940MOL0     C29598   3.543  11.057   6.612  0.1845 -0.4820 -0.2432
  940MOL0     N29599   3.558  10.940   6.536 -1.2425 -0.1974 -0.2343
  940MOL0     C29600   3.655  10.919   6.438  0.0961 -0.6239  0.5111
  940MOL0     C29601   3.612  10.816   6.370 -0.1329 -0.2351  1.1970
  940MOL0     C29602   3.683  10.754   6.254 -0.0708  0.6418 -0.6325
  940MOL0     C29603   3.658  10.831   6.120  0.9178  0.3958  1.3140
  940MOL0     C29604   3.766  10.935   6.088  0.0578  0.1999  1.1700
  940MOL0     C29605   3.739  10.985   5.947  0.3778  0.2277 -0.0506
  940MOL0     O29606   3.859  10.986   5.866 -0.3873  0.0458 -0.4396
  940MOL0     C29607   3.861  11.016   5.733  0.3241 -1.4608 -0.0765
  940MOL0     C29608   3.948  11.111   5.698  0.8896 -0.2236 -0.0623
  940MOL0     C29609   3.965  11.150   5.561  0.7158 -1.3839 -1.0342
  940MOL0     C29610   4.077  11.243   5.527 -0.6692 -0.2240  0.2626
  940MOL0     C29611   3.898  11.081   5.458 -0.3774 -1.1113 -1.1521
  940MOL0     C29612   3.879  11.134   5.321  0.3596  0.3723 -0.3461
  940MOL0     O29613   3.802  11.051   5.250  0.3013  0.0791 -0.4157
  940MOL0     C29614   3.777  11.068   5.114 -0.0465 -0.0755  0.0716
  940MOL0     C29615   3.664  10.993   5.068  0.2419 -0.2478 -0.4855
  940MOL0     C29616   3.624  10.993   4.929  0.1689 -0.2400 -0.0075
  940MOL0     C29617   3.704  11.060   4.829  0.0406 -0.1210 -0.0091
  940MOL0     O29618   3.672  11.057   4.696 -0.4503 -0.0813 -0.6314
  940MOL0     C29619   3.763  11.125   4.602  0.2644 -0.3701 -0.1778
  940MOL0     C29620   3.750  11.081   4.453  0.4191 -1.5477 -0.4007
  940MOL0     C29621   3.743  10.928   4.427 -0.3528  0.1835 -1.0836
  940MOL0     C29622   3.644  10.914   4.316  0.2920  0.2624  0.6719
  940MOL0     C29623   3.637  10.769   4.259 -0.5211 -0.4031 -0.2956
  940MOL0     C29624   3.537  10.745   4.151  0.2197 -0.0368  0.3311
  940MOL0     C29625   3.515  10.605   4.100  0.6172  0.1238 -0.3061
  940MOL0     C29626   3.444  10.601   3.965  0.7810 -0.1809  0.5460
  940MOL0    Cl29627   3.448  10.435   3.894  0.2062 -0.0889  0.1366
  940MOL0     C29628   3.819  11.132   4.876 -0.5616  0.1865  0.1100
  940MOL0     C29629   3.860  11.130   5.014  0.7257 -0.3690 -0.2360
  940MOL0     O29630   3.907  11.251   5.295  0.0366  0.2041 -0.7644
  940MOL0     C29631   3.824  10.967   5.505 -0.2866 -0.8192  0.3383
  940MOL0     C29632   3.798  10.942   5.637 -1.3767 -0.6024  0.7974
  940MOL0     N29633   3.491  10.778   6.423 -0.0981  0.2693 -0.1599
  940MOL0     N29634   3.462  10.851   6.517  0.4519 -0.3232  0.4679
  940MOL0     C29635   3.838  10.904   7.591  0.8496  0.3155 -0.2044
  940MOL0     C29636   3.906  10.868   7.701 -0.5474 -0.1845 -0.1112
  940MOL0     C29637   4.132  10.716   8.021  0.4028  0.8354 -0.0392
  940MOL0     C29638   4.175  10.837   8.063  0.7311 -0.1931  0.7781
  940MOL0     C29639   4.254  10.856   8.171 -0.8978  0.7860 -0.8985
  940MOL0     C29640   4.318  10.747   8.235 -1.1698  0.5313 -0.4017
  940MOL0     O29641   4.385  10.784   8.359  0.8918  1.6373 -0.1194
  940MOL0     C29642   4.476  10.695   8.412 -0.8327 -0.2661  0.9537
  940MOL0     C29643   4.606  10.703   8.334  0.8933  0.3842 -0.8002
  940MOL0     C29644   4.668  10.839   8.328 -0.2995  0.2178  0.7044
  940MOL0     C29645   4.817  10.825   8.296 -0.1391 -0.1173 -0.7550
  940MOL0     C29646   4.887  10.942   8.315  0.8446  0.2125 -0.0513
  940MOL0     C29647   4.926  11.054   8.321 -0.1235  0.0765 -0.4013
  940MOL0     C29648   4.285  10.613   8.193 -0.6813  0.3770  0.2414
  940MOL0     C29649   4.181  10.596   8.097  1.0261 -0.0875  0.6224
  940MOL0     C29650   4.126  10.447   8.082  0.3574  0.4683  0.0864
  940MOL0     H29651   3.691  10.663   7.854  1.8817 -3.1524 -1.8180
  940MOL0     H29652   3.558  10.701   7.647 -0.5851  0.2488  1.3930
  940MOL0     H29653   3.557  10.669   7.396 -0.6009 -0.4158 -1.0217
  940MOL0     H29654   3.695  10.722   7.311 -0.4208 -1.2616  1.0514
  940MOL0     H29655   3.424  10.767   7.253 -0.2612 -0.9895  2.3444
  940MOL0     H29656   3.488  10.928   7.305  3.7875  0.9652  1.3819
  940MOL0     H29657   3.672  10.919   7.140  0.3185 -0.0471 -2.2049
  940MOL0     H29658   3.612  10.782   7.061  1.6067  1.7829 -2.4973
  940MOL0     H29659   3.378  10.902   7.046 -0.0917  0.0042  3.2461
  940MOL0     H29660   3.475  11.044   7.087 -0.1876  0.3518  1.3221
  940MOL0     H29661   3.424  10.943   6.841  0.0099  0.9056  0.2948
  940MOL0     H29662   3.592  10.888   6.873  1.0120  0.1271  0.3981
  940MOL0     H29663   3.512  11.168   6.855 -1.1325 -1.0747 -2.9533
  940MOL0     H29664   3.660  11.112   6.929 -0.3364  0.4891  0.3713
  940MOL0     H29665   3.723  10.991   6.705 -1.5278 -1.3292 -0.6122
  940MOL0     H29666   3.715  11.168   6.709 -1.7868  0.7693  1.9048
  940MOL0     H29667   3.443  11.069   6.655  1.1231  2.8546  1.3204
  940MOL0     H29668   3.570  11.136   6.542  0.4282 -0.1662  0.2031
  940MOL0     H29669   3.741  10.983   6.423  0.6661 -0.6208  3.2592
  940MOL0     H29670   3.636  10.655   6.251 -0.1508  0.6949 -1.8827
  940MOL0     H29671   3.790  10.735   6.270  0.2307  2.7604  0.0824
  940MOL0     H29672   3.655  10.758   6.038  1.4329  1.9536 -0.1564
  940MOL0     H29673   3.564  10.885   6.125 -0.6677 -1.9901 -0.4090
  940MOL0     H29674   3.775  11.023   6.151  1.7630  0.8354  0.1155
  940MOL0     H29675   3.865  10.889   6.079  0.1394  0.7206 -1.3179
  940MOL0     H29676   3.655  10.932   5.902 -2.4844  2.7854  1.8720
  940MOL0     H29677   3.710  11.091   5.954  2.3348  0.8360 -0.4019
  940MOL0     H29678   4.005  11.146   5.784 -2.3032  0.8629  1.7820
  940MOL0     H29679   4.127  11.213   5.434 -2.2098  1.2727 -1.1037
  940MOL0     H29680   4.155  11.243   5.604 -0.3327 -0.6786 -0.0646
  940MOL0     H29681   4.042  11.344   5.507 -2.2915 -1.1124 -1.7599
  940MOL0     H29682   3.601  10.946   5.143  2.9098  0.6767  2.5570
  940MOL0     H29683   3.538  10.937   4.892  1.1029 -1.1868 -0.7915
  940MOL0     H29684   3.739  11.230   4.616 -1.2945 -0.5310 -1.3211
  940MOL0     H29685   3.865  11.098   4.631  0.3010  2.4793  2.9086
  940MOL0     H29686   3.650  11.112   4.421 -0.3542  1.2658  3.8135
  940MOL0     H29687   3.830  11.119   4.389  0.8667  0.4882  1.2614
  940MOL0     H29688   3.711  10.867   4.511  0.7188 -3.0173 -2.8225
  940MOL0     H29689   3.844  10.899   4.397 -0.0640  2.1662 -2.2353
  940MOL0     H29690   3.657  10.977   4.228  0.9881 -0.1391  0.4772
  940MOL0     H29691   3.550  10.944   4.363 -0.8688  3.7035 -3.2432
  940MOL0     H29692   3.735  10.734   4.225  0.0266 -0.5040  1.2960
  940MOL0     H29693   3.606  10.697   4.335 -3.1322 -0.0876 -0.9587
  940MOL0     H29694   3.575  10.804   4.068  1.8670 -3.2067 -1.3790
  940MOL0     H29695   3.440  10.792   4.169  1.0261  1.1919  1.6099
  940MOL0     H29696   3.442  10.553   4.162 -2.0087 -0.2401 -3.4394
  940MOL0     H29697   3.615  10.562   4.089  2.1582  3.6952 -1.8638
  940MOL0     H29698   3.472  10.677   3.892 -2.2543  0.7207  0.1818
  940MOL0     H29699   3.340  10.626   3.985 -0.8237  0.0615 -5.8920
  940MOL0     H29700   3.882  11.191   4.811 -1.9753  2.2136  0.4591
  940MOL0     H29701   3.953  11.180   5.039  0.1883  1.4934 -1.6915
  940MOL0     H29702   3.768  10.903   5.437  0.6466 -0.3869 -0.8686
  940MOL0     H29703   3.729  10.858   5.647  1.8562 -3.8026 -1.2091
  940MOL0     H29704   3.890  10.966   7.519  1.8155 -2.4032 -2.0047
  940MOL0     H29705   3.999  10.921   7.715  1.2768 -2.3223 -2.9916
  940MOL0     H29706   4.124  10.915   8.007 -0.7609 -0.8311  1.2043
  940MOL0     H29707   4.267  10.961   8.195 -0.0412  0.7371 -1.0990
  940MOL0     H29708   4.501  10.724   8.515 -0.4605  0.3520  0.6988
  940MOL0     H29709   4.436  10.593   8.410 -2.3215  0.3038  0.9204
  940MOL0     H29710   4.588  10.661   8.234 -2.3000 -0.3878 -0.0390
  940MOL0     H29711   4.681  10.635   8.375 -1.5461 -1.1449  1.5036
  940MOL0     H29712   4.619  10.903   8.254 -3.0579 -0.4782  1.8143
  940MOL0     H29713   4.657  10.880   8.428 -0.0567 -1.0059  1.2531
  940MOL0     H29714   4.833  10.775   8.199 -2.9602 -3.6844  0.4025
  940MOL0     H29715   4.857  10.753   8.367 -1.8861  1.6558  2.2265
  940MOL0     H29716   4.984  11.142   8.340  0.7669 -0.3530 -1.0717
  940MOL0     H29717   4.329  10.520   8.226  1.6298  0.2562 -2.7250
  940MOL0     H29718   4.113  10.395   8.177 -1.9499 -1.0008 -0.9596
  940MOL0     H29719   4.037  10.432   8.020  0.8721 -2.8427 -0.0270
  940MOL0     H29720   4.193  10.379   8.029  1.0269  0.0570  1.4182
  941MOL0     O29721   6.137   9.294   2.239 -0.4122 -0.4557  0.4436
  941MOL0     C29722   6.217   9.198   2.232 -0.8770 -0.0424  0.3846
  941MOL0     O29723   6.327   9.190   2.156 -0.5049 -0.1641  0.5452
  941MOL0     C29724   6.348   9.276   2.045 -0.0469 -1.3939  0.4953
  941MOL0     C29725   6.235   9.326   1.974 -0.3342 -0.2311  0.1560
  941MOL0     C29726   6.256   9.418   1.870 -0.5565 -0.4677  0.6153
  941MOL0     C29727   6.382   9.459   1.822  0.1446  0.2411 -0.4003
  941MOL0     O29728   6.377   9.548   1.719 -0.4825 -0.9565  0.1716
  941MOL0     C29729   6.508   9.578   1.661 -0.0643 -0.1847  0.3917
  941MOL0     C29730   6.544   9.475   1.556 -0.5151  0.0019  1.0266
  941MOL0     C29731   6.442   9.440   1.444  0.2372 -0.5614  0.4561
  941MOL0     C29732   6.511   9.434   1.311  0.0196 -1.0247  0.0653
  941MOL0     C29733   6.604   9.309   1.294 -1.0282  0.4986  1.1191
  941MOL0     C29734   6.530   9.185   1.225  0.1936 -0.3063  0.5079
  941MOL0     C29735   6.627   9.073   1.201  0.1984 -0.0039  0.4009
  941MOL0     C29736   6.560   8.944   1.178 -0.5538  0.1158  0.1242
  941MOL0     N29737   6.638   8.832   1.220 -0.4010 -0.1295 -0.2254
  941MOL0     C29738   6.597   8.723   1.282  0.0810  0.0807 -0.0783
  941MOL0     C29739   6.709   8.654   1.316 -0.5924  0.1261 -0.2848
  941MOL0     C29740   6.730   8.524   1.386  0.0644 -0.6674 -0.5216
  941MOL0     C29741   6.751   8.423   1.273 -0.4783  0.5368  0.1135
  941MOL0     C29742   6.819   8.307   1.340  0.0613 -0.3887  0.0484
  941MOL0     C29743   6.716   8.228   1.417  0.3419 -0.0842 -0.4705
  941MOL0     O29744   6.631   8.149   1.340 -0.4656 -0.6356  0.3282
  941MOL0     C29745   6.518   8.086   1.401  0.1722 -0.8314  1.2826
  941MOL0     C29746   6.447   8.136   1.512 -0.4981  1.0608 -0.1592
  941MOL0     C29747   6.336   8.075   1.556  0.5915  0.9512 -0.1531
  941MOL0     C29748   6.281   8.125   1.687  0.6203  0.0985  0.1908
  941MOL0     C29749   6.284   7.959   1.493  0.4980 -0.2283  0.0947
  941MOL0     C29750   6.162   7.893   1.542  0.4454  0.3871  0.1090
  941MOL0     O29751   6.074   7.856   1.447 -0.2019 -0.0186 -0.4019
  941MOL0     C29752   5.948   7.829   1.502 -0.2252 -0.2440 -0.1644
  941MOL0     C29753   5.915   7.749   1.615 -0.0858  0.4052 -0.0712
  941MOL0     C29754   5.785   7.717   1.640 -0.3576 -0.0217 -0.0597
  941MOL0     C29755   5.687   7.750   1.552  0.1939 -0.4612 -0.3892
  941MOL0     O29756   5.563   7.716   1.582 -0.4101  1.1544  0.1080
  941MOL0     C29757   5.519   7.593   1.523 -0.5397 -0.4949  0.2966
  941MOL0     C29758   5.364   7.586   1.538 -0.8908  0.1261 -0.5329
  941MOL0     C29759   5.325   7.610   1.681 -0.1992  0.3340  0.3788
  941MOL0     C29760   5.180   7.575   1.706 -0.2542 -0.3588  0.5522
  941MOL0     C29761   5.145   7.637   1.847  0.0429 -0.7484  0.5247
  941MOL0     C29762   5.003   7.616   1.899 -0.7301  0.3148  0.9890
  941MOL0     C29763   4.968   7.739   1.989  0.0722  0.5954 -0.5119
  941MOL0     C29764   5.022   7.727   2.129 -0.2778  0.1332 -0.1550
  941MOL0    Cl29765   4.960   7.861   2.225 -0.0223 -0.3435  0.2272
  941MOL0     C29766   5.717   7.846   1.457  0.6518  0.8154  0.7755
  941MOL0     C29767   5.842   7.882   1.426  0.2842 -0.0876 -0.5354
  941MOL0     O29768   6.166   7.864   1.661  0.4420 -0.4243 -0.2559
  941MOL0     C29769   6.354   7.916   1.380 -0.0154 -0.9444 -0.3494
  941MOL0     C29770   6.469   7.981   1.338  0.3528 -0.0391  0.3389
  941MOL0     N29771   6.816   8.725   1.264 -1.1634  0.4878  0.1582
  941MOL0     N29772   6.773   8.829   1.208 -0.1020  0.0461 -0.5198
  941MOL0     C29773   6.495   9.399   1.889  0.8256  0.4949  0.0985
  941MOL0     C29774   6.476   9.310   2.001  0.1107  0.2785 -0.3287
  941MOL0     C29775   6.194   9.069   2.287 -0.0143 -0.3170 -0.8672
  941MOL0     C29776   6.222   8.947   2.212  0.2577 -0.3332  0.6723
  941MOL0     C29777   6.184   8.827   2.276 -0.8215 -0.3891 -0.6331
  941MOL0     C29778   6.143   8.822   2.403 -0.1241 -0.9030 -1.4847
  941MOL0     O29779   6.115   8.700   2.459  1.4069  0.5159 -0.1073
  941MOL0     C29780   6.239   8.638   2.488 -0.4636 -0.2787 -0.1728
  941MOL0     C29781   6.255   8.489   2.474  0.1327  1.0871 -1.0061
  941MOL0     C29782   6.213   8.436   2.338  0.1454 -0.1431 -0.3596
  941MOL0     C29783   6.251   8.284   2.316 -0.1517 -0.6428 -0.5114
  941MOL0     C29784   6.253   8.258   2.165 -0.0195 -0.1545  0.7166
  941MOL0     C29785   6.243   8.227   2.042 -0.0742 -0.0601 -0.9387
  941MOL0     C29786   6.108   8.943   2.464 -0.3670  1.1063 -0.5548
  941MOL0     C29787   6.135   9.064   2.416  1.4550 -0.0096  0.2572
  941MOL0     C29788   6.098   9.186   2.492 -0.0309  0.2928  0.1542
  941MOL0     H29789   6.132   9.294   1.985 -0.7361  0.0504 -2.2305
  941MOL0     H29790   6.178   9.471   1.816  0.9541  3.1104  1.6386
  941MOL0     H29791   6.589   9.591   1.733  2.3171 -2.8539 -1.5994
  941MOL0     H29792   6.498   9.676   1.613 -1.4020  0.4441  1.8503
  941MOL0     H29793   6.629   9.524   1.507 -0.8094 -1.7384 -1.3680
  941MOL0     H29794   6.574   9.379   1.599  0.5717  0.7729  2.0659
  941MOL0     H29795   6.388   9.347   1.463  2.8491 -2.3999 -0.5467
  941MOL0     H29796   6.366   9.517   1.428 -1.7291 -2.2325  1.4312
  941MOL0     H29797   6.441   9.429   1.227  2.0557 -1.1927 -1.7241
  941MOL0     H29798   6.579   9.519   1.293 -3.5750  2.2985  0.8544
  941MOL0     H29799   6.637   9.294   1.397 -1.5428  2.8606  1.6698
  941MOL0     H29800   6.694   9.335   1.237  0.7097 -3.4984  1.6750
  941MOL0     H29801   6.449   9.159   1.293  1.1712  0.5087  2.0563
  941MOL0     H29802   6.482   9.205   1.129  1.4426 -2.6178 -0.6607
  941MOL0     H29803   6.689   9.060   1.290 -0.1870 -0.1654  0.6492
  941MOL0     H29804   6.688   9.086   1.111  1.0263  3.5700  1.3186
  941MOL0     H29805   6.471   8.946   1.242  1.6366 -0.6759  3.4867
  941MOL0     H29806   6.519   8.942   1.077 -1.9113  2.7891  0.5313
  941MOL0     H29807   6.496   8.706   1.317  1.2219  2.2023  5.3278
  941MOL0     H29808   6.645   8.506   1.453 -0.7848  1.6282 -0.8775
  941MOL0     H29809   6.810   8.531   1.460 -2.5781  0.1981  2.5114
  941MOL0     H29810   6.654   8.387   1.238 -1.2201  0.7997  1.8131
  941MOL0     H29811   6.807   8.453   1.184  0.4416 -2.7398 -0.5682
  941MOL0     H29812   6.872   8.248   1.265  1.3412  2.0246 -1.0605
  941MOL0     H29813   6.898   8.338   1.410 -0.7799 -0.3650  1.0130
  941MOL0     H29814   6.773   8.177   1.495 -0.9497  1.4161  1.5635
  941MOL0     H29815   6.650   8.301   1.465  0.4528  0.2108 -0.7664
  941MOL0     H29816   6.486   8.227   1.557  3.5225 -0.2037 -0.6685
  941MOL0     H29817   6.175   8.152   1.694  0.7961  0.3161  3.0711
  941MOL0     H29818   6.336   8.215   1.715 -0.9770  1.7663 -1.7211
  941MOL0     H29819   6.290   8.048   1.765 -2.6264 -2.1146 -1.3617
  941MOL0     H29820   5.984   7.687   1.671  0.9632 -0.1627 -1.8967
  941MOL0     H29821   5.765   7.639   1.713  3.6160  1.1696  2.5743
  941MOL0     H29822   5.538   7.587   1.415 -1.6067 -0.4173  0.0885
  941MOL0     H29823   5.564   7.503   1.567 -1.8051 -1.0053  0.5958
  941MOL0     H29824   5.324   7.675   1.488 -2.0314  1.5177  2.6307
  941MOL0     H29825   5.325   7.488   1.507  2.6477 -1.3033 -0.9199
  941MOL0     H29826   5.351   7.710   1.718 -0.5970 -0.2595  2.3756
  941MOL0     H29827   5.386   7.537   1.735  0.6627  0.1084 -0.8427
  941MOL0     H29828   5.174   7.466   1.706  2.4093 -0.5656  0.6465
  941MOL0     H29829   5.114   7.614   1.628  0.7229  2.4819  1.0265
  941MOL0     H29830   5.217   7.583   1.909 -0.0258 -3.9983 -1.9554
  941MOL0     H29831   5.163   7.744   1.858 -0.1056 -0.5820 -0.7403
  941MOL0     H29832   4.993   7.525   1.958 -1.1774 -0.2988 -0.0081
  941MOL0     H29833   4.932   7.605   1.817 -1.3838  1.2314  1.4223
  941MOL0     H29834   4.859   7.741   1.996 -0.0173 -0.8187 -1.1352
  941MOL0     H29835   4.999   7.834   1.946  0.1909  0.2114 -1.2945
  941MOL0     H29836   5.131   7.740   2.124  0.0080 -1.4825  1.0333
  941MOL0     H29837   5.002   7.633   2.181 -1.5504 -0.9954 -2.5577
  941MOL0     H29838   5.639   7.871   1.386  0.7299  0.7641  0.6719
  941MOL0     H29839   5.850   7.943   1.337 -1.8155 -2.0372 -2.1666
  941MOL0     H29840   6.332   7.822   1.331 -1.1535 -0.9043  0.0643
  941MOL0     H29841   6.533   7.935   1.263 -0.8512  1.8345 -2.0025
  941MOL0     H29842   6.599   9.415   1.864  1.1796  0.5153  1.5078
  941MOL0     H29843   6.561   9.266   2.052  0.5709  0.0554 -1.2679
  941MOL0     H29844   6.265   8.938   2.113 -2.0058 -2.0727 -0.2577
  941MOL0     H29845   6.190   8.733   2.222 -1.2687 -2.1542  2.1795
  941MOL0     H29846   6.324   8.680   2.434 -0.6876 -0.9738 -1.0856
  941MOL0     H29847   6.259   8.670   2.591  0.9085  1.3959 -0.9159
  941MOL0     H29848   6.195   8.443   2.554  0.1026  2.8155  0.0019
  941MOL0     H29849   6.359   8.455   2.486  0.1023  1.5264  0.9263
  941MOL0     H29850   6.105   8.448   2.333  0.2801  0.6808 -1.9000
  941MOL0     H29851   6.271   8.498   2.268  0.2265  1.1391  0.8001
  941MOL0     H29852   6.184   8.215   2.368 -2.0413  1.3096 -0.1532
  941MOL0     H29853   6.352   8.266   2.354  0.5433  2.3577 -0.6703
  941MOL0     H29854   6.252   8.195   1.940 -1.5909  1.1311 -1.4776
  941MOL0     H29855   6.050   8.942   2.556 -0.3557  3.1418 -0.4848
  941MOL0     H29856   6.158   9.277   2.485  0.7138 -0.2470 -0.6266
  941MOL0     H29857   5.996   9.216   2.466 -0.5154 -0.7686  0.7801
  941MOL0     H29858   6.093   9.168   2.600  2.0085 -1.7901 -0.0172
  942MOL0     O29859   8.957   0.582   1.869 -0.2037 -1.0255  0.0381
  942MOL0     C29860   8.916   0.682   1.823  0.1716 -0.6808 -0.0329
  942MOL0     O29861   8.850   0.695   1.706  0.2118 -0.6021  0.0803
  942MOL0     C29862   8.796   0.596   1.637 -1.0431 -0.3509  0.2839
  942MOL0     C29863   8.813   0.612   1.499  0.4962  0.0757 -0.5620
  942MOL0     C29864   8.786   0.509   1.411 -0.1919  1.4274 -0.7169
  942MOL0     C29865   8.728   0.391   1.457  0.8113 -0.0279 -0.6545
  942MOL0     O29866   8.695   0.288   1.374 -0.0499  0.1466 -0.2437
  942MOL0     C29867   8.814   0.228   1.318 -0.4359  0.7018  0.6695
  942MOL0     C29868   8.774   0.099   1.244  0.9852 -0.4714 -0.2150
  942MOL0     C29869   8.731  -0.022   1.327  0.2845  0.0322  0.1288
  942MOL0     C29870   8.848  -0.107   1.366 -1.0344 -0.3709  0.2141
  942MOL0     C29871   8.810  -0.225   1.447  0.6435 -0.2716 -0.4499
  942MOL0     C29872   8.744  -0.182   1.579 -0.2919 -0.2734  0.6569
  942MOL0     C29873   8.741  -0.290   1.691 -0.6456 -0.8386 -0.2743
  942MOL0     C29874   8.812  -0.237   1.820 -0.4806  0.6797  0.6383
  942MOL0     N29875   8.791  -0.317   1.938  0.3893  0.4025  0.2927
  942MOL0     C29876   8.777  -0.450   1.933 -0.2185  0.1591 -0.6636
  942MOL0     C29877   8.753  -0.488   2.063 -1.2557 -0.0118  1.0605
  942MOL0     C29878   8.732  -0.620   2.122 -0.0130 -0.5944 -0.1818
  942MOL0     C29879   8.602  -0.654   2.197  0.3510 -0.4466  0.3085
  942MOL0     C29880   8.483  -0.638   2.096  0.0561 -0.6258  0.1634
  942MOL0     C29881   8.356  -0.702   2.163  0.0118  0.1202  0.8331
  942MOL0     O29882   8.360  -0.845   2.178  0.1688  0.3149  0.3529
  942MOL0     C29883   8.264  -0.899   2.262  0.8117 -0.4128 -0.6754
  942MOL0     C29884   8.211  -1.035   2.239  0.0829  0.1348  0.4353
  942MOL0     C29885   8.112  -1.096   2.319  0.1116  0.3324  0.5504
  942MOL0     C29886   8.082  -1.238   2.301  0.4871  0.1862  0.9251
  942MOL0     C29887   8.059  -1.011   2.427 -0.9053  0.7361 -0.6770
  942MOL0     C29888   7.947  -1.070   2.512 -0.2688 -0.1647  0.4034
  942MOL0     O29889   7.854  -0.980   2.570 -0.9343 -0.1286  0.5524
  942MOL0     C29890   7.742  -1.035   2.632 -0.5787 -0.2433  0.5702
  942MOL0     C29891   7.759  -1.089   2.763 -0.0192  0.5790 -0.4651
  942MOL0     C29892   7.647  -1.120   2.842  0.3077 -0.6697  0.6830
  942MOL0     C29893   7.515  -1.107   2.792  0.3253  0.2187  0.7807
  942MOL0     O29894   7.401  -1.129   2.875  0.4933 -0.7445 -0.0245
  942MOL0     C29895   7.337  -1.259   2.862 -0.1303  0.7350 -0.3018
  942MOL0     C29896   7.194  -1.259   2.916 -0.6244 -0.2793  0.4870
  942MOL0     C29897   7.132  -1.392   2.898  0.7424  0.3295 -0.0788
  942MOL0     C29898   6.999  -1.390   2.954  0.3113 -0.1146 -0.7538
  942MOL0     C29899   6.896  -1.492   2.896  0.9573 -0.0359  0.5030
  942MOL0     C29900   6.768  -1.508   2.981 -0.5551 -1.1841 -0.4229
  942MOL0     C29901   6.701  -1.642   2.959 -0.3669  0.3490  0.0171
  942MOL0     C29902   6.568  -1.661   3.023  0.6060  0.0699  0.8477
  942MOL0    Cl29903   6.505  -1.821   2.985 -0.4073 -0.0170 -0.2724
  942MOL0     C29904   7.503  -1.068   2.650 -0.3461  0.1597 -0.6095
  942MOL0     C29905   7.617  -1.034   2.580 -0.0986 -0.1161  0.1091
  942MOL0     O29906   7.956  -1.191   2.536 -0.0556  0.0793 -0.1730
  942MOL0     C29907   8.113  -0.882   2.448  1.2438  1.0884  0.5987
  942MOL0     C29908   8.209  -0.831   2.372 -0.6575 -0.7920 -0.1234
  942MOL0     N29909   8.774  -0.376   2.148  0.9266 -0.6165  0.2060
  942MOL0     N29910   8.789  -0.271   2.066 -0.5682 -0.2792  0.8030
  942MOL0     C29911   8.710   0.378   1.600  0.6754  0.0649 -0.2746
  942MOL0     C29912   8.745   0.475   1.690 -0.5503  0.5025 -0.0410
  942MOL0     C29913   8.976   0.809   1.884 -0.3983 -0.2852  0.3568
  942MOL0     C29914   8.957   0.930   1.816  0.5907 -0.7775 -0.2884
  942MOL0     C29915   9.002   1.057   1.867 -0.6273  0.3220  1.0663
  942MOL0     C29916   9.068   1.060   1.984 -0.6624  0.2197 -0.3222
  942MOL0     O29917   9.123   1.173   2.032 -0.4422 -0.0668 -0.3302
  942MOL0     C29918   9.036   1.253   2.112 -0.3392 -0.4746 -1.1117
  942MOL0     C29919   8.978   1.374   2.037 -0.4446  0.2997  0.5738
  942MOL0     C29920   9.096   1.439   1.955  0.0004  1.0122  0.2282
  942MOL0     C29921   9.205   1.512   2.024  0.1265 -0.2972 -0.2354
  942MOL0     C29922   9.162   1.610   2.115  0.4117 -0.5231 -0.6365
  942MOL0     C29923   9.128   1.692   2.199  0.1131  0.7168 -0.6169
  942MOL0     C29924   9.076   0.936   2.062  0.2144 -0.0309  0.2344
  942MOL0     C29925   9.039   0.817   2.013  0.8872  0.5525  0.5852
  942MOL0     C29926   9.050   0.700   2.105 -0.2830  0.0648 -0.9390
  942MOL0     H29927   8.854   0.710   1.477 -1.5513  1.5307  1.6450
  942MOL0     H29928   8.810   0.522   1.306 -2.6249 -4.0811 -2.3514
  942MOL0     H29929   8.896   0.214   1.390 -1.7000  1.8346  2.4101
  942MOL0     H29930   8.847   0.301   1.243  0.0091  2.3881  2.4228
  942MOL0     H29931   8.680   0.124   1.194 -0.4602 -1.0694  2.0651
  942MOL0     H29932   8.849   0.076   1.168  0.9551 -0.6173 -0.2002
  942MOL0     H29933   8.677   0.011   1.415  0.8279  0.2040  0.4038
  942MOL0     H29934   8.658  -0.088   1.279 -0.5348  0.2814  1.0165
  942MOL0     H29935   8.914  -0.153   1.292 -0.2516  1.5570 -0.3390
  942MOL0     H29936   8.913  -0.040   1.423 -1.3615  1.7188 -1.7317
  942MOL0     H29937   8.900  -0.282   1.472  0.6859  0.3154  0.8248
  942MOL0     H29938   8.747  -0.286   1.382  4.6762 -3.6934 -1.6038
  942MOL0     H29939   8.797  -0.089   1.604 -1.8474  1.5922 -2.3587
  942MOL0     H29940   8.643  -0.150   1.554 -0.1507 -2.7005 -4.1372
  942MOL0     H29941   8.779  -0.389   1.662  2.0094  0.1426 -0.4078
  942MOL0     H29942   8.635  -0.304   1.714 -0.1373 -2.6527  1.2325
  942MOL0     H29943   8.917  -0.234   1.791 -1.1265 -0.4104 -2.0578
  942MOL0     H29944   8.783  -0.134   1.840  0.0014  1.0304 -0.4086
  942MOL0     H29945   8.772  -0.516   1.846 -0.3067 -1.6688  0.6668
  942MOL0     H29946   8.813  -0.620   2.195 -0.2798 -0.5639  0.1178
  942MOL0     H29947   8.751  -0.692   2.042  1.5977 -1.7497  1.1733
  942MOL0     H29948   8.612  -0.755   2.239 -0.5003  0.3872  2.6538
  942MOL0     H29949   8.583  -0.579   2.274  3.2262  0.4181  0.2786
  942MOL0     H29950   8.474  -0.529   2.092 -0.9634 -0.4646  3.4089
  942MOL0     H29951   8.502  -0.681   1.997 -1.8397 -1.4105  0.0939
  942MOL0     H29952   8.342  -0.653   2.260  1.9680 -0.1372  1.2906
  942MOL0     H29953   8.279  -0.671   2.091  0.1053 -1.8247 -0.1643
  942MOL0     H29954   8.262  -1.101   2.169 -3.2490  1.3095 -3.4466
  942MOL0     H29955   8.125  -1.264   2.204  0.5029  1.7472  0.4858
  942MOL0     H29956   7.975  -1.249   2.279  0.9201  1.6536 -2.7765
  942MOL0     H29957   8.122  -1.309   2.373 -0.2125 -0.8073  0.3693
  942MOL0     H29958   7.860  -1.110   2.798  0.2351  0.7735 -1.0718
  942MOL0     H29959   7.656  -1.156   2.944 -1.0604  0.7740  1.3399
  942MOL0     H29960   7.327  -1.287   2.757 -1.8147  0.0561  0.0174
  942MOL0     H29961   7.396  -1.331   2.919 -0.8876 -1.3098 -1.9943
  942MOL0     H29962   7.198  -1.235   3.023 -1.8557  1.6901  0.1491
  942MOL0     H29963   7.128  -1.184   2.872 -0.5239 -1.3594 -1.6492
  942MOL0     H29964   7.187  -1.479   2.936 -0.9455 -0.2597  1.1387
  942MOL0     H29965   7.127  -1.409   2.790  1.1295  2.9112 -0.5601
  942MOL0     H29966   6.955  -1.289   2.958 -0.2061 -0.3205 -1.1132
  942MOL0     H29967   7.009  -1.416   3.060 -2.0845 -0.3920 -0.5437
  942MOL0     H29968   6.874  -1.475   2.791 -0.8622 -0.9103  0.7038
  942MOL0     H29969   6.945  -1.589   2.895  2.3553  0.6241 -2.0532
  942MOL0     H29970   6.689  -1.432   2.976 -0.2247 -0.3140  3.8692
  942MOL0     H29971   6.805  -1.504   3.084  0.5225 -0.0578 -0.8254
  942MOL0     H29972   6.770  -1.719   2.995 -0.4997 -0.2764 -1.0174
  942MOL0     H29973   6.690  -1.657   2.851  0.9732  0.0837 -0.1011
  942MOL0     H29974   6.495  -1.593   2.977  1.0103  0.6343  1.0276
  942MOL0     H29975   6.573  -1.637   3.130  2.9129  1.8869  0.4205
  942MOL0     H29976   7.399  -1.061   2.618  0.5115  0.9403 -3.5954
  942MOL0     H29977   7.595  -0.981   2.488 -1.3480  0.7809  0.8773
  942MOL0     H29978   8.066  -0.833   2.532  0.1084 -0.9754  1.2336
  942MOL0     H29979   8.237  -0.730   2.400 -0.6572 -0.1404 -2.3400
  942MOL0     H29980   8.655   0.290   1.633  2.3571 -1.3788 -1.1477
  942MOL0     H29981   8.715   0.486   1.793 -0.0627  3.1317 -0.1194
  942MOL0     H29982   8.922   0.950   1.715  0.6167  1.2825  0.0503
  942MOL0     H29983   8.989   1.149   1.811 -2.4858 -2.7144 -4.1015
  942MOL0     H29984   8.961   1.186   2.157 -0.1245 -0.5956 -0.9302
  942MOL0     H29985   9.098   1.301   2.189 -2.1642  1.0878 -0.5426
  942MOL0     H29986   8.927   1.445   2.104 -0.2364 -1.3165  2.5343
  942MOL0     H29987   8.904   1.347   1.961  0.6866  0.6624 -0.6790
  942MOL0     H29988   9.140   1.364   1.890 -2.2063  0.7300 -1.0279
  942MOL0     H29989   9.051   1.509   1.884 -3.1658 -2.7522 -1.8517
  942MOL0     H29990   9.266   1.564   1.949 -0.6392 -2.2059 -2.2975
  942MOL0     H29991   9.263   1.435   2.076  1.0341  1.1101  0.8979
  942MOL0     H29992   9.108   1.779   2.257  2.2018  2.8955 -2.9011
  942MOL0     H29993   9.129   0.942   2.156  0.3467 -2.8045  0.4401
  942MOL0     H29994   9.101   0.618   2.054  1.6930  0.4361  0.3318
  942MOL0     H29995   9.099   0.723   2.200 -1.7801 -1.3931  0.2517
  942MOL0     H29996   8.951   0.660   2.127 -1.1009  1.8418 -1.1650
  943MOL0     O29997   5.086   4.950   6.498  0.0837  0.1421  0.2136
  943MOL0     C29998   5.136   4.933   6.606  0.0133 -0.0851  0.1672
  943MOL0     O29999   5.077   4.881   6.713  0.8472  0.0036 -0.8268
  943MOL0     C30000   4.942   4.839   6.703 -0.6787 -0.2584  0.6350
  943MOL0     C30001   4.848   4.878   6.796 -0.8673  0.0815  0.2247
  943MOL0     C30002   4.708   4.849   6.784  0.0558 -1.5668 -0.8514
  943MOL0     C30003   4.661   4.778   6.678 -0.1127  0.2209 -0.4553
  943MOL0     O30004   4.529   4.762   6.657  0.4666 -0.3240 -0.2851
  943MOL0     C30005   4.463   4.777   6.525 -0.5934  0.2611  1.7118
  943MOL0     C30006   4.329   4.845   6.533 -0.9782  0.8432 -0.2360
  943MOL0     C30007   4.313   4.975   6.616  0.7406  0.0839 -0.2848
  943MOL0     C30008   4.184   5.043   6.572 -0.7512 -0.0185 -0.4370
  943MOL0     C30009   4.198   5.125   6.448  0.9663 -0.4711  0.2361
  943MOL0     C30010   4.054   5.139   6.400 -0.4889  0.7940 -0.4088
  943MOL0     C30011   4.039   5.197   6.257 -0.7529 -1.1971 -0.2321
  943MOL0     C30012   4.018   5.106   6.139  0.3068  0.0124 -0.2278
  943MOL0     N30013   3.876   5.068   6.128 -0.1235 -0.2649 -0.0592
  943MOL0     C30014   3.829   4.940   6.169 -1.1581  0.2651  0.5221
  943MOL0     C30015   3.697   4.950   6.152 -0.3006 -0.6834 -0.0512
  943MOL0     C30016   3.596   4.854   6.204  0.4041 -0.2329 -0.7021
  943MOL0     C30017   3.605   4.709   6.145 -0.6525  0.1900  0.6697
  943MOL0     C30018   3.478   4.624   6.174  0.0837 -0.9722  0.7027
  943MOL0     C30019   3.497   4.478   6.123 -0.2161  0.2702 -0.3015
  943MOL0     O30020   3.482   4.475   5.983  0.6194  0.1898 -0.1340
  943MOL0     C30021   3.555   4.382   5.917  0.1619 -0.0736  0.1133
  943MOL0     C30022   3.557   4.246   5.962 -0.0299  0.0173  0.9850
  943MOL0     C30023   3.610   4.149   5.886  0.0963  0.1500  0.7593
  943MOL0     C30024   3.579   4.010   5.937 -0.0985 -1.0755 -0.1531
  943MOL0     C30025   3.685   4.184   5.760  0.5542 -0.2243 -1.1127
  943MOL0     C30026   3.765   4.085   5.679 -0.3435  0.3038 -0.3215
  943MOL0     O30027   3.814   4.135   5.561 -0.8504 -0.3271  0.3386
  943MOL0     C30028   3.806   4.068   5.443 -0.6458  0.1482 -0.4699
  943MOL0     C30029   3.905   4.107   5.344  0.3217 -0.3389  0.0687
  943MOL0     C30030   3.916   4.039   5.221  0.8678  0.6571  0.3960
  943MOL0     C30031   3.821   3.942   5.187  0.8162 -0.0184 -0.0628
  943MOL0     O30032   3.824   3.871   5.067  0.0727  0.5209  0.3913
  943MOL0     C30033   3.926   3.771   5.064 -0.4721 -0.3255  0.3198
  943MOL0     C30034   3.989   3.781   4.926 -0.1465  0.1128  0.7730
  943MOL0     C30035   4.130   3.713   4.930  0.3060  0.5854  0.3705
  943MOL0     C30036   4.194   3.738   4.792 -0.0365 -0.0783 -0.3108
  943MOL0     C30037   4.325   3.655   4.774  0.0494  0.3990  0.3247
  943MOL0     C30038   4.390   3.676   4.630  0.4061 -0.2016 -0.5588
  943MOL0     C30039   4.514   3.600   4.598 -0.4268  0.4097  0.1837
  943MOL0     C30040   4.536   3.596   4.448 -0.0234  0.4383  0.0435
  943MOL0    Cl30041   4.444   3.450   4.397 -0.2105 -0.3022  0.1646
  943MOL0     C30042   3.726   3.903   5.286  0.3364  0.3562 -0.3502
  943MOL0     C30043   3.726   3.960   5.417 -1.1289 -0.2819 -0.0825
  943MOL0     O30044   3.795   3.977   5.730 -0.3659  0.5375 -0.0508
  943MOL0     C30045   3.689   4.316   5.722 -0.5022 -0.2606 -0.7015
  943MOL0     C30046   3.618   4.410   5.797  0.2272 -0.7593 -0.2931
  943MOL0     N30047   3.661   5.076   6.097  0.3042  1.2169  0.7071
  943MOL0     N30048   3.767   5.140   6.084 -0.0896 -0.6001  0.2012
  943MOL0     C30049   4.758   4.728   6.588 -0.4616  0.1303 -0.0926
  943MOL0     C30050   4.894   4.758   6.601 -0.2517  0.7604 -0.9188
  943MOL0     C30051   5.273   4.973   6.619  0.4248  0.3469  0.7353
  943MOL0     C30052   5.358   4.888   6.691  0.0571 -0.3494 -0.7191
  943MOL0     C30053   5.488   4.915   6.716 -0.6031 -0.1591 -0.3554
  943MOL0     C30054   5.550   5.034   6.680 -0.4478 -0.0579 -0.9038
  943MOL0     O30055   5.686   5.051   6.717 -1.2289  0.0247  0.5745
  943MOL0     C30056   5.739   5.180   6.699  0.7944 -0.1277 -1.1590
  943MOL0     C30057   5.882   5.182   6.761 -0.8013 -0.5538  0.2121
  943MOL0     C30058   5.871   5.179   6.914  0.0856 -1.1772 -0.2203
  943MOL0     C30059   5.829   5.056   6.992  0.3961  0.2835 -0.7151
  943MOL0     C30060   5.873   4.926   6.941 -0.5893  0.4293  0.1979
  943MOL0     C30061   5.915   4.813   6.907  0.4521 -0.2000  0.3267
  943MOL0     C30062   5.467   5.124   6.608 -0.5321  0.3921  0.0788
  943MOL0     C30063   5.331   5.097   6.575  1.0855  0.5766  0.7588
  943MOL0     C30064   5.244   5.209   6.512 -0.8404  0.7199 -0.3161
  943MOL0     H30065   4.879   4.941   6.879  0.2996 -1.0088  0.6343
  943MOL0     H30066   4.629   4.883   6.851  0.4147 -0.8188 -0.8031
  943MOL0     H30067   4.436   4.688   6.467 -0.9333  2.6386 -2.1286
  943MOL0     H30068   4.526   4.840   6.462 -0.2596 -0.3219  1.4646
  943MOL0     H30069   4.303   4.861   6.428 -0.7362 -3.9422 -1.2313
  943MOL0     H30070   4.260   4.767   6.564  0.3005 -0.0554  0.4782
  943MOL0     H30071   4.315   4.950   6.722  3.4761 -2.5763 -0.8293
  943MOL0     H30072   4.395   5.047   6.602 -0.6787  2.1331  1.3017
  943MOL0     H30073   4.104   4.968   6.569  1.4617 -2.6764  1.5127
  943MOL0     H30074   4.160   5.112   6.653 -3.6739  0.4187 -1.5641
  943MOL0     H30075   4.253   5.066   6.374 -0.1251 -1.2058 -0.0037
  943MOL0     H30076   4.246   5.222   6.463 -0.6177  0.5997 -1.2184
  943MOL0     H30077   4.021   5.035   6.412  0.3841  0.7248  1.8797
  943MOL0     H30078   4.004   5.209   6.467  1.4797  3.0826 -1.1762
  943MOL0     H30079   4.123   5.266   6.246 -0.2034 -1.3226  2.3753
  943MOL0     H30080   3.950   5.259   6.264 -1.5526 -2.4680  2.0037
  943MOL0     H30081   4.051   5.140   6.040 -0.5291  1.8072  0.0673
  943MOL0     H30082   4.078   5.020   6.167  0.2662 -0.0513 -0.3336
  943MOL0     H30083   3.881   4.857   6.217 -0.2510  0.9472  0.7529
  943MOL0     H30084   3.501   4.894   6.167  0.6516 -0.2954 -1.4390
  943MOL0     H30085   3.592   4.851   6.313  0.8473 -2.2717 -0.6984
  943MOL0     H30086   3.625   4.723   6.038 -0.8561 -2.3915  0.2319
  943MOL0     H30087   3.695   4.652   6.170  1.4371  3.1060  0.3191
  943MOL0     H30088   3.458   4.634   6.281 -2.8135  0.6291  0.1132
  943MOL0     H30089   3.399   4.682   6.126 -1.1494 -0.5159  3.1416
  943MOL0     H30090   3.593   4.440   6.160 -0.3246 -0.2492 -0.5327
  943MOL0     H30091   3.421   4.416   6.171  0.8028 -1.1421 -0.4340
  943MOL0     H30092   3.509   4.209   6.052  0.7476 -3.9314 -0.0100
  943MOL0     H30093   3.607   3.935   5.861  2.9654  1.7264 -2.0656
  943MOL0     H30094   3.471   4.008   5.956 -0.6514 -3.4545 -2.6829
  943MOL0     H30095   3.634   3.986   6.028 -1.9662 -0.1331  1.2897
  943MOL0     H30096   3.966   4.195   5.361 -2.0663  1.3944  0.0905
  943MOL0     H30097   3.979   4.072   5.139 -1.4726  1.7187 -1.0613
  943MOL0     H30098   3.996   3.798   5.144  0.2836  0.4824 -0.6010
  943MOL0     H30099   3.892   3.669   5.080  0.3043 -0.8751 -1.3169
  943MOL0     H30100   3.924   3.737   4.851 -0.0889  0.0025  0.7882
  943MOL0     H30101   3.998   3.889   4.910 -2.1383 -0.0685 -2.3924
  943MOL0     H30102   4.115   3.608   4.956  1.4424  0.2277 -0.3473
  943MOL0     H30103   4.197   3.757   5.004  1.7812 -1.5472  0.3901
  943MOL0     H30104   4.211   3.846   4.790 -0.0320 -0.0854 -1.2714
  943MOL0     H30105   4.128   3.709   4.710 -0.5076 -2.0542  0.6939
  943MOL0     H30106   4.399   3.679   4.852  0.2646  1.2083 -0.1209
  943MOL0     H30107   4.296   3.550   4.785  1.1477  0.0704  0.1806
  943MOL0     H30108   4.397   3.784   4.618 -2.8708  0.3060  0.9490
  943MOL0     H30109   4.303   3.637   4.576 -1.5091 -1.2482  2.9585
  943MOL0     H30110   4.502   3.507   4.654 -1.9543  0.8340  0.6090
  943MOL0     H30111   4.593   3.650   4.655 -0.8184  0.3285  0.8101
  943MOL0     H30112   4.642   3.589   4.424 -0.2872 -2.5123 -0.6507
  943MOL0     H30113   4.495   3.678   4.389 -2.2346 -0.8410 -0.3118
  943MOL0     H30114   3.652   3.829   5.259 -1.0743  1.2109  0.9833
  943MOL0     H30115   3.652   3.919   5.485 -1.9551  0.1196 -0.7190
  943MOL0     H30116   3.739   4.342   5.630  1.2047  1.9784  0.7299
  943MOL0     H30117   3.609   4.513   5.764 -0.2964  0.2173  2.6085
  943MOL0     H30118   4.735   4.671   6.498  2.3373  0.6497 -1.2488
  943MOL0     H30119   4.962   4.730   6.521  0.0402  0.0814 -0.4413
  943MOL0     H30120   5.321   4.790   6.721  0.0008 -0.7478 -2.0308
  943MOL0     H30121   5.548   4.835   6.760  0.4400 -0.3859 -2.0693
  943MOL0     H30122   5.759   5.216   6.598  0.8649 -0.7801 -1.3870
  943MOL0     H30123   5.668   5.243   6.753  3.1834  2.0343 -0.2862
  943MOL0     H30124   5.934   5.269   6.721  0.0666 -1.7135 -1.2771
  943MOL0     H30125   5.939   5.098   6.720  0.8303  1.3552 -1.7062
  943MOL0     H30126   5.975   5.189   6.945 -0.1764 -2.9636  1.4592
  943MOL0     H30127   5.817   5.268   6.947  0.2284 -0.6772 -1.2938
  943MOL0     H30128   5.721   5.046   7.004  0.7132 -0.9099  2.0000
  943MOL0     H30129   5.864   5.079   7.093  1.0774 -0.1703 -0.8351
  943MOL0     H30130   5.959   4.722   6.870  1.7592  1.2906 -2.0533
  943MOL0     H30131   5.501   5.222   6.576  0.5270 -0.3967 -1.3539
  943MOL0     H30132   5.139   5.187   6.537  0.5586 -4.3496  2.6185
  943MOL0     H30133   5.266   5.311   6.543 -1.4344  0.5217  0.8223
  943MOL0     H30134   5.252   5.205   6.403 -1.5836  2.3316 -0.4575
  944MOL0     O30135   5.300   4.081  11.420  0.1062  0.4986 -0.2827
  944MOL0     C30136   5.325   4.016  11.521 -1.0555 -0.4877 -0.3491
  944MOL0     O30137   5.365   4.069  11.639  0.3583  0.2680 -0.5705
  944MOL0     C30138   5.390   4.196  11.668  0.4294 -1.1558 -0.1634
  944MOL0     C30139   5.394   4.311  11.578  0.0419 -0.0776  0.0614
  944MOL0     C30140   5.443   4.444  11.619  0.6424  1.2094  0.8091
  944MOL0     C30141   5.480   4.452  11.760  0.2930 -0.6762  0.7559
  944MOL0     O30142   5.525   4.568  11.806 -0.0558  0.8089 -0.0153
  944MOL0     C30143   5.437   4.680  11.785 -0.1442  0.3285 -0.6449
  944MOL0     C30144   5.295   4.660  11.841 -0.7514 -0.5062 -0.8399
  944MOL0     C30145   5.296   4.638  11.996 -0.5729  0.5417  0.2306
  944MOL0     C30146   5.153   4.631  12.052 -1.0540 -0.0673 -0.8046
  944MOL0     C30147   5.091   4.495  12.029 -0.1481 -0.4002 -0.1149
  944MOL0     C30148   5.116   4.391  12.136  0.0843 -0.6042 -0.1676
  944MOL0     C30149   5.235   4.300  12.118  0.4955 -0.3109  0.5389
  944MOL0     C30150   5.204   4.148  12.133  0.0914 -0.3721  0.7131
  944MOL0     N30151   5.103   4.110  12.030 -0.5610  0.8503 -0.0836
  944MOL0     C30152   5.131   4.104  11.895  0.4092 -0.9359 -0.4459
  944MOL0     C30153   5.010   4.077  11.843  0.4017  0.1266  0.0281
  944MOL0     C30154   4.988   4.050  11.704  0.3059 -0.0682  0.0988
  944MOL0     C30155   4.946   4.180  11.641  0.4186  0.5096  0.8973
  944MOL0     C30156   5.057   4.291  11.626 -0.9086 -0.4757 -0.1760
  944MOL0     C30157   4.988   4.420  11.577  0.1552 -0.0855  0.1853
  944MOL0     O30158   5.088   4.513  11.533  0.1336 -0.4757  0.4073
  944MOL0     C30159   5.062   4.650  11.539 -0.3162 -0.3228  0.2266
  944MOL0     C30160   5.153   4.744  11.488 -0.4702  0.5065  0.3939
  944MOL0     C30161   5.130   4.876  11.477 -0.1182  0.2776  0.2369
  944MOL0     C30162   5.226   4.960  11.395  0.0027  0.3216  0.0876
  944MOL0     C30163   5.016   4.926  11.544 -0.0646  0.0548  1.0779
  944MOL0     C30164   4.994   5.079  11.533  0.5033  0.8834  0.1412
  944MOL0     O30165   4.958   5.130  11.658  0.0815 -0.1132 -0.0659
  944MOL0     C30166   4.905   5.258  11.657  0.2252  0.0915  0.0121
  944MOL0     C30167   4.924   5.369  11.567  0.2751  0.4666 -1.0202
  944MOL0     C30168   4.856   5.493  11.586 -0.3113 -0.0450 -0.0934
  944MOL0     C30169   4.784   5.515  11.712 -0.0757  0.0923  0.2983
  944MOL0     O30170   4.711   5.624  11.733 -0.6923  0.1973 -0.4581
  944MOL0     C30171   4.696   5.733  11.639  0.5633  0.0453 -0.3760
  944MOL0     C30172   4.628   5.853  11.706  0.0774 -0.7953  0.6512
  944MOL0     C30173   4.704   5.914  11.815  0.5235  0.2554  0.1202
  944MOL0     C30174   4.639   6.037  11.877  0.1380  0.5019 -0.1743
  944MOL0     C30175   4.709   6.069  12.011 -0.4161  0.6020  0.5923
  944MOL0     C30176   4.663   6.204  12.065  0.8699  0.6761  0.0870
  944MOL0     C30177   4.723   6.239  12.197  0.7289  0.2373  1.5512
  944MOL0     C30178   4.668   6.368  12.256  0.1590 -0.1475  0.0231
  944MOL0    Cl30179   4.655   6.496  12.126  0.2632  0.2417  0.1243
  944MOL0     C30180   4.769   5.405  11.802  0.8005 -0.5411  0.9280
  944MOL0     C30181   4.832   5.281  11.777  0.2940  0.1946  0.0239
  944MOL0     O30182   4.995   5.136  11.426  0.4665 -0.8373  0.0117
  944MOL0     C30183   4.933   4.848  11.609 -0.1343  0.4151 -0.2246
  944MOL0     C30184   4.953   4.710  11.598 -0.1505 -0.0780  0.4184
  944MOL0     N30185   4.916   4.060  11.941  0.3432 -0.6027 -0.0422
  944MOL0     N30186   4.970   4.076  12.055 -0.4155  0.4485  0.1001
  944MOL0     C30187   5.490   4.341  11.834 -0.7149  0.0674 -0.0219
  944MOL0     C30188   5.446   4.218  11.795 -0.5878  0.0120  0.6400
  944MOL0     C30189   5.319   3.871  11.500 -0.9178 -0.1350  1.2229
  944MOL0     C30190   5.268   3.817  11.374 -0.9639  0.3692  0.3170
  944MOL0     C30191   5.266   3.680  11.344  0.2448 -0.5977  0.4782
  944MOL0     C30192   5.300   3.587  11.445 -0.0846  0.5156 -0.0541
  944MOL0     O30193   5.260   3.454  11.438  0.1943 -0.1621 -0.2741
  944MOL0     C30194   5.242   3.381  11.318 -0.4780 -0.0589  0.9361
  944MOL0     C30195   5.094   3.383  11.301  0.5887 -0.1556 -0.1031
  944MOL0     C30196   5.046   3.264  11.209 -0.5627  0.9200  0.4455
  944MOL0     C30197   5.007   3.147  11.298  0.3990 -0.8151 -0.1388
  944MOL0     C30198   4.879   3.181  11.369 -0.3873 -1.0379  0.1210
  944MOL0     C30199   4.774   3.213  11.424 -1.0812 -0.1274 -0.5843
  944MOL0     C30200   5.346   3.642  11.568 -1.1560  0.6703 -0.2536
  944MOL0     C30201   5.375   3.776  11.589 -0.7286  0.1243  0.5278
  944MOL0     C30202   5.449   3.828  11.717  0.6276  0.6564 -0.1820
  944MOL0     H30203   5.366   4.289  11.476 -1.0777 -0.1336  0.3597
  944MOL0     H30204   5.450   4.522  11.545 -1.6307 -3.0245 -4.5641
  944MOL0     H30205   5.418   4.710  11.681 -2.9266 -1.0180 -0.6211
  944MOL0     H30206   5.493   4.759  11.835  0.6125 -0.3411 -0.4184
  944MOL0     H30207   5.242   4.755  11.826 -0.8458 -0.3194  0.5307
  944MOL0     H30208   5.239   4.578  11.797 -1.0135 -0.7871 -0.0025
  944MOL0     H30209   5.352   4.546  12.017  0.1808  0.3817 -2.0838
  944MOL0     H30210   5.360   4.716  12.037  1.9034 -1.3898  0.3156
  944MOL0     H30211   5.151   4.650  12.160  0.2762 -2.3367 -0.3076
  944MOL0     H30212   5.106   4.713  11.997  0.8433  0.5954 -1.5060
  944MOL0     H30213   5.116   4.450  11.933  1.8075  1.0786 -0.3683
  944MOL0     H30214   4.983   4.509  12.039 -0.2939 -0.8821 -0.9734
  944MOL0     H30215   5.112   4.437  12.235 -1.6427  0.4369 -0.6834
  944MOL0     H30216   5.029   4.326  12.133  0.7171 -1.4561 -2.1683
  944MOL0     H30217   5.322   4.325  12.179 -1.1306 -1.2939  3.4455
  944MOL0     H30218   5.272   4.322  12.017  4.1986  0.9996  2.0086
  944MOL0     H30219   5.291   4.084  12.113  1.0485  1.6671 -2.4301
  944MOL0     H30220   5.169   4.128  12.235  0.2007 -0.4101  0.7436
  944MOL0     H30221   5.228   4.118  11.848  0.1272 -0.8208 -0.9981
  944MOL0     H30222   4.907   3.980  11.680  0.9529 -0.1884 -1.8282
  944MOL0     H30223   5.071   4.011  11.645 -0.0707  1.5115 -1.5420
  944MOL0     H30224   4.913   4.163  11.538  0.7116 -2.6824  1.2489
  944MOL0     H30225   4.863   4.222  11.699  1.1109  0.1170  2.1916
  944MOL0     H30226   5.088   4.317  11.727 -3.7620  1.2788  0.3648
  944MOL0     H30227   5.136   4.260  11.557 -2.3024 -1.0209 -1.6204
  944MOL0     H30228   4.902   4.393  11.515  1.8427 -3.2403 -1.0313
  944MOL0     H30229   4.944   4.464  11.667 -1.6533 -0.9229 -0.2458
  944MOL0     H30230   5.239   4.697  11.442 -0.5654  2.4016 -1.9161
  944MOL0     H30231   5.327   4.923  11.415 -0.4501  0.1325  2.2741
  944MOL0     H30232   5.234   5.067  11.417  1.9845  0.4412 -1.0228
  944MOL0     H30233   5.210   4.959  11.287  0.4090 -0.9455  0.0236
  944MOL0     H30234   4.978   5.364  11.474 -2.0822 -1.7332 -2.4038
  944MOL0     H30235   4.879   5.572  11.515 -0.1400  0.0863  0.1093
  944MOL0     H30236   4.791   5.769  11.598  0.0099  2.0468  0.0107
  944MOL0     H30237   4.635   5.698  11.555 -4.5826  0.8663  2.6389
  944MOL0     H30238   4.617   5.929  11.628 -1.8826 -0.6266  1.0275
  944MOL0     H30239   4.523   5.846  11.738 -1.6023  3.5588 -2.8504
  944MOL0     H30240   4.808   5.931  11.789  0.4701 -1.7648 -1.6609
  944MOL0     H30241   4.705   5.834  11.889  0.8147 -0.3710 -0.5554
  944MOL0     H30242   4.532   6.016  11.883  0.2211  0.2812  0.6596
  944MOL0     H30243   4.647   6.124  11.811  0.9771  1.2015  0.8113
  944MOL0     H30244   4.689   5.985  12.079  1.4196  0.1190  0.5934
  944MOL0     H30245   4.817   6.074  11.994 -0.4532  1.9693  0.6409
  944MOL0     H30246   4.554   6.211  12.063  0.5525 -2.0748  1.6843
  944MOL0     H30247   4.717   6.277  12.004  1.6520 -0.3953 -0.5331
  944MOL0     H30248   4.832   6.238  12.193  0.7360  0.9479 -2.1000
  944MOL0     H30249   4.702   6.171  12.281  0.9156  3.0783  4.0626
  944MOL0     H30250   4.721   6.412  12.341  0.5922 -1.0608  0.2357
  944MOL0     H30251   4.567   6.348  12.293  0.0178  1.6004  0.6881
  944MOL0     H30252   4.709   5.416  11.892  0.8401 -0.6228  0.9638
  944MOL0     H30253   4.811   5.191  11.834 -1.5202  0.7027  0.2151
  944MOL0     H30254   4.842   4.880  11.659  0.0118 -0.0705  0.3717
  944MOL0     H30255   4.868   4.660  11.642 -0.2627  0.7784  1.2094
  944MOL0     H30256   5.529   4.351  11.935 -2.2817 -2.6293  0.9557
  944MOL0     H30257   5.452   4.138  11.868  3.2408  0.0619  0.5575
  944MOL0     H30258   5.241   3.876  11.288  2.7980 -1.2115 -2.2232
  944MOL0     H30259   5.220   3.647  11.252 -2.3759 -3.0461  2.4588
  944MOL0     H30260   5.302   3.407  11.231  1.6354  0.2077  2.4117
  944MOL0     H30261   5.281   3.283  11.346  0.9780  0.6645  1.5422
  944MOL0     H30262   5.068   3.475  11.248  1.3449 -2.2002 -4.5001
  944MOL0     H30263   5.044   3.382  11.398 -4.1251  2.1477 -2.1508
  944MOL0     H30264   4.969   3.298  11.139  2.8277  0.7812 -3.8153
  944MOL0     H30265   5.124   3.228  11.141  0.0277  0.1338  1.5120
  944MOL0     H30266   5.088   3.128  11.369  2.2433 -1.3379 -2.2486
  944MOL0     H30267   4.994   3.060  11.232 -0.7038 -0.6627 -0.1435
  944MOL0     H30268   4.677   3.243  11.459 -0.9665  0.0562 -0.4256
  944MOL0     H30269   5.375   3.560  11.634  0.8932  0.5174 -1.2567
  944MOL0     H30270   5.527   3.903  11.699  1.6931 -0.7248 -1.7245
  944MOL0     H30271   5.383   3.882  11.784  0.5766 -0.3722  0.6197
  944MOL0     H30272   5.482   3.746  11.782 -3.8516  1.9176  4.3063
  945MOL0     O30273   9.022  11.458   6.002 -0.9237  0.2240 -0.0647
  945MOL0     C30274   9.007  11.338   5.971 -0.4871 -0.3107 -1.1395
  945MOL0     O30275   8.952  11.291   5.857 -1.0006  0.5942  0.2916
  945MOL0     C30276   8.903  11.375   5.765 -0.3229  0.0662  0.7965
  945MOL0     C30277   8.931  11.346   5.629 -0.3942  0.3812  0.9767
  945MOL0     C30278   8.902  11.428   5.528  0.0824 -0.5044 -0.2991
  945MOL0     C30279   8.835  11.551   5.556 -0.0074  0.0473 -0.6111
  945MOL0     O30280   8.810  11.651   5.461 -0.4240 -0.1176 -0.0521
  945MOL0     C30281   8.831  11.618   5.313 -0.1549  0.2035 -0.7100
  945MOL0     C30282   8.716  11.542   5.256  0.0577  0.0113  0.4637
  945MOL0     C30283   8.580  11.625   5.251  0.0579  0.8853  0.0044
  945MOL0     C30284   8.479  11.558   5.160  1.4080 -0.0351  0.9772
  945MOL0     C30285   8.356  11.649   5.130 -0.6257  0.8757  0.1997
  945MOL0     C30286   8.251  11.650   5.245 -0.4455  0.1804 -1.1433
  945MOL0     C30287   8.148  11.538   5.243  0.2357  0.8179 -0.1984
  945MOL0     C30288   8.121  11.479   5.380  0.2748  1.0982 -0.1276
  945MOL0     N30289   8.079  11.576   5.483 -0.1732 -0.8718  0.6574
  945MOL0     C30290   8.082  11.550   5.618 -0.7752 -0.7225  0.8904
  945MOL0     C30291   8.033  11.669   5.677 -0.1009  0.3177  0.4921
  945MOL0     C30292   7.998  11.701   5.825  1.2942  0.1256 -0.0672
  945MOL0     C30293   7.857  11.763   5.831  0.2476  1.4127 -0.4832
  945MOL0     C30294   7.743  11.696   5.750  0.4236  0.3632 -1.4675
  945MOL0     C30295   7.738  11.547   5.778 -0.1420 -0.2369  0.8020
  945MOL0     O30296   7.664  11.530   5.908  0.2854  0.1651 -0.1866
  945MOL0     C30297   7.679  11.398   5.942 -0.5983 -0.3825 -0.2529
  945MOL0     C30298   7.748  11.353   6.061  0.6018 -0.6170 -0.2489
  945MOL0     C30299   7.764  11.224   6.107  0.5817  0.2389 -0.3808
  945MOL0     C30300   7.825  11.208   6.246 -0.0658  0.1808 -0.0587
  945MOL0     C30301   7.709  11.116   6.034 -0.4444  0.2540 -0.3517
  945MOL0     C30302   7.709  10.967   6.064  0.4836 -0.1654 -0.6762
  945MOL0     O30303   7.636  10.882   5.992  0.4004  0.7356  1.5772
  945MOL0     C30304   7.643  10.752   6.025 -0.0504 -0.1952 -0.8217
  945MOL0     C30305   7.659  10.649   5.926  0.2147  0.0218 -0.4201
  945MOL0     C30306   7.656  10.512   5.972 -0.2160  0.3345 -0.1822
  945MOL0     C30307   7.643  10.486   6.105 -0.5971 -0.3953  0.0658
  945MOL0     O30308   7.641  10.362   6.164 -0.6936 -0.5317 -0.8237
  945MOL0     C30309   7.609  10.248   6.088 -0.2732  0.5574 -0.9212
  945MOL0     C30310   7.608  10.119   6.175 -0.1707 -0.9294 -0.0239
  945MOL0     C30311   7.475  10.082   6.236  0.5817 -0.0581  0.0409
  945MOL0     C30312   7.425  10.188   6.330  0.0778  0.2404 -0.4255
  945MOL0     C30313   7.299  10.127   6.402 -0.0315 -1.2802 -0.6840
  945MOL0     C30314   7.234  10.245   6.474 -0.2652  0.4009 -0.2180
  945MOL0     C30315   7.314  10.317   6.584  0.4331  0.8481  0.4661
  945MOL0     C30316   7.238  10.457   6.616 -0.2214  0.5802 -0.8062
  945MOL0    Cl30317   7.056  10.434   6.672 -0.0105  0.4167 -0.0264
  945MOL0     C30318   7.613  10.590   6.202 -0.7932 -0.7489 -0.8812
  945MOL0     C30319   7.609  10.715   6.159  0.4899 -0.0625  0.1399
  945MOL0     O30320   7.798  10.926   6.143  0.1463  0.7281 -0.3691
  945MOL0     C30321   7.645  11.156   5.912 -0.1362 -0.3656 -0.6529
  945MOL0     C30322   7.637  11.291   5.863 -0.0562 -0.7831 -1.3272
  945MOL0     N30323   7.999  11.759   5.569 -0.5226 -0.2721 -0.7706
  945MOL0     N30324   8.022  11.701   5.454  0.0344 -0.5791  0.5761
  945MOL0     C30325   8.790  11.580   5.680 -0.3415  0.2055  0.7569
  945MOL0     C30326   8.820  11.489   5.786 -0.0820  0.0254 -0.3006
  945MOL0     C30327   9.066  11.245   6.063 -0.2511  0.7053  1.2713
  945MOL0     C30328   8.976  11.142   6.103  0.2628  0.3886  0.4939
  945MOL0     C30329   9.010  11.061   6.216  1.0441 -0.1625 -0.6667
  945MOL0     C30330   9.130  11.061   6.288 -1.3856  0.0545  0.5806
  945MOL0     O30331   9.161  10.967   6.390 -0.2934  0.0366  0.1284
  945MOL0     C30332   9.267  10.985   6.486  0.6177 -0.4321 -0.9768
  945MOL0     C30333   9.214  11.091   6.584  0.6574  0.2383 -0.2749
  945MOL0     C30334   9.280  11.107   6.724 -0.1900  0.6671  0.6024
  945MOL0     C30335   9.424  11.154   6.725  1.0900 -0.4737 -0.2038
  945MOL0     C30336   9.526  11.055   6.694  0.2626  0.0831  0.5298
  945MOL0     C30337   9.614  10.993   6.649 -0.2958 -0.1892 -0.7524
  945MOL0     C30338   9.215  11.163   6.238  0.1852  0.3680 -0.3613
  945MOL0     C30339   9.186  11.255   6.134 -1.1939  0.1381  1.2221
  945MOL0     C30340   9.281  11.359   6.082 -0.6771  0.3704 -0.2347
  945MOL0     H30341   8.981  11.258   5.589 -2.7713 -0.0012 -1.4197
  945MOL0     H30342   8.923  11.394   5.427  1.1885 -1.5451  0.2638
  945MOL0     H30343   8.927  11.567   5.300 -0.3739 -0.9511  1.6589
  945MOL0     H30344   8.836  11.710   5.254 -0.1274 -1.0071 -2.6646
  945MOL0     H30345   8.751  11.516   5.155  0.3944  0.7443  0.3889
  945MOL0     H30346   8.700  11.451   5.314 -1.4675  0.9872  1.6534
  945MOL0     H30347   8.536  11.635   5.350  1.4959  1.3092  0.6271
  945MOL0     H30348   8.596  11.722   5.203 -1.1757 -0.2680 -3.0377
  945MOL0     H30349   8.518  11.527   5.063 -1.5730 -1.0171 -0.0213
  945MOL0     H30350   8.444  11.472   5.217 -2.4030  0.4519 -0.3395
  945MOL0     H30351   8.302  11.626   5.038 -3.8375  2.7448  1.4607
  945MOL0     H30352   8.392  11.751   5.113 -0.4843  1.0812  1.6057
  945MOL0     H30353   8.296  11.646   5.344  1.3611  1.2212 -1.8860
  945MOL0     H30354   8.203  11.749   5.242  1.6108  1.2904  0.5077
  945MOL0     H30355   8.189  11.459   5.179 -1.2131 -0.2666  0.1559
  945MOL0     H30356   8.055  11.580   5.203  0.5459  0.5201 -1.2742
  945MOL0     H30357   8.050  11.396   5.382  3.1247 -1.5485 -0.3028
  945MOL0     H30358   8.216  11.435   5.413 -0.1588 -0.2848 -0.6398
  945MOL0     H30359   8.109  11.461   5.674 -0.7575 -0.2205  1.6992
  945MOL0     H30360   8.068  11.776   5.863  2.7521 -1.1367 -0.1110
  945MOL0     H30361   8.004  11.612   5.889 -0.5493  0.3742  0.4959
  945MOL0     H30362   7.827  11.773   5.935 -1.1926 -0.9317 -0.6014
  945MOL0     H30363   7.868  11.867   5.799  0.1240  0.8421 -2.5392
  945MOL0     H30364   7.649  11.746   5.776 -0.6872 -1.8656 -1.0296
  945MOL0     H30365   7.774  11.718   5.647  3.6040 -0.6925 -0.8333
  945MOL0     H30366   7.688  11.506   5.690  0.2690  1.9044 -0.5210
  945MOL0     H30367   7.837  11.502   5.781 -0.5067 -1.1033  0.3739
  945MOL0     H30368   7.779  11.439   6.120 -3.1877  0.2078  0.8574
  945MOL0     H30369   7.806  11.289   6.317 -0.3679 -1.4387  1.8017
  945MOL0     H30370   7.933  11.196   6.238 -0.2231 -1.1075 -0.4758
  945MOL0     H30371   7.793  11.111   6.284  0.0643  0.4708  0.8221
  945MOL0     H30372   7.667  10.670   5.820  3.2971 -0.6451 -0.4195
  945MOL0     H30373   7.677  10.430   5.905  1.5763  1.7574 -1.4701
  945MOL0     H30374   7.512  10.259   6.038  0.6585 -0.0732 -3.0143
  945MOL0     H30375   7.687  10.233   6.013 -1.4414  0.0722 -2.0828
  945MOL0     H30376   7.643  10.039   6.109  0.8977  0.1358 -0.7971
  945MOL0     H30377   7.687  10.115   6.251  1.7097 -0.7889 -1.8683
  945MOL0     H30378   7.494   9.990   6.291  3.2012  2.6500  4.1645
  945MOL0     H30379   7.401  10.050   6.162 -0.4018  1.2925  0.4074
  945MOL0     H30380   7.392  10.277   6.274 -0.7903 -0.4939 -1.1111
  945MOL0     H30381   7.499  10.225   6.401 -0.6006 -1.3753  1.1921
  945MOL0     H30382   7.228  10.081   6.332 -1.3194  1.7221 -1.5154
  945MOL0     H30383   7.339  10.058   6.477  2.8627 -1.2864 -2.0858
  945MOL0     H30384   7.137  10.211   6.509 -0.0838  0.7185  0.6255
  945MOL0     H30385   7.219  10.332   6.408  0.9295  1.4596  0.8524
  945MOL0     H30386   7.418  10.343   6.562  0.6611  0.3693  0.9551
  945MOL0     H30387   7.313  10.253   6.673  1.5245 -1.3655 -1.0168
  945MOL0     H30388   7.239  10.521   6.527  1.1659  2.9113  0.7732
  945MOL0     H30389   7.293  10.510   6.694  0.4515  0.8889 -1.4738
  945MOL0     H30390   7.592  10.565   6.306  2.6587 -1.8442 -0.3025
  945MOL0     H30391   7.584  10.795   6.227 -0.0453 -1.7874  2.0521
  945MOL0     H30392   7.589  11.088   5.848  1.3754 -1.9827 -0.3447
  945MOL0     H30393   7.580  11.291   5.770 -2.7066 -2.0927  0.1665
  945MOL0     H30394   8.732  11.670   5.697 -1.2446  0.1365 -1.5941
  945MOL0     H30395   8.783  11.507   5.886 -0.9022  0.1347 -0.6174
  945MOL0     H30396   8.879  11.119   6.060  0.4235  0.6504 -0.0109
  945MOL0     H30397   8.937  10.988   6.250  1.1892 -1.3924 -2.8720
  945MOL0     H30398   9.276  10.889   6.538 -0.6597 -0.8441 -1.4833
  945MOL0     H30399   9.360  11.018   6.439  1.0486  5.3817  2.9528
  945MOL0     H30400   9.109  11.066   6.604  1.7780 -3.4914  1.9333
  945MOL0     H30401   9.209  11.187   6.533  4.9632  0.4214 -0.6960
  945MOL0     H30402   9.220  11.181   6.778 -0.5347  0.9429 -0.1397
  945MOL0     H30403   9.266  11.013   6.780  0.2796  0.4786  0.4112
  945MOL0     H30404   9.445  11.189   6.827 -3.3301 -1.7704  1.4092
  945MOL0     H30405   9.431  11.248   6.671 -0.3380 -0.1464  0.1304
  945MOL0     H30406   9.680  10.920   6.606 -2.6163 -1.7819 -1.8204
  945MOL0     H30407   9.315  11.154   6.281  0.3710 -2.1537 -1.1239
  945MOL0     H30408   9.374  11.358   6.140 -1.1270  0.1766  0.5006
  945MOL0     H30409   9.302  11.344   5.976  1.2061 -0.4215  0.2005
  945MOL0     H30410   9.256  11.463   6.103  3.5554  1.2256  1.4975
  946MOL0     O30411   7.964   4.430   6.378 -0.5416  0.1114 -0.1980
  946MOL0     C30412   8.070   4.379   6.337  0.2389 -0.7584 -0.1698
  946MOL0     O30413   8.144   4.293   6.416  0.3213  0.9261 -0.1418
  946MOL0     C30414   8.078   4.224   6.510  0.1731  0.4705  0.0815
  946MOL0     C30415   8.017   4.100   6.487 -0.1595 -0.8288 -0.0453
  946MOL0     C30416   7.973   4.026   6.593 -0.3960  0.1410 -0.3525
  946MOL0     C30417   7.981   4.075   6.724 -0.6843 -0.1486  0.1608
  946MOL0     O30418   7.921   4.005   6.828 -0.1532  0.2691  0.6739
  946MOL0     C30419   7.798   4.051   6.870  0.5886 -0.2010 -0.1556
  946MOL0     C30420   7.758   3.976   6.989  0.1558 -0.1376  0.5461
  946MOL0     C30421   7.616   4.003   7.043  1.2305 -0.6908  0.2559
  946MOL0     C30422   7.598   3.916   7.161 -0.6518 -0.2103 -0.2041
  946MOL0     C30423   7.476   3.954   7.236 -1.1256  0.6592  0.1891
  946MOL0     C30424   7.411   3.849   7.326 -0.9641  0.3716  0.1754
  946MOL0     C30425   7.495   3.811   7.452  0.5100 -0.2390 -0.4544
  946MOL0     C30426   7.521   3.929   7.548 -0.0301 -0.5872  0.0421
  946MOL0     N30427   7.645   3.890   7.620 -0.1030 -0.1923  0.9951
  946MOL0     C30428   7.773   3.881   7.566  0.4401 -0.2215 -0.2764
  946MOL0     C30429   7.850   3.826   7.667  0.1018  0.2507  0.1333
  946MOL0     C30430   7.996   3.776   7.654  0.2965  0.6497 -0.6541
  946MOL0     C30431   7.998   3.635   7.595  0.3074 -0.1786 -0.8105
  946MOL0     C30432   8.137   3.579   7.553  0.2520 -0.1819 -0.5595
  946MOL0     C30433   8.110   3.483   7.437 -0.1939  0.2005  0.6648
  946MOL0     O30434   8.235   3.423   7.387  0.0143 -0.1336 -0.7841
  946MOL0     C30435   8.233   3.346   7.274  0.3605 -0.2157  1.0356
  946MOL0     C30436   8.130   3.295   7.199 -0.1512 -0.4813 -0.9282
  946MOL0     C30437   8.152   3.217   7.086  0.2503  0.9515 -0.5624
  946MOL0     C30438   8.025   3.180   7.012  0.0715  1.0556  0.6256
  946MOL0     C30439   8.279   3.193   7.035  0.1962  0.2598 -0.3686
  946MOL0     C30440   8.310   3.127   6.909  0.5582 -0.1466  0.1991
  946MOL0     O30441   8.223   3.137   6.803  0.4237  0.1689 -0.3672
  946MOL0     C30442   8.256   3.107   6.676 -0.6438 -0.0540 -0.1632
  946MOL0     C30443   8.276   3.206   6.587  0.3835 -0.3250  0.2562
  946MOL0     C30444   8.311   3.181   6.452 -0.9245 -0.6113 -0.6430
  946MOL0     C30445   8.329   3.049   6.413 -0.7844 -0.6818  0.5726
  946MOL0     O30446   8.369   3.033   6.281  0.9987  0.5769  0.3974
  946MOL0     C30447   8.420   2.911   6.227 -0.7217  0.0850 -0.5612
  946MOL0     C30448   8.557   2.870   6.288  0.2885 -0.8694  0.1544
  946MOL0     C30449   8.659   2.829   6.177  0.1967  0.2978 -0.2593
  946MOL0     C30450   8.627   2.686   6.123 -0.1969 -0.1927 -0.1468
  946MOL0     C30451   8.683   2.647   5.983  0.1114 -0.0261 -0.0179
  946MOL0     C30452   8.621   2.517   5.928 -0.4391  0.3135  0.6402
  946MOL0     C30453   8.639   2.393   6.006 -0.1994  0.2027  0.1188
  946MOL0     C30454   8.619   2.254   5.933 -0.3065  0.4195  0.1809
  946MOL0    Cl30455   8.761   2.199   5.826  0.0773  0.1250  0.2908
  946MOL0     C30456   8.302   2.947   6.504 -0.1059  0.2530 -0.8365
  946MOL0     C30457   8.262   2.975   6.628  0.5602 -0.0609 -0.5470
  946MOL0     O30458   8.415   3.061   6.914  0.7832  0.0669 -0.5007
  946MOL0     C30459   8.378   3.215   7.128  0.0418 -0.5767  0.1334
  946MOL0     C30460   8.358   3.291   7.245 -0.0606 -0.6133  0.5787
  946MOL0     N30461   7.766   3.811   7.773  0.0163  0.5427 -0.2137
  946MOL0     N30462   7.645   3.846   7.751 -0.7635 -0.8406  0.4173
  946MOL0     C30463   8.038   4.211   6.752 -0.3621 -0.4800  0.2899
  946MOL0     C30464   8.098   4.280   6.646  1.1532  0.4318 -0.0769
  946MOL0     C30465   8.131   4.420   6.211  0.8589 -0.3662 -0.9555
  946MOL0     C30466   8.262   4.382   6.176  0.1182  1.4321 -0.2407
  946MOL0     C30467   8.321   4.426   6.057 -0.7801 -0.2040  0.0588
  946MOL0     C30468   8.247   4.501   5.964 -0.2163  1.1705 -0.0763
  946MOL0     O30469   8.298   4.538   5.841 -0.6344  0.3809 -0.3728
  946MOL0     C30470   8.244   4.641   5.757 -0.6005  0.4197  0.2801
  946MOL0     C30471   8.149   4.603   5.647  0.0323 -0.0339 -0.4209
  946MOL0     C30472   8.116   4.720   5.554  0.3027 -0.6484  0.2437
  946MOL0     C30473   8.060   4.688   5.410  0.4924  0.5643 -0.6442
  946MOL0     C30474   7.936   4.610   5.414  0.2730 -0.4566 -0.1260
  946MOL0     C30475   7.833   4.552   5.419  0.3843  0.3610  0.4823
  946MOL0     C30476   8.121   4.530   5.994  0.2787 -0.4711 -0.3395
  946MOL0     C30477   8.058   4.495   6.115 -0.6398  0.4541 -0.4997
  946MOL0     C30478   7.928   4.566   6.136  0.3737  1.3300  0.2718
  946MOL0     H30479   8.040   4.052   6.392 -0.0657 -1.2111  0.1722
  946MOL0     H30480   7.925   3.930   6.575 -2.0353  1.3773 -3.2680
  946MOL0     H30481   7.726   4.027   6.792  0.7964  0.2417 -0.4862
  946MOL0     H30482   7.796   4.158   6.892  1.1962  0.0704 -1.3169
  946MOL0     H30483   7.767   3.874   6.952  0.0518  0.3509 -0.8761
  946MOL0     H30484   7.835   3.994   7.065 -0.2273  0.8727  0.7060
  946MOL0     H30485   7.601   4.110   7.062 -0.2620 -0.8089 -0.0994
  946MOL0     H30486   7.540   3.975   6.969  1.1068 -0.2129  0.1969
  946MOL0     H30487   7.604   3.812   7.128  0.9908 -0.1398 -0.2507
  946MOL0     H30488   7.682   3.926   7.231  0.2249  1.3169 -1.4007
  946MOL0     H30489   7.395   3.983   7.168 -0.0499  4.0386  0.1563
  946MOL0     H30490   7.491   4.050   7.285  0.3805  0.8088 -0.4927
  946MOL0     H30491   7.314   3.887   7.360  0.0029  2.6622  0.5416
  946MOL0     H30492   7.397   3.755   7.272  0.9789  0.7837 -1.1348
  946MOL0     H30493   7.585   3.762   7.413 -0.7133 -4.6448  1.5813
  946MOL0     H30494   7.444   3.738   7.516 -1.5241  1.1319 -0.4168
  946MOL0     H30495   7.546   4.016   7.488 -1.6806 -0.1545 -0.0677
  946MOL0     H30496   7.443   3.952   7.622 -2.8734  0.7391 -3.1232
  946MOL0     H30497   7.806   3.912   7.467 -0.0409 -1.3208 -0.8019
  946MOL0     H30498   8.046   3.777   7.751 -0.2091  1.3554 -0.3855
  946MOL0     H30499   8.061   3.840   7.595  0.7241 -0.2374 -1.1645
  946MOL0     H30500   7.955   3.556   7.657  1.1984 -0.5666 -0.6567
  946MOL0     H30501   7.925   3.640   7.514  1.4328  3.7577 -1.8218
  946MOL0     H30502   8.198   3.662   7.516  0.8635 -1.1460 -1.8115
  946MOL0     H30503   8.185   3.526   7.636 -0.4185 -1.3132 -0.8689
  946MOL0     H30504   8.040   3.405   7.467 -0.6773  1.0424  1.8007
  946MOL0     H30505   8.078   3.544   7.352  0.9918 -2.1340 -1.5945
  946MOL0     H30506   8.029   3.323   7.227 -0.4247 -1.8851 -0.4456
  946MOL0     H30507   8.039   3.093   6.947  1.7727  1.7926 -0.0564
  946MOL0     H30508   8.010   3.265   6.945  0.0414 -0.6695 -1.6511
  946MOL0     H30509   7.941   3.163   7.081 -0.6392  3.0829  0.3216
  946MOL0     H30510   8.273   3.312   6.610  0.6834 -0.6709  2.0091
  946MOL0     H30511   8.324   3.263   6.381 -1.5929 -0.2646 -0.3684
  946MOL0     H30512   8.350   2.828   6.241  0.4227 -0.9188 -0.5042
  946MOL0     H30513   8.429   2.918   6.118 -1.3749 -0.3753 -0.6530
  946MOL0     H30514   8.610   2.957   6.329 -0.5749 -1.5777  2.9963
  946MOL0     H30515   8.551   2.799   6.371 -0.9509 -0.8002  0.1439
  946MOL0     H30516   8.754   2.823   6.231  0.0203  0.0666  0.0317
  946MOL0     H30517   8.658   2.893   6.089 -0.9261  0.8323  0.1354
  946MOL0     H30518   8.519   2.688   6.107 -0.1248  4.4116 -1.4427
  946MOL0     H30519   8.656   2.608   6.195  0.5158  0.0841 -0.1207
  946MOL0     H30520   8.673   2.735   5.920  0.6682  0.9459  1.2186
  946MOL0     H30521   8.791   2.634   5.996 -0.3457 -1.5831  3.4459
  946MOL0     H30522   8.668   2.505   5.830 -0.3446  0.2043  0.6995
  946MOL0     H30523   8.516   2.543   5.908 -0.6474 -1.0055 -0.1071
  946MOL0     H30524   8.557   2.391   6.079 -0.9387 -0.8597 -0.7052
  946MOL0     H30525   8.732   2.384   6.063  0.1075 -4.0628 -0.7037
  946MOL0     H30526   8.531   2.264   5.868 -1.5733  0.7087  1.8600
  946MOL0     H30527   8.588   2.189   6.015 -3.9236  0.6927 -0.7977
  946MOL0     H30528   8.320   2.843   6.478 -0.6773 -0.0369 -0.1039
  946MOL0     H30529   8.256   2.880   6.681  2.1811 -0.3762 -0.8943
  946MOL0     H30530   8.481   3.219   7.094  0.4193  1.7699  1.3307
  946MOL0     H30531   8.440   3.345   7.291 -1.5674  2.1952  0.2224
  946MOL0     H30532   8.042   4.264   6.847  3.0168  2.3683 -1.2001
  946MOL0     H30533   8.156   4.372   6.651  1.2812  0.3968 -0.7408
  946MOL0     H30534   8.318   4.338   6.257 -2.7249  0.2738  1.2533
  946MOL0     H30535   8.430   4.419   6.061 -0.1684  4.6542 -1.2650
  946MOL0     H30536   8.198   4.720   5.816  0.5529  1.0154  0.4041
  946MOL0     H30537   8.330   4.692   5.712  0.6145 -0.4792  1.4745
  946MOL0     H30538   8.070   4.546   5.696  2.0268 -4.0881 -1.4849
  946MOL0     H30539   8.194   4.528   5.581 -0.3506  0.2552 -1.0237
  946MOL0     H30540   8.040   4.779   5.607 -0.3209 -2.0769  0.9836
  946MOL0     H30541   8.212   4.768   5.531 -1.0736  0.3621 -4.4135
  946MOL0     H30542   8.138   4.637   5.352 -1.1724  1.2840 -3.7241
  946MOL0     H30543   8.026   4.786   5.374 -0.6135 -0.0250 -1.2231
  946MOL0     H30544   7.732   4.515   5.418 -0.1339  1.2210 -4.1563
  946MOL0     H30545   8.068   4.591   5.921 -0.3618 -2.7054 -1.8677
  946MOL0     H30546   7.900   4.615   6.042  0.6078 -1.4363 -1.3386
  946MOL0     H30547   7.851   4.491   6.154  1.5150 -0.3148 -1.3875
  946MOL0     H30548   7.929   4.637   6.220  0.3778  0.2955  1.1674
  947MOL0     O30549   2.875   4.987   7.563  0.5252 -0.0821  0.0654
  947MOL0     C30550   2.858   5.106   7.578 -0.7445 -0.0362 -0.1187
  947MOL0     O30551   2.968   5.193   7.567  0.2078  0.2107  0.5154
  947MOL0     C30552   3.088   5.140   7.528 -0.3296 -1.2219 -0.2600
  947MOL0     C30553   3.174   5.094   7.625  0.5914  0.2228 -0.0681
  947MOL0     C30554   3.297   5.041   7.589  0.3828 -0.4374  0.5983
  947MOL0     C30555   3.333   5.036   7.454  0.3778  0.4387 -1.1146
  947MOL0     O30556   3.446   4.964   7.425 -0.0598  0.2404  0.0915
  947MOL0     C30557   3.464   4.896   7.299 -0.6773 -0.7302 -0.8847
  947MOL0     C30558   3.545   4.766   7.334 -0.4976 -0.0498 -0.9342
  947MOL0     C30559   3.453   4.648   7.380 -0.4214  0.1840 -0.1965
  947MOL0     C30560   3.373   4.598   7.261  0.2839  0.2882 -0.6505
  947MOL0     C30561   3.275   4.487   7.310 -0.2723 -0.6474  0.6079
  947MOL0     C30562   3.211   4.419   7.186  0.5334  0.0717 -0.8128
  947MOL0     C30563   3.086   4.332   7.217  0.6954 -1.2292  0.6539
  947MOL0     C30564   3.053   4.240   7.096  0.0473  0.3315 -0.4329
  947MOL0     N30565   2.953   4.137   7.138  0.3344 -0.3753 -0.0444
  947MOL0     C30566   2.973   4.026   7.219 -0.3681  0.8872  1.2460
  947MOL0     C30567   2.863   3.940   7.194  0.3439 -0.2527 -0.8464
  947MOL0     C30568   2.817   3.816   7.270  1.3309  0.1091 -0.6021
  947MOL0     C30569   2.939   3.719   7.276 -0.2199  0.5250 -0.0086
  947MOL0     C30570   2.906   3.585   7.344  0.8513  0.6263  0.0768
  947MOL0     C30571   3.032   3.513   7.395  0.3838 -0.3159  0.0050
  947MOL0     O30572   3.014   3.417   7.497  0.0424 -0.0332  0.3076
  947MOL0     C30573   2.991   3.286   7.452 -0.0972 -0.0259 -0.6002
  947MOL0     C30574   3.090   3.182   7.417  0.0520  0.3787 -0.8348
  947MOL0     C30575   3.059   3.046   7.391  0.1675 -0.0072 -0.0947
  947MOL0     C30576   3.176   2.952   7.363 -0.5463 -0.0645  0.7878
  947MOL0     C30577   2.918   3.009   7.387  0.2386 -0.8219 -0.0414
  947MOL0     C30578   2.870   2.869   7.350  0.2918 -0.9492 -0.6490
  947MOL0     O30579   2.955   2.788   7.290 -0.7225 -0.2309 -0.7425
  947MOL0     C30580   2.918   2.702   7.191 -0.5612 -0.9509 -0.4565
  947MOL0     C30581   3.010   2.595   7.171  0.3644  0.6404 -0.1279
  947MOL0     C30582   2.980   2.498   7.078  0.7012 -0.0324 -0.7101
  947MOL0     C30583   2.868   2.499   7.003  0.2162 -0.3149 -0.1684
  947MOL0     O30584   2.833   2.394   6.919 -0.4220  0.1475  0.6410
  947MOL0     C30585   2.937   2.353   6.822 -0.2808 -0.4540  0.0180
  947MOL0     C30586   2.927   2.446   6.697  0.5842  0.0391  0.4175
  947MOL0     C30587   2.785   2.442   6.628  0.0400  0.7043  0.1836
  947MOL0     C30588   2.766   2.520   6.495 -0.7914 -0.4442 -0.4054
  947MOL0     C30589   2.660   2.465   6.399  0.5733  0.0792 -0.3112
  947MOL0     C30590   2.609   2.573   6.294  0.1954 -0.2887  0.4205
  947MOL0     C30591   2.704   2.584   6.168 -0.9531 -0.2908  0.0864
  947MOL0     C30592   2.672   2.712   6.083  0.6908  0.7695 -0.2004
  947MOL0    Cl30593   2.497   2.738   6.061 -0.0033  0.0491  0.0617
  947MOL0     C30594   2.790   2.611   7.010  0.7815  0.4475 -0.3676
  947MOL0     C30595   2.804   2.711   7.108  0.6421 -0.7799  0.2324
  947MOL0     O30596   2.755   2.836   7.386 -0.1528  0.3890  0.3323
  947MOL0     C30597   2.822   3.106   7.417 -0.2633 -0.2961 -0.0723
  947MOL0     C30598   2.855   3.234   7.454  0.4894 -0.4621 -0.3905
  947MOL0     N30599   2.780   4.004   7.104 -0.2220  0.2829 -0.0842
  947MOL0     N30600   2.833   4.116   7.072  0.4726  0.2871  0.5288
  947MOL0     C30601   3.250   5.094   7.352  0.0392 -0.5310 -1.1041
  947MOL0     C30602   3.123   5.137   7.386  0.1856 -0.6195 -0.8944
  947MOL0     C30603   2.726   5.170   7.564  0.3161 -0.0816 -0.3130
  947MOL0     C30604   2.726   5.312   7.534  0.7497  0.1666  0.5134
  947MOL0     C30605   2.600   5.375   7.499 -0.5379  0.1420 -0.6313
  947MOL0     C30606   2.486   5.305   7.499  0.4975  0.4935  0.1142
  947MOL0     O30607   2.375   5.369   7.450  0.4085  0.4137  0.0242
  947MOL0     C30608   2.279   5.294   7.374 -0.8664  0.4587  0.1799
  947MOL0     C30609   2.171   5.238   7.468 -0.2956  0.3999  0.0206
  947MOL0     C30610   2.081   5.144   7.394  0.7948  0.7954 -1.5138
  947MOL0     C30611   2.020   5.189   7.261  0.1696 -0.4521 -0.4291
  947MOL0     C30612   1.955   5.074   7.192  0.0827 -0.0800  0.2269
  947MOL0     C30613   1.883   4.993   7.141 -1.0226 -0.1883  0.2457
  947MOL0     C30614   2.487   5.171   7.549 -0.2084  0.1129 -0.0904
  947MOL0     C30615   2.601   5.106   7.585 -0.1961  0.2572 -0.1575
  947MOL0     C30616   2.584   4.970   7.643 -0.2046  0.4087  0.1511
  947MOL0     H30617   3.145   5.107   7.729 -0.5483  0.9758 -0.4650
  947MOL0     H30618   3.370   5.011   7.663 -1.1410  0.5538  2.6232
  947MOL0     H30619   3.522   4.958   7.229 -1.1245 -2.0296 -2.4718
  947MOL0     H30620   3.367   4.889   7.249 -0.2543 -0.0073 -1.8421
  947MOL0     H30621   3.594   4.730   7.243  1.3822 -0.6692  0.2674
  947MOL0     H30622   3.611   4.776   7.420 -1.0377  3.4876 -0.7931
  947MOL0     H30623   3.517   4.567   7.416 -2.1690 -1.6160 -1.0102
  947MOL0     H30624   3.387   4.683   7.460 -2.1967 -1.2636 -0.9508
  947MOL0     H30625   3.309   4.673   7.215 -3.0840 -0.6969  1.9466
  947MOL0     H30626   3.447   4.560   7.190  0.9116  0.5498 -0.1432
  947MOL0     H30627   3.205   4.539   7.376  0.3006  0.4790  0.3617
  947MOL0     H30628   3.323   4.411   7.371  0.1684  0.4488  1.6557
  947MOL0     H30629   3.191   4.503   7.119 -2.6020  1.7151  1.8965
  947MOL0     H30630   3.285   4.350   7.144  0.6413 -1.0640  1.1331
  947MOL0     H30631   2.999   4.397   7.227  1.0443 -0.6441 -0.0586
  947MOL0     H30632   3.085   4.270   7.307  0.8653 -1.3276  0.5876
  947MOL0     H30633   3.028   4.298   7.006 -0.6129 -1.4486 -1.4438
  947MOL0     H30634   3.146   4.188   7.072 -0.8319 -0.8741 -1.3626
  947MOL0     H30635   3.061   3.998   7.275  0.8895 -2.1539 -1.8439
  947MOL0     H30636   2.732   3.769   7.220  0.4563  1.1272 -0.1117
  947MOL0     H30637   2.780   3.830   7.372  1.1096 -1.9003 -0.3715
  947MOL0     H30638   2.982   3.706   7.177  1.9584 -1.3701  1.0779
  947MOL0     H30639   3.019   3.757   7.341  0.4845 -0.5163 -0.2396
  947MOL0     H30640   2.839   3.600   7.429  0.8929 -2.8415  0.8902
  947MOL0     H30641   2.856   3.524   7.268 -2.2452  3.8593 -0.7465
  947MOL0     H30642   3.083   3.471   7.308  0.6200  0.6336 -0.3297
  947MOL0     H30643   3.099   3.588   7.439  1.0195 -0.0316 -1.4103
  947MOL0     H30644   3.193   3.216   7.412  1.2998 -2.2351  2.7291
  947MOL0     H30645   3.176   2.956   7.254  1.7440 -1.2355  0.6751
  947MOL0     H30646   3.173   2.848   7.397 -0.0545  0.0220  1.0995
  947MOL0     H30647   3.268   2.991   7.408 -0.7626 -1.0715  2.1622
  947MOL0     H30648   3.090   2.604   7.245 -1.0491  2.3675  1.2781
  947MOL0     H30649   3.052   2.417   7.078  1.8598  0.8233  3.0389
  947MOL0     H30650   3.036   2.354   6.868 -0.8147  1.0267  1.2480
  947MOL0     H30651   2.923   2.257   6.772  0.2888 -0.3087 -0.4202
  947MOL0     H30652   2.955   2.543   6.738  0.4785  0.5205 -0.6385
  947MOL0     H30653   3.001   2.423   6.620 -1.2392  3.1770 -2.5776
  947MOL0     H30654   2.697   2.476   6.682 -3.7066 -1.8429 -3.6875
  947MOL0     H30655   2.767   2.335   6.610 -0.1866 -0.1045  4.2709
  947MOL0     H30656   2.858   2.535   6.437  0.5792 -0.5320  1.6218
  947MOL0     H30657   2.730   2.620   6.524 -1.8598 -0.3139 -2.0691
  947MOL0     H30658   2.699   2.377   6.347 -0.5837 -0.5060 -0.2052
  947MOL0     H30659   2.581   2.442   6.470  1.7298  4.6403  2.9213
  947MOL0     H30660   2.601   2.674   6.334  0.8595  0.3448 -0.9819
  947MOL0     H30661   2.503   2.555   6.272 -0.1170  2.5519 -0.8882
  947MOL0     H30662   2.714   2.503   6.096 -0.5776 -0.4674  0.3345
  947MOL0     H30663   2.805   2.592   6.209 -0.7980 -0.1618 -0.3138
  947MOL0     H30664   2.716   2.702   5.983 -0.1514  2.8553 -0.8320
  947MOL0     H30665   2.717   2.798   6.134  1.2161  0.8761 -0.8292
  947MOL0     H30666   2.697   2.616   6.955  0.9542 -0.3597 -0.7385
  947MOL0     H30667   2.732   2.791   7.120  0.2618 -1.4559  3.2868
  947MOL0     H30668   2.715   3.086   7.411 -0.9340  1.9488  2.5980
  947MOL0     H30669   2.787   3.315   7.477  3.8417  2.7287 -0.6491
  947MOL0     H30670   3.275   5.077   7.248 -0.3964 -3.9055 -0.7746
  947MOL0     H30671   3.052   5.177   7.314 -1.0719 -0.7098  0.2496
  947MOL0     H30672   2.819   5.367   7.534  1.2324 -0.6267  1.2037
  947MOL0     H30673   2.613   5.476   7.464  1.5378 -0.1213 -0.7302
  947MOL0     H30674   2.230   5.360   7.301 -1.4130  0.7107  0.7697
  947MOL0     H30675   2.326   5.219   7.311 -2.3676 -0.9435  0.6621
  947MOL0     H30676   2.116   5.326   7.505  0.8534 -0.2528  3.6516
  947MOL0     H30677   2.218   5.184   7.550  3.1150  0.7983 -1.5002
  947MOL0     H30678   2.135   5.051   7.377 -0.1183 -0.8863  3.3571
  947MOL0     H30679   2.001   5.133   7.468  2.5371 -2.4454  0.0792
  947MOL0     H30680   2.101   5.228   7.198  2.0539  0.3560  2.3135
  947MOL0     H30681   1.939   5.261   7.272 -1.6648 -2.1205 -2.2268
  947MOL0     H30682   1.808   4.927   7.102  1.0579 -2.0663 -0.7520
  947MOL0     H30683   2.397   5.109   7.546  0.5582 -1.0198 -0.7163
  947MOL0     H30684   2.664   4.950   7.716  0.5081 -1.3294 -1.0204
  947MOL0     H30685   2.492   4.969   7.701  1.1612  0.7875  2.4378
  947MOL0     H30686   2.596   4.890   7.569  0.7822 -0.7754  1.5263
  948MOL0     O30687   4.978   8.980   8.352  0.5904 -0.2826 -0.2184
  948MOL0     C30688   5.091   9.003   8.341 -0.3343 -0.1671 -0.0597
  948MOL0     O30689   5.139   9.114   8.279  0.5451  0.2979  0.2105
  948MOL0     C30690   5.055   9.217   8.250  0.2915  0.8006 -0.9723
  948MOL0     C30691   4.957   9.212   8.137 -2.4158 -0.6883 -0.3275
  948MOL0     C30692   4.888   9.327   8.112 -0.1467 -0.2791 -0.1885
  948MOL0     C30693   4.893   9.444   8.198  0.0383  0.7126  0.1500
  948MOL0     O30694   4.828   9.568   8.167 -0.2776  0.6370 -0.5700
  948MOL0     C30695   4.715   9.566   8.078  0.0868  1.6230  0.0193
  948MOL0     C30696   4.589   9.654   8.122 -0.6859  0.7339 -0.4487
  948MOL0     C30697   4.496   9.579   8.228 -1.2050  0.4290  0.9709
  948MOL0     C30698   4.566   9.568   8.362  0.2974 -0.0569  0.0076
  948MOL0     C30699   4.502   9.463   8.463  0.1860 -0.0589  0.8246
  948MOL0     C30700   4.502   9.322   8.406  1.1284  0.0657  0.6620
  948MOL0     C30701   4.646   9.278   8.359  0.6856 -0.6064 -1.0328
  948MOL0     C30702   4.652   9.121   8.341 -0.2411  0.2709 -0.5929
  948MOL0     N30703   4.642   9.043   8.464 -0.0290  0.3234 -0.4509
  948MOL0     C30704   4.750   9.046   8.551  0.2744  0.5273 -1.2379
  948MOL0     C30705   4.698   8.976   8.657 -0.5993 -0.0325 -0.2106
  948MOL0     C30706   4.767   8.966   8.794 -0.1231  0.2687  0.2879
  948MOL0     C30707   4.714   8.836   8.878  0.3958 -0.7876 -0.1735
  948MOL0     C30708   4.745   8.852   9.023  0.0872 -1.1070 -0.3493
  948MOL0     C30709   4.632   8.927   9.098 -0.5121 -0.2287 -0.0102
  948MOL0     O30710   4.672   8.985   9.223 -0.2924 -0.1348  0.4593
  948MOL0     C30711   4.583   8.985   9.323  0.6742  0.2821 -0.7752
  948MOL0     C30712   4.559   8.880   9.418 -0.3933  0.2177  0.0359
  948MOL0     C30713   4.455   8.889   9.512 -0.1397 -0.0546 -0.1442
  948MOL0     C30714   4.427   8.783   9.613  0.0149  0.2638 -0.1246
  948MOL0     C30715   4.384   9.011   9.520  0.3908 -0.6567  0.7984
  948MOL0     C30716   4.277   9.037   9.613 -0.1407  0.4543  0.1625
  948MOL0     O30717   4.183   8.934   9.614  0.1025  0.0664  0.4042
  948MOL0     C30718   4.071   8.955   9.687 -0.1486  0.3936 -0.1673
  948MOL0     C30719   4.006   9.073   9.691  0.9752 -0.5922  0.0789
  948MOL0     C30720   3.885   9.093   9.764 -0.5132 -0.0894  0.7160
  948MOL0     C30721   3.840   8.988   9.843 -0.6746 -0.2622  0.0069
  948MOL0     O30722   3.736   8.993   9.925  0.3258 -0.0030  0.4067
  948MOL0     C30723   3.751   9.034  10.059 -0.3296  0.7709  0.3781
  948MOL0     C30724   3.607   9.030  10.112  0.3922  0.0021  0.3254
  948MOL0     C30725   3.590   9.058  10.257 -0.2214  0.3925 -0.2464
  948MOL0     C30726   3.443   9.084  10.300  0.1197  0.4565 -0.1376
  948MOL0     C30727   3.424   9.135  10.446 -0.8715 -0.0701 -0.1855
  948MOL0     C30728   3.278   9.109  10.487  0.0113 -0.3089  0.1327
  948MOL0     C30729   3.252   9.130  10.636 -0.2550  0.1558 -0.4552
  948MOL0     C30730   3.107   9.103  10.667 -0.8485  0.1315  0.8135
  948MOL0    Cl30731   3.074   9.119  10.841  0.1441 -0.0845  0.0873
  948MOL0     C30732   3.913   8.867   9.846  0.2923 -0.4026  0.2014
  948MOL0     C30733   4.017   8.850   9.767 -0.7181 -0.1682  0.5547
  948MOL0     O30734   4.289   9.122   9.701  0.1085  0.1215 -0.4143
  948MOL0     C30735   4.417   9.119   9.435  0.1690  0.5711 -0.7623
  948MOL0     C30736   4.521   9.105   9.342 -0.0825  0.2019  0.0316
  948MOL0     N30737   4.580   8.911   8.616 -0.1137  0.4478 -0.5529
  948MOL0     N30738   4.549   8.951   8.498 -0.5306  0.0002 -0.1718
  948MOL0     C30739   4.961   9.431   8.316 -0.1177  0.2727 -0.2026
  948MOL0     C30740   5.047   9.322   8.340  0.4264 -0.2727 -0.2446
  948MOL0     C30741   5.197   8.904   8.387 -0.1464  0.3221 -0.6818
  948MOL0     C30742   5.333   8.910   8.346  0.5491  0.6217  0.4424
  948MOL0     C30743   5.437   8.814   8.390  0.4337  0.1024 -0.2497
  948MOL0     C30744   5.401   8.713   8.485  0.5644 -0.7844 -1.3341
  948MOL0     O30745   5.488   8.621   8.541 -0.6587  0.0563  0.2510
  948MOL0     C30746   5.626   8.611   8.506 -0.7343  0.3890  0.2639
  948MOL0     C30747   5.639   8.540   8.371 -0.9303 -0.2214 -0.0299
  948MOL0     C30748   5.768   8.587   8.307 -0.8754 -0.4540 -0.0908
  948MOL0     C30749   5.803   8.510   8.173 -0.5207 -0.0535 -0.7837
  948MOL0     C30750   5.873   8.385   8.202  0.1045  1.5517  0.3005
  948MOL0     C30751   5.932   8.282   8.232 -0.5381 -0.0726 -0.2082
  948MOL0     C30752   5.271   8.727   8.539 -0.0040 -0.4066 -0.2353
  948MOL0     C30753   5.172   8.810   8.494  0.5335  0.1797  0.4910
  948MOL0     C30754   5.042   8.788   8.566 -0.3654 -0.3336  1.0479
  948MOL0     H30755   4.962   9.134   8.061  0.4854  2.0981 -3.3298
  948MOL0     H30756   4.829   9.325   8.021 -2.7054  1.7027  1.3008
  948MOL0     H30757   4.687   9.467   8.041  1.2197  0.3592  2.3359
  948MOL0     H30758   4.746   9.624   7.991  2.9098  1.0880  0.5723
  948MOL0     H30759   4.628   9.750   8.155  0.7357 -0.2696  0.9368
  948MOL0     H30760   4.528   9.674   8.033 -1.2304 -3.4390 -1.2535
  948MOL0     H30761   4.397   9.626   8.231 -2.4728 -2.0225  0.3101
  948MOL0     H30762   4.469   9.479   8.191  0.4211  0.3794 -0.1337
  948MOL0     H30763   4.670   9.541   8.345 -0.0983 -0.0338 -2.8904
  948MOL0     H30764   4.567   9.668   8.406 -1.2999  1.1254 -2.4542
  948MOL0     H30765   4.398   9.493   8.481 -0.1896 -0.3438 -0.7497
  948MOL0     H30766   4.564   9.473   8.552 -0.8735 -1.0884  1.7153
  948MOL0     H30767   4.458   9.261   8.485 -0.4503  1.2141  0.7287
  948MOL0     H30768   4.435   9.328   8.320  1.6753 -1.9513  0.0371
  948MOL0     H30769   4.726   9.311   8.426  0.3986 -0.3858 -0.7948
  948MOL0     H30770   4.668   9.331   8.266 -2.3855 -0.0503 -1.5240
  948MOL0     H30771   4.578   9.092   8.266  0.4552 -3.6187  0.0236
  948MOL0     H30772   4.747   9.095   8.293  0.1707  0.4900  0.0955
  948MOL0     H30773   4.836   9.111   8.543  0.5550  0.3012 -0.1580
  948MOL0     H30774   4.736   9.050   8.856  2.0200  0.0113  1.8262
  948MOL0     H30775   4.875   8.965   8.775  0.3075 -5.4475  1.1131
  948MOL0     H30776   4.607   8.815   8.868  0.5323 -1.1888 -0.8533
  948MOL0     H30777   4.765   8.753   8.829  0.4090  0.5630 -2.5858
  948MOL0     H30778   4.760   8.751   9.062  0.1299 -2.3806 -3.4480
  948MOL0     H30779   4.835   8.913   9.024 -0.2115 -0.5373  2.5984
  948MOL0     H30780   4.602   9.015   9.040  1.4907  1.3523  1.2078
  948MOL0     H30781   4.545   8.861   9.105 -1.3567  1.0156  2.2425
  948MOL0     H30782   4.620   8.791   9.416  0.8905  1.0852 -1.8328
  948MOL0     H30783   4.336   8.728   9.588  0.6377  0.3937 -3.0283
  948MOL0     H30784   4.413   8.827   9.712 -2.7205  2.6090 -1.4226
  948MOL0     H30785   4.501   8.702   9.607 -2.5069 -2.1296 -0.8206
  948MOL0     H30786   4.030   9.158   9.627  1.2759  0.0804  1.0540
  948MOL0     H30787   3.823   9.179   9.740 -2.2049 -1.5075 -0.2537
  948MOL0     H30788   3.816   8.976  10.125 -0.6395  2.9281  2.7544
  948MOL0     H30789   3.795   9.134  10.055  1.7679 -0.1222 -0.4444
  948MOL0     H30790   3.542   9.101  10.058 -2.5970 -1.0642  2.2430
  948MOL0     H30791   3.565   8.932  10.087 -0.2104  0.4940 -0.6858
  948MOL0     H30792   3.639   9.154  10.277  3.3558 -1.6115  1.6271
  948MOL0     H30793   3.639   8.984  10.320 -0.9885 -0.9867 -1.2128
  948MOL0     H30794   3.380   8.998  10.274 -0.5913  0.9623 -0.1046
  948MOL0     H30795   3.404   9.152  10.224  0.1885 -3.5070 -4.2026
  948MOL0     H30796   3.491   9.080  10.513  1.4931  1.3065 -1.2803
  948MOL0     H30797   3.455   9.240  10.447  3.4878 -1.1330 -1.7269
  948MOL0     H30798   3.263   9.003  10.469  0.8996 -0.1380 -1.8868
  948MOL0     H30799   3.208   9.165  10.424 -0.3774 -2.8838 -1.9059
  948MOL0     H30800   3.286   9.229  10.668 -1.9739  1.2422 -1.8399
  948MOL0     H30801   3.315   9.055  10.686  1.6576  1.3127 -1.0002
  948MOL0     H30802   3.078   9.001  10.640 -1.4647  0.0965  1.5622
  948MOL0     H30803   3.041   9.165  10.607  1.6269  3.1294  0.9670
  948MOL0     H30804   3.883   8.786   9.911  0.7271  1.3954  2.8209
  948MOL0     H30805   4.072   8.757   9.757  3.0206  1.8488  0.2918
  948MOL0     H30806   4.372   9.218   9.434  2.6483  1.7627 -0.2844
  948MOL0     H30807   4.541   9.189   9.276 -3.6130 -1.1039 -3.0729
  948MOL0     H30808   4.950   9.513   8.387 -0.5641  0.4981 -0.5223
  948MOL0     H30809   5.098   9.331   8.435 -1.6980 -1.2300  1.0617
  948MOL0     H30810   5.371   8.994   8.289 -1.1613  1.4165  0.3965
  948MOL0     H30811   5.541   8.827   8.362  0.5230 -1.7942 -0.9772
  948MOL0     H30812   5.676   8.708   8.501  0.4856 -0.2472 -0.1803
  948MOL0     H30813   5.681   8.553   8.579  0.7036 -0.4922 -1.4375
  948MOL0     H30814   5.555   8.544   8.301  1.0129 -1.4046 -2.6418
  948MOL0     H30815   5.656   8.435   8.397  1.1874  0.6536  2.4896
  948MOL0     H30816   5.755   8.691   8.277  1.4486  0.3765  1.5139
  948MOL0     H30817   5.853   8.580   8.375  1.2364 -2.0304 -2.6555
  948MOL0     H30818   5.861   8.568   8.101 -0.7358  0.4608 -0.5429
  948MOL0     H30819   5.711   8.481   8.123  0.7914 -0.7244 -2.9343
  948MOL0     H30820   5.990   8.201   8.270 -2.2428 -1.5209 -0.5206
  948MOL0     H30821   5.246   8.661   8.622  0.1486 -0.9563 -0.6161
  948MOL0     H30822   4.995   8.883   8.593 -0.4371  0.9465 -2.9906
  948MOL0     H30823   4.979   8.748   8.486  2.1391 -1.9213 -0.2519
  948MOL0     H30824   5.050   8.715   8.647  3.0162 -0.7966  0.4580
  949MOL0     O30825   1.642   0.589   5.006  0.2698  0.7410  0.2190
  949MOL0     C30826   1.568   0.647   4.922  0.1579  0.0029  0.1681
  949MOL0     O30827   1.497   0.583   4.830 -0.7866 -0.9150  0.2464
  949MOL0     C30828   1.510   0.451   4.822  0.7599 -0.5272  0.5914
  949MOL0     C30829   1.430   0.357   4.898  0.5052 -0.4015  0.5898
  949MOL0     C30830   1.434   0.224   4.873  0.3760 -0.1011  0.3903
  949MOL0     C30831   1.510   0.166   4.768 -0.1605 -0.0055 -1.0026
  949MOL0     O30832   1.512   0.029   4.742  0.3456 -0.6209 -0.2612
  949MOL0     C30833   1.616  -0.039   4.696  0.0130  0.0642 -0.0404
  949MOL0     C30834   1.728  -0.039   4.790 -0.3776 -0.1433 -0.7111
  949MOL0     C30835   1.690  -0.117   4.922 -0.0151  0.4277 -0.0651
  949MOL0     C30836   1.609  -0.048   5.022  0.3318 -0.0525 -0.3651
  949MOL0     C30837   1.687   0.071   5.082  0.3303  1.1593  0.1486
  949MOL0     C30838   1.604   0.160   5.175  1.6321 -0.1065 -0.1580
  949MOL0     C30839   1.689   0.293   5.214  0.3745  0.4815  0.2744
  949MOL0     C30840   1.619   0.402   5.289  0.4995  0.1392 -0.0056
  949MOL0     N30841   1.563   0.353   5.415 -0.4021  0.7862 -1.2043
  949MOL0     C30842   1.647   0.346   5.525 -0.0794  0.6982 -0.3892
  949MOL0     C30843   1.575   0.307   5.629 -0.4822 -0.0756 -0.2805
  949MOL0     C30844   1.625   0.288   5.773  0.3804  0.4012  0.7610
  949MOL0     C30845   1.711   0.160   5.789  0.7826 -0.2825 -0.2516
  949MOL0     C30846   1.649   0.024   5.749  0.5027 -0.6171  0.4793
  949MOL0     C30847   1.701  -0.093   5.833 -0.7412 -0.9263  0.8928
  949MOL0     O30848   1.842  -0.089   5.833 -0.7063 -1.0410 -0.0495
  949MOL0     C30849   1.914  -0.084   5.962  0.2010 -0.4771  0.5048
  949MOL0     C30850   1.864  -0.014   6.075 -0.1499  0.4026 -0.1470
  949MOL0     C30851   1.922  -0.007   6.203 -0.4318 -0.0021  0.9326
  949MOL0     C30852   1.863   0.070   6.307  0.5975 -0.1776 -0.7300
  949MOL0     C30853   2.055  -0.066   6.218  0.3975  0.4548 -0.3286
  949MOL0     C30854   2.125  -0.074   6.351 -0.0715 -0.0841  0.4654
  949MOL0     O30855   2.203  -0.186   6.356 -0.1510  0.2047 -0.0857
  949MOL0     C30856   2.266  -0.206   6.480  0.0812 -0.5429  0.3296
  949MOL0     C30857   2.406  -0.206   6.484  1.2842 -0.9220 -0.0118
  949MOL0     C30858   2.471  -0.269   6.592 -0.1028 -0.2446 -0.1162
  949MOL0     C30859   2.398  -0.313   6.702  0.3594 -0.5384  0.0322
  949MOL0     O30860   2.471  -0.361   6.803  0.5903  0.0015  0.4281
  949MOL0     C30861   2.418  -0.383   6.934 -0.1749  0.1318 -0.4825
  949MOL0     C30862   2.517  -0.435   7.033 -0.3982 -0.0105 -0.4440
  949MOL0     C30863   2.650  -0.346   7.048  0.9483 -0.0452 -0.6936
  949MOL0     C30864   2.715  -0.371   7.181  1.0786  0.0731 -0.7894
  949MOL0     C30865   2.618  -0.332   7.295 -0.0998 -0.3103  0.4439
  949MOL0     C30866   2.684  -0.318   7.433  0.2902 -0.8137 -0.2239
  949MOL0     C30867   2.590  -0.280   7.557  0.2527  0.2918 -0.1221
  949MOL0     C30868   2.679  -0.277   7.678  0.0364 -0.0982 -0.2105
  949MOL0    Cl30869   2.633  -0.140   7.777 -0.0599  0.0653 -0.2768
  949MOL0     C30870   2.257  -0.317   6.691 -0.7118  0.1585  0.3810
  949MOL0     C30871   2.190  -0.261   6.575  0.2211  0.7025 -1.0365
  949MOL0     O30872   2.114   0.008   6.448 -0.3261 -0.5500  0.2059
  949MOL0     C30873   2.105  -0.134   6.100  0.0595  0.1465  0.2984
  949MOL0     C30874   2.040  -0.136   5.976  0.2372 -0.4071 -0.3433
  949MOL0     N30875   1.447   0.285   5.574  0.3053 -0.2041  0.7619
  949MOL0     N30876   1.438   0.313   5.447  0.2538 -0.8500 -0.3805
  949MOL0     C30877   1.584   0.258   4.688  0.6467  0.0980 -0.6976
  949MOL0     C30878   1.588   0.396   4.721 -0.2777  0.3641 -0.7288
  949MOL0     C30879   1.570   0.791   4.923  0.7833 -0.0105 -0.1794
  949MOL0     C30880   1.602   0.864   4.812 -0.6259 -0.1461 -0.1362
  949MOL0     C30881   1.613   1.004   4.827  0.4739 -0.1564 -0.1373
  949MOL0     C30882   1.582   1.067   4.954  0.2502 -0.5035 -0.0443
  949MOL0     O30883   1.587   1.198   4.993  0.7447  0.1989  0.0875
  949MOL0     C30884   1.625   1.292   4.889  0.8813 -0.6261  0.4196
  949MOL0     C30885   1.626   1.437   4.938  0.6673 -0.3471 -0.1833
  949MOL0     C30886   1.475   1.506   4.941 -0.2742  0.0884  0.1535
  949MOL0     C30887   1.481   1.655   4.912 -0.5560 -0.3816  0.6977
  949MOL0     C30888   1.482   1.681   4.770 -0.0902 -0.8664  0.1172
  949MOL0     C30889   1.480   1.706   4.653 -0.3309  0.7142 -0.3847
  949MOL0     C30890   1.532   0.991   5.057 -0.1414 -0.6384 -0.4468
  949MOL0     C30891   1.530   0.854   5.043  0.5423 -0.0199  0.0621
  949MOL0     C30892   1.498   0.786   5.175  0.1630 -0.8020  1.1592
  949MOL0     H30893   1.362   0.402   4.970 -1.4835 -0.1598 -1.3331
  949MOL0     H30894   1.372   0.163   4.937  0.7087 -0.5817  0.2587
  949MOL0     H30895   1.645  -0.004   4.596  0.1094  1.5492  0.4772
  949MOL0     H30896   1.595  -0.146   4.693  1.5831 -0.2696  0.3716
  949MOL0     H30897   1.812  -0.093   4.746  0.6838 -2.6898  3.7714
  949MOL0     H30898   1.774   0.056   4.817  2.9559 -1.8888  0.2852
  949MOL0     H30899   1.633  -0.202   4.883 -0.6599  2.0664 -2.9669
  949MOL0     H30900   1.783  -0.153   4.968  0.8751 -0.0982 -2.1645
  949MOL0     H30901   1.511  -0.013   4.987  1.9047  1.5378 -3.6131
  949MOL0     H30902   1.585  -0.125   5.096  4.4236 -0.6098  0.6554
  949MOL0     H30903   1.718   0.128   4.995  2.0620 -2.0066 -1.4896
  949MOL0     H30904   1.779   0.041   5.134  1.2867 -0.4059 -2.2533
  949MOL0     H30905   1.515   0.195   5.122  1.3961 -1.4779 -0.6950
  949MOL0     H30906   1.580   0.102   5.264 -1.6239  0.8742 -0.2630
  949MOL0     H30907   1.716   0.333   5.116 -0.3476  0.0520 -0.1038
  949MOL0     H30908   1.781   0.258   5.262 -0.9539 -0.8481  1.9924
  949MOL0     H30909   1.688   0.485   5.308 -1.0748  2.1290 -2.3498
  949MOL0     H30910   1.553   0.455   5.220  3.9729  2.1683 -2.0508
  949MOL0     H30911   1.755   0.353   5.528 -0.0491  0.3683  2.9171
  949MOL0     H30912   1.543   0.280   5.845  0.6154 -1.8470  0.8638
  949MOL0     H30913   1.680   0.379   5.798  0.7956  0.3407  0.0775
  949MOL0     H30914   1.798   0.168   5.724  2.1927 -2.3354  1.2605
  949MOL0     H30915   1.740   0.165   5.894  1.5318  2.4639 -0.5079
  949MOL0     H30916   1.539   0.019   5.749  0.2881  2.3719  0.4043
  949MOL0     H30917   1.683   0.001   5.648  0.6034 -3.3175  1.0350
  949MOL0     H30918   1.653  -0.085   5.932 -1.3414  2.1186  0.4599
  949MOL0     H30919   1.662  -0.180   5.780 -2.2416  0.5641 -0.5714
  949MOL0     H30920   1.770   0.037   6.060 -0.9965 -1.0047  0.2434
  949MOL0     H30921   1.924   0.160   6.307  0.1067  0.1744 -2.0625
  949MOL0     H30922   1.860   0.030   6.409  1.0499  3.3867  0.8318
  949MOL0     H30923   1.758   0.093   6.284  0.9696 -0.0853 -2.4291
  949MOL0     H30924   2.447  -0.177   6.388 -1.2074  1.0054 -0.6234
  949MOL0     H30925   2.579  -0.260   6.593 -0.1901  1.6849 -1.9792
  949MOL0     H30926   2.366  -0.293   6.967  2.8419  2.2999 -1.2845
  949MOL0     H30927   2.347  -0.467   6.925  2.3873 -2.5171  1.8517
  949MOL0     H30928   2.458  -0.457   7.123 -4.1312 -0.2932 -2.7298
  949MOL0     H30929   2.552  -0.528   6.987 -3.3238 -1.3338 -0.2266
  949MOL0     H30930   2.619  -0.241   7.048 -1.8624 -0.7755  0.5309
  949MOL0     H30931   2.708  -0.366   6.957  0.1786  0.5516 -1.3278
  949MOL0     H30932   2.802  -0.306   7.198  0.0564  2.2270 -3.1313
  949MOL0     H30933   2.744  -0.476   7.191 -1.9806 -0.7663  0.8347
  949MOL0     H30934   2.573  -0.235   7.269 -0.9835 -0.1098  2.5162
  949MOL0     H30935   2.531  -0.398   7.304  0.4355 -1.1873 -0.6937
  949MOL0     H30936   2.751  -0.232   7.425 -1.2424  0.3449 -1.2707
  949MOL0     H30937   2.749  -0.405   7.447  0.2421 -0.5336  2.2536
  949MOL0     H30938   2.519  -0.362   7.567  0.6782 -0.5392 -2.9859
  949MOL0     H30939   2.534  -0.190   7.531 -1.1690 -0.1609  1.2397
  949MOL0     H30940   2.780  -0.257   7.639  0.0271 -3.0892 -2.1219
  949MOL0     H30941   2.682  -0.369   7.737  0.2893  0.3444  0.4832
  949MOL0     H30942   2.190  -0.341   6.773 -1.4838  2.2296  0.4210
  949MOL0     H30943   2.081  -0.257   6.584  0.3149 -0.7305  3.3943
  949MOL0     H30944   2.206  -0.171   6.114  1.3650  2.0982 -2.7979
  949MOL0     H30945   2.093  -0.180   5.891  1.8624 -1.0666  0.9536
  949MOL0     H30946   1.653   0.220   4.614  0.5864  1.6059 -1.5803
  949MOL0     H30947   1.650   0.465   4.664  2.1502  0.0875  1.3749
  949MOL0     H30948   1.611   0.819   4.714  3.1536  2.5097 -1.2203
  949MOL0     H30949   1.622   1.067   4.739 -2.5774  1.6474  0.7101
  949MOL0     H30950   1.728   1.266   4.864  1.2726 -0.9118  2.1456
  949MOL0     H30951   1.563   1.289   4.799  0.8335  1.7373  0.3280
  949MOL0     H30952   1.685   1.497   4.869 -1.5413  1.7853 -0.3665
  949MOL0     H30953   1.678   1.447   5.033 -1.1565 -0.7390  0.9148
  949MOL0     H30954   1.410   1.463   4.865  2.0693 -0.3972 -1.7114
  949MOL0     H30955   1.443   1.489   5.044  0.6430 -1.3419  0.2432
  949MOL0     H30956   1.572   1.687   4.964  0.1232  2.7874 -2.0738
  949MOL0     H30957   1.395   1.711   4.952  2.4085  4.3821  1.2181
  949MOL0     H30958   1.490   1.715   4.546 -0.7102  2.5492 -0.3116
  949MOL0     H30959   1.493   1.038   5.147  1.1312 -3.1644  1.5427
  949MOL0     H30960   1.489   0.678   5.162  1.5203 -0.9468  1.2819
  949MOL0     H30961   1.581   0.804   5.244  0.8712 -2.7687  0.8946
  949MOL0     H30962   1.398   0.818   5.206  0.1885 -0.6685  1.1023
  950MOL0     O30963   7.446   0.254   4.362  0.4158 -0.5289  0.2970
  950MOL0     C30964   7.556   0.315   4.350  0.7202 -0.7533 -0.1727
  950MOL0     O30965   7.612   0.392   4.450 -0.0755 -0.5512 -0.5218
  950MOL0     C30966   7.566   0.385   4.581 -0.4290  0.4717 -0.1152
  950MOL0     C30967   7.436   0.430   4.617 -0.3161 -0.7918 -0.0716
  950MOL0     C30968   7.402   0.472   4.747 -0.3304  0.0686  0.5364
  950MOL0     C30969   7.497   0.441   4.849  0.9583 -0.3171  0.6785
  950MOL0     O30970   7.480   0.462   4.985  0.0405  0.1045 -0.0935
  950MOL0     C30971   7.365   0.541   5.031  0.1139  0.5408  0.0044
  950MOL0     C30972   7.354   0.562   5.189  0.2737  0.1541  1.0324
  950MOL0     C30973   7.472   0.634   5.253 -0.5578  0.4522 -0.6293
  950MOL0     C30974   7.575   0.528   5.301 -0.2735  1.1786  0.3009
  950MOL0     C30975   7.705   0.594   5.355  0.6970 -0.7399  0.3783
  950MOL0     C30976   7.801   0.490   5.397 -0.2961 -0.4472 -0.5904
  950MOL0     C30977   7.943   0.547   5.437  0.1751 -0.1621 -0.6062
  950MOL0     C30978   7.940   0.598   5.584 -0.2640  0.3261 -0.0668
  950MOL0     N30979   8.002   0.730   5.605 -0.0461 -0.1642  0.0088
  950MOL0     C30980   7.966   0.854   5.554 -0.7225  0.1569  0.5340
  950MOL0     C30981   8.073   0.930   5.561  0.4202  0.1442  0.4948
  950MOL0     C30982   8.083   1.078   5.551  0.1304 -0.0386 -0.7751
  950MOL0     C30983   8.121   1.155   5.685  0.0600 -0.0719 -0.5045
  950MOL0     C30984   8.005   1.224   5.748  0.5120 -0.4543 -0.2756
  950MOL0     C30985   7.900   1.123   5.786  0.8091 -0.0794 -0.1971
  950MOL0     O30986   7.803   1.073   5.684 -0.2122 -0.2523  0.7492
  950MOL0     C30987   7.696   1.157   5.650 -0.7660 -0.1414  0.0429
  950MOL0     C30988   7.613   1.094   5.553 -0.5797 -0.0409  0.6481
  950MOL0     C30989   7.504   1.160   5.506  0.7756  0.3592  0.6194
  950MOL0     C30990   7.436   1.082   5.397  0.1441 -0.5522  0.0071
  950MOL0     C30991   7.467   1.283   5.560  0.2031  0.9331  0.2220
  950MOL0     C30992   7.341   1.355   5.523 -1.2125 -0.6728  0.4325
  950MOL0     O30993   7.286   1.429   5.621  0.3106  0.6285 -0.9668
  950MOL0     C30994   7.168   1.502   5.594  0.1335  0.4206 -0.0414
  950MOL0     C30995   7.061   1.489   5.670 -0.1979  0.5928 -0.3863
  950MOL0     C30996   6.947   1.570   5.649 -0.9391 -0.9529 -0.1756
  950MOL0     C30997   6.943   1.670   5.555  0.0572 -0.4732 -0.7036
  950MOL0     O30998   6.827   1.729   5.545  0.7284  0.1936  0.1504
  950MOL0     C30999   6.805   1.850   5.469  0.1367  0.0557 -0.8181
  950MOL0     C31000   6.652   1.856   5.436  0.1485  0.2937  0.0004
  950MOL0     C31001   6.621   1.994   5.379 -0.5994 -0.5407 -0.5553
  950MOL0     C31002   6.614   1.981   5.222 -0.1425 -0.1746 -1.2221
  950MOL0     C31003   6.644   2.105   5.144  0.1788 -0.3072 -0.1512
  950MOL0     C31004   6.516   2.184   5.121  0.8442  0.8477 -0.1708
  950MOL0     C31005   6.448   2.143   4.992  0.3159  0.1768 -0.9133
  950MOL0     C31006   6.337   2.246   4.970  0.2583 -0.5333 -0.6643
  950MOL0    Cl31007   6.248   2.208   4.825 -0.0334 -0.1182  0.0811
  950MOL0     C31008   7.053   1.681   5.466  0.2083  0.1750 -0.8999
  950MOL0     C31009   7.167   1.597   5.497 -0.2288 -0.3695  0.8622
  950MOL0     O31010   7.298   1.337   5.408  0.2483 -0.4188 -0.4468
  950MOL0     C31011   7.548   1.332   5.665  0.3969  0.8709 -0.5074
  950MOL0     C31012   7.659   1.282   5.708  0.0270  0.2207 -0.6048
  950MOL0     N31013   8.182   0.850   5.592  0.1583  0.5713  0.0937
  950MOL0     N31014   8.140   0.734   5.623  0.4260  0.3911  0.1935
  950MOL0     C31015   7.619   0.379   4.819  0.8982 -0.2691  0.1763
  950MOL0     C31016   7.655   0.358   4.687 -0.0304 -0.3051  1.0454
  950MOL0     C31017   7.634   0.321   4.225 -0.8663 -0.9937  0.1834
  950MOL0     C31018   7.701   0.448   4.195  0.3767 -0.1321  0.4557
  950MOL0     C31019   7.787   0.459   4.084  0.0362  0.2498 -0.2326
  950MOL0     C31020   7.802   0.357   4.006 -0.2865  0.0730  0.4039
  950MOL0     O31021   7.886   0.359   3.899  0.0471 -0.1514  0.4068
  950MOL0     C31022   7.981   0.456   3.862 -0.0271 -0.8489  0.0867
  950MOL0     C31023   8.103   0.427   3.954 -0.0743 -0.0436  0.6696
  950MOL0     C31024   8.233   0.475   3.898 -0.0077 -0.4980 -0.0672
  950MOL0     C31025   8.337   0.473   4.010 -0.3544 -0.8220 -1.2068
  950MOL0     C31026   8.470   0.458   3.965 -0.0933  0.6209  0.7764
  950MOL0     C31027   8.577   0.427   3.913  0.0752 -0.5118 -0.4382
  950MOL0     C31028   7.730   0.231   4.024 -0.4789  0.2370 -0.3143
  950MOL0     C31029   7.650   0.212   4.139  0.1440 -0.1067  0.3142
  950MOL0     C31030   7.596   0.073   4.157 -0.7599  0.0446 -0.2456
  950MOL0     H31031   7.357   0.441   4.543  0.2181 -0.2963 -0.5752
  950MOL0     H31032   7.304   0.510   4.771  0.7958  3.3787  0.3798
  950MOL0     H31033   7.280   0.477   5.008  0.1207  0.2898  0.6467
  950MOL0     H31034   7.346   0.628   4.968 -0.9087  0.6052  0.3824
  950MOL0     H31035   7.259   0.605   5.221 -1.2190 -1.8234 -0.5025
  950MOL0     H31036   7.356   0.462   5.234  1.2082  0.0127  0.6939
  950MOL0     H31037   7.524   0.703   5.186  0.9945 -1.4432 -1.4868
  950MOL0     H31038   7.437   0.689   5.341 -1.1783 -2.1297  0.8206
  950MOL0     H31039   7.537   0.464   5.381  1.3849  1.5977  1.4747
  950MOL0     H31040   7.584   0.470   5.208 -1.0107  2.2356 -0.4521
  950MOL0     H31041   7.689   0.667   5.436  1.6736  0.2991 -0.3299
  950MOL0     H31042   7.750   0.659   5.279 -1.0651 -0.9841 -0.9534
  950MOL0     H31043   7.749   0.433   5.474  0.8351 -3.5343 -1.9277
  950MOL0     H31044   7.818   0.420   5.315 -2.3926 -1.7976  0.0691
  950MOL0     H31045   7.971   0.622   5.362 -3.2812  0.0797 -1.8395
  950MOL0     H31046   8.016   0.466   5.430 -0.2783 -0.4843 -1.8535
  950MOL0     H31047   7.836   0.610   5.614 -0.3158  0.6788 -0.3875
  950MOL0     H31048   7.987   0.519   5.644 -0.7669 -0.2248 -0.3841
  950MOL0     H31049   7.868   0.892   5.527  0.3971  0.6470 -3.4503
  950MOL0     H31050   7.989   1.112   5.506  0.1481 -0.0808 -0.8446
  950MOL0     H31051   8.163   1.094   5.478  1.5666 -1.6528  0.3556
  950MOL0     H31052   8.178   1.089   5.752  2.6773  2.4470 -0.0531
  950MOL0     H31053   8.195   1.234   5.666 -0.1032  1.2515  3.4400
  950MOL0     H31054   8.032   1.270   5.843 -1.0199  2.1683 -1.0109
  950MOL0     H31055   7.958   1.300   5.684 -0.3378 -0.9745 -0.2820
  950MOL0     H31056   7.952   1.040   5.835  2.6957  2.8510  3.2333
  950MOL0     H31057   7.833   1.162   5.863 -1.2576 -5.8971  1.4828
  950MOL0     H31058   7.640   0.995   5.517 -2.6931 -0.7172  0.8160
  950MOL0     H31059   7.445   1.140   5.304  1.6794 -0.8781 -0.0574
  950MOL0     H31060   7.331   1.069   5.427  0.2540  1.1088  1.2560
  950MOL0     H31061   7.479   0.983   5.380 -1.7188 -1.1419 -1.6892
  950MOL0     H31062   7.058   1.414   5.749 -3.1914 -0.0642 -1.0083
  950MOL0     H31063   6.859   1.552   5.710 -1.2693 -0.3924 -0.4844
  950MOL0     H31064   6.825   1.941   5.526 -0.3650  0.6975 -1.6453
  950MOL0     H31065   6.858   1.855   5.374 -1.1372  3.2649 -1.4762
  950MOL0     H31066   6.614   1.781   5.367 -1.0877  1.1960 -0.3408
  950MOL0     H31067   6.598   1.848   5.531  2.3198  1.2085  1.4051
  950MOL0     H31068   6.694   2.071   5.406  0.4385 -1.0103 -1.9536
  950MOL0     H31069   6.522   2.029   5.412 -0.2582 -0.0927  0.0163
  950MOL0     H31070   6.528   1.931   5.176 -0.5052 -1.6048  0.8299
  950MOL0     H31071   6.693   1.911   5.192 -1.5342 -2.7445  0.7100
  950MOL0     H31072   6.713   2.175   5.192 -0.0109  1.8203 -2.7369
  950MOL0     H31073   6.686   2.086   5.044  5.0877  2.4614  1.0300
  950MOL0     H31074   6.548   2.288   5.106 -0.9237  1.6436  1.1561
  950MOL0     H31075   6.447   2.165   5.204 -0.8108  2.0802 -1.1873
  950MOL0     H31076   6.407   2.041   4.988 -0.2201  0.3996 -1.3502
  950MOL0     H31077   6.512   2.145   4.903 -0.7329 -0.7443 -1.7232
  950MOL0     H31078   6.378   2.347   4.968 -0.3736 -0.2732 -1.6709
  950MOL0     H31079   6.281   2.235   5.063  1.3727 -0.2471  0.0590
  950MOL0     H31080   7.063   1.759   5.392  3.0809 -1.4140 -2.3475
  950MOL0     H31081   7.256   1.620   5.440  0.0085  1.9647  2.0873
  950MOL0     H31082   7.515   1.424   5.712  0.3413  2.4937 -3.4477
  950MOL0     H31083   7.721   1.323   5.787  0.6262  0.8857 -1.4053
  950MOL0     H31084   7.693   0.364   4.897  1.2545  0.1744 -0.0664
  950MOL0     H31085   7.754   0.338   4.646  1.3874  4.5678  1.4932
  950MOL0     H31086   7.678   0.529   4.263 -0.5503 -1.5461  1.9072
  950MOL0     H31087   7.819   0.562   4.073 -2.7096  1.0464 -1.6531
  950MOL0     H31088   8.009   0.447   3.757  0.6576 -0.1477  0.1990
  950MOL0     H31089   7.948   0.559   3.877  2.1615 -0.2081  0.9915
  950MOL0     H31090   8.112   0.321   3.979  2.8640  0.0260  0.2800
  950MOL0     H31091   8.085   0.486   4.044  3.2777  2.2788  0.0059
  950MOL0     H31092   8.267   0.413   3.815 -0.2167 -0.3289 -0.2816
  950MOL0     H31093   8.233   0.575   3.854  4.1143 -0.3919 -0.2166
  950MOL0     H31094   8.314   0.392   4.080  0.1667 -0.6446 -0.8234
  950MOL0     H31095   8.324   0.570   4.060 -1.3707 -1.3084 -0.5011
  950MOL0     H31096   8.669   0.377   3.890  0.6285 -0.2915  1.2176
  950MOL0     H31097   7.756   0.151   3.955 -0.3330 -0.0763  0.1060
  950MOL0     H31098   7.571   0.062   4.263  2.0597  3.8419  1.0478
  950MOL0     H31099   7.507   0.054   4.095 -0.9446  0.4228 -0.1000
  950MOL0     H31100   7.670  -0.002   4.128  0.2935 -0.0633  2.5117
  951MOL0     O31101   4.452   9.453   0.014 -1.2136 -0.3539 -0.6071
  951MOL0     C31102   4.452   9.440  -0.107 -0.4225  0.0898  0.0748
  951MOL0     O31103   4.523   9.516  -0.201 -0.0726  0.2875  0.3961
  951MOL0     C31104   4.624   9.601  -0.163 -0.2847  0.0319  0.5203
  951MOL0     C31105   4.609   9.692  -0.059 -0.1870  0.4634 -0.6480
  951MOL0     C31106   4.707   9.783  -0.029 -0.5442 -0.0660 -0.7308
  951MOL0     C31107   4.825   9.785  -0.097 -0.9028 -0.1522  0.8465
  951MOL0     O31108   4.917   9.880  -0.061 -0.7890 -0.2574  0.6085
  951MOL0     C31109   5.045   9.893  -0.130  0.2488  1.2153 -0.3756
  951MOL0     C31110   5.124  10.016  -0.078 -0.6423  0.7082  0.1208
  951MOL0     C31111   5.100  10.143  -0.148  0.2889  0.2598 -0.1034
  951MOL0     C31112   5.146  10.264  -0.060 -0.3901  0.0358  0.1107
  951MOL0     C31113   5.135  10.393  -0.139  0.1939  0.1727  0.4044
  951MOL0     C31114   5.220  10.507  -0.070 -0.5112 -0.0754  0.4618
  951MOL0     C31115   5.240  10.621  -0.175 -0.1477 -0.1625  0.1241
  951MOL0     C31116   5.285  10.744  -0.090  0.4201  0.4948  0.6163
  951MOL0     N31117   5.168  10.827  -0.050 -0.5917  0.3632  0.3597
  951MOL0     C31118   5.086  10.902  -0.135  0.7558  0.3955 -0.2363
  951MOL0     C31119   4.999  10.971  -0.059 -0.5080 -0.4797  0.5491
  951MOL0     C31120   4.885  11.067  -0.116 -0.0447  0.0964 -0.1490
  951MOL0     C31121   4.758  11.053  -0.031  0.6543 -0.1904 -0.1499
  951MOL0     C31122   4.664  11.170  -0.021  0.0614 -0.1977  0.5439
  951MOL0     C31123   4.627  11.223  -0.161 -0.3869  0.8391  0.8076
  951MOL0     O31124   4.582  11.362  -0.157  0.0405 -0.4469  0.2689
  951MOL0     C31125   4.503  11.398  -0.266  0.0583  0.0628 -0.1559
  951MOL0     C31126   4.558  11.408  -0.387  0.4218 -0.2368  0.2418
  951MOL0     C31127   4.483  11.464  -0.498  1.4433  1.4994 -0.6140
  951MOL0     C31128   4.553  11.498  -0.624 -0.2043 -0.2340 -0.5086
  951MOL0     C31129   4.340  11.476  -0.485  0.0639 -0.1269  0.1540
  951MOL0     C31130   4.250  11.521  -0.592  0.0194 -0.2284 -0.3488
  951MOL0     O31131   4.131  11.579  -0.560  0.5581 -0.4919 -0.0197
  951MOL0     C31132   4.029  11.572  -0.650  0.7896  0.2002 -0.8077
  951MOL0     C31133   4.028  11.633  -0.775  0.0119 -0.1672  0.0718
  951MOL0     C31134   3.904  11.640  -0.849 -0.0117  0.0103  0.3129
  951MOL0     C31135   3.790  11.568  -0.812 -0.0171 -0.3413 -0.3951
  951MOL0     O31136   3.669  11.587  -0.883 -0.1862 -0.0384  0.2172
  951MOL0     C31137   3.566  11.489  -0.866 -0.1208 -0.5533  0.1296
  951MOL0     C31138   3.478  11.479  -0.987  0.3815  0.2824 -0.7635
  951MOL0     C31139   3.394  11.607  -1.001 -0.2084 -0.0305 -0.4011
  951MOL0     C31140   3.303  11.581  -1.114  0.4037 -0.0715  0.5037
  951MOL0     C31141   3.244  11.708  -1.176  1.3031  0.0504  0.3007
  951MOL0     C31142   3.147  11.665  -1.281  0.3375 -0.2849  1.0188
  951MOL0     C31143   3.044  11.772  -1.314 -0.3467  0.3310 -0.8586
  951MOL0     C31144   3.097  11.873  -1.417  0.8863 -0.4413 -0.4013
  951MOL0    Cl31145   2.974  11.993  -1.478  0.1325  0.0865  0.1289
  951MOL0     C31146   3.794  11.508  -0.687 -0.5733 -0.3353 -0.8624
  951MOL0     C31147   3.910  11.516  -0.606 -0.1477  1.3204  0.7511
  951MOL0     O31148   4.283  11.503  -0.704 -0.7085  0.3024  0.5047
  951MOL0     C31149   4.282  11.438  -0.360 -0.5884  0.7448  0.5895
  951MOL0     C31150   4.359  11.404  -0.251 -0.6624  0.4921 -0.4991
  951MOL0     N31151   5.020  10.938   0.071 -0.0380 -0.9169 -0.0988
  951MOL0     N31152   5.124  10.859   0.073  0.9475 -0.4405 -0.4898
  951MOL0     C31153   4.844   9.696  -0.207  0.2983 -0.8695 -0.5002
  951MOL0     C31154   4.745   9.603  -0.230 -0.2284 -0.3208  0.9111
  951MOL0     C31155   4.351   9.338  -0.165 -0.8249  0.5855 -0.2421
  951MOL0     C31156   4.343   9.324  -0.299  0.9680 -0.5332  0.1928
  951MOL0     C31157   4.253   9.246  -0.364  1.1988  0.0581  0.3862
  951MOL0     C31158   4.147   9.181  -0.297 -0.2344 -0.2220 -1.0070
  951MOL0     O31159   4.051   9.100  -0.358  0.0849 -0.4145  0.7271
  951MOL0     C31160   4.060   9.103  -0.499 -0.0529  0.1232  0.0214
  951MOL0     C31161   3.993   9.230  -0.569 -0.3794 -1.0673 -0.2875
  951MOL0     C31162   3.845   9.239  -0.544 -0.3166 -0.1636  1.2654
  951MOL0     C31163   3.813   9.285  -0.407  0.1602  0.1691 -0.1514
  951MOL0     C31164   3.846   9.420  -0.382 -0.9581 -0.0089  0.3338
  951MOL0     C31165   3.873   9.541  -0.376  0.0306  0.0096  0.1614
  951MOL0     C31166   4.143   9.189  -0.155 -0.0190 -0.3154 -0.3667
  951MOL0     C31167   4.242   9.271  -0.094  0.0074 -1.2309 -0.2322
  951MOL0     C31168   4.236   9.268   0.055  0.1111  0.4471 -1.1078
  951MOL0     H31169   4.521   9.699   0.005  1.2845  1.3018  1.3824
  951MOL0     H31170   4.688   9.834   0.065  1.8006 -1.0668  0.3791
  951MOL0     H31171   5.024   9.902  -0.237  0.8714  0.5023 -0.5662
  951MOL0     H31172   5.100   9.798  -0.125 -1.2626  0.2813 -0.6366
  951MOL0     H31173   5.122  10.024   0.031 -1.1659 -1.4496  0.3196
  951MOL0     H31174   5.226   9.986  -0.106 -1.6177 -2.0481 -0.7583
  951MOL0     H31175   5.149  10.151  -0.246 -1.4338  1.7757 -0.9154
  951MOL0     H31176   4.993  10.147  -0.170  0.2182 -2.6221 -0.6490
  951MOL0     H31177   5.073  10.255   0.021  0.5060  1.0810  1.0635
  951MOL0     H31178   5.246  10.237  -0.028 -0.4733 -0.3030  0.0808
  951MOL0     H31179   5.032  10.429  -0.143 -0.1595 -0.3315  3.2698
  951MOL0     H31180   5.175  10.371  -0.239 -1.3368 -0.9719  0.0012
  951MOL0     H31181   5.183  10.530   0.030  0.3250 -0.4943  0.8830
  951MOL0     H31182   5.324  10.477  -0.054  0.4780  2.2023 -1.1103
  951MOL0     H31183   5.157  10.650  -0.240  0.1360 -0.7906 -0.5387
  951MOL0     H31184   5.320  10.581  -0.238  0.7236  3.4173 -1.2705
  951MOL0     H31185   5.332  10.704   0.001 -1.7408 -0.6889  1.2688
  951MOL0     H31186   5.357  10.810  -0.140  2.2158  0.0320  2.4516
  951MOL0     H31187   5.086  10.890  -0.243  0.4665 -1.3810 -0.0627
  951MOL0     H31188   4.867  11.054  -0.223 -0.8594  1.2213 -0.1555
  951MOL0     H31189   4.933  11.165  -0.109  1.1226 -0.4044 -0.6923
  951MOL0     H31190   4.702  10.982  -0.092  0.5794 -0.2608  0.0021
  951MOL0     H31191   4.761  11.005   0.067  1.3209 -1.5116 -0.7938
  951MOL0     H31192   4.576  11.137   0.035 -1.4158  3.2972  0.4810
  951MOL0     H31193   4.720  11.238   0.043 -0.1296 -1.7488  2.4782
  951MOL0     H31194   4.719  11.218  -0.219 -0.5187 -1.6353  0.7277
  951MOL0     H31195   4.557  11.153  -0.207  1.4871 -0.8197  0.3420
  951MOL0     H31196   4.665  11.402  -0.401  0.4772  2.2873 -1.0587
  951MOL0     H31197   4.500  11.457  -0.710 -0.8013  0.6967 -0.5977
  951MOL0     H31198   4.655  11.459  -0.614  0.3208  1.5734  2.3253
  951MOL0     H31199   4.545  11.607  -0.626  2.2183  0.1600  2.7258
  951MOL0     H31200   4.122  11.679  -0.806  0.1445  0.0288  0.7355
  951MOL0     H31201   3.890  11.705  -0.934  1.2967  1.8754  1.4541
  951MOL0     H31202   3.612  11.390  -0.859 -0.5532 -0.8113 -0.5839
  951MOL0     H31203   3.504  11.497  -0.777 -0.7517 -3.6618  0.0658
  951MOL0     H31204   3.531  11.460  -1.080  1.9485 -2.5641  0.5949
  951MOL0     H31205   3.415  11.391  -0.973  0.2344  0.4843 -0.0896
  951MOL0     H31206   3.451  11.699  -1.018 -1.8169  1.2222  0.5323
  951MOL0     H31207   3.325  11.628  -0.918 -2.5545  0.0157 -2.2495
  951MOL0     H31208   3.224  11.508  -1.093 -0.9362  0.7307 -1.4463
  951MOL0     H31209   3.364  11.533  -1.192  1.8274 -0.4437  1.7958
  951MOL0     H31210   3.182  11.753  -1.098  2.3417  2.6552 -0.2896
  951MOL0     H31211   3.322  11.777  -1.209  0.9191 -0.7166 -2.4673
  951MOL0     H31212   3.089  11.577  -1.253  1.0293 -1.0682  0.0846
  951MOL0     H31213   3.198  11.633  -1.372  0.6103  0.0680  1.0434
  951MOL0     H31214   3.020  11.818  -1.217  3.4380 -2.5266  1.7414
  951MOL0     H31215   2.953  11.723  -1.347  0.6371 -2.3426  0.1665
  951MOL0     H31216   3.150  11.838  -1.506 -2.6626 -2.5500 -1.9038
  951MOL0     H31217   3.164  11.940  -1.362 -0.1113  1.3656 -1.3149
  951MOL0     H31218   3.709  11.459  -0.641  0.4309 -0.1457  1.3637
  951MOL0     H31219   3.912  11.461  -0.513 -0.5419 -1.5773 -0.8367
  951MOL0     H31220   4.175  11.418  -0.365  0.0407 -2.9085 -1.8659
  951MOL0     H31221   4.311  11.380  -0.156 -0.3485 -1.1255 -0.7259
  951MOL0     H31222   4.936   9.677  -0.262 -0.5038 -1.5721 -1.6516
  951MOL0     H31223   4.759   9.533  -0.312  0.2576 -0.0556  0.7617
  951MOL0     H31224   4.408   9.384  -0.362 -2.1791  0.2229 -2.6041
  951MOL0     H31225   4.288   9.248  -0.466  1.6265 -0.4403  0.5230
  951MOL0     H31226   4.157   9.101  -0.548  0.2224  2.5261  0.3499
  951MOL0     H31227   4.010   9.009  -0.525  2.0129 -1.5575  1.6814
  951MOL0     H31228   4.017   9.213  -0.675 -0.6482 -3.7572  0.0068
  951MOL0     H31229   4.061   9.313  -0.547 -0.5092 -0.0245 -3.3365
  951MOL0     H31230   3.794   9.307  -0.613  0.1282 -0.8216  0.2586
  951MOL0     H31231   3.796   9.143  -0.564 -0.0919  0.0206 -0.3076
  951MOL0     H31232   3.869   9.231  -0.331 -1.4701 -2.4089 -0.6525
  951MOL0     H31233   3.713   9.260  -0.370  0.8255  2.0877  3.3112
  951MOL0     H31234   3.879   9.648  -0.377 -0.5960  0.1300  2.5945
  951MOL0     H31235   4.055   9.143  -0.113 -0.4423  0.5369 -0.2914
  951MOL0     H31236   4.336   9.249   0.093 -0.7628 -1.9694  0.2000
  951MOL0     H31237   4.196   9.362   0.097 -0.4356 -0.7362  1.2128
  951MOL0     H31238   4.178   9.181   0.088  3.1900 -1.4045 -0.1887
  952MOL0     O31239   9.353  11.268   8.145  0.4196 -0.2442  0.6818
  952MOL0     C31240   9.381  11.155   8.107  1.2558 -0.3697 -0.1930
  952MOL0     O31241   9.385  11.045   8.187 -0.0471  0.7530  0.4141
  952MOL0     C31242   9.358  11.044   8.322  0.0039  0.0450  0.0956
  952MOL0     C31243   9.255  10.958   8.370  0.1033  0.3853  0.8208
  952MOL0     C31244   9.237  10.945   8.506  0.1658  1.0139  0.4129
  952MOL0     C31245   9.326  11.022   8.587 -0.4858 -0.3172  0.1820
  952MOL0     O31246   9.319  11.030   8.727 -0.3381 -0.6262  0.0716
  952MOL0     C31247   9.213  10.967   8.810 -0.4073 -0.6857 -0.0749
  952MOL0     C31248   9.208  11.039   8.942 -0.4217 -0.7894 -0.2827
  952MOL0     C31249   9.347  11.023   9.008 -0.6584  0.3672 -1.0299
  952MOL0     C31250   9.330  11.087   9.153  0.0708 -0.7728  0.5674
  952MOL0     C31251   9.438  11.048   9.254  0.7478 -0.8553  0.1461
  952MOL0     C31252   9.566  11.118   9.223  0.0692  0.2887  0.6065
  952MOL0     C31253   9.683  11.076   9.312 -0.0156 -0.5015 -0.8132
  952MOL0     C31254   9.654  11.127   9.455  0.8030  0.3820  0.1804
  952MOL0     N31255   9.762  11.112   9.549  0.3015  0.2357 -0.1621
  952MOL0     C31256   9.876  11.187   9.548 -0.3715 -0.1071  0.5498
  952MOL0     C31257   9.960  11.143   9.649  0.2874 -0.1640 -0.2204
  952MOL0     C31258  10.098  11.190   9.681 -0.6373  0.0077  0.5334
  952MOL0     C31259  10.096  11.264   9.816  0.1353 -0.0962 -0.0772
  952MOL0     C31260  10.053  11.414   9.808  0.3038  0.5971 -0.4899
  952MOL0     C31261  10.166  11.499   9.772  1.2017 -0.0337  0.4331
  952MOL0     O31262  10.117  11.641   9.742 -0.1104  0.1549 -0.5276
  952MOL0     C31263  10.199  11.734   9.680  0.6563  0.4766  0.0600
  952MOL0     C31264  10.339  11.715   9.679  1.1650  0.2808 -0.0806
  952MOL0     C31265  10.419  11.810   9.619 -1.4453 -0.0068  0.4014
  952MOL0     C31266  10.573  11.790   9.634 -0.3477 -0.5998  1.0150
  952MOL0     C31267  10.366  11.934   9.571 -0.6038  1.1462  0.1853
  952MOL0     C31268  10.450  12.042   9.500  0.1088  0.5305  0.2792
  952MOL0     O31269  10.413  12.163   9.525 -0.2696  0.1686  0.7136
  952MOL0     C31270  10.491  12.282   9.485 -0.2548  0.9278 -0.4040
  952MOL0     C31271  10.424  12.402   9.435 -0.1666 -0.7104 -0.4464
  952MOL0     C31272  10.493  12.513   9.379  0.0175 -0.4415 -0.6652
  952MOL0     C31273  10.633  12.502   9.371  0.3710  0.6136 -0.2404
  952MOL0     O31274  10.685  12.602   9.298 -0.6869 -0.2036 -0.1007
  952MOL0     C31275  10.785  12.555   9.200 -0.3400 -0.3595  0.5531
  952MOL0     C31276  10.858  12.653   9.118 -0.2459 -0.3866 -0.5285
  952MOL0     C31277  10.941  12.742   9.212 -0.2884  0.4479 -0.2246
  952MOL0     C31278  11.038  12.823   9.125  0.3291  0.3522  0.4782
  952MOL0     C31279  11.122  12.918   9.209 -0.5989 -0.5234  0.3647
  952MOL0     C31280  11.083  13.065   9.185  0.4349 -0.1511 -0.0995
  952MOL0     C31281  11.167  13.165   9.253 -0.6814  0.0813 -0.0656
  952MOL0     C31282  11.314  13.149   9.234 -0.0148 -0.2012 -0.0654
  952MOL0    Cl31283  11.375  13.095   9.075 -0.1658  0.2378  0.1874
  952MOL0     C31284  10.703  12.394   9.436  0.0147  1.1543  0.1952
  952MOL0     C31285  10.629  12.283   9.486  0.0079 -0.8391  0.2124
  952MOL0     O31286  10.550  12.010   9.447 -0.1520  0.5402 -0.0784
  952MOL0     C31287  10.226  11.949   9.572  0.5232  0.2194  1.2883
  952MOL0     C31288  10.142  11.852   9.626  1.2066  0.1142  0.3782
  952MOL0     N31289   9.875  11.055   9.722 -0.7921  0.2223 -0.1629
  952MOL0     N31290   9.761  11.047   9.668 -0.9015 -0.0260  0.0532
  952MOL0     C31291   9.420  11.108   8.537  0.8289 -0.0611  0.3194
  952MOL0     C31292   9.434  11.126   8.401  0.0476  0.6966 -0.0166
  952MOL0     C31293   9.401  11.134   7.955 -0.6200  0.7424 -0.4901
  952MOL0     C31294   9.413  11.002   7.904 -0.2506 -0.0862  0.5859
  952MOL0     C31295   9.431  10.969   7.769 -0.5256  0.3461 -0.4666
  952MOL0     C31296   9.431  11.068   7.676 -0.5830 -0.0667  0.1516
  952MOL0     O31297   9.453  11.056   7.538 -0.3646 -0.2354 -0.3138
  952MOL0     C31298   9.380  10.953   7.473 -0.4881  0.4825 -0.5543
  952MOL0     C31299   9.381  10.976   7.321 -0.5270  0.6291  0.3279
  952MOL0     C31300   9.520  10.986   7.257  0.0391 -0.6275  0.0866
  952MOL0     C31301   9.514  11.086   7.146 -0.0742 -0.0708  0.1699
  952MOL0     C31302   9.634  11.066   7.077  1.2471 -0.2403  1.1876
  952MOL0     C31303   9.734  11.067   7.004  0.2353  0.4423 -0.4069
  952MOL0     C31304   9.420  11.203   7.714 -0.0264 -0.0645  1.0882
  952MOL0     C31305   9.419  11.233   7.853  0.3866 -0.2143 -0.1554
  952MOL0     C31306   9.461  11.372   7.884  0.6082  0.4348 -1.2530
  952MOL0     H31307   9.197  10.907   8.294 -0.8451  0.6535  1.3479
  952MOL0     H31308   9.167  10.881   8.558  0.4456 -0.3984 -0.8830
  952MOL0     H31309   9.227  10.859   8.820  1.8364 -0.7248 -2.5154
  952MOL0     H31310   9.113  10.977   8.766  0.2524  0.7664 -1.3132
  952MOL0     H31311   9.183  11.145   8.934  2.6827 -0.0582 -2.0327
  952MOL0     H31312   9.133  10.995   9.008 -1.4529  3.6880  1.8991
  952MOL0     H31313   9.369  10.916   9.021 -0.2540  0.6527  0.9372
  952MOL0     H31314   9.424  11.086   8.963  1.0065  0.1980  1.3824
  952MOL0     H31315   9.318  11.196   9.154  0.0583 -0.7646 -0.1755
  952MOL0     H31316   9.231  11.059   9.190 -0.1216 -1.7217 -0.6003
  952MOL0     H31317   9.453  10.940   9.255 -1.8627 -1.2866  1.9479
  952MOL0     H31318   9.408  11.087   9.351  0.3294  2.1559 -1.0792
  952MOL0     H31319   9.589  11.110   9.116 -2.8600  2.1701 -0.2878
  952MOL0     H31320   9.561  11.225   9.246 -5.3465  0.1079  1.7754
  952MOL0     H31321   9.772  11.125   9.271 -0.5766  1.2075 -0.1044
  952MOL0     H31322   9.686  10.967   9.314 -1.9432 -0.5824 -0.1996
  952MOL0     H31323   9.625  11.232   9.460  1.6258  0.5644  3.2139
  952MOL0     H31324   9.569  11.071   9.495  0.9375 -0.2764 -0.4440
  952MOL0     H31325   9.905  11.257   9.470 -1.4351 -2.5679 -2.2467
  952MOL0     H31326  10.123  11.258   9.599 -0.5313  1.8048  1.9942
  952MOL0     H31327  10.163  11.102   9.688 -1.3409 -0.4747  1.2003
  952MOL0     H31328  10.043  11.223   9.902  0.0923 -1.4713 -0.7365
  952MOL0     H31329  10.202  11.262   9.840  0.4250 -1.4415 -1.3548
  952MOL0     H31330   9.966  11.422   9.742  0.0432 -0.1220 -0.2479
  952MOL0     H31331  10.038  11.454   9.909  0.1739  1.0389 -0.6840
  952MOL0     H31332  10.231  11.505   9.860 -0.0242 -1.8311  1.5324
  952MOL0     H31333  10.207  11.451   9.683 -0.1372 -3.0846  1.3228
  952MOL0     H31334  10.385  11.630   9.730 -2.0272 -2.1792 -0.9676
  952MOL0     H31335  10.615  11.784   9.533 -0.9311  2.4911  0.4895
  952MOL0     H31336  10.601  11.701   9.691  0.3144 -0.0736  1.5261
  952MOL0     H31337  10.609  11.880   9.686 -1.2260 -0.6963  1.8229
  952MOL0     H31338  10.316  12.392   9.434 -0.2418 -0.1641 -2.8343
  952MOL0     H31339  10.440  12.597   9.335 -2.0293 -1.4693 -0.2989
  952MOL0     H31340  10.866  12.497   9.245  2.0351 -0.7978 -3.7839
  952MOL0     H31341  10.737  12.491   9.126 -2.4293  0.2622  1.3013
  952MOL0     H31342  10.933  12.604   9.055  0.7635  0.4889 -0.0520
  952MOL0     H31343  10.779  12.700   9.059 -4.3651 -3.4593  2.0177
  952MOL0     H31344  11.012  12.692   9.279  2.9194  1.7655 -2.4018
  952MOL0     H31345  10.877  12.800   9.278 -0.5319 -0.8959  0.7842
  952MOL0     H31346  10.990  12.873   9.040 -0.6543 -1.5604 -0.1330
  952MOL0     H31347  11.096  12.742   9.079 -0.5693 -0.0625  0.0482
  952MOL0     H31348  11.113  12.895   9.316 -2.1636  0.1196  0.3833
  952MOL0     H31349  11.228  12.908   9.182 -0.9814  0.9148 -1.9303
  952MOL0     H31350  10.985  13.077   9.232  0.5292 -2.5526  0.8420
  952MOL0     H31351  11.090  13.083   9.078  0.6114  1.3038  0.1362
  952MOL0     H31352  11.138  13.162   9.359  2.3878  0.2958  0.8687
  952MOL0     H31353  11.147  13.268   9.224  1.2126 -0.1679 -2.5654
  952MOL0     H31354  11.357  13.087   9.314  0.8907 -0.6287 -0.8614
  952MOL0     H31355  11.353  13.251   9.242 -2.3116  0.8388 -1.3615
  952MOL0     H31356  10.811  12.394   9.448  0.0977 -3.3490  1.5043
  952MOL0     H31357  10.692  12.212   9.539 -1.3643  0.3973  3.7606
  952MOL0     H31358  10.181  12.035   9.522 -0.2371 -1.4429 -1.0824
  952MOL0     H31359  10.035  11.867   9.625  1.6521  4.1603  0.3007
  952MOL0     H31360   9.485  11.163   8.604 -0.5287  0.6672  1.0943
  952MOL0     H31361   9.513  11.195   8.374 -0.8103  1.2224 -1.2413
  952MOL0     H31362   9.412  10.912   7.964  1.1242 -0.6744 -0.2285
  952MOL0     H31363   9.452  10.867   7.740  2.4768 -0.2001  2.9152
  952MOL0     H31364   9.433  10.859   7.491 -0.2997  0.5770 -0.6113
  952MOL0     H31365   9.285  10.928   7.522  0.5357 -1.8879  0.3686
  952MOL0     H31366   9.334  11.068   7.286  2.2031  1.6163 -0.9805
  952MOL0     H31367   9.332  10.887   7.281 -0.0543 -0.2360  1.5887
  952MOL0     H31368   9.592  11.025   7.329 -0.9916  1.5960 -0.0012
  952MOL0     H31369   9.549  10.885   7.227 -1.5846 -0.7878 -1.0988
  952MOL0     H31370   9.518  11.192   7.175  0.8975 -0.4045  1.3440
  952MOL0     H31371   9.422  11.061   7.092  0.8075 -2.0096 -0.5236
  952MOL0     H31372   9.815  11.052   6.935 -0.1762 -2.0632 -0.4391
  952MOL0     H31373   9.424  11.267   7.627  0.7622 -1.1161  0.3217
  952MOL0     H31374   9.370  11.417   7.925 -1.1635 -0.6957 -3.6443
  952MOL0     H31375   9.556  11.378   7.938  0.0948  5.3266 -0.4332
  952MOL0     H31376   9.463  11.433   7.793 -2.0024  0.6161 -1.2719
  953MOL0     O31377   6.739   8.620   6.013 -0.1003 -0.8539  0.6572
  953MOL0     C31378   6.621   8.614   6.055 -0.1176 -0.7895 -0.0688
  953MOL0     O31379   6.555   8.720   6.110 -0.2191 -0.3174 -0.4169
  953MOL0     C31380   6.621   8.842   6.098  0.8069 -0.4919 -0.5618
  953MOL0     C31381   6.685   8.891   6.213  0.5694 -0.2673  0.0885
  953MOL0     C31382   6.756   9.013   6.211  0.0669  1.1678 -0.2546
  953MOL0     C31383   6.755   9.093   6.100  0.5293 -1.2946  0.9845
  953MOL0     O31384   6.825   9.210   6.097  0.3446 -0.1614 -0.0876
  953MOL0     C31385   6.771   9.321   6.014  0.8555 -0.1796  0.4715
  953MOL0     C31386   6.853   9.335   5.882 -0.3878 -0.6372 -0.5772
  953MOL0     C31387   6.785   9.433   5.771  0.5468 -0.0409 -0.0446
  953MOL0     C31388   6.769   9.578   5.826 -0.0525 -0.1561 -0.3204
  953MOL0     C31389   6.688   9.666   5.728  0.2336  0.8570 -0.1641
  953MOL0     C31390   6.616   9.768   5.816 -0.0064  0.5114 -0.0740
  953MOL0     C31391   6.483   9.822   5.775 -0.1514 -0.4322 -0.5257
  953MOL0     C31392   6.475   9.839   5.619 -0.4040 -0.3274  0.0463
  953MOL0     N31393   6.423   9.718   5.550  0.4982 -0.7203 -0.3192
  953MOL0     C31394   6.468   9.676   5.428  0.0222  0.5940 -0.7877
  953MOL0     C31395   6.381   9.583   5.389  0.3077 -0.0962  0.3244
  953MOL0     C31396   6.387   9.492   5.272 -0.4339 -0.2215  1.1266
  953MOL0     C31397   6.366   9.336   5.302 -0.9536 -0.9912 -0.9237
  953MOL0     C31398   6.488   9.286   5.393 -0.0148 -0.0894 -0.2310
  953MOL0     C31399   6.442   9.224   5.529 -0.7523 -0.3205  0.3847
  953MOL0     O31400   6.368   9.103   5.520 -0.2002 -1.1505  0.1221
  953MOL0     C31401   6.329   9.047   5.640  0.1309 -0.4680  0.5162
  953MOL0     C31402   6.243   8.937   5.611  0.7976  0.4751  0.3768
  953MOL0     C31403   6.178   8.862   5.709 -0.1819 -0.1310  0.3890
  953MOL0     C31404   6.071   8.759   5.672  0.5594  0.2072  0.7566
  953MOL0     C31405   6.223   8.880   5.843 -1.3394 -0.5256 -0.0569
  953MOL0     C31406   6.177   8.809   5.963  0.1808  0.5916 -0.4157
  953MOL0     O31407   6.179   8.873   6.080  0.9285  0.2113  0.2634
  953MOL0     C31408   6.179   8.801   6.196 -0.3254 -0.0270  0.7800
  953MOL0     C31409   6.293   8.811   6.277 -0.3402 -1.1993 -0.5262
  953MOL0     C31410   6.291   8.738   6.398  0.1274  0.5527 -0.2508
  953MOL0     C31411   6.173   8.669   6.441 -0.6660 -0.3174 -1.1891
  953MOL0     O31412   6.164   8.589   6.548 -0.7934  0.0206  0.6673
  953MOL0     C31413   6.271   8.490   6.553  0.4298  0.0173  0.8588
  953MOL0     C31414   6.257   8.409   6.422 -0.5775  1.0863  0.1317
  953MOL0     C31415   6.141   8.314   6.424  0.2739 -0.1274 -0.6137
  953MOL0     C31416   6.167   8.210   6.314 -0.7753  0.9375 -0.7929
  953MOL0     C31417   6.073   8.089   6.332 -0.6753  0.0503 -0.3702
  953MOL0     C31418   5.942   8.123   6.272  0.3703 -0.2289  0.6697
  953MOL0     C31419   5.821   8.021   6.273 -0.1948 -0.6649  0.3343
  953MOL0     C31420   5.694   8.060   6.195  0.2456  0.3643  0.5121
  953MOL0    Cl31421   5.630   8.207   6.263  0.6370  0.4711 -0.0275
  953MOL0     C31422   6.058   8.677   6.364  0.6602  0.3689 -0.3243
  953MOL0     C31423   6.064   8.739   6.238 -0.1141  0.1032  0.3736
  953MOL0     O31424   6.147   8.685   5.945  0.9566 -0.5577 -0.2270
  953MOL0     C31425   6.325   8.985   5.870  0.1125 -0.0076  0.6953
  953MOL0     C31426   6.377   9.073   5.766  0.3987 -0.0404  0.2727
  953MOL0     N31427   6.295   9.557   5.491  0.3752 -0.8301 -0.2597
  953MOL0     N31428   6.305   9.652   5.579  0.7355  0.4386 -0.7441
  953MOL0     C31429   6.707   9.034   5.973 -0.0057 -0.1268 -0.7134
  953MOL0     C31430   6.631   8.914   5.979  0.0422  0.5035 -0.2175
  953MOL0     C31431   6.542   8.485   6.057  0.1099  0.5195  0.4668
  953MOL0     C31432   6.403   8.498   6.039  0.1084 -0.0968  0.7739
  953MOL0     C31433   6.331   8.381   6.019 -0.3450  0.5922  0.3779
  953MOL0     C31434   6.388   8.259   6.010  1.3403  0.6526 -0.2591
  953MOL0     O31435   6.310   8.160   5.979  0.2865 -0.5420 -0.4668
  953MOL0     C31436   6.320   8.103   5.847 -0.6820 -0.7604  0.0351
  953MOL0     C31437   6.183   8.042   5.815  0.9097 -0.0384 -0.0168
  953MOL0     C31438   6.195   7.977   5.679  1.1145 -1.1125 -0.1784
  953MOL0     C31439   6.173   8.093   5.562 -0.0266 -0.6721 -0.1447
  953MOL0     C31440   6.249   8.071   5.433  1.2058 -0.9963  0.4937
  953MOL0     C31441   6.324   8.063   5.336 -0.4777 -0.9984 -0.6049
  953MOL0     C31442   6.524   8.241   6.020 -0.3082 -0.4954 -0.0496
  953MOL0     C31443   6.603   8.355   6.040 -0.4614 -0.3819 -0.0514
  953MOL0     C31444   6.755   8.334   6.061 -0.5892  0.4079  0.1458
  953MOL0     H31445   6.681   8.834   6.305  1.0476  1.9074  1.5308
  953MOL0     H31446   6.789   9.039   6.312 -1.6799 -1.6096  1.1620
  953MOL0     H31447   6.779   9.417   6.068  0.1402  0.5214 -0.6266
  953MOL0     H31448   6.665   9.303   5.994  1.0838 -2.5958  1.1127
  953MOL0     H31449   6.948   9.378   5.912 -1.3118  2.4014 -1.6186
  953MOL0     H31450   6.866   9.232   5.847  3.2477 -1.2200  2.0264
  953MOL0     H31451   6.856   9.435   5.688 -0.2935  3.2352 -0.8311
  953MOL0     H31452   6.685   9.397   5.744 -0.7771  2.4223  1.2017
  953MOL0     H31453   6.727   9.571   5.926  1.7689  3.2121  0.8595
  953MOL0     H31454   6.862   9.632   5.848 -0.0075  0.4263 -1.8003
  953MOL0     H31455   6.616   9.593   5.689  3.0996 -1.5326 -1.4027
  953MOL0     H31456   6.750   9.713   5.651  3.6136  1.0722  2.4428
  953MOL0     H31457   6.592   9.727   5.915 -0.4240  4.8412  1.8057
  953MOL0     H31458   6.681   9.853   5.839  0.3262  0.5860 -1.2215
  953MOL0     H31459   6.465   9.914   5.833  1.2337 -1.5562  1.8047
  953MOL0     H31460   6.405   9.747   5.794 -1.7005  0.6724 -2.1606
  953MOL0     H31461   6.399   9.912   5.592  0.9942  1.3263  0.3499
  953MOL0     H31462   6.570   9.875   5.578 -0.6712 -0.6099 -0.8391
  953MOL0     H31463   6.563   9.693   5.378  0.2136 -2.7255 -1.7600
  953MOL0     H31464   6.494   9.502   5.249 -0.1632 -0.5344  2.1822
  953MOL0     H31465   6.328   9.527   5.187  3.0298  0.4757 -1.2381
  953MOL0     H31466   6.267   9.320   5.348 -1.8759  0.6527 -2.2436
  953MOL0     H31467   6.379   9.283   5.207 -2.8455 -0.8168 -1.3248
  953MOL0     H31468   6.548   9.209   5.343 -0.0766 -0.0490 -0.3685
  953MOL0     H31469   6.554   9.372   5.406 -0.2017 -0.2008  1.6589
  953MOL0     H31470   6.529   9.200   5.591 -0.5960  1.8546  1.0922
  953MOL0     H31471   6.384   9.298   5.585 -0.5390 -1.4539  2.1542
  953MOL0     H31472   6.218   8.925   5.506 -2.5367 -0.8715  1.1933
  953MOL0     H31473   5.977   8.786   5.720  0.5211 -1.0094  1.4024
  953MOL0     H31474   6.099   8.662   5.713 -1.5654 -1.2901 -1.0840
  953MOL0     H31475   6.061   8.752   5.564 -1.8401  0.3884  0.9137
  953MOL0     H31476   6.384   8.859   6.244  1.1800 -2.9601  0.9065
  953MOL0     H31477   6.384   8.739   6.454  0.0655  2.4069 -0.1317
  953MOL0     H31478   6.371   8.529   6.571  0.6893  0.1562 -0.7835
  953MOL0     H31479   6.260   8.425   6.641  1.1272  1.5793  2.1516
  953MOL0     H31480   6.252   8.477   6.337  0.3182  2.1829  0.9174
  953MOL0     H31481   6.351   8.355   6.406 -0.7203  1.0124 -0.4809
  953MOL0     H31482   6.045   8.364   6.411  0.9374  1.1180 -0.8925
  953MOL0     H31483   6.148   8.256   6.516  1.9974  0.1219 -0.5560
  953MOL0     H31484   6.268   8.172   6.332 -2.4185 -2.9844  1.4524
  953MOL0     H31485   6.162   8.246   6.211  1.8352  0.0735 -1.3192
  953MOL0     H31486   6.106   7.995   6.287 -1.2898 -1.4670  2.2012
  953MOL0     H31487   6.066   8.077   6.440  2.1872  0.4991 -0.0620
  953MOL0     H31488   5.958   8.142   6.166  0.2513  0.4180  0.7629
  953MOL0     H31489   5.903   8.214   6.319  0.9298  0.2909  0.1293
  953MOL0     H31490   5.791   7.985   6.371 -1.2220  0.7866  0.5964
  953MOL0     H31491   5.865   7.934   6.223  0.6167 -1.4686  2.3461
  953MOL0     H31492   5.621   7.982   6.216 -1.1466  1.3630 -0.4539
  953MOL0     H31493   5.699   8.061   6.085 -4.6933 -0.2981  0.0405
  953MOL0     H31494   5.968   8.623   6.391  1.1383 -0.5456 -0.5168
  953MOL0     H31495   5.974   8.743   6.178 -0.3851 -2.9016  0.4269
  953MOL0     H31496   6.343   9.005   5.975  0.0014  0.3804  0.6447
  953MOL0     H31497   6.438   9.153   5.807 -0.1588 -0.8597  2.8571
  953MOL0     H31498   6.726   9.081   5.877  0.4164  0.3861 -0.3850
  953MOL0     H31499   6.593   8.869   5.887 -1.0763 -0.5690  0.7425
  953MOL0     H31500   6.350   8.593   6.033  1.9957  0.9551  0.1297
  953MOL0     H31501   6.223   8.386   6.022 -0.5263 -1.7265  0.0672
  953MOL0     H31502   6.332   8.182   5.773 -1.5771  0.3947  1.0796
  953MOL0     H31503   6.407   8.038   5.836 -0.0300 -0.0623  0.8916
  953MOL0     H31504   6.107   8.120   5.822  1.3159  0.3463  0.2241
  953MOL0     H31505   6.159   7.962   5.886  0.2075  0.7581  0.6649
  953MOL0     H31506   6.287   7.917   5.681  1.5175 -0.5482  2.3250
  953MOL0     H31507   6.111   7.909   5.668 -1.4572  0.9720  3.9928
  953MOL0     H31508   6.203   8.192   5.597 -0.1441 -1.4735  2.4089
  953MOL0     H31509   6.067   8.100   5.536 -0.8278 -0.2055  2.9205
  953MOL0     H31510   6.377   8.066   5.243 -0.7011  0.7700 -0.7099
  953MOL0     H31511   6.569   8.143   6.007 -2.5783 -1.5594 -0.3629
  953MOL0     H31512   6.805   8.372   5.972 -2.4985  2.3124 -0.2050
  953MOL0     H31513   6.785   8.385   6.153 -0.0685 -1.9052  1.3375
  953MOL0     H31514   6.780   8.232   6.092 -2.4722 -0.1943 -0.1649
  954MOL0     O31515  11.186   5.665   1.148 -0.3258  0.3976 -0.0388
  954MOL0     C31516  11.288   5.729   1.159 -0.3731 -0.4408 -0.8261
  954MOL0     O31517  11.412   5.675   1.171  0.5310  0.3943  0.1692
  954MOL0     C31518  11.427   5.544   1.199  0.2478 -0.2609 -0.4454
  954MOL0     C31519  11.489   5.507   1.319  0.3731  0.1120 -0.1929
  954MOL0     C31520  11.481   5.374   1.354  0.3214  0.9592  0.4858
  954MOL0     C31521  11.418   5.278   1.274 -0.3504  0.2358  0.9177
  954MOL0     O31522  11.423   5.145   1.311 -0.0471 -0.8986  0.0218
  954MOL0     C31523  11.513   5.113   1.415 -0.7540 -0.2588 -1.1543
  954MOL0     C31524  11.498   4.966   1.451  0.2754  0.0247 -0.6592
  954MOL0     C31525  11.605   4.939   1.561  0.0404 -0.0171 -0.3510
  954MOL0     C31526  11.605   4.798   1.620  0.2020 -0.2141 -0.1408
  954MOL0     C31527  11.684   4.781   1.749  0.0154 -0.0084  0.2800
  954MOL0     C31528  11.783   4.671   1.756 -0.0644 -0.1251  0.7392
  954MOL0     C31529  11.904   4.705   1.665 -0.4568  0.0733  0.0145
  954MOL0     C31530  12.006   4.795   1.724 -0.1452  0.3760  0.3324
  954MOL0     N31531  12.099   4.713   1.808  0.5290  0.0916 -0.3134
  954MOL0     C31532  12.069   4.686   1.942 -0.1970  0.3975 -0.2189
  954MOL0     C31533  12.187   4.650   1.994 -0.1292  1.4076 -0.0238
  954MOL0     C31534  12.211   4.620   2.139  0.2586  0.0739 -0.0861
  954MOL0     C31535  12.227   4.761   2.209 -0.0064 -0.8249  0.1357
  954MOL0     C31536  12.202   4.737   2.357  0.0639  0.4352 -0.7751
  954MOL0     C31537  12.056   4.707   2.408 -0.1802 -0.2768  0.7343
  954MOL0     O31538  11.955   4.786   2.345 -0.3507 -0.1581  0.0619
  954MOL0     C31539  11.826   4.755   2.373  0.1491 -0.4136 -0.0032
  954MOL0     C31540  11.730   4.804   2.282  0.4798 -0.6934  0.3424
  954MOL0     C31541  11.588   4.791   2.300 -0.2413 -0.2724  0.8075
  954MOL0     C31542  11.501   4.842   2.189  1.2138 -0.4118 -0.3277
  954MOL0     C31543  11.543   4.726   2.417 -0.5616  0.5291  0.0085
  954MOL0     C31544  11.403   4.703   2.444 -0.4254 -0.0969  0.7897
  954MOL0     O31545  11.363   4.677   2.578 -0.0766  0.7411 -0.6444
  954MOL0     C31546  11.238   4.709   2.628  0.6752 -0.2895 -0.1671
  954MOL0     C31547  11.135   4.772   2.563 -0.3033  0.2752 -0.1786
  954MOL0     C31548  11.004   4.780   2.615 -0.1397 -0.1288  0.3866
  954MOL0     C31549  10.971   4.706   2.728 -1.3765 -0.0547 -0.2457
  954MOL0     O31550  10.843   4.700   2.772  0.1896  0.0686  0.2497
  954MOL0     C31551  10.805   4.600   2.875 -0.1446  0.4726  0.0351
  954MOL0     C31552  10.658   4.612   2.901 -0.1105 -0.6943 -0.3561
  954MOL0     C31553  10.619   4.508   3.007  0.2839 -0.5908  0.0267
  954MOL0     C31554  10.473   4.515   3.056 -0.1569 -0.7605  0.2804
  954MOL0     C31555  10.414   4.380   3.085 -0.4205 -0.3575 -0.7692
  954MOL0     C31556  10.386   4.314   2.944 -0.3484 -0.5285 -0.0568
  954MOL0     C31557  10.308   4.179   2.964 -0.3969 -0.6591  0.1768
  954MOL0     C31558  10.166   4.194   2.914  0.4709 -0.8906  0.0438
  954MOL0    Cl31559  10.105   4.029   2.914 -0.2680  0.1016  0.8111
  954MOL0     C31560  11.072   4.659   2.807 -0.6568  0.3093  0.5904
  954MOL0     C31561  11.208   4.657   2.756 -0.3124 -0.3493  0.0356
  954MOL0     O31562  11.321   4.703   2.355 -0.2617  0.1968  0.4156
  954MOL0     C31563  11.642   4.692   2.513 -0.0876 -0.2739 -0.2017
  954MOL0     C31564  11.778   4.705   2.492 -0.4747 -0.1953 -0.1488
  954MOL0     N31565  12.291   4.643   1.898  0.3656 -0.0482 -0.3035
  954MOL0     N31566  12.231   4.679   1.793 -0.3851  0.3932  0.5244
  954MOL0     C31567  11.363   5.320   1.155  0.3569  0.1897  0.9386
  954MOL0     C31568  11.367   5.457   1.119  0.5055  0.3584 -0.3875
  954MOL0     C31569  11.277   5.868   1.117  1.2350  0.0807  0.8087
  954MOL0     C31570  11.378   5.917   1.030 -0.9402  0.2113  0.3908
  954MOL0     C31571  11.382   6.053   1.005 -0.2137 -0.8302 -0.9533
  954MOL0     C31572  11.287   6.144   1.060  0.4078 -0.4041  0.1685
  954MOL0     O31573  11.321   6.275   1.034  0.0462  0.4188  0.1574
  954MOL0     C31574  11.218   6.375   1.036  0.1525 -0.1498  1.0791
  954MOL0     C31575  11.269   6.517   1.022  0.5205 -0.1114  0.0099
  954MOL0     C31576  11.323   6.544   0.877 -0.1551 -0.4125 -0.3373
  954MOL0     C31577  11.424   6.662   0.874  0.2976 -0.2465 -0.4108
  954MOL0     C31578  11.468   6.686   0.739 -0.5970 -0.0045 -0.0537
  954MOL0     C31579  11.487   6.700   0.619  0.8527 -0.5123 -0.0118
  954MOL0     C31580  11.190   6.091   1.140  0.3076 -0.4439 -0.5034
  954MOL0     C31581  11.180   5.956   1.173  0.1065  0.3880 -0.4880
  954MOL0     C31582  11.073   5.910   1.277  0.3050 -0.0790 -0.6058
  954MOL0     H31583  11.542   5.589   1.366  3.9395 -2.0451 -0.1218
  954MOL0     H31584  11.516   5.349   1.453 -0.8066 -0.9293  0.4658
  954MOL0     H31585  11.482   5.170   1.503  1.2762  0.7825 -1.0533
  954MOL0     H31586  11.615   5.146   1.393 -0.1298  0.2488  2.0219
  954MOL0     H31587  11.400   4.953   1.497 -0.7797  2.0773 -2.1558
  954MOL0     H31588  11.508   4.904   1.361 -0.4452 -0.5112 -0.3747
  954MOL0     H31589  11.706   4.963   1.527 -0.1226  2.9242  0.9071
  954MOL0     H31590  11.574   5.010   1.639 -0.3215 -3.0225  2.4279
  954MOL0     H31591  11.502   4.776   1.650  0.6953 -0.5978  1.3576
  954MOL0     H31592  11.619   4.711   1.554  2.6805 -0.5756  0.7862
  954MOL0     H31593  11.620   4.751   1.833  2.2593  0.7039  2.3279
  954MOL0     H31594  11.730   4.872   1.788 -1.1043 -0.3770  2.6535
  954MOL0     H31595  11.810   4.653   1.861 -1.1996 -1.5658  0.8261
  954MOL0     H31596  11.739   4.584   1.706  2.2851  0.2505 -2.2661
  954MOL0     H31597  11.870   4.743   1.568 -0.7454  1.0933  0.5048
  954MOL0     H31598  11.956   4.611   1.646 -2.7236 -1.1192 -0.7709
  954MOL0     H31599  12.067   4.854   1.654  3.7949 -1.9304  1.4689
  954MOL0     H31600  11.951   4.870   1.780  2.6668  1.8626  1.3127
  954MOL0     H31601  11.977   4.691   2.000  0.1144  0.3897  0.2842
  954MOL0     H31602  12.294   4.553   2.163 -1.2386 -1.9117 -0.2177
  954MOL0     H31603  12.124   4.565   2.177  0.7587 -0.9856 -0.4407
  954MOL0     H31604  12.323   4.812   2.194 -1.5558  2.0416 -0.7164
  954MOL0     H31605  12.153   4.834   2.176 -1.0631 -1.9738 -0.0967
  954MOL0     H31606  12.275   4.661   2.387  1.0382  1.1972 -1.1675
  954MOL0     H31607  12.227   4.830   2.408 -1.5649 -0.0851  1.1013
  954MOL0     H31608  12.034   4.601   2.392 -1.7930  0.3726 -1.9629
  954MOL0     H31609  12.050   4.734   2.514  0.0510  2.3888  0.1196
  954MOL0     H31610  11.778   4.838   2.190  1.6376  1.3110  1.5904
  954MOL0     H31611  11.553   4.902   2.113 -1.4332  0.5586 -1.5112
  954MOL0     H31612  11.425   4.911   2.228 -0.0081 -0.4645 -2.4766
  954MOL0     H31613  11.462   4.750   2.145  0.0228 -0.8331  1.5295
  954MOL0     H31614  11.154   4.830   2.474 -1.8425  0.4800 -0.4047
  954MOL0     H31615  10.932   4.839   2.558  1.9121  2.9422  0.7266
  954MOL0     H31616  10.831   4.504   2.829 -1.8323 -0.7395  1.4985
  954MOL0     H31617  10.858   4.597   2.971  1.9180 -0.6070 -1.0680
  954MOL0     H31618  10.636   4.714   2.933 -0.7467 -0.7441 -0.6120
  954MOL0     H31619  10.604   4.594   2.807 -2.4341  3.4709 -0.0600
  954MOL0     H31620  10.686   4.521   3.092  1.9763 -0.7749 -1.2410
  954MOL0     H31621  10.639   4.411   2.960 -2.5335  0.0174 -2.8151
  954MOL0     H31622  10.409   4.562   2.981  0.6503 -0.0328  0.0387
  954MOL0     H31623  10.474   4.586   3.139 -0.4643  1.7388 -1.7310
  954MOL0     H31624  10.484   4.315   3.138 -0.1246  2.1341  2.1889
  954MOL0     H31625  10.328   4.403   3.149  1.1142  1.4017  0.8193
  954MOL0     H31626  10.480   4.296   2.891 -0.1085  1.7111 -0.5091
  954MOL0     H31627  10.331   4.384   2.880 -0.7356  0.3493  1.1886
  954MOL0     H31628  10.316   4.146   3.068  2.7253 -1.1805 -0.1241
  954MOL0     H31629  10.357   4.097   2.909 -1.5759 -1.1913 -0.1084
  954MOL0     H31630  10.161   4.246   2.818 -0.5942  1.2206  1.1602
  954MOL0     H31631  10.101   4.252   2.981 -1.3006 -4.0900  1.3420
  954MOL0     H31632  11.064   4.587   2.888  1.8623 -4.3013 -2.7061
  954MOL0     H31633  11.283   4.615   2.822 -0.9498  1.0432  1.7334
  954MOL0     H31634  11.610   4.656   2.610  0.3150  1.7298  0.7198
  954MOL0     H31635  11.847   4.675   2.570  0.4088 -2.9817 -1.8677
  954MOL0     H31636  11.313   5.253   1.086 -0.7116  2.6386 -0.7907
  954MOL0     H31637  11.322   5.479   1.023  0.4357 -1.4803 -0.8149
  954MOL0     H31638  11.453   5.845   1.000 -2.0113 -0.9106  0.3484
  954MOL0     H31639  11.468   6.093   0.953  0.8874 -1.3187  0.4189
  954MOL0     H31640  11.148   6.354   0.955  1.2299  1.6587 -0.4039
  954MOL0     H31641  11.160   6.363   1.128 -3.0195  1.3058 -0.5953
  954MOL0     H31642  11.346   6.530   1.098  0.0277 -2.0018  0.8938
  954MOL0     H31643  11.183   6.580   1.047 -0.2284 -0.9327 -0.4214
  954MOL0     H31644  11.362   6.453   0.831 -1.0200 -0.7823 -0.3466
  954MOL0     H31645  11.240   6.577   0.815  0.7005 -0.0693 -1.3310
  954MOL0     H31646  11.515   6.641   0.930  0.2278 -0.5852 -0.4189
  954MOL0     H31647  11.368   6.748   0.913 -3.0736 -0.3426 -4.3027
  954MOL0     H31648  11.486   6.699   0.512 -0.0697 -1.0897 -0.0146
  954MOL0     H31649  11.138   6.154   1.212  1.4105  0.6379 -0.6322
  954MOL0     H31650  11.042   5.806   1.273 -1.8277  0.3542  2.0791
  954MOL0     H31651  11.104   5.910   1.382 -1.6909 -0.6691  0.0281
  954MOL0     H31652  10.982   5.971   1.265 -0.4752 -0.5173  2.2554
  955MOL0     O31653   2.171   0.235   2.974 -0.7872 -0.4510 -0.1568
  955MOL0     C31654   2.120   0.254   2.856 -0.1555  0.1445  0.1704
  955MOL0     O31655   2.096   0.378   2.792  0.4571  0.0898  0.0100
  955MOL0     C31656   2.126   0.494   2.859  0.0314  0.3124  0.3694
  955MOL0     C31657   2.155   0.611   2.788 -0.5376 -0.0767  0.0145
  955MOL0     C31658   2.190   0.733   2.851  0.1854 -0.1339  1.2116
  955MOL0     C31659   2.168   0.751   2.980  0.0904  0.2077 -0.6479
  955MOL0     O31660   2.190   0.868   3.043  0.0712 -0.1637  0.5023
  955MOL0     C31661   2.071   0.954   3.038 -0.0749 -0.4740 -0.1213
  955MOL0     C31662   2.094   1.069   2.927  0.2601 -0.0967 -0.2318
  955MOL0     C31663   1.962   1.134   2.885  0.4016  0.5402 -0.0007
  955MOL0     C31664   1.891   1.071   2.765 -1.2006  0.1924  0.5288
  955MOL0     C31665   1.739   1.106   2.765  0.4399  0.3963  0.2653
  955MOL0     C31666   1.701   1.247   2.724  0.0119  0.8789 -0.1749
  955MOL0     C31667   1.553   1.260   2.690  0.1242 -0.8863 -0.9434
  955MOL0     C31668   1.459   1.224   2.805  0.1442 -0.1972  0.3094
  955MOL0     N31669   1.321   1.229   2.761 -0.0515  0.0390 -0.0094
  955MOL0     C31670   1.244   1.130   2.807  0.9063 -0.0790 -0.6826
  955MOL0     C31671   1.117   1.160   2.765 -0.5040  0.5116  0.5432
  955MOL0     C31672   0.989   1.085   2.798 -0.2164  0.7280 -0.8056
  955MOL0     C31673   0.914   1.122   2.916 -0.8012 -0.1927  0.1286
  955MOL0     C31674   1.008   1.148   3.040  0.8999  0.7513  0.4448
  955MOL0     C31675   0.908   1.164   3.157 -0.4200  0.0251 -0.1056
  955MOL0     O31676   0.811   1.263   3.135  0.2478  0.4307  0.0993
  955MOL0     C31677   0.708   1.272   3.225  0.9586  0.2810  1.0723
  955MOL0     C31678   0.712   1.333   3.350 -0.1236 -0.0582 -0.4463
  955MOL0     C31679   0.605   1.325   3.432  0.6366  0.7239 -0.0417
  955MOL0     C31680   0.626   1.385   3.567  0.5175 -0.3554  0.0967
  955MOL0     C31681   0.483   1.262   3.392 -0.0619 -0.7798 -1.1721
  955MOL0     C31682   0.359   1.245   3.468 -0.3532 -0.3943  0.1573
  955MOL0     O31683   0.271   1.147   3.428  0.8518  0.4843 -0.3650
  955MOL0     C31684   0.229   1.075   3.537 -0.5702 -0.0154 -0.3436
  955MOL0     C31685   0.132   1.115   3.629  0.6393 -0.0047 -0.2786
  955MOL0     C31686   0.114   1.039   3.749  0.9092 -0.1234  0.6862
  955MOL0     C31687   0.185   0.919   3.762  0.6822 -0.5627 -1.2418
  955MOL0     O31688   0.163   0.854   3.878  0.6436 -0.0884 -0.6058
  955MOL0     C31689   0.225   0.729   3.910  0.2889 -0.8356  0.5986
  955MOL0     C31690   0.226   0.724   4.062  0.8801  0.1535 -0.1645
  955MOL0     C31691   0.286   0.591   4.087  0.4964 -0.0013 -0.3436
  955MOL0     C31692   0.278   0.540   4.235 -0.2334 -0.5095  0.1464
  955MOL0     C31693   0.342   0.630   4.344 -0.6454 -0.8753  0.3637
  955MOL0     C31694   0.495   0.654   4.317  0.6547  0.5269 -1.2685
  955MOL0     C31695   0.585   0.528   4.309 -0.8288 -0.5130 -0.6747
  955MOL0     C31696   0.714   0.556   4.239 -0.0453 -0.7767  0.7881
  955MOL0    Cl31697   0.804   0.675   4.320  0.0186  0.1437 -0.0268
  955MOL0     C31698   0.279   0.876   3.664 -0.3138  0.3714 -0.2168
  955MOL0     C31699   0.296   0.955   3.559 -0.7852  0.0530 -0.9621
  955MOL0     O31700   0.337   1.330   3.556 -0.3680 -0.2668  0.4208
  955MOL0     C31701   0.480   1.205   3.266 -0.1019 -0.2001  1.1153
  955MOL0     C31702   0.590   1.201   3.187 -0.9908  0.4772  0.0673
  955MOL0     N31703   1.125   1.279   2.687  0.8505 -0.1599 -0.1481
  955MOL0     N31704   1.249   1.312   2.676 -0.0061 -0.2271 -0.1256
  955MOL0     C31705   2.123   0.638   3.054  0.0683  0.5689  0.1998
  955MOL0     C31706   2.118   0.515   2.992 -0.1812  0.5635 -0.3170
  955MOL0     C31707   2.095   0.128   2.777 -0.3767 -0.1369  0.3801
  955MOL0     C31708   2.001   0.140   2.674 -0.3387  0.0867  0.1758
  955MOL0     C31709   1.966   0.034   2.597  0.0450  0.6443 -0.0742
  955MOL0     C31710   2.045  -0.087   2.601  0.4495 -0.6169  0.1597
  955MOL0     O31711   2.050  -0.183   2.507  0.1072  0.1762  0.2903
  955MOL0     C31712   2.011  -0.143   2.376 -0.6623  0.2175 -0.3275
  955MOL0     C31713   2.044  -0.254   2.283  0.0161 -0.4518 -0.4956
  955MOL0     C31714   2.178  -0.323   2.304  0.3784 -1.3767  0.4234
  955MOL0     C31715   2.292  -0.221   2.301  1.2493 -0.4045 -0.6350
  955MOL0     C31716   2.314  -0.147   2.175  0.5084  0.8375  0.3403
  955MOL0     C31717   2.312  -0.104   2.057 -0.3221  0.4893  0.3733
  955MOL0     C31718   2.141  -0.095   2.699  0.6768 -0.2125  0.1172
  955MOL0     C31719   2.166   0.003   2.791  0.1688  0.6042  0.4333
  955MOL0     C31720   2.275  -0.019   2.880  0.3481  0.1548  0.3062
  955MOL0     H31721   2.150   0.611   2.679 -4.9607  0.4496  0.0125
  955MOL0     H31722   2.214   0.812   2.780  1.0111 -1.9605 -0.6732
  955MOL0     H31723   2.049   1.006   3.132 -2.6267 -3.1348  0.9251
  955MOL0     H31724   1.987   0.886   3.022 -0.1340 -0.7518  1.2227
  955MOL0     H31725   2.159   1.150   2.962 -1.6219  1.2168  0.4334
  955MOL0     H31726   2.151   1.027   2.844 -1.1304  0.0579 -1.3081
  955MOL0     H31727   1.892   1.146   2.969  1.0980  4.5421  0.2301
  955MOL0     H31728   1.980   1.241   2.866  2.3754  0.5132  1.4971
  955MOL0     H31729   1.942   1.079   2.668  2.0023 -1.9278  1.8635
  955MOL0     H31730   1.891   0.962   2.757 -0.3211  0.2825 -1.4301
  955MOL0     H31731   1.700   1.097   2.866  0.7865 -2.7585  0.2108
  955MOL0     H31732   1.698   1.027   2.701 -0.1107  1.9001 -1.3455
  955MOL0     H31733   1.729   1.302   2.814  2.0353 -0.0529 -0.1974
  955MOL0     H31734   1.765   1.282   2.642  0.1486  0.4768 -0.2405
  955MOL0     H31735   1.538   1.191   2.607 -1.4815  0.1683 -1.5824
  955MOL0     H31736   1.523   1.361   2.661 -2.8141 -2.0624 -2.4205
  955MOL0     H31737   1.486   1.124   2.839  0.1765 -0.2149  0.2331
  955MOL0     H31738   1.471   1.285   2.895 -0.2054 -0.3169  0.4366
  955MOL0     H31739   1.264   1.041   2.866 -0.2663 -1.2536 -1.9782
  955MOL0     H31740   1.017   0.981   2.816  0.6604  1.4465  2.8395
  955MOL0     H31741   0.920   1.083   2.713 -0.3941 -0.0981 -0.6544
  955MOL0     H31742   0.835   1.193   2.890 -2.7737 -3.0759 -2.4583
  955MOL0     H31743   0.846   1.038   2.933 -0.0233 -1.6615 -3.2302
  955MOL0     H31744   1.091   1.079   3.058  1.4202  1.9058  2.8144
  955MOL0     H31745   1.043   1.252   3.031 -3.1382  2.4045  1.8347
  955MOL0     H31746   0.860   1.071   3.187 -0.0024 -0.4581 -0.8821
  955MOL0     H31747   0.959   1.189   3.250 -1.1544  1.0728  0.0298
  955MOL0     H31748   0.790   1.403   3.379  0.9762 -0.4976 -2.2086
  955MOL0     H31749   0.575   1.481   3.556  3.2567  1.0983 -0.5301
  955MOL0     H31750   0.733   1.400   3.579  0.5363 -0.9431  0.6968
  955MOL0     H31751   0.578   1.325   3.645 -2.4994 -0.8066 -1.9046
  955MOL0     H31752   0.062   1.198   3.619  0.5230 -0.1208 -0.4297
  955MOL0     H31753   0.035   1.068   3.818 -0.1230  0.8844 -0.8499
  955MOL0     H31754   0.168   0.646   3.867 -0.1548  0.2204 -0.9053
  955MOL0     H31755   0.326   0.727   3.870  0.5444  0.4087  1.1470
  955MOL0     H31756   0.281   0.807   4.108  2.2617 -0.1018 -1.2901
  955MOL0     H31757   0.124   0.728   4.100  1.0358 -0.7438  0.3921
  955MOL0     H31758   0.388   0.583   4.048  0.4048 -3.0204 -0.1693
  955MOL0     H31759   0.225   0.519   4.032 -2.3997 -0.0289  2.6113
  955MOL0     H31760   0.301   0.434   4.246 -0.1263 -0.7402 -2.0030
  955MOL0     H31761   0.173   0.539   4.266  0.5051 -1.0080  2.9162
  955MOL0     H31762   0.281   0.721   4.337  0.2866 -0.2899 -0.3397
  955MOL0     H31763   0.334   0.586   4.444  0.6949 -1.3809  0.2645
  955MOL0     H31764   0.536   0.715   4.398 -0.5128 -0.9104  0.4791
  955MOL0     H31765   0.480   0.711   4.224 -1.6788  3.3853  0.6726
  955MOL0     H31766   0.538   0.441   4.261 -0.3732  0.0993 -2.3107
  955MOL0     H31767   0.614   0.503   4.411  1.7412  0.2926 -1.1440
  955MOL0     H31768   0.696   0.582   4.135  0.4544 -0.0616  0.8763
  955MOL0     H31769   0.777   0.466   4.246  2.3410  0.8937  2.4830
  955MOL0     H31770   0.328   0.779   3.657  1.3141  1.1304  0.2414
  955MOL0     H31771   0.371   0.937   3.482  0.1928  2.2053 -0.5965
  955MOL0     H31772   0.384   1.169   3.229 -0.3765  0.7826  0.8504
  955MOL0     H31773   0.574   1.147   3.094 -0.2578 -2.8764  1.7572
  955MOL0     H31774   2.104   0.651   3.160 -0.5304 -3.3292  0.7385
  955MOL0     H31775   2.083   0.431   3.052  0.2970 -1.1591 -2.3101
  955MOL0     H31776   1.945   0.232   2.662  0.1443  0.1992 -1.4289
  955MOL0     H31777   1.882   0.029   2.527  0.0770 -0.5351 -0.0426
  955MOL0     H31778   1.903  -0.128   2.373 -0.6336  0.2188 -1.9383
  955MOL0     H31779   2.077  -0.058   2.357  0.9721 -0.4069  2.0965
  955MOL0     H31780   2.039  -0.223   2.178 -2.3733 -0.5032 -0.4468
  955MOL0     H31781   1.973  -0.336   2.299 -0.1627 -0.3424 -0.7222
  955MOL0     H31782   2.177  -0.369   2.402 -1.5433  1.7524  2.0488
  955MOL0     H31783   2.199  -0.392   2.221 -0.3158 -0.0941 -0.8797
  955MOL0     H31784   2.384  -0.273   2.328 -0.7007 -2.9950  1.5826
  955MOL0     H31785   2.280  -0.149   2.383  1.3642  1.7954 -2.4740
  955MOL0     H31786   2.315  -0.068   1.956 -2.2925 -0.2030  0.0294
  955MOL0     H31787   2.203  -0.184   2.694  0.2111 -0.6140  1.2422
  955MOL0     H31788   2.225  -0.052   2.972  0.0670  0.7170  0.3600
  955MOL0     H31789   2.333  -0.104   2.843 -0.2124  0.7033 -1.9930
  955MOL0     H31790   2.347   0.061   2.897  1.3936 -1.2560  3.3044
  956MOL0     O31791   1.269  11.503   9.237 -0.1231 -0.4742  0.1140
  956MOL0     C31792   1.332  11.527   9.131 -0.9657 -0.5771 -0.1415
  956MOL0     O31793   1.340  11.454   9.014  0.2574 -0.2323 -0.2038
  956MOL0     C31794   1.278  11.328   9.009 -0.2213  0.1554 -0.2983
  956MOL0     C31795   1.274  11.284   8.877  0.4957  0.4039 -0.3925
  956MOL0     C31796   1.225  11.163   8.842 -0.7516  0.4290 -0.0630
  956MOL0     C31797   1.191  11.072   8.941  0.2075 -0.3694  0.5531
  956MOL0     O31798   1.140  10.941   8.916 -0.9201  0.2730  0.3304
  956MOL0     C31799   0.995  10.939   8.893 -1.4945  0.0902  0.5756
  956MOL0     C31800   0.948  10.854   8.778  0.6053  0.3015 -0.0402
  956MOL0     C31801   1.035  10.869   8.644  0.5413 -0.7532  0.2257
  956MOL0     C31802   0.976  10.801   8.520  0.3546 -0.5282  0.0248
  956MOL0     C31803   1.041  10.839   8.384 -0.7442  0.0539  0.3945
  956MOL0     C31804   1.174  10.766   8.368  0.2183 -0.2233 -0.8929
  956MOL0     C31805   1.243  10.797   8.243 -0.4936  0.3977  0.8445
  956MOL0     C31806   1.394  10.776   8.244 -0.0661  0.3138  0.2054
  956MOL0     N31807   1.439  10.634   8.261 -0.5870 -0.4841 -0.5415
  956MOL0     C31808   1.438  10.571   8.380  0.2012  0.1295  0.5099
  956MOL0     C31809   1.514  10.460   8.356  0.5354 -1.2606  0.3478
  956MOL0     C31810   1.550  10.353   8.454 -0.2009 -0.4609 -1.0056
  956MOL0     C31811   1.696  10.371   8.480 -0.3255 -0.5726 -0.8338
  956MOL0     C31812   1.740  10.285   8.599  0.0903 -0.2327  0.4097
  956MOL0     C31813   1.884  10.293   8.658  0.7866 -0.0328 -0.1998
  956MOL0     O31814   1.927  10.424   8.663  1.0186  0.6035  0.0872
  956MOL0     C31815   1.911  10.511   8.765  0.2635  0.4325 -0.4424
  956MOL0     C31816   1.876  10.481   8.899  0.0454  0.3390 -0.7101
  956MOL0     C31817   1.846  10.581   8.997 -0.0495 -0.1384 -0.3058
  956MOL0     C31818   1.807  10.543   9.132 -0.2264  0.4886 -1.0469
  956MOL0     C31819   1.865  10.720   8.957  0.1717 -0.4822  0.4551
  956MOL0     C31820   1.859  10.830   9.048 -1.0264 -0.0997  0.1149
  956MOL0     O31821   1.770  10.822   9.147  0.2523  0.0558  0.2122
  956MOL0     C31822   1.733  10.934   9.212 -0.0002  0.1323 -0.5690
  956MOL0     C31823   1.624  11.014   9.167  0.7039  0.1696  0.2272
  956MOL0     C31824   1.602  11.134   9.239 -0.1360 -0.5176 -0.5479
  956MOL0     C31825   1.670  11.168   9.360  0.3702  0.7241 -0.3802
  956MOL0     O31826   1.641  11.285   9.433 -0.2022 -0.3464  0.1681
  956MOL0     C31827   1.555  11.385   9.378  0.7178  0.3461 -0.3672
  956MOL0     C31828   1.553  11.511   9.474  0.1063  0.0423  0.1848
  956MOL0     C31829   1.669  11.610   9.442 -0.5391 -0.4132 -1.1184
  956MOL0     C31830   1.641  11.742   9.529  0.5837  0.0272  0.0601
  956MOL0     C31831   1.753  11.849   9.505 -0.7349  0.5888  0.1532
  956MOL0     C31832   1.744  11.975   9.589 -0.1126  0.9321 -1.2241
  956MOL0     C31833   1.865  12.067   9.589  0.2569  0.8531 -0.8143
  956MOL0     C31834   1.868  12.151   9.713 -0.3622 -0.9992 -0.4470
  956MOL0    Cl31835   1.974  12.309   9.675  0.5405  0.0481 -0.2677
  956MOL0     C31836   1.758  11.077   9.409 -0.4400 -0.1595 -0.2069
  956MOL0     C31837   1.796  10.967   9.334 -0.5653  0.2708 -0.5428
  956MOL0     O31838   1.929  10.932   9.027 -0.0112  0.1434  0.3269
  956MOL0     C31839   1.910  10.747   8.826  0.6105  0.1560 -0.0335
  956MOL0     C31840   1.937  10.646   8.732 -0.1388  0.1984  0.1632
  956MOL0     N31841   1.568  10.467   8.227 -0.3019 -0.3491  0.3600
  956MOL0     N31842   1.519  10.570   8.167 -0.2165  1.1177 -0.6338
  956MOL0     C31843   1.181  11.116   9.073  0.2881  0.2095 -0.0921
  956MOL0     C31844   1.231  11.241   9.104 -1.4137  0.4041 -0.2258
  956MOL0     C31845   1.394  11.661   9.131 -0.0895 -0.1074  0.1471
  956MOL0     C31846   1.528  11.673   9.087  0.2954  0.2638 -1.1802
  956MOL0     C31847   1.601  11.789   9.100 -0.0123 -0.0045  0.1363
  956MOL0     C31848   1.539  11.903   9.159  0.6630  1.0846 -0.4060
  956MOL0     O31849   1.586  12.027   9.163  0.0930 -0.1364 -0.0017
  956MOL0     C31850   1.716  12.065   9.119 -0.2230 -0.4178 -0.4129
  956MOL0     C31851   1.737  12.219   9.135  0.3813 -0.5572 -0.1115
  956MOL0     C31852   1.805  12.289   9.024  0.4683 -0.2342  0.3505
  956MOL0     C31853   1.708  12.335   8.920  0.2375 -0.0771 -0.2401
  956MOL0     C31854   1.781  12.433   8.838 -0.0183  0.7670 -0.5947
  956MOL0     C31855   1.849  12.507   8.763  0.2976  0.5766 -0.6587
  956MOL0     C31856   1.410  11.892   9.205 -0.4368  0.4721  0.4342
  956MOL0     C31857   1.339  11.770   9.201  0.0242 -0.4562  0.6156
  956MOL0     C31858   1.204  11.777   9.280 -0.2155  1.4775  0.2523
  956MOL0     H31859   1.309  11.350   8.798 -1.8313 -1.2595 -3.0582
  956MOL0     H31860   1.216  11.116   8.744 -0.3694  0.2137  0.0026
  956MOL0     H31861   0.956  11.040   8.883  1.0447  0.9663 -2.3620
  956MOL0     H31862   0.955  10.891   8.982 -1.7211  1.0899  1.0200
  956MOL0     H31863   0.931  10.752   8.811 -1.6607  1.5515  3.1423
  956MOL0     H31864   0.849  10.891   8.750 -0.0312 -0.7499  0.7712
  956MOL0     H31865   1.033  10.977   8.625 -1.8869 -0.6483  0.7627
  956MOL0     H31866   1.139  10.844   8.668  0.9845 -0.1549 -1.0071
  956MOL0     H31867   0.978  10.692   8.521 -1.0211 -0.5956 -1.2840
  956MOL0     H31868   0.874  10.841   8.513  0.3376 -0.5613  0.0918
  956MOL0     H31869   1.077  10.942   8.372  1.5237 -0.8556 -1.3821
  956MOL0     H31870   0.971  10.822   8.303 -0.6800  0.2178  0.3059
  956MOL0     H31871   1.231  10.791   8.458 -1.0727 -1.1249  0.2126
  956MOL0     H31872   1.152  10.659   8.367  2.2393 -0.6861 -0.2477
  956MOL0     H31873   1.237  10.898   8.200  1.3068 -0.4077 -1.5383
  956MOL0     H31874   1.200  10.738   8.161 -2.0770  1.1588  1.0778
  956MOL0     H31875   1.441  10.813   8.153  1.5221 -0.3729  0.7149
  956MOL0     H31876   1.447  10.818   8.330 -0.7456 -2.0399  1.8806
  956MOL0     H31877   1.382  10.607   8.466  0.5787  0.6284  0.5492
  956MOL0     H31878   1.551  10.252   8.411 -1.4858 -0.8931 -0.1015
  956MOL0     H31879   1.489  10.350   8.546 -3.4655 -0.8096 -3.0021
  956MOL0     H31880   1.763  10.346   8.398  2.6966  1.1392  0.9182
  956MOL0     H31881   1.713  10.476   8.507 -2.3467 -0.0059 -1.5174
  956MOL0     H31882   1.666  10.318   8.673 -1.1091  1.3574 -1.3647
  956MOL0     H31883   1.714  10.179   8.589  0.6747 -0.4217  0.8922
  956MOL0     H31884   1.870  10.244   8.754 -0.4052  0.3556 -0.1613
  956MOL0     H31885   1.944  10.228   8.594 -1.3279 -1.6969 -0.5911
  956MOL0     H31886   1.875  10.380   8.940 -1.8924  1.2853  1.9212
  956MOL0     H31887   1.780  10.437   9.142  0.4350  0.4857  1.1550
  956MOL0     H31888   1.710  10.592   9.141 -0.6445 -0.2331 -1.5504
  956MOL0     H31889   1.880  10.568   9.209 -1.8446 -1.5686  1.3027
  956MOL0     H31890   1.572  10.979   9.078 -0.2199  0.0131  0.8214
  956MOL0     H31891   1.530  11.202   9.195 -0.5646 -1.5804 -1.5336
  956MOL0     H31892   1.569  11.416   9.274  0.2750 -0.8183 -0.7956
  956MOL0     H31893   1.456  11.337   9.379  0.2161  1.3443 -0.1468
  956MOL0     H31894   1.461  11.563   9.446  0.0201 -1.0187 -1.7057
  956MOL0     H31895   1.550  11.483   9.579  0.8753  1.7434  0.6837
  956MOL0     H31896   1.658  11.633   9.336 -5.7465  1.1279 -0.5274
  956MOL0     H31897   1.764  11.573   9.481 -2.2510 -4.3157 -0.0597
  956MOL0     H31898   1.632  11.711   9.634 -1.3884 -0.4171 -0.2115
  956MOL0     H31899   1.548  11.797   9.513 -0.3775 -0.3256  3.5836
  956MOL0     H31900   1.850  11.805   9.532 -1.3984 -1.4091 -0.5724
  956MOL0     H31901   1.765  11.875   9.400  1.7405  0.2212  0.2839
  956MOL0     H31902   1.709  11.950   9.689  0.6842 -1.9104 -1.5887
  956MOL0     H31903   1.660  12.029   9.544 -0.2896  0.6362 -1.2515
  956MOL0     H31904   1.863  12.120   9.493 -3.3398  2.4002 -0.0480
  956MOL0     H31905   1.958  12.013   9.607 -0.4456  0.4096  1.8999
  956MOL0     H31906   1.918  12.094   9.792  3.3186 -1.7194 -3.1047
  956MOL0     H31907   1.770  12.187   9.748  0.8335 -0.2038  2.3950
  956MOL0     H31908   1.799  11.100   9.506  0.5759 -7.5102  1.7037
  956MOL0     H31909   1.875  10.908   9.379  0.8787  0.7905 -2.2880
  956MOL0     H31910   1.931  10.846   8.788  2.6178  0.0480  0.6999
  956MOL0     H31911   1.978  10.674   8.635  2.7221 -2.7972  0.3326
  956MOL0     H31912   1.140  11.049   9.148 -0.6043 -0.0510 -0.7948
  956MOL0     H31913   1.250  11.266   9.208 -0.2370 -0.6356 -0.1648
  956MOL0     H31914   1.578  11.583   9.053  1.1708  0.6162 -0.8708
  956MOL0     H31915   1.702  11.789   9.060 -0.2479 -2.1053 -0.5641
  956MOL0     H31916   1.802  12.029   9.176  0.8799  4.5039  1.6253
  956MOL0     H31917   1.723  12.039   9.013  2.5334  0.8462 -0.6380
  956MOL0     H31918   1.791  12.243   9.227 -0.3182 -0.0825  0.1888
  956MOL0     H31919   1.638  12.263   9.152  0.4304 -0.1647 -0.7886
  956MOL0     H31920   1.841  12.382   9.070 -1.1327  1.0897 -0.9635
  956MOL0     H31921   1.879  12.230   8.969  2.0489  0.6908  1.3873
  956MOL0     H31922   1.618  12.379   8.965  1.6505  1.9854  0.6980
  956MOL0     H31923   1.697  12.259   8.842  0.4071 -1.3099  0.8919
  956MOL0     H31924   1.910  12.567   8.700  1.9423  0.2858  0.5964
  956MOL0     H31925   1.360  11.973   9.257  0.6781  1.3428  0.2013
  956MOL0     H31926   1.216  11.751   9.385  1.2992  0.2649 -0.1855
  956MOL0     H31927   1.154  11.874   9.276 -3.0607  0.2540  2.3903
  956MOL0     H31928   1.134  11.698   9.250  1.6525 -0.2699  0.2839
  957MOL0     O31929   4.276   7.163  11.356  0.3930  1.5216 -1.1736
  957MOL0     C31930   4.211   7.138  11.255 -0.0892 -0.1415 -0.4288
  957MOL0     O31931   4.220   7.022  11.184 -0.6013 -1.1814  0.4148
  957MOL0     C31932   4.276   6.917  11.254 -1.3496 -0.3699 -0.2236
  957MOL0     C31933   4.411   6.871  11.238 -0.2321 -0.0880 -0.1985
  957MOL0     C31934   4.467   6.770  11.305 -0.4952  0.0037  0.2024
  957MOL0     C31935   4.385   6.704  11.404  0.0542 -0.2985  0.3330
  957MOL0     O31936   4.448   6.601  11.470  0.8352  0.5985  0.1667
  957MOL0     C31937   4.391   6.557  11.603 -1.2046  0.4889  0.3561
  957MOL0     C31938   4.455   6.423  11.650 -0.2453  0.1682 -0.6758
  957MOL0     C31939   4.437   6.300  11.570 -0.0658  0.8370 -1.0988
  957MOL0     C31940   4.295   6.239  11.577  0.1195 -0.4593  0.3801
  957MOL0     C31941   4.275   6.127  11.481 -0.1298 -0.6522 -0.0036
  957MOL0     C31942   4.132   6.069  11.477 -0.3666  0.6710  0.8392
  957MOL0     C31943   4.121   5.939  11.397  0.3195  0.1568 -0.5803
  957MOL0     C31944   4.211   5.834  11.469  1.3101  0.0771 -0.0461
  957MOL0     N31945   4.165   5.792  11.598 -1.4350  0.3039  1.0552
  957MOL0     C31946   4.058   5.713  11.627 -0.0430 -0.1079  0.0950
  957MOL0     C31947   4.075   5.701  11.762 -0.0514 -0.4366 -0.2819
  957MOL0     C31948   3.991   5.616  11.858 -0.3870 -0.6018 -0.3810
  957MOL0     C31949   4.038   5.469  11.849  0.7537 -0.0278  1.0109
  957MOL0     C31950   3.972   5.398  11.725 -0.5239 -0.0341 -0.7003
  957MOL0     C31951   4.019   5.250  11.708  0.9930  0.3289  0.5505
  957MOL0     O31952   4.029   5.184  11.841 -0.5139 -0.1023  0.8635
  957MOL0     C31953   4.054   5.051  11.851  0.1249 -0.7329 -0.1312
  957MOL0     C31954   4.074   4.967  11.740 -0.4381 -0.0677 -0.6755
  957MOL0     C31955   4.102   4.833  11.759 -0.9330  0.1255  0.0637
  957MOL0     C31956   4.123   4.754  11.637 -0.3451  0.9740  0.0037
  957MOL0     C31957   4.111   4.778  11.894 -0.2661  0.0379  0.9381
  957MOL0     C31958   4.153   4.643  11.929  0.4194  0.4153  0.2929
  957MOL0     O31959   4.174   4.625  12.061  0.3173 -0.4623  0.1593
  957MOL0     C31960   4.214   4.503  12.114 -0.3029  0.7676 -0.4225
  957MOL0     C31961   4.214   4.374  12.055 -0.4160 -0.0575 -1.0395
  957MOL0     C31962   4.250   4.253  12.126  0.3961 -0.2907 -0.1903
  957MOL0     C31963   4.284   4.263  12.260 -0.0277  0.7653 -0.7917
  957MOL0     O31964   4.319   4.144  12.330  0.2925 -0.3011 -0.0486
  957MOL0     C31965   4.266   4.016  12.289 -0.4241  0.0074 -0.2421
  957MOL0     C31966   4.280   3.900  12.396  0.1047 -0.7523 -0.8591
  957MOL0     C31967   4.188   3.933  12.518  0.3583 -1.0537 -0.1104
  957MOL0     C31968   4.236   4.039  12.615  0.3679  0.2758  1.4135
  957MOL0     C31969   4.132   4.048  12.725 -0.4378 -0.5640 -0.9131
  957MOL0     C31970   4.169   4.154  12.838  0.5751  0.4373  0.7629
  957MOL0     C31971   4.082   4.159  12.960 -0.4950 -0.0685 -0.3551
  957MOL0     C31972   4.131   4.285  13.042 -0.7489  0.1277 -0.3208
  957MOL0    Cl31973   4.028   4.310  13.193 -0.0360  0.4554 -0.0980
  957MOL0     C31974   4.294   4.391  12.315 -0.0205  0.7006  0.6085
  957MOL0     C31975   4.250   4.509  12.248 -0.4303 -0.3921  0.2150
  957MOL0     O31976   4.166   4.566  11.839 -0.3044 -0.0363 -0.3582
  957MOL0     C31977   4.078   4.866  12.002 -0.3249 -0.0299  0.5733
  957MOL0     C31978   4.058   5.004  11.976  0.4957  0.4846 -0.2251
  957MOL0     N31979   4.178   5.773  11.813  0.6084  0.6400  0.8554
  957MOL0     N31980   4.233   5.823  11.710 -0.5496 -0.5475  0.2455
  957MOL0     C31981   4.255   6.760  11.436  0.1939  0.4379 -0.1188
  957MOL0     C31982   4.204   6.864  11.358  0.8710 -0.3044 -0.1382
  957MOL0     C31983   4.143   7.251  11.200  0.1284 -0.7467 -0.2940
  957MOL0     C31984   4.194   7.377  11.241  0.4982 -0.7628  0.1493
  957MOL0     C31985   4.139   7.501  11.196  0.4476 -0.3556  0.3837
  957MOL0     C31986   4.027   7.501  11.115 -0.7817 -0.8585 -1.6545
  957MOL0     O31987   3.956   7.620  11.080  0.8453  0.6729  0.3134
  957MOL0     C31988   4.023   7.740  11.064  0.1843 -1.0582  0.2794
  957MOL0     C31989   3.944   7.816  10.961  0.3637  0.1009 -0.8223
  957MOL0     C31990   3.805   7.879  11.002  1.4559 -0.3554 -0.2981
  957MOL0     C31991   3.730   7.942  10.891 -0.5710  0.6865  0.1399
  957MOL0     C31992   3.783   8.067  10.836 -0.2067 -0.8037  0.1775
  957MOL0     C31993   3.845   8.168  10.789  0.1063  0.4665 -0.3314
  957MOL0     C31994   3.980   7.373  11.075 -0.0324 -0.0610  0.5284
  957MOL0     C31995   4.036   7.249  11.113 -0.4992 -0.4911 -0.8584
  957MOL0     C31996   3.974   7.121  11.056  0.0204  0.2036  0.6667
  957MOL0     H31997   4.472   6.933  11.174 -1.0289  1.8649  0.8407
  957MOL0     H31998   4.569   6.741  11.285  0.3389  0.0606  3.7092
  957MOL0     H31999   4.283   6.546  11.610 -1.0178 -0.7272  1.7642
  957MOL0     H32000   4.417   6.633  11.677 -0.8077  0.8533 -0.1444
  957MOL0     H32001   4.560   6.447  11.671 -0.9371  3.2400 -0.1849
  957MOL0     H32002   4.415   6.394  11.748  0.1669 -1.8983 -1.0681
  957MOL0     H32003   4.449   6.329  11.465  0.9161  1.1925 -0.8972
  957MOL0     H32004   4.504   6.222  11.605 -1.8618  1.0629  3.5308
  957MOL0     H32005   4.283   6.200  11.678 -0.4702 -0.5572  0.2776
  957MOL0     H32006   4.217   6.314  11.560  0.8065  0.3595  0.7659
  957MOL0     H32007   4.343   6.049  11.517  0.3149  0.8254  2.6574
  957MOL0     H32008   4.293   6.158  11.378  0.8287 -2.9753 -0.5935
  957MOL0     H32009   4.089   6.055  11.576 -0.0328  2.0953  1.2140
  957MOL0     H32010   4.067   6.148  11.438 -0.0277  1.3181  1.5723
  957MOL0     H32011   4.151   5.937  11.292  2.4678 -2.3962 -0.0241
  957MOL0     H32012   4.019   5.902  11.383 -0.1220  1.0258  0.2158
  957MOL0     H32013   4.202   5.749  11.401  0.9002  0.3368 -0.3248
  957MOL0     H32014   4.317   5.862  11.462  1.3399  0.4405  1.4827
  957MOL0     H32015   3.981   5.671  11.563  0.4722  0.1991 -0.7412
  957MOL0     H32016   3.885   5.606  11.831 -0.6915 -0.1268  0.6027
  957MOL0     H32017   3.991   5.665  11.955  0.0338  2.7883 -1.9536
  957MOL0     H32018   4.146   5.455  11.857  0.6930 -1.2335  0.0632
  957MOL0     H32019   3.984   5.427  11.934 -1.5136  0.0907 -0.3009
  957MOL0     H32020   3.864   5.405  11.741  0.0210 -0.9518  5.5514
  957MOL0     H32021   3.996   5.458  11.636  2.9276  3.1807  2.0812
  957MOL0     H32022   3.934   5.205  11.657  0.4171 -0.9352  2.4905
  957MOL0     H32023   4.116   5.231  11.659  1.2882 -1.5288  1.7438
  957MOL0     H32024   4.081   4.996  11.636  0.1096 -1.2622 -0.9942
  957MOL0     H32025   4.058   4.667  11.649  3.6566 -2.2125  0.8911
  957MOL0     H32026   4.225   4.714  11.636 -1.4055 -2.3576  2.7776
  957MOL0     H32027   4.101   4.818  11.552 -1.6890 -0.3201 -0.6770
  957MOL0     H32028   4.170   4.357  11.957  2.0025 -1.7472 -1.9387
  957MOL0     H32029   4.249   4.161  12.069  2.6181  0.9166 -2.4385
  957MOL0     H32030   4.159   4.035  12.276 -1.6246 -3.3958  2.8083
  957MOL0     H32031   4.310   3.978  12.196  0.9897 -1.3969  0.9423
  957MOL0     H32032   4.242   3.806  12.355 -2.4173  0.2636 -1.0196
  957MOL0     H32033   4.382   3.890  12.434 -0.7238 -0.1740  1.6657
  957MOL0     H32034   4.172   3.841  12.575 -2.0561  0.3571  1.7087
  957MOL0     H32035   4.094   3.967  12.473  0.9585  0.4630 -0.2588
  957MOL0     H32036   4.242   4.126  12.549 -2.5807  0.6949  1.5729
  957MOL0     H32037   4.330   3.991  12.644  0.9378 -2.6815 -3.9599
  957MOL0     H32038   4.035   4.081  12.688  0.0832  0.4779 -1.3833
  957MOL0     H32039   4.128   3.951  12.775  0.9490  0.4161  1.2476
  957MOL0     H32040   4.151   4.244  12.779  0.5251 -0.6108 -0.8955
  957MOL0     H32041   4.272   4.134  12.867  0.3103 -1.9821  0.2601
  957MOL0     H32042   4.095   4.070  13.022  1.6308 -0.1332 -0.8375
  957MOL0     H32043   3.976   4.166  12.933  0.1771  2.5150 -2.8520
  957MOL0     H32044   4.117   4.379  12.988  0.2050 -0.1349 -1.0563
  957MOL0     H32045   4.237   4.272  13.063 -0.6788 -1.8508 -1.6356
  957MOL0     H32046   4.338   4.373  12.412  3.2358 -0.2155 -0.9127
  957MOL0     H32047   4.241   4.604  12.298 -0.2527 -1.1409  1.7339
  957MOL0     H32048   4.068   4.830  12.104  1.1166  0.9379  1.0890
  957MOL0     H32049   4.045   5.075  12.057  0.6095  1.1536 -0.7851
  957MOL0     H32050   4.196   6.725  11.521 -1.3254 -2.0699 -2.0609
  957MOL0     H32051   4.114   6.916  11.389  0.6689 -1.0658  0.5539
  957MOL0     H32052   4.288   7.377  11.295  1.0407 -1.7230 -0.7557
  957MOL0     H32053   4.190   7.592  11.225 -1.5215  0.0901  2.7104
  957MOL0     H32054   4.020   7.811  11.147  2.1011 -0.4709 -0.1069
  957MOL0     H32055   4.130   7.735  11.043  0.6282  1.9495  1.3383
  957MOL0     H32056   3.933   7.745  10.878  3.1806 -1.5605  0.0745
  957MOL0     H32057   3.997   7.905  10.927 -1.9146  3.4834  3.4711
  957MOL0     H32058   3.744   7.802  11.049  3.7153 -2.0074  0.1335
  957MOL0     H32059   3.826   7.956  11.078 -0.1163  3.1508 -3.1275
  957MOL0     H32060   3.627   7.962  10.922 -1.1064 -0.3849 -0.8885
  957MOL0     H32061   3.729   7.872  10.807  1.5349  1.4674 -0.5827
  957MOL0     H32062   3.898   8.250  10.745  4.7002 -3.8976 -4.1381
  957MOL0     H32063   3.894   7.362  11.010  0.4999 -1.0471 -0.0383
  957MOL0     H32064   3.951   7.053  11.139  1.0159  2.9596  3.3917
  957MOL0     H32065   3.878   7.145  11.009  1.4351  0.9998 -2.0660
  957MOL0     H32066   4.035   7.074  10.978  0.5665 -1.4987  2.0621
  958MOL0     O32067   9.331   6.107   0.055  0.1938 -0.2326  0.7285
  958MOL0     C32068   9.316   6.048   0.159  0.4736 -0.3446 -0.6068
  958MOL0     O32069   9.287   6.103   0.279 -0.0430 -0.7640  0.7013
  958MOL0     C32070   9.281   6.245   0.271 -0.6016  0.4978  0.4781
  958MOL0     C32071   9.350   6.316   0.358 -0.3111 -0.9037 -0.7743
  958MOL0     C32072   9.355   6.456   0.361  0.5029 -0.1701 -0.0594
  958MOL0     C32073   9.270   6.529   0.275  0.5829 -0.8077 -0.6829
  958MOL0     O32074   9.252   6.667   0.282  0.3160  0.5025 -0.0518
  958MOL0     C32075   9.319   6.749   0.376  0.0726  0.3575 -0.7525
  958MOL0     C32076   9.241   6.883   0.396  0.5637  0.4522  0.1554
  958MOL0     C32077   9.240   6.944   0.535 -0.2476 -0.6750  0.3204
  958MOL0     C32078   9.166   7.088   0.546 -0.3634 -0.3539 -0.3509
  958MOL0     C32079   9.015   7.072   0.538  0.3510  0.0323  0.1563
  958MOL0     C32080   8.956   7.198   0.590 -1.2131  1.3537 -0.3173
  958MOL0     C32081   8.806   7.176   0.612 -0.8282  0.0874  0.0841
  958MOL0     C32082   8.726   7.304   0.628 -0.3728 -0.0272 -0.7783
  958MOL0     N32083   8.744   7.352   0.766 -0.0929  1.0557 -0.2499
  958MOL0     C32084   8.646   7.375   0.853 -0.7116 -0.3358  0.2762
  958MOL0     C32085   8.707   7.455   0.945  0.6644  0.2097 -0.5259
  958MOL0     C32086   8.629   7.521   1.063 -0.3125 -0.9779 -0.6249
  958MOL0     C32087   8.542   7.639   1.017 -0.9411 -1.0355  0.8591
  958MOL0     C32088   8.441   7.686   1.121  0.0686 -0.1570 -0.4537
  958MOL0     C32089   8.506   7.773   1.232  0.3099  0.0719  0.0559
  958MOL0     O32090   8.535   7.911   1.199  0.0729 -0.4559  0.6523
  958MOL0     C32091   8.451   8.015   1.195  0.1777  0.4836 -1.1036
  958MOL0     C32092   8.310   7.998   1.218 -0.8154 -0.7279  0.1798
  958MOL0     C32093   8.214   8.104   1.215  0.3095  1.1235  0.0674
  958MOL0     C32094   8.080   8.082   1.278  0.9717 -0.2307  0.3208
  958MOL0     C32095   8.259   8.236   1.181 -0.4965  0.8284 -0.4587
  958MOL0     C32096   8.187   8.357   1.148  0.5433 -0.6311 -0.0511
  958MOL0     O32097   8.055   8.360   1.162 -0.0282  0.4362 -0.5923
  958MOL0     C32098   7.982   8.475   1.120  0.5970  0.1183  0.2015
  958MOL0     C32099   8.020   8.607   1.148 -0.0652 -0.0836  0.4063
  958MOL0     C32100   7.944   8.724   1.110  0.3735  0.6265  0.4747
  958MOL0     C32101   7.824   8.702   1.045  0.0660 -0.5661  0.5088
  958MOL0     O32102   7.749   8.820   1.036 -0.3753 -1.1568  0.5749
  958MOL0     C32103   7.630   8.826   0.967  1.4011 -0.9943 -0.1458
  958MOL0     C32104   7.594   8.978   0.923  0.7671  0.0337  0.8002
  958MOL0     C32105   7.470   8.991   0.827 -0.2794  0.1844  0.5314
  958MOL0     C32106   7.474   9.086   0.713  0.0774  0.6920  0.4692
  958MOL0     C32107   7.332   9.072   0.641  0.0441  0.5145 -0.4722
  958MOL0     C32108   7.294   9.195   0.561  1.0330  0.1433 -0.2581
  958MOL0     C32109   7.339   9.181   0.413 -0.8118  0.0511 -0.4157
  958MOL0     C32110   7.254   9.085   0.333 -1.5281 -1.2193 -0.0249
  958MOL0    Cl32111   7.117   9.173   0.256 -0.2920 -0.6137  0.5323
  958MOL0     C32112   7.786   8.574   1.014  0.3017 -0.1750 -0.5218
  958MOL0     C32113   7.864   8.457   1.049 -0.0523  0.0820  0.0005
  958MOL0     O32114   8.248   8.439   1.084 -0.1071 -0.0203 -0.3551
  958MOL0     C32115   8.398   8.248   1.168  0.3399  0.5834  0.3440
  958MOL0     C32116   8.501   8.147   1.193 -0.2883  0.1272  0.6515
  958MOL0     N32117   8.836   7.454   0.929 -0.6999 -0.5470  0.4049
  958MOL0     N32118   8.865   7.400   0.818  0.1936  0.2347 -0.2239
  958MOL0     C32119   9.187   6.456   0.184 -1.2687 -0.5768 -0.1197
  958MOL0     C32120   9.195   6.317   0.185  0.0975 -0.3975  0.3762
  958MOL0     C32121   9.318   5.896   0.160 -0.2283 -0.6951  0.7911
  958MOL0     C32122   9.261   5.844   0.045 -0.3682  0.4775 -0.5383
  958MOL0     C32123   9.259   5.705   0.033 -0.5708  0.2599 -1.1806
  958MOL0     C32124   9.309   5.622   0.131 -0.3431 -0.6332  0.2227
  958MOL0     O32125   9.306   5.485   0.112 -0.7401 -0.2812  0.0730
  958MOL0     C32126   9.375   5.400   0.204 -0.1133  0.4798 -0.0050
  958MOL0     C32127   9.371   5.251   0.150 -0.5341 -0.0062  0.0445
  958MOL0     C32128   9.439   5.150   0.250 -0.1399 -0.0955  0.4038
  958MOL0     C32129   9.392   5.010   0.214  0.1049  0.2186  0.8944
  958MOL0     C32130   9.443   4.975   0.077 -0.6991 -0.3482  0.0149
  958MOL0     C32131   9.488   4.942  -0.029  0.1064 -0.7923 -0.1271
  958MOL0     C32132   9.377   5.677   0.243 -0.0705 -0.3673  0.5951
  958MOL0     C32133   9.371   5.813   0.262  0.5646 -1.0558 -0.5050
  958MOL0     C32134   9.417   5.870   0.395 -0.2461 -0.3290  0.4844
  958MOL0     H32135   9.405   6.256   0.430  1.8928  1.5422 -0.2781
  958MOL0     H32136   9.430   6.512   0.415 -3.0927  2.0092  3.2039
  958MOL0     H32137   9.416   6.784   0.340  0.2052 -1.3368 -2.2015
  958MOL0     H32138   9.334   6.696   0.471 -1.5173  2.3657  0.6980
  958MOL0     H32139   9.266   6.962   0.324 -3.4482  1.9494  0.1482
  958MOL0     H32140   9.135   6.864   0.378  0.6315 -1.4709  1.5465
  958MOL0     H32141   9.192   6.875   0.605 -1.6698  0.2542  0.2937
  958MOL0     H32142   9.343   6.973   0.558  0.5632 -0.8322 -2.6986
  958MOL0     H32143   9.201   7.134   0.639  1.9285  0.0548 -1.3299
  958MOL0     H32144   9.199   7.158   0.469 -0.3752 -0.8987 -0.8542
  958MOL0     H32145   8.988   6.986   0.599 -0.0744  0.8507  1.1548
  958MOL0     H32146   8.982   7.060   0.435  0.7595 -1.3085  0.1736
  958MOL0     H32147   9.000   7.226   0.686 -2.5062  0.1393  0.6744
  958MOL0     H32148   8.957   7.279   0.516  0.1517  0.6595 -1.1061
  958MOL0     H32149   8.791   7.097   0.686 -0.0459 -0.2785 -0.1357
  958MOL0     H32150   8.756   7.143   0.520 -0.6931  2.0557 -0.7379
  958MOL0     H32151   8.756   7.383   0.558 -0.7254 -1.0858 -2.1752
  958MOL0     H32152   8.619   7.285   0.616 -0.7455  1.6552 -0.3648
  958MOL0     H32153   8.539   7.355   0.847 -1.2728  2.4281 -0.3332
  958MOL0     H32154   8.708   7.553   1.132  2.8349 -4.4949 -2.2711
  958MOL0     H32155   8.570   7.444   1.113  2.9916 -2.3421  1.5160
  958MOL0     H32156   8.615   7.713   0.986 -0.5904 -0.9888  1.7676
  958MOL0     H32157   8.479   7.602   0.936 -0.2300  0.1706 -0.2731
  958MOL0     H32158   8.361   7.749   1.080 -1.2280 -0.1483  1.9222
  958MOL0     H32159   8.398   7.599   1.171  4.2926 -3.1213 -1.3950
  958MOL0     H32160   8.456   7.769   1.329  1.7317  1.0666  0.8653
  958MOL0     H32161   8.597   7.720   1.259  0.6914  2.1151  3.3531
  958MOL0     H32162   8.271   7.904   1.255  0.5607 -0.8788  1.3165
  958MOL0     H32163   8.009   8.088   1.194  0.2618  2.8238  1.0437
  958MOL0     H32164   8.048   8.148   1.359 -2.7933 -2.5620  0.9903
  958MOL0     H32165   8.089   7.982   1.321  1.8326 -1.5119 -2.5740
  958MOL0     H32166   8.109   8.616   1.209  0.3439  1.2082 -0.3587
  958MOL0     H32167   7.969   8.826   1.137 -1.6510  0.6340  2.6304
  958MOL0     H32168   7.631   8.774   0.870 -3.3902  0.0495 -1.0174
  958MOL0     H32169   7.539   8.792   1.017 -0.4444  3.7011  0.1488
  958MOL0     H32170   7.567   9.045   1.005  0.5691  0.8408  0.0941
  958MOL0     H32171   7.685   9.017   0.877 -0.5349  2.8200  0.3302
  958MOL0     H32172   7.380   9.017   0.883  0.3220 -1.0783  2.1943
  958MOL0     H32173   7.458   8.889   0.788  2.6491  0.0381 -0.2130
  958MOL0     H32174   7.559   9.066   0.646 -0.8069 -0.8318 -0.2566
  958MOL0     H32175   7.483   9.188   0.751 -1.9735  1.9757 -2.1360
  958MOL0     H32176   7.334   8.975   0.591  0.4857 -0.1885  0.8498
  958MOL0     H32177   7.251   9.063   0.715 -0.8518  2.0301 -1.2173
  958MOL0     H32178   7.328   9.288   0.609 -1.7254  1.2561 -0.2434
  958MOL0     H32179   7.185   9.186   0.570  1.2841 -3.1134  0.7575
  958MOL0     H32180   7.441   9.141   0.414 -1.1213 -0.9743 -2.8463
  958MOL0     H32181   7.341   9.277   0.361 -1.4487  0.5697  0.4814
  958MOL0     H32182   7.229   8.997   0.392 -0.5795 -0.6558  1.2853
  958MOL0     H32183   7.327   9.047   0.261  3.0043  1.1195  2.8634
  958MOL0     H32184   7.685   8.552   0.979 -1.4361  1.5964  2.9194
  958MOL0     H32185   7.827   8.355   1.037  1.0689 -0.5745  1.7037
  958MOL0     H32186   8.448   8.342   1.147  1.2473 -0.0274 -0.2851
  958MOL0     H32187   8.607   8.165   1.177 -0.2216 -2.1066 -2.3715
  958MOL0     H32188   9.110   6.514   0.134  1.1690  1.5109 -1.6795
  958MOL0     H32189   9.135   6.251   0.123 -2.0191 -0.9577  2.8761
  958MOL0     H32190   9.213   5.900  -0.034 -0.3690  2.8037  1.0033
  958MOL0     H32191   9.211   5.662  -0.054 -0.1998 -0.3795 -1.0804
  958MOL0     H32192   9.480   5.429   0.218  0.9623 -2.8793 -0.2029
  958MOL0     H32193   9.344   5.397   0.309  2.4702 -0.3895  0.8052
  958MOL0     H32194   9.423   5.250   0.054  0.0964 -1.8820  0.3535
  958MOL0     H32195   9.269   5.217   0.132 -0.7144  0.2078  0.6379
  958MOL0     H32196   9.547   5.167   0.242 -0.1611 -0.5972 -1.3123
  958MOL0     H32197   9.412   5.175   0.353  1.4143 -1.3565  1.1659
  958MOL0     H32198   9.284   4.999   0.224  0.1329  0.6054  1.6669
  958MOL0     H32199   9.435   4.943   0.289  1.2259  2.2767  2.1790
  958MOL0     H32200   9.527   4.904  -0.121  2.3246  4.5308 -1.7584
  958MOL0     H32201   9.422   5.614   0.318  1.3617 -3.1527 -2.3625
  958MOL0     H32202   9.462   5.969   0.380 -0.1974 -0.6602 -2.0849
  958MOL0     H32203   9.331   5.888   0.460 -1.2499  0.5630 -1.0312
  958MOL0     H32204   9.495   5.811   0.445  0.2056  0.1377  0.3473
  959MOL0     O32205   7.345   2.280   1.896  0.7098  0.4846  0.0639
  959MOL0     C32206   7.369   2.399   1.859  0.1466  0.5007  0.4765
  959MOL0     O32207   7.275   2.506   1.843  0.6297 -0.0423  0.3532
  959MOL0     C32208   7.151   2.476   1.878  0.3968  0.5016  0.1479
  959MOL0     C32209   7.060   2.400   1.798  0.2138 -0.0742  0.3794
  959MOL0     C32210   6.930   2.385   1.834 -0.3218  0.3626 -1.1162
  959MOL0     C32211   6.882   2.439   1.950 -0.2548 -0.3008 -0.3020
  959MOL0     O32212   6.746   2.434   1.966 -0.4999 -0.2943 -0.0662
  959MOL0     C32213   6.689   2.501   2.079  0.2519 -0.2400  0.6076
  959MOL0     C32214   6.536   2.518   2.075 -1.2050  0.3870  0.0633
  959MOL0     C32215   6.479   2.368   2.095  0.6490 -0.0675 -0.1532
  959MOL0     C32216   6.330   2.372   2.062  0.1924  1.8464  0.6782
  959MOL0     C32217   6.263   2.230   2.105  0.8097  0.3411  0.0279
  959MOL0     C32218   6.111   2.239   2.075 -0.2383 -0.3673  0.7073
  959MOL0     C32219   6.050   2.106   2.118  1.1519  0.1621 -0.0964
  959MOL0     C32220   6.023   2.021   1.989  0.1398 -0.5062 -0.1194
  959MOL0     N32221   5.924   1.915   2.016  0.0179 -0.7877 -0.0788
  959MOL0     C32222   5.953   1.814   2.108  0.8885  1.7099  0.6990
  959MOL0     C32223   5.830   1.753   2.123  0.0367  0.4226  0.0702
  959MOL0     C32224   5.807   1.624   2.197 -0.0779  0.5133  0.1582
  959MOL0     C32225   5.763   1.627   2.344  0.7523 -0.3612 -0.5691
  959MOL0     C32226   5.637   1.539   2.375  0.4359  0.2458  0.0989
  959MOL0     C32227   5.631   1.486   2.521  1.2441  0.2001 -0.6942
  959MOL0     O32228   5.560   1.589   2.596 -1.2123 -0.2109  0.4225
  959MOL0     C32229   5.549   1.583   2.735 -0.0608  0.5120 -0.5198
  959MOL0     C32230   5.489   1.689   2.811  0.2618  0.0704  1.1554
  959MOL0     C32231   5.472   1.687   2.954 -0.9017  0.6966  0.2468
  959MOL0     C32232   5.392   1.795   3.018 -0.1105  0.4766 -0.6722
  959MOL0     C32233   5.543   1.584   3.019  0.5036  0.3123 -0.5054
  959MOL0     C32234   5.559   1.585   3.165 -0.0777 -0.0456  1.0480
  959MOL0     O32235   5.504   1.484   3.241 -0.0671  0.4500  0.3047
  959MOL0     C32236   5.506   1.504   3.377 -0.0767  0.0930  0.4100
  959MOL0     C32237   5.574   1.417   3.462  0.9920  0.5566 -0.2964
  959MOL0     C32238   5.571   1.435   3.604  0.1954  0.4836  0.4008
  959MOL0     C32239   5.488   1.534   3.654 -0.0240 -0.0624 -0.8814
  959MOL0     O32240   5.496   1.541   3.789 -0.1869 -0.6291  0.1047
  959MOL0     C32241   5.443   1.658   3.862 -0.4911 -0.6124  0.4717
  959MOL0     C32242   5.414   1.623   4.003  0.1240 -0.5955 -0.1550
  959MOL0     C32243   5.539   1.635   4.086  0.0699 -0.1369  0.3790
  959MOL0     C32244   5.622   1.516   4.079  0.5437  0.6937  0.5021
  959MOL0     C32245   5.746   1.527   4.163  0.8935 -0.4794  0.1186
  959MOL0     C32246   5.855   1.417   4.121  0.0372 -0.7904 -0.7579
  959MOL0     C32247   5.992   1.480   4.166  1.0194  0.0356 -0.0195
  959MOL0     C32248   5.992   1.476   4.316  0.2606 -0.6270 -0.1373
  959MOL0    Cl32249   6.171   1.498   4.376  0.1635  0.0709 -0.2432
  959MOL0     C32250   5.409   1.616   3.571 -0.0273 -0.3863  0.2037
  959MOL0     C32251   5.418   1.593   3.431  0.5620  0.2658 -0.6107
  959MOL0     O32252   5.597   1.691   3.198 -0.2499 -0.6350 -0.3325
  959MOL0     C32253   5.599   1.477   2.950 -0.2349 -0.1310 -0.0541
  959MOL0     C32254   5.593   1.474   2.813 -0.2570  0.0968 -0.3085
  959MOL0     N32255   5.729   1.826   2.057 -0.1992  0.2691  0.7103
  959MOL0     N32256   5.789   1.921   2.003  0.1892  0.0999  0.0884
  959MOL0     C32257   6.969   2.507   2.036 -0.2097 -1.0136  0.1301
  959MOL0     C32258   7.101   2.525   2.001 -0.2313  0.5625  1.0134
  959MOL0     C32259   7.505   2.422   1.813  0.3139 -0.5478  1.0223
  959MOL0     C32260   7.534   2.554   1.765 -0.5854 -0.8148  0.5169
  959MOL0     C32261   7.661   2.596   1.723  0.2709 -0.0945 -0.9098
  959MOL0     C32262   7.761   2.503   1.732 -0.0936 -0.3112  0.0876
  959MOL0     O32263   7.889   2.542   1.716  0.0633 -0.1597  0.9578
  959MOL0     C32264   7.947   2.490   1.604  0.5710 -0.1947  0.8283
  959MOL0     C32265   8.077   2.562   1.583 -0.4780 -1.2534  0.4180
  959MOL0     C32266   8.159   2.523   1.457  0.1931 -0.4643 -0.5659
  959MOL0     C32267   8.105   2.598   1.328 -0.2954  0.3489 -0.3766
  959MOL0     C32268   8.208   2.690   1.288  0.2220 -0.3015 -0.3683
  959MOL0     C32269   8.310   2.763   1.260  0.0436 -0.1153  0.4063
  959MOL0     C32270   7.743   2.374   1.778 -0.2429  0.0826 -0.1208
  959MOL0     C32271   7.615   2.330   1.814 -0.5598 -0.1095 -0.6610
  959MOL0     C32272   7.613   2.188   1.867  0.8488 -0.7981 -0.1235
  959MOL0     H32273   7.106   2.363   1.707  0.3658  0.3855  0.2694
  959MOL0     H32274   6.876   2.330   1.757  0.7582 -1.8059 -0.4271
  959MOL0     H32275   6.740   2.598   2.086  2.1449 -0.9477 -2.0543
  959MOL0     H32276   6.733   2.450   2.166  3.5016  0.6139 -0.3927
  959MOL0     H32277   6.518   2.578   2.165  1.7394  0.4175  0.7392
  959MOL0     H32278   6.491   2.553   1.982 -0.9014  1.1037  0.1844
  959MOL0     H32279   6.524   2.298   2.025 -0.8651  0.4514 -1.6998
  959MOL0     H32280   6.495   2.330   2.196  1.7875 -2.4532 -1.1568
  959MOL0     H32281   6.288   2.462   2.107 -2.0953  0.8640  0.6540
  959MOL0     H32282   6.319   2.385   1.954 -0.8400  0.4699  0.5828
  959MOL0     H32283   6.295   2.211   2.207  1.4861  2.2092  0.2099
  959MOL0     H32284   6.301   2.148   2.044 -1.6283 -0.1544 -0.9557
  959MOL0     H32285   6.068   2.323   2.129 -0.4253 -0.5270  0.8083
  959MOL0     H32286   6.113   2.258   1.968  2.2700  1.0343  0.9221
  959MOL0     H32287   5.950   2.125   2.158  0.2685 -1.1943 -1.5617
  959MOL0     H32288   6.110   2.046   2.187  1.2037  0.7706  0.4003
  959MOL0     H32289   5.981   2.084   1.910  0.0660  0.9082  1.0067
  959MOL0     H32290   6.114   1.975   1.951  0.2775 -0.7076  0.4482
  959MOL0     H32291   6.048   1.791   2.155  1.8626  4.3147  0.1675
  959MOL0     H32292   5.895   1.559   2.192 -0.6047 -0.3887  1.9237
  959MOL0     H32293   5.732   1.568   2.140  3.0317 -2.2047 -1.6476
  959MOL0     H32294   5.842   1.581   2.403 -0.8050 -1.1192  1.0047
  959MOL0     H32295   5.752   1.723   2.396  2.3412 -1.1570  1.3796
  959MOL0     H32296   5.542   1.585   2.347 -1.6510 -2.4257  2.2214
  959MOL0     H32297   5.635   1.458   2.301 -3.1458 -0.5598  0.8718
  959MOL0     H32298   5.561   1.403   2.529  2.3855 -0.7468 -0.2713
  959MOL0     H32299   5.729   1.450   2.552  1.7315  0.3646 -1.9470
  959MOL0     H32300   5.448   1.776   2.761 -0.2508 -0.3452  0.8415
  959MOL0     H32301   5.459   1.880   3.034  2.3289 -1.1230 -1.8185
  959MOL0     H32302   5.334   1.771   3.108 -0.5645  1.7439 -0.6050
  959MOL0     H32303   5.313   1.831   2.951 -0.3868 -3.1243 -2.5137
  959MOL0     H32304   5.637   1.341   3.417  1.0614  0.2334  0.3359
  959MOL0     H32305   5.633   1.362   3.655  2.9253  1.7207 -0.9320
  959MOL0     H32306   5.517   1.736   3.846 -0.7895 -0.5844 -0.9598
  959MOL0     H32307   5.352   1.681   3.806 -1.2084 -2.5356  0.7519
  959MOL0     H32308   5.338   1.695   4.034 -1.3292 -1.5432 -1.3387
  959MOL0     H32309   5.367   1.525   4.014 -2.5470 -0.0294 -4.1707
  959MOL0     H32310   5.505   1.642   4.189 -2.1256 -3.1202 -0.0137
  959MOL0     H32311   5.604   1.721   4.068  0.1190 -0.1016  0.7235
  959MOL0     H32312   5.640   1.499   3.972 -0.6235  0.9919  0.2422
  959MOL0     H32313   5.551   1.441   4.115 -2.8865  2.7446 -1.4071
  959MOL0     H32314   5.783   1.629   4.149 -2.7382  0.9069 -0.6502
  959MOL0     H32315   5.724   1.521   4.270  2.3676 -1.4651  0.4010
  959MOL0     H32316   5.865   1.390   4.016  3.1365  0.3884 -0.8509
  959MOL0     H32317   5.835   1.321   4.171  1.5081 -0.9729 -0.4866
  959MOL0     H32318   5.996   1.580   4.124 -0.0451  0.3779  0.6617
  959MOL0     H32319   6.079   1.424   4.131  0.1656 -0.9088 -0.6715
  959MOL0     H32320   5.948   1.381   4.348 -0.6736 -0.4469 -0.8569
  959MOL0     H32321   5.932   1.554   4.365  1.1134 -0.3925  0.5797
  959MOL0     H32322   5.343   1.693   3.608 -1.0435 -1.1777  0.0948
  959MOL0     H32323   5.363   1.664   3.369  0.8703  1.1440  0.0878
  959MOL0     H32324   5.653   1.396   3.000  2.3244  1.8714  0.6564
  959MOL0     H32325   5.638   1.388   2.765 -0.9827 -0.9392  0.8122
  959MOL0     H32326   6.928   2.541   2.130  2.0339 -0.8422  1.1046
  959MOL0     H32327   7.170   2.590   2.054  3.7857 -0.0043 -2.9018
  959MOL0     H32328   7.451   2.622   1.750  0.1608  0.1230  0.5838
  959MOL0     H32329   7.682   2.698   1.692  1.6664 -0.5225 -1.4685
  959MOL0     H32330   7.957   2.381   1.606 -3.5308 -0.7922 -0.9520
  959MOL0     H32331   7.879   2.514   1.522 -0.2837  2.0341  2.1068
  959MOL0     H32332   8.137   2.541   1.671  1.5642 -0.4983 -0.7353
  959MOL0     H32333   8.061   2.669   1.597  1.4442 -1.0126  1.0300
  959MOL0     H32334   8.267   2.529   1.474 -0.1208 -1.1496  2.1030
  959MOL0     H32335   8.130   2.421   1.432  2.9097 -1.5567  0.3634
  959MOL0     H32336   8.010   2.648   1.350  1.3030  3.2314  0.5011
  959MOL0     H32337   8.089   2.523   1.250  1.3808  0.8706 -1.2632
  959MOL0     H32338   8.394   2.820   1.226 -1.1421  0.3726 -1.8915
  959MOL0     H32339   7.824   2.302   1.778 -1.7079 -1.8878 -4.2580
  959MOL0     H32340   7.602   2.188   1.975  2.0239  0.4975  0.0251
  959MOL0     H32341   7.534   2.125   1.825 -0.9433  0.2442  1.5448
  959MOL0     H32342   7.714   2.148   1.860  1.4317  0.6883 -0.6599
  960MOL0     O32343   0.486  10.690   2.914 -0.4377 -0.5834 -0.0320
  960MOL0     C32344   0.469  10.597   2.831 -0.7378 -0.5572 -0.5524
  960MOL0     O32345   0.564  10.498   2.815 -0.7649 -0.3239 -0.6885
  960MOL0     C32346   0.678  10.511   2.901 -0.0372 -0.0414  0.9128
  960MOL0     C32347   0.657  10.491   3.041 -0.9066  0.4127 -1.2326
  960MOL0     C32348   0.764  10.493   3.123  0.0062  0.3689  0.5149
  960MOL0     C32349   0.890  10.520   3.078 -0.4318 -0.8036  0.1490
  960MOL0     O32350   1.000  10.534   3.159  0.2335 -0.5803 -0.2086
  960MOL0     C32351   0.984  10.576   3.294  0.1750 -0.5534 -0.7832
  960MOL0     C32352   1.131  10.618   3.310 -0.2372  0.0607  0.0646
  960MOL0     C32353   1.164  10.662   3.460 -0.2341  0.4839 -0.6125
  960MOL0     C32354   1.086  10.776   3.538 -0.3283  0.2512 -0.5093
  960MOL0     C32355   1.164  10.825   3.658  0.5474  0.5817  0.4088
  960MOL0     C32356   1.079  10.913   3.754  0.2814 -0.4997 -0.9901
  960MOL0     C32357   1.146  10.929   3.885 -0.2004 -0.0672 -0.9276
  960MOL0     C32358   1.043  10.983   3.992 -0.6839  0.3876  0.1637
  960MOL0     N32359   1.112  11.031   4.110 -0.2502 -0.0039 -0.0371
  960MOL0     C32360   1.132  11.160   4.157  0.8173  0.3987  0.9769
  960MOL0     C32361   1.224  11.144   4.258 -1.3253 -0.0470  0.4964
  960MOL0     C32362   1.282  11.275   4.327  0.0142 -0.8005 -0.2304
  960MOL0     C32363   1.324  11.377   4.224  0.1420  0.6784  0.4658
  960MOL0     C32364   1.365  11.499   4.303  0.4475  0.1441  0.2201
  960MOL0     C32365   1.247  11.602   4.302 -0.2738  0.5529  0.9357
  960MOL0     O32366   1.131  11.547   4.360  0.2804  0.1573  0.0874
  960MOL0     C32367   1.124  11.524   4.497  0.4172 -0.1572 -0.3785
  960MOL0     C32368   1.003  11.465   4.540  0.3889 -0.4304  1.0902
  960MOL0     C32369   0.974  11.448   4.673  1.3442  0.4074 -0.0442
  960MOL0     C32370   0.838  11.377   4.709 -0.9762 -0.2230 -0.2243
  960MOL0     C32371   1.051  11.511   4.773  0.6688  0.0793  0.1698
  960MOL0     C32372   1.023  11.508   4.917  0.1034 -0.0264  0.3356
  960MOL0     O32373   1.114  11.579   4.993  0.0730  0.6480 -0.8014
  960MOL0     C32374   1.092  11.610   5.123 -0.3573 -0.2942  0.2496
  960MOL0     C32375   1.199  11.576   5.206  0.4039  0.6017  0.1650
  960MOL0     C32376   1.184  11.606   5.338  0.6170  0.5883 -0.5835
  960MOL0     C32377   1.071  11.667   5.397  0.4959 -0.0174  0.2003
  960MOL0     O32378   1.045  11.683   5.535 -0.7480  0.4829  0.8535
  960MOL0     C32379   1.135  11.632   5.641  0.6777 -1.1168  0.7170
  960MOL0     C32380   1.095  11.689   5.779 -0.0345  0.0147 -0.1860
  960MOL0     C32381   1.128  11.840   5.797 -0.2471 -0.6613  1.0425
  960MOL0     C32382   1.082  11.894   5.942 -0.0161  0.3108  0.2819
  960MOL0     C32383   1.079  12.045   5.950  0.6271  0.0770  0.4669
  960MOL0     C32384   1.197  12.118   5.903  0.1867  0.2303  0.7879
  960MOL0     C32385   1.184  12.274   5.926 -0.1492  1.0456  0.0805
  960MOL0     C32386   1.304  12.351   5.879 -0.5220 -0.3213  0.4288
  960MOL0    Cl32387   1.447  12.336   5.992 -0.2119  0.1075 -0.2012
  960MOL0     C32388   0.961  11.700   5.318 -0.1830  0.1681  0.2978
  960MOL0     C32389   0.981  11.675   5.173 -0.8602 -1.1527  0.6359
  960MOL0     O32390   0.929  11.442   4.964 -0.2503  0.4835 -0.1290
  960MOL0     C32391   1.166  11.578   4.727  0.8211  0.7401  0.2860
  960MOL0     C32392   1.204  11.585   4.593 -0.0466 -0.4796 -0.1291
  960MOL0     N32393   1.248  11.007   4.272 -0.5066 -0.7727  0.2945
  960MOL0     N32394   1.183  10.939   4.183  0.4711  0.9122  0.2885
  960MOL0     C32395   0.912  10.546   2.945  0.5775  0.5474  0.1013
  960MOL0     C32396   0.811  10.538   2.854 -0.3898 -0.2478 -0.6698
  960MOL0     C32397   0.337  10.586   2.763  0.5915 -0.3296 -0.3338
  960MOL0     C32398   0.246  10.700   2.754 -0.3064 -0.4389  0.0182
  960MOL0     C32399   0.126  10.685   2.689 -0.2209 -0.1206 -0.2913
  960MOL0     C32400   0.080  10.559   2.647  0.1573  0.4551 -0.3158
  960MOL0     O32401  -0.047  10.547   2.598 -0.4683 -0.8703 -0.1417
  960MOL0     C32402  -0.124  10.423   2.592  0.1935  0.7216 -0.3633
  960MOL0     C32403  -0.272  10.434   2.627 -0.5567  0.9882  0.5719
  960MOL0     C32404  -0.336  10.301   2.669  0.0832  0.0082 -0.3809
  960MOL0     C32405  -0.471  10.324   2.740  0.1971 -0.0638 -0.0126
  960MOL0     C32406  -0.570  10.406   2.662  0.1780  0.2581 -0.4202
  960MOL0     C32407  -0.656  10.474   2.601 -0.5271  1.2090 -0.2155
  960MOL0     C32408   0.168  10.457   2.654  0.8436  0.3493  0.0032
  960MOL0     C32409   0.287  10.463   2.713  0.2893  0.4051  0.0579
  960MOL0     C32410   0.370  10.333   2.708  0.5223 -0.0279 -0.5037
  960MOL0     H32411   0.566  10.459   3.092  0.0179 -2.5437 -1.2523
  960MOL0     H32412   0.761  10.470   3.229  2.1525  2.4198  1.1184
  960MOL0     H32413   0.970  10.494   3.365 -0.6594 -2.3310 -2.8912
  960MOL0     H32414   0.913  10.656   3.314  1.6230  0.3295  1.0900
  960MOL0     H32415   1.194  10.536   3.272 -0.6829  0.4087 -1.5072
  960MOL0     H32416   1.154  10.705   3.248 -1.3122  1.1694  1.1626
  960MOL0     H32417   1.157  10.570   3.520  1.6344  0.1117 -0.9190
  960MOL0     H32418   1.271  10.683   3.463 -0.3088  0.7461  0.3831
  960MOL0     H32419   1.053  10.862   3.479 -0.3677 -0.5256 -1.6530
  960MOL0     H32420   0.994  10.731   3.577  1.3659 -2.5342  0.5819
  960MOL0     H32421   1.249  10.882   3.619 -0.5300  2.5769  0.8071
  960MOL0     H32422   1.193  10.737   3.715  0.1534  1.1210  1.4785
  960MOL0     H32423   1.039  11.005   3.712 -1.9478  0.7721  3.2792
  960MOL0     H32424   0.983  10.867   3.779  0.9076 -1.1902  0.2750
  960MOL0     H32425   1.232  10.996   3.889  1.7686 -2.5002  0.0713
  960MOL0     H32426   1.171  10.835   3.934 -0.5871  0.0203 -0.5562
  960MOL0     H32427   0.987  11.063   3.942 -1.3016  0.1944  0.5400
  960MOL0     H32428   0.975  10.901   4.017  1.4629 -1.7637 -0.6852
  960MOL0     H32429   1.078  11.243   4.113  1.8709  1.7844  2.2087
  960MOL0     H32430   1.355  11.251   4.405  0.1598  1.8144  0.5316
  960MOL0     H32431   1.195  11.309   4.384  2.2748  1.7972  1.9547
  960MOL0     H32432   1.409  11.339   4.167 -2.0091 -3.0465 -0.6149
  960MOL0     H32433   1.251  11.398   4.145  1.8707 -1.0037 -1.7049
  960MOL0     H32434   1.399  11.478   4.405 -2.3714 -0.2608  1.1905
  960MOL0     H32435   1.449  11.535   4.244 -1.1657  2.9804 -0.5045
  960MOL0     H32436   1.291  11.691   4.348  2.1608  1.0080 -1.8957
  960MOL0     H32437   1.228  11.632   4.198 -0.6105  1.4131  1.2399
  960MOL0     H32438   0.938  11.418   4.467 -0.4417  1.7606  0.3408
  960MOL0     H32439   0.846  11.299   4.786 -5.3956 -2.0158 -1.2822
  960MOL0     H32440   0.798  11.338   4.615 -0.7115  0.7240 -0.7448
  960MOL0     H32441   0.764  11.450   4.743 -3.5068 -2.9126  0.3945
  960MOL0     H32442   1.280  11.517   5.163  2.5787  1.1745  3.1677
  960MOL0     H32443   1.264  11.579   5.406  0.5733  0.1340 -0.7098
  960MOL0     H32444   1.126  11.523   5.642 -2.0223 -0.9879 -0.5994
  960MOL0     H32445   1.239  11.659   5.622  1.0580  0.0425  3.8424
  960MOL0     H32446   0.987  11.673   5.792  0.3873 -4.9958 -0.8977
  960MOL0     H32447   1.153  11.635   5.853  0.7091 -0.7881 -1.3155
  960MOL0     H32448   1.064  11.886   5.722  0.3238  0.7643  1.4070
  960MOL0     H32449   1.236  11.849   5.778 -0.6544  0.1754 -1.2594
  960MOL0     H32450   1.143  11.844   6.017  2.8156  1.0153 -1.3954
  960MOL0     H32451   0.985  11.849   5.963  0.7547 -0.0405  3.5246
  960MOL0     H32452   0.989  12.076   5.897  0.7216  0.8983  0.7702
  960MOL0     H32453   1.063  12.052   6.058 -0.9013 -0.5837  0.3124
  960MOL0     H32454   1.219  12.106   5.797 -1.8790  2.4718  0.0119
  960MOL0     H32455   1.274  12.076   5.969 -0.0275 -1.2267  0.1332
  960MOL0     H32456   1.176  12.291   6.034  0.4405  2.1250 -0.0297
  960MOL0     H32457   1.092  12.308   5.879 -0.4777  1.0026  0.6808
  960MOL0     H32458   1.272  12.453   5.856  0.8786 -0.1456 -0.8815
  960MOL0     H32459   1.334  12.313   5.781 -2.5260 -0.3933 -0.2031
  960MOL0     H32460   0.865  11.733   5.355 -0.5701 -2.7695  2.2427
  960MOL0     H32461   0.909  11.721   5.106 -0.4243  1.2760  1.7238
  960MOL0     H32462   1.239  11.633   4.786  3.1323  0.9012 -2.4846
  960MOL0     H32463   1.294  11.635   4.559 -0.3305 -0.5234 -0.9758
  960MOL0     H32464   1.010  10.562   2.900  1.1347 -1.3714  0.5414
  960MOL0     H32465   0.822  10.552   2.747 -1.4253 -0.8232 -0.8717
  960MOL0     H32466   0.268  10.793   2.805  2.3290 -0.4975 -0.8425
  960MOL0     H32467   0.066  10.775   2.699 -0.0506 -0.2633  2.9117
  960MOL0     H32468  -0.114  10.399   2.486  2.5421  1.0255 -0.2474
  960MOL0     H32469  -0.068  10.359   2.660  1.4535  4.6674  2.6992
  960MOL0     H32470  -0.314  10.479   2.536 -0.5901  1.4241  0.7970
  960MOL0     H32471  -0.280  10.511   2.704  0.7327  1.7171  0.0105
  960MOL0     H32472  -0.357  10.243   2.579 -1.3238  1.4239 -1.0050
  960MOL0     H32473  -0.262  10.242   2.726 -0.1510  0.1521  0.0793
  960MOL0     H32474  -0.453  10.369   2.838  0.9466 -2.2481  0.9074
  960MOL0     H32475  -0.522  10.232   2.767 -1.9128  0.4851 -1.7975
  960MOL0     H32476  -0.733  10.517   2.540 -4.8133 -2.5080  1.9557
  960MOL0     H32477   0.130  10.364   2.612  0.4594  0.3355  0.3673
  960MOL0     H32478   0.452  10.343   2.637 -1.5870  0.9821 -2.9626
  960MOL0     H32479   0.406  10.316   2.810 -1.2845  4.7768  1.2409
  960MOL0     H32480   0.314  10.243   2.682 -1.8393  1.8069 -2.3752
  961MOL0     O32481   3.181   0.127   7.849 -0.3818 -0.2006  1.1398
  961MOL0     C32482   3.130   0.224   7.916  0.3489  0.0135  0.3754
  961MOL0     O32483   3.014   0.277   7.886  0.4243 -0.6324  0.5180
  961MOL0     C32484   2.962   0.249   7.761  0.0884 -0.2449 -0.7282
  961MOL0     C32485   2.894   0.136   7.726 -1.1500  0.6926 -1.3137
  961MOL0     C32486   2.864   0.109   7.592 -0.3051  0.1982 -0.1810
  961MOL0     C32487   2.909   0.188   7.485 -0.6212  0.2429  1.1699
  961MOL0     O32488   2.901   0.149   7.354  0.4312  0.1636 -0.1596
  961MOL0     C32489   2.783   0.204   7.281  0.1120  0.0599  0.0479
  961MOL0     C32490   2.777   0.174   7.134  0.1001  0.3445  0.1781
  961MOL0     C32491   2.636   0.205   7.082  0.6865  1.5684  0.1104
  961MOL0     C32492   2.601   0.133   6.953 -0.2303  0.4217  0.2382
  961MOL0     C32493   2.466   0.187   6.904  0.0538  0.3810 -0.1271
  961MOL0     C32494   2.426   0.135   6.764 -0.4067  0.8972  0.2021
  961MOL0     C32495   2.535   0.165   6.662  0.6882  0.6896  0.1939
  961MOL0     C32496   2.515   0.156   6.512  0.1485  0.5696 -0.0076
  961MOL0     N32497   2.454   0.268   6.457  0.4545  0.7654  1.6097
  961MOL0     C32498   2.321   0.284   6.455  0.1089  0.0936 -0.0908
  961MOL0     C32499   2.300   0.416   6.424 -0.1393 -0.0903  0.0944
  961MOL0     C32500   2.172   0.487   6.396 -0.1074 -0.0492 -0.1912
  961MOL0     C32501   2.055   0.398   6.440 -0.6505 -0.7485  0.4618
  961MOL0     C32502   1.928   0.486   6.440  0.2051 -0.0402  0.1149
  961MOL0     C32503   1.880   0.512   6.295 -0.5339 -1.1851 -0.2280
  961MOL0     O32504   1.893   0.408   6.205  0.0750 -0.1013 -0.1192
  961MOL0     C32505   1.920   0.437   6.080 -0.5969  0.8959  0.0582
  961MOL0     C32506   1.967   0.327   6.003  0.0556  0.3679  0.4577
  961MOL0     C32507   1.995   0.340   5.863 -0.8708 -0.3579 -0.8435
  961MOL0     C32508   2.062   0.219   5.796  0.2281 -0.3748 -0.3802
  961MOL0     C32509   1.965   0.464   5.794 -0.3566  0.6621 -0.5709
  961MOL0     C32510   1.993   0.485   5.652  0.5480 -1.1887  0.6493
  961MOL0     O32511   2.024   0.609   5.616  0.5644  0.4295  0.4257
  961MOL0     C32512   2.057   0.637   5.484  0.7283  1.2962  0.5830
  961MOL0     C32513   2.187   0.659   5.448  0.1195 -1.3146  0.4249
  961MOL0     C32514   2.218   0.676   5.311  1.2420  0.3245  0.5721
  961MOL0     C32515   2.118   0.694   5.214  0.6041 -0.2792  0.2576
  961MOL0     O32516   2.163   0.721   5.082 -0.5725  0.8512 -1.2281
  961MOL0     C32517   2.061   0.741   4.984 -0.0446  0.1444  0.6104
  961MOL0     C32518   1.996   0.881   4.973  0.1182 -0.7956 -0.2493
  961MOL0     C32519   2.090   0.994   4.992 -0.2164  0.2065 -0.0928
  961MOL0     C32520   1.994   1.118   4.948 -0.7295 -0.1373 -0.3941
  961MOL0     C32521   2.077   1.258   4.960  0.0865  0.7372  0.0823
  961MOL0     C32522   1.982   1.381   4.919 -0.0602  0.2930 -0.0589
  961MOL0     C32523   2.064   1.517   4.931  0.9253  0.1516 -0.2273
  961MOL0     C32524   2.090   1.560   5.084  0.4602 -0.4908  0.1573
  961MOL0    Cl32525   1.923   1.566   5.159  0.3945 -0.4696 -0.2378
  961MOL0     C32526   1.987   0.686   5.249 -0.0782  0.9404 -0.6877
  961MOL0     C32527   1.959   0.646   5.385  0.3173  0.0358 -0.7407
  961MOL0     O32528   1.975   0.399   5.575 -0.0836 -0.6320 -0.1325
  961MOL0     C32529   1.920   0.571   5.875  0.0388  0.8153 -0.6405
  961MOL0     C32530   1.897   0.555   6.013 -0.7410 -0.5301  0.0897
  961MOL0     N32531   2.422   0.467   6.398 -0.0572  0.5583 -0.2125
  961MOL0     N32532   2.515   0.386   6.427  0.2415 -0.2678 -0.3904
  961MOL0     C32533   2.988   0.296   7.521  0.6258  0.3972  0.0261
  961MOL0     C32534   3.008   0.325   7.657  0.8072 -0.2826 -0.2355
  961MOL0     C32535   3.203   0.270   8.033 -0.0070 -1.0709 -0.2885
  961MOL0     C32536   3.297   0.180   8.097 -0.9135 -0.3259 -0.0623
  961MOL0     C32537   3.364   0.215   8.214  0.4368 -0.0112  1.2757
  961MOL0     C32538   3.343   0.337   8.275  0.9254 -0.8546  0.1575
  961MOL0     O32539   3.423   0.349   8.389  0.6398 -0.7066 -0.1521
  961MOL0     C32540   3.419   0.466   8.475 -0.2197 -0.0235 -0.5049
  961MOL0     C32541   3.478   0.433   8.608  0.8167 -0.0714  0.8039
  961MOL0     C32542   3.453   0.537   8.720  0.4830 -1.3910 -1.0281
  961MOL0     C32543   3.471   0.490   8.866 -0.2015  0.7909 -0.2504
  961MOL0     C32544   3.358   0.388   8.901 -0.7817 -0.2750 -0.0365
  961MOL0     C32545   3.263   0.320   8.904 -0.2382  0.0744  0.5585
  961MOL0     C32546   3.267   0.427   8.207  0.8750  0.9218  0.1045
  961MOL0     C32547   3.197   0.402   8.084 -0.6900 -0.4421 -0.4892
  961MOL0     C32548   3.114   0.510   8.027  0.0812  0.0703 -0.1506
  961MOL0     H32549   2.863   0.068   7.805 -1.6091  2.9153  0.5360
  961MOL0     H32550   2.817   0.014   7.571 -0.1783  0.2980 -0.9450
  961MOL0     H32551   2.778   0.312   7.299 -2.9654 -0.0361  0.2551
  961MOL0     H32552   2.693   0.161   7.325 -1.1828  2.0087 -0.5750
  961MOL0     H32553   2.837   0.253   7.087 -1.5014  1.2223 -0.4782
  961MOL0     H32554   2.817   0.073   7.121 -0.2373  0.3645 -1.1657
  961MOL0     H32555   2.571   0.171   7.163  3.2190 -1.6978  0.9928
  961MOL0     H32556   2.629   0.314   7.077 -3.3614  1.6955  3.0151
  961MOL0     H32557   2.676   0.166   6.881 -1.2066 -0.0584 -1.0402
  961MOL0     H32558   2.611   0.024   6.951 -1.4922  0.3032 -1.0336
  961MOL0     H32559   2.468   0.297   6.901  0.4930  0.3469 -1.4212
  961MOL0     H32560   2.387   0.154   6.973 -0.0898 -0.8358 -0.8642
  961MOL0     H32561   2.409   0.027   6.764  0.1127  0.8091  0.8353
  961MOL0     H32562   2.332   0.180   6.731 -1.2225 -0.6617  0.2922
  961MOL0     H32563   2.614   0.093   6.683  0.3962  0.7196  1.4415
  961MOL0     H32564   2.584   0.260   6.685 -0.0634  1.1384 -0.0006
  961MOL0     H32565   2.608   0.153   6.454 -1.1250  1.4082 -2.2566
  961MOL0     H32566   2.444   0.077   6.487 -1.2536  1.6591  0.3514
  961MOL0     H32567   2.251   0.201   6.464  1.4857 -1.7618 -4.1459
  961MOL0     H32568   2.161   0.506   6.289 -1.6447  1.4749  0.2021
  961MOL0     H32569   2.159   0.577   6.457 -5.1642 -1.3300  1.0801
  961MOL0     H32570   2.052   0.308   6.378  2.4424  0.0894 -1.1498
  961MOL0     H32571   2.074   0.354   6.539  2.5223 -2.7156 -0.8605
  961MOL0     H32572   1.849   0.436   6.497  2.6740 -2.0574  2.0309
  961MOL0     H32573   1.951   0.577   6.496  0.3036 -0.8621  1.4573
  961MOL0     H32574   1.777   0.549   6.296  0.5875  2.2929  0.4755
  961MOL0     H32575   1.921   0.608   6.263  1.0582 -1.5708  0.5847
  961MOL0     H32576   1.976   0.228   6.048  2.5952 -0.6181 -1.9081
  961MOL0     H32577   2.143   0.176   5.855  1.0167 -1.6363 -2.2914
  961MOL0     H32578   2.105   0.233   5.697 -2.4973 -0.5950 -1.6903
  961MOL0     H32579   1.993   0.134   5.791 -0.8377  0.3959  0.6705
  961MOL0     H32580   2.258   0.673   5.529  1.4550  2.6429 -1.1698
  961MOL0     H32581   2.316   0.691   5.267 -0.0755  0.1811 -2.7124
  961MOL0     H32582   2.121   0.719   4.895 -2.5903 -1.7099 -0.7661
  961MOL0     H32583   1.983   0.665   4.983 -0.9548  1.0436  0.9542
  961MOL0     H32584   1.949   0.893   4.875  0.3941  0.6821 -0.2213
  961MOL0     H32585   1.910   0.887   5.040 -0.8277 -1.9133 -1.3194
  961MOL0     H32586   2.178   0.984   4.928  1.0928 -1.2180  1.8050
  961MOL0     H32587   2.130   1.000   5.094  2.1974  0.8741 -0.9981
  961MOL0     H32588   1.911   1.130   5.018 -0.2670 -0.7995  0.2767
  961MOL0     H32589   1.948   1.106   4.849 -0.1593  1.9724 -0.9586
  961MOL0     H32590   2.098   1.271   5.067  1.9900  1.5802 -0.3603
  961MOL0     H32591   2.175   1.252   4.912 -0.2191 -2.1167 -0.3748
  961MOL0     H32592   1.891   1.391   4.978  1.7421  2.2969  2.5913
  961MOL0     H32593   1.971   1.367   4.811  2.0040  0.8081 -0.3750
  961MOL0     H32594   2.024   1.598   4.869 -1.1182 -1.3996 -1.0643
  961MOL0     H32595   2.166   1.505   4.894  0.9029  0.5804 -0.4329
  961MOL0     H32596   2.144   1.656   5.080 -0.2710 -0.1001 -0.5397
  961MOL0     H32597   2.161   1.485   5.122 -1.9560 -3.2087 -0.3693
  961MOL0     H32598   1.901   0.689   5.184  1.4334  0.6743 -2.8096
  961MOL0     H32599   1.858   0.626   5.419  1.4962 -3.6008  1.1136
  961MOL0     H32600   1.887   0.665   5.831  1.7415  2.4185  1.2503
  961MOL0     H32601   1.864   0.644   6.066 -1.2799 -1.6615  1.7203
  961MOL0     H32602   3.028   0.361   7.443  2.6880  0.2156  0.8770
  961MOL0     H32603   3.070   0.407   7.692 -3.9451  4.3392 -1.2682
  961MOL0     H32604   3.316   0.082   8.056  0.1462 -0.8702  1.6375
  961MOL0     H32605   3.425   0.144   8.268  1.0772 -1.5764 -1.3513
  961MOL0     H32606   3.466   0.557   8.436  0.9319  0.7353  2.4294
  961MOL0     H32607   3.312   0.486   8.484 -0.6132 -1.4712 -1.5094
  961MOL0     H32608   3.587   0.428   8.598  0.7455 -2.7962  0.4579
  961MOL0     H32609   3.441   0.333   8.634 -0.5904 -0.4560 -2.2148
  961MOL0     H32610   3.529   0.615   8.708  2.0471 -2.4869  1.0857
  961MOL0     H32611   3.347   0.562   8.707  0.5927 -0.8843 -0.9868
  961MOL0     H32612   3.465   0.577   8.932  2.0554  0.9641 -0.1756
  961MOL0     H32613   3.573   0.454   8.882 -0.0611  2.0910  2.5092
  961MOL0     H32614   3.186   0.246   8.889 -0.8186  1.0278 -1.5734
  961MOL0     H32615   3.253   0.522   8.258 -2.3715 -1.2550  3.8764
  961MOL0     H32616   3.127   0.523   7.919  2.0213 -0.8461 -0.0701
  961MOL0     H32617   3.011   0.481   8.045 -0.5737  2.8515  1.1676
  961MOL0     H32618   3.136   0.608   8.071  1.4146  0.7939 -2.2644
  962MOL0     O32619   3.583   8.545   5.052  0.6773 -0.1413  0.0804
  962MOL0     C32620   3.563   8.663   5.086  0.6750  0.3529 -0.5291
  962MOL0     O32621   3.476   8.743   5.033 -0.6605 -0.0096  0.3133
  962MOL0     C32622   3.383   8.706   4.934 -0.9912 -0.0433 -0.3828
  962MOL0     C32623   3.385   8.768   4.810  0.0075 -0.4428 -0.5934
  962MOL0     C32624   3.305   8.730   4.705  0.0067  0.1774  0.0277
  962MOL0     C32625   3.232   8.613   4.717  0.1554  1.1712 -0.1090
  962MOL0     O32626   3.154   8.576   4.607 -0.4251 -1.2071 -0.0808
  962MOL0     C32627   3.027   8.514   4.642 -0.4329 -0.3813 -0.3194
  962MOL0     C32628   2.920   8.517   4.526 -0.6004 -0.3866  0.2815
  962MOL0     C32629   2.973   8.431   4.417  0.1296 -0.2372  0.2846
  962MOL0     C32630   2.871   8.413   4.308  0.8405  0.1360  0.0947
  962MOL0     C32631   2.938   8.311   4.210  0.5453  0.4841  0.5684
  962MOL0     C32632   2.846   8.266   4.099 -0.1986 -0.4302 -1.3371
  962MOL0     C32633   2.923   8.212   3.981 -1.2278  1.2963 -0.2529
  962MOL0     C32634   2.986   8.335   3.904  0.0991 -0.2650  0.5012
  962MOL0     N32635   3.057   8.289   3.787  0.1430 -0.2993  0.6144
  962MOL0     C32636   3.043   8.335   3.663 -0.3019 -0.4838 -0.0821
  962MOL0     C32637   3.127   8.266   3.587  0.1343 -1.0602 -0.5856
  962MOL0     C32638   3.161   8.279   3.435  0.7505  0.0654  0.5041
  962MOL0     C32639   3.032   8.293   3.345 -0.1162  0.2859 -0.2116
  962MOL0     C32640   3.030   8.380   3.222 -0.1861  0.2021  0.1381
  962MOL0     C32641   2.896   8.394   3.146  0.2517  0.7464 -0.3471
  962MOL0     O32642   2.865   8.288   3.054 -0.0914  0.0331  0.4211
  962MOL0     C32643   2.737   8.280   3.007  0.5864  0.4879  0.3027
  962MOL0     C32644   2.700   8.160   2.945  0.5540 -0.2995  0.5597
  962MOL0     C32645   2.584   8.154   2.880  0.7496  0.7870 -0.0632
  962MOL0     C32646   2.553   8.033   2.797  0.1103 -1.2580 -0.0480
  962MOL0     C32647   2.494   8.261   2.899  0.1305 -1.2110  0.5085
  962MOL0     C32648   2.357   8.261   2.831 -0.5019  0.1641  0.4945
  962MOL0     O32649   2.296   8.138   2.830  1.2493 -0.2636 -0.0870
  962MOL0     C32650   2.169   8.146   2.791  0.7164 -0.4230 -1.1773
  962MOL0     C32651   2.141   8.107   2.660  0.7439 -0.5289  0.2715
  962MOL0     C32652   2.013   8.105   2.608  0.1191  0.0162  0.0328
  962MOL0     C32653   1.902   8.145   2.690 -0.5731  0.0607  0.3168
  962MOL0     O32654   1.774   8.162   2.649 -1.2878  0.2871 -0.4843
  962MOL0     C32655   1.739   8.153   2.513  1.2932  0.1164  0.6115
  962MOL0     C32656   1.606   8.223   2.492  0.1734  0.5925  0.2889
  962MOL0     C32657   1.560   8.236   2.346  0.1623  0.4228 -0.1781
  962MOL0     C32658   1.556   8.374   2.284 -0.4905  0.0934 -0.6622
  962MOL0     C32659   1.521   8.349   2.142 -0.7479 -0.4268  0.1310
  962MOL0     C32660   1.531   8.478   2.065  0.9535 -0.9556 -1.1894
  962MOL0     C32661   1.492   8.452   1.920  0.3316 -1.0010  0.1508
  962MOL0     C32662   1.494   8.590   1.848  0.1261 -0.1946  0.3751
  962MOL0    Cl32663   1.454   8.557   1.682 -0.6008  0.4936 -0.3299
  962MOL0     C32664   1.929   8.190   2.826 -0.6982  0.3224  0.1003
  962MOL0     C32665   2.058   8.193   2.875 -0.8855 -0.2847 -0.7225
  962MOL0     O32666   2.310   8.374   2.793 -0.5325  0.2478 -0.1848
  962MOL0     C32667   2.513   8.375   2.973 -0.4046 -0.1786  0.6701
  962MOL0     C32668   2.640   8.383   3.022  0.3939  0.2612  0.8307
  962MOL0     N32669   3.196   8.177   3.666  0.2357 -0.3297 -0.0182
  962MOL0     N32670   3.154   8.194   3.786 -0.7330 -0.3256 -0.2414
  962MOL0     C32671   3.230   8.546   4.841  0.4408 -0.4856  0.0159
  962MOL0     C32672   3.292   8.602   4.955 -1.1000 -0.9319  0.1883
  962MOL0     C32673   3.644   8.707   5.197 -0.9702  0.4861  0.4324
  962MOL0     C32674   3.668   8.850   5.203 -0.8622 -0.2956 -0.1595
  962MOL0     C32675   3.733   8.903   5.314  0.9758  0.3992  0.2086
  962MOL0     C32676   3.787   8.819   5.414 -0.1332 -0.2192 -0.2081
  962MOL0     O32677   3.835   8.860   5.536 -0.1064 -0.0221  0.1331
  962MOL0     C32678   3.894   8.992   5.547 -0.1155  0.0369  0.4467
  962MOL0     C32679   3.974   9.007   5.670  0.3736  0.0588 -0.5876
  962MOL0     C32680   4.072   8.889   5.694  0.2153 -0.4661  0.4544
  962MOL0     C32681   4.148   8.837   5.565  0.1796 -0.0886  0.1110
  962MOL0     C32682   4.253   8.739   5.617 -0.2628 -0.0167  0.1415
  962MOL0     C32683   4.342   8.672   5.656 -0.5702 -0.2933 -0.2709
  962MOL0     C32684   3.765   8.688   5.412 -0.1251 -0.1614 -0.6645
  962MOL0     C32685   3.697   8.629   5.311 -0.6790  0.3410  0.2163
  962MOL0     C32686   3.648   8.480   5.316 -1.2330 -0.3628  0.6314
  962MOL0     H32687   3.449   8.855   4.801 -0.4029 -0.3331 -3.1134
  962MOL0     H32688   3.284   8.798   4.623  0.1446 -0.6481 -0.7091
  962MOL0     H32689   2.979   8.565   4.727 -1.1685 -0.3336 -0.7598
  962MOL0     H32690   3.046   8.410   4.672 -2.0669 -0.6775 -0.1910
  962MOL0     H32691   2.825   8.483   4.567 -0.8911  0.2196  0.1149
  962MOL0     H32692   2.910   8.622   4.497  2.0335  0.1441  1.0050
  962MOL0     H32693   3.061   8.483   4.379  0.1615  0.2231  0.9572
  962MOL0     H32694   3.004   8.332   4.452 -2.5340 -0.2026  3.3315
  962MOL0     H32695   2.780   8.380   4.358  1.4422 -1.0615  0.4443
  962MOL0     H32696   2.844   8.506   4.256 -0.4881 -0.9192 -1.1791
  962MOL0     H32697   2.963   8.217   4.259  0.1740 -0.9732 -1.9014
  962MOL0     H32698   3.036   8.347   4.178  1.2079 -3.4247 -2.5248
  962MOL0     H32699   2.788   8.180   4.135  0.3284 -0.9775 -1.7723
  962MOL0     H32700   2.787   8.356   4.078  1.8850  0.9487 -1.5485
  962MOL0     H32701   2.856   8.150   3.922 -2.9666  0.7722  2.1275
  962MOL0     H32702   3.004   8.144   4.009  0.6478  2.0310 -3.4253
  962MOL0     H32703   2.903   8.404   3.886  0.7192  0.6384  0.9833
  962MOL0     H32704   3.045   8.388   3.979 -0.6115  0.1248  0.7945
  962MOL0     H32705   2.979   8.416   3.630  1.8012  1.9158  1.3378
  962MOL0     H32706   3.220   8.199   3.388 -0.0098 -0.5650  0.6085
  962MOL0     H32707   3.222   8.369   3.419  4.9693 -2.7049 -0.8368
  962MOL0     H32708   3.003   8.190   3.322 -3.2963  0.5089  2.1256
  962MOL0     H32709   2.956   8.330   3.414  1.5854 -0.3750  2.1428
  962MOL0     H32710   3.069   8.478   3.249  3.2273 -0.9379 -0.1489
  962MOL0     H32711   3.104   8.338   3.152 -2.2112 -3.3158 -0.1506
  962MOL0     H32712   2.818   8.410   3.221  0.1588  3.8553 -0.9626
  962MOL0     H32713   2.898   8.484   3.083  3.7568 -0.6235 -2.5146
  962MOL0     H32714   2.764   8.073   2.935  4.6334  2.4198  0.6598
  962MOL0     H32715   2.497   7.964   2.860  0.1116 -0.5767  0.7187
  962MOL0     H32716   2.647   7.987   2.765 -0.6300 -1.6088 -1.8840
  962MOL0     H32717   2.494   8.054   2.708  2.8799 -2.1686 -2.2650
  962MOL0     H32718   2.228   8.079   2.601  2.3501  3.2254  0.5596
  962MOL0     H32719   1.986   8.062   2.513  0.7352 -0.5769  0.1237
  962MOL0     H32720   1.820   8.194   2.453  0.0315 -2.0895 -2.8912
  962MOL0     H32721   1.741   8.048   2.481  0.5234  0.3377 -0.1990
  962MOL0     H32722   1.528   8.191   2.562  2.0732 -4.0836  0.6287
  962MOL0     H32723   1.633   8.326   2.517 -2.1472  1.6506 -1.1765
  962MOL0     H32724   1.462   8.189   2.330 -0.3936  1.7579 -0.8453
  962MOL0     H32725   1.630   8.175   2.287 -0.0801 -2.3050  2.0969
  962MOL0     H32726   1.658   8.414   2.294 -0.2417  0.0784 -2.8547
  962MOL0     H32727   1.475   8.426   2.337 -0.8984 -1.6875  0.5634
  962MOL0     H32728   1.598   8.277   2.109  0.3204 -0.3803  2.3661
  962MOL0     H32729   1.420   8.312   2.125 -1.9600  2.4581  0.5098
  962MOL0     H32730   1.628   8.525   2.083  0.8007 -1.7012  2.2285
  962MOL0     H32731   1.453   8.544   2.104  0.1049 -1.2888 -2.2669
  962MOL0     H32732   1.392   8.407   1.925 -0.4303  0.6392  0.4474
  962MOL0     H32733   1.565   8.393   1.865 -1.1226 -0.6695 -2.3053
  962MOL0     H32734   1.597   8.626   1.859  0.6849 -2.1828  2.2489
  962MOL0     H32735   1.431   8.667   1.892  2.4204  3.0583 -1.5769
  962MOL0     H32736   1.844   8.205   2.892 -0.4141  0.2726  0.4816
  962MOL0     H32737   2.074   8.221   2.979 -0.3138  0.7614 -1.0846
  962MOL0     H32738   2.443   8.457   2.986  0.1858  0.2717  1.1196
  962MOL0     H32739   2.661   8.479   3.068  1.2703  0.6889 -0.4067
  962MOL0     H32740   3.175   8.453   4.856 -1.0401  0.0447 -1.7174
  962MOL0     H32741   3.302   8.560   5.055 -1.2890  0.6638  0.9158
  962MOL0     H32742   3.637   8.922   5.129 -1.6679 -0.6521 -0.1701
  962MOL0     H32743   3.734   9.010   5.329 -3.5286  0.3990  1.8645
  962MOL0     H32744   3.955   9.018   5.460  0.5287  1.5609  1.3205
  962MOL0     H32745   3.813   9.065   5.552  0.8323  1.0425  1.9420
  962MOL0     H32746   3.901   9.004   5.751  0.0238 -0.3693 -0.9164
  962MOL0     H32747   4.027   9.103   5.666  0.8902 -0.0939  1.4354
  962MOL0     H32748   4.137   8.908   5.780  0.1781  0.4016  0.2983
  962MOL0     H32749   4.009   8.806   5.729  0.7436 -1.3923 -0.6996
  962MOL0     H32750   4.185   8.922   5.507  1.2794  1.3858  2.7988
  962MOL0     H32751   4.084   8.783   5.495 -2.0987 -1.3868  3.0094
  962MOL0     H32752   4.433   8.623   5.686  0.0666  0.8222 -0.3292
  962MOL0     H32753   3.819   8.624   5.482 -0.0243 -0.4432 -0.9982
  962MOL0     H32754   3.674   8.429   5.409 -0.1866 -2.7336 -0.8781
  962MOL0     H32755   3.543   8.466   5.289 -1.0789 -2.3581  0.9604
  962MOL0     H32756   3.706   8.423   5.244  0.1618 -0.9044  2.1139
  963MOL0     O32757   0.815   8.017  11.140 -0.1152 -0.2555 -0.0219
  963MOL0     C32758   0.843   8.079  11.241  0.3465  0.2299  0.4474
  963MOL0     O32759   0.875   8.213  11.257  0.3093 -0.9301  0.2154
  963MOL0     C32760   0.846   8.300  11.153 -0.4465 -1.0159  0.9663
  963MOL0     C32761   0.752   8.291  11.051  0.0726  0.6063 -0.4684
  963MOL0     C32762   0.717   8.388  10.958 -0.3541  1.4250  0.1440
  963MOL0     C32763   0.784   8.506  10.963 -0.0739  0.1716 -0.0805
  963MOL0     O32764   0.769   8.610  10.876  0.3178  0.1832  0.3465
  963MOL0     C32765   0.659   8.589  10.784 -0.3512 -0.4761 -0.4001
  963MOL0     C32766   0.646   8.713  10.707  0.0490  0.2073 -0.7778
  963MOL0     C32767   0.504   8.718  10.643  0.1687 -0.6581  0.7116
  963MOL0     C32768   0.494   8.824  10.530 -0.1605 -0.4597 -0.5437
  963MOL0     C32769   0.375   8.798  10.438 -0.3316 -0.6818  0.0083
  963MOL0     C32770   0.367   8.909  10.338 -0.8325  0.3488 -0.3630
  963MOL0     C32771   0.246   8.868  10.248 -0.0153  0.2135  1.2045
  963MOL0     C32772   0.105   8.910  10.307 -1.4584  1.0978 -0.4148
  963MOL0     N32773   0.007   8.885  10.198  0.7582 -0.1247  0.5127
  963MOL0     C32774  -0.004   8.766  10.124 -0.0383 -0.9565  0.5528
  963MOL0     C32775  -0.126   8.770  10.058 -0.4257 -0.3259  0.5768
  963MOL0     C32776  -0.181   8.674   9.969  0.2096  0.1232  0.7131
  963MOL0     C32777  -0.339   8.692   9.952  0.3817  0.9686  0.8960
  963MOL0     C32778  -0.418   8.616  10.068  0.3083 -0.6609 -0.3868
  963MOL0     C32779  -0.566   8.608  10.023 -0.2123 -0.3468  0.2562
  963MOL0     O32780  -0.646   8.524  10.102 -0.4049  0.2423 -0.4737
  963MOL0     C32781  -0.637   8.387  10.096 -0.2690 -0.2875 -0.9841
  963MOL0     C32782  -0.704   8.312  10.191 -0.6476  0.6808  0.4468
  963MOL0     C32783  -0.695   8.170  10.204 -0.5073  0.7459 -0.1064
  963MOL0     C32784  -0.770   8.112  10.324 -0.2750 -0.4659  0.5530
  963MOL0     C32785  -0.639   8.100  10.096 -0.4222  0.4592  0.2635
  963MOL0     C32786  -0.641   7.956  10.082  0.7148  0.2116  0.2402
  963MOL0     O32787  -0.586   7.906   9.963 -0.3339  0.1060 -0.0792
  963MOL0     C32788  -0.601   7.777   9.912  0.3321 -0.3045 -0.6109
  963MOL0     C32789  -0.484   7.712   9.864  0.1060  0.0996  0.3182
  963MOL0     C32790  -0.496   7.593   9.791 -0.3446 -0.0371  0.4220
  963MOL0     C32791  -0.630   7.533   9.774 -0.8609  0.3306  0.1586
  963MOL0     O32792  -0.643   7.419   9.695  0.3556  0.5051  0.0899
  963MOL0     C32793  -0.545   7.311   9.697  0.5565  0.7281  0.6306
  963MOL0     C32794  -0.531   7.232   9.826  0.4110 -0.2850  0.4027
  963MOL0     C32795  -0.663   7.181   9.877 -0.4337 -0.3369  0.0852
  963MOL0     C32796  -0.726   7.064   9.793  0.0695  0.5403 -0.2777
  963MOL0     C32797  -0.866   7.043   9.844  0.3446 -0.6782 -0.8493
  963MOL0     C32798  -0.929   6.921   9.778  0.0137  0.4311 -0.5639
  963MOL0     C32799  -0.970   6.946   9.628  0.0307 -0.8880  0.2421
  963MOL0     C32800  -1.034   6.831   9.551 -0.3644 -0.7067 -0.1192
  963MOL0    Cl32801  -0.938   6.674   9.544 -0.1968  0.2422  0.4250
  963MOL0     C32802  -0.740   7.597   9.827 -0.2021  0.7198  1.0494
  963MOL0     C32803  -0.731   7.722   9.882 -1.0945 -0.3311 -0.2588
  963MOL0     O32804  -0.690   7.884  10.172 -0.3726 -0.7739  0.0238
  963MOL0     C32805  -0.574   8.176   9.995  0.3415 -0.9501 -0.4601
  963MOL0     C32806  -0.559   8.318  10.001  0.1247  0.2247 -0.2499
  963MOL0     N32807  -0.185   8.888  10.099 -0.3030  0.2419  0.0597
  963MOL0     N32808  -0.114   8.955  10.181  0.1023 -0.1582 -0.7908
  963MOL0     C32809   0.864   8.524  11.068 -0.1506  0.0644 -1.2192
  963MOL0     C32810   0.914   8.423  11.157  0.7534 -0.5535 -0.0493
  963MOL0     C32811   0.868   8.018  11.381  0.3176 -0.1273 -0.8002
  963MOL0     C32812   0.958   8.085  11.470 -0.3330 -0.4014 -0.7661
  963MOL0     C32813   0.991   8.033  11.594 -0.3605  0.3243 -0.1282
  963MOL0     C32814   0.947   7.905  11.638 -0.5910  0.6070  0.3078
  963MOL0     O32815   0.964   7.842  11.756  0.5998 -0.3327  0.2807
  963MOL0     C32816   1.083   7.835  11.839 -0.8421  0.9068  0.5462
  963MOL0     C32817   1.195   7.753  11.782  0.5865 -0.6512  0.7187
  963MOL0     C32818   1.267   7.675  11.881 -0.9585 -0.0390  0.5768
  963MOL0     C32819   1.351   7.559  11.822 -0.3678  0.1365 -0.3501
  963MOL0     C32820   1.444   7.613  11.712 -0.0021  0.0615 -0.1372
  963MOL0     C32821   1.510   7.653  11.619 -0.2431 -0.5863 -1.0592
  963MOL0     C32822   0.865   7.836  11.546 -0.0654  0.0853  0.2501
  963MOL0     C32823   0.827   7.882  11.418  0.5829 -0.9767 -0.6568
  963MOL0     C32824   0.747   7.796  11.325 -0.6398  0.8655  0.2477
  963MOL0     H32825   0.683   8.209  11.038  0.9739 -0.6183  1.9046
  963MOL0     H32826   0.645   8.364  10.880  0.2411 -2.1233  0.5278
  963MOL0     H32827   0.569   8.578  10.844 -0.6569 -1.7068 -1.0609
  963MOL0     H32828   0.686   8.513  10.710 -0.3862  0.1086 -1.0223
  963MOL0     H32829   0.664   8.799  10.772  0.9991  0.2838 -1.1191
  963MOL0     H32830   0.717   8.694  10.626 -0.1888 -3.8666 -0.2591
  963MOL0     H32831   0.463   8.625  10.602 -1.4270  0.7174 -1.0194
  963MOL0     H32832   0.446   8.738  10.734  0.3705  2.3334  0.2656
  963MOL0     H32833   0.476   8.920  10.578 -1.7109 -2.2813  2.8812
  963MOL0     H32834   0.588   8.824  10.474  0.6071  1.2385  0.6932
  963MOL0     H32835   0.286   8.802  10.503 -0.8610 -0.8501 -0.6920
  963MOL0     H32836   0.381   8.700  10.390 -0.4063 -0.6243 -0.1185
  963MOL0     H32837   0.344   9.006  10.382 -0.8064  0.3582 -0.3723
  963MOL0     H32838   0.458   8.910  10.277  0.4170  0.1079  1.4157
  963MOL0     H32839   0.250   8.763  10.217  2.9939  0.2102  1.3120
  963MOL0     H32840   0.247   8.944  10.169  0.6341 -1.4586 -0.4687
  963MOL0     H32841   0.091   8.840  10.390  1.1058 -1.5231 -2.0039
  963MOL0     H32842   0.095   9.009  10.352 -2.8951 -0.2319  2.4471
  963MOL0     H32843   0.074   8.691  10.124  2.1014  1.0790 -2.3816
  963MOL0     H32844  -0.144   8.573   9.990 -0.6633 -0.8245 -1.8925
  963MOL0     H32845  -0.137   8.703   9.873  3.0022  1.7753  2.3603
  963MOL0     H32846  -0.378   8.794   9.944 -2.7720 -0.1862 -0.2227
  963MOL0     H32847  -0.364   8.647   9.856  0.9412  2.0436  0.2295
  963MOL0     H32848  -0.375   8.517  10.086 -1.7147 -1.9214 -2.0313
  963MOL0     H32849  -0.403   8.672  10.161 -2.4252  0.8674 -0.7624
  963MOL0     H32850  -0.603   8.711  10.031  2.2214  0.5034  1.8412
  963MOL0     H32851  -0.569   8.568   9.922 -0.0035  0.7148 -0.1855
  963MOL0     H32852  -0.759   8.365  10.268 -2.7722 -2.7419  1.5153
  963MOL0     H32853  -0.695   8.056  10.380  0.5346 -0.5027 -0.5451
  963MOL0     H32854  -0.851   8.050  10.285 -0.2390  0.3842 -0.9287
  963MOL0     H32855  -0.805   8.195  10.386  0.3260  0.7335 -0.6811
  963MOL0     H32856  -0.390   7.764   9.875 -0.0281  0.5438 -0.5408
  963MOL0     H32857  -0.409   7.550   9.742  0.4559  0.9560  0.9545
  963MOL0     H32858  -0.574   7.238   9.621 -1.7784  0.0850  2.0367
  963MOL0     H32859  -0.448   7.351   9.667  0.7022 -1.0318 -1.4330
  963MOL0     H32860  -0.465   7.148   9.801 -1.4660 -1.2843 -1.4115
  963MOL0     H32861  -0.473   7.292   9.897  1.2610  0.0666 -0.5585
  963MOL0     H32862  -0.741   7.257   9.874 -0.6371 -0.5690 -0.9686
  963MOL0     H32863  -0.653   7.142   9.979  0.6247 -1.4480 -0.4053
  963MOL0     H32864  -0.665   6.974   9.806 -0.3640  0.3664  0.6578
  963MOL0     H32865  -0.726   7.088   9.686 -0.1763  1.1901 -0.1362
  963MOL0     H32866  -0.861   7.020   9.950 -0.2441 -1.8810 -1.0677
  963MOL0     H32867  -0.927   7.129   9.815  0.1983 -0.9218 -1.2778
  963MOL0     H32868  -1.014   6.905   9.846  0.9666  1.8816  1.0438
  963MOL0     H32869  -0.858   6.839   9.780  0.3603  0.7374  0.0807
  963MOL0     H32870  -0.879   6.972   9.572  1.1141 -0.1081  2.2787
  963MOL0     H32871  -1.040   7.030   9.623  2.6466  1.4704  0.3122
  963MOL0     H32872  -1.066   6.850   9.448  0.8814 -1.8267 -0.7426
  963MOL0     H32873  -1.122   6.802   9.611 -0.8808  0.1079 -0.4667
  963MOL0     H32874  -0.837   7.552   9.807  0.8684 -1.0698 -0.5595
  963MOL0     H32875  -0.818   7.785   9.894  1.2437  2.9483  0.9673
  963MOL0     H32876  -0.538   8.134   9.902  1.1156  0.9490 -1.0660
  963MOL0     H32877  -0.499   8.361   9.922  1.9171 -1.3881  0.1704
  963MOL0     H32878   0.902   8.624  11.084 -1.3677  0.2299  1.0021
  963MOL0     H32879   0.977   8.461  11.238 -1.3885  2.2465  0.4634
  963MOL0     H32880   1.005   8.180  11.445 -1.0666  0.0803 -0.3509
  963MOL0     H32881   1.057   8.097  11.652  0.0661 -1.7112  1.7769
  963MOL0     H32882   1.114   7.935  11.871  2.1915 -0.3914  2.1002
  963MOL0     H32883   1.041   7.780  11.924 -2.0135  1.8422  0.5960
  963MOL0     H32884   1.265   7.810  11.720 -0.1805  1.7047  1.9145
  963MOL0     H32885   1.155   7.683  11.708  1.9051 -0.8897  0.2024
  963MOL0     H32886   1.334   7.739  11.939 -3.1904  0.9233  2.2303
  963MOL0     H32887   1.200   7.628  11.954  0.7829 -1.3129  1.4493
  963MOL0     H32888   1.283   7.481  11.786  0.6564 -0.6080 -0.7031
  963MOL0     H32889   1.410   7.507  11.898  2.9589 -0.6148 -3.2206
  963MOL0     H32890   1.550   7.688  11.526  3.9630 -0.0441  0.7433
  963MOL0     H32891   0.827   7.751  11.601 -3.0603  2.1774  1.6710
  963MOL0     H32892   0.659   7.846  11.283  0.3580  0.8124 -2.0868
  963MOL0     H32893   0.813   7.778  11.240  1.4777  0.9385  1.8046
  963MOL0     H32894   0.725   7.698  11.367  0.6002  1.9754  3.8532
  964MOL0     O32895  10.971   7.109   7.112  0.6964 -0.5993 -0.1328
  964MOL0     C32896  10.960   7.007   7.171 -0.3221  0.3177  0.1078
  964MOL0     O32897  10.879   6.991   7.279  0.5916  0.2046  0.1785
  964MOL0     C32898  10.815   7.101   7.319  0.1300  0.8302 -0.1295
  964MOL0     C32899  10.726   7.167   7.238 -0.9904 -0.2089 -0.9830
  964MOL0     C32900  10.673   7.285   7.272 -0.2574  0.2275  0.3449
  964MOL0     C32901  10.699   7.341   7.386  0.9229  0.2208 -0.0612
  964MOL0     O32902  10.628   7.454   7.428 -0.2595  0.3436 -0.3206
  964MOL0     C32903  10.533   7.526   7.351 -0.5230  0.1617 -0.0315
  964MOL0     C32904  10.503   7.653   7.430 -0.2516  0.9242  0.5733
  964MOL0     C32905  10.398   7.633   7.542 -0.5946 -0.2978  0.0544
  964MOL0     C32906  10.251   7.624   7.502  0.0667 -0.1124  0.3270
  964MOL0     C32907  10.153   7.645   7.621  0.3193 -0.0059 -0.3386
  964MOL0     C32908  10.013   7.601   7.588  0.4121  0.2316  1.3025
  964MOL0     C32909   9.926   7.698   7.506  0.7544 -0.6445  1.0233
  964MOL0     C32910   9.778   7.668   7.491  1.0585 -0.4300  0.4940
  964MOL0     N32911   9.750   7.547   7.413  0.5221 -0.0254 -0.8019
  964MOL0     C32912   9.692   7.546   7.294  0.3975  0.5759  0.1091
  964MOL0     C32913   9.671   7.420   7.252 -0.9061 -0.1475 -0.3050
  964MOL0     C32914   9.598   7.367   7.130 -0.2177 -0.2476  1.1486
  964MOL0     C32915   9.459   7.319   7.150  1.1995 -0.0158 -0.8036
  964MOL0     C32916   9.376   7.412   7.230 -0.1695 -0.1644  0.0171
  964MOL0     C32917   9.344   7.551   7.161  0.4451 -0.0915 -0.0450
  964MOL0     O32918   9.322   7.532   7.019  0.3602 -0.5998 -0.1703
  964MOL0     C32919   9.362   7.641   6.940  0.6815 -0.2755  0.0568
  964MOL0     C32920   9.345   7.774   6.987 -1.2865  0.6511 -0.0117
  964MOL0     C32921   9.385   7.883   6.904 -0.4630 -0.9385  0.3405
  964MOL0     C32922   9.388   8.018   6.963  0.0885  0.5105 -0.0485
  964MOL0     C32923   9.411   7.862   6.766  0.8623  0.3780  0.2987
  964MOL0     C32924   9.452   7.970   6.668  0.3180  0.1654  0.1741
  964MOL0     O32925   9.468   7.916   6.546  0.6614 -0.0425  0.5773
  964MOL0     C32926   9.474   7.999   6.433  0.6798  0.8918 -0.4236
  964MOL0     C32927   9.578   7.970   6.348  0.8095  0.0450 -0.3950
  964MOL0     C32928   9.588   8.024   6.218  1.1685  0.5151 -0.0532
  964MOL0     C32929   9.513   8.129   6.183  0.7514  0.4253 -0.4633
  964MOL0     O32930   9.522   8.187   6.061  0.6358  0.3940  0.3897
  964MOL0     C32931   9.403   8.146   5.977  0.0290 -0.5867  0.5505
  964MOL0     C32932   9.439   8.110   5.837  0.3111  0.6296  0.1470
  964MOL0     C32933   9.435   8.218   5.732  0.0951 -0.4973 -0.0109
  964MOL0     C32934   9.519   8.183   5.605  0.2137  0.0490  0.1672
  964MOL0     C32935   9.536   8.309   5.514  0.0358  0.6860 -0.1571
  964MOL0     C32936   9.661   8.392   5.563 -0.6329  0.5287 -0.0002
  964MOL0     C32937   9.672   8.532   5.498  0.1581  0.0601  0.7991
  964MOL0     C32938   9.726   8.644   5.590  0.6262  0.4215  0.7652
  964MOL0    Cl32939   9.747   8.804   5.504  0.3398  0.5725 -0.2426
  964MOL0     C32940   9.407   8.163   6.277 -0.5168 -0.3760 -0.2014
  964MOL0     C32941   9.383   8.095   6.393  0.0691 -0.0427  0.9591
  964MOL0     O32942   9.459   8.087   6.698 -0.7830  0.0848  0.1117
  964MOL0     C32943   9.424   7.723   6.724 -0.0182  0.3318  0.1053
  964MOL0     C32944   9.403   7.615   6.814 -0.6743  0.3956  0.2882
  964MOL0     N32945   9.734   7.340   7.352 -0.4197 -0.4590  0.5731
  964MOL0     N32946   9.775   7.419   7.448  0.8532  0.2250 -0.0229
  964MOL0     C32947  10.785   7.279   7.481 -0.8296  0.4497  1.1718
  964MOL0     C32948  10.847   7.155   7.443  0.1449  0.2088  0.3557
  964MOL0     C32949  11.031   6.873   7.123 -0.4841  0.2329  0.4169
  964MOL0     C32950  11.008   6.744   7.177 -0.0923 -0.5642 -0.2416
  964MOL0     C32951  11.072   6.631   7.137  0.3731  0.4763  0.3264
  964MOL0     C32952  11.167   6.637   7.043 -0.4994  0.4399  0.9004
  964MOL0     O32953  11.245   6.526   7.003  0.1734  0.1770 -0.4669
  964MOL0     C32954  11.203   6.398   7.042 -0.7458 -0.5381 -0.0153
  964MOL0     C32955  11.297   6.293   6.992  0.0194  0.9109 -0.0036
  964MOL0     C32956  11.438   6.312   7.049 -0.3560  1.0094 -0.1126
  964MOL0     C32957  11.553   6.229   6.975  0.3527 -0.5906  0.7468
  964MOL0     C32958  11.521   6.089   6.976 -0.4768 -0.1354 -0.0829
  964MOL0     C32959  11.508   5.977   6.983  1.0745  0.1477  1.1707
  964MOL0     C32960  11.212   6.758   6.998 -1.1395  0.4425 -0.6300
  964MOL0     C32961  11.144   6.874   7.042  0.0594 -0.3220 -0.8502
  964MOL0     C32962  11.214   6.997   6.999  0.0298 -0.8779 -0.1571
  964MOL0     H32963  10.712   7.127   7.138 -1.9695 -1.0674 -0.5205
  964MOL0     H32964  10.614   7.334   7.195  1.6159  1.2893 -0.4809
  964MOL0     H32965  10.437   7.479   7.328 -0.8216  0.6028  0.2947
  964MOL0     H32966  10.579   7.552   7.256 -0.1672  0.3982  0.2030
  964MOL0     H32967  10.600   7.691   7.462  1.1471 -1.7968 -0.1510
  964MOL0     H32968  10.467   7.737   7.370 -2.4867  0.3314  0.9803
  964MOL0     H32969  10.427   7.543   7.597  0.9775 -0.0651 -0.3437
  964MOL0     H32970  10.409   7.717   7.610 -0.0392  0.0948 -0.5068
  964MOL0     H32971  10.238   7.704   7.429  3.1089 -0.5576 -0.8708
  964MOL0     H32972  10.241   7.535   7.438 -0.6977 -0.1802  0.5343
  964MOL0     H32973  10.157   7.753   7.638  0.1400 -0.0084 -0.2690
  964MOL0     H32974  10.188   7.604   7.716  2.0418  2.9612  0.4386
  964MOL0     H32975  10.010   7.501   7.544 -2.6583  1.1918 -1.0393
  964MOL0     H32976   9.958   7.587   7.681  0.5631  1.8556  1.6534
  964MOL0     H32977   9.972   7.714   7.409 -0.0876  0.8383  0.8482
  964MOL0     H32978   9.931   7.788   7.567  1.5681 -1.6734  2.5488
  964MOL0     H32979   9.737   7.656   7.592  0.1838 -2.4176 -0.0530
  964MOL0     H32980   9.738   7.753   7.436  0.1668  0.0414  1.8409
  964MOL0     H32981   9.668   7.631   7.231 -0.7063 -0.3599 -0.7847
  964MOL0     H32982   9.659   7.282   7.097  1.0845  0.6357  1.1882
  964MOL0     H32983   9.593   7.440   7.048 -0.2997 -1.7258 -0.2131
  964MOL0     H32984   9.416   7.310   7.049 -3.9206 -0.2209  1.0654
  964MOL0     H32985   9.456   7.226   7.207 -3.3215  2.5045  3.9130
  964MOL0     H32986   9.276   7.369   7.242  0.0802 -0.7788 -0.0711
  964MOL0     H32987   9.420   7.434   7.328  0.0571  1.9976 -0.5278
  964MOL0     H32988   9.252   7.591   7.205 -1.4441 -3.2099 -0.8782
  964MOL0     H32989   9.424   7.622   7.184 -1.1350  1.5361  0.6982
  964MOL0     H32990   9.315   7.799   7.088 -0.9276  0.1281  0.2292
  964MOL0     H32991   9.397   8.016   7.072 -3.2458  1.0726  0.3639
  964MOL0     H32992   9.300   8.077   6.936  0.4931  0.8448 -0.6495
  964MOL0     H32993   9.480   8.065   6.929  0.3286 -0.4404 -0.7604
  964MOL0     H32994   9.647   7.889   6.370  0.0392 -0.5115  0.0099
  964MOL0     H32995   9.667   7.997   6.149  1.3358  2.4987 -0.6984
  964MOL0     H32996   9.356   8.058   6.021 -2.4209 -0.7427 -2.0957
  964MOL0     H32997   9.333   8.230   5.985  0.5001 -0.1260 -0.0400
  964MOL0     H32998   9.534   8.059   5.850  0.4737  1.3717  2.3321
  964MOL0     H32999   9.370   8.029   5.811 -1.2657  1.3837  1.7245
  964MOL0     H33000   9.467   8.310   5.782  0.8676 -1.6878  1.7508
  964MOL0     H33001   9.328   8.240   5.721  0.1300 -0.0641  0.4845
  964MOL0     H33002   9.470   8.104   5.548  0.1610  1.0433 -1.2156
  964MOL0     H33003   9.615   8.143   5.639 -0.9370 -2.3691  0.7973
  964MOL0     H33004   9.547   8.276   5.410 -0.9075  1.2893 -0.4501
  964MOL0     H33005   9.447   8.370   5.525  1.0528  2.1132  0.4430
  964MOL0     H33006   9.756   8.338   5.559 -1.5087 -1.0591 -3.1850
  964MOL0     H33007   9.646   8.419   5.668  0.6039  0.1361  0.2999
  964MOL0     H33008   9.574   8.559   5.456  2.2474  2.2847 -3.2507
  964MOL0     H33009   9.743   8.532   5.415  0.6948 -0.8092  1.2536
  964MOL0     H33010   9.817   8.613   5.642  0.5171 -0.4844  0.4267
  964MOL0     H33011   9.656   8.664   5.671  0.6379  1.3493  0.5567
  964MOL0     H33012   9.349   8.249   6.246  0.6212 -0.4672 -2.8818
  964MOL0     H33013   9.299   8.123   6.456  0.2783  1.4778  0.5980
  964MOL0     H33014   9.463   7.698   6.626 -3.6481 -0.9054 -1.1951
  964MOL0     H33015   9.413   7.518   6.766 -2.5931  0.1343  0.3442
  964MOL0     H33016  10.806   7.337   7.570 -0.6368  0.6212  1.0156
  964MOL0     H33017  10.905   7.096   7.513 -0.1381 -1.0542 -0.4320
  964MOL0     H33018  10.939   6.728   7.260  0.1629 -3.3653 -0.4739
  964MOL0     H33019  11.055   6.536   7.186 -2.6800  1.6931  1.9574
  964MOL0     H33020  11.203   6.380   7.150  1.5260 -1.8051 -0.1410
  964MOL0     H33021  11.105   6.385   6.995 -0.8786  2.4977 -0.7663
  964MOL0     H33022  11.314   6.302   6.884  2.1425 -1.8433 -0.0305
  964MOL0     H33023  11.256   6.196   7.020  0.1198  1.0703  0.6952
  964MOL0     H33024  11.464   6.417   7.035  0.4927  0.8411  0.1444
  964MOL0     H33025  11.442   6.284   7.155 -1.1769  0.6682 -0.1605
  964MOL0     H33026  11.643   6.244   7.035  1.2578 -0.8513 -0.4951
  964MOL0     H33027  11.570   6.254   6.870 -1.8427  2.9428  1.0740
  964MOL0     H33028  11.512   5.871   6.996  1.1571 -0.3842 -2.3701
  964MOL0     H33029  11.294   6.769   6.928  1.7627 -1.5370  2.1577
  964MOL0     H33030  11.157   7.077   6.950  2.0978  0.6416 -0.1966
  964MOL0     H33031  11.268   7.038   7.085  0.7141  1.9597 -1.8346
  964MOL0     H33032  11.288   6.975   6.922 -1.2389  0.7272 -1.9433
  965MOL0     O33033   1.310  10.963   6.049  0.5258 -0.0769 -0.4117
  965MOL0     C33034   1.299  10.932   5.932  0.8318 -0.4064 -1.0346
  965MOL0     O33035   1.406  10.920   5.845  0.0620  0.0763 -0.4427
  965MOL0     C33036   1.531  10.917   5.906 -0.5329  0.2690 -0.3827
  965MOL0     C33037   1.621  11.020   5.884  0.6106  0.2377  0.1091
  965MOL0     C33038   1.745  11.026   5.945 -0.1558 -0.9580  0.2356
  965MOL0     C33039   1.792  10.926   6.026  0.3200  0.0815  0.3126
  965MOL0     O33040   1.917  10.942   6.064 -0.6479 -0.1845 -0.0839
  965MOL0     C33041   1.982  10.824   6.103 -0.1303  0.0055 -0.6098
  965MOL0     C33042   2.133  10.841   6.087  0.3001 -0.6984 -0.3052
  965MOL0     C33043   2.196  10.954   6.176  0.3932  0.7947  0.9252
  965MOL0     C33044   2.223  10.912   6.323  0.2273  0.6749 -0.4434
  965MOL0     C33045   2.364  10.850   6.345  0.6823  0.7821 -0.6321
  965MOL0     C33046   2.375  10.797   6.500  2.0437 -0.2253 -0.5355
  965MOL0     C33047   2.518  10.783   6.558  0.4948 -0.3160 -0.6393
  965MOL0     C33048   2.586  10.921   6.578  1.0737 -0.1360  0.2375
  965MOL0     N33049   2.711  10.921   6.502  0.3197 -0.2552  0.4755
  965MOL0     C33050   2.815  10.825   6.498 -0.3050 -0.6297 -0.5158
  965MOL0     C33051   2.912  10.860   6.411 -0.3946 -0.3614 -0.4067
  965MOL0     C33052   3.045  10.795   6.381 -0.0844  0.0313 -0.4487
  965MOL0     C33053   3.051  10.738   6.236 -0.2487  0.4348 -0.3533
  965MOL0     C33054   3.166  10.620   6.225 -0.8402 -0.8630 -0.1851
  965MOL0     C33055   3.157  10.555   6.092 -0.1176  0.8052  0.2406
  965MOL0     O33056   3.165  10.642   5.978 -0.1525  0.2708  0.6084
  965MOL0     C33057   3.207  10.582   5.859  0.3523 -0.3696 -1.0885
  965MOL0     C33058   3.253  10.663   5.768 -0.3340 -0.7379  0.7042
  965MOL0     C33059   3.291  10.617   5.640 -1.3334  0.3061 -0.6819
  965MOL0     C33060   3.343  10.721   5.542  0.5466  0.3413  1.0055
  965MOL0     C33061   3.299  10.479   5.608 -0.4502 -0.6474 -0.1594
  965MOL0     C33062   3.354  10.414   5.479 -0.1046  0.2590  0.3771
  965MOL0     O33063   3.267  10.314   5.431  0.6827  0.1646  0.0432
  965MOL0     C33064   3.296  10.281   5.303  0.0819 -0.3244  1.4463
  965MOL0     C33065   3.293  10.143   5.277  0.7648  0.4192  0.9668
  965MOL0     C33066   3.316  10.098   5.147 -0.5383  0.2944 -0.2263
  965MOL0     C33067   3.325  10.188   5.034  0.7270 -0.1748 -0.5410
  965MOL0     O33068   3.350  10.133   4.917 -0.0384  0.0351  0.3994
  965MOL0     C33069   3.325  10.211   4.793 -0.2445  0.3791  0.3775
  965MOL0     C33070   3.399  10.152   4.676 -0.3763 -0.2049  0.5408
  965MOL0     C33071   3.362  10.010   4.645  0.3794  0.5658 -0.2807
  965MOL0     C33072   3.421   9.955   4.521 -0.2490 -0.5419  0.1110
  965MOL0     C33073   3.573   9.911   4.530 -0.3135 -0.2847  1.0199
  965MOL0     C33074   3.612   9.830   4.407 -0.1277 -0.5810  0.8149
  965MOL0     C33075   3.720   9.721   4.440 -0.0964 -0.6033  0.1851
  965MOL0     C33076   3.761   9.655   4.313  0.5284 -0.0710  0.6609
  965MOL0    Cl33077   3.830   9.485   4.332  0.1679 -0.2112  0.1286
  965MOL0     C33078   3.301  10.317   5.062 -0.5804 -0.8600  0.1810
  965MOL0     C33079   3.301  10.373   5.195 -0.0639 -0.3932  0.6593
  965MOL0     O33080   3.461  10.441   5.431 -0.1716 -1.3218  0.2253
  965MOL0     C33081   3.262  10.388   5.714 -0.8778  1.5357  0.2971
  965MOL0     C33082   3.213  10.445   5.832  0.4469  0.4270 -0.2345
  965MOL0     N33083   2.861  10.992   6.368  0.3206  0.1234 -0.6620
  965MOL0     N33084   2.745  11.024   6.417  0.0972  0.1825 -1.4679
  965MOL0     C33085   1.701  10.825   6.065 -0.6012 -1.2714  0.1816
  965MOL0     C33086   1.577  10.823   6.006 -0.2376  0.0054  0.8553
  965MOL0     C33087   1.159  10.901   5.881 -0.1936 -0.5301 -0.0160
  965MOL0     C33088   1.154  10.825   5.762  0.2637 -0.1977 -0.0945
  965MOL0     C33089   1.030  10.779   5.713  1.3954 -0.1540  0.0955
  965MOL0     C33090   0.908  10.825   5.771  0.1339 -0.5071  0.0810
  965MOL0     O33091   0.789  10.793   5.708 -0.0553 -0.1081 -0.7374
  965MOL0     C33092   0.665  10.817   5.774 -0.5872  0.7074  0.0532
  965MOL0     C33093   0.627  10.963   5.750 -0.7148 -0.6941  0.0851
  965MOL0     C33094   0.488  11.003   5.794  0.3539 -0.1487  0.3383
  965MOL0     C33095   0.458  10.976   5.941  0.6288  0.2266  0.7972
  965MOL0     C33096   0.545  11.029   6.040 -0.4872  0.4941  0.4223
  965MOL0     C33097   0.634  11.057   6.119  0.2310 -0.5912  0.9186
  965MOL0     C33098   0.918  10.908   5.886  0.9270 -0.8072  0.2514
  965MOL0     C33099   1.043  10.946   5.938  0.2076 -0.2482 -0.3266
  965MOL0     C33100   1.039  11.038   6.056  0.9265  0.6064  0.3125
  965MOL0     H33101   1.587  11.092   5.811 -0.4470 -0.8424 -0.4974
  965MOL0     H33102   1.814  11.106   5.923 -0.2061 -0.1032  2.8689
  965MOL0     H33103   1.955  10.737   6.042  1.1309 -0.5565 -0.4008
  965MOL0     H33104   1.967  10.797   6.208  0.1140 -2.6098 -1.1882
  965MOL0     H33105   2.188  10.746   6.085  0.0126 -0.8805  0.3881
  965MOL0     H33106   2.150  10.883   5.987  0.9300  0.5870  0.3182
  965MOL0     H33107   2.288  10.969   6.118 -0.2832 -1.9319 -1.0759
  965MOL0     H33108   2.138  11.046   6.180  0.5811  1.0703 -1.4779
  965MOL0     H33109   2.199  11.001   6.382  3.0009  0.0428  1.8834
  965MOL0     H33110   2.142  10.846   6.356 -0.7892  1.8388 -0.5260
  965MOL0     H33111   2.452  10.908   6.318  1.0966 -0.2045 -1.4785
  965MOL0     H33112   2.378  10.762   6.281 -0.0710  0.0956  0.1066
  965MOL0     H33113   2.324  10.871   6.563  0.4530 -1.7183  0.0299
  965MOL0     H33114   2.307  10.711   6.502 -0.6746  1.7733 -1.6095
  965MOL0     H33115   2.589  10.715   6.510  2.7138  0.8483  0.8254
  965MOL0     H33116   2.506  10.746   6.660  2.6929  2.6626  0.8660
  965MOL0     H33117   2.523  11.005   6.548  0.5715 -0.5101  0.2453
  965MOL0     H33118   2.599  10.928   6.686  0.4988 -0.4118  0.3252
  965MOL0     H33119   2.804  10.729   6.547  0.0793 -1.2790 -1.6583
  965MOL0     H33120   3.074  10.715   6.451  1.4663 -1.0965 -2.2574
  965MOL0     H33121   3.122  10.872   6.384  2.8386 -2.6634  2.3940
  965MOL0     H33122   2.954  10.696   6.206  0.3762 -0.0577 -1.8186
  965MOL0     H33123   3.083  10.822   6.173 -1.6434  2.1465  1.1364
  965MOL0     H33124   3.266  10.662   6.238 -1.8225  0.7596  3.2215
  965MOL0     H33125   3.164  10.548   6.307  1.8365 -1.3104 -0.4251
  965MOL0     H33126   3.228  10.471   6.094 -4.9364 -3.8906 -0.6647
  965MOL0     H33127   3.062  10.503   6.083  1.5269 -2.1338 -2.5213
  965MOL0     H33128   3.266  10.770   5.784  2.1475 -0.5976 -1.4996
  965MOL0     H33129   3.303  10.698   5.443 -0.7141 -1.8203  1.9323
  965MOL0     H33130   3.452  10.716   5.532  0.5579 -2.6599  1.5580
  965MOL0     H33131   3.312  10.822   5.571  0.1084  0.6338 -0.4063
  965MOL0     H33132   3.278  10.074   5.360  0.3246 -4.8631 -3.0106
  965MOL0     H33133   3.335   9.993   5.129  1.0176  0.5792 -0.4463
  965MOL0     H33134   3.221  10.229   4.767  0.3954  0.7941 -2.1839
  965MOL0     H33135   3.377  10.305   4.815 -2.7023  1.9118 -0.0270
  965MOL0     H33136   3.372  10.216   4.591  1.8380 -2.8623 -2.3755
  965MOL0     H33137   3.507  10.158   4.667 -0.6220  1.0109 -4.4909
  965MOL0     H33138   3.253  10.007   4.633  0.0841 -1.9979  1.9253
  965MOL0     H33139   3.382   9.938   4.725 -1.9924 -1.3805 -1.3027
  965MOL0     H33140   3.415  10.020   4.433  2.3663 -0.9038 -0.4185
  965MOL0     H33141   3.368   9.861   4.504 -2.7408  1.2230 -3.0009
  965MOL0     H33142   3.625  10.007   4.533 -2.0836  0.7081  1.0317
  965MOL0     H33143   3.591   9.866   4.628 -3.5472 -1.2001  1.3100
  965MOL0     H33144   3.640   9.896   4.324 -0.2941 -2.5844 -0.9248
  965MOL0     H33145   3.524   9.771   4.377 -1.2524 -0.0197  2.8539
  965MOL0     H33146   3.685   9.639   4.504 -0.7045 -0.8552 -0.4573
  965MOL0     H33147   3.804   9.773   4.487 -1.1426 -0.3088  1.8187
  965MOL0     H33148   3.842   9.718   4.274  2.8921 -1.0162  3.6754
  965MOL0     H33149   3.685   9.660   4.233  0.9476  0.7539  0.2990
  965MOL0     H33150   3.296  10.397   4.988  1.8938  0.1735  1.0395
  965MOL0     H33151   3.296  10.480   5.212 -2.5668  0.0976 -2.4167
  965MOL0     H33152   3.256  10.281   5.696 -1.7542  1.7369 -0.7131
  965MOL0     H33153   3.195  10.374   5.912  3.8722  1.1828  1.3987
  965MOL0     H33154   1.728  10.752   6.141  0.1587 -1.2498 -0.0634
  965MOL0     H33155   1.503  10.748   6.032  1.7641 -2.2482  0.4073
  965MOL0     H33156   1.241  10.771   5.727  0.6082  0.1988  0.1476
  965MOL0     H33157   1.031  10.718   5.623  2.7982 -1.2840  0.8427
  965MOL0     H33158   0.591  10.762   5.715 -1.8676  1.0235  1.2896
  965MOL0     H33159   0.661  10.787   5.879  0.2259 -2.0139 -0.5944
  965MOL0     H33160   0.638  10.976   5.642  0.7787 -3.3435 -0.1762
  965MOL0     H33161   0.699  11.032   5.795 -0.5160  0.0094 -1.2665
  965MOL0     H33162   0.478  11.105   5.757  0.5600 -1.2980 -3.2841
  965MOL0     H33163   0.423  10.941   5.730  2.7078 -0.9507 -1.4286
  965MOL0     H33164   0.438  10.870   5.956  1.1450  0.0310  0.1710
  965MOL0     H33165   0.361  11.021   5.964  1.9391  2.2806  2.7115
  965MOL0     H33166   0.721  11.072   6.180 -0.2980 -0.5844  1.6971
  965MOL0     H33167   0.835  10.932   5.951  1.6705 -1.2079  1.3974
  965MOL0     H33168   1.085  11.137   6.044  0.6371  0.7371  0.2552
  965MOL0     H33169   0.934  11.059   6.079  0.1657  0.3897 -2.5608
  965MOL0     H33170   1.081  11.001   6.150 -0.4135  0.6340  0.9550
  966MOL0     O33171  10.302   9.667   7.834 -0.0495  0.5304  0.3047
  966MOL0     C33172  10.363   9.755   7.784 -0.3748 -0.9015  0.4698
  966MOL0     O33173  10.461   9.744   7.689  0.6847  0.3865 -0.2744
  966MOL0     C33174  10.526   9.627   7.669 -0.1883  1.3560  0.3047
  966MOL0     C33175  10.586   9.631   7.545  0.6227  0.3340 -0.1816
  966MOL0     C33176  10.686   9.539   7.508 -0.3059  0.6905  0.1753
  966MOL0     C33177  10.701   9.419   7.580  0.3260 -0.1337  0.0331
  966MOL0     O33178  10.781   9.315   7.536 -0.2050 -0.5106  0.3070
  966MOL0     C33179  10.909   9.344   7.477  0.1776  0.3904 -0.6140
  966MOL0     C33180  10.912   9.334   7.329 -0.0490 -0.0442  0.7575
  966MOL0     C33181  10.896   9.187   7.275 -0.3399  0.3035 -0.2055
  966MOL0     C33182  10.798   9.159   7.162  0.1952 -0.3559 -0.6282
  966MOL0     C33183  10.789   9.012   7.112 -0.5088 -1.3624 -0.1204
  966MOL0     C33184  10.668   8.994   7.022 -0.2934 -0.6174 -0.0493
  966MOL0     C33185  10.667   8.864   6.949 -0.2200 -0.2013  0.5718
  966MOL0     C33186  10.538   8.823   6.881  0.8019 -0.9403 -0.2529
  966MOL0     N33187  10.506   8.684   6.899 -0.7665  0.7335 -0.6353
  966MOL0     C33188  10.590   8.577   6.890 -0.1724  0.3662  0.3611
  966MOL0     C33189  10.523   8.461   6.915 -0.0279  0.5085  1.4392
  966MOL0     C33190  10.566   8.318   6.899 -0.7960 -0.1960 -0.3821
  966MOL0     C33191  10.721   8.276   6.903  0.3866 -0.1240  0.4311
  966MOL0     C33192  10.787   8.240   6.760 -0.6996  1.2671  0.9294
  966MOL0     C33193  10.918   8.156   6.799 -0.2313 -1.3513  0.3027
  966MOL0     O33194  10.983   8.130   6.670 -0.1080  0.3647  0.4782
  966MOL0     C33195  11.106   8.051   6.673 -0.1395 -0.4999  0.3837
  966MOL0     C33196  11.214   8.067   6.767  0.6468  0.1001 -0.2093
  966MOL0     C33197  11.342   8.013   6.733 -0.5275  0.6566  0.1927
  966MOL0     C33198  11.446   8.053   6.826 -1.0486 -0.1424  0.2451
  966MOL0     C33199  11.365   7.934   6.624 -1.0003  0.5593  0.3119
  966MOL0     C33200  11.504   7.893   6.581  0.2611 -0.5186 -0.1013
  966MOL0     O33201  11.496   7.769   6.523 -0.6497 -0.2732  0.3502
  966MOL0     C33202  11.617   7.712   6.491 -0.6242 -0.4790  0.1943
  966MOL0     C33203  11.724   7.708   6.580 -0.2912  0.8847 -0.8060
  966MOL0     C33204  11.837   7.634   6.549  0.5297 -0.1811  0.6367
  966MOL0     C33205  11.859   7.572   6.431  0.1245 -0.4617  1.1572
  966MOL0     O33206  11.982   7.512   6.423  0.4441 -0.3817 -0.8302
  966MOL0     C33207  12.038   7.494   6.291  0.3090  0.0002  0.1395
  966MOL0     C33208  12.113   7.359   6.289  0.0490 -0.6839 -0.1531
  966MOL0     C33209  12.119   7.290   6.159  0.1448 -0.7686  0.7741
  966MOL0     C33210  12.120   7.375   6.033  0.5419  0.2837  0.0122
  966MOL0     C33211  12.132   7.300   5.905 -0.0516  0.5162  1.0809
  966MOL0     C33212  12.186   7.157   5.907  0.7919  0.4334 -0.6870
  966MOL0     C33213  12.206   7.105   5.761  0.2516 -0.1345  0.9940
  966MOL0     C33214  12.064   7.078   5.700  0.9608  0.9010  0.6946
  966MOL0    Cl33215  12.009   6.917   5.751 -0.0497 -0.2593 -0.1542
  966MOL0     C33216  11.751   7.576   6.340  0.0449 -0.2653  0.2562
  966MOL0     C33217  11.633   7.653   6.368 -0.7746 -0.1484  0.9868
  966MOL0     O33218  11.602   7.962   6.601  0.6825 -0.3198  0.0175
  966MOL0     C33219  11.258   7.916   6.535  0.2532 -0.3285 -0.2507
  966MOL0     C33220  11.135   7.976   6.556  1.1647  0.2598 -0.6037
  966MOL0     N33221  10.396   8.506   6.940  0.0751 -0.0693  0.4695
  966MOL0     N33222  10.387   8.640   6.947 -0.1180  0.1643  0.3972
  966MOL0     C33223  10.628   9.405   7.703 -1.0965 -0.3450 -0.3209
  966MOL0     C33224  10.547   9.517   7.752  0.1490  0.8787  0.0826
  966MOL0     C33225  10.318   9.888   7.821  0.1229  0.3265  0.5840
  966MOL0     C33226  10.406   9.996   7.807 -0.3616 -0.3254  0.2439
  966MOL0     C33227  10.370  10.129   7.841  0.2927  0.1424 -0.3882
  966MOL0     C33228  10.249  10.142   7.899  0.1975 -0.7672 -0.5665
  966MOL0     O33229  10.202  10.266   7.929  0.5260  0.2028 -0.1621
  966MOL0     C33230  10.248  10.379   7.853 -0.8447  0.2125 -0.4867
  966MOL0     C33231  10.164  10.499   7.867 -0.1917 -0.9952 -0.3157
  966MOL0     C33232  10.233  10.615   7.806 -0.2766 -0.9601  0.1329
  966MOL0     C33233  10.136  10.729   7.786 -0.4216  0.0412  0.1048
  966MOL0     C33234  10.084  10.794   7.910 -0.3627  0.3757  0.6046
  966MOL0     C33235  10.064  10.857   8.012  0.1845 -0.1421  0.5069
  966MOL0     C33236  10.163  10.039   7.919 -0.4231 -0.9049 -0.5418
  966MOL0     C33237  10.189   9.917   7.859  0.0268 -0.5479 -0.6588
  966MOL0     C33238  10.066   9.827   7.841 -0.1720  0.4213 -0.8623
  966MOL0     H33239  10.564   9.715   7.480  0.7923  2.0161  1.8497
  966MOL0     H33240  10.740   9.552   7.414  1.9099  1.5588  1.4874
  966MOL0     H33241  10.985   9.274   7.511 -0.6561 -0.6633 -0.8575
  966MOL0     H33242  10.935   9.447   7.504 -0.5018 -0.0228  1.7925
  966MOL0     H33243  10.830   9.404   7.313 -1.6158 -1.5554  1.7316
  966MOL0     H33244  11.007   9.374   7.293 -0.0066 -1.6362 -1.0379
  966MOL0     H33245  10.992   9.160   7.230 -0.2375  1.9553 -1.0620
  966MOL0     H33246  10.869   9.131   7.365  1.4403  4.6130  3.4281
  966MOL0     H33247  10.705   9.188   7.211  0.3796  1.1009 -1.0997
  966MOL0     H33248  10.817   9.228   7.079  2.8140  1.9445  1.6890
  966MOL0     H33249  10.785   8.948   7.200 -0.2175 -0.6235  0.4439
  966MOL0     H33250  10.881   8.995   7.055  0.0556 -0.6509  0.5441
  966MOL0     H33251  10.578   9.005   7.083  2.1933 -0.1039  3.9294
  966MOL0     H33252  10.667   9.074   6.947  1.0189  0.7155  1.2749
  966MOL0     H33253  10.690   8.790   7.025 -0.3246  1.1468  1.9606
  966MOL0     H33254  10.749   8.863   6.876  0.4645 -3.4839  1.2430
  966MOL0     H33255  10.453   8.879   6.923  1.9329 -0.3695  1.3720
  966MOL0     H33256  10.538   8.845   6.774 -0.4577 -1.8986 -0.4817
  966MOL0     H33257  10.695   8.576   6.860 -0.5037 -0.3139 -0.8546
  966MOL0     H33258  10.510   8.265   6.821 -1.7769  0.1124  0.0937
  966MOL0     H33259  10.525   8.276   6.991 -0.5338  1.4477  0.5143
  966MOL0     H33260  10.778   8.352   6.956  0.2859 -1.0721  1.9640
  966MOL0     H33261  10.732   8.191   6.971  3.3905  1.8248  2.6655
  966MOL0     H33262  10.721   8.176   6.701  0.3282  0.3027  0.7974
  966MOL0     H33263  10.804   8.331   6.702  1.4768  0.9693  1.0119
  966MOL0     H33264  10.981   8.210   6.870 -1.8747  0.4881  0.4492
  966MOL0     H33265  10.887   8.067   6.855  1.5005 -0.4354  2.8711
  966MOL0     H33266  11.192   8.136   6.848 -2.9771  1.1142 -1.8379
  966MOL0     H33267  11.525   8.115   6.781 -1.8135  0.0667 -0.8588
  966MOL0     H33268  11.492   7.959   6.857 -0.9357 -0.7294 -1.5532
  966MOL0     H33269  11.411   8.112   6.911  1.4547 -0.0285  1.2821
  966MOL0     H33270  11.714   7.744   6.682  1.1377 -1.3324  0.1959
  966MOL0     H33271  11.913   7.636   6.627  0.1725  2.5343  1.0218
  966MOL0     H33272  11.958   7.490   6.216  1.5914  0.6912 -1.3498
  966MOL0     H33273  12.111   7.574   6.272  2.1936 -1.0507  2.5249
  966MOL0     H33274  12.212   7.369   6.336 -1.1796 -0.2381  2.5030
  966MOL0     H33275  12.061   7.301   6.366  2.6878  0.9189  3.1594
  966MOL0     H33276  12.030   7.228   6.147  1.1731 -2.5442  1.8830
  966MOL0     H33277  12.204   7.222   6.147  0.8485  0.1306  0.5860
  966MOL0     H33278  12.214   7.431   6.041  0.2603  0.6807  0.5409
  966MOL0     H33279  12.039   7.447   6.018  1.2121  1.1505  0.4832
  966MOL0     H33280  12.028   7.283   5.877  0.4859 -3.3981  0.9727
  966MOL0     H33281  12.169   7.360   5.822  0.6305 -0.3851  0.7268
  966MOL0     H33282  12.105   7.099   5.950  0.1186  1.1285 -0.9992
  966MOL0     H33283  12.286   7.149   5.952  0.7029 -1.6783 -0.7686
  966MOL0     H33284  12.255   7.011   5.737 -2.3809 -0.8351 -2.4470
  966MOL0     H33285  12.248   7.181   5.695  1.2365  1.2614  3.1155
  966MOL0     H33286  12.074   7.077   5.591 -0.5790 -1.0531  0.5260
  966MOL0     H33287  11.983   7.148   5.724  1.2159  0.6937  2.2315
  966MOL0     H33288  11.752   7.512   6.252 -1.3620 -1.8269  1.3320
  966MOL0     H33289  11.556   7.659   6.292  1.2447 -0.4828 -1.1919
  966MOL0     H33290  11.266   7.858   6.444  0.0332 -0.3846 -0.2344
  966MOL0     H33291  11.049   7.969   6.489  0.5512 -0.3000  0.2150
  966MOL0     H33292  10.641   9.328   7.778  1.4190 -0.1073 -0.4508
  966MOL0     H33293  10.507   9.503   7.852 -3.0107  0.8644 -1.0475
  966MOL0     H33294  10.503   9.971   7.765 -0.4493  2.0553 -1.6483
  966MOL0     H33295  10.442  10.209   7.832 -0.2883  0.7057 -0.1171
  966MOL0     H33296  10.349  10.400   7.891 -1.1730 -2.6209  2.4121
  966MOL0     H33297  10.254  10.341   7.750  1.7981 -2.6352  0.5521
  966MOL0     H33298  10.133  10.517   7.970  1.7296  0.3340  0.0958
  966MOL0     H33299  10.068  10.484   7.816 -1.8649 -0.9063  2.6014
  966MOL0     H33300  10.315  10.645   7.871  0.4637  0.5202 -1.4307
  966MOL0     H33301  10.279  10.591   7.710  1.5194 -1.4295  1.0621
  966MOL0     H33302  10.047  10.703   7.728 -2.0424  2.7624  1.1857
  966MOL0     H33303  10.199  10.798   7.729  0.8818  0.5208  2.0190
  966MOL0     H33304  10.038  10.897   8.109  2.3373  0.3107  0.9524
  966MOL0     H33305  10.071  10.070   7.968  1.4243  0.6065  2.2244
  966MOL0     H33306  10.076   9.744   7.771 -2.8555 -2.6756  2.0467
  966MOL0     H33307  10.067   9.781   7.940  1.2843  2.6169  0.2348
  966MOL0     H33308   9.975   9.885   7.821 -0.4196  0.2858 -0.1580
  967MOL0     O33309   0.823   3.633   4.177  0.0874  0.6959  1.5124
  967MOL0     C33310   0.889   3.584   4.271 -0.3102  0.2312 -0.3958
  967MOL0     O33311   0.918   3.449   4.285  0.2193 -0.2287  0.5938
  967MOL0     C33312   0.934   3.375   4.169  0.4530 -0.0950  0.9475
  967MOL0     C33313   1.011   3.420   4.057 -0.4918 -0.9106 -0.7925
  967MOL0     C33314   1.008   3.352   3.936  0.5344 -0.4821  0.3459
  967MOL0     C33315   0.939   3.226   3.928 -0.3933  0.1484 -0.7982
  967MOL0     O33316   0.937   3.145   3.815  0.0389  0.7687 -0.4507
  967MOL0     C33317   1.038   3.164   3.713  1.5962 -0.1067 -0.2640
  967MOL0     C33318   1.058   3.029   3.644  0.4134 -0.7351  0.0280
  967MOL0     C33319   1.123   2.923   3.735  0.2295  0.4644 -0.2038
  967MOL0     C33320   1.138   2.797   3.653  0.8840 -0.5499  1.2073
  967MOL0     C33321   1.169   2.669   3.733  0.3213  0.8824  0.6683
  967MOL0     C33322   1.049   2.611   3.809 -0.0776 -0.2086  0.7243
  967MOL0     C33323   1.095   2.480   3.876 -0.2503 -0.3380  0.7359
  967MOL0     C33324   1.088   2.366   3.771  0.7064 -0.0941 -0.9381
  967MOL0     N33325   1.116   2.240   3.835 -0.0631 -0.1834 -0.6879
  967MOL0     C33326   1.198   2.223   3.950 -0.4496 -0.3790 -0.2449
  967MOL0     C33327   1.194   2.092   3.971 -0.0622 -0.3488  0.0866
  967MOL0     C33328   1.269   2.032   4.088  0.6755  0.3837 -0.0534
  967MOL0     C33329   1.179   1.963   4.190  0.3274  0.5953  0.2591
  967MOL0     C33330   1.243   1.932   4.325  0.5349  0.2023  0.0216
  967MOL0     C33331   1.255   2.054   4.424 -1.1065 -1.2004 -0.3483
  967MOL0     O33332   1.284   2.012   4.564  1.3123 -1.1480  0.5583
  967MOL0     C33333   1.281   2.114   4.659 -0.5778 -0.5298  0.1429
  967MOL0     C33334   1.278   2.081   4.797  0.2262  0.4688 -0.2661
  967MOL0     C33335   1.297   2.177   4.896  1.2187 -0.7255  0.7286
  967MOL0     C33336   1.295   2.127   5.036  0.1700 -0.2690  0.2984
  967MOL0     C33337   1.301   2.310   4.857  0.0042 -0.5285 -0.3148
  967MOL0     C33338   1.300   2.423   4.956  0.2196  0.0948 -0.4177
  967MOL0     O33339   1.276   2.543   4.902  0.2676  0.2235  0.1745
  967MOL0     C33340   1.264   2.661   4.974 -0.2260 -0.4433  0.1670
  967MOL0     C33341   1.173   2.669   5.086  0.3467  0.2449  0.5152
  967MOL0     C33342   1.155   2.792   5.150 -0.4483  0.8205 -0.2349
  967MOL0     C33343   1.239   2.897   5.119 -0.5076  0.5697 -0.2024
  967MOL0     O33344   1.235   3.011   5.196  0.3383  0.1059 -0.6666
  967MOL0     C33345   1.233   3.144   5.147 -0.0410 -0.0813  1.1396
  967MOL0     C33346   1.361   3.220   5.195 -0.5327  0.6519  0.9959
  967MOL0     C33347   1.382   3.211   5.350  0.0183 -0.6829 -0.1989
  967MOL0     C33348   1.513   3.277   5.401  0.9343 -0.3192 -0.0927
  967MOL0     C33349   1.527   3.267   5.552  1.1335 -0.4438  0.7905
  967MOL0     C33350   1.573   3.132   5.592 -0.4481  0.4395  0.3000
  967MOL0     C33351   1.599   3.128   5.747  0.8639 -0.2067  0.5959
  967MOL0     C33352   1.695   3.019   5.800  0.5267  0.3242 -1.1379
  967MOL0    Cl33353   1.703   3.040   5.982  0.0304 -0.0808 -0.1046
  967MOL0     C33354   1.334   2.881   5.018 -0.0482 -0.2916 -0.4193
  967MOL0     C33355   1.347   2.765   4.945  0.1479 -0.1035  0.4090
  967MOL0     O33356   1.320   2.398   5.074  0.4216 -0.4810  0.4978
  967MOL0     C33357   1.297   2.351   4.720  0.1019  0.1008 -0.9026
  967MOL0     C33358   1.278   2.250   4.628 -0.0376 -0.0486  0.2746
  967MOL0     N33359   1.114   2.034   3.875  0.1209  1.3573  0.4674
  967MOL0     N33360   1.075   2.114   3.787 -0.0480 -0.4467 -0.2424
  967MOL0     C33361   0.880   3.178   4.049  0.6387 -0.6949 -0.1071
  967MOL0     C33362   0.876   3.250   4.167 -0.9427 -0.9255  0.9148
  967MOL0     C33363   0.927   3.664   4.389 -0.3872 -1.6104  0.3702
  967MOL0     C33364   0.886   3.624   4.516 -0.0496  0.3002 -0.3866
  967MOL0     C33365   0.903   3.700   4.628  0.0198  0.1900 -0.3695
  967MOL0     C33366   0.971   3.820   4.623 -0.6371  0.5751  0.1121
  967MOL0     O33367   0.995   3.897   4.738  0.4237  0.7090  0.0710
  967MOL0     C33368   0.913   3.870   4.853  0.9393 -0.5509 -0.2331
  967MOL0     C33369   0.955   3.966   4.962 -0.4786  0.1927 -0.2217
  967MOL0     C33370   0.945   4.112   4.925  0.0422 -0.8410 -0.2399
  967MOL0     C33371   1.000   4.214   5.028 -0.4531 -0.0903  0.4013
  967MOL0     C33372   0.916   4.220   5.137  0.5153  0.4497 -0.5073
  967MOL0     C33373   0.832   4.240   5.228  0.6177 -0.0125 -0.1256
  967MOL0     C33374   1.026   3.862   4.506  0.1731  0.7158  0.6714
  967MOL0     C33375   1.000   3.787   4.386  0.1813  0.3066  0.6321
  967MOL0     C33376   1.046   3.844   4.258  0.0704 -0.1225  0.9292
  967MOL0     H33377   1.061   3.516   4.050 -2.0317 -0.0426 -0.3804
  967MOL0     H33378   1.053   3.406   3.854  3.1667 -1.8523  0.7907
  967MOL0     H33379   1.131   3.201   3.757  1.8303 -2.2686  1.2061
  967MOL0     H33380   1.001   3.229   3.633 -1.2515 -1.1895  0.0680
  967MOL0     H33381   0.957   2.994   3.618  0.3013 -0.5297  0.1863
  967MOL0     H33382   1.115   3.068   3.559  0.8982  4.1366  2.2673
  967MOL0     H33383   1.210   2.967   3.784  1.1124  0.2842 -1.5658
  967MOL0     H33384   1.050   2.897   3.811  2.3399  1.0972  2.1569
  967MOL0     H33385   1.048   2.783   3.591  2.2162 -1.2966 -0.6569
  967MOL0     H33386   1.218   2.829   3.586  0.3705  2.1099  1.7534
  967MOL0     H33387   1.248   2.686   3.807  0.1321  0.6807  0.9185
  967MOL0     H33388   1.196   2.603   3.650 -4.8766  0.6388 -1.2092
  967MOL0     H33389   1.028   2.688   3.885 -2.3646  2.0824 -2.0055
  967MOL0     H33390   0.964   2.596   3.743  0.7810 -1.8189 -0.0670
  967MOL0     H33391   1.019   2.454   3.950 -1.5810  2.0951  0.3325
  967MOL0     H33392   1.194   2.491   3.920 -0.8238  0.1703  1.9543
  967MOL0     H33393   0.999   2.377   3.708  1.0859  1.0044 -1.3043
  967MOL0     H33394   1.164   2.392   3.696 -2.1386  0.6419 -3.7732
  967MOL0     H33395   1.254   2.285   4.019  2.3052 -1.0124 -1.7807
  967MOL0     H33396   1.336   2.093   4.148 -0.4163  0.7340  0.8436
  967MOL0     H33397   1.338   1.957   4.046 -1.2989 -0.6053 -1.7351
  967MOL0     H33398   1.083   2.015   4.193 -1.2827 -1.6718 -3.8252
  967MOL0     H33399   1.172   1.861   4.149 -0.0334 -0.4769  2.7755
  967MOL0     H33400   1.174   1.857   4.363  2.0094 -1.0867  0.2683
  967MOL0     H33401   1.339   1.884   4.305 -0.3686 -2.2062  1.1052
  967MOL0     H33402   1.321   2.134   4.388 -1.8866 -1.0572 -1.4990
  967MOL0     H33403   1.154   2.095   4.436 -2.0227 -3.2929 -0.5406
  967MOL0     H33404   1.262   1.977   4.821  0.4664  0.2958 -0.8430
  967MOL0     H33405   1.305   2.018   5.037  1.0531 -0.2025  0.2202
  967MOL0     H33406   1.206   2.163   5.088  0.0823  1.6979 -1.0846
  967MOL0     H33407   1.390   2.155   5.082  0.5379 -0.8831 -0.0688
  967MOL0     H33408   1.117   2.587   5.130  1.2503 -0.0084  1.2322
  967MOL0     H33409   1.092   2.805   5.238 -0.7738 -0.4029 -0.2690
  967MOL0     H33410   1.225   3.140   5.038 -3.1026  1.8127  1.1960
  967MOL0     H33411   1.142   3.199   5.171 -0.5751 -0.2947 -0.3316
  967MOL0     H33412   1.450   3.184   5.141  0.1813  1.1998  1.7788
  967MOL0     H33413   1.343   3.324   5.167  1.6844  1.7517  3.2530
  967MOL0     H33414   1.382   3.108   5.388 -0.5959 -1.5236 -2.3341
  967MOL0     H33415   1.303   3.255   5.412 -1.1696  1.3158 -2.9649
  967MOL0     H33416   1.512   3.383   5.374 -0.0551  0.7560  3.5795
  967MOL0     H33417   1.595   3.219   5.358  0.6139 -2.5327  2.0752
  967MOL0     H33418   1.603   3.344   5.569  0.2190  1.5340 -3.0978
  967MOL0     H33419   1.429   3.285   5.596 -1.4181 -3.8202 -2.8812
  967MOL0     H33420   1.660   3.106   5.531  1.0557  1.1883  2.0334
  967MOL0     H33421   1.492   3.065   5.562 -0.2601 -0.5130  1.8177
  967MOL0     H33422   1.500   3.125   5.792 -0.9833 -1.0990 -3.1452
  967MOL0     H33423   1.628   3.232   5.766 -0.3527  0.0417  1.1883
  967MOL0     H33424   1.789   3.015   5.743  0.9995  0.1625 -0.3680
  967MOL0     H33425   1.646   2.921   5.792  1.1182 -0.9903  5.5478
  967MOL0     H33426   1.394   2.964   4.982  1.7327 -1.3943 -0.0664
  967MOL0     H33427   1.419   2.765   4.864 -0.8135 -1.8095 -0.4810
  967MOL0     H33428   1.298   2.455   4.686  0.1473  0.0731 -0.9850
  967MOL0     H33429   1.287   2.274   4.522 -2.7134 -1.5942 -0.3946
  967MOL0     H33430   0.830   3.082   4.037 -0.1810 -0.1445 -1.3176
  967MOL0     H33431   0.831   3.219   4.261  0.2847 -0.0823  1.8140
  967MOL0     H33432   0.848   3.523   4.521  1.8282 -0.4446 -0.2347
  967MOL0     H33433   0.881   3.652   4.723  1.9263 -4.0112 -1.8226
  967MOL0     H33434   0.804   3.878   4.844  0.6030  1.0231  3.4639
  967MOL0     H33435   0.938   3.774   4.899  4.9055  0.4082 -0.0601
  967MOL0     H33436   1.056   3.944   4.995 -1.3194 -1.5997  1.3390
  967MOL0     H33437   0.900   3.945   5.055 -0.3893  1.3686  0.1072
  967MOL0     H33438   1.002   4.129   4.833 -1.0558  0.5746 -0.6900
  967MOL0     H33439   0.840   4.129   4.902 -0.5570 -0.2874  2.5699
  967MOL0     H33440   1.019   4.308   4.976  5.2044 -0.5864  0.9568
  967MOL0     H33441   1.104   4.196   5.055  0.4260  1.7329 -1.4487
  967MOL0     H33442   0.760   4.261   5.305  0.5123 -0.6588 -0.0380
  967MOL0     H33443   1.078   3.956   4.488 -0.1697  0.7800 -0.0300
  967MOL0     H33444   1.139   3.900   4.267  1.3087 -1.5931 -1.5191
  967MOL0     H33445   1.065   3.771   4.179 -0.4690 -0.0408  0.7189
  967MOL0     H33446   0.963   3.904   4.221  0.6622 -2.6410 -5.9447
  968MOL0     O33447   8.379   4.445   5.025  0.4694  0.1400 -0.4508
  968MOL0     C33448   8.261   4.427   5.052  0.1146 -1.0237  0.1525
  968MOL0     O33449   8.216   4.391   5.174  0.5352 -0.4273 -0.2298
  968MOL0     C33450   8.311   4.370   5.270 -0.4017  0.2015  0.3666
  968MOL0     C33451   8.360   4.240   5.282 -0.0737 -0.3044  0.5383
  968MOL0     C33452   8.486   4.219   5.337 -0.2495 -0.4042  0.1234
  968MOL0     C33453   8.549   4.328   5.388 -0.7956 -0.0456  0.1110
  968MOL0     O33454   8.668   4.311   5.459  0.4638  0.3203 -0.3845
  968MOL0     C33455   8.755   4.207   5.405  0.3912  0.2012  0.0665
  968MOL0     C33456   8.887   4.283   5.426  0.1549  0.9845  0.1956
  968MOL0     C33457   9.019   4.208   5.389 -0.1773  0.3720 -0.5486
  968MOL0     C33458   9.009   4.069   5.437 -0.3972  0.0564 -0.3823
  968MOL0     C33459   9.140   3.998   5.445  0.2124  0.6184  0.1444
  968MOL0     C33460   9.123   3.855   5.500  0.2467 -0.0669 -0.2552
  968MOL0     C33461   9.262   3.787   5.508  0.0172 -0.0146 -0.2121
  968MOL0     C33462   9.360   3.844   5.619  0.4133 -0.0938  0.3629
  968MOL0     N33463   9.296   3.824   5.753 -0.4786  0.5470  0.1825
  968MOL0     C33464   9.287   3.698   5.799  0.5198  0.4292  0.0737
  968MOL0     C33465   9.220   3.721   5.915  0.2298 -0.4031 -0.2582
  968MOL0     C33466   9.190   3.621   6.020  0.4113  1.2416  0.7546
  968MOL0     C33467   9.225   3.675   6.155  0.0752  0.3811 -0.3837
  968MOL0     C33468   9.113   3.697   6.253  0.4927  0.2040  1.3835
  968MOL0     C33469   9.148   3.817   6.344 -0.8197  0.6721  0.1687
  968MOL0     O33470   9.066   3.827   6.462 -0.1300  0.3941  1.4984
  968MOL0     C33471   9.066   3.938   6.547  0.4238  0.1801  0.2751
  968MOL0     C33472   8.963   3.947   6.649 -0.6393 -0.4477 -0.9806
  968MOL0     C33473   8.957   4.053   6.740 -0.3721 -0.1063 -0.4459
  968MOL0     C33474   8.849   4.037   6.857  0.2691 -0.1472  0.2973
  968MOL0     C33475   9.063   4.152   6.732 -0.6014  0.7534 -1.1095
  968MOL0     C33476   9.075   4.260   6.829 -0.4725 -0.1529 -0.2993
  968MOL0     O33477   9.198   4.329   6.827  0.1956  0.6791 -0.5041
  968MOL0     C33478   9.235   4.432   6.910 -0.2022  0.2043  0.8726
  968MOL0     C33479   9.154   4.531   6.960  0.7131 -0.1974 -0.7789
  968MOL0     C33480   9.205   4.637   7.037 -0.3408 -0.3079 -0.6627
  968MOL0     C33481   9.336   4.647   7.057 -0.2329 -0.4998  0.7452
  968MOL0     O33482   9.378   4.753   7.131 -0.6979 -0.0120 -0.7170
  968MOL0     C33483   9.518   4.772   7.161  0.2733 -0.0300 -0.0824
  968MOL0     C33484   9.545   4.810   7.306  0.5013  0.0865  0.0168
  968MOL0     C33485   9.471   4.937   7.352  0.3477 -0.2242 -0.2900
  968MOL0     C33486   9.484   4.947   7.502 -0.4638  0.3604  0.7231
  968MOL0     C33487   9.402   5.059   7.563 -0.7904 -0.5861  0.4175
  968MOL0     C33488   9.393   5.053   7.717 -1.3456  0.0804 -0.0918
  968MOL0     C33489   9.525   5.063   7.798  0.2546 -0.0301 -0.9061
  968MOL0     C33490   9.483   5.051   7.949  0.6642  1.0342 -0.5008
  968MOL0    Cl33491   9.433   4.880   7.987 -0.4125 -0.0852 -0.2217
  968MOL0     C33492   9.422   4.545   7.006  0.5311  0.7099  0.2067
  968MOL0     C33493   9.369   4.439   6.938 -0.6461  0.5428  0.7015
  968MOL0     O33494   8.995   4.281   6.918 -0.1870  0.9090 -0.4013
  968MOL0     C33495   9.160   4.135   6.636  0.5226  0.0197  0.3219
  968MOL0     C33496   9.157   4.036   6.542 -1.5420 -0.1938 -0.4295
  968MOL0     N33497   9.192   3.859   5.930 -0.1870  0.2588 -0.6200
  968MOL0     N33498   9.235   3.914   5.829 -0.2693 -0.0810 -0.7379
  968MOL0     C33499   8.495   4.458   5.401  1.1081  0.4843 -0.5460
  968MOL0     C33500   8.370   4.475   5.333  0.0177 -1.3209 -0.0052
  968MOL0     C33501   8.160   4.446   4.934 -0.3767 -1.2503 -0.0083
  968MOL0     C33502   8.210   4.425   4.809  0.9730  0.7886  0.1458
  968MOL0     C33503   8.133   4.445   4.694 -0.4343  0.5306 -0.0509
  968MOL0     C33504   7.998   4.468   4.712  0.0022  0.5437  0.2972
  968MOL0     O33505   7.932   4.434   4.591 -0.0869  0.3172 -0.0134
  968MOL0     C33506   7.793   4.456   4.581 -0.4164  0.1225  0.6951
  968MOL0     C33507   7.751   4.444   4.430 -0.1940 -0.2644 -0.3965
  968MOL0     C33508   7.673   4.567   4.392  0.3666 -0.4278 -0.2537
  968MOL0     C33509   7.642   4.587   4.242  0.0697 -0.0483 -0.3734
  968MOL0     C33510   7.760   4.638   4.167 -0.3050  0.3394  0.3238
  968MOL0     C33511   7.870   4.659   4.125 -0.1018 -0.7009  0.6636
  968MOL0     C33512   7.943   4.488   4.836 -0.7554  1.5010  0.4943
  968MOL0     C33513   8.018   4.471   4.949 -0.9129  0.1019  0.0839
  968MOL0     C33514   7.945   4.485   5.081 -0.2831 -0.5590  1.1109
  968MOL0     H33515   8.308   4.159   5.233  0.0362  0.7353 -1.4200
  968MOL0     H33516   8.527   4.120   5.352  3.8893  1.0282 -0.3875
  968MOL0     H33517   8.745   4.181   5.299 -1.3088  0.9894  0.0110
  968MOL0     H33518   8.751   4.117   5.468  1.0050  0.6565  0.7692
  968MOL0     H33519   8.872   4.372   5.364 -1.4543  0.4685 -0.2133
  968MOL0     H33520   8.904   4.317   5.528  0.1322  0.2719  0.4410
  968MOL0     H33521   9.029   4.195   5.280 -0.4479  1.4211 -0.7070
  968MOL0     H33522   9.108   4.259   5.427  0.0022  0.2310 -0.7746
  968MOL0     H33523   8.971   4.071   5.540  0.7707  0.7276  0.0579
  968MOL0     H33524   8.946   4.017   5.364 -1.3465 -3.1254  2.4471
  968MOL0     H33525   9.208   4.062   5.503  1.2920 -1.3736  1.2316
  968MOL0     H33526   9.180   3.977   5.345 -1.2069 -2.4520  0.0866
  968MOL0     H33527   9.072   3.860   5.597  0.6661  1.0822 -0.0786
  968MOL0     H33528   9.063   3.789   5.437 -0.5565  2.5412 -2.4330
  968MOL0     H33529   9.303   3.798   5.407 -0.2276  0.4822 -0.2586
  968MOL0     H33530   9.239   3.682   5.529 -0.7131 -0.2401 -1.9211
  968MOL0     H33531   9.457   3.794   5.618  0.9608  0.8303  2.0938
  968MOL0     H33532   9.363   3.951   5.599 -2.3127  0.0285  0.1940
  968MOL0     H33533   9.323   3.607   5.753 -1.3238  0.7952 -2.2919
  968MOL0     H33534   9.246   3.529   6.002 -1.8872  0.2287 -1.9822
  968MOL0     H33535   9.087   3.585   6.029 -0.6110  2.5689 -3.4267
  968MOL0     H33536   9.294   3.606   6.205 -0.9536  0.5030  1.2974
  968MOL0     H33537   9.291   3.761   6.143 -0.2250  0.3528 -2.6305
  968MOL0     H33538   9.016   3.720   6.207  0.9623  1.7619  1.1037
  968MOL0     H33539   9.100   3.607   6.314  1.5460 -1.2738 -0.4510
  968MOL0     H33540   9.247   3.806   6.390 -1.1792  1.5243  1.1846
  968MOL0     H33541   9.147   3.904   6.278 -1.7567  1.1499  0.8095
  968MOL0     H33542   8.884   3.872   6.648 -1.2498  0.1806 -1.0150
  968MOL0     H33543   8.860   3.940   6.905 -0.9672  0.0310  0.9668
  968MOL0     H33544   8.752   4.044   6.807 -0.0579  3.7794  1.0940
  968MOL0     H33545   8.852   4.118   6.931  3.0076  0.2204 -0.1002
  968MOL0     H33546   9.046   4.527   6.960  0.7122 -3.5258 -2.5968
  968MOL0     H33547   9.140   4.711   7.082  0.5532 -0.7834  1.5298
  968MOL0     H33548   9.593   4.697   7.131  1.7308  0.3870  2.2478
  968MOL0     H33549   9.546   4.852   7.092  0.0307 -1.3077 -1.7110
  968MOL0     H33550   9.506   4.724   7.361  0.7376 -0.0147  0.0260
  968MOL0     H33551   9.652   4.827   7.325  0.5717 -0.9279  0.5833
  968MOL0     H33552   9.369   4.933   7.313 -0.0614  1.6544  0.5027
  968MOL0     H33553   9.514   5.032   7.320  0.3599  0.7672  2.4344
  968MOL0     H33554   9.590   4.961   7.526 -0.8273  1.9372  1.5768
  968MOL0     H33555   9.467   4.847   7.542  2.9847  0.7044  3.6122
  968MOL0     H33556   9.434   5.160   7.536  1.2581 -0.6011  2.4936
  968MOL0     H33557   9.306   5.057   7.512 -0.4636  3.7374 -0.8084
  968MOL0     H33558   9.341   4.962   7.749  1.6266 -2.3280 -1.5098
  968MOL0     H33559   9.332   5.140   7.743 -1.2202 -0.3890  1.9675
  968MOL0     H33560   9.578   5.158   7.794  2.2242 -0.9458  1.3442
  968MOL0     H33561   9.599   4.987   7.774 -0.1859 -0.8743  0.3310
  968MOL0     H33562   9.398   5.118   7.959  2.2110  3.1184 -0.6725
  968MOL0     H33563   9.566   5.090   8.008 -1.0853  2.4616  1.1479
  968MOL0     H33564   9.530   4.538   7.018  0.5843 -1.7499 -1.1420
  968MOL0     H33565   9.428   4.353   6.907  0.1259  1.6138 -0.9527
  968MOL0     H33566   9.251   4.194   6.629 -0.9932  2.2500 -3.2468
  968MOL0     H33567   9.240   4.029   6.473 -1.8429  0.3540 -0.8540
  968MOL0     H33568   8.542   4.528   5.468  0.0435  1.3604 -0.6843
  968MOL0     H33569   8.334   4.578   5.332  1.8082 -0.6365  0.4176
  968MOL0     H33570   8.315   4.403   4.794  0.6245  0.1942 -1.5857
  968MOL0     H33571   8.186   4.439   4.600  1.0452 -3.2968  0.8256
  968MOL0     H33572   7.737   4.381   4.637 -1.0756  0.0974  0.0139
  968MOL0     H33573   7.768   4.553   4.627  1.3445  1.5570 -1.1686
  968MOL0     H33574   7.697   4.351   4.407 -0.7529  0.0006 -0.1614
  968MOL0     H33575   7.839   4.432   4.366 -0.0548 -0.8156 -0.1159
  968MOL0     H33576   7.582   4.551   4.451  0.9487  0.0548  0.8035
  968MOL0     H33577   7.725   4.650   4.441 -0.5286 -0.9258  1.6465
  968MOL0     H33578   7.568   4.662   4.215  0.8183  0.1593 -1.9680
  968MOL0     H33579   7.608   4.494   4.196 -1.3318  0.5594 -0.6056
  968MOL0     H33580   7.970   4.662   4.086  0.0432 -2.5485  0.8012
  968MOL0     H33581   7.836   4.504   4.850 -0.8048  2.1506 -0.4885
  968MOL0     H33582   7.924   4.388   5.128 -0.9529 -0.5134  0.9216
  968MOL0     H33583   8.013   4.540   5.145 -0.0891  0.9091 -0.3028
  968MOL0     H33584   7.848   4.534   5.069  0.5362  0.5283 -1.8289
  969MOL0     O33585   9.835   1.761   1.414  0.0326 -0.1922  0.5328
  969MOL0     C33586   9.886   1.773   1.298  0.4415 -0.2261  0.1334
  969MOL0     O33587   9.841   1.845   1.194 -0.1687  0.9894  0.1875
  969MOL0     C33588   9.729   1.926   1.208  0.3590  0.3523  0.0634
  969MOL0     C33589   9.605   1.859   1.224 -0.3685 -0.4195 -0.0906
  969MOL0     C33590   9.500   1.933   1.272 -0.2245  0.9276 -0.3047
  969MOL0     C33591   9.510   2.068   1.293  0.2372  0.2030  0.2290
  969MOL0     O33592   9.400   2.143   1.333 -0.8796 -0.4458  0.6078
  969MOL0     C33593   9.290   2.078   1.395 -0.1124  0.0114 -0.6817
  969MOL0     C33594   9.226   2.195   1.474  0.0593  0.6943 -0.4981
  969MOL0     C33595   9.174   2.307   1.391 -0.5274 -0.9074 -0.5400
  969MOL0     C33596   9.100   2.415   1.468 -1.1427  0.0703 -0.0045
  969MOL0     C33597   9.038   2.495   1.356  0.1126  0.2192 -0.8249
  969MOL0     C33598   8.999   2.633   1.401 -0.7547 -0.5167  0.4710
  969MOL0     C33599   8.921   2.686   1.286  0.8514  0.5509  0.6113
  969MOL0     C33600   8.921   2.838   1.263  0.0251  0.5293 -1.0795
  969MOL0     N33601   8.811   2.877   1.176  0.8285  0.5903 -0.2313
  969MOL0     C33602   8.818   2.954   1.060  0.3772  0.5836 -0.8412
  969MOL0     C33603   8.689   2.975   1.020 -0.7904  0.1114  0.3249
  969MOL0     C33604   8.639   3.046   0.896 -0.4476 -1.1081 -0.3500
  969MOL0     C33605   8.721   3.018   0.772  0.1195  0.7319 -0.3117
  969MOL0     C33606   8.731   2.873   0.748 -0.8812 -0.1328 -1.3410
  969MOL0     C33607   8.613   2.798   0.676  0.0534  0.0247  0.5553
  969MOL0     O33608   8.499   2.792   0.762 -0.1529  0.5313  0.2105
  969MOL0     C33609   8.388   2.718   0.733  1.0122  0.2150 -0.3068
  969MOL0     C33610   8.320   2.653   0.838 -0.0662  0.0551  0.0952
  969MOL0     C33611   8.219   2.554   0.807  0.4338 -0.1333  0.1462
  969MOL0     C33612   8.151   2.498   0.933 -0.0316 -0.4451  0.8189
  969MOL0     C33613   8.175   2.534   0.673 -0.0764  0.5001 -0.4256
  969MOL0     C33614   8.068   2.447   0.649  0.3301  0.1382 -0.6001
  969MOL0     O33615   8.082   2.374   0.540  0.0423 -0.0681 -0.9174
  969MOL0     C33616   7.994   2.278   0.488 -0.0532 -0.4033 -0.3541
  969MOL0     C33617   7.883   2.217   0.554 -0.3067  0.9916  0.0639
  969MOL0     C33618   7.818   2.116   0.488 -0.0857  0.2885 -0.5282
  969MOL0     C33619   7.833   2.078   0.356  0.0961  0.1361 -0.7368
  969MOL0     O33620   7.767   1.980   0.297  0.4410  0.2311  1.1085
  969MOL0     C33621   7.837   1.874   0.227 -0.4707  0.3677 -0.1278
  969MOL0     C33622   7.750   1.782   0.138 -0.3702  0.9441  0.0978
  969MOL0     C33623   7.663   1.694   0.230  1.1891  0.4968  0.4000
  969MOL0     C33624   7.565   1.601   0.154  0.7381  0.2004 -0.1675
  969MOL0     C33625   7.464   1.529   0.244 -0.7193 -1.3746 -0.1642
  969MOL0     C33626   7.524   1.426   0.335  0.1374 -0.1398 -0.3301
  969MOL0     C33627   7.438   1.385   0.456 -0.6586 -0.6117 -0.1849
  969MOL0     C33628   7.509   1.306   0.579  0.4125 -0.8374  0.0241
  969MOL0    Cl33629   7.384   1.275   0.706 -0.0301 -0.0916 -0.5696
  969MOL0     C33630   7.938   2.148   0.289 -0.2546  0.3937  0.0905
  969MOL0     C33631   8.021   2.237   0.357  0.4132 -0.8742  0.1390
  969MOL0     O33632   7.969   2.440   0.719  0.1432 -0.5451 -0.1348
  969MOL0     C33633   8.239   2.604   0.565  0.4253  0.2748  0.2335
  969MOL0     C33634   8.343   2.696   0.598 -0.1340 -0.0207  0.1344
  969MOL0     N33635   8.610   2.922   1.121 -0.2724 -0.2554 -0.9289
  969MOL0     N33636   8.682   2.857   1.211  0.8302 -0.1988  0.4032
  969MOL0     C33637   9.632   2.136   1.282 -0.1273  0.7329  0.1645
  969MOL0     C33638   9.736   2.065   1.238 -1.9731 -0.7221  1.1540
  969MOL0     C33639  10.010   1.695   1.272 -0.3037  0.2442 -0.7303
  969MOL0     C33640  10.066   1.615   1.377 -0.6026  0.2593  0.4327
  969MOL0     C33641  10.173   1.527   1.360  0.1220  0.4787 -0.0167
  969MOL0     C33642  10.242   1.527   1.237  0.0367 -0.1388  1.1911
  969MOL0     O33643  10.346   1.439   1.224 -0.0702 -0.4566  0.2931
  969MOL0     C33644  10.462   1.471   1.146 -0.4210 -0.4952 -0.2861
  969MOL0     C33645  10.559   1.365   1.161  0.9287  0.7897  0.1857
  969MOL0     C33646  10.666   1.349   1.056  0.1836 -0.0993  0.2386
  969MOL0     C33647  10.783   1.253   1.095 -0.2705  0.1878  0.0217
  969MOL0     C33648  10.873   1.318   1.196 -0.1495 -0.1435 -0.1229
  969MOL0     C33649  10.948   1.376   1.277  0.2603  0.5262 -0.0922
  969MOL0     C33650  10.190   1.608   1.131  0.0375  0.3087 -0.3706
  969MOL0     C33651  10.085   1.698   1.151 -0.7257 -0.1582  1.5705
  969MOL0     C33652  10.039   1.783   1.031 -0.1703 -0.4986 -0.2006
  969MOL0     H33653   9.609   1.753   1.202  1.5207 -0.5925  0.8699
  969MOL0     H33654   9.403   1.887   1.287  0.6917 -0.9836  0.1105
  969MOL0     H33655   9.322   2.004   1.469 -3.4670  1.5380  2.6268
  969MOL0     H33656   9.217   2.026   1.333 -0.8761  0.1652  0.0727
  969MOL0     H33657   9.144   2.159   1.537  0.4999  2.1462  0.9967
  969MOL0     H33658   9.300   2.233   1.546  0.4427 -0.0133 -0.5098
  969MOL0     H33659   9.257   2.366   1.352  0.2721 -0.8381  1.1662
  969MOL0     H33660   9.113   2.257   1.316 -3.0103 -2.1067  2.0956
  969MOL0     H33661   9.013   2.382   1.526 -4.1881  1.3316 -3.3983
  969MOL0     H33662   9.177   2.470   1.523 -0.0841  0.4159 -1.7496
  969MOL0     H33663   8.948   2.435   1.343 -1.2753  0.0940  5.7148
  969MOL0     H33664   9.108   2.511   1.274  0.1669  3.0132 -0.3289
  969MOL0     H33665   8.939   2.638   1.491  2.9766  2.4486  3.1032
  969MOL0     H33666   9.086   2.693   1.427 -0.8271  0.4816 -1.3970
  969MOL0     H33667   8.816   2.658   1.303  1.2640  0.1905  2.8297
  969MOL0     H33668   8.953   2.642   1.191  1.6269  1.8341  0.2571
  969MOL0     H33669   8.929   2.890   1.359 -0.7879 -1.8008  0.3420
  969MOL0     H33670   9.016   2.871   1.222  1.3766 -2.5411 -0.7037
  969MOL0     H33671   8.907   2.995   1.013 -1.3075  0.7082 -4.2075
  969MOL0     H33672   8.655   3.151   0.921 -0.1177 -0.9448 -1.2283
  969MOL0     H33673   8.532   3.024   0.885 -1.0399  1.9679 -1.6083
  969MOL0     H33674   8.682   3.064   0.681  2.5669  1.4010 -1.1035
  969MOL0     H33675   8.822   3.060   0.785  0.3677 -0.4634  2.5756
  969MOL0     H33676   8.812   2.869   0.673  0.0540 -0.0087 -0.3625
  969MOL0     H33677   8.779   2.822   0.832  1.1252  1.0368 -1.7064
  969MOL0     H33678   8.592   2.851   0.582 -2.9073 -0.7748  0.6789
  969MOL0     H33679   8.651   2.700   0.645  2.1982  0.4899  1.5165
  969MOL0     H33680   8.378   2.672   0.928  0.7354  1.7726 -0.7318
  969MOL0     H33681   8.147   2.389   0.933 -1.4278 -0.4311  2.3836
  969MOL0     H33682   8.051   2.541   0.938  0.3165  0.9336 -1.9377
  969MOL0     H33683   8.197   2.534   1.025 -2.0135  2.3948  0.8169
  969MOL0     H33684   7.859   2.218   0.660  1.5368 -3.4025  0.7149
  969MOL0     H33685   7.745   2.051   0.536  0.3187  0.0484 -0.2308
  969MOL0     H33686   7.912   1.916   0.159 -3.7670 -0.4095 -4.7263
  969MOL0     H33687   7.881   1.809   0.304  0.7570  1.0469 -0.2302
  969MOL0     H33688   7.694   1.832   0.058  0.7284  1.1184 -0.5717
  969MOL0     H33689   7.816   1.710   0.089 -0.9096 -0.3112  1.1430
  969MOL0     H33690   7.590   1.764   0.271  1.6340  2.4340 -1.8649
  969MOL0     H33691   7.711   1.649   0.317 -2.0296  0.2313  2.1977
  969MOL0     H33692   7.627   1.528   0.103 -1.6299 -0.5700 -2.1296
  969MOL0     H33693   7.507   1.658   0.081 -0.6195  0.2944  0.9340
  969MOL0     H33694   7.415   1.604   0.306  1.3143  0.6903 -0.9191
  969MOL0     H33695   7.381   1.486   0.188 -0.8236  1.8672 -2.7979
  969MOL0     H33696   7.622   1.452   0.376 -0.8340  0.5700  1.7380
  969MOL0     H33697   7.536   1.336   0.275  0.0427  1.2922 -2.6014
  969MOL0     H33698   7.353   1.326   0.422 -2.1064  0.7644  0.8793
  969MOL0     H33699   7.387   1.470   0.502  0.6321 -1.1309  2.3897
  969MOL0     H33700   7.593   1.368   0.613  0.1335 -1.0406  1.1187
  969MOL0     H33701   7.556   1.218   0.535  2.1534  0.3461 -0.5798
  969MOL0     H33702   7.951   2.127   0.184 -0.0963  0.4322  0.1022
  969MOL0     H33703   8.102   2.289   0.307  0.3185 -1.8586 -1.1134
  969MOL0     H33704   8.190   2.596   0.468 -0.9317  2.4951  0.6734
  969MOL0     H33705   8.390   2.757   0.521  2.0431 -1.0089  0.5870
  969MOL0     H33706   9.632   2.243   1.299 -1.1877  0.6797  0.6091
  969MOL0     H33707   9.834   2.111   1.233 -3.0347  1.5340 -2.5076
  969MOL0     H33708  10.024   1.628   1.476 -2.6076  0.6408 -0.4194
  969MOL0     H33709  10.208   1.469   1.444  1.5591  1.1954 -0.0836
  969MOL0     H33710  10.431   1.486   1.042  1.3319  1.6957 -0.5738
  969MOL0     H33711  10.495   1.566   1.189 -2.3259  1.1901 -2.2953
  969MOL0     H33712  10.499   1.274   1.150  0.9244  0.9758 -1.5255
  969MOL0     H33713  10.603   1.372   1.261  0.0156 -2.2986  0.9139
  969MOL0     H33714  10.637   1.323   0.954  2.6677 -2.7705  0.0587
  969MOL0     H33715  10.726   1.440   1.062  2.0279 -1.2594  0.3510
  969MOL0     H33716  10.842   1.223   1.007 -3.1346 -1.8723 -1.3649
  969MOL0     H33717  10.736   1.166   1.141 -1.3069  0.9100  0.3428
  969MOL0     H33718  11.010   1.410   1.358  1.2277  0.8158 -0.9242
  969MOL0     H33719  10.245   1.620   1.038 -1.8173  0.7423 -1.4580
  969MOL0     H33720  10.056   1.888   1.059  1.4234 -0.4618 -1.2005
  969MOL0     H33721  10.098   1.766   0.940  2.1799  1.2830  0.8815
  969MOL0     H33722   9.934   1.766   1.006  0.3823 -3.2015 -0.9961
  970MOL0     O33723   5.739   7.282   2.588  0.2103 -0.2503  0.0417
  970MOL0     C33724   5.653   7.325   2.666  0.3914 -0.5487  0.8202
  970MOL0     O33725   5.569   7.257   2.743  0.4100  0.0105  0.0407
  970MOL0     C33726   5.550   7.131   2.695 -0.0162  0.7900  0.2847
  970MOL0     C33727   5.642   7.022   2.703 -0.2275 -0.2468  0.0343
  970MOL0     C33728   5.600   6.896   2.659 -0.1800 -0.3313  0.1145
  970MOL0     C33729   5.470   6.878   2.611 -0.3567  1.0112  0.2659
  970MOL0     O33730   5.429   6.750   2.565 -0.2283  0.2635  0.5977
  970MOL0     C33731   5.346   6.745   2.447  0.4387 -0.0742 -0.9506
  970MOL0     C33732   5.194   6.708   2.500 -0.0741  0.2225  0.5808
  970MOL0     C33733   5.171   6.588   2.599 -0.6051  0.0709  0.4084
  970MOL0     C33734   5.234   6.462   2.536 -0.5576  0.0073 -0.2432
  970MOL0     C33735   5.208   6.335   2.623  1.2061  0.7073 -0.2310
  970MOL0     C33736   5.323   6.235   2.613  0.2922 -0.0904 -0.1557
  970MOL0     C33737   5.268   6.095   2.645 -0.8641 -0.1837  0.6793
  970MOL0     C33738   5.203   6.044   2.511 -0.2898 -0.1625  0.0599
  970MOL0     N33739   5.142   5.913   2.513  0.1554  0.0833 -0.7603
  970MOL0     C33740   5.092   5.838   2.410 -0.2407  2.2914 -0.7379
  970MOL0     C33741   5.072   5.708   2.471 -0.3685 -0.1976  0.3131
  970MOL0     C33742   5.008   5.571   2.412  0.4217  0.0455 -0.1065
  970MOL0     C33743   5.067   5.447   2.467 -0.5595  0.9166  0.1469
  970MOL0     C33744   5.116   5.350   2.347  0.4706 -0.6089  0.6761
  970MOL0     C33745   5.214   5.247   2.407  0.4761  0.3073 -0.1999
  970MOL0     O33746   5.146   5.153   2.488 -0.2723 -0.6787  0.1418
  970MOL0     C33747   5.109   5.033   2.433  0.7413 -0.2273 -0.1790
  970MOL0     C33748   5.109   4.996   2.300 -0.1086 -0.8073 -0.2234
  970MOL0     C33749   5.090   4.864   2.260  0.9615  0.1135 -0.7711
  970MOL0     C33750   5.080   4.834   2.108  0.5792  0.0827 -0.6560
  970MOL0     C33751   5.111   4.760   2.358  1.2280  0.3437 -0.2668
  970MOL0     C33752   5.131   4.608   2.328 -0.1132  0.2569 -0.6931
  970MOL0     O33753   5.164   4.523   2.434  1.1122 -0.1089  0.8546
  970MOL0     C33754   5.195   4.395   2.395  0.2176  0.2552 -0.6654
  970MOL0     C33755   5.107   4.286   2.382  0.6010  0.5563  0.9021
  970MOL0     C33756   5.147   4.156   2.347 -1.0329  0.2565  0.0771
  970MOL0     C33757   5.289   4.133   2.320 -0.5548  0.0852  0.8835
  970MOL0     O33758   5.312   4.004   2.298  0.8874  0.4163  0.8422
  970MOL0     C33759   5.446   3.967   2.262 -0.2541  0.6175  0.7792
  970MOL0     C33760   5.466   3.826   2.209 -0.8885  0.4665  0.4531
  970MOL0     C33761   5.616   3.794   2.185  0.5869 -0.1579 -0.5160
  970MOL0     C33762   5.673   3.825   2.043  1.2328 -0.5996 -0.3450
  970MOL0     C33763   5.760   3.714   1.996 -1.3226 -0.7675  0.4977
  970MOL0     C33764   5.692   3.572   1.975 -0.2179  0.4713 -0.4313
  970MOL0     C33765   5.786   3.475   1.892  0.4845 -0.9814  0.3186
  970MOL0     C33766   5.901   3.426   1.980  0.5876  0.3955 -0.5728
  970MOL0    Cl33767   5.951   3.260   1.938  0.0709  0.5093  0.2424
  970MOL0     C33768   5.377   4.243   2.330  0.6087  0.3271  1.0354
  970MOL0     C33769   5.330   4.367   2.376  1.0860 -0.2571  0.5215
  970MOL0     O33770   5.112   4.572   2.209  0.0995  0.0517 -0.0105
  970MOL0     C33771   5.120   4.796   2.493 -0.3760  0.4279  0.2303
  970MOL0     C33772   5.113   4.933   2.531 -0.7354 -0.3608 -0.0999
  970MOL0     N33773   5.098   5.723   2.606  0.1697  0.7764  0.4817
  970MOL0     N33774   5.145   5.836   2.626 -0.1966  0.3808 -0.2451
  970MOL0     C33775   5.384   6.985   2.608  0.2567 -0.9775 -0.4732
  970MOL0     C33776   5.422   7.115   2.650  0.7276  0.2553  0.2091
  970MOL0     C33777   5.642   7.475   2.676 -0.4639  0.4896  0.2111
  970MOL0     C33778   5.591   7.520   2.795  0.4064 -0.1603  0.0434
  970MOL0     C33779   5.584   7.654   2.826 -0.0369  0.0096 -0.1147
  970MOL0     C33780   5.645   7.748   2.748 -0.5804 -1.4714 -0.3779
  970MOL0     O33781   5.683   7.873   2.794 -0.1685  0.0796  0.1392
  970MOL0     C33782   5.626   7.919   2.919 -1.4990 -1.4855  0.4296
  970MOL0     C33783   5.661   8.069   2.946  0.8839  0.1857  0.2378
  970MOL0     C33784   5.558   8.159   2.884  0.2869  0.9491  0.3016
  970MOL0     C33785   5.567   8.300   2.930  0.9026 -0.3486  0.3078
  970MOL0     C33786   5.455   8.368   2.864  0.1372  0.0593  0.1857
  970MOL0     C33787   5.362   8.413   2.795  0.0533  0.6909 -0.1466
  970MOL0     C33788   5.692   7.703   2.624 -0.4923 -0.0280  1.1585
  970MOL0     C33789   5.687   7.566   2.583 -0.3155  0.6041 -0.1299
  970MOL0     C33790   5.713   7.527   2.439 -0.1270 -0.3901  0.1663
  970MOL0     H33791   5.742   7.041   2.741 -1.2897  3.4057  1.3966
  970MOL0     H33792   5.668   6.812   2.667  0.0604 -0.1314  0.1758
  970MOL0     H33793   5.393   6.673   2.380  0.5721 -0.1081 -0.8220
  970MOL0     H33794   5.333   6.841   2.397 -1.3095  1.6736  2.5319
  970MOL0     H33795   5.140   6.788   2.552 -0.7141 -1.0777  1.9961
  970MOL0     H33796   5.145   6.689   2.404 -2.0892 -4.3728  2.2529
  970MOL0     H33797   5.230   6.608   2.689  0.5778 -2.3231  0.2556
  970MOL0     H33798   5.063   6.577   2.614 -1.0880 -1.0366 -2.9714
  970MOL0     H33799   5.202   6.444   2.433  0.7244 -2.5191 -0.2926
  970MOL0     H33800   5.340   6.489   2.532 -0.1515 -1.1888  1.3004
  970MOL0     H33801   5.119   6.292   2.576  3.1482 -0.4065 -3.1522
  970MOL0     H33802   5.197   6.368   2.727 -2.7734  1.0783 -0.6277
  970MOL0     H33803   5.372   6.243   2.515 -2.2444  0.2397 -1.4780
  970MOL0     H33804   5.400   6.268   2.684 -1.0779  1.1953  0.7923
  970MOL0     H33805   5.205   6.099   2.735  2.2823  0.3517  3.0498
  970MOL0     H33806   5.347   6.023   2.670 -0.7020 -1.4041 -2.8585
  970MOL0     H33807   5.118   6.106   2.480  0.0471  1.5432  2.2726
  970MOL0     H33808   5.277   6.039   2.431  0.5633  1.3743  0.7185
  970MOL0     H33809   5.086   5.873   2.307  2.8318  0.1660 -1.7910
  970MOL0     H33810   5.018   5.579   2.304  0.1292 -2.4290 -0.3586
  970MOL0     H33811   4.902   5.574   2.439  1.1392  2.3733  3.1319
  970MOL0     H33812   5.160   5.470   2.520  0.3486  1.7040 -1.6731
  970MOL0     H33813   4.996   5.397   2.533  0.0213  0.2224  0.2579
  970MOL0     H33814   5.031   5.299   2.302  0.1896  0.0804  0.4069
  970MOL0     H33815   5.167   5.403   2.267 -2.1528 -1.9281 -2.0742
  970MOL0     H33816   5.262   5.198   2.321 -0.3886 -0.2958 -0.3426
  970MOL0     H33817   5.288   5.298   2.470  0.0942  1.1817 -0.4375
  970MOL0     H33818   5.094   5.071   2.223 -2.7705  1.2555  2.0814
  970MOL0     H33819   5.175   4.786   2.084  1.1780  0.6010  0.5838
  970MOL0     H33820   5.064   4.926   2.051  0.4344  0.9298  0.7184
  970MOL0     H33821   4.998   4.769   2.076  0.6238  0.4219 -1.4844
  970MOL0     H33822   5.002   4.295   2.407  1.3827  3.0022  3.7005
  970MOL0     H33823   5.081   4.071   2.342  0.0458 -0.6295  0.4577
  970MOL0     H33824   5.500   4.043   2.206 -1.1053  0.2413 -0.6119
  970MOL0     H33825   5.499   3.968   2.358 -1.1760  0.8663  1.2984
  970MOL0     H33826   5.426   3.744   2.271  0.2222 -0.7780 -0.4156
  970MOL0     H33827   5.413   3.822   2.113 -0.4414  1.1844  0.1711
  970MOL0     H33828   5.634   3.692   2.220  1.3228 -0.0160 -0.4632
  970MOL0     H33829   5.666   3.854   2.261  1.9587 -1.8123 -0.0482
  970MOL0     H33830   5.730   3.917   2.061  0.7108 -0.8040  3.1870
  970MOL0     H33831   5.593   3.845   1.971  1.3104  0.3382 -0.1886
  970MOL0     H33832   5.796   3.742   1.897 -4.4539  0.2849 -0.4812
  970MOL0     H33833   5.842   3.700   2.066 -1.1144 -0.5732  0.2938
  970MOL0     H33834   5.596   3.580   1.922  0.3484 -1.1906 -1.7913
  970MOL0     H33835   5.682   3.521   2.071  1.9415 -0.1970 -0.5164
  970MOL0     H33836   5.832   3.511   1.800  2.0992  0.6951  1.7015
  970MOL0     H33837   5.720   3.390   1.870 -1.2523  0.7328 -1.4924
  970MOL0     H33838   5.865   3.425   2.084 -0.2290 -0.6296 -0.8504
  970MOL0     H33839   5.992   3.485   1.970  1.1265 -0.5587 -1.3958
  970MOL0     H33840   5.485   4.229   2.327  0.5631  0.0314 -1.7504
  970MOL0     H33841   5.401   4.449   2.388  1.6062 -0.5530 -0.3918
  970MOL0     H33842   5.123   4.732   2.580  0.0631  3.4689  2.6393
  970MOL0     H33843   5.134   4.954   2.635  1.4974 -0.0741 -0.5409
  970MOL0     H33844   5.281   6.978   2.572 -0.4272  0.2328  1.1455
  970MOL0     H33845   5.345   7.191   2.648  3.3621  3.1442 -2.6852
  970MOL0     H33846   5.555   7.441   2.860 -0.5017 -0.3963 -0.7353
  970MOL0     H33847   5.534   7.685   2.917 -1.3894  1.8375 -1.4056
  970MOL0     H33848   5.521   7.892   2.936 -2.4526  1.4195 -0.2874
  970MOL0     H33849   5.686   7.863   2.991  2.1191 -0.4969 -1.5647
  970MOL0     H33850   5.755   8.094   2.895  1.0028 -2.7053 -1.1015
  970MOL0     H33851   5.665   8.084   3.054  0.5725 -0.0517  0.2825
  970MOL0     H33852   5.578   8.158   2.776  1.6783  2.7434  0.5015
  970MOL0     H33853   5.460   8.116   2.906  0.4438  0.2170 -0.3931
  970MOL0     H33854   5.661   8.343   2.894 -0.4977  0.0241 -3.3517
  970MOL0     H33855   5.566   8.307   3.039 -2.4313  0.9634  0.3267
  970MOL0     H33856   5.290   8.461   2.732  1.1159 -0.9565 -2.8326
  970MOL0     H33857   5.730   7.782   2.560 -1.7734 -1.0680 -0.9844
  970MOL0     H33858   5.793   7.452   2.438 -1.3141 -1.9857  4.6255
  970MOL0     H33859   5.622   7.484   2.396 -0.8318 -0.3794  1.5930
  970MOL0     H33860   5.745   7.623   2.397 -0.6839  0.9154  2.5723
  971MOL0     O33861   9.277   4.010  11.096  0.2877 -0.1652  0.5693
  971MOL0     C33862   9.362   4.070  11.164  1.1543  0.2931  0.4648
  971MOL0     O33863   9.333   4.196  11.219 -0.2661  0.2395 -1.1393
  971MOL0     C33864   9.199   4.228  11.228 -0.1191  0.1105 -0.5263
  971MOL0     C33865   9.122   4.235  11.113  0.9903  1.0301 -0.8636
  971MOL0     C33866   8.987   4.262  11.118  0.0831 -0.3769 -0.3907
  971MOL0     C33867   8.923   4.306  11.240  0.6279  0.3802 -0.3127
  971MOL0     O33868   8.794   4.353  11.250  0.3824 -0.0052  0.4348
  971MOL0     C33869   8.714   4.333  11.136  0.1306 -0.1247 -0.1644
  971MOL0     C33870   8.561   4.370  11.163 -0.1267 -0.1031 -0.1681
  971MOL0     C33871   8.539   4.529  11.185  0.4826  1.1883 -0.3139
  971MOL0     C33872   8.577   4.578  11.329 -0.7315  0.1662  0.0464
  971MOL0     C33873   8.557   4.725  11.344 -0.7123  0.2119 -0.4936
  971MOL0     C33874   8.578   4.777  11.487  0.0271 -0.4900 -0.3857
  971MOL0     C33875   8.583   4.930  11.504  0.2492  0.3049  0.4420
  971MOL0     C33876   8.644   4.981  11.637  0.5738  1.1501 -0.2848
  971MOL0     N33877   8.538   4.976  11.745 -0.2159  1.2711  0.3333
  971MOL0     C33878   8.484   4.866  11.800  0.5200  0.6331 -0.0714
  971MOL0     C33879   8.384   4.916  11.877 -0.2248 -0.6767  0.0967
  971MOL0     C33880   8.307   4.828  11.966 -0.0895  0.3453  0.0593
  971MOL0     C33881   8.161   4.813  11.927 -0.0419 -0.3942 -0.7141
  971MOL0     C33882   8.074   4.947  11.922 -0.9790  0.1334 -0.9126
  971MOL0     C33883   7.924   4.920  11.967  0.1622  1.2671 -0.2878
  971MOL0     O33884   7.915   4.884  12.104 -0.4284 -0.5892 -0.3500
  971MOL0     C33885   7.800   4.916  12.172  0.8577  0.4301  0.1504
  971MOL0     C33886   7.674   4.903  12.109  0.1377 -0.3693  0.2683
  971MOL0     C33887   7.559   4.912  12.187  1.5018  0.2705  0.7980
  971MOL0     C33888   7.429   4.913  12.111  0.0278 -0.0290  0.0646
  971MOL0     C33889   7.574   4.943  12.323  0.6398  0.6384  1.1298
  971MOL0     C33890   7.460   4.955  12.416 -0.3269 -0.5503  0.2610
  971MOL0     O33891   7.344   4.892  12.393  0.6988  0.6942  0.5085
  971MOL0     C33892   7.238   4.920  12.478  0.4645 -0.4986  0.8157
  971MOL0     C33893   7.207   5.037  12.539  0.1891  0.4765  0.4426
  971MOL0     C33894   7.088   5.039  12.608 -0.3805  0.1683 -0.7457
  971MOL0     C33895   6.999   4.930  12.614 -0.0230  0.2922  0.1882
  971MOL0     O33896   6.887   4.935  12.690 -0.0507 -0.3053  0.4427
  971MOL0     C33897   6.798   5.036  12.649  0.5054 -0.3441  1.4016
  971MOL0     C33898   6.649   5.009  12.684 -0.4443 -0.2824 -0.4725
  971MOL0     C33899   6.646   5.008  12.838 -0.5478  0.0475  0.6787
  971MOL0     C33900   6.561   4.896  12.908 -0.3828 -0.5421 -0.7892
  971MOL0     C33901   6.587   4.918  13.063  0.8807  0.2633  0.2618
  971MOL0     C33902   6.531   4.797  13.144  0.1304 -0.6279 -0.3156
  971MOL0     C33903   6.490   4.835  13.286  0.0035  0.1435 -0.6321
  971MOL0     C33904   6.440   4.712  13.367  0.4626 -0.5512 -0.0276
  971MOL0    Cl33905   6.275   4.677  13.287  0.1380  0.1833  0.1809
  971MOL0     C33906   7.035   4.810  12.555  0.1121 -0.3802  0.7187
  971MOL0     C33907   7.155   4.811  12.477  0.3695 -0.0974  0.2121
  971MOL0     O33908   7.477   5.042  12.500  0.8995  0.0871 -0.2621
  971MOL0     C33909   7.707   4.970  12.378  1.0865  0.5387 -0.4256
  971MOL0     C33910   7.815   4.956  12.301  0.2565 -0.3466  0.4437
  971MOL0     N33911   8.370   5.050  11.857  0.7068  0.1916 -0.7876
  971MOL0     N33912   8.456   5.083  11.772 -0.0291  0.8611  0.1388
  971MOL0     C33913   8.994   4.293  11.358  0.0633  0.0373  0.2053
  971MOL0     C33914   9.130   4.269  11.352  0.0901 -0.3262 -0.0284
  971MOL0     C33915   9.507   4.033  11.163  0.7657  0.2934  0.1549
  971MOL0     C33916   9.603   4.125  11.150  0.5758 -0.5962  1.1913
  971MOL0     C33917   9.737   4.090  11.152  0.5099  0.4121  0.6370
  971MOL0     C33918   9.780   3.959  11.178  0.0259 -0.1573  0.3864
  971MOL0     O33919   9.906   3.909  11.176 -0.3207  0.0665  0.1192
  971MOL0     C33920  10.010   3.991  11.097 -0.6559  0.3813 -0.9646
  971MOL0     C33921  10.126   3.907  11.053 -0.3275 -0.2389  0.2941
  971MOL0     C33922  10.068   3.782  10.981 -0.5305  1.0563 -1.2281
  971MOL0     C33923  10.180   3.699  10.914  0.6418 -0.1983 -0.2314
  971MOL0     C33924  10.237   3.764  10.796  0.2590  0.2833 -0.2719
  971MOL0     C33925  10.291   3.808  10.699 -0.3928 -0.9736  0.3565
  971MOL0     C33926   9.680   3.861  11.180 -0.2600  0.8357  0.2184
  971MOL0     C33927   9.543   3.890  11.182  0.1062 -0.7569  0.9376
  971MOL0     C33928   9.444   3.780  11.168 -0.1204  0.6910 -0.2814
  971MOL0     H33929   9.163   4.216  11.015 -2.7835  0.4919 -2.5051
  971MOL0     H33930   8.925   4.264  11.029  1.4333 -1.5634 -1.4071
  971MOL0     H33931   8.719   4.229  11.105 -1.1771 -0.1967 -0.2081
  971MOL0     H33932   8.746   4.400  11.056  2.1836 -0.5288  0.2741
  971MOL0     H33933   8.498   4.335  11.082 -1.2261 -1.9266  1.3835
  971MOL0     H33934   8.530   4.318  11.254 -4.1688  1.0813 -0.6617
  971MOL0     H33935   8.601   4.582  11.113  0.8759  2.6506  1.0285
  971MOL0     H33936   8.435   4.545  11.156  1.0762  0.8972 -2.8208
  971MOL0     H33937   8.513   4.520  11.395 -3.7496  0.1883 -2.6284
  971MOL0     H33938   8.685   4.561  11.340 -0.8170 -0.0222  0.6091
  971MOL0     H33939   8.457   4.754  11.308 -0.7455  0.5118 -0.1684
  971MOL0     H33940   8.609   4.786  11.269  0.7629 -0.7921 -0.3196
  971MOL0     H33941   8.492   4.741  11.543 -2.1001 -0.3178 -3.3096
  971MOL0     H33942   8.667   4.730  11.531  1.3222 -0.4828 -2.8094
  971MOL0     H33943   8.479   4.962  11.488  0.4765 -0.0397 -1.9981
  971MOL0     H33944   8.635   4.974  11.419  1.2775 -2.4244 -0.4400
  971MOL0     H33945   8.729   4.916  11.661  1.0086  0.6673 -2.8799
  971MOL0     H33946   8.684   5.081  11.620  2.9947  0.3984  0.4152
  971MOL0     H33947   8.498   4.759  11.791  0.4449  0.5979  0.2026
  971MOL0     H33948   8.323   4.854  12.071 -0.5998  1.9944 -0.2490
  971MOL0     H33949   8.350   4.727  11.963  0.7925  0.6415  1.5469
  971MOL0     H33950   8.166   4.770  11.826 -1.5999  0.1036 -1.0176
  971MOL0     H33951   8.113   4.743  11.996  0.0931  0.3276  0.1389
  971MOL0     H33952   8.122   5.020  11.987 -1.4371  1.8307 -2.4107
  971MOL0     H33953   8.085   4.985  11.820  1.1247 -0.0013 -0.7802
  971MOL0     H33954   7.873   5.014  11.944 -2.4792  0.3891  1.4671
  971MOL0     H33955   7.871   4.849  11.904  0.0131  0.5915  0.5836
  971MOL0     H33956   7.670   4.874  12.005 -0.9470  1.6015 -0.2864
  971MOL0     H33957   7.381   4.820  12.140  4.0988 -3.3113 -2.4503
  971MOL0     H33958   7.440   4.909  12.002  1.2204 -2.2889  0.2049
  971MOL0     H33959   7.366   4.996  12.144 -0.7480 -1.6934  3.1852
  971MOL0     H33960   7.262   5.131  12.534 -1.7936  1.8160  2.2310
  971MOL0     H33961   7.059   5.123  12.670 -1.3135 -1.1538  0.6761
  971MOL0     H33962   6.824   5.134  12.691  0.8703  1.4281 -2.4456
  971MOL0     H33963   6.797   5.055  12.541 -1.8390 -0.8921  1.2884
  971MOL0     H33964   6.581   5.086  12.645  1.9761  2.2514  0.0300
  971MOL0     H33965   6.619   4.909  12.651  0.6457 -1.5986  2.2623
  971MOL0     H33966   6.623   5.113  12.858  0.2121  0.1627  0.9523
  971MOL0     H33967   6.746   4.990  12.877  0.1878 -0.9016 -1.5372
  971MOL0     H33968   6.593   4.797  12.876  2.6385  0.6965 -2.0113
  971MOL0     H33969   6.456   4.918  12.885 -0.1012  1.2539 -0.4757
  971MOL0     H33970   6.691   4.915  13.093  0.5074  1.0583  1.7214
  971MOL0     H33971   6.544   5.015  13.092 -2.5969 -0.0639 -2.9123
  971MOL0     H33972   6.613   4.724  13.141  0.4101 -0.3090 -0.3886
  971MOL0     H33973   6.452   4.756  13.080  0.8166 -0.6365 -1.1728
  971MOL0     H33974   6.424   4.922  13.288  0.4494  0.5066 -1.2385
  971MOL0     H33975   6.583   4.872  13.331  0.4305  1.9118 -2.8038
  971MOL0     H33976   6.420   4.755  13.465 -1.5192  3.0373 -1.7961
  971MOL0     H33977   6.508   4.627  13.355  1.6164  0.1437  1.2790
  971MOL0     H33978   6.973   4.723  12.572  2.2812 -1.6508  2.7573
  971MOL0     H33979   7.172   4.723  12.416 -1.3777 -0.4547  0.1941
  971MOL0     H33980   7.728   4.999  12.481  0.6004  0.9921 -0.4469
  971MOL0     H33981   7.907   4.977  12.354 -0.4385  3.0067  0.5575
  971MOL0     H33982   8.947   4.326  11.451 -3.2079 -0.8184 -1.0160
  971MOL0     H33983   9.190   4.263  11.443 -2.1162 -0.9707  1.4694
  971MOL0     H33984   9.585   4.231  11.142 -0.3722 -0.7578  1.0193
  971MOL0     H33985   9.802   4.175  11.136 -2.4196  2.3057 -2.4574
  971MOL0     H33986   9.946   4.014  11.011 -3.2125  0.1807  0.7461
  971MOL0     H33987  10.038   4.082  11.150 -1.8697  1.8225 -2.7038
  971MOL0     H33988  10.189   3.874  11.136 -0.3520  0.3096  0.5287
  971MOL0     H33989  10.188   3.966  10.985 -1.2042  1.3101  0.8022
  971MOL0     H33990  10.007   3.714  11.043 -0.3867 -0.6248 -2.8297
  971MOL0     H33991   9.997   3.802  10.901 -0.4565 -2.6592 -2.4007
  971MOL0     H33992  10.143   3.598  10.897  2.0248 -0.9996  1.3194
  971MOL0     H33993  10.256   3.699  10.992  0.1056  0.3526  0.3107
  971MOL0     H33994  10.354   3.850  10.623 -1.3668 -1.6734 -0.8674
  971MOL0     H33995   9.702   3.754  11.184  0.1259  0.7659 -2.2527
  971MOL0     H33996   9.471   3.687  11.220  1.9275  1.4387  0.0487
  971MOL0     H33997   9.346   3.804  11.210 -1.3609 -1.2096 -1.8876
  971MOL0     H33998   9.427   3.762  11.061 -0.8684 -1.1025  0.0980
  972MOL0     O33999   2.928   9.766   2.816  0.1368  0.5553 -0.6431
  972MOL0     C34000   2.954   9.648   2.823 -0.9374 -0.8737 -0.6644
  972MOL0     O34001   2.925   9.563   2.930 -0.7326  0.7740 -0.4181
  972MOL0     C34002   2.854   9.598   3.044 -0.5028 -0.1932  0.6717
  972MOL0     C34003   2.747   9.510   3.078  0.1694 -0.3414 -0.8691
  972MOL0     C34004   2.676   9.530   3.196 -0.4500 -0.3915 -0.6062
  972MOL0     C34005   2.698   9.653   3.256  0.4336  0.2268 -0.4937
  972MOL0     O34006   2.615   9.681   3.360  0.0929  0.4494 -0.6842
  972MOL0     C34007   2.611   9.823   3.400  0.5075  0.8822 -0.2382
  972MOL0     C34008   2.500   9.856   3.488  1.2017  0.0410 -0.5123
  972MOL0     C34009   2.509   9.788   3.621  0.5202 -0.2373  0.0429
  972MOL0     C34010   2.450   9.644   3.613  0.6202  0.2925 -0.1982
  972MOL0     C34011   2.452   9.583   3.749  0.6916 -0.3641  0.0468
  972MOL0     C34012   2.347   9.628   3.847  0.4522  0.1203 -0.0377
  972MOL0     C34013   2.197   9.618   3.803 -0.1827 -0.1562  0.1390
  972MOL0     C34014   2.104   9.713   3.899 -0.3731  0.0799 -0.3821
  972MOL0     N34015   2.146   9.851   3.920  0.5874  0.1599 -0.1521
  972MOL0     C34016   2.129   9.948   3.832  0.3450  0.1370  0.2452
  972MOL0     C34017   2.157  10.061   3.902 -0.0643  0.1182  0.6924
  972MOL0     C34018   2.138  10.201   3.852  0.2701  0.8625  0.1605
  972MOL0     C34019   2.263  10.256   3.774  0.0450  0.0233  0.1389
  972MOL0     C34020   2.396  10.258   3.848 -0.2916 -0.1172  0.2698
  972MOL0     C34021   2.481  10.137   3.808 -0.2038 -0.0281 -0.0769
  972MOL0     O34022   2.522  10.162   3.669 -0.6202  0.5915  0.1881
  972MOL0     C34023   2.645  10.135   3.615 -1.4260 -0.4245  0.7021
  972MOL0     C34024   2.661  10.157   3.485 -0.2855 -0.1693  0.2726
  972MOL0     C34025   2.783  10.141   3.421 -0.8842 -0.2707  0.7284
  972MOL0     C34026   2.801  10.185   3.273 -0.0318 -0.1347 -1.0764
  972MOL0     C34027   2.887  10.065   3.488  0.4054  0.0683 -0.4494
  972MOL0     C34028   3.006  10.018   3.423 -0.3720 -0.6323  0.0266
  972MOL0     O34029   3.108   9.996   3.506  0.3972 -0.2418 -0.8692
  972MOL0     C34030   3.215   9.933   3.458 -0.2131  0.3924  0.7549
  972MOL0     C34031   3.215   9.802   3.402  0.5186  0.0998  0.3970
  972MOL0     C34032   3.334   9.746   3.357  0.8016  0.2596 -0.1630
  972MOL0     C34033   3.462   9.815   3.351  0.6196 -0.5184 -0.6560
  972MOL0     O34034   3.580   9.756   3.303  0.1802 -0.3925  0.2990
  972MOL0     C34035   3.569   9.610   3.303  0.1626 -0.3095  0.6122
  972MOL0     C34036   3.716   9.558   3.281  1.4470  0.0109  0.6492
  972MOL0     C34037   3.802   9.598   3.399 -0.4844  0.8405  0.7488
  972MOL0     C34038   3.939   9.533   3.398 -0.1762  0.2037 -0.8941
  972MOL0     C34039   4.036   9.580   3.510 -0.0667  0.7066 -0.7352
  972MOL0     C34040   4.070   9.729   3.508 -0.2851 -0.5786 -0.1633
  972MOL0     C34041   4.169   9.772   3.623 -0.6437  0.5406 -0.3941
  972MOL0     C34042   4.213   9.914   3.611 -0.6150  0.1242  0.7081
  972MOL0    Cl34043   4.332   9.957   3.744  0.0804  0.0200  0.0140
  972MOL0     C34044   3.460   9.941   3.404  0.3454 -1.4987  0.6012
  972MOL0     C34045   3.343   9.999   3.452  0.6867  0.5574  0.7162
  972MOL0     O34046   2.997   9.975   3.314  1.0387 -1.4628  0.0809
  972MOL0     C34047   2.874  10.045   3.627 -0.0557  0.8349  0.0338
  972MOL0     C34048   2.759  10.088   3.691 -0.0113 -0.1134 -0.3836
  972MOL0     N34049   2.212  10.020   4.022 -0.5711  0.4100 -0.0919
  972MOL0     N34050   2.190   9.891   4.040 -0.4403  0.2503 -0.8463
  972MOL0     C34051   2.800   9.736   3.224  0.2606 -0.6063  0.9074
  972MOL0     C34052   2.883   9.709   3.116  0.5445 -0.9676 -0.5289
  972MOL0     C34053   3.018   9.591   2.704  0.2000 -0.1619 -0.5924
  972MOL0     C34054   2.990   9.454   2.680 -0.5509 -0.0228 -0.3975
  972MOL0     C34055   3.011   9.388   2.563 -0.3493  1.0498 -0.2146
  972MOL0     C34056   3.099   9.448   2.471 -0.5668  0.2468 -0.2909
  972MOL0     O34057   3.152   9.388   2.350 -0.2417 -0.1587 -0.4402
  972MOL0     C34058   3.135   9.244   2.330  0.9273 -0.2480 -0.4948
  972MOL0     C34059   3.201   9.177   2.208  0.2453 -0.6760 -1.1544
  972MOL0     C34060   3.136   9.045   2.166  0.1392 -0.0753  0.1687
  972MOL0     C34061   3.222   8.971   2.065  0.5131 -0.1056  0.3878
  972MOL0     C34062   3.168   8.837   2.044 -0.0824 -0.8978 -0.6689
  972MOL0     C34063   3.146   8.720   2.029  1.3469 -0.4201  0.0533
  972MOL0     C34064   3.139   9.577   2.486 -0.5885 -0.1166 -0.1437
  972MOL0     C34065   3.093   9.654   2.601 -0.1993  0.1462  0.5355
  972MOL0     C34066   3.119   9.799   2.612 -0.5984 -0.3467  0.4787
  972MOL0     H34067   2.736   9.420   3.018  2.3740 -1.3345  0.1469
  972MOL0     H34068   2.587   9.474   3.224 -1.8898  2.5004  1.1276
  972MOL0     H34069   2.625   9.889   3.314  2.2342  1.9782  0.8022
  972MOL0     H34070   2.696   9.849   3.464 -1.7264  1.5723  2.6562
  972MOL0     H34071   2.485   9.964   3.500  1.5855  0.3150 -2.2666
  972MOL0     H34072   2.407   9.826   3.438 -1.0159 -1.5891  4.0055
  972MOL0     H34073   2.597   9.788   3.685 -1.3884  1.4910  2.9163
  972MOL0     H34074   2.439   9.849   3.680  0.2150 -0.7405  0.2098
  972MOL0     H34075   2.353   9.641   3.562  1.2378  0.0563 -1.4081
  972MOL0     H34076   2.526   9.585   3.560  0.5595 -0.0124  0.0511
  972MOL0     H34077   2.549   9.596   3.799  0.4743 -0.5062  0.5085
  972MOL0     H34078   2.453   9.474   3.734  3.4032 -0.1614 -2.1893
  972MOL0     H34079   2.365   9.568   3.937 -2.5724  0.6759  1.0590
  972MOL0     H34080   2.363   9.735   3.867 -2.2938  1.1081 -2.3869
  972MOL0     H34081   2.163   9.515   3.816 -1.6185  0.5691  2.9398
  972MOL0     H34082   2.182   9.648   3.699 -0.3793 -0.0231  0.2041
  972MOL0     H34083   2.000   9.707   3.866 -0.8604  1.2142  0.8754
  972MOL0     H34084   2.105   9.664   3.996  1.7253 -1.6341 -1.1682
  972MOL0     H34085   2.094   9.945   3.729  1.7605  0.4915 -0.2578
  972MOL0     H34086   2.129  10.255   3.947 -1.2790  0.6191  0.1859
  972MOL0     H34087   2.048  10.206   3.789 -0.0621 -3.2160  0.0571
  972MOL0     H34088   2.285  10.193   3.687 -1.6012 -0.8762  0.3139
  972MOL0     H34089   2.234  10.355   3.738  3.6594  0.2596 -2.7085
  972MOL0     H34090   2.442  10.356   3.831 -0.3728 -0.3985 -1.7173
  972MOL0     H34091   2.380  10.246   3.956  2.0030 -2.2697  0.4590
  972MOL0     H34092   2.566  10.124   3.875 -0.7759  2.8841  1.3972
  972MOL0     H34093   2.426  10.043   3.815  0.3751 -0.3293  0.5325
  972MOL0     H34094   2.583  10.212   3.433 -0.1713 -1.0466 -0.8683
  972MOL0     H34095   2.888  10.251   3.271 -1.0701  1.3703  0.7349
  972MOL0     H34096   2.717  10.244   3.236 -1.5633 -0.7136  1.2666
  972MOL0     H34097   2.816  10.106   3.198  0.8447  1.4019 -2.6007
  972MOL0     H34098   3.125   9.745   3.384  0.4213  0.1740  0.6382
  972MOL0     H34099   3.320   9.647   3.315  1.0390  0.0753  0.1817
  972MOL0     H34100   3.518   9.567   3.390 -1.2881  1.2650  0.5889
  972MOL0     H34101   3.510   9.568   3.222 -0.9775 -0.4428  1.4849
  972MOL0     H34102   3.703   9.450   3.269 -0.1759  0.1527  0.9407
  972MOL0     H34103   3.745   9.596   3.183  0.9866 -2.3201 -0.4753
  972MOL0     H34104   3.750   9.575   3.493  1.3783 -0.5886  1.4876
  972MOL0     H34105   3.814   9.707   3.391 -1.6233  0.9484  0.2132
  972MOL0     H34106   3.981   9.545   3.298 -1.2166 -1.0477 -1.5100
  972MOL0     H34107   3.946   9.426   3.421  2.7111  1.0239  3.3456
  972MOL0     H34108   3.981   9.564   3.603 -0.1946  2.6572 -0.4355
  972MOL0     H34109   4.127   9.520   3.506 -0.2940  0.1251  1.5608
  972MOL0     H34110   3.981   9.785   3.538  0.0090  0.4945 -1.2301
  972MOL0     H34111   4.115   9.759   3.413  1.0540 -2.1745 -0.0806
  972MOL0     H34112   4.261   9.713   3.628 -0.8610  0.2214 -0.0076
  972MOL0     H34113   4.126   9.750   3.722 -1.7234 -0.9782 -1.1619
  972MOL0     H34114   4.132   9.985   3.592 -1.0406  0.3438  3.0303
  972MOL0     H34115   4.266   9.917   3.515 -3.2311  2.0912 -0.8053
  972MOL0     H34116   3.553   9.997   3.410  0.2195 -1.2822  0.5427
  972MOL0     H34117   3.340  10.097   3.498  0.2295  1.4176 -1.0629
  972MOL0     H34118   2.931   9.980   3.693 -2.6963 -0.8067  0.8480
  972MOL0     H34119   2.744  10.064   3.795  1.6664 -2.0714 -0.5228
  972MOL0     H34120   2.826   9.830   3.272 -1.2382  0.6570 -0.6226
  972MOL0     H34121   2.961   9.783   3.100 -1.8787  2.1433  0.8363
  972MOL0     H34122   2.933   9.404   2.758 -1.9866  3.5742  1.1002
  972MOL0     H34123   2.967   9.292   2.539 -0.0660  0.2096  2.3310
  972MOL0     H34124   3.176   9.200   2.422  1.3551  1.6500  0.2786
  972MOL0     H34125   3.028   9.228   2.313  0.4748  0.9910  0.9069
  972MOL0     H34126   3.304   9.157   2.238  0.8691  1.4264 -1.7563
  972MOL0     H34127   3.209   9.244   2.122  2.4077 -2.5617 -2.5541
  972MOL0     H34128   3.129   8.981   2.255  0.5618 -2.8992 -1.6708
  972MOL0     H34129   3.035   9.065   2.128 -0.9231 -3.1342  1.0646
  972MOL0     H34130   3.328   8.974   2.094  0.2347  1.1777  1.3370
  972MOL0     H34131   3.221   9.020   1.967  1.9314 -1.8734 -0.5939
  972MOL0     H34132   3.136   8.613   2.029  1.9743 -0.4890  0.8495
  972MOL0     H34133   3.193   9.623   2.404  3.1058 -4.7124 -0.6991
  972MOL0     H34134   3.145   9.828   2.509  1.7437  0.9178  1.3517
  972MOL0     H34135   3.040   9.863   2.652  0.0601  2.8569 -2.7626
  972MOL0     H34136   3.209   9.817   2.671 -0.6687  1.1805  0.1747
  973MOL0     O34137   8.965   7.525   3.095  0.1428 -0.6300  0.4678
  973MOL0     C34138   8.917   7.510   2.983 -1.1122  1.0983  0.7606
  973MOL0     O34139   8.991   7.462   2.870  0.7260 -0.4981  0.4897
  973MOL0     C34140   9.131   7.469   2.875  0.4623  0.8752  0.1764
  973MOL0     C34141   9.221   7.431   2.972 -0.3018  0.3702 -0.0509
  973MOL0     C34142   9.356   7.464   2.954 -0.4689  0.5728  0.3369
  973MOL0     C34143   9.407   7.502   2.833 -1.3892 -0.1027  0.8810
  973MOL0     O34144   9.542   7.522   2.802  0.5195  0.0654 -0.6254
  973MOL0     C34145   9.629   7.557   2.907 -0.2809 -0.5692 -0.5541
  973MOL0     C34146   9.734   7.651   2.851 -0.3535 -0.7524  0.0298
  973MOL0     C34147   9.782   7.757   2.954  0.4099  0.2396  0.0226
  973MOL0     C34148   9.902   7.850   2.917  0.9940 -1.4639  0.3646
  973MOL0     C34149   9.934   7.942   3.036  0.8103 -0.2078 -0.7409
  973MOL0     C34150  10.048   8.037   3.007  0.2058  0.7864 -0.3475
  973MOL0     C34151  10.189   7.975   3.012  0.6468 -1.0086  0.6833
  973MOL0     C34152  10.296   8.089   3.006 -0.1674  0.5858 -0.9914
  973MOL0     N34153  10.286   8.191   2.909 -0.7725  0.0434 -0.1020
  973MOL0     C34154  10.207   8.295   2.927 -0.1167 -1.1232  0.5186
  973MOL0     C34155  10.225   8.371   2.817  0.4554  0.4996  0.3557
  973MOL0     C34156  10.151   8.495   2.784 -0.0012  0.7710  0.2463
  973MOL0     C34157  10.110   8.484   2.631 -0.1831 -0.2859  0.4539
  973MOL0     C34158  10.023   8.360   2.602 -0.4680 -0.6166  0.7836
  973MOL0     C34159   9.927   8.390   2.485 -0.5094 -0.5979 -0.0488
  973MOL0     O34160   9.839   8.277   2.482  0.5683  1.1193  0.7011
  973MOL0     C34161   9.776   8.274   2.365 -0.0598 -0.2936  0.1347
  973MOL0     C34162   9.746   8.380   2.277  0.1397 -0.9376 -0.0681
  973MOL0     C34163   9.680   8.371   2.154  0.0287 -0.0532  0.5049
  973MOL0     C34164   9.665   8.489   2.064 -0.6623 -0.2275 -0.3904
  973MOL0     C34165   9.617   8.248   2.118 -0.5842 -0.1391  0.7842
  973MOL0     C34166   9.531   8.219   1.999  0.1856  0.2334 -0.6262
  973MOL0     O34167   9.465   8.101   2.000 -0.3164 -0.0334 -0.3896
  973MOL0     C34168   9.407   8.058   1.886 -0.3906 -0.2185  0.2259
  973MOL0     C34169   9.277   8.086   1.849 -0.1621 -0.6937  1.1837
  973MOL0     C34170   9.232   8.043   1.714 -0.1630 -1.0961 -1.1065
  973MOL0     C34171   9.309   7.962   1.632 -0.2499  0.7939 -1.4857
  973MOL0     O34172   9.261   7.908   1.522  0.7355  0.4615 -0.1540
  973MOL0     C34173   9.343   7.931   1.408  0.5550  0.3810 -0.1049
  973MOL0     C34174   9.251   7.928   1.278 -0.6370 -1.0929  0.1464
  973MOL0     C34175   9.340   7.934   1.158 -0.0870  0.9487 -0.1927
  973MOL0     C34176   9.417   8.061   1.131 -0.0632  0.2777  0.0765
  973MOL0     C34177   9.521   8.026   1.026  0.0974 -0.5649  0.5150
  973MOL0     C34178   9.583   8.155   0.974 -0.1960 -0.7971 -0.3101
  973MOL0     C34179   9.723   8.141   0.913  0.7695  0.0719 -0.0711
  973MOL0     C34180   9.736   8.040   0.795 -0.0339 -0.7547  0.3162
  973MOL0    Cl34181   9.908   7.990   0.807  0.1955  0.0335 -0.3857
  973MOL0     C34182   9.431   7.923   1.676 -0.1427 -0.3029  0.1219
  973MOL0     C34183   9.481   7.988   1.788  0.4316  0.1253 -0.5858
  973MOL0     O34184   9.533   8.295   1.899  1.0909  0.1899  0.3462
  973MOL0     C34185   9.647   8.138   2.208  0.0478  0.5974  0.3595
  973MOL0     C34186   9.727   8.152   2.319  0.4272  0.3305 -0.3632
  973MOL0     N34187  10.323   8.318   2.740 -0.4229 -0.2182 -0.1616
  973MOL0     N34188  10.356   8.206   2.795  0.1667  0.1303 -0.2850
  973MOL0     C34189   9.313   7.525   2.733 -0.3231 -1.3633  0.9748
  973MOL0     C34190   9.180   7.519   2.752  0.6228 -0.9988 -0.3565
  973MOL0     C34191   8.778   7.536   2.951 -0.0450 -0.7886 -0.1351
  973MOL0     C34192   8.730   7.516   2.816  0.5303 -0.7785 -0.2940
  973MOL0     C34193   8.599   7.548   2.786  0.2529 -0.8835  0.2650
  973MOL0     C34194   8.509   7.599   2.875  0.1678  0.3615  0.4579
  973MOL0     O34195   8.384   7.635   2.841  0.4618  0.2386 -0.4982
  973MOL0     C34196   8.329   7.641   2.706  0.2040 -0.6422  0.7837
  973MOL0     C34197   8.304   7.500   2.649  0.2990  0.6327 -0.3702
  973MOL0     C34198   8.173   7.444   2.699  0.0799 -0.0695  0.9880
  973MOL0     C34199   8.155   7.291   2.684 -0.5799 -0.1462 -0.0557
  973MOL0     C34200   8.159   7.255   2.547  1.2783 -0.8374  0.5084
  973MOL0     C34201   8.178   7.244   2.431 -0.4731  0.3949 -0.0038
  973MOL0     C34202   8.548   7.602   3.011 -0.2387 -0.2839  0.1630
  973MOL0     C34203   8.678   7.573   3.046  0.2214  1.1157 -0.1389
  973MOL0     C34204   8.696   7.580   3.193 -0.1928 -0.1134 -0.5888
  973MOL0     H34205   9.175   7.390   3.061 -2.4886  1.2057 -0.7372
  973MOL0     H34206   9.426   7.444   3.035 -1.1057 -1.6882  0.4029
  973MOL0     H34207   9.687   7.471   2.942 -0.0447 -1.4669 -2.9703
  973MOL0     H34208   9.590   7.613   2.992 -2.3378 -0.7429 -1.3368
  973MOL0     H34209   9.820   7.595   2.812  1.3291  0.3564  1.9955
  973MOL0     H34210   9.689   7.702   2.765 -0.8016 -3.4561 -1.4434
  973MOL0     H34211   9.696   7.820   2.978 -2.3146 -2.1787 -2.6019
  973MOL0     H34212   9.826   7.715   3.045  1.6170  0.1667 -0.5773
  973MOL0     H34213   9.993   7.799   2.886  2.2944  1.1615 -0.4403
  973MOL0     H34214   9.861   7.902   2.830  0.3682  0.6807  1.8337
  973MOL0     H34215   9.970   7.881   3.119 -2.0566  0.3573  1.0819
  973MOL0     H34216   9.844   7.985   3.083  1.6634  0.3051  0.4826
  973MOL0     H34217  10.027   8.077   2.908 -2.7184 -2.3815 -1.2318
  973MOL0     H34218  10.054   8.116   3.083 -0.2508 -2.0995  2.9358
  973MOL0     H34219  10.213   7.906   2.930 -0.9714 -2.7594  1.5937
  973MOL0     H34220  10.205   7.918   3.103  3.2286  1.6571  2.0739
  973MOL0     H34221  10.289   8.135   3.105  3.5041 -1.2470  0.3147
  973MOL0     H34222  10.399   8.052   3.005 -0.2741  0.1706  0.8468
  973MOL0     H34223  10.134   8.301   3.008  0.2266 -3.7850  1.1119
  973MOL0     H34224  10.213   8.582   2.810 -1.3938  1.9327 -0.2082
  973MOL0     H34225  10.068   8.514   2.854 -0.6726 -0.0110 -0.3197
  973MOL0     H34226  10.076   8.580   2.590  1.9403 -0.5219 -2.1551
  973MOL0     H34227  10.201   8.470   2.571 -0.3739 -2.9454  0.6961
  973MOL0     H34228  10.076   8.270   2.573  1.1082  0.3691  0.4668
  973MOL0     H34229   9.963   8.329   2.688 -0.1137 -2.8378  0.2682
  973MOL0     H34230   9.867   8.482   2.496  3.7621  3.1317 -3.7474
  973MOL0     H34231   9.995   8.415   2.403 -0.3261  2.1236  0.8268
  973MOL0     H34232   9.763   8.483   2.309 -1.8949 -0.5428 -0.1022
  973MOL0     H34233   9.707   8.452   1.970  4.3809 -0.3556  1.6068
  973MOL0     H34234   9.716   8.581   2.096 -0.0047  0.5474 -3.3699
  973MOL0     H34235   9.562   8.518   2.043  0.4452  3.1309 -2.0304
  973MOL0     H34236   9.211   8.137   1.918 -0.5878  2.7357 -1.4777
  973MOL0     H34237   9.133   8.068   1.679 -1.0830 -2.3315  0.4265
  973MOL0     H34238   9.406   8.020   1.416 -0.0607  0.6807  3.3835
  973MOL0     H34239   9.412   7.846   1.400  1.3362  1.1571 -2.0864
  973MOL0     H34240   9.202   7.830   1.273 -0.1174 -1.3508  0.1055
  973MOL0     H34241   9.168   7.999   1.275  1.3356  1.4737  1.9340
  973MOL0     H34242   9.282   7.892   1.075  1.3760 -2.6526  0.4103
  973MOL0     H34243   9.414   7.857   1.180  1.9365  3.1190  1.1415
  973MOL0     H34244   9.468   8.093   1.222  1.6982 -2.8019  0.2966
  973MOL0     H34245   9.350   8.138   1.092 -2.6208 -3.0188 -2.6849
  973MOL0     H34246   9.602   7.970   1.073 -0.3923  0.8111  3.1561
  973MOL0     H34247   9.473   7.968   0.947 -0.6587  2.1686 -1.1959
  973MOL0     H34248   9.599   8.223   1.058  1.0114 -0.0805 -1.0750
  973MOL0     H34249   9.521   8.205   0.898 -0.9574 -1.6698 -0.2769
  973MOL0     H34250   9.795   8.121   0.993  2.2274  0.8192 -1.1377
  973MOL0     H34251   9.762   8.238   0.879 -0.4335  1.6974  2.7863
  973MOL0     H34252   9.709   8.111   0.716 -0.9465  1.0175  2.1150
  973MOL0     H34253   9.674   7.950   0.802 -0.7294 -0.4669 -1.4943
  973MOL0     H34254   9.490   7.851   1.621 -3.3931 -0.8615 -3.0314
  973MOL0     H34255   9.578   7.957   1.823  1.8796 -0.7925 -4.7780
  973MOL0     H34256   9.614   8.035   2.192  1.3546  0.3649 -1.1176
  973MOL0     H34257   9.760   8.064   2.373  0.4373  0.2156 -0.5575
  973MOL0     H34258   9.356   7.557   2.639 -2.0043 -0.9444  0.3125
  973MOL0     H34259   9.119   7.543   2.666 -0.5344  0.6649  0.8685
  973MOL0     H34260   8.796   7.471   2.743 -0.3685  0.8731 -2.2074
  973MOL0     H34261   8.575   7.548   2.680 -0.6072  0.3260  0.4393
  973MOL0     H34262   8.234   7.696   2.706 -1.9076 -3.8756 -2.0223
  973MOL0     H34263   8.392   7.690   2.631 -1.7187  1.0445  0.1656
  973MOL0     H34264   8.385   7.435   2.684 -3.2603 -2.6236  2.7640
  973MOL0     H34265   8.300   7.504   2.539 -2.8716  0.6298 -0.3492
  973MOL0     H34266   8.149   7.468   2.804  0.3200 -2.5506  1.6774
  973MOL0     H34267   8.095   7.487   2.635  0.4822  2.6664  2.2004
  973MOL0     H34268   8.061   7.253   2.725 -1.0095  1.4620  0.4990
  973MOL0     H34269   8.235   7.240   2.740  0.7752  3.7877  1.9620
  973MOL0     H34270   8.200   7.232   2.327 -0.7949 -3.4867  0.2085
  973MOL0     H34271   8.467   7.608   3.082 -1.2570  3.6555 -1.0806
  973MOL0     H34272   8.609   7.603   3.255  1.0866  0.7042  0.9739
  973MOL0     H34273   8.723   7.477   3.217  2.1780  1.2808  3.8229
  973MOL0     H34274   8.771   7.654   3.222 -1.9177  0.5978  2.4251
  974MOL0     O34275   6.804   2.073   4.533  0.6524 -0.0029  0.1574
  974MOL0     C34276   6.766   2.061   4.652 -0.8512  0.5458  0.4412
  974MOL0     O34277   6.810   2.131   4.764 -0.1562 -0.0011 -0.4616
  974MOL0     C34278   6.900   2.227   4.734  0.9255 -0.7560 -0.1042
  974MOL0     C34279   6.881   2.333   4.639 -0.1419  0.1163 -0.2745
  974MOL0     C34280   6.968   2.446   4.633  0.3400  0.3126 -0.7017
  974MOL0     C34281   7.070   2.466   4.730 -1.2093  0.7309  0.6499
  974MOL0     O34282   7.165   2.571   4.734  0.0421 -0.4553  1.1614
  974MOL0     C34283   7.151   2.670   4.619  0.1672  0.1913 -0.6016
  974MOL0     C34284   7.255   2.780   4.642  1.3611  1.2393  0.0962
  974MOL0     C34285   7.272   2.873   4.520 -0.7220  0.4346 -0.5191
  974MOL0     C34286   7.372   2.800   4.418  0.1776  0.4742 -0.1422
  974MOL0     C34287   7.518   2.788   4.479  0.1995 -0.2057 -0.8038
  974MOL0     C34288   7.625   2.829   4.379 -1.0331 -0.8234  0.3158
  974MOL0     C34289   7.650   2.987   4.377 -0.0387 -0.5423 -0.5546
  974MOL0     C34290   7.697   3.048   4.507  0.9615 -1.0862 -0.5687
  974MOL0     N34291   7.716   3.194   4.494  0.0871 -0.5119 -0.5256
  974MOL0     C34292   7.827   3.274   4.465  0.1444 -0.6599  0.1228
  974MOL0     C34293   7.784   3.397   4.453  0.2444 -0.3897 -0.2663
  974MOL0     C34294   7.874   3.507   4.411  0.4963 -0.4027 -0.8111
  974MOL0     C34295   7.852   3.560   4.271 -0.2227  0.3162  0.2208
  974MOL0     C34296   7.853   3.438   4.166 -0.4340 -0.1752  1.3824
  974MOL0     C34297   7.927   3.464   4.025 -0.7807 -0.1443  0.9299
  974MOL0     O34298   7.907   3.595   3.975 -0.5338  0.7785  0.6822
  974MOL0     C34299   7.804   3.620   3.882  0.2260 -0.3303  0.5295
  974MOL0     C34300   7.692   3.532   3.863  0.3483 -0.7676  0.6273
  974MOL0     C34301   7.587   3.563   3.764 -1.2971 -0.0488 -0.0713
  974MOL0     C34302   7.472   3.473   3.765 -0.2193  0.1625  0.1012
  974MOL0     C34303   7.601   3.685   3.691 -0.2444  0.3456  0.0343
  974MOL0     C34304   7.497   3.739   3.606  1.0912 -0.6846 -0.5933
  974MOL0     O34305   7.524   3.872   3.558  0.3222 -0.0249  0.2413
  974MOL0     C34306   7.428   3.944   3.484 -0.4659 -0.1015  0.8208
  974MOL0     C34307   7.335   4.030   3.555  0.0926 -0.0779  0.1744
  974MOL0     C34308   7.231   4.089   3.488  0.1803 -0.4278 -0.3506
  974MOL0     C34309   7.212   4.058   3.352  0.3418  1.2120 -0.3046
  974MOL0     O34310   7.116   4.121   3.290  0.0632 -0.8573  0.3804
  974MOL0     C34311   6.979   4.098   3.329 -0.6682 -0.1512  0.3727
  974MOL0     C34312   6.884   4.160   3.223  0.0422 -0.5435 -0.6133
  974MOL0     C34313   6.856   4.308   3.217  0.7312 -0.6368  0.9642
  974MOL0     C34314   6.978   4.378   3.187  0.2068 -0.6407  0.1692
  974MOL0     C34315   6.951   4.527   3.131 -1.0820  0.8645  0.4449
  974MOL0     C34316   6.915   4.626   3.239  0.0395  0.2448 -0.0200
  974MOL0     C34317   6.912   4.771   3.187 -0.6230  0.1014 -0.7602
  974MOL0     C34318   6.891   4.866   3.305  1.0440 -0.1120 -0.1693
  974MOL0    Cl34319   7.041   4.874   3.414 -0.1465  0.1386 -0.0273
  974MOL0     C34320   7.305   3.972   3.279 -0.0131  0.5050 -0.0927
  974MOL0     C34321   7.411   3.914   3.346 -0.9403  0.0282  0.0340
  974MOL0     O34322   7.384   3.696   3.603  0.4803  0.5951 -0.7524
  974MOL0     C34323   7.710   3.759   3.708 -0.6510 -0.3738  0.1601
  974MOL0     C34324   7.810   3.731   3.797  0.0741  0.5802  0.2879
  974MOL0     N34325   7.644   3.393   4.475 -1.0466  0.1780  0.6869
  974MOL0     N34326   7.610   3.268   4.499  0.1905 -0.3031 -0.9004
  974MOL0     C34327   7.093   2.365   4.816  0.1019  0.4571 -0.0026
  974MOL0     C34328   7.010   2.256   4.814 -0.6061  0.0363  0.5281
  974MOL0     C34329   6.646   1.982   4.686  0.4288 -0.1083  0.0077
  974MOL0     C34330   6.520   2.017   4.633 -0.4897  0.0926  0.2205
  974MOL0     C34331   6.408   1.940   4.648  0.0940  0.0907  0.0085
  974MOL0     C34332   6.409   1.831   4.732 -0.1129  0.4279 -0.8120
  974MOL0     O34333   6.305   1.745   4.757  0.2264  0.0863 -0.6018
  974MOL0     C34334   6.177   1.773   4.698 -0.2042 -0.2684 -0.9624
  974MOL0     C34335   6.072   1.674   4.722  1.2962  0.0645 -0.5641
  974MOL0     C34336   5.946   1.692   4.626 -0.3589 -0.1103  0.2978
  974MOL0     C34337   5.842   1.589   4.652 -0.2216  0.0423  0.4176
  974MOL0     C34338   5.719   1.603   4.567  1.3608 -0.3099 -0.8594
  974MOL0     C34339   5.621   1.619   4.490 -0.4466  0.3412 -0.2193
  974MOL0     C34340   6.523   1.812   4.813  0.1715 -0.6369 -0.0714
  974MOL0     C34341   6.639   1.880   4.786 -0.4733 -1.2567 -0.2836
  974MOL0     C34342   6.763   1.843   4.850  0.3281  0.0629 -0.3415
  974MOL0     H34343   6.794   2.337   4.574 -1.7369  2.3312  1.7859
  974MOL0     H34344   6.951   2.510   4.546  0.6701 -0.9395 -1.7210
  974MOL0     H34345   7.056   2.723   4.627  1.8236  3.1881  1.4354
  974MOL0     H34346   7.162   2.624   4.521 -0.7801 -1.9120  0.2214
  974MOL0     H34347   7.234   2.833   4.734 -1.4074 -0.2374  0.4296
  974MOL0     H34348   7.345   2.720   4.662  0.5213  0.0748  0.4842
  974MOL0     H34349   7.175   2.895   4.475 -0.7133 -2.4321 -2.1331
  974MOL0     H34350   7.324   2.963   4.554 -3.0706  2.5888 -2.2005
  974MOL0     H34351   7.324   2.705   4.389 -1.8709  1.6785 -0.9209
  974MOL0     H34352   7.373   2.860   4.327  0.2228 -0.8623 -1.0569
  974MOL0     H34353   7.536   2.681   4.493 -1.3646 -0.3824  0.1539
  974MOL0     H34354   7.528   2.848   4.570  0.3623 -1.6774  0.1975
  974MOL0     H34355   7.708   2.764   4.406 -3.6703 -3.9714  1.4351
  974MOL0     H34356   7.585   2.799   4.281 -3.9007  2.0242  0.4365
  974MOL0     H34357   7.556   3.037   4.350  0.0771 -0.7199 -1.3132
  974MOL0     H34358   7.725   3.003   4.299 -0.8816  0.2586 -1.2266
  974MOL0     H34359   7.624   3.018   4.583 -1.3587 -1.6850 -2.9015
  974MOL0     H34360   7.798   3.016   4.537  1.6799  1.8550  0.4509
  974MOL0     H34361   7.930   3.254   4.437  1.1832  1.2989  2.1785
  974MOL0     H34362   7.975   3.466   4.416 -0.4102 -2.5734  1.3240
  974MOL0     H34363   7.852   3.594   4.474 -0.6702  0.2186 -2.0254
  974MOL0     H34364   7.762   3.622   4.269 -0.3652  0.1751 -2.7117
  974MOL0     H34365   7.934   3.630   4.249  2.8833 -2.4721  2.0100
  974MOL0     H34366   7.897   3.349   4.213  3.3501  1.4522  1.2517
  974MOL0     H34367   7.747   3.433   4.141  0.7128 -2.1418 -4.5218
  974MOL0     H34368   8.033   3.466   4.052 -0.7185  0.8246  0.6546
  974MOL0     H34369   7.897   3.390   3.950  0.6814  0.8831 -0.7222
  974MOL0     H34370   7.692   3.442   3.923 -1.8013  0.6358  2.9505
  974MOL0     H34371   7.392   3.516   3.827  0.4147  2.4312 -0.5620
  974MOL0     H34372   7.501   3.374   3.801  0.4866  0.4390  0.3118
  974MOL0     H34373   7.434   3.457   3.664  1.5418 -0.4836 -0.4836
  974MOL0     H34374   7.343   4.037   3.663  1.7334 -1.8433  0.2235
  974MOL0     H34375   7.179   4.153   3.558  0.7751 -0.2334 -0.0828
  974MOL0     H34376   6.974   3.989   3.337  1.0937 -0.2906 -0.0333
  974MOL0     H34377   6.947   4.140   3.425  1.7483 -2.2725  2.2452
  974MOL0     H34378   6.926   4.131   3.126 -1.0456 -1.3551 -0.8700
  974MOL0     H34379   6.784   4.116   3.228 -0.6885  1.1921  1.2290
  974MOL0     H34380   6.835   4.337   3.321  0.2919  1.1571  0.4076
  974MOL0     H34381   6.771   4.328   3.151  1.8488 -1.0539 -0.6538
  974MOL0     H34382   7.031   4.344   3.098 -0.7269  1.5131 -1.3235
  974MOL0     H34383   7.037   4.362   3.277  0.8243  3.2215  0.6325
  974MOL0     H34384   7.039   4.550   3.071 -1.5400 -3.9784 -2.6400
  974MOL0     H34385   6.869   4.528   3.058 -0.5045  0.9001 -0.2120
  974MOL0     H34386   6.978   4.607   3.326  2.7384 -1.2543 -2.1640
  974MOL0     H34387   6.811   4.604   3.265 -0.8823  2.4209 -1.5091
  974MOL0     H34388   6.829   4.778   3.115  1.1979  0.0675 -2.9781
  974MOL0     H34389   7.003   4.793   3.131 -1.0009  0.9020 -1.0723
  974MOL0     H34390   6.794   4.842   3.350 -0.2344  1.0041 -2.1601
  974MOL0     H34391   6.874   4.964   3.259 -1.2405 -0.4877 -0.2360
  974MOL0     H34392   7.286   3.962   3.173 -0.8052  1.6456 -0.0798
  974MOL0     H34393   7.468   3.834   3.299  1.2967  0.9111  1.1274
  974MOL0     H34394   7.716   3.855   3.657 -3.7222 -0.0758  0.1966
  974MOL0     H34395   7.899   3.793   3.807 -0.4265  1.3330  0.1734
  974MOL0     H34396   7.172   2.378   4.889  2.1916  1.8973 -2.3629
  974MOL0     H34397   7.031   2.185   4.893 -4.2676 -0.4013  1.2483
  974MOL0     H34398   6.528   2.112   4.580  0.0947 -1.0926 -1.9259
  974MOL0     H34399   6.318   1.959   4.591  1.6178 -0.2534 -2.6516
  974MOL0     H34400   6.135   1.864   4.742  0.4649 -0.9334  1.1901
  974MOL0     H34401   6.187   1.786   4.590  1.9868  1.3299 -0.6372
  974MOL0     H34402   6.042   1.699   4.824 -1.3293 -1.7339 -0.7961
  974MOL0     H34403   6.109   1.571   4.728 -1.4621 -0.9175  2.3014
  974MOL0     H34404   5.908   1.794   4.639  3.0364  2.1519 -4.2396
  974MOL0     H34405   5.984   1.695   4.523 -1.1380  2.1241  0.0134
  974MOL0     H34406   5.817   1.582   4.758  2.1248 -2.2109  0.9179
  974MOL0     H34407   5.886   1.489   4.639 -0.6121 -0.4323  2.4581
  974MOL0     H34408   5.534   1.619   4.429 -1.1905  2.5095  0.7483
  974MOL0     H34409   6.516   1.734   4.887  1.4256 -2.2246 -1.5658
  974MOL0     H34410   6.744   1.751   4.906  2.3091  0.4346  1.0363
  974MOL0     H34411   6.846   1.816   4.784 -0.0647  2.1070 -1.7590
  974MOL0     H34412   6.814   1.913   4.916  2.8258 -1.5830 -0.3994
  975MOL0     O34413  10.674   6.063   1.209 -0.0051 -0.0268  0.3804
  975MOL0     C34414  10.678   6.189   1.198  1.1018 -0.7953  1.4084
  975MOL0     O34415  10.700   6.250   1.080 -0.2655 -0.8746  0.0536
  975MOL0     C34416  10.765   6.193   0.976  0.1019  0.4182  0.1190
  975MOL0     C34417  10.891   6.145   0.988 -0.0379  0.3579 -0.1401
  975MOL0     C34418  10.945   6.099   0.869 -1.5574  0.3656 -0.4743
  975MOL0     C34419  10.890   6.127   0.740 -0.2053  0.1531 -0.4554
  975MOL0     O34420  10.974   6.097   0.639  0.5416 -0.0713 -0.1891
  975MOL0     C34421  10.905   6.045   0.533 -0.4674  1.2086  0.3952
  975MOL0     C34422  10.964   6.082   0.406  0.3256 -0.4135  0.0910
  975MOL0     C34423  10.921   5.979   0.296 -1.1240 -0.4635 -0.4617
  975MOL0     C34424  11.031   5.876   0.265 -0.5174  0.6125 -0.2152
  975MOL0     C34425  10.998   5.790   0.146  0.1897  0.2836 -0.4121
  975MOL0     C34426  11.054   5.645   0.162  1.3259  0.1366 -0.2988
  975MOL0     C34427  11.033   5.554   0.033 -0.1872  0.1771  0.1991
  975MOL0     C34428  11.084   5.412   0.052 -0.1095 -0.2262  0.0121
  975MOL0     N34429  10.981   5.333   0.121  0.2490  0.1663  0.0232
  975MOL0     C34430  10.986   5.305   0.258  0.2462 -0.4790  0.9285
  975MOL0     C34431  10.897   5.201   0.277  0.2047 -0.4613 -0.3187
  975MOL0     C34432  10.862   5.130   0.405 -0.0425 -0.5093  0.3030
  975MOL0     C34433  10.766   5.212   0.501 -0.0859  0.5216 -0.1377
  975MOL0     C34434  10.718   5.127   0.623  0.0930 -0.6013  0.0909
  975MOL0     C34435  10.662   5.217   0.734  1.0322 -0.3971 -0.3826
  975MOL0     O34436  10.630   5.120   0.844  0.0341  0.4694  0.3386
  975MOL0     C34437  10.572   5.174   0.954  0.1774  0.5867 -0.6760
  975MOL0     C34438  10.554   5.311   0.984  0.9869 -0.1722 -0.0970
  975MOL0     C34439  10.499   5.352   1.103 -0.1633  1.3503  0.3047
  975MOL0     C34440  10.467   5.492   1.109 -0.2670  0.7803 -0.3015
  975MOL0     C34441  10.478   5.249   1.208  0.7886 -0.3806  0.3725
  975MOL0     C34442  10.434   5.272   1.349 -0.1595 -0.1824  0.4781
  975MOL0     O34443  10.407   5.162   1.429 -0.2558  0.1756  0.2094
  975MOL0     C34444  10.359   5.180   1.558 -0.8316  0.4204  0.2023
  975MOL0     C34445  10.280   5.082   1.603 -0.6448 -0.7008  0.6266
  975MOL0     C34446  10.265   5.076   1.737 -0.2659  0.4263 -0.2318
  975MOL0     C34447  10.329   5.160   1.838 -1.3269  0.4476 -0.6234
  975MOL0     O34448  10.321   5.160   1.975  0.4399  0.0878 -0.5076
  975MOL0     C34449  10.201   5.111   2.035  0.2231  0.5505 -0.7284
  975MOL0     C34450  10.220   4.995   2.135  0.6496  0.2879 -0.3555
  975MOL0     C34451  10.246   5.058   2.276  0.2666 -0.3906  0.0461
  975MOL0     C34452  10.103   5.098   2.336 -0.3208  0.0374  1.2714
  975MOL0     C34453  10.120   5.198   2.454 -0.2181  0.7525  0.3945
  975MOL0     C34454  10.189   5.136   2.565  0.1022  0.4598  0.4690
  975MOL0     C34455  10.150   5.226   2.682  0.1226  0.3368 -0.7403
  975MOL0     C34456  10.209   5.183   2.819  0.4678 -0.4070 -0.6008
  975MOL0    Cl34457  10.358   5.266   2.832  0.6367 -0.1344  0.1673
  975MOL0     C34458  10.418   5.251   1.776 -0.9749 -0.4884  0.3535
  975MOL0     C34459  10.437   5.268   1.641  0.6207 -0.6274 -0.5105
  975MOL0     O34460  10.450   5.387   1.383 -0.6564  0.1038  0.8192
  975MOL0     C34461  10.493   5.114   1.167  1.0365  0.7462  0.0992
  975MOL0     C34462  10.533   5.076   1.039  0.1023 -0.4012 -0.3445
  975MOL0     N34463  10.839   5.180   0.152  0.3487  0.7001  0.4680
  975MOL0     N34464  10.894   5.245   0.063  0.2513 -0.2717 -0.0149
  975MOL0     C34465  10.767   6.187   0.740  0.4006 -0.6032 -0.0816
  975MOL0     C34466  10.703   6.218   0.863 -0.1047  1.0524  0.0006
  975MOL0     C34467  10.680   6.269   1.321 -0.2865  0.7400  0.8654
  975MOL0     C34468  10.588   6.230   1.418 -0.1516 -0.5763  0.1803
  975MOL0     C34469  10.546   6.322   1.513  0.7277  0.2663 -0.2808
  975MOL0     C34470  10.603   6.449   1.537  0.1925 -0.1465  0.6279
  975MOL0     O34471  10.540   6.532   1.622  0.0184 -0.3558  0.6975
  975MOL0     C34472  10.603   6.647   1.663 -0.1925 -0.2553  0.4271
  975MOL0     C34473  10.729   6.615   1.753 -0.0848 -0.0821  0.2436
  975MOL0     C34474  10.804   6.741   1.784 -0.7634  0.1975  0.7094
  975MOL0     C34475  10.733   6.839   1.881  0.2586 -0.5545 -1.0665
  975MOL0     C34476  10.695   6.767   2.000  0.1412  1.0578  0.3949
  975MOL0     C34477  10.681   6.717   2.108 -0.8903  0.2435 -0.7285
  975MOL0     C34478  10.703   6.483   1.445 -1.2802  0.1643 -0.8661
  975MOL0     C34479  10.740   6.400   1.337 -1.0813  0.5896  0.0183
  975MOL0     C34480  10.838   6.462   1.233  0.6811  0.3987 -0.5609
  975MOL0     H34481  10.935   6.131   1.087  1.8149 -4.1452 -1.3895
  975MOL0     H34482  11.035   6.037   0.865 -0.5316  1.7289  0.6364
  975MOL0     H34483  10.796   6.049   0.537 -0.8725 -3.6290  0.0677
  975MOL0     H34484  10.929   5.938   0.530  0.6242  1.4606 -0.6056
  975MOL0     H34485  10.922   6.179   0.377 -1.8233 -1.7167 -1.3916
  975MOL0     H34486  11.073   6.090   0.412  0.4231 -1.0512 -0.7627
  975MOL0     H34487  10.839   5.911   0.320  0.4323 -1.7836  1.4739
  975MOL0     H34488  10.896   6.034   0.205  1.5076 -1.1231 -1.6839
  975MOL0     H34489  11.117   5.937   0.236 -1.9764  3.2113  0.6320
  975MOL0     H34490  11.050   5.812   0.352 -2.1441 -0.4290 -0.5803
  975MOL0     H34491  11.047   5.844   0.064 -1.1937  1.2382 -0.6408
  975MOL0     H34492  10.890   5.781   0.140  0.3948 -2.2217 -1.5860
  975MOL0     H34493  11.162   5.641   0.177  1.1366 -2.7866  0.9855
  975MOL0     H34494  11.012   5.598   0.251 -1.4692 -0.3224 -1.7344
  975MOL0     H34495  11.095   5.591  -0.048  1.1868 -1.3398  0.5147
  975MOL0     H34496  10.930   5.559  -0.004  0.5518 -0.5575 -2.0805
  975MOL0     H34497  11.120   5.376  -0.046 -0.2477 -0.0396 -0.1063
  975MOL0     H34498  11.170   5.417   0.119 -0.4067 -3.0611  0.7554
  975MOL0     H34499  11.066   5.340   0.323  2.2198 -2.0624 -0.5342
  975MOL0     H34500  10.960   5.111   0.451 -1.0306 -3.3422  1.4664
  975MOL0     H34501  10.826   5.028   0.389  2.4378 -1.4911  0.5725
  975MOL0     H34502  10.819   5.301   0.536  2.2137  0.2083 -2.5506
  975MOL0     H34503  10.672   5.237   0.451 -0.5919 -0.9516  0.0043
  975MOL0     H34504  10.636   5.059   0.599 -0.3818 -0.3405  0.9371
  975MOL0     H34505  10.798   5.066   0.666 -1.0473 -2.4366 -0.3046
  975MOL0     H34506  10.735   5.293   0.765  0.3953 -0.5590  1.6385
  975MOL0     H34507  10.579   5.275   0.692  2.0940  0.6795 -1.0569
  975MOL0     H34508  10.574   5.393   0.917  0.9859 -2.0370 -2.5001
  975MOL0     H34509  10.363   5.506   1.141 -0.8501  2.0257 -2.5154
  975MOL0     H34510  10.470   5.554   1.019 -0.9204  1.6555  0.2597
  975MOL0     H34511  10.532   5.534   1.186 -1.3076  1.1905  0.3792
  975MOL0     H34512  10.242   5.019   1.524 -2.1899 -0.4171  1.1185
  975MOL0     H34513  10.194   5.002   1.773 -0.6611 -0.0688 -1.9352
  975MOL0     H34514  10.149   5.194   2.084  0.4041  1.2032 -1.6212
  975MOL0     H34515  10.123   5.078   1.966 -2.5803 -2.4068  3.3422
  975MOL0     H34516  10.129   4.935   2.126  0.8919  0.1517 -2.4899
  975MOL0     H34517  10.298   4.924   2.105 -1.4619 -2.6701  0.6850
  975MOL0     H34518  10.317   5.142   2.270  1.4281 -1.4105 -0.9642
  975MOL0     H34519  10.284   4.978   2.339  0.8919  1.0101  1.5281
  975MOL0     H34520  10.056   5.003   2.365  2.0118 -0.6878  2.9815
  975MOL0     H34521  10.034   5.144   2.265  1.3414  0.2936 -0.2366
  975MOL0     H34522  10.188   5.273   2.413  1.5402 -1.0558 -0.1603
  975MOL0     H34523  10.018   5.234   2.474 -0.5096  1.3094 -1.8402
  975MOL0     H34524  10.296   5.143   2.543  0.4557  3.7906  2.6418
  975MOL0     H34525  10.165   5.032   2.589  2.2472  0.4832  3.2877
  975MOL0     H34526  10.042   5.213   2.693  0.4376 -0.6708  1.7203
  975MOL0     H34527  10.178   5.328   2.654 -0.6737  1.0733  0.9912
  975MOL0     H34528  10.210   5.074   2.826 -2.7898 -0.5113 -0.4704
  975MOL0     H34529  10.140   5.222   2.895 -0.0347 -1.9218 -0.2562
  975MOL0     H34530  10.490   5.307   1.836 -0.3884  0.1925 -0.9297
  975MOL0     H34531  10.511   5.336   1.601 -1.4029  0.9942 -1.6999
  975MOL0     H34532  10.455   5.040   1.236 -2.9707  3.1749  0.7705
  975MOL0     H34533  10.525   4.973   1.007  1.4310 -0.0761 -1.8115
  975MOL0     H34534  10.726   6.211   0.642 -1.5643 -2.1979  0.2828
  975MOL0     H34535  10.604   6.263   0.869 -0.4224  1.2112 -3.7910
  975MOL0     H34536  10.538   6.135   1.409  2.8752 -2.1930 -1.1785
  975MOL0     H34537  10.458   6.286   1.566  1.4625 -0.6097  0.3546
  975MOL0     H34538  10.641   6.691   1.571  0.7120  0.6574  1.2012
  975MOL0     H34539  10.536   6.716   1.715 -1.0090 -0.3351 -0.5169
  975MOL0     H34540  10.787   6.539   1.701 -3.7347 -1.7132 -1.7969
  975MOL0     H34541  10.695   6.558   1.840 -0.1370 -0.9862 -0.3612
  975MOL0     H34542  10.904   6.714   1.817 -0.3859  1.9002  1.0903
  975MOL0     H34543  10.826   6.796   1.692  3.8060 -1.2122  0.7504
  975MOL0     H34544  10.641   6.881   1.839  0.6491  1.8575  0.3571
  975MOL0     H34545  10.797   6.923   1.909 -1.9601  0.5073  1.2009
  975MOL0     H34546  10.655   6.655   2.192 -1.9932 -1.5582 -2.3118
  975MOL0     H34547  10.740   6.585   1.454 -2.2991  0.4004  1.2778
  975MOL0     H34548  10.912   6.384   1.208 -0.3664 -1.2220  1.1178
  975MOL0     H34549  10.785   6.500   1.146 -0.6569  3.6512  1.4949
  975MOL0     H34550  10.895   6.541   1.283 -0.4682  0.3867  0.8346
  976MOL0     O34551   6.266   0.823   2.796  0.3825  0.6258  0.5059
  976MOL0     C34552   6.370   0.776   2.851 -0.3044  0.9904  0.3931
  976MOL0     O34553   6.370   0.686   2.951  0.1416 -0.5242  0.6170
  976MOL0     C34554   6.256   0.615   2.978 -0.4472 -0.4415 -0.3590
  976MOL0     C34555   6.187   0.620   3.100 -0.0290 -0.6465 -0.2001
  976MOL0     C34556   6.066   0.561   3.124  0.8414  0.6815  0.3004
  976MOL0     C34557   6.008   0.481   3.018 -0.2448 -0.2210 -1.1303
  976MOL0     O34558   5.899   0.409   3.040 -0.1844  0.0222 -1.1297
  976MOL0     C34559   5.813   0.446   3.147  0.4446 -0.5477 -0.5301
  976MOL0     C34560   5.832   0.374   3.278 -0.0148  1.1873 -0.8844
  976MOL0     C34561   5.798   0.223   3.268  0.2020 -0.1931 -0.1572
  976MOL0     C34562   5.647   0.175   3.286 -0.3914  0.4271  1.2296
  976MOL0     C34563   5.648   0.076   3.400  0.3602 -0.3853  0.1030
  976MOL0     C34564   5.648   0.147   3.539  0.2714  0.2721  1.0130
  976MOL0     C34565   5.667   0.041   3.653 -0.1515 -0.0305 -0.5221
  976MOL0     C34566   5.532  -0.021   3.690  0.2078 -0.3154  0.3357
  976MOL0     N34567   5.541  -0.139   3.782  0.2803  0.5955  1.0783
  976MOL0     C34568   5.585  -0.124   3.909  0.8656 -0.3699  0.2649
  976MOL0     C34569   5.633  -0.249   3.933 -0.0390 -0.1733  0.3516
  976MOL0     C34570   5.692  -0.292   4.069  0.0762 -0.8105 -0.8344
  976MOL0     C34571   5.788  -0.415   4.051 -0.8717  0.1465 -0.1630
  976MOL0     C34572   5.896  -0.397   3.950 -0.1775  0.5332 -0.2541
  976MOL0     C34573   5.967  -0.258   3.968  0.1620 -0.5839 -1.1861
  976MOL0     O34574   6.098  -0.251   3.911  0.4942  0.4943  0.0912
  976MOL0     C34575   6.107  -0.208   3.786 -0.4993  0.5683  0.5939
  976MOL0     C34576   6.232  -0.192   3.735 -0.4216  0.0679  0.2962
  976MOL0     C34577   6.247  -0.150   3.598  0.3238  0.6765 -1.5528
  976MOL0     C34578   6.393  -0.156   3.550 -0.2140 -0.0424 -0.1641
  976MOL0     C34579   6.140  -0.129   3.517 -0.3997 -0.0622  0.0192
  976MOL0     C34580   6.151  -0.087   3.366 -1.2435  0.1335  0.2457
  976MOL0     O34581   6.038  -0.041   3.321  0.6166 -0.0786  0.9333
  976MOL0     C34582   6.035  -0.032   3.184  0.7348 -0.3993  0.7266
  976MOL0     C34583   5.993  -0.134   3.100 -0.8532  0.2447  0.0554
  976MOL0     C34584   5.990  -0.121   2.958 -0.0185 -0.1969 -0.5046
  976MOL0     C34585   6.019  -0.006   2.891  0.2180 -0.5089  0.9857
  976MOL0     O34586   6.011  -0.010   2.751  0.4113  0.4849 -0.6855
  976MOL0     C34587   6.021   0.121   2.684  0.4816  0.1099  0.9896
  976MOL0     C34588   6.055   0.097   2.533  0.4142  0.2235  0.0456
  976MOL0     C34589   6.098   0.210   2.441  0.8865 -0.2540 -0.0573
  976MOL0     C34590   6.233   0.272   2.482 -0.5735 -0.5247  0.6005
  976MOL0     C34591   6.237   0.429   2.490  0.5436 -0.5078 -0.1353
  976MOL0     C34592   6.271   0.493   2.363 -0.4626 -0.0621 -0.0694
  976MOL0     C34593   6.275   0.643   2.377 -0.6685  0.5111 -0.5093
  976MOL0     C34594   6.159   0.709   2.309 -0.3429  0.3654  0.1450
  976MOL0    Cl34595   5.997   0.645   2.374  0.2226  0.0846 -0.2792
  976MOL0     C34596   6.051   0.102   2.978 -0.7011 -0.1819 -0.1301
  976MOL0     C34597   6.064   0.097   3.118  0.5584  0.3418 -0.7170
  976MOL0     O34598   6.258  -0.087   3.308  0.1720  0.1278 -0.4727
  976MOL0     C34599   6.019  -0.162   3.572  0.5124 -1.2933  0.6118
  976MOL0     C34600   5.997  -0.195   3.702 -0.0737  0.7975  0.1454
  976MOL0     N34601   5.605  -0.334   3.833 -0.1443 -0.1081 -0.5010
  976MOL0     N34602   5.561  -0.265   3.735 -1.0198  0.3202 -0.7016
  976MOL0     C34603   6.071   0.481   2.894  0.1427 -1.2804  0.6779
  976MOL0     C34604   6.201   0.524   2.879 -0.0058 -1.2591  0.0982
  976MOL0     C34605   6.509   0.819   2.813 -1.0748 -1.0063  0.3698
  976MOL0     C34606   6.623   0.756   2.881 -0.3068  0.0255 -0.0819
  976MOL0     C34607   6.748   0.785   2.835 -1.1379  0.3923  1.1328
  976MOL0     C34608   6.784   0.884   2.743  1.0017 -0.1743  0.0066
  976MOL0     O34609   6.895   0.907   2.683 -0.2916  0.4689  0.1601
  976MOL0     C34610   7.004   0.815   2.721 -0.4196 -0.4067  0.6574
  976MOL0     C34611   7.133   0.849   2.634 -0.1871  0.3394 -0.5548
  976MOL0     C34612   7.109   0.830   2.485 -0.3806  0.4141  0.8587
  976MOL0     C34613   7.110   0.687   2.441 -0.1938 -0.4805 -0.4752
  976MOL0     C34614   7.074   0.688   2.298 -1.1940 -0.1361 -0.3402
  976MOL0     C34615   7.059   0.694   2.177  0.9658 -1.1713 -0.9883
  976MOL0     C34616   6.670   0.938   2.682 -1.5123  0.4325  0.0021
  976MOL0     C34617   6.534   0.922   2.722 -1.3172 -0.1819 -0.7155
  976MOL0     C34618   6.432   1.007   2.655  1.0570  0.4687  0.5015
  976MOL0     H34619   6.217   0.695   3.173  0.6349  0.3409 -1.4416
  976MOL0     H34620   6.029   0.561   3.226 -0.4858  0.4335 -0.1564
  976MOL0     H34621   5.713   0.434   3.105  0.2605 -1.9639  0.2582
  976MOL0     H34622   5.822   0.553   3.168  2.2002 -0.9022  0.7565
  976MOL0     H34623   5.940   0.376   3.297 -0.3673 -1.2354  2.2302
  976MOL0     H34624   5.773   0.421   3.357 -0.2312 -4.3460  2.7697
  976MOL0     H34625   5.836   0.195   3.169  2.1351  4.8395 -1.0991
  976MOL0     H34626   5.870   0.176   3.335  0.0760 -0.6742 -0.3523
  976MOL0     H34627   5.572   0.252   3.306 -2.1448 -1.2282  1.2834
  976MOL0     H34628   5.627   0.107   3.202  3.7957  2.5125 -1.8345
  976MOL0     H34629   5.734   0.010   3.386  0.8751 -0.2298  2.1259
  976MOL0     H34630   5.552   0.024   3.392  0.5464 -0.4176 -3.0806
  976MOL0     H34631   5.728   0.220   3.555  0.1588  0.2559  1.6624
  976MOL0     H34632   5.556   0.205   3.555  0.6080  0.6054  1.8099
  976MOL0     H34633   5.703   0.095   3.740  0.2635  0.7510 -1.1614
  976MOL0     H34634   5.742  -0.039   3.647 -3.0771 -3.6128  3.9614
  976MOL0     H34635   5.469   0.051   3.744  3.7633  2.0180  1.7136
  976MOL0     H34636   5.488  -0.053   3.595 -2.0499  3.4766 -0.1226
  976MOL0     H34637   5.601  -0.036   3.971 -1.5709  0.0716  0.3734
  976MOL0     H34638   5.609  -0.342   4.120 -1.9291  1.5017 -1.6375
  976MOL0     H34639   5.732  -0.204   4.122 -1.9581  0.9071 -1.9820
  976MOL0     H34640   5.842  -0.430   4.146  0.8455 -0.6220 -1.2057
  976MOL0     H34641   5.728  -0.502   4.022  1.1681 -2.0706  1.7772
  976MOL0     H34642   5.971  -0.476   3.944  0.6250  1.1865  0.7140
  976MOL0     H34643   5.849  -0.392   3.852  0.6583  1.5153 -0.6231
  976MOL0     H34644   5.906  -0.174   3.934  0.3929 -1.0879 -2.9254
  976MOL0     H34645   5.974  -0.244   4.076 -0.9037 -1.5432 -0.9761
  976MOL0     H34646   6.314  -0.224   3.799 -0.8300 -0.3523  0.6142
  976MOL0     H34647   6.380  -0.241   3.482  0.8647 -1.5251  1.3983
  976MOL0     H34648   6.467  -0.192   3.622 -0.7536 -2.7061 -0.8280
  976MOL0     H34649   6.427  -0.069   3.493  2.4217 -1.1972 -0.5285
  976MOL0     H34650   5.982  -0.228   3.152  3.1945  0.9472  2.6405
  976MOL0     H34651   5.962  -0.212   2.907 -0.1152 -1.3230  1.4660
  976MOL0     H34652   5.925   0.173   2.693 -0.4924 -1.2860 -0.7858
  976MOL0     H34653   6.102   0.184   2.722 -1.0633  4.1678 -1.8176
  976MOL0     H34654   6.141   0.031   2.521  1.4156  1.1755  1.5013
  976MOL0     H34655   5.971   0.046   2.486  0.3735  0.7462 -0.4573
  976MOL0     H34656   6.013   0.278   2.444  1.1089 -0.0029  0.7716
  976MOL0     H34657   6.113   0.176   2.338  2.7120  0.9908 -0.2474
  976MOL0     H34658   6.302   0.229   2.409 -0.8264 -0.5436  0.3651
  976MOL0     H34659   6.268   0.231   2.577 -0.2900  4.9173  3.1932
  976MOL0     H34660   6.143   0.463   2.533  1.3280 -1.6888  2.8074
  976MOL0     H34661   6.305   0.461   2.570 -0.4012 -0.4596  0.6652
  976MOL0     H34662   6.201   0.462   2.286 -2.4363  0.3117  1.4836
  976MOL0     H34663   6.367   0.462   2.321 -0.2523  2.1122 -1.3718
  976MOL0     H34664   6.370   0.685   2.343  1.3473 -1.1939  2.5169
  976MOL0     H34665   6.267   0.671   2.483  1.2236 -2.0383  0.3970
  976MOL0     H34666   6.172   0.685   2.203  1.6375 -0.7253  0.6059
  976MOL0     H34667   6.169   0.818   2.310  4.5717  0.1291  2.2382
  976MOL0     H34668   6.079   0.200   2.941 -1.8496 -0.0757 -0.7955
  976MOL0     H34669   6.097   0.177   3.183 -0.3988 -1.3344  1.9641
  976MOL0     H34670   5.933  -0.156   3.506  0.7669  3.9348  0.2962
  976MOL0     H34671   5.899  -0.230   3.732  1.0121 -1.0127  1.8726
  976MOL0     H34672   6.027   0.441   2.803 -1.1481 -0.9166  1.1370
  976MOL0     H34673   6.249   0.538   2.782  1.0191  0.8073  0.8377
  976MOL0     H34674   6.617   0.669   2.946 -2.9851 -0.5389 -0.9608
  976MOL0     H34675   6.831   0.728   2.875 -1.8104  0.0169  2.0125
  976MOL0     H34676   7.034   0.827   2.826  0.1825  0.8856  0.3496
  976MOL0     H34677   6.981   0.709   2.711  2.8081 -0.9990 -2.5368
  976MOL0     H34678   7.216   0.783   2.662 -2.2466 -1.5478  1.6208
  976MOL0     H34679   7.150   0.956   2.648 -0.0987  0.6655 -2.8969
  976MOL0     H34680   7.013   0.875   2.459 -0.2262  0.8859  1.0935
  976MOL0     H34681   7.183   0.882   2.424 -1.1028  1.6190  0.9756
  976MOL0     H34682   7.035   0.626   2.492  0.0499 -0.8015 -0.4965
  976MOL0     H34683   7.213   0.650   2.447  0.6393  1.3615 -2.3671
  976MOL0     H34684   7.048   0.685   2.071  1.4453 -2.5006 -0.9339
  976MOL0     H34685   6.693   1.011   2.605 -1.3852 -2.2945 -2.7199
  976MOL0     H34686   6.472   1.100   2.615  2.1084  0.6708  1.9565
  976MOL0     H34687   6.390   0.957   2.567 -0.3747  0.7374  1.0091
  976MOL0     H34688   6.356   1.034   2.729  2.3721  0.3899  1.9365
  977MOL0     O34689  10.371  10.703   4.309 -0.3314  0.1045  0.2827
  977MOL0     C34690  10.398  10.607   4.239  0.3487 -0.1725  0.2797
  977MOL0     O34691  10.500  10.523   4.273  0.2070 -0.4831  0.0769
  977MOL0     C34692  10.560  10.527   4.398 -0.0880  0.4224  0.1758
  977MOL0     C34693  10.489  10.520   4.519  0.6574  0.5886  0.0058
  977MOL0     C34694  10.552  10.526   4.644 -1.0639  0.4099  0.1978
  977MOL0     C34695  10.692  10.536   4.652  0.6493 -0.9039 -1.2462
  977MOL0     O34696  10.765  10.542   4.773  0.2797  0.0812  0.3966
  977MOL0     C34697  10.707  10.620   4.883  0.9863  0.6931  0.5194
  977MOL0     C34698  10.825  10.651   4.981 -0.6876 -0.3958  0.3286
  977MOL0     C34699  10.926  10.748   4.911  0.2856 -0.1640 -0.2153
  977MOL0     C34700  10.876  10.902   4.901  0.7554  0.3803  0.6482
  977MOL0     C34701  10.960  10.985   4.806 -0.5621 -0.2360 -0.4314
  977MOL0     C34702  10.972  10.914   4.671 -0.6598  0.0832  1.0408
  977MOL0     C34703  10.996  11.021   4.571 -0.1804  0.1917  0.0233
  977MOL0     C34704  11.050  10.962   4.451 -0.1296 -0.1186 -0.5492
  977MOL0     N34705  11.066  11.067   4.341  0.0684 -0.7584 -0.6450
  977MOL0     C34706  10.984  11.107   4.241 -1.0784 -0.5423 -0.4854
  977MOL0     C34707  11.051  11.202   4.170 -0.0851  0.1414 -0.2876
  977MOL0     C34708  10.997  11.241   4.030 -0.4979 -0.3635 -0.7757
  977MOL0     C34709  11.030  11.391   4.007 -0.2766  0.7968  0.4895
  977MOL0     C34710  10.927  11.480   4.073  0.4330  0.7074  0.2113
  977MOL0     C34711  10.973  11.621   4.067  0.4617  0.4983 -1.6110
  977MOL0     O34712  10.855  11.687   4.022  0.1420  0.4476  0.2939
  977MOL0     C34713  10.831  11.818   4.039  0.3985 -0.5295  0.1044
  977MOL0     C34714  10.714  11.866   3.975  0.3212  0.0659  0.8574
  977MOL0     C34715  10.687  12.001   3.956 -0.2029  0.2547 -0.0291
  977MOL0     C34716  10.549  12.031   3.894  0.6531 -0.2000  0.2646
  977MOL0     C34717  10.779  12.093   4.011 -0.2538 -0.4508 -0.8985
  977MOL0     C34718  10.756  12.243   4.011  0.6641  0.1851 -0.2051
  977MOL0     O34719  10.827  12.318   4.107  0.5228  0.9364  0.2476
  977MOL0     C34720  10.838  12.450   4.108 -0.5124 -0.7042 -0.1508
  977MOL0     C34721  10.833  12.525   3.994  0.7371  0.4485 -0.0048
  977MOL0     C34722  10.864  12.655   3.988 -0.6176 -0.0684  1.0448
  977MOL0     C34723  10.920  12.717   4.107  0.2683  0.0410 -0.0696
  977MOL0     O34724  10.978  12.843   4.106 -0.1461  0.4534 -0.7314
  977MOL0     C34725  10.914  12.945   4.030 -0.5870 -0.9461 -0.0703
  977MOL0     C34726  10.949  13.084   4.094 -0.5534 -0.1482  0.3696
  977MOL0     C34727  10.857  13.111   4.207  0.6245 -0.4047 -1.6053
  977MOL0     C34728  10.725  13.177   4.168 -0.3406 -0.5206 -0.6302
  977MOL0     C34729  10.627  13.189   4.278  0.3691 -0.0206  0.9701
  977MOL0     C34730  10.566  13.053   4.323 -0.2080 -0.3657  1.4717
  977MOL0     C34731  10.488  13.060   4.445 -0.6681 -0.5564  0.3499
  977MOL0     C34732  10.405  12.938   4.459  0.4371 -0.7161 -0.4058
  977MOL0    Cl34733  10.323  12.965   4.617  0.3190 -0.0358 -0.0481
  977MOL0     C34734  10.922  12.642   4.227  0.2331 -0.0096  1.1361
  977MOL0     C34735  10.894  12.504   4.224  1.0511  0.1524  1.1568
  977MOL0     O34736  10.662  12.284   3.943 -0.3851  0.5123  0.5206
  977MOL0     C34737  10.891  12.044   4.082  0.0021 -0.4056 -0.0106
  977MOL0     C34738  10.920  11.913   4.086  0.2454 -0.5359 -0.1388
  977MOL0     N34739  11.181  11.204   4.221  0.9102  0.1285 -0.4270
  977MOL0     N34740  11.185  11.131   4.328 -0.2064  0.7029  0.0474
  977MOL0     C34741  10.766  10.528   4.531  0.5322  0.0285  0.4712
  977MOL0     C34742  10.700  10.514   4.411  0.3045 -0.2903 -0.2308
  977MOL0     C34743  10.328  10.571   4.111  0.7369 -0.0248 -0.7603
  977MOL0     C34744  10.361  10.453   4.042  1.0418 -0.3284 -0.6332
  977MOL0     C34745  10.306  10.415   3.919  0.0158  0.2846  0.4803
  977MOL0     C34746  10.241  10.502   3.845  0.0261  0.2524 -0.9341
  977MOL0     O34747  10.213  10.503   3.715 -0.8931  0.0517  0.0474
  977MOL0     C34748  10.287  10.408   3.629 -0.7118 -0.3805 -0.4559
  977MOL0     C34749  10.440  10.429   3.619 -0.9360 -0.5721 -0.3117
  977MOL0     C34750  10.482  10.575   3.579 -0.9506 -0.0057  0.0431
  977MOL0     C34751  10.419  10.599   3.437 -0.7234  0.2237  0.0620
  977MOL0     C34752  10.434  10.744   3.403 -1.0212  0.4102  1.3528
  977MOL0     C34753  10.431  10.860   3.366  0.4078 -0.3906 -0.1040
  977MOL0     C34754  10.187  10.620   3.918  0.0810 -0.1854  0.8544
  977MOL0     C34755  10.232  10.651   4.049  0.4896 -0.5531  0.4667
  977MOL0     C34756  10.175  10.781   4.116 -0.0852  1.2903 -0.5826
  977MOL0     H34757  10.381  10.523   4.514  0.6283  0.2446  0.3483
  977MOL0     H34758  10.492  10.516   4.734 -0.2689  2.3589  1.0158
  977MOL0     H34759  10.626  10.569   4.935 -0.7800  2.1529 -0.6457
  977MOL0     H34760  10.658  10.703   4.831 -0.6542 -0.9108 -0.6203
  977MOL0     H34761  10.786  10.704   5.068 -3.4173 -0.2921 -0.8689
  977MOL0     H34762  10.872  10.558   5.014 -2.0400 -0.9067  0.8678
  977MOL0     H34763  11.016  10.757   4.973 -0.1856 -0.2390  0.4961
  977MOL0     H34764  10.948  10.708   4.812  0.9521  2.0650 -1.0377
  977MOL0     H34765  10.774  10.900   4.860  0.4333  1.0267  1.3847
  977MOL0     H34766  10.878  10.958   4.995 -0.5140  2.7107 -0.6276
  977MOL0     H34767  11.060  11.009   4.845 -1.0747 -1.1862  1.6119
  977MOL0     H34768  10.913  11.082   4.787 -1.1181 -0.5115 -0.4671
  977MOL0     H34769  11.051  10.838   4.671 -1.0535 -0.3309  0.9791
  977MOL0     H34770  10.875  10.872   4.640 -0.0036 -0.2231 -0.7150
  977MOL0     H34771  11.061  11.100   4.609  0.0806 -0.4981  1.0640
  977MOL0     H34772  10.900  11.073   4.562 -0.3409 -0.4485 -3.3852
  977MOL0     H34773  11.149  10.936   4.487  1.1344  2.9646 -1.4568
  977MOL0     H34774  10.999  10.874   4.411  2.4261 -0.8301 -2.5462
  977MOL0     H34775  10.880  11.080   4.222 -1.8218  2.0308 -0.4681
  977MOL0     H34776  10.893  11.221   4.005 -0.4134 -0.2109 -1.2602
  977MOL0     H34777  11.057  11.189   3.956  1.0820  0.0882  0.1257
  977MOL0     H34778  11.131  11.408   4.045  0.2542 -3.2354  1.3841
  977MOL0     H34779  11.024  11.409   3.899 -2.6307 -2.9755 -0.1997
  977MOL0     H34780  10.837  11.459   4.016  1.5380 -1.6341 -0.8244
  977MOL0     H34781  10.909  11.454   4.178  0.1848 -1.5936 -0.3423
  977MOL0     H34782  11.002  11.660   4.165  4.5389 -5.3408  0.0601
  977MOL0     H34783  11.062  11.626   4.004 -0.0288  2.5675 -2.1961
  977MOL0     H34784  10.643  11.796   3.934  0.4586  0.0475  0.6468
  977MOL0     H34785  10.492  12.116   3.933 -1.8431 -1.0265 -1.3522
  977MOL0     H34786  10.485  11.944   3.906  1.1048 -0.4164  1.2082
  977MOL0     H34787  10.563  12.062   3.790  2.7933  1.6847  1.0271
  977MOL0     H34788  10.804  12.485   3.897  0.3956  0.4240  0.1057
  977MOL0     H34789  10.859  12.705   3.891 -1.2727  1.2904  1.7564
  977MOL0     H34790  10.961  12.961   3.932 -1.8114  1.0083 -0.4030
  977MOL0     H34791  10.805  12.945   4.023 -0.5924  0.8101 -0.4715
  977MOL0     H34792  11.052  13.074   4.129 -0.9062 -0.9317  1.2139
  977MOL0     H34793  10.938  13.163   4.019  1.3006 -0.9875 -0.8874
  977MOL0     H34794  10.905  13.180   4.277 -4.9747  1.2859  1.0860
  977MOL0     H34795  10.832  13.021   4.264 -0.7383 -1.0561 -3.1471
  977MOL0     H34796  10.689  13.108   4.091 -1.0908  0.4896 -1.2082
  977MOL0     H34797  10.745  13.278   4.131 -2.6090  0.0811 -0.3581
  977MOL0     H34798  10.683  13.226   4.365 -1.3369 -1.8444  2.9632
  977MOL0     H34799  10.553  13.265   4.252  0.8054 -0.3776 -1.5338
  977MOL0     H34800  10.649  12.984   4.343 -1.0929 -0.8522  3.7608
  977MOL0     H34801  10.508  13.008   4.242  1.1568  0.4358 -0.0159
  977MOL0     H34802  10.432  13.154   4.440  0.5257  0.1557 -0.1521
  977MOL0     H34803  10.556  13.064   4.531 -1.1479 -0.5871  0.7295
  977MOL0     H34804  10.459  12.843   4.466 -1.0830 -1.4991  4.0567
  977MOL0     H34805  10.340  12.915   4.374 -1.1359 -2.1825  1.1097
  977MOL0     H34806  10.966  12.701   4.307 -1.0320  1.3659  0.8585
  977MOL0     H34807  10.926  12.444   4.309 -0.7971 -0.8891  1.1665
  977MOL0     H34808  10.963  12.120   4.111 -2.5424  2.6431 -1.0775
  977MOL0     H34809  11.016  11.878   4.121  0.8072  0.1158 -0.9598
  977MOL0     H34810  10.872  10.530   4.553  0.1479  2.8835  2.7390
  977MOL0     H34811  10.752  10.499   4.317 -0.7693  1.4045 -1.1500
  977MOL0     H34812  10.436  10.386   4.084  2.0563  0.5918 -0.9340
  977MOL0     H34813  10.328  10.315   3.884  2.9549 -0.2737  3.4100
  977MOL0     H34814  10.264  10.312   3.676 -0.4776 -0.5649 -0.7177
  977MOL0     H34815  10.246  10.400   3.528 -2.8420  0.1439  0.3162
  977MOL0     H34816  10.482  10.364   3.542 -1.1437 -0.4071 -0.5626
  977MOL0     H34817  10.485  10.398   3.714  0.5498  1.7126 -0.1777
  977MOL0     H34818  10.440  10.653   3.643  2.8821  2.2326  0.1349
  977MOL0     H34819  10.589  10.594   3.585 -0.3777 -2.4984 -0.7675
  977MOL0     H34820  10.311  10.581   3.433 -0.9785  1.6018  0.1309
  977MOL0     H34821  10.474  10.530   3.372 -2.7402 -0.4539 -1.0090
  977MOL0     H34822  10.434  10.964   3.339  1.2811  0.3952  2.7243
  977MOL0     H34823  10.127  10.682   3.852  1.8808  0.2796 -0.4388
  977MOL0     H34824  10.114  10.835   4.043 -0.4599  1.6704  0.0151
  977MOL0     H34825  10.114  10.754   4.202  0.9310  0.0140 -0.2140
  977MOL0     H34826  10.261  10.844   4.140  1.0363 -0.5706  0.5140
  978MOL0     O34827   2.437   5.721   9.628 -0.1677  0.8511 -0.5096
  978MOL0     C34828   2.355   5.793   9.683  0.0413  0.6405  0.6072
  978MOL0     O34829   2.228   5.833   9.635  0.0156  0.7342  0.6995
  978MOL0     C34830   2.196   5.788   9.511  0.0094  0.4448  0.6446
  978MOL0     C34831   2.225   5.662   9.452 -1.0267 -0.2107  0.1093
  978MOL0     C34832   2.195   5.636   9.315  0.8042 -0.0858  0.2282
  978MOL0     C34833   2.134   5.737   9.237  0.2662  0.3464 -1.0025
  978MOL0     O34834   2.099   5.718   9.106 -0.5233  1.0956 -0.6396
  978MOL0     C34835   2.192   5.661   9.008 -0.1698 -0.5216  0.2501
  978MOL0     C34836   2.291   5.775   8.960  0.1875 -0.5576  0.1485
  978MOL0     C34837   2.213   5.905   8.910  0.1793  0.4242 -0.0963
  978MOL0     C34838   2.293   6.037   8.912 -1.1743 -0.3078  0.1547
  978MOL0     C34839   2.228   6.155   8.848 -0.7202  0.4839 -0.1457
  978MOL0     C34840   2.307   6.282   8.834 -0.3330  0.0425 -0.1338
  978MOL0     C34841   2.458   6.267   8.786 -0.7459 -0.1628  1.0071
  978MOL0     C34842   2.463   6.209   8.643 -0.2616 -0.1159 -0.1072
  978MOL0     N34843   2.400   6.303   8.548 -0.4963  0.4626 -0.2659
  978MOL0     C34844   2.268   6.322   8.508  0.3741 -0.0013 -0.5093
  978MOL0     C34845   2.268   6.411   8.409  0.6698  0.0293  0.7194
  978MOL0     C34846   2.151   6.434   8.322 -0.8304  0.2497  0.1840
  978MOL0     C34847   2.198   6.419   8.176  0.1825  0.6817  0.2588
  978MOL0     C34848   2.243   6.273   8.134 -0.1719  0.2884  0.5145
  978MOL0     C34849   2.133   6.168   8.141  0.2705 -0.0629 -0.2605
  978MOL0     O34850   2.182   6.034   8.119  1.0585  1.0123 -0.3129
  978MOL0     C34851   2.189   5.993   7.991  1.0622 -0.4071  0.0324
  978MOL0     C34852   2.069   5.962   7.915  0.8376  0.3869 -0.1741
  978MOL0     C34853   2.070   5.920   7.780  0.1470 -0.0418  0.6409
  978MOL0     C34854   1.932   5.891   7.713 -0.7823  0.9642  0.6133
  978MOL0     C34855   2.199   5.917   7.709  0.0473 -0.6278  0.4378
  978MOL0     C34856   2.210   5.902   7.567 -0.2676  0.0320  0.8739
  978MOL0     O34857   2.319   5.829   7.529 -0.2126 -0.5444 -0.4912
  978MOL0     C34858   2.362   5.818   7.398  0.8453  0.6579  0.1103
  978MOL0     C34859   2.461   5.726   7.369  0.7176  1.4164  0.6175
  978MOL0     C34860   2.511   5.702   7.241 -0.0467 -0.0815  0.2231
  978MOL0     C34861   2.483   5.799   7.143  0.1765 -0.1559 -0.5520
  978MOL0     O34862   2.520   5.778   7.011  0.0549 -0.1920 -0.3744
  978MOL0     C34863   2.598   5.665   6.973 -0.1188  0.4925  0.0318
  978MOL0     C34864   2.629   5.661   6.822 -0.3290 -0.7309  0.8094
  978MOL0     C34865   2.771   5.600   6.794  0.2787 -0.0896 -0.1387
  978MOL0     C34866   2.795   5.586   6.643 -0.5861 -0.9460  0.0481
  978MOL0     C34867   2.949   5.572   6.616 -0.3683  0.0890 -0.4654
  978MOL0     C34868   2.983   5.527   6.475 -1.4837 -0.4456  0.6676
  978MOL0     C34869   3.120   5.567   6.431 -0.8475  0.2343  0.3424
  978MOL0     C34870   3.230   5.503   6.511  0.1631 -0.2432 -0.1514
  978MOL0    Cl34871   3.231   5.326   6.483 -0.5682  0.3363 -0.1025
  978MOL0     C34872   2.391   5.902   7.166  0.1478  0.3890 -0.3105
  978MOL0     C34873   2.317   5.906   7.292  0.2361  0.6920 -0.2831
  978MOL0     O34874   2.115   5.921   7.493  0.3205 -0.2754 -0.2240
  978MOL0     C34875   2.314   5.955   7.786 -0.4409  0.2431  0.0111
  978MOL0     C34876   2.305   5.992   7.918 -0.5742  0.6502 -1.0547
  978MOL0     N34877   2.404   6.446   8.394 -0.3165  0.3672 -0.1971
  978MOL0     N34878   2.474   6.397   8.490 -0.6386  0.5664  0.0429
  978MOL0     C34879   2.094   5.857   9.298 -0.3946  0.2092 -0.5914
  978MOL0     C34880   2.129   5.887   9.424  1.0300 -0.4025 -0.8661
  978MOL0     C34881   2.393   5.852   9.813 -0.3490 -0.1137 -0.3613
  978MOL0     C34882   2.439   5.766   9.916 -0.6007 -0.1605 -0.4230
  978MOL0     C34883   2.462   5.814  10.046 -0.1015 -0.0495 -0.0139
  978MOL0     C34884   2.457   5.951  10.067  0.7677  0.1372  0.3757
  978MOL0     O34885   2.512   5.994  10.194  0.5392 -0.0734 -0.4347
  978MOL0     C34886   2.540   6.131  10.223  0.1577 -0.2497  0.6235
  978MOL0     C34887   2.611   6.144  10.354 -0.8134 -0.3223 -0.2478
  978MOL0     C34888   2.762   6.093  10.352 -0.6330 -0.0028 -0.2219
  978MOL0     C34889   2.788   5.950  10.381  0.0771  0.4790  0.2737
  978MOL0     C34890   2.757   5.931  10.522  0.1160 -0.3971 -0.0805
  978MOL0     C34891   2.721   5.919  10.634 -0.0411  0.3940 -0.1663
  978MOL0     C34892   2.398   6.038   9.972 -0.8562  0.0689 -0.9882
  978MOL0     C34893   2.356   5.987   9.844 -0.0210 -0.1878  0.2961
  978MOL0     C34894   2.294   6.091   9.742 -0.1928  0.1907 -0.0760
  978MOL0     H34895   2.274   5.585   9.511 -2.1870  0.0565  1.4878
  978MOL0     H34896   2.221   5.538   9.275  0.6748  0.6911 -1.8864
  978MOL0     H34897   2.141   5.613   8.924  5.0895 -5.9043 -0.6014
  978MOL0     H34898   2.258   5.586   9.052  1.6765  1.0298  0.2604
  978MOL0     H34899   2.361   5.807   9.038 -1.0721 -1.1942  1.5810
  978MOL0     H34900   2.350   5.734   8.878 -3.2785 -0.8420 -2.4194
  978MOL0     H34901   2.184   5.881   8.807 -2.6908 -0.2177  0.7609
  978MOL0     H34902   2.118   5.914   8.964 -0.6850 -1.7343 -1.1637
  978MOL0     H34903   2.314   6.077   9.011 -1.0929  2.3404 -0.8361
  978MOL0     H34904   2.395   6.031   8.873 -0.3188  3.2070  1.5157
  978MOL0     H34905   2.130   6.181   8.887 -2.2636 -1.2966 -2.5964
  978MOL0     H34906   2.199   6.131   8.746 -0.8600  0.2509 -0.0513
  978MOL0     H34907   2.257   6.353   8.768  0.7310  0.4651 -0.5039
  978MOL0     H34908   2.313   6.338   8.928  0.9576 -1.4133  0.7027
  978MOL0     H34909   2.521   6.210   8.855  3.1823 -0.6406 -2.5810
  978MOL0     H34910   2.509   6.364   8.794  3.2207 -1.9523 -0.2400
  978MOL0     H34911   2.564   6.182   8.612  0.0352  3.8223 -3.4564
  978MOL0     H34912   2.397   6.122   8.637  0.8897 -1.0242  0.1434
  978MOL0     H34913   2.178   6.270   8.540  0.9267 -1.9150 -1.8786
  978MOL0     H34914   2.109   6.534   8.339  0.2664  0.4237  2.1550
  978MOL0     H34915   2.070   6.364   8.341 -0.2771 -0.5896 -0.4683
  978MOL0     H34916   2.124   6.456   8.105  0.6628 -0.9354 -1.1338
  978MOL0     H34917   2.277   6.492   8.159  0.2491  0.1560 -2.0042
  978MOL0     H34918   2.279   6.285   8.032  0.1976  1.4844  0.7717
  978MOL0     H34919   2.321   6.237   8.202 -1.3046 -1.2220  1.0600
  978MOL0     H34920   2.076   6.177   8.234 -2.7018 -0.9426 -1.8609
  978MOL0     H34921   2.057   6.195   8.067  0.6283 -0.4391 -0.7757
  978MOL0     H34922   1.967   5.963   7.952  0.5664  1.0272 -0.8976
  978MOL0     H34923   1.944   5.794   7.664 -0.2063  0.8105  1.0410
  978MOL0     H34924   1.916   5.968   7.637  0.9352 -0.2324 -1.0356
  978MOL0     H34925   1.849   5.896   7.785 -1.8899  1.9758 -0.6824
  978MOL0     H34926   2.485   5.658   7.451  0.0427  1.1797  0.6242
  978MOL0     H34927   2.574   5.614   7.231  1.5001  0.7202  2.3172
  978MOL0     H34928   2.694   5.654   7.023 -0.6704 -0.6867  0.8669
  978MOL0     H34929   2.539   5.574   6.983  1.1750 -0.4488 -0.5906
  978MOL0     H34930   2.538   5.612   6.786 -0.0257 -1.1565  0.6158
  978MOL0     H34931   2.633   5.765   6.788 -1.4075 -1.5624 -2.1622
  978MOL0     H34932   2.788   5.505   6.846 -1.7631  0.9913  2.7761
  978MOL0     H34933   2.842   5.672   6.836 -1.0903  0.9647  0.4119
  978MOL0     H34934   2.773   5.670   6.576  0.8461 -0.5978 -0.0052
  978MOL0     H34935   2.738   5.501   6.602  2.7036 -2.7640 -1.1004
  978MOL0     H34936   2.997   5.666   6.643  0.6191 -1.3520  3.5830
  978MOL0     H34937   2.989   5.505   6.693 -0.3859 -0.5852 -1.0283
  978MOL0     H34938   2.908   5.564   6.404 -1.6265  0.0329  1.0687
  978MOL0     H34939   2.991   5.418   6.468  0.4758 -0.3991  1.5990
  978MOL0     H34940   3.115   5.676   6.446 -0.6162  0.1873  0.7455
  978MOL0     H34941   3.131   5.550   6.323 -2.0379  2.6260 -0.2396
  978MOL0     H34942   3.221   5.517   6.619 -0.7532 -1.7062 -0.0184
  978MOL0     H34943   3.323   5.558   6.490 -1.0062  3.1895  2.5736
  978MOL0     H34944   2.354   5.959   7.082  3.0774 -0.7726 -2.5628
  978MOL0     H34945   2.242   5.982   7.307 -1.9317 -1.0639 -1.6548
  978MOL0     H34946   2.404   5.966   7.727  0.8835 -3.2263  1.1476
  978MOL0     H34947   2.397   6.021   7.968 -0.5185 -2.3285  0.7755
  978MOL0     H34948   2.046   5.929   9.233  1.8167  0.8871 -1.5623
  978MOL0     H34949   2.112   5.987   9.464 -0.5379 -0.5654 -1.0528
  978MOL0     H34950   2.469   5.662   9.904  0.5927 -0.3297  2.9299
  978MOL0     H34951   2.508   5.754  10.123  0.9892 -2.5666 -2.4312
  978MOL0     H34952   2.599   6.166  10.138 -0.0969 -1.7532 -0.1977
  978MOL0     H34953   2.450   6.193  10.229 -0.0486 -0.1113 -2.4740
  978MOL0     H34954   2.563   6.094  10.438  0.7115  0.6556  1.2615
  978MOL0     H34955   2.627   6.251  10.367 -4.4237  0.2584  0.4188
  978MOL0     H34956   2.801   6.112  10.252  0.4931  2.0471  0.5370
  978MOL0     H34957   2.827   6.151  10.418 -0.6393 -1.5732  1.2336
  978MOL0     H34958   2.891   5.923  10.360 -0.4520 -0.5437 -1.1729
  978MOL0     H34959   2.731   5.878  10.321  1.5876 -1.2688  0.8626
  978MOL0     H34960   2.690   5.889  10.731  1.4283  1.7292  0.7745
  978MOL0     H34961   2.397   6.142  10.001  2.5643  0.0302 -0.3833
  978MOL0     H34962   2.185   6.082   9.740 -0.4459  1.6039  2.6236
  978MOL0     H34963   2.331   6.194   9.747  2.7665 -0.6091 -2.5068
  978MOL0     H34964   2.322   6.073   9.638  3.5447 -0.3892  0.9108
  979MOL0     O34965   3.528  10.406   4.467  1.5669 -0.0545 -0.3645
  979MOL0     C34966   3.588  10.345   4.384  0.4736  0.8882  0.5322
  979MOL0     O34967   3.728  10.312   4.388  0.5196 -0.6724  0.0384
  979MOL0     C34968   3.794  10.370   4.490 -0.1383  0.2491 -0.4623
  979MOL0     C34969   3.842  10.498   4.472  0.8501 -0.3731 -0.0972
  979MOL0     C34970   3.918  10.561   4.569  0.0389  0.4039  0.8831
  979MOL0     C34971   3.951  10.492   4.685 -0.1833  0.1141 -0.3203
  979MOL0     O34972   4.039  10.552   4.778  0.6926  0.5764  0.5278
  979MOL0     C34973   4.162  10.471   4.794 -0.3019 -0.3535  0.5247
  979MOL0     C34974   4.219  10.479   4.934 -0.2222 -0.2094 -0.5704
  979MOL0     C34975   4.356  10.420   4.935  0.4288 -0.2506 -0.1736
  979MOL0     C34976   4.382  10.377   5.082  0.9003 -0.3643  0.0804
  979MOL0     C34977   4.510  10.297   5.083 -0.0184  0.2779 -0.0941
  979MOL0     C34978   4.523  10.237   5.224 -0.0281 -0.7885  0.5705
  979MOL0     C34979   4.661  10.170   5.248  0.2757  0.2134  0.0486
  979MOL0     C34980   4.683  10.039   5.164  0.2909 -0.9240 -0.4500
  979MOL0     N34981   4.801   9.969   5.206  0.0932 -0.5635 -0.1062
  979MOL0     C34982   4.821   9.915   5.335 -0.7521 -0.4848 -0.4980
  979MOL0     C34983   4.938   9.857   5.337  0.1502 -0.5291  0.1213
  979MOL0     C34984   5.013   9.795   5.443  0.5176  0.8753  0.0629
  979MOL0     C34985   4.939   9.774   5.564  0.2516  0.2999 -0.5381
  979MOL0     C34986   5.011   9.731   5.690  0.8677  0.1680 -1.3106
  979MOL0     C34987   4.930   9.646   5.788  0.1712  0.5036 -0.3428
  979MOL0     O34988   4.918   9.505   5.744 -0.7048  0.5193  0.3667
  979MOL0     C34989   4.816   9.437   5.800  0.5591 -0.5674  0.7671
  979MOL0     C34990   4.831   9.334   5.890  0.4541  0.2017  0.0240
  979MOL0     C34991   4.733   9.231   5.908 -0.2338 -0.3635  0.4832
  979MOL0     C34992   4.779   9.107   5.970 -0.1497  0.1211  0.5542
  979MOL0     C34993   4.598   9.253   5.862 -0.7729  0.2740 -0.3568
  979MOL0     C34994   4.485   9.162   5.884  0.5425  0.4654  0.5500
  979MOL0     O34995   4.364   9.220   5.856 -0.5743 -0.4930 -0.5646
  979MOL0     C34996   4.242   9.191   5.916  0.0188  0.2176  0.3388
  979MOL0     C34997   4.135   9.274   5.881 -0.9769  0.3795  0.5779
  979MOL0     C34998   4.006   9.247   5.923 -1.4495 -1.0308 -0.0106
  979MOL0     C34999   3.983   9.158   6.024  0.6308  0.6273 -0.3488
  979MOL0     O35000   3.853   9.139   6.065 -0.1527  0.0563 -0.3059
  979MOL0     C35001   3.825   9.154   6.206  0.8876  0.1458  0.6212
  979MOL0     C35002   3.701   9.242   6.213 -0.8986  0.9521 -0.5293
  979MOL0     C35003   3.589   9.210   6.122  0.0500 -0.2052  0.4858
  979MOL0     C35004   3.470   9.309   6.146 -0.8004 -0.2471  1.4642
  979MOL0     C35005   3.335   9.259   6.092  0.4640 -1.1000  0.8268
  979MOL0     C35006   3.221   9.373   6.097  0.1013  0.5810 -0.0576
  979MOL0     C35007   3.082   9.324   6.123  0.4612 -1.0972 -0.2542
  979MOL0     C35008   2.958   9.423   6.158 -0.0153  0.1241 -0.0111
  979MOL0    Cl35009   2.914   9.527   6.034 -0.5898  0.2547 -0.6923
  979MOL0     C35010   4.092   9.078   6.062  0.1999  0.4906 -0.7000
  979MOL0     C35011   4.215   9.085   6.007  0.2932 -0.3868  0.5203
  979MOL0     O35012   4.498   9.047   5.920  0.5850  0.2535  0.3859
  979MOL0     C35013   4.581   9.365   5.779  0.3225 -0.9814  0.2086
  979MOL0     C35014   4.693   9.444   5.745 -0.7901  0.1595  0.0070
  979MOL0     N35015   4.996   9.875   5.212  0.1930 -0.2096  0.2879
  979MOL0     N35016   4.911   9.934   5.131  0.4461 -0.1200  0.1981
  979MOL0     C35017   3.904  10.363   4.697  0.4405 -0.0481 -0.3239
  979MOL0     C35018   3.817  10.302   4.611 -1.1705 -0.0233 -0.1481
  979MOL0     C35019   3.494  10.279   4.290 -0.4855  0.0693  0.2118
  979MOL0     C35020   3.355  10.285   4.305  0.2085 -0.2160 -0.7489
  979MOL0     C35021   3.265  10.211   4.230 -0.8537  0.2048 -0.1728
  979MOL0     C35022   3.300  10.119   4.145 -0.5489 -0.7752 -0.1388
  979MOL0     O35023   3.209  10.049   4.074 -0.2392 -0.2391  0.7077
  979MOL0     C35024   3.075  10.032   4.128 -1.1723  0.1294  0.2036
  979MOL0     C35025   3.015   9.938   4.018 -1.2487 -0.8850 -0.2491
  979MOL0     C35026   2.864   9.946   4.026  1.0232  0.8511 -0.1353
  979MOL0     C35027   2.800   9.934   4.163 -0.6997 -0.4915 -0.3917
  979MOL0     C35028   2.655   9.931   4.141  0.5102  0.2246  0.7858
  979MOL0     C35029   2.538   9.921   4.107 -0.3006 -0.2475 -0.5157
  979MOL0     C35030   3.438  10.116   4.114  0.3371  0.5384  0.3572
  979MOL0     C35031   3.538  10.183   4.193  0.5489 -0.0690  0.5478
  979MOL0     C35032   3.674  10.162   4.144  0.2998  1.2913  0.0458
  979MOL0     H35033   3.812  10.537   4.375  0.5270 -1.9467 -0.6530
  979MOL0     H35034   3.956  10.661   4.552 -1.9457  1.3843  1.8846
  979MOL0     H35035   4.227  10.516   4.718 -0.5962  2.6253  1.8780
  979MOL0     H35036   4.150  10.368   4.761  2.1673 -1.2520  2.1324
  979MOL0     H35037   4.236  10.583   4.962 -2.0811  0.3477 -1.3661
  979MOL0     H35038   4.153  10.418   4.996  1.8074 -3.1349 -1.0698
  979MOL0     H35039   4.370  10.338   4.864  1.9773 -1.0957  1.0471
  979MOL0     H35040   4.420  10.504   4.908  0.0773  0.2931  0.6481
  979MOL0     H35041   4.384  10.464   5.148  0.5502  1.1253 -1.7721
  979MOL0     H35042   4.301  10.318   5.125 -1.8393  2.4148 -0.8634
  979MOL0     H35043   4.598  10.361   5.071  0.3303 -0.3315 -0.9249
  979MOL0     H35044   4.520  10.222   5.004 -0.7789  0.6720 -0.5827
  979MOL0     H35045   4.520  10.322   5.293  1.0305 -0.2156 -0.0829
  979MOL0     H35046   4.436  10.175   5.250  0.0091 -1.4527 -0.8177
  979MOL0     H35047   4.661  10.128   5.349  0.8624  0.6534  0.2318
  979MOL0     H35048   4.740  10.241   5.223 -3.0713  4.3043  0.0804
  979MOL0     H35049   4.590   9.983   5.181  1.3384 -2.1886  1.4030
  979MOL0     H35050   4.696  10.055   5.056 -0.5639  0.2131 -0.4071
  979MOL0     H35051   4.747   9.936   5.412  1.5250  3.1104  0.9521
  979MOL0     H35052   5.108   9.848   5.451  1.7148 -1.4420  2.8230
  979MOL0     H35053   5.045   9.693   5.419 -1.0011  0.4163 -0.1251
  979MOL0     H35054   4.880   9.863   5.587 -1.0494 -1.0194  1.5706
  979MOL0     H35055   4.864   9.695   5.553  2.0463 -1.4385 -0.8981
  979MOL0     H35056   5.091   9.660   5.665 -1.1354 -1.9076 -2.1430
  979MOL0     H35057   5.071   9.803   5.747  0.1767 -0.0345 -0.3069
  979MOL0     H35058   4.977   9.642   5.886 -0.5286 -3.2488 -0.0219
  979MOL0     H35059   4.833   9.692   5.808 -0.5227 -1.1734  0.3125
  979MOL0     H35060   4.936   9.322   5.916  0.9509  0.3745 -1.7658
  979MOL0     H35061   4.753   9.023   5.905 -0.5147 -1.0174  2.1121
  979MOL0     H35062   4.731   9.092   6.067 -0.4972 -0.7432  0.2562
  979MOL0     H35063   4.887   9.101   5.982 -0.2018 -0.3714  0.8115
  979MOL0     H35064   4.154   9.357   5.814 -0.6539 -1.5155 -1.8086
  979MOL0     H35065   3.918   9.307   5.898 -2.0864 -0.9192  2.2516
  979MOL0     H35066   3.792   9.054   6.237  0.8910 -0.7658 -2.0088
  979MOL0     H35067   3.907   9.199   6.263  0.0584 -1.2640  3.0673
  979MOL0     H35068   3.666   9.230   6.316  1.0756 -6.1184 -0.1092
  979MOL0     H35069   3.729   9.344   6.187  2.6435  0.1224 -0.4807
  979MOL0     H35070   3.560   9.106   6.140  2.4550 -0.9945  0.1261
  979MOL0     H35071   3.624   9.222   6.019 -0.2258 -0.0443  0.4112
  979MOL0     H35072   3.498   9.407   6.106 -2.4001  0.0205  0.9479
  979MOL0     H35073   3.450   9.330   6.252  1.2759  1.6192  1.5771
  979MOL0     H35074   3.348   9.233   5.986  1.1973  0.7780  0.4172
  979MOL0     H35075   3.301   9.171   6.147  2.9404 -2.6628  0.0171
  979MOL0     H35076   3.224   9.428   6.003 -1.5417 -0.5276 -0.7952
  979MOL0     H35077   3.244   9.450   6.172  2.7152  1.3869 -1.5332
  979MOL0     H35078   3.083   9.248   6.202 -3.5443 -1.6021 -0.5031
  979MOL0     H35079   3.052   9.274   6.031  0.4320 -2.7937  0.6307
  979MOL0     H35080   2.989   9.474   6.250  0.3816 -1.3973  0.7435
  979MOL0     H35081   2.870   9.360   6.173  0.7989 -1.1730 -0.5397
  979MOL0     H35082   4.079   9.007   6.142 -0.4052 -0.2502 -1.4380
  979MOL0     H35083   4.288   9.011   6.037 -0.0170 -0.7282  0.4358
  979MOL0     H35084   4.484   9.372   5.732  0.4113 -1.2385 -0.0135
  979MOL0     H35085   4.684   9.518   5.666  0.5589 -0.2920 -0.5949
  979MOL0     H35086   3.918  10.304   4.787 -2.3034  0.3036  0.4235
  979MOL0     H35087   3.775  10.206   4.642  2.0387 -1.3971  0.3321
  979MOL0     H35088   3.313  10.367   4.363  1.8884  0.5758 -0.5892
  979MOL0     H35089   3.166  10.254   4.240 -0.3790  1.5323 -0.8832
  979MOL0     H35090   3.084   9.975   4.221 -1.8014 -1.7987 -0.8608
  979MOL0     H35091   3.041  10.133   4.153  2.7548  1.6090  0.2081
  979MOL0     H35092   3.065   9.843   4.039  3.6998  1.5111  0.1993
  979MOL0     H35093   3.052   9.959   3.917  2.1586  1.4173  1.3036
  979MOL0     H35094   2.825  10.034   3.975  0.6814 -0.2638 -1.8678
  979MOL0     H35095   2.826   9.871   3.957 -1.6203 -0.4593  2.5391
  979MOL0     H35096   2.817  10.017   4.232 -1.4914  0.6115 -1.4903
  979MOL0     H35097   2.841   9.845   4.213  1.2653  1.3058  1.4470
  979MOL0     H35098   2.446   9.924   4.052 -0.0147  1.6021 -0.9688
  979MOL0     H35099   3.455  10.052   4.028  1.7277  1.7767 -0.3288
  979MOL0     H35100   3.716  10.239   4.078 -3.3875  2.3094 -1.3193
  979MOL0     H35101   3.745  10.147   4.226 -1.4349 -1.3491  1.1947
  979MOL0     H35102   3.684  10.065   4.094 -0.2794  1.3142 -0.1220
  980MOL0     O35103   2.540  11.211   1.499  0.6561 -0.6835  0.2042
  980MOL0     C35104   2.582  11.317   1.455 -0.8373  0.3444  0.0177
  980MOL0     O35105   2.706  11.337   1.400 -0.7249 -0.1067 -0.8308
  980MOL0     C35106   2.822  11.253   1.435  0.3889 -0.0627  0.6525
  980MOL0     C35107   2.845  11.163   1.546  0.0981  0.3346  0.9124
  980MOL0     C35108   2.967  11.094   1.557 -0.7893  0.8957  0.3671
  980MOL0     C35109   3.068  11.105   1.457 -0.4083 -0.2375  0.8965
  980MOL0     O35110   3.187  11.034   1.473 -0.0138 -0.2935  0.0799
  980MOL0     C35111   3.218  10.922   1.385 -0.1820 -0.7070 -0.3141
  980MOL0     C35112   3.233  10.955   1.236 -1.1971 -0.0021  0.0781
  980MOL0     C35113   3.309  10.835   1.166 -0.4438 -0.0621  0.3582
  980MOL0     C35114   3.357  10.876   1.022 -0.2263 -0.0719 -0.1938
  980MOL0     C35115   3.378  10.745   0.934 -0.1360 -0.8798  0.4407
  980MOL0     C35116   3.445  10.621   1.002 -1.0498  0.3576  1.1658
  980MOL0     C35117   3.526  10.535   0.907  0.1951 -0.6493 -0.2102
  980MOL0     C35118   3.447  10.497   0.787  0.1351  0.4907 -0.1230
  980MOL0     N35119   3.337  10.408   0.797  1.1640 -0.5045  0.5314
  980MOL0     C35120   3.200  10.441   0.811 -0.3628 -0.2622  0.9446
  980MOL0     C35121   3.148  10.335   0.744  1.2303 -0.0505 -0.9130
  980MOL0     C35122   3.004  10.318   0.729  0.5988  0.9850 -0.1446
  980MOL0     C35123   2.951  10.382   0.605 -0.2765  0.2870 -0.3596
  980MOL0     C35124   2.821  10.322   0.560 -0.6425 -0.4795 -0.3409
  980MOL0     C35125   2.792  10.324   0.415 -0.0646 -0.0505  0.6992
  980MOL0     O35126   2.871  10.221   0.347  0.5419  0.2522 -0.6353
  980MOL0     C35127   2.965  10.238   0.255  0.0304 -0.9509  0.7580
  980MOL0     C35128   3.053  10.132   0.218  0.1210  0.6306  0.4084
  980MOL0     C35129   3.147  10.150   0.116  0.3882  0.6688  0.1010
  980MOL0     C35130   3.237  10.034   0.102 -0.2135  0.2815  0.1064
  980MOL0     C35131   3.158  10.273   0.042  0.0560  0.6714 -0.3113
  980MOL0     C35132   3.241  10.294  -0.072  0.2675 -0.6119 -1.0219
  980MOL0     O35133   3.218  10.421  -0.133  0.8907 -0.2801 -0.7149
  980MOL0     C35134   3.282  10.450  -0.250 -0.3246 -0.1997 -0.3043
  980MOL0     C35135   3.417  10.469  -0.267  0.1619 -0.0107 -0.4185
  980MOL0     C35136   3.482  10.497  -0.386 -0.6526  0.0478 -0.8203
  980MOL0     C35137   3.405  10.523  -0.506 -0.4054  0.5899  0.1270
  980MOL0     O35138   3.454  10.535  -0.638 -0.5536  0.2542 -0.5280
  980MOL0     C35139   3.584  10.482  -0.666  0.1674  0.1883  0.4192
  980MOL0     C35140   3.586  10.329  -0.680 -0.2158 -0.2402 -0.8239
  980MOL0     C35141   3.478  10.268  -0.772  0.0436  0.6351  1.2515
  980MOL0     C35142   3.492  10.116  -0.784  0.4318 -0.3461  0.1714
  980MOL0     C35143   3.398  10.059  -0.891  0.5790 -0.2589  0.1381
  980MOL0     C35144   3.249  10.033  -0.852  0.2233 -0.7843  0.2323
  980MOL0     C35145   3.163   9.989  -0.975 -0.7036 -0.2215 -0.7406
  980MOL0     C35146   3.015   9.961  -0.935 -0.1244  1.1455  0.0098
  980MOL0    Cl35147   2.942  10.108  -0.872  0.2457  0.1900  0.0384
  980MOL0     C35148   3.267  10.516  -0.494 -0.8021 -0.5086  0.9615
  980MOL0     C35149   3.209  10.480  -0.370  0.6661 -0.1001 -0.7834
  980MOL0     O35150   3.334  10.220  -0.097 -0.7947  0.6775  0.2251
  980MOL0     C35151   3.066  10.370   0.084  0.7485  0.0268 -0.1498
  980MOL0     C35152   2.968  10.350   0.178 -0.0134  1.3812  0.2048
  980MOL0     N35153   3.240  10.241   0.705  0.0172 -0.3090  0.2111
  980MOL0     N35154   3.353  10.285   0.742 -0.7139 -0.3578  0.8151
  980MOL0     C35155   3.045  11.195   1.351 -0.8712 -0.5081 -1.0039
  980MOL0     C35156   2.924  11.267   1.337  0.1511 -0.1711 -0.1000
  980MOL0     C35157   2.499  11.443   1.459 -0.7324  1.3280  0.5938
  980MOL0     C35158   2.572  11.549   1.496  0.3441  0.1458  0.1006
  980MOL0     C35159   2.514  11.677   1.515 -0.3502  0.5723 -0.4159
  980MOL0     C35160   2.376  11.680   1.505  0.4618 -0.5621 -0.0046
  980MOL0     O35161   2.304  11.795   1.528 -0.5370  0.3479  0.5998
  980MOL0     C35162   2.359  11.907   1.607  0.6862  0.8867  0.6046
  980MOL0     C35163   2.269  12.037   1.596  0.3023  0.1541  0.2528
  980MOL0     C35164   2.126  12.007   1.654  0.3842  0.8205  0.3706
  980MOL0     C35165   2.025  12.133   1.630 -1.2933  0.4902 -0.0010
  980MOL0     C35166   2.011  12.184   1.495  0.0526 -0.1988 -0.1834
  980MOL0     C35167   2.013  12.240   1.388 -0.1093  0.2694 -1.0933
  980MOL0     C35168   2.301  11.568   1.475  0.0731  0.7297  0.5860
  980MOL0     C35169   2.362  11.446   1.445 -0.1472  0.3878 -0.4870
  980MOL0     C35170   2.285  11.335   1.387 -0.3645  0.4622 -1.0211
  980MOL0     H35171   2.770  11.143   1.622  1.8218  1.6358  3.0714
  980MOL0     H35172   2.989  11.027   1.640 -0.2029 -2.6956 -2.4744
  980MOL0     H35173   3.149  10.839   1.401 -0.5704 -0.0236  2.0908
  980MOL0     H35174   3.305  10.872   1.428 -0.3084 -1.0163 -0.4194
  980MOL0     H35175   3.143  10.975   1.178  0.4931 -0.3611 -2.8827
  980MOL0     H35176   3.298  11.043   1.234  1.1019 -1.4822  2.8446
  980MOL0     H35177   3.394  10.798   1.224 -1.1956 -1.1475  0.7880
  980MOL0     H35178   3.256  10.741   1.183  0.2408 -0.6536 -0.6526
  980MOL0     H35179   3.278  10.940   0.982 -0.3523  0.1458  0.3827
  980MOL0     H35180   3.451  10.930   1.010  2.0677 -3.7600 -0.2897
  980MOL0     H35181   3.450  10.771   0.855  0.9235 -2.3976  0.8523
  980MOL0     H35182   3.285  10.717   0.883 -1.1444  0.5136  1.4603
  980MOL0     H35183   3.506  10.652   1.087  1.0034  1.9071 -0.7402
  980MOL0     H35184   3.357  10.567   1.037 -1.3350 -0.5996 -0.8526
  980MOL0     H35185   3.543  10.445   0.966 -0.5258 -2.0619 -2.0387
  980MOL0     H35186   3.620  10.576   0.869 -1.8099  3.8597 -0.9234
  980MOL0     H35187   3.422  10.584   0.727  2.4064 -0.3820 -2.5395
  980MOL0     H35188   3.518  10.444   0.723  0.6653  0.0014  0.8462
  980MOL0     H35189   3.162  10.541   0.827 -2.8431 -0.8033 -1.0375
  980MOL0     H35190   2.956  10.358   0.819  0.3846  2.4249 -0.8726
  980MOL0     H35191   2.982  10.211   0.734 -0.1981  1.1292 -0.4534
  980MOL0     H35192   2.942  10.487   0.634 -0.1871 -0.2529  1.7632
  980MOL0     H35193   3.024  10.385   0.523 -1.0358 -4.4394 -1.4848
  980MOL0     H35194   2.814  10.218   0.592 -2.1126 -0.2305  0.2158
  980MOL0     H35195   2.750  10.388   0.611  1.6850  1.1556  1.0262
  980MOL0     H35196   2.690  10.286   0.405  0.2445 -1.4665  2.4547
  980MOL0     H35197   2.803  10.427   0.378 -1.0576 -0.2328 -0.1594
  980MOL0     H35198   3.050  10.039   0.273  1.2903  0.7102  0.6334
  980MOL0     H35199   3.183   9.952   0.149 -3.1852  1.3563 -1.1799
  980MOL0     H35200   3.339  10.053   0.138 -1.1764 -0.1913  3.3879
  980MOL0     H35201   3.241  10.008  -0.004 -1.5164  1.0994 -0.1600
  980MOL0     H35202   3.476  10.448  -0.178 -1.1952 -0.9845  0.2972
  980MOL0     H35203   3.590  10.496  -0.397 -0.6811  1.3407 -1.5010
  980MOL0     H35204   3.609  10.515  -0.767  1.5499  0.1219  0.7165
  980MOL0     H35205   3.659  10.518  -0.595 -1.2235  1.3413  1.3736
  980MOL0     H35206   3.690  10.306  -0.706  0.3838  0.1216  1.0814
  980MOL0     H35207   3.581  10.285  -0.580  4.6547  1.6494  0.5669
  980MOL0     H35208   3.492  10.323  -0.865 -2.7840  2.8764  1.9809
  980MOL0     H35209   3.379  10.287  -0.730  0.3186 -0.5953  2.5271
  980MOL0     H35210   3.482  10.053  -0.696  2.4255 -2.2897 -0.8919
  980MOL0     H35211   3.591  10.107  -0.831  0.3281 -0.1926 -0.0829
  980MOL0     H35212   3.398  10.140  -0.965  0.0542  0.8608  1.3278
  980MOL0     H35213   3.446   9.968  -0.929 -2.2787 -1.9518  0.2233
  980MOL0     H35214   3.221  10.135  -0.826  1.6711  0.0401 -1.2324
  980MOL0     H35215   3.254   9.960  -0.771  3.6072  1.1441  1.9928
  980MOL0     H35216   3.210   9.907  -1.031  1.0775 -0.6861  1.2780
  980MOL0     H35217   3.161  10.085  -1.029 -0.1408 -0.2533 -0.8231
  980MOL0     H35218   3.017   9.886  -0.856  1.7805  0.6783 -0.4289
  980MOL0     H35219   2.956   9.938  -1.024 -0.3985 -1.5314  0.7983
  980MOL0     H35220   3.203  10.522  -0.582  0.0293  3.2009  0.4131
  980MOL0     H35221   3.101  10.480  -0.361  0.2692 -0.5021 -4.2907
  980MOL0     H35222   3.075  10.468   0.039 -1.2578  0.8674  1.1426
  980MOL0     H35223   2.898  10.432   0.191 -1.3558  0.7154 -2.0793
  980MOL0     H35224   3.122  11.208   1.275  1.2324  1.6057  1.3161
  980MOL0     H35225   2.924  11.331   1.249  0.1102  0.9672  0.7049
  980MOL0     H35226   2.674  11.541   1.530  0.0313  2.7480  1.9847
  980MOL0     H35227   2.584  11.758   1.535  0.7993  0.2138 -2.6513
  980MOL0     H35228   2.373  11.870   1.709  1.9267  0.0513  0.1591
  980MOL0     H35229   2.451  11.942   1.559  0.5428 -1.1412 -1.3334
  980MOL0     H35230   2.263  12.065   1.490 -0.9059  2.0811  0.7922
  980MOL0     H35231   2.310  12.121   1.652 -0.6789 -0.3546  1.8093
  980MOL0     H35232   2.081  11.925   1.598  1.8960 -1.7207  2.6266
  980MOL0     H35233   2.129  11.980   1.760 -0.5630  1.7600  0.6490
  980MOL0     H35234   2.050  12.211   1.703 -1.0772 -1.8878  2.6644
  980MOL0     H35235   1.928  12.097   1.668 -2.1979  3.4673  0.7864
  980MOL0     H35236   2.007  12.288   1.293  0.1396  0.2579 -1.1157
  980MOL0     H35237   2.193  11.572   1.468 -0.1318  0.4417  2.8297
  980MOL0     H35238   2.331  11.294   1.297 -0.2370  0.6481 -1.0418
  980MOL0     H35239   2.269  11.254   1.459  3.0334  0.6827  0.1454
  980MOL0     H35240   2.187  11.369   1.350 -0.1225 -0.1212 -2.2252
  981MOL0     O35241   0.197   1.038   5.679  0.7366  0.1116 -0.3078
  981MOL0     C35242   0.287   1.064   5.755 -0.4774  0.5836  0.6246
  981MOL0     O35243   0.271   1.105   5.888 -0.0303  0.4399 -0.1643
  981MOL0     C35244   0.150   1.123   5.947  0.2471  0.1754  0.2231
  981MOL0     C35245   0.136   1.086   6.082  0.1430  0.8774 -1.4012
  981MOL0     C35246   0.022   1.130   6.154 -0.4486  0.4862 -0.0682
  981MOL0     C35247  -0.077   1.206   6.096  1.6245 -0.7155  0.1009
  981MOL0     O35248  -0.186   1.254   6.173  0.3859 -0.1714  0.3999
  981MOL0     C35249  -0.247   1.162   6.254  0.3796  0.5486 -0.8962
  981MOL0     C35250  -0.362   1.244   6.307  0.2777 -0.1675  0.1740
  981MOL0     C35251  -0.444   1.143   6.402 -0.3519  0.5489  0.1185
  981MOL0     C35252  -0.583   1.205   6.397  1.3122  0.8710  0.6484
  981MOL0     C35253  -0.684   1.138   6.484 -0.1471  0.1355 -0.3149
  981MOL0     C35254  -0.817   1.136   6.417  1.1690  0.2532  0.1492
  981MOL0     C35255  -0.939   1.072   6.493  0.3954 -1.0032 -1.0302
  981MOL0     C35256  -0.970   1.157   6.627  0.0642 -0.4460 -0.6585
  981MOL0     N35257  -1.097   1.123   6.686  0.6927  0.0863  0.9475
  981MOL0     C35258  -1.214   1.096   6.611  0.2466  0.2022 -0.5998
  981MOL0     C35259  -1.295   1.058   6.712  0.1560 -0.1618 -0.0645
  981MOL0     C35260  -1.445   1.038   6.701 -0.2095 -0.4185  0.3304
  981MOL0     C35261  -1.495   0.897   6.725 -0.5026  0.8443  0.4958
  981MOL0     C35262  -1.639   0.868   6.767 -0.7779  0.0740  0.0561
  981MOL0     C35263  -1.678   0.939   6.897 -0.0012 -0.1683  0.2229
  981MOL0     O35264  -1.658   0.838   6.995 -0.6790  0.2850 -0.5622
  981MOL0     C35265  -1.766   0.754   7.013 -0.1133  0.0507  0.7513
  981MOL0     C35266  -1.879   0.790   7.085  0.4279 -0.1191 -0.0841
  981MOL0     C35267  -1.979   0.694   7.112 -0.5312 -0.7060  0.6896
  981MOL0     C35268  -2.107   0.753   7.172  0.5124  0.4198  0.7364
  981MOL0     C35269  -1.964   0.559   7.072 -0.1007  0.1278  0.1402
  981MOL0     C35270  -2.067   0.453   7.106 -0.3911 -0.5073  0.1386
  981MOL0     O35271  -2.073   0.349   7.021 -0.1517  0.3614  0.6974
  981MOL0     C35272  -2.119   0.221   7.036  1.0175 -1.1264  0.5724
  981MOL0     C35273  -2.064   0.112   6.968  0.7234  0.4508  0.1522
  981MOL0     C35274  -2.103  -0.022   6.990  0.5848  0.1394  0.1593
  981MOL0     C35275  -2.201  -0.042   7.090  0.2612  0.6920  0.1313
  981MOL0     O35276  -2.244  -0.174   7.116 -1.2021  0.3652  0.6091
  981MOL0     C35277  -2.374  -0.191   7.060 -0.4450 -0.3259  0.3240
  981MOL0     C35278  -2.436  -0.320   7.120 -0.4251 -0.3231  0.0679
  981MOL0     C35279  -2.473  -0.308   7.271  0.1464 -0.1924  0.5326
  981MOL0     C35280  -2.604  -0.224   7.284 -0.6559 -0.2726 -0.1555
  981MOL0     C35281  -2.728  -0.308   7.271 -0.3520 -0.5781  0.4896
  981MOL0     C35282  -2.852  -0.220   7.290  0.3244 -0.1911 -0.6790
  981MOL0     C35283  -2.971  -0.297   7.225  0.7727 -0.1938 -0.3685
  981MOL0     C35284  -3.098  -0.212   7.219  0.1406 -0.5518  0.1986
  981MOL0    Cl35285  -3.076  -0.059   7.118 -0.1006  0.3489 -0.0376
  981MOL0     C35286  -2.253   0.067   7.162 -0.4023  0.0108  0.3234
  981MOL0     C35287  -2.224   0.196   7.126 -1.0940  0.1351 -0.6454
  981MOL0     O35288  -2.125   0.457   7.211  0.4466 -0.7704 -0.3611
  981MOL0     C35289  -1.852   0.520   7.004 -0.4598 -0.9280  0.2919
  981MOL0     C35290  -1.750   0.622   6.972 -0.0235 -0.5745 -0.9124
  981MOL0     N35291  -1.227   1.037   6.827 -0.2285  0.5557  0.4502
  981MOL0     N35292  -1.116   1.096   6.815  1.3683  0.4310  0.2361
  981MOL0     C35293  -0.066   1.247   5.962 -0.3451  1.1120 -0.9889
  981MOL0     C35294   0.052   1.209   5.890 -0.4209 -0.6422  0.1595
  981MOL0     C35295   0.430   1.045   5.721  0.9636  0.2171  0.3194
  981MOL0     C35296   0.520   1.157   5.724 -1.0717 -0.1498  0.2644
  981MOL0     C35297   0.663   1.145   5.717  0.2684 -0.5749 -0.2635
  981MOL0     C35298   0.714   1.027   5.661 -0.8512  0.7917  0.0148
  981MOL0     O35299   0.852   1.023   5.657 -0.6693 -0.9663 -0.8425
  981MOL0     C35300   0.923   0.901   5.650  0.1138 -0.0424 -0.8342
  981MOL0     C35301   1.070   0.928   5.639 -0.5484 -0.4803 -0.4316
  981MOL0     C35302   1.095   1.005   5.510 -0.7780 -0.8708  0.3721
  981MOL0     C35303   1.235   1.049   5.506  0.3519  0.2689 -0.6131
  981MOL0     C35304   1.265   1.103   5.372 -1.0550  0.0376  0.3321
  981MOL0     C35305   1.304   1.164   5.273 -0.9937  0.4987  1.1122
  981MOL0     C35306   0.626   0.926   5.628 -0.1577 -0.1181 -0.1898
  981MOL0     C35307   0.493   0.934   5.665  0.7788 -1.3757 -0.8914
  981MOL0     C35308   0.407   0.814   5.652 -0.2870  0.7976 -0.9263
  981MOL0     H35309   0.208   1.016   6.122 -1.2918 -0.9334 -1.8403
  981MOL0     H35310   0.001   1.109   6.258 -0.6024  0.3677 -0.1228
  981MOL0     H35311  -0.187   1.139   6.343 -2.4652 -0.0599  0.9993
  981MOL0     H35312  -0.266   1.068   6.201 -2.4785 -1.0624  2.5435
  981MOL0     H35313  -0.311   1.327   6.357  1.3887  0.7435 -2.2944
  981MOL0     H35314  -0.431   1.289   6.234  0.5283 -0.4072 -0.2167
  981MOL0     H35315  -0.436   1.042   6.360  5.0408  1.5528 -2.1838
  981MOL0     H35316  -0.417   1.157   6.507  0.0036  0.8073 -0.0072
  981MOL0     H35317  -0.585   1.311   6.425 -0.8652  0.8126  0.8813
  981MOL0     H35318  -0.628   1.198   6.297  1.8807  1.0751  0.3769
  981MOL0     H35319  -0.679   1.190   6.580 -2.0471  1.4456 -0.8798
  981MOL0     H35320  -0.661   1.034   6.509 -0.1665  0.6746  2.2790
  981MOL0     H35321  -0.844   1.236   6.381 -0.6181 -0.2444 -0.0255
  981MOL0     H35322  -0.803   1.074   6.328  1.1122  1.3766 -0.6739
  981MOL0     H35323  -0.917   0.968   6.516  0.1674 -0.4087  2.3041
  981MOL0     H35324  -1.030   1.072   6.432 -1.5467 -0.1475  1.6982
  981MOL0     H35325  -0.888   1.157   6.699 -0.2292  0.5490 -0.3109
  981MOL0     H35326  -0.973   1.263   6.604 -0.2942  0.2685  2.2843
  981MOL0     H35327  -1.243   1.104   6.507 -1.1703 -0.2985 -0.2638
  981MOL0     H35328  -1.472   1.061   6.598 -2.4134 -1.2859  0.6488
  981MOL0     H35329  -1.498   1.107   6.767 -2.0036 -2.2307  0.9103
  981MOL0     H35330  -1.471   0.842   6.634 -0.5055  0.3406  0.7941
  981MOL0     H35331  -1.435   0.840   6.797  1.5393 -0.1883 -1.8748
  981MOL0     H35332  -1.709   0.891   6.686 -0.6997 -0.3221 -0.1229
  981MOL0     H35333  -1.654   0.760   6.770  0.2092 -0.0919 -0.7357
  981MOL0     H35334  -1.621   1.026   6.930  1.3464 -2.6311  5.3543
  981MOL0     H35335  -1.782   0.973   6.898 -0.9976 -2.5953  4.1126
  981MOL0     H35336  -1.880   0.895   7.115  5.3451 -0.5412  2.6537
  981MOL0     H35337  -2.189   0.694   7.131  2.3645 -2.1129  0.4856
  981MOL0     H35338  -2.120   0.860   7.154 -0.6583  0.9046  3.7756
  981MOL0     H35339  -2.108   0.748   7.281  4.3396 -1.4238  0.8536
  981MOL0     H35340  -1.985   0.138   6.898  0.9587 -0.3060  0.1322
  981MOL0     H35341  -2.054  -0.102   6.936 -0.6013  1.1871 -2.7037
  981MOL0     H35342  -2.434  -0.103   7.084  2.1219  1.6528 -0.1132
  981MOL0     H35343  -2.365  -0.207   6.952  2.1957 -2.0871  0.7040
  981MOL0     H35344  -2.519  -0.359   7.061  2.1323 -1.1345 -3.3393
  981MOL0     H35345  -2.357  -0.395   7.113 -0.2511 -0.2434  1.1027
  981MOL0     H35346  -2.393  -0.262   7.329 -0.3853  1.4394  0.0426
  981MOL0     H35347  -2.489  -0.408   7.312 -0.1065 -1.3432 -2.1246
  981MOL0     H35348  -2.593  -0.136   7.221 -0.6160  1.4453  2.1092
  981MOL0     H35349  -2.604  -0.183   7.385  2.5384 -1.0621  0.2916
  981MOL0     H35350  -2.737  -0.362   7.176 -1.1106 -3.2467  1.9653
  981MOL0     H35351  -2.734  -0.384   7.349 -0.2616 -0.8203  0.2647
  981MOL0     H35352  -2.837  -0.121   7.245 -0.5493 -0.6135 -1.9801
  981MOL0     H35353  -2.867  -0.207   7.397 -3.8110 -0.2544 -1.1010
  981MOL0     H35354  -2.982  -0.394   7.274  1.5526 -0.5763 -0.9201
  981MOL0     H35355  -2.947  -0.305   7.118  0.3872  3.0019 -0.7810
  981MOL0     H35356  -3.138  -0.195   7.319 -4.0268 -4.0889 -0.5654
  981MOL0     H35357  -3.175  -0.274   7.173  1.1215 -1.1674 -0.6817
  981MOL0     H35358  -2.331   0.047   7.234 -1.3951 -2.2081 -1.2550
  981MOL0     H35359  -2.293   0.268   7.170 -0.1178  0.5712  0.2025
  981MOL0     H35360  -1.849   0.417   6.971 -3.0939 -1.1989  0.6801
  981MOL0     H35361  -1.659   0.599   6.918 -0.9438 -1.6058 -2.0942
  981MOL0     H35362  -0.150   1.309   5.930 -0.3332  0.4003 -2.4635
  981MOL0     H35363   0.079   1.245   5.791  0.4508  3.0630  1.5769
  981MOL0     H35364   0.485   1.256   5.753  0.3710 -0.1563  2.1474
  981MOL0     H35365   0.716   1.229   5.760  0.5662 -0.9899  0.1926
  981MOL0     H35366   0.895   0.842   5.739 -2.0768  1.1149 -0.6905
  981MOL0     H35367   0.892   0.845   5.561 -2.5460  1.4818 -0.9628
  981MOL0     H35368   1.125   0.834   5.642  0.2086 -0.1303 -2.3292
  981MOL0     H35369   1.083   0.999   5.722  0.1994  1.1723 -1.9080
  981MOL0     H35370   1.068   0.946   5.422 -1.8037  0.0155  0.0712
  981MOL0     H35371   1.019   1.084   5.509 -0.7789 -0.8697  0.4935
  981MOL0     H35372   1.299   0.965   5.535 -0.8172 -0.7864 -0.9969
  981MOL0     H35373   1.264   1.128   5.576  2.3200 -1.7769  1.0359
  981MOL0     H35374   1.337   1.226   5.193  2.9248  0.1324  2.2332
  981MOL0     H35375   0.654   0.833   5.579 -0.0255 -0.1112 -0.1272
  981MOL0     H35376   0.330   0.806   5.729 -0.5738  0.2764 -1.2636
  981MOL0     H35377   0.347   0.804   5.561 -0.1713 -2.4958 -0.7429
  981MOL0     H35378   0.470   0.725   5.657  1.4858  2.0245 -0.3118
  982MOL0     O35379   5.033   5.872   5.247 -0.6432 -0.7027  0.4619
  982MOL0     C35380   5.085   5.977   5.206 -0.5717  0.7131 -1.5256
  982MOL0     O35381   5.209   5.980   5.151  1.0294  0.1404 -0.2015
  982MOL0     C35382   5.282   5.868   5.156  0.0190  0.2503  0.2348
  982MOL0     C35383   5.384   5.864   5.252 -0.4936 -0.1289  0.4603
  982MOL0     C35384   5.479   5.757   5.254  1.4694 -0.5723 -0.0309
  982MOL0     C35385   5.462   5.650   5.165 -0.6917  0.2995  0.2917
  982MOL0     O35386   5.540   5.539   5.151  0.1176  0.6399  0.0627
  982MOL0     C35387   5.662   5.566   5.083  0.0574  0.0042  0.1169
  982MOL0     C35388   5.766   5.459   5.115  0.3198 -0.4666 -0.0360
  982MOL0     C35389   5.867   5.435   5.005 -0.0917  0.0277  0.7188
  982MOL0     C35390   5.936   5.304   5.040  0.4817 -0.3933 -0.5199
  982MOL0     C35391   6.018   5.245   4.922  0.5701 -0.6755 -0.3307
  982MOL0     C35392   6.071   5.111   4.955  0.2662 -0.2853  0.5214
  982MOL0     C35393   6.146   5.063   4.824  0.1756 -0.7856  0.4460
  982MOL0     C35394   6.148   4.904   4.820  2.2591  0.3966 -0.7002
  982MOL0     N35395   6.212   4.858   4.942 -0.4090  0.5092  0.2368
  982MOL0     C35396   6.350   4.840   4.962  0.4231 -0.6117  0.0858
  982MOL0     C35397   6.377   4.813   5.090  0.8007 -0.2202  0.6822
  982MOL0     C35398   6.516   4.802   5.151  0.5621  0.4427 -0.3711
  982MOL0     C35399   6.494   4.792   5.300  0.3906  0.1710 -1.2749
  982MOL0     C35400   6.617   4.730   5.375 -0.0097 -1.2909  0.1651
  982MOL0     C35401   6.605   4.755   5.531  0.0085 -0.5857  0.4717
  982MOL0     O35402   6.732   4.764   5.595 -0.1306 -0.7026 -0.3223
  982MOL0     C35403   6.799   4.655   5.646 -0.3458 -1.4181  0.4560
  982MOL0     C35404   6.920   4.621   5.594  0.3996  0.4381 -0.5490
  982MOL0     C35405   6.990   4.503   5.636  0.1941  0.3724  0.6523
  982MOL0     C35406   7.109   4.454   5.559 -0.2901 -0.3366  0.2535
  982MOL0     C35407   6.937   4.431   5.754  0.6370  1.2219  0.6118
  982MOL0     C35408   7.003   4.309   5.807 -0.0532  0.5345  0.3088
  982MOL0     O35409   6.922   4.192   5.797 -0.3382 -0.7981 -0.0327
  982MOL0     C35410   6.975   4.077   5.846  0.8328 -0.4839 -0.4094
  982MOL0     C35411   7.084   4.018   5.782 -0.0137 -0.6316  0.3698
  982MOL0     C35412   7.133   3.899   5.820 -0.7766  0.7213 -0.4298
  982MOL0     C35413   7.077   3.827   5.922  1.5041 -0.1671 -1.1606
  982MOL0     O35414   7.112   3.705   5.973  0.2881 -0.1548 -0.1184
  982MOL0     C35415   7.204   3.628   5.895 -0.7969 -1.0457  0.1868
  982MOL0     C35416   7.215   3.487   5.949  0.7103 -0.1271 -0.1187
  982MOL0     C35417   7.074   3.426   5.940 -0.1526 -0.0525  0.2042
  982MOL0     C35418   7.082   3.284   6.008 -0.1592  0.7951  0.2526
  982MOL0     C35419   6.951   3.199   5.996 -0.2625  0.3265 -0.2839
  982MOL0     C35420   6.987   3.052   6.020  0.4400  0.3012 -0.2356
  982MOL0     C35421   6.862   2.970   5.993  1.1236  0.6928  0.0438
  982MOL0     C35422   6.877   2.836   6.069 -0.3416 -1.0746  0.4559
  982MOL0    Cl35423   6.747   2.716   6.053  0.0864 -0.0277 -0.3498
  982MOL0     C35424   6.965   3.888   5.989  0.1521 -0.2124 -0.4095
  982MOL0     C35425   6.916   4.016   5.960 -1.0239  0.7447  0.0240
  982MOL0     O35426   7.116   4.311   5.846 -0.1810  0.1749  0.2538
  982MOL0     C35427   6.814   4.482   5.810  0.2356 -0.7125  0.2162
  982MOL0     C35428   6.750   4.593   5.758  0.2348 -0.3988 -0.4075
  982MOL0     N35429   6.251   4.822   5.156  0.4028 -0.0073 -0.5999
  982MOL0     N35430   6.164   4.848   5.070 -0.2631 -0.0460 -0.2396
  982MOL0     C35431   5.357   5.645   5.071  0.2301  0.5238  0.4693
  982MOL0     C35432   5.266   5.757   5.071  0.0083  0.3258 -0.2778
  982MOL0     C35433   5.005   6.101   5.205 -1.0159  0.5832 -0.6279
  982MOL0     C35434   4.913   6.115   5.312 -0.4171  0.2649 -0.1540
  982MOL0     C35435   4.849   6.232   5.336  0.6998  0.4130  0.9910
  982MOL0     C35436   4.863   6.340   5.248 -0.6283  0.2340 -0.2584
  982MOL0     O35437   4.796   6.454   5.278  0.7780  0.9971  0.2100
  982MOL0     C35438   4.832   6.581   5.220  0.1955 -0.2191 -0.2211
  982MOL0     C35439   4.966   6.629   5.270  0.6841  0.0750 -0.6040
  982MOL0     C35440   4.980   6.788   5.297 -0.1181  0.2126  0.3696
  982MOL0     C35441   5.097   6.821   5.392  0.4878  0.3484  0.2343
  982MOL0     C35442   5.115   6.971   5.415  0.0014  0.1916  0.1463
  982MOL0     C35443   5.117   7.089   5.437  0.2864 -0.2019  0.1392
  982MOL0     C35444   4.935   6.326   5.128  0.6142  0.2983 -0.2399
  982MOL0     C35445   5.022   6.209   5.114 -0.6476 -0.8840  0.2418
  982MOL0     C35446   5.111   6.199   4.990 -0.1784  0.1470  0.6516
  982MOL0     H35447   5.403   5.948   5.317  4.4036 -1.9002  1.7970
  982MOL0     H35448   5.560   5.764   5.326 -0.9351  0.5248  2.7620
  982MOL0     H35449   5.713   5.655   5.119  0.3151 -1.0100  2.4448
  982MOL0     H35450   5.652   5.587   4.976 -2.1267  2.4431  0.6774
  982MOL0     H35451   5.814   5.486   5.209 -2.1283 -2.0461  1.7846
  982MOL0     H35452   5.722   5.359   5.126  1.8672 -1.3501 -1.4426
  982MOL0     H35453   5.824   5.431   4.904 -2.5466 -0.1360  1.7025
  982MOL0     H35454   5.935   5.520   5.008 -1.6099  1.3562 -0.2925
  982MOL0     H35455   6.007   5.327   5.120  3.1765  0.6224 -3.0102
  982MOL0     H35456   5.867   5.226   5.073 -0.8472  0.3710 -1.3980
  982MOL0     H35457   6.101   5.315   4.906 -0.3223  0.7649  1.0319
  982MOL0     H35458   5.957   5.237   4.831 -1.8429  1.3791  0.9636
  982MOL0     H35459   6.132   5.107   5.046 -0.0813  0.5867  0.8006
  982MOL0     H35460   5.983   5.047   4.965  0.5100 -0.9108 -1.0038
  982MOL0     H35461   6.247   5.105   4.832 -1.1596  2.4698  6.1236
  982MOL0     H35462   6.090   5.106   4.741  0.4611 -0.6662  0.3134
  982MOL0     H35463   6.047   4.863   4.818  1.0445  3.1532 -1.7396
  982MOL0     H35464   6.200   4.867   4.731  4.0858 -0.9413  0.8176
  982MOL0     H35465   6.421   4.839   4.880  0.2193  4.5420 -0.4818
  982MOL0     H35466   6.582   4.887   5.130  1.6501 -0.7077 -1.8228
  982MOL0     H35467   6.574   4.719   5.111  2.4013  1.4365  0.1320
  982MOL0     H35468   6.484   4.899   5.320  2.2794  0.5682 -2.2298
  982MOL0     H35469   6.398   4.743   5.317  0.8821 -0.9321 -1.5598
  982MOL0     H35470   6.628   4.624   5.349 -0.3016 -0.9039 -1.6454
  982MOL0     H35471   6.704   4.789   5.343 -0.2517 -2.0053 -1.9800
  982MOL0     H35472   6.557   4.853   5.524 -0.0018 -0.7028 -1.8077
  982MOL0     H35473   6.545   4.681   5.585  1.4269 -2.5935 -0.5580
  982MOL0     H35474   6.955   4.669   5.503 -3.2183  3.5824 -0.5015
  982MOL0     H35475   7.187   4.427   5.631  1.8539  0.5132 -1.6646
  982MOL0     H35476   7.146   4.531   5.492 -0.7223 -1.8903 -1.9064
  982MOL0     H35477   7.107   4.363   5.498 -0.6164 -0.3222  0.2355
  982MOL0     H35478   7.122   4.072   5.696 -1.8688 -0.4371 -0.3841
  982MOL0     H35479   7.218   3.870   5.759 -1.5532  2.5207 -2.5141
  982MOL0     H35480   7.168   3.630   5.791 -0.9076  3.9226  0.0923
  982MOL0     H35481   7.302   3.676   5.901 -2.4001  2.3459  2.5514
  982MOL0     H35482   7.301   3.433   5.909 -0.7126 -0.9434 -2.2610
  982MOL0     H35483   7.241   3.510   6.052 -1.9844 -3.2308  1.4406
  982MOL0     H35484   7.034   3.413   5.839 -1.3908 -1.4169  0.8249
  982MOL0     H35485   7.003   3.477   6.007  1.4314 -1.9575  3.6127
  982MOL0     H35486   7.117   3.298   6.110  0.8307  2.3925 -0.2644
  982MOL0     H35487   7.166   3.233   5.960  0.4894 -0.4536  2.5559
  982MOL0     H35488   6.881   3.232   6.074  0.4237  0.4331  0.2983
  982MOL0     H35489   6.905   3.210   5.898  1.8509  2.8330 -1.1161
  982MOL0     H35490   7.017   3.034   6.123 -3.2082 -0.9386  0.7922
  982MOL0     H35491   7.073   3.024   5.959  0.4603 -0.1738 -0.0001
  982MOL0     H35492   6.852   2.960   5.884  1.2264  1.6708 -0.0720
  982MOL0     H35493   6.771   3.014   6.035  0.5364 -0.4386 -0.0163
  982MOL0     H35494   6.898   2.859   6.174 -0.8378 -1.9877  0.7627
  982MOL0     H35495   6.970   2.790   6.033  0.8363  0.9359  0.7323
  982MOL0     H35496   6.914   3.836   6.068  0.2081  0.9416  0.4196
  982MOL0     H35497   6.831   4.064   6.006 -1.2871 -0.9167  1.3489
  982MOL0     H35498   6.767   4.434   5.896 -2.0532 -1.6311 -1.4436
  982MOL0     H35499   6.656   4.622   5.804 -1.1154 -1.1384 -2.5771
  982MOL0     H35500   5.356   5.577   4.986  0.2853 -1.5406  2.0738
  982MOL0     H35501   5.192   5.755   4.992 -1.4717  0.8613  1.0399
  982MOL0     H35502   4.906   6.030   5.380  0.2103  1.1846  1.1180
  982MOL0     H35503   4.785   6.258   5.420 -1.3165  2.3125 -1.0072
  982MOL0     H35504   4.826   6.591   5.111 -0.9229 -0.6285 -0.2117
  982MOL0     H35505   4.755   6.649   5.259 -0.6849 -1.6307  0.6127
  982MOL0     H35506   5.043   6.589   5.203  0.9740  2.0566 -1.5061
  982MOL0     H35507   4.996   6.580   5.363  0.8638  2.7051  0.7937
  982MOL0     H35508   4.981   6.832   5.197 -0.6320 -0.7210 -0.0618
  982MOL0     H35509   4.885   6.822   5.341 -1.9452 -3.4821 -0.2887
  982MOL0     H35510   5.183   6.778   5.340  0.0043 -0.6450  0.2382
  982MOL0     H35511   5.074   6.775   5.489 -0.2372  2.0088  0.8990
  982MOL0     H35512   5.119   7.194   5.460  3.9484 -0.2083  0.5382
  982MOL0     H35513   4.927   6.409   5.059 -0.1273  0.9786  0.6518
  982MOL0     H35514   5.057   6.241   4.905 -0.0317 -1.1578 -0.1263
  982MOL0     H35515   5.211   6.241   5.002  0.9232 -2.1600  0.1934
  982MOL0     H35516   5.126   6.095   4.959  1.6506  0.9249 -1.2622
  983MOL0     O35517  10.868  10.909   2.493  0.1858  0.7067 -0.1789
  983MOL0     C35518  10.805  10.881   2.595 -0.6049 -0.3979 -1.1573
  983MOL0     O35519  10.863  10.872   2.726 -0.6629 -0.0216  0.7862
  983MOL0     C35520  10.993  10.907   2.737 -1.0038  0.3590 -0.1100
  983MOL0     C35521  11.010  11.038   2.779  0.2795 -0.2745 -0.2333
  983MOL0     C35522  11.140  11.091   2.775 -0.3949  0.1132 -0.6826
  983MOL0     C35523  11.249  11.009   2.735  0.1808 -0.2446  1.2610
  983MOL0     O35524  11.377  11.048   2.735  0.2310  0.6845  0.3439
  983MOL0     C35525  11.413  11.180   2.742 -0.2660 -0.8568  0.2402
  983MOL0     C35526  11.553  11.212   2.682 -0.5958 -1.1259 -0.6311
  983MOL0     C35527  11.545  11.224   2.527 -0.0461 -0.0407  0.5995
  983MOL0     C35528  11.681  11.278   2.465  0.2063 -0.0189 -0.5684
  983MOL0     C35529  11.680  11.306   2.314  0.4381  0.4881 -0.1161
  983MOL0     C35530  11.655  11.176   2.232  0.0042  0.4586  0.0870
  983MOL0     C35531  11.795  11.117   2.190 -0.3462  1.1021  0.2269
  983MOL0     C35532  11.771  10.979   2.142  0.2408  0.5278 -0.7672
  983MOL0     N35533  11.880  10.914   2.072 -0.1813  0.5402  0.2178
  983MOL0     C35534  12.011  10.908   2.117 -0.5620 -0.4504  0.3907
  983MOL0     C35535  12.087  10.873   2.008  0.2521  0.0867  0.1474
  983MOL0     C35536  12.242  10.864   2.004  0.2908  0.0509 -0.5049
  983MOL0     C35537  12.309  10.932   1.895 -1.3757  0.4807  1.2429
  983MOL0     C35538  12.268  11.080   1.866 -0.4547  0.0034 -0.1291
  983MOL0     C35539  12.281  11.101   1.717 -0.9754  0.3486 -0.3811
  983MOL0     O35540  12.260  11.237   1.682 -0.4891 -0.9064  0.2084
  983MOL0     C35541  12.250  11.273   1.549 -0.1244 -0.0271 -0.1322
  983MOL0     C35542  12.162  11.373   1.509 -0.2327  0.1148 -0.3189
  983MOL0     C35543  12.152  11.420   1.379  1.1306 -0.0538  0.0074
  983MOL0     C35544  12.058  11.540   1.356  0.3743  0.3205 -0.0426
  983MOL0     C35545  12.217  11.343   1.284  0.4664  0.5863 -0.2702
  983MOL0     C35546  12.208  11.374   1.143 -0.0523 -0.6243  0.5820
  983MOL0     O35547  12.321  11.378   1.058  0.7790  0.2256 -0.2070
  983MOL0     C35548  12.307  11.437   0.936  0.7560 -1.2857  0.4898
  983MOL0     C35549  12.373  11.566   0.922  1.1912  0.7558 -0.8762
  983MOL0     C35550  12.363  11.607   0.793 -0.1770  0.5432  0.1317
  983MOL0     C35551  12.294  11.545   0.687  0.8722  0.4640  0.0453
  983MOL0     O35552  12.263  11.599   0.564  0.3985 -0.3643 -0.0843
  983MOL0     C35553  12.146  11.679   0.560 -0.2812 -0.6474 -0.1575
  983MOL0     C35554  12.059  11.680   0.430  1.2235 -0.6220  0.9767
  983MOL0     C35555  11.962  11.564   0.445  0.0763  0.3026  0.0298
  983MOL0     C35556  11.882  11.534   0.315 -0.3337  0.5808  0.0846
  983MOL0     C35557  11.763  11.446   0.358 -0.2856 -0.0766  0.0800
  983MOL0     C35558  11.669  11.403   0.239 -0.0832  0.5930 -0.5132
  983MOL0     C35559  11.560  11.310   0.287 -0.0684  0.2787 -0.0160
  983MOL0     C35560  11.438  11.360   0.360 -0.9386 -0.6019 -0.5581
  983MOL0    Cl35561  11.288  11.369   0.260 -0.0558 -0.0429  0.1745
  983MOL0     C35562  12.245  11.410   0.703  0.4582 -0.7392  0.0309
  983MOL0     C35563  12.254  11.357   0.834  0.0060 -0.0278 -0.0577
  983MOL0     O35564  12.097  11.386   1.100  0.2682 -0.1482  0.1672
  983MOL0     C35565  12.303  11.234   1.314 -0.7909 -0.2104 -0.6880
  983MOL0     C35566  12.323  11.208   1.450  0.6283 -0.3715  0.2425
  983MOL0     N35567  12.007  10.874   1.897 -0.8277  0.5113  0.1883
  983MOL0     N35568  11.887  10.900   1.937  0.1082 -0.1061 -0.4467
  983MOL0     C35569  11.223  10.876   2.691  0.5637 -0.3623 -0.4204
  983MOL0     C35570  11.090  10.832   2.688 -0.5049 -1.3534  0.6469
  983MOL0     C35571  10.658  10.859   2.587 -0.6525 -0.1037 -0.2677
  983MOL0     C35572  10.587  10.869   2.709  0.4197 -0.3692 -0.3127
  983MOL0     C35573  10.455  10.826   2.724 -1.0474 -0.0985  0.5823
  983MOL0     C35574  10.384  10.794   2.608 -0.3004  0.1549 -0.1656
  983MOL0     O35575  10.248  10.765   2.610 -0.2786 -0.7468 -0.6762
  983MOL0     C35576  10.174  10.778   2.731 -0.7839 -0.6581 -0.3055
  983MOL0     C35577  10.030  10.746   2.703 -1.2852  0.1657 -0.4647
  983MOL0     C35578   9.999  10.595   2.688  0.0914  0.3187  0.1716
  983MOL0     C35579  10.045  10.545   2.545  0.9499 -0.8890  0.6173
  983MOL0     C35580   9.959  10.430   2.509  0.7166 -0.1925 -1.3410
  983MOL0     C35581   9.885  10.329   2.478  0.3104 -0.2885 -0.3077
  983MOL0     C35582  10.446  10.808   2.487 -0.6296  0.5468  0.0901
  983MOL0     C35583  10.583  10.842   2.469  0.4453 -0.0593 -0.5772
  983MOL0     C35584  10.637  10.855   2.331 -0.2305 -0.5457 -0.1758
  983MOL0     H35585  10.930  11.100   2.820  2.4152  2.2239  0.3918
  983MOL0     H35586  11.159  11.196   2.796  1.5399  0.1014 -2.1220
  983MOL0     H35587  11.403  11.218   2.844  0.4807 -0.7017  0.2606
  983MOL0     H35588  11.338  11.237   2.685 -2.2915 -2.7491  0.8827
  983MOL0     H35589  11.581  11.310   2.723 -1.4478 -1.3971  0.6912
  983MOL0     H35590  11.619  11.134   2.720  1.1809 -0.9400 -3.1055
  983MOL0     H35591  11.498  11.132   2.490  0.7592 -0.9222  1.6912
  983MOL0     H35592  11.470  11.301   2.505 -1.9125 -1.1147  2.7391
  983MOL0     H35593  11.696  11.378   2.508 -0.4731 -0.3394  0.4677
  983MOL0     H35594  11.772  11.229   2.502  0.0123 -0.0246 -0.0847
  983MOL0     H35595  11.773  11.347   2.274  0.2080 -1.0068 -2.4370
  983MOL0     H35596  11.605  11.381   2.289 -2.5361 -1.5581  1.8907
  983MOL0     H35597  11.598  11.095   2.278  0.5722 -1.6510 -2.6306
  983MOL0     H35598  11.597  11.203   2.143  0.1469 -2.8841 -1.1476
  983MOL0     H35599  11.859  11.112   2.279  1.9518 -1.3680 -1.3750
  983MOL0     H35600  11.839  11.167   2.103  2.3034 -1.7927 -0.2727
  983MOL0     H35601  11.762  10.925   2.237  0.0643  1.8855  0.0297
  983MOL0     H35602  11.674  10.978   2.092  1.1632  0.4533 -2.6483
  983MOL0     H35603  12.047  10.936   2.215  0.7637 -2.7660  0.6459
  983MOL0     H35604  12.267  10.758   2.015 -2.9197 -0.8339 -0.5631
  983MOL0     H35605  12.281  10.910   2.096  1.9043 -2.0065 -0.0928
  983MOL0     H35606  12.418  10.924   1.902 -1.1021 -2.0424 -2.6596
  983MOL0     H35607  12.282  10.867   1.811  3.0672 -0.9141  0.6066
  983MOL0     H35608  12.163  11.094   1.891 -0.9443 -0.2555 -1.9280
  983MOL0     H35609  12.332  11.159   1.906 -2.0193  0.7078  1.1028
  983MOL0     H35610  12.386  11.082   1.690 -0.5854  1.9303 -0.1020
  983MOL0     H35611  12.212  11.039   1.659 -0.7088  0.8341 -1.2421
  983MOL0     H35612  12.098  11.410   1.589  0.4901  0.5743  0.0677
  983MOL0     H35613  12.099  11.634   1.393  2.5590  0.3522 -2.2319
  983MOL0     H35614  11.961  11.514   1.399 -0.0805  2.5910  0.4272
  983MOL0     H35615  12.041  11.572   1.253 -0.8696  3.0947  0.9463
  983MOL0     H35616  12.419  11.624   1.001  0.9025 -0.4005  0.1927
  983MOL0     H35617  12.412  11.699   0.763 -2.1435  1.6032 -0.0430
  983MOL0     H35618  12.081  11.667   0.647  0.1524 -0.3733  0.2015
  983MOL0     H35619  12.181  11.782   0.569  1.5324 -1.2263 -0.2949
  983MOL0     H35620  11.994  11.767   0.421 -0.4691 -1.7728  1.4743
  983MOL0     H35621  12.116  11.676   0.336  1.0371 -1.6973  0.8979
  983MOL0     H35622  11.885  11.588   0.519  0.7683  2.7353  0.0505
  983MOL0     H35623  12.022  11.476   0.469 -0.4615 -0.7595 -2.2626
  983MOL0     H35624  11.950  11.485   0.245 -1.2779 -0.3268 -0.2018
  983MOL0     H35625  11.842  11.620   0.260  0.0107 -0.8947 -2.6351
  983MOL0     H35626  11.798  11.351   0.400  0.0275  1.7107  4.3591
  983MOL0     H35627  11.710  11.498   0.438  2.5594 -1.2315  2.9579
  983MOL0     H35628  11.733  11.352   0.167  0.0713 -0.4930  0.3658
  983MOL0     H35629  11.624  11.485   0.183  1.3747  1.5360 -0.3429
  983MOL0     H35630  11.599  11.238   0.360 -0.1856  1.5495  1.3469
  983MOL0     H35631  11.513  11.265   0.199 -2.4907 -1.9147  2.2225
  983MOL0     H35632  11.462  11.459   0.400 -1.0031 -1.1075  0.8063
  983MOL0     H35633  11.418  11.287   0.440  0.3665 -3.0459 -2.3504
  983MOL0     H35634  12.194  11.361   0.621  0.2268  0.2555 -0.4352
  983MOL0     H35635  12.200  11.265   0.857 -0.4503  0.4599  0.8347
  983MOL0     H35636  12.344  11.164   1.243 -0.0790 -0.6273  0.1140
  983MOL0     H35637  12.399  11.135   1.474  1.6769  0.7449  0.3661
  983MOL0     H35638  11.309  10.816   2.661  0.8022 -0.3704  0.2576
  983MOL0     H35639  11.077  10.729   2.655  2.0960 -1.4481 -0.2920
  983MOL0     H35640  10.640  10.911   2.793 -1.9434 -2.2652  2.3153
  983MOL0     H35641  10.407  10.823   2.821 -0.3804  0.4972  0.9427
  983MOL0     H35642  10.214  10.717   2.813 -0.5091 -2.4400 -1.7090
  983MOL0     H35643  10.183  10.884   2.758  1.5536 -0.6764 -0.7687
  983MOL0     H35644  10.000  10.788   2.607 -1.7037 -0.1434 -0.4711
  983MOL0     H35645   9.969  10.784   2.786  1.2387 -0.4283  1.8340
  983MOL0     H35646  10.038  10.534   2.771  1.2046 -0.0630 -0.6002
  983MOL0     H35647   9.890  10.593   2.695  0.0256  0.8697 -0.6336
  983MOL0     H35648  10.148  10.517   2.571  1.5721  0.8164  0.0794
  983MOL0     H35649  10.036  10.626   2.472  2.3012  1.5475  2.9547
  983MOL0     H35650   9.836  10.236   2.463 -1.7346  0.5180  0.9781
  983MOL0     H35651  10.383  10.791   2.400 -0.1910 -1.5177  0.1234
  983MOL0     H35652  10.558  10.838   2.257  0.1085  0.4809 -0.7774
  983MOL0     H35653  10.674  10.957   2.323 -0.4767 -0.4984 -0.7049
  983MOL0     H35654  10.718  10.784   2.309  0.5001  0.8230 -2.1143
  984MOL0     O35655   2.037   5.455   1.686 -0.7484  0.0514 -0.9912
  984MOL0     C35656   2.122   5.536   1.736 -0.5745  0.4308  0.5252
  984MOL0     O35657   2.265   5.505   1.744  0.1750  0.0245 -0.3932
  984MOL0     C35658   2.308   5.382   1.718 -0.3196 -0.6028  0.0847
  984MOL0     C35659   2.403   5.349   1.624 -0.6775  0.1039  0.7805
  984MOL0     C35660   2.474   5.229   1.622 -0.1842 -0.9016  0.0052
  984MOL0     C35661   2.441   5.124   1.706  0.4770 -0.8233 -0.1087
  984MOL0     O35662   2.506   5.003   1.690 -0.7096  0.1261  0.0352
  984MOL0     C35663   2.650   5.008   1.695  0.4785 -0.0661  0.1056
  984MOL0     C35664   2.703   4.905   1.601  0.1500  0.4812 -0.3597
  984MOL0     C35665   2.663   4.761   1.615 -0.0622  0.4905 -0.7038
  984MOL0     C35666   2.741   4.655   1.545 -0.7764 -0.4059 -0.2308
  984MOL0     C35667   2.689   4.520   1.583 -0.7282  0.6299  0.3542
  984MOL0     C35668   2.723   4.406   1.485  0.0437 -1.2107  0.4474
  984MOL0     C35669   2.669   4.269   1.529 -0.3635  0.3346  0.5979
  984MOL0     C35670   2.513   4.262   1.551  0.5066  0.1142 -0.3061
  984MOL0     N35671   2.456   4.118   1.557  0.3274 -0.5977  0.1850
  984MOL0     C35672   2.426   4.040   1.448  0.2312  0.2270 -0.2762
  984MOL0     C35673   2.442   3.912   1.496  0.0051 -0.1273  0.6522
  984MOL0     C35674   2.403   3.796   1.417 -0.6759 -0.2058  0.8013
  984MOL0     C35675   2.460   3.661   1.476  0.1349 -0.7344  1.0261
  984MOL0     C35676   2.389   3.616   1.605 -0.1326 -0.6206  0.2611
  984MOL0     C35677   2.341   3.474   1.614  0.5242  0.6911  0.0827
  984MOL0     O35678   2.253   3.454   1.735 -0.1219  0.0206 -0.8472
  984MOL0     C35679   2.308   3.428   1.854 -0.2273 -0.3161  1.5605
  984MOL0     C35680   2.439   3.389   1.885 -0.1562  0.6078  0.2005
  984MOL0     C35681   2.489   3.391   2.017  0.1469 -0.4307  0.2938
  984MOL0     C35682   2.635   3.361   2.039  1.0512  0.6594 -0.4556
  984MOL0     C35683   2.411   3.427   2.120  0.0532 -0.0859 -0.5937
  984MOL0     C35684   2.447   3.440   2.260 -0.5913 -0.1271  0.9902
  984MOL0     O35685   2.382   3.375   2.360  1.1456  0.2337  0.1623
  984MOL0     C35686   2.304   3.256   2.341  0.8418 -1.2142 -0.4796
  984MOL0     C35687   2.172   3.244   2.390  0.1964  0.1989 -0.6707
  984MOL0     C35688   2.107   3.116   2.382  0.0708 -1.1941 -0.1937
  984MOL0     C35689   2.168   3.017   2.319 -0.0063  0.4599  0.3430
  984MOL0     O35690   2.109   2.893   2.305  0.3453 -0.5862  0.6154
  984MOL0     C35691   1.995   2.900   2.217  0.9924 -0.6273 -0.2819
  984MOL0     C35692   1.941   2.766   2.180 -0.1894  0.1857  0.6102
  984MOL0     C35693   2.042   2.683   2.098  0.3050  0.3061  0.4877
  984MOL0     C35694   1.983   2.538   2.093 -0.1005 -0.1247 -0.6342
  984MOL0     C35695   2.084   2.431   2.028  0.1961  0.6431  0.1369
  984MOL0     C35696   2.055   2.439   1.876 -0.3103 -0.3855  1.4093
  984MOL0     C35697   2.144   2.348   1.803 -0.6121  0.0498  0.7541
  984MOL0     C35698   2.297   2.351   1.840 -0.7488 -0.4144  0.1333
  984MOL0    Cl35699   2.379   2.240   1.728  0.3197 -0.0887 -0.2255
  984MOL0     C35700   2.302   3.023   2.270 -0.6016  0.6712 -1.2208
  984MOL0     C35701   2.369   3.143   2.293 -0.5110 -0.7927 -0.8743
  984MOL0     O35702   2.537   3.516   2.283  0.3630 -0.0166  0.2979
  984MOL0     C35703   2.279   3.465   2.088  0.6821  0.0083 -0.1054
  984MOL0     C35704   2.233   3.462   1.959  0.4221 -0.4912 -0.2472
  984MOL0     N35705   2.465   3.912   1.632 -1.4956 -0.7036 -0.2242
  984MOL0     N35706   2.468   4.038   1.674 -0.5037  0.1323  0.5576
  984MOL0     C35707   2.338   5.149   1.797  0.4078  0.1402  0.3796
  984MOL0     C35708   2.279   5.279   1.811 -0.2922  0.0700  0.2099
  984MOL0     C35709   2.087   5.671   1.773  0.3140  0.4887  0.8392
  984MOL0     C35710   2.172   5.750   1.849  0.8014  0.4393 -0.1083
  984MOL0     C35711   2.154   5.888   1.878  0.1951  0.6623  0.1205
  984MOL0     C35712   2.034   5.952   1.839  1.2495 -0.6351  0.0060
  984MOL0     O35713   2.004   6.085   1.859 -0.0424 -0.4832  0.4047
  984MOL0     C35714   2.121   6.172   1.906  0.3261  0.4379  1.0578
  984MOL0     C35715   2.070   6.307   1.950  0.1580  0.2461  0.1207
  984MOL0     C35716   2.177   6.395   2.006  0.6836  0.3763  0.3855
  984MOL0     C35717   2.232   6.348   2.142  0.2876 -0.1834  0.8820
  984MOL0     C35718   2.141   6.250   2.216 -0.9884 -0.5374  0.0101
  984MOL0     C35719   2.055   6.172   2.251  0.0001  0.4916  0.0753
  984MOL0     C35720   1.941   5.871   1.776 -0.2851  0.7514 -0.4441
  984MOL0     C35721   1.970   5.741   1.734  0.0288 -0.1192 -0.5079
  984MOL0     C35722   1.853   5.679   1.660  1.3552  0.4464 -0.1804
  984MOL0     H35723   2.428   5.438   1.568  0.1024  0.0709  1.0644
  984MOL0     H35724   2.552   5.227   1.547 -0.9104  1.1481 -0.8937
  984MOL0     H35725   2.688   4.985   1.795 -0.9706  0.6599  0.8580
  984MOL0     H35726   2.684   5.108   1.665  0.6132  0.6491  2.4605
  984MOL0     H35727   2.695   4.929   1.495  1.4438 -0.6793 -0.7526
  984MOL0     H35728   2.811   4.904   1.620  0.3973 -0.3520 -1.6724
  984MOL0     H35729   2.664   4.738   1.722 -0.2446  1.2681 -0.5329
  984MOL0     H35730   2.557   4.755   1.590 -0.2539 -1.3840  0.3812
  984MOL0     H35731   2.738   4.679   1.438  0.6684 -3.9030 -1.1738
  984MOL0     H35732   2.845   4.641   1.575 -0.6897 -2.2066 -1.2373
  984MOL0     H35733   2.580   4.514   1.589 -0.8590 -5.3024 -1.4226
  984MOL0     H35734   2.728   4.501   1.684  3.0948 -0.9083 -1.2201
  984MOL0     H35735   2.679   4.424   1.387 -0.3632 -2.7778  0.3137
  984MOL0     H35736   2.832   4.407   1.478 -0.0442 -0.1635 -1.4513
  984MOL0     H35737   2.729   4.252   1.619  1.3148  2.3106 -0.0723
  984MOL0     H35738   2.700   4.199   1.451  1.4636  1.0155  0.6670
  984MOL0     H35739   2.471   4.318   1.636  0.8879  3.6997 -2.2963
  984MOL0     H35740   2.473   4.312   1.462  0.9164 -0.4412 -0.8075
  984MOL0     H35741   2.402   4.083   1.352  1.1149  3.6318  0.8878
  984MOL0     H35742   2.443   3.816   1.318  0.8368 -1.3892  1.1352
  984MOL0     H35743   2.294   3.791   1.412 -0.5886 -1.2309 -3.1139
  984MOL0     H35744   2.449   3.593   1.391 -2.3575  0.2953  0.4218
  984MOL0     H35745   2.569   3.654   1.488  1.0971 -1.0533 -4.8826
  984MOL0     H35746   2.448   3.639   1.694  0.9801  1.0760 -0.8622
  984MOL0     H35747   2.297   3.675   1.609  0.2627  0.0182  0.1106
  984MOL0     H35748   2.286   3.438   1.526  0.8696  1.2086 -0.3492
  984MOL0     H35749   2.432   3.414   1.625  0.8767  1.1641 -0.2396
  984MOL0     H35750   2.520   3.363   1.816  0.8521 -0.5229  1.7353
  984MOL0     H35751   2.642   3.314   2.137  2.2410 -0.9734 -1.2867
  984MOL0     H35752   2.685   3.459   2.046  0.4809  1.1235 -2.2634
  984MOL0     H35753   2.686   3.290   1.973 -1.3755 -1.0927 -0.5507
  984MOL0     H35754   2.132   3.326   2.450  0.1838  0.8607 -1.5532
  984MOL0     H35755   2.007   3.107   2.423  0.4578 -1.6353  0.6689
  984MOL0     H35756   1.918   2.953   2.274  1.2567 -1.0804  0.5172
  984MOL0     H35757   2.022   2.958   2.128  0.4833 -2.4637 -1.7104
  984MOL0     H35758   1.932   2.716   2.276 -0.0209  0.0775  0.5697
  984MOL0     H35759   1.844   2.767   2.128  1.2267  2.4206 -2.3190
  984MOL0     H35760   2.143   2.677   2.140  1.5470  0.1833 -2.3130
  984MOL0     H35761   2.062   2.724   1.999 -0.6887 -2.4348 -0.9553
  984MOL0     H35762   1.885   2.533   2.045 -1.1089  1.3093  1.1639
  984MOL0     H35763   1.966   2.506   2.196  0.8664 -0.9179 -0.6949
  984MOL0     H35764   2.190   2.442   2.052  1.0785 -1.3754 -2.3222
  984MOL0     H35765   2.063   2.329   2.059  0.2580  0.0571 -1.6180
  984MOL0     H35766   2.063   2.534   1.822 -2.8435 -1.0725 -0.3747
  984MOL0     H35767   1.955   2.408   1.845 -0.0263  0.9446 -1.1560
  984MOL0     H35768   2.156   2.376   1.698 -0.2156  0.6201  0.9397
  984MOL0     H35769   2.113   2.243   1.804  1.1128 -0.5461 -1.6191
  984MOL0     H35770   2.321   2.326   1.944  0.6349 -0.6284 -0.2204
  984MOL0     H35771   2.343   2.449   1.827 -3.1858  0.7411 -0.3683
  984MOL0     H35772   2.359   2.940   2.229  2.7271  0.8416  2.5929
  984MOL0     H35773   2.471   3.161   2.261 -0.9480 -0.9038 -2.4040
  984MOL0     H35774   2.216   3.511   2.163 -0.5303  2.2561 -2.3511
  984MOL0     H35775   2.130   3.493   1.945  0.3422  0.4296  2.0285
  984MOL0     H35776   2.299   5.064   1.854  1.0892  0.0269  0.6816
  984MOL0     H35777   2.210   5.304   1.891 -4.0725 -2.6403 -1.8509
  984MOL0     H35778   2.267   5.703   1.876  2.0147  2.0493 -1.4002
  984MOL0     H35779   2.239   5.935   1.925 -1.2476  1.7359  1.7764
  984MOL0     H35780   2.173   6.123   1.989  2.0655 -0.4253 -0.4865
  984MOL0     H35781   2.182   6.190   1.817  0.5100  0.8202  1.2559
  984MOL0     H35782   1.989   6.289   2.021  0.1434  1.0089  0.3156
  984MOL0     H35783   2.031   6.359   1.862 -0.2049  0.6090  0.4950
  984MOL0     H35784   2.255   6.401   1.929 -1.9325 -1.5631 -2.6887
  984MOL0     H35785   2.129   6.493   2.008  0.6769  0.5282 -2.5592
  984MOL0     H35786   2.248   6.437   2.203 -0.7771  0.6289  0.0177
  984MOL0     H35787   2.332   6.307   2.120  1.3712  2.6742  0.0658
  984MOL0     H35788   1.973   6.111   2.280  0.6293 -0.2763  0.2631
  984MOL0     H35789   1.846   5.914   1.748 -0.8789  0.4253  1.0058
  984MOL0     H35790   1.867   5.654   1.554  0.2592  0.5464 -0.3603
  984MOL0     H35791   1.822   5.588   1.712 -1.5988  0.0775 -2.3102
  984MOL0     H35792   1.762   5.738   1.671  0.3575 -1.2372  1.1417
  985MOL0     O35793  10.141   5.637   1.423  0.3702 -0.2233 -0.5802
  985MOL0     C35794  10.242   5.703   1.394  0.7931 -1.2782  0.1731
  985MOL0     O35795  10.336   5.744   1.483 -0.0283  0.0403  0.6865
  985MOL0     C35796  10.313   5.720   1.613  1.1726  1.2006 -0.8684
  985MOL0     C35797  10.257   5.821   1.697 -0.3038  1.5115  0.9965
  985MOL0     C35798  10.213   5.796   1.825 -0.1591 -0.6424  0.0984
  985MOL0     C35799  10.238   5.664   1.878 -0.3074 -0.4299  0.3000
  985MOL0     O35800  10.187   5.631   2.006  0.2246 -0.3040 -0.0583
  985MOL0     C35801  10.144   5.502   2.026 -0.0628 -0.0301 -0.0923
  985MOL0     C35802  10.030   5.521   2.129  0.5308 -0.0765  0.0426
  985MOL0     C35803  10.073   5.574   2.265  0.2897 -1.1882 -0.0837
  985MOL0     C35804   9.950   5.640   2.329 -0.3211  0.2166 -0.3245
  985MOL0     C35805   9.993   5.703   2.466  0.5972  0.1709 -0.7483
  985MOL0     C35806   9.866   5.765   2.523 -0.0891  0.4636 -0.3273
  985MOL0     C35807   9.905   5.847   2.655  0.2447  0.7971  1.5252
  985MOL0     C35808   9.792   5.943   2.717  0.6399 -0.4976 -0.6279
  985MOL0     N35809   9.737   6.048   2.633  0.7323 -0.5792  0.4794
  985MOL0     C35810   9.797   6.150   2.557 -0.4791 -0.1236  0.3742
  985MOL0     C35811   9.693   6.212   2.486 -0.7155 -0.4030  0.0734
  985MOL0     C35812   9.707   6.331   2.395  0.4933 -0.3108 -0.1594
  985MOL0     C35813   9.592   6.425   2.406  0.5598  0.4909 -0.3655
  985MOL0     C35814   9.606   6.565   2.353 -0.2661  0.1987  0.3816
  985MOL0     C35815   9.513   6.668   2.410  1.8951  0.3325 -1.1174
  985MOL0     O35816   9.376   6.629   2.385 -0.2216  0.5776  0.0171
  985MOL0     C35817   9.302   6.690   2.287  0.0316 -0.1776 -0.6396
  985MOL0     C35818   9.221   6.789   2.317  0.0520 -0.2980  0.2451
  985MOL0     C35819   9.151   6.859   2.217 -0.3845 -0.3811 -0.3682
  985MOL0     C35820   9.060   6.970   2.268  0.6041  0.4806  0.9958
  985MOL0     C35821   9.153   6.816   2.083 -0.6664 -0.8409 -0.2156
  985MOL0     C35822   9.073   6.876   1.977  1.2955  0.2496  0.5565
  985MOL0     O35823   8.957   6.939   2.017 -0.5538  0.3714  0.2237
  985MOL0     C35824   8.851   6.962   1.935  0.4316 -0.2673 -0.1817
  985MOL0     C35825   8.772   7.074   1.971 -0.1081 -0.5056 -0.5152
  985MOL0     C35826   8.657   7.113   1.905 -0.8771  0.0803  0.5074
  985MOL0     C35827   8.613   7.036   1.792 -0.2914  0.1120  0.5178
  985MOL0     O35828   8.504   7.069   1.714 -0.0165 -0.2024  0.6974
  985MOL0     C35829   8.439   7.196   1.703 -0.5863 -0.3386  0.7146
  985MOL0     C35830   8.298   7.177   1.646  0.0228 -0.0422  0.1884
  985MOL0     C35831   8.307   7.142   1.492  0.1770  0.5391 -0.1508
  985MOL0     C35832   8.354   7.258   1.411 -0.5533 -0.1005  0.1167
  985MOL0     C35833   8.324   7.244   1.260  1.2550  0.6307  0.6829
  985MOL0     C35834   8.384   7.114   1.202 -0.1618 -0.1214  0.6496
  985MOL0     C35835   8.425   7.130   1.050  0.4051 -0.4839 -0.8240
  985MOL0     C35836   8.336   7.052   0.964 -0.8234 -0.8255  0.3262
  985MOL0    Cl35837   8.425   6.895   0.930  0.0797 -0.1638 -0.2477
  985MOL0     C35838   8.690   6.917   1.757 -0.0537 -1.1155 -0.4390
  985MOL0     C35839   8.801   6.878   1.833 -0.4113  0.5039  0.5661
  985MOL0     O35840   9.103   6.860   1.863  0.1025  0.5741  0.4625
  985MOL0     C35841   9.252   6.724   2.052  0.5047  0.0494 -0.1476
  985MOL0     C35842   9.325   6.662   2.157  0.0956  0.2996  0.0572
  985MOL0     N35843   9.577   6.140   2.504 -0.5240  0.3919  0.3084
  985MOL0     N35844   9.598   6.050   2.602 -0.7563  0.3108 -0.5044
  985MOL0     C35845  10.294   5.563   1.795  1.0179 -0.2160  0.6178
  985MOL0     C35846  10.328   5.592   1.662  0.8576  0.6261 -0.7254
  985MOL0     C35847  10.258   5.750   1.252 -0.2789 -0.9099  1.0488
  985MOL0     C35848  10.362   5.848   1.221 -0.6739  0.4161 -0.1206
  985MOL0     C35849  10.397   5.891   1.096  0.1138 -0.5319  0.5223
  985MOL0     C35850  10.322   5.840   0.985  0.0660 -0.4425  0.3761
  985MOL0     O35851  10.346   5.862   0.850  0.0945  0.0999 -0.3116
  985MOL0     C35852  10.467   5.923   0.817 -0.1071 -0.5515 -0.3370
  985MOL0     C35853  10.460   5.986   0.676 -0.1750 -0.0476 -0.4400
  985MOL0     C35854  10.519   5.890   0.565  0.3230  0.3996  0.3742
  985MOL0     C35855  10.503   5.955   0.428 -0.1467 -0.5533 -1.1176
  985MOL0     C35856  10.565   6.082   0.415 -1.0528 -0.0170  0.2148
  985MOL0     C35857  10.601   6.196   0.399  0.1697 -0.1480  0.4343
  985MOL0     C35858  10.214   5.747   1.011 -0.7422 -0.4726 -0.6765
  985MOL0     C35859  10.178   5.709   1.143 -0.2942 -0.5422  0.7043
  985MOL0     C35860  10.059   5.625   1.157  0.1457  0.0873 -0.5772
  985MOL0     H35861  10.240   5.916   1.648  1.5160  0.6711 -1.4480
  985MOL0     H35862  10.171   5.875   1.886  0.6812 -1.7385  2.1882
  985MOL0     H35863  10.224   5.446   2.076 -0.7932  0.7465  2.0518
  985MOL0     H35864  10.116   5.438   1.942 -1.1141 -1.2227  1.1143
  985MOL0     H35865   9.958   5.598   2.100 -0.8180 -0.0230  3.0352
  985MOL0     H35866   9.973   5.427   2.134  0.3504  0.0941  2.6985
  985MOL0     H35867  10.118   5.494   2.325  0.6681 -2.0581 -1.4891
  985MOL0     H35868  10.147   5.654   2.258 -0.9424 -0.1783 -3.0164
  985MOL0     H35869   9.910   5.719   2.265 -0.6582  0.5251  0.2601
  985MOL0     H35870   9.876   5.564   2.355  0.6099 -0.2587  1.0366
  985MOL0     H35871  10.064   5.785   2.450  0.1684  0.5877 -0.5376
  985MOL0     H35872  10.045   5.639   2.538  2.1487  2.0271 -0.1315
  985MOL0     H35873   9.824   5.826   2.443 -0.4180 -0.2324 -0.6940
  985MOL0     H35874   9.784   5.699   2.552 -0.9588  0.9099 -1.6902
  985MOL0     H35875   9.994   5.910   2.642 -0.8315  1.7367 -2.9478
  985MOL0     H35876   9.924   5.778   2.738 -3.0150 -0.8898  1.0078
  985MOL0     H35877   9.698   5.897   2.749 -0.6827  3.1464  1.2896
  985MOL0     H35878   9.838   5.992   2.803  1.7303 -2.9116  0.2613
  985MOL0     H35879   9.899   6.185   2.545 -0.9031  0.5281 -1.8584
  985MOL0     H35880   9.703   6.296   2.291 -1.8561 -0.8294  0.0539
  985MOL0     H35881   9.807   6.372   2.414  1.2691 -2.8307  1.7712
  985MOL0     H35882   9.507   6.378   2.354  1.9409  1.3670 -3.7106
  985MOL0     H35883   9.580   6.428   2.514  3.5753 -1.0678  0.1077
  985MOL0     H35884   9.711   6.592   2.371  0.0346 -0.5213 -0.2133
  985MOL0     H35885   9.611   6.571   2.244 -0.6921 -1.4458  0.2358
  985MOL0     H35886   9.527   6.663   2.519 -0.4203  1.1212 -0.7368
  985MOL0     H35887   9.550   6.763   2.371 -1.7419  1.3679 -2.3626
  985MOL0     H35888   9.221   6.822   2.421 -0.5360  1.7840 -0.3824
  985MOL0     H35889   9.075   7.065   2.216  1.7531  0.3697  1.1060
  985MOL0     H35890   9.090   7.005   2.367  2.5316  3.3817 -0.4816
  985MOL0     H35891   8.956   6.936   2.266  0.9878 -0.7567 -1.2633
  985MOL0     H35892   8.817   7.140   2.045  1.7813 -0.5504 -1.5547
  985MOL0     H35893   8.604   7.203   1.937 -0.1965  0.6324  0.1274
  985MOL0     H35894   8.423   7.243   1.801 -2.3951 -1.5712  1.0479
  985MOL0     H35895   8.495   7.269   1.643 -1.3448  0.1597  0.5986
  985MOL0     H35896   8.246   7.102   1.707 -0.5771 -1.9361 -2.4459
  985MOL0     H35897   8.246   7.271   1.665  0.2597 -0.4153  3.2714
  985MOL0     H35898   8.205   7.116   1.463  0.4458 -0.9223  0.1343
  985MOL0     H35899   8.359   7.046   1.478 -2.9547 -1.4142  0.6269
  985MOL0     H35900   8.463   7.263   1.422 -0.6834  1.1138  1.2171
  985MOL0     H35901   8.307   7.346   1.457 -0.9791  1.1885 -2.5964
  985MOL0     H35902   8.216   7.228   1.272  1.8945 -2.2882  4.5422
  985MOL0     H35903   8.346   7.339   1.212 -1.7471  1.1156  0.0481
  985MOL0     H35904   8.312   7.034   1.218  2.0795 -3.3857 -3.5713
  985MOL0     H35905   8.475   7.099   1.262  1.2572  0.6156 -1.2181
  985MOL0     H35906   8.530   7.101   1.041  0.2478 -1.3549  0.0083
  985MOL0     H35907   8.424   7.235   1.018 -1.2365 -0.1907  0.0813
  985MOL0     H35908   8.331   7.100   0.866  0.9132  1.1095  1.0890
  985MOL0     H35909   8.234   7.033   0.999 -2.1731 -0.9777 -3.3456
  985MOL0     H35910   8.658   6.851   1.677 -1.8290 -2.5674  1.3315
  985MOL0     H35911   8.858   6.789   1.809 -0.4946  0.4597  0.5346
  985MOL0     H35912   9.271   6.695   1.949  0.2336 -1.0499  0.0914
  985MOL0     H35913   9.401   6.588   2.136 -1.0296 -1.3029  1.3773
  985MOL0     H35914  10.295   5.460   1.828 -2.2397 -0.4150  0.3759
  985MOL0     H35915  10.371   5.518   1.596 -1.6190 -0.5238 -1.1795
  985MOL0     H35916  10.437   5.853   1.299  0.6164 -2.4891 -1.0199
  985MOL0     H35917  10.483   5.956   1.083  0.0623 -0.3710  0.9530
  985MOL0     H35918  10.509   5.997   0.886  2.3496 -3.7827  1.9481
  985MOL0     H35919  10.541   5.843   0.811  1.8344  1.1389 -0.0739
  985MOL0     H35920  10.508   6.083   0.687 -2.6177  1.0299  1.6888
  985MOL0     H35921  10.357   6.013   0.654  0.4518  1.8015 -1.3113
  985MOL0     H35922  10.627   5.886   0.582  0.4473  3.7885  1.1581
  985MOL0     H35923  10.484   5.787   0.571  2.2959 -0.2312  2.0888
  985MOL0     H35924  10.401   5.988   0.405  0.4735  2.1292 -0.3720
  985MOL0     H35925  10.545   5.894   0.347 -0.2951  0.9903 -2.4000
  985MOL0     H35926  10.613   6.298   0.369 -1.8855  0.1777  0.6148
  985MOL0     H35927  10.163   5.698   0.930 -0.8013 -0.2059 -0.8022
  985MOL0     H35928   9.980   5.679   1.211  0.5986  2.1058 -1.8097
  985MOL0     H35929  10.013   5.596   1.063 -1.5404 -0.0817  0.2613
  985MOL0     H35930  10.094   5.531   1.200 -1.2566 -0.7238 -1.1601
  986MOL0     O35931   9.786   1.298   6.950 -0.0030  0.1104  0.1269
  986MOL0     C35932   9.829   1.302   7.064 -0.8481 -0.1820  0.1212
  986MOL0     O35933   9.953   1.340   7.092  0.1433 -1.0458  0.6741
  986MOL0     C35934  10.024   1.416   7.004 -0.6230 -0.1855 -0.2080
  986MOL0     C35935  10.137   1.348   6.938 -0.2455  0.4237 -0.1356
  986MOL0     C35936  10.223   1.403   6.838 -0.3734  1.0232 -0.0301
  986MOL0     C35937  10.201   1.541   6.813  0.0068 -0.2368 -0.3836
  986MOL0     O35938  10.284   1.625   6.745  0.3630 -0.1180  0.6695
  986MOL0     C35939  10.318   1.575   6.616  0.3677 -0.6723  0.3624
  986MOL0     C35940  10.468   1.565   6.611 -0.6365  1.0246  0.8844
  986MOL0     C35941  10.519   1.532   6.464 -0.3473 -0.3249 -0.3494
  986MOL0     C35942  10.668   1.563   6.442 -0.2957 -0.3711 -0.0289
  986MOL0     C35943  10.731   1.522   6.307 -0.4845 -0.1428 -0.2442
  986MOL0     C35944  10.643   1.552   6.185 -0.2183 -0.6208 -0.8745
  986MOL0     C35945  10.714   1.496   6.063 -0.2861  1.1619  0.3899
  986MOL0     C35946  10.641   1.531   5.925 -1.4815 -0.3109  1.1738
  986MOL0     N35947  10.635   1.675   5.901  0.6573  0.3159 -0.3416
  986MOL0     C35948  10.740   1.767   5.893  0.6397  0.7014 -0.3436
  986MOL0     C35949  10.682   1.888   5.906 -0.7188 -0.7652  0.2106
  986MOL0     C35950  10.764   2.012   5.916  0.4465  0.0586  0.2945
  986MOL0     C35951  10.782   2.062   6.061  0.4753 -0.2728  0.5601
  986MOL0     C35952  10.664   2.145   6.117  1.1616  0.0240  0.4594
  986MOL0     C35953  10.724   2.217   6.232 -0.7129  0.4969 -0.5844
  986MOL0     O35954  10.627   2.285   6.314  0.2282  0.2730  0.4935
  986MOL0     C35955  10.663   2.355   6.426 -0.5935 -1.1696  0.4309
  986MOL0     C35956  10.791   2.365   6.475 -0.5754  0.4698 -0.3581
  986MOL0     C35957  10.823   2.442   6.584  0.1315  0.6082  0.2808
  986MOL0     C35958  10.974   2.447   6.637 -0.1825  0.5425 -0.2415
  986MOL0     C35959  10.725   2.524   6.653  0.3489  0.3306  0.1926
  986MOL0     C35960  10.759   2.612   6.770  0.6815  0.0968  0.3200
  986MOL0     O35961  10.875   2.678   6.782 -0.4921 -0.0619  0.2268
  986MOL0     C35962  10.929   2.729   6.900 -0.0396  0.1601 -0.4791
  986MOL0     C35963  10.917   2.663   7.021  0.1481 -0.0622 -0.3185
  986MOL0     C35964  10.968   2.713   7.145 -0.3745  0.2613  0.0001
  986MOL0     C35965  11.057   2.820   7.135 -0.2338 -0.3243  0.3537
  986MOL0     O35966  11.121   2.883   7.239  0.3719 -0.3606  0.2758
  986MOL0     C35967  11.113   2.849   7.380  0.2252 -0.5675 -0.4717
  986MOL0     C35968  11.245   2.883   7.457 -0.1532  0.6408 -0.5416
  986MOL0     C35969  11.341   2.765   7.476  0.1932 -0.4811 -0.8443
  986MOL0     C35970  11.371   2.697   7.336 -0.4815  0.2298  0.7754
  986MOL0     C35971  11.476   2.582   7.353 -0.2441 -0.0008 -0.1027
  986MOL0     C35972  11.552   2.561   7.221  0.4756 -1.0988  0.5843
  986MOL0     C35973  11.670   2.459   7.225  0.5516  0.5017  0.2190
  986MOL0     C35974  11.709   2.419   7.084 -0.2567 -0.5862  1.2381
  986MOL0    Cl35975  11.814   2.271   7.081 -0.2191  0.6060  0.2281
  986MOL0     C35976  11.068   2.892   7.018  1.0601  1.2748 -0.5481
  986MOL0     C35977  11.005   2.844   6.903  0.7900 -0.1676 -0.0679
  986MOL0     O35978  10.674   2.605   6.859  0.3918  0.6474 -0.2500
  986MOL0     C35979  10.596   2.506   6.610  0.9589  1.1220  0.2559
  986MOL0     C35980  10.563   2.423   6.495 -0.8829 -0.1623  0.5990
  986MOL0     N35981  10.546   1.875   5.925  0.1259 -0.2270 -1.2865
  986MOL0     N35982  10.520   1.747   5.929  0.2184 -0.8607 -0.1757
  986MOL0     C35983  10.099   1.611   6.876  0.2576  0.1345  0.4307
  986MOL0     C35984  10.005   1.547   6.964 -0.6198 -0.3960  0.2804
  986MOL0     C35985   9.753   1.242   7.180  0.2187 -1.1773 -0.5641
  986MOL0     C35986   9.818   1.209   7.305 -0.4242  0.6457 -0.0978
  986MOL0     C35987   9.753   1.133   7.400 -0.4562  0.3332 -0.5425
  986MOL0     C35988   9.616   1.112   7.395  0.2668 -0.1473 -0.4797
  986MOL0     O35989   9.557   1.050   7.504 -0.3896 -0.2615 -0.2953
  986MOL0     C35990   9.409   1.072   7.520 -0.1699  0.0693  0.4124
  986MOL0     C35991   9.379   0.995   7.648  0.1473  0.2258 -0.2869
  986MOL0     C35992   9.420   1.079   7.773  0.2848 -0.7098 -0.4237
  986MOL0     C35993   9.472   0.996   7.897  1.1415  0.3368  0.4202
  986MOL0     C35994   9.491   1.084   8.013 -0.7117  0.6250  0.7185
  986MOL0     C35995   9.494   1.157   8.105 -0.1413  0.0287  0.1072
  986MOL0     C35996   9.553   1.164   7.292 -0.0017 -0.6686 -0.4158
  986MOL0     C35997   9.620   1.217   7.177  0.2138 -0.0765 -0.7975
  986MOL0     C35998   9.524   1.244   7.071  0.3096  0.1865  0.2547
  986MOL0     H35999  10.147   1.246   6.975 -1.0272 -0.0767 -1.2241
  986MOL0     H36000  10.307   1.345   6.799 -1.8887 -2.0004  0.8395
  986MOL0     H36001  10.289   1.643   6.535  0.7880  1.1275  1.6455
  986MOL0     H36002  10.279   1.475   6.594  1.6549 -1.7102  2.4688
  986MOL0     H36003  10.520   1.658   6.640  4.1160 -1.5223  1.5511
  986MOL0     H36004  10.508   1.486   6.675 -0.8889  1.8089  2.0593
  986MOL0     H36005  10.491   1.430   6.436 -2.0288  0.7252 -2.8661
  986MOL0     H36006  10.462   1.597   6.397  2.2464  2.3244 -0.1639
  986MOL0     H36007  10.685   1.670   6.455  1.3902 -0.8370  2.3316
  986MOL0     H36008  10.735   1.510   6.511  1.0060 -3.7419 -3.4938
  986MOL0     H36009  10.764   1.419   6.296  0.7115  0.5038 -3.8496
  986MOL0     H36010  10.825   1.577   6.293 -1.1746  1.4554  0.9926
  986MOL0     H36011  10.550   1.496   6.199 -1.5063  1.1769 -1.8230
  986MOL0     H36012  10.622   1.659   6.176 -2.8446 -0.7635  1.7357
  986MOL0     H36013  10.718   1.387   6.068 -0.4634  1.1112 -0.3691
  986MOL0     H36014  10.813   1.537   6.042 -0.6401  2.1431  0.5786
  986MOL0     H36015  10.693   1.494   5.836 -0.2377  2.5358  0.5952
  986MOL0     H36016  10.543   1.484   5.934 -0.6108 -2.1120  1.6607
  986MOL0     H36017  10.847   1.748   5.896  0.4058 -0.5977  0.0928
  986MOL0     H36018  10.715   2.087   5.853  1.3871  0.1017 -0.4059
  986MOL0     H36019  10.859   1.987   5.867  0.5510 -0.6379  0.8413
  986MOL0     H36020  10.792   1.973   6.124 -0.0145 -0.1484  0.8180
  986MOL0     H36021  10.877   2.114   6.077 -0.4034  1.7921 -0.5568
  986MOL0     H36022  10.624   2.211   6.040  0.0783  0.9817  1.7908
  986MOL0     H36023  10.582   2.081   6.150  1.5321 -0.9187 -0.4097
  986MOL0     H36024  10.772   2.139   6.291 -0.8963  0.9316  0.1531
  986MOL0     H36025  10.794   2.297   6.207 -0.8290  1.3061  1.4709
  986MOL0     H36026  10.874   2.309   6.434 -1.3819 -0.7438 -0.3789
  986MOL0     H36027  10.977   2.448   6.746  0.0831  3.9589 -0.1818
  986MOL0     H36028  11.016   2.544   6.612  0.4338 -0.5961 -4.2958
  986MOL0     H36029  11.036   2.367   6.596 -1.2331 -0.7977  0.6899
  986MOL0     H36030  10.856   2.574   7.025  0.6821 -0.3893  2.1014
  986MOL0     H36031  10.959   2.670   7.244  1.5559  0.9959  0.5410
  986MOL0     H36032  11.023   2.901   7.416  0.4209 -0.4515 -0.1443
  986MOL0     H36033  11.092   2.742   7.394 -1.3246 -0.3710 -1.0097
  986MOL0     H36034  11.291   2.965   7.401 -0.6949  2.4962  1.5831
  986MOL0     H36035  11.214   2.904   7.560 -2.3650 -0.7420 -0.8654
  986MOL0     H36036  11.306   2.690   7.548  0.3540  1.7344  1.7134
  986MOL0     H36037  11.433   2.811   7.511 -0.7830  0.3922  0.7122
  986MOL0     H36038  11.394   2.772   7.261  1.2691 -0.3241  0.7143
  986MOL0     H36039  11.276   2.650   7.309  0.0364  0.4215 -1.5357
  986MOL0     H36040  11.545   2.612   7.432  1.1018 -4.7619  0.8208
  986MOL0     H36041  11.429   2.495   7.400  2.0188 -0.1084  2.1738
  986MOL0     H36042  11.592   2.660   7.201 -2.7039 -0.0208 -1.2645
  986MOL0     H36043  11.488   2.540   7.134  0.5493 -0.0753  0.2705
  986MOL0     H36044  11.626   2.380   7.286 -0.3803  1.7297  1.1642
  986MOL0     H36045  11.754   2.500   7.281 -0.3299  0.1219  1.8809
  986MOL0     H36046  11.775   2.497   7.044 -0.1807 -1.4362 -0.3893
  986MOL0     H36047  11.625   2.410   7.014  2.1183 -2.8863 -1.5676
  986MOL0     H36048  11.124   2.984   7.003  0.6245  1.0923 -4.2826
  986MOL0     H36049  11.013   2.886   6.803  0.6441 -0.5850 -0.2608
  986MOL0     H36050  10.514   2.566   6.648  2.3368  1.1703  3.4827
  986MOL0     H36051  10.462   2.436   6.458  0.7238  1.7387 -3.8821
  986MOL0     H36052  10.070   1.716   6.868 -0.7075  0.4560  5.0667
  986MOL0     H36053   9.933   1.615   7.008  1.7470  1.7367  1.1400
  986MOL0     H36054   9.918   1.247   7.326 -0.2738 -0.0426  0.4693
  986MOL0     H36055   9.798   1.099   7.493 -0.8829 -0.6059 -0.6679
  986MOL0     H36056   9.380   1.178   7.528  1.7492  0.6535  0.2446
  986MOL0     H36057   9.354   1.029   7.437  2.8449 -0.8168 -1.2581
  986MOL0     H36058   9.427   0.897   7.652  0.8573  0.6115  1.9498
  986MOL0     H36059   9.269   0.991   7.653  0.1218  0.4939 -0.5800
  986MOL0     H36060   9.504   1.144   7.746  1.3220 -0.9301  2.0122
  986MOL0     H36061   9.340   1.144   7.808  0.0422 -0.5030 -1.3370
  986MOL0     H36062   9.570   0.961   7.863 -0.0205 -2.3903 -0.4029
  986MOL0     H36063   9.405   0.913   7.917 -0.8212  2.1087  1.6016
  986MOL0     H36064   9.501   1.222   8.190  0.2766 -3.8084  3.3165
  986MOL0     H36065   9.445   1.158   7.292 -0.0861 -1.5768  3.0918
  986MOL0     H36066   9.567   1.199   6.981  1.5828  2.1775 -0.1944
  986MOL0     H36067   9.426   1.202   7.095  0.5268 -0.6557 -0.2925
  986MOL0     H36068   9.511   1.353   7.063 -1.3606  0.0903  1.1323
  987MOL0     O36069   0.165   5.822   2.314  0.1306 -0.2032 -0.0631
  987MOL0     C36070   0.090   5.735   2.364  0.5849 -0.2795 -0.5314
  987MOL0     O36071  -0.043   5.749   2.377 -0.1073  0.5179 -1.0278
  987MOL0     C36072  -0.124   5.843   2.326 -0.6442  0.1363  0.4790
  987MOL0     C36073  -0.214   5.903   2.417 -0.4352  0.5982  0.2823
  987MOL0     C36074  -0.285   6.011   2.369  0.6391 -0.2690  0.0879
  987MOL0     C36075  -0.285   6.054   2.237 -0.6874 -0.8039  0.0429
  987MOL0     O36076  -0.358   6.161   2.209 -0.1292 -0.6412 -0.7317
  987MOL0     C36077  -0.343   6.218   2.075  0.7603  0.5206 -0.8011
  987MOL0     C36078  -0.417   6.353   2.063  0.5359 -0.4473 -0.2514
  987MOL0     C36079  -0.569   6.337   2.010  0.2451  0.0517  0.0438
  987MOL0     C36080  -0.597   6.271   1.876 -0.0157  1.3797 -0.6828
  987MOL0     C36081  -0.700   6.156   1.894  0.3039  0.0206 -0.2161
  987MOL0     C36082  -0.840   6.216   1.932  0.1410  0.8632  0.7556
  987MOL0     C36083  -0.955   6.136   1.851 -0.5722 -0.4027 -0.2332
  987MOL0     C36084  -0.972   5.992   1.891  0.7493  0.2331  0.4268
  987MOL0     N36085  -0.998   5.982   2.038 -0.6890  0.5640 -0.1165
  987MOL0     C36086  -1.111   5.972   2.115 -0.0364 -0.2591 -0.7750
  987MOL0     C36087  -1.077   5.953   2.248 -0.6442 -0.5082  0.0025
  987MOL0     C36088  -1.177   5.938   2.355 -0.1305 -0.1550  0.3298
  987MOL0     C36089  -1.221   6.081   2.409 -0.6618  0.7729 -0.8386
  987MOL0     C36090  -1.108   6.170   2.474 -0.0553 -0.3828  0.7431
  987MOL0     C36091  -1.164   6.298   2.536  0.1196  0.2404  0.3948
  987MOL0     O36092  -1.236   6.275   2.658 -0.2471  0.6081  0.4679
  987MOL0     C36093  -1.367   6.322   2.668  0.2543  0.7317  0.3441
  987MOL0     C36094  -1.420   6.272   2.787 -1.0494 -0.1186 -0.6634
  987MOL0     C36095  -1.545   6.313   2.828 -0.2591  0.5558 -0.4703
  987MOL0     C36096  -1.596   6.256   2.959  0.2634  1.2392  0.3913
  987MOL0     C36097  -1.614   6.418   2.754  0.3289  1.1017  0.0256
  987MOL0     C36098  -1.732   6.488   2.793  1.1587  0.8790  0.1775
  987MOL0     O36099  -1.729   6.623   2.757  0.4210 -0.1067 -0.0415
  987MOL0     C36100  -1.837   6.708   2.782  0.3305 -1.6435  0.1840
  987MOL0     C36101  -1.812   6.838   2.736 -0.2159  0.1319  0.1425
  987MOL0     C36102  -1.916   6.933   2.752 -0.3863  1.8736 -0.5515
  987MOL0     C36103  -2.032   6.906   2.832  0.1336 -0.7386  0.4142
  987MOL0     O36104  -2.131   6.997   2.855 -0.3900 -0.0380 -0.0707
  987MOL0     C36105  -2.181   7.078   2.741 -0.1068  0.4909 -0.2123
  987MOL0     C36106  -2.331   7.084   2.731  0.0492  0.1156  0.7118
  987MOL0     C36107  -2.382   7.156   2.609  0.3477  0.6821  0.3272
  987MOL0     C36108  -2.532   7.151   2.604  0.3139 -0.6285 -0.1079
  987MOL0     C36109  -2.596   7.245   2.500  0.4527  0.1536 -0.1957
  987MOL0     C36110  -2.739   7.190   2.468  0.1830 -0.5961  0.2696
  987MOL0     C36111  -2.798   7.263   2.342 -0.1619  0.8205 -0.4867
  987MOL0     C36112  -2.936   7.208   2.295  0.3054 -0.0104 -0.5463
  987MOL0    Cl36113  -2.903   7.040   2.249  0.0580 -0.5071 -0.3420
  987MOL0     C36114  -2.041   6.782   2.888 -0.0875  0.5665 -0.0499
  987MOL0     C36115  -1.953   6.681   2.848  0.2036  0.4856 -0.5953
  987MOL0     O36116  -1.829   6.426   2.841  0.6377 -0.2646  0.0928
  987MOL0     C36117  -1.551   6.463   2.633 -0.0714  0.7153 -0.0298
  987MOL0     C36118  -1.423   6.414   2.592  0.0074 -0.5510  0.3342
  987MOL0     N36119  -0.946   5.947   2.259  0.2938  0.2830 -0.0297
  987MOL0     N36120  -0.904   5.953   2.139 -1.0265  0.7952  0.8042
  987MOL0     C36121  -0.201   5.988   2.148  0.9473 -0.2192  0.7417
  987MOL0     C36122  -0.130   5.874   2.185 -0.2814  0.4447  0.3506
  987MOL0     C36123   0.149   5.614   2.425  0.0773  0.1063  0.3555
  987MOL0     C36124   0.091   5.583   2.552 -0.4399 -0.1019  0.6475
  987MOL0     C36125   0.138   5.479   2.629  0.2816 -0.1036 -0.5394
  987MOL0     C36126   0.252   5.414   2.593 -0.2282  0.0775 -0.0505
  987MOL0     O36127   0.295   5.313   2.681  0.8610 -0.3296 -0.1034
  987MOL0     C36128   0.408   5.341   2.767  0.5466  0.0152  0.7305
  987MOL0     C36129   0.370   5.324   2.919  0.2841 -0.7209 -0.1968
  987MOL0     C36130   0.499   5.336   2.997  0.4711 -0.3577 -0.3710
  987MOL0     C36131   0.499   5.255   3.126  1.1233  0.8656  0.5534
  987MOL0     C36132   0.408   5.297   3.230  0.5668  0.6456 -0.2992
  987MOL0     C36133   0.327   5.339   3.305  0.1339  0.0830 -0.5470
  987MOL0     C36134   0.321   5.448   2.476 -0.1246  0.0886  0.1801
  987MOL0     C36135   0.275   5.552   2.395  0.6035  0.6839  0.3108
  987MOL0     C36136   0.351   5.580   2.271 -0.4928 -0.3076 -0.0782
  987MOL0     H36137  -0.196   5.866   2.517 -2.5295 -0.1215  0.4523
  987MOL0     H36138  -0.343   6.067   2.440 -1.3019 -1.8507 -0.1697
  987MOL0     H36139  -0.381   6.140   2.008  1.3173 -2.1412  1.7988
  987MOL0     H36140  -0.240   6.237   2.041  1.6372 -2.1205  0.1389
  987MOL0     H36141  -0.429   6.395   2.164 -2.2169  1.3100 -1.2001
  987MOL0     H36142  -0.364   6.431   2.006  1.8939 -0.0281  1.4772
  987MOL0     H36143  -0.624   6.277   2.083  0.5657 -0.5510 -0.2015
  987MOL0     H36144  -0.610   6.438   2.014  0.6191  0.2166 -0.2518
  987MOL0     H36145  -0.643   6.336   1.801 -1.4935 -0.1692 -1.1900
  987MOL0     H36146  -0.508   6.239   1.821  0.5656  2.1772 -0.2221
  987MOL0     H36147  -0.673   6.079   1.967  3.8302  1.0757 -0.2224
  987MOL0     H36148  -0.704   6.108   1.796 -0.5935  2.2067 -1.3260
  987MOL0     H36149  -0.842   6.196   2.040  1.6653 -1.8719  0.3870
  987MOL0     H36150  -0.841   6.324   1.915 -0.6980  1.0956  2.1112
  987MOL0     H36151  -0.922   6.149   1.747  1.4521  0.8089  0.5111
  987MOL0     H36152  -1.049   6.192   1.860 -0.8569 -1.2183  2.6974
  987MOL0     H36153  -1.059   5.950   1.841  1.2327 -1.3626  0.8804
  987MOL0     H36154  -0.888   5.930   1.859  0.4715  0.7118 -1.3546
  987MOL0     H36155  -1.213   5.974   2.079 -0.8549 -0.2737  1.4152
  987MOL0     H36156  -1.127   5.870   2.425  0.2965  0.2354  0.4058
  987MOL0     H36157  -1.263   5.892   2.305  1.9341 -1.3214 -2.3458
  987MOL0     H36158  -1.276   6.148   2.342  0.2811  1.9601 -0.4566
  987MOL0     H36159  -1.287   6.063   2.494  0.6176  0.5036  0.1233
  987MOL0     H36160  -1.042   6.119   2.545 -0.7450 -0.2865  1.4637
  987MOL0     H36161  -1.039   6.201   2.395  1.1975 -2.3866  0.9906
  987MOL0     H36162  -1.077   6.356   2.566  0.8839 -0.5716 -0.1949
  987MOL0     H36163  -1.222   6.347   2.457 -1.1428  0.3015  1.3329
  987MOL0     H36164  -1.355   6.203   2.840  0.8029  1.4045 -0.8399
  987MOL0     H36165  -1.686   6.197   2.944 -0.2030  1.2153  2.9106
  987MOL0     H36166  -1.624   6.334   3.030 -1.8200 -0.5334  1.6356
  987MOL0     H36167  -1.530   6.187   3.012 -0.5947  0.1810  0.1067
  987MOL0     H36168  -1.725   6.865   2.676  0.1747 -1.5656 -0.0873
  987MOL0     H36169  -1.906   7.028   2.701  3.5152  1.2023 -1.3589
  987MOL0     H36170  -2.146   7.178   2.766 -2.0046  1.5936 -1.6315
  987MOL0     H36171  -2.129   7.059   2.647  0.5007 -0.1022  0.2344
  987MOL0     H36172  -2.356   6.978   2.722 -0.9336  0.4932 -1.7924
  987MOL0     H36173  -2.375   7.140   2.814 -2.7043  0.8252 -1.1016
  987MOL0     H36174  -2.339   7.123   2.514  1.8407  0.8968  0.9075
  987MOL0     H36175  -2.361   7.263   2.618 -0.4586  1.3961 -3.9235
  987MOL0     H36176  -2.578   7.183   2.699 -0.5732 -1.1361 -0.3511
  987MOL0     H36177  -2.567   7.049   2.584 -0.9179 -0.2000 -0.2569
  987MOL0     H36178  -2.598   7.345   2.543  0.8333 -0.4814  1.3604
  987MOL0     H36179  -2.539   7.234   2.407  1.6439 -2.3885  0.7367
  987MOL0     H36180  -2.809   7.203   2.551 -1.4822  0.3574 -1.2055
  987MOL0     H36181  -2.746   7.088   2.431  0.4679 -0.8394  0.8803
  987MOL0     H36182  -2.725   7.244   2.263  2.0392  1.5561  1.2623
  987MOL0     H36183  -2.805   7.369   2.369 -2.1643  0.2238  1.7681
  987MOL0     H36184  -2.973   7.271   2.214 -0.3758  1.0453  0.5619
  987MOL0     H36185  -3.005   7.215   2.380 -0.1677  2.2685 -1.0599
  987MOL0     H36186  -2.112   6.748   2.963  0.3619 -1.9118 -0.6513
  987MOL0     H36187  -1.982   6.585   2.891  0.4152  1.1412  1.0648
  987MOL0     H36188  -1.597   6.538   2.570  0.7938  0.8910 -0.4568
  987MOL0     H36189  -1.372   6.456   2.506  0.9400 -0.7750  0.7710
  987MOL0     H36190  -0.193   6.023   2.046  0.6205  2.0692  1.4349
  987MOL0     H36191  -0.057   5.826   2.121 -0.6305 -1.0372  1.0219
  987MOL0     H36192  -0.002   5.629   2.584 -0.8215 -0.4721  0.1055
  987MOL0     H36193   0.089   5.446   2.719  0.1231 -2.8613 -1.5605
  987MOL0     H36194   0.490   5.273   2.742 -0.6868 -1.6649  1.0413
  987MOL0     H36195   0.434   5.447   2.758  0.3098 -0.0349 -0.7399
  987MOL0     H36196   0.320   5.228   2.937 -3.4806  1.3238  1.5093
  987MOL0     H36197   0.296   5.401   2.945  0.4241 -0.7241  0.2230
  987MOL0     H36198   0.579   5.286   2.941  1.3873 -1.1541  1.5611
  987MOL0     H36199   0.509   5.444   3.013 -5.3359  0.3967  0.4499
  987MOL0     H36200   0.599   5.265   3.167  2.1549  1.4345 -1.9162
  987MOL0     H36201   0.481   5.148   3.110  0.6892  0.6798  2.0790
  987MOL0     H36202   0.250   5.361   3.376 -1.4363 -0.6404 -1.9337
  987MOL0     H36203   0.414   5.403   2.445  0.2925  0.5466  0.7434
  987MOL0     H36204   0.453   5.541   2.274  0.2808  1.4156 -1.9166
  987MOL0     H36205   0.292   5.532   2.193 -0.8222 -0.0134 -0.0140
  987MOL0     H36206   0.363   5.687   2.257 -0.5466 -0.2987 -0.0601
  988MOL0     O36207   9.232  10.629   7.165 -0.0029 -1.6688  0.5300
  988MOL0     C36208   9.201  10.548   7.078  0.2998  0.1874  0.7489
  988MOL0     O36209   9.096  10.464   7.084  0.7251  0.2730 -0.0131
  988MOL0     C36210   9.034  10.426   7.204 -0.5557 -0.7829 -0.3773
  988MOL0     C36211   9.096  10.437   7.334  0.0780 -0.0173 -0.0112
  988MOL0     C36212   9.011  10.396   7.447  0.2712  0.3329  0.6329
  988MOL0     C36213   8.875  10.370   7.441 -0.7750 -0.8414  1.1259
  988MOL0     O36214   8.806  10.334   7.552  1.0382 -0.0580  0.6802
  988MOL0     C36215   8.710  10.220   7.544 -0.2991 -0.2394  0.5086
  988MOL0     C36216   8.751  10.087   7.484 -0.0771  0.5450 -0.9089
  988MOL0     C36217   8.652   9.990   7.554  0.5209  0.5753 -0.1029
  988MOL0     C36218   8.653   9.838   7.507 -0.2737  0.4547 -0.8543
  988MOL0     C36219   8.554   9.752   7.593  0.8867  0.4688  0.3405
  988MOL0     C36220   8.604   9.697   7.724 -0.2003  0.4300  0.2164
  988MOL0     C36221   8.496   9.640   7.827  0.1265 -0.4239  0.9963
  988MOL0     C36222   8.562   9.549   7.942  1.0460  0.3302 -0.8143
  988MOL0     N36223   8.472   9.507   8.048 -0.4241 -0.3494  0.0693
  988MOL0     C36224   8.443   9.591   8.158  1.0181 -0.2764  0.8472
  988MOL0     C36225   8.397   9.502   8.247  0.1314  0.4016 -0.7700
  988MOL0     C36226   8.313   9.528   8.371 -0.9661  0.1191 -0.1968
  988MOL0     C36227   8.360   9.457   8.493  0.2207  0.0810 -0.3174
  988MOL0     C36228   8.243   9.447   8.599 -0.8374  0.3043  0.8396
  988MOL0     C36229   8.272   9.345   8.710  0.2423 -0.1981  0.1042
  988MOL0     O36230   8.397   9.395   8.770  0.4706  0.1525  0.1166
  988MOL0     C36231   8.432   9.359   8.904  0.7082 -0.2046 -0.2722
  988MOL0     C36232   8.528   9.435   8.966  0.2204  0.5232  0.5106
  988MOL0     C36233   8.572   9.406   9.093  0.2494  0.8165  0.0068
  988MOL0     C36234   8.668   9.497   9.164  0.1838  0.3324 -0.1828
  988MOL0     C36235   8.526   9.289   9.160 -0.0216  0.2917  0.1645
  988MOL0     C36236   8.567   9.248   9.298  0.2018 -0.0015  0.6285
  988MOL0     O36237   8.585   9.119   9.316 -0.0414  0.2145  0.0687
  988MOL0     C36238   8.596   9.063   9.439 -0.7780 -0.0791 -0.8414
  988MOL0     C36239   8.565   9.122   9.563 -0.0421 -0.8336 -0.1426
  988MOL0     C36240   8.575   9.049   9.681 -0.7332  0.4201 -0.1872
  988MOL0     C36241   8.593   8.910   9.668  0.3329 -0.0501  0.3749
  988MOL0     O36242   8.595   8.828   9.773  0.6971  0.7142  0.0952
  988MOL0     C36243   8.460   8.826   9.825  0.6841  0.3137 -0.5915
  988MOL0     C36244   8.434   8.731   9.944  0.3484  1.3226 -0.7050
  988MOL0     C36245   8.485   8.590   9.915 -0.6879  0.3143  0.0068
  988MOL0     C36246   8.443   8.495  10.031 -0.3524 -0.5278  0.6400
  988MOL0     C36247   8.472   8.345   9.978  0.3891 -0.7492 -0.4188
  988MOL0     C36248   8.474   8.241  10.088 -0.8549  0.0202  0.4246
  988MOL0     C36249   8.510   8.109  10.029  0.2359  0.2085  0.2483
  988MOL0     C36250   8.576   8.004  10.129 -0.2687 -0.3423 -0.1215
  988MOL0    Cl36251   8.444   7.946  10.242 -0.3433  0.0228 -0.6444
  988MOL0     C36252   8.627   8.850   9.542  0.4669 -0.0070  1.3655
  988MOL0     C36253   8.637   8.930   9.433 -0.4724 -0.4894 -0.3144
  988MOL0     O36254   8.594   9.337   9.377  0.4637 -0.7708  1.2149
  988MOL0     C36255   8.426   9.208   9.094 -1.1182  0.0748  0.4382
  988MOL0     C36256   8.369   9.253   8.969 -0.3558 -0.5276  0.9438
  988MOL0     N36257   8.399   9.375   8.195 -0.1275  0.1445 -0.9689
  988MOL0     N36258   8.454   9.377   8.088  0.2937 -0.0256  1.1516
  988MOL0     C36259   8.817  10.381   7.316 -0.2151 -0.0036  0.9931
  988MOL0     C36260   8.891  10.408   7.196  0.6099  0.3006 -0.8261
  988MOL0     C36261   9.280  10.534   6.956  0.2679  0.6082 -0.2475
  988MOL0     C36262   9.272  10.407   6.886 -0.4870 -0.6916 -0.0600
  988MOL0     C36263   9.362  10.394   6.780  0.3801 -0.0770  0.4514
  988MOL0     C36264   9.452  10.497   6.741 -0.5824  0.5202  0.4799
  988MOL0     O36265   9.544  10.488   6.639 -0.5815  0.0251 -1.0645
  988MOL0     C36266   9.533  10.394   6.533  0.8016 -0.1427 -0.1776
  988MOL0     C36267   9.586  10.459   6.408 -0.4342  1.4831 -0.3407
  988MOL0     C36268   9.506  10.566   6.332 -0.3462 -1.1565 -0.2539
  988MOL0     C36269   9.588  10.633   6.216  0.3342  0.3411  0.1658
  988MOL0     C36270   9.517  10.764   6.188 -0.0099  0.4253  0.2540
  988MOL0     C36271   9.481  10.879   6.155 -0.8791  0.5826  0.2979
  988MOL0     C36272   9.453  10.619   6.810 -0.9018  0.0945  0.4337
  988MOL0     C36273   9.375  10.633   6.922 -0.1579  0.3810  0.1642
  988MOL0     C36274   9.411  10.756   7.000 -0.7443  0.4644  0.2110
  988MOL0     H36275   9.200  10.450   7.360 -1.3371  0.1325  7.7839
  988MOL0     H36276   9.066  10.398   7.541  2.4846  1.4344 -0.6013
  988MOL0     H36277   8.613  10.246   7.501 -0.0275  0.2179  0.1776
  988MOL0     H36278   8.676  10.212   7.648  1.3545 -2.3211  0.9562
  988MOL0     H36279   8.748  10.091   7.375 -0.0315 -2.4924 -1.0824
  988MOL0     H36280   8.852  10.064   7.518 -0.0179 -0.9956 -2.0648
  988MOL0     H36281   8.671   9.982   7.662  0.8204  1.0847 -0.1158
  988MOL0     H36282   8.551  10.029   7.537  0.0823 -0.5474 -0.1903
  988MOL0     H36283   8.606   9.818   7.410 -1.1639 -1.2546 -0.1212
  988MOL0     H36284   8.753   9.795   7.510  0.0218  1.1530  1.7723
  988MOL0     H36285   8.547   9.658   7.537  2.2681 -0.6114  1.8739
  988MOL0     H36286   8.458   9.803   7.601  0.8201  0.2530  0.9837
  988MOL0     H36287   8.653   9.601   7.706 -1.0070 -0.2514  1.4644
  988MOL0     H36288   8.676   9.767   7.769 -0.7224  0.0566  1.7065
  988MOL0     H36289   8.416   9.581   7.781 -1.8596  1.6992  1.5246
  988MOL0     H36290   8.443   9.730   7.860  0.6427  0.3524 -0.1975
  988MOL0     H36291   8.605   9.464   7.889 -2.3824 -1.5015 -0.9425
  988MOL0     H36292   8.640   9.618   7.977 -1.8711  3.2013  0.5405
  988MOL0     H36293   8.441   9.699   8.163  0.0072 -0.1469 -1.2388
  988MOL0     H36294   8.215   9.494   8.337  0.4187 -1.0268 -3.5167
  988MOL0     H36295   8.309   9.635   8.394  0.9089 -0.0170  0.9345
  988MOL0     H36296   8.397   9.358   8.465 -0.7423 -0.2916 -0.2997
  988MOL0     H36297   8.434   9.531   8.527  3.0083 -2.9095  0.6495
  988MOL0     H36298   8.245   9.549   8.637  1.5413  1.0322 -0.9722
  988MOL0     H36299   8.146   9.410   8.564 -0.7973  0.9825 -0.0170
  988MOL0     H36300   8.197   9.361   8.787  1.4401 -1.2517  1.5526
  988MOL0     H36301   8.288   9.242   8.678  0.0426 -0.5461  1.0878
  988MOL0     H36302   8.569   9.521   8.913  1.1082 -2.0257 -3.4396
  988MOL0     H36303   8.755   9.442   9.202  1.1145  2.6065  1.1450
  988MOL0     H36304   8.632   9.546   9.254 -1.5180 -0.8583 -0.1771
  988MOL0     H36305   8.700   9.576   9.096 -2.9669  3.9539  2.1492
  988MOL0     H36306   8.540   9.227   9.580  2.7610 -0.6118  3.9743
  988MOL0     H36307   8.575   9.094   9.780  4.6875  1.4830 -0.3617
  988MOL0     H36308   8.429   8.926   9.856  0.0012  0.0873 -0.5235
  988MOL0     H36309   8.400   8.783   9.744 -1.1108  0.2417  0.7187
  988MOL0     H36310   8.462   8.767  10.044  0.0019  1.3000 -0.5981
  988MOL0     H36311   8.325   8.730   9.952  0.3603 -1.0064 -0.1801
  988MOL0     H36312   8.594   8.592   9.913 -0.6788  0.4901 -2.5151
  988MOL0     H36313   8.448   8.564   9.816  0.1784  0.0635 -0.2558
  988MOL0     H36314   8.336   8.505  10.049 -0.4282  1.8648 -0.8199
  988MOL0     H36315   8.505   8.527  10.115  1.2625  2.0335 -1.3732
  988MOL0     H36316   8.393   8.325   9.905 -1.9869 -0.5308  1.9436
  988MOL0     H36317   8.572   8.353   9.933 -0.1454  1.2511 -1.3541
  988MOL0     H36318   8.384   8.245  10.150 -0.2328 -0.4196  1.3841
  988MOL0     H36319   8.552   8.270  10.159  0.7019  0.2402 -1.2746
  988MOL0     H36320   8.585   8.130   9.953 -0.2798 -2.8164 -1.2280
  988MOL0     H36321   8.424   8.060   9.981  0.9399 -0.6753 -0.1400
  988MOL0     H36322   8.656   8.068  10.167 -0.2106 -1.3009  1.4304
  988MOL0     H36323   8.616   7.925  10.064 -3.9293 -1.3990 -1.3226
  988MOL0     H36324   8.640   8.742   9.539 -0.0568 -0.1176  2.4371
  988MOL0     H36325   8.667   8.887   9.338  0.0236  2.5660 -1.6338
  988MOL0     H36326   8.373   9.121   9.134 -0.0639 -1.4882 -1.4238
  988MOL0     H36327   8.296   9.199   8.909 -0.5791  0.3271  0.4291
  988MOL0     H36328   8.710  10.369   7.307 -0.5355  2.9204 -0.0586
  988MOL0     H36329   8.842  10.411   7.100  1.4208  2.8781 -1.2324
  988MOL0     H36330   9.204  10.328   6.918 -1.4153  0.3190  0.5369
  988MOL0     H36331   9.360  10.302   6.722  1.1436  0.4882 -0.5096
  988MOL0     H36332   9.595  10.308   6.559  3.1913  1.3009 -0.7375
  988MOL0     H36333   9.432  10.357   6.515  0.4737  0.5037  0.2766
  988MOL0     H36334   9.595  10.364   6.354  0.4847  2.3538 -1.7685
  988MOL0     H36335   9.688  10.495   6.423 -0.3793  0.4538  2.3761
  988MOL0     H36336   9.411  10.524   6.300 -1.1910 -0.7873  1.5973
  988MOL0     H36337   9.494  10.643   6.409  3.3470 -0.2109 -0.4343
  988MOL0     H36338   9.577  10.572   6.126  0.7650 -0.1739  0.4574
  988MOL0     H36339   9.694  10.649   6.240  0.7182 -2.5381  0.7044
  988MOL0     H36340   9.449  10.979   6.132 -0.4758  0.4249 -1.0291
  988MOL0     H36341   9.513  10.704   6.777  0.1032 -1.2298 -1.3458
  988MOL0     H36342   9.442  10.738   7.104  1.4177 -0.0485 -0.4587
  988MOL0     H36343   9.489  10.812   6.948 -1.7510  1.3149 -0.4102
  988MOL0     H36344   9.328  10.827   7.002  1.2970  3.0108 -0.6071
  989MOL0     O36345   2.033   2.854   6.086  0.4058 -0.1131 -0.4797
  989MOL0     C36346   2.029   2.862   5.962  0.7406 -0.4121  1.5067
  989MOL0     O36347   2.076   2.973   5.896  0.0409 -0.4757  0.0031
  989MOL0     C36348   2.159   3.065   5.954  0.3744  1.1039  0.2050
  989MOL0     C36349   2.090   3.179   5.998 -0.6909  0.5127  0.9782
  989MOL0     C36350   2.167   3.272   6.068  0.1216  0.5008 -0.1544
  989MOL0     C36351   2.307   3.254   6.091  0.1653  0.1799  0.3001
  989MOL0     O36352   2.375   3.331   6.179  0.7306 -0.3906 -0.4923
  989MOL0     C36353   2.504   3.366   6.126 -0.4142  0.3680 -0.1643
  989MOL0     C36354   2.543   3.505   6.152  0.3309  0.4501 -0.8005
  989MOL0     C36355   2.684   3.536   6.125  0.2121 -0.2421  0.2911
  989MOL0     C36356   2.689   3.687   6.144 -0.8076 -0.1507  0.4101
  989MOL0     C36357   2.838   3.730   6.133 -0.3790 -0.0448 -1.4370
  989MOL0     C36358   2.847   3.877   6.160  1.0380 -0.4515 -0.4456
  989MOL0     C36359   3.000   3.899   6.192  0.1596  0.1147 -0.6104
  989MOL0     C36360   3.016   4.050   6.235 -0.8936  0.0678  0.5941
  989MOL0     N36361   3.008   4.138   6.120  0.7288  0.9679 -0.7387
  989MOL0     C36362   3.100   4.137   6.012  0.3049  1.1905  0.1978
  989MOL0     C36363   3.099   4.259   5.971  0.7565  0.8127 -0.2306
  989MOL0     C36364   3.168   4.335   5.861 -0.6937  0.7259  0.6685
  989MOL0     C36365   3.260   4.256   5.773  0.3883  0.0736  0.2169
  989MOL0     C36366   3.202   4.278   5.632 -0.2929  0.4848 -0.7718
  989MOL0     C36367   3.301   4.235   5.524  0.2964  0.3245 -0.0200
  989MOL0     O36368   3.410   4.330   5.519  0.0826 -0.3163  0.3688
  989MOL0     C36369   3.499   4.319   5.413  0.7136 -0.0199  0.7424
  989MOL0     C36370   3.594   4.419   5.389 -0.3543 -0.4278 -0.3192
  989MOL0     C36371   3.682   4.423   5.278 -0.0604  0.1189 -0.0951
  989MOL0     C36372   3.762   4.543   5.251  0.3925  0.2933  0.1797
  989MOL0     C36373   3.689   4.305   5.189  0.0961 -0.4277 -0.0775
  989MOL0     C36374   3.785   4.291   5.077  0.0044  0.4771 -0.1926
  989MOL0     O36375   3.738   4.225   4.967  0.3044  0.0993 -0.8391
  989MOL0     C36376   3.829   4.201   4.865 -0.3483  0.5014 -0.1099
  989MOL0     C36377   3.768   4.199   4.740 -0.1543  0.0328 -0.6117
  989MOL0     C36378   3.830   4.178   4.622  1.2959  0.6796 -0.1943
  989MOL0     C36379   3.966   4.145   4.620 -0.0227  0.2664 -0.0060
  989MOL0     O36380   4.026   4.112   4.499 -0.3899 -0.2997  0.1768
  989MOL0     C36381   4.088   3.982   4.490 -0.1206 -0.5152  0.2974
  989MOL0     C36382   4.087   3.945   4.332  0.5245  0.9243 -0.1744
  989MOL0     C36383   4.137   3.798   4.310  0.3741 -0.2215  1.0441
  989MOL0     C36384   4.108   3.742   4.165  0.1203  0.0214  0.9553
  989MOL0     C36385   4.161   3.827   4.058 -0.1431 -0.4131  0.2071
  989MOL0     C36386   4.309   3.873   4.062 -0.0480  0.5370  0.2760
  989MOL0     C36387   4.329   3.973   3.954  0.0647 -0.0119  0.1098
  989MOL0     C36388   4.465   4.032   3.956  0.7911  0.2839  0.0878
  989MOL0    Cl36389   4.606   3.916   3.957 -0.4183  0.0854 -0.3185
  989MOL0     C36390   4.035   4.129   4.743 -1.0146  0.4879  1.3587
  989MOL0     C36391   3.963   4.161   4.861 -0.2068  0.9291 -0.6802
  989MOL0     O36392   3.895   4.342   5.085 -0.4073  0.1727 -0.4396
  989MOL0     C36393   3.591   4.206   5.217 -0.0165 -0.2206  0.3423
  989MOL0     C36394   3.504   4.218   5.318  0.5158  1.1116 -0.5515
  989MOL0     N36395   3.006   4.331   6.042  0.2363 -0.0750  0.9393
  989MOL0     N36396   2.949   4.265   6.132  0.0197 -0.1482  0.0078
  989MOL0     C36397   2.367   3.135   6.050  0.1930 -0.1549 -0.3756
  989MOL0     C36398   2.295   3.045   5.978  0.6535  0.2015  0.3770
  989MOL0     C36399   1.955   2.765   5.878  0.1485  0.0727  0.4085
  989MOL0     C36400   1.993   2.740   5.747  0.7174  0.1115  0.3107
  989MOL0     C36401   1.928   2.639   5.669 -1.0248  0.2964 -0.4950
  989MOL0     C36402   1.814   2.579   5.720 -0.2541 -0.7441 -0.1365
  989MOL0     O36403   1.750   2.479   5.656  0.2075  0.3996 -0.3729
  989MOL0     C36404   1.831   2.361   5.639  0.2971 -0.9455 -0.5298
  989MOL0     C36405   1.873   2.338   5.497  0.5296  0.7317  0.8130
  989MOL0     C36406   1.970   2.220   5.475 -0.0844  0.2888 -0.0179
  989MOL0     C36407   2.037   2.215   5.332  0.6435  0.2644 -0.3126
  989MOL0     C36408   2.096   2.085   5.300  0.4337 -0.3976 -0.1884
  989MOL0     C36409   2.146   1.977   5.268 -0.5994 -0.2905 -0.1231
  989MOL0     C36410   1.762   2.615   5.840 -0.5575  0.2730 -0.2235
  989MOL0     C36411   1.837   2.697   5.925  1.1039 -0.9991 -0.4727
  989MOL0     C36412   1.786   2.703   6.065 -0.3089  0.5798  0.1028
  989MOL0     H36413   1.985   3.198   5.982 -0.9578 -1.0608  0.6666
  989MOL0     H36414   2.131   3.360   6.121  1.6577  0.9045  0.2569
  989MOL0     H36415   2.506   3.366   6.017 -2.4707  0.7348 -0.2279
  989MOL0     H36416   2.582   3.303   6.171  1.2850  2.4402 -0.0303
  989MOL0     H36417   2.495   3.569   6.077  1.8148  1.9009 -0.5835
  989MOL0     H36418   2.515   3.537   6.252  1.6144 -1.7817  0.3408
  989MOL0     H36419   2.743   3.494   6.208 -0.6015 -0.3087  0.8501
  989MOL0     H36420   2.720   3.493   6.031 -1.8356 -1.1707 -0.1335
  989MOL0     H36421   2.636   3.741   6.065  0.9177 -0.2238 -0.8342
  989MOL0     H36422   2.640   3.713   6.239 -0.2579  1.2469  0.3342
  989MOL0     H36423   2.876   3.713   6.032 -1.5464  4.6193 -2.8906
  989MOL0     H36424   2.891   3.668   6.207  0.1586  1.3317 -0.6276
  989MOL0     H36425   2.801   3.930   6.076  2.4443 -1.5770 -1.9971
  989MOL0     H36426   2.792   3.909   6.249 -2.4771 -0.4721 -2.4054
  989MOL0     H36427   3.062   3.882   6.104  2.7656  3.7215  0.2883
  989MOL0     H36428   3.028   3.843   6.282 -2.2442  1.8855  1.3815
  989MOL0     H36429   2.944   4.077   6.313  1.1726  0.6608  2.4124
  989MOL0     H36430   3.115   4.066   6.280  0.1515 -0.6850 -1.3187
  989MOL0     H36431   3.157   4.057   5.966 -0.2070  1.5172 -1.0716
  989MOL0     H36432   3.237   4.409   5.903 -0.2266 -0.1022  1.3990
  989MOL0     H36433   3.089   4.389   5.809  1.1417  3.4295  0.4879
  989MOL0     H36434   3.362   4.295   5.772 -0.7518  3.3724  1.0087
  989MOL0     H36435   3.253   4.148   5.792 -0.7682  0.5624  3.0772
  989MOL0     H36436   3.108   4.221   5.622  0.0009 -0.5335  1.5823
  989MOL0     H36437   3.188   4.386   5.628  2.8078  0.9284 -2.3033
  989MOL0     H36438   3.346   4.138   5.544  1.7735  0.9786 -0.0434
  989MOL0     H36439   3.258   4.240   5.423 -1.4625  3.2730  0.7436
  989MOL0     H36440   3.609   4.504   5.455  2.6568  0.0576 -1.4680
  989MOL0     H36441   3.732   4.624   5.318  2.5916  0.0571  1.5398
  989MOL0     H36442   3.747   4.569   5.146  1.8176 -0.2271 -0.1769
  989MOL0     H36443   3.866   4.511   5.262  0.1918 -0.6394 -0.5403
  989MOL0     H36444   3.662   4.222   4.729  0.6578  3.8425 -2.3024
  989MOL0     H36445   3.772   4.191   4.531 -0.7312  1.2139  1.1164
  989MOL0     H36446   4.192   3.999   4.516 -0.1141 -0.2188  0.0864
  989MOL0     H36447   4.049   3.902   4.553 -0.0273  0.0098  1.0322
  989MOL0     H36448   3.980   3.957   4.314  0.8479 -0.2714 -3.8442
  989MOL0     H36449   4.141   4.012   4.264 -0.4806  0.7250 -1.1984
  989MOL0     H36450   4.088   3.742   4.390  1.2106 -2.6497 -0.0562
  989MOL0     H36451   4.246   3.796   4.321  0.9009  2.7777 -1.8941
  989MOL0     H36452   4.000   3.727   4.161  0.4836 -3.4276  0.6254
  989MOL0     H36453   4.151   3.641   4.164  0.0037 -0.0910 -1.7259
  989MOL0     H36454   4.156   3.769   3.966  2.1564 -0.0613 -0.2003
  989MOL0     H36455   4.095   3.907   4.023 -1.2129 -0.7104  1.4667
  989MOL0     H36456   4.379   3.789   4.056  0.8679  1.3624 -1.4724
  989MOL0     H36457   4.341   3.920   4.155  4.8837 -0.5551 -0.6126
  989MOL0     H36458   4.266   4.060   3.975  1.2501  0.3578  2.5096
  989MOL0     H36459   4.304   3.935   3.854  0.4669 -0.2994  0.1156
  989MOL0     H36460   4.477   4.109   4.033 -0.2820  2.1032 -1.4672
  989MOL0     H36461   4.462   4.077   3.856 -1.8538 -0.7611 -0.3735
  989MOL0     H36462   4.140   4.099   4.749 -0.5983  1.4523 -0.2735
  989MOL0     H36463   4.012   4.139   4.955  1.5648  2.4686 -1.1839
  989MOL0     H36464   3.605   4.121   5.151  4.4647  0.4880  0.0563
  989MOL0     H36465   3.428   4.140   5.321  1.0557  0.5130 -1.8394
  989MOL0     H36466   2.471   3.106   6.061  0.6002 -0.6131 -4.0792
  989MOL0     H36467   2.330   2.950   5.940 -0.9195 -0.4713  0.5297
  989MOL0     H36468   2.077   2.793   5.701 -0.1241  0.8695 -0.4048
  989MOL0     H36469   1.967   2.613   5.571 -0.6748 -0.5689 -0.1380
  989MOL0     H36470   1.919   2.359   5.705 -0.6504  2.4776  1.0572
  989MOL0     H36471   1.774   2.272   5.669  2.5468 -2.8083 -1.4520
  989MOL0     H36472   1.909   2.428   5.447  1.3704  0.0170  0.0924
  989MOL0     H36473   1.779   2.320   5.443  1.6242 -1.6014 -0.4851
  989MOL0     H36474   2.051   2.227   5.548  1.8795 -0.0066 -2.0218
  989MOL0     H36475   1.907   2.133   5.496  1.9844 -0.7637  2.3520
  989MOL0     H36476   2.103   2.302   5.324 -1.0258  1.7122  0.9549
  989MOL0     H36477   1.953   2.235   5.266  0.0179 -1.1248  0.0263
  989MOL0     H36478   2.187   1.882   5.242  0.6398  0.5314 -1.3376
  989MOL0     H36479   1.664   2.570   5.858  0.2084 -1.7816 -0.8830
  989MOL0     H36480   1.825   2.617   6.120 -3.1939 -0.9089  0.0373
  989MOL0     H36481   1.768   2.802   6.109  0.7628  1.0016 -0.3825
  989MOL0     H36482   1.678   2.685   6.056 -0.4947  1.4251  0.5291
  990MOL0     O36483   8.552   8.934   5.983 -0.1458 -0.5376 -0.1743
  990MOL0     C36484   8.657   8.865   6.000 -0.4896  0.4356 -0.1983
  990MOL0     O36485   8.727   8.847   6.116  0.3905 -0.1268 -1.1239
  990MOL0     C36486   8.662   8.883   6.241  0.7478  0.5015 -0.5785
  990MOL0     C36487   8.741   8.944   6.337 -0.2596 -0.1601 -0.6771
  990MOL0     C36488   8.683   8.986   6.463  0.6086  0.2077  0.1045
  990MOL0     C36489   8.546   8.964   6.485 -0.5320 -0.1927 -0.4349
  990MOL0     O36490   8.502   8.997   6.610  0.1019  0.5533 -0.1983
  990MOL0     C36491   8.503   9.142   6.633  0.4522 -0.4512 -0.1829
  990MOL0     C36492   8.382   9.182   6.710 -0.0234  0.4663  0.0642
  990MOL0     C36493   8.248   9.134   6.641  0.0937  0.6597 -0.4360
  990MOL0     C36494   8.137   9.134   6.746  0.1686  0.4065 -0.1998
  990MOL0     C36495   8.013   9.046   6.710  0.1460 -0.6417 -0.1850
  990MOL0     C36496   7.935   9.052   6.583  0.0957  0.5927  0.5698
  990MOL0     C36497   7.889   9.195   6.569 -0.4011 -0.1086 -0.1165
  990MOL0     C36498   7.892   9.242   6.417  0.1331  0.1396  0.3823
  990MOL0     N36499   7.792   9.178   6.327 -0.4437 -1.3821  0.8608
  990MOL0     C36500   7.830   9.072   6.251  0.1951 -0.0524 -0.5497
  990MOL0     C36501   7.734   9.067   6.153 -0.1484  0.1425  0.5073
  990MOL0     C36502   7.742   8.974   6.034 -1.2052 -0.2041  0.0012
  990MOL0     C36503   7.622   8.876   6.016 -0.5378 -0.3708 -0.2286
  990MOL0     C36504   7.636   8.734   6.069  0.7414  0.0123 -0.8725
  990MOL0     C36505   7.665   8.720   6.222 -0.0977 -0.5549  0.3891
  990MOL0     O36506   7.813   8.727   6.250  0.2246 -0.1711 -0.3327
  990MOL0     C36507   7.858   8.718   6.380 -0.4851 -0.2459  0.0128
  990MOL0     C36508   7.764   8.711   6.483 -1.4346  0.7488  0.2235
  990MOL0     C36509   7.800   8.660   6.603 -0.0381 -0.4199 -0.0939
  990MOL0     C36510   7.693   8.644   6.708  0.1821  0.3754 -0.5658
  990MOL0     C36511   7.939   8.644   6.637  0.1844 -0.3737  0.5783
  990MOL0     C36512   8.009   8.596   6.760  0.9415 -0.0833 -0.2189
  990MOL0     O36513   8.142   8.617   6.777 -0.1172 -0.6000  0.3184
  990MOL0     C36514   8.213   8.563   6.880  0.1926 -0.0914  0.1364
  990MOL0     C36515   8.245   8.431   6.885 -0.0153  0.1596  0.7762
  990MOL0     C36516   8.318   8.376   6.994 -0.2716 -0.4679 -0.1295
  990MOL0     C36517   8.372   8.466   7.096  0.2588  1.3320  0.3641
  990MOL0     O36518   8.460   8.427   7.196 -0.3202 -0.5192 -0.0833
  990MOL0     C36519   8.426   8.322   7.284 -0.5797 -0.1039 -0.3205
  990MOL0     C36520   8.491   8.372   7.412  0.7270  0.4199  0.1424
  990MOL0     C36521   8.438   8.299   7.539  0.6030 -0.9606  0.1836
  990MOL0     C36522   8.291   8.346   7.578  0.0055 -0.4563  0.1541
  990MOL0     C36523   8.252   8.263   7.704  0.4842 -0.2601  0.8936
  990MOL0     C36524   8.093   8.265   7.728 -0.4309 -0.3354  0.1788
  990MOL0     C36525   8.046   8.408   7.765  0.4936 -0.6666  0.2685
  990MOL0     C36526   7.915   8.418   7.840  0.7068  0.6324  0.4256
  990MOL0    Cl36527   7.792   8.352   7.737 -0.2556 -0.1295 -0.1178
  990MOL0     C36528   8.348   8.597   7.086  0.1803 -0.8959 -0.0888
  990MOL0     C36529   8.267   8.648   6.976  0.2090 -0.8215  0.6645
  990MOL0     O36530   7.944   8.538   6.845 -0.3314 -0.1290 -0.4301
  990MOL0     C36531   8.036   8.678   6.536 -0.2105 -0.4442  0.0145
  990MOL0     C36532   7.997   8.706   6.404  0.3516 -0.0808  0.1442
  990MOL0     N36533   7.648   9.170   6.165 -0.4155 -0.6150 -0.4114
  990MOL0     N36534   7.687   9.243   6.264  0.0496  0.1811  0.7956
  990MOL0     C36535   8.469   8.894   6.389 -0.1204  0.7438 -0.0419
  990MOL0     C36536   8.531   8.847   6.274  0.4096 -0.5549  0.3182
  990MOL0     C36537   8.696   8.779   5.884 -0.3126 -0.2730  0.1830
  990MOL0     C36538   8.833   8.748   5.873  0.6926 -0.0093 -0.2710
  990MOL0     C36539   8.886   8.664   5.776 -0.5223 -0.1411  0.2286
  990MOL0     C36540   8.799   8.598   5.693 -1.3299 -0.1095  0.0234
  990MOL0     O36541   8.841   8.502   5.603 -1.1485  0.0479 -0.5532
  990MOL0     C36542   8.962   8.424   5.621  0.1732 -0.0790 -0.5421
  990MOL0     C36543   8.976   8.335   5.501  0.3130 -0.4287 -0.2675
  990MOL0     C36544   9.001   8.182   5.545  0.3460 -1.1939 -0.3844
  990MOL0     C36545   8.966   8.078   5.436 -0.2822 -0.6513 -0.0694
  990MOL0     C36546   9.069   8.061   5.328 -0.1434  0.3555 -1.0121
  990MOL0     C36547   9.166   8.059   5.248 -0.1080  0.4978 -0.7089
  990MOL0     C36548   8.658   8.623   5.709 -0.5482 -0.3558 -0.2458
  990MOL0     C36549   8.605   8.715   5.803 -0.5090 -0.1580  0.0133
  990MOL0     C36550   8.446   8.734   5.805 -0.4973 -0.1332  0.3977
  990MOL0     H36551   8.838   8.974   6.301  1.3879 -2.8365  1.1571
  990MOL0     H36552   8.732   9.039   6.544  0.2741 -1.0413  1.1676
  990MOL0     H36553   8.506   9.188   6.533 -0.1719 -0.5067 -0.2316
  990MOL0     H36554   8.588   9.177   6.693 -0.0012  0.8047 -0.2554
  990MOL0     H36555   8.389   9.145   6.813  1.7329  2.3348  0.6917
  990MOL0     H36556   8.368   9.291   6.711 -2.5676  0.2696  3.2678
  990MOL0     H36557   8.228   9.190   6.549 -1.3052  1.5877  0.3889
  990MOL0     H36558   8.264   9.028   6.619  0.1551  0.8917 -1.5323
  990MOL0     H36559   8.181   9.102   6.841 -0.6221 -2.0729 -0.5866
  990MOL0     H36560   8.107   9.238   6.756 -1.1959  0.1962 -1.7224
  990MOL0     H36561   7.945   9.068   6.793  1.1808  1.8211  0.1018
  990MOL0     H36562   8.030   8.939   6.724 -3.7437 -1.3342  0.3554
  990MOL0     H36563   7.996   9.029   6.496 -1.6665  0.1392 -0.5868
  990MOL0     H36564   7.841   8.996   6.588 -0.4457  1.5608  1.8663
  990MOL0     H36565   7.956   9.264   6.622 -0.6319  1.3673 -1.6694
  990MOL0     H36566   7.787   9.200   6.609  0.4894  0.4957  2.2662
  990MOL0     H36567   7.876   9.349   6.428  0.1456  0.1398  0.4056
  990MOL0     H36568   7.995   9.229   6.384  0.7782 -4.4924  3.3080
  990MOL0     H36569   7.913   9.004   6.271 -1.0268 -1.5926 -0.5032
  990MOL0     H36570   7.831   8.911   6.027 -2.2314 -1.6066 -0.9730
  990MOL0     H36571   7.750   9.046   5.952 -0.4668  0.6248  0.7751
  990MOL0     H36572   7.533   8.917   6.064 -0.2156 -0.8307  0.8019
  990MOL0     H36573   7.602   8.875   5.909  0.8712  1.6297 -0.5844
  990MOL0     H36574   7.540   8.685   6.049  0.9425 -1.8248  2.1230
  990MOL0     H36575   7.720   8.687   6.017  0.9548  1.5801 -2.0071
  990MOL0     H36576   7.602   8.803   6.255  1.9049  2.0468 -1.7960
  990MOL0     H36577   7.621   8.626   6.255  0.3207 -0.8283  0.1746
  990MOL0     H36578   7.659   8.731   6.464 -1.1581  1.0864 -1.0087
  990MOL0     H36579   7.717   8.580   6.794  0.6551 -0.7613 -1.5104
  990MOL0     H36580   7.597   8.609   6.669 -1.2936  2.9005  0.5526
  990MOL0     H36581   7.679   8.744   6.748  1.4816  1.9325 -3.6889
  990MOL0     H36582   8.221   8.371   6.797 -1.2226 -0.7357  1.6777
  990MOL0     H36583   8.332   8.269   6.991 -0.2325 -0.5091  1.0717
  990MOL0     H36584   8.317   8.306   7.285 -0.6424  0.3251 -0.2736
  990MOL0     H36585   8.459   8.223   7.250 -0.8054  0.3138 -1.8209
  990MOL0     H36586   8.600   8.372   7.403  1.0090 -2.4750  2.2913
  990MOL0     H36587   8.472   8.479   7.429 -1.3728  0.0252  0.5712
  990MOL0     H36588   8.507   8.316   7.623  1.8986  0.2590 -1.0739
  990MOL0     H36589   8.442   8.191   7.523  1.2050 -0.5615 -3.0231
  990MOL0     H36590   8.225   8.333   7.492 -0.4347  1.1975  0.2100
  990MOL0     H36591   8.278   8.453   7.601  2.1481 -0.9138  4.8484
  990MOL0     H36592   8.293   8.162   7.690  0.5048 -0.4777  2.3359
  990MOL0     H36593   8.302   8.298   7.795  0.6562  0.8694  0.3706
  990MOL0     H36594   8.071   8.195   7.810  1.9159  1.7467  2.7816
  990MOL0     H36595   8.041   8.224   7.641 -2.5010 -0.2983  1.3486
  990MOL0     H36596   8.034   8.472   7.677 -1.3360 -0.4179  0.6594
  990MOL0     H36597   8.128   8.444   7.827 -0.3790  0.6988  0.6585
  990MOL0     H36598   7.900   8.524   7.859 -2.8038  0.1768  0.8905
  990MOL0     H36599   7.917   8.355   7.930 -2.6540 -0.7535 -0.3242
  990MOL0     H36600   8.398   8.666   7.154 -0.3050 -0.8446  0.2165
  990MOL0     H36601   8.259   8.754   6.950 -4.3649 -1.1329  0.1104
  990MOL0     H36602   8.143   8.675   6.555 -0.2019 -2.5904 -0.1132
  990MOL0     H36603   8.077   8.708   6.331 -0.3811 -0.2977 -0.6672
  990MOL0     H36604   8.365   8.865   6.401 -0.1990  0.8462 -0.4648
  990MOL0     H36605   8.469   8.807   6.194  3.8198 -1.1898 -2.2264
  990MOL0     H36606   8.901   8.789   5.947 -1.6660  1.1403  1.3746
  990MOL0     H36607   8.990   8.642   5.798 -1.1595 -1.5927  2.0635
  990MOL0     H36608   9.049   8.486   5.645 -0.7222  0.5804  1.1668
  990MOL0     H36609   8.966   8.354   5.704 -4.2001  0.0705  0.0317
  990MOL0     H36610   9.065   8.373   5.450  0.3565 -0.7641 -0.4413
  990MOL0     H36611   8.882   8.342   5.446 -0.2825 -1.8530  0.5052
  990MOL0     H36612   9.103   8.182   5.586  0.2704  1.4427 -0.0119
  990MOL0     H36613   8.934   8.157   5.628  0.4545  2.4023  0.9798
  990MOL0     H36614   8.869   8.089   5.387 -0.4264  2.7131  0.7403
  990MOL0     H36615   8.968   7.977   5.478  0.8731  0.5010  2.8710
  990MOL0     H36616   9.254   8.068   5.187  1.6966 -1.8284  1.3645
  990MOL0     H36617   8.578   8.578   5.652 -2.5742  2.1130  0.4711
  990MOL0     H36618   8.414   8.689   5.899  0.9279  0.2680  1.1169
  990MOL0     H36619   8.414   8.838   5.811  2.0018  0.6545  1.7436
  990MOL0     H36620   8.419   8.683   5.713  3.5867  0.9706 -1.6764
  991MOL0     O36621   8.045   5.028   4.652 -0.2441 -0.2696  0.7231
  991MOL0     C36622   7.943   4.956   4.664  0.5670 -0.3857  0.4312
  991MOL0     O36623   7.909   4.888   4.776 -0.1271  0.2207  0.0422
  991MOL0     C36624   8.008   4.876   4.867 -0.5028  0.9194 -0.6037
  991MOL0     C36625   7.983   4.912   5.003  0.8563  0.2830 -0.3792
  991MOL0     C36626   8.087   4.892   5.097 -0.0827 -0.2654  0.0339
  991MOL0     C36627   8.203   4.826   5.061 -0.2818 -0.5599 -0.1591
  991MOL0     O36628   8.308   4.813   5.151 -1.0123  0.0677  1.1450
  991MOL0     C36629   8.418   4.901   5.127 -0.5543 -0.3672  0.2456
  991MOL0     C36630   8.410   5.015   5.229  0.0233  0.4124 -0.5509
  991MOL0     C36631   8.548   5.080   5.256  0.4261 -0.9460  0.1915
  991MOL0     C36632   8.598   5.137   5.123  0.1469 -0.6245  0.1161
  991MOL0     C36633   8.751   5.187   5.137 -0.1995 -0.0906  0.0808
  991MOL0     C36634   8.804   5.255   5.015  0.3928  0.2732  0.1546
  991MOL0     C36635   8.946   5.308   5.042  0.1577 -0.2294  0.3188
  991MOL0     C36636   9.008   5.350   4.913  0.6328 -0.3383  0.8833
  991MOL0     N36637   9.129   5.423   4.925 -0.5340  0.3399  0.6691
  991MOL0     C36638   9.233   5.387   5.011 -0.2990 -0.3635 -0.2373
  991MOL0     C36639   9.334   5.475   4.978  0.3847  0.0813 -0.6088
  991MOL0     C36640   9.471   5.467   5.040  0.7921  0.4242  0.2033
  991MOL0     C36641   9.582   5.411   4.947  0.4373 -0.1461 -0.4797
  991MOL0     C36642   9.726   5.422   5.020  0.4500  0.3491  0.0054
  991MOL0     C36643   9.836   5.366   4.920 -0.6842  0.8336 -0.9352
  991MOL0     O36644   9.904   5.250   4.977 -0.0485 -0.2412  0.4414
  991MOL0     C36645   9.966   5.169   4.883 -0.3205 -0.6290  0.4786
  991MOL0     C36646   9.895   5.057   4.843 -0.0813  0.2497 -0.4121
  991MOL0     C36647   9.944   4.971   4.747  0.7087 -0.6139 -0.0877
  991MOL0     C36648   9.839   4.860   4.716 -0.0195 -0.4423 -0.7787
  991MOL0     C36649  10.074   4.988   4.694 -0.4735  0.3122 -0.5556
  991MOL0     C36650  10.128   4.902   4.585  0.8717  0.5551  1.0167
  991MOL0     O36651  10.253   4.939   4.539  0.7173  0.3686 -0.8566
  991MOL0     C36652  10.293   4.877   4.428 -0.5766  0.4263 -0.2820
  991MOL0     C36653  10.427   4.871   4.402  0.3267  0.4922 -0.2377
  991MOL0     C36654  10.472   4.821   4.281 -0.3422  0.3234  0.3943
  991MOL0     C36655  10.394   4.768   4.183  0.6218 -0.0757  0.5535
  991MOL0     O36656  10.445   4.685   4.087 -0.3025  0.8220 -0.1616
  991MOL0     C36657  10.441   4.541   4.122  0.5069 -0.4452 -0.2812
  991MOL0     C36658  10.536   4.449   4.037 -0.0312 -0.4668  0.1316
  991MOL0     C36659  10.476   4.414   3.902 -0.1370  0.6161 -0.4580
  991MOL0     C36660  10.336   4.353   3.903 -0.7148 -0.1353 -0.8885
  991MOL0     C36661  10.326   4.275   3.772 -0.0407  0.1474  0.7064
  991MOL0     C36662  10.192   4.210   3.773 -0.2649 -1.0487  0.1571
  991MOL0     C36663  10.161   4.146   3.637 -0.1327  0.4751  0.0512
  991MOL0     C36664  10.132   4.238   3.521 -0.0078 -0.3444 -0.3208
  991MOL0    Cl36665  10.198   4.172   3.361 -0.1473  0.2409 -0.4594
  991MOL0     C36666  10.255   4.799   4.193  0.5089  0.2450  0.3001
  991MOL0     C36667  10.204   4.847   4.317 -0.1273 -0.1928  0.2099
  991MOL0     O36668  10.056   4.805   4.549  0.3584 -0.8577  0.3222
  991MOL0     C36669  10.152   5.091   4.753 -0.2574  0.3356 -0.4445
  991MOL0     C36670  10.094   5.189   4.836 -0.3819  0.6867  0.4903
  991MOL0     N36671   9.286   5.572   4.890  0.2222  0.6321 -0.6537
  991MOL0     N36672   9.165   5.535   4.851  0.5087  0.2360 -0.5491
  991MOL0     C36673   8.221   4.790   4.923 -0.4490 -0.1772 -0.5545
  991MOL0     C36674   8.133   4.821   4.829  0.3087 -0.6887  0.2030
  991MOL0     C36675   7.847   4.961   4.548 -0.1481  0.0940 -0.8249
  991MOL0     C36676   7.713   4.983   4.581 -0.0236 -0.2030 -0.1419
  991MOL0     C36677   7.617   4.965   4.480 -0.3519  0.4512  0.5058
  991MOL0     C36678   7.643   4.939   4.350  0.3476  0.1549  0.5445
  991MOL0     O36679   7.548   4.922   4.246  0.8569  0.3354  0.1048
  991MOL0     C36680   7.418   4.974   4.258  0.4355 -0.0356 -1.1044
  991MOL0     C36681   7.314   4.868   4.306 -0.3919 -0.6046  0.5834
  991MOL0     C36682   7.171   4.894   4.262 -0.6572  0.4040 -0.4198
  991MOL0     C36683   7.114   5.031   4.301 -0.1838 -1.1388  0.1903
  991MOL0     C36684   6.971   5.044   4.267  0.7802 -0.8410  0.4760
  991MOL0     C36685   6.848   5.044   4.238 -0.9471  0.1080  0.1769
  991MOL0     C36686   7.781   4.930   4.319  0.1086  0.1427  0.1347
  991MOL0     C36687   7.881   4.935   4.413  0.3926 -1.8419 -0.4884
  991MOL0     C36688   8.022   4.894   4.377 -0.6369 -0.5157  0.4206
  991MOL0     H36689   7.890   4.959   5.032 -0.3871 -1.1407 -1.8709
  991MOL0     H36690   8.073   4.907   5.203  0.0112 -2.4233  0.3992
  991MOL0     H36691   8.422   4.941   5.025  0.0196 -1.7189 -0.2777
  991MOL0     H36692   8.512   4.846   5.140 -2.6135 -3.7619  2.1344
  991MOL0     H36693   8.322   5.075   5.203 -1.4099 -1.2041  0.3902
  991MOL0     H36694   8.390   4.969   5.326 -1.2451 -1.8186 -1.7900
  991MOL0     H36695   8.557   5.177   5.307  0.0093 -2.1644  2.7250
  991MOL0     H36696   8.621   5.013   5.302  1.3077 -0.3680 -0.3444
  991MOL0     H36697   8.604   5.063   5.043  1.1589  2.8042 -3.2358
  991MOL0     H36698   8.538   5.224   5.097  2.5986  1.2352  0.2533
  991MOL0     H36699   8.815   5.103   5.166 -0.5816  0.4806  2.8423
  991MOL0     H36700   8.751   5.259   5.219 -0.6761 -1.3440  1.2187
  991MOL0     H36701   8.826   5.190   4.930  0.3112  0.6516 -0.1573
  991MOL0     H36702   8.733   5.331   4.980  3.3409  2.3876 -1.7954
  991MOL0     H36703   9.011   5.226   5.072  1.2239 -0.1527 -1.6662
  991MOL0     H36704   8.944   5.389   5.116 -4.6048 -0.4978  0.7900
  991MOL0     H36705   9.029   5.257   4.860  1.8466 -0.8000  2.1178
  991MOL0     H36706   8.949   5.411   4.844  2.0178 -1.6072 -1.5485
  991MOL0     H36707   9.233   5.299   5.075  2.2090 -0.4737 -0.2947
  991MOL0     H36708   9.452   5.402   5.126 -2.8479  1.7298  0.5807
  991MOL0     H36709   9.510   5.564   5.072  0.4271  0.9041 -0.7669
  991MOL0     H36710   9.566   5.305   4.926  0.4388 -0.5452  1.3090
  991MOL0     H36711   9.588   5.458   4.849 -1.5188  0.0601 -0.5391
  991MOL0     H36712   9.750   5.527   5.039  0.2058  1.1048 -3.2219
  991MOL0     H36713   9.722   5.380   5.121 -3.6250  2.5094  0.9924
  991MOL0     H36714   9.787   5.333   4.828 -0.8712  0.5824 -0.7464
  991MOL0     H36715   9.908   5.440   4.882  2.4174 -0.1215  2.4920
  991MOL0     H36716   9.795   5.053   4.885 -1.2693  2.1489 -2.8511
  991MOL0     H36717   9.764   4.864   4.796  1.1966 -0.5596  0.4204
  991MOL0     H36718   9.893   4.765   4.720 -2.7160 -2.0244  0.8197
  991MOL0     H36719   9.785   4.893   4.628  0.7468  0.3326 -0.9747
  991MOL0     H36720  10.491   4.907   4.482  0.7156  3.3225 -1.7092
  991MOL0     H36721  10.579   4.827   4.263 -0.2325  2.8894  1.5104
  991MOL0     H36722  10.476   4.534   4.225 -0.1781 -0.6142 -0.0548
  991MOL0     H36723  10.336   4.510   4.130  0.0141  0.9326 -1.0111
  991MOL0     H36724  10.630   4.504   4.030 -0.2464 -0.1544 -0.4145
  991MOL0     H36725  10.557   4.361   4.099  2.3497  0.9927  1.5672
  991MOL0     H36726  10.552   4.347   3.860  1.6673  1.1368  1.8098
  991MOL0     H36727  10.487   4.508   3.846  4.1740  0.0454 -0.9216
  991MOL0     H36728  10.257   4.429   3.906  0.4452  1.0722  0.0887
  991MOL0     H36729  10.321   4.279   3.981 -2.0590 -1.4706 -2.3411
  991MOL0     H36730  10.326   4.356   3.698 -0.7331 -0.9362 -0.5301
  991MOL0     H36731  10.401   4.197   3.752 -3.0362 -3.0187  0.9186
  991MOL0     H36732  10.109   4.271   3.810  1.3377  0.5495  1.3127
  991MOL0     H36733  10.194   4.128   3.844  4.1938 -1.5326 -0.2530
  991MOL0     H36734  10.069   4.091   3.660  1.4327 -1.1666  3.1396
  991MOL0     H36735  10.237   4.085   3.588 -0.5765  0.9063 -1.2178
  991MOL0     H36736  10.175   4.337   3.540 -0.8076 -0.1961  0.8426
  991MOL0     H36737  10.025   4.260   3.511  0.0006  0.4963  1.0733
  991MOL0     H36738  10.184   4.770   4.116  1.0232 -3.5941  1.0536
  991MOL0     H36739  10.098   4.873   4.319 -0.2541 -0.5384 -1.0389
  991MOL0     H36740  10.257   5.098   4.725 -0.5837  1.4098 -1.4888
  991MOL0     H36741  10.149   5.266   4.890 -0.0916 -0.6559  2.1796
  991MOL0     H36742   8.315   4.738   4.905 -1.0158 -1.5406  0.2518
  991MOL0     H36743   8.150   4.792   4.725 -1.6349  1.6440 -0.8841
  991MOL0     H36744   7.685   4.998   4.684 -0.1267 -1.5805  0.0535
  991MOL0     H36745   7.521   4.961   4.530 -0.3175  1.3924  0.6682
  991MOL0     H36746   7.414   5.063   4.323  0.8210 -1.0676  0.3857
  991MOL0     H36747   7.403   5.007   4.155  1.7666  2.0085 -0.7150
  991MOL0     H36748   7.303   4.874   4.414 -1.2538  0.4384  0.4519
  991MOL0     H36749   7.346   4.767   4.280 -1.8350 -0.5969 -1.4551
  991MOL0     H36750   7.165   4.884   4.153  0.8666 -0.6793 -0.4413
  991MOL0     H36751   7.114   4.806   4.294 -0.4432  0.1312 -0.7764
  991MOL0     H36752   7.179   5.105   4.253  0.6798  0.4823  3.5619
  991MOL0     H36753   7.115   5.049   4.409 -0.2027  0.3131 -0.0413
  991MOL0     H36754   6.742   5.040   4.220 -0.5852  0.4079 -2.4396
  991MOL0     H36755   7.800   4.905   4.215 -1.8411 -0.1180 -0.1932
  991MOL0     H36756   8.074   4.976   4.328 -0.0178 -2.5383 -2.6336
  991MOL0     H36757   8.069   4.859   4.470  1.3284  0.7346 -0.0634
  991MOL0     H36758   8.018   4.806   4.312  2.7006  0.1116 -0.8246
  992MOL0     O36759  10.509   3.857  11.164 -0.4408 -0.4588 -0.0425
  992MOL0     C36760  10.487   3.978  11.173 -0.6398  0.6559  0.7847
  992MOL0     O36761  10.465   4.040  11.296  1.1603  0.3669  0.3060
  992MOL0     C36762  10.511   3.987  11.415 -0.7060  0.4336 -0.7040
  992MOL0     C36763  10.453   4.036  11.532  0.0885 -0.5485 -0.3565
  992MOL0     C36764  10.490   3.986  11.661  0.5996  0.5740  0.5438
  992MOL0     C36765  10.603   3.904  11.671  0.7803  0.1776 -0.4785
  992MOL0     O36766  10.655   3.892  11.800  0.3469  0.0051 -1.1375
  992MOL0     C36767  10.754   3.787  11.844 -0.2887 -0.1792  0.4623
  992MOL0     C36768  10.715   3.738  11.982  0.0966  0.0342 -0.1296
  992MOL0     C36769  10.573   3.681  11.997 -0.3660  0.2680 -0.1150
  992MOL0     C36770  10.546   3.678  12.151  0.2749  0.9644 -0.3741
  992MOL0     C36771  10.643   3.585  12.229 -0.1175 -0.2101  0.6902
  992MOL0     C36772  10.633   3.439  12.204  0.4108 -0.2657 -0.1492
  992MOL0     C36773  10.749   3.368  12.283  0.3199 -0.5601 -0.3222
  992MOL0     C36774  10.706   3.229  12.315  0.0014  0.1590  0.2055
  992MOL0     N36775  10.739   3.149  12.203 -0.4024  0.8153 -0.4743
  992MOL0     C36776  10.869   3.114  12.169 -0.1384 -0.4920 -0.6209
  992MOL0     C36777  10.856   3.037  12.058  0.2864 -0.4937 -1.1688
  992MOL0     C36778  10.964   2.963  11.976 -0.1895 -0.5198 -0.7465
  992MOL0     C36779  10.924   2.886  11.854 -1.0306  0.2337 -0.2135
  992MOL0     C36780  11.063   2.835  11.801  0.4239  0.2386 -0.8514
  992MOL0     C36781  11.085   2.690  11.852  0.3561  0.5668 -0.3197
  992MOL0     O36782  11.230   2.671  11.836 -0.3746  0.0229 -0.7732
  992MOL0     C36783  11.283   2.542  11.847 -0.4294 -0.1021  0.1941
  992MOL0     C36784  11.213   2.422  11.872  0.2423  0.3615  0.2365
  992MOL0     C36785  11.284   2.303  11.908  0.2921 -0.3825  0.0601
  992MOL0     C36786  11.205   2.193  11.958 -0.1285 -0.4270 -0.2251
  992MOL0     C36787  11.422   2.287  11.885 -0.5800 -0.0210 -1.5923
  992MOL0     C36788  11.510   2.168  11.916  0.2335 -0.7054  0.4967
  992MOL0     O36789  11.444   2.049  11.900  0.4997 -0.2196  0.9025
  992MOL0     C36790  11.504   1.933  11.922 -0.1589  0.1265 -0.2814
  992MOL0     C36791  11.481   1.877  12.047  0.0727  0.8760 -0.3070
  992MOL0     C36792  11.553   1.770  12.096 -0.3767  0.0560  0.4220
  992MOL0     C36793  11.632   1.701  12.007  0.7056  0.1837  0.3859
  992MOL0     O36794  11.695   1.590  12.052  0.1160 -0.5081 -0.2809
  992MOL0     C36795  11.835   1.599  12.051  1.1849  0.9524  0.5502
  992MOL0     C36796  11.880   1.474  12.135  0.0198 -0.3608  0.1060
  992MOL0     C36797  12.028   1.471  12.179  0.0500  0.7105 -0.1274
  992MOL0     C36798  12.112   1.476  12.059 -0.2590  0.1076 -0.0068
  992MOL0     C36799  12.260   1.421  12.087 -0.0035  0.6413 -0.8115
  992MOL0     C36800  12.344   1.499  12.184  0.6837  0.6861  1.1090
  992MOL0     C36801  12.471   1.428  12.233  0.0205  0.6982 -0.0957
  992MOL0     C36802  12.580   1.517  12.294  0.2195 -1.3305 -0.0638
  992MOL0    Cl36803  12.638   1.630  12.174 -0.0952 -0.0931  0.1989
  992MOL0     C36804  11.646   1.748  11.875  0.2801  0.4441 -0.3246
  992MOL0     C36805  11.587   1.867  11.834 -0.5085  0.9283 -0.1512
  992MOL0     O36806  11.631   2.186  11.952 -0.3955  0.2028 -0.1194
  992MOL0     C36807  11.485   2.403  11.836  0.7270 -0.9436 -0.7556
  992MOL0     C36808  11.415   2.529  11.831 -0.7395 -0.0455 -0.6369
  992MOL0     N36809  10.721   3.044  12.024  0.4037 -0.0550 -0.0013
  992MOL0     N36810  10.656   3.120  12.106 -0.3490 -0.0852  0.0327
  992MOL0     C36811  10.681   3.875  11.552 -0.7934  1.1380 -0.6148
  992MOL0     C36812  10.631   3.907  11.425 -1.0136 -0.2711 -0.2111
  992MOL0     C36813  10.467   4.060  11.042  0.3280  0.5099 -0.1651
  992MOL0     C36814  10.410   4.187  11.045  0.6256  0.2331 -0.0725
  992MOL0     C36815  10.387   4.265  10.933 -0.6727  0.1836  0.3002
  992MOL0     C36816  10.412   4.214  10.807 -0.2446  0.2942 -0.5324
  992MOL0     O36817  10.393   4.298  10.699 -0.3005 -0.1724 -0.4233
  992MOL0     C36818  10.480   4.265  10.584 -0.2278  0.5000  0.3824
  992MOL0     C36819  10.482   4.388  10.485  0.4592  0.1471 -0.1229
  992MOL0     C36820  10.517   4.517  10.560 -0.1371 -0.4912  0.0268
  992MOL0     C36821  10.542   4.637  10.460 -0.5913  0.4249 -0.3145
  992MOL0     C36822  10.585   4.765  10.517  0.0333  0.2357 -0.4231
  992MOL0     C36823  10.610   4.879  10.550  0.1486  0.0182  0.1707
  992MOL0     C36824  10.473   4.092  10.801 -0.1998 -0.2451  0.2599
  992MOL0     C36825  10.503   4.010  10.915  0.2784  0.3038 -0.0624
  992MOL0     C36826  10.563   3.871  10.884 -0.2374 -0.3586 -0.3374
  992MOL0     H36827  10.383   4.118  11.531  0.3313 -0.3356  0.0040
  992MOL0     H36828  10.445   4.034  11.747  1.5319  2.6919 -0.0766
  992MOL0     H36829  10.853   3.833  11.851 -0.0131 -0.3832 -1.5021
  992MOL0     H36830  10.766   3.699  11.780  1.5817 -0.6433  1.3733
  992MOL0     H36831  10.785   3.660  12.013  0.7793  0.1045 -1.4114
  992MOL0     H36832  10.727   3.830  12.040  2.5601  1.4722 -2.6373
  992MOL0     H36833  10.500   3.743  11.944  1.5593  2.9232  0.1307
  992MOL0     H36834  10.574   3.581  11.952 -0.2975 -0.3489  1.1952
  992MOL0     H36835  10.559   3.769  12.210 -1.2306  0.2033  1.2451
  992MOL0     H36836  10.446   3.636  12.170  1.5522 -0.7317  3.5543
  992MOL0     H36837  10.622   3.599  12.335 -0.2779  0.1034  0.6178
  992MOL0     H36838  10.748   3.609  12.208 -0.3606  1.2496  1.0775
  992MOL0     H36839  10.536   3.395  12.232 -0.2595  1.1364 -0.1935
  992MOL0     H36840  10.646   3.417  12.097  1.3432  1.5873 -0.4552
  992MOL0     H36841  10.768   3.421  12.377  1.7366 -0.4237 -0.6692
  992MOL0     H36842  10.835   3.366  12.217  0.8197  1.9192  0.1761
  992MOL0     H36843  10.749   3.201  12.412  0.2518  2.0772  0.7035
  992MOL0     H36844  10.598   3.216  12.326  0.3298 -4.5132 -0.4507
  992MOL0     H36845  10.963   3.137  12.217  0.1849 -1.6652 -0.6485
  992MOL0     H36846  11.015   2.910  12.057  1.3827  1.4600 -0.3777
  992MOL0     H36847  11.034   3.040  11.945 -1.2461  1.1618  0.8347
  992MOL0     H36848  10.860   2.804  11.887  0.8597 -1.0164  0.4299
  992MOL0     H36849  10.863   2.951  11.789 -1.1514  2.2989  1.8289
  992MOL0     H36850  11.068   2.845  11.692  0.9932  2.2694 -0.6731
  992MOL0     H36851  11.148   2.893  11.837  0.4737  0.6978 -1.6899
  992MOL0     H36852  11.064   2.682  11.959  1.1612 -0.0938 -0.1953
  992MOL0     H36853  11.028   2.619  11.792  1.0666 -1.9203  1.7341
  992MOL0     H36854  11.105   2.427  11.882  0.4711  4.0635  2.7860
  992MOL0     H36855  11.106   2.235  11.980 -0.2328  0.0631 -1.5531
  992MOL0     H36856  11.245   2.135  12.042  1.5944 -3.2830 -2.7934
  992MOL0     H36857  11.195   2.126  11.872  3.3004 -2.1641  0.5369
  992MOL0     H36858  11.419   1.936  12.115 -0.9784  2.5259 -2.5692
  992MOL0     H36859  11.531   1.744  12.199  1.1830  0.4599  0.8789
  992MOL0     H36860  11.874   1.595  11.949 -1.8221 -2.9299 -0.7473
  992MOL0     H36861  11.873   1.687  12.103  0.5506  1.0948  0.7881
  992MOL0     H36862  11.810   1.466  12.219 -2.6954 -2.0984 -2.0954
  992MOL0     H36863  11.859   1.385  12.074  1.9459  1.5065 -3.5822
  992MOL0     H36864  12.049   1.379  12.234  2.4753 -0.1420 -2.3016
  992MOL0     H36865  12.055   1.556  12.244  0.4236  0.3740  0.1624
  992MOL0     H36866  12.114   1.583  12.034 -1.6740  0.1624  0.0678
  992MOL0     H36867  12.070   1.413  11.980  1.6212  0.1697 -1.1130
  992MOL0     H36868  12.242   1.318  12.119 -2.8401  1.9304  2.4053
  992MOL0     H36869  12.314   1.408  11.993  1.8801 -0.1577  0.3347
  992MOL0     H36870  12.283   1.523  12.272 -1.6091  1.8553 -0.6692
  992MOL0     H36871  12.376   1.591  12.134 -1.1223  0.1486 -1.2588
  992MOL0     H36872  12.509   1.366  12.151 -2.6530  2.9846 -3.3433
  992MOL0     H36873  12.441   1.368  12.319  3.0063 -3.3052 -1.5347
  992MOL0     H36874  12.670   1.463  12.322 -0.0846 -1.4453  0.7309
  992MOL0     H36875  12.542   1.574  12.379 -1.8205 -0.6220 -1.3660
  992MOL0     H36876  11.712   1.695  11.807  0.3855 -3.4969  2.5271
  992MOL0     H36877  11.618   1.895  11.734  2.7408 -3.6302 -0.7379
  992MOL0     H36878  11.593   2.407  11.839  0.8464 -3.0498  0.0210
  992MOL0     H36879  11.476   2.613  11.799  0.4253 -1.3376 -1.9378
  992MOL0     H36880  10.783   3.839  11.563 -1.6674 -1.0706  1.3351
  992MOL0     H36881  10.701   3.867  11.352 -1.8370 -4.2588  0.9816
  992MOL0     H36882  10.390   4.239  11.139  0.7948  1.1403 -0.5303
  992MOL0     H36883  10.338   4.362  10.940 -3.9604 -1.3993  0.6795
  992MOL0     H36884  10.581   4.242  10.619 -0.5469  0.7304  1.4968
  992MOL0     H36885  10.447   4.173  10.534  0.1820  2.3202 -3.6462
  992MOL0     H36886  10.382   4.403  10.443 -0.1310 -2.2891  0.2646
  992MOL0     H36887  10.552   4.376  10.402  0.6433  3.4174 -0.6042
  992MOL0     H36888  10.435   4.530  10.631 -0.0728 -1.7418  0.3413
  992MOL0     H36889  10.604   4.500  10.622 -0.2595 -1.0012  0.0617
  992MOL0     H36890  10.453   4.667  10.404  0.0261  0.2915 -1.3810
  992MOL0     H36891  10.613   4.584  10.396 -2.1541 -1.4001 -0.6306
  992MOL0     H36892  10.640   4.973  10.591 -1.4567 -0.2705  2.1529
  992MOL0     H36893  10.502   4.055  10.703  2.3773 -1.7417  1.5162
  992MOL0     H36894  10.658   3.877  10.938 -0.2570  1.4635 -0.4292
  992MOL0     H36895  10.494   3.794  10.920 -1.1943  0.6588  0.0711
  992MOL0     H36896  10.584   3.845  10.780 -2.7735 -1.4847 -0.6484
  993MOL0     O36897   4.404   4.523  11.060 -0.2254  1.3341 -0.1943
  993MOL0     C36898   4.510   4.482  11.105 -0.6123 -0.6920  0.3586
  993MOL0     O36899   4.614   4.419  11.039 -0.4124 -0.7977  0.2680
  993MOL0     C36900   4.602   4.399  10.908 -0.4892  0.2276 -0.4586
  993MOL0     C36901   4.483   4.379  10.837  1.2899 -0.5500  0.1338
  993MOL0     C36902   4.479   4.352  10.702 -0.3443  0.0390  0.5922
  993MOL0     C36903   4.602   4.350  10.631 -0.1626 -0.2568  0.1828
  993MOL0     O36904   4.594   4.325  10.493  0.2330 -0.3057  0.4426
  993MOL0     C36905   4.631   4.433  10.406  0.3623 -1.4320  0.0116
  993MOL0     C36906   4.687   4.389  10.275  0.0730 -0.2084  0.0722
  993MOL0     C36907   4.679   4.482  10.150 -0.1683 -0.5007 -0.3222
  993MOL0     C36908   4.780   4.431  10.046 -0.4752  0.4369  0.0947
  993MOL0     C36909   4.769   4.507   9.913 -0.3447  0.2831  0.3407
  993MOL0     C36910   4.650   4.471   9.818 -0.5837 -0.4679  0.5468
  993MOL0     C36911   4.607   4.320   9.815  0.3541  0.1417 -0.9582
  993MOL0     C36912   4.507   4.284   9.703  0.2562  0.2319  0.3028
  993MOL0     N36913   4.480   4.139   9.719  0.4232  0.0798 -0.0007
  993MOL0     C36914   4.492   4.047   9.619  0.1590  0.3124  0.0331
  993MOL0     C36915   4.408   3.945   9.662 -0.3054  0.1811 -0.1110
  993MOL0     C36916   4.365   3.817   9.595 -1.5745 -1.0653  0.2403
  993MOL0     C36917   4.268   3.840   9.487  0.8905  1.0341 -0.4612
  993MOL0     C36918   4.208   3.708   9.449 -0.0690  0.3315  0.2867
  993MOL0     C36919   4.119   3.714   9.323 -0.4509  0.4678 -0.4961
  993MOL0     O36920   4.044   3.594   9.295 -0.0338 -0.7108  0.7375
  993MOL0     C36921   3.955   3.552   9.388  0.3350  1.1713 -0.0734
  993MOL0     C36922   3.920   3.609   9.511 -0.2809 -0.1740 -0.3988
  993MOL0     C36923   3.829   3.541   9.596 -0.0728 -0.0890 -0.4530
  993MOL0     C36924   3.810   3.601   9.736  0.5056 -0.4859 -0.1959
  993MOL0     C36925   3.772   3.415   9.553 -0.1611 -0.3839 -0.6460
  993MOL0     C36926   3.669   3.342   9.629 -0.4542 -0.1065  0.1197
  993MOL0     O36927   3.654   3.365   9.768 -0.0141 -0.5071 -0.4015
  993MOL0     C36928   3.571   3.281   9.833  0.3747  0.6614  0.5654
  993MOL0     C36929   3.614   3.171   9.906  0.1537  0.5559  1.5886
  993MOL0     C36930   3.530   3.074   9.957 -0.3289 -0.7089 -0.3026
  993MOL0     C36931   3.396   3.082   9.940  0.8761 -0.2433  0.5877
  993MOL0     O36932   3.327   2.979   9.985  0.6087 -0.9303  0.4313
  993MOL0     C36933   3.205   2.950   9.931 -0.2018  0.6554  0.6977
  993MOL0     C36934   3.086   3.018   9.988 -0.3403  0.3054 -0.2304
  993MOL0     C36935   2.955   2.990   9.921  1.0762 -0.7184  0.0126
  993MOL0     C36936   2.910   2.843   9.919 -0.2469 -0.4125 -0.0300
  993MOL0     C36937   2.758   2.823   9.871  0.0007 -0.9430 -0.0025
  993MOL0     C36938   2.729   2.688   9.802  0.0176 -0.6014  0.1074
  993MOL0     C36939   2.777   2.569   9.874 -0.9264  0.7556 -0.6399
  993MOL0     C36940   2.722   2.573  10.010  1.3519  0.3641  0.0901
  993MOL0    Cl36941   2.744   2.435  10.120  0.3271 -0.1068 -0.3779
  993MOL0     C36942   3.344   3.196   9.879 -0.2101 -0.5492 -0.6187
  993MOL0     C36943   3.431   3.290   9.818  0.3126  0.1907 -0.2207
  993MOL0     O36944   3.601   3.266   9.568 -0.8053 -0.4388  0.1345
  993MOL0     C36945   3.816   3.362   9.430 -0.6615 -0.5887 -0.3657
  993MOL0     C36946   3.906   3.431   9.352 -0.7707 -0.3930  0.0329
  993MOL0     N36947   4.358   3.978   9.787 -0.0414  0.5295  0.9848
  993MOL0     N36948   4.400   4.092   9.815  0.8469 -0.5752 -0.0674
  993MOL0     C36949   4.724   4.381  10.693  0.5125 -1.2004 -0.0605
  993MOL0     C36950   4.716   4.400  10.831 -0.8657 -0.0210 -0.8574
  993MOL0     C36951   4.526   4.460  11.248  0.5117  0.0924 -0.0753
  993MOL0     C36952   4.613   4.364  11.301 -0.1159  0.0258  0.1427
  993MOL0     C36953   4.650   4.374  11.432  0.4388  0.4315  0.3751
  993MOL0     C36954   4.596   4.457  11.527 -0.0739 -0.1171 -0.1041
  993MOL0     O36955   4.632   4.438  11.661  0.3909  0.4051 -0.5184
  993MOL0     C36956   4.534   4.473  11.751  0.1200 -0.3813 -0.2003
  993MOL0     C36957   4.554   4.411  11.894 -0.7638 -0.2877 -0.5192
  993MOL0     C36958   4.539   4.257  11.891 -0.6148 -0.5191  0.2942
  993MOL0     C36959   4.574   4.207  12.033  0.1719  1.0233 -0.1501
  993MOL0     C36960   4.537   4.065  12.039  0.8854  0.1904 -0.3687
  993MOL0     C36961   4.530   3.949  12.065 -0.0874 -0.0620  0.3302
  993MOL0     C36962   4.498   4.545  11.474  0.0323 -0.1245 -0.4797
  993MOL0     C36963   4.462   4.549  11.340 -0.1477 -0.5430 -0.1321
  993MOL0     C36964   4.359   4.660  11.302 -0.2936 -0.2744  0.5419
  993MOL0     H36965   4.383   4.396  10.875  1.3088  2.7529 -0.9743
  993MOL0     H36966   4.387   4.355  10.644  0.8601 -2.9722 -1.7228
  993MOL0     H36967   4.697   4.497  10.465 -1.8724 -0.7721  1.9325
  993MOL0     H36968   4.543   4.494  10.385  2.0309  2.1867  2.4554
  993MOL0     H36969   4.790   4.356  10.291  1.2142  2.5840 -0.9128
  993MOL0     H36970   4.622   4.308  10.240  0.6483  0.3358 -2.5232
  993MOL0     H36971   4.583   4.475  10.098 -0.2165 -2.8966 -0.0115
  993MOL0     H36972   4.701   4.587  10.174 -1.0814 -0.8443  2.3782
  993MOL0     H36973   4.880   4.448  10.088  1.5763  0.4203 -4.2674
  993MOL0     H36974   4.764   4.324  10.032 -0.7393 -0.1539  3.8141
  993MOL0     H36975   4.863   4.493   9.859 -0.0235  2.7181  0.1676
  993MOL0     H36976   4.771   4.614   9.935  1.4278  0.0413  1.5817
  993MOL0     H36977   4.560   4.529   9.838 -1.6844 -1.3776 -1.4317
  993MOL0     H36978   4.670   4.495   9.713 -1.9781 -2.2935 -0.2065
  993MOL0     H36979   4.558   4.292   9.909 -3.8551 -0.8206 -3.1937
  993MOL0     H36980   4.697   4.258   9.808 -0.6279 -1.4840  0.2460
  993MOL0     H36981   4.416   4.341   9.721  0.2102  0.2593 -0.0191
  993MOL0     H36982   4.553   4.310   9.607  2.5625  2.0986  1.7958
  993MOL0     H36983   4.564   4.059   9.539  1.1597  2.4738  1.1749
  993MOL0     H36984   4.338   3.741   9.670  1.3699 -3.1486 -0.6115
  993MOL0     H36985   4.457   3.772   9.555 -2.4364 -1.6007 -1.1843
  993MOL0     H36986   4.196   3.914   9.522  0.9862  2.7531 -3.5431
  993MOL0     H36987   4.316   3.885   9.399  1.5363  0.8362 -0.2216
  993MOL0     H36988   4.291   3.638   9.443  0.9397  1.5741 -0.8918
  993MOL0     H36989   4.149   3.674   9.535 -0.3169  2.3876  0.9988
  993MOL0     H36990   4.045   3.790   9.348 -0.7955  0.0297 -0.1494
  993MOL0     H36991   4.174   3.736   9.231 -2.0513  1.8737 -1.1517
  993MOL0     H36992   3.945   3.713   9.532  3.6131 -0.7291 -1.3952
  993MOL0     H36993   3.703   3.622   9.733  1.2096  4.3160 -0.4134
  993MOL0     H36994   3.872   3.690   9.753 -1.5147  1.1324 -0.7865
  993MOL0     H36995   3.837   3.541   9.823 -2.3462  1.3017  2.1238
  993MOL0     H36996   3.720   3.162   9.928  0.1515  0.6306  1.6285
  993MOL0     H36997   3.567   2.987  10.009  3.5065  1.5863  1.2762
  993MOL0     H36998   3.204   2.979   9.826  0.1486  4.3197  1.5707
  993MOL0     H36999   3.197   2.842   9.950 -2.5958  0.5974 -0.3340
  993MOL0     H37000   3.076   2.989  10.093 -0.2945  0.2503 -0.2413
  993MOL0     H37001   3.111   3.124   9.987 -0.6239  0.4022  1.0014
  993MOL0     H37002   2.942   3.039   9.824 -3.6343 -1.8278 -0.1422
  993MOL0     H37003   2.878   3.038   9.982  1.2346 -2.0279  1.3030
  993MOL0     H37004   2.930   2.791  10.013 -0.3032  1.1135  0.8663
  993MOL0     H37005   2.981   2.789   9.855  0.6502  1.7935 -1.0391
  993MOL0     H37006   2.701   2.830   9.963  0.7586 -1.3072  0.5111
  993MOL0     H37007   2.738   2.905   9.802  3.6618  2.5313  2.5887
  993MOL0     H37008   2.771   2.694   9.701  2.9576 -1.8658  1.1538
  993MOL0     H37009   2.621   2.670   9.792  0.5343 -3.3905 -1.2278
  993MOL0     H37010   2.886   2.572   9.875 -0.7436 -2.1508  1.1204
  993MOL0     H37011   2.743   2.473   9.833 -1.1104  0.7794 -0.5461
  993MOL0     H37012   2.617   2.601  10.004  1.8831  2.2948 -1.4013
  993MOL0     H37013   2.767   2.655  10.067  0.8185  0.8655 -0.2137
  993MOL0     H37014   3.236   3.207   9.880 -0.3457 -0.7913  3.2640
  993MOL0     H37015   3.396   3.379   9.766  1.8186  2.5419  2.4664
  993MOL0     H37016   3.791   3.262   9.395 -1.3772 -0.3595 -0.5309
  993MOL0     H37017   3.927   3.385   9.256 -1.3629  0.4727 -0.5239
  993MOL0     H37018   4.821   4.382  10.646 -0.3723 -0.1903 -1.9720
  993MOL0     H37019   4.808   4.426  10.884 -1.2121  0.5848 -0.5321
  993MOL0     H37020   4.666   4.300  11.232 -1.3620 -0.2241 -0.6217
  993MOL0     H37021   4.728   4.304  11.456 -1.6933 -1.6534  1.6216
  993MOL0     H37022   4.534   4.581  11.766  2.6563 -0.1901 -1.1722
  993MOL0     H37023   4.432   4.450  11.719  0.3848  1.1916 -2.4910
  993MOL0     H37024   4.481   4.452  11.964 -2.7685  0.5330 -2.9682
  993MOL0     H37025   4.659   4.423  11.924 -1.2084  2.4376  0.2240
  993MOL0     H37026   4.437   4.237  11.855 -0.8383 -0.3095  0.8118
  993MOL0     H37027   4.610   4.215  11.819  2.3090 -2.3806  3.9509
  993MOL0     H37028   4.515   4.263  12.105  0.6843 -2.0353  2.9216
  993MOL0     H37029   4.679   4.208  12.065  0.5630  3.1337 -1.3178
  993MOL0     H37030   4.516   3.843  12.074 -2.6047  0.0691 -1.0378
  993MOL0     H37031   4.458   4.618  11.545  1.6573  2.0521 -1.6657
  993MOL0     H37032   4.397   4.726  11.223 -0.4185 -1.8990 -0.9375
  993MOL0     H37033   4.259   4.627  11.274 -0.1493 -0.3492  0.1067
  993MOL0     H37034   4.341   4.720  11.392  0.9535  0.7661  0.1293
  994MOL0     O37035   2.086  10.529   9.343  0.5139  0.3134 -0.0521
  994MOL0     C37036   2.132  10.430   9.397 -0.7597  0.2703 -0.6057
  994MOL0     O37037   2.137  10.300   9.350  0.1615  0.7547 -0.9323
  994MOL0     C37038   2.115  10.279   9.217  0.0251 -0.1032 -0.3089
  994MOL0     C37039   2.069  10.161   9.163  0.3309  0.1834 -0.2665
  994MOL0     C37040   2.089  10.133   9.032 -0.0276  0.2125 -0.0945
  994MOL0     C37041   2.150  10.216   8.944  0.3650 -0.1071  0.5939
  994MOL0     O37042   2.154  10.164   8.815  0.6940  0.5191  0.6445
  994MOL0     C37043   2.246  10.231   8.720  0.4874  0.5174 -0.3763
  994MOL0     C37044   2.275  10.135   8.608  0.4150  0.4627 -0.9925
  994MOL0     C37045   2.388  10.163   8.508  0.0888 -0.3027 -0.9275
  994MOL0     C37046   2.357  10.294   8.433 -0.1417  0.9420 -0.0235
  994MOL0     C37047   2.232  10.298   8.333 -1.4799 -0.3782  0.0979
  994MOL0     C37048   2.210  10.446   8.287  0.6979 -0.6098 -0.6941
  994MOL0     C37049   2.097  10.520   8.364  0.2435 -0.4921  0.4755
  994MOL0     C37050   2.045  10.656   8.314  0.1657  0.2691 -0.8285
  994MOL0     N37051   2.010  10.659   8.168  0.2369  0.5854  0.5110
  994MOL0     C37052   1.897  10.595   8.113 -0.5560  0.0585 -0.3773
  994MOL0     C37053   1.900  10.626   7.980  0.0040 -0.4953  0.4949
  994MOL0     C37054   1.799  10.577   7.879 -0.3630  0.6302 -0.5524
  994MOL0     C37055   1.869  10.460   7.810  0.4307  0.2041 -0.0284
  994MOL0     C37056   1.884  10.322   7.898  0.0782 -0.5166  0.2770
  994MOL0     C37057   2.034  10.284   7.886 -0.5980  0.1412  0.1867
  994MOL0     O37058   2.057  10.165   7.960 -0.0188  0.2458  0.3326
  994MOL0     C37059   2.183  10.125   7.976  0.2539 -0.1932  0.4826
  994MOL0     C37060   2.211  10.018   8.065  0.0676  0.2032 -0.0450
  994MOL0     C37061   2.340   9.974   8.087 -0.3124  0.0820  1.3426
  994MOL0     C37062   2.341   9.873   8.194 -0.2271  0.2949  0.0963
  994MOL0     C37063   2.453  10.038   8.024  0.5693  0.0913  0.3656
  994MOL0     C37064   2.592  10.007   8.052  0.0780  0.6165  0.5708
  994MOL0     O37065   2.687  10.083   7.985 -0.8946 -0.2024  0.2558
  994MOL0     C37066   2.814  10.107   8.040  0.9229 -0.3941  0.5964
  994MOL0     C37067   2.841  10.092   8.174 -1.0804  0.4345 -0.6419
  994MOL0     C37068   2.967  10.112   8.235  0.8490  0.8075  1.3777
  994MOL0     C37069   3.073  10.168   8.156  0.5293  0.0202  1.0612
  994MOL0     O37070   3.189  10.213   8.208  0.7257 -0.2884  0.2063
  994MOL0     C37071   3.174  10.299   8.326 -0.1505  0.8984  0.3693
  994MOL0     C37072   3.252  10.253   8.445  0.0270 -0.1804 -0.1014
  994MOL0     C37073   3.401  10.233   8.406 -0.0655 -0.2345  0.6432
  994MOL0     C37074   3.495  10.238   8.536 -0.3051  0.2268 -0.4444
  994MOL0     C37075   3.629  10.157   8.522 -0.4132  0.6267 -0.1509
  994MOL0     C37076   3.718  10.180   8.396  0.6832 -0.3125 -0.1337
  994MOL0     C37077   3.826  10.078   8.385  0.0480  0.1408  0.0515
  994MOL0     C37078   3.923  10.083   8.261  0.4250 -0.2590  0.7497
  994MOL0    Cl37079   4.040   9.950   8.264 -0.1207 -0.0976  0.3337
  994MOL0     C37080   3.047  10.190   8.021  0.5057 -0.1765  0.2079
  994MOL0     C37081   2.922  10.157   7.964  0.6924 -0.0769  1.1703
  994MOL0     O37082   2.619   9.901   8.103  0.2206 -0.3236 -0.9870
  994MOL0     C37083   2.422  10.137   7.923 -0.1321  1.0417  0.2382
  994MOL0     C37084   2.292  10.173   7.903 -1.1773  0.2553  0.0009
  994MOL0     N37085   2.010  10.705   7.959  0.7461 -0.7306  0.3451
  994MOL0     N37086   2.062  10.736   8.072  0.1140  0.0804  0.7434
  994MOL0     C37087   2.206  10.330   8.991 -0.7124  0.4645 -0.1030
  994MOL0     C37088   2.189  10.364   9.128  0.6244 -0.1275  0.0946
  994MOL0     C37089   2.186  10.453   9.531  0.9887 -0.9280  0.2534
  994MOL0     C37090   2.147  10.369   9.628  0.2119 -0.2897  0.4211
  994MOL0     C37091   2.182  10.379   9.765  0.0371  0.0311  0.3488
  994MOL0     C37092   2.265  10.495   9.802 -1.0854  0.0026  0.8999
  994MOL0     O37093   2.302  10.543   9.924 -0.1997 -0.5010  0.0997
  994MOL0     C37094   2.268  10.468  10.038  0.3705 -1.0340 -0.0298
  994MOL0     C37095   2.332  10.521  10.173 -0.8525 -0.4329 -0.6593
  994MOL0     C37096   2.299  10.434  10.296  0.6770  0.1966  0.1330
  994MOL0     C37097   2.156  10.440  10.348 -0.1108  0.6196 -0.1040
  994MOL0     C37098   2.125  10.321  10.430  0.2976  0.6650 -0.2711
  994MOL0     C37099   2.094  10.231  10.507  0.1940 -0.0828 -0.2711
  994MOL0     C37100   2.312  10.575   9.697  0.7835  0.1968 -0.2928
  994MOL0     C37101   2.268  10.557   9.564 -0.2419  0.0456 -0.5243
  994MOL0     C37102   2.324  10.647   9.454  0.3453  0.9565  0.4557
  994MOL0     H37103   2.024  10.095   9.237  2.7428 -0.4429  0.7377
  994MOL0     H37104   2.068  10.036   8.987  2.6685 -1.2417  1.5573
  994MOL0     H37105   2.344  10.250   8.765  0.3025  0.0477  0.2382
  994MOL0     H37106   2.209  10.322   8.672  0.1302  0.5129 -0.1129
  994MOL0     H37107   2.299  10.049   8.672 -2.8278  1.0820  1.2922
  994MOL0     H37108   2.182  10.112   8.554 -0.6427 -0.1663  1.0020
  994MOL0     H37109   2.480  10.180   8.564  0.2660  0.7695 -1.5131
  994MOL0     H37110   2.403  10.075   8.446 -1.3380 -0.1411 -1.5633
  994MOL0     H37111   2.334  10.374   8.505 -0.7444  0.8565 -0.1148
  994MOL0     H37112   2.439  10.317   8.366 -2.7231 -0.3860 -3.9849
  994MOL0     H37113   2.144  10.253   8.380 -1.3734 -1.5900 -0.8264
  994MOL0     H37114   2.271  10.240   8.250  4.0478  1.7870  0.7724
  994MOL0     H37115   2.300  10.508   8.294 -1.6614  2.8339  2.5412
  994MOL0     H37116   2.186  10.444   8.180  2.3609 -1.1980 -1.0844
  994MOL0     H37117   2.139  10.542   8.462  0.3992 -2.0140  0.7741
  994MOL0     H37118   2.017  10.446   8.374 -0.1428 -0.2281 -0.5286
  994MOL0     H37119   1.954  10.684   8.369 -0.4565  1.8705 -2.5809
  994MOL0     H37120   2.122  10.731   8.334 -0.0881  0.6299 -1.1937
  994MOL0     H37121   1.822  10.535   8.165  0.1150  0.1852  0.7815
  994MOL0     H37122   1.776  10.656   7.807  0.9614 -0.3652 -2.1642
  994MOL0     H37123   1.705  10.556   7.930  0.5769  5.0366  3.7185
  994MOL0     H37124   1.816  10.433   7.718  0.7380 -0.7294  0.0531
  994MOL0     H37125   1.965  10.502   7.779  0.1202  1.3885  0.5505
  994MOL0     H37126   1.843  10.330   8.000 -1.1392  0.3096 -0.2584
  994MOL0     H37127   1.808  10.259   7.851  0.4777  0.4381 -1.7078
  994MOL0     H37128   2.071  10.259   7.787 -0.6384 -2.3800  0.7417
  994MOL0     H37129   2.102  10.363   7.919 -0.5745  0.1705  0.0678
  994MOL0     H37130   2.126   9.981   8.121 -0.3711 -1.4136 -1.6662
  994MOL0     H37131   2.391   9.781   8.165  0.5858  0.3399  1.2911
  994MOL0     H37132   2.238   9.839   8.210 -0.5643  1.7761  1.3305
  994MOL0     H37133   2.372   9.903   8.295 -0.0250  0.4636 -0.0169
  994MOL0     H37134   2.773  10.046   8.245 -1.5041 -0.3562 -1.5443
  994MOL0     H37135   2.979  10.086   8.340 -0.0068  1.7156  1.7224
  994MOL0     H37136   3.225  10.391   8.296 -1.2794  1.4497  0.0637
  994MOL0     H37137   3.071  10.310   8.363 -1.0636 -4.4108  0.1877
  994MOL0     H37138   3.245  10.334   8.518 -1.9871 -2.0282  1.8966
  994MOL0     H37139   3.196  10.164   8.477  0.8862 -2.6265 -4.5698
  994MOL0     H37140   3.438  10.297   8.325  1.7568 -2.5395 -0.4638
  994MOL0     H37141   3.413  10.131   8.368 -1.8437 -0.5876  0.9170
  994MOL0     H37142   3.450  10.191   8.624  2.4342  0.6323  1.2976
  994MOL0     H37143   3.509  10.340   8.573 -1.2317 -0.0031  0.5975
  994MOL0     H37144   3.676  10.179   8.618 -2.3882 -1.8964  1.5132
  994MOL0     H37145   3.599  10.052   8.533 -1.7741  0.8449 -1.4902
  994MOL0     H37146   3.758  10.282   8.392  3.0063 -1.2164 -2.2853
  994MOL0     H37147   3.656  10.165   8.308 -1.5679  0.1574  1.2736
  994MOL0     H37148   3.796   9.975   8.409  1.0139  0.0601  1.0000
  994MOL0     H37149   3.899  10.089   8.466  0.1330 -1.2399  0.1873
  994MOL0     H37150   3.977  10.177   8.251 -3.1056  1.8759 -0.2443
  994MOL0     H37151   3.863  10.082   8.169  1.9401 -0.8830 -0.2671
  994MOL0     H37152   3.126  10.239   7.964  0.9052 -0.2769  0.6646
  994MOL0     H37153   2.891  10.190   7.866  0.7025 -1.5929  0.6218
  994MOL0     H37154   2.497  10.188   7.862 -0.7658  0.0045 -1.4691
  994MOL0     H37155   2.276  10.251   7.829  1.3292  0.8972  0.0326
  994MOL0     H37156   2.259  10.398   8.925  0.9844  0.5816  1.2983
  994MOL0     H37157   2.229  10.454   9.173 -0.3326 -0.3158  1.3897
  994MOL0     H37158   2.088  10.283   9.598  2.6918 -1.1352 -2.5200
  994MOL0     H37159   2.150  10.307   9.840  0.3661  1.1348  1.5849
  994MOL0     H37160   2.160  10.470  10.054 -0.1712 -3.4581 -2.5828
  994MOL0     H37161   2.310  10.367  10.030 -0.6806 -1.5716  0.9171
  994MOL0     H37162   2.305  10.625  10.190 -1.9581 -1.1882  3.0964
  994MOL0     H37163   2.441  10.511  10.161 -1.0580 -1.8403 -1.7374
  994MOL0     H37164   2.313  10.328  10.276 -2.5709 -0.1214 -1.0375
  994MOL0     H37165   2.366  10.464  10.377 -0.3511  0.6039  0.8569
  994MOL0     H37166   2.093  10.417  10.261 -1.4752 -1.1296  1.2559
  994MOL0     H37167   2.138  10.537  10.394  0.7350  2.2596 -3.0159
  994MOL0     H37168   2.061  10.168  10.586 -0.5911  1.8622  1.0104
  994MOL0     H37169   2.369  10.664   9.723  2.9757 -0.2271 -3.1134
  994MOL0     H37170   2.351  10.574   9.377  0.4352 -0.6939  1.9842
  994MOL0     H37171   2.252  10.723   9.420  0.4055  0.5587 -0.6144
  994MOL0     H37172   2.418  10.687   9.494  0.7465 -0.5134  1.0569
  995MOL0     O37173   6.091   9.288   0.512  0.8345 -0.4204  0.0814
  995MOL0     C37174   6.035   9.202   0.449 -0.7523  0.8410 -0.1988
  995MOL0     O37175   6.082   9.151   0.332  0.2865  0.8113 -0.6360
  995MOL0     C37176   6.215   9.179   0.309  0.3002 -0.4021 -0.4740
  995MOL0     C37177   6.318   9.126   0.379 -0.3184 -0.4025  0.1994
  995MOL0     C37178   6.447   9.153   0.340  0.7188  1.1197  0.9751
  995MOL0     C37179   6.479   9.228   0.231  0.1764  1.1047  0.5280
  995MOL0     O37180   6.606   9.257   0.185  0.2781  0.0518 -0.2572
  995MOL0     C37181   6.720   9.268   0.278 -0.3610 -0.3245  0.2310
  995MOL0     C37182   6.738   9.412   0.335 -0.9372 -1.0098 -0.1930
  995MOL0     C37183   6.759   9.518   0.231 -0.4795 -0.0767  0.0030
  995MOL0     C37184   6.728   9.658   0.273 -0.7230 -0.2996 -0.0810
  995MOL0     C37185   6.742   9.760   0.162 -0.6657 -0.0601  0.5347
  995MOL0     C37186   6.890   9.784   0.121 -0.0922 -0.5355  1.2192
  995MOL0     C37187   6.893   9.902   0.032  0.3156 -0.5477 -0.2199
  995MOL0     C37188   7.033   9.914  -0.024 -0.9192  0.0153 -0.0213
  995MOL0     N37189   7.054  10.009  -0.142 -0.0014  0.0441  0.2294
  995MOL0     C37190   7.076   9.971  -0.277  0.1044 -0.1578  0.2621
  995MOL0     C37191   7.078  10.083  -0.346 -0.0923  0.0853 -0.3449
  995MOL0     C37192   7.098  10.111  -0.492  0.5202 -0.4308 -0.0231
  995MOL0     C37193   7.179  10.009  -0.570 -0.0788  0.2983 -0.3993
  995MOL0     C37194   7.323  10.024  -0.535  0.3040  0.3189 -0.5490
  995MOL0     C37195   7.397   9.899  -0.604 -0.1396 -0.1099  0.1262
  995MOL0     O37196   7.362   9.765  -0.555 -0.8561 -0.7507 -0.9569
  995MOL0     C37197   7.369   9.736  -0.424  0.9837  0.0305  0.4801
  995MOL0     C37198   7.467   9.773  -0.335 -0.1297  0.0188  0.4295
  995MOL0     C37199   7.460   9.740  -0.195  0.2500 -0.3585  0.5736
  995MOL0     C37200   7.567   9.788  -0.105  0.2247  0.5695 -0.1100
  995MOL0     C37201   7.333   9.673  -0.155 -0.7259  0.6380 -0.5385
  995MOL0     C37202   7.307   9.631  -0.015  0.4971  0.2285  0.0520
  995MOL0     O37203   7.387   9.691   0.080 -0.5634 -0.1063 -0.2499
  995MOL0     C37204   7.370   9.691   0.213  1.1567 -0.9433  0.1125
  995MOL0     C37205   7.289   9.606   0.296  0.1987 -0.8970  0.9982
  995MOL0     C37206   7.293   9.606   0.432 -0.9013 -0.0509  0.1549
  995MOL0     C37207   7.377   9.694   0.501 -0.0499  0.2280  0.9165
  995MOL0     O37208   7.368   9.694   0.635 -0.2801 -0.7105  0.1422
  995MOL0     C37209   7.412   9.800   0.720 -0.1349  0.1698 -0.2972
  995MOL0     C37210   7.328   9.817   0.848  0.7701 -0.6509 -0.0967
  995MOL0     C37211   7.179   9.837   0.824 -0.6472  0.6010 -0.1429
  995MOL0     C37212   7.151   9.958   0.738  0.4682  0.3758 -0.4702
  995MOL0     C37213   6.998   9.974   0.736 -0.2752 -0.1580 -0.0950
  995MOL0     C37214   6.942  10.003   0.596 -0.4523  0.1170  0.5473
  995MOL0     C37215   6.784  10.030   0.596  0.4903 -0.1568  0.6872
  995MOL0     C37216   6.727  10.153   0.671  0.6196 -0.7468 -0.0171
  995MOL0    Cl37217   6.729  10.128   0.853  0.3965  0.1041  0.1787
  995MOL0     C37218   7.455   9.779   0.429 -0.3412  0.3246  0.5104
  995MOL0     C37219   7.444   9.783   0.282 -1.1823 -0.2998 -0.6532
  995MOL0     O37220   7.200   9.572   0.011  0.2762 -0.2778  1.1095
  995MOL0     C37221   7.242   9.632  -0.249  1.1482 -0.1717  0.6743
  995MOL0     C37222   7.267   9.663  -0.381  0.2360 -0.0389  0.6522
  995MOL0     N37223   7.049  10.186  -0.260  0.3105 -0.2071 -0.6235
  995MOL0     N37224   7.042  10.139  -0.141 -0.0399 -0.8202  0.4099
  995MOL0     C37225   6.374   9.285   0.163 -0.4111 -1.0215 -0.1152
  995MOL0     C37226   6.241   9.261   0.200 -0.8867 -0.2712 -0.6561
  995MOL0     C37227   5.904   9.152   0.505  0.4664 -1.4126 -0.0711
  995MOL0     C37228   5.818   9.083   0.408  0.3619  0.1015 -0.0514
  995MOL0     C37229   5.694   9.037   0.443  0.2653  0.2521 -0.4742
  995MOL0     C37230   5.642   9.056   0.573 -0.8014  0.3358 -0.6392
  995MOL0     O37231   5.526   9.017   0.628 -0.2871 -0.6356  0.1507
  995MOL0     C37232   5.447   8.929   0.547  0.1687  0.6261  0.4045
  995MOL0     C37233   5.331   8.865   0.628  0.1822  0.3580 -0.3081
  995MOL0     C37234   5.210   8.954   0.635  1.3245 -0.0736 -1.2611
  995MOL0     C37235   5.109   8.861   0.692 -0.4386 -0.0243 -0.9819
  995MOL0     C37236   4.972   8.920   0.701 -1.3922  0.2203 -0.1212
  995MOL0     C37237   4.859   8.941   0.701 -0.0706 -1.0944 -0.0738
  995MOL0     C37238   5.728   9.115   0.669  0.4941 -0.1884  0.6479
  995MOL0     C37239   5.852   9.166   0.634 -0.8510 -0.2007  0.1202
  995MOL0     C37240   5.936   9.226   0.746 -0.9795  0.2925  0.3437
  995MOL0     H37241   6.301   9.078   0.474 -1.5723 -0.4004 -0.0039
  995MOL0     H37242   6.525   9.102   0.395  0.1196 -1.4704 -0.3594
  995MOL0     H37243   6.815   9.238   0.234 -0.6289 -0.4967 -0.2350
  995MOL0     H37244   6.717   9.198   0.361  3.4870 -0.6117  0.3071
  995MOL0     H37245   6.645   9.437   0.387 -0.1228  3.4067 -0.4350
  995MOL0     H37246   6.818   9.412   0.409 -0.9317 -2.7649 -0.1653
  995MOL0     H37247   6.862   9.494   0.204  0.0324  1.6696  0.3260
  995MOL0     H37248   6.695   9.504   0.143  0.6112 -1.5060 -0.6050
  995MOL0     H37249   6.627   9.659   0.315 -1.3937  0.2060 -1.6124
  995MOL0     H37250   6.791   9.697   0.353 -0.8691  2.8455 -1.3619
  995MOL0     H37251   6.701   9.855   0.196 -0.2246  0.2344  0.2478
  995MOL0     H37252   6.678   9.737   0.077  1.4668 -0.6343 -1.0087
  995MOL0     H37253   6.948   9.827   0.203 -1.0635  1.1741  1.0700
  995MOL0     H37254   6.937   9.698   0.073  1.0550  0.5566  0.3355
  995MOL0     H37255   6.859   9.984   0.096 -0.9201 -1.0981 -0.1508
  995MOL0     H37256   6.824   9.889  -0.051  1.4425 -3.3375 -0.8474
  995MOL0     H37257   7.099   9.954   0.053 -0.9759  2.7162 -1.2694
  995MOL0     H37258   7.068   9.818  -0.061 -0.2991  0.2633 -0.0889
  995MOL0     H37259   7.091   9.874  -0.323  1.7492  0.9656 -1.7193
  995MOL0     H37260   7.143  10.211  -0.498 -0.6263  0.1287  0.4219
  995MOL0     H37261   7.002  10.119  -0.543 -1.8006  1.3402  4.0686
  995MOL0     H37262   7.158   9.904  -0.550  3.2001 -1.0918 -3.3402
  995MOL0     H37263   7.167  10.004  -0.678 -1.6065  1.3168 -0.3079
  995MOL0     H37264   7.364  10.119  -0.571  0.9742  0.7940  1.3440
  995MOL0     H37265   7.338  10.015  -0.427 -1.3278 -0.0437 -0.3268
  995MOL0     H37266   7.397   9.899  -0.714 -0.2328 -2.0238  0.0828
  995MOL0     H37267   7.506   9.901  -0.598  0.4018 -1.1576 -4.8928
  995MOL0     H37268   7.555   9.828  -0.365 -0.2871  0.4041  0.6662
  995MOL0     H37269   7.527   9.874  -0.049 -0.9736 -0.7521  1.1546
  995MOL0     H37270   7.656   9.822  -0.159  0.2882 -0.4561 -0.6694
  995MOL0     H37271   7.582   9.707  -0.033 -4.9721 -1.0138 -0.3952
  995MOL0     H37272   7.220   9.533   0.254 -1.1859  0.9318 -0.0432
  995MOL0     H37273   7.229   9.537   0.487 -3.7217 -0.0063 -2.7575
  995MOL0     H37274   7.513   9.774   0.754 -0.6719 -4.0099 -1.3464
  995MOL0     H37275   7.420   9.889   0.656  1.0136 -0.4973 -1.1054
  995MOL0     H37276   7.350   9.731   0.912  0.5741 -0.9342 -0.4063
  995MOL0     H37277   7.354   9.908   0.903 -5.7312  1.8809 -0.3638
  995MOL0     H37278   7.130   9.853   0.920  0.0347 -1.0740  0.5165
  995MOL0     H37279   7.149   9.746   0.773 -1.0968 -0.1597  1.4248
  995MOL0     H37280   7.178   9.947   0.632 -2.0364  2.1985 -1.4011
  995MOL0     H37281   7.203  10.048   0.772 -0.6057  2.2881 -3.4061
  995MOL0     H37282   6.952   9.877   0.757  0.2780 -0.6732 -1.1914
  995MOL0     H37283   6.956  10.039   0.813 -2.1305 -2.9051  1.3967
  995MOL0     H37284   6.956   9.913   0.535  0.7053 -0.1628  1.1926
  995MOL0     H37285   7.008  10.079   0.553  1.5235 -1.2925  0.9323
  995MOL0     H37286   6.738   9.945   0.648 -0.6340  2.0293  3.5193
  995MOL0     H37287   6.746  10.038   0.494  1.4654  0.6540  0.3708
  995MOL0     H37288   6.625  10.174   0.638  1.1090  0.6283 -0.7300
  995MOL0     H37289   6.787  10.245   0.669 -3.6369  2.3650  0.7772
  995MOL0     H37290   7.524   9.844   0.481  1.0417  0.1155 -1.0054
  995MOL0     H37291   7.514   9.853   0.236 -0.7136 -0.1196  0.3042
  995MOL0     H37292   7.167   9.559  -0.221  2.9342 -1.1818  3.2871
  995MOL0     H37293   7.192   9.630  -0.452  0.9482  0.5435 -0.3946
  995MOL0     H37294   6.410   9.350   0.083  1.5030 -0.6977  0.9445
  995MOL0     H37295   6.157   9.305   0.148 -2.2979 -1.4256  0.5405
  995MOL0     H37296   5.837   9.059   0.304 -1.0216 -2.3338  0.1881
  995MOL0     H37297   5.628   8.989   0.371 -0.6458 -0.8237  1.0166
  995MOL0     H37298   5.405   8.999   0.475  2.2371  0.8420 -0.6737
  995MOL0     H37299   5.504   8.844   0.507 -2.6078 -1.0531 -0.2252
  995MOL0     H37300   5.354   8.839   0.731  1.4959 -0.5470 -0.7893
  995MOL0     H37301   5.308   8.774   0.572  0.1626  0.2581 -0.1350
  995MOL0     H37302   5.225   9.031   0.711 -0.7591  0.7376 -1.6095
  995MOL0     H37303   5.191   8.993   0.535 -1.4428  2.4142  0.0936
  995MOL0     H37304   5.138   8.827   0.792  0.0649  2.5464 -0.1792
  995MOL0     H37305   5.112   8.769   0.632  1.1701 -0.5409 -0.1837
  995MOL0     H37306   4.754   8.963   0.699 -0.0152 -0.7111 -3.1077
  995MOL0     H37307   5.694   9.134   0.770 -0.4556  1.5633  0.0498
  995MOL0     H37308   6.042   9.208   0.727 -0.9292 -0.1782  1.0521
  995MOL0     H37309   5.914   9.333   0.745 -2.7270 -0.0353  0.5786
  995MOL0     H37310   5.916   9.179   0.842 -3.4487  1.2969  0.4005
  996MOL0     O37311   4.549   1.006   4.834 -0.1780  0.8649  0.5963
  996MOL0     C37312   4.541   0.918   4.924  0.2628  0.0324  0.0418
  996MOL0     O37313   4.492   0.787   4.918 -0.3499  0.4316 -0.2667
  996MOL0     C37314   4.379   0.780   4.838  0.2181 -0.0904  0.1952
  996MOL0     C37315   4.253   0.816   4.893  0.1267  0.6114 -0.1080
  996MOL0     C37316   4.148   0.815   4.801 -0.0795  1.0527  0.2009
  996MOL0     C37317   4.160   0.772   4.663 -0.5033  0.4798 -0.5768
  996MOL0     O37318   4.058   0.764   4.580 -0.1267 -0.4029 -0.3210
  996MOL0     C37319   3.919   0.791   4.623 -0.1657  0.0778 -0.0354
  996MOL0     C37320   3.832   0.734   4.519  0.1566  0.1972 -0.1037
  996MOL0     C37321   3.857   0.584   4.511 -0.2405 -0.1862 -0.3322
  996MOL0     C37322   3.762   0.522   4.419  0.1322 -0.4115  0.0179
  996MOL0     C37323   3.791   0.365   4.378  0.4619 -0.3062 -0.1087
  996MOL0     C37324   3.695   0.303   4.273 -0.1538 -0.0546 -0.2332
  996MOL0     C37325   3.777   0.246   4.154 -0.2116  1.4077 -0.5685
  996MOL0     C37326   3.709   0.170   4.045 -0.7277  1.0477 -0.0029
  996MOL0     N37327   3.620   0.266   3.972  0.2390 -0.7507  0.0846
  996MOL0     C37328   3.665   0.366   3.888 -0.5657 -0.5232 -0.0668
  996MOL0     C37329   3.547   0.428   3.833 -1.1067  0.0439 -0.5012
  996MOL0     C37330   3.535   0.542   3.738  0.1551  0.1372 -0.2832
  996MOL0     C37331   3.470   0.652   3.820  0.1452  0.1615 -0.4276
  996MOL0     C37332   3.498   0.793   3.774  0.1802  0.2660  0.4306
  996MOL0     C37333   3.445   0.821   3.634 -0.4468  0.8615  0.0940
  996MOL0     O37334   3.429   0.962   3.606  0.2432 -0.5443  0.2440
  996MOL0     C37335   3.335   1.001   3.513 -0.0507 -0.0139 -0.4044
  996MOL0     C37336   3.255   1.111   3.556  0.6671 -0.0843  0.1804
  996MOL0     C37337   3.181   1.180   3.458  0.1591  0.1727 -0.2860
  996MOL0     C37338   3.092   1.286   3.511  0.0191  0.2435 -0.1251
  996MOL0     C37339   3.187   1.150   3.319  0.7818  0.0049 -0.2553
  996MOL0     C37340   3.117   1.227   3.203  0.3275  0.1899 -0.3911
  996MOL0     O37341   3.122   1.174   3.079 -0.1083 -0.6320  0.2399
  996MOL0     C37342   3.097   1.253   2.967 -0.0892 -0.0003  0.3842
  996MOL0     C37343   2.968   1.295   2.935 -0.0399 -0.3585  0.4372
  996MOL0     C37344   2.949   1.387   2.827 -0.1555 -0.2679  0.0005
  996MOL0     C37345   3.052   1.426   2.733 -0.1967  0.1098 -1.0687
  996MOL0     O37346   3.026   1.505   2.625  0.1125 -0.1407  0.2834
  996MOL0     C37347   3.063   1.445   2.499 -0.1331 -0.1360 -0.1277
  996MOL0     C37348   3.036   1.528   2.377  0.7961 -0.9756  0.4892
  996MOL0     C37349   2.890   1.549   2.340 -1.5458 -0.6028  0.2058
  996MOL0     C37350   2.883   1.660   2.236 -0.7699  0.2844 -0.8055
  996MOL0     C37351   2.735   1.669   2.189  0.4683  0.5538  0.0542
  996MOL0     C37352   2.717   1.750   2.069  0.0468 -0.3066 -0.2602
  996MOL0     C37353   2.735   1.896   2.105 -0.4973 -1.0552 -0.4052
  996MOL0     C37354   2.736   1.965   1.970 -0.2957  0.1076 -0.0200
  996MOL0    Cl37355   2.741   2.142   1.980  0.0326  0.5268  0.2269
  996MOL0     C37356   3.177   1.373   2.760 -0.6716 -0.4330  0.1373
  996MOL0     C37357   3.201   1.290   2.873  0.1288  0.1618 -0.7170
  996MOL0     O37358   3.085   1.344   3.228 -0.7269 -0.3161 -0.1243
  996MOL0     C37359   3.276   1.054   3.283 -0.2019  0.5689  0.6748
  996MOL0     C37360   3.351   0.980   3.381  0.1713 -0.2800 -0.3897
  996MOL0     N37361   3.438   0.359   3.895 -0.2000 -0.6036 -0.2920
  996MOL0     N37362   3.483   0.273   3.976 -0.3341  0.0797 -0.4480
  996MOL0     C37363   4.289   0.740   4.612  0.3003 -1.0293  1.3670
  996MOL0     C37364   4.393   0.752   4.702  0.0804  0.9723  0.6811
  996MOL0     C37365   4.620   0.958   5.048 -0.9937  0.6876 -0.3134
  996MOL0     C37366   4.680   1.091   5.051 -0.4567 -0.2280 -0.3326
  996MOL0     C37367   4.774   1.119   5.151 -0.5226  0.0280  0.0147
  996MOL0     C37368   4.780   1.033   5.269  0.5897 -0.6372  0.3534
  996MOL0     O37369   4.841   1.073   5.387 -0.6319 -0.1881  0.3903
  996MOL0     C37370   4.977   1.011   5.407  0.1155 -0.0289  0.1078
  996MOL0     C37371   5.045   1.039   5.535 -0.4713  0.3032 -0.1548
  996MOL0     C37372   5.152   1.146   5.519  0.2522  0.4269 -0.0795
  996MOL0     C37373   5.245   1.177   5.646  1.5639 -0.0172  0.0667
  996MOL0     C37374   5.371   1.246   5.617  0.6936 -0.1539  0.2283
  996MOL0     C37375   5.481   1.298   5.609  0.0535  0.4844  0.2566
  996MOL0     C37376   4.719   0.911   5.274 -1.1543 -0.0421 -0.5412
  996MOL0     C37377   4.649   0.864   5.156  0.1782  0.0722  0.3465
  996MOL0     C37378   4.599   0.719   5.162  0.2900  0.0678 -0.2101
  996MOL0     H37379   4.236   0.847   4.995  0.0845 -0.1947  0.1304
  996MOL0     H37380   4.051   0.858   4.826 -0.6750  2.2000 -3.5553
  996MOL0     H37381   3.902   0.899   4.634 -1.0167  0.2382 -2.3931
  996MOL0     H37382   3.891   0.738   4.715 -1.3222  0.6903 -0.0200
  996MOL0     H37383   3.729   0.757   4.547  1.2636  3.0300  2.1355
  996MOL0     H37384   3.842   0.781   4.421 -2.8666  2.0771  0.3664
  996MOL0     H37385   3.962   0.576   4.478  0.7854  3.0927  1.6210
  996MOL0     H37386   3.849   0.540   4.611  3.4092 -0.3771  0.0214
  996MOL0     H37387   3.664   0.529   4.466  0.3160 -0.8755  0.4788
  996MOL0     H37388   3.748   0.587   4.332 -0.2624 -0.9649 -0.3357
  996MOL0     H37389   3.789   0.300   4.466 -0.2549 -0.6747 -0.3892
  996MOL0     H37390   3.891   0.364   4.334 -1.5211 -0.7021 -5.2423
  996MOL0     H37391   3.634   0.226   4.322  1.5426 -1.4093 -0.1564
  996MOL0     H37392   3.631   0.385   4.240 -0.9694 -1.2529 -1.8088
  996MOL0     H37393   3.848   0.182   4.206 -0.2271  1.1612 -0.8486
  996MOL0     H37394   3.835   0.325   4.106  3.1701  0.7725  2.1129
  996MOL0     H37395   3.776   0.110   3.983 -4.1702  1.7643 -5.0068
  996MOL0     H37396   3.640   0.095   4.084  1.0046 -0.9250 -0.5713
  996MOL0     H37397   3.768   0.379   3.857 -0.9038 -0.2575 -1.1375
  996MOL0     H37398   3.468   0.508   3.659 -1.8362 -1.2965  1.8709
  996MOL0     H37399   3.635   0.569   3.705  0.1314  3.6501  1.9465
  996MOL0     H37400   3.362   0.637   3.833  0.1310  1.1003  0.6694
  996MOL0     H37401   3.504   0.650   3.924  0.8538  1.3942 -0.6215
  996MOL0     H37402   3.434   0.850   3.842 -1.6072 -0.4914 -0.5319
  996MOL0     H37403   3.601   0.823   3.794  0.3261  0.1788 -0.1830
  996MOL0     H37404   3.504   0.772   3.557 -0.5728 -2.5560  1.9612
  996MOL0     H37405   3.346   0.774   3.631 -0.1612  0.3065 -0.7576
  996MOL0     H37406   3.254   1.153   3.656  0.3988  2.8603 -0.9674
  996MOL0     H37407   3.107   1.284   3.619  2.5318 -2.2745 -0.3983
  996MOL0     H37408   2.986   1.270   3.486 -0.5439  0.3181  2.0438
  996MOL0     H37409   3.104   1.387   3.472 -0.7530 -0.0562 -1.1860
  996MOL0     H37410   2.883   1.264   2.995  0.5253 -0.5418  1.1560
  996MOL0     H37411   2.850   1.422   2.800 -0.1202  0.9282  1.3295
  996MOL0     H37412   3.170   1.423   2.496  0.0616  0.7946 -0.5994
  996MOL0     H37413   3.004   1.354   2.485 -2.7751  1.5878 -0.9494
  996MOL0     H37414   3.091   1.622   2.384  0.6567 -0.7960 -0.5456
  996MOL0     H37415   3.094   1.491   2.291  0.5770  0.1683 -0.1765
  996MOL0     H37416   2.837   1.602   2.420 -1.3861  1.3709 -0.9111
  996MOL0     H37417   2.828   1.466   2.306 -0.1865 -1.9472  0.9235
  996MOL0     H37418   2.948   1.646   2.149 -0.6774  2.8199 -1.2298
  996MOL0     H37419   2.915   1.756   2.278 -0.9679  0.7147 -1.6285
  996MOL0     H37420   2.695   1.569   2.168 -3.3366  1.1333  3.2336
  996MOL0     H37421   2.671   1.699   2.273 -1.1371  0.9781 -1.2461
  996MOL0     H37422   2.619   1.737   2.021  0.3727 -0.2556 -0.9487
  996MOL0     H37423   2.780   1.728   1.983  0.1969  1.5867 -0.6754
  996MOL0     H37424   2.833   1.902   2.154 -0.8112 -2.9654  0.5467
  996MOL0     H37425   2.670   1.945   2.177  0.5110 -2.1042  1.2829
  996MOL0     H37426   2.652   1.930   1.908 -0.6333  0.3142  0.3125
  996MOL0     H37427   2.819   1.921   1.915 -0.5442 -2.0150  1.2334
  996MOL0     H37428   3.258   1.408   2.698 -2.1000 -1.1216 -2.2481
  996MOL0     H37429   3.301   1.251   2.879  0.7398  1.4720 -1.7505
  996MOL0     H37430   3.311   1.037   3.182 -1.9351 -0.6305  0.2252
  996MOL0     H37431   3.435   0.918   3.350 -1.7371 -0.8952 -5.0737
  996MOL0     H37432   4.320   0.727   4.509  2.9894  1.6068  1.7025
  996MOL0     H37433   4.492   0.747   4.657 -0.5964 -0.7076 -0.7121
  996MOL0     H37434   4.669   1.163   4.970  1.1828 -1.0303 -1.3282
  996MOL0     H37435   4.829   1.212   5.160  1.9419 -1.5558  5.1544
  996MOL0     H37436   4.967   0.902   5.404 -0.8556  0.0423  0.4142
  996MOL0     H37437   5.028   1.035   5.313 -0.5726  1.1509  0.0244
  996MOL0     H37438   5.100   0.950   5.567  1.3245  0.4220 -2.6747
  996MOL0     H37439   4.974   1.059   5.616 -3.2020 -1.9010 -1.8237
  996MOL0     H37440   5.212   1.113   5.434  2.3481  0.7463  1.2117
  996MOL0     H37441   5.103   1.239   5.488 -0.3439  0.3860  0.7012
  996MOL0     H37442   5.280   1.077   5.675  3.9288 -0.0944 -2.5890
  996MOL0     H37443   5.195   1.239   5.721  2.3097  2.3787 -1.3362
  996MOL0     H37444   5.582   1.334   5.603  0.0367  0.3862 -0.8933
  996MOL0     H37445   4.736   0.855   5.366 -1.7028  0.9322  0.1675
  996MOL0     H37446   4.649   0.680   5.251  1.3916 -0.4350 -1.0150
  996MOL0     H37447   4.493   0.709   5.183 -0.2220  1.1888 -2.0713
  996MOL0     H37448   4.624   0.652   5.079 -1.9025 -0.1276 -0.7486
  997MOL0     O37449   9.415   4.686   9.328 -0.4604  0.6905 -0.4062
  997MOL0     C37450   9.447   4.780   9.405  0.1765 -0.4866  0.6583
  997MOL0     O37451   9.473   4.916   9.349 -0.1218  0.1472 -0.9446
  997MOL0     C37452   9.427   4.932   9.221  1.3574 -0.1212 -0.9823
  997MOL0     C37453   9.291   4.945   9.202  0.5111 -0.5985 -0.4797
  997MOL0     C37454   9.233   4.979   9.073 -0.9761  0.5667  0.2886
  997MOL0     C37455   9.322   4.993   8.964  0.6334 -0.5326 -0.1489
  997MOL0     O37456   9.274   5.006   8.833  0.3797  0.1349  0.9212
  997MOL0     C37457   9.222   5.130   8.794 -0.0119  0.0530  0.0795
  997MOL0     C37458   9.314   5.247   8.793 -0.1778 -0.1683 -0.3274
  997MOL0     C37459   9.445   5.242   8.711 -0.6360 -0.1072  0.0408
  997MOL0     C37460   9.433   5.204   8.561  0.3562 -0.2115 -0.1366
  997MOL0     C37461   9.546   5.273   8.486 -0.4483 -0.1072  0.5357
  997MOL0     C37462   9.538   5.222   8.342  0.4324 -0.4315  0.9729
  997MOL0     C37463   9.657   5.274   8.257  0.6058 -0.1115 -0.3592
  997MOL0     C37464   9.645   5.420   8.220 -0.4822  0.5721  0.5193
  997MOL0     N37465   9.570   5.433   8.096 -0.0376  0.4984 -0.9534
  997MOL0     C37466   9.427   5.432   8.095 -0.3174  0.0613  0.1222
  997MOL0     C37467   9.397   5.395   7.966  0.4590 -0.0947  0.2341
  997MOL0     C37468   9.271   5.368   7.899  0.8503  0.3060  0.4312
  997MOL0     C37469   9.183   5.490   7.894 -0.2023 -0.5612  0.4298
  997MOL0     C37470   9.082   5.490   7.781  1.4255  0.1626 -0.7742
  997MOL0     C37471   8.969   5.594   7.806 -0.2849  0.2311 -0.3877
  997MOL0     O37472   8.862   5.563   7.715 -0.9600  0.9918 -0.7271
  997MOL0     C37473   8.778   5.456   7.742  0.1378 -0.5156 -0.0092
  997MOL0     C37474   8.733   5.412   7.867 -0.2164  0.3201 -0.0985
  997MOL0     C37475   8.633   5.310   7.884  1.4342 -0.8036  0.4201
  997MOL0     C37476   8.597   5.281   8.024  0.4316  0.5710 -0.2498
  997MOL0     C37477   8.567   5.255   7.772  0.0490 -0.0572 -0.1117
  997MOL0     C37478   8.457   5.152   7.775  0.7614 -0.3268 -0.7411
  997MOL0     O37479   8.427   5.115   7.649 -0.2641  0.6264  0.3930
  997MOL0     C37480   8.295   5.086   7.638  0.1791  0.2209 -0.6588
  997MOL0     C37481   8.190   5.179   7.608 -1.0886 -0.5190 -0.4397
  997MOL0     C37482   8.053   5.146   7.606  0.3470  0.1853  0.5429
  997MOL0     C37483   8.013   5.006   7.604  0.1810  0.3820  0.7365
  997MOL0     O37484   7.884   4.982   7.580 -0.0447  0.1449  0.0443
  997MOL0     C37485   7.827   4.846   7.596  0.3428 -0.3719 -0.0629
  997MOL0     C37486   7.675   4.840   7.560 -0.0164 -0.1885  1.2400
  997MOL0     C37487   7.609   4.707   7.601  0.0162 -0.7860  0.1863
  997MOL0     C37488   7.458   4.711   7.590  0.6508 -0.4193  0.4604
  997MOL0     C37489   7.387   4.786   7.690 -0.9454  0.1201 -0.1444
  997MOL0     C37490   7.240   4.790   7.650 -0.1960  0.4401  0.0855
  997MOL0     C37491   7.146   4.829   7.770  0.1261  0.3634 -0.0384
  997MOL0     C37492   6.999   4.816   7.740 -0.6566 -0.2230 -0.2992
  997MOL0    Cl37493   6.974   4.897   7.589  0.0864 -0.0156 -0.0391
  997MOL0     C37494   8.117   4.912   7.626 -0.1931  0.1921  0.8773
  997MOL0     C37495   8.253   4.949   7.648  0.1010  0.6820  0.1931
  997MOL0     O37496   8.413   5.098   7.878  0.5277 -0.6405 -0.2057
  997MOL0     C37497   8.629   5.288   7.643 -1.1963 -0.9260  0.8236
  997MOL0     C37498   8.730   5.386   7.626 -0.0117  0.3956 -0.5821
  997MOL0     N37499   9.514   5.403   7.896  0.5531 -0.8591  0.2671
  997MOL0     N37500   9.614   5.407   7.970  0.4681 -0.7379 -0.4547
  997MOL0     C37501   9.464   4.979   8.990  1.1166 -0.7826 -0.2024
  997MOL0     C37502   9.514   4.952   9.118 -1.1184 -0.0026 -0.4360
  997MOL0     C37503   9.488   4.749   9.549 -0.8530 -0.3161 -0.2708
  997MOL0     C37504   9.592   4.833   9.607  0.5562 -0.8713 -0.0738
  997MOL0     C37505   9.628   4.819   9.749  0.5563  0.9330 -0.1156
  997MOL0     C37506   9.570   4.718   9.826  0.1670  0.7990  0.2536
  997MOL0     O37507   9.621   4.716   9.955 -0.4628  0.3722  0.3898
  997MOL0     C37508   9.604   4.605  10.036  0.2876 -0.4177 -0.3759
  997MOL0     C37509   9.657   4.632  10.180 -0.0873  0.3246  0.6707
  997MOL0     C37510   9.810   4.594  10.183 -0.0709 -0.2209 -0.5517
  997MOL0     C37511   9.833   4.446  10.202  1.2309  0.3530 -0.7904
  997MOL0     C37512   9.982   4.417  10.193  0.5674 -0.0220 -0.2466
  997MOL0     C37513  10.103   4.407  10.179 -0.2757  0.2636 -1.2622
  997MOL0     C37514   9.469   4.639   9.770  0.0364  0.5466 -0.3318
  997MOL0     C37515   9.419   4.660   9.636 -0.0487  0.1230  0.6586
  997MOL0     C37516   9.293   4.576   9.591 -0.3292 -0.1411  0.1588
  997MOL0     H37517   9.221   4.944   9.284  2.1388 -0.5569  0.9490
  997MOL0     H37518   9.126   4.988   9.054 -0.5191  0.5803 -2.7451
  997MOL0     H37519   9.129   5.152   8.849 -1.0523 -1.0823 -1.1781
  997MOL0     H37520   9.193   5.116   8.690  2.1506 -1.0367 -0.4364
  997MOL0     H37521   9.251   5.328   8.754 -0.8929 -1.5885 -2.2897
  997MOL0     H37522   9.345   5.265   8.896 -1.0837 -0.8298  0.0724
  997MOL0     H37523   9.495   5.339   8.702 -1.3343  0.0869 -2.6804
  997MOL0     H37524   9.520   5.171   8.747  2.8900  2.5185 -1.5406
  997MOL0     H37525   9.427   5.094   8.566 -1.0831 -0.1024  2.3472
  997MOL0     H37526   9.342   5.244   8.516 -0.6438  0.0701  2.0089
  997MOL0     H37527   9.634   5.234   8.538 -0.6714 -0.3656  0.7234
  997MOL0     H37528   9.539   5.383   8.489  0.2711 -0.0564  0.7272
  997MOL0     H37529   9.536   5.113   8.335 -1.5734 -0.5042  1.9193
  997MOL0     H37530   9.442   5.256   8.301  1.3751  5.4477  2.7127
  997MOL0     H37531   9.660   5.212   8.167 -0.6915 -1.1686  0.2932
  997MOL0     H37532   9.749   5.262   8.314 -1.9166  2.0540  4.8400
  997MOL0     H37533   9.601   5.479   8.301 -0.3435  3.8477 -1.6027
  997MOL0     H37534   9.745   5.462   8.209 -0.7228  1.8826  2.6515
  997MOL0     H37535   9.360   5.460   8.176 -1.5966  0.4953 -1.0657
  997MOL0     H37536   9.220   5.283   7.945  2.0864 -0.9137 -0.3590
  997MOL0     H37537   9.295   5.356   7.793 -1.1187  1.3342 -0.1857
  997MOL0     H37538   9.130   5.497   7.989  0.1823  0.0830  0.6092
  997MOL0     H37539   9.244   5.581   7.883 -1.4788  0.4120  1.0886
  997MOL0     H37540   9.121   5.503   7.680  0.6251  0.9037 -0.9954
  997MOL0     H37541   9.031   5.393   7.789 -2.2675  1.9872  0.0466
  997MOL0     H37542   8.940   5.607   7.910 -2.8678  1.1140 -1.1295
  997MOL0     H37543   9.018   5.686   7.774  0.5581  0.0069  0.2279
  997MOL0     H37544   8.755   5.465   7.960 -0.5918 -1.8280  1.3000
  997MOL0     H37545   8.522   5.349   8.065 -0.4123 -0.7066  0.3717
  997MOL0     H37546   8.683   5.295   8.090  1.1045 -1.2124 -0.6930
  997MOL0     H37547   8.557   5.181   8.042 -1.2975  1.5377  1.6473
  997MOL0     H37548   8.210   5.286   7.604  2.6693 -1.0921 -2.8922
  997MOL0     H37549   7.969   5.211   7.583  0.6725  0.1145 -0.9484
  997MOL0     H37550   7.880   4.775   7.530  2.7350 -0.8010  2.1607
  997MOL0     H37551   7.850   4.807   7.696 -2.6624 -0.6137  0.6141
  997MOL0     H37552   7.631   4.923   7.616  0.5866  1.7929 -1.0853
  997MOL0     H37553   7.668   4.858   7.452 -0.5030  2.5844  1.6516
  997MOL0     H37554   7.636   4.701   7.707 -1.1815  0.1755  0.5713
  997MOL0     H37555   7.649   4.622   7.545  3.4221  2.1367 -2.2320
  997MOL0     H37556   7.423   4.609   7.611  0.4242 -0.0500  2.0322
  997MOL0     H37557   7.424   4.740   7.490  1.0109 -0.2361  0.3892
  997MOL0     H37558   7.393   4.725   7.781 -0.2910 -3.7563 -2.5604
  997MOL0     H37559   7.425   4.888   7.698 -2.3293  0.9005 -2.5273
  997MOL0     H37560   7.211   4.691   7.615  0.0993  1.4188 -3.2790
  997MOL0     H37561   7.229   4.855   7.562  1.2483  0.5796 -0.0098
  997MOL0     H37562   7.170   4.934   7.791  2.2263  0.7141 -3.4094
  997MOL0     H37563   7.166   4.772   7.862  0.8987  1.3079  0.3983
  997MOL0     H37564   6.959   4.877   7.822  2.1777  0.4529  0.7114
  997MOL0     H37565   6.958   4.715   7.744  1.6586 -1.1913  0.8339
  997MOL0     H37566   8.083   4.810   7.642 -0.9439  0.6971  2.7290
  997MOL0     H37567   8.322   4.871   7.675 -1.6337 -1.6583 -1.7109
  997MOL0     H37568   8.596   5.252   7.546  2.0699 -3.1638  0.3868
  997MOL0     H37569   8.769   5.410   7.528  1.7768 -0.7293 -0.1893
  997MOL0     H37570   9.529   4.994   8.904  1.0750  1.0637  0.0553
  997MOL0     H37571   9.619   4.942   9.144 -1.0872 -0.4387 -0.7182
  997MOL0     H37572   9.635   4.911   9.545  0.7734 -0.9241  0.0091
  997MOL0     H37573   9.695   4.891   9.793 -0.0690  1.5681 -0.1871
  997MOL0     H37574   9.499   4.580  10.051  0.9635 -3.6770 -0.1943
  997MOL0     H37575   9.646   4.513   9.994  0.8033 -0.0135 -0.7523
  997MOL0     H37576   9.615   4.570  10.259  0.4529 -1.4657 -0.3807
  997MOL0     H37577   9.646   4.731  10.225  1.1595  1.6304 -1.6876
  997MOL0     H37578   9.867   4.615  10.092  2.6068 -3.1730  0.2419
  997MOL0     H37579   9.868   4.648  10.259 -1.1741  0.9274 -0.4868
  997MOL0     H37580   9.766   4.387  10.138 -0.6279 -0.0763  1.4145
  997MOL0     H37581   9.800   4.425  10.304 -2.2930  1.6142 -1.5428
  997MOL0     H37582  10.210   4.397  10.174 -0.3847 -0.2804 -3.2020
  997MOL0     H37583   9.432   4.544   9.809  1.1441 -0.7077 -2.1889
  997MOL0     H37584   9.280   4.499   9.667  0.6295 -0.5628 -0.0866
  997MOL0     H37585   9.201   4.636   9.583  0.1817  0.9590  2.0473
  997MOL0     H37586   9.310   4.526   9.495 -1.0533  0.6871 -0.4232
  998MOL0     O37587   3.942   2.623   8.970 -0.3232 -0.0789  0.2197
  998MOL0     C37588   3.871   2.635   9.069 -0.2124  1.2836 -1.1077
  998MOL0     O37589   3.730   2.660   9.068 -0.0877 -0.3209  0.4644
  998MOL0     C37590   3.680   2.663   8.944  0.3247  0.0764  0.3176
  998MOL0     C37591   3.634   2.549   8.886  0.0782  0.1536 -0.0241
  998MOL0     C37592   3.561   2.542   8.767  0.4062  0.3926 -0.2517
  998MOL0     C37593   3.537   2.656   8.699 -0.2078 -0.4520 -0.1278
  998MOL0     O37594   3.476   2.665   8.576 -0.9386  0.6311 -1.4110
  998MOL0     C37595   3.428   2.540   8.509  0.8154 -1.0248  0.2268
  998MOL0     C37596   3.334   2.571   8.397  0.4007 -0.6910 -0.2144
  998MOL0     C37597   3.188   2.583   8.440  0.4187 -0.7057 -0.0129
  998MOL0     C37598   3.124   2.448   8.447  0.9300  0.2687  0.0632
  998MOL0     C37599   2.969   2.469   8.454 -0.6836 -0.5001 -0.6007
  998MOL0     C37600   2.887   2.375   8.538  0.4345  0.1718  0.5015
  998MOL0     C37601   2.740   2.403   8.527 -0.8010  1.0183 -0.3741
  998MOL0     C37602   2.651   2.330   8.634 -0.5523 -1.3179  0.7380
  998MOL0     N37603   2.678   2.189   8.630 -0.2444  0.7065  0.4953
  998MOL0     C37604   2.764   2.123   8.712  0.0033 -0.8305 -0.1926
  998MOL0     C37605   2.743   1.994   8.700  0.8525  0.7351  0.2586
  998MOL0     C37606   2.794   1.887   8.796  0.0803  0.1760 -0.2101
  998MOL0     C37607   2.793   1.744   8.742  0.1518  0.3697  0.4285
  998MOL0     C37608   2.883   1.738   8.613  0.0443  0.3107  0.1685
  998MOL0     C37609   2.821   1.630   8.527  0.2117  0.2762 -0.1999
  998MOL0     O37610   2.888   1.618   8.404 -0.5390  0.4759 -0.8199
  998MOL0     C37611   2.838   1.529   8.317  0.1468 -0.7106  0.3617
  998MOL0     C37612   2.933   1.495   8.213  0.0482 -0.3166  0.4395
  998MOL0     C37613   2.913   1.388   8.119 -0.0360 -0.1281  0.4313
  998MOL0     C37614   3.026   1.361   8.015  0.3561  0.3552  0.7862
  998MOL0     C37615   2.789   1.323   8.122 -0.2982  0.4554  0.6150
  998MOL0     C37616   2.748   1.216   8.016 -0.3160 -0.4757 -0.8553
  998MOL0     O37617   2.611   1.209   8.002 -0.4684  0.1554 -0.0858
  998MOL0     C37618   2.563   1.114   7.918  0.1788  0.0437 -0.7079
  998MOL0     C37619   2.486   1.013   7.967  0.5446  0.1443 -0.0217
  998MOL0     C37620   2.419   0.927   7.877  0.1874  0.7202  0.1205
  998MOL0     C37621   2.435   0.944   7.737  0.3675 -0.1561  0.6468
  998MOL0     O37622   2.382   0.872   7.635  0.0918 -0.4024  0.6625
  998MOL0     C37623   2.294   0.762   7.648  0.0601 -0.2013  0.9461
  998MOL0     C37624   2.158   0.801   7.691  0.3545  0.1028 -0.2731
  998MOL0     C37625   2.088   0.916   7.616  0.1153 -0.0167  0.0908
  998MOL0     C37626   1.957   0.956   7.667  0.8317 -0.4532 -0.3694
  998MOL0     C37627   1.861   1.052   7.569  0.3305 -0.3104 -0.4813
  998MOL0     C37628   1.895   1.203   7.565 -0.5575 -0.5484 -0.2677
  998MOL0     C37629   2.012   1.246   7.480 -0.4314  0.0236  0.2480
  998MOL0     C37630   2.028   1.384   7.433  0.0135 -0.3430  0.3571
  998MOL0    Cl37631   1.931   1.398   7.280 -0.3460  0.4221  0.3116
  998MOL0     C37632   2.518   1.046   7.681 -0.2921 -0.2158  0.0755
  998MOL0     C37633   2.584   1.132   7.778 -0.0666  0.0248  0.3088
  998MOL0     O37634   2.832   1.141   7.974  0.6894  0.0732 -0.2004
  998MOL0     C37635   2.689   1.364   8.217  0.4768 -0.0934  0.2437
  998MOL0     C37636   2.723   1.462   8.316 -0.5617 -0.5782 -0.9776
  998MOL0     N37637   2.641   1.978   8.601 -0.8528  0.9696 -0.2216
  998MOL0     N37638   2.601   2.096   8.564  0.6565 -0.6661  0.6772
  998MOL0     C37639   3.586   2.775   8.746  0.3770 -0.1479 -0.2224
  998MOL0     C37640   3.653   2.784   8.874 -0.1363  0.7697  0.4841
  998MOL0     C37641   3.929   2.635   9.211 -0.5041  0.3952 -0.4535
  998MOL0     C37642   3.847   2.659   9.324 -0.0198  0.6783 -0.3147
  998MOL0     C37643   3.890   2.647   9.451  0.1285 -0.0132  0.4541
  998MOL0     C37644   4.028   2.626   9.480  1.0055  0.4952 -0.7511
  998MOL0     O37645   4.087   2.605   9.601  0.2610 -0.1548 -0.1730
  998MOL0     C37646   4.015   2.627   9.731  0.0026  0.0363  0.8507
  998MOL0     C37647   4.114   2.606   9.854  0.8996  0.4193  0.6095
  998MOL0     C37648   4.039   2.615   9.984  0.6775 -0.1078  0.1817
  998MOL0     C37649   4.139   2.619  10.095  0.6459 -0.5030 -0.4833
  998MOL0     C37650   4.069   2.589  10.218  0.4625 -0.7646 -0.8572
  998MOL0     C37651   4.010   2.575  10.325 -0.1469  0.2623 -0.0238
  998MOL0     C37652   4.113   2.615   9.379 -0.3928  0.9381  0.3777
  998MOL0     C37653   4.068   2.611   9.241 -0.8282  0.1731  1.2793
  998MOL0     C37654   4.181   2.645   9.132 -0.2543 -0.5831 -0.7919
  998MOL0     H37655   3.644   2.454   8.938  0.2629  0.4754  0.5317
  998MOL0     H37656   3.535   2.443   8.729  0.2075  0.5288 -0.4687
  998MOL0     H37657   3.372   2.473   8.575 -0.3084 -1.5342 -1.1884
  998MOL0     H37658   3.517   2.489   8.472 -0.2513 -2.1009 -1.0101
  998MOL0     H37659   3.371   2.657   8.341  2.5812 -1.2281  0.2973
  998MOL0     H37660   3.348   2.488   8.326 -2.7030 -0.5853 -1.0986
  998MOL0     H37661   3.182   2.636   8.536  0.4511  0.3451 -0.5742
  998MOL0     H37662   3.136   2.651   8.372  1.7553  0.6651  0.2873
  998MOL0     H37663   3.142   2.383   8.361  0.1244 -1.7507  1.3709
  998MOL0     H37664   3.166   2.405   8.538  0.1012 -1.8509 -0.5002
  998MOL0     H37665   2.926   2.455   8.355 -0.1061  1.2556 -1.1329
  998MOL0     H37666   2.956   2.576   8.477 -2.1357 -0.3524 -1.9406
  998MOL0     H37667   2.915   2.277   8.498 -2.7840 -0.0333 -1.6029
  998MOL0     H37668   2.915   2.365   8.643 -0.0502  1.8553  0.8107
  998MOL0     H37669   2.698   2.366   8.433 -0.2680 -0.9377  0.1182
  998MOL0     H37670   2.729   2.512   8.532 -2.4477  0.9131 -0.9058
  998MOL0     H37671   2.644   2.385   8.728  1.7584  2.5387 -1.1027
  998MOL0     H37672   2.545   2.331   8.605  0.1378 -0.7506 -2.1304
  998MOL0     H37673   2.826   2.181   8.780 -1.0022  3.2437 -2.3554
  998MOL0     H37674   2.746   1.900   8.893 -0.2537 -3.2567  0.1918
  998MOL0     H37675   2.898   1.912   8.817 -0.3319 -0.7686  3.8663
  998MOL0     H37676   2.848   1.677   8.809  0.1900  1.3371  1.3981
  998MOL0     H37677   2.690   1.713   8.723 -1.1498  3.9155  0.8777
  998MOL0     H37678   2.879   1.832   8.557  0.4361  0.0647 -0.2793
  998MOL0     H37679   2.982   1.698   8.636  0.1287  0.1879 -0.4021
  998MOL0     H37680   2.833   1.542   8.592  0.4383  0.7297  0.3825
  998MOL0     H37681   2.714   1.649   8.514 -0.0612 -1.8221 -1.4282
  998MOL0     H37682   3.028   1.546   8.220  0.1721 -0.7867  3.5427
  998MOL0     H37683   3.079   1.455   8.005 -1.4479  1.3016 -0.2971
  998MOL0     H37684   2.995   1.324   7.917 -1.3427 -0.2695  1.5216
  998MOL0     H37685   3.099   1.287   8.050  0.2705  0.4462  1.1630
  998MOL0     H37686   2.469   1.008   8.074  1.2583 -0.1102  0.0888
  998MOL0     H37687   2.354   0.855   7.926 -1.6411  2.1643 -0.0683
  998MOL0     H37688   2.294   0.696   7.560  0.2383 -1.4779  1.8804
  998MOL0     H37689   2.344   0.706   7.726  1.1992 -0.9054 -0.2487
  998MOL0     H37690   2.096   0.711   7.691  2.7903 -1.7189  1.8894
  998MOL0     H37691   2.173   0.831   7.795  0.1594 -0.9431  0.0673
  998MOL0     H37692   2.081   0.894   7.509 -2.5892  5.0918 -1.0870
  998MOL0     H37693   2.154   1.003   7.628 -1.0034  0.7187  1.1004
  998MOL0     H37694   1.965   0.991   7.770  0.1448 -3.5052  0.8164
  998MOL0     H37695   1.904   0.860   7.666  0.4399 -0.2343 -0.8355
  998MOL0     H37696   1.866   1.014   7.466  0.7470 -0.6020 -0.3527
  998MOL0     H37697   1.753   1.055   7.588  0.4249 -1.9796  0.5056
  998MOL0     H37698   1.905   1.244   7.666 -0.9323 -0.5318 -0.2378
  998MOL0     H37699   1.811   1.265   7.532 -0.3178 -0.3754 -0.5605
  998MOL0     H37700   1.997   1.195   7.384  2.4501 -2.9972  1.2380
  998MOL0     H37701   2.108   1.215   7.522 -1.2680 -3.3986 -0.0735
  998MOL0     H37702   2.135   1.400   7.423  0.3015 -0.6962  2.4898
  998MOL0     H37703   1.996   1.458   7.507 -1.2004 -2.0143  1.5792
  998MOL0     H37704   2.521   1.064   7.574  0.8510  0.1088  0.1515
  998MOL0     H37705   2.647   1.215   7.747  1.6955 -1.8194 -1.3228
  998MOL0     H37706   2.592   1.316   8.215  1.8630 -3.1267  0.0090
  998MOL0     H37707   2.648   1.489   8.390 -1.2246 -0.6724 -1.6030
  998MOL0     H37708   3.580   2.866   8.687 -0.3435  0.9373  1.4224
  998MOL0     H37709   3.683   2.876   8.923  0.9739  0.3812  0.5662
  998MOL0     H37710   3.741   2.680   9.320  0.1192  1.6376  0.5651
  998MOL0     H37711   3.829   2.656   9.540 -0.2702 -2.0068  0.4444
  998MOL0     H37712   3.970   2.726   9.731  1.7622  0.9075 -0.6470
  998MOL0     H37713   3.926   2.564   9.734  0.0590 -0.2182 -1.2060
  998MOL0     H37714   4.197   2.676   9.846  0.3996  0.8800 -0.9784
  998MOL0     H37715   4.159   2.507   9.852 -0.2141 -0.1015  0.5229
  998MOL0     H37716   3.979   2.706   9.985 -1.0882 -1.1998 -0.7550
  998MOL0     H37717   3.976   2.525   9.983 -0.8116  0.7499  3.0402
  998MOL0     H37718   4.183   2.718  10.108  0.9772 -0.8036  0.8337
  998MOL0     H37719   4.224   2.550  10.087 -0.7125 -2.6114  1.8281
  998MOL0     H37720   3.941   2.569  10.407 -0.4650  0.7900 -0.2486
  998MOL0     H37721   4.220   2.600   9.391 -0.4155  1.1130  0.8331
  998MOL0     H37722   4.179   2.587   9.039  1.8925  4.5246 -4.4952
  998MOL0     H37723   4.157   2.749   9.111  0.7736  0.6569  3.3011
  998MOL0     H37724   4.283   2.655   9.171  0.4063 -0.6695 -2.3970
  999MOL0     O37725   3.144   8.775   7.365  0.5745  0.2053  0.3039
  999MOL0     C37726   3.172   8.836   7.469  0.3333 -0.4028  0.4712
  999MOL0     O37727   3.217   8.965   7.475 -0.5996  0.1296  0.6180
  999MOL0     C37728   3.268   9.016   7.357 -0.4574 -0.3037  0.4719
  999MOL0     C37729   3.371   8.950   7.285  0.0528  0.8297 -0.3894
  999MOL0     C37730   3.441   9.016   7.186 -0.1926  0.3742  0.0054
  999MOL0     C37731   3.393   9.138   7.137 -0.1819 -1.0482  0.6073
  999MOL0     O37732   3.445   9.209   7.031 -0.9563 -0.6443  0.4591
  999MOL0     C37733   3.353   9.237   6.926  0.2738  0.1597  0.3983
  999MOL0     C37734   3.417   9.324   6.817 -0.8809 -0.4515  0.2778
  999MOL0     C37735   3.570   9.291   6.807 -0.1766 -0.6256  0.6328
  999MOL0     C37736   3.632   9.356   6.682  0.0672 -0.5820  0.4702
  999MOL0     C37737   3.789   9.357   6.664 -0.2394 -0.7777 -0.2800
  999MOL0     C37738   3.845   9.434   6.550  0.3152  0.4714  0.6241
  999MOL0     C37739   4.001   9.437   6.567 -0.0480 -0.7590  0.2099
  999MOL0     C37740   4.068   9.509   6.443 -0.4105  0.4538 -0.9916
  999MOL0     N37741   4.193   9.561   6.486 -0.4046 -0.2568  0.0719
  999MOL0     C37742   4.295   9.483   6.534 -0.5396 -0.5866 -0.1905
  999MOL0     C37743   4.390   9.578   6.589  0.2442  0.5059 -0.6567
  999MOL0     C37744   4.481   9.526   6.692 -0.5888 -0.1137  0.0770
  999MOL0     C37745   4.633   9.562   6.653  0.2584  0.4497  0.0344
  999MOL0     C37746   4.655   9.709   6.682 -0.5292 -0.7453  0.8340
  999MOL0     C37747   4.789   9.766   6.643  0.4930 -0.0558  0.6594
  999MOL0     O37748   4.801   9.898   6.682  0.3784 -0.6941 -0.0637
  999MOL0     C37749   4.873   9.972   6.591 -0.4522  0.4075  0.1325
  999MOL0     C37750   4.997  10.025   6.621 -0.0780  0.2374 -0.5641
  999MOL0     C37751   5.085  10.077   6.522 -0.1648  0.5797  0.1561
  999MOL0     C37752   5.222  10.126   6.567  0.2908 -0.6243 -0.8078
  999MOL0     C37753   5.039  10.106   6.388 -0.5453 -0.4831 -0.6915
  999MOL0     C37754   5.115  10.177   6.279  0.5012 -0.8721  0.4946
  999MOL0     O37755   5.039  10.209   6.168 -0.9331  0.2456  0.8918
  999MOL0     C37756   5.091  10.267   6.060  0.9944 -0.4881 -0.2769
  999MOL0     C37757   5.213  10.236   6.006 -0.3299  0.0231 -0.0144
  999MOL0     C37758   5.262  10.307   5.891  0.7394  0.3457  0.0165
  999MOL0     C37759   5.188  10.402   5.826  0.1197  0.1084  0.0015
  999MOL0     O37760   5.238  10.456   5.710  0.6116 -0.3390 -0.3801
  999MOL0     C37761   5.163  10.427   5.597  0.1624 -0.0779  0.3160
  999MOL0     C37762   5.237  10.482   5.485 -0.4578 -0.4711  1.2121
  999MOL0     C37763   5.254  10.637   5.466  0.1412  0.3259  0.2233
  999MOL0     C37764   5.318  10.673   5.333 -0.3696  0.0208 -0.3097
  999MOL0     C37765   5.361  10.821   5.341 -0.6722  0.8260 -0.2196
  999MOL0     C37766   5.475  10.860   5.247 -0.3680 -1.3952  0.5565
  999MOL0     C37767   5.546  10.998   5.279  0.6760  1.1996  0.1865
  999MOL0     C37768   5.641  11.036   5.168  0.0035  0.2159  0.0053
  999MOL0    Cl37769   5.538  11.087   5.035 -0.3138 -0.0696  0.1565
  999MOL0     C37770   5.070  10.441   5.886  0.2719 -1.0583 -0.8085
  999MOL0     C37771   5.023  10.370   6.000 -0.6615  0.2003 -0.5794
  999MOL0     O37772   5.234  10.188   6.290 -0.5378 -0.2104  0.0356
  999MOL0     C37773   4.906  10.049   6.362  0.8154  0.1271  0.3332
  999MOL0     C37774   4.830   9.983   6.456  0.1198 -0.3264  0.0862
  999MOL0     N37775   4.338   9.707   6.573 -0.3790  0.6322 -0.6184
  999MOL0     N37776   4.228   9.693   6.511  1.1314  0.1634 -0.0111
  999MOL0     C37777   3.286   9.202   7.203  0.1220 -0.2828  0.2648
  999MOL0     C37778   3.237   9.143   7.315  0.0434 -1.5303 -0.4909
  999MOL0     C37779   3.129   8.788   7.592  0.1252 -0.7029 -0.7927
  999MOL0     C37780   3.235   8.785   7.687 -0.4358 -0.0031  0.1131
  999MOL0     C37781   3.223   8.767   7.816  0.7033  0.5165 -0.5711
  999MOL0     C37782   3.098   8.730   7.876  0.1977  0.0983  0.4066
  999MOL0     O37783   3.105   8.726   8.011 -0.0108  0.1234 -0.3637
  999MOL0     C37784   2.992   8.685   8.101  0.2018  0.0337  0.2225
  999MOL0     C37785   3.059   8.664   8.239 -0.0889 -0.0744  0.4858
  999MOL0     C37786   3.161   8.554   8.252  0.5528  0.4376  0.4689
  999MOL0     C37787   3.242   8.572   8.380 -0.0601  0.1138  0.8213
  999MOL0     C37788   3.379   8.524   8.353 -0.0151 -0.0147  0.6393
  999MOL0     C37789   3.491   8.467   8.344 -0.3092 -0.6040  0.0949
  999MOL0     C37790   2.991   8.706   7.783  0.5661  0.2704 -0.5438
  999MOL0     C37791   2.999   8.747   7.649 -0.0559 -0.1387  0.5862
  999MOL0     C37792   2.879   8.730   7.560  0.5207 -0.3949 -0.4611
  999MOL0     H37793   3.403   8.850   7.312  1.4802  1.6266  1.0444
  999MOL0     H37794   3.531   8.982   7.137  2.1078  3.2791  1.8390
  999MOL0     H37795   3.268   9.298   6.959  0.4277 -0.3972  1.9159
  999MOL0     H37796   3.319   9.145   6.879  2.1703  0.7606 -2.3428
  999MOL0     H37797   3.371   9.301   6.720  1.0513 -1.6059 -0.4094
  999MOL0     H37798   3.410   9.429   6.847  1.1929 -1.3089  4.6131
  999MOL0     H37799   3.626   9.332   6.891  3.6429 -1.8937 -1.0452
  999MOL0     H37800   3.591   9.183   6.810  2.3299 -0.1737  2.2565
  999MOL0     H37801   3.582   9.325   6.589 -1.9537 -0.9738  1.6268
  999MOL0     H37802   3.604   9.462   6.690  0.7126 -0.3900  0.2749
  999MOL0     H37803   3.826   9.254   6.658 -1.0150 -1.2734  2.1083
  999MOL0     H37804   3.827   9.402   6.756  1.1119  0.4516 -1.3916
  999MOL0     H37805   3.806   9.388   6.459 -3.4627  2.3328  1.1050
  999MOL0     H37806   3.813   9.536   6.530 -0.7558 -0.0499 -0.4912
  999MOL0     H37807   4.038   9.339   6.598 -5.0868 -2.3460  2.2563
  999MOL0     H37808   4.022   9.500   6.654  2.0389 -0.5521 -0.4080
  999MOL0     H37809   4.103   9.438   6.368 -1.1409 -2.4983  1.2450
  999MOL0     H37810   3.996   9.583   6.407 -0.7191  0.9811  0.6245
  999MOL0     H37811   4.293   9.375   6.535 -0.6210 -0.5974  1.4588
  999MOL0     H37812   4.475   9.417   6.689  0.9221 -0.2591  1.4714
  999MOL0     H37813   4.450   9.551   6.794  1.3412  4.3392 -0.2012
  999MOL0     H37814   4.702   9.506   6.718  1.1027 -2.2111 -2.8956
  999MOL0     H37815   4.660   9.536   6.551 -0.2736 -2.0305  0.4688
  999MOL0     H37816   4.583   9.761   6.619  1.2486 -2.3891 -2.8943
  999MOL0     H37817   4.642   9.733   6.787  1.5868 -0.7840  1.1569
  999MOL0     H37818   4.870   9.712   6.694  0.4614 -0.9851 -0.2476
  999MOL0     H37819   4.801   9.748   6.536 -0.4205  3.7992 -0.2126
  999MOL0     H37820   5.035  10.009   6.722  0.4595  1.4787 -0.5483
  999MOL0     H37821   5.227  10.126   6.676  0.0445 -0.3429 -0.7947
  999MOL0     H37822   5.234  10.224   6.521 -2.8940  0.0278 -0.5059
  999MOL0     H37823   5.305  10.066   6.530  1.6023  0.6834 -0.0710
  999MOL0     H37824   5.270  10.155   6.050 -0.2711  0.1595  0.1623
  999MOL0     H37825   5.348  10.262   5.843 -0.3816 -2.9068  0.7551
  999MOL0     H37826   5.161  10.319   5.583  2.7207 -0.3656  1.6325
  999MOL0     H37827   5.063  10.471   5.594 -0.5068 -1.6115 -0.6979
  999MOL0     H37828   5.339  10.442   5.492  0.0491  0.5194 -0.0551
  999MOL0     H37829   5.171  10.439   5.408 -1.1817  0.8325  1.0760
  999MOL0     H37830   5.319  10.665   5.550  1.6378 -2.6882  0.2280
  999MOL0     H37831   5.159  10.691   5.472 -0.3362 -0.6333  2.1048
  999MOL0     H37832   5.252  10.656   5.248 -0.4921  0.7617 -0.3688
  999MOL0     H37833   5.402  10.604   5.319  0.7357  1.7814 -3.1519
  999MOL0     H37834   5.272  10.882   5.320  0.0341  1.6926 -0.7786
  999MOL0     H37835   5.376  10.840   5.448  1.2620 -3.1460  0.3894
  999MOL0     H37836   5.439  10.876   5.145  1.8359 -1.0113 -0.2227
  999MOL0     H37837   5.549  10.780   5.242  0.0158 -1.1764  2.1655
  999MOL0     H37838   5.605  10.978   5.369  2.2733  0.3591 -0.9881
  999MOL0     H37839   5.480  11.083   5.299  2.4711  2.7256 -0.0489
  999MOL0     H37840   5.689  10.942   5.140 -1.8955 -1.4676  1.9504
  999MOL0     H37841   5.697  11.125   5.196 -1.5631  0.3957  3.0234
  999MOL0     H37842   5.002  10.510   5.838  1.3932 -0.1282 -1.0860
  999MOL0     H37843   4.924  10.385   6.043  0.5175 -0.6454  2.7046
  999MOL0     H37844   4.854  10.064   6.267  1.1395 -0.2300  0.0966
  999MOL0     H37845   4.738   9.937   6.421  0.9101 -1.8086 -0.1584
  999MOL0     H37846   3.243   9.290   7.154  2.2368  1.3609  1.1859
  999MOL0     H37847   3.151   9.191   7.361  0.0734 -0.5150 -1.4447
  999MOL0     H37848   3.332   8.814   7.648  0.3593 -0.6120  1.5759
  999MOL0     H37849   3.311   8.777   7.879  2.1676  1.5871 -2.6862
  999MOL0     H37850   2.910   8.758   8.101 -2.2257 -2.5352 -0.7159
  999MOL0     H37851   2.952   8.588   8.071  0.6579 -0.3162  0.7340
  999MOL0     H37852   2.978   8.634   8.306  0.5408 -1.3952  0.6958
  999MOL0     H37853   3.100   8.762   8.266 -0.7337 -0.2482  2.2135
  999MOL0     H37854   3.117   8.455   8.262  1.8055 -0.0084  1.9034
  999MOL0     H37855   3.219   8.548   8.159 -1.6760 -3.5699 -0.8819
  999MOL0     H37856   3.203   8.522   8.469  2.2143 -0.8500  1.3403
  999MOL0     H37857   3.262   8.677   8.402 -0.7608  0.1418  1.3747
  999MOL0     H37858   3.579   8.416   8.312 -0.2423 -1.2702  1.2860
  999MOL0     H37859   2.897   8.661   7.815  0.0983  2.0432  0.7422
  999MOL0     H37860   2.837   8.828   7.536 -0.0007 -0.0214  1.7819
  999MOL0     H37861   2.910   8.671   7.473  5.0678 -0.1689  0.7512
  999MOL0     H37862   2.806   8.672   7.618  1.0212 -0.7994 -0.2290
 1000MOL0     O37863   8.879  10.896   1.605 -0.4103  0.1830  0.0977
 1000MOL0     C37864   8.871  10.794   1.538 -0.1211  0.3606 -0.0944
 1000MOL0     O37865   8.910  10.784   1.410 -0.2115  0.0798 -0.2032
 1000MOL0     C37866   8.962  10.899   1.354 -0.5827  0.5103  0.0493
 1000MOL0     C37867   9.102  10.931   1.365  0.2856  0.2469  0.5826
 1000MOL0     C37868   9.157  11.047   1.301  0.0264  0.6407  0.5112
 1000MOL0     C37869   9.074  11.138   1.233 -0.7639 -0.6706 -0.5609
 1000MOL0     O37870   9.121  11.270   1.199  1.2833 -0.1477 -0.3125
 1000MOL0     C37871   9.255  11.304   1.227 -0.6952 -0.5163 -0.5359
 1000MOL0     C37872   9.267  11.454   1.194 -0.5400  0.5975  0.0638
 1000MOL0     C37873   9.148  11.545   1.228 -0.0538 -0.0516  0.2529
 1000MOL0     C37874   9.175  11.691   1.169  0.7104  0.9182  0.4082
 1000MOL0     C37875   9.099  11.718   1.037 -0.0029 -0.3310 -0.5658
 1000MOL0     C37876   9.157  11.837   0.958  0.8670 -0.0877  0.1091
 1000MOL0     C37877   9.175  11.799   0.810 -0.5840  0.3965  0.9317
 1000MOL0     C37878   9.208  11.916   0.719 -1.0434  0.1217 -1.7202
 1000MOL0     N37879   9.263  11.869   0.590  0.1497 -0.9849  0.3224
 1000MOL0     C37880   9.398  11.829   0.576  0.2207 -0.5023 -0.0813
 1000MOL0     C37881   9.420  11.853   0.446 -0.3368 -0.6688 -0.4941
 1000MOL0     C37882   9.552  11.821   0.380 -0.6023 -0.2197 -0.0909
 1000MOL0     C37883   9.646  11.947   0.364 -0.7736  0.7770 -0.4379
 1000MOL0     C37884   9.675  12.018   0.502 -0.0857 -0.1411 -0.5122
 1000MOL0     C37885   9.804  12.098   0.481 -0.7038  0.2621  0.6917
 1000MOL0     O37886   9.761  12.202   0.391  0.3818  0.0121  0.7467
 1000MOL0     C37887   9.847  12.287   0.325  0.2360 -0.7340 -0.2564
 1000MOL0     C37888   9.982  12.297   0.348 -0.5098 -0.5200  0.1927
 1000MOL0     C37889  10.055  12.401   0.287  0.2287 -0.3425  0.4273
 1000MOL0     C37890  10.202  12.393   0.314  0.2574  0.0930  0.2557
 1000MOL0     C37891   9.996  12.492   0.201  0.2565 -0.0814  0.7862
 1000MOL0     C37892  10.069  12.592   0.121 -0.4918  0.2184  0.2646
 1000MOL0     O37893  10.000  12.653   0.023 -0.3169 -0.2304  0.3125
 1000MOL0     C37894  10.046  12.770  -0.038  0.7623 -0.2103  0.3438
 1000MOL0     C37895  10.126  12.874   0.017  0.4171  0.5351  0.3792
 1000MOL0     C37896  10.161  12.994  -0.059  0.4798  0.3643  1.1840
 1000MOL0     C37897  10.098  13.011  -0.181  0.8046  0.0347  0.6847
 1000MOL0     O37898  10.102  13.132  -0.239  0.1887  0.2301  0.8674
 1000MOL0     C37899  10.192  13.146  -0.352 -1.2249  0.1816 -0.7661
 1000MOL0     C37900  10.172  13.282  -0.421  0.4441 -1.0182  0.3339
 1000MOL0     C37901  10.181  13.403  -0.325  0.7529  0.0819 -0.1479
 1000MOL0     C37902  10.326  13.408  -0.264 -0.2720 -0.8716 -0.5120
 1000MOL0     C37903  10.374  13.548  -0.208  0.6998  0.8465  0.5297
 1000MOL0     C37904  10.289  13.609  -0.099  0.3096 -0.4277 -0.4036
 1000MOL0     C37905  10.247  13.512   0.012  0.5634  0.2223 -0.1754
 1000MOL0     C37906  10.174  13.592   0.115 -0.8669 -0.1431 -0.8269
 1000MOL0    Cl37907  10.280  13.685   0.216  0.0256 -0.1858 -0.1017
 1000MOL0     C37908  10.014  12.917  -0.229 -0.3668 -0.4779 -0.1540
 1000MOL0     C37909   9.995  12.799  -0.162 -0.3161  0.6475 -0.4449
 1000MOL0     O37910  10.176  12.626   0.163  0.1849 -0.2523  0.6704
 1000MOL0     C37911   9.856  12.471   0.171  0.4231  0.4788  0.3342
 1000MOL0     C37912   9.787  12.373   0.235 -0.9230  0.2062  0.5103
 1000MOL0     N37913   9.309  11.899   0.382  0.6305 -0.2364  0.5892
 1000MOL0     N37914   9.218  11.909   0.475  0.2222 -0.3277 -0.9033
 1000MOL0     C37915   8.949  11.094   1.200  0.7459 -0.2507 -1.2253
 1000MOL0     C37916   8.891  10.978   1.263  0.1579  0.6654 -0.0337
 1000MOL0     C37917   8.799  10.676   1.601 -0.3210  0.1245 -0.2684
 1000MOL0     C37918   8.712  10.711   1.713  0.2424  0.5516  1.1327
 1000MOL0     C37919   8.642  10.612   1.775  0.4249 -0.2435 -0.1345
 1000MOL0     C37920   8.656  10.476   1.741 -0.0613 -0.7291 -0.9104
 1000MOL0     O37921   8.580  10.384   1.809  0.0332  0.1671 -0.5319
 1000MOL0     C37922   8.457  10.408   1.876  0.8249  0.9903 -0.1628
 1000MOL0     C37923   8.362  10.436   1.751  0.5783 -0.5450 -0.3889
 1000MOL0     C37924   8.209  10.420   1.795 -0.3133 -0.5859 -0.6266
 1000MOL0     C37925   8.161  10.545   1.873 -0.3406 -0.4944 -0.5972
 1000MOL0     C37926   8.026  10.513   1.919 -0.8439 -0.0937  0.9244
 1000MOL0     C37927   7.920  10.464   1.934  0.3079 -0.0273  0.4079
 1000MOL0     C37928   8.750  10.441   1.639 -0.3285  0.3396  0.3729
 1000MOL0     C37929   8.824  10.538   1.567 -0.3427  0.9147 -0.5007
 1000MOL0     C37930   8.918  10.474   1.468  0.7515 -0.1471 -0.9435
 1000MOL0     H37931   9.160  10.875   1.438  1.6837 -1.1415 -1.5068
 1000MOL0     H37932   9.262  11.068   1.318  0.4132  0.5781 -1.5426
 1000MOL0     H37933   9.320  11.248   1.160 -0.9917  1.1916 -2.3559
 1000MOL0     H37934   9.281  11.301   1.333 -0.6262  0.4777 -0.5079
 1000MOL0     H37935   9.365  11.491   1.228 -0.1352  1.4850 -1.9266
 1000MOL0     H37936   9.282  11.455   1.086 -1.9054  2.1788 -0.1418
 1000MOL0     H37937   9.058  11.495   1.190  1.8843 -2.4189 -1.6011
 1000MOL0     H37938   9.152  11.548   1.337 -0.3738  0.3444  0.2539
 1000MOL0     H37939   9.148  11.765   1.245  2.0009 -0.3272  2.1353
 1000MOL0     H37940   9.281  11.702   1.148  0.2557  2.7960 -1.1919
 1000MOL0     H37941   8.991  11.732   1.045  0.1546  0.5124  0.3691
 1000MOL0     H37942   9.106  11.634   0.968 -2.9874  1.6135 -3.5277
 1000MOL0     H37943   9.079  11.914   0.968  0.4325 -0.7055  1.7863
 1000MOL0     H37944   9.257  11.862   0.993  1.0490 -3.3738  2.3323
 1000MOL0     H37945   9.083  11.748   0.778 -2.1820  2.5535  1.7866
 1000MOL0     H37946   9.250  11.721   0.797  1.8022  2.2859  2.5762
 1000MOL0     H37947   9.120  11.980   0.704 -1.1357  0.9543  1.5694
 1000MOL0     H37948   9.276  11.985   0.768 -1.2229  0.9735 -2.6303
 1000MOL0     H37949   9.467  11.802   0.655 -2.4047 -0.7976  2.2659
 1000MOL0     H37950   9.549  11.789   0.275 -0.9450  0.4265 -0.2764
 1000MOL0     H37951   9.597  11.741   0.441 -0.4630  0.0173  0.1194
 1000MOL0     H37952   9.741  11.920   0.316 -0.7334  0.1363 -0.0018
 1000MOL0     H37953   9.596  12.022   0.302 -1.7725  0.6075  0.1414
 1000MOL0     H37954   9.594  12.084   0.536 -1.1277 -1.6387  0.0041
 1000MOL0     H37955   9.687  11.934   0.570 -1.2452 -0.3361 -0.5252
 1000MOL0     H37956   9.851  12.140   0.571 -1.1409  0.6760  0.7275
 1000MOL0     H37957   9.881  12.039   0.430  0.7403  1.1065  1.8114
 1000MOL0     H37958  10.026  12.236   0.426  0.0897  0.4576  0.6458
 1000MOL0     H37959  10.229  12.485   0.366  2.8173 -0.8995  0.8176
 1000MOL0     H37960  10.260  12.386   0.222  2.5908 -0.2670  1.6779
 1000MOL0     H37961  10.226  12.308   0.378  0.4220  0.8631  1.2431
 1000MOL0     H37962  10.167  12.868   0.117 -0.7417  2.4058  1.0088
 1000MOL0     H37963  10.233  13.065  -0.019 -0.1543  1.0963  1.0593
 1000MOL0     H37964  10.289  13.131  -0.305 -1.6398 -0.8717 -0.1883
 1000MOL0     H37965  10.168  13.074  -0.431 -1.2498  1.5509 -2.0342
 1000MOL0     H37966  10.253  13.293  -0.493  0.4974 -2.9815  0.0499
 1000MOL0     H37967  10.074  13.282  -0.471  0.0080  1.3988  1.0586
 1000MOL0     H37968  10.112  13.395  -0.240  0.4766 -0.0910 -0.3870
 1000MOL0     H37969  10.165  13.489  -0.391  0.7461 -1.0762 -1.7106
 1000MOL0     H37970  10.396  13.390  -0.346  2.0531  0.5523  1.0338
 1000MOL0     H37971  10.337  13.337  -0.182 -0.4584  2.2716  2.4349
 1000MOL0     H37972  10.477  13.540  -0.171  1.5710  0.5465 -1.8175
 1000MOL0     H37973  10.386  13.611  -0.296  2.4712 -1.8066 -1.2618
 1000MOL0     H37974  10.198  13.637  -0.153  0.9732  0.0666 -1.3131
 1000MOL0     H37975  10.329  13.701  -0.054  0.5745 -0.7946  0.1174
 1000MOL0     H37976  10.335  13.466   0.058  0.1907  1.4919  1.9089
 1000MOL0     H37977  10.181  13.446  -0.045  1.4708 -0.5954 -0.3157
 1000MOL0     H37978  10.129  13.516   0.180 -1.7440  1.1344  0.1190
 1000MOL0     H37979  10.091  13.648   0.071 -0.6923  0.4383 -0.4258
 1000MOL0     H37980   9.964  12.934  -0.323 -0.7311  2.0967  0.4405
 1000MOL0     H37981   9.925  12.724  -0.197  1.0065 -0.7835 -0.1343
 1000MOL0     H37982   9.804  12.523   0.090  0.5971  0.7938  0.4213
 1000MOL0     H37983   9.684  12.355   0.204 -0.7692  0.8612 -0.4198
 1000MOL0     H37984   8.893  11.161   1.135 -3.7243 -2.1096  0.3254
 1000MOL0     H37985   8.790  10.950   1.238  0.0082 -0.7110  1.8482
 1000MOL0     H37986   8.697  10.817   1.734 -1.0032  0.7410 -0.5052
 1000MOL0     H37987   8.574  10.639   1.856 -0.0077 -0.2601 -0.4847
 1000MOL0     H37988   8.437  10.322   1.941 -1.1446 -0.1668 -2.1697
 1000MOL0     H37989   8.448  10.496   1.941  1.5902 -0.1876  1.6483
 1000MOL0     H37990   8.384  10.354   1.681 -2.7085 -1.7689 -0.1340
 1000MOL0     H37991   8.387  10.534   1.709 -2.2736  0.1507 -0.6137
 1000MOL0     H37992   8.160  10.415   1.698  0.4373 -0.0329 -1.0478
 1000MOL0     H37993   8.188  10.328   1.850 -0.8428 -1.3864 -2.1005
 1000MOL0     H37994   8.161  10.630   1.805  2.3395 -1.1070 -1.4588
 1000MOL0     H37995   8.225  10.575   1.957 -0.6738 -3.7802  1.0239
 1000MOL0     H37996   7.826  10.416   1.950  1.7599 -2.8255  1.0563
 1000MOL0     H37997   8.765  10.335   1.623  3.1352  0.6296  1.0166
 1000MOL0     H37998   8.943  10.369   1.485 -0.6979 -0.6128 -1.5049
 1000MOL0     H37999   8.862  10.462   1.375 -1.4256 -3.1040  0.5760
 1000MOL0     H38000   9.014  10.526   1.466  0.4005  0.5835  0.1412
 1001MOL0     O38001   0.897  10.290  11.119  0.6363  0.1714 -0.1653
 1001MOL0     C38002   0.872  10.291  11.239  0.2436 -0.3015  0.3744
 1001MOL0     O38003   0.832  10.409  11.312 -0.4027  0.7984 -0.5384
 1001MOL0     C38004   0.804  10.512  11.223 -0.2265  0.3431  0.1307
 1001MOL0     C38005   0.907  10.602  11.171  0.0184 -0.2225 -0.6163
 1001MOL0     C38006   0.865  10.714  11.102 -0.6758  0.3234  0.2675
 1001MOL0     C38007   0.738  10.726  11.060  0.2579 -0.2491 -0.2341
 1001MOL0     O38008   0.686  10.820  10.974  0.2565  0.0353  0.9202
 1001MOL0     C38009   0.751  10.940  10.937  0.1215  0.4646  0.6877
 1001MOL0     C38010   0.653  11.020  10.857  0.1283  0.3461 -0.0266
 1001MOL0     C38011   0.657  10.993  10.707 -0.0052  0.0373 -0.5374
 1001MOL0     C38012   0.605  10.847  10.677  0.6420 -0.5140 -0.1127
 1001MOL0     C38013   0.600  10.814  10.524 -1.0234 -0.7737 -1.1360
 1001MOL0     C38014   0.741  10.809  10.479 -0.3836  0.5776 -0.6572
 1001MOL0     C38015   0.746  10.785  10.325 -0.1338  0.4128  1.3872
 1001MOL0     C38016   0.878  10.747  10.265  0.1505 -0.1190 -0.9058
 1001MOL0     N38017   0.876  10.732  10.120 -0.1880 -0.4438 -1.0113
 1001MOL0     C38018   0.782  10.667  10.040 -0.8769  0.3339  0.2433
 1001MOL0     C38019   0.833  10.684   9.911  0.8554 -0.2484 -1.0662
 1001MOL0     C38020   0.781  10.617   9.792 -1.0187 -0.1989  0.4429
 1001MOL0     C38021   0.756  10.703   9.664 -0.1810 -0.2188  0.2065
 1001MOL0     C38022   0.872  10.713   9.566 -0.1155 -0.2618  0.2424
 1001MOL0     C38023   0.848  10.772   9.427 -1.0989 -0.8090  0.6555
 1001MOL0     O38024   0.973  10.802   9.348  0.3217  0.5495 -0.4843
 1001MOL0     C38025   1.066  10.708   9.347  0.4074  0.2570 -0.2380
 1001MOL0     C38026   1.187  10.751   9.300 -0.9662 -0.9376  0.4338
 1001MOL0     C38027   1.292  10.671   9.270 -0.2528  0.1194  0.6218
 1001MOL0     C38028   1.423  10.737   9.220  0.0140  0.0075  0.3721
 1001MOL0     C38029   1.266  10.527   9.268 -0.1524  0.6403 -0.8388
 1001MOL0     C38030   1.368  10.429   9.230  0.9530  0.5457  0.1705
 1001MOL0     O38031   1.325  10.301   9.182  0.1977 -0.1170 -0.2295
 1001MOL0     C38032   1.421  10.202   9.154 -0.5408 -0.3172 -0.1771
 1001MOL0     C38033   1.379  10.081   9.196  0.4716  0.4541 -0.5154
 1001MOL0     C38034   1.459   9.973   9.165  0.2580  0.6144 -0.1986
 1001MOL0     C38035   1.576   9.985   9.086 -0.4861  0.0594  0.3363
 1001MOL0     O38036   1.663   9.884   9.051  0.8638  0.0667 -0.2161
 1001MOL0     C38037   1.627   9.748   9.086 -0.1719  0.2965  0.1635
 1001MOL0     C38038   1.740   9.656   9.046 -0.4359  1.1810  0.7051
 1001MOL0     C38039   1.882   9.681   9.103 -0.3924 -0.1385 -0.3796
 1001MOL0     C38040   1.992   9.618   9.022 -0.2732 -0.3033  0.1196
 1001MOL0     C38041   2.137   9.624   9.091  0.4025  0.2157 -0.3939
 1001MOL0     C38042   2.193   9.763   9.073 -0.2576 -0.3890  1.1729
 1001MOL0     C38043   2.335   9.777   9.138  0.1737  0.5181  0.0561
 1001MOL0     C38044   2.385   9.926   9.118 -0.1764  0.6918 -0.2567
 1001MOL0    Cl38045   2.427   9.963   8.943 -0.1234  0.2291  0.1550
 1001MOL0     C38046   1.612  10.115   9.052  0.5810 -0.7949  0.6292
 1001MOL0     C38047   1.534  10.223   9.069  0.0861 -0.4126  0.1099
 1001MOL0     O38048   1.484  10.463   9.246 -1.0615 -0.4405 -0.4878
 1001MOL0     C38049   1.147  10.477   9.316  0.3074 -0.4015  0.5106
 1001MOL0     C38050   1.044  10.565   9.345 -0.6896 -0.2099  0.7150
 1001MOL0     N38051   0.956  10.747   9.916  0.5095  0.0577 -0.9067
 1001MOL0     N38052   0.973  10.777  10.042  0.0503 -0.5456  1.1009
 1001MOL0     C38053   0.641  10.641  11.110  0.4884 -0.6939  0.7881
 1001MOL0     C38054   0.677  10.535  11.194  0.5462  0.9393 -0.1634
 1001MOL0     C38055   0.881  10.166  11.316  0.9826  0.4562  0.8540
 1001MOL0     C38056   0.845  10.174  11.446 -0.5966 -1.0222 -0.9135
 1001MOL0     C38057   0.851  10.061  11.527  0.1923  0.2385 -0.4042
 1001MOL0     C38058   0.879   9.935  11.474  0.2466 -0.0407 -0.4045
 1001MOL0     O38059   0.893   9.814  11.548  0.8856  0.9282  0.5818
 1001MOL0     C38060   0.849   9.814  11.681 -0.1824  0.1566 -0.2679
 1001MOL0     C38061   0.861   9.685  11.765 -1.0148 -0.6727  0.1329
 1001MOL0     C38062   0.758   9.585  11.699  0.4667  0.9621 -0.2954
 1001MOL0     C38063   0.834   9.502  11.590 -0.0499 -1.0677  0.8060
 1001MOL0     C38064   0.756   9.387  11.538 -0.5141 -0.1707  0.5969
 1001MOL0     C38065   0.679   9.302  11.513  1.0705 -0.9295  0.6733
 1001MOL0     C38066   0.912   9.922  11.342  0.3271 -0.6648 -0.9916
 1001MOL0     C38067   0.904  10.037  11.259  0.1812 -0.3228 -0.6720
 1001MOL0     C38068   0.934  10.012  11.115 -0.1237 -0.1876  0.0712
 1001MOL0     H38069   1.007  10.594  11.211  0.6481  0.5444 -1.9769
 1001MOL0     H38070   0.932  10.790  11.062 -1.6245  1.8979  1.5459
 1001MOL0     H38071   0.847  10.933  10.884 -0.4799 -1.6009 -0.2452
 1001MOL0     H38072   0.774  10.995  11.029 -2.5674 -0.9451  2.3206
 1001MOL0     H38073   0.552  10.992  10.890  0.2921 -1.7253 -1.1337
 1001MOL0     H38074   0.673  11.126  10.875 -0.7131  0.0561  3.1027
 1001MOL0     H38075   0.590  11.058  10.650  0.1199  1.3247  0.7561
 1001MOL0     H38076   0.758  11.015  10.671 -0.7574 -0.8133 -3.4582
 1001MOL0     H38077   0.668  10.765  10.715  1.4004 -0.5040 -1.2856
 1001MOL0     H38078   0.501  10.839  10.708 -0.0410  0.6516 -1.9762
 1001MOL0     H38079   0.544  10.887  10.465  0.0475  0.4942 -0.6276
 1001MOL0     H38080   0.539  10.726  10.502 -1.2245 -0.1576 -3.2339
 1001MOL0     H38081   0.805  10.893  10.506 -3.6829  2.5336  1.9122
 1001MOL0     H38082   0.785  10.723  10.531 -2.3932 -0.1454 -0.0404
 1001MOL0     H38083   0.709  10.872  10.270 -2.4563 -2.0133 -1.2373
 1001MOL0     H38084   0.671  10.711  10.295  1.7414 -1.4670  1.0308
 1001MOL0     H38085   0.946  10.827  10.296 -0.8254  0.2666  0.3137
 1001MOL0     H38086   0.915  10.660  10.320  0.8582  1.3168  1.0023
 1001MOL0     H38087   0.690  10.614  10.063  1.2246 -2.7585  2.0794
 1001MOL0     H38088   0.692  10.556   9.812 -0.5459 -1.0565  0.0241
 1001MOL0     H38089   0.851  10.537   9.765  1.5022  2.5799 -1.9879
 1001MOL0     H38090   0.667  10.664   9.614 -0.7811  1.9647 -0.5667
 1001MOL0     H38091   0.730  10.803   9.701  1.3676  0.3034 -0.0410
 1001MOL0     H38092   0.942  10.775   9.623  2.4795  0.2964 -3.2116
 1001MOL0     H38093   0.919  10.615   9.555 -1.8505 -1.1900  0.6805
 1001MOL0     H38094   0.779  10.698   9.384 -4.9659  1.8243  1.7837
 1001MOL0     H38095   0.794  10.867   9.436  3.5964  2.0644  1.6267
 1001MOL0     H38096   1.198  10.855   9.270 -0.0035 -1.6525 -1.9493
 1001MOL0     H38097   1.402  10.844   9.223 -1.6855 -0.1918 -1.9214
 1001MOL0     H38098   1.445  10.720   9.114  0.0050 -0.9698  0.5218
 1001MOL0     H38099   1.502  10.705   9.289 -1.3680 -0.6531  1.6953
 1001MOL0     H38100   1.287  10.066   9.252  0.3659  1.8046 -0.2918
 1001MOL0     H38101   1.425   9.880   9.208 -1.4471  1.0182 -0.5746
 1001MOL0     H38102   1.624   9.746   9.196 -0.6528  1.3056  0.1784
 1001MOL0     H38103   1.535   9.706   9.045 -1.2767  0.2658  2.5163
 1001MOL0     H38104   1.719   9.552   9.070  0.5892  0.4476 -1.3618
 1001MOL0     H38105   1.753   9.656   8.937 -0.2960  2.9584  0.6931
 1001MOL0     H38106   1.889   9.646   9.207 -2.1919 -0.2489 -0.2648
 1001MOL0     H38107   1.910   9.786   9.104  1.6504 -0.5338 -3.6700
 1001MOL0     H38108   1.991   9.652   8.918 -0.0000  0.2258  0.2859
 1001MOL0     H38109   1.964   9.514   9.004 -0.5913 -0.0327 -1.0184
 1001MOL0     H38110   2.116   9.605   9.197 -1.4643 -0.7216 -0.8835
 1001MOL0     H38111   2.204   9.545   9.054 -0.7087 -1.9539  1.8913
 1001MOL0     H38112   2.123   9.839   9.109  0.6977  0.3888  1.4565
 1001MOL0     H38113   2.210   9.771   8.965  2.9215 -0.3936  1.5740
 1001MOL0     H38114   2.407   9.707   9.095  0.2335  1.6560 -1.8259
 1001MOL0     H38115   2.323   9.739   9.240  1.7848 -1.2876 -0.3767
 1001MOL0     H38116   2.472   9.940   9.184  1.0813 -3.5728 -0.7371
 1001MOL0     H38117   2.300   9.986   9.151  0.5899  1.1657  0.9025
 1001MOL0     H38118   1.704  10.115   8.993  1.0337  1.4911  1.2143
 1001MOL0     H38119   1.549  10.324   9.033  2.2467  0.1738  2.3955
 1001MOL0     H38120   1.128  10.370   9.316  0.6337 -0.4765  1.7752
 1001MOL0     H38121   0.947  10.521   9.365 -0.5335  0.1652  2.4005
 1001MOL0     H38122   0.541  10.628  11.069  0.9764  0.7870 -1.0104
 1001MOL0     H38123   0.603  10.458  11.213  0.5407  0.9903  0.0210
 1001MOL0     H38124   0.833  10.268  11.498  2.9279 -0.6144 -0.5449
 1001MOL0     H38125   0.830  10.071  11.633 -5.3859 -1.8324 -1.0115
 1001MOL0     H38126   0.925   9.874  11.731  0.2040 -0.6942  0.1962
 1001MOL0     H38127   0.746   9.849  11.683  0.8826  3.5620  0.4965
 1001MOL0     H38128   0.841   9.703  11.872  0.1835 -0.0027  0.2533
 1001MOL0     H38129   0.962   9.653  11.740 -1.8678 -0.1954 -4.8782
 1001MOL0     H38130   0.710   9.528  11.779  0.1448  1.8137  0.1357
 1001MOL0     H38131   0.682   9.637  11.640 -0.0121  1.3296  0.6182
 1001MOL0     H38132   0.918   9.448  11.634 -1.4495 -3.4091  0.8037
 1001MOL0     H38133   0.876   9.562  11.509 -1.3787  0.7023  1.3592
 1001MOL0     H38134   0.600   9.232  11.492  2.5053 -3.0907  2.1429
 1001MOL0     H38135   0.938   9.822  11.308  1.0644 -0.2963 -1.5153
 1001MOL0     H38136   0.919   9.904  11.106  1.5688 -0.2981 -2.1112
 1001MOL0     H38137   0.887  10.070  11.035  1.2683  0.8225 -0.0704
 1001MOL0     H38138   1.040  10.033  11.096 -0.0365 -2.5433 -2.5854
 1002MOL0     O38139   2.348   8.454   9.899  0.7303 -0.4240  0.3691
 1002MOL0     C38140   2.430   8.400   9.817  0.8397 -0.5159 -1.3722
 1002MOL0     O38141   2.509   8.295   9.849 -0.2325  0.3281 -0.1861
 1002MOL0     C38142   2.503   8.247   9.977  0.2278  0.4571  0.3842
 1002MOL0     C38143   2.624   8.212  10.041  1.3695 -0.0455  0.5911
 1002MOL0     C38144   2.628   8.148  10.165  0.5914 -0.3518 -0.3315
 1002MOL0     C38145   2.501   8.109  10.218 -0.3259  0.3184  1.0260
 1002MOL0     O38146   2.485   8.036  10.331 -0.9646 -0.0164 -0.2261
 1002MOL0     C38147   2.590   8.001  10.420  0.2456 -0.4998  0.3968
 1002MOL0     C38148   2.558   7.857  10.466 -0.0478 -0.8486 -0.0559
 1002MOL0     C38149   2.675   7.778  10.535 -0.0175  0.0803 -0.6383
 1002MOL0     C38150   2.729   7.861  10.663  0.4935 -0.2387  0.1983
 1002MOL0     C38151   2.716   7.782  10.791 -0.1549 -0.4738 -0.2567
 1002MOL0     C38152   2.810   7.848  10.887 -0.2082  0.6614 -0.2708
 1002MOL0     C38153   2.786   8.000  10.918 -0.3157 -0.3287 -0.2352
 1002MOL0     C38154   2.827   8.033  11.066 -0.5622 -0.5298  0.3205
 1002MOL0     N38155   2.845   8.174  11.103  0.4133  0.2113  0.2290
 1002MOL0     C38156   2.820   8.227  11.223  0.1365  0.9457 -0.1623
 1002MOL0     C38157   2.871   8.350  11.220 -0.1157 -0.0268 -0.8965
 1002MOL0     C38158   2.894   8.443  11.335 -0.0412 -0.2995  0.2853
 1002MOL0     C38159   2.804   8.552  11.332 -1.0640  1.3979 -0.1292
 1002MOL0     C38160   2.858   8.666  11.259 -0.7838 -0.4596  0.5157
 1002MOL0     C38161   2.751   8.772  11.291 -0.4184  0.3833 -0.2385
 1002MOL0     O38162   2.803   8.886  11.230  0.5694  0.5828 -0.7648
 1002MOL0     C38163   2.730   9.003  11.234 -0.1940  0.1917  0.3367
 1002MOL0     C38164   2.752   9.091  11.128 -0.6178 -1.0254 -0.1472
 1002MOL0     C38165   2.663   9.194  11.106  0.3972  0.0811  0.8503
 1002MOL0     C38166   2.700   9.292  11.002  0.0803  0.2775 -0.2642
 1002MOL0     C38167   2.544   9.206  11.186 -0.4703  0.1280  0.0251
 1002MOL0     C38168   2.443   9.312  11.169  0.8762  0.3427 -0.9706
 1002MOL0     O38169   2.364   9.327  11.277 -0.5536  0.9710  0.1599
 1002MOL0     C38170   2.274   9.435  11.275 -0.4780 -0.1918  0.0565
 1002MOL0     C38171   2.271   9.522  11.388 -0.2153  0.0076 -0.3731
 1002MOL0     C38172   2.177   9.626  11.393 -0.1929 -0.3330 -0.3503
 1002MOL0     C38173   2.081   9.647  11.292 -0.5467 -0.1621 -0.1454
 1002MOL0     O38174   1.984   9.748  11.317 -0.3649  0.1632  0.1539
 1002MOL0     C38175   1.904   9.785  11.208 -0.8948 -0.0922 -1.4081
 1002MOL0     C38176   1.761   9.765  11.245  1.1188  0.4029  0.4354
 1002MOL0     C38177   1.662   9.855  11.175  0.5849  0.4394 -0.4915
 1002MOL0     C38178   1.513   9.820  11.224 -1.1761  0.1156 -1.0112
 1002MOL0     C38179   1.395   9.898  11.181  1.0023  0.1981  0.0985
 1002MOL0     C38180   1.274   9.870  11.274 -0.3592  0.3326  0.4483
 1002MOL0     C38181   1.225   9.719  11.293 -0.4379  0.1317  0.1704
 1002MOL0     C38182   1.175   9.710  11.438 -0.3261  0.5324  0.1844
 1002MOL0    Cl38183   1.310   9.684  11.555 -0.3625  0.5977 -0.2765
 1002MOL0     C38184   2.096   9.557  11.175 -0.5356 -0.1553 -0.6065
 1002MOL0     C38185   2.181   9.452  11.178  0.0106  0.2071  0.8912
 1002MOL0     O38186   2.435   9.364  11.068  0.4061 -0.4901  0.6151
 1002MOL0     C38187   2.525   9.113  11.298 -0.2360 -0.2221  0.0559
 1002MOL0     C38188   2.621   9.014  11.322 -0.4468  1.0434  1.4595
 1002MOL0     N38189   2.947   8.367  11.110 -0.7412  0.2670 -0.2636
 1002MOL0     N38190   2.919   8.264  11.031  0.1334 -1.1501 -0.3039
 1002MOL0     C38191   2.383   8.148  10.159  0.0690  0.5657 -0.0891
 1002MOL0     C38192   2.387   8.213  10.040  0.2094 -0.4124 -0.2151
 1002MOL0     C38193   2.423   8.441   9.676 -0.7547  0.7867 -0.2769
 1002MOL0     C38194   2.415   8.338   9.582  0.2285  0.2344  0.8614
 1002MOL0     C38195   2.409   8.356   9.442  1.3115 -0.8177 -0.0082
 1002MOL0     C38196   2.394   8.485   9.394  0.1373  0.0072 -0.2892
 1002MOL0     O38197   2.353   8.489   9.262 -0.2660  0.0479 -0.4722
 1002MOL0     C38198   2.376   8.617   9.199  0.2396  0.4904 -0.3582
 1002MOL0     C38199   2.242   8.714   9.212  0.0203  0.1450 -0.1316
 1002MOL0     C38200   2.122   8.652   9.141 -0.2761  0.4628  0.5167
 1002MOL0     C38201   1.988   8.733   9.115 -0.5431  0.2930 -0.2984
 1002MOL0     C38202   1.929   8.815   9.217 -0.2605 -0.7339  0.2332
 1002MOL0     C38203   1.877   8.868   9.317  0.2722 -0.5490 -0.6137
 1002MOL0     C38204   2.416   8.595   9.488  0.0937  0.4847 -0.3486
 1002MOL0     C38205   2.429   8.573   9.623  0.7803 -0.2766  0.5791
 1002MOL0     C38206   2.431   8.700   9.711  0.0344 -0.8434 -0.2324
 1002MOL0     H38207   2.713   8.238   9.985  1.4891 -1.0848  0.2736
 1002MOL0     H38208   2.721   8.126  10.217  0.8327  0.6662 -0.3211
 1002MOL0     H38209   2.610   8.081  10.491  3.7587 -0.3268 -0.5647
 1002MOL0     H38210   2.685   7.993  10.365  2.5092  2.2746  3.5221
 1002MOL0     H38211   2.464   7.856  10.522  0.1217 -0.1963  0.2476
 1002MOL0     H38212   2.543   7.798  10.375  2.5423  2.3101 -2.7744
 1002MOL0     H38213   2.650   7.677  10.571 -0.9168  1.0990  1.8147
 1002MOL0     H38214   2.763   7.785  10.471  0.8429  0.6245  0.5663
 1002MOL0     H38215   2.829   7.890  10.628 -1.3271  2.0893 -3.7305
 1002MOL0     H38216   2.684   7.960  10.664  2.3992  0.7242 -1.2840
 1002MOL0     H38217   2.737   7.675  10.795 -1.9852 -0.9894  5.5341
 1002MOL0     H38218   2.615   7.784  10.834 -0.7138  1.5031 -1.5127
 1002MOL0     H38219   2.804   7.799  10.985  0.2799  0.1113 -0.5095
 1002MOL0     H38220   2.909   7.826  10.847 -0.5873 -0.8844 -0.4134
 1002MOL0     H38221   2.685   8.035  10.898  0.2534  0.9922 -0.9429
 1002MOL0     H38222   2.853   8.052  10.849  1.3286  0.2930  1.6995
 1002MOL0     H38223   2.760   7.993  11.142 -0.9041 -1.8520 -0.6448
 1002MOL0     H38224   2.920   7.978  11.082  1.4926  2.2546 -1.1613
 1002MOL0     H38225   2.779   8.180  11.312  2.9505 -1.5796 -0.0526
 1002MOL0     H38226   2.994   8.486  11.329  0.4425 -1.5815 -1.4656
 1002MOL0     H38227   2.895   8.397  11.434 -0.1118 -0.2253  0.3204
 1002MOL0     H38228   2.703   8.522  11.301 -0.7108 -0.5812  0.5326
 1002MOL0     H38229   2.798   8.590  11.434 -0.3651 -2.6142  1.5923
 1002MOL0     H38230   2.957   8.694  11.296  0.2277 -2.6217 -0.3656
 1002MOL0     H38231   2.861   8.648  11.151 -2.0575  1.3436  0.1300
 1002MOL0     H38232   2.655   8.733  11.258 -0.1301 -0.7507  0.2060
 1002MOL0     H38233   2.752   8.794  11.398  0.5780  1.2050 -0.3912
 1002MOL0     H38234   2.835   9.079  11.058 -1.1892  3.5376 -1.9716
 1002MOL0     H38235   2.626   9.291  10.922 -0.6206  1.5922  0.3279
 1002MOL0     H38236   2.801   9.270  10.965 -0.1448  1.4382 -1.6289
 1002MOL0     H38237   2.705   9.394  11.043  1.8710 -0.6576  2.0656
 1002MOL0     H38238   2.351   9.507  11.460  1.8940 -0.3952 -2.6804
 1002MOL0     H38239   2.173   9.678  11.488  1.6491 -1.8957  0.6588
 1002MOL0     H38240   1.918   9.890  11.181 -1.3542  1.1174  2.3994
 1002MOL0     H38241   1.929   9.738  11.113  0.7268 -0.3219 -0.9026
 1002MOL0     H38242   1.747   9.657  11.235  1.9473  0.1961  1.3707
 1002MOL0     H38243   1.753   9.781  11.353 -0.7609 -1.0143  0.5609
 1002MOL0     H38244   1.666   9.835  11.067  1.6341 -1.8477 -0.0937
 1002MOL0     H38245   1.693   9.957  11.199  1.5019  0.1477 -0.3890
 1002MOL0     H38246   1.528   9.825  11.333  2.4626 -0.9062 -1.3204
 1002MOL0     H38247   1.495   9.715  11.199 -0.6129 -0.1756 -0.2505
 1002MOL0     H38248   1.417  10.005  11.173 -4.3387  1.6086  0.5309
 1002MOL0     H38249   1.363   9.861  11.083 -0.2472 -2.8110  1.5281
 1002MOL0     H38250   1.187   9.930  11.243 -0.6014 -1.7807 -3.7610
 1002MOL0     H38251   1.320   9.910  11.364  3.5318  0.3406 -1.3553
 1002MOL0     H38252   1.312   9.655  11.279 -1.3537 -0.7968 -1.6178
 1002MOL0     H38253   1.149   9.692  11.219  1.3358  0.4423 -1.8400
 1002MOL0     H38254   1.113   9.621  11.449  0.3296  0.3859  3.9818
 1002MOL0     H38255   1.115   9.796  11.468 -1.8121 -1.2484  2.6421
 1002MOL0     H38256   2.033   9.572  11.088  1.7040  2.1495 -1.9686
 1002MOL0     H38257   2.175   9.397  11.085 -1.9867  0.8699  0.5620
 1002MOL0     H38258   2.435   9.115  11.359  0.7283 -1.4329  1.6214
 1002MOL0     H38259   2.602   8.940  11.398 -1.6486 -1.8543 -1.4171
 1002MOL0     H38260   2.294   8.111  10.207  0.0388  0.4519 -0.2314
 1002MOL0     H38261   2.292   8.234   9.991  1.5281  4.3959 -1.2396
 1002MOL0     H38262   2.418   8.233   9.605  3.2042 -0.5138 -2.0526
 1002MOL0     H38263   2.424   8.268   9.379  2.0092  0.4713 -1.7356
 1002MOL0     H38264   2.464   8.668   9.240 -1.0588  1.7523  0.9774
 1002MOL0     H38265   2.391   8.591   9.094  0.9606  2.1935 -0.7092
 1002MOL0     H38266   2.267   8.809   9.163  0.6037 -0.1273 -0.3688
 1002MOL0     H38267   2.220   8.730   9.318 -1.1648 -1.9213 -0.0209
 1002MOL0     H38268   2.154   8.605   9.048 -1.2825 -1.4034  1.0423
 1002MOL0     H38269   2.090   8.566   9.202 -0.2121  1.5913  2.2092
 1002MOL0     H38270   1.915   8.654   9.093  0.7390 -1.5164  1.6552
 1002MOL0     H38271   1.985   8.787   9.020 -1.2307  1.6795  0.4852
 1002MOL0     H38272   1.830   8.891   9.411  2.0963 -1.8717  0.6913
 1002MOL0     H38273   2.415   8.692   9.441 -0.7188 -0.7296 -3.0584
 1002MOL0     H38274   2.537   8.723   9.726 -0.4788  0.7802  1.2881
 1002MOL0     H38275   2.379   8.780   9.658 -0.0672 -1.6025 -1.2986
 1002MOL0     H38276   2.382   8.671   9.804 -1.5435 -2.2829 -1.4506
 1003MOL0     O38277   3.824   1.056   3.609 -0.1951 -0.4104 -0.2175
 1003MOL0     C38278   3.734   1.111   3.549 -0.1112 -0.1455 -0.5498
 1003MOL0     O38279   3.631   1.188   3.605  0.6308  0.5635 -0.8135
 1003MOL0     C38280   3.649   1.219   3.733  0.6813  0.1227 -0.0925
 1003MOL0     C38281   3.559   1.174   3.825 -0.3086  0.3359 -0.5512
 1003MOL0     C38282   3.579   1.207   3.960 -0.2297  0.9097  0.0775
 1003MOL0     C38283   3.682   1.291   3.999 -0.8344 -0.3142  1.1960
 1003MOL0     O38284   3.683   1.313   4.135 -0.7118  0.5715  0.0367
 1003MOL0     C38285   3.806   1.331   4.195 -0.8603  0.3990  0.2168
 1003MOL0     C38286   3.788   1.348   4.350 -0.6090 -0.4357 -0.1963
 1003MOL0     C38287   3.921   1.416   4.419 -1.1033  0.0263  0.6628
 1003MOL0     C38288   3.918   1.416   4.569  0.2385 -0.4136  0.3780
 1003MOL0     C38289   4.058   1.454   4.621 -0.0347 -0.0441  0.3948
 1003MOL0     C38290   4.095   1.404   4.765 -0.5302  0.4786 -0.1873
 1003MOL0     C38291   3.998   1.455   4.870 -0.4399  1.3450 -0.5645
 1003MOL0     C38292   4.027   1.387   5.009  0.0752 -0.1872  0.4456
 1003MOL0     N38293   4.169   1.390   5.039  0.0534 -0.7364  0.2820
 1003MOL0     C38294   4.244   1.495   5.091  0.5367  0.3741  0.1580
 1003MOL0     C38295   4.374   1.461   5.103 -0.8727  0.2354  0.3911
 1003MOL0     C38296   4.511   1.540   5.114 -0.0253  0.0921 -0.6017
 1003MOL0     C38297   4.523   1.617   5.244  0.4826  0.1251 -0.0609
 1003MOL0     C38298   4.398   1.681   5.289 -0.1215 -0.1302 -0.2068
 1003MOL0     C38299   4.420   1.801   5.389  0.5819  0.6031 -0.2654
 1003MOL0     O38300   4.489   1.903   5.322  0.2735  0.9795 -0.2125
 1003MOL0     C38301   4.585   1.985   5.387 -0.0542  0.1347  0.5192
 1003MOL0     C38302   4.689   1.917   5.451  0.5211  0.3273  0.0116
 1003MOL0     C38303   4.799   1.983   5.518 -0.7871 -0.4418 -0.0752
 1003MOL0     C38304   4.914   1.897   5.566 -0.3452  0.3740 -0.1054
 1003MOL0     C38305   4.805   2.130   5.525 -0.8675 -0.1614  0.4900
 1003MOL0     C38306   4.917   2.209   5.591  0.1411  0.0252  0.3232
 1003MOL0     O38307   4.986   2.148   5.690  0.0265 -0.4826 -0.2036
 1003MOL0     C38308   5.047   2.227   5.791 -0.0127  0.4079 -0.1574
 1003MOL0     C38309   4.973   2.267   5.906 -0.2796 -0.5889 -0.3165
 1003MOL0     C38310   5.029   2.338   6.008  0.5297  0.2873  0.0820
 1003MOL0     C38311   5.174   2.358   6.002  0.9432  0.2674 -0.0424
 1003MOL0     O38312   5.238   2.434   6.100 -0.5230 -0.3043 -0.5629
 1003MOL0     C38313   5.176   2.459   6.234 -0.3051  0.2876  0.2928
 1003MOL0     C38314   5.164   2.333   6.312  0.6038  0.4882  0.0548
 1003MOL0     C38315   5.299   2.252   6.314  0.5725 -0.6900 -1.3369
 1003MOL0     C38316   5.279   2.102   6.287  0.2493 -0.0422 -0.1925
 1003MOL0     C38317   5.389   2.027   6.218  0.5791  0.2354  0.6664
 1003MOL0     C38318   5.529   2.039   6.272 -0.4143 -0.2040 -0.3541
 1003MOL0     C38319   5.628   1.964   6.177 -0.1879 -0.3278 -0.0151
 1003MOL0     C38320   5.681   2.056   6.068  0.1296  0.2338 -0.2198
 1003MOL0    Cl38321   5.789   1.962   5.959 -0.6067 -0.2299  0.0392
 1003MOL0     C38322   5.256   2.301   5.904 -0.5654  0.8829  0.7339
 1003MOL0     C38323   5.189   2.242   5.799  0.3933 -0.5571 -0.1232
 1003MOL0     O38324   4.931   2.324   5.565 -0.3820 -0.3767  0.1018
 1003MOL0     C38325   4.695   2.191   5.464 -0.6317 -0.8962  0.0977
 1003MOL0     C38326   4.597   2.128   5.382  0.3474 -0.1528  0.2331
 1003MOL0     N38327   4.373   1.318   5.071 -0.2901 -0.2002 -0.5575
 1003MOL0     N38328   4.256   1.281   5.038 -0.1936 -0.4426 -0.2015
 1003MOL0     C38329   3.771   1.336   3.900 -0.4269 -0.2106  0.6343
 1003MOL0     C38330   3.762   1.298   3.767  0.0735  0.6030  0.7642
 1003MOL0     C38331   3.726   1.090   3.402  0.0790  0.4684 -0.0937
 1003MOL0     C38332   3.686   1.194   3.326 -0.8735  0.1558 -0.4094
 1003MOL0     C38333   3.681   1.204   3.187 -0.5332 -1.4503  0.5908
 1003MOL0     C38334   3.721   1.089   3.117 -0.4308  0.4206  0.2501
 1003MOL0     O38335   3.713   1.086   2.981 -0.5538  0.2203 -0.1396
 1003MOL0     C38336   3.584   1.084   2.917  0.8294 -0.2454 -0.3968
 1003MOL0     C38337   3.588   1.125   2.764 -0.0276  0.6829 -0.3831
 1003MOL0     C38338   3.707   1.207   2.715 -0.9649  0.0053 -0.7331
 1003MOL0     C38339   3.670   1.316   2.604  0.3033 -0.3870  0.1554
 1003MOL0     C38340   3.664   1.251   2.474 -0.8339  0.4822 -0.1315
 1003MOL0     C38341   3.655   1.182   2.377 -0.6139 -0.1406 -1.0381
 1003MOL0     C38342   3.776   0.978   3.187  0.3669 -1.3502 -0.3603
 1003MOL0     C38343   3.774   0.976   3.329  0.4018 -0.0853 -0.2179
 1003MOL0     C38344   3.817   0.850   3.405  0.5351 -0.2791 -0.7371
 1003MOL0     H38345   3.467   1.125   3.793 -0.3278  0.6762 -1.0198
 1003MOL0     H38346   3.499   1.183   4.030 -1.4190 -1.8833 -2.0809
 1003MOL0     H38347   3.856   1.422   4.160  0.2184  0.5697  2.0305
 1003MOL0     H38348   3.868   1.245   4.169 -3.7097 -0.5439 -4.5342
 1003MOL0     H38349   3.694   1.400   4.370 -1.3922 -1.4473 -1.0676
 1003MOL0     H38350   3.784   1.248   4.395  1.5148  0.8153  3.0428
 1003MOL0     H38351   4.015   1.381   4.376 -0.3394  3.3150 -0.6331
 1003MOL0     H38352   3.922   1.520   4.385 -1.9242 -0.1521  0.0415
 1003MOL0     H38353   3.834   1.482   4.595 -0.1814  0.1377 -2.1127
 1003MOL0     H38354   3.899   1.318   4.612 -1.5274  0.3340  1.4280
 1003MOL0     H38355   4.056   1.563   4.617  2.4127  0.0402  0.4431
 1003MOL0     H38356   4.138   1.419   4.556  1.5091  0.7000  1.8440
 1003MOL0     H38357   4.090   1.294   4.768 -2.0970  0.5419  1.3216
 1003MOL0     H38358   4.197   1.435   4.790 -1.0036  1.7760  0.2213
 1003MOL0     H38359   3.892   1.444   4.845 -1.0491  2.5506  1.2592
 1003MOL0     H38360   4.035   1.557   4.883  2.5479  0.2386  0.3006
 1003MOL0     H38361   3.981   1.446   5.089 -0.9551  1.5433 -1.3282
 1003MOL0     H38362   3.989   1.285   4.998  0.8933 -0.5568  0.9525
 1003MOL0     H38363   4.212   1.598   5.099  2.3968  1.1433 -1.4773
 1003MOL0     H38364   4.523   1.603   5.026  2.0412 -1.2591 -1.3665
 1003MOL0     H38365   4.591   1.466   5.121 -0.8299 -0.6741  1.4199
 1003MOL0     H38366   4.574   1.560   5.323 -2.2926 -0.9678  1.0860
 1003MOL0     H38367   4.595   1.696   5.221  0.5816 -0.0563 -0.3906
 1003MOL0     H38368   4.349   1.723   5.201 -0.5569 -0.4745 -0.1335
 1003MOL0     H38369   4.328   1.612   5.337 -4.7916  2.1749 -3.0571
 1003MOL0     H38370   4.323   1.832   5.431  1.1996 -1.6845  3.2733
 1003MOL0     H38371   4.474   1.752   5.470 -0.7161 -0.2770  0.0924
 1003MOL0     H38372   4.691   1.809   5.464  3.4545  0.4382  1.1953
 1003MOL0     H38373   4.952   1.930   5.664 -2.0755  2.2532 -0.0114
 1003MOL0     H38374   4.995   1.906   5.493 -0.7352  1.3413 -0.4215
 1003MOL0     H38375   4.885   1.792   5.580  1.3625 -0.2759 -1.0815
 1003MOL0     H38376   4.868   2.239   5.909 -0.2628 -0.7085 -0.7607
 1003MOL0     H38377   4.964   2.375   6.087  0.2517 -0.3322  0.1496
 1003MOL0     H38378   5.255   2.514   6.284  1.3344 -0.4740 -1.3274
 1003MOL0     H38379   5.080   2.512   6.232  0.2056  1.2457  0.7910
 1003MOL0     H38380   5.131   2.351   6.415  1.5612 -2.1366  0.9043
 1003MOL0     H38381   5.088   2.268   6.268 -1.1125  0.7855  2.3577
 1003MOL0     H38382   5.349   2.283   6.407  0.6337  0.5255 -1.7518
 1003MOL0     H38383   5.359   2.300   6.235 -1.8906 -2.0500 -4.2201
 1003MOL0     H38384   5.197   2.096   6.214  0.3404  2.2852 -0.5410
 1003MOL0     H38385   5.250   2.047   6.377  1.0654  1.0443  0.7553
 1003MOL0     H38386   5.361   1.922   6.207 -1.1162  0.6034  1.1023
 1003MOL0     H38387   5.371   2.059   6.114  0.0635  0.9552  0.9690
 1003MOL0     H38388   5.523   1.989   6.370 -3.0834 -2.6455 -1.6324
 1003MOL0     H38389   5.563   2.142   6.291 -0.6252 -0.6206  2.9607
 1003MOL0     H38390   5.582   1.877   6.130  0.4107 -0.9629  0.5664
 1003MOL0     H38391   5.706   1.930   6.245 -0.5312  0.8142  0.9927
 1003MOL0     H38392   5.727   2.145   6.112 -0.4683  0.1116  0.6932
 1003MOL0     H38393   5.596   2.087   6.006  0.8196 -0.2877 -1.4434
 1003MOL0     H38394   5.362   2.317   5.889 -0.9262  1.7959 -1.1650
 1003MOL0     H38395   5.261   2.215   5.722  2.0856  2.2082  0.3542
 1003MOL0     H38396   4.674   2.297   5.474 -1.0780 -0.9936  0.2013
 1003MOL0     H38397   4.526   2.190   5.328  0.4987 -0.2556 -0.0869
 1003MOL0     H38398   3.854   1.403   3.922  1.1177 -1.9279  0.2799
 1003MOL0     H38399   3.838   1.311   3.691  1.1699 -4.3165  0.7506
 1003MOL0     H38400   3.660   1.284   3.381  1.1979  1.7835 -1.9008
 1003MOL0     H38401   3.646   1.292   3.134  0.6318 -0.9710  0.5849
 1003MOL0     H38402   3.540   0.984   2.924 -2.8148  1.2348  0.0929
 1003MOL0     H38403   3.511   1.144   2.973 -1.2343 -2.1869 -0.8484
 1003MOL0     H38404   3.504   1.191   2.740  0.7281  1.8774  0.1930
 1003MOL0     H38405   3.582   1.030   2.709  1.3557 -1.3195  2.6294
 1003MOL0     H38406   3.761   1.253   2.798  2.7337 -0.5380 -2.5817
 1003MOL0     H38407   3.794   1.144   2.692 -0.3130 -0.2259  2.0376
 1003MOL0     H38408   3.746   1.394   2.591  1.9213 -1.7536  1.1233
 1003MOL0     H38409   3.581   1.377   2.623 -0.0037  0.6373 -3.7681
 1003MOL0     H38410   3.631   1.111   2.300 -0.4788 -0.6544 -0.6085
 1003MOL0     H38411   3.827   0.906   3.124  0.9815 -0.0254 -1.4157
 1003MOL0     H38412   3.765   0.756   3.384 -3.4680  0.5256  3.7930
 1003MOL0     H38413   3.925   0.839   3.402  0.6804  0.6354  0.4890
 1003MOL0     H38414   3.784   0.854   3.509  1.0704 -4.3278 -0.2384
 1004MOL0     O38415   3.326   2.305   6.940 -0.1882 -0.2947  1.5661
 1004MOL0     C38416   3.302   2.375   6.837 -0.3079 -0.3753 -0.2982
 1004MOL0     O38417   3.269   2.326   6.720  0.3103 -0.1058 -0.4465
 1004MOL0     C38418   3.277   2.192   6.688  0.5284  0.0678  0.4093
 1004MOL0     C38419   3.351   2.146   6.579 -0.7692  0.4403  1.0324
 1004MOL0     C38420   3.353   2.011   6.545 -1.3806  0.0293  0.8003
 1004MOL0     C38421   3.275   1.924   6.609  1.2244 -0.1309  0.1996
 1004MOL0     O38422   3.274   1.792   6.554 -0.2679  0.0122 -0.1268
 1004MOL0     C38423   3.159   1.717   6.571 -0.2005 -0.7249 -0.3030
 1004MOL0     C38424   3.174   1.582   6.491  0.1939 -0.6987 -0.6129
 1004MOL0     C38425   3.297   1.495   6.533  0.6653 -0.6081 -0.7117
 1004MOL0     C38426   3.326   1.375   6.435  0.2468 -0.1605 -0.1246
 1004MOL0     C38427   3.456   1.311   6.487  0.4510  0.2966 -0.6952
 1004MOL0     C38428   3.504   1.168   6.445 -0.3230 -0.4612 -0.4819
 1004MOL0     C38429   3.502   1.139   6.292 -0.5905 -0.6918 -0.9487
 1004MOL0     C38430   3.599   1.025   6.248  0.8309 -0.2867  0.0797
 1004MOL0     N38431   3.584   0.990   6.104  0.1987  0.4772 -0.0611
 1004MOL0     C38432   3.498   1.051   6.018  0.9132 -0.5930  0.9864
 1004MOL0     C38433   3.526   1.005   5.888  0.7993 -0.0286 -0.3777
 1004MOL0     C38434   3.452   1.044   5.760  0.3751  0.4608  0.0555
 1004MOL0     C38435   3.545   1.065   5.637 -0.8639 -0.7428 -0.4107
 1004MOL0     C38436   3.460   1.092   5.509 -0.0690  0.5470  0.2021
 1004MOL0     C38437   3.546   1.106   5.384  0.2557 -0.6399  0.0232
 1004MOL0     O38438   3.474   1.183   5.283 -0.8029  0.0574 -0.1914
 1004MOL0     C38439   3.381   1.124   5.208 -0.3542  1.4411 -0.4304
 1004MOL0     C38440   3.263   1.197   5.171  0.0018 -0.8306 -0.8363
 1004MOL0     C38441   3.161   1.146   5.091 -0.4813  0.3287 -0.2026
 1004MOL0     C38442   3.042   1.228   5.053  0.4109 -0.5178  0.4141
 1004MOL0     C38443   3.164   1.012   5.038  0.1147  0.3090  0.1635
 1004MOL0     C38444   3.071   0.960   4.951 -0.4338  0.0318 -0.5175
 1004MOL0     O38445   3.109   0.888   4.837 -0.0458  0.3769 -0.0578
 1004MOL0     C38446   3.028   0.841   4.733 -0.6593 -0.6239  0.2696
 1004MOL0     C38447   2.891   0.891   4.703 -0.5303  0.1891  0.4001
 1004MOL0     C38448   2.824   0.844   4.584 -0.7144 -0.1233 -0.4374
 1004MOL0     C38449   2.884   0.755   4.497 -0.2518 -0.7007 -0.0891
 1004MOL0     O38450   2.811   0.697   4.394  0.4105 -0.0049  0.2874
 1004MOL0     C38451   2.744   0.772   4.288 -0.7172 -0.4752  0.9420
 1004MOL0     C38452   2.642   0.672   4.233  0.1052 -0.6738 -0.7961
 1004MOL0     C38453   2.711   0.546   4.161 -0.0795  0.1535  0.5985
 1004MOL0     C38454   2.585   0.481   4.093 -0.0606  0.0837  0.9199
 1004MOL0     C38455   2.634   0.363   4.011 -0.1602  0.1560  0.3517
 1004MOL0     C38456   2.703   0.254   4.090  0.4997  0.0282  0.2295
 1004MOL0     C38457   2.802   0.172   4.004 -0.8280 -0.2237  0.1479
 1004MOL0     C38458   2.849   0.049   4.090  0.8026 -0.1379 -0.0595
 1004MOL0    Cl38459   2.717  -0.056   4.157 -0.1941 -0.0105 -0.4769
 1004MOL0     C38460   3.008   0.705   4.536 -0.3390 -0.0018  0.6998
 1004MOL0     C38461   3.083   0.743   4.647 -0.5508  0.1670 -0.1866
 1004MOL0     O38462   2.956   0.976   4.982  0.0211 -0.6084 -0.2669
 1004MOL0     C38463   3.276   0.938   5.075 -0.4271 -0.7150  0.6766
 1004MOL0     C38464   3.386   0.991   5.158 -0.2831 -0.3321 -0.4137
 1004MOL0     N38465   3.628   0.918   5.903 -0.0543 -0.1099  0.1194
 1004MOL0     N38466   3.657   0.906   6.027 -0.8482 -0.2007 -0.7910
 1004MOL0     C38467   3.187   1.966   6.714  0.7609  0.0296  0.8118
 1004MOL0     C38468   3.187   2.098   6.751  0.2995 -0.6532 -0.1199
 1004MOL0     C38469   3.336   2.517   6.865 -0.5733  0.0618  0.1959
 1004MOL0     C38470   3.317   2.571   6.998 -0.5912 -0.3237  0.4318
 1004MOL0     C38471   3.345   2.707   7.022  0.4376  0.2163 -0.5758
 1004MOL0     C38472   3.386   2.793   6.916 -0.0614  0.2722 -0.2169
 1004MOL0     O38473   3.421   2.928   6.943  0.2767 -0.2622 -0.0267
 1004MOL0     C38474   3.562   2.938   6.936  0.4069 -0.0332 -0.7335
 1004MOL0     C38475   3.623   3.030   7.039 -0.3753 -0.4505 -1.0460
 1004MOL0     C38476   3.592   3.177   7.007 -0.3944  0.5171  0.1586
 1004MOL0     C38477   3.672   3.262   7.100 -0.3149  0.4911  0.7885
 1004MOL0     C38478   3.666   3.411   7.078  0.0609  0.3945  0.2997
 1004MOL0     C38479   3.651   3.531   7.061  0.4170 -0.5345 -0.6419
 1004MOL0     C38480   3.393   2.743   6.786 -0.1310 -0.2514 -0.5190
 1004MOL0     C38481   3.373   2.614   6.761  0.9730 -0.4090 -0.1738
 1004MOL0     C38482   3.367   2.580   6.612  0.4188  1.0124  0.4127
 1004MOL0     H38483   3.390   2.223   6.513 -1.6109 -0.3439 -0.4128
 1004MOL0     H38484   3.415   1.978   6.462 -0.3403  1.0059  1.1633
 1004MOL0     H38485   3.076   1.777   6.533 -0.4650 -0.3275  0.8745
 1004MOL0     H38486   3.145   1.699   6.678 -1.4192 -0.8180 -0.4624
 1004MOL0     H38487   3.082   1.523   6.489 -0.1426 -0.5684  3.1923
 1004MOL0     H38488   3.204   1.596   6.387 -1.2949  0.0936 -0.9537
 1004MOL0     H38489   3.378   1.567   6.548  1.2180 -1.2211 -0.7158
 1004MOL0     H38490   3.281   1.452   6.632 -3.1526  0.1854 -0.8381
 1004MOL0     H38491   3.246   1.304   6.459 -1.6035  1.6020 -0.7027
 1004MOL0     H38492   3.330   1.400   6.328  1.4027 -1.3632 -0.3847
 1004MOL0     H38493   3.447   1.316   6.596 -1.8135  1.0532 -0.8724
 1004MOL0     H38494   3.535   1.377   6.450 -1.1920  1.4395 -2.3858
 1004MOL0     H38495   3.603   1.161   6.490  0.1976  1.1297 -1.2900
 1004MOL0     H38496   3.440   1.092   6.491  0.1014 -0.1392  0.6681
 1004MOL0     H38497   3.530   1.227   6.234 -3.3931  0.3164 -0.9140
 1004MOL0     H38498   3.403   1.101   6.265 -1.8146  1.8169 -0.3333
 1004MOL0     H38499   3.701   1.064   6.258  0.1874  1.5878 -0.1398
 1004MOL0     H38500   3.586   0.937   6.312 -2.6433 -1.3524 -1.8559
 1004MOL0     H38501   3.430   1.135   6.032  1.3322 -0.0531 -0.1305
 1004MOL0     H38502   3.396   1.137   5.781 -1.5922 -0.5195 -0.5821
 1004MOL0     H38503   3.375   0.973   5.729 -0.0714  0.4438  1.1506
 1004MOL0     H38504   3.615   1.147   5.654 -1.7823 -0.0923  0.3632
 1004MOL0     H38505   3.614   0.981   5.622 -1.0463 -1.0007  0.1448
 1004MOL0     H38506   3.395   1.007   5.486 -0.0336  0.5175  0.2115
 1004MOL0     H38507   3.394   1.179   5.518 -0.9171  0.1722 -1.8132
 1004MOL0     H38508   3.632   1.164   5.419 -1.8893  2.3822  0.7025
 1004MOL0     H38509   3.579   1.003   5.363 -1.1976 -1.0223 -0.4989
 1004MOL0     H38510   3.248   1.294   5.218  1.2936 -0.7400 -0.5987
 1004MOL0     H38511   3.011   1.208   4.950 -2.0457 -2.7674  1.4636
 1004MOL0     H38512   3.053   1.336   5.061 -0.7289 -0.4773  1.6202
 1004MOL0     H38513   2.957   1.188   5.109  0.2858 -2.6809 -1.1913
 1004MOL0     H38514   2.832   0.946   4.776 -0.8136 -0.1235  0.4087
 1004MOL0     H38515   2.725   0.877   4.553 -0.8878  1.0685  1.2464
 1004MOL0     H38516   2.698   0.859   4.336  3.2396  0.4139  3.6139
 1004MOL0     H38517   2.803   0.804   4.202 -0.4092 -2.9558  0.1588
 1004MOL0     H38518   2.588   0.637   4.322 -2.8313 -1.4339 -2.7323
 1004MOL0     H38519   2.559   0.717   4.177  1.1959 -1.4145 -3.1350
 1004MOL0     H38520   2.773   0.490   4.231  0.9460 -1.7271 -1.6808
 1004MOL0     H38521   2.771   0.587   4.080 -1.4117  0.7295 -0.1375
 1004MOL0     H38522   2.539   0.557   4.029  0.5873 -1.5966 -1.7203
 1004MOL0     H38523   2.510   0.443   4.163  0.6031  0.9688  2.1256
 1004MOL0     H38524   2.547   0.338   3.950  0.4272 -0.3978 -0.2741
 1004MOL0     H38525   2.696   0.388   3.925 -0.3000  1.0643  0.5100
 1004MOL0     H38526   2.619   0.189   4.116 -1.2298  1.1677 -2.2154
 1004MOL0     H38527   2.759   0.285   4.179  0.2659  1.3346 -0.0656
 1004MOL0     H38528   2.886   0.240   3.989 -2.1161  1.9010  1.9577
 1004MOL0     H38529   2.757   0.143   3.908 -2.7740  4.3669 -0.6156
 1004MOL0     H38530   2.907   0.081   4.177  0.2856 -1.3516  0.7534
 1004MOL0     H38531   2.912  -0.010   4.023 -0.1280 -0.2721 -0.8360
 1004MOL0     H38532   3.042   0.610   4.494 -2.3489 -1.6745  2.5966
 1004MOL0     H38533   3.181   0.698   4.655  0.4964  1.6592 -3.0724
 1004MOL0     H38534   3.285   0.836   5.040 -0.2075  0.0388 -1.6349
 1004MOL0     H38535   3.450   0.915   5.200 -0.1412  0.1445  0.2534
 1004MOL0     H38536   3.121   1.894   6.761  1.5338 -0.6341  0.9136
 1004MOL0     H38537   3.115   2.129   6.826 -1.0700  2.8040 -2.6283
 1004MOL0     H38538   3.302   2.512   7.088  2.6705  1.3295  2.2548
 1004MOL0     H38539   3.334   2.753   7.120  1.9513  0.1191 -0.3265
 1004MOL0     H38540   3.618   2.844   6.931  0.5394  0.0447 -0.7354
 1004MOL0     H38541   3.602   2.977   6.842  3.2003  0.8629  0.7127
 1004MOL0     H38542   3.729   3.003   7.042 -1.3363 -5.0228  1.1217
 1004MOL0     H38543   3.576   3.008   7.135  4.0773 -0.8459  1.3464
 1004MOL0     H38544   3.614   3.202   6.903 -0.2313  1.7918  0.4778
 1004MOL0     H38545   3.486   3.198   7.028  0.1421  2.6183  1.0890
 1004MOL0     H38546   3.774   3.234   7.076 -0.7079 -2.7716  2.3508
 1004MOL0     H38547   3.633   3.240   7.200 -0.4841  2.6719  1.2458
 1004MOL0     H38548   3.639   3.636   7.041 -1.5722  0.1564  3.1573
 1004MOL0     H38549   3.406   2.818   6.709  0.3234  0.0834 -0.1222
 1004MOL0     H38550   3.421   2.654   6.552  1.9687 -0.5301 -0.1820
 1004MOL0     H38551   3.418   2.485   6.593 -2.7056 -0.7173  0.0300
 1004MOL0     H38552   3.266   2.570   6.572 -0.6171  2.3559  2.4768
 1005MOL0     O38553   0.734   6.213   5.564 -0.2336  0.1218  0.5592
 1005MOL0     C38554   0.752   6.287   5.465  0.8566  0.1041  0.0077
 1005MOL0     O38555   0.671   6.289   5.356 -0.1078 -0.2305  0.5948
 1005MOL0     C38556   0.538   6.239   5.367  0.1268  0.3144 -1.0486
 1005MOL0     C38557   0.435   6.311   5.433  1.3802 -0.6435 -0.1067
 1005MOL0     C38558   0.310   6.248   5.459 -0.6119 -0.2145  0.4682
 1005MOL0     C38559   0.286   6.112   5.425  0.4935 -0.6371  0.2209
 1005MOL0     O38560   0.167   6.064   5.460  0.3964  0.1168  0.1949
 1005MOL0     C38561   0.159   5.926   5.492  0.1378 -0.8079 -0.1888
 1005MOL0     C38562   0.029   5.917   5.572 -0.0462  0.8813 -0.0217
 1005MOL0     C38563  -0.052   5.790   5.552 -0.1564  0.0925  0.7201
 1005MOL0     C38564   0.017   5.658   5.594  0.3488 -0.2800  0.3240
 1005MOL0     C38565  -0.069   5.524   5.593 -0.4322  0.2336  0.0972
 1005MOL0     C38566   0.006   5.416   5.675 -1.5322  0.4712 -0.0094
 1005MOL0     C38567   0.125   5.344   5.603 -0.2867  0.8618  0.3933
 1005MOL0     C38568   0.210   5.275   5.710  0.5169 -0.0974  0.5607
 1005MOL0     N38569   0.152   5.150   5.751  0.2090 -0.2281 -0.6799
 1005MOL0     C38570   0.240   5.071   5.822 -0.3594  0.4695  0.2414
 1005MOL0     C38571   0.161   4.972   5.874  0.2504 -0.3236 -0.8850
 1005MOL0     C38572   0.212   4.861   5.956 -0.4023 -0.7415  0.9041
 1005MOL0     C38573   0.270   4.752   5.865 -0.4105 -0.3778  0.1032
 1005MOL0     C38574   0.292   4.626   5.957  0.9716 -0.7610 -0.3127
 1005MOL0     C38575   0.349   4.508   5.877 -0.3642 -0.2294 -0.0978
 1005MOL0     O38576   0.295   4.487   5.746  0.2722  0.6402  0.2382
 1005MOL0     C38577   0.170   4.416   5.737 -0.9621 -0.0206  0.4751
 1005MOL0     C38578   0.079   4.396   5.835 -0.3031 -0.1598 -0.2837
 1005MOL0     C38579  -0.039   4.317   5.821  0.0323 -0.5144  0.2161
 1005MOL0     C38580  -0.136   4.302   5.938 -0.7138  0.7541 -0.0619
 1005MOL0     C38581  -0.058   4.251   5.696 -0.1281 -0.6357  0.0758
 1005MOL0     C38582  -0.158   4.151   5.658  0.1918  0.7232  0.5051
 1005MOL0     O38583  -0.163   4.125   5.518  0.0932 -0.6797 -0.4285
 1005MOL0     C38584  -0.182   4.005   5.472  0.1243  0.4688  0.2763
 1005MOL0     C38585  -0.286   3.974   5.382  0.1306  0.5681 -0.0900
 1005MOL0     C38586  -0.295   3.843   5.332 -0.5108 -0.1990 -0.7755
 1005MOL0     C38587  -0.207   3.740   5.383  0.3316  0.1490  0.9259
 1005MOL0     O38588  -0.210   3.605   5.340  0.3969  0.3461  0.0428
 1005MOL0     C38589  -0.317   3.563   5.259  0.2473  0.3650  0.6441
 1005MOL0     C38590  -0.312   3.406   5.249  0.5573  0.1729  0.1564
 1005MOL0     C38591  -0.412   3.363   5.148 -0.5085 -0.2595 -0.1803
 1005MOL0     C38592  -0.390   3.221   5.100 -0.0265 -0.1960  0.0976
 1005MOL0     C38593  -0.276   3.217   4.985  1.3558 -0.0144  0.3752
 1005MOL0     C38594  -0.233   3.072   4.947  0.7651 -0.1952 -0.7148
 1005MOL0     C38595  -0.103   3.071   4.868  0.8260  0.6812  0.1348
 1005MOL0     C38596  -0.122   3.130   4.729  0.2879  0.0354 -0.3263
 1005MOL0    Cl38597   0.021   3.216   4.669  0.0559  0.1376  0.1605
 1005MOL0     C38598  -0.104   3.776   5.463  0.2575 -0.1258 -0.5711
 1005MOL0     C38599  -0.095   3.904   5.510 -0.4265  0.1338 -0.4130
 1005MOL0     O38600  -0.229   4.104   5.743  0.6689 -0.3563 -0.1475
 1005MOL0     C38601   0.037   4.282   5.597 -0.1868 -0.2362  0.1035
 1005MOL0     C38602   0.149   4.361   5.615 -0.5996 -0.1015 -0.1534
 1005MOL0     N38603   0.030   4.992   5.840 -0.8568 -0.0048  0.0768
 1005MOL0     N38604   0.022   5.101   5.762 -0.2187  0.7044  0.4823
 1005MOL0     C38605   0.387   6.048   5.348  0.3168 -0.5000 -0.5238
 1005MOL0     C38606   0.515   6.109   5.332  0.0527 -0.4181  0.8407
 1005MOL0     C38607   0.877   6.368   5.461  0.6740 -0.6294  0.3167
 1005MOL0     C38608   0.903   6.441   5.339 -0.5657  0.1854 -0.2733
 1005MOL0     C38609   1.024   6.514   5.327  0.1346 -0.1591  0.6764
 1005MOL0     C38610   1.119   6.504   5.433  0.7840  0.1062 -0.2303
 1005MOL0     O38611   1.234   6.574   5.426  0.3060 -0.4879  0.0416
 1005MOL0     C38612   1.276   6.658   5.316  0.2421 -0.2503 -0.3249
 1005MOL0     C38613   1.211   6.795   5.329 -0.6965 -0.3636  0.2450
 1005MOL0     C38614   1.223   6.868   5.190 -0.5712  0.2672  0.1145
 1005MOL0     C38615   1.120   6.977   5.169  0.1943  0.8579  0.3241
 1005MOL0     C38616   1.164   7.086   5.258  0.6153  0.0690  0.1372
 1005MOL0     C38617   1.196   7.181   5.330 -0.1465  0.4320 -0.6477
 1005MOL0     C38618   1.086   6.440   5.558  0.2487 -0.5735 -1.2247
 1005MOL0     C38619   0.971   6.367   5.571 -0.2857  0.0941  0.7244
 1005MOL0     C38620   0.965   6.280   5.699  0.1167  0.4511  0.7851
 1005MOL0     H38621   0.448   6.415   5.462  2.1773 -0.8895  0.4591
 1005MOL0     H38622   0.227   6.297   5.510 -1.7657 -1.8942  0.2982
 1005MOL0     H38623   0.249   5.901   5.549  0.2898  0.9205  0.3969
 1005MOL0     H38624   0.157   5.866   5.401  0.1170  1.4612 -1.7801
 1005MOL0     H38625   0.052   5.930   5.678 -0.4909 -2.7843  0.6320
 1005MOL0     H38626  -0.041   5.995   5.540  0.7973  1.7076  0.0753
 1005MOL0     H38627  -0.145   5.783   5.609  1.5615 -1.5119  3.5939
 1005MOL0     H38628  -0.082   5.790   5.447 -2.5634  2.0721  1.3020
 1005MOL0     H38629   0.102   5.636   5.528  2.2773 -1.4246  3.0074
 1005MOL0     H38630   0.052   5.681   5.695  1.2765  1.4082 -0.3448
 1005MOL0     H38631  -0.101   5.491   5.494  1.6378 -0.9825 -0.2268
 1005MOL0     H38632  -0.166   5.532   5.643  0.1662  1.6095  1.1123
 1005MOL0     H38633   0.044   5.469   5.763  1.3593  0.3697 -1.0987
 1005MOL0     H38634  -0.068   5.344   5.710 -0.5365  0.1893  1.6082
 1005MOL0     H38635   0.179   5.423   5.551  1.7762  0.1595  1.3562
 1005MOL0     H38636   0.097   5.260   5.539  1.1636  1.2507 -0.8067
 1005MOL0     H38637   0.312   5.267   5.671  1.0797  0.7631  1.7925
 1005MOL0     H38638   0.218   5.342   5.796 -1.1667  5.1476 -2.8935
 1005MOL0     H38639   0.348   5.065   5.832 -0.3918 -0.2415  0.1948
 1005MOL0     H38640   0.137   4.817   6.022 -0.1623 -2.1163  0.2881
 1005MOL0     H38641   0.298   4.887   6.019  1.2508 -2.7288 -0.3949
 1005MOL0     H38642   0.199   4.733   5.784 -0.1336 -0.1811 -0.1868
 1005MOL0     H38643   0.356   4.789   5.810  1.0014 -2.6318  0.6803
 1005MOL0     H38644   0.357   4.650   6.042  0.4815  3.4126 -0.8682
 1005MOL0     H38645   0.192   4.595   5.990 -0.5846 -0.5754 -4.2626
 1005MOL0     H38646   0.455   4.526   5.857  0.1346  3.3186  4.1145
 1005MOL0     H38647   0.362   4.419   5.939  0.9189  0.1122  0.1517
 1005MOL0     H38648   0.088   4.442   5.933  0.2283 -1.0874  0.1280
 1005MOL0     H38649  -0.102   4.340   6.035 -3.0229 -0.2515  1.2173
 1005MOL0     H38650  -0.147   4.196   5.964  1.4927  0.2880 -0.7914
 1005MOL0     H38651  -0.231   4.350   5.915 -1.7168 -1.8610 -1.8359
 1005MOL0     H38652  -0.352   4.051   5.342  0.5756 -0.0121 -2.0912
 1005MOL0     H38653  -0.371   3.820   5.258  0.3322 -3.3601 -0.8286
 1005MOL0     H38654  -0.417   3.600   5.282 -0.5432  0.2905 -2.2198
 1005MOL0     H38655  -0.286   3.609   5.165  2.4840  0.4222  1.3556
 1005MOL0     H38656  -0.212   3.380   5.210  0.3635 -0.3389 -0.0068
 1005MOL0     H38657  -0.332   3.343   5.336  0.8641 -2.7626 -1.7366
 1005MOL0     H38658  -0.415   3.436   5.066  0.1297 -0.0753 -0.0460
 1005MOL0     H38659  -0.514   3.364   5.187 -1.3887 -1.6482 -2.2605
 1005MOL0     H38660  -0.484   3.208   5.046  0.2882  1.7374 -1.0191
 1005MOL0     H38661  -0.389   3.156   5.188 -1.8694  2.0850  1.9549
 1005MOL0     H38662  -0.318   3.260   4.893 -0.1582  0.0140  1.0435
 1005MOL0     H38663  -0.187   3.274   5.015  1.4744  0.2844 -0.5054
 1005MOL0     H38664  -0.319   3.027   4.896  1.6605 -1.0867 -1.5014
 1005MOL0     H38665  -0.219   3.015   5.039 -2.1743  0.2578  0.1099
 1005MOL0     H38666  -0.063   2.969   4.867 -0.0684  0.2985  0.8120
 1005MOL0     H38667  -0.028   3.130   4.922  0.5393  0.2034  1.0909
 1005MOL0     H38668  -0.216   3.184   4.715  1.0814  1.3759 -0.6606
 1005MOL0     H38669  -0.135   3.038   4.671 -3.5729 -0.7954  1.4849
 1005MOL0     H38670  -0.021   3.711   5.489  1.5690  1.1724 -1.3273
 1005MOL0     H38671  -0.028   3.930   5.592 -0.8872  4.0121 -1.0737
 1005MOL0     H38672   0.040   4.238   5.498  2.6809 -0.9357  0.4107
 1005MOL0     H38673   0.216   4.380   5.532  0.7767  0.0117  0.9523
 1005MOL0     H38674   0.384   5.943   5.322  0.8947 -0.1224 -2.1882
 1005MOL0     H38675   0.595   6.057   5.281 -0.0811  1.6550 -1.6334
 1005MOL0     H38676   0.824   6.450   5.266  0.4077 -0.1233 -1.3997
 1005MOL0     H38677   1.039   6.568   5.234  2.1455  0.1268  1.1198
 1005MOL0     H38678   1.384   6.664   5.300 -0.0379 -0.6929 -2.7066
 1005MOL0     H38679   1.243   6.622   5.219  1.1750  1.2357 -1.2282
 1005MOL0     H38680   1.267   6.850   5.406  4.0157 -2.1425 -1.5211
 1005MOL0     H38681   1.104   6.794   5.349 -0.7023 -0.5749  0.2118
 1005MOL0     H38682   1.324   6.908   5.173 -1.8206  2.2610 -3.6793
 1005MOL0     H38683   1.215   6.799   5.105  0.0020  1.4171 -0.9164
 1005MOL0     H38684   1.016   6.944   5.174  0.2851  0.2610 -1.1858
 1005MOL0     H38685   1.126   7.008   5.065  2.2211  0.4627  0.2747
 1005MOL0     H38686   1.213   7.264   5.395 -0.9148 -0.3118  0.5447
 1005MOL0     H38687   1.167   6.424   5.628  1.4661  0.5327 -2.3109
 1005MOL0     H38688   1.050   6.301   5.764  2.7806  3.0146 -3.0886
 1005MOL0     H38689   0.868   6.306   5.742 -0.6645  0.4372 -0.8862
 1005MOL0     H38690   0.983   6.176   5.668 -0.5091  0.9492 -1.3956
 1006MOL0     O38691   3.524   5.437   2.040  0.3675  0.1284  0.0898
 1006MOL0     C38692   3.466   5.366   2.118 -0.0324 -0.1456  0.0646
 1006MOL0     O38693   3.416   5.238   2.087  0.4309  0.1835 -0.5079
 1006MOL0     C38694   3.445   5.179   1.969 -0.0129 -0.4898 -0.0820
 1006MOL0     C38695   3.343   5.108   1.905  0.1118  0.2010 -0.5761
 1006MOL0     C38696   3.367   5.050   1.784 -0.1001  0.7332  0.5266
 1006MOL0     C38697   3.494   5.043   1.724  0.0835 -0.5710 -0.0266
 1006MOL0     O38698   3.508   4.977   1.607 -0.2914 -0.4190  0.7825
 1006MOL0     C38699   3.634   4.943   1.547  0.5648  0.7359  0.7788
 1006MOL0     C38700   3.607   4.877   1.407 -0.1235 -0.1505 -0.2694
 1006MOL0     C38701   3.552   4.730   1.404 -0.0036  0.3248 -0.8184
 1006MOL0     C38702   3.408   4.733   1.403 -0.6481  0.2603 -0.2300
 1006MOL0     C38703   3.334   4.597   1.384  0.7812  0.0934 -0.3024
 1006MOL0     C38704   3.177   4.623   1.358 -0.7860 -0.1618  0.0262
 1006MOL0     C38705   3.086   4.502   1.345  0.4003  0.8343  0.2371
 1006MOL0     C38706   3.109   4.441   1.212 -0.5824  0.8984  0.4577
 1006MOL0     N38707   3.023   4.323   1.172 -0.3396 -0.0795  0.3441
 1006MOL0     C38708   3.063   4.185   1.170  0.3603 -0.1369  0.9933
 1006MOL0     C38709   2.974   4.132   1.076 -0.3390  0.0743 -1.5194
 1006MOL0     C38710   2.956   3.985   1.056 -0.9162 -0.1990  0.7558
 1006MOL0     C38711   2.836   3.915   1.129  0.1011 -0.0052  0.7027
 1006MOL0     C38712   2.783   3.793   1.056  0.2651 -0.3330 -0.7852
 1006MOL0     C38713   2.695   3.699   1.144 -0.4355  0.2577  0.9792
 1006MOL0     O38714   2.664   3.586   1.048  0.2143 -0.6466  0.2444
 1006MOL0     C38715   2.700   3.464   1.101  0.0679  0.0779  0.0382
 1006MOL0     C38716   2.822   3.412   1.057  0.1303  1.2236  0.3467
 1006MOL0     C38717   2.864   3.285   1.096 -0.3983  0.0187 -0.0855
 1006MOL0     C38718   2.975   3.222   1.019  0.6697  0.1746 -0.4362
 1006MOL0     C38719   2.789   3.225   1.198  0.1247  1.0834  0.4763
 1006MOL0     C38720   2.831   3.096   1.244  0.6615 -0.0323  0.4301
 1006MOL0     O38721   2.961   3.091   1.291  0.9201 -0.3727 -0.4067
 1006MOL0     C38722   2.995   2.961   1.315 -0.3417 -0.6470  0.8042
 1006MOL0     C38723   2.991   2.906   1.442  0.1108  0.3896  0.4287
 1006MOL0     C38724   3.020   2.772   1.467 -0.4523  1.1344  0.3005
 1006MOL0     C38725   3.044   2.681   1.362 -0.1818 -0.5605  0.4100
 1006MOL0     O38726   3.057   2.545   1.371 -0.7453 -0.7597 -0.1709
 1006MOL0     C38727   3.192   2.503   1.352  0.2200 -0.1270 -0.1793
 1006MOL0     C38728   3.290   2.556   1.465  0.6546 -0.3236 -0.8910
 1006MOL0     C38729   3.368   2.681   1.442  0.8545 -0.1104 -1.0169
 1006MOL0     C38730   3.461   2.686   1.317  0.3580  0.0754  0.3047
 1006MOL0     C38731   3.557   2.809   1.318  0.1697  0.8460 -0.0025
 1006MOL0     C38732   3.653   2.819   1.200  0.6504  0.0294  1.0634
 1006MOL0     C38733   3.755   2.706   1.208 -0.5281 -0.1756 -0.1279
 1006MOL0     C38734   3.867   2.726   1.104 -0.4179 -0.2780  0.6465
 1006MOL0    Cl38735   3.807   2.693   0.932  0.5006  0.5436  0.5127
 1006MOL0     C38736   3.053   2.743   1.236 -0.7017  0.1711  0.3135
 1006MOL0     C38737   3.034   2.876   1.203  1.0114 -0.7276 -0.0702
 1006MOL0     O38738   2.739   3.019   1.276 -0.3717 -0.3499  0.2801
 1006MOL0     C38739   2.679   3.290   1.253  0.1936  1.3010  0.7410
 1006MOL0     C38740   2.632   3.412   1.209  1.1425 -0.0265  0.8412
 1006MOL0     N38741   2.889   4.225   1.029  0.6015  0.1437  1.1555
 1006MOL0     N38742   2.918   4.336   1.083  0.8024  0.5606  0.5946
 1006MOL0     C38743   3.594   5.100   1.796 -1.5081 -0.6596  0.4583
 1006MOL0     C38744   3.573   5.180   1.902 -1.0721 -0.0313 -0.7056
 1006MOL0     C38745   3.457   5.405   2.263  0.3437 -0.1423  0.1506
 1006MOL0     C38746   3.471   5.305   2.360  0.2706 -0.3335 -0.7195
 1006MOL0     C38747   3.467   5.333   2.498  0.1871  0.8935  0.3290
 1006MOL0     C38748   3.445   5.462   2.541  0.3642 -0.1233 -0.1852
 1006MOL0     O38749   3.437   5.483   2.677 -0.3609 -0.7664  0.0280
 1006MOL0     C38750   3.570   5.516   2.729 -0.0971 -0.0646  0.1956
 1006MOL0     C38751   3.568   5.551   2.874  0.9205  0.5315  0.1493
 1006MOL0     C38752   3.702   5.555   2.933 -0.6503  0.0075 -0.4445
 1006MOL0     C38753   3.793   5.660   2.861 -0.5437 -0.6951 -0.9671
 1006MOL0     C38754   3.740   5.792   2.854  0.5375  0.3393  0.1031
 1006MOL0     C38755   3.697   5.905   2.838 -0.1854 -0.3519 -0.6705
 1006MOL0     C38756   3.427   5.560   2.444  0.2945  0.0049  0.3241
 1006MOL0     C38757   3.441   5.540   2.303 -0.3874  0.4434  0.4475
 1006MOL0     C38758   3.450   5.668   2.217 -0.0394  0.0164 -0.6871
 1006MOL0     H38759   3.247   5.099   1.956  0.9620 -1.8338  0.7858
 1006MOL0     H38760   3.283   5.002   1.736 -0.3862  1.2489  0.5086
 1006MOL0     H38761   3.689   4.878   1.616  0.4591  1.9109  2.0240
 1006MOL0     H38762   3.691   5.035   1.529  2.3094 -0.5234 -0.3894
 1006MOL0     H38763   3.536   4.932   1.345 -1.9491 -3.1890 -1.0485
 1006MOL0     H38764   3.702   4.886   1.353  0.0940  0.9916  0.2586
 1006MOL0     H38765   3.589   4.671   1.319 -0.1735 -0.3524 -0.4278
 1006MOL0     H38766   3.590   4.687   1.498  4.3359  2.6510 -1.2068
 1006MOL0     H38767   3.383   4.786   1.496  3.9010  0.0387  1.3670
 1006MOL0     H38768   3.384   4.795   1.316  2.7106  2.4597  0.2064
 1006MOL0     H38769   3.350   4.524   1.463  0.2166  0.0572 -0.2174
 1006MOL0     H38770   3.383   4.547   1.299  0.6499 -2.5418  1.0804
 1006MOL0     H38771   3.140   4.681   1.443 -1.7316 -2.6081  1.3787
 1006MOL0     H38772   3.165   4.694   1.276 -0.1273  1.3556  1.2062
 1006MOL0     H38773   2.979   4.524   1.338  0.2424  0.4076  1.1918
 1006MOL0     H38774   3.109   4.435   1.427  3.8322  0.5145 -0.8229
 1006MOL0     H38775   3.088   4.520   1.140  0.6762  1.5515  0.7815
 1006MOL0     H38776   3.210   4.402   1.201 -1.1980 -0.3103 -1.4884
 1006MOL0     H38777   3.138   4.124   1.220  1.7772  1.6225  1.1434
 1006MOL0     H38778   3.058   3.951   1.077 -0.2603  0.4277 -1.2037
 1006MOL0     H38779   2.951   3.962   0.949  1.5251  0.6137  0.4185
 1006MOL0     H38780   2.882   3.866   1.215  2.8199 -0.7449 -1.0478
 1006MOL0     H38781   2.758   3.985   1.160 -1.0180 -0.1936 -1.4712
 1006MOL0     H38782   2.727   3.829   0.970 -0.6846 -0.0371 -0.0547
 1006MOL0     H38783   2.869   3.744   1.008  1.0911  2.9191 -2.9180
 1006MOL0     H38784   2.747   3.667   1.235 -1.4776 -0.8431  1.2254
 1006MOL0     H38785   2.603   3.755   1.162 -0.6063  0.5283 -0.5918
 1006MOL0     H38786   2.878   3.462   0.979 -1.0104  1.4743 -0.3360
 1006MOL0     H38787   2.990   3.284   0.930 -1.6507  2.0089  0.3447
 1006MOL0     H38788   2.935   3.125   0.986 -1.1093  0.8183 -0.2759
 1006MOL0     H38789   3.056   3.217   1.093  1.6272  2.9936 -1.2019
 1006MOL0     H38790   2.961   2.983   1.513 -0.0619  0.3375  0.4113
 1006MOL0     H38791   3.011   2.729   1.566  0.4256 -0.9787 -0.4903
 1006MOL0     H38792   3.180   2.395   1.353 -4.4078  0.1981 -0.6767
 1006MOL0     H38793   3.236   2.525   1.254  2.3199  0.3820  0.8177
 1006MOL0     H38794   3.235   2.578   1.558  2.3888 -1.5707  0.4976
 1006MOL0     H38795   3.362   2.479   1.496  2.3177  0.5245 -2.4909
 1006MOL0     H38796   3.443   2.693   1.520  2.4574 -1.6616 -2.2473
 1006MOL0     H38797   3.300   2.767   1.442  2.4261  1.1769 -0.9077
 1006MOL0     H38798   3.390   2.699   1.235 -0.1336 -1.4332  0.4657
 1006MOL0     H38799   3.518   2.593   1.315  2.2705  1.1193  2.2727
 1006MOL0     H38800   3.503   2.903   1.331 -0.2902  0.5248  0.4351
 1006MOL0     H38801   3.608   2.793   1.413 -1.6838 -0.1606  0.8714
 1006MOL0     H38802   3.703   2.916   1.202  0.0294  0.3823  4.0987
 1006MOL0     H38803   3.600   2.810   1.105  0.8624  0.7185  0.8753
 1006MOL0     H38804   3.710   2.608   1.192  1.4368 -1.1792  0.1980
 1006MOL0     H38805   3.801   2.699   1.307  1.3819 -1.1205 -1.0363
 1006MOL0     H38806   3.941   2.653   1.139  1.3622  1.6454  1.1269
 1006MOL0     H38807   3.922   2.821   1.113 -1.4702  0.4009  0.1133
 1006MOL0     H38808   3.062   2.689   1.143 -1.4207 -3.1138  2.0174
 1006MOL0     H38809   3.034   2.911   1.101 -1.5164  0.3145  0.2079
 1006MOL0     H38810   2.631   3.244   1.339 -2.0342 -1.7581 -1.9100
 1006MOL0     H38811   2.542   3.457   1.251  2.2754  1.4742  1.7689
 1006MOL0     H38812   3.696   5.098   1.757 -1.7379  2.0291 -0.4574
 1006MOL0     H38813   3.649   5.232   1.959 -1.1441 -0.7896  0.1187
 1006MOL0     H38814   3.492   5.200   2.342 -0.4393 -0.6236  0.0711
 1006MOL0     H38815   3.479   5.254   2.571 -3.4530 -0.5127 -0.3717
 1006MOL0     H38816   3.639   5.431   2.728 -2.3432 -1.9832 -0.7359
 1006MOL0     H38817   3.610   5.601   2.671  0.1229 -1.2349 -1.4511
 1006MOL0     H38818   3.498   5.484   2.925 -2.6886  3.1787 -0.9204
 1006MOL0     H38819   3.527   5.651   2.892 -1.2323 -0.0184 -1.3685
 1006MOL0     H38820   3.704   5.575   3.040 -0.2361 -1.0655 -0.2415
 1006MOL0     H38821   3.754   5.461   2.912  1.2796  1.1504 -1.0072
 1006MOL0     H38822   3.816   5.623   2.760 -0.2758 -0.4850 -0.9850
 1006MOL0     H38823   3.889   5.670   2.912 -1.8582  1.3106  1.3231
 1006MOL0     H38824   3.667   6.008   2.828  1.1483 -0.0614 -2.0432
 1006MOL0     H38825   3.420   5.664   2.475  1.0936 -0.1705  1.1436
 1006MOL0     H38826   3.373   5.664   2.140 -1.8161 -2.8499  1.0302
 1006MOL0     H38827   3.436   5.764   2.267 -2.9518 -1.0355  0.7650
 1006MOL0     H38828   3.547   5.669   2.168  0.1391 -1.2902 -0.4034
 1007MOL0     O38829   7.289   8.306   9.996  0.4250  0.2738 -0.4385
 1007MOL0     C38830   7.203   8.263  10.069 -0.1275 -0.5650  0.2297
 1007MOL0     O38831   7.225   8.174  10.170  0.5429 -0.4894 -0.2840
 1007MOL0     C38832   7.349   8.121  10.173  0.0382 -0.1031  1.2520
 1007MOL0     C38833   7.373   7.988  10.120 -0.7928 -0.0895 -1.1412
 1007MOL0     C38834   7.503   7.929  10.143  0.4461  0.2128  0.3941
 1007MOL0     C38835   7.596   7.991  10.226 -0.5300 -0.7022  1.2085
 1007MOL0     O38836   7.722   7.941  10.257  0.6790  0.1526 -0.2963
 1007MOL0     C38837   7.769   7.819  10.206 -0.2563 -0.8127  0.1662
 1007MOL0     C38838   7.905   7.784  10.251 -0.8502  0.4748 -0.2241
 1007MOL0     C38839   8.014   7.850  10.165 -0.4285 -0.5550 -0.4500
 1007MOL0     C38840   8.028   8.008  10.180 -0.4356  0.2581  0.2692
 1007MOL0     C38841   8.054   8.055  10.327  0.2382 -0.5271 -0.7058
 1007MOL0     C38842   8.117   8.200  10.315 -0.2484 -0.2565  0.1658
 1007MOL0     C38843   8.041   8.309  10.237 -0.3420  0.2744 -0.0795
 1007MOL0     C38844   7.897   8.325  10.294 -0.7748  0.2808  0.4917
 1007MOL0     N38845   7.816   8.419  10.228 -0.0327 -0.0264 -0.1401
 1007MOL0     C38846   7.759   8.429  10.101  0.7033 -0.9370  0.3604
 1007MOL0     C38847   7.714   8.553  10.098  0.3298 -0.3535 -0.4278
 1007MOL0     C38848   7.639   8.629   9.991 -0.0345  0.5145 -0.7093
 1007MOL0     C38849   7.484   8.632  10.029 -0.4260  0.7496  0.5087
 1007MOL0     C38850   7.437   8.690  10.152 -1.0136 -0.6424  0.0866
 1007MOL0     C38851   7.286   8.717  10.148 -0.0443 -0.4831 -0.5500
 1007MOL0     O38852   7.263   8.828  10.049  0.6468  0.0907  0.0152
 1007MOL0     C38853   7.130   8.825  10.018  0.3345  0.5222  0.4774
 1007MOL0     C38854   7.035   8.895  10.075  0.4110  1.0277 -0.9786
 1007MOL0     C38855   6.902   8.889  10.028  0.5861  0.5093  0.1604
 1007MOL0     C38856   6.808   8.969  10.118  0.1978 -0.5575 -0.2923
 1007MOL0     C38857   6.859   8.799   9.930  0.6253 -0.5332 -0.3706
 1007MOL0     C38858   6.719   8.775   9.874  0.3815 -0.6683 -0.3504
 1007MOL0     O38859   6.705   8.723   9.743 -0.7480  0.2211 -0.0079
 1007MOL0     C38860   6.574   8.684   9.712 -0.9950  0.0232  0.5565
 1007MOL0     C38861   6.530   8.551   9.720 -0.0095 -0.7103  0.8700
 1007MOL0     C38862   6.399   8.516   9.673 -0.6824  0.3786 -0.1000
 1007MOL0     C38863   6.308   8.620   9.638 -0.0237  0.1811 -0.5621
 1007MOL0     O38864   6.180   8.607   9.588 -0.7606 -0.1259 -0.1649
 1007MOL0     C38865   6.130   8.479   9.569  0.2854  0.1355 -1.0689
 1007MOL0     C38866   5.987   8.505   9.514 -0.6776 -0.0323  1.0277
 1007MOL0     C38867   5.893   8.388   9.548 -0.1806  0.0423 -0.2846
 1007MOL0     C38868   5.745   8.418   9.521  0.8480  0.0038 -0.0518
 1007MOL0     C38869   5.708   8.390   9.375 -0.0644  0.7523 -1.1324
 1007MOL0     C38870   5.568   8.436   9.339  0.7560  0.3636 -0.0270
 1007MOL0     C38871   5.452   8.383   9.436  0.0697  0.8073 -0.5507
 1007MOL0     C38872   5.319   8.392   9.376  0.4516 -0.4819  0.0843
 1007MOL0    Cl38873   5.186   8.323   9.477 -0.0751  0.7836 -0.0323
 1007MOL0     C38874   6.351   8.756   9.652 -0.8928 -0.5382  0.0200
 1007MOL0     C38875   6.483   8.789   9.683 -0.5520  0.5859  0.4718
 1007MOL0     O38876   6.627   8.798   9.951 -0.5234 -0.4655 -0.0161
 1007MOL0     C38877   6.956   8.720   9.875 -0.1716 -1.1329 -0.2075
 1007MOL0     C38878   7.090   8.736   9.911  0.5388  0.6600  0.1887
 1007MOL0     N38879   7.738   8.616  10.218 -0.3189 -1.3297  0.3236
 1007MOL0     N38880   7.789   8.533  10.296 -0.1393  0.4666 -0.0582
 1007MOL0     C38881   7.575   8.119  10.266  0.1554 -0.7807  0.8378
 1007MOL0     C38882   7.453   8.187  10.234  0.5531  0.1630 -0.4353
 1007MOL0     C38883   7.067   8.316  10.051 -0.6790  0.2524  0.1728
 1007MOL0     C38884   6.977   8.317  10.161 -0.2119  0.0922  0.4698
 1007MOL0     C38885   6.850   8.358  10.142  0.6903  0.1016 -0.0295
 1007MOL0     C38886   6.795   8.378  10.019  0.3807 -1.2662 -0.0983
 1007MOL0     O38887   6.660   8.408  10.000  0.0114  0.4411  0.1752
 1007MOL0     C38888   6.567   8.366  10.104  0.9169  0.0013  0.2938
 1007MOL0     C38889   6.422   8.422  10.062 -0.6506  0.3560 -0.3257
 1007MOL0     C38890   6.328   8.390  10.176  0.3232  0.7027 -0.1840
 1007MOL0     C38891   6.187   8.452  10.176 -0.3028 -0.6459 -0.2030
 1007MOL0     C38892   6.114   8.440  10.305 -0.0396  0.3514 -0.4465
 1007MOL0     C38893   6.059   8.444  10.412  0.8723  0.1505  0.5861
 1007MOL0     C38894   6.876   8.384   9.908  0.8942  1.3345  0.1274
 1007MOL0     C38895   7.012   8.349   9.925 -0.4366 -0.6147  0.9106
 1007MOL0     C38896   7.093   8.368   9.801 -0.6150  0.6704  0.8865
 1007MOL0     H38897   7.295   7.929  10.072 -2.3141  0.6529  0.3041
 1007MOL0     H38898   7.509   7.826  10.110  1.0528  0.6711 -1.0053
 1007MOL0     H38899   7.754   7.828  10.098 -2.2005  2.0849  0.5688
 1007MOL0     H38900   7.699   7.744  10.245 -0.2046  0.2112  2.4080
 1007MOL0     H38901   7.925   7.803  10.357 -2.4084  0.7201  0.0413
 1007MOL0     H38902   7.922   7.677  10.233  1.2031  0.7630 -0.2994
 1007MOL0     H38903   8.108   7.806  10.199 -0.3819  0.8014  1.3337
 1007MOL0     H38904   7.996   7.853  10.057 -2.5394  4.8239 -0.2564
 1007MOL0     H38905   8.094   8.046  10.101  2.0996 -1.7324  1.2693
 1007MOL0     H38906   7.926   8.042  10.158 -0.3725  0.7743  0.7491
 1007MOL0     H38907   8.109   7.980  10.385  1.8165 -0.7151 -2.3409
 1007MOL0     H38908   7.959   8.068  10.380  1.5494  0.2095  1.6012
 1007MOL0     H38909   8.138   8.243  10.414  1.0022  1.6853 -0.8769
 1007MOL0     H38910   8.216   8.195  10.269  0.3367 -2.2035  1.5231
 1007MOL0     H38911   8.045   8.295  10.128 -0.3839  4.5390 -0.8025
 1007MOL0     H38912   8.082   8.410  10.244 -0.1414  0.3442 -1.8198
 1007MOL0     H38913   7.850   8.226  10.293  0.0873 -0.1956  2.0119
 1007MOL0     H38914   7.902   8.354  10.400 -1.2704  3.1376 -0.1962
 1007MOL0     H38915   7.764   8.350  10.027 -0.9483 -3.5134  2.7630
 1007MOL0     H38916   7.652   8.579   9.895  2.4427 -1.1709  0.3921
 1007MOL0     H38917   7.683   8.729   9.988  1.7678 -0.2600 -1.3878
 1007MOL0     H38918   7.438   8.685   9.945  0.3041  1.2789  0.4422
 1007MOL0     H38919   7.447   8.529  10.022  3.1190 -0.7324  1.4323
 1007MOL0     H38920   7.470   8.628  10.236  0.1956 -0.3031 -0.1195
 1007MOL0     H38921   7.466   8.794  10.171 -2.1221 -0.3358  0.1397
 1007MOL0     H38922   7.231   8.624  10.132 -0.4654 -0.0397 -1.8301
 1007MOL0     H38923   7.253   8.761  10.243  0.1245  1.3614 -1.2977
 1007MOL0     H38924   7.064   8.959  10.157 -0.2063 -0.3523  0.3473
 1007MOL0     H38925   6.747   8.907  10.185  0.0728 -1.2216 -1.0102
 1007MOL0     H38926   6.750   9.021  10.042 -0.0167  1.9193  1.4302
 1007MOL0     H38927   6.855   9.058  10.161  2.6800 -1.9588  0.0914
 1007MOL0     H38928   6.610   8.481   9.742  1.4882  1.3832  2.5513
 1007MOL0     H38929   6.367   8.413   9.663  0.1152 -0.0336  1.2551
 1007MOL0     H38930   6.180   8.418   9.492  1.2333 -0.2167 -0.1914
 1007MOL0     H38931   6.134   8.418   9.660  3.6426 -0.0643 -1.2404
 1007MOL0     H38932   5.947   8.601   9.548 -1.5338  2.3502 -5.3126
 1007MOL0     H38933   5.986   8.519   9.405  0.9516 -2.0552  0.7043
 1007MOL0     H38934   5.899   8.387   9.657  1.2014 -0.4869 -0.3347
 1007MOL0     H38935   5.925   8.295   9.498  3.0842 -0.7946  2.9195
 1007MOL0     H38936   5.727   8.522   9.551  0.9322  0.4128 -1.3437
 1007MOL0     H38937   5.678   8.347   9.570  2.0171 -1.8280 -1.0010
 1007MOL0     H38938   5.778   8.448   9.314  0.1461 -0.5991 -2.2210
 1007MOL0     H38939   5.720   8.284   9.351 -2.6055  0.1909 -0.2441
 1007MOL0     H38940   5.552   8.400   9.236 -0.1973 -0.7088  0.4668
 1007MOL0     H38941   5.565   8.545   9.334 -0.7042  0.3641  0.3015
 1007MOL0     H38942   5.471   8.440   9.528 -0.3497 -0.0876  0.1068
 1007MOL0     H38943   5.485   8.281   9.459  2.2632  1.7267  0.7695
 1007MOL0     H38944   5.314   8.344   9.278  0.9106 -2.6567  1.0684
 1007MOL0     H38945   5.301   8.498   9.358  1.2737 -0.1905  0.9265
 1007MOL0     H38946   6.282   8.838   9.635 -0.4202 -0.7132 -3.4653
 1007MOL0     H38947   6.515   8.893   9.683 -1.8151  1.0079 -0.5746
 1007MOL0     H38948   6.924   8.638   9.812 -2.2430  0.1315 -0.9085
 1007MOL0     H38949   7.167   8.672   9.869 -0.6875 -0.7815  0.0842
 1007MOL0     H38950   7.636   8.182  10.330  1.8508 -2.1497  0.6318
 1007MOL0     H38951   7.444   8.290  10.268 -1.8489  0.1703 -0.8849
 1007MOL0     H38952   7.015   8.285  10.258 -0.8335 -2.9390 -0.1865
 1007MOL0     H38953   6.785   8.367  10.229 -1.2951  2.4483 -1.6106
 1007MOL0     H38954   6.558   8.258  10.116 -0.1846 -0.1244 -1.2771
 1007MOL0     H38955   6.595   8.420  10.194 -1.8098  3.8187 -0.8516
 1007MOL0     H38956   6.391   8.391   9.962  1.1411  2.0836 -1.5076
 1007MOL0     H38957   6.431   8.530  10.048  1.3672  0.6584  2.5150
 1007MOL0     H38958   6.318   8.282  10.190 -2.3221  1.0173  1.0619
 1007MOL0     H38959   6.383   8.424  10.264  0.3806  0.7417 -0.2348
 1007MOL0     H38960   6.127   8.415  10.092 -2.1509  1.5535  0.0763
 1007MOL0     H38961   6.194   8.559  10.156 -3.1662 -0.6158 -1.5773
 1007MOL0     H38962   5.989   8.438  10.492 -3.4007 -4.4476 -2.8367
 1007MOL0     H38963   6.825   8.411   9.817  0.8225 -0.0321 -0.2589
 1007MOL0     H38964   7.026   8.381   9.715 -0.2528 -0.4858  0.4174
 1007MOL0     H38965   7.151   8.460   9.811 -1.0865  1.0283  0.4417
 1007MOL0     H38966   7.161   8.283   9.790 -1.6642  0.0431 -1.5142
 1008MOL0     O38967   9.406   8.089  10.264 -0.2561  0.0280 -0.2849
 1008MOL0     C38968   9.448   7.997  10.333 -0.2941 -0.2782 -0.3650
 1008MOL0     O38969   9.509   8.010  10.454 -0.5795  0.3669 -0.0563
 1008MOL0     C38970   9.496   8.121  10.527 -0.8043 -0.5444 -0.4998
 1008MOL0     C38971   9.410   8.121  10.645 -0.0685 -0.2836 -0.5362
 1008MOL0     C38972   9.410   8.232  10.733  0.0846 -0.1835  0.0061
 1008MOL0     C38973   9.498   8.336  10.702  0.2974 -0.7449  0.0973
 1008MOL0     O38974   9.491   8.440  10.804 -0.0061  0.1632  0.2011
 1008MOL0     C38975   9.568   8.558  10.791 -0.1051 -0.1209 -0.0209
 1008MOL0     C38976   9.532   8.654  10.907  0.6444 -0.8822  0.4264
 1008MOL0     C38977   9.619   8.628  11.028  0.3046  1.2666  0.0534
 1008MOL0     C38978   9.611   8.491  11.084 -0.0548  0.2735  0.9952
 1008MOL0     C38979   9.714   8.490  11.194 -0.5794  0.8968 -0.6466
 1008MOL0     C38980   9.724   8.348  11.269  1.1252 -0.1712  0.7963
 1008MOL0     C38981   9.583   8.275  11.297  0.4827  0.2993  0.3206
 1008MOL0     C38982   9.477   8.350  11.369  0.3401 -1.3087  0.1490
 1008MOL0     N38983   9.525   8.416  11.489  0.2058  0.0253 -0.5335
 1008MOL0     C38984   9.539   8.352  11.605  0.2170 -0.4436  0.6088
 1008MOL0     C38985   9.542   8.450  11.705 -0.3713 -0.6006 -0.3578
 1008MOL0     C38986   9.538   8.437  11.856  1.1910 -0.1793 -0.6114
 1008MOL0     C38987   9.669   8.487  11.915  0.7445  0.8428  0.1058
 1008MOL0     C38988   9.643   8.504  12.066 -0.6284 -0.2743  0.4143
 1008MOL0     C38989   9.786   8.521  12.131  0.9383  0.5284  0.4053
 1008MOL0     O38990   9.781   8.564  12.273  0.5638  0.0655 -0.7229
 1008MOL0     C38991   9.860   8.516  12.362  0.4846 -0.4562  0.1318
 1008MOL0     C38992   9.817   8.496  12.492 -0.7686  0.2153 -0.7914
 1008MOL0     C38993   9.891   8.426  12.588  0.0387  0.4431  0.1721
 1008MOL0     C38994   9.844   8.412  12.734  1.0280  0.6131 -0.0711
 1008MOL0     C38995  10.019   8.366  12.554 -0.8680 -0.3197 -0.2847
 1008MOL0     C38996  10.120   8.321  12.647 -0.6818  0.0839 -0.0694
 1008MOL0     O38997  10.196   8.220  12.588  0.1243 -0.6564  0.4361
 1008MOL0     C38998  10.320   8.179  12.641 -0.4092 -0.1174  0.4021
 1008MOL0     C38999  10.412   8.266  12.693  0.7858 -0.1595  0.8028
 1008MOL0     C39000  10.528   8.212  12.744  0.7210 -0.0803  1.0126
 1008MOL0     C39001  10.550   8.075  12.747 -0.5086 -1.2053  0.0317
 1008MOL0     O39002  10.671   8.030  12.795  0.4842  0.0965  0.5560
 1008MOL0     C39003  10.663   7.922  12.877  1.2192  0.1351 -0.8736
 1008MOL0     C39004  10.639   7.966  13.019  0.2702  0.4442  0.1261
 1008MOL0     C39005  10.624   7.861  13.135 -0.6058 -0.4244  0.5150
 1008MOL0     C39006  10.765   7.827  13.185  0.8587 -0.0073  0.4388
 1008MOL0     C39007  10.778   7.696  13.257 -0.1100  0.1525  0.0644
 1008MOL0     C39008  10.918   7.659  13.258 -0.4710  0.6128  0.2164
 1008MOL0     C39009  11.012   7.728  13.372  0.9415 -0.5205  0.1680
 1008MOL0     C39010  11.138   7.658  13.404  0.5430 -0.2778  0.0040
 1008MOL0    Cl39011  11.256   7.692  13.271  0.3372 -0.0113  0.0594
 1008MOL0     C39012  10.468   7.995  12.678  0.1581  0.8180  0.4568
 1008MOL0     C39013  10.350   8.045  12.618 -0.2167 -0.0274 -0.2539
 1008MOL0     O39014  10.132   8.367  12.756 -0.4784 -0.2899 -0.5178
 1008MOL0     C39015  10.065   8.389  12.420  0.1469  0.5025 -0.6745
 1008MOL0     C39016   9.983   8.463  12.329  1.0923  0.0096 -0.3867
 1008MOL0     N39017   9.548   8.569  11.632 -0.3806  0.0661 -0.3445
 1008MOL0     N39018   9.538   8.544  11.507 -0.9654 -0.6993 -1.1348
 1008MOL0     C39019   9.569   8.340  10.580 -1.3047 -0.3392 -0.5170
 1008MOL0     C39020   9.568   8.234  10.492 -0.0649 -0.6093 -0.1968
 1008MOL0     C39021   9.460   7.865  10.255  0.3545 -0.2947  0.7382
 1008MOL0     C39022   9.382   7.827  10.149  0.4301 -0.2591 -0.0223
 1008MOL0     C39023   9.400   7.709  10.068 -0.4159 -0.7097 -0.3840
 1008MOL0     C39024   9.504   7.625  10.097  0.2156  0.4723  0.7159
 1008MOL0     O39025   9.523   7.517  10.017 -1.4781 -0.0411 -0.2956
 1008MOL0     C39026   9.660   7.523   9.969  0.6043 -0.6651 -0.7050
 1008MOL0     C39027   9.675   7.451   9.833  0.3833 -0.5886 -0.6151
 1008MOL0     C39028   9.571   7.498   9.721  0.0740 -0.3601 -0.3313
 1008MOL0     C39029   9.605   7.641   9.670  0.0598  0.4366  1.6285
 1008MOL0     C39030   9.485   7.721   9.626 -0.4216 -0.5416 -0.3455
 1008MOL0     C39031   9.405   7.809   9.604 -0.2471  0.1498  0.5611
 1008MOL0     C39032   9.578   7.649  10.214 -1.0560  0.7740  0.2311
 1008MOL0     C39033   9.555   7.761  10.292 -0.6820  0.4166 -0.0421
 1008MOL0     C39034   9.660   7.779  10.394  0.5815  0.4716 -0.4212
 1008MOL0     H39035   9.359   8.031  10.679 -0.5718  0.6498  1.2420
 1008MOL0     H39036   9.346   8.220  10.820 -0.2772 -2.8484 -0.5466
 1008MOL0     H39037   9.545   8.615  10.701  1.3110  0.7263  0.1189
 1008MOL0     H39038   9.677   8.546  10.796  0.2203  2.1672 -0.6226
 1008MOL0     H39039   9.562   8.753  10.873  0.1952 -1.0427 -0.4603
 1008MOL0     H39040   9.425   8.654  10.927  0.5583 -1.2028 -0.0196
 1008MOL0     H39041   9.721   8.659  11.003 -0.3168  2.8794 -0.6220
 1008MOL0     H39042   9.596   8.695  11.111 -1.9811 -0.7303  1.1281
 1008MOL0     H39043   9.507   8.466  11.107 -0.7229  0.3325 -1.6562
 1008MOL0     H39044   9.639   8.418  11.008 -1.8336 -0.5934  1.1205
 1008MOL0     H39045   9.685   8.558  11.274 -2.2600 -1.8326  1.2618
 1008MOL0     H39046   9.810   8.512  11.148 -0.0081 -0.6207 -0.2502
 1008MOL0     H39047   9.770   8.277  11.199  0.6330 -1.8491  2.1140
 1008MOL0     H39048   9.785   8.358  11.358 -0.9254 -0.3024  2.2912
 1008MOL0     H39049   9.597   8.181  11.350 -0.1941 -1.4368 -2.3797
 1008MOL0     H39050   9.534   8.253  11.202 -0.9544 -0.9926  1.3165
 1008MOL0     H39051   9.450   8.436  11.307  1.8806 -0.8347  0.0960
 1008MOL0     H39052   9.388   8.287  11.377  1.0427 -2.6071 -1.7223
 1008MOL0     H39053   9.535   8.243  11.612  2.8092 -0.8815 -2.5500
 1008MOL0     H39054   9.533   8.337  11.899 -1.1565  0.8836  1.9148
 1008MOL0     H39055   9.446   8.481  11.894  0.5274 -1.4875 -0.6400
 1008MOL0     H39056   9.748   8.415  11.892 -0.0587  1.0082 -3.7973
 1008MOL0     H39057   9.690   8.582  11.865 -3.2176  1.9598  0.1933
 1008MOL0     H39058   9.579   8.591  12.082 -0.2511  0.3932 -1.4356
 1008MOL0     H39059   9.593   8.414  12.105 -0.1756  0.6449  3.3591
 1008MOL0     H39060   9.843   8.428  12.124 -1.0842 -0.8186  0.8256
 1008MOL0     H39061   9.839   8.600  12.078  2.0978  1.3767  2.6857
 1008MOL0     H39062   9.721   8.537  12.523 -1.0722 -0.2435 -1.0970
 1008MOL0     H39063   9.849   8.507  12.788  1.5778  0.3772  0.3023
 1008MOL0     H39064   9.892   8.331  12.789  4.1742  0.9271 -2.1150
 1008MOL0     H39065   9.738   8.385  12.743  1.5176 -2.4394 -1.9747
 1008MOL0     H39066  10.383   8.370  12.689  0.0151 -0.3661 -2.4903
 1008MOL0     H39067  10.592   8.290  12.784 -1.6610  2.9509 -0.6574
 1008MOL0     H39068  10.584   7.854  12.842  1.3684 -0.5367  0.0437
 1008MOL0     H39069  10.755   7.863  12.869  0.1317 -2.1011  1.5154
 1008MOL0     H39070  10.718   8.040  13.032  2.3270 -1.0280 -2.9088
 1008MOL0     H39071  10.548   8.027  13.016  1.6303  2.5308 -0.9558
 1008MOL0     H39072  10.586   7.771  13.086  0.2045 -0.5475  0.0799
 1008MOL0     H39073  10.559   7.901  13.213  2.9321  0.6427  3.2069
 1008MOL0     H39074  10.792   7.908  13.253  1.2272  2.3599 -2.3260
 1008MOL0     H39075  10.831   7.829  13.097 -2.0849 -0.6212 -1.9619
 1008MOL0     H39076  10.729   7.716  13.353 -2.1821  1.5353 -1.2074
 1008MOL0     H39077  10.709   7.637  13.196 -1.4156  0.3371  1.2939
 1008MOL0     H39078  10.970   7.693  13.168  1.0795  0.0445  0.8542
 1008MOL0     H39079  10.910   7.550  13.268 -3.4216  0.7098 -0.1231
 1008MOL0     H39080  10.949   7.730  13.462 -0.6729  1.3159 -0.9313
 1008MOL0     H39081  11.047   7.830  13.353  2.9651 -0.6311  2.6942
 1008MOL0     H39082  11.131   7.549  13.410  1.5135 -0.3465  0.1903
 1008MOL0     H39083  11.172   7.694  13.502 -1.0731  0.0439  0.4792
 1008MOL0     H39084  10.496   7.890  12.673  0.0701  0.8232 -0.2944
 1008MOL0     H39085  10.282   7.981  12.562  0.1009 -2.3075  1.7985
 1008MOL0     H39086  10.164   8.354  12.392  1.5172  1.7715  2.1497
 1008MOL0     H39087  10.018   8.466  12.227 -0.3582  2.1285 -0.8780
 1008MOL0     H39088   9.648   8.413  10.566 -0.5141 -0.9258  0.6682
 1008MOL0     H39089   9.630   8.243  10.403  3.9452  0.3034  2.4201
 1008MOL0     H39090   9.295   7.885  10.119 -0.6492 -1.2735  1.0337
 1008MOL0     H39091   9.333   7.697   9.984 -0.1730  1.1619 -0.9067
 1008MOL0     H39092   9.697   7.626   9.973  1.7787 -1.0780 -0.4133
 1008MOL0     H39093   9.718   7.455  10.033  0.4119 -1.3058 -1.1916
 1008MOL0     H39094   9.668   7.343   9.849  1.8930 -0.5325  0.7517
 1008MOL0     H39095   9.778   7.460   9.797  0.2650  1.3794 -0.5493
 1008MOL0     H39096   9.591   7.423   9.643  3.1178 -0.9132  0.8283
 1008MOL0     H39097   9.472   7.483   9.765 -0.0343  1.5367  0.1254
 1008MOL0     H39098   9.677   7.633   9.587  0.4627 -2.3148  2.1273
 1008MOL0     H39099   9.639   7.700   9.755 -0.9563  0.7385  1.8275
 1008MOL0     H39100   9.332   7.886   9.589 -1.6876 -1.5663 -1.8363
 1008MOL0     H39101   9.660   7.578  10.225 -0.8651  0.6238 -1.7946
 1008MOL0     H39102   9.721   7.866  10.368 -0.0436  0.4837 -1.9322
 1008MOL0     H39103   9.608   7.795  10.489 -1.8849  1.5612 -1.8475
 1008MOL0     H39104   9.721   7.691  10.414 -2.5250 -1.1000  3.4969
 1009MOL0     O39105   0.326   5.675   5.438 -0.1053 -0.4745  0.1059
 1009MOL0     C39106   0.397   5.571   5.445  0.1214 -0.5033  0.2724
 1009MOL0     O39107   0.495   5.549   5.548  0.3400 -0.2215  0.1332
 1009MOL0     C39108   0.490   5.637   5.649  0.2301  0.1418  0.5261
 1009MOL0     C39109   0.410   5.619   5.759 -0.0865  0.3010  0.2216
 1009MOL0     C39110   0.400   5.718   5.864  0.3816  0.1038  0.3856
 1009MOL0     C39111   0.465   5.835   5.850  0.3860 -0.5472  0.0774
 1009MOL0     O39112   0.457   5.931   5.949 -0.3810  0.1719  1.1805
 1009MOL0     C39113   0.439   6.067   5.922 -0.4228  0.1019  0.0569
 1009MOL0     C39114   0.502   6.167   6.020  0.3053 -0.0358 -0.3476
 1009MOL0     C39115   0.479   6.311   5.971 -0.4113  1.0977 -0.4804
 1009MOL0     C39116   0.591   6.357   5.869  0.3529 -1.1077 -0.4784
 1009MOL0     C39117   0.533   6.493   5.828 -0.7906 -0.1785 -0.4725
 1009MOL0     C39118   0.635   6.584   5.741 -0.9785  0.8136 -0.2165
 1009MOL0     C39119   0.772   6.623   5.814  0.6199  0.1999  0.6264
 1009MOL0     C39120   0.752   6.714   5.940 -0.3395 -0.3956  0.0939
 1009MOL0     N39121   0.867   6.766   6.009 -0.9620  0.9584 -0.2431
 1009MOL0     C39122   0.868   6.838   6.123 -0.1291 -0.1713 -0.7394
 1009MOL0     C39123   1.007   6.855   6.148  1.1589 -0.1290 -0.1067
 1009MOL0     C39124   1.084   6.916   6.265  0.1922 -0.2419 -1.4857
 1009MOL0     C39125   1.104   7.067   6.254 -0.1613  0.1051  0.1223
 1009MOL0     C39126   0.995   7.146   6.178 -0.7543  0.1660 -0.6066
 1009MOL0     C39127   1.020   7.295   6.199  0.0177 -0.5048  0.0926
 1009MOL0     O39128   0.937   7.347   6.087 -0.3842 -0.0062 -0.2838
 1009MOL0     C39129   0.998   7.425   5.995 -0.5909  0.9349 -0.0612
 1009MOL0     C39130   0.960   7.401   5.866  0.8714  1.0723  1.4693
 1009MOL0     C39131   1.038   7.453   5.760 -0.0642 -0.5185  0.2006
 1009MOL0     C39132   1.027   7.389   5.625  0.2065 -0.1301 -0.0190
 1009MOL0     C39133   1.140   7.553   5.785 -0.5940  0.1871  0.0331
 1009MOL0     C39134   1.216   7.617   5.681  0.3608 -0.0532 -0.9640
 1009MOL0     O39135   1.351   7.635   5.713  0.3937 -0.6672  0.1572
 1009MOL0     C39136   1.437   7.660   5.610 -0.7600  0.0290  0.0864
 1009MOL0     C39137   1.457   7.786   5.563  0.1156  0.1219 -0.7338
 1009MOL0     C39138   1.552   7.822   5.473 -0.2481 -0.1589  0.6962
 1009MOL0     C39139   1.641   7.729   5.420  0.1786 -0.5273  0.7318
 1009MOL0     O39140   1.736   7.766   5.327 -0.3570  0.6529 -0.6646
 1009MOL0     C39141   1.678   7.815   5.206  0.3535  0.9444  0.2155
 1009MOL0     C39142   1.794   7.833   5.109  0.1140  0.1630 -0.5885
 1009MOL0     C39143   1.765   7.907   4.981 -0.5744 -0.5578  0.0227
 1009MOL0     C39144   1.897   7.962   4.926 -0.5658 -0.5397  0.5951
 1009MOL0     C39145   1.877   8.032   4.785 -0.3923  0.1536  0.3628
 1009MOL0     C39146   1.998   8.117   4.734 -0.0770  0.6510 -0.2396
 1009MOL0     C39147   1.981   8.184   4.601 -0.0506  1.2459  0.9557
 1009MOL0     C39148   2.109   8.199   4.512 -0.1530 -0.0863  0.4895
 1009MOL0    Cl39149   2.154   8.047   4.444  0.4102  0.1122  0.2346
 1009MOL0     C39150   1.630   7.600   5.469 -0.6719 -0.6214 -0.2875
 1009MOL0     C39151   1.535   7.570   5.564 -1.3838  0.8165 -0.4583
 1009MOL0     O39152   1.157   7.648   5.571  0.3497  0.2261  0.5744
 1009MOL0     C39153   1.169   7.578   5.926 -0.3664 -1.1826  0.3101
 1009MOL0     C39154   1.091   7.519   6.032 -0.1494  0.5553  0.5678
 1009MOL0     N39155   1.068   6.800   6.027  0.1420 -0.0117 -0.3694
 1009MOL0     N39156   0.985   6.755   5.945 -0.4049 -0.2878 -0.7648
 1009MOL0     C39157   0.542   5.859   5.735 -0.3625 -0.4877  0.1674
 1009MOL0     C39158   0.547   5.763   5.634 -0.5119  0.0192 -0.6608
 1009MOL0     C39159   0.368   5.472   5.340 -0.4561 -0.1646  0.0273
 1009MOL0     C39160   0.257   5.481   5.251 -0.3557  0.1891 -0.2079
 1009MOL0     C39161   0.229   5.391   5.155  0.3850  0.5320  0.0214
 1009MOL0     C39162   0.319   5.280   5.133  0.2510  0.1312  0.4021
 1009MOL0     O39163   0.312   5.185   5.031  0.1573  0.5994 -0.1634
 1009MOL0     C39164   0.205   5.199   4.933  0.8138  0.0635 -0.2889
 1009MOL0     C39165   0.242   5.101   4.820  0.4769  0.3127 -0.1576
 1009MOL0     C39166   0.222   4.947   4.862  0.7891  0.0901  0.8178
 1009MOL0     C39167   0.119   4.870   4.774 -0.4271  0.3335 -0.6065
 1009MOL0     C39168  -0.021   4.902   4.803  0.4052 -0.4051  0.4876
 1009MOL0     C39169  -0.140   4.921   4.805 -0.2934  0.2826  0.4699
 1009MOL0     C39170   0.435   5.273   5.211  0.8525 -0.0802 -0.3739
 1009MOL0     C39171   0.460   5.365   5.309  0.7788  0.0778 -0.1431
 1009MOL0     C39172   0.602   5.339   5.380  1.0814  0.3733  0.1097
 1009MOL0     H39173   0.341   5.537   5.777 -1.1680  1.0361 -0.4589
 1009MOL0     H39174   0.351   5.688   5.956  0.9676 -1.8867  0.1004
 1009MOL0     H39175   0.333   6.094   5.913  0.1894  3.6171  1.5174
 1009MOL0     H39176   0.475   6.092   5.822 -4.3294 -0.7266 -1.7500
 1009MOL0     H39177   0.447   6.165   6.115 -0.3879  1.1689 -0.7000
 1009MOL0     H39178   0.608   6.150   6.042 -0.0007  0.1390  1.3865
 1009MOL0     H39179   0.381   6.330   5.925 -0.2893  6.3837  0.9035
 1009MOL0     H39180   0.481   6.376   6.059  1.9618 -3.0610  2.9181
 1009MOL0     H39181   0.685   6.378   5.920 -1.8308 -0.0340  3.5596
 1009MOL0     H39182   0.601   6.283   5.789  0.4736  0.3434 -1.8686
 1009MOL0     H39183   0.490   6.545   5.913  1.3805  1.4163 -0.2699
 1009MOL0     H39184   0.451   6.483   5.756 -1.3816 -1.1944  0.3185
 1009MOL0     H39185   0.665   6.535   5.648 -0.4560 -0.2986  0.5128
 1009MOL0     H39186   0.579   6.674   5.713  1.3409  2.2192 -0.5663
 1009MOL0     H39187   0.836   6.676   5.743  0.1307 -1.3382 -1.0608
 1009MOL0     H39188   0.824   6.530   5.840 -0.0548 -0.0411  1.1641
 1009MOL0     H39189   0.686   6.800   5.925 -0.0417 -0.3901 -1.3790
 1009MOL0     H39190   0.711   6.642   6.011 -0.3946 -0.0866  0.3804
 1009MOL0     H39191   0.776   6.865   6.174  0.9483  1.4188  0.4773
 1009MOL0     H39192   1.180   6.866   6.281 -1.4508 -3.5896 -1.1605
 1009MOL0     H39193   1.029   6.899   6.358  2.4962  0.6782  0.1323
 1009MOL0     H39194   1.119   7.098   6.358 -0.3066  1.9391 -0.3592
 1009MOL0     H39195   1.200   7.079   6.202  1.0464 -1.9916  1.7094
 1009MOL0     H39196   0.990   7.111   6.075  2.4417  1.2178 -1.2238
 1009MOL0     H39197   0.906   7.126   6.238  0.2675  1.6497  1.5335
 1009MOL0     H39198   0.983   7.336   6.293  0.9750  0.2853  0.1396
 1009MOL0     H39199   1.125   7.324   6.191 -1.0662  3.7239 -1.0495
 1009MOL0     H39200   0.879   7.332   5.847  0.6949  1.5192  0.5078
 1009MOL0     H39201   0.976   7.294   5.642 -0.8537  0.1390 -1.5081
 1009MOL0     H39202   1.129   7.372   5.588  0.0640 -3.3294  0.7575
 1009MOL0     H39203   0.966   7.452   5.560 -0.8276 -0.9412  0.1447
 1009MOL0     H39204   1.401   7.867   5.607  2.2765  0.4192  1.7250
 1009MOL0     H39205   1.574   7.921   5.434 -2.6233 -1.1682 -3.8419
 1009MOL0     H39206   1.604   7.740   5.177  0.4908  0.9426 -0.1431
 1009MOL0     H39207   1.631   7.912   5.225  0.1200  0.8772 -0.0053
 1009MOL0     H39208   1.868   7.894   5.162  1.9005 -1.1507 -1.4825
 1009MOL0     H39209   1.829   7.731   5.090 -2.7427 -1.1827  0.7218
 1009MOL0     H39210   1.693   7.986   5.007  1.4010  0.4519  2.8258
 1009MOL0     H39211   1.722   7.835   4.910  0.9122 -1.3392 -0.1110
 1009MOL0     H39212   1.950   7.868   4.912 -1.9922 -1.3133  0.1492
 1009MOL0     H39213   1.951   8.029   4.993 -2.3716  2.1296 -0.4340
 1009MOL0     H39214   1.848   7.961   4.707  2.3549  1.3816 -1.9545
 1009MOL0     H39215   1.797   8.105   4.804  0.3072  1.6968 -2.2309
 1009MOL0     H39216   2.086   8.054   4.718 -0.6928 -0.1202 -0.6551
 1009MOL0     H39217   2.025   8.195   4.806 -0.8841 -0.2559  1.0933
 1009MOL0     H39218   1.937   8.280   4.628 -0.2459  0.7666  2.4072
 1009MOL0     H39219   1.908   8.128   4.543 -0.1311 -0.6994  2.8224
 1009MOL0     H39220   2.183   8.249   4.574 -3.0430  3.4905  1.4304
 1009MOL0     H39221   2.087   8.274   4.435 -1.5237  0.6301  1.5247
 1009MOL0     H39222   1.708   7.527   5.447  2.5412  1.1694  3.7488
 1009MOL0     H39223   1.539   7.470   5.606  2.3605  0.3102 -1.6184
 1009MOL0     H39224   1.242   7.657   5.940 -0.6679 -1.0806  1.4489
 1009MOL0     H39225   1.114   7.553   6.132 -0.0510  2.4280 -0.0620
 1009MOL0     H39226   0.606   5.944   5.716 -0.5686 -0.7593 -1.9171
 1009MOL0     H39227   0.601   5.778   5.540  2.8447 -0.5497  1.0227
 1009MOL0     H39228   0.198   5.572   5.263 -0.3551  0.5802 -2.7217
 1009MOL0     H39229   0.138   5.412   5.099 -0.2869  2.4379  1.6915
 1009MOL0     H39230   0.104   5.178   4.969  1.2580  0.0272  0.9832
 1009MOL0     H39231   0.203   5.303   4.900  0.6191  0.6328  1.4083
 1009MOL0     H39232   0.347   5.117   4.794  1.2530  1.1605  3.0526
 1009MOL0     H39233   0.188   5.113   4.726  3.1736 -1.6506 -2.0913
 1009MOL0     H39234   0.318   4.896   4.846  0.5532  0.6502 -3.6548
 1009MOL0     H39235   0.196   4.944   4.968 -0.0861  2.1267  0.6977
 1009MOL0     H39236   0.137   4.764   4.797  0.1617 -0.4683 -4.1256
 1009MOL0     H39237   0.133   4.878   4.666 -1.6695 -0.7288 -0.8768
 1009MOL0     H39238  -0.246   4.935   4.806 -0.2891  0.8429 -1.6997
 1009MOL0     H39239   0.507   5.196   5.189  0.2132 -0.2899 -1.8051
 1009MOL0     H39240   0.663   5.272   5.319  1.9409  0.9576  0.3001
 1009MOL0     H39241   0.651   5.437   5.383 -1.1802  1.5412  1.1152
 1009MOL0     H39242   0.600   5.296   5.481  2.8409 -0.3769 -0.1480
 1010MOL0     O39243  10.356   8.636   7.488 -0.3557 -0.4252  0.7462
 1010MOL0     C39244  10.288   8.541   7.497 -0.6556  0.0774 -0.8526
 1010MOL0     O39245  10.322   8.416   7.455 -0.3161  1.1279 -0.2336
 1010MOL0     C39246  10.444   8.385   7.392 -0.4984 -0.1574  0.0717
 1010MOL0     C39247  10.496   8.475   7.301  0.2451 -0.6215 -0.1035
 1010MOL0     C39248  10.623   8.448   7.248 -0.0893  0.0935  0.0325
 1010MOL0     C39249  10.689   8.319   7.263 -0.4460  0.4429 -0.0714
 1010MOL0     O39250  10.802   8.292   7.185  0.6184 -0.7151 -0.2850
 1010MOL0     C39251  10.890   8.191   7.250 -0.4978 -0.6534 -0.7053
 1010MOL0     C39252  11.000   8.170   7.154 -0.0091  0.0492 -0.7874
 1010MOL0     C39253  11.100   8.065   7.208  0.4606  0.4175  0.0215
 1010MOL0     C39254  11.187   8.109   7.324  0.6353 -0.6407 -0.3894
 1010MOL0     C39255  11.312   8.023   7.331  0.1811 -0.3831  0.5953
 1010MOL0     C39256  11.408   8.055   7.445  0.1554  0.3987 -0.4163
 1010MOL0     C39257  11.513   7.941   7.457 -0.6137 -0.8381  0.4870
 1010MOL0     C39258  11.460   7.803   7.495 -0.0161  0.0331 -0.2631
 1010MOL0     N39259  11.563   7.709   7.532 -0.3908 -0.0920 -0.0617
 1010MOL0     C39260  11.596   7.601   7.452  0.4711  1.1417 -1.3162
 1010MOL0     C39261  11.679   7.520   7.534  0.7852 -0.5158 -0.0765
 1010MOL0     C39262  11.768   7.402   7.484  0.2742 -0.8293  0.1583
 1010MOL0     C39263  11.695   7.316   7.393 -0.5296  0.2922  1.0138
 1010MOL0     C39264  11.743   7.173   7.409  0.4718 -0.0463 -0.1670
 1010MOL0     C39265  11.658   7.071   7.331 -0.2056  0.1708  0.2394
 1010MOL0     O39266  11.734   6.951   7.354 -0.2330 -0.2602 -0.0945
 1010MOL0     C39267  11.712   6.844   7.259 -0.2896 -0.3628  0.8033
 1010MOL0     C39268  11.781   6.723   7.270 -1.3928  0.4646  0.0052
 1010MOL0     C39269  11.780   6.617   7.170 -0.3885 -0.5317 -0.4782
 1010MOL0     C39270  11.870   6.491   7.193 -0.2145 -0.4788  0.4817
 1010MOL0     C39271  11.688   6.630   7.065 -0.0261  0.2668  0.4212
 1010MOL0     C39272  11.690   6.545   6.946 -0.0059  0.5112 -0.1163
 1010MOL0     O39273  11.598   6.576   6.852  0.9944 -0.1915  0.0682
 1010MOL0     C39274  11.582   6.492   6.746 -0.9516  0.1708 -0.0390
 1010MOL0     C39275  11.458   6.455   6.713  0.1548 -0.3563  0.9369
 1010MOL0     C39276  11.424   6.364   6.612  0.0057 -1.1763  1.1032
 1010MOL0     C39277  11.526   6.308   6.534 -0.6308 -0.4268  0.1056
 1010MOL0     O39278  11.499   6.230   6.423  0.2902  0.7521  0.0659
 1010MOL0     C39279  11.572   6.242   6.302 -0.5391 -0.5749  0.1460
 1010MOL0     C39280  11.512   6.168   6.184  0.1656  0.4834 -1.2699
 1010MOL0     C39281  11.573   6.206   6.055  0.3158 -0.7912  0.1673
 1010MOL0     C39282  11.552   6.115   5.945  0.3725  0.1665  0.7720
 1010MOL0     C39283  11.411   6.064   5.925  0.3979 -0.0519 -0.3332
 1010MOL0     C39284  11.311   6.190   5.892 -0.2828 -0.3763 -0.6758
 1010MOL0     C39285  11.160   6.158   5.856 -0.4217  0.0785 -0.1279
 1010MOL0     C39286  11.083   6.107   5.977 -0.3093  0.5708  0.3328
 1010MOL0    Cl39287  10.914   6.055   5.936 -0.5471  0.7231 -0.2234
 1010MOL0     C39288  11.659   6.352   6.562 -0.1162  0.2778 -0.0226
 1010MOL0     C39289  11.687   6.447   6.661 -0.1247  0.4650  1.1485
 1010MOL0     O39290  11.775   6.458   6.941 -0.1437 -0.0207  0.4805
 1010MOL0     C39291  11.608   6.739   7.060 -0.4480  0.0647 -0.3031
 1010MOL0     C39292  11.624   6.848   7.152 -0.6882  0.2300 -0.6027
 1010MOL0     N39293  11.698   7.582   7.656  0.1435  0.1563 -0.5888
 1010MOL0     N39294  11.629   7.693   7.652  0.2462  0.1141 -0.1090
 1010MOL0     C39295  10.622   8.226   7.343  0.3588  0.5129  1.1119
 1010MOL0     C39296  10.498   8.265   7.412 -0.1961  0.3841 -1.0999
 1010MOL0     C39297  10.148   8.572   7.547  0.1262  0.1114  0.0347
 1010MOL0     C39298  10.129   8.682   7.640  0.2105  0.2666  0.7044
 1010MOL0     C39299  10.010   8.727   7.683 -0.0088 -1.3286 -0.7957
 1010MOL0     C39300   9.895   8.661   7.635  0.6800 -0.4201  0.0159
 1010MOL0     O39301   9.777   8.691   7.705 -0.2461 -0.4282 -0.4269
 1010MOL0     C39302   9.673   8.592   7.730 -0.5378 -0.1950  0.0402
 1010MOL0     C39303   9.599   8.622   7.858 -0.3049  0.3046 -0.2445
 1010MOL0     C39304   9.529   8.759   7.850  0.1721  0.2840  0.3064
 1010MOL0     C39305   9.471   8.796   7.990  0.3688  0.0440  1.2724
 1010MOL0     C39306   9.406   8.921   7.982 -0.3365  0.0315 -0.3111
 1010MOL0     C39307   9.373   9.034   7.957  0.1487  0.3673  0.2074
 1010MOL0     C39308   9.907   8.549   7.546 -0.4516 -0.5648  0.0608
 1010MOL0     C39309  10.033   8.512   7.501 -0.4195  0.5490  0.2891
 1010MOL0     C39310  10.040   8.413   7.394  0.0376  0.3231  1.2186
 1010MOL0     H39311  10.450   8.571   7.281 -2.4095 -1.4308  1.6503
 1010MOL0     H39312  10.671   8.522   7.185  0.6379  1.7574  2.4023
 1010MOL0     H39313  10.836   8.097   7.267  0.0136 -0.4009  3.2342
 1010MOL0     H39314  10.933   8.218   7.346  0.3484 -2.3124 -0.5869
 1010MOL0     H39315  10.957   8.135   7.060  1.0333 -1.5665 -0.6974
 1010MOL0     H39316  11.057   8.261   7.131  0.6214  0.4775  2.0516
 1010MOL0     H39317  11.046   7.973   7.232  2.5501 -0.5167  1.3705
 1010MOL0     H39318  11.163   8.044   7.122  1.5604  0.0833  0.8937
 1010MOL0     H39319  11.235   8.204   7.298  2.2245 -0.4587  2.7820
 1010MOL0     H39320  11.136   8.118   7.420  0.9755 -0.4687 -0.2272
 1010MOL0     H39321  11.359   8.026   7.233  0.5661 -1.8810  0.6993
 1010MOL0     H39322  11.273   7.921   7.340 -0.6677 -0.7616 -4.6062
 1010MOL0     H39323  11.449   8.152   7.416 -1.0042  0.2941 -2.6183
 1010MOL0     H39324  11.342   8.054   7.532 -2.1897  0.3319 -2.1213
 1010MOL0     H39325  11.592   7.970   7.527 -0.3470 -2.1072  0.7327
 1010MOL0     H39326  11.551   7.931   7.355 -3.0528  0.1853 -0.5959
 1010MOL0     H39327  11.395   7.820   7.581  3.2094  2.8282  1.9035
 1010MOL0     H39328  11.402   7.766   7.410 -0.5801  0.9292 -0.2848
 1010MOL0     H39329  11.579   7.578   7.347  2.6072 -0.4530 -1.3889
 1010MOL0     H39330  11.797   7.356   7.578  1.2621  1.4354  1.0238
 1010MOL0     H39331  11.856   7.447   7.436 -1.0173  0.0502 -1.5277
 1010MOL0     H39332  11.588   7.325   7.417 -0.6532  2.1856 -0.0942
 1010MOL0     H39333  11.712   7.336   7.287  0.8033  1.9462  1.5108
 1010MOL0     H39334  11.848   7.167   7.377  0.9005  1.8859  0.6789
 1010MOL0     H39335  11.736   7.148   7.515  0.7791  1.4974  0.2451
 1010MOL0     H39336  11.552   7.072   7.360 -0.0837 -0.6273  0.7341
 1010MOL0     H39337  11.659   7.106   7.227 -3.0949  0.1986  0.1209
 1010MOL0     H39338  11.839   6.702   7.360 -1.8332 -1.2224 -0.0708
 1010MOL0     H39339  11.824   6.392   7.187 -0.5805 -0.3684  1.2479
 1010MOL0     H39340  11.933   6.504   7.281  0.0223 -0.8680  0.3673
 1010MOL0     H39341  11.940   6.471   7.112 -1.2633 -0.0430 -0.5716
 1010MOL0     H39342  11.372   6.496   6.766 -0.5861  1.3814 -1.4310
 1010MOL0     H39343  11.319   6.358   6.584  0.8446  0.1742 -3.0825
 1010MOL0     H39344  11.574   6.349   6.283 -0.9336 -1.1236 -3.8355
 1010MOL0     H39345  11.677   6.209   6.308  0.4697  1.7744 -2.4143
 1010MOL0     H39346  11.511   6.060   6.203 -1.9210  0.5776 -0.5608
 1010MOL0     H39347  11.406   6.192   6.177  0.3735  3.1470  2.1524
 1010MOL0     H39348  11.681   6.216   6.046  0.5604 -0.5687  2.7124
 1010MOL0     H39349  11.528   6.299   6.020  2.8794 -0.7596 -3.6263
 1010MOL0     H39350  11.621   6.032   5.962 -0.3967 -0.5443  0.4680
 1010MOL0     H39351  11.578   6.165   5.851 -1.4646  1.3734  0.8550
 1010MOL0     H39352  11.410   5.993   5.842 -0.9416  0.8090 -1.0866
 1010MOL0     H39353  11.381   6.014   6.017 -2.2487  3.7666  1.1677
 1010MOL0     H39354  11.360   6.254   5.817 -2.9767  0.2443 -2.0644
 1010MOL0     H39355  11.301   6.258   5.977 -3.5892 -0.4981 -0.8447
 1010MOL0     H39356  11.160   6.078   5.781  0.1335  1.3909 -1.5903
 1010MOL0     H39357  11.109   6.247   5.818 -2.6340 -1.1230 -0.1598
 1010MOL0     H39358  11.078   6.174   6.063 -1.0245 -0.3484  1.0333
 1010MOL0     H39359  11.147   6.024   6.008 -0.9097  0.2960  0.8655
 1010MOL0     H39360  11.732   6.336   6.484  1.6324 -0.7532  1.7326
 1010MOL0     H39361  11.791   6.476   6.673 -0.9999  3.7181  2.1524
 1010MOL0     H39362  11.528   6.750   6.988 -1.5670  1.5363  1.0676
 1010MOL0     H39363  11.565   6.938   7.141 -0.6770  1.3384  5.1340
 1010MOL0     H39364  10.646   8.122   7.361  1.5914  0.7692  1.0647
 1010MOL0     H39365  10.453   8.205   7.491  1.5193  0.1550 -0.2604
 1010MOL0     H39366  10.224   8.717   7.678  0.7451 -1.5853  1.1796
 1010MOL0     H39367   9.998   8.809   7.753 -2.2215 -0.7659 -1.7459
 1010MOL0     H39368   9.608   8.594   7.642  3.0094  2.9116 -2.8615
 1010MOL0     H39369   9.720   8.494   7.738  2.1190  0.8787 -1.2638
 1010MOL0     H39370   9.669   8.621   7.942 -0.8823 -3.5837  0.3691
 1010MOL0     H39371   9.532   8.540   7.883 -0.8814  1.2269  1.3931
 1010MOL0     H39372   9.607   8.828   7.818  0.8311 -0.2622  0.7168
 1010MOL0     H39373   9.457   8.753   7.768  0.1223  0.0394  0.3685
 1010MOL0     H39374   9.553   8.798   8.062 -0.8759  0.1053  2.7539
 1010MOL0     H39375   9.402   8.719   8.027 -2.0824  1.8267  0.6535
 1010MOL0     H39376   9.346   9.136   7.937  1.2072  1.0894  2.1995
 1010MOL0     H39377   9.823   8.495   7.505 -0.0038 -2.0434  1.0060
 1010MOL0     H39378  10.095   8.447   7.307 -0.4799 -0.6057  0.5080
 1010MOL0     H39379  10.072   8.317   7.434  0.2488  0.2391  0.8482
 1010MOL0     H39380   9.940   8.398   7.351  1.2667  0.1000 -1.7105
 1011MOL0     O39381   5.807   2.744   0.871 -0.2468  0.3358  0.2947
 1011MOL0     C39382   5.763   2.820   0.953 -0.0359 -1.2165 -0.4013
 1011MOL0     O39383   5.732   2.948   0.938  0.0648 -0.1433  0.3390
 1011MOL0     C39384   5.750   3.007   0.814  0.2160  1.4324  0.4771
 1011MOL0     C39385   5.821   3.120   0.806  0.2843  0.1347  0.5517
 1011MOL0     C39386   5.842   3.180   0.686 -1.0803 -0.3379  0.4595
 1011MOL0     C39387   5.797   3.127   0.563  0.2057 -0.3506 -0.1757
 1011MOL0     O39388   5.842   3.186   0.450  0.7755 -0.1568 -0.0023
 1011MOL0     C39389   5.833   3.111   0.328 -0.4307 -0.3911  0.3841
 1011MOL0     C39390   5.874   3.195   0.212  0.3307 -1.0292 -0.7466
 1011MOL0     C39391   5.879   3.119   0.087  0.2165 -0.2392 -0.7450
 1011MOL0     C39392   5.951   3.189  -0.031  0.0230  1.2249 -0.2959
 1011MOL0     C39393   5.977   3.087  -0.142 -0.5950 -0.4607 -0.5130
 1011MOL0     C39394   5.852   3.023  -0.202 -0.0328  1.4771  1.3470
 1011MOL0     C39395   5.859   3.005  -0.361 -0.2125 -0.3490 -0.5222
 1011MOL0     C39396   5.983   2.924  -0.397  0.2328  0.2870 -0.3461
 1011MOL0     N39397   5.971   2.886  -0.536  0.7857  0.0670  0.8247
 1011MOL0     C39398   5.876   2.800  -0.584 -0.3395  0.5445  0.3177
 1011MOL0     C39399   5.908   2.779  -0.716  0.0847 -0.4077  0.0144
 1011MOL0     C39400   5.824   2.688  -0.809 -0.0178  0.7941 -0.5820
 1011MOL0     C39401   5.912   2.560  -0.840  0.3568  0.6154 -0.1791
 1011MOL0     C39402   5.839   2.450  -0.922 -0.4214  0.4676  1.1300
 1011MOL0     C39403   5.748   2.491  -1.036 -0.1915  0.9000  0.0363
 1011MOL0     O39404   5.840   2.536  -1.137 -0.1128 -0.8455 -0.9781
 1011MOL0     C39405   5.803   2.505  -1.272  0.9237 -0.6069 -0.0188
 1011MOL0     C39406   5.676   2.477  -1.316 -1.2606  0.1780  0.6548
 1011MOL0     C39407   5.653   2.453  -1.460 -0.0191 -0.7882 -0.0119
 1011MOL0     C39408   5.518   2.435  -1.514  0.4904 -0.2715 -0.0277
 1011MOL0     C39409   5.763   2.442  -1.544 -0.3374  0.3295 -0.1991
 1011MOL0     C39410   5.766   2.386  -1.682 -0.8139  0.3905  0.6945
 1011MOL0     O39411   5.699   2.444  -1.780  0.8967 -0.2331  0.1084
 1011MOL0     C39412   5.703   2.383  -1.905 -0.1107  0.7683 -0.1213
 1011MOL0     C39413   5.585   2.371  -1.977  0.6455  0.2467 -0.5149
 1011MOL0     C39414   5.585   2.303  -2.100 -0.0573 -0.6257  0.0933
 1011MOL0     C39415   5.700   2.253  -2.161  0.1191 -0.4857 -0.0793
 1011MOL0     O39416   5.685   2.167  -2.263  0.3549  0.4554  0.3367
 1011MOL0     C39417   5.780   2.059  -2.263  0.2540  0.0132  0.4789
 1011MOL0     C39418   5.767   1.979  -2.390 -0.6019  0.5678 -0.1697
 1011MOL0     C39419   5.637   1.895  -2.399 -0.1326  0.2143 -0.4396
 1011MOL0     C39420   5.644   1.783  -2.305 -0.0715  0.0040 -0.6630
 1011MOL0     C39421   5.534   1.683  -2.351 -0.2911 -0.1692  1.0282
 1011MOL0     C39422   5.526   1.576  -2.251 -0.6806  0.4125  0.2273
 1011MOL0     C39423   5.431   1.468  -2.294 -0.4938 -0.5114  0.3787
 1011MOL0     C39424   5.279   1.508  -2.265 -0.1869  0.5866  1.3343
 1011MOL0    Cl39425   5.184   1.366  -2.312  0.1522 -0.1427 -0.0061
 1011MOL0     C39426   5.824   2.285  -2.102 -0.3131 -1.0626 -0.2492
 1011MOL0     C39427   5.826   2.349  -1.974  1.2865 -0.1654 -0.4444
 1011MOL0     O39428   5.827   2.280  -1.692  0.0393  1.3286 -0.0955
 1011MOL0     C39429   5.890   2.476  -1.489  0.6349 -0.8033 -0.1596
 1011MOL0     C39430   5.913   2.505  -1.355  0.9898  0.8803 -0.5980
 1011MOL0     N39431   6.029   2.853  -0.737  0.9546  0.7016 -0.3584
 1011MOL0     N39432   6.057   2.921  -0.632  0.0398  0.3433  0.5619
 1011MOL0     C39433   5.711   3.012   0.573  0.0214 -0.6948  0.6017
 1011MOL0     C39434   5.681   2.948   0.699  0.4469 -0.3823  0.1331
 1011MOL0     C39435   5.759   2.776   1.107 -0.4207 -0.4821  0.4864
 1011MOL0     C39436   5.758   2.878   1.208  0.8449  1.0927  0.1706
 1011MOL0     C39437   5.766   2.847   1.345  0.8159  0.0326  0.2115
 1011MOL0     C39438   5.751   2.709   1.375  0.9749 -0.6878  0.4943
 1011MOL0     O39439   5.756   2.673   1.508 -0.2170 -0.4553  0.0669
 1011MOL0     C39440   5.651   2.736   1.593  0.5636 -1.0187  0.6239
 1011MOL0     C39441   5.524   2.651   1.608 -1.1213 -0.4983 -0.5954
 1011MOL0     C39442   5.571   2.521   1.686  1.5092  0.9029 -0.5203
 1011MOL0     C39443   5.459   2.421   1.726  0.4630  0.0432 -0.8948
 1011MOL0     C39444   5.384   2.478   1.843 -0.4978 -0.2578  0.4632
 1011MOL0     C39445   5.326   2.516   1.944  0.1128  0.9567  1.0733
 1011MOL0     C39446   5.744   2.607   1.280 -0.9135  0.4215  0.9544
 1011MOL0     C39447   5.747   2.639   1.142  0.4173 -0.5226 -1.1344
 1011MOL0     C39448   5.738   2.525   1.038 -0.2039  0.8628 -0.3025
 1011MOL0     H39449   5.855   3.156   0.903 -1.0354  2.6638  0.1390
 1011MOL0     H39450   5.913   3.261   0.671 -0.5423 -0.7135  0.9535
 1011MOL0     H39451   5.732   3.072   0.311 -0.1289 -1.0937  0.1829
 1011MOL0     H39452   5.909   3.033   0.328  2.7798  2.4905  0.0651
 1011MOL0     H39453   5.798   3.273   0.202  0.8522 -0.3550  0.4019
 1011MOL0     H39454   5.973   3.236   0.229 -1.3705  2.7894  1.0067
 1011MOL0     H39455   5.927   3.026   0.118  0.8573  1.2295  3.2956
 1011MOL0     H39456   5.773   3.101   0.067 -0.9525  2.7738  1.9254
 1011MOL0     H39457   5.890   3.268  -0.077  1.5044  1.0388 -2.7490
 1011MOL0     H39458   6.045   3.220   0.016 -0.1533 -1.6606  2.3173
 1011MOL0     H39459   6.053   3.012  -0.116  0.8252  0.2320 -2.4760
 1011MOL0     H39460   6.036   3.148  -0.210  1.4095  0.2275  1.7053
 1011MOL0     H39461   5.837   2.923  -0.162 -1.0644  0.3426 -1.5927
 1011MOL0     H39462   5.766   3.087  -0.179 -1.5800  0.3050 -0.7712
 1011MOL0     H39463   5.867   3.103  -0.410  3.3633 -0.0670  0.3611
 1011MOL0     H39464   5.763   2.962  -0.390 -0.8088  1.6604 -1.7795
 1011MOL0     H39465   6.068   2.993  -0.386 -1.6336  2.2917  2.6525
 1011MOL0     H39466   5.988   2.834  -0.336 -4.0127 -0.9679 -1.4767
 1011MOL0     H39467   5.790   2.759  -0.532 -0.5354  0.0310 -0.4020
 1011MOL0     H39468   5.812   2.728  -0.910  2.6032 -0.2518 -1.4025
 1011MOL0     H39469   5.727   2.658  -0.769  2.3689 -3.5727  2.8909
 1011MOL0     H39470   5.996   2.590  -0.903  0.9798  3.4568  1.7821
 1011MOL0     H39471   5.962   2.515  -0.754  0.5311  0.6923 -0.2398
 1011MOL0     H39472   5.913   2.386  -0.969  0.7413  2.3513  0.3071
 1011MOL0     H39473   5.776   2.390  -0.855 -1.4022  1.5132  1.1807
 1011MOL0     H39474   5.712   2.394  -1.072 -0.3441  0.6758  0.7763
 1011MOL0     H39475   5.666   2.553  -1.000  2.5014  2.1364  4.9203
 1011MOL0     H39476   5.597   2.471  -1.241  1.9061 -1.1182  4.2151
 1011MOL0     H39477   5.451   2.457  -1.431  0.9156 -2.0968  0.8356
 1011MOL0     H39478   5.494   2.333  -1.545 -1.0640 -0.2412  0.9959
 1011MOL0     H39479   5.499   2.505  -1.596  0.2145 -0.7423 -0.3662
 1011MOL0     H39480   5.491   2.401  -1.933  2.1956  2.6586  1.3780
 1011MOL0     H39481   5.493   2.294  -2.158  2.6320  0.4436 -4.8426
 1011MOL0     H39482   5.882   2.099  -2.263  0.0362  0.6089  1.4127
 1011MOL0     H39483   5.750   2.001  -2.176 -1.5490  5.4518  3.9746
 1011MOL0     H39484   5.776   2.049  -2.474 -1.4221  0.3640 -0.4446
 1011MOL0     H39485   5.851   1.912  -2.409  0.4416  1.2762  1.7444
 1011MOL0     H39486   5.624   1.851  -2.498  0.9850 -2.2470  0.4220
 1011MOL0     H39487   5.548   1.955  -2.375 -1.9311 -1.6936 -1.9668
 1011MOL0     H39488   5.614   1.816  -2.205  0.0841 -1.9028  0.0484
 1011MOL0     H39489   5.739   1.729  -2.292 -0.4419 -0.3762  0.6387
 1011MOL0     H39490   5.441   1.738  -2.333  0.4823  1.2718  0.8374
 1011MOL0     H39491   5.545   1.649  -2.455 -1.7176  1.5920  0.2383
 1011MOL0     H39492   5.488   1.603  -2.152 -1.6955 -1.7381  0.4868
 1011MOL0     H39493   5.620   1.522  -2.236  0.2831  1.7813 -0.6351
 1011MOL0     H39494   5.459   1.385  -2.228 -0.1859 -0.1320  0.7314
 1011MOL0     H39495   5.453   1.443  -2.398  1.5752 -2.2451  1.1491
 1011MOL0     H39496   5.253   1.595  -2.326 -1.1281  1.2710  2.6454
 1011MOL0     H39497   5.259   1.535  -2.161 -1.0770 -3.1274  2.2519
 1011MOL0     H39498   5.921   2.261  -2.145 -0.7875  1.2761 -2.8924
 1011MOL0     H39499   5.921   2.360  -1.923  0.5399  1.4363  0.7009
 1011MOL0     H39500   5.968   2.485  -1.563 -0.2746 -4.4033 -1.8087
 1011MOL0     H39501   6.012   2.516  -1.312  0.3947 -0.7838  1.2855
 1011MOL0     H39502   5.671   2.964   0.484  0.8012 -0.6313  0.2133
 1011MOL0     H39503   5.621   2.858   0.707 -0.6839  0.4349  1.1692
 1011MOL0     H39504   5.750   2.982   1.177 -1.2128  0.6955 -0.8195
 1011MOL0     H39505   5.762   2.927   1.418  1.9976  0.2528  0.0483
 1011MOL0     H39506   5.685   2.766   1.692  1.9451  0.9260 -0.3709
 1011MOL0     H39507   5.614   2.831   1.553 -0.5054 -1.8151 -0.3457
 1011MOL0     H39508   5.473   2.621   1.516 -0.9505 -1.4000 -0.4069
 1011MOL0     H39509   5.445   2.701   1.665 -0.8053 -2.6524  1.9191
 1011MOL0     H39510   5.632   2.463   1.617  0.0185 -2.3332  0.6598
 1011MOL0     H39511   5.620   2.547   1.780  1.7736 -0.0791 -0.3702
 1011MOL0     H39512   5.502   2.327   1.762 -0.9430  0.4555  2.1159
 1011MOL0     H39513   5.391   2.412   1.641 -2.5593  1.8141  1.1403
 1011MOL0     H39514   5.254   2.548   2.017 -2.3770  3.7627 -2.2846
 1011MOL0     H39515   5.728   2.508   1.321  1.3741 -0.0850  0.7718
 1011MOL0     H39516   5.653   2.545   0.972 -0.8833 -0.2704  0.2036
 1011MOL0     H39517   5.829   2.518   0.978 -1.5912 -1.0081 -2.3356
 1011MOL0     H39518   5.730   2.426   1.084  4.3844  0.4086  0.0428
 1012MOL0     O39519   9.521   2.401   4.872  0.3087 -0.4027 -0.0582
 1012MOL0     C39520   9.629   2.411   4.931  0.2551  0.2223 -0.2517
 1012MOL0     O39521   9.709   2.296   4.965 -0.3886 -0.0846 -0.2721
 1012MOL0     C39522   9.671   2.173   4.927  0.4249 -0.1551  0.1080
 1012MOL0     C39523   9.690   2.066   5.014  0.6717 -0.6171 -0.0961
 1012MOL0     C39524   9.656   1.930   4.986  0.7998 -0.1529 -0.6042
 1012MOL0     C39525   9.602   1.902   4.855  0.1787 -0.3647 -0.5329
 1012MOL0     O39526   9.547   1.779   4.827  0.1689 -0.9432  0.3940
 1012MOL0     C39527   9.582   1.669   4.913  0.5394 -0.1766  0.6667
 1012MOL0     C39528   9.496   1.550   4.856  0.2360 -0.3452  0.4711
 1012MOL0     C39529   9.377   1.532   4.949 -0.1404  0.5509 -0.2159
 1012MOL0     C39530   9.294   1.401   4.919  0.3733 -0.7344 -0.7917
 1012MOL0     C39531   9.215   1.424   4.788 -0.3388  0.1656 -0.3616
 1012MOL0     C39532   9.108   1.313   4.791  0.2661 -0.7118  0.4646
 1012MOL0     C39533   9.173   1.170   4.803  0.9170  0.2634 -0.1900
 1012MOL0     C39534   9.059   1.069   4.774  0.4684 -0.1669  1.2019
 1012MOL0     N39535   9.014   1.081   4.637 -0.4073  0.3645  0.4430
 1012MOL0     C39536   9.080   1.036   4.522 -0.6356 -0.1510  1.0935
 1012MOL0     C39537   9.005   1.039   4.411  0.2131  0.0320 -0.4508
 1012MOL0     C39538   9.024   0.994   4.268 -1.0908 -0.0188  0.9427
 1012MOL0     C39539   9.082   1.123   4.200 -0.4786  0.0301  0.5218
 1012MOL0     C39540   8.999   1.246   4.172 -0.2465 -0.0767  0.2837
 1012MOL0     C39541   8.869   1.204   4.110  0.1470 -0.2190  0.0860
 1012MOL0     O39542   8.815   1.310   4.043 -0.2396 -0.4731  0.6491
 1012MOL0     C39543   8.720   1.282   3.952  0.3903  0.0705  0.7477
 1012MOL0     C39544   8.629   1.176   3.950 -0.4393  0.6935  0.3259
 1012MOL0     C39545   8.538   1.153   3.841 -0.0374  0.4491  0.1367
 1012MOL0     C39546   8.473   1.014   3.835  0.0463  0.5932 -0.4423
 1012MOL0     C39547   8.524   1.253   3.743 -1.3058 -1.2328 -0.4694
 1012MOL0     C39548   8.417   1.257   3.650 -0.5251  0.3678  0.5939
 1012MOL0     O39549   8.381   1.387   3.606  0.4116 -0.0772 -0.1444
 1012MOL0     C39550   8.246   1.402   3.578 -0.4580 -0.1167  0.4379
 1012MOL0     C39551   8.212   1.466   3.453  0.0124  0.2098  0.4334
 1012MOL0     C39552   8.085   1.505   3.434  0.6220  0.0261  0.0981
 1012MOL0     C39553   7.986   1.483   3.525  0.7502  0.7655  0.1368
 1012MOL0     O39554   7.854   1.529   3.505  0.1865  0.5627 -0.4739
 1012MOL0     C39555   7.797   1.499   3.380  0.7009 -0.6608  0.9589
 1012MOL0     C39556   7.639   1.501   3.373  0.9205  0.2868  0.1179
 1012MOL0     C39557   7.583   1.435   3.254  0.5665 -0.1806  0.3713
 1012MOL0     C39558   7.562   1.538   3.140 -0.3213  0.8709  0.4466
 1012MOL0     C39559   7.460   1.486   3.045 -0.0250  0.4312  0.1511
 1012MOL0     C39560   7.413   1.598   2.952 -0.2632 -0.5537 -0.1964
 1012MOL0     C39561   7.341   1.541   2.839  1.4434  0.4358 -0.1650
 1012MOL0     C39562   7.234   1.628   2.774  0.1438  0.5436 -0.8824
 1012MOL0    Cl39563   7.181   1.553   2.628 -0.5293 -0.3642 -0.5737
 1012MOL0     C39564   8.017   1.432   3.656  0.9686 -0.7575  0.3073
 1012MOL0     C39565   8.142   1.386   3.675  0.1977  0.2896 -0.2187
 1012MOL0     O39566   8.363   1.151   3.617 -0.3088  0.0626 -0.6069
 1012MOL0     C39567   8.615   1.362   3.742  0.1870 -1.3866  0.3132
 1012MOL0     C39568   8.705   1.380   3.850  0.1411 -0.2967 -0.3339
 1012MOL0     N39569   8.886   1.086   4.468 -0.3637  0.5796  0.8433
 1012MOL0     N39570   8.893   1.120   4.596 -0.5718 -0.3327 -0.0763
 1012MOL0     C39571   9.588   2.003   4.763  0.5721 -0.6124  0.6139
 1012MOL0     C39572   9.616   2.139   4.799  0.2773 -0.5382 -0.4018
 1012MOL0     C39573   9.666   2.545   4.985 -0.1914 -0.7148  0.9574
 1012MOL0     C39574   9.558   2.639   5.004 -0.3788 -0.5620  0.0596
 1012MOL0     C39575   9.599   2.764   5.047  0.6909  0.0421  0.4240
 1012MOL0     C39576   9.730   2.798   5.080 -0.0437  0.2302  0.3970
 1012MOL0     O39577   9.760   2.911   5.153 -0.4213  0.2743 -0.0877
 1012MOL0     C39578   9.688   2.940   5.275 -0.2552  0.6113  0.8582
 1012MOL0     C39579   9.602   3.067   5.266 -0.5178  0.1752  0.1751
 1012MOL0     C39580   9.623   3.179   5.382  0.2192 -0.4370 -0.5492
 1012MOL0     C39581   9.499   3.275   5.389  0.1177  0.2269 -0.2608
 1012MOL0     C39582   9.496   3.357   5.504 -0.7761 -0.2623 -0.0513
 1012MOL0     C39583   9.511   3.426   5.600 -0.9252 -0.7401 -0.4625
 1012MOL0     C39584   9.837   2.709   5.056 -1.2074 -0.4413 -0.3413
 1012MOL0     C39585   9.804   2.589   4.998  0.4392 -0.5527 -0.1458
 1012MOL0     C39586   9.919   2.505   4.972  0.3965  0.5680  0.6047
 1012MOL0     H39587   9.729   2.081   5.114  2.2715 -2.0101 -0.4724
 1012MOL0     H39588   9.656   1.857   5.067 -0.9156 -2.0225 -2.1702
 1012MOL0     H39589   9.564   1.677   5.021  4.8043 -0.6247  1.6024
 1012MOL0     H39590   9.686   1.645   4.889  0.3183 -0.1337 -0.3775
 1012MOL0     H39591   9.459   1.559   4.754  2.9966  1.9837 -0.4539
 1012MOL0     H39592   9.556   1.459   4.856  3.4433  1.5019 -2.9338
 1012MOL0     H39593   9.407   1.511   5.052 -2.3538 -0.3980  0.2901
 1012MOL0     H39594   9.316   1.622   4.963 -1.9130 -0.7636  0.9824
 1012MOL0     H39595   9.363   1.317   4.907 -2.7074 -2.9707 -5.6948
 1012MOL0     H39596   9.220   1.384   4.999  0.7050  1.4037  0.0624
 1012MOL0     H39597   9.293   1.407   4.713  0.9882  1.0488  0.7709
 1012MOL0     H39598   9.167   1.519   4.765 -1.1097 -0.0974  0.1078
 1012MOL0     H39599   9.037   1.317   4.874 -0.1684 -0.7522  0.1022
 1012MOL0     H39600   9.057   1.320   4.694 -0.8545 -1.4023  0.9815
 1012MOL0     H39601   9.198   1.147   4.907  3.4281 -1.1872 -1.0371
 1012MOL0     H39602   9.265   1.159   4.745  1.0586  0.2923  0.0258
 1012MOL0     H39603   9.098   0.967   4.780  0.4590 -0.5559 -2.7288
 1012MOL0     H39604   8.977   1.087   4.844  0.8277  0.2243  1.5302
 1012MOL0     H39605   9.181   0.995   4.520 -0.5172  0.1507  0.7970
 1012MOL0     H39606   8.937   0.965   4.210  0.7020 -1.1466 -1.3604
 1012MOL0     H39607   9.093   0.908   4.261 -1.6294 -0.3160 -1.5248
 1012MOL0     H39608   9.171   1.157   4.254 -0.1743  0.7762 -0.4228
 1012MOL0     H39609   9.106   1.085   4.101 -0.3168 -3.1340  1.6641
 1012MOL0     H39610   8.969   1.305   4.259 -0.8068  1.1345 -0.6818
 1012MOL0     H39611   9.049   1.304   4.094 -0.0161  1.5381  1.5631
 1012MOL0     H39612   8.878   1.120   4.040  1.9857  0.3544 -0.4251
 1012MOL0     H39613   8.788   1.180   4.179 -2.6068  0.4721 -2.6653
 1012MOL0     H39614   8.634   1.097   4.023 -0.0524  0.2281 -0.1999
 1012MOL0     H39615   8.519   0.949   3.760  0.2123 -3.6785  2.9598
 1012MOL0     H39616   8.366   1.032   3.819  0.2524  1.8000 -0.5175
 1012MOL0     H39617   8.501   0.952   3.921  0.0565 -0.2140 -1.0108
 1012MOL0     H39618   8.277   1.485   3.369  0.0496  0.9995  0.6351
 1012MOL0     H39619   8.055   1.546   3.338 -1.6532 -1.5909  0.0404
 1012MOL0     H39620   7.818   1.566   3.295  0.9935 -1.0285  0.7388
 1012MOL0     H39621   7.830   1.401   3.345 -0.1061  0.7971 -5.0627
 1012MOL0     H39622   7.587   1.461   3.461 -1.7848  3.2083  0.0637
 1012MOL0     H39623   7.610   1.607   3.369  0.0019  0.1213  1.5376
 1012MOL0     H39624   7.484   1.396   3.280 -1.3866  1.1162 -4.2290
 1012MOL0     H39625   7.649   1.350   3.235 -1.0291 -1.8265  1.7418
 1012MOL0     H39626   7.657   1.558   3.089  0.6424  1.1288  2.2831
 1012MOL0     H39627   7.523   1.631   3.182 -1.9843  0.7233 -0.6633
 1012MOL0     H39628   7.512   1.403   2.997 -0.0386 -0.8071  2.1413
 1012MOL0     H39629   7.376   1.447   3.104  0.8749 -1.1335  0.4670
 1012MOL0     H39630   7.502   1.652   2.919 -1.0443  1.1238  0.3044
 1012MOL0     H39631   7.355   1.674   3.006 -0.2914 -1.9279  1.8021
 1012MOL0     H39632   7.293   1.449   2.875  2.2679  0.7236  1.7837
 1012MOL0     H39633   7.417   1.514   2.765  0.0835  0.7941 -1.7633
 1012MOL0     H39634   7.265   1.730   2.752 -2.2009  1.0704 -2.1088
 1012MOL0     H39635   7.152   1.633   2.846  0.3295  2.1996 -0.7481
 1012MOL0     H39636   7.943   1.435   3.736  2.7679  0.7759  2.0340
 1012MOL0     H39637   8.167   1.341   3.770  0.2877 -0.4717 -0.5974
 1012MOL0     H39638   8.629   1.437   3.664  1.2901  1.1964  2.8052
 1012MOL0     H39639   8.781   1.458   3.840  1.9750 -2.2151 -2.7651
 1012MOL0     H39640   9.541   1.990   4.666  0.1081 -1.8616  0.9766
 1012MOL0     H39641   9.596   2.213   4.722  1.6268  1.7250  1.2841
 1012MOL0     H39642   9.452   2.619   4.987 -0.6380  0.9614 -0.2813
 1012MOL0     H39643   9.516   2.825   5.081 -1.1780 -0.4771 -2.8641
 1012MOL0     H39644   9.631   2.852   5.305  3.6219 -1.9421  1.4042
 1012MOL0     H39645   9.765   2.958   5.351  2.4090 -0.4777 -1.4138
 1012MOL0     H39646   9.502   3.024   5.255  0.6864 -2.5035 -1.3213
 1012MOL0     H39647   9.612   3.111   5.166 -1.3315  0.8824  0.3998
 1012MOL0     H39648   9.628   3.114   5.470  0.9255 -0.8844 -0.9170
 1012MOL0     H39649   9.713   3.239   5.369 -0.0231 -0.4910 -3.0356
 1012MOL0     H39650   9.412   3.208   5.392  0.3111 -0.0519 -0.8588
 1012MOL0     H39651   9.492   3.336   5.298  1.3176 -2.7274 -2.4854
 1012MOL0     H39652   9.532   3.485   5.686  2.1455 -1.7686 -0.3972
 1012MOL0     H39653   9.932   2.752   5.083 -0.0639 -2.4810 -0.9039
 1012MOL0     H39654   9.912   2.463   4.871  1.8429  0.7557  0.4102
 1012MOL0     H39655  10.013   2.560   4.978  0.9041 -0.1972 -0.1139
 1012MOL0     H39656   9.919   2.425   5.047  2.5704 -1.0405 -0.9863
 1013MOL0     O39657   2.973  11.237   9.852  0.2920 -0.1494  0.4579
 1013MOL0     C39658   2.941  11.119   9.833 -0.3236 -0.2521 -0.1307
 1013MOL0     O39659   2.823  11.076   9.764  0.6503 -0.5377 -0.0671
 1013MOL0     C39660   2.756  11.168   9.682  0.1474  0.1055 -0.4644
 1013MOL0     C39661   2.820  11.261   9.602  0.0754 -0.2583  0.1433
 1013MOL0     C39662   2.746  11.354   9.528 -0.2064  0.0686 -0.1492
 1013MOL0     C39663   2.607  11.352   9.543 -0.2368 -0.2750 -0.2740
 1013MOL0     O39664   2.536  11.458   9.485  0.3583 -1.2034  0.8812
 1013MOL0     C39665   2.441  11.422   9.387  0.7453 -0.3458 -0.0028
 1013MOL0     C39666   2.510  11.440   9.258  0.8835  0.7856 -0.4403
 1013MOL0     C39667   2.423  11.423   9.136 -0.3536  1.1747  0.3440
 1013MOL0     C39668   2.381  11.273   9.107 -0.1748  0.6565 -0.8293
 1013MOL0     C39669   2.307  11.270   8.977  0.0934  0.2724 -0.1970
 1013MOL0     C39670   2.231  11.136   8.971  0.2519 -0.3133  0.6412
 1013MOL0     C39671   2.159  11.109   8.841  0.8211  0.1525 -0.1516
 1013MOL0     C39672   2.231  11.122   8.716 -1.0234 -0.7063  0.1912
 1013MOL0     N39673   2.142  11.105   8.598  0.3698 -0.4892 -0.3905
 1013MOL0     C39674   2.101  11.198   8.511  0.1101  0.2448  0.2265
 1013MOL0     C39675   2.038  11.121   8.418  0.0409  0.0441 -0.1405
 1013MOL0     C39676   1.972  11.191   8.296  0.0084  0.0368 -0.0125
 1013MOL0     C39677   1.911  11.093   8.188 -0.3579 -0.3439 -0.1379
 1013MOL0     C39678   1.793  11.001   8.230 -0.3142  0.2668 -0.0160
 1013MOL0     C39679   1.678  11.071   8.293  0.5153 -0.5933 -0.9993
 1013MOL0     O39680   1.625  11.181   8.222 -0.3345 -0.6216  0.1704
 1013MOL0     C39681   1.498  11.173   8.177 -0.7145  0.0176  0.1475
 1013MOL0     C39682   1.474  11.143   8.038  0.8961  0.1761 -0.9519
 1013MOL0     C39683   1.351  11.123   7.985  0.0305  0.5870 -0.1108
 1013MOL0     C39684   1.341  11.105   7.838  0.0790  0.4016 -0.1049
 1013MOL0     C39685   1.234  11.143   8.070  0.0173  1.1933  0.2478
 1013MOL0     C39686   1.093  11.152   8.023 -0.2341  0.7112  0.1642
 1013MOL0     O39687   0.999  11.152   8.121 -0.2636  0.0949 -1.1714
 1013MOL0     C39688   0.882  11.149   8.064  0.1223  0.4393  1.0638
 1013MOL0     C39689   0.834  11.022   8.034  0.2429 -0.0543  0.5868
 1013MOL0     C39690   0.708  11.013   7.976  0.2076 -0.9307 -0.0736
 1013MOL0     C39691   0.619  11.122   7.965  1.0273 -0.7293  0.3024
 1013MOL0     O39692   0.491  11.106   7.915 -0.7946  0.5487  0.5660
 1013MOL0     C39693   0.377  11.142   8.003 -0.5970 -0.1898  0.3944
 1013MOL0     C39694   0.270  11.033   7.987  0.1381 -0.3294 -0.7911
 1013MOL0     C39695   0.176  11.044   7.867 -0.0009 -0.9959  0.8939
 1013MOL0     C39696   0.241  11.029   7.729  0.1174  0.0081  0.2458
 1013MOL0     C39697   0.298  10.895   7.693 -0.2201  0.6269  0.2821
 1013MOL0     C39698   0.201  10.779   7.672  0.7304  0.5056  0.4629
 1013MOL0     C39699   0.258  10.634   7.666 -0.0841 -0.8371 -0.0300
 1013MOL0     C39700   0.330  10.600   7.532  1.0493  0.5922 -0.1750
 1013MOL0    Cl39701   0.214  10.533   7.406  0.2520 -0.6597  0.4765
 1013MOL0     C39702   0.661  11.251   8.007  0.3688  1.0552 -0.4275
 1013MOL0     C39703   0.801  11.262   8.052 -0.1693 -0.7763 -0.7797
 1013MOL0     O39704   1.073  11.164   7.896  0.2657 -0.0043 -0.5133
 1013MOL0     C39705   1.256  11.155   8.214 -0.0847 -0.1432 -0.0458
 1013MOL0     C39706   1.390  11.168   8.260  0.5554  0.1222 -0.4221
 1013MOL0     N39707   2.057  10.988   8.446  0.1241 -0.1467 -0.4500
 1013MOL0     N39708   2.111  10.984   8.562  0.5393  0.6443 -0.1528
 1013MOL0     C39709   2.536  11.266   9.622 -0.3216 -0.1489  0.2103
 1013MOL0     C39710   2.614  11.164   9.686  0.0449  0.4116  0.3022
 1013MOL0     C39711   3.014  11.027   9.920  0.1509 -0.0740 -0.3290
 1013MOL0     C39712   2.942  10.925   9.976  0.0245 -0.3208 -0.9095
 1013MOL0     C39713   2.998  10.838  10.064 -0.1873 -0.6230 -0.2004
 1013MOL0     C39714   3.127  10.858  10.116 -0.0393 -0.2466  0.2097
 1013MOL0     O39715   3.167  10.763  10.209  0.0863 -0.5804  0.9756
 1013MOL0     C39716   3.310  10.728  10.215  0.7782 -0.2146 -0.4104
 1013MOL0     C39717   3.337  10.671  10.350  0.4989  0.1954 -0.3463
 1013MOL0     C39718   3.291  10.750  10.473 -0.4133  0.3275 -0.0079
 1013MOL0     C39719   3.300  10.675  10.604  0.6870  0.1134 -1.2482
 1013MOL0     C39720   3.212  10.557  10.623  0.4321  0.1367  0.4222
 1013MOL0     C39721   3.138  10.465  10.622  0.0016 -0.7482  0.7369
 1013MOL0     C39722   3.200  10.965  10.066 -0.0182  0.2460  0.8068
 1013MOL0     C39723   3.146  11.053   9.966 -0.1057 -0.4307 -0.8451
 1013MOL0     C39724   3.246  11.154   9.908 -0.1479 -0.3086  0.0245
 1013MOL0     H39725   2.927  11.271   9.615 -0.4050  3.4672  3.0307
 1013MOL0     H39726   2.792  11.425   9.461 -0.9441 -1.2843 -2.1899
 1013MOL0     H39727   2.361  11.496   9.394 -1.1074 -2.3171  0.6311
 1013MOL0     H39728   2.398  11.322   9.391  0.7080 -0.3080  0.7966
 1013MOL0     H39729   2.551  11.542   9.261  0.1206  1.1767  4.4081
 1013MOL0     H39730   2.592  11.369   9.246  1.9177  1.9822 -0.6838
 1013MOL0     H39731   2.346  11.499   9.124  1.2779  2.5596 -2.4476
 1013MOL0     H39732   2.496  11.453   9.059  1.3337  1.2308  1.8985
 1013MOL0     H39733   2.470  11.210   9.093 -1.1092 -0.9021 -0.0992
 1013MOL0     H39734   2.322  11.249   9.196 -1.2988 -0.2195 -1.7715
 1013MOL0     H39735   2.367  11.275   8.886 -0.7670  0.0681 -0.7940
 1013MOL0     H39736   2.236  11.353   8.971 -0.2217  0.0534  0.4417
 1013MOL0     H39737   2.296  11.049   8.985  0.2733 -0.1839  1.3865
 1013MOL0     H39738   2.162  11.134   9.057  0.4082  2.0131  0.8748
 1013MOL0     H39739   2.085  11.190   8.840  1.8820  1.1530  0.3099
 1013MOL0     H39740   2.104  11.015   8.848  2.6429 -1.0247 -0.9163
 1013MOL0     H39741   2.289  11.214   8.708  1.1651 -2.0753 -0.7926
 1013MOL0     H39742   2.313  11.050   8.709 -1.2193 -1.0946  1.7008
 1013MOL0     H39743   2.112  11.306   8.501 -1.6633  0.4525  0.1854
 1013MOL0     H39744   2.042  11.254   8.240  1.6294  0.0048  1.8864
 1013MOL0     H39745   1.889  11.251   8.335  0.9182 -0.4617  2.9232
 1013MOL0     H39746   1.886  11.156   8.101 -0.4821 -1.7035 -1.1151
 1013MOL0     H39747   2.000  11.035   8.164 -0.9428 -1.4903  0.4097
 1013MOL0     H39748   1.762  10.935   8.149 -1.3210 -0.9194  1.2797
 1013MOL0     H39749   1.834  10.925   8.297  0.0002 -0.1198 -0.6415
 1013MOL0     H39750   1.601  10.998   8.318  0.6518  0.2856  2.4121
 1013MOL0     H39751   1.713  11.109   8.389 -1.5464 -0.6381 -0.1884
 1013MOL0     H39752   1.563  11.150   7.976  0.7875 -2.5655 -1.5429
 1013MOL0     H39753   1.293  11.016   7.797 -0.4867  1.5787 -2.1109
 1013MOL0     H39754   1.439  11.102   7.791 -0.1218  1.0686 -0.5912
 1013MOL0     H39755   1.286  11.182   7.783  1.6513  1.8716  0.3190
 1013MOL0     H39756   0.893  10.934   8.058  3.2839  1.9454  0.9938
 1013MOL0     H39757   0.678  10.916   7.939  2.5475 -1.0494 -1.9016
 1013MOL0     H39758   0.414  11.159   8.105  0.2413  1.1597 -0.0943
 1013MOL0     H39759   0.338  11.237   7.966 -0.1541  0.3754  1.3316
 1013MOL0     H39760   0.309  10.932   7.975 -1.7414 -1.1160 -0.6432
 1013MOL0     H39761   0.214  11.046   8.080 -1.1488 -0.8031 -1.4762
 1013MOL0     H39762   0.136  11.145   7.854 -2.0808 -1.9205 -0.4572
 1013MOL0     H39763   0.093  10.975   7.885  2.8442 -4.2280  2.5761
 1013MOL0     H39764   0.328  11.095   7.728  0.0647  0.0802 -1.4322
 1013MOL0     H39765   0.167  11.055   7.654 -1.3577  0.2415  1.7188
 1013MOL0     H39766   0.354  10.913   7.601  0.0170 -0.5921  0.1638
 1013MOL0     H39767   0.376  10.873   7.766 -0.4152 -2.9140 -0.3913
 1013MOL0     H39768   0.134  10.792   7.586  2.9811  1.7514 -1.2189
 1013MOL0     H39769   0.140  10.789   7.762  2.6321 -0.6488  1.9367
 1013MOL0     H39770   0.198  10.546   7.690 -0.3306 -1.4008 -2.4749
 1013MOL0     H39771   0.337  10.638   7.742  1.8209 -1.0323 -1.8792
 1013MOL0     H39772   0.406  10.530   7.567 -0.3993 -0.4759  1.0229
 1013MOL0     H39773   0.384  10.682   7.485 -2.5856  3.4078  0.0877
 1013MOL0     H39774   0.604  11.342   8.009 -0.3946  0.6667  3.1793
 1013MOL0     H39775   0.834  11.359   8.087  0.1689 -0.9153 -0.7123
 1013MOL0     H39776   1.177  11.166   8.288  1.4391 -3.0678  2.2079
 1013MOL0     H39777   1.413  11.185   8.365 -1.8750 -0.9138  0.3549
 1013MOL0     H39778   2.429  11.274   9.637 -0.4095 -0.0579 -0.4366
 1013MOL0     H39779   2.568  11.082   9.741  0.3872  0.8906  1.3372
 1013MOL0     H39780   2.838  10.902   9.954 -1.3365  0.9240  3.1688
 1013MOL0     H39781   2.944  10.756  10.111 -0.8355  1.2975  2.7025
 1013MOL0     H39782   3.343  10.664  10.133  1.5476 -2.2816  1.4094
 1013MOL0     H39783   3.370  10.820  10.216 -1.5391  1.4100  0.4502
 1013MOL0     H39784   3.445  10.657  10.353  0.5188  0.4832  0.3603
 1013MOL0     H39785   3.291  10.572  10.359 -1.9460  1.1435 -1.5276
 1013MOL0     H39786   3.356  10.838  10.485  1.6120 -1.1400  0.3413
 1013MOL0     H39787   3.190  10.790  10.461  0.0536  0.8604 -2.8464
 1013MOL0     H39788   3.274  10.742  10.686  3.6735 -1.3753  1.0880
 1013MOL0     H39789   3.400  10.635  10.622  1.4655  2.5738  0.3725
 1013MOL0     H39790   3.074  10.380  10.608 -0.9458  0.2634 -1.7182
 1013MOL0     H39791   3.299  10.978  10.108 -0.4860 -0.8926  2.3445
 1013MOL0     H39792   3.346  11.112   9.924  0.8116  1.1901 -1.6933
 1013MOL0     H39793   3.231  11.166   9.801  1.1658 -3.6355 -0.6716
 1013MOL0     H39794   3.241  11.251   9.958 -1.4773 -0.2355 -0.2110
 1014MOL0     O39795   3.016   5.611   2.687 -0.3588  0.0833  0.2642
 1014MOL0     C39796   2.910   5.631   2.626 -0.4675  0.5724 -0.8118
 1014MOL0     O39797   2.787   5.648   2.690  0.6404  0.7916  0.4801
 1014MOL0     C39798   2.767   5.618   2.824  0.0621  1.8414 -0.2242
 1014MOL0     C39799   2.676   5.688   2.905  0.3757 -0.2790 -0.3311
 1014MOL0     C39800   2.659   5.655   3.039 -0.4272  0.3977  0.3665
 1014MOL0     C39801   2.736   5.555   3.097  0.4863  0.3110 -0.2125
 1014MOL0     O39802   2.699   5.523   3.233 -0.3823 -0.6683 -0.0889
 1014MOL0     C39803   2.781   5.428   3.299 -0.7187  0.1832 -0.2244
 1014MOL0     C39804   2.744   5.390   3.449  0.4583  0.1318 -0.3209
 1014MOL0     C39805   2.721   5.505   3.544  0.0770 -0.4735 -0.5601
 1014MOL0     C39806   2.650   5.472   3.671  0.0676  0.5232 -0.2757
 1014MOL0     C39807   2.635   5.597   3.751  0.4281 -0.0388  0.3195
 1014MOL0     C39808   2.538   5.584   3.869  0.0224 -0.1456 -0.0975
 1014MOL0     C39809   2.582   5.490   3.978  0.5409  0.6852 -0.7671
 1014MOL0     C39810   2.486   5.486   4.097 -0.0639 -0.2344 -0.0274
 1014MOL0     N39811   2.525   5.375   4.182  0.4102 -0.3379 -0.0124
 1014MOL0     C39812   2.636   5.369   4.255  0.7945  0.0603 -0.1256
 1014MOL0     C39813   2.630   5.241   4.306 -0.0034 -0.9200 -1.4583
 1014MOL0     C39814   2.740   5.190   4.398  0.0403  0.7797  0.5213
 1014MOL0     C39815   2.882   5.245   4.376  0.1358  0.8566  0.0156
 1014MOL0     C39816   2.951   5.186   4.261  1.0064  0.4763 -0.3614
 1014MOL0     C39817   2.923   5.244   4.123  0.1087 -0.0717  0.4270
 1014MOL0     O39818   2.935   5.381   4.123  0.2513 -0.2354 -0.2062
 1014MOL0     C39819   2.961   5.454   4.008 -0.6279  0.6276 -0.7443
 1014MOL0     C39820   2.970   5.583   4.022  0.1621 -0.2323  0.6861
 1014MOL0     C39821   2.993   5.659   3.906  0.3079  0.2664  0.2134
 1014MOL0     C39822   2.983   5.807   3.917 -0.2858 -0.9065 -0.6412
 1014MOL0     C39823   3.027   5.602   3.781 -1.1686 -0.7306  0.5109
 1014MOL0     C39824   3.070   5.683   3.661  0.4606 -0.6309 -0.0484
 1014MOL0     O39825   2.976   5.780   3.621 -0.5441 -0.2703 -0.3564
 1014MOL0     C39826   2.981   5.852   3.499  1.2326 -0.1576  0.2484
 1014MOL0     C39827   3.094   5.918   3.462 -0.2780  0.0343  0.0172
 1014MOL0     C39828   3.105   5.995   3.342 -0.4548  0.3408  0.2485
 1014MOL0     C39829   2.999   6.001   3.251 -0.4076 -0.3025  0.0403
 1014MOL0     O39830   3.025   6.049   3.130  0.1078 -0.5500 -0.1076
 1014MOL0     C39831   2.916   6.037   3.038 -0.1358 -0.1310 -0.1615
 1014MOL0     C39832   2.952   6.106   2.909  0.7619  0.1904  0.6499
 1014MOL0     C39833   2.850   6.069   2.799  1.3013 -0.4883 -0.5716
 1014MOL0     C39834   2.791   6.192   2.743 -0.2705 -0.0850 -0.5069
 1014MOL0     C39835   2.680   6.177   2.635  0.7803  0.5760 -0.6951
 1014MOL0     C39836   2.706   6.285   2.524  1.1035 -0.0417  0.5427
 1014MOL0     C39837   2.569   6.301   2.441 -0.6458  0.6948 -0.1515
 1014MOL0     C39838   2.450   6.347   2.526 -0.2179  0.9029  0.1775
 1014MOL0    Cl39839   2.330   6.220   2.586 -0.3867  0.3170  0.4866
 1014MOL0     C39840   2.880   5.925   3.279  0.0914 -0.0032  0.2442
 1014MOL0     C39841   2.872   5.852   3.405 -0.4337  0.2330  1.1007
 1014MOL0     O39842   3.170   5.655   3.601  0.2139  0.4682  0.8542
 1014MOL0     C39843   3.019   5.471   3.775  0.5077  0.4275  0.3029
 1014MOL0     C39844   2.973   5.396   3.882 -0.0507  0.2482  0.4979
 1014MOL0     N39845   2.537   5.166   4.256 -1.2644  0.0211  0.4631
 1014MOL0     N39846   2.471   5.250   4.177 -0.7450  0.4580 -0.1218
 1014MOL0     C39847   2.833   5.488   3.028  0.5757  0.4747  0.0459
 1014MOL0     C39848   2.841   5.515   2.888  0.0455 -0.2684  0.0502
 1014MOL0     C39849   2.920   5.638   2.483 -0.3667  0.3118  0.1543
 1014MOL0     C39850   3.003   5.544   2.426 -0.4027  1.1084  0.1703
 1014MOL0     C39851   3.017   5.530   2.286 -0.1296 -0.1591 -1.0462
 1014MOL0     C39852   2.945   5.612   2.199 -0.1585 -0.1591 -0.1997
 1014MOL0     O39853   2.958   5.607   2.062 -0.1748  0.8114  0.3632
 1014MOL0     C39854   3.097   5.606   2.003  0.3764 -0.4434 -0.8604
 1014MOL0     C39855   3.099   5.573   1.855  0.5407 -0.3023 -0.6891
 1014MOL0     C39856   2.976   5.607   1.774  0.4557  0.1566  0.2657
 1014MOL0     C39857   2.860   5.501   1.778 -0.3059  0.2161 -0.4477
 1014MOL0     C39858   2.749   5.529   1.671 -0.0302 -0.6820 -0.6758
 1014MOL0     C39859   2.667   5.580   1.591 -0.5189  1.7130 -0.5971
 1014MOL0     C39860   2.859   5.704   2.253 -0.1619 -0.0191  0.5508
 1014MOL0     C39861   2.841   5.713   2.395  0.1988  0.1758 -0.1767
 1014MOL0     C39862   2.743   5.822   2.433 -0.8400  0.4772  0.9496
 1014MOL0     H39863   2.623   5.776   2.870 -1.6767 -0.7912  1.3129
 1014MOL0     H39864   2.585   5.713   3.093  0.7546  2.0913  0.2363
 1014MOL0     H39865   2.879   5.476   3.284 -0.7940  0.4487  0.1187
 1014MOL0     H39866   2.782   5.338   3.237 -0.4097  0.0194  0.0109
 1014MOL0     H39867   2.650   5.335   3.441 -0.8485  2.3645 -1.2472
 1014MOL0     H39868   2.817   5.322   3.494 -1.7055 -0.8064  1.9396
 1014MOL0     H39869   2.823   5.540   3.560  1.0195 -3.4736  0.6530
 1014MOL0     H39870   2.673   5.576   3.477 -0.1508 -0.6438 -0.5785
 1014MOL0     H39871   2.553   5.434   3.639  0.7177 -0.5866 -1.0165
 1014MOL0     H39872   2.695   5.384   3.717  1.7760  1.0682 -0.8069
 1014MOL0     H39873   2.594   5.667   3.678  0.1836 -1.1461 -0.6274
 1014MOL0     H39874   2.735   5.633   3.777  0.1475  0.4705  0.7131
 1014MOL0     H39875   2.523   5.686   3.906  3.0113  1.0451 -1.8103
 1014MOL0     H39876   2.440   5.558   3.827 -0.0885  0.7832 -0.4304
 1014MOL0     H39877   2.678   5.534   4.008  1.6963 -1.6586 -0.7951
 1014MOL0     H39878   2.612   5.395   3.933  0.3222  1.1660 -1.9622
 1014MOL0     H39879   2.486   5.582   4.149  0.4065  1.4837 -3.0173
 1014MOL0     H39880   2.384   5.467   4.062 -0.2742  0.1613  0.3584
 1014MOL0     H39881   2.705   5.445   4.291 -0.5184  0.1962  2.3494
 1014MOL0     H39882   2.745   5.081   4.393 -2.8314  0.6315 -2.1368
 1014MOL0     H39883   2.701   5.215   4.497 -2.2987  1.7074 -0.5632
 1014MOL0     H39884   2.887   5.353   4.359  0.0749  1.0170  0.9817
 1014MOL0     H39885   2.949   5.210   4.455  2.6094  1.1073 -1.8581
 1014MOL0     H39886   3.059   5.189   4.277  1.0061  1.6709 -0.4316
 1014MOL0     H39887   2.929   5.080   4.275 -0.1978  0.6529 -0.8561
 1014MOL0     H39888   2.976   5.193   4.043  0.3275 -1.3296  1.3401
 1014MOL0     H39889   2.823   5.210   4.093 -0.0852 -1.7501  2.6500
 1014MOL0     H39890   2.949   5.635   4.115  1.2015  2.2095 -0.3551
 1014MOL0     H39891   3.079   5.849   3.888  1.6849 -5.9124 -2.4777
 1014MOL0     H39892   2.970   5.842   4.020  0.8857 -1.6613 -0.2258
 1014MOL0     H39893   2.894   5.852   3.871  1.0009  0.9195 -1.4440
 1014MOL0     H39894   3.181   5.919   3.526 -0.5329  2.5928  0.4391
 1014MOL0     H39895   3.196   6.042   3.305 -0.3484  0.5753  0.8020
 1014MOL0     H39896   2.908   5.929   3.021 -0.8055  0.0107 -0.7504
 1014MOL0     H39897   2.826   6.085   3.076  0.7579  1.6235 -0.1552
 1014MOL0     H39898   2.954   6.214   2.926 -1.4719  0.7863 -2.2020
 1014MOL0     H39899   3.052   6.074   2.877  0.6232  0.5542 -0.1660
 1014MOL0     H39900   2.774   5.996   2.828 -1.1149  1.2182 -2.1773
 1014MOL0     H39901   2.900   6.016   2.718  2.6957  2.4821 -1.7917
 1014MOL0     H39902   2.861   6.259   2.692 -2.0205  3.2653  1.1607
 1014MOL0     H39903   2.755   6.247   2.830 -1.0476  0.3656 -1.1055
 1014MOL0     H39904   2.674   6.077   2.592  0.8617  1.1147 -1.9847
 1014MOL0     H39905   2.591   6.202   2.694  2.5279  1.3976  1.7349
 1014MOL0     H39906   2.788   6.252   2.460  2.9233 -0.6573  3.0366
 1014MOL0     H39907   2.724   6.385   2.564  2.5184  0.4198 -1.1218
 1014MOL0     H39908   2.545   6.204   2.397  1.8364 -2.4061  4.4465
 1014MOL0     H39909   2.590   6.374   2.363  1.2624 -0.1512 -0.4926
 1014MOL0     H39910   2.406   6.423   2.462  0.3497 -0.7193 -2.2689
 1014MOL0     H39911   2.485   6.406   2.612 -2.1833  1.4578  0.6507
 1014MOL0     H39912   2.793   5.931   3.215 -0.5998  1.1665  1.2589
 1014MOL0     H39913   2.780   5.799   3.431 -1.7151  2.3872  1.2303
 1014MOL0     H39914   3.043   5.424   3.680  2.1473 -0.1973  0.9865
 1014MOL0     H39915   2.962   5.290   3.857 -1.5633  0.3487  0.6350
 1014MOL0     H39916   2.898   5.415   3.074 -2.2673 -1.7970  0.7408
 1014MOL0     H39917   2.909   5.449   2.835 -3.4314 -2.7661 -1.7234
 1014MOL0     H39918   3.054   5.469   2.484 -0.1252  0.6587 -0.6377
 1014MOL0     H39919   3.088   5.452   2.259 -0.3181 -1.1282  1.0479
 1014MOL0     H39920   3.151   5.699   2.023  0.3221  0.0777 -2.8664
 1014MOL0     H39921   3.166   5.533   2.045  1.1247  0.8368  0.2039
 1014MOL0     H39922   3.130   5.468   1.856  2.0107  0.1231  0.1949
 1014MOL0     H39923   3.180   5.630   1.808 -0.3562  2.3815  0.8155
 1014MOL0     H39924   2.938   5.702   1.814  0.7105  0.0542  0.7513
 1014MOL0     H39925   2.999   5.627   1.669 -1.4603  2.6260  0.2203
 1014MOL0     H39926   2.826   5.505   1.882 -0.8137 -0.4051 -0.5864
 1014MOL0     H39927   2.906   5.407   1.749 -1.7167 -1.5810  2.6656
 1014MOL0     H39928   2.589   5.619   1.528 -0.7593  1.3131 -0.5570
 1014MOL0     H39929   2.801   5.759   2.180  2.5359  1.4026 -0.6927
 1014MOL0     H39930   2.758   5.904   2.363 -2.4494 -0.3477 -0.4525
 1014MOL0     H39931   2.646   5.776   2.414 -0.5179  0.6889 -1.4375
 1014MOL0     H39932   2.755   5.863   2.534 -1.3062  3.4158 -0.0846
 1015MOL0     O39933   6.874   6.515   1.081  0.5981 -0.7651  0.4191
 1015MOL0     C39934   6.811   6.407   1.089 -1.1476  0.5231 -0.6117
 1015MOL0     O39935   6.839   6.301   1.176  0.0462  0.5280 -0.6126
 1015MOL0     C39936   6.962   6.295   1.244  1.1175 -1.0151  0.0664
 1015MOL0     C39937   7.053   6.202   1.185  0.1630  0.7143 -0.1638
 1015MOL0     C39938   7.177   6.186   1.246  0.1141  0.6035  0.2175
 1015MOL0     C39939   7.207   6.255   1.365  0.0206 -0.1552  1.1282
 1015MOL0     O39940   7.321   6.241   1.440  0.7247 -0.0378 -0.2281
 1015MOL0     C39941   7.387   6.112   1.417 -0.0131  0.0449  0.3898
 1015MOL0     C39942   7.470   6.092   1.544 -0.2130 -0.2917  0.3267
 1015MOL0     C39943   7.509   5.949   1.556  0.0963 -0.3321 -0.0773
 1015MOL0     C39944   7.588   5.925   1.687 -0.2840 -0.7189  0.6809
 1015MOL0     C39945   7.636   5.780   1.710 -0.0235  0.4039  0.0545
 1015MOL0     C39946   7.516   5.680   1.683 -0.0591  1.1601  0.3564
 1015MOL0     C39947   7.402   5.684   1.793  0.4816  0.1830  0.0100
 1015MOL0     C39948   7.283   5.600   1.752 -0.2746 -0.6040 -0.4651
 1015MOL0     N39949   7.213   5.681   1.645  0.1637 -0.5098  0.4952
 1015MOL0     C39950   7.152   5.805   1.655 -0.2633  1.0366 -0.0449
 1015MOL0     C39951   7.098   5.833   1.533 -0.4159 -0.7936  0.9232
 1015MOL0     C39952   7.042   5.964   1.487 -0.0970 -0.0570  0.4093
 1015MOL0     C39953   6.890   5.958   1.464 -0.3102 -0.1895 -0.0059
 1015MOL0     C39954   6.849   5.889   1.339 -0.0827 -0.1153  0.4856
 1015MOL0     C39955   6.689   5.881   1.332  0.3428  0.3153 -0.3374
 1015MOL0     O39956   6.639   6.004   1.297 -0.2497  0.2544  0.4501
 1015MOL0     C39957   6.499   6.010   1.277  0.9379 -0.2081 -0.0473
 1015MOL0     C39958   6.459   6.138   1.225 -0.4867  0.0767  0.6326
 1015MOL0     C39959   6.329   6.187   1.217  0.2080 -0.1249  0.5751
 1015MOL0     C39960   6.305   6.317   1.155 -0.4376  0.1126  0.5871
 1015MOL0     C39961   6.231   6.103   1.266 -0.0998  0.5217 -0.6424
 1015MOL0     C39962   6.087   6.139   1.273  0.0513  0.5841 -0.0332
 1015MOL0     O39963   5.986   6.059   1.221 -0.5128  0.0918  0.3440
 1015MOL0     C39964   5.879   6.140   1.178  1.1335  0.2879 -1.2096
 1015MOL0     C39965   5.869   6.218   1.065  0.2264  0.3413 -0.0238
 1015MOL0     C39966   5.748   6.279   1.026 -0.4664  0.3475 -0.4236
 1015MOL0     C39967   5.626   6.257   1.093 -0.0976  0.0961  0.3253
 1015MOL0     O39968   5.511   6.315   1.042  0.4170 -0.2954  0.3358
 1015MOL0     C39969   5.395   6.346   1.130 -0.1901  0.3608 -0.3118
 1015MOL0     C39970   5.340   6.477   1.069  0.1966  1.1465 -0.6480
 1015MOL0     C39971   5.409   6.608   1.124  0.3842  0.0074 -1.2547
 1015MOL0     C39972   5.336   6.740   1.084  0.2202 -0.1876  0.1835
 1015MOL0     C39973   5.432   6.819   0.996 -0.5054 -0.3510  0.0417
 1015MOL0     C39974   5.368   6.953   0.948 -0.4248 -0.8803  1.1289
 1015MOL0     C39975   5.481   7.065   0.921  0.0003  0.2321 -0.2087
 1015MOL0     C39976   5.430   7.207   0.912  0.5767  0.2855  0.5463
 1015MOL0    Cl39977   5.522   7.331   0.800 -0.0009  0.3643  0.1955
 1015MOL0     C39978   5.636   6.167   1.207  0.3758 -0.6591 -0.5123
 1015MOL0     C39979   5.761   6.120   1.250  0.2292 -0.3448 -0.6354
 1015MOL0     O39980   6.067   6.244   1.327  0.2596 -0.8768  0.0820
 1015MOL0     C39981   6.264   5.978   1.315  0.2935  1.1988  0.1197
 1015MOL0     C39982   6.396   5.929   1.317  0.3554  0.0953  0.1590
 1015MOL0     N39983   7.117   5.721   1.454 -0.4441 -0.3280  0.1142
 1015MOL0     N39984   7.181   5.630   1.523  0.0013  0.0262  0.1687
 1015MOL0     C39985   7.107   6.333   1.424 -0.2415 -0.4993  0.1503
 1015MOL0     C39986   6.985   6.359   1.363  0.8322 -0.2211 -0.0486
 1015MOL0     C39987   6.680   6.402   1.014 -0.0620  0.5034 -0.9394
 1015MOL0     C39988   6.613   6.522   1.005  0.9573 -0.5140 -0.2731
 1015MOL0     C39989   6.499   6.525   0.933  0.6781 -0.4309 -0.5921
 1015MOL0     C39990   6.453   6.421   0.856  0.2399  0.0614 -0.0814
 1015MOL0     O39991   6.332   6.422   0.785  0.0901  0.3035 -0.8374
 1015MOL0     C39992   6.266   6.551   0.783  0.5033 -0.8345 -0.7132
 1015MOL0     C39993   6.171   6.558   0.897  0.5823  0.5270 -0.4365
 1015MOL0     C39994   6.070   6.673   0.872 -0.6773  0.9038  0.0480
 1015MOL0     C39995   6.006   6.746   1.002  0.6811 -0.9410  0.2808
 1015MOL0     C39996   5.875   6.793   0.954 -1.0694 -0.0438 -0.2685
 1015MOL0     C39997   5.776   6.853   0.911 -0.3781 -0.4675  0.6176
 1015MOL0     C39998   6.509   6.299   0.872  0.9821 -0.1100 -1.0130
 1015MOL0     C39999   6.623   6.282   0.950 -0.6831 -0.8599 -0.3024
 1015MOL0     C40000   6.681   6.146   0.953  0.3561  0.5387 -0.2496
 1015MOL0     H40001   7.028   6.134   1.104  2.3290 -1.3825  0.7835
 1015MOL0     H40002   7.243   6.131   1.180 -1.4037  0.1094 -0.9471
 1015MOL0     H40003   7.450   6.107   1.328  3.4488  1.4772  2.5548
 1015MOL0     H40004   7.311   6.033   1.425 -0.8746  0.8044 -0.0365
 1015MOL0     H40005   7.549   6.166   1.556  1.4954 -1.8398 -0.8034
 1015MOL0     H40006   7.408   6.105   1.633  0.0730 -1.9960  0.8027
 1015MOL0     H40007   7.419   5.889   1.575  0.5504 -1.0597 -0.1995
 1015MOL0     H40008   7.570   5.917   1.471  2.5964  1.2777  0.9940
 1015MOL0     H40009   7.678   5.987   1.691  1.1059 -2.5865 -0.1711
 1015MOL0     H40010   7.531   5.952   1.776 -1.9929 -0.7446 -0.3625
 1015MOL0     H40011   7.675   5.771   1.813 -0.1140 -0.2299  0.0399
 1015MOL0     H40012   7.720   5.756   1.644  2.5954  2.6440  2.2974
 1015MOL0     H40013   7.472   5.695   1.583 -0.9694  0.6411  0.6674
 1015MOL0     H40014   7.549   5.576   1.684  0.8906  1.4509  1.9500
 1015MOL0     H40015   7.367   5.785   1.814 -0.3459 -0.2464  0.7599
 1015MOL0     H40016   7.452   5.645   1.882  2.3179  2.8937  0.2821
 1015MOL0     H40017   7.320   5.505   1.712 -0.0247  0.2574 -2.3566
 1015MOL0     H40018   7.222   5.578   1.840  1.7695 -2.0849  0.6784
 1015MOL0     H40019   7.169   5.874   1.738 -3.2018 -0.5525  2.0472
 1015MOL0     H40020   7.104   5.997   1.404  2.3511 -3.2986  0.7464
 1015MOL0     H40021   7.076   6.041   1.556  0.9229 -0.7515  0.7013
 1015MOL0     H40022   6.845   5.927   1.558 -1.8359  0.6181 -0.4415
 1015MOL0     H40023   6.865   6.063   1.445  3.8061  0.8971 -0.4306
 1015MOL0     H40024   6.893   5.935   1.250  1.3252  2.9267  2.5485
 1015MOL0     H40025   6.888   5.788   1.349  0.7250  0.2404  1.0665
 1015MOL0     H40026   6.662   5.812   1.251 -2.2265  0.3337  0.4061
 1015MOL0     H40027   6.649   5.844   1.427 -0.9635  2.2811 -0.0594
 1015MOL0     H40028   6.538   6.204   1.191 -1.6068  0.4753 -1.3611
 1015MOL0     H40029   6.229   6.380   1.202 -0.4373  0.1010  0.6043
 1015MOL0     H40030   6.280   6.297   1.050  2.9382 -0.8104 -0.1416
 1015MOL0     H40031   6.393   6.380   1.141 -0.2303 -0.6728 -2.4746
 1015MOL0     H40032   5.967   6.239   1.024  0.9622  2.8778  2.6992
 1015MOL0     H40033   5.747   6.340   0.936  1.1400  0.8772 -0.1243
 1015MOL0     H40034   5.330   6.257   1.130  0.5551 -0.2053  0.5454
 1015MOL0     H40035   5.418   6.370   1.234 -3.2839  0.9165  0.3352
 1015MOL0     H40036   5.350   6.473   0.960 -0.3222  2.6161 -0.7729
 1015MOL0     H40037   5.232   6.471   1.080  0.4511 -0.2199  2.1322
 1015MOL0     H40038   5.517   6.597   1.109  0.2409 -1.7932 -1.1402
 1015MOL0     H40039   5.393   6.592   1.231  2.0940 -0.9944 -1.1109
 1015MOL0     H40040   5.308   6.804   1.167  0.5298  0.4481 -0.1991
 1015MOL0     H40041   5.246   6.711   1.027  0.6983 -1.5393  0.0769
 1015MOL0     H40042   5.528   6.837   1.046  0.4557  2.5855 -2.5549
 1015MOL0     H40043   5.462   6.767   0.905  2.0691  0.6516  0.2200
 1015MOL0     H40044   5.297   6.987   1.024 -1.3392 -1.3151  0.4746
 1015MOL0     H40045   5.319   6.945   0.851  0.3013  3.7620  0.1445
 1015MOL0     H40046   5.524   7.051   0.821 -2.6618  1.7006 -1.6856
 1015MOL0     H40047   5.555   7.068   1.000  0.4264  3.3374 -0.5876
 1015MOL0     H40048   5.421   7.246   1.014 -2.1532  1.0678  0.0811
 1015MOL0     H40049   5.328   7.190   0.876  1.9111 -0.8020 -3.1934
 1015MOL0     H40050   5.556   6.146   1.278  2.4083  0.8153  2.3998
 1015MOL0     H40051   5.757   6.046   1.330 -1.0236  1.6517  1.2796
 1015MOL0     H40052   6.180   5.922   1.356  0.1371  1.1769 -0.2239
 1015MOL0     H40053   6.414   5.828   1.351  3.3196 -0.6400 -3.0620
 1015MOL0     H40054   7.134   6.398   1.507  0.2827  3.5214 -2.8582
 1015MOL0     H40055   6.914   6.432   1.403 -1.4527 -2.5672  0.4290
 1015MOL0     H40056   6.645   6.606   1.066  3.0929 -4.6002  5.1185
 1015MOL0     H40057   6.446   6.619   0.948  1.0433 -0.4600  1.0246
 1015MOL0     H40058   6.331   6.637   0.772  0.9867 -0.9575  0.9117
 1015MOL0     H40059   6.219   6.546   0.684  1.3496  3.3592 -1.5114
 1015MOL0     H40060   6.224   6.572   0.992  0.9243  1.6191 -0.7817
 1015MOL0     H40061   6.109   6.468   0.898  2.8153 -1.1063  0.2953
 1015MOL0     H40062   6.118   6.748   0.808 -0.6357  0.2744 -0.6760
 1015MOL0     H40063   5.988   6.622   0.821  0.5948  0.4620 -1.6660
 1015MOL0     H40064   6.069   6.831   1.030 -0.7557  0.1596  0.2746
 1015MOL0     H40065   5.995   6.679   1.088  0.9954 -0.0347  1.0518
 1015MOL0     H40066   5.686   6.903   0.880  0.5623  1.6422  1.1438
 1015MOL0     H40067   6.460   6.216   0.821  0.3863  0.6174 -1.6486
 1015MOL0     H40068   6.605   6.068   0.951  0.2511  0.6242  0.3482
 1015MOL0     H40069   6.736   6.136   0.859  2.6024  2.9367  0.6982
 1015MOL0     H40070   6.740   6.138   1.045 -2.0922  1.9494  1.5781
 1016MOL0     O40071   5.562   3.655   1.038 -0.3185  0.1893 -1.0315
 1016MOL0     C40072   5.559   3.593   1.143  0.3325  0.5694  0.5683
 1016MOL0     O40073   5.603   3.637   1.269 -0.3884 -0.4047 -0.3384
 1016MOL0     C40074   5.627   3.765   1.288  0.4373  0.1823 -0.0538
 1016MOL0     C40075   5.520   3.862   1.290 -0.0625 -0.2849 -0.0450
 1016MOL0     C40076   5.541   3.999   1.276 -0.6608  0.2301  0.6155
 1016MOL0     C40077   5.671   4.043   1.282  0.2877 -0.0519  1.5214
 1016MOL0     O40078   5.680   4.178   1.277 -1.0314 -0.1376 -0.4549
 1016MOL0     C40079   5.794   4.224   1.209  0.4580  0.0644  0.5430
 1016MOL0     C40080   5.782   4.379   1.201  0.3220 -0.9224 -0.6794
 1016MOL0     C40081   5.688   4.431   1.098 -0.0998 -0.2824  0.1855
 1016MOL0     C40082   5.718   4.578   1.046  0.8600 -0.1469 -0.2299
 1016MOL0     C40083   5.688   4.678   1.161  1.3285  0.0049 -0.5904
 1016MOL0     C40084   5.718   4.821   1.127 -0.3431  1.2525 -0.3981
 1016MOL0     C40085   5.736   4.909   1.249 -1.0941  0.8190 -0.1822
 1016MOL0     C40086   5.772   5.042   1.193  0.4020 -0.8101  1.8504
 1016MOL0     N40087   5.803   5.141   1.297  0.1020  0.6328  0.8144
 1016MOL0     C40088   5.742   5.263   1.299  0.5120 -0.2144 -0.0535
 1016MOL0     C40089   5.762   5.308   1.425  0.2463 -1.0879 -0.7610
 1016MOL0     C40090   5.704   5.441   1.473 -0.4606  0.4820  0.2512
 1016MOL0     C40091   5.806   5.564   1.462 -0.0551  0.0371 -0.3746
 1016MOL0     C40092   5.832   5.595   1.322 -0.2849  0.3501 -0.2807
 1016MOL0     C40093   5.976   5.550   1.287  0.0724  0.6098  0.2423
 1016MOL0     O40094   6.081   5.632   1.344  0.3734 -0.9517 -0.0540
 1016MOL0     C40095   6.206   5.592   1.342 -0.5418  0.8441 -0.1896
 1016MOL0     C40096   6.286   5.609   1.454 -0.0797 -0.2804 -0.3602
 1016MOL0     C40097   6.423   5.567   1.466 -0.1779 -0.4409 -0.4755
 1016MOL0     C40098   6.492   5.595   1.596  0.3926 -0.1938  0.2860
 1016MOL0     C40099   6.484   5.512   1.356 -0.3166 -0.1994 -0.5830
 1016MOL0     C40100   6.632   5.483   1.356 -0.8512 -1.0369 -0.9980
 1016MOL0     O40101   6.700   5.432   1.460  0.6258  0.5875  0.1180
 1016MOL0     C40102   6.829   5.384   1.444 -0.0360  0.4910 -0.3429
 1016MOL0     C40103   6.934   5.448   1.374  0.4697 -0.0692 -0.2051
 1016MOL0     C40104   7.056   5.388   1.358 -0.3970  0.0158 -0.7197
 1016MOL0     C40105   7.082   5.254   1.407  0.1136 -0.0299  0.1837
 1016MOL0     O40106   7.198   5.192   1.389 -0.6664  0.0953 -0.5880
 1016MOL0     C40107   7.328   5.258   1.417  0.3485  0.4115 -0.0044
 1016MOL0     C40108   7.395   5.319   1.286  0.2212 -0.4489 -0.2474
 1016MOL0     C40109   7.544   5.371   1.286 -0.5889  0.5937  0.2621
 1016MOL0     C40110   7.554   5.508   1.360 -0.0722  0.0801  0.3485
 1016MOL0     C40111   7.682   5.590   1.325  0.2813  0.3716 -0.4804
 1016MOL0     C40112   7.819   5.542   1.372  0.6617 -0.5223  0.4374
 1016MOL0     C40113   7.937   5.586   1.280 -0.0063 -0.4595  0.5438
 1016MOL0     C40114   7.933   5.569   1.134  1.0526  0.0016 -0.0094
 1016MOL0    Cl40115   8.084   5.630   1.066 -0.1682  0.6536  0.1026
 1016MOL0     C40116   6.976   5.191   1.465 -0.1913  0.3524 -0.5450
 1016MOL0     C40117   6.855   5.258   1.490  0.0519  0.3108 -0.0033
 1016MOL0     O40118   6.689   5.513   1.248  1.0585  0.3283  0.3829
 1016MOL0     C40119   6.407   5.505   1.236 -0.5074  0.6512  0.9144
 1016MOL0     C40120   6.276   5.538   1.231  0.5893 -1.1729  0.6288
 1016MOL0     N40121   5.832   5.221   1.502 -0.0705  0.1574 -0.1133
 1016MOL0     N40122   5.864   5.126   1.414 -0.0850  0.3867  0.3885
 1016MOL0     C40123   5.779   3.946   1.275  0.4147  0.1183 -0.3352
 1016MOL0     C40124   5.755   3.807   1.283  0.2362 -0.4218  0.5839
 1016MOL0     C40125   5.519   3.448   1.143 -0.5391  1.0136 -0.3951
 1016MOL0     C40126   5.495   3.381   1.269  0.9367 -0.2630 -0.3839
 1016MOL0     C40127   5.470   3.248   1.287 -0.0908 -0.4366  0.2975
 1016MOL0     C40128   5.456   3.167   1.177  1.0730  0.2839 -0.6999
 1016MOL0     O40129   5.467   3.031   1.189 -0.2056 -0.0258  0.0846
 1016MOL0     C40130   5.380   2.973   1.291  0.9016 -0.1489  0.3479
 1016MOL0     C40131   5.391   2.815   1.293  0.3712 -0.2561 -0.2807
 1016MOL0     C40132   5.298   2.744   1.183 -0.1267 -0.1898 -0.2228
 1016MOL0     C40133   5.283   2.819   1.043 -0.0199 -1.0326 -0.2065
 1016MOL0     C40134   5.184   2.737   0.964 -0.5781 -0.0399 -0.4736
 1016MOL0     C40135   5.100   2.667   0.914 -0.7751  0.1419  0.3711
 1016MOL0     C40136   5.476   3.227   1.051  0.2135  0.5965 -0.3523
 1016MOL0     C40137   5.505   3.363   1.030  0.5887  0.0433  0.5893
 1016MOL0     C40138   5.529   3.412   0.883 -0.2271  0.0277 -0.7257
 1016MOL0     H40139   5.418   3.827   1.276 -0.9623 -0.7062  5.2336
 1016MOL0     H40140   5.462   4.073   1.267 -1.6058 -0.6754  1.3125
 1016MOL0     H40141   5.806   4.179   1.110  0.1879  1.6829 -0.2546
 1016MOL0     H40142   5.885   4.204   1.268  0.0361 -0.7105  0.9464
 1016MOL0     H40143   5.738   4.412   1.295  3.3876  1.0194  0.2422
 1016MOL0     H40144   5.879   4.423   1.174 -1.6053  2.8463 -2.2128
 1016MOL0     H40145   5.686   4.363   1.012 -0.9591  0.5291 -0.4539
 1016MOL0     H40146   5.582   4.427   1.124  0.3546  0.2200  2.3840
 1016MOL0     H40147   5.822   4.590   1.015  1.2889 -3.4842 -0.4347
 1016MOL0     H40148   5.653   4.607   0.963  0.0079 -0.1791  0.4097
 1016MOL0     H40149   5.754   4.654   1.244 -1.8232  0.5002  2.2486
 1016MOL0     H40150   5.583   4.673   1.192  1.1768  1.7021 -0.7450
 1016MOL0     H40151   5.813   4.828   1.072  0.8677 -2.3428  0.9613
 1016MOL0     H40152   5.628   4.859   1.078 -0.5061 -1.2813 -2.2599
 1016MOL0     H40153   5.808   4.861   1.316  1.4556  0.8527 -2.7019
 1016MOL0     H40154   5.644   4.921   1.308 -0.0768  3.1727  1.0484
 1016MOL0     H40155   5.864   5.039   1.134  1.5328  1.2452  3.3484
 1016MOL0     H40156   5.688   5.080   1.134 -1.6801 -2.0053  3.8653
 1016MOL0     H40157   5.691   5.312   1.216  1.2230 -0.3441 -0.5811
 1016MOL0     H40158   5.692   5.429   1.582 -2.8634 -0.0372  0.0023
 1016MOL0     H40159   5.610   5.474   1.427 -0.3618  3.0039  1.6601
 1016MOL0     H40160   5.758   5.649   1.510 -2.9095 -1.4654 -0.3622
 1016MOL0     H40161   5.896   5.530   1.514 -1.7387 -0.8255  2.1749
 1016MOL0     H40162   5.762   5.544   1.255 -1.1009  0.4812  0.4528
 1016MOL0     H40163   5.821   5.702   1.304 -1.7534  0.0401 -1.3498
 1016MOL0     H40164   5.984   5.444   1.312  2.2296  0.1278 -2.1686
 1016MOL0     H40165   5.992   5.555   1.179  3.8047  0.6255  0.6843
 1016MOL0     H40166   6.242   5.665   1.535  1.0063 -0.1103  0.1351
 1016MOL0     H40167   6.426   5.648   1.666 -0.9310  2.7303 -2.9175
 1016MOL0     H40168   6.586   5.648   1.582 -0.0676  0.3666 -0.7474
 1016MOL0     H40169   6.516   5.496   1.638 -3.1870 -1.5465 -0.5236
 1016MOL0     H40170   6.917   5.547   1.332 -0.3288 -1.1538 -2.6245
 1016MOL0     H40171   7.133   5.440   1.301 -0.6711 -0.2495 -1.3318
 1016MOL0     H40172   7.306   5.346   1.478  1.8231  1.4876 -0.9486
 1016MOL0     H40173   7.400   5.195   1.470 -1.0257 -1.7293 -0.5611
 1016MOL0     H40174   7.404   5.239   1.212 -0.2522 -2.9527  2.2390
 1016MOL0     H40175   7.337   5.405   1.250 -0.3700 -0.0427  1.5407
 1016MOL0     H40176   7.564   5.392   1.181 -1.0667  4.2968  0.7817
 1016MOL0     H40177   7.617   5.296   1.320  0.9783  2.4558  1.2045
 1016MOL0     H40178   7.555   5.484   1.467  0.5361 -0.3648  0.2489
 1016MOL0     H40179   7.475   5.575   1.326 -0.6406  0.1365  1.7244
 1016MOL0     H40180   7.683   5.601   1.216 -0.8744  0.0245 -0.5413
 1016MOL0     H40181   7.666   5.690   1.367 -2.6252  0.0774 -0.6904
 1016MOL0     H40182   7.822   5.433   1.364  0.1587 -0.4447 -1.2220
 1016MOL0     H40183   7.829   5.565   1.478  1.4647 -0.8259  0.4354
 1016MOL0     H40184   8.026   5.530   1.311 -0.2066 -1.9493 -1.4229
 1016MOL0     H40185   7.946   5.691   1.309 -0.6243 -1.0519  3.2359
 1016MOL0     H40186   7.850   5.628   1.095 -1.8616 -0.2883  4.9132
 1016MOL0     H40187   7.919   5.462   1.118  2.3119 -0.0652 -0.8108
 1016MOL0     H40188   7.001   5.088   1.492  0.0348 -0.0838 -2.3132
 1016MOL0     H40189   6.771   5.206   1.534 -0.4525 -0.2730 -1.5767
 1016MOL0     H40190   6.464   5.477   1.147 -0.9949  1.1403  0.4369
 1016MOL0     H40191   6.224   5.515   1.138  1.9528 -1.1800 -0.1629
 1016MOL0     H40192   5.879   3.986   1.294 -0.4765  2.0431  0.5431
 1016MOL0     H40193   5.845   3.749   1.265  1.6491  2.2884 -2.0422
 1016MOL0     H40194   5.494   3.437   1.362  0.6488 -1.9729  0.6905
 1016MOL0     H40195   5.487   3.198   1.382  1.2582 -2.7311 -1.0441
 1016MOL0     H40196   5.401   3.023   1.386  2.5321 -0.1056 -0.0205
 1016MOL0     H40197   5.275   2.995   1.267  0.8679 -1.7337 -1.1174
 1016MOL0     H40198   5.357   2.784   1.392  3.5986 -3.4938  0.0713
 1016MOL0     H40199   5.494   2.781   1.275 -0.2627 -1.9739 -0.8753
 1016MOL0     H40200   5.343   2.646   1.165 -0.5822 -0.2470 -1.0784
 1016MOL0     H40201   5.197   2.725   1.221  0.0209 -1.4029 -0.4161
 1016MOL0     H40202   5.379   2.838   0.996 -1.1135  2.1252 -1.3863
 1016MOL0     H40203   5.234   2.913   1.068 -3.4996 -2.8653  0.4752
 1016MOL0     H40204   5.020   2.602   0.882  0.2541 -0.5415 -0.8793
 1016MOL0     H40205   5.467   3.161   0.966 -0.4701  0.2842 -0.0411
 1016MOL0     H40206   5.435   3.463   0.863  0.2450  0.9274 -0.7117
 1016MOL0     H40207   5.612   3.484   0.886 -2.4311  2.7173  1.6511
 1016MOL0     H40208   5.547   3.326   0.819  4.0685 -0.1711  0.3823
 1017MOL0     O40209   1.322   3.215   1.280 -0.2481  0.3775  0.1354
 1017MOL0     C40210   1.218   3.255   1.234 -0.4540 -0.5351  1.0240
 1017MOL0     O40211   1.142   3.359   1.279 -0.0592 -0.0323  0.0160
 1017MOL0     C40212   1.171   3.409   1.400  0.4926 -0.8516 -0.1075
 1017MOL0     C40213   1.288   3.478   1.433 -0.1670  0.0006 -0.9620
 1017MOL0     C40214   1.308   3.535   1.565 -0.3008  0.0340 -0.2686
 1017MOL0     C40215   1.199   3.538   1.657  0.8541 -0.4819  0.2532
 1017MOL0     O40216   1.207   3.600   1.784  0.7914  0.3553 -0.3701
 1017MOL0     C40217   1.082   3.634   1.849  0.0981 -0.3091 -0.0335
 1017MOL0     C40218   1.105   3.717   1.976  0.9659  0.1086 -0.8931
 1017MOL0     C40219   0.975   3.750   2.050 -0.2929 -0.7240  0.2183
 1017MOL0     C40220   1.003   3.783   2.199  0.6665  0.4562 -0.5352
 1017MOL0     C40221   0.868   3.802   2.272  1.1626  0.4133  0.0047
 1017MOL0     C40222   0.897   3.852   2.417  0.0554  0.1612  0.0284
 1017MOL0     C40223   0.771   3.857   2.501 -0.8155 -1.0099  0.5204
 1017MOL0     C40224   0.756   3.728   2.578 -0.4284 -0.0095  0.1828
 1017MOL0     N40225   0.838   3.725   2.704  1.8597  0.2881  0.2543
 1017MOL0     C40226   0.845   3.825   2.809  0.6203 -1.2726  1.4186
 1017MOL0     C40227   0.940   3.776   2.890 -0.2502 -0.3767  0.3720
 1017MOL0     C40228   1.002   3.827   3.022 -0.0510  0.6145  0.6396
 1017MOL0     C40229   1.107   3.924   2.989 -0.3271  0.1141 -0.1451
 1017MOL0     C40230   1.214   3.940   3.100 -0.0340 -0.4700 -0.1677
 1017MOL0     C40231   1.154   4.008   3.223 -0.7692 -0.1625 -0.0731
 1017MOL0     O40232   1.053   4.106   3.173  0.5960  0.1226 -0.8515
 1017MOL0     C40233   0.985   4.166   3.270 -0.1266 -0.5927  0.7066
 1017MOL0     C40234   1.006   4.309   3.285  0.3118  0.5872  0.3265
 1017MOL0     C40235   0.954   4.378   3.390 -0.2920 -0.2637  0.5020
 1017MOL0     C40236   1.006   4.518   3.400 -0.0385  1.2449  0.4812
 1017MOL0     C40237   0.863   4.312   3.478 -0.1783 -0.2848  0.0526
 1017MOL0     C40238   0.800   4.379   3.594  0.1913 -0.9286 -0.5787
 1017MOL0     O40239   0.841   4.511   3.626 -0.1590 -0.1657 -0.3407
 1017MOL0     C40240   0.777   4.566   3.732  0.8910 -0.0918  0.2276
 1017MOL0     C40241   0.759   4.506   3.857  0.2950  0.5059 -0.9655
 1017MOL0     C40242   0.706   4.584   3.963 -0.3115  0.2352  0.3696
 1017MOL0     C40243   0.639   4.712   3.946  0.8831  0.0003 -0.6404
 1017MOL0     O40244   0.568   4.758   4.052  0.0248  0.2388 -0.3642
 1017MOL0     C40245   0.501   4.880   4.040 -0.0133 -0.4767 -0.6592
 1017MOL0     C40246   0.362   4.879   3.969 -0.6380 -0.3608  0.1454
 1017MOL0     C40247   0.257   4.766   4.013 -0.2950 -0.0159 -0.2084
 1017MOL0     C40248   0.198   4.811   4.142 -0.3759  0.6432 -1.0268
 1017MOL0     C40249   0.109   4.703   4.214  0.3890  0.0161  0.4051
 1017MOL0     C40250   0.036   4.753   4.342  0.0592 -0.2716  0.1447
 1017MOL0     C40251  -0.077   4.666   4.397 -0.2271  1.0592  0.0917
 1017MOL0     C40252  -0.034   4.527   4.457 -0.3291 -0.4334  0.6037
 1017MOL0    Cl40253   0.081   4.561   4.589  0.0421 -0.4360  0.2781
 1017MOL0     C40254   0.655   4.768   3.819 -1.2098 -0.0987  0.8797
 1017MOL0     C40255   0.735   4.698   3.718  0.1721 -0.7267  0.6710
 1017MOL0     O40256   0.719   4.312   3.648  0.1766  0.4469 -0.3965
 1017MOL0     C40257   0.847   4.171   3.461 -0.2533  0.3487  0.1059
 1017MOL0     C40258   0.906   4.099   3.359 -0.4440  0.7727  0.9118
 1017MOL0     N40259   0.987   3.655   2.841  0.5352  0.1298 -0.3048
 1017MOL0     N40260   0.931   3.630   2.722  0.0089  0.2831  0.0820
 1017MOL0     C40261   1.075   3.467   1.617  0.5200 -0.0664  0.5038
 1017MOL0     C40262   1.065   3.403   1.494 -0.0599 -0.3262 -0.0456
 1017MOL0     C40263   1.177   3.198   1.099  0.1825  0.0709 -0.0521
 1017MOL0     C40264   1.206   3.060   1.079 -0.1279  0.3368  0.3625
 1017MOL0     C40265   1.171   3.000   0.962  0.1177  0.2210 -0.2097
 1017MOL0     C40266   1.103   3.075   0.862  0.2752 -0.3568 -0.1430
 1017MOL0     O40267   1.059   3.020   0.747 -0.2584 -0.7495  0.1629
 1017MOL0     C40268   1.042   2.885   0.735 -0.4559 -0.5443 -0.0035
 1017MOL0     C40269   0.965   2.836   0.614  0.2737 -0.0541 -0.7565
 1017MOL0     C40270   1.021   2.903   0.491 -0.4255 -0.3630  0.1526
 1017MOL0     C40271   0.941   2.877   0.360  0.0084  0.2400 -0.3117
 1017MOL0     C40272   0.980   2.971   0.250  1.0009 -0.1548  0.2647
 1017MOL0     C40273   1.011   3.037   0.162 -0.3679  1.4052  0.0423
 1017MOL0     C40274   1.093   3.217   0.881 -0.3406 -0.2539  0.5482
 1017MOL0     C40275   1.132   3.286   0.995  0.6248 -0.0763 -0.2629
 1017MOL0     C40276   1.110   3.434   1.006  0.1177 -0.9466 -0.4963
 1017MOL0     H40277   1.368   3.479   1.360  0.6433  2.2073 -0.1450
 1017MOL0     H40278   1.402   3.581   1.592 -1.4284  1.7928  0.8255
 1017MOL0     H40279   1.032   3.542   1.881 -2.1563  0.5245 -0.9415
 1017MOL0     H40280   1.011   3.685   1.783 -0.1396 -1.2650 -0.5453
 1017MOL0     H40281   1.180   3.663   2.036  1.9155 -0.3715 -2.4472
 1017MOL0     H40282   1.154   3.808   1.942  3.1526 -1.3146 -1.7989
 1017MOL0     H40283   0.932   3.840   2.005  0.9780  0.6604  1.6541
 1017MOL0     H40284   0.917   3.657   2.043  1.4804 -1.8997  0.6630
 1017MOL0     H40285   1.065   3.702   2.240 -0.5445  1.4628  3.8290
 1017MOL0     H40286   1.054   3.879   2.213  1.5038  0.3137 -2.3586
 1017MOL0     H40287   0.829   3.700   2.264  3.0601 -0.1934 -4.1158
 1017MOL0     H40288   0.808   3.880   2.223  2.2455  0.8814 -0.6034
 1017MOL0     H40289   0.978   3.792   2.460  0.0060  0.8481  1.1262
 1017MOL0     H40290   0.930   3.955   2.402 -1.0242  0.2206 -2.3402
 1017MOL0     H40291   0.685   3.887   2.439  0.2841  2.0281  0.2907
 1017MOL0     H40292   0.782   3.943   2.568  1.1577 -0.6259 -0.2250
 1017MOL0     H40293   0.651   3.705   2.602 -0.3809  1.8593  2.6336
 1017MOL0     H40294   0.795   3.648   2.515  1.1192  0.0113  1.0767
 1017MOL0     H40295   0.801   3.923   2.827 -0.5572 -1.8048  1.5077
 1017MOL0     H40296   1.036   3.730   3.060  1.3365 -0.5908 -3.1768
 1017MOL0     H40297   0.927   3.874   3.086 -0.6063  0.4616  0.1116
 1017MOL0     H40298   1.170   3.876   2.914  2.7666  1.1950  1.5831
 1017MOL0     H40299   1.069   4.021   2.955 -1.5122 -0.8807 -1.8185
 1017MOL0     H40300   1.255   3.842   3.127 -3.7721 -1.9959  0.5864
 1017MOL0     H40301   1.295   4.009   3.075 -1.3744  2.4121  2.7371
 1017MOL0     H40302   1.112   3.931   3.289  1.0864 -3.6977 -2.6941
 1017MOL0     H40303   1.239   4.056   3.273  1.9520  0.0722 -4.4246
 1017MOL0     H40304   1.072   4.363   3.218  1.1200 -0.9876 -0.1998
 1017MOL0     H40305   0.929   4.595   3.390  1.2429  2.5072  0.0179
 1017MOL0     H40306   1.073   4.533   3.315  0.2967 -0.0572  0.4956
 1017MOL0     H40307   1.064   4.533   3.492  3.7140 -0.2129 -1.4218
 1017MOL0     H40308   0.800   4.409   3.884 -5.3969 -1.0674  4.6264
 1017MOL0     H40309   0.705   4.531   4.057 -0.9369 -4.2022 -1.8858
 1017MOL0     H40310   0.476   4.927   4.135 -0.3899  1.3065 -1.5935
 1017MOL0     H40311   0.563   4.946   3.979  0.5860  0.4784  0.9437
 1017MOL0     H40312   0.308   4.974   3.966 -0.0391 -0.0345 -1.0176
 1017MOL0     H40313   0.381   4.860   3.863 -1.0063 -3.5719  0.5331
 1017MOL0     H40314   0.312   4.672   4.024  1.1099  0.7795 -0.2249
 1017MOL0     H40315   0.184   4.761   3.932 -2.4708  2.5226  1.4333
 1017MOL0     H40316   0.131   4.897   4.129 -0.0075  1.3548  1.1894
 1017MOL0     H40317   0.270   4.844   4.217 -3.5353 -0.6248  2.9542
 1017MOL0     H40318   0.030   4.683   4.141 -0.8868  3.0323  0.8064
 1017MOL0     H40319   0.161   4.610   4.237  0.8327  0.1301 -0.1042
 1017MOL0     H40320  -0.021   4.839   4.305 -0.8435 -0.3119  1.3751
 1017MOL0     H40321   0.105   4.792   4.417 -0.2941  4.6718 -1.7179
 1017MOL0     H40322  -0.152   4.640   4.321  0.4028 -1.3627  0.2111
 1017MOL0     H40323  -0.135   4.713   4.476 -1.9049  0.4871 -0.7374
 1017MOL0     H40324   0.024   4.468   4.386  0.7343  1.4702 -0.2050
 1017MOL0     H40325  -0.116   4.459   4.481 -0.0736 -1.9317 -2.4266
 1017MOL0     H40326   0.635   4.874   3.807 -0.8429  0.1884  2.6251
 1017MOL0     H40327   0.746   4.739   3.618  0.6410 -1.4971  0.3989
 1017MOL0     H40328   0.785   4.108   3.524  1.3421 -1.1732  0.2284
 1017MOL0     H40329   0.875   3.996   3.344 -1.6987  0.7777  2.9566
 1017MOL0     H40330   0.980   3.464   1.669  0.9260 -2.7387  1.2429
 1017MOL0     H40331   0.971   3.349   1.484 -2.1628  2.6367  2.0608
 1017MOL0     H40332   1.249   3.001   1.160 -0.1888 -0.1423  0.0459
 1017MOL0     H40333   1.170   2.891   0.956 -2.9246  0.0027  1.8236
 1017MOL0     H40334   1.142   2.841   0.735 -0.9132 -1.7238 -1.8858
 1017MOL0     H40335   0.980   2.856   0.820 -2.1959  0.1684 -0.9783
 1017MOL0     H40336   0.861   2.858   0.638  0.2323  0.2566 -1.2118
 1017MOL0     H40337   0.964   2.727   0.607  0.2512 -0.2209  1.1719
 1017MOL0     H40338   1.036   3.011   0.501  1.2706 -0.5475 -0.0156
 1017MOL0     H40339   1.124   2.865   0.490  0.0063  0.7656  0.1010
 1017MOL0     H40340   0.832   2.888   0.372  0.3403  2.4557  1.3455
 1017MOL0     H40341   0.955   2.774   0.328  1.0348  0.1723  0.3258
 1017MOL0     H40342   1.025   3.116   0.090  1.8629  0.3392 -0.7956
 1017MOL0     H40343   1.044   3.279   0.806 -3.0225  0.2460  2.5716
 1017MOL0     H40344   1.206   3.481   1.030 -1.0620  2.6295 -2.1435
 1017MOL0     H40345   1.069   3.487   0.920  3.4409  2.2707 -0.3823
 1017MOL0     H40346   1.042   3.462   1.087  1.2216  1.5684 -0.3654
 1018MOL0     O40347   4.715   5.111   5.871  0.5416 -0.0012  0.0926
 1018MOL0     C40348   4.795   5.197   5.851  0.2991  0.9315 -0.0648
 1018MOL0     O40349   4.931   5.178   5.864 -0.3984 -0.0552  0.8396
 1018MOL0     C40350   4.968   5.067   5.936 -0.5745  0.6034 -0.0400
 1018MOL0     C40351   4.991   5.074   6.070  0.0317 -0.6068  0.5184
 1018MOL0     C40352   5.034   4.967   6.150 -0.8294 -0.6952 -0.2104
 1018MOL0     C40353   5.067   4.847   6.078  0.0058 -0.5210  0.2658
 1018MOL0     O40354   5.113   4.727   6.122  0.5328 -0.4292 -0.4813
 1018MOL0     C40355   5.236   4.746   6.193 -0.6684 -0.7873  0.7070
 1018MOL0     C40356   5.347   4.792   6.105  0.3165  0.4424  0.2324
 1018MOL0     C40357   5.436   4.907   6.170  1.2061 -0.0828 -0.2758
 1018MOL0     C40358   5.534   4.847   6.271  0.6209  0.2634  0.4620
 1018MOL0     C40359   5.605   4.958   6.346  0.3015  0.0117  0.0361
 1018MOL0     C40360   5.728   5.006   6.258 -0.3291 -0.9524  0.0524
 1018MOL0     C40361   5.818   5.099   6.341 -0.1115 -0.0475  0.1483
 1018MOL0     C40362   5.937   5.146   6.248 -0.0875 -0.3420  0.0394
 1018MOL0     N40363   6.002   5.252   6.320  0.4033 -0.2849 -0.5058
 1018MOL0     C40364   6.084   5.239   6.430 -0.1430 -0.1066 -0.0387
 1018MOL0     C40365   6.142   5.366   6.442  0.3577  0.2667 -0.4614
 1018MOL0     C40366   6.229   5.412   6.561  0.0787 -0.6789  0.0877
 1018MOL0     C40367   6.303   5.536   6.530 -0.5970 -0.1554  0.3968
 1018MOL0     C40368   6.432   5.535   6.606 -0.0213  0.1333 -0.1017
 1018MOL0     C40369   6.507   5.670   6.580  0.5355  1.2104  0.0379
 1018MOL0     O40370   6.630   5.667   6.649  0.0085  0.3980 -0.5021
 1018MOL0     C40371   6.738   5.687   6.578  0.2556 -0.4658  0.2317
 1018MOL0     C40372   6.855   5.624   6.626 -0.4209  0.4498  0.5695
 1018MOL0     C40373   6.981   5.653   6.568  0.1829 -0.0594 -0.4100
 1018MOL0     C40374   7.095   5.576   6.630  0.2974 -0.2097  0.1091
 1018MOL0     C40375   6.990   5.730   6.450 -0.6858 -0.7979 -1.3903
 1018MOL0     C40376   7.115   5.754   6.392 -0.9933  0.3228 -0.7650
 1018MOL0     O40377   7.129   5.876   6.341 -0.0630  0.0283  0.8906
 1018MOL0     C40378   7.211   5.906   6.232  0.1824  1.3413 -0.1386
 1018MOL0     C40379   7.288   6.024   6.238  0.5722  0.3798  0.2771
 1018MOL0     C40380   7.387   6.043   6.135 -0.7320  0.2325  0.4455
 1018MOL0     C40381   7.403   5.953   6.024  0.6037  0.0766 -0.8663
 1018MOL0     O40382   7.487   5.957   5.917  0.1015 -0.3137  0.2110
 1018MOL0     C40383   7.563   6.072   5.871 -0.6793 -0.0759  0.7377
 1018MOL0     C40384   7.619   6.034   5.739 -0.1964  0.1013 -0.8449
 1018MOL0     C40385   7.511   6.049   5.633 -0.4172  0.3517  0.0114
 1018MOL0     C40386   7.552   5.983   5.498  0.3718 -0.4463 -0.5597
 1018MOL0     C40387   7.612   5.842   5.506  0.6104 -0.1521 -0.3772
 1018MOL0     C40388   7.592   5.767   5.373  0.7860  0.3870  0.1427
 1018MOL0     C40389   7.669   5.816   5.249  0.2657 -0.1261 -0.4849
 1018MOL0     C40390   7.815   5.797   5.241 -0.3473 -0.1180  0.5367
 1018MOL0    Cl40391   7.879   5.662   5.338 -0.4025 -0.1367  0.2490
 1018MOL0     C40392   7.313   5.844   6.017 -0.1770  0.2145  0.3629
 1018MOL0     C40393   7.221   5.818   6.119 -0.6470 -0.2957 -0.4250
 1018MOL0     O40394   7.197   5.662   6.376 -0.4580  0.6821  0.6189
 1018MOL0     C40395   6.869   5.802   6.413  0.9738 -0.1929  0.8998
 1018MOL0     C40396   6.750   5.792   6.485  0.8917 -0.2719  0.3719
 1018MOL0     N40397   6.091   5.443   6.345  0.5377 -0.4292 -0.2059
 1018MOL0     N40398   6.006   5.378   6.269 -0.3423  0.8803  0.6174
 1018MOL0     C40399   5.054   4.840   5.942  0.0646 -0.2884  0.5536
 1018MOL0     C40400   5.003   4.948   5.871 -0.7901 -0.5378 -0.0708
 1018MOL0     C40401   4.744   5.318   5.780  0.2756  0.6278 -0.3979
 1018MOL0     C40402   4.832   5.400   5.719  0.4034  0.2467 -0.0852
 1018MOL0     C40403   4.810   5.529   5.690 -0.3323 -1.3532  0.6610
 1018MOL0     C40404   4.683   5.579   5.703  0.1766  0.6214  0.0187
 1018MOL0     O40405   4.642   5.706   5.667  0.4709  0.3186  0.5662
 1018MOL0     C40406   4.739   5.817   5.642  0.5864 -1.2121 -0.6227
 1018MOL0     C40407   4.667   5.947   5.630 -0.7065 -1.1695 -0.6602
 1018MOL0     C40408   4.590   5.948   5.499  0.3633 -0.6432  0.9529
 1018MOL0     C40409   4.487   6.072   5.487  0.8158  0.0449 -0.1091
 1018MOL0     C40410   4.425   6.057   5.358  0.1929  0.0180 -0.7359
 1018MOL0     C40411   4.348   6.056   5.262 -0.1781 -0.1908 -0.0884
 1018MOL0     C40412   4.582   5.490   5.744  0.5394  0.1135  0.6495
 1018MOL0     C40413   4.607   5.356   5.796 -0.1943 -0.8285  0.0171
 1018MOL0     C40414   4.491   5.278   5.853 -0.1298  0.2715  0.1595
 1018MOL0     H40415   4.956   5.163   6.122 -0.5898 -0.2387 -0.4991
 1018MOL0     H40416   5.028   4.975   6.258  0.7797 -1.8055 -0.0048
 1018MOL0     H40417   5.256   4.648   6.236  0.9263 -0.4548  0.7872
 1018MOL0     H40418   5.231   4.821   6.273  0.4415 -2.0579  2.0213
 1018MOL0     H40419   5.415   4.709   6.085  1.5061  1.0771  1.5542
 1018MOL0     H40420   5.299   4.830   6.014  0.4693 -0.4339 -0.2228
 1018MOL0     H40421   5.495   4.951   6.088  0.6083 -0.5033 -0.9495
 1018MOL0     H40422   5.370   4.987   6.206 -1.8087 -0.7530 -3.6778
 1018MOL0     H40423   5.488   4.781   6.346 -0.2963  0.4758  0.0936
 1018MOL0     H40424   5.608   4.791   6.213  1.1356  2.8158 -1.5218
 1018MOL0     H40425   5.642   4.930   6.445  0.4413  1.3180  0.3720
 1018MOL0     H40426   5.530   5.036   6.361 -0.4070 -0.8266  0.9245
 1018MOL0     H40427   5.793   4.923   6.226  0.1773  0.0068 -1.5461
 1018MOL0     H40428   5.698   5.062   6.169 -1.3913  2.1968  2.2176
 1018MOL0     H40429   5.851   5.044   6.429  1.3776  0.6177  0.0369
 1018MOL0     H40430   5.764   5.189   6.370  0.4749  0.6766 -0.9107
 1018MOL0     H40431   6.002   5.065   6.213 -1.7433 -1.3431 -0.8437
 1018MOL0     H40432   5.889   5.185   6.158  1.0100 -2.1254 -1.3783
 1018MOL0     H40433   6.091   5.158   6.502 -0.3205 -0.5973 -0.5671
 1018MOL0     H40434   6.303   5.333   6.579 -0.4824 -0.9194  1.4619
 1018MOL0     H40435   6.163   5.427   6.646 -0.1260 -1.0111 -0.0094
 1018MOL0     H40436   6.327   5.534   6.424  2.7675  0.2370  1.0334
 1018MOL0     H40437   6.235   5.619   6.554 -1.5759 -0.8193 -0.0207
 1018MOL0     H40438   6.420   5.536   6.715  1.9777  1.9823  0.1835
 1018MOL0     H40439   6.495   5.449   6.583  2.6932  2.0108 -0.1893
 1018MOL0     H40440   6.516   5.685   6.472  1.1145  0.4397 -0.0302
 1018MOL0     H40441   6.441   5.751   6.614 -1.4049 -0.9021  1.6203
 1018MOL0     H40442   6.845   5.563   6.715 -0.0405 -2.4630 -1.2566
 1018MOL0     H40443   7.054   5.493   6.688 -2.7531 -0.8391 -2.6805
 1018MOL0     H40444   7.155   5.643   6.693 -0.3785  0.9079 -0.3980
 1018MOL0     H40445   7.167   5.533   6.560 -0.1925  0.3220 -0.7369
 1018MOL0     H40446   7.280   6.105   6.309  3.5322  2.3741 -1.4563
 1018MOL0     H40447   7.443   6.136   6.143 -0.5986  0.0630  1.6737
 1018MOL0     H40448   7.498   6.160   5.864  0.1466  0.6709  2.0387
 1018MOL0     H40449   7.651   6.104   5.928  0.3158 -0.4966 -0.5074
 1018MOL0     H40450   7.708   6.096   5.722  0.8059 -1.1097 -0.2344
 1018MOL0     H40451   7.662   5.933   5.747  0.8040  0.6359  1.6459
 1018MOL0     H40452   7.475   6.151   5.623 -0.0971  0.5296  0.6484
 1018MOL0     H40453   7.435   5.990   5.686 -1.8742  0.9551 -1.3371
 1018MOL0     H40454   7.613   6.055   5.442 -3.8773  1.5426 -3.1771
 1018MOL0     H40455   7.459   5.965   5.443  0.1570  0.3695 -0.4782
 1018MOL0     H40456   7.720   5.847   5.523  0.8509  1.0350 -1.9550
 1018MOL0     H40457   7.555   5.787   5.581  2.7359 -0.8935  0.7849
 1018MOL0     H40458   7.485   5.774   5.353  0.6373  0.1192  0.8426
 1018MOL0     H40459   7.609   5.661   5.391  0.5848  0.2803 -0.2725
 1018MOL0     H40460   7.632   5.917   5.229 -2.8262 -1.4695 -2.4957
 1018MOL0     H40461   7.632   5.765   5.159 -0.0510 -0.3567 -0.2283
 1018MOL0     H40462   7.870   5.886   5.274 -1.4404 -0.4603  3.6140
 1018MOL0     H40463   7.843   5.781   5.136 -3.9600  0.6688 -0.7200
 1018MOL0     H40464   7.320   5.786   5.926  1.4811 -1.8735  1.7201
 1018MOL0     H40465   7.143   5.743   6.127 -1.5929  0.8487  2.0321
 1018MOL0     H40466   6.877   5.865   6.325 -0.9805 -3.6607 -2.0496
 1018MOL0     H40467   6.667   5.859   6.466  2.1910  2.1362  2.5343
 1018MOL0     H40468   5.082   4.744   5.899  1.2619 -0.5260  1.7789
 1018MOL0     H40469   4.985   4.927   5.766 -0.3800  2.5334 -0.8429
 1018MOL0     H40470   4.932   5.363   5.701 -0.8043 -2.8820 -1.1298
 1018MOL0     H40471   4.893   5.589   5.653 -0.4470 -2.2783 -1.2143
 1018MOL0     H40472   4.811   5.815   5.725 -1.0119 -1.8469  0.7930
 1018MOL0     H40473   4.800   5.796   5.553  0.9639 -2.1270 -0.1641
 1018MOL0     H40474   4.730   6.036   5.640 -1.8567 -0.5221  1.4006
 1018MOL0     H40475   4.601   5.944   5.717 -1.9580 -0.6247 -1.5630
 1018MOL0     H40476   4.664   5.951   5.419 -0.0740  1.7282  0.5694
 1018MOL0     H40477   4.527   5.860   5.483  0.5127 -0.4967 -0.5162
 1018MOL0     H40478   4.547   6.164   5.487  2.8118 -1.1451 -2.3451
 1018MOL0     H40479   4.421   6.083   5.574 -0.6643  1.9331 -1.4127
 1018MOL0     H40480   4.280   6.065   5.179 -0.1703 -0.6875 -0.1553
 1018MOL0     H40481   4.480   5.526   5.740  0.7386  0.5783 -1.0789
 1018MOL0     H40482   4.393   5.328   5.856 -0.9516 -1.3010  0.7419
 1018MOL0     H40483   4.486   5.186   5.794  2.7976  0.8374 -1.1244
 1018MOL0     H40484   4.514   5.263   5.959 -1.8316  1.6197  0.7726
 1019MOL0     O40485   6.731  10.367   4.672  0.2725 -0.5220  0.0553
 1019MOL0     C40486   6.759  10.482   4.695 -0.0489  0.8580  0.9059
 1019MOL0     O40487   6.769  10.534   4.817  0.4680  0.3688 -0.0599
 1019MOL0     C40488   6.699  10.482   4.916  0.4396 -0.6680  1.1316
 1019MOL0     C40489   6.569  10.436   4.917  0.5430 -0.0848 -0.2934
 1019MOL0     C40490   6.504  10.387   5.039 -0.5318  0.7737 -0.0971
 1019MOL0     C40491   6.559  10.416   5.166 -0.5514 -0.4160 -0.1963
 1019MOL0     O40492   6.481  10.391   5.273 -0.1926 -0.4218 -0.2550
 1019MOL0     C40493   6.553  10.360   5.399 -0.6778  0.1248 -0.9979
 1019MOL0     C40494   6.611  10.219   5.407 -0.7062  0.4696  0.1375
 1019MOL0     C40495   6.500  10.120   5.432  0.3578 -0.6152  0.1146
 1019MOL0     C40496   6.425  10.098   5.306 -0.2575 -0.5431 -0.2142
 1019MOL0     C40497   6.322   9.978   5.325 -0.0463 -0.1424 -0.6794
 1019MOL0     C40498   6.255   9.962   5.189  0.2680  0.0988  0.3049
 1019MOL0     C40499   6.201   9.815   5.169 -0.1746  0.8763  0.3456
 1019MOL0     C40500   6.064   9.798   5.237  0.5398 -0.5932 -0.7380
 1019MOL0     N40501   6.024   9.659   5.207 -0.3245  0.0689 -0.7993
 1019MOL0     C40502   6.013   9.561   5.309  0.3438  0.6139  0.8400
 1019MOL0     C40503   5.983   9.452   5.238 -0.5790  0.1262 -0.2197
 1019MOL0     C40504   5.963   9.315   5.289 -0.5434 -0.7101  0.0813
 1019MOL0     C40505   5.837   9.298   5.365  0.4077  0.1077 -0.5034
 1019MOL0     C40506   5.802   9.154   5.406 -0.6097  0.4674 -0.3147
 1019MOL0     C40507   5.867   9.114   5.543 -0.0383  0.1202 -0.4301
 1019MOL0     O40508   5.833   9.203   5.655 -0.5220 -0.4892  1.0001
 1019MOL0     C40509   5.929   9.209   5.745  0.3180 -0.1303  0.2294
 1019MOL0     C40510   5.879   9.197   5.877 -0.4864 -0.9170 -0.8577
 1019MOL0     C40511   5.964   9.241   5.980 -0.2391  0.6859 -0.4491
 1019MOL0     C40512   5.912   9.217   6.122 -0.1182  0.0989 -0.4345
 1019MOL0     C40513   6.101   9.278   5.942  0.8393  0.0757 -0.9475
 1019MOL0     C40514   6.195   9.302   6.050 -0.9054  0.7489 -0.4836
 1019MOL0     O40515   6.331   9.303   6.014 -0.2542  0.3211 -0.0511
 1019MOL0     C40516   6.414   9.340   6.110 -1.2178 -0.2244 -0.3663
 1019MOL0     C40517   6.449   9.474   6.124  0.4637  0.3062 -0.5713
 1019MOL0     C40518   6.540   9.510   6.228  0.1490  0.6433 -0.0219
 1019MOL0     C40519   6.596   9.417   6.315  0.1553  0.0913  0.0814
 1019MOL0     O40520   6.679   9.447   6.422  0.5679  0.2579  0.3463
 1019MOL0     C40521   6.784   9.536   6.396  0.2424 -0.5652  0.7105
 1019MOL0     C40522   6.914   9.472   6.360  0.2718  0.2691 -0.5700
 1019MOL0     C40523   6.960   9.374   6.470  1.0209 -0.0638  0.1977
 1019MOL0     C40524   7.105   9.374   6.486 -0.4639 -0.2609 -0.0454
 1019MOL0     C40525   7.138   9.268   6.600 -0.5898 -0.4837  0.4073
 1019MOL0     C40526   7.160   9.129   6.537 -0.3279  0.0543  0.0260
 1019MOL0     C40527   7.239   9.035   6.632  1.3305  1.5212 -0.1213
 1019MOL0     C40528   7.308   8.916   6.553  0.8116 -0.4897 -0.1749
 1019MOL0    Cl40529   7.472   8.969   6.495  0.0557  0.6489 -0.2504
 1019MOL0     C40530   6.558   9.287   6.297 -0.5891  0.5683 -0.1941
 1019MOL0     C40531   6.489   9.247   6.183 -0.2293 -0.0922 -0.4467
 1019MOL0     O40532   6.162   9.341   6.161  0.8929 -0.3726  0.4584
 1019MOL0     C40533   6.139   9.301   5.811  0.0037  0.5996 -0.6564
 1019MOL0     C40534   6.052   9.262   5.710  0.8406 -0.5722 -0.2681
 1019MOL0     N40535   5.980   9.478   5.104  0.9497 -0.0793 -0.2538
 1019MOL0     N40536   5.989   9.602   5.088  0.3686  0.0975 -0.9855
 1019MOL0     C40537   6.687  10.479   5.163 -0.1514 -0.1987 -0.4806
 1019MOL0     C40538   6.751  10.504   5.040 -0.4174 -0.1903  0.2020
 1019MOL0     C40539   6.815  10.558   4.585 -0.4059  0.7140  0.8522
 1019MOL0     C40540   6.894  10.674   4.616 -0.4553  0.2800  0.3952
 1019MOL0     C40541   6.935  10.760   4.515 -0.1336 -1.0338 -0.5262
 1019MOL0     C40542   6.887  10.748   4.381 -0.2083  0.0481 -0.1101
 1019MOL0     O40543   6.927  10.833   4.282 -0.9514 -0.0192  0.4663
 1019MOL0     C40544   6.950  10.780   4.148  0.2753  0.3855  0.4032
 1019MOL0     C40545   7.070  10.680   4.147  0.1995 -0.5639  0.7129
 1019MOL0     C40546   7.123  10.659   4.003 -0.8073 -0.8267  0.3463
 1019MOL0     C40547   7.268  10.618   4.004  0.9135 -0.1295  0.1188
 1019MOL0     C40548   7.366  10.720   4.055  0.4573 -0.1283 -0.6241
 1019MOL0     C40549   7.446  10.807   4.102 -0.1293 -0.0568  0.0338
 1019MOL0     C40550   6.808  10.638   4.354 -0.3321  0.1760 -0.5528
 1019MOL0     C40551   6.785  10.533   4.451 -0.2328 -0.2258  0.1776
 1019MOL0     C40552   6.714  10.406   4.395  0.1746 -0.1219  0.0158
 1019MOL0     H40553   6.521  10.422   4.820  1.6459 -2.7707 -0.5509
 1019MOL0     H40554   6.412  10.330   5.033 -1.0403  1.6555 -1.1441
 1019MOL0     H40555   6.481  10.383   5.479  0.1179  1.4601 -0.6369
 1019MOL0     H40556   6.628  10.437   5.418 -0.8992 -0.2151  1.6135
 1019MOL0     H40557   6.665  10.206   5.312  0.1586 -0.9316  0.7935
 1019MOL0     H40558   6.685  10.216   5.487 -1.0592 -0.1644  0.4445
 1019MOL0     H40559   6.539  10.018   5.444  2.7671  0.4038  1.7680
 1019MOL0     H40560   6.439  10.148   5.518 -0.4673 -1.2900 -0.2282
 1019MOL0     H40561   6.365  10.189   5.293  1.3270  0.8788  1.7140
 1019MOL0     H40562   6.492  10.088   5.220 -3.6070 -0.3051 -3.0781
 1019MOL0     H40563   6.255   9.996   5.409  0.0247  0.9532 -0.8442
 1019MOL0     H40564   6.381   9.887   5.342 -1.4581 -0.8207  0.7676
 1019MOL0     H40565   6.183  10.043   5.174 -0.0729  0.8266  4.6965
 1019MOL0     H40566   6.333   9.977   5.114  1.7641  1.9349  2.1321
 1019MOL0     H40567   6.267   9.738   5.210 -1.5238 -0.5692 -0.0759
 1019MOL0     H40568   6.181   9.794   5.063  3.1161 -1.4933  0.0377
 1019MOL0     H40569   6.078   9.809   5.345 -2.2120  1.0188 -0.4677
 1019MOL0     H40570   5.979   9.858   5.204  0.0191 -1.2996 -0.7112
 1019MOL0     H40571   6.031   9.570   5.415 -0.7831 -2.7987  1.4246
 1019MOL0     H40572   6.046   9.302   5.359 -0.6543  1.6745  0.7513
 1019MOL0     H40573   5.963   9.244   5.206 -0.6618  1.7893 -2.2047
 1019MOL0     H40574   5.837   9.373   5.444  1.7199  0.3401 -0.7018
 1019MOL0     H40575   5.752   9.338   5.309 -0.6204 -0.3341  0.6760
 1019MOL0     H40576   5.693   9.154   5.418 -0.7467  1.4417 -1.3946
 1019MOL0     H40577   5.817   9.088   5.320  1.4602  3.4788 -2.4538
 1019MOL0     H40578   5.831   9.016   5.574 -0.3158  0.7600  1.4006
 1019MOL0     H40579   5.975   9.107   5.526  0.0695 -0.6547  0.4931
 1019MOL0     H40580   5.788   9.150   5.913  2.5359 -5.1060  2.3812
 1019MOL0     H40581   5.820   9.159   6.123  1.2672 -2.4210 -3.3033
 1019MOL0     H40582   5.893   9.311   6.176  0.6860  1.6227 -2.6533
 1019MOL0     H40583   5.973   9.160   6.193 -1.2049  0.9968  1.2850
 1019MOL0     H40584   6.413   9.549   6.056 -1.9974 -1.9457 -1.9576
 1019MOL0     H40585   6.567   9.614   6.238  0.6883  0.5323 -0.3090
 1019MOL0     H40586   6.753   9.603   6.315  2.3854 -1.9601 -1.3984
 1019MOL0     H40587   6.793   9.608   6.478 -0.7130  3.2569 -2.2390
 1019MOL0     H40588   6.910   9.423   6.263  1.5219  2.1572 -1.6490
 1019MOL0     H40589   6.993   9.547   6.346 -0.6291  0.8032 -3.4163
 1019MOL0     H40590   6.921   9.274   6.453  1.1423  0.0722 -1.0039
 1019MOL0     H40591   6.915   9.398   6.566  0.8096 -0.8606  0.3019
 1019MOL0     H40592   7.146   9.469   6.520  0.6640 -0.8551  0.2797
 1019MOL0     H40593   7.160   9.350   6.395  0.6690 -1.2746  0.8800
 1019MOL0     H40594   7.238   9.291   6.639 -0.1918 -2.1197  0.4532
 1019MOL0     H40595   7.069   9.274   6.684  0.2986  1.5266  1.0425
 1019MOL0     H40596   7.214   9.141   6.443 -0.8550  0.4771 -0.2301
 1019MOL0     H40597   7.060   9.089   6.519 -0.1300  0.6067 -2.7740
 1019MOL0     H40598   7.173   8.997   6.710 -0.5079  0.7763 -1.9485
 1019MOL0     H40599   7.322   9.085   6.683  0.1296  1.5150  1.9546
 1019MOL0     H40600   7.238   8.878   6.477 -0.1050  0.0408  0.3816
 1019MOL0     H40601   7.330   8.829   6.616 -3.0166 -1.7621 -0.3360
 1019MOL0     H40602   6.612   9.219   6.363 -1.5782  2.0069  2.2333
 1019MOL0     H40603   6.472   9.141   6.169  1.4673 -0.2030 -1.9146
 1019MOL0     H40604   6.239   9.331   5.784  1.1517 -0.4578  1.9678
 1019MOL0     H40605   6.069   9.286   5.606  0.1563  1.6751  0.0778
 1019MOL0     H40606   6.735  10.522   5.251 -1.0046  1.5347 -0.8064
 1019MOL0     H40607   6.844  10.560   5.044 -0.1552 -0.6933  1.6879
 1019MOL0     H40608   6.912  10.707   4.717 -1.1178  3.1162 -0.3263
 1019MOL0     H40609   6.981  10.851   4.550  1.0440 -1.8234  0.0450
 1019MOL0     H40610   6.857  10.742   4.103 -0.1523 -1.1901  2.4382
 1019MOL0     H40611   6.973  10.860   4.078 -1.7068  0.4688 -0.2326
 1019MOL0     H40612   7.039  10.583   4.187 -0.4025 -1.6020 -2.0741
 1019MOL0     H40613   7.153  10.715   4.210  1.3737 -0.4155 -0.8269
 1019MOL0     H40614   7.066  10.588   3.943 -1.2303  1.4622 -2.1674
 1019MOL0     H40615   7.114  10.754   3.949  0.3750 -0.6534  0.4328
 1019MOL0     H40616   7.300  10.588   3.904 -2.3377 -0.9887 -0.7798
 1019MOL0     H40617   7.281  10.525   4.059 -0.2258 -2.7264 -3.6564
 1019MOL0     H40618   7.522  10.873   4.137  1.7397 -0.6339 -2.6257
 1019MOL0     H40619   6.754  10.631   4.260 -0.5099 -3.2331 -0.2881
 1019MOL0     H40620   6.673  10.416   4.294  0.7753 -0.7309 -0.2997
 1019MOL0     H40621   6.792  10.330   4.384 -1.0253 -1.1880 -1.4812
 1019MOL0     H40622   6.629  10.367   4.452  0.3024 -0.8053 -0.2535
 1020MOL0     O40623   4.500   9.323   7.566 -0.2065 -0.4737 -0.5732
 1020MOL0     C40624   4.465   9.216   7.618  0.1000 -0.6581 -0.1755
 1020MOL0     O40625   4.549   9.140   7.699 -0.3243  0.1008  0.3635
 1020MOL0     C40626   4.678   9.191   7.736 -0.0881  0.6385 -0.0441
 1020MOL0     C40627   4.785   9.095   7.753  0.5935  0.2188 -0.2931
 1020MOL0     C40628   4.911   9.131   7.792  0.9274 -0.6850 -0.1630
 1020MOL0     C40629   4.945   9.267   7.788  0.4392 -0.8069 -0.6608
 1020MOL0     O40630   5.075   9.294   7.812  0.7373 -0.5593  0.7878
 1020MOL0     C40631   5.107   9.433   7.843  0.3442  0.7297  0.9851
 1020MOL0     C40632   5.258   9.444   7.865 -0.1113 -0.3787  0.3900
 1020MOL0     C40633   5.303   9.374   7.997  0.4969  0.0134  0.5005
 1020MOL0     C40634   5.453   9.366   8.024 -0.9560 -0.5656 -0.2928
 1020MOL0     C40635   5.482   9.263   8.131  0.5066  0.7195 -0.4268
 1020MOL0     C40636   5.629   9.223   8.127  0.0293 -0.7218  0.1224
 1020MOL0     C40637   5.677   9.136   8.237  1.0467 -0.7979 -0.1929
 1020MOL0     C40638   5.682   9.217   8.368 -0.1100  0.1832 -0.1019
 1020MOL0     N40639   5.735   9.138   8.476 -0.7404  0.4499 -0.5260
 1020MOL0     C40640   5.866   9.107   8.507  0.1645 -0.3309  0.2340
 1020MOL0     C40641   5.864   9.002   8.590 -0.3876 -0.7139 -0.2526
 1020MOL0     C40642   5.986   8.927   8.648 -0.2300  0.5469  0.4012
 1020MOL0     C40643   6.044   8.822   8.543 -0.5088  0.1103 -0.3208
 1020MOL0     C40644   6.191   8.765   8.570  0.2696  0.4345  0.2339
 1020MOL0     C40645   6.208   8.728   8.724 -0.4077  0.7213  0.5016
 1020MOL0     O40646   6.113   8.626   8.761 -1.0646  0.7516 -0.0792
 1020MOL0     C40647   6.129   8.503   8.695  0.1640  0.2252  0.0424
 1020MOL0     C40648   6.239   8.421   8.728 -0.6866 -1.1151 -0.4611
 1020MOL0     C40649   6.250   8.292   8.684  0.0362 -0.0793  0.7597
 1020MOL0     C40650   6.370   8.219   8.738 -0.1235  0.3247  0.0286
 1020MOL0     C40651   6.143   8.240   8.611 -0.7660  0.3314 -0.1546
 1020MOL0     C40652   6.145   8.094   8.566  0.7747  0.1919 -0.2977
 1020MOL0     O40653   6.265   8.032   8.540  0.8665  0.4840  0.6539
 1020MOL0     C40654   6.257   7.914   8.468  0.6181  0.4241 -0.5630
 1020MOL0     C40655   6.213   7.904   8.334  0.2080  0.6420  0.0826
 1020MOL0     C40656   6.188   7.777   8.279 -0.9581 -0.9957  0.9575
 1020MOL0     C40657   6.238   7.663   8.341  0.2829 -0.3941 -0.1937
 1020MOL0     O40658   6.237   7.541   8.285 -0.2386 -0.3328  0.1911
 1020MOL0     C40659   6.167   7.514   8.163 -0.3186 -0.4169  0.1874
 1020MOL0     C40660   6.141   7.363   8.135 -0.0464  0.9514 -0.7764
 1020MOL0     C40661   6.025   7.310   8.229  0.1260  0.3504 -0.2964
 1020MOL0     C40662   6.017   7.158   8.210  0.1287  1.1708  0.4698
 1020MOL0     C40663   5.885   7.094   8.271  0.6461  0.2632 -0.5438
 1020MOL0     C40664   5.883   6.940   8.253  0.8858 -0.3470  0.7518
 1020MOL0     C40665   5.743   6.881   8.302 -0.9344  0.0182  0.4112
 1020MOL0     C40666   5.691   6.751   8.243  0.3660  0.2885 -0.4196
 1020MOL0    Cl40667   5.807   6.617   8.275  0.2245  0.2912  0.3757
 1020MOL0     C40668   6.295   7.669   8.464  0.8256 -0.5186  0.0095
 1020MOL0     C40669   6.297   7.789   8.530 -0.5120 -0.2170 -0.3179
 1020MOL0     O40670   6.034   8.041   8.552  0.3477  0.2530 -0.0760
 1020MOL0     C40671   6.016   8.312   8.596 -0.6807  0.1636 -0.3873
 1020MOL0     C40672   6.018   8.447   8.636  0.4668  0.2260 -0.4491
 1020MOL0     N40673   5.724   8.981   8.624 -0.3052  0.4001  0.0013
 1020MOL0     N40674   5.653   9.057   8.550 -0.1302 -1.4007  0.4275
 1020MOL0     C40675   4.850   9.362   7.778 -0.3655  0.1713  0.6932
 1020MOL0     C40676   4.717   9.325   7.760 -0.1159 -0.3371 -0.0835
 1020MOL0     C40677   4.323   9.173   7.587 -0.0641  0.0815  0.2610
 1020MOL0     C40678   4.290   9.045   7.635 -0.2538 -0.0073 -1.2352
 1020MOL0     C40679   4.163   8.990   7.630  0.1431  0.0139 -0.8243
 1020MOL0     C40680   4.061   9.047   7.558  0.0031 -0.2626  0.6826
 1020MOL0     O40681   3.956   8.968   7.546  0.4233 -0.4853  0.4851
 1020MOL0     C40682   3.841   9.013   7.487 -0.2819 -0.5780 -0.0285
 1020MOL0     C40683   3.744   8.902   7.473  0.0672 -0.0126  0.1993
 1020MOL0     C40684   3.719   8.831   7.597  0.5123  0.4390 -0.0218
 1020MOL0     C40685   3.727   8.903   7.733  0.0574 -0.1997 -0.3100
 1020MOL0     C40686   3.659   8.828   7.844  0.4269  0.5484 -0.8602
 1020MOL0     C40687   3.614   8.759   7.929 -0.3921 -0.0457  0.1533
 1020MOL0     C40688   4.090   9.170   7.507 -0.0799 -1.4447 -0.2145
 1020MOL0     C40689   4.220   9.240   7.522 -0.6232 -0.1561  0.3025
 1020MOL0     C40690   4.232   9.387   7.464  0.5678  0.3926  0.1296
 1020MOL0     H40691   4.752   8.992   7.767  2.2996 -0.1287  1.5234
 1020MOL0     H40692   4.990   9.064   7.823 -0.1069 -1.2355  1.3875
 1020MOL0     H40693   5.053   9.460   7.934 -0.3898  1.3089  0.3838
 1020MOL0     H40694   5.077   9.494   7.757 -0.6786 -1.7118 -0.4963
 1020MOL0     H40695   5.306   9.393   7.782  2.7711  0.3045  1.5149
 1020MOL0     H40696   5.294   9.547   7.868  2.1264 -1.1151  1.0358
 1020MOL0     H40697   5.251   9.428   8.076  1.7512  0.6543  0.9089
 1020MOL0     H40698   5.265   9.271   8.005 -1.4593  0.4608 -1.7240
 1020MOL0     H40699   5.511   9.352   7.933  0.8344 -1.7171  0.9644
 1020MOL0     H40700   5.481   9.464   8.064 -0.5909 -0.6069 -0.4516
 1020MOL0     H40701   5.427   9.174   8.100  2.5969 -0.5216 -0.7329
 1020MOL0     H40702   5.445   9.300   8.227 -1.2575 -0.8309 -0.4367
 1020MOL0     H40703   5.644   9.178   8.029  1.4777 -2.9924  1.3087
 1020MOL0     H40704   5.671   9.324   8.123  0.5597 -0.8589  1.5113
 1020MOL0     H40705   5.779   9.097   8.232  2.7134  2.6852  2.4483
 1020MOL0     H40706   5.606   9.053   8.236 -0.3600  0.1168  3.7962
 1020MOL0     H40707   5.743   9.306   8.349  2.8849 -1.5367  0.7315
 1020MOL0     H40708   5.579   9.247   8.390 -0.6316 -1.3276 -0.3304
 1020MOL0     H40709   5.946   9.152   8.450  1.0388  0.6041  2.1356
 1020MOL0     H40710   5.970   8.872   8.741 -0.9347  3.0413  1.8361
 1020MOL0     H40711   6.062   9.005   8.659  0.1771  0.4000 -1.1497
 1020MOL0     H40712   5.977   8.736   8.543  1.9762 -2.2007  3.8202
 1020MOL0     H40713   6.045   8.868   8.444  2.7308  1.2792  0.1444
 1020MOL0     H40714   6.198   8.684   8.497 -0.5046  0.9036 -0.3811
 1020MOL0     H40715   6.270   8.840   8.556 -0.0520  1.1479  1.9543
 1020MOL0     H40716   6.313   8.705   8.746 -0.2643 -1.3851 -1.9498
 1020MOL0     H40717   6.175   8.816   8.780 -1.9564  0.8894 -0.6121
 1020MOL0     H40718   6.313   8.475   8.786 -1.7901  1.0660 -0.9734
 1020MOL0     H40719   6.413   8.285   8.815  0.8671 -0.0650 -0.1733
 1020MOL0     H40720   6.440   8.202   8.655 -0.4622 -2.2443  0.2108
 1020MOL0     H40721   6.355   8.118   8.777 -1.9479  0.3912 -0.4370
 1020MOL0     H40722   6.172   7.989   8.279 -0.2310 -0.8474 -2.0383
 1020MOL0     H40723   6.143   7.779   8.181  2.0770  1.8687 -0.5924
 1020MOL0     H40724   6.069   7.562   8.156 -0.2400 -0.3353 -0.3883
 1020MOL0     H40725   6.233   7.555   8.086  0.9744 -0.1435  1.4103
 1020MOL0     H40726   6.108   7.348   8.032 -1.9624  1.7662 -0.3187
 1020MOL0     H40727   6.238   7.314   8.146 -0.7003 -0.1724  0.2056
 1020MOL0     H40728   5.931   7.355   8.193 -1.6566 -3.3181 -0.6980
 1020MOL0     H40729   6.042   7.335   8.334  1.0900  0.5359 -0.4919
 1020MOL0     H40730   6.103   7.098   8.243 -0.1520  0.1348 -0.6190
 1020MOL0     H40731   6.012   7.134   8.104 -2.6596  0.1321  0.7674
 1020MOL0     H40732   5.879   7.104   8.380 -1.0812 -2.7802 -0.2266
 1020MOL0     H40733   5.795   7.138   8.227 -1.4081 -1.5433  1.5682
 1020MOL0     H40734   5.956   6.890   8.317  1.7638 -0.5956 -0.4133
 1020MOL0     H40735   5.906   6.916   8.149  0.9771  1.5838  0.2817
 1020MOL0     H40736   5.663   6.954   8.289  1.0995  2.8253  2.2702
 1020MOL0     H40737   5.751   6.857   8.409 -3.0503  2.3638  1.1923
 1020MOL0     H40738   5.664   6.755   8.137 -0.2663  0.2355 -0.2609
 1020MOL0     H40739   5.606   6.731   8.308 -0.5528 -0.7460 -1.8612
 1020MOL0     H40740   6.331   7.576   8.508  0.9055 -0.4545  0.0780
 1020MOL0     H40741   6.325   7.803   8.634  0.0858  0.4080 -0.5540
 1020MOL0     H40742   5.930   8.264   8.552 -0.0959 -0.2912 -1.0597
 1020MOL0     H40743   5.930   8.510   8.624  0.2684 -0.2806 -1.8292
 1020MOL0     H40744   4.865   9.468   7.796  0.4240  0.3937 -1.1042
 1020MOL0     H40745   4.640   9.402   7.750 -1.4123 -1.7068 -1.2323
 1020MOL0     H40746   4.371   8.983   7.671 -0.7648  0.0936  0.1357
 1020MOL0     H40747   4.143   8.890   7.669 -0.7564  0.2560 -0.6494
 1020MOL0     H40748   3.799   9.094   7.548  0.0225 -0.3146 -0.1685
 1020MOL0     H40749   3.849   9.039   7.381  0.0774  0.5268  0.2533
 1020MOL0     H40750   3.769   8.825   7.400  3.1058 -1.9987  3.0087
 1020MOL0     H40751   3.653   8.948   7.434 -0.5023  0.0545  1.5358
 1020MOL0     H40752   3.617   8.794   7.584  0.9712  0.2337 -4.0886
 1020MOL0     H40753   3.791   8.749   7.603 -1.7088 -1.5593  0.5729
 1020MOL0     H40754   3.651   8.982   7.729 -2.4931 -2.3989  1.2862
 1020MOL0     H40755   3.826   8.934   7.767 -0.9771  0.9082  1.9483
 1020MOL0     H40756   3.550   8.705   7.996  0.4536  1.0126  1.8836
 1020MOL0     H40757   4.012   9.225   7.456  1.0680  0.2346 -0.2521
 1020MOL0     H40758   4.305   9.383   7.383  0.2121 -1.6395 -0.1644
 1020MOL0     H40759   4.130   9.419   7.442 -0.2326 -1.6966  0.4884
 1020MOL0     H40760   4.275   9.466   7.525 -1.0153 -0.5657  2.6274
 1021MOL0     O40761  10.680   1.498   9.774 -0.0863 -0.7424 -0.5220
 1021MOL0     C40762  10.687   1.615   9.747  0.1612  0.0878  0.6041
 1021MOL0     O40763  10.580   1.694   9.714 -0.1882 -0.1692  0.7855
 1021MOL0     C40764  10.448   1.653   9.708  0.1263  0.2926 -0.5961
 1021MOL0     C40765  10.409   1.539   9.644 -0.3326 -1.0120  0.6499
 1021MOL0     C40766  10.270   1.513   9.626 -0.1855  0.5366 -0.1794
 1021MOL0     C40767  10.167   1.591   9.674 -0.6493  0.3919 -0.6952
 1021MOL0     O40768  10.038   1.570   9.630 -0.6140  0.1209 -0.6794
 1021MOL0     C40769   9.939   1.673   9.653  0.1676  0.0822  0.0339
 1021MOL0     C40770   9.956   1.777   9.539 -0.6326 -0.1960 -0.4213
 1021MOL0     C40771   9.815   1.851   9.518 -0.8050  0.0618 -0.1349
 1021MOL0     C40772   9.826   1.950   9.407  0.3031 -0.1831  0.2001
 1021MOL0     C40773   9.893   2.076   9.459  0.4255  0.1440 -0.1688
 1021MOL0     C40774   9.884   2.187   9.353  0.2444 -0.8240  0.9994
 1021MOL0     C40775   9.746   2.253   9.334  1.3254  0.8378 -0.0639
 1021MOL0     C40776   9.770   2.383   9.256  1.3449 -0.0264 -0.1513
 1021MOL0     N40777   9.660   2.469   9.221 -0.3328  0.3392  0.6476
 1021MOL0     C40778   9.648   2.583   9.290  0.2380 -0.5177 -0.1078
 1021MOL0     C40779   9.570   2.659   9.215 -0.0068 -0.5216  0.7497
 1021MOL0     C40780   9.520   2.795   9.239  0.2235 -0.3501  0.6337
 1021MOL0     C40781   9.633   2.900   9.228  0.7896  0.8807 -0.0700
 1021MOL0     C40782   9.725   2.897   9.353 -0.4777  0.0558  0.3054
 1021MOL0     C40783   9.824   3.021   9.361  0.0228 -0.2571  0.7502
 1021MOL0     O40784   9.883   3.037   9.236  0.5258  0.4558 -0.8999
 1021MOL0     C40785   9.983   3.123   9.235  0.2452  0.1368 -0.8726
 1021MOL0     C40786  10.041   3.186   9.350  0.2122 -0.1511  0.4366
 1021MOL0     C40787  10.146   3.270   9.337  0.2323 -0.6830 -1.1960
 1021MOL0     C40788  10.209   3.327   9.467  0.4470  1.1226  0.4772
 1021MOL0     C40789  10.198   3.303   9.210  0.2630  1.3090 -1.0853
 1021MOL0     C40790  10.314   3.386   9.197 -0.1178  0.3919 -0.6670
 1021MOL0     O40791  10.316   3.466   9.092  0.5504  0.2488  0.6256
 1021MOL0     C40792  10.435   3.534   9.067 -1.7633  0.2214 -0.3342
 1021MOL0     C40793  10.530   3.478   8.977  0.1670 -0.9355 -0.3127
 1021MOL0     C40794  10.652   3.546   8.945 -0.2030 -0.3087 -0.5291
 1021MOL0     C40795  10.689   3.654   9.024  0.6661 -0.5247 -0.3975
 1021MOL0     O40796  10.802   3.730   9.005 -0.0230  0.1400 -0.1725
 1021MOL0     C40797  10.890   3.687   8.902  0.2544  0.0695  0.2780
 1021MOL0     C40798  11.024   3.740   8.931 -0.5966  0.6391 -0.7698
 1021MOL0     C40799  11.116   3.660   9.032 -0.1573  0.1891 -0.1331
 1021MOL0     C40800  11.236   3.739   9.086  1.1697 -0.3289  0.1773
 1021MOL0     C40801  11.316   3.661   9.193  0.3842  0.0489  0.1556
 1021MOL0     C40802  11.402   3.750   9.288 -0.2293 -1.0741 -0.0414
 1021MOL0     C40803  11.494   3.674   9.371  0.3854  0.6087  0.4131
 1021MOL0     C40804  11.601   3.763   9.451  0.1945 -0.3142  0.7044
 1021MOL0    Cl40805  11.745   3.802   9.351  0.3713  0.1275  0.3073
 1021MOL0     C40806  10.605   3.702   9.131  0.2761 -0.0144  0.2287
 1021MOL0     C40807  10.479   3.639   9.157 -0.0155  0.9666  0.0706
 1021MOL0     O40808  10.411   3.370   9.281 -0.0172  0.1122  0.8161
 1021MOL0     C40809  10.128   3.256   9.096 -0.7042  0.9415 -0.4546
 1021MOL0     C40810  10.030   3.158   9.110 -0.8238 -0.5377 -0.6171
 1021MOL0     N40811   9.536   2.595   9.092  0.1268 -0.4808 -0.1990
 1021MOL0     N40812   9.589   2.481   9.106  0.7749  0.0918  0.4977
 1021MOL0     C40813  10.211   1.692   9.766 -0.0967 -0.6508  0.0930
 1021MOL0     C40814  10.349   1.731   9.771  0.6035 -0.0580 -0.2981
 1021MOL0     C40815  10.822   1.662   9.731 -0.4760 -0.0855 -0.3523
 1021MOL0     C40816  10.923   1.616   9.824  0.3157  0.7972  0.2560
 1021MOL0     C40817  11.057   1.652   9.812  0.4299 -0.2916  1.2045
 1021MOL0     C40818  11.091   1.750   9.714 -0.2552 -0.3202  0.0893
 1021MOL0     O40819  11.225   1.789   9.710 -0.0193 -0.1890 -0.1967
 1021MOL0     C40820  11.250   1.921   9.650 -0.8418 -0.2261  0.5216
 1021MOL0     C40821  11.390   1.975   9.691  0.5400  0.2527 -0.0666
 1021MOL0     C40822  11.437   2.098   9.622 -0.3466  0.2188  0.3834
 1021MOL0     C40823  11.358   2.220   9.667 -0.0530  0.7466  0.4119
 1021MOL0     C40824  11.393   2.330   9.580 -0.4971  0.3368  0.0869
 1021MOL0     C40825  11.417   2.424   9.502 -0.4196 -0.0377  0.1795
 1021MOL0     C40826  10.989   1.792   9.633  0.0008 -0.1363 -1.0998
 1021MOL0     C40827  10.856   1.751   9.631 -0.3607 -0.0135  0.1147
 1021MOL0     C40828  10.758   1.831   9.542 -0.8280 -0.5059  0.8986
 1021MOL0     H40829  10.483   1.479   9.591  2.1617  3.1597 -1.0560
 1021MOL0     H40830  10.231   1.440   9.556 -0.0839 -1.1172  1.3963
 1021MOL0     H40831   9.952   1.723   9.749  2.5731 -1.4154  0.5893
 1021MOL0     H40832   9.836   1.640   9.635  0.7087  0.1781 -4.4943
 1021MOL0     H40833  10.037   1.848   9.555 -0.5454  0.0757 -1.9292
 1021MOL0     H40834   9.979   1.722   9.447  1.5146  0.1080 -0.1087
 1021MOL0     H40835   9.738   1.778   9.489  0.9027 -1.5193 -0.9051
 1021MOL0     H40836   9.808   1.894   9.619  3.8715 -1.2013  0.9339
 1021MOL0     H40837   9.866   1.909   9.315  2.7089  0.2117  1.0074
 1021MOL0     H40838   9.718   1.969   9.395 -0.0483 -2.5600 -0.9830
 1021MOL0     H40839   9.999   2.052   9.469  0.8369 -0.3714 -4.0126
 1021MOL0     H40840   9.860   2.115   9.556 -0.4475  0.2241 -0.4849
 1021MOL0     H40841   9.961   2.263   9.366 -2.5989  2.6724 -0.9240
 1021MOL0     H40842   9.908   2.138   9.258  0.0464  0.3716  0.3128
 1021MOL0     H40843   9.704   2.285   9.429 -1.2729 -1.1611 -0.4449
 1021MOL0     H40844   9.674   2.182   9.294  1.2929 -0.4965  2.2177
 1021MOL0     H40845   9.847   2.441   9.307 -1.4278  1.6732  2.4238
 1021MOL0     H40846   9.801   2.354   9.155 -4.6932  0.5048 -2.5808
 1021MOL0     H40847   9.695   2.616   9.382  6.4692  0.1095 -2.9278
 1021MOL0     H40848   9.473   2.802   9.338  0.3133  2.9403  0.5580
 1021MOL0     H40849   9.450   2.826   9.160  1.0245  0.0962  0.0920
 1021MOL0     H40850   9.698   2.886   9.142  0.2934  0.2664 -0.3482
 1021MOL0     H40851   9.590   2.997   9.199  0.4739  0.6570 -0.3511
 1021MOL0     H40852   9.668   2.906   9.446 -1.9902  0.0917 -0.5881
 1021MOL0     H40853   9.776   2.802   9.363 -1.5339 -0.6788 -1.0121
 1021MOL0     H40854   9.771   3.111   9.395  0.7355 -0.5865  2.9203
 1021MOL0     H40855   9.900   2.980   9.428 -0.7646 -1.0314  1.2091
 1021MOL0     H40856  10.014   3.163   9.453 -5.2231 -0.5780 -0.7750
 1021MOL0     H40857  10.151   3.327   9.560  1.2132 -1.4704  1.0326
 1021MOL0     H40858  10.224   3.432   9.440 -1.5444  0.8778 -1.9396
 1021MOL0     H40859  10.306   3.281   9.490 -0.6031 -1.0189  0.8460
 1021MOL0     H40860  10.517   3.388   8.918  1.3125 -2.1230  1.1682
 1021MOL0     H40861  10.714   3.507   8.865  1.1545  0.4160  0.1402
 1021MOL0     H40862  10.885   3.577   8.901  0.3560  0.0645 -0.4948
 1021MOL0     H40863  10.867   3.718   8.800 -0.6508  0.8944  0.7243
 1021MOL0     H40864  11.080   3.766   8.841 -0.2905 -0.0753 -0.7932
 1021MOL0     H40865  11.014   3.835   8.984  2.1627 -0.2687  1.6405
 1021MOL0     H40866  11.155   3.575   8.976 -1.0145  0.6136 -1.4249
 1021MOL0     H40867  11.054   3.625   9.115 -1.4322  2.9458  0.1782
 1021MOL0     H40868  11.202   3.836   9.123 -2.9224 -1.1962 -0.8389
 1021MOL0     H40869  11.299   3.755   8.998 -0.9463 -1.0078 -1.5676
 1021MOL0     H40870  11.242   3.620   9.262  0.0570  1.3915  0.6320
 1021MOL0     H40871  11.374   3.581   9.147  0.3903  0.8657 -1.3526
 1021MOL0     H40872  11.340   3.821   9.342 -2.6648 -1.8833 -1.5698
 1021MOL0     H40873  11.471   3.808   9.227 -3.3483  1.8248 -1.1319
 1021MOL0     H40874  11.559   3.611   9.309  1.9648  1.0964  1.5321
 1021MOL0     H40875  11.441   3.601   9.433 -1.5333  0.5781 -1.1409
 1021MOL0     H40876  11.624   3.717   9.547 -1.4310  2.0005  2.3490
 1021MOL0     H40877  11.570   3.866   9.475  0.0946 -0.3674  0.8082
 1021MOL0     H40878  10.644   3.784   9.191  1.1738  0.7830 -1.3757
 1021MOL0     H40879  10.419   3.676   9.238  1.3088 -0.6711  1.8926
 1021MOL0     H40880  10.166   3.295   9.002 -1.0048  2.5245  0.0618
 1021MOL0     H40881   9.973   3.121   9.026 -1.1676 -1.1530 -0.1233
 1021MOL0     H40882  10.143   1.753   9.824  1.4708  0.7829  0.4859
 1021MOL0     H40883  10.387   1.824   9.813 -1.3839  1.9721 -2.6325
 1021MOL0     H40884  10.892   1.559   9.911 -1.6431 -1.4095 -1.7332
 1021MOL0     H40885  11.135   1.597   9.864  0.7428 -1.8422 -0.7937
 1021MOL0     H40886  11.241   1.913   9.541  5.0494  0.8636 -0.3837
 1021MOL0     H40887  11.180   1.999   9.680  2.0755  4.0384 -2.5811
 1021MOL0     H40888  11.463   1.894   9.683 -1.4025 -1.6799  0.8485
 1021MOL0     H40889  11.387   1.995   9.799  0.5439  3.5976 -0.5853
 1021MOL0     H40890  11.540   2.115   9.652  0.2683 -0.3056 -1.2944
 1021MOL0     H40891  11.448   2.087   9.513  1.0208  2.0351  0.2869
 1021MOL0     H40892  11.363   2.241   9.774  0.1610 -0.1825  0.5904
 1021MOL0     H40893  11.251   2.206   9.650  0.5065 -0.5957 -2.7028
 1021MOL0     H40894  11.444   2.509   9.443 -0.9605  1.1164  1.5400
 1021MOL0     H40895  11.022   1.853   9.550  2.9825 -1.5180 -1.0295
 1021MOL0     H40896  10.681   1.765   9.503 -1.5333  0.6076  0.3659
 1021MOL0     H40897  10.716   1.918   9.593 -0.4959 -0.7159  1.5524
 1021MOL0     H40898  10.812   1.863   9.452 -2.1650 -0.0908  0.2160
 1022MOL0     O40899   1.885   6.313   6.858 -0.8071  0.0101  0.0770
 1022MOL0     C40900   1.839   6.371   6.766  0.3260  0.2153  0.5177
 1022MOL0     O40901   1.758   6.315   6.676  0.1210  0.0675  0.2935
 1022MOL0     C40902   1.747   6.179   6.676  0.7627  0.0668 -0.5314
 1022MOL0     C40903   1.635   6.125   6.720  0.4557  0.2759  0.1959
 1022MOL0     C40904   1.622   5.984   6.739 -0.2010  1.0007  0.3172
 1022MOL0     C40905   1.721   5.900   6.680 -0.7637  0.1652 -0.2504
 1022MOL0     O40906   1.724   5.768   6.690 -0.2740 -0.0039 -0.2074
 1022MOL0     C40907   1.618   5.692   6.753 -0.7388 -1.4593  0.3508
 1022MOL0     C40908   1.673   5.543   6.763 -0.0599 -0.2256 -0.6678
 1022MOL0     C40909   1.622   5.480   6.892  0.0532 -0.3671  0.0023
 1022MOL0     C40910   1.693   5.343   6.913 -0.1221 -0.3464 -0.9523
 1022MOL0     C40911   1.683   5.287   7.057 -0.9026  0.2739  0.1883
 1022MOL0     C40912   1.552   5.284   7.119 -0.2585  0.0352 -0.2340
 1022MOL0     C40913   1.521   5.410   7.198 -0.6255 -0.0080 -0.6812
 1022MOL0     C40914   1.417   5.381   7.315  0.2432 -0.1518  0.6487
 1022MOL0     N40915   1.299   5.312   7.261 -0.0917  0.8711  0.3797
 1022MOL0     C40916   1.206   5.382   7.183 -1.1663  0.5772 -0.7507
 1022MOL0     C40917   1.118   5.288   7.144 -0.2927 -0.9666 -0.4053
 1022MOL0     C40918   1.020   5.317   7.032 -0.4635 -0.9760  0.1701
 1022MOL0     C40919   0.930   5.201   6.997  0.5692 -0.2400  0.7763
 1022MOL0     C40920   0.842   5.229   6.874  0.8937  0.8236  0.5357
 1022MOL0     C40921   0.908   5.316   6.767  0.0278 -0.9014 -0.7692
 1022MOL0     O40922   1.038   5.257   6.733  0.5347  0.3709  0.1054
 1022MOL0     C40923   1.139   5.303   6.651  0.5882 -0.9911  0.9368
 1022MOL0     C40924   1.262   5.243   6.658 -0.8196 -0.5625  0.3767
 1022MOL0     C40925   1.371   5.290   6.589  0.4944  0.5057 -0.7686
 1022MOL0     C40926   1.499   5.211   6.611 -0.5992 -0.2356 -0.2603
 1022MOL0     C40927   1.355   5.404   6.504  0.8912 -0.0059 -0.1442
 1022MOL0     C40928   1.459   5.462   6.407 -0.1168 -0.2915  0.2890
 1022MOL0     O40929   1.420   5.566   6.328  0.5057 -0.0075 -0.4174
 1022MOL0     C40930   1.518   5.649   6.281 -0.3239  0.0631 -0.1062
 1022MOL0     C40931   1.488   5.702   6.156  0.5767 -0.5055 -1.2479
 1022MOL0     C40932   1.565   5.807   6.109 -0.8214 -0.0344  0.4987
 1022MOL0     C40933   1.665   5.875   6.183  0.7098  0.1644 -0.4033
 1022MOL0     O40934   1.727   5.984   6.129  0.4789  0.2513 -0.4825
 1022MOL0     C40935   1.804   6.058   6.231 -0.3739  0.2512  0.0779
 1022MOL0     C40936   1.839   6.216   6.183  0.9101  0.2073 -0.3594
 1022MOL0     C40937   1.929   6.273   6.288 -0.1955 -1.0480  0.4327
 1022MOL0     C40938   1.983   6.408   6.245  0.5265  0.0240 -0.1979
 1022MOL0     C40939   2.053   6.491   6.352 -0.1887  0.0214 -0.3219
 1022MOL0     C40940   2.061   6.644   6.335 -1.0676 -0.5565 -0.0069
 1022MOL0     C40941   2.151   6.706   6.441 -0.5790  0.1476 -0.0887
 1022MOL0     C40942   2.302   6.675   6.434 -0.9345  0.2921  0.7436
 1022MOL0    Cl40943   2.365   6.732   6.275 -0.3735 -0.0876 -0.2771
 1022MOL0     C40944   1.703   5.811   6.291  0.3039  0.2107  0.0254
 1022MOL0     C40945   1.629   5.703   6.347  0.1926 -0.2799  0.3912
 1022MOL0     O40946   1.577   5.429   6.424  1.0983  0.3810 -0.6269
 1022MOL0     C40947   1.233   5.474   6.508  0.2135 -0.2349  0.3548
 1022MOL0     C40948   1.126   5.434   6.592 -0.0280  1.0807  0.8262
 1022MOL0     N40949   1.160   5.162   7.198  0.0073  0.3362 -0.3748
 1022MOL0     N40950   1.261   5.180   7.272  0.1991 -0.2686 -1.1478
 1022MOL0     C40951   1.832   5.956   6.617  0.1654  1.0453  0.1233
 1022MOL0     C40952   1.847   6.095   6.616 -0.9642  0.2464  0.4405
 1022MOL0     C40953   1.843   6.521   6.756 -0.1540 -0.3277  0.3412
 1022MOL0     C40954   1.797   6.581   6.637  0.0700 -0.2410  0.0300
 1022MOL0     C40955   1.811   6.712   6.608  0.0982 -0.4233 -0.4216
 1022MOL0     C40956   1.887   6.793   6.702 -0.4125  0.2061 -0.3173
 1022MOL0     O40957   1.923   6.917   6.662  1.8650 -0.3069  0.0697
 1022MOL0     C40958   1.975   7.015   6.758  0.2304  0.4008 -0.2172
 1022MOL0     C40959   2.123   7.044   6.734 -0.1840  0.4913  0.6896
 1022MOL0     C40960   2.161   7.073   6.586  0.0793  0.0176  0.1807
 1022MOL0     C40961   2.312   7.079   6.570  0.7696  0.5839  0.0200
 1022MOL0     C40962   2.349   7.085   6.429  0.5105 -1.5914  0.8888
 1022MOL0     C40963   2.381   7.081   6.311  0.3400 -0.1270 -0.5132
 1022MOL0     C40964   1.927   6.737   6.828  0.3170  0.0885  0.2210
 1022MOL0     C40965   1.899   6.601   6.857  0.0700 -0.0234  0.5756
 1022MOL0     C40966   1.941   6.555   6.997  0.3759 -0.3740  0.2440
 1022MOL0     H40967   1.551   6.176   6.766 -0.5705  0.2977 -1.6073
 1022MOL0     H40968   1.530   5.951   6.784 -0.9762 -0.2258 -1.9925
 1022MOL0     H40969   1.517   5.703   6.712 -0.1393  0.1722 -0.8273
 1022MOL0     H40970   1.620   5.734   6.854  2.5586 -0.0877 -0.1692
 1022MOL0     H40971   1.640   5.501   6.668 -1.8091 -0.6056  0.0699
 1022MOL0     H40972   1.782   5.543   6.757 -0.0681 -0.5911 -0.8254
 1022MOL0     H40973   1.642   5.543   6.979 -3.4878 -1.1809  1.5479
 1022MOL0     H40974   1.513   5.472   6.888  0.2234 -4.1151  0.1725
 1022MOL0     H40975   1.638   5.266   6.859  0.4557 -0.1084 -1.8974
 1022MOL0     H40976   1.797   5.352   6.880 -0.0149  3.4329 -0.0625
 1022MOL0     H40977   1.756   5.344   7.115 -0.4328 -1.3946  1.3005
 1022MOL0     H40978   1.715   5.183   7.047  2.0381  1.2601 -2.4277
 1022MOL0     H40979   1.470   5.260   7.051  0.1206 -1.1548 -0.2964
 1022MOL0     H40980   1.551   5.195   7.183  0.9990 -0.1594 -0.4426
 1022MOL0     H40981   1.482   5.484   7.128  0.9797  0.4108 -1.1870
 1022MOL0     H40982   1.612   5.444   7.249 -0.7829 -0.1542 -0.3001
 1022MOL0     H40983   1.462   5.321   7.395 -0.4103 -0.2626  0.9422
 1022MOL0     H40984   1.384   5.471   7.367 -0.7299 -0.3586  0.4086
 1022MOL0     H40985   1.206   5.486   7.152  1.0839  0.2057 -2.2397
 1022MOL0     H40986   1.084   5.332   6.944 -3.1764 -0.4176 -1.8311
 1022MOL0     H40987   0.961   5.405   7.057  0.2517 -1.1494  2.7322
 1022MOL0     H40988   0.990   5.114   6.969  0.9043  0.7641 -1.9468
 1022MOL0     H40989   0.855   5.177   7.073 -1.8626 -0.9510 -1.6611
 1022MOL0     H40990   0.810   5.132   6.835  1.3499 -1.4598  5.1623
 1022MOL0     H40991   0.740   5.263   6.898 -0.6165 -2.7866 -0.1930
 1022MOL0     H40992   0.846   5.334   6.679 -2.4994  0.2634  1.1354
 1022MOL0     H40993   0.931   5.416   6.806  2.9355  0.0592 -4.4014
 1022MOL0     H40994   1.261   5.156   6.722 -0.0697  0.5918  2.0508
 1022MOL0     H40995   1.501   5.147   6.700  5.7296  0.8278  0.8351
 1022MOL0     H40996   1.579   5.283   6.632 -0.4788 -0.1141 -1.1030
 1022MOL0     H40997   1.528   5.156   6.522 -2.0603  0.4568 -1.1915
 1022MOL0     H40998   1.406   5.670   6.093 -1.0111  3.5648 -1.5840
 1022MOL0     H40999   1.540   5.860   6.017 -0.1769  1.8528  1.3488
 1022MOL0     H41000   1.748   6.063   6.324 -1.1341 -3.2430 -0.0699
 1022MOL0     H41001   1.895   6.004   6.258 -0.6496  1.3466  3.7523
 1022MOL0     H41002   1.884   6.208   6.084 -1.5721 -3.0849 -1.3664
 1022MOL0     H41003   1.743   6.269   6.184  1.4322  1.1787 -0.3278
 1022MOL0     H41004   2.015   6.209   6.308  0.6831 -0.0219  0.0595
 1022MOL0     H41005   1.882   6.286   6.386 -0.4098  1.8406  0.0559
 1022MOL0     H41006   1.903   6.477   6.218  1.1805  0.3846 -1.2421
 1022MOL0     H41007   2.043   6.400   6.154  0.2258  3.3158 -0.8102
 1022MOL0     H41008   2.000   6.475   6.447  0.5380  1.9254  0.4389
 1022MOL0     H41009   2.150   6.443   6.369 -1.1887 -1.8280  0.6422
 1022MOL0     H41010   1.965   6.693   6.350 -1.5779  0.0856 -4.2134
 1022MOL0     H41011   2.090   6.669   6.232 -1.0081  0.5855  0.2775
 1022MOL0     H41012   2.119   6.682   6.543 -0.2182 -0.5805 -0.1362
 1022MOL0     H41013   2.145   6.811   6.413 -1.9529 -0.4721 -2.3861
 1022MOL0     H41014   2.323   6.569   6.452  2.2472  0.3414 -1.8159
 1022MOL0     H41015   2.361   6.729   6.509 -1.8616 -0.1485  1.8298
 1022MOL0     H41016   1.786   5.853   6.347 -0.6315  1.7523  0.3189
 1022MOL0     H41017   1.664   5.676   6.446  0.7584  0.6297  0.4510
 1022MOL0     H41018   1.205   5.562   6.452  0.3658 -1.3098 -1.5091
 1022MOL0     H41019   1.034   5.493   6.595  0.6943  2.1975  1.5264
 1022MOL0     H41020   1.904   5.889   6.571 -1.0390 -1.4169  1.6484
 1022MOL0     H41021   1.936   6.142   6.577 -1.5961  1.4429  0.4113
 1022MOL0     H41022   1.741   6.525   6.562 -1.9364  2.3315 -0.5442
 1022MOL0     H41023   1.767   6.744   6.514  1.4770  0.6826 -0.7162
 1022MOL0     H41024   1.919   7.107   6.737 -0.2382  0.0934 -0.3231
 1022MOL0     H41025   1.944   6.992   6.860  1.1790 -1.5742 -0.3234
 1022MOL0     H41026   2.175   6.957   6.775  0.6033  1.3131  1.4722
 1022MOL0     H41027   2.156   7.129   6.793  0.9805  0.5724 -0.0423
 1022MOL0     H41028   2.114   6.999   6.521 -0.6999  0.7332 -0.0980
 1022MOL0     H41029   2.122   7.171   6.555 -2.7877 -1.3645 -0.9297
 1022MOL0     H41030   2.360   6.997   6.625  0.8945 -0.4200 -1.5302
 1022MOL0     H41031   2.338   7.171   6.623  0.0974 -1.1398  3.7133
 1022MOL0     H41032   2.393   7.058   6.207 -0.3123 -2.3914 -0.1456
 1022MOL0     H41033   1.984   6.796   6.899 -1.6752  3.5604 -0.8230
 1022MOL0     H41034   2.041   6.516   6.979  0.1545  0.0813 -2.2635
 1022MOL0     H41035   1.960   6.644   7.059 -2.6304  0.0242  0.7583
 1022MOL0     H41036   1.859   6.504   7.047 -0.6004  2.0101  1.2556
 1023MOL0     O41037   6.430   8.633   4.495  0.0861  0.7473  0.2604
 1023MOL0     C41038   6.379   8.697   4.584 -0.4844  0.0491  0.1922
 1023MOL0     O41039   6.383   8.665   4.716 -1.3157 -0.4518  0.6745
 1023MOL0     C41040   6.448   8.552   4.762 -0.5557 -0.7912  0.1221
 1023MOL0     C41041   6.416   8.428   4.710 -1.2631 -0.1208  0.5866
 1023MOL0     C41042   6.462   8.310   4.775 -0.0739 -0.8897  0.6953
 1023MOL0     C41043   6.548   8.321   4.882  0.2579 -0.7900  0.3192
 1023MOL0     O41044   6.604   8.206   4.935 -0.1446 -0.8609 -0.3156
 1023MOL0     C41045   6.706   8.220   5.031 -0.1159 -0.4830  0.5402
 1023MOL0     C41046   6.765   8.078   5.051 -0.6102  0.9828  0.1470
 1023MOL0     C41047   6.889   8.070   5.142 -0.9756  0.1355  1.2562
 1023MOL0     C41048   6.851   8.090   5.287  0.1293 -0.1610  1.0922
 1023MOL0     C41049   6.739   8.000   5.345 -0.3771  0.0592  0.4619
 1023MOL0     C41050   6.714   8.012   5.497 -0.4282  0.2354  0.2340
 1023MOL0     C41051   6.643   8.143   5.544 -0.3742 -0.2062  0.3023
 1023MOL0     C41052   6.659   8.166   5.696 -1.2247  0.2216 -1.3055
 1023MOL0     N41053   6.795   8.218   5.723 -0.4476  0.7604  0.4134
 1023MOL0     C41054   6.831   8.349   5.721 -0.4750 -0.2396  0.4465
 1023MOL0     C41055   6.968   8.349   5.749 -0.2870 -0.8204  0.1130
 1023MOL0     C41056   7.047   8.470   5.739  0.0070  0.5195  0.3839
 1023MOL0     C41057   7.086   8.501   5.593 -0.3366  0.4729 -0.0876
 1023MOL0     C41058   7.158   8.387   5.518  0.0454  0.4280  0.1405
 1023MOL0     C41059   7.202   8.432   5.374 -0.2858  0.2034  0.3336
 1023MOL0     O41060   7.110   8.397   5.270  0.1315  0.4037  0.1075
 1023MOL0     C41061   7.051   8.498   5.201 -0.3624  1.0148  0.5027
 1023MOL0     C41062   7.019   8.618   5.256  0.6033 -0.9281  0.2235
 1023MOL0     C41063   6.969   8.725   5.171  0.9324  0.3260 -0.3041
 1023MOL0     C41064   6.929   8.861   5.222  0.9423 -0.3856  0.0227
 1023MOL0     C41065   6.946   8.701   5.036 -0.1079  0.3508  0.8436
 1023MOL0     C41066   6.905   8.804   4.938 -0.5241  0.3539  0.2989
 1023MOL0     O41067   6.851   8.750   4.821  0.0730  0.1520  0.2980
 1023MOL0     C41068   6.827   8.826   4.699  0.1477 -0.2707 -0.3912
 1023MOL0     C41069   6.725   8.791   4.605  0.0039  0.6954  0.3439
 1023MOL0     C41070   6.686   8.871   4.491 -0.2866 -0.5763 -0.0634
 1023MOL0     C41071   6.760   8.988   4.470 -0.2832  0.1978 -0.2713
 1023MOL0     O41072   6.718   9.067   4.369 -0.1638  0.2648 -0.3560
 1023MOL0     C41073   6.616   9.164   4.404 -0.0329  0.7709 -0.0530
 1023MOL0     C41074   6.630   9.295   4.342  0.7965 -0.0364 -0.0050
 1023MOL0     C41075   6.505   9.378   4.373 -0.1681 -0.0314 -0.6068
 1023MOL0     C41076   6.508   9.517   4.305 -0.0106 -0.1879 -0.7954
 1023MOL0     C41077   6.400   9.613   4.365  0.4004  0.8728 -1.2200
 1023MOL0     C41078   6.401   9.761   4.321  0.2855 -0.2133  0.7063
 1023MOL0     C41079   6.379   9.778   4.165  0.3053 -0.5712 -0.2718
 1023MOL0     C41080   6.236   9.754   4.120 -0.4322  0.7613 -1.6456
 1023MOL0    Cl41081   6.238   9.742   3.948  0.2210 -0.0832 -0.3932
 1023MOL0     C41082   6.858   9.022   4.563 -0.2002  0.4689 -0.0279
 1023MOL0     C41083   6.898   8.946   4.674 -0.0686  0.1992  0.1988
 1023MOL0     O41084   6.943   8.923   4.951  0.1531 -0.0167 -0.8524
 1023MOL0     C41085   6.968   8.575   4.984 -0.4338  0.1449 -0.2571
 1023MOL0     C41086   7.014   8.464   5.067 -0.6130 -0.1555 -0.7696
 1023MOL0     N41087   7.016   8.221   5.759  0.0441  0.4624 -0.3413
 1023MOL0     N41088   6.909   8.151   5.754  0.9699  0.3846  0.0773
 1023MOL0     C41089   6.581   8.453   4.930  0.6416 -0.0841  0.5989
 1023MOL0     C41090   6.537   8.565   4.871 -0.7555  0.5098 -0.2159
 1023MOL0     C41091   6.322   8.828   4.543 -0.2730  0.3877 -0.2661
 1023MOL0     C41092   6.358   8.939   4.620 -0.9621 -0.3538  0.6103
 1023MOL0     C41093   6.289   9.068   4.595  0.4163  0.2201  0.5895
 1023MOL0     C41094   6.177   9.083   4.502 -0.5356  0.2360 -0.3014
 1023MOL0     O41095   6.098   9.193   4.495  0.9420 -1.0026 -0.0542
 1023MOL0     C41096   5.968   9.178   4.436  0.3972  0.3327  0.7367
 1023MOL0     C41097   5.885   9.299   4.468 -0.8344  1.4669  0.2368
 1023MOL0     C41098   5.892   9.321   4.617  0.4082  0.1291 -0.2250
 1023MOL0     C41099   5.773   9.387   4.683  0.4714 -0.0229  0.3053
 1023MOL0     C41100   5.720   9.504   4.605  0.0732  0.1191  0.2867
 1023MOL0     C41101   5.679   9.603   4.551  0.0617  0.2885 -0.3949
 1023MOL0     C41102   6.149   8.962   4.430 -0.1562  0.1474  0.1519
 1023MOL0     C41103   6.213   8.833   4.450  1.0812 -0.5471  0.8626
 1023MOL0     C41104   6.145   8.713   4.390  0.0181 -0.9748  0.8262
 1023MOL0     H41105   6.333   8.421   4.640 -0.6085  3.0436 -0.6766
 1023MOL0     H41106   6.420   8.218   4.735  0.1700 -0.8645  0.3772
 1023MOL0     H41107   6.661   8.257   5.123 -0.0622 -1.9578  1.1931
 1023MOL0     H41108   6.789   8.283   4.996 -2.4019  2.8153  0.6183
 1023MOL0     H41109   6.694   8.004   5.089  1.2640 -1.3257 -0.5838
 1023MOL0     H41110   6.777   8.040   4.949 -3.1544  0.9201 -0.2016
 1023MOL0     H41111   6.942   7.975   5.126 -0.4722  0.4641  0.9652
 1023MOL0     H41112   6.962   8.145   5.111  3.7091 -3.2549  2.8824
 1023MOL0     H41113   6.945   8.062   5.335  1.1025  1.6758  0.3602
 1023MOL0     H41114   6.838   8.198   5.298  0.3244  0.3389 -2.4290
 1023MOL0     H41115   6.764   7.895   5.327 -0.5225  0.0808  0.1262
 1023MOL0     H41116   6.638   8.019   5.307 -1.7721 -1.8933  2.8953
 1023MOL0     H41117   6.653   7.928   5.532  0.8048 -1.1404 -0.8191
 1023MOL0     H41118   6.812   8.001   5.545 -0.5531 -0.6252  0.3052
 1023MOL0     H41119   6.537   8.141   5.517  0.0657  4.9532 -3.3241
 1023MOL0     H41120   6.684   8.231   5.494  0.2643 -0.5501  0.2183
 1023MOL0     H41121   6.602   8.253   5.728  0.8831  0.9197  0.8098
 1023MOL0     H41122   6.648   8.072   5.751  0.6127  0.3439 -0.6836
 1023MOL0     H41123   6.767   8.433   5.697 -0.9143 -0.9334 -0.9075
 1023MOL0     H41124   7.140   8.452   5.795 -1.0569  2.4391  2.9823
 1023MOL0     H41125   6.984   8.547   5.784 -0.3629 -1.4891  3.6479
 1023MOL0     H41126   6.999   8.529   5.533 -1.3736 -0.6242  0.8712
 1023MOL0     H41127   7.148   8.592   5.598  0.1637  0.2590 -1.7953
 1023MOL0     H41128   7.249   8.386   5.578  0.5789  2.3239 -0.5608
 1023MOL0     H41129   7.110   8.289   5.522  2.4233 -0.8001  0.8253
 1023MOL0     H41130   7.226   8.538   5.383 -0.0604  0.0473  1.7346
 1023MOL0     H41131   7.299   8.385   5.361 -0.1636  0.3683  0.6321
 1023MOL0     H41132   7.051   8.644   5.356 -0.0188  2.0925 -0.2788
 1023MOL0     H41133   6.836   8.897   5.178  0.9496 -1.8084 -1.2349
 1023MOL0     H41134   7.016   8.920   5.190  0.7758 -0.6967 -1.0496
 1023MOL0     H41135   6.911   8.866   5.330 -1.1709  0.3184 -0.3081
 1023MOL0     H41136   6.674   8.695   4.600  0.2741  0.5524  0.3050
 1023MOL0     H41137   6.612   8.835   4.421  0.2494 -1.2676 -0.2844
 1023MOL0     H41138   6.528   9.120   4.355  2.1016 -1.4348 -2.2137
 1023MOL0     H41139   6.607   9.184   4.511  0.9331  0.1971  0.1467
 1023MOL0     H41140   6.716   9.356   4.371  1.8348 -1.2708 -0.4028
 1023MOL0     H41141   6.634   9.285   4.233 -0.1843 -1.5634  0.0635
 1023MOL0     H41142   6.481   9.395   4.478 -1.8690  3.7792 -1.4487
 1023MOL0     H41143   6.418   9.333   4.326  0.7240 -2.3633 -0.1650
 1023MOL0     H41144   6.477   9.492   4.203 -1.6852 -0.8685 -0.1608
 1023MOL0     H41145   6.605   9.566   4.308 -0.6971  1.2987  3.4436
 1023MOL0     H41146   6.310   9.557   4.338  0.6734  0.1131 -0.6106
 1023MOL0     H41147   6.416   9.611   4.473  1.9887 -3.3190 -1.3233
 1023MOL0     H41148   6.494   9.817   4.332 -1.7349  3.1616  2.4967
 1023MOL0     H41149   6.327   9.815   4.381  1.6535  3.0706 -0.3660
 1023MOL0     H41150   6.446   9.718   4.103 -1.5309 -2.4314 -0.5463
 1023MOL0     H41151   6.403   9.884   4.151 -0.2398 -0.4113 -0.0152
 1023MOL0     H41152   6.167   9.835   4.144  0.4317  1.4200 -1.3060
 1023MOL0     H41153   6.198   9.656   4.150  3.1974 -0.5574 -0.7305
 1023MOL0     H41154   6.916   9.112   4.545  0.3583 -0.0779 -1.1133
 1023MOL0     H41155   6.983   8.973   4.735  0.0181 -0.1603  0.2372
 1023MOL0     H41156   6.945   8.538   4.884  4.1520  0.9994 -1.8381
 1023MOL0     H41157   7.017   8.367   5.020  0.8896  0.9227 -3.1027
 1023MOL0     H41158   6.649   8.473   5.012  3.3085 -1.3158 -1.1474
 1023MOL0     H41159   6.553   8.663   4.912 -0.7814  0.1064  0.7852
 1023MOL0     H41160   6.431   8.928   4.700 -2.5136  1.4570  2.3640
 1023MOL0     H41161   6.326   9.155   4.648 -0.0822  1.7373 -1.4309
 1023MOL0     H41162   5.973   9.173   4.326 -1.9700  0.6385  0.5561
 1023MOL0     H41163   5.910   9.089   4.463 -0.2771 -0.6921 -3.2756
 1023MOL0     H41164   5.786   9.272   4.429 -3.3464  4.1690  4.0565
 1023MOL0     H41165   5.926   9.386   4.416  1.9418  1.0557  1.5465
 1023MOL0     H41166   5.915   9.226   4.666 -1.2909 -0.9768 -1.4396
 1023MOL0     H41167   5.972   9.391   4.644  1.3198 -1.1056  0.4074
 1023MOL0     H41168   5.795   9.415   4.787  1.6399  1.7241 -0.3496
 1023MOL0     H41169   5.694   9.312   4.688  0.6442 -0.1455  3.0704
 1023MOL0     H41170   5.652   9.673   4.475 -0.5847 -0.4747 -0.8826
 1023MOL0     H41171   6.069   8.968   4.356 -0.9263  0.8685  1.0211
 1023MOL0     H41172   6.041   8.735   4.363  0.8596  2.3051 -0.2025
 1023MOL0     H41173   6.197   8.692   4.296  1.9980  2.1705  1.0534
 1023MOL0     H41174   6.142   8.629   4.459 -2.8113 -0.4223  1.5000
 1024MOL0     O41175   5.856  11.313  10.011 -1.0174 -0.4901  0.6920
 1024MOL0     C41176   5.889  11.207   9.957 -0.3194  0.4846 -0.0810
 1024MOL0     O41177   5.891  11.181   9.818  0.0242 -0.4894 -0.1839
 1024MOL0     C41178   5.901  11.275   9.726  0.5316 -0.3257  0.1155
 1024MOL0     C41179   5.857  11.244   9.597 -0.1202  0.8733  0.4567
 1024MOL0     C41180   5.868  11.340   9.489 -0.0140 -0.7168 -0.0406
 1024MOL0     C41181   5.920  11.468   9.519  0.0365  0.4736 -0.2592
 1024MOL0     O41182   5.934  11.569   9.429 -0.6239 -0.3283  0.4140
 1024MOL0     C41183   5.918  11.551   9.288 -0.5316  0.1173  0.1396
 1024MOL0     C41184   5.924  11.695   9.219  1.0156  0.1677 -0.2412
 1024MOL0     C41185   5.821  11.793   9.288 -0.2273  0.1846 -0.4255
 1024MOL0     C41186   5.687  11.774   9.229  0.9906  0.1644 -0.1059
 1024MOL0     C41187   5.680  11.859   9.095 -0.9881  0.1144 -0.6473
 1024MOL0     C41188   5.552  11.833   9.012 -0.2357  0.9538  0.2336
 1024MOL0     C41189   5.528  11.943   8.908 -0.0866 -0.2387  0.4663
 1024MOL0     C41190   5.409  11.917   8.819  0.2239 -0.0301 -0.7744
 1024MOL0     N41191   5.287  11.945   8.898 -0.2599  0.3131 -0.3936
 1024MOL0     C41192   5.207  12.054   8.895 -0.3826 -0.4433 -0.9241
 1024MOL0     C41193   5.102  12.033   8.978  0.0928  0.7762  0.4049
 1024MOL0     C41194   4.989  12.121   9.010 -0.8858  0.5405  0.1898
 1024MOL0     C41195   5.010  12.199   9.145  0.1152  0.5275 -0.1435
 1024MOL0     C41196   4.889  12.276   9.195 -0.4123 -0.3831 -0.0058
 1024MOL0     C41197   4.926  12.362   9.314  0.8608  0.5527 -0.1473
 1024MOL0     O41198   4.971  12.485   9.252 -0.5320  0.3937  0.1386
 1024MOL0     C41199   5.029  12.570   9.347 -0.1900 -0.0697 -0.5139
 1024MOL0     C41200   4.939  12.680   9.384 -0.7648  0.0446  0.6133
 1024MOL0     C41201   4.985  12.782   9.470  1.0683  0.3584 -1.0179
 1024MOL0     C41202   4.896  12.903   9.502  0.7399  0.2035 -0.3183
 1024MOL0     C41203   5.111  12.761   9.530 -0.0639  0.3931 -0.7075
 1024MOL0     C41204   5.169  12.869   9.622  0.4898 -0.1104 -1.6502
 1024MOL0     O41205   5.304  12.882   9.616 -0.6537  0.0947 -0.5103
 1024MOL0     C41206   5.364  12.962   9.709 -0.3984  0.3287  0.0006
 1024MOL0     C41207   5.336  13.094   9.725  0.6182  0.5424 -0.5024
 1024MOL0     C41208   5.396  13.164   9.824  0.0585  0.6874 -0.5540
 1024MOL0     C41209   5.491  13.104   9.912  0.6571 -0.5136 -0.2823
 1024MOL0     O41210   5.551  13.175  10.010  0.2204  0.3589 -0.1468
 1024MOL0     C41211   5.644  13.268   9.952 -0.0902 -0.4620 -0.8456
 1024MOL0     C41212   5.684  13.363  10.068  0.1481 -0.2910  0.1179
 1024MOL0     C41213   5.784  13.300  10.183  0.6579  0.7402  1.0391
 1024MOL0     C41214   5.933  13.335  10.143  0.1149 -1.3876 -0.6532
 1024MOL0     C41215   5.992  13.255  10.018  0.1447  0.2864 -0.2717
 1024MOL0     C41216   5.987  13.101  10.034 -0.7567 -0.7094  0.1494
 1024MOL0     C41217   6.061  13.021   9.931 -0.7491  0.3194  0.3024
 1024MOL0     C41218   6.016  13.024   9.777 -0.0190  0.6162  0.1877
 1024MOL0    Cl41219   5.845  12.979   9.770  0.3377  0.1269 -0.1382
 1024MOL0     C41220   5.516  12.969   9.897 -0.0854  0.5009  0.5910
 1024MOL0     C41221   5.458  12.898   9.798  0.5118 -0.4173 -0.5345
 1024MOL0     O41222   5.099  12.922   9.714 -0.7889 -0.2779  1.1747
 1024MOL0     C41223   5.199  12.653   9.501  1.2901  0.1328  0.0427
 1024MOL0     C41224   5.151  12.562   9.401 -0.3614 -0.4136 -0.2902
 1024MOL0     N41225   5.118  11.905   9.038  0.2541 -0.8352  0.0261
 1024MOL0     N41226   5.227  11.854   8.977 -0.1691 -0.3596 -0.7002
 1024MOL0     C41227   5.973  11.491   9.644 -0.7594  0.6205  0.6806
 1024MOL0     C41228   5.960  11.399   9.744 -0.5211  0.7030 -0.3093
 1024MOL0     C41229   5.918  11.091  10.041  0.8238  0.7764  0.0058
 1024MOL0     C41230   6.008  10.998  10.007  0.7341 -0.6246  0.8929
 1024MOL0     C41231   6.042  10.896  10.083 -0.5170  0.2317 -0.3122
 1024MOL0     C41232   5.982  10.871  10.213 -0.0186  0.3905  0.4873
 1024MOL0     O41233   6.036  10.770  10.293 -0.2344  0.4247 -0.5355
 1024MOL0     C41234   5.956  10.740  10.410  0.3030 -0.5015  0.1854
 1024MOL0     C41235   5.963  10.824  10.539 -0.7782 -0.7812 -1.0230
 1024MOL0     C41236   5.861  10.782  10.645  0.8772 -0.3103 -1.4849
 1024MOL0     C41237   5.721  10.853  10.636  0.5040 -0.0671  0.0873
 1024MOL0     C41238   5.742  10.998  10.654  0.6101 -0.4673  0.2696
 1024MOL0     C41239   5.779  11.116  10.658 -0.6156  0.2924 -0.5329
 1024MOL0     C41240   5.891  10.967  10.259 -0.7228 -1.3853 -0.7961
 1024MOL0     C41241   5.853  11.076  10.174  0.1567 -0.3025  0.1026
 1024MOL0     C41242   5.741  11.156  10.228  0.0647 -0.2940 -0.2519
 1024MOL0     H41243   5.824  11.147   9.560 -0.0824  1.0138  0.0520
 1024MOL0     H41244   5.834  11.306   9.391  1.1496  0.4343 -0.8781
 1024MOL0     H41245   5.826  11.496   9.268  1.4942 -3.4355 -0.3121
 1024MOL0     H41246   6.008  11.494   9.260  0.1622  0.5459  1.4011
 1024MOL0     H41247   6.022  11.740   9.236  0.5744  0.4391  1.8246
 1024MOL0     H41248   5.909  11.684   9.111 -0.9196 -0.3752  0.0316
 1024MOL0     H41249   5.816  11.772   9.395  0.2606 -0.6500 -0.5620
 1024MOL0     H41250   5.851  11.896   9.264 -1.7631  0.5887 -0.7514
 1024MOL0     H41251   5.660  11.669   9.217 -0.3284  0.3680  0.8631
 1024MOL0     H41252   5.610  11.819   9.292  0.6439  2.2398 -1.8825
 1024MOL0     H41253   5.761  11.835   9.026 -0.3775 -2.6563  0.8840
 1024MOL0     H41254   5.684  11.963   9.128 -2.0232  0.3934 -1.3732
 1024MOL0     H41255   5.559  11.744   8.948  1.8251 -0.3775  2.1281
 1024MOL0     H41256   5.463  11.809   9.072 -0.8215 -2.2731 -1.6887
 1024MOL0     H41257   5.620  11.954   8.851 -0.2981  0.6148  0.2664
 1024MOL0     H41258   5.508  12.043   8.948 -1.0183  0.7937 -2.3308
 1024MOL0     H41259   5.402  11.964   8.721 -0.6354 -1.7368 -1.5704
 1024MOL0     H41260   5.405  11.811   8.795 -0.6810  0.7498 -4.7358
 1024MOL0     H41261   5.217  12.141   8.831 -0.2717 -0.0796 -0.4096
 1024MOL0     H41262   4.893  12.070   9.000 -1.0176  0.7223  0.4996
 1024MOL0     H41263   4.972  12.207   8.944  0.8427  2.0176  1.5541
 1024MOL0     H41264   5.037  12.123   9.219  0.0034 -1.2395 -1.8462
 1024MOL0     H41265   5.098  12.264   9.139  0.9358 -0.6018 -0.5061
 1024MOL0     H41266   4.847  12.337   9.115  1.6797 -0.8439 -1.5665
 1024MOL0     H41267   4.811  12.206   9.227 -0.6561  0.6521  1.8117
 1024MOL0     H41268   4.833  12.391   9.364 -0.5005  1.9359 -3.2428
 1024MOL0     H41269   5.003  12.311   9.374 -0.1739 -0.9969 -0.0611
 1024MOL0     H41270   4.837  12.691   9.349 -0.6811 -3.3576 -1.0702
 1024MOL0     H41271   4.944  12.997   9.530 -1.0379  1.2765 -0.6617
 1024MOL0     H41272   4.834  12.869   9.586  0.9029 -2.0089 -1.0177
 1024MOL0     H41273   4.823  12.924   9.423 -0.1149 -1.0178  0.0973
 1024MOL0     H41274   5.267  13.140   9.655 -0.0827  2.7661  1.5529
 1024MOL0     H41275   5.389  13.272   9.827  2.7243  0.9208 -0.1290
 1024MOL0     H41276   5.737  13.221   9.917  1.0432  0.6139  0.5745
 1024MOL0     H41277   5.590  13.324   9.876 -3.0891 -1.5714  0.2922
 1024MOL0     H41278   5.731  13.449  10.019 -0.3624 -0.7515 -1.2431
 1024MOL0     H41279   5.591  13.398  10.114 -0.0985 -2.0895  1.0996
 1024MOL0     H41280   5.766  13.192  10.186  1.6924  0.4979 -0.5117
 1024MOL0     H41281   5.764  13.344  10.282  1.0508  0.6298  1.1709
 1024MOL0     H41282   6.004  13.312  10.224 -0.9504 -1.2559  0.3346
 1024MOL0     H41283   5.929  13.442  10.122 -2.8936 -0.7444  2.2681
 1024MOL0     H41284   5.936  13.275   9.926 -2.5716 -1.8779  0.7689
 1024MOL0     H41285   6.095  13.286   9.996  0.2259  1.2381  1.3094
 1024MOL0     H41286   5.883  13.065  10.036 -0.7521 -0.7692 -0.5254
 1024MOL0     H41287   6.032  13.087  10.132  0.4393 -2.0248 -0.5643
 1024MOL0     H41288   6.053  12.919   9.969 -2.4483  1.9059  4.8528
 1024MOL0     H41289   6.163  13.058   9.940 -0.2130 -1.1018  0.4195
 1024MOL0     H41290   6.079  12.961   9.714  3.6917  1.8251  2.3836
 1024MOL0     H41291   6.027  13.128   9.747 -0.7944  0.9638  1.0468
 1024MOL0     H41292   5.576  12.917   9.971  1.1157 -2.4830 -2.2442
 1024MOL0     H41293   5.470  12.790   9.801 -0.2424 -0.4925  1.2510
 1024MOL0     H41294   5.298  12.634   9.543  0.8424 -0.3207  0.9193
 1024MOL0     H41295   5.216  12.483   9.363  1.2038  1.5775 -2.0173
 1024MOL0     H41296   6.021  11.587   9.655 -1.7718  0.9803  2.2133
 1024MOL0     H41297   6.004  11.409   9.843  2.5207 -3.0371 -1.0633
 1024MOL0     H41298   6.057  11.015   9.912 -1.4982 -1.6652 -0.5270
 1024MOL0     H41299   6.108  10.824  10.037 -1.3830 -0.6451 -0.2257
 1024MOL0     H41300   5.852  10.744  10.379 -0.3138 -0.6485  2.0895
 1024MOL0     H41301   5.978  10.634  10.427 -1.4337 -0.9939 -0.5103
 1024MOL0     H41302   5.964  10.931  10.514  4.3174 -0.0632  0.9982
 1024MOL0     H41303   6.058  10.818  10.592  0.1361 -0.3878 -2.5485
 1024MOL0     H41304   5.840  10.675  10.638  0.3323 -0.1074 -3.9915
 1024MOL0     H41305   5.896  10.799  10.747 -1.3199  4.0316 -1.2253
 1024MOL0     H41306   5.641  10.818  10.702 -1.5773  1.4543 -1.4738
 1024MOL0     H41307   5.679  10.848  10.535  1.2039  0.5640 -0.2502
 1024MOL0     H41308   5.842  11.203  10.659 -1.1470  0.6948  0.8659
 1024MOL0     H41309   5.840  10.966  10.355  1.7030  1.7011  0.7096
 1024MOL0     H41310   5.676  11.099  10.297  0.2453  1.9317  1.8942
 1024MOL0     H41311   5.790  11.235  10.285  1.2611  0.4630 -2.2266
 1024MOL0     H41312   5.675  11.195  10.150 -0.2883  1.3087  0.8011
  11.52307  11.52307  11.52307
